ITEM: TIMESTEP
48148094
ITEM: NUMBER OF ATOMS
204
ITEM: BOX BOUNDS ff ff ff
-0.15 0.15
-0.15 0.15
-0.15 0.15
ITEM: ATOMS id type x y z radius vx vy vz density 
128 1 -0.00777978 -0.109738 -0.0681704 0.000423 -162.593 0.197233 18.4808 2650 
3719 1 -0.0241045 -0.0159425 -0.0646079 4.2e-05 -50.0561 -2.45952 18.6754 2650 
1375 1 -0.0124639 -0.0599892 -0.0269693 0.000423 -5.08947 0.00916425 2.33806 2650 
3071 1 -0.0141949 -0.000282179 -0.00896019 4.2e-05 -0.0796094 0.00320757 0.148802 2650 
2775 1 -0.0286812 -0.0584351 -0.00752821 0.000423 -1.4095 0.516945 5.38647 2650 
3373 1 -0.0103486 -0.000225732 -0.00774258 0.000116 -0.0173229 -0.00214691 0.0103305 2650 
537 1 -0.0162917 -0.000255514 0.00362194 0.000116 0.016997 0.00127811 0.0901465 2650 
2170 1 -0.00395628 -0.000305018 0.0056275 0.000116 -0.0178885 -0.00197673 -0.00946212 2650 
2955 1 -0.0124528 -0.00148636 0.0104986 4.2e-05 -0.00350847 -0.00274947 -0.027022 2650 
1827 1 -0.00558893 -0.00257052 0.0120506 0.000116 0.0103409 -0.00799916 0.0195353 2650 
2121 1 -0.0259512 -0.0584543 0.0145462 0.000423 2.76836 -0.285312 4.93285 2650 
3758 1 -0.0197587 -0.00730692 0.0656689 0.000423 -0.0786991 -0.175747 -0.0243715 2650 
948 1 -0.0261647 0.0288538 -0.0637245 0.000116 -134.574 -1.23523 55.2506 2650 
2587 1 -0.00175959 0.0292943 -0.0166492 0.000116 -0.248411 0.0130428 0.0436395 2650 
1057 1 -0.00479988 0.00797443 -0.0160652 0.000116 -0.263508 0.0181364 0.0494167 2650 
2109 1 -0.00103148 0.0130019 -0.016373 0.000423 -0.183917 0.000220886 0.046736 2650 
3137 1 -0.000356976 0.0434746 -0.0160247 0.000116 -0.0298665 0.0141454 0.0139981 2650 
313 1 -0.0062544 0.0127281 -0.0153487 0.000116 -0.196274 0.0277738 0.0991567 2650 
1830 1 -0.00619495 0.01812 -0.0155678 0.000116 -0.249318 0.0352983 0.103446 2650 
3435 1 -0.00500272 0.0254959 -0.015752 0.000423 -0.221681 -0.0099738 0.0911962 2650 
2091 1 -0.00601315 0.0284451 -0.0150848 0.000656 -0.219662 0.00538225 0.0903878 2650 
958 1 -0.00332545 0.041499 -0.0146481 0.000116 -0.00586431 0.033519 -0.00573458 2650 
1977 1 -0.00563362 0.0501335 -0.0137295 4.2e-05 -0.00580185 0.0289425 -0.0283867 2650 
2085 1 -0.00109317 0.0198615 -0.0130507 4.2e-05 -0.0351935 0.00295564 -0.0160554 2650 
2044 1 -0.0103837 0.0265609 -0.0131536 0.000116 -0.182829 -0.0463727 0.137887 2650 
2288 1 -0.0098815 0.0537409 -0.013091 0.000116 0.0783604 -0.00958289 -0.0583972 2650 
1695 1 -0.00332792 0.0328602 -0.0121969 0.000423 0.0133272 0.0173293 -0.00289347 2650 
978 1 -0.0123152 0.0187893 -0.011436 0.000116 -0.189077 0.00305977 0.217212 2650 
2299 1 -0.0129109 0.00904915 -0.0107268 4.2e-05 -0.0836635 0.0072773 0.0959066 2650 
2303 1 -0.0130609 0.0227971 -0.0107243 4.2e-05 -0.17595 -0.0225372 0.202528 2650 
4269 1 -0.0136501 0.0154885 -0.00952907 4.2e-05 -0.0127414 0.0022567 -0.00467821 2650 
4340 1 -0.0146467 0.0364852 -0.00811214 0.000116 -0.125533 0.0331893 0.236687 2650 
3688 1 -0.0150832 0.0190066 -0.00730762 0.000116 -0.0514569 0.0237415 0.0969684 2650 
3023 1 -0.0152362 0.0265154 -0.00705807 0.000116 -0.123003 -0.0177357 0.234131 2650 
3811 1 -0.0153802 0.0445137 -0.00661968 0.000116 -0.14095 0.0438127 0.263553 2650 
2502 1 -0.00578785 0.0450972 -0.00660004 0.000116 0.0150784 0.0191854 -0.001372 2650 
461 1 -0.0144554 0.061252 -0.00655828 0.000423 -0.0167459 0.0414814 -0.0148341 2650 
3374 1 -0.0120161 0.0168119 -0.00625731 0.000116 0.0128784 0.00328081 0.0135596 2650 
4158 1 -0.0157661 0.0333938 -0.00613774 4.2e-05 -0.098775 0.0579803 0.188307 2650 
1926 1 -0.00312039 0.0607514 -0.006029 0.000116 -0.0098772 0.042257 0.00489702 2650 
1649 1 -0.0140623 0.0288241 -0.00535068 4.2e-05 -0.0206843 0.021445 -0.0188351 2650 
2396 1 -0.0149375 0.0637587 -0.00417686 0.000116 -0.0213383 0.0600658 0.0093111 2650 
409 1 -0.0157661 0.00267954 -0.0033382 0.000116 -0.0302843 -0.00110969 0.00466816 2650 
962 1 -0.000932248 0.0157334 -0.00323799 0.000116 0.00474377 0.0040355 -0.00292126 2650 
171 1 -0.016284 0.0218699 -0.00376149 0.000116 -0.0673649 -0.0192985 0.271293 2650 
2621 1 -0.0166021 0.0313069 -0.002484 0.000116 -0.088412 0.0565776 0.356461 2650 
829 1 -0.0166512 0.0114507 -0.00160388 0.000116 -0.0099149 0.0329414 0.236216 2650 
1386 1 -0.0111312 0.0223972 -0.00123461 0.000116 0.0246686 0.00383146 0.00652037 2650 
1390 1 -0.0157397 0.0263701 -0.00126531 0.000116 0.00668184 0.00761406 0.004387 2650 
1726 1 -0.0138315 0.00247125 -0.000193661 0.000116 0.0067969 -0.0044196 0.00453897 2650 
2252 1 -0.0164094 0.0305965 -0.000282298 0.000423 -0.0103151 0.0245483 0.273426 2650 
3488 1 -0.0168091 0.0307963 -0.000692302 0.000116 -0.0235462 -0.00646701 0.24964 2650 
3713 1 -0.00239332 0.0625143 -0.000102658 0.000116 0.019386 0.0235719 0.0208219 2650 
444 1 -0.0109508 0.0222373 0.000193097 0.000656 0.00276329 0.0169294 0.0180429 2650 
1061 1 -0.0167628 0.0258058 0.00084404 0.000116 -0.0145397 -0.0912356 0.371471 2650 
1277 1 -0.0162422 0.0437818 0.00229311 0.000116 0.00328303 0.0191546 0.0850208 2650 
1566 1 -0.00352185 0.0189013 0.00393735 0.000423 0.00765391 -0.00358638 0.0302802 2650 
2301 1 -0.013246 0.0347798 0.00360032 4.2e-05 -0.00799594 0.0291052 0.0177741 2650 
3181 1 -0.0148356 0.040558 0.00385991 4.2e-05 0.0123085 0.0204503 0.0172726 2650 
308 1 -0.0159835 0.00717537 0.00508832 0.000116 0.057815 0.0116579 0.133965 2650 
3159 1 -0.00841077 0.0078658 0.0049786 0.000116 0.00880628 0.00212481 -0.0109947 2650 
3184 1 -0.01518 0.0197093 0.00508796 0.000656 -0.004791 0.0363123 -0.0376155 2650 
4261 1 -0.013004 0.039295 0.00543539 0.000116 -0.00760984 0.0121487 -0.0257156 2650 
4012 1 -0.0155151 0.00603145 0.00616004 0.000116 0.0409322 0.00820206 0.0948543 2650 
1290 1 -0.00470647 0.0367327 0.00684408 0.000116 -0.000139434 0.0231722 -0.013174 2650 
2175 1 -0.0153479 0.0412701 0.00645282 0.000116 0.0145353 0.00675984 0.0294794 2650 
2403 1 -0.0147096 0.0402406 0.00773034 0.000116 -0.0260271 0.0142728 -0.0103244 2650 
4341 1 -0.0145138 0.0536123 0.00838966 0.000116 0.152712 0.0373542 0.207574 2650 
751 1 -0.0141531 0.00253673 0.0088605 0.000116 0.0301291 0.00224243 0.0405744 2650 
3931 1 -0.00950888 0.0116249 0.00929057 0.000116 -0.0219574 0.00911183 0.0286579 2650 
391 1 -0.0140398 0.0121189 0.00908482 0.000116 0.176132 0.0325601 0.235986 2650 
3562 1 -0.0137019 0.0315657 0.00915927 0.000423 0.214808 0.0427327 0.288871 2650 
4054 1 -0.0104833 0.033081 0.00895793 4.2e-05 -0.00302514 0.021236 0.0124005 2650 
1969 1 -0.01362 0.0267019 0.00991966 4.2e-05 0.167722 0.0621087 0.225944 2650 
1688 1 -0.0119301 0.028205 0.01153 0.000423 0.226904 -0.0237278 0.197405 2650 
613 1 -0.0102254 0.0282347 0.0111448 0.000116 -0.0207041 0.0167945 0.00815702 2650 
532 1 -0.011756 0.0306104 0.0121044 0.000116 0.216769 0.0330336 0.189605 2650 
1586 1 -0.0104918 0.037799 0.012465 0.000423 0.125182 0.0047551 0.129475 2650 
1199 1 -0.0104785 0.0373115 0.0131191 0.000116 0.246972 -0.0410425 0.215594 2650 
1325 1 -6.03977e-06 0.0747296 0.0131727 0.000656 0.0293551 0.0548053 0.032583 2650 
103 1 -0.000684813 0.012837 0.0136401 4.2e-05 0.00843836 0.00223835 -0.0205048 2650 
2409 1 -0.0058571 0.022603 0.0134465 4.2e-05 0.0164201 0.00833024 -0.00540779 2650 
566 1 -0.00871485 0.0311564 0.0140129 0.000423 0.237335 0.0203494 0.124927 2650 
3289 1 -0.00879213 0.0462526 0.0143068 4.2e-05 0.182603 -0.0831007 0.071494 2650 
3411 1 -0.00695195 0.0501846 0.0145774 0.000656 0.0381923 0.0201585 0.00894679 2650 
2026 1 -0.00399337 0.000648734 0.0153355 0.000423 0.045043 6.07892e-05 0.00351084 2650 
2200 1 -0.00625699 0.0142784 0.0157003 4.2e-05 0.21734 0.00465469 0.116137 2650 
1167 1 -0.00701549 0.0190653 0.0153883 0.000116 0.128783 -0.00246017 0.0309763 2650 
896 1 -0.00619051 0.0370621 0.0153058 0.000423 0.242077 -0.0117157 0.128609 2650 
2413 1 -0.00353369 0.0404256 0.0157417 4.2e-05 -0.0223669 0.0262205 0.0171047 2650 
2668 1 -0.0041794 0.0490211 0.0150699 0.000423 0.0210052 0.028517 0.0263336 2650 
1366 1 -0.00595087 0.052246 0.0153457 0.000423 0.275082 0.0106959 0.0746929 2650 
3100 1 -0.00198862 0.0152514 0.0163262 0.000423 0.163925 0.0297305 0.00632028 2650 
1152 1 -0.00183626 0.0187824 0.016371 0.000423 0.156273 -0.0600919 0.00624303 2650 
3595 1 -0.00274718 0.0213954 0.0165363 0.000116 0.224938 -0.00668967 0.0558624 2650 
3512 1 -0.00216044 0.0328121 0.0161037 0.000656 0.251291 -0.00945822 0.00989926 2650 
887 1 -0.000484089 0.0331477 0.0161692 0.000656 0.112945 -0.0237122 0.00455414 2650 
124 1 -0.00352999 0.0532407 0.0159806 0.000423 0.0830231 0.039352 0.0222646 2650 
3457 1 -0.00135295 0.0205191 0.0166715 0.000116 0.237982 -0.00039848 0.00955259 2650 
2592 1 -0.00249697 0.0418642 0.016587 0.000116 0.347918 0.061847 0.0895742 2650 
3696 1 -0.00229151 0.0509303 0.0166063 0.000116 0.293056 -0.0149452 0.0121954 2650 
1145 1 -0.0250696 0.059626 0.0177551 0.000423 -3.19287 0.0851123 2.4606 2650 
1301 1 -0.00431452 0.0956245 -0.00877262 0.000116 -0.00647945 0.108282 -0.0353601 2650 
2414 1 -0.012093 0.0820801 -0.00213049 4.2e-05 -0.0314882 0.0579851 -0.0239762 2650 
839 1 -0.00102561 0.14327 0.00267245 0.000116 -0.00669255 0.0948313 0.0106808 2650 
1775 1 -0.0417192 0.141771 0.054483 0.000423 145.287 3.65003 111.227 2650 
4002 1 0.0278729 -0.0235002 -0.0629999 0.000116 -211.471 0.119174 -93.5547 2650 
3273 1 0.000842002 -0.00305267 -0.0166591 0.000116 -0.0878152 -0.0238153 -0.00334635 2650 
1372 1 0.0240761 -0.0543772 -0.0163436 0.000423 -2.50788 -2.12342e-07 -3.68733 2650 
2466 1 0.0264976 -0.0590231 -0.0135109 0.000423 -2.56168 -0.260803 -5.04544 2650 
1233 1 0.0276837 -0.0568143 -0.0105877 0.000423 -1.9992 0.0209983 -5.22053 2650 
407 1 0.0127178 -0.00138557 -0.0108442 0.000116 -0.0642444 0.00310969 -0.0871414 2650 
2439 1 0.0292899 -0.061087 -0.00409473 0.000423 -0.749016 0.242876 -5.53489 2650 
768 1 0.00519244 -0.0023422 0.000168285 4.2e-05 -0.00612284 -0.0041527 0.000417042 2650 
3315 1 0.0161048 -9.99776e-05 0.0032304 0.000423 -0.0207296 0.00267915 0.00840019 2650 
3425 1 0.0292494 -0.0583965 0.00450561 0.000423 0.858512 0.180596 -5.56211 2650 
1450 1 0.0139775 -0.00282445 0.00841626 0.000423 0.0125726 -0.00248918 -0.0314388 2650 
4115 1 0.0102217 -0.00112655 0.0131391 0.000116 0.0849139 -0.00544492 -0.0448561 2650 
1338 1 0.0233994 -0.0584981 0.0183735 0.000423 3.51951 0.0678938 -4.48259 2650 
1332 1 0.0215643 -0.0541444 0.0189945 0.000656 3.02763 -1.19123e-06 -3.43125 2650 
3762 1 0.0153686 -0.0543772 0.0246883 0.000423 3.81105 2.55265e-08 -2.37205 2650 
174 1 0.0252508 -0.0230242 0.064089 0.000116 -3.84489 -0.0273933 1.51441 2650 
749 1 0.0486773 0.0710868 -0.0487395 0.000116 0.145291 -0.0230976 0.145079 2650 
867 1 0.0549691 0.0390133 -0.0415212 0.000116 -91.7839 -7.22092 -121.502 2650 
878 1 0.00254415 0.00530188 -0.0166574 4.2e-05 -0.122085 -0.00535856 -0.0327118 2650 
3658 1 0.00189822 0.0204833 -0.0163466 0.000423 -0.291903 -0.00961604 -0.0115 2650 
2068 1 0.00361796 0.0214216 -0.0163184 0.000116 -0.25755 0.0209175 -0.064041 2650 
375 1 0.00303527 0.0252724 -0.016153 0.000423 -0.17299 0.009939 -0.0427535 2650 
2495 1 0.00209391 0.0316025 -0.0164816 0.000116 -0.207807 -0.0131101 0.00989255 2650 
3235 1 0.003261 0.0323732 -0.0161482 0.000423 -0.0495346 0.0174897 -0.012145 2650 
1859 1 0.00598178 0.00682472 -0.0157218 4.2e-05 0.0167165 0.00151049 0.00738861 2650 
1617 1 0.000343724 0.0143646 -0.0156959 0.000116 0.0152632 0.00950611 -0.00429697 2650 
3297 1 0.0057369 0.0452497 -0.0151832 0.000656 -0.26933 -0.0424148 -0.0723929 2650 
4109 1 0.00693841 0.019581 -0.014937 0.000423 0.0203222 0.0113358 0.0127659 2650 
2937 1 0.00867957 0.00569471 -0.0134597 0.000116 -0.03095 -0.00788887 0.0124086 2650 
1949 1 0.00962183 0.0314674 -0.0138783 0.000116 -0.248764 0.00913822 -0.130912 2650 
931 1 0.00900432 0.0353359 -0.013828 0.000423 -0.25679 -0.00800045 -0.135554 2650 
2029 1 0.00986741 0.00340276 -0.0131772 0.000423 -0.0361639 0.00217555 -0.0308655 2650 
985 1 0.00556187 0.0148586 -0.0123025 4.2e-05 -0.00205729 0.00336942 0.00401153 2650 
1401 1 0.0112659 0.0439978 -0.0119844 0.000116 -0.0482401 0.0707499 -0.0144224 2650 
3286 1 0.00373488 0.00960463 -0.0116877 4.2e-05 -0.0140612 -0.000406769 0.00829676 2650 
975 1 0.00791813 0.0264231 -0.0116807 0.000116 0.00283901 0.0118884 -0.0124969 2650 
4364 1 0.0129501 0.0314969 -0.0103938 0.000116 -0.0689025 0.0550576 -0.0862216 2650 
2262 1 0.0136402 0.0319814 -0.00974242 0.000116 -0.140264 -0.0104345 -0.188814 2650 
1153 1 0.0112012 0.0322796 -0.00828215 0.000423 0.0069428 0.0163695 -0.00774527 2650 
1622 1 0.00220939 0.0736952 -0.00858603 0.000116 0.0252356 0.0472165 -0.00030571 2650 
395 1 0.00617149 0.00983648 -0.00783519 0.000116 -0.00710234 0.00665662 -0.0276173 2650 
517 1 0.0088691 0.030815 -0.0078087 0.000116 -0.0116062 0.0122752 0.0140196 2650 
881 1 0.0152278 0.0139675 -0.00557701 0.000656 -0.0652615 -0.0199435 -0.155645 2650 
4294 1 0.0109059 0.0425846 -0.0052667 0.000423 0.0335852 0.0265495 -0.0147015 2650 
1834 1 0.00739061 0.0344477 -0.00370703 0.000116 0.0139886 0.0209733 0.00916377 2650 
3862 1 0.0166392 0.0685926 -0.00258733 0.000423 0.00838889 0.0703807 0.0204217 2650 
1276 1 0.0149335 0.0220007 -0.00194243 0.000116 0.0115853 0.00413098 0.0303834 2650 
1951 1 0.0166662 0.0353431 -0.00163462 0.000116 -0.0475973 0.0496169 -0.266083 2650 
3278 1 0.0166189 0.0377637 -0.00192867 0.000116 -0.0291528 0.0296674 -0.161127 2650 
1404 1 0.0167068 0.029558 -0.00143022 0.000116 -0.0396606 0.0227581 -0.225738 2650 
2478 1 0.01075 0.00853553 -0.000228256 0.000116 0.0277766 0.00564647 -0.0095855 2650 
2995 1 0.0136748 0.0640146 -0.000211471 0.000423 0.0363573 0.0459431 0.00902559 2650 
1113 1 0.0163731 0.0511515 0.000410537 0.000423 0.00986394 -0.0159076 -0.241885 2650 
3167 1 0.0164244 0.0172745 0.00104454 0.000116 -0.00747862 0.00944171 -0.1759 2650 
1527 1 0.0166715 0.0214702 0.00144036 0.000116 0.00892622 -0.0143914 -0.226287 2650 
2985 1 0.0147667 0.0680665 0.00219177 0.000423 -0.00470864 0.0381792 0.00720644 2650 
964 1 0.0161939 0.046152 0.00265093 0.000116 0.0490331 0.0166479 -0.0211884 2650 
2161 1 0.00688021 0.0496281 0.00281151 0.000116 0.0259242 0.0272669 0.0222447 2650 
1427 1 0.014301 0.0589005 0.00278216 4.2e-05 -0.0109477 0.032193 0.00536725 2650 
3388 1 0.00356921 0.0618513 0.00282989 0.000116 0.00328284 0.0425722 -0.0272589 2650 
979 1 0.0163856 0.017546 0.00332138 0.000116 0.0388784 -0.015673 -0.155218 2650 
1643 1 0.000788507 0.0419331 0.00405606 4.2e-05 -0.00583507 0.0218137 0.017945 2650 
3185 1 0.00345265 0.0691591 0.00405609 0.000656 -0.0229658 0.0401673 0.00208177 2650 
1222 1 0.0061384 0.00301545 0.0059642 0.000656 0.0104443 -0.0020847 -0.0233148 2650 
3580 1 0.000942808 0.0179306 0.00702788 0.000116 -0.0205447 0.00220226 -0.013372 2650 
3363 1 0.0152137 0.0353668 0.00706042 0.000116 0.0692238 -0.0115572 -0.130083 2650 
1097 1 0.0155932 0.0432401 0.00648593 4.2e-05 0.0104589 0.00511035 -0.0379454 2650 
2776 1 0.0146575 0.0468342 0.00730721 0.000423 0.169153 0.0414244 -0.315148 2650 
2730 1 0.0117524 0.00142514 0.008341 0.000116 -0.00424124 -0.00520915 -0.0044844 2650 
2153 1 0.0125799 0.0156829 0.00864788 0.000116 0.00656298 0.00568341 -0.0128949 2650 
1129 1 0.0133882 0.0131835 0.00927648 0.000423 -0.0167054 -0.000619331 -0.00613072 2650 
1317 1 0.00295681 0.0161292 0.00924005 4.2e-05 0.0232171 0.0048696 -0.00194067 2650 
2180 1 0.0132176 0.0634375 0.00953149 0.000116 0.00291779 0.041578 0.00902864 2650 
4266 1 0.0132423 0.0157381 0.0106761 4.2e-05 0.0353971 -0.0703651 -0.0362549 2650 
268 1 0.0125894 0.0294786 0.0106919 0.000423 0.161418 -0.0156464 -0.18563 2650 
782 1 0.0119968 0.0342266 0.010983 0.000656 0.123881 0.0363829 -0.142784 2650 
2805 1 0.0128552 0.0374956 0.0107842 0.000116 0.163587 0.0480197 -0.188266 2650 
1093 1 0.00433224 0.0151212 0.0111229 4.2e-05 0.0231837 0.00819928 0.00623872 2650 
3130 1 0.00470115 0.0206854 0.0118236 0.000116 0.0110127 0.0053862 -0.0184765 2650 
3498 1 0.0124464 0.0325844 0.011304 0.000116 0.145105 0.0083597 -0.166951 2650 
3153 1 0.00897123 0.0276438 0.0119938 0.000116 -0.0100839 0.0141293 0.000228711 2650 
3738 1 0.0108362 0.0277193 0.0121782 0.000656 0.215704 -0.030975 -0.16023 2650 
3240 1 0.00243433 0.0109979 0.0127961 0.000116 0.0122325 0.00657003 0.00489617 2650 
940 1 0.00727773 0.024409 0.0149125 0.000116 0.115924 -0.0879745 -0.0357954 2650 
217 1 0.000246029 0.0379404 0.0151202 4.2e-05 0.00118055 0.0132006 -0.0176373 2650 
3843 1 0.00349351 0.0383657 0.015782 0.000656 0.269667 0.0184857 -0.0489108 2650 
1308 1 0.00611721 0.0545367 0.0155265 0.000116 0.236365 0.00561733 -0.103291 2650 
2072 1 0.0672422 0.0587801 0.014992 0.000116 55.8445 0.862157 -250.459 2650 
1715 1 0.00246934 0.0255986 0.0165271 0.000116 0.257439 0.00529756 -0.0449622 2650 
374 1 0.00310884 0.0314038 0.0161101 0.000423 0.230994 0.0516808 -0.0404027 2650 
522 1 0.00391434 0.0392751 0.0161579 0.000116 0.12373 -0.0446887 -0.0238085 2650 
704 1 0.000658046 0.0406332 0.0164394 0.000423 0.304515 -0.0110964 0.0127181 2650 
3223 1 0.00103003 0.0437446 0.0164441 0.000423 0.0761246 0.00256631 -0.0146352 2650 
1867 1 0.000679722 0.00487451 0.016811 4.2e-05 0.306961 -0.0187068 0.0132243 2650 
1506 1 0.00861571 0.0811194 -0.00240917 0.000116 0.0336775 0.0455991 -0.00236406 2650 
1576 1 0.0143375 0.139862 0.00355775 0.000423 0.0324542 0.0941641 0.00528668 2650 
2344 1 0.0137964 0.075665 0.00608176 0.000423 -0.005308 0.0590222 0.0190466 2650 
277 1 0.00410109 0.0960185 0.00857088 0.000116 0.00273855 0.0626858 0.00700488 2650 
