ITEM: TIMESTEP
58333247
ITEM: NUMBER OF ATOMS
180
ITEM: BOX BOUNDS ff ff ff
-0.15 0.15
-0.15 0.15
-0.15 0.15
ITEM: ATOMS id type x y z radius vx vy vz density 
128 1 -0.0683753 -0.109788 -0.00576609 0.000423 -13.9663 -0.0508658 165.84 2650 
1372 1 -0.0181305 -0.0543772 -0.0229548 0.000423 -3.32912 -1.66647e-05 2.67432 2650 
407 1 -0.0156423 -0.000905824 -0.00603577 0.000116 -0.0267866 -0.000509914 0.0979955 2650 
3373 1 -0.0160652 -0.000934211 -0.00433354 0.000116 -0.0173229 -0.00214691 0.0103305 2650 
2955 1 -0.0136106 -0.00239368 0.00158142 4.2e-05 -0.00350847 -0.00274947 -0.027022 2650 
2170 1 -0.00985947 -0.000957336 0.00250501 0.000116 -0.0178885 -0.00197673 -0.00946212 2650 
1338 1 -0.0222342 -0.0598597 0.0197269 0.000423 3.57967 -0.517566 3.97118 2650 
1233 1 -0.0103554 -0.0600218 0.0278166 0.000423 5.00964 -0.343004 1.8557 2650 
2439 1 -0.00719589 -0.0612287 0.0287181 0.000423 5.11601 -0.207834 1.25121 2650 
1401 1 -0.0164381 0.0666844 -0.0632514 0.000116 0.180102 -0.0297012 1.48026 2650 
124 1 -0.0631655 0.027803 -0.0267174 0.000423 0.357261 -0.223111 -0.844294 2650 
522 1 -0.00402292 0.0225999 -0.0162029 0.000116 -0.209524 -0.0602248 0.0372711 2650 
2252 1 -0.00456371 0.0282082 -0.0158709 0.000423 -0.203493 -0.0132787 0.0345517 2650 
975 1 -0.00191081 0.0322539 -0.0163654 0.000116 -0.130324 0.0352743 0.00291436 2650 
171 1 -0.00256488 0.035002 -0.0165012 0.000116 -0.237831 0.0341438 0.0424724 2650 
3811 1 -0.00519761 0.0459801 -0.0159403 0.000116 -0.233895 -0.034436 0.100875 2650 
2029 1 -0.00581323 0.00370403 -0.0153294 0.000423 -0.0483934 6.25572e-05 0.0209842 2650 
566 1 -0.00516052 0.0274224 -0.015693 0.000423 -0.176577 -0.0260689 0.0725565 2650 
3512 1 -0.00611239 0.0306849 -0.0150388 0.000656 -0.160397 0.0109684 0.0662555 2650 
887 1 -0.00581209 0.0319998 -0.0151581 0.000656 -0.155754 0.0105773 0.0643604 2650 
532 1 -0.00620844 0.0353091 -0.0155631 0.000116 -0.180128 -4.43966e-05 0.0747805 2650 
958 1 -0.00488481 0.0524865 -0.0157595 0.000116 -0.00111287 0.0325876 0.00413864 2650 
4341 1 -0.00901223 0.0468952 -0.0140594 0.000116 -0.181154 -0.0245515 0.134744 2650 
1977 1 -0.00361036 0.0581691 -0.0128361 4.2e-05 0.00936363 0.0231065 0.0111301 2650 
2085 1 -0.00977521 0.0207712 -0.0122956 4.2e-05 -0.0181011 0.00257263 0.0192358 2650 
3363 1 -0.0117344 0.0329027 -0.012121 0.000116 -0.0889516 -0.000758826 0.102195 2650 
3235 1 -0.0118519 0.036836 -0.0114789 0.000423 -0.0321927 0.00944371 0.0370518 2650 
3595 1 -0.0138575 0.0181772 -0.00961231 0.000116 -0.0954067 -0.00194419 0.18052 2650 
2937 1 -0.0015339 0.00309139 -0.00936491 0.000116 -0.03095 -0.00788887 0.0124086 2650 
3286 1 -0.000905302 0.00947039 -0.00894978 4.2e-05 -0.0140612 -0.000406769 0.00829676 2650 
2200 1 -0.0140263 0.0167213 -0.00943176 4.2e-05 -0.100595 0.00200098 0.19008 2650 
4269 1 -0.0125097 0.0158661 -0.0082385 4.2e-05 0.0045722 0.00106755 0.00450289 2650 
1649 1 -0.0116433 0.0345184 -0.00868341 4.2e-05 0.0153533 0.0160557 -0.00759749 2650 
3457 1 -0.0154668 0.0233144 -0.00660461 0.000116 -0.0979758 0.00866939 0.186492 2650 
2502 1 -0.000811983 0.0514284 -0.0070528 0.000116 0.0150784 0.0191854 -0.001372 2650 
979 1 -0.0158359 0.0189491 -0.00552731 0.000116 -0.0355326 0.0204502 0.141735 2650 
1926 1 -0.00637986 0.0746962 -0.00441298 0.000116 -0.0098772 0.042257 0.00489702 2650 
782 1 -0.015721 0.0375897 -0.00378195 0.000656 -0.0421634 -0.0195533 0.165386 2650 
4261 1 -0.0155152 0.043304 -0.00305072 0.000116 -0.00760984 0.0121487 -0.0257156 2650 
3374 1 -0.00776623 0.0178946 -0.00178266 0.000116 0.0128784 0.00328081 0.0135596 2650 
4364 1 -0.016482 0.0434086 -0.00201947 0.000116 0.00103885 0.0536053 0.132343 2650 
1527 1 -0.0166857 0.0147546 -0.000924903 0.000116 -0.0056384 -0.00986112 0.136922 2650 
374 1 -0.0163526 0.0424478 -0.00146444 0.000423 -0.00940905 -0.0190394 0.20689 2650 
409 1 -0.0125893 0.00263301 0.000154928 0.000116 0.012862 -6.2486e-05 0.0110649 2650 
1390 1 -0.0135347 0.0288827 0.000182392 0.000116 0.00668184 0.00761406 0.004387 2650 
1688 1 -0.0164473 0.029954 0.000673907 0.000423 -0.0100978 0.0204746 0.257551 2650 
1726 1 -0.0115885 0.00101278 0.0013042 0.000116 0.0067969 -0.0044196 0.00453897 2650 
3159 1 -0.00550471 0.00856698 0.00135036 0.000116 0.00880628 0.00212481 -0.0109947 2650 
3167 1 -0.016696 0.0107917 0.00142991 0.000116 0.0293383 -0.0309077 0.1567 2650 
2621 1 -0.0167263 0.0223757 0.00131043 0.000116 0.0521592 -0.0253434 0.295888 2650 
1386 1 -0.00299062 0.0236616 0.000917101 0.000116 0.0246686 0.00383146 0.00652037 2650 
2403 1 -0.0162005 0.0446273 0.00111514 0.000116 -0.00347761 0.0132456 -0.0205163 2650 
1199 1 -0.0165267 0.0447658 0.00231892 0.000116 0.0436164 0.0440263 0.232576 2650 
3580 1 -0.00583691 0.0186574 0.00261512 0.000116 -0.0205447 0.00220226 -0.013372 2650 
896 1 -0.0160986 0.0310935 0.00315437 0.000423 0.0430181 0.000730686 0.24502 2650 
1290 1 -0.00475249 0.0443795 0.00249668 0.000116 -0.000139434 0.0231722 -0.013174 2650 
1715 1 -0.0162909 0.0165901 0.00371127 0.000116 0.0406342 -0.0239802 0.224875 2650 
3278 1 -0.0164337 0.0336417 0.00320078 0.000116 0.0293468 -0.0546803 0.16665 2650 
1366 1 -0.0159667 0.0418361 0.00372236 0.000423 0.0446667 -0.0258816 0.24165 2650 
1061 1 -0.0162214 0.0273721 0.00456395 0.000116 0.0967479 0.0635237 0.232744 2650 
3184 1 -0.0156026 0.0362141 0.00449469 0.000656 0.0385711 0.0804151 0.0755123 2650 
3498 1 -0.0159657 0.0247416 0.00518812 0.000116 0.0470848 -0.0284385 0.250575 2650 
3738 1 -0.015329 0.0254559 0.00522416 0.000656 0.0236318 -0.0231437 0.109699 2650 
3562 1 -0.0158093 0.0296679 0.00477878 0.000423 0.0459814 -0.0421225 0.262401 2650 
444 1 -0.010039 0.027824 0.00614724 0.000656 0.00276329 0.0169294 0.0180429 2650 
1308 1 -0.0152715 0.0554838 0.00669583 0.000116 0.0903327 -0.00260188 0.206572 2650 
881 1 -0.0144005 0.0166104 0.00757686 0.000656 0.05948 0.0288777 0.142222 2650 
3696 1 -0.0146994 0.0424895 0.00817083 0.000116 0.0984347 -0.00150179 0.232885 2650 
2301 1 -0.0138777 0.0440365 0.00816344 4.2e-05 0.0123454 0.0255774 0.00457436 2650 
613 1 -0.0117996 0.0327208 0.00873994 0.000116 0.000957262 0.0124438 -0.0128394 2650 
3931 1 -0.00820197 0.013393 0.0100221 0.000116 0.014942 0.0037674 -0.00898674 2650 
3843 1 -0.0127232 0.0384697 0.0100011 0.000656 0.141144 -0.0147188 0.189385 2650 
3181 1 -0.0107738 0.0473066 0.00955983 4.2e-05 0.0123085 0.0204503 0.0172726 2650 
1643 1 -0.00113706 0.0491316 0.0099779 4.2e-05 -0.00583507 0.0218137 0.017945 2650 
878 1 -0.0131555 0.00163271 0.0103537 4.2e-05 0.0699504 -0.0128195 0.0947957 2650 
2409 1 -0.000438494 0.025352 0.0116619 4.2e-05 0.0164201 0.00833024 -0.00540779 2650 
2805 1 -0.0125733 0.0317193 0.0111942 0.000116 0.129173 -0.0559713 0.174668 2650 
268 1 -0.0111787 0.0254719 0.0121708 0.000423 0.165526 -0.0104791 0.143818 2650 
4054 1 -0.0110201 0.0399914 0.0125603 4.2e-05 0.00819976 0.0188654 0.00048814 2650 
2413 1 -0.00646516 0.0481965 0.0120809 4.2e-05 -0.00725618 0.0232257 -0.0144961 2650 
1867 1 -0.0106802 0.00179507 0.012884 4.2e-05 0.197805 0.0124296 0.171372 2650 
704 1 -0.00960506 0.0453024 0.0133774 0.000423 0.196054 0.0112503 0.170762 2650 
1566 1 -0.000996068 0.0177178 0.0139298 0.000423 0.00765391 -0.00358638 0.0302802 2650 
3137 1 -0.00761918 0.0223739 0.014501 0.000116 0.0843737 -0.0582696 0.0513116 2650 
2175 1 -0.00849533 0.0430983 0.014466 0.000116 0.0283088 0.00377413 0.0153696 2650 
1404 1 -0.00633445 0.0339762 0.0155986 0.000116 0.180512 -0.00546094 0.0954451 2650 
2262 1 -0.0045135 0.0278453 0.016045 0.000116 0.172545 -0.0113621 0.0420472 2650 
1113 1 -0.00171228 0.0513754 0.0163255 0.000423 0.216461 -0.000221813 0.00900171 2650 
751 1 -0.000438353 0.00348156 0.0166813 0.000116 0.0492367 0.00347042 0.00204382 2650 
2592 1 -0.000233234 0.0358499 0.0167084 0.000116 0.29746 -0.0399624 0.0115673 2650 
3185 1 -0.00412604 0.0824143 0.00474307 0.000656 -0.0229658 0.0401673 0.00208177 2650 
1775 1 -0.0617168 0.132094 0.0300055 0.000423 79.6687 9.03413 163.832 2650 
1827 1 0.0341174 -0.0594133 -0.0598463 0.000116 148.689 14.8733 84.7589 2650 
2775 1 0.00328151 -0.058188 -0.0293903 0.000423 -5.24651 -0.301603 -0.584983 2650 
2121 1 0.0152055 -0.0596001 -0.0255765 0.000423 -4.6723 0.324047 -2.79171 2650 
1332 1 0.0179044 -0.0541444 -0.0226177 0.000656 -3.37457 2.11809e-06 -2.70083 2650 
4115 1 0.0106455 -0.00316508 -0.0128003 0.000116 -0.0563727 -0.00582093 -0.0658446 2650 
3762 1 0.0268414 -0.0543772 -0.0113341 0.000423 -1.79656 -5.7153e-07 -4.26263 2650 
2730 1 0.0103528 -0.000293877 0.00686115 0.000116 -0.00424124 -0.00520915 -0.0044844 2650 
1375 1 0.0280091 -0.0596188 0.00987584 0.000423 1.7287 -0.425959 -5.02288 2650 
2466 1 0.0279466 -0.0577704 0.0100372 0.000423 1.84506 -0.184345 -5.1969 2650 
537 1 0.0066346 -2.08023e-05 0.0152935 0.000116 0.0798551 0.00025564 -0.0349107 2650 
3425 1 0.0196174 -0.0574253 0.0222881 0.000423 4.15438 -0.272999 -3.61148 2650 
3488 1 0.00164101 0.0210068 -0.0166631 0.000116 -0.2218 -0.0101229 -0.00874526 2650 
391 1 0.00270027 0.00283505 -0.0165452 0.000116 -0.155763 -0.0507567 -0.0422683 2650 
395 1 0.00359962 0.0119353 -0.0162838 0.000116 -0.0184725 0.00177784 0.0055324 2650 
3100 1 0.000701825 0.0129223 -0.0163779 0.000423 -0.153787 -0.0128122 -0.00635917 2650 
1617 1 0.00510299 0.0174331 -0.0159513 0.000116 0.0132342 0.00900538 0.00420128 2650 
978 1 0.00365152 0.0211909 -0.0163093 0.000116 -0.240658 0.0017073 -0.0597783 2650 
3023 1 0.00521147 0.0236257 -0.0159262 0.000116 -0.222718 0.00986099 -0.0550356 2650 
4340 1 0.00518809 0.0329336 -0.0159292 0.000116 -0.225009 -0.0349285 -0.0565893 2650 
1969 1 0.00706267 0.00975815 -0.0153808 4.2e-05 -0.00329989 -0.273379 0.0012404 2650 
829 1 0.0073083 0.0243424 -0.015101 0.000116 -0.184657 0.00977244 -0.0970325 2650 
1586 1 0.0078339 0.0394997 -0.0144252 0.000423 -0.140436 0.00196871 -0.074989 2650 
940 1 0.00971525 0.000977574 -0.0136683 0.000116 -0.0721192 -0.0591642 -0.0631846 2650 
1152 1 0.00888566 0.0142716 -0.0138642 0.000423 -0.111779 -0.000402551 -0.0593894 2650 
1859 1 0.0109902 0.00734991 -0.0126808 4.2e-05 0.0141217 0.00164701 0.0104671 2650 
1695 1 0.00107004 0.0385789 -0.0131517 0.000423 0.0133272 0.0173293 -0.00289347 2650 
2303 1 0.0114328 0.0230714 -0.0124622 4.2e-05 -0.143682 0.0469679 -0.125277 2650 
985 1 0.00488296 0.0159705 -0.0109787 4.2e-05 -0.00205729 0.00336942 0.00401153 2650 
1153 1 0.012661 0.0375345 -0.0103318 0.000423 -0.00580988 0.014114 2.09413e-05 2650 
4109 1 0.0127451 0.0234916 -0.0101474 0.000423 0.0166916 0.0120214 0.015095 2650 
3658 1 0.0137925 0.025504 -0.00905135 0.000423 -0.149166 0.0127978 -0.20089 2650 
1167 1 0.0145024 0.0195193 -0.00859186 0.000116 -0.0747568 0.00461892 -0.100718 2650 
1057 1 0.0149418 0.0141116 -0.00765578 0.000116 -0.0898467 -0.00276598 -0.214625 2650 
3289 1 0.0151561 0.0174724 -0.00769165 4.2e-05 -0.00831081 -0.289712 -0.00856752 2650 
4158 1 0.0155241 0.0325889 -0.00652642 4.2e-05 -0.0725007 -0.0435128 -0.175029 2650 
964 1 0.0105667 0.0484979 -0.00709126 0.000116 -0.0187698 0.0068611 -0.0297385 2650 
1097 1 0.0156356 0.0444396 -0.00607522 4.2e-05 -0.0152012 0.00140002 -0.0354143 2650 
4294 1 0.0114065 0.049683 -0.00621588 0.000423 -0.0171648 0.0185745 0.00401268 2650 
2288 1 0.0152495 0.0507493 -0.00610832 0.000116 0.0362036 -0.00734011 0.0805496 2650 
962 1 0.000633191 0.0170651 -0.004202 0.000116 0.00474377 0.0040355 -0.00292126 2650 
517 1 0.00503906 0.0348658 -0.00318224 0.000116 -0.0116062 0.0122752 0.0140196 2650 
2478 1 0.0149458 0.0102885 -0.00285824 0.000116 -0.0142448 0.00471341 -0.00507749 2650 
2044 1 0.0164359 0.0240141 -0.00300372 0.000116 -0.0348652 0.0319801 -0.199882 2650 
2091 1 0.0159244 0.0276456 -0.00280192 0.000656 -0.035924 -0.00634011 -0.205668 2650 
3297 1 0.0158651 0.0426163 -0.00295481 0.000656 -0.0442083 0.0307883 -0.23612 2650 
1222 1 0.009585 0.00232751 -0.00172964 0.000656 0.0104443 -0.0020847 -0.0233148 2650 
3435 1 0.0163925 0.0284241 -0.00146615 0.000423 -0.0362714 0.0162574 -0.207554 2650 
931 1 0.0163723 0.0347318 -0.00155691 0.000423 -0.0437086 0.00570562 -0.245147 2650 
2587 1 0.0167468 0.0312762 -0.000475279 0.000116 0.0087427 -0.00614044 -0.22151 2650 
1834 1 0.0120069 0.0413689 -0.000682994 0.000116 0.0139886 0.0209733 0.00916377 2650 
3223 1 0.0164171 0.0442122 -0.00027637 0.000423 0.00315015 0.000264275 -0.0744368 2650 
308 1 0.0166655 0.00343519 0.00106872 0.000116 0.0058903 -0.0301184 -0.13508 2650 
2068 1 0.0166756 0.02724 0.00137013 0.000116 0.00898824 -0.0069329 -0.230305 2650 
1949 1 0.0164682 0.0323048 0.00299656 0.000116 0.058573 -0.00643624 -0.236697 2650 
2153 1 0.0147457 0.0175584 0.00439258 0.000116 0.00656298 0.00568341 -0.0128949 2650 
1427 1 0.0106882 0.0695241 0.00455335 4.2e-05 -0.0109477 0.032193 0.00536725 2650 
1830 1 0.0160006 0.0174804 0.00484799 0.000116 0.0442958 -0.0225239 -0.177023 2650 
2776 1 0.0156199 0.0439476 0.00500702 0.000423 0.0742964 -0.0122982 -0.281574 2650 
3315 1 0.00926404 0.000784138 0.00600245 0.000423 -0.0207296 0.00267915 0.00840019 2650 
3130 1 0.00833533 0.0224628 0.00572633 0.000116 0.0110127 0.0053862 -0.0184765 2650 
313 1 0.015152 0.0107023 0.00695101 0.000116 0.105686 -0.0275126 -0.144434 2650 
103 1 0.00209984 0.0135757 0.00687357 4.2e-05 0.00843836 0.00223835 -0.0205048 2650 
3713 1 0.00400403 0.070293 0.00676855 0.000116 0.019386 0.0235719 0.0208219 2650 
1129 1 0.00787544 0.0129791 0.00725334 0.000423 -0.0167054 -0.000619331 -0.00613072 2650 
1276 1 0.0147751 0.0228094 0.0077071 0.000116 -0.0100146 0.00112239 0.0283384 2650 
3071 1 0.0144236 0.00163828 0.00852339 4.2e-05 0.0730631 0.00550826 -0.135945 2650 
1317 1 0.0106184 0.0177362 0.00859963 4.2e-05 0.0232171 0.0048696 -0.00194067 2650 
217 1 0.000635609 0.0422966 0.00929995 4.2e-05 0.00118055 0.0132006 -0.0176373 2650 
3688 1 0.0135609 0.0240692 0.0100426 0.000116 0.0997273 -0.00167297 -0.114755 2650 
4012 1 0.0119472 0.0115075 0.0117465 0.000116 0.0644215 0.016221 -0.073809 2650 
1093 1 0.011093 0.0176699 0.0122708 4.2e-05 0.00180778 0.0044258 -0.0156416 2650 
3153 1 0.00564355 0.0323065 0.0120693 0.000116 -0.0100839 0.0141293 0.000228711 2650 
2026 1 0.0096372 0.000684467 0.0126939 0.000423 0.036717 0.000166555 -0.0221384 2650 
2495 1 0.00953753 0.0222049 0.0138023 0.000116 0.149613 -0.0250021 -0.111248 2650 
3240 1 0.00647105 0.013166 0.0144118 0.000116 0.0122325 0.00657003 0.00489617 2650 
2109 1 0.00649607 0.013281 0.0149831 0.000423 0.15378 0.000929716 -0.0390778 2650 
2668 1 0.00691698 0.0568548 0.0146018 0.000423 0.0392959 0.0215543 -0.00470976 2650 
1951 1 0.00580407 0.0428192 0.0156939 0.000116 0.216346 -0.0279415 -0.0923754 2650 
3411 1 0.00444469 0.0574936 0.0151639 0.000656 0.0329004 0.0237327 -0.00916788 2650 
375 1 0.00097369 0.0275281 0.0164611 0.000423 0.16185 0.000766128 0.00631331 2650 
1277 1 0.00275699 0.0465707 0.0162295 0.000116 0.0753302 -0.00105727 -0.0197907 2650 
2299 1 0.00233399 0.0160897 0.016622 4.2e-05 0.116474 0.0282513 -0.0208755 2650 
2161 1 0.0608786 0.0542113 0.0322337 0.000116 0.0854078 -0.165924 -0.161287 2650 
1622 1 0.0105371 0.0892766 -0.00868692 0.000116 0.0252356 0.0472165 -0.00030571 2650 
3388 1 0.00465255 0.0759001 -0.00616554 0.000116 0.00328284 0.0425722 -0.0272589 2650 
2985 1 0.0132129 0.0806656 0.00456989 0.000423 -0.00470864 0.0381792 0.00720644 2650 
277 1 0.00500481 0.116705 0.0108825 0.000116 0.00273855 0.0626858 0.00700488 2650 
2344 1 0.0509268 0.0930685 0.0459297 0.000423 0.140196 -0.080869 -0.155369 2650 
