LIGGGHTS (Version LIGGGHTS-PUBLIC 3.8.0, compiled 2022-11-07-16:55:38 by serperd1, git commit 86544c3f1215bc9744d7929e3eacf53ba086af9e)
Created orthogonal box = (-0.15 -0.15 -0.15) to (0.15 0.15 0.15)
  2 by 4 by 5 MPI processor grid

Reading STL file 'cone.stl' (mesh processing step 1/3) 

Reading STL file 'in_cyl.stl' (mesh processing step 1/3) 

Reading STL file 'top_cyl.stl' (mesh processing step 1/3) 

Reading STL file 'bot_cyl.stl' (mesh processing step 1/3) 

Reading STL file 'bottom_disk.stl' (mesh processing step 1/3) 

Reading STL file 'top_disk.stl' (mesh processing step 1/3) 
Fix particledistribution/discrete (id prob_par): distribution based on mass%:
    r_0to10p: d=8.400000e-05 (max. bounding sphere) mass%=10.000000%
    r_10to50p: d=2.328000e-04 (max. bounding sphere) mass%=40.000000%
    r_50to90p: d=8.466000e-04 (max. bounding sphere) mass%=40.000000%
    r_90to100p: d=1.312200e-03 (max. bounding sphere) mass%=10.000000%
Fix particledistribution/discrete (id prob_par): distribution based on number%:
    r_0to10p: d=8.400000e-05 (max. bounding sphere) number%=83.887052%
    r_10to50p: d=2.328000e-04 (max. bounding sphere) number%=15.763181%
    r_50to90p: d=8.466000e-04 (max. bounding sphere) number%=0.327762%
    r_90to100p: d=1.312200e-03 (max. bounding sphere) number%=0.022006%
Setting up run at Wed Nov 23 17:03:36 2022

Import and parallelization of mesh cone_mesh containing 868 triangle(s) successful
Import and parallelization of mesh inlet_cyl_wall_mesh containing 1064 triangle(s) successful
Import and parallelization of mesh top_cyl_wall_mesh containing 682 triangle(s) successful
Import and parallelization of mesh bot_cyl_wall_mesh containing 1280 triangle(s) successful
Import and parallelization of mesh bot_disk_wall_mesh containing 1682 triangle(s) successful
Import and parallelization of mesh top_disk_wall_mesh containing 1144 triangle(s) successful
Memory usage per processor = 960.256 Mbytes
    Step    Atoms         KinEng            CPU 
       0        0              0              0 
Loop time of 5.97292e-05 on 40 procs for 0 steps with 0 atoms, finish time Wed Nov 23 17:03:36 2022


Pair  time (%) = 0 (0)
Neigh time (%) = 0 (0)
Comm  time (%) = 0 (0)
Outpt time (%) = 0 (0)
Other time (%) = 5.97292e-05 (100)

Nlocal:    0 ave 0 max 0 min
Histogram: 40 0 0 0 0 0 0 0 0 0
Nghost:    0 ave 0 max 0 min
Histogram: 40 0 0 0 0 0 0 0 0 0
Neighs:    0 ave 0 max 0 min
Histogram: 40 0 0 0 0 0 0 0 0 0

Total # of neighbors = 0
Neighbor list builds = 0
Dangerous builds = 0
Setting up run at Wed Nov 23 17:03:36 2022

Memory usage per processor = 960.256 Mbytes
    Step    Atoms         KinEng            CPU 
       0        0              0              0 
       1        0              0    0.009689979 
Loop time of 0.00970103 on 40 procs for 1 steps with 0 atoms, finish time Wed Nov 23 17:03:36 2022


Pair  time (%) = 5.31497e-06 (0.0547878)
Neigh time (%) = 0 (0)
Comm  time (%) = 0.000212273 (2.18815)
Outpt time (%) = 0.00014221 (1.46593)
Other time (%) = 0.00934123 (96.2911)

Nlocal:    0 ave 0 max 0 min
Histogram: 40 0 0 0 0 0 0 0 0 0
Nghost:    0 ave 0 max 0 min
Histogram: 40 0 0 0 0 0 0 0 0 0
Neighs:    0 ave 0 max 0 min
Histogram: 40 0 0 0 0 0 0 0 0 0

Total # of neighbors = 0
Neighbor list builds = 0
Dangerous builds = 0
Scanning dump file ...
Reading snapshot from dump file ...
  orthogonal box = (-0.15 -0.15 -0.15) to (0.15 0.15 0.15)
  0 atoms before read
  4382 atoms in snapshot
  0 atoms purged
  0 atoms replaced
  0 atoms trimmed
  4382 atoms added
  4382 atoms after read
Setting atom values ...
  4382 settings made for type
  4382 settings made for density
  4382 settings made for vy
Setting up run at Wed Nov 23 17:03:36 2022

Memory usage per processor = 964.609 Mbytes
    Step    Atoms         KinEng            CPU 
       1     4382  2.0405663e-07              0 
       2     4382  2.5286639e-06    0.009496629 
Loop time of 0.00951823 on 40 procs for 1 steps with 4382 atoms, finish time Wed Nov 23 17:03:36 2022


Pair  time (%) = 4.61222e-06 (0.0484567)
Neigh time (%) = 0 (0)
Comm  time (%) = 9.4436e-06 (0.0992159)
Outpt time (%) = 0.000343554 (3.60943)
Other time (%) = 0.00916062 (96.2429)

Nlocal:    109.55 ave 1816 max 0 min
Histogram: 36 0 2 0 0 0 0 0 0 2
Nghost:    27.3 ave 345 max 0 min
Histogram: 36 0 0 0 0 1 1 0 0 2
Neighs:    35.525 ave 600 max 0 min
Histogram: 36 0 2 0 0 0 0 0 0 2

Total # of neighbors = 1421
Ave neighs/atom = 0.324281
Neighbor list builds = 0
Dangerous builds = 0
Setting up run at Wed Nov 23 17:03:36 2022

Memory usage per processor = 964.609 Mbytes
    Step    Atoms         KinEng            CPU 
       2     4382  2.5286639e-06              0 
  308643     4382  0.00030849076      3118.6682 
Loop time of 3118.67 on 40 procs for 308641 steps with 4382 atoms, finish time Wed Nov 23 17:55:35 2022


Pair  time (%) = 1.31114 (0.0420417)
Neigh time (%) = 4.09076 (0.13117)
Comm  time (%) = 4.20196 (0.134736)
Outpt time (%) = 0.000347499 (1.11425e-05)
Other time (%) = 3109.06 (99.692)

Nlocal:    109.55 ave 1780 max 0 min
Histogram: 36 0 2 0 0 0 0 0 0 2
Nghost:    28.15 ave 360 max 0 min
Histogram: 36 0 0 0 0 1 1 0 0 2
Neighs:    39.35 ave 668 max 0 min
Histogram: 36 0 2 0 0 0 0 0 0 2

Total # of neighbors = 1574
Ave neighs/atom = 0.359197
Neighbor list builds = 1630
Dangerous builds = 0
Setting up run at Wed Nov 23 17:55:35 2022

Memory usage per processor = 964.609 Mbytes
    Step    Atoms         KinEng            CPU 
  308643     4382  0.00030849076              0 
  617284     4380   0.0068749417      3095.8199 
Loop time of 3095.82 on 40 procs for 308641 steps with 4380 atoms, finish time Wed Nov 23 18:47:11 2022


Pair  time (%) = 1.33616 (0.0431603)
Neigh time (%) = 4.43441 (0.143239)
Comm  time (%) = 4.81891 (0.155659)
Outpt time (%) = 0.000771792 (2.49301e-05)
Other time (%) = 3085.23 (99.6579)

Nlocal:    109.5 ave 1746 max 0 min
Histogram: 36 0 2 0 0 0 0 0 0 2
Nghost:    26.65 ave 328 max 0 min
Histogram: 36 0 0 0 0 0 2 0 0 2
Neighs:    41.075 ave 671 max 0 min
Histogram: 36 0 2 0 0 0 0 0 0 2

Total # of neighbors = 1643
Ave neighs/atom = 0.375114
Neighbor list builds = 1753
Dangerous builds = 0
Setting up run at Wed Nov 23 18:47:11 2022

Memory usage per processor = 964.609 Mbytes
    Step    Atoms         KinEng            CPU 
  617284     4380   0.0068749417              0 
  925925     4373   0.0083758556      3220.2073 
Loop time of 3220.21 on 40 procs for 308641 steps with 4373 atoms, finish time Wed Nov 23 19:40:51 2022


Pair  time (%) = 1.3682 (0.0424879)
Neigh time (%) = 33.597 (1.04332)
Comm  time (%) = 16.3548 (0.50788)
Outpt time (%) = 0.000732528 (2.27478e-05)
Other time (%) = 3168.89 (98.4063)

Nlocal:    109.325 ave 1729 max 0 min
Histogram: 36 0 2 0 0 0 0 0 0 2
Nghost:    24.5 ave 304 max 0 min
Histogram: 36 0 0 0 0 1 1 0 0 2
Neighs:    40.525 ave 658 max 0 min
Histogram: 36 0 2 0 0 0 0 0 0 2

Total # of neighbors = 1621
Ave neighs/atom = 0.370684
Neighbor list builds = 12891
Dangerous builds = 262
Setting up run at Wed Nov 23 19:40:51 2022

Memory usage per processor = 964.609 Mbytes
    Step    Atoms         KinEng            CPU 
  925925     4373   0.0083758556              0 
 1234566     4366    0.038032234      3261.0658 
Loop time of 3261.09 on 40 procs for 308641 steps with 4366 atoms, finish time Wed Nov 23 20:35:12 2022


Pair  time (%) = 1.36103 (0.0417355)
Neigh time (%) = 45.8745 (1.40672)
Comm  time (%) = 21.579 (0.661711)
Outpt time (%) = 0.000757185 (2.32188e-05)
Other time (%) = 3192.28 (97.8898)

Nlocal:    109.15 ave 1704 max 0 min
Histogram: 36 0 2 0 0 0 0 0 0 2
Nghost:    23.7 ave 294 max 0 min
Histogram: 36 0 0 0 0 1 1 0 0 2
Neighs:    37.9 ave 630 max 0 min
Histogram: 36 1 1 0 0 0 0 0 0 2

Total # of neighbors = 1516
Ave neighs/atom = 0.347229
Neighbor list builds = 17544
Dangerous builds = 803
Setting up run at Wed Nov 23 20:35:13 2022

Memory usage per processor = 964.609 Mbytes
    Step    Atoms         KinEng            CPU 
 1234566     4366    0.038032234              0 
 1543207     4352     0.27764268      3324.0991 
Loop time of 3324.1 on 40 procs for 308641 steps with 4352 atoms, finish time Wed Nov 23 21:30:37 2022


Pair  time (%) = 1.34125 (0.0403493)
Neigh time (%) = 58.7699 (1.768)
Comm  time (%) = 30.5988 (0.920515)
Outpt time (%) = 0.000592107 (1.78126e-05)
Other time (%) = 3233.39 (97.2711)

Nlocal:    108.8 ave 1666 max 0 min
Histogram: 36 0 2 0 0 0 0 0 0 2
Nghost:    23.1 ave 299 max 0 min
Histogram: 36 0 0 0 0 2 0 0 0 2
Neighs:    38.7 ave 638 max 0 min
Histogram: 36 0 2 0 0 0 0 0 0 2

Total # of neighbors = 1548
Ave neighs/atom = 0.355699
Neighbor list builds = 22427
Dangerous builds = 1397
Setting up run at Wed Nov 23 21:30:37 2022

Memory usage per processor = 964.609 Mbytes
    Step    Atoms         KinEng            CPU 
 1543207     4352     0.27764268              0 
 1851848     4332    0.062278235      3400.3234 
Loop time of 3400.32 on 40 procs for 308641 steps with 4332 atoms, finish time Wed Nov 23 22:27:17 2022


Pair  time (%) = 1.33618 (0.0392957)
Neigh time (%) = 77.013 (2.26487)
Comm  time (%) = 48.9813 (1.44049)
Outpt time (%) = 0.000606026 (1.78226e-05)
Other time (%) = 3272.99 (96.2553)

Nlocal:    108.3 ave 1668 max 0 min
Histogram: 36 0 2 0 0 0 0 0 0 2
Nghost:    23.125 ave 302 max 0 min
Histogram: 36 0 0 0 0 2 0 0 0 2
Neighs:    38.3 ave 637 max 0 min
Histogram: 36 1 1 0 0 0 0 0 0 2

Total # of neighbors = 1532
Ave neighs/atom = 0.353647
Neighbor list builds = 29337
Dangerous builds = 2604
Setting up run at Wed Nov 23 22:27:17 2022

Memory usage per processor = 964.609 Mbytes
    Step    Atoms         KinEng            CPU 
 1851848     4332    0.062278235              0 
 2160489     4313    0.055787652      3485.8267 
Loop time of 3485.83 on 40 procs for 308641 steps with 4313 atoms, finish time Wed Nov 23 23:25:23 2022


Pair  time (%) = 1.33581 (0.0383212)
Neigh time (%) = 90.42 (2.59393)
Comm  time (%) = 59.5941 (1.70961)
Outpt time (%) = 0.000619137 (1.77615e-05)
Other time (%) = 3334.48 (95.6581)

Nlocal:    107.825 ave 1699 max 0 min
Histogram: 36 0 2 0 0 0 0 0 0 2
Nghost:    22.725 ave 283 max 0 min
Histogram: 36 0 0 0 0 1 1 0 0 2
Neighs:    36.225 ave 650 max 0 min
Histogram: 36 0 2 0 0 0 0 0 1 1

Total # of neighbors = 1449
Ave neighs/atom = 0.335961
Neighbor list builds = 34478
Dangerous builds = 1910
Setting up run at Wed Nov 23 23:25:23 2022

Memory usage per processor = 964.609 Mbytes
    Step    Atoms         KinEng            CPU 
 2160489     4313    0.055787652              0 
 2469130     4288    0.096921704       3527.891 
Loop time of 3527.89 on 40 procs for 308641 steps with 4288 atoms, finish time Thu Nov 24 00:24:11 2022


Pair  time (%) = 1.34626 (0.0381604)
Neigh time (%) = 99.3925 (2.81734)
Comm  time (%) = 74.5578 (2.11338)
Outpt time (%) = 0.000385636 (1.09311e-05)
Other time (%) = 3352.59 (95.0311)

Nlocal:    107.2 ave 1715 max 0 min
Histogram: 36 0 2 0 0 0 0 0 1 1
Nghost:    22.7 ave 282 max 0 min
Histogram: 36 0 0 0 0 1 1 0 0 2
Neighs:    36.05 ave 647 max 0 min
Histogram: 36 1 1 0 0 0 0 0 1 1

Total # of neighbors = 1442
Ave neighs/atom = 0.336287
Neighbor list builds = 37872
Dangerous builds = 2642
Setting up run at Thu Nov 24 00:24:11 2022

Memory usage per processor = 964.609 Mbytes
    Step    Atoms         KinEng            CPU 
 2469130     4288    0.096921704              0 
 2777771     4253     0.26249838      3517.2188 
Loop time of 3517.22 on 40 procs for 308641 steps with 4253 atoms, finish time Thu Nov 24 01:22:48 2022


Pair  time (%) = 1.32407 (0.0376453)
Neigh time (%) = 99.5804 (2.83123)
Comm  time (%) = 79.1131 (2.24931)
Outpt time (%) = 0.000683793 (1.94413e-05)
Other time (%) = 3337.2 (94.8818)

Nlocal:    106.325 ave 1699 max 0 min
Histogram: 36 0 2 0 0 0 0 0 1 1
Nghost:    21.975 ave 271 max 0 min
Histogram: 36 0 0 0 0 0 2 0 0 2
Neighs:    35 ave 667 max 0 min
Histogram: 36 0 2 0 0 0 1 0 0 1

Total # of neighbors = 1400
Ave neighs/atom = 0.329179
Neighbor list builds = 37918
Dangerous builds = 5461
Setting up run at Thu Nov 24 01:22:48 2022

Memory usage per processor = 964.609 Mbytes
    Step    Atoms         KinEng            CPU 
 2777771     4253     0.26249838              0 
 3086412     4208      0.2311246      3515.9548 
Loop time of 3515.96 on 40 procs for 308641 steps with 4208 atoms, finish time Thu Nov 24 02:21:24 2022


Pair  time (%) = 1.29257 (0.036763)
Neigh time (%) = 99.9618 (2.84309)
Comm  time (%) = 85.0359 (2.41857)
Outpt time (%) = 0.000676987 (1.92547e-05)
Other time (%) = 3329.66 (94.7016)

Nlocal:    105.2 ave 1688 max 0 min
Histogram: 36 0 2 0 0 0 0 0 1 1
Nghost:    21.15 ave 257 max 0 min
Histogram: 36 0 0 0 0 0 2 0 1 1
Neighs:    33.45 ave 622 max 0 min
Histogram: 36 0 2 0 0 0 0 1 0 1

Total # of neighbors = 1338
Ave neighs/atom = 0.317966
Neighbor list builds = 38007
Dangerous builds = 5118
Setting up run at Thu Nov 24 02:21:24 2022

Memory usage per processor = 964.609 Mbytes
    Step    Atoms         KinEng            CPU 
 3086412     4208      0.2311246              0 
 3395053     4154     0.21877553      3749.2783 
Loop time of 3749.28 on 40 procs for 308641 steps with 4154 atoms, finish time Thu Nov 24 03:23:54 2022


Pair  time (%) = 1.30313 (0.0347567)
Neigh time (%) = 146.246 (3.90065)
Comm  time (%) = 138.078 (3.68279)
Outpt time (%) = 0.000717473 (1.91363e-05)
Other time (%) = 3463.65 (92.3818)

Nlocal:    103.85 ave 1638 max 0 min
Histogram: 36 0 2 0 0 0 0 0 1 1
Nghost:    21.125 ave 267 max 0 min
Histogram: 36 0 0 0 0 1 1 0 1 1
Neighs:    28.825 ave 504 max 0 min
Histogram: 36 0 2 0 0 0 0 1 0 1

Total # of neighbors = 1153
Ave neighs/atom = 0.277564
Neighbor list builds = 55562
Dangerous builds = 5521
Setting up run at Thu Nov 24 03:23:54 2022

Memory usage per processor = 964.609 Mbytes
    Step    Atoms         KinEng            CPU 
 3395053     4154     0.21877553              0 
 3703694     4105      1.3114656      3601.8547 
Loop time of 3601.86 on 40 procs for 308641 steps with 4105 atoms, finish time Thu Nov 24 04:23:56 2022


Pair  time (%) = 1.24499 (0.0345653)
Neigh time (%) = 117.033 (3.24925)
Comm  time (%) = 115.459 (3.20555)
Outpt time (%) = 0.000633472 (1.75874e-05)
Other time (%) = 3368.12 (93.5106)

Nlocal:    102.625 ave 1574 max 0 min
Histogram: 36 0 2 0 0 0 0 0 1 1
Nghost:    20.55 ave 243 max 0 min
Histogram: 36 0 0 0 0 0 2 0 0 2
Neighs:    27.275 ave 473 max 0 min
Histogram: 36 1 1 0 0 0 0 0 1 1

Total # of neighbors = 1091
Ave neighs/atom = 0.265773
Neighbor list builds = 44467
Dangerous builds = 4016
Setting up run at Thu Nov 24 04:23:56 2022

Memory usage per processor = 964.609 Mbytes
    Step    Atoms         KinEng            CPU 
 3703694     4105      1.3114656              0 
 4012335     4042     0.36794162       3621.628 
Loop time of 3621.63 on 40 procs for 308641 steps with 4042 atoms, finish time Thu Nov 24 05:24:17 2022


Pair  time (%) = 1.23117 (0.033995)
Neigh time (%) = 122.18 (3.37363)
Comm  time (%) = 117.293 (3.23869)
Outpt time (%) = 0.000643816 (1.7777e-05)
Other time (%) = 3380.92 (93.3537)

Nlocal:    101.05 ave 1504 max 0 min
Histogram: 36 0 2 0 0 0 0 0 1 1
Nghost:    20.025 ave 234 max 0 min
Histogram: 36 0 0 0 0 0 1 1 0 2
Neighs:    24.6 ave 395 max 0 min
Histogram: 36 0 1 1 0 0 0 0 0 2

Total # of neighbors = 984
Ave neighs/atom = 0.243444
Neighbor list builds = 46333
Dangerous builds = 7632
Setting up run at Thu Nov 24 05:24:18 2022

Memory usage per processor = 964.609 Mbytes
    Step    Atoms         KinEng            CPU 
 4012335     4042     0.36794162              0 
 4320976     3969     0.56068233      3602.1985 
Loop time of 3602.2 on 40 procs for 308641 steps with 3969 atoms, finish time Thu Nov 24 06:24:20 2022


Pair  time (%) = 1.19002 (0.033036)
Neigh time (%) = 118.847 (3.29929)
Comm  time (%) = 115.587 (3.20879)
Outpt time (%) = 0.000686039 (1.9045e-05)
Other time (%) = 3366.57 (93.4589)

Nlocal:    99.225 ave 1425 max 0 min
Histogram: 36 0 1 1 0 0 0 0 1 1
Nghost:    19.5 ave 237 max 0 min
Histogram: 36 0 0 0 0 1 1 0 0 2
Neighs:    22.55 ave 345 max 0 min
Histogram: 36 0 1 0 1 0 0 0 1 1

Total # of neighbors = 902
Ave neighs/atom = 0.227261
Neighbor list builds = 45093
Dangerous builds = 3521
Setting up run at Thu Nov 24 06:24:20 2022

Memory usage per processor = 964.609 Mbytes
    Step    Atoms         KinEng            CPU 
 4320976     3969     0.56068233              0 
 4629617     3896     0.57158783      3781.1854 
Loop time of 3781.19 on 40 procs for 308641 steps with 3896 atoms, finish time Thu Nov 24 07:27:21 2022


Pair  time (%) = 1.19351 (0.0315644)
Neigh time (%) = 156.963 (4.15115)
Comm  time (%) = 159.689 (4.22324)
Outpt time (%) = 0.000660083 (1.7457e-05)
Other time (%) = 3463.34 (91.594)

Nlocal:    97.4 ave 1352 max 0 min
Histogram: 36 0 1 1 0 0 0 0 1 1
Nghost:    17.775 ave 209 max 0 min
Histogram: 36 0 0 0 0 1 0 1 0 2
Neighs:    19.725 ave 303 max 0 min
Histogram: 36 0 1 0 1 0 0 0 1 1

Total # of neighbors = 789
Ave neighs/atom = 0.202515
Neighbor list builds = 59458
Dangerous builds = 5389
Setting up run at Thu Nov 24 07:27:21 2022

Memory usage per processor = 964.609 Mbytes
    Step    Atoms         KinEng            CPU 
 4629617     3896     0.57158783              0 
 4938258     3817     0.85259717       3857.592 
Loop time of 3857.59 on 40 procs for 308641 steps with 3817 atoms, finish time Thu Nov 24 08:31:39 2022


Pair  time (%) = 1.16215 (0.0301262)
Neigh time (%) = 173.769 (4.50459)
Comm  time (%) = 180.765 (4.68596)
Outpt time (%) = 0.00607687 (0.00015753)
Other time (%) = 3501.89 (90.7792)

Nlocal:    95.425 ave 1312 max 0 min
Histogram: 35 1 1 1 0 0 0 0 1 1
Nghost:    16.15 ave 181 max 0 min
Histogram: 36 0 0 0 0 0 1 1 0 2
Neighs:    16.575 ave 267 max 0 min
Histogram: 36 0 1 1 0 0 0 0 1 1

Total # of neighbors = 663
Ave neighs/atom = 0.173697
Neighbor list builds = 65754
Dangerous builds = 11007
Setting up run at Thu Nov 24 08:31:39 2022

Memory usage per processor = 964.609 Mbytes
    Step    Atoms         KinEng            CPU 
 4938258     3817     0.85259717              0 
 5246899     3710      19.643075      3939.1926 
Loop time of 3939.19 on 40 procs for 308641 steps with 3710 atoms, finish time Thu Nov 24 09:37:18 2022


Pair  time (%) = 1.14015 (0.0289439)
Neigh time (%) = 191.555 (4.86281)
Comm  time (%) = 214.584 (5.44741)
Outpt time (%) = 0.00626197 (0.000158966)
Other time (%) = 3531.91 (89.6607)

Nlocal:    92.75 ave 1262 max 0 min
Histogram: 34 2 1 1 0 0 0 0 1 1
Nghost:    15.95 ave 202 max 0 min
Histogram: 36 0 0 0 0 1 1 0 1 1
Neighs:    14.225 ave 225 max 0 min
Histogram: 36 1 0 0 0 1 0 1 0 1

Total # of neighbors = 569
Ave neighs/atom = 0.153369
Neighbor list builds = 72438
Dangerous builds = 14886
Setting up run at Thu Nov 24 09:37:18 2022

Memory usage per processor = 964.609 Mbytes
    Step    Atoms         KinEng            CPU 
 5246899     3710      19.643075              0 
 5555540     3600     0.94496101      3817.2213 
Loop time of 3817.22 on 40 procs for 308641 steps with 3600 atoms, finish time Thu Nov 24 10:40:55 2022


Pair  time (%) = 1.08594 (0.0284485)
Neigh time (%) = 167.285 (4.38239)
Comm  time (%) = 199.959 (5.23833)
Outpt time (%) = 0.000651607 (1.70702e-05)
Other time (%) = 3448.89 (90.3508)

Nlocal:    90 ave 1180 max 0 min
Histogram: 34 2 1 1 0 0 0 0 1 1
Nghost:    14.875 ave 184 max 0 min
Histogram: 36 0 0 0 1 0 1 0 1 1
Neighs:    12.25 ave 189 max 0 min
Histogram: 36 1 0 0 1 0 0 0 1 1

Total # of neighbors = 490
Ave neighs/atom = 0.136111
Neighbor list builds = 63257
Dangerous builds = 6730
Setting up run at Thu Nov 24 10:40:55 2022

Memory usage per processor = 964.609 Mbytes
    Step    Atoms         KinEng            CPU 
 5555540     3600     0.94496101              0 
 5864181     3500     0.90542429      3771.9234 
Loop time of 3771.92 on 40 procs for 308641 steps with 3500 atoms, finish time Thu Nov 24 11:43:47 2022


Pair  time (%) = 1.05078 (0.0278578)
Neigh time (%) = 158.151 (4.19284)
Comm  time (%) = 190.878 (5.0605)
Outpt time (%) = 0.000538037 (1.42643e-05)
Other time (%) = 3421.84 (90.7188)

Nlocal:    87.5 ave 1120 max 0 min
Histogram: 32 4 1 1 0 0 0 0 0 2
Nghost:    14.35 ave 180 max 0 min
Histogram: 36 0 0 0 0 2 0 0 1 1
Neighs:    11.4 ave 172 max 0 min
Histogram: 36 0 1 0 1 0 0 0 0 2

Total # of neighbors = 456
Ave neighs/atom = 0.130286
Neighbor list builds = 59706
Dangerous builds = 7520
Setting up run at Thu Nov 24 11:43:47 2022

Memory usage per processor = 964.609 Mbytes
    Step    Atoms         KinEng            CPU 
 5864181     3500     0.90542429              0 
 6172822     3397       1.103665      3931.5475 
Loop time of 3931.55 on 40 procs for 308641 steps with 3397 atoms, finish time Thu Nov 24 12:49:19 2022


Pair  time (%) = 1.03988 (0.0264497)
Neigh time (%) = 182.09 (4.6315)
Comm  time (%) = 210.283 (5.3486)
Outpt time (%) = 0.000642 (1.63294e-05)
Other time (%) = 3538.14 (89.9934)

Nlocal:    84.925 ave 1062 max 0 min
Histogram: 32 4 1 1 0 0 0 0 0 2
Nghost:    14.35 ave 171 max 0 min
Histogram: 36 0 0 0 0 2 0 0 1 1
Neighs:    9.25 ave 140 max 0 min
Histogram: 36 0 1 0 0 1 0 1 0 1

Total # of neighbors = 370
Ave neighs/atom = 0.10892
Neighbor list builds = 68646
Dangerous builds = 11624
Setting up run at Thu Nov 24 12:49:19 2022

Memory usage per processor = 964.609 Mbytes
    Step    Atoms         KinEng            CPU 
 6172822     3397       1.103665              0 
 6481463     3304      1.4056713      3858.5017 
Loop time of 3858.5 on 40 procs for 308641 steps with 3304 atoms, finish time Thu Nov 24 13:53:38 2022


Pair  time (%) = 0.998069 (0.0258667)
Neigh time (%) = 160.349 (4.15574)
Comm  time (%) = 184.319 (4.77697)
Outpt time (%) = 0.000600913 (1.55737e-05)
Other time (%) = 3512.83 (91.0414)

Nlocal:    82.6 ave 1027 max 0 min
Histogram: 32 4 1 1 0 0 0 0 0 2
Nghost:    12.875 ave 140 max 0 min
Histogram: 36 0 0 0 0 0 1 1 0 2
Neighs:    7.95 ave 120 max 0 min
Histogram: 36 0 1 0 1 0 0 0 1 1

Total # of neighbors = 318
Ave neighs/atom = 0.096247
Neighbor list builds = 60423
Dangerous builds = 10340
Setting up run at Thu Nov 24 13:53:38 2022

Memory usage per processor = 964.609 Mbytes
    Step    Atoms         KinEng            CPU 
 6481463     3304      1.4056713              0 
 6790104     3191      1.1510812      3880.8861 
Loop time of 3880.89 on 40 procs for 308641 steps with 3191 atoms, finish time Thu Nov 24 14:58:19 2022


Pair  time (%) = 0.986884 (0.0254293)
Neigh time (%) = 185.166 (4.77122)
Comm  time (%) = 223.016 (5.74653)
Outpt time (%) = 0.000490464 (1.26379e-05)
Other time (%) = 3471.72 (89.4568)

Nlocal:    79.775 ave 977 max 0 min
Histogram: 32 4 0 2 0 0 0 0 0 2
Nghost:    11.875 ave 137 max 0 min
Histogram: 36 0 0 0 1 1 0 0 0 2
Neighs:    6.275 ave 89 max 0 min
Histogram: 36 0 0 0 2 0 0 0 1 1

Total # of neighbors = 251
Ave neighs/atom = 0.0786587
Neighbor list builds = 69852
Dangerous builds = 8867
Setting up run at Thu Nov 24 14:58:19 2022

Memory usage per processor = 964.609 Mbytes
    Step    Atoms         KinEng            CPU 
 6790104     3191      1.1510812              0 
 7098745     3064     0.92762622      3881.1538 
Loop time of 3881.15 on 40 procs for 308641 steps with 3064 atoms, finish time Thu Nov 24 16:03:00 2022


Pair  time (%) = 0.95807 (0.0246852)
Neigh time (%) = 168.338 (4.33733)
Comm  time (%) = 200.856 (5.17516)
Outpt time (%) = 0.000596144 (1.536e-05)
Other time (%) = 3511 (90.4628)

Nlocal:    76.6 ave 895 max 0 min
Histogram: 32 4 0 2 0 0 0 0 0 2
Nghost:    11.15 ave 139 max 0 min
Histogram: 36 0 0 0 2 0 0 0 1 1
Neighs:    5.85 ave 89 max 0 min
Histogram: 36 0 0 1 1 0 0 1 0 1

Total # of neighbors = 234
Ave neighs/atom = 0.0763708
Neighbor list builds = 63345
Dangerous builds = 11116
Setting up run at Thu Nov 24 16:03:00 2022

Memory usage per processor = 964.609 Mbytes
    Step    Atoms         KinEng            CPU 
 7098745     3064     0.92762622              0 
 7407386     2931      1.0947995       4075.094 
Loop time of 4075.09 on 40 procs for 308641 steps with 2931 atoms, finish time Thu Nov 24 17:10:55 2022


Pair  time (%) = 0.94463 (0.0231806)
Neigh time (%) = 209.42 (5.13902)
Comm  time (%) = 257.304 (6.31407)
Outpt time (%) = 0.000679992 (1.66865e-05)
Other time (%) = 3607.43 (88.5237)

Nlocal:    73.275 ave 812 max 0 min
Histogram: 32 3 1 2 0 0 0 0 0 2
Nghost:    10.25 ave 118 max 0 min
Histogram: 36 0 0 0 0 2 0 0 0 2
Neighs:    4 ave 57 max 0 min
Histogram: 35 1 0 1 1 0 0 0 1 1

Total # of neighbors = 160
Ave neighs/atom = 0.0545889
Neighbor list builds = 78866
Dangerous builds = 7372
Setting up run at Thu Nov 24 17:10:55 2022

Memory usage per processor = 964.609 Mbytes
    Step    Atoms         KinEng            CPU 
 7407386     2931      1.0947995              0 
 7716027     2785       1.056658      4144.8997 
Loop time of 4144.9 on 40 procs for 308641 steps with 2785 atoms, finish time Thu Nov 24 18:20:00 2022


Pair  time (%) = 0.950536 (0.0229327)
Neigh time (%) = 246.415 (5.94502)
Comm  time (%) = 289.291 (6.97946)
Outpt time (%) = 0.000506037 (1.22087e-05)
Other time (%) = 3608.24 (87.0526)

Nlocal:    69.625 ave 787 max 0 min
Histogram: 32 4 0 2 0 0 0 0 0 2
Nghost:    8.75 ave 110 max 0 min
Histogram: 35 1 0 0 2 0 0 0 1 1
Neighs:    2.925 ave 44 max 0 min
Histogram: 36 0 2 0 0 0 0 0 1 1

Total # of neighbors = 117
Ave neighs/atom = 0.0420108
Neighbor list builds = 92784
Dangerous builds = 15812
Setting up run at Thu Nov 24 18:20:00 2022

Memory usage per processor = 964.609 Mbytes
    Step    Atoms         KinEng            CPU 
 7716027     2785       1.056658              0 
 8024668     2655     0.98602444      4153.3691 
Loop time of 4153.37 on 40 procs for 308641 steps with 2655 atoms, finish time Thu Nov 24 19:29:14 2022


Pair  time (%) = 0.920787 (0.0221696)
Neigh time (%) = 245.572 (5.91259)
Comm  time (%) = 293.665 (7.07052)
Outpt time (%) = 0.000704613 (1.69648e-05)
Other time (%) = 3613.21 (86.9947)

Nlocal:    66.375 ave 733 max 0 min
Histogram: 32 2 2 2 0 0 0 0 0 2
Nghost:    8.725 ave 99 max 0 min
Histogram: 35 1 0 1 0 1 0 0 0 2
Neighs:    2.9 ave 38 max 0 min
Histogram: 34 0 4 0 0 0 0 0 1 1

Total # of neighbors = 116
Ave neighs/atom = 0.0436911
Neighbor list builds = 92496
Dangerous builds = 12650
Setting up run at Thu Nov 24 19:29:14 2022

Memory usage per processor = 964.609 Mbytes
    Step    Atoms         KinEng            CPU 
 8024668     2655     0.98602444              0 
 8333309     2522      1.3863504      3870.0394 
Loop time of 3870.04 on 40 procs for 308641 steps with 2522 atoms, finish time Thu Nov 24 20:33:44 2022


Pair  time (%) = 0.85029 (0.0219711)
Neigh time (%) = 174.931 (4.52014)
Comm  time (%) = 213.047 (5.50503)
Outpt time (%) = 0.000587945 (1.51922e-05)
Other time (%) = 3481.21 (89.9528)

Nlocal:    63.05 ave 679 max 0 min
Histogram: 32 3 1 2 0 0 0 0 0 2
Nghost:    7.775 ave 88 max 0 min
Histogram: 36 0 0 0 2 0 0 0 0 2
Neighs:    2.25 ave 32 max 0 min
Histogram: 35 1 2 0 0 0 0 0 0 2

Total # of neighbors = 90
Ave neighs/atom = 0.035686
Neighbor list builds = 65767
Dangerous builds = 11395
Setting up run at Thu Nov 24 20:33:44 2022

Memory usage per processor = 964.609 Mbytes
    Step    Atoms         KinEng            CPU 
 8333309     2522      1.3863504              0 
 8641950     2392      1.0719619      3873.5907 
Loop time of 3873.59 on 40 procs for 308641 steps with 2392 atoms, finish time Thu Nov 24 21:38:18 2022


Pair  time (%) = 0.835238 (0.0215624)
Neigh time (%) = 174.035 (4.49286)
Comm  time (%) = 204.877 (5.28908)
Outpt time (%) = 0.000697264 (1.80004e-05)
Other time (%) = 3493.84 (90.1965)

Nlocal:    59.8 ave 657 max 0 min
Histogram: 32 3 2 1 0 0 0 0 0 2
Nghost:    7.175 ave 93 max 0 min
Histogram: 36 0 0 0 2 0 0 0 1 1
Neighs:    2.025 ave 28 max 0 min
Histogram: 33 3 1 1 0 0 0 0 1 1

Total # of neighbors = 81
Ave neighs/atom = 0.0338629
Neighbor list builds = 65448
Dangerous builds = 8202
Setting up run at Thu Nov 24 21:38:18 2022

Memory usage per processor = 964.609 Mbytes
    Step    Atoms         KinEng            CPU 
 8641950     2392      1.0719619              0 
 8950591     2260      1.0938768      3928.1923 
Loop time of 3928.19 on 40 procs for 308641 steps with 2260 atoms, finish time Thu Nov 24 22:43:46 2022


Pair  time (%) = 0.83914 (0.021362)
Neigh time (%) = 201.684 (5.13426)
Comm  time (%) = 228.968 (5.82885)
Outpt time (%) = 0.000580867 (1.47871e-05)
Other time (%) = 3496.7 (89.0155)

Nlocal:    56.5 ave 620 max 0 min
Histogram: 32 3 1 2 0 0 0 0 0 2
Nghost:    7 ave 98 max 0 min
Histogram: 36 0 1 1 0 0 1 0 0 1
Neighs:    2.1 ave 35 max 0 min
Histogram: 35 1 1 1 1 0 0 0 0 1

Total # of neighbors = 84
Ave neighs/atom = 0.0371681
Neighbor list builds = 75808
Dangerous builds = 11585
Setting up run at Thu Nov 24 22:43:46 2022

Memory usage per processor = 964.609 Mbytes
    Step    Atoms         KinEng            CPU 
 8950591     2260      1.0938768              0 
 9259232     2144     0.92284252      3843.1346 
Loop time of 3843.14 on 40 procs for 308641 steps with 2144 atoms, finish time Thu Nov 24 23:47:49 2022


Pair  time (%) = 0.793917 (0.0206581)
Neigh time (%) = 184.245 (4.79414)
Comm  time (%) = 210.213 (5.46982)
Outpt time (%) = 0.000587591 (1.52894e-05)
Other time (%) = 3447.88 (89.7154)

Nlocal:    53.6 ave 573 max 0 min
Histogram: 32 2 2 2 0 0 0 0 0 2
Nghost:    6.125 ave 79 max 0 min
Histogram: 35 1 1 1 0 0 0 0 1 1
Neighs:    1.55 ave 17 max 0 min
Histogram: 33 3 0 0 1 0 0 1 0 2

Total # of neighbors = 62
Ave neighs/atom = 0.0289179
Neighbor list builds = 69021
Dangerous builds = 5765
Setting up run at Thu Nov 24 23:47:50 2022

Memory usage per processor = 964.609 Mbytes
    Step    Atoms         KinEng            CPU 
 9259232     2144     0.92284252              0 
 9567873     2026     0.98524831      3874.7121 
Loop time of 3874.71 on 40 procs for 308641 steps with 2026 atoms, finish time Fri Nov 25 00:52:24 2022


Pair  time (%) = 0.796024 (0.0205441)
Neigh time (%) = 193.055 (4.98242)
Comm  time (%) = 220.721 (5.69645)
Outpt time (%) = 0.000589255 (1.52077e-05)
Other time (%) = 3460.14 (89.3006)

Nlocal:    50.65 ave 543 max 0 min
Histogram: 32 0 4 2 0 0 0 0 0 2
Nghost:    6.25 ave 82 max 0 min
Histogram: 36 0 0 2 0 0 0 1 0 1
Neighs:    1 ave 12 max 0 min
Histogram: 32 2 2 1 1 0 1 0 0 1

Total # of neighbors = 40
Ave neighs/atom = 0.0197433
Neighbor list builds = 72427
Dangerous builds = 8670
Setting up run at Fri Nov 25 00:52:24 2022

Memory usage per processor = 964.609 Mbytes
    Step    Atoms         KinEng            CPU 
 9567873     2026     0.98524831              0 
 9876514     1911      1.1416459      3809.6498 
Loop time of 3809.65 on 40 procs for 308641 steps with 1911 atoms, finish time Fri Nov 25 01:55:54 2022


Pair  time (%) = 0.772814 (0.0202857)
Neigh time (%) = 179.183 (4.70338)
Comm  time (%) = 210.347 (5.52141)
Outpt time (%) = 0.000594998 (1.56182e-05)
Other time (%) = 3419.35 (89.7549)

Nlocal:    47.775 ave 507 max 0 min
Histogram: 32 1 4 1 0 0 0 0 0 2
Nghost:    6.4 ave 76 max 0 min
Histogram: 33 3 1 1 0 0 0 0 1 1
Neighs:    1.175 ave 16 max 0 min
Histogram: 32 4 0 1 0 2 0 0 0 1

Total # of neighbors = 47
Ave neighs/atom = 0.0245945
Neighbor list builds = 67193
Dangerous builds = 12384
Setting up run at Fri Nov 25 01:55:54 2022

Memory usage per processor = 964.609 Mbytes
    Step    Atoms         KinEng            CPU 
 9876514     1911      1.1416459              0 
10185155     1795      1.0990833      3805.9659 
Loop time of 3805.97 on 40 procs for 308641 steps with 1795 atoms, finish time Fri Nov 25 02:59:20 2022


Pair  time (%) = 0.763924 (0.0200718)
Neigh time (%) = 177.67 (4.66819)
Comm  time (%) = 192.263 (5.05161)
Outpt time (%) = 0.00071647 (1.88249e-05)
Other time (%) = 3435.27 (90.2601)

Nlocal:    44.875 ave 492 max 0 min
Histogram: 32 3 1 2 0 0 0 0 1 1
Nghost:    5.3 ave 66 max 0 min
Histogram: 34 2 0 2 0 0 0 0 1 1
Neighs:    0.925 ave 13 max 0 min
Histogram: 34 2 0 1 1 0 1 0 0 1

Total # of neighbors = 37
Ave neighs/atom = 0.0206128
Neighbor list builds = 66689
Dangerous builds = 9163
Setting up run at Fri Nov 25 02:59:20 2022

Memory usage per processor = 964.609 Mbytes
    Step    Atoms         KinEng            CPU 
10185155     1795      1.0990833              0 
10493796     1706      2.1453605      3739.5035 
Loop time of 3739.5 on 40 procs for 308641 steps with 1706 atoms, finish time Fri Nov 25 04:01:40 2022


Pair  time (%) = 0.75236 (0.0201192)
Neigh time (%) = 163.502 (4.37228)
Comm  time (%) = 176.321 (4.7151)
Outpt time (%) = 0.0162894 (0.000435602)
Other time (%) = 3398.91 (90.8921)

Nlocal:    42.65 ave 478 max 0 min
Histogram: 32 1 5 0 0 0 0 0 1 1
Nghost:    4.6 ave 51 max 0 min
Histogram: 35 1 0 1 0 1 0 0 0 2
Neighs:    1.15 ave 15 max 0 min
Histogram: 34 1 2 1 0 0 0 0 0 2

Total # of neighbors = 46
Ave neighs/atom = 0.0269637
Neighbor list builds = 61373
Dangerous builds = 9915
Setting up run at Fri Nov 25 04:01:40 2022

Memory usage per processor = 964.609 Mbytes
    Step    Atoms         KinEng            CPU 
10493796     1706      2.1453605              0 
10802437     1615      1.0291819      3756.7177 
Loop time of 3756.72 on 40 procs for 308641 steps with 1615 atoms, finish time Fri Nov 25 05:04:17 2022


Pair  time (%) = 0.74772 (0.0199036)
Neigh time (%) = 166.786 (4.43969)
Comm  time (%) = 182.169 (4.84914)
Outpt time (%) = 0.00580077 (0.000154411)
Other time (%) = 3407.01 (90.6911)

Nlocal:    40.375 ave 460 max 0 min
Histogram: 32 2 4 0 0 0 0 0 1 1
Nghost:    4.65 ave 54 max 0 min
Histogram: 35 1 0 1 0 1 0 0 0 2
Neighs:    0.65 ave 9 max 0 min
Histogram: 33 2 2 0 1 0 0 1 0 1

Total # of neighbors = 26
Ave neighs/atom = 0.0160991
Neighbor list builds = 62656
Dangerous builds = 8375
Setting up run at Fri Nov 25 05:04:17 2022

Memory usage per processor = 964.609 Mbytes
    Step    Atoms         KinEng            CPU 
10802437     1615      1.0291819              0 
11111078     1508      1.0057411      3815.5305 
Loop time of 3815.53 on 40 procs for 308641 steps with 1508 atoms, finish time Fri Nov 25 06:07:52 2022


Pair  time (%) = 0.749198 (0.0196355)
Neigh time (%) = 181.592 (4.75928)
Comm  time (%) = 185.514 (4.86207)
Outpt time (%) = 0.000518195 (1.35812e-05)
Other time (%) = 3447.68 (90.359)

Nlocal:    37.7 ave 436 max 0 min
Histogram: 32 3 2 1 0 0 0 0 1 1
Nghost:    4.525 ave 54 max 0 min
Histogram: 35 1 0 2 0 0 0 0 0 2
Neighs:    0.825 ave 8 max 0 min
Histogram: 33 1 2 0 0 0 0 1 2 1

Total # of neighbors = 33
Ave neighs/atom = 0.0218833
Neighbor list builds = 68253
Dangerous builds = 12578
Setting up run at Fri Nov 25 06:07:52 2022

Memory usage per processor = 964.609 Mbytes
    Step    Atoms         KinEng            CPU 
11111078     1508      1.0057411              0 
11419719     1448     0.88723741      3578.2788 
Loop time of 3578.28 on 40 procs for 308641 steps with 1448 atoms, finish time Fri Nov 25 07:07:31 2022


Pair  time (%) = 0.719425 (0.0201053)
Neigh time (%) = 129.429 (3.61709)
Comm  time (%) = 126.134 (3.52498)
Outpt time (%) = 0.000630413 (1.76178e-05)
Other time (%) = 3322 (92.8378)

Nlocal:    36.2 ave 410 max 0 min
Histogram: 31 3 3 1 0 0 0 0 1 1
Nghost:    3.75 ave 47 max 0 min
Histogram: 34 2 1 0 1 0 0 0 1 1
Neighs:    0.8 ave 11 max 0 min
Histogram: 34 2 1 0 1 0 0 1 0 1

Total # of neighbors = 32
Ave neighs/atom = 0.0220994
Neighbor list builds = 48764
Dangerous builds = 3441
Setting up run at Fri Nov 25 07:07:31 2022

Memory usage per processor = 964.609 Mbytes
    Step    Atoms         KinEng            CPU 
11419719     1448     0.88723741              0 
11728360     1381     0.86589142      3550.8567 
Loop time of 3550.86 on 40 procs for 308641 steps with 1381 atoms, finish time Fri Nov 25 08:06:42 2022


Pair  time (%) = 0.712181 (0.0200566)
Neigh time (%) = 122.825 (3.45902)
Comm  time (%) = 112.304 (3.16272)
Outpt time (%) = 0.000620389 (1.74715e-05)
Other time (%) = 3315.02 (93.3582)

Nlocal:    34.525 ave 391 max 0 min
Histogram: 31 4 2 1 0 0 0 0 1 1
Nghost:    3.625 ave 48 max 0 min
Histogram: 35 1 1 1 0 0 0 0 0 2
Neighs:    0.7 ave 14 max 0 min
Histogram: 36 1 1 1 0 0 0 0 0 1

Total # of neighbors = 28
Ave neighs/atom = 0.0202752
Neighbor list builds = 46270
Dangerous builds = 4256
Setting up run at Fri Nov 25 08:06:42 2022

Memory usage per processor = 964.609 Mbytes
    Step    Atoms         KinEng            CPU 
11728360     1381     0.86589142              0 
12037001     1333     0.76591982      3528.8422 
Loop time of 3528.84 on 40 procs for 308641 steps with 1333 atoms, finish time Fri Nov 25 09:05:30 2022


Pair  time (%) = 0.698374 (0.0197904)
Neigh time (%) = 117.701 (3.33541)
Comm  time (%) = 115.661 (3.27759)
Outpt time (%) = 0.000522294 (1.48007e-05)
Other time (%) = 3294.78 (93.3672)

Nlocal:    33.325 ave 367 max 0 min
Histogram: 31 4 2 1 0 0 0 0 0 2
Nghost:    3.6 ave 47 max 0 min
Histogram: 36 0 1 1 0 0 0 0 1 1
Neighs:    0.425 ave 5 max 0 min
Histogram: 34 0 1 0 3 0 0 0 0 2

Total # of neighbors = 17
Ave neighs/atom = 0.0127532
Neighbor list builds = 44375
Dangerous builds = 4233
Setting up run at Fri Nov 25 09:05:30 2022

Memory usage per processor = 964.609 Mbytes
    Step    Atoms         KinEng            CPU 
12037001     1333     0.76591982              0 
12345642     1282     0.76307483       3460.697 
Loop time of 3460.7 on 40 procs for 308641 steps with 1282 atoms, finish time Fri Nov 25 10:03:11 2022


Pair  time (%) = 0.695839 (0.0201069)
Neigh time (%) = 104.568 (3.02158)
Comm  time (%) = 87.39 (2.52521)
Outpt time (%) = 0.000327585 (9.46587e-06)
Other time (%) = 3268.04 (94.4331)

Nlocal:    32.05 ave 359 max 0 min
Histogram: 32 2 4 0 0 0 0 0 0 2
Nghost:    3.65 ave 40 max 0 min
Histogram: 33 3 0 1 0 0 0 1 0 2
Neighs:    0.45 ave 7 max 0 min
Histogram: 34 3 1 0 0 0 0 0 1 1

Total # of neighbors = 18
Ave neighs/atom = 0.0140406
Neighbor list builds = 39404
Dangerous builds = 8053
Setting up run at Fri Nov 25 10:03:11 2022

Memory usage per processor = 964.609 Mbytes
    Step    Atoms         KinEng            CPU 
12345642     1282     0.76307483              0 
12654283     1230      1.3054743      3607.2024 
Loop time of 3607.2 on 40 procs for 308641 steps with 1230 atoms, finish time Fri Nov 25 11:03:18 2022


Pair  time (%) = 0.697735 (0.0193428)
Neigh time (%) = 136.419 (3.78185)
Comm  time (%) = 118.297 (3.27948)
Outpt time (%) = 0.00616485 (0.000170904)
Other time (%) = 3351.78 (92.9192)

Nlocal:    30.75 ave 346 max 0 min
Histogram: 32 1 5 0 0 0 0 0 0 2
Nghost:    3.85 ave 46 max 0 min
Histogram: 33 3 0 0 1 1 0 0 0 2
Neighs:    0.65 ave 10 max 0 min
Histogram: 34 1 2 1 0 0 0 0 1 1

Total # of neighbors = 26
Ave neighs/atom = 0.0211382
Neighbor list builds = 51485
Dangerous builds = 2664
Setting up run at Fri Nov 25 11:03:18 2022

Memory usage per processor = 964.609 Mbytes
    Step    Atoms         KinEng            CPU 
12654283     1230      1.3054743              0 
12962924     1181     0.67018274      3499.9149 
Loop time of 3499.92 on 40 procs for 308641 steps with 1181 atoms, finish time Fri Nov 25 12:01:38 2022


Pair  time (%) = 0.684745 (0.0195646)
Neigh time (%) = 112.717 (3.22056)
Comm  time (%) = 98.6964 (2.81996)
Outpt time (%) = 0.000578624 (1.65325e-05)
Other time (%) = 3287.82 (93.9399)

Nlocal:    29.525 ave 333 max 0 min
Histogram: 32 3 3 0 0 0 0 0 0 2
Nghost:    3.4 ave 40 max 0 min
Histogram: 34 2 0 0 2 0 0 0 0 2
Neighs:    0.4 ave 8 max 0 min
Histogram: 35 2 0 2 0 0 0 0 0 1

Total # of neighbors = 16
Ave neighs/atom = 0.0135478
Neighbor list builds = 42581
Dangerous builds = 4644
Setting up run at Fri Nov 25 12:01:38 2022

Memory usage per processor = 964.609 Mbytes
    Step    Atoms         KinEng            CPU 
12962924     1181     0.67018274              0 
13271565     1139     0.60374294      3485.6562 
Loop time of 3485.67 on 40 procs for 308641 steps with 1139 atoms, finish time Fri Nov 25 12:59:44 2022


Pair  time (%) = 0.676761 (0.0194155)
Neigh time (%) = 110.841 (3.1799)
Comm  time (%) = 97.7465 (2.80424)
Outpt time (%) = 0.0270122 (0.000774951)
Other time (%) = 3276.38 (93.9957)

Nlocal:    28.475 ave 315 max 0 min
Histogram: 31 4 3 0 0 0 0 0 0 2
Nghost:    3.3 ave 40 max 0 min
Histogram: 33 3 0 0 2 0 0 0 0 2
Neighs:    0.375 ave 5 max 0 min
Histogram: 33 0 3 0 2 0 1 0 0 1

Total # of neighbors = 15
Ave neighs/atom = 0.0131694
Neighbor list builds = 41877
Dangerous builds = 3006
Setting up run at Fri Nov 25 12:59:44 2022

Memory usage per processor = 964.609 Mbytes
    Step    Atoms         KinEng            CPU 
13271565     1139     0.60374294              0 
13580206     1096     0.59937555      3457.9803 
Loop time of 3457.98 on 40 procs for 308641 steps with 1096 atoms, finish time Fri Nov 25 13:57:22 2022


Pair  time (%) = 0.673204 (0.0194681)
Neigh time (%) = 104.628 (3.02571)
Comm  time (%) = 84.2947 (2.43768)
Outpt time (%) = 0.00594792 (0.000172006)
Other time (%) = 3268.38 (94.517)

Nlocal:    27.4 ave 308 max 0 min
Histogram: 32 4 1 1 0 0 0 0 0 2
Nghost:    2.975 ave 36 max 0 min
Histogram: 35 1 0 0 1 1 0 0 1 1
Neighs:    0.325 ave 6 max 0 min
Histogram: 35 3 0 0 0 0 1 0 0 1

Total # of neighbors = 13
Ave neighs/atom = 0.0118613
Neighbor list builds = 39553
Dangerous builds = 3196
Setting up run at Fri Nov 25 13:57:22 2022

Memory usage per processor = 964.609 Mbytes
    Step    Atoms         KinEng            CPU 
13580206     1096     0.59937555              0 
13888847     1050     0.74131674      3498.9325 
Loop time of 3498.93 on 40 procs for 308641 steps with 1050 atoms, finish time Fri Nov 25 14:55:41 2022


Pair  time (%) = 0.67702 (0.0193493)
Neigh time (%) = 112.207 (3.20688)
Comm  time (%) = 88.2355 (2.52178)
Outpt time (%) = 0.000590763 (1.68841e-05)
Other time (%) = 3297.81 (94.252)

Nlocal:    26.25 ave 303 max 0 min
Histogram: 30 5 3 0 0 0 0 0 0 2
Nghost:    3.05 ave 37 max 0 min
Histogram: 35 1 0 0 1 1 0 0 1 1
Neighs:    0.2 ave 4 max 0 min
Histogram: 36 0 2 0 0 1 0 0 0 1

Total # of neighbors = 8
Ave neighs/atom = 0.00761905
Neighbor list builds = 42425
Dangerous builds = 3520
Setting up run at Fri Nov 25 14:55:42 2022

Memory usage per processor = 964.609 Mbytes
    Step    Atoms         KinEng            CPU 
13888847     1050     0.74131674              0 
14197488     1002      26.927389      3637.7471 
Loop time of 3637.75 on 40 procs for 308641 steps with 1002 atoms, finish time Fri Nov 25 15:56:19 2022


Pair  time (%) = 0.676894 (0.0186075)
Neigh time (%) = 121.662 (3.34444)
Comm  time (%) = 95.7168 (2.63121)
Outpt time (%) = 0.00618371 (0.000169987)
Other time (%) = 3419.69 (94.0056)

Nlocal:    25.05 ave 296 max 0 min
Histogram: 31 4 3 0 0 0 0 0 1 1
Nghost:    3.1 ave 32 max 0 min
Histogram: 35 1 0 1 0 0 0 0 0 3
Neighs:    0.35 ave 6 max 0 min
Histogram: 36 1 0 1 0 0 0 0 1 1

Total # of neighbors = 14
Ave neighs/atom = 0.0139721
Neighbor list builds = 46002
Dangerous builds = 6687
Setting up run at Fri Nov 25 15:56:19 2022

Memory usage per processor = 964.609 Mbytes
    Step    Atoms         KinEng            CPU 
14197488     1002      26.927389              0 
14506129      962      1.2149622      3699.9756 
Loop time of 3699.98 on 40 procs for 308641 steps with 962 atoms, finish time Fri Nov 25 16:57:59 2022


Pair  time (%) = 0.681113 (0.0184086)
Neigh time (%) = 147.974 (3.99932)
Comm  time (%) = 125.18 (3.38327)
Outpt time (%) = 0.00609726 (0.000164792)
Other time (%) = 3426.13 (92.5988)

Nlocal:    24.05 ave 290 max 0 min
Histogram: 32 4 2 0 0 0 0 0 1 1
Nghost:    2.8 ave 32 max 0 min
Histogram: 35 1 0 1 0 0 1 0 0 2
Neighs:    0.225 ave 2 max 0 min
Histogram: 34 0 0 0 0 3 0 0 0 3

Total # of neighbors = 9
Ave neighs/atom = 0.00935551
Neighbor list builds = 55994
Dangerous builds = 7190
Setting up run at Fri Nov 25 16:58:00 2022

Memory usage per processor = 964.609 Mbytes
    Step    Atoms         KinEng            CPU 
14506129      962      1.2149622              0 
14814770      908     0.46724246      3562.6232 
Loop time of 3562.62 on 40 procs for 308641 steps with 908 atoms, finish time Fri Nov 25 17:57:23 2022


Pair  time (%) = 0.671112 (0.0188376)
Neigh time (%) = 124.582 (3.49691)
Comm  time (%) = 87.8535 (2.46598)
Outpt time (%) = 0.00610255 (0.000171294)
Other time (%) = 3349.51 (94.0181)

Nlocal:    22.7 ave 280 max 0 min
Histogram: 32 4 2 0 0 0 0 0 1 1
Nghost:    2.625 ave 35 max 0 min
Histogram: 35 1 1 0 1 0 0 0 1 1
Neighs:    0.25 ave 4 max 0 min
Histogram: 35 0 2 0 0 2 0 0 0 1

Total # of neighbors = 10
Ave neighs/atom = 0.0110132
Neighbor list builds = 47224
Dangerous builds = 3757
Setting up run at Fri Nov 25 17:57:23 2022

Memory usage per processor = 964.609 Mbytes
    Step    Atoms         KinEng            CPU 
14814770      908     0.46724246              0 
15123411      877     0.50718763      3434.6135 
Loop time of 3434.61 on 40 procs for 308641 steps with 877 atoms, finish time Fri Nov 25 18:54:38 2022


Pair  time (%) = 0.653117 (0.0190157)
Neigh time (%) = 99.1375 (2.88642)
Comm  time (%) = 69.8536 (2.03381)
Outpt time (%) = 0.00059206 (1.7238e-05)
Other time (%) = 3264.97 (95.0607)

Nlocal:    21.925 ave 268 max 0 min
Histogram: 33 3 2 0 0 0 0 0 0 2
Nghost:    2.575 ave 31 max 0 min
Histogram: 34 2 1 0 0 1 0 0 1 1
Neighs:    0.15 ave 2 max 0 min
Histogram: 36 0 0 0 0 2 0 0 0 2

Total # of neighbors = 6
Ave neighs/atom = 0.00684151
Neighbor list builds = 37565
Dangerous builds = 3710
Setting up run at Fri Nov 25 18:54:38 2022

Memory usage per processor = 964.609 Mbytes
    Step    Atoms         KinEng            CPU 
15123411      877     0.50718763              0 
15432052      842     0.48494328       3870.127 
Loop time of 3870.13 on 40 procs for 308641 steps with 842 atoms, finish time Fri Nov 25 19:59:08 2022


Pair  time (%) = 0.679038 (0.0175456)
Neigh time (%) = 172.663 (4.46144)
Comm  time (%) = 117.559 (3.03761)
Outpt time (%) = 0.000603662 (1.5598e-05)
Other time (%) = 3579.23 (92.4834)

Nlocal:    21.05 ave 273 max 0 min
Histogram: 32 5 1 0 0 0 0 0 1 1
Nghost:    2.575 ave 30 max 0 min
Histogram: 34 2 0 0 1 1 0 0 0 2
Neighs:    0.275 ave 4 max 0 min
Histogram: 34 0 4 0 0 0 0 1 0 1

Total # of neighbors = 11
Ave neighs/atom = 0.0130641
Neighbor list builds = 65421
Dangerous builds = 2805
Setting up run at Fri Nov 25 19:59:08 2022

Memory usage per processor = 964.609 Mbytes
    Step    Atoms         KinEng            CPU 
15432052      842     0.48494328              0 
15740693      805      1.4614787      3728.2175 
Loop time of 3728.22 on 40 procs for 308641 steps with 805 atoms, finish time Fri Nov 25 21:01:16 2022


Pair  time (%) = 0.670146 (0.017975)
Neigh time (%) = 153.791 (4.12507)
Comm  time (%) = 101.643 (2.72631)
Outpt time (%) = 0.000615945 (1.65212e-05)
Other time (%) = 3472.11 (93.1306)

Nlocal:    20.125 ave 261 max 0 min
Histogram: 33 4 1 0 0 0 0 0 1 1
Nghost:    2.025 ave 27 max 0 min
Histogram: 36 0 1 0 1 0 0 0 0 2
Neighs:    0.25 ave 5 max 0 min
Histogram: 35 0 3 0 1 0 0 0 0 1

Total # of neighbors = 10
Ave neighs/atom = 0.0124224
Neighbor list builds = 58350
Dangerous builds = 3620
Setting up run at Fri Nov 25 21:01:16 2022

Memory usage per processor = 964.609 Mbytes
    Step    Atoms         KinEng            CPU 
15740693      805      1.4614787              0 
16049334      773     0.44158253      3415.7802 
Loop time of 3415.78 on 40 procs for 308641 steps with 773 atoms, finish time Fri Nov 25 21:58:12 2022


Pair  time (%) = 0.642338 (0.018805)
Neigh time (%) = 97.0231 (2.84044)
Comm  time (%) = 68.7628 (2.01309)
Outpt time (%) = 0.000356685 (1.04423e-05)
Other time (%) = 3249.35 (95.1277)

Nlocal:    19.325 ave 258 max 0 min
Histogram: 34 2 2 0 0 0 0 0 1 1
Nghost:    2.35 ave 32 max 0 min
Histogram: 35 2 0 0 0 1 0 1 0 1
Neighs:    0.15 ave 4 max 0 min
Histogram: 37 0 2 0 0 0 0 0 0 1

Total # of neighbors = 6
Ave neighs/atom = 0.00776197
Neighbor list builds = 36875
Dangerous builds = 2777
Setting up run at Fri Nov 25 21:58:12 2022

Memory usage per processor = 964.609 Mbytes
    Step    Atoms         KinEng            CPU 
16049334      773     0.44158253              0 
16357975      747     0.37956782      3537.9706 
Loop time of 3537.97 on 40 procs for 308641 steps with 747 atoms, finish time Fri Nov 25 22:57:10 2022


Pair  time (%) = 0.648422 (0.0183275)
Neigh time (%) = 123.988 (3.50449)
Comm  time (%) = 88.969 (2.51469)
Outpt time (%) = 0.000784167 (2.21643e-05)
Other time (%) = 3324.36 (93.9625)

Nlocal:    18.675 ave 246 max 0 min
Histogram: 33 5 0 0 0 0 0 0 1 1
Nghost:    2.225 ave 31 max 0 min
Histogram: 36 0 1 0 0 1 0 1 0 1
Neighs:    0.1 ave 2 max 0 min
Histogram: 37 0 0 0 0 2 0 0 0 1

Total # of neighbors = 4
Ave neighs/atom = 0.00535475
Neighbor list builds = 47061
Dangerous builds = 6064
Setting up run at Fri Nov 25 22:57:10 2022

Memory usage per processor = 964.609 Mbytes
    Step    Atoms         KinEng            CPU 
16357975      747     0.37956782              0 
16666616      720     0.39331559       3398.815 
Loop time of 3398.82 on 40 procs for 308641 steps with 720 atoms, finish time Fri Nov 25 23:53:49 2022


Pair  time (%) = 0.638014 (0.0187717)
Neigh time (%) = 93.8224 (2.76044)
Comm  time (%) = 69.2913 (2.03869)
Outpt time (%) = 0.00612252 (0.000180137)
Other time (%) = 3235.06 (95.1819)

Nlocal:    18 ave 233 max 0 min
Histogram: 34 3 1 0 0 0 0 0 0 2
Nghost:    2.3 ave 34 max 0 min
Histogram: 35 1 1 1 0 0 1 0 0 1
Neighs:    0.1 ave 2 max 0 min
Histogram: 37 0 0 0 0 2 0 0 0 1

Total # of neighbors = 4
Ave neighs/atom = 0.00555556
Neighbor list builds = 35678
Dangerous builds = 3377
Setting up run at Fri Nov 25 23:53:49 2022

Memory usage per processor = 964.609 Mbytes
    Step    Atoms         KinEng            CPU 
16666616      720     0.39331559              0 
16975257      693     0.34525214      3360.0629 
Loop time of 3360.06 on 40 procs for 308641 steps with 693 atoms, finish time Sat Nov 26 00:49:49 2022


Pair  time (%) = 0.629727 (0.0187415)
Neigh time (%) = 84.0569 (2.50165)
Comm  time (%) = 56.8109 (1.69077)
Outpt time (%) = 0.000580679 (1.72818e-05)
Other time (%) = 3218.57 (95.7888)

Nlocal:    17.325 ave 221 max 0 min
Histogram: 33 4 1 0 0 0 0 0 0 2
Nghost:    2.05 ave 29 max 0 min
Histogram: 35 1 1 1 0 0 0 0 1 1
Neighs:    0.175 ave 3 max 0 min
Histogram: 36 0 0 2 0 0 1 0 0 1

Total # of neighbors = 7
Ave neighs/atom = 0.010101
Neighbor list builds = 31971
Dangerous builds = 882
Setting up run at Sat Nov 26 00:49:49 2022

Memory usage per processor = 964.609 Mbytes
    Step    Atoms         KinEng            CPU 
16975257      693     0.34525214              0 
17283898      673     0.30659826      3244.3709 
Loop time of 3244.37 on 40 procs for 308641 steps with 673 atoms, finish time Sat Nov 26 01:43:54 2022


Pair  time (%) = 0.628779 (0.0193806)
Neigh time (%) = 57.2982 (1.76608)
Comm  time (%) = 28.3112 (0.872627)
Outpt time (%) = 0.000554534 (1.70922e-05)
Other time (%) = 3158.13 (97.3419)

Nlocal:    16.825 ave 217 max 0 min
Histogram: 35 2 1 0 0 0 0 0 0 2
Nghost:    2.05 ave 36 max 0 min
Histogram: 36 0 2 0 0 1 0 0 0 1
Neighs:    0.125 ave 3 max 0 min
Histogram: 38 0 0 0 0 0 1 0 0 1

Total # of neighbors = 5
Ave neighs/atom = 0.00742942
Neighbor list builds = 21838
Dangerous builds = 840
Setting up run at Sat Nov 26 01:43:54 2022

Memory usage per processor = 964.609 Mbytes
    Step    Atoms         KinEng            CPU 
17283898      673     0.30659826              0 
17592539      649     0.33402085      3303.2119 
Loop time of 3303.21 on 40 procs for 308641 steps with 649 atoms, finish time Sat Nov 26 02:38:57 2022


Pair  time (%) = 0.631024 (0.0191034)
Neigh time (%) = 72.071 (2.18185)
Comm  time (%) = 41.1518 (1.24581)
Outpt time (%) = 0.012913 (0.000390922)
Other time (%) = 3189.35 (96.5528)

Nlocal:    16.225 ave 213 max 0 min
Histogram: 35 2 1 0 0 0 0 0 0 2
Nghost:    1.95 ave 28 max 0 min
Histogram: 35 1 0 1 1 0 0 1 0 1
Neighs:    0.25 ave 4 max 0 min
Histogram: 36 0 1 0 0 1 0 1 0 1

Total # of neighbors = 10
Ave neighs/atom = 0.0154083
Neighbor list builds = 27448
Dangerous builds = 1798
Setting up run at Sat Nov 26 02:38:57 2022

Memory usage per processor = 964.609 Mbytes
    Step    Atoms         KinEng            CPU 
17592539      649     0.33402085              0 
17901180      631     0.22330493      3502.0643 
Loop time of 3502.06 on 40 procs for 308641 steps with 631 atoms, finish time Sat Nov 26 03:37:19 2022


Pair  time (%) = 0.642959 (0.0183594)
Neigh time (%) = 115.149 (3.28803)
Comm  time (%) = 80.6577 (2.30315)
Outpt time (%) = 0.000443077 (1.26519e-05)
Other time (%) = 3305.61 (94.3904)

Nlocal:    15.775 ave 205 max 0 min
Histogram: 35 1 2 0 0 0 0 0 0 2
Nghost:    2.075 ave 35 max 0 min
Histogram: 35 1 2 0 1 0 0 0 0 1
Neighs:    0.1 ave 2 max 0 min
Histogram: 38 0 0 0 0 0 0 0 0 2

Total # of neighbors = 4
Ave neighs/atom = 0.00633914
Neighbor list builds = 43855
Dangerous builds = 3477
Setting up run at Sat Nov 26 03:37:19 2022

Memory usage per processor = 964.609 Mbytes
    Step    Atoms         KinEng            CPU 
17901180      631     0.22330493              0 
18209821      614     0.62110578      3434.2222 
Loop time of 3434.22 on 40 procs for 308641 steps with 614 atoms, finish time Sat Nov 26 04:34:34 2022


Pair  time (%) = 0.633924 (0.018459)
Neigh time (%) = 97.3487 (2.83466)
Comm  time (%) = 51.786 (1.50794)
Outpt time (%) = 0.000604371 (1.75985e-05)
Other time (%) = 3284.45 (95.6389)

Nlocal:    15.35 ave 209 max 0 min
Histogram: 34 2 2 0 0 0 0 0 1 1
Nghost:    1.675 ave 24 max 0 min
Histogram: 36 0 1 0 0 1 1 0 0 1
Neighs:    0.05 ave 2 max 0 min
Histogram: 39 0 0 0 0 0 0 0 0 1

Total # of neighbors = 2
Ave neighs/atom = 0.00325733
Neighbor list builds = 37071
Dangerous builds = 1031
Setting up run at Sat Nov 26 04:34:34 2022

Memory usage per processor = 964.609 Mbytes
    Step    Atoms         KinEng            CPU 
18209821      614     0.62110578              0 
18518462      599     0.28292046      3329.0445 
Loop time of 3329.04 on 40 procs for 308641 steps with 599 atoms, finish time Sat Nov 26 05:30:03 2022


Pair  time (%) = 0.626911 (0.0188315)
Neigh time (%) = 77.7452 (2.33536)
Comm  time (%) = 40.2876 (1.21018)
Outpt time (%) = 0.000338987 (1.01827e-05)
Other time (%) = 3210.38 (96.4356)

Nlocal:    14.975 ave 206 max 0 min
Histogram: 33 4 1 0 0 0 0 0 1 1
Nghost:    1.675 ave 19 max 0 min
Histogram: 35 1 0 0 0 1 1 0 0 2
Neighs:    0.1 ave 2 max 0 min
Histogram: 37 0 0 0 0 2 0 0 0 1

Total # of neighbors = 4
Ave neighs/atom = 0.0066778
Neighbor list builds = 29646
Dangerous builds = 696
Setting up run at Sat Nov 26 05:30:03 2022

Memory usage per processor = 964.609 Mbytes
    Step    Atoms         KinEng            CPU 
18518462      599     0.28292046              0 
18827103      584     0.26062502      3400.4141 
Loop time of 3400.41 on 40 procs for 308641 steps with 584 atoms, finish time Sat Nov 26 06:26:43 2022


Pair  time (%) = 0.626422 (0.0184219)
Neigh time (%) = 92.4854 (2.71983)
Comm  time (%) = 60.6829 (1.78457)
Outpt time (%) = 0.00058544 (1.72167e-05)
Other time (%) = 3246.62 (95.4772)

Nlocal:    14.6 ave 197 max 0 min
Histogram: 34 3 1 0 0 0 0 0 0 2
Nghost:    1.775 ave 24 max 0 min
Histogram: 36 0 0 1 0 1 1 0 0 1
Neighs:    0.125 ave 2 max 0 min
Histogram: 36 0 0 0 0 3 0 0 0 1

Total # of neighbors = 5
Ave neighs/atom = 0.00856164
Neighbor list builds = 35230
Dangerous builds = 1222
Setting up run at Sat Nov 26 06:26:43 2022

Memory usage per processor = 964.609 Mbytes
    Step    Atoms         KinEng            CPU 
18827103      584     0.26062502              0 
19135744      574     0.21771604       3314.586 
Loop time of 3314.59 on 40 procs for 308641 steps with 574 atoms, finish time Sat Nov 26 07:21:58 2022


Pair  time (%) = 0.62149 (0.0187502)
Neigh time (%) = 74.3829 (2.24411)
Comm  time (%) = 39.6395 (1.19591)
Outpt time (%) = 0.000644284 (1.94378e-05)
Other time (%) = 3199.94 (96.5412)

Nlocal:    14.35 ave 192 max 0 min
Histogram: 35 2 1 0 0 0 0 0 0 2
Nghost:    1.55 ave 23 max 0 min
Histogram: 36 0 0 1 1 0 0 1 0 1
Neighs:    0.1 ave 1 max 0 min
Histogram: 36 0 0 0 0 0 0 0 0 4

Total # of neighbors = 4
Ave neighs/atom = 0.00696864
Neighbor list builds = 28373
Dangerous builds = 466
Setting up run at Sat Nov 26 07:21:58 2022

Memory usage per processor = 964.609 Mbytes
    Step    Atoms         KinEng            CPU 
19135744      574     0.21771604              0 
19444385      558     0.19937434       3439.604 
Loop time of 3439.6 on 40 procs for 308641 steps with 558 atoms, finish time Sat Nov 26 08:19:18 2022


Pair  time (%) = 0.635821 (0.0184853)
Neigh time (%) = 102.841 (2.9899)
Comm  time (%) = 48.1139 (1.39882)
Outpt time (%) = 0.000543767 (1.5809e-05)
Other time (%) = 3288.01 (95.5928)

Nlocal:    13.95 ave 193 max 0 min
Histogram: 35 2 1 0 0 0 0 0 0 2
Nghost:    1.975 ave 25 max 0 min
Histogram: 35 1 0 1 1 0 0 0 1 1
Neighs:    0.15 ave 3 max 0 min
Histogram: 37 0 0 1 0 0 1 0 0 1

Total # of neighbors = 6
Ave neighs/atom = 0.0107527
Neighbor list builds = 39220
Dangerous builds = 745
Setting up run at Sat Nov 26 08:19:18 2022

Memory usage per processor = 964.609 Mbytes
    Step    Atoms         KinEng            CPU 
19444385      558     0.19937434              0 
19753026      539      0.2099906      3283.8404 
Loop time of 3283.84 on 40 procs for 308641 steps with 539 atoms, finish time Sat Nov 26 09:14:01 2022


Pair  time (%) = 0.616041 (0.0187598)
Neigh time (%) = 66.2878 (2.01861)
Comm  time (%) = 36.043 (1.09759)
Outpt time (%) = 0.000640055 (1.94911e-05)
Other time (%) = 3180.89 (96.865)

Nlocal:    13.475 ave 191 max 0 min
Histogram: 36 1 1 0 0 0 0 0 1 1
Nghost:    1.55 ave 22 max 0 min
Histogram: 36 0 1 1 0 0 0 0 0 2
Neighs:    0.175 ave 3 max 0 min
Histogram: 36 0 0 2 0 0 1 0 0 1

Total # of neighbors = 7
Ave neighs/atom = 0.012987
Neighbor list builds = 25299
Dangerous builds = 1688
Setting up run at Sat Nov 26 09:14:02 2022

Memory usage per processor = 964.609 Mbytes
    Step    Atoms         KinEng            CPU 
19753026      539      0.2099906              0 
20061667      527     0.18836258      3335.9585 
Loop time of 3335.96 on 40 procs for 308641 steps with 527 atoms, finish time Sat Nov 26 10:09:38 2022


Pair  time (%) = 0.619312 (0.0185647)
Neigh time (%) = 70.5592 (2.11511)
Comm  time (%) = 37.0276 (1.10996)
Outpt time (%) = 0.0060788 (0.00018222)
Other time (%) = 3227.75 (96.7562)

Nlocal:    13.175 ave 183 max 0 min
Histogram: 36 0 2 0 0 0 0 0 0 2
Nghost:    1.4 ave 25 max 0 min
Histogram: 36 0 2 0 0 0 1 0 0 1
Neighs:    0.35 ave 8 max 0 min
Histogram: 36 2 0 0 0 1 0 0 0 1

Total # of neighbors = 14
Ave neighs/atom = 0.0265655
Neighbor list builds = 26949
Dangerous builds = 1220
Setting up run at Sat Nov 26 10:09:38 2022

Memory usage per processor = 964.609 Mbytes
    Step    Atoms         KinEng            CPU 
20061667      527     0.18836258              0 
20370308      511     0.16513064      3335.6867 
Loop time of 3335.69 on 40 procs for 308641 steps with 511 atoms, finish time Sat Nov 26 11:05:13 2022


Pair  time (%) = 0.625208 (0.018743)
Neigh time (%) = 79.4839 (2.38283)
Comm  time (%) = 37.1196 (1.1128)
Outpt time (%) = 0.000608947 (1.82555e-05)
Other time (%) = 3218.46 (96.4856)

Nlocal:    12.775 ave 181 max 0 min
Histogram: 36 0 2 0 0 0 0 0 0 2
Nghost:    1.4 ave 24 max 0 min
Histogram: 36 1 1 0 0 0 0 1 0 1
Neighs:    0.25 ave 5 max 0 min
Histogram: 35 0 3 0 1 0 0 0 0 1

Total # of neighbors = 10
Ave neighs/atom = 0.0195695
Neighbor list builds = 30349
Dangerous builds = 1929
Setting up run at Sat Nov 26 11:05:14 2022

Memory usage per processor = 964.609 Mbytes
    Step    Atoms         KinEng            CPU 
20370308      511     0.16513064              0 
20678949      501     0.16930713      3412.2968 
Loop time of 3412.3 on 40 procs for 308641 steps with 501 atoms, finish time Sat Nov 26 12:02:06 2022


Pair  time (%) = 0.620528 (0.0181851)
Neigh time (%) = 95.2185 (2.79045)
Comm  time (%) = 57.3263 (1.67999)
Outpt time (%) = 0.000381588 (1.11827e-05)
Other time (%) = 3259.13 (95.5114)

Nlocal:    12.525 ave 171 max 0 min
Histogram: 36 1 1 0 0 0 0 0 0 2
Nghost:    1.625 ave 28 max 0 min
Histogram: 35 1 1 1 1 0 0 0 0 1
Neighs:    0.125 ave 3 max 0 min
Histogram: 38 0 0 0 0 0 1 0 0 1

Total # of neighbors = 5
Ave neighs/atom = 0.00998004
Neighbor list builds = 36361
Dangerous builds = 454
Setting up run at Sat Nov 26 12:02:06 2022

Memory usage per processor = 964.609 Mbytes
    Step    Atoms         KinEng            CPU 
20678949      501     0.16930713              0 
20987590      488       0.267592      3527.9974 
Loop time of 3528 on 40 procs for 308641 steps with 488 atoms, finish time Sat Nov 26 13:00:54 2022


Pair  time (%) = 0.630976 (0.0178848)
Neigh time (%) = 105.662 (2.99495)
Comm  time (%) = 47.9836 (1.36008)
Outpt time (%) = 0.000506931 (1.43688e-05)
Other time (%) = 3373.72 (95.6271)

Nlocal:    12.2 ave 175 max 0 min
Histogram: 36 0 2 0 0 0 0 0 1 1
Nghost:    1.5 ave 21 max 0 min
Histogram: 36 0 2 0 0 0 0 0 1 1
Neighs:    0.05 ave 2 max 0 min
Histogram: 39 0 0 0 0 0 0 0 0 1

Total # of neighbors = 2
Ave neighs/atom = 0.00409836
Neighbor list builds = 40363
Dangerous builds = 634
Setting up run at Sat Nov 26 13:00:54 2022

Memory usage per processor = 964.609 Mbytes
    Step    Atoms         KinEng            CPU 
20987590      488       0.267592              0 
21296231      478     0.26088619      3440.3552 
Loop time of 3440.36 on 40 procs for 308641 steps with 478 atoms, finish time Sat Nov 26 13:58:15 2022


Pair  time (%) = 0.621956 (0.0180782)
Neigh time (%) = 101.055 (2.93735)
Comm  time (%) = 59.1877 (1.72039)
Outpt time (%) = 0.000605901 (1.76116e-05)
Other time (%) = 3279.49 (95.3242)

Nlocal:    11.95 ave 167 max 0 min
Histogram: 36 0 2 0 0 0 0 0 0 2
Nghost:    1.4 ave 23 max 0 min
Histogram: 36 0 2 0 0 0 1 0 0 1
Neighs:    0.1 ave 2 max 0 min
Histogram: 37 0 0 0 0 2 0 0 0 1

Total # of neighbors = 4
Ave neighs/atom = 0.0083682
Neighbor list builds = 38591
Dangerous builds = 1150
Setting up run at Sat Nov 26 13:58:15 2022

Memory usage per processor = 964.609 Mbytes
    Step    Atoms         KinEng            CPU 
21296231      478     0.26088619              0 
21604872      471     0.36292842      3558.0571 
Loop time of 3558.06 on 40 procs for 308641 steps with 471 atoms, finish time Sat Nov 26 14:57:33 2022


Pair  time (%) = 0.62709 (0.0176245)
Neigh time (%) = 128.7 (3.61713)
Comm  time (%) = 75.0687 (2.10982)
Outpt time (%) = 0.00049133 (1.38089e-05)
Other time (%) = 3353.66 (94.2554)

Nlocal:    11.775 ave 170 max 0 min
Histogram: 36 0 2 0 0 0 0 0 0 2
Nghost:    1.375 ave 19 max 0 min
Histogram: 34 2 0 2 0 0 0 0 1 1
Neighs:    0.025 ave 1 max 0 min
Histogram: 39 0 0 0 0 0 0 0 0 1

Total # of neighbors = 1
Ave neighs/atom = 0.00212314
Neighbor list builds = 49051
Dangerous builds = 2010
Setting up run at Sat Nov 26 14:57:33 2022

Memory usage per processor = 964.609 Mbytes
    Step    Atoms         KinEng            CPU 
21604872      471     0.36292842              0 
21913513      461     0.25721625      3328.7947 
Loop time of 3328.8 on 40 procs for 308641 steps with 461 atoms, finish time Sat Nov 26 15:53:02 2022


Pair  time (%) = 0.615546 (0.0184915)
Neigh time (%) = 77.855 (2.33884)
Comm  time (%) = 45.3512 (1.36239)
Outpt time (%) = 0.00596835 (0.000179295)
Other time (%) = 3204.97 (96.2801)

Nlocal:    11.525 ave 166 max 0 min
Histogram: 36 1 1 0 0 0 0 0 0 2
Nghost:    1.175 ave 18 max 0 min
Histogram: 36 0 1 1 0 0 0 1 0 1
Neighs:    0.075 ave 2 max 0 min
Histogram: 38 0 0 0 0 1 0 0 0 1

Total # of neighbors = 3
Ave neighs/atom = 0.00650759
Neighbor list builds = 29737
Dangerous builds = 961
Setting up run at Sat Nov 26 15:53:02 2022

Memory usage per processor = 964.609 Mbytes
    Step    Atoms         KinEng            CPU 
21913513      461     0.25721625              0 
22222154      451     0.24165503       3309.524 
Loop time of 3309.52 on 40 procs for 308641 steps with 451 atoms, finish time Sat Nov 26 16:48:11 2022


Pair  time (%) = 0.617066 (0.0186452)
Neigh time (%) = 74.3801 (2.24746)
Comm  time (%) = 36.5122 (1.10325)
Outpt time (%) = 0.000498148 (1.5052e-05)
Other time (%) = 3198.01 (96.6306)

Nlocal:    11.275 ave 170 max 0 min
Histogram: 36 0 2 0 0 0 0 0 1 1
Nghost:    1.35 ave 20 max 0 min
Histogram: 35 1 1 1 0 0 0 0 0 2
Neighs:    0.05 ave 2 max 0 min
Histogram: 39 0 0 0 0 0 0 0 0 1

Total # of neighbors = 2
Ave neighs/atom = 0.00443459
Neighbor list builds = 28449
Dangerous builds = 647
Setting up run at Sat Nov 26 16:48:11 2022

Memory usage per processor = 964.609 Mbytes
    Step    Atoms         KinEng            CPU 
22222154      451     0.24165503              0 
22530795      443     0.24032362      3264.5995 
Loop time of 3264.6 on 40 procs for 308641 steps with 443 atoms, finish time Sat Nov 26 17:42:36 2022


Pair  time (%) = 0.615964 (0.018868)
Neigh time (%) = 63.8661 (1.95632)
Comm  time (%) = 28.9668 (0.887302)
Outpt time (%) = 0.000577916 (1.77025e-05)
Other time (%) = 3171.15 (97.1375)

Nlocal:    11.075 ave 168 max 0 min
Histogram: 36 1 1 0 0 0 0 0 1 1
Nghost:    1.05 ave 16 max 0 min
Histogram: 35 1 1 0 1 0 0 1 0 1
Neighs:    0.025 ave 1 max 0 min
Histogram: 39 0 0 0 0 0 0 0 0 1

Total # of neighbors = 1
Ave neighs/atom = 0.00225734
Neighbor list builds = 24433
Dangerous builds = 7
Setting up run at Sat Nov 26 17:42:36 2022

Memory usage per processor = 964.609 Mbytes
    Step    Atoms         KinEng            CPU 
22530795      443     0.24032362              0 
22839436      435     0.20963602      3306.9672 
Loop time of 3306.97 on 40 procs for 308641 steps with 435 atoms, finish time Sat Nov 26 18:37:43 2022


Pair  time (%) = 0.615012 (0.0185974)
Neigh time (%) = 72.8031 (2.20151)
Comm  time (%) = 30.6085 (0.925575)
Outpt time (%) = 0.000561091 (1.69669e-05)
Other time (%) = 3202.94 (96.8543)

Nlocal:    10.875 ave 163 max 0 min
Histogram: 36 1 1 0 0 0 0 0 1 1
Nghost:    1.25 ave 17 max 0 min
Histogram: 36 0 1 0 1 0 0 0 0 2
Neighs:    0.05 ave 1 max 0 min
Histogram: 38 0 0 0 0 0 0 0 0 2

Total # of neighbors = 2
Ave neighs/atom = 0.0045977
Neighbor list builds = 27839
Dangerous builds = 87
Setting up run at Sat Nov 26 18:37:43 2022

Memory usage per processor = 964.609 Mbytes
    Step    Atoms         KinEng            CPU 
22839436      435     0.20963602              0 
23148077      430     0.20324503      3347.6816 
Loop time of 3347.68 on 40 procs for 308641 steps with 430 atoms, finish time Sat Nov 26 19:33:31 2022


Pair  time (%) = 0.618573 (0.0184777)
Neigh time (%) = 83.6624 (2.49911)
Comm  time (%) = 37.3694 (1.11628)
Outpt time (%) = 0.000281385 (8.40537e-06)
Other time (%) = 3226.03 (96.3661)

Nlocal:    10.75 ave 160 max 0 min
Histogram: 36 0 2 0 0 0 0 0 1 1
Nghost:    1.225 ave 18 max 0 min
Histogram: 34 3 0 0 1 0 0 1 0 1
Neighs:    0.075 ave 2 max 0 min
Histogram: 38 0 0 0 0 1 0 0 0 1

Total # of neighbors = 3
Ave neighs/atom = 0.00697674
Neighbor list builds = 31980
Dangerous builds = 1
Setting up run at Sat Nov 26 19:33:31 2022

Memory usage per processor = 964.609 Mbytes
    Step    Atoms         KinEng            CPU 
23148077      430     0.20324503              0 
23456718      423     0.20572299      3309.8651 
Loop time of 3309.87 on 40 procs for 308641 steps with 423 atoms, finish time Sat Nov 26 20:28:41 2022


Pair  time (%) = 0.615946 (0.0186094)
Neigh time (%) = 72.9978 (2.20546)
Comm  time (%) = 33.1481 (1.00149)
Outpt time (%) = 0.000557042 (1.68298e-05)
Other time (%) = 3203.1 (96.7744)

Nlocal:    10.575 ave 158 max 0 min
Histogram: 36 1 1 0 0 0 0 0 1 1
Nghost:    1.2 ave 20 max 0 min
Histogram: 36 0 1 1 0 0 1 0 0 1
Neighs:    0.1 ave 4 max 0 min
Histogram: 39 0 0 0 0 0 0 0 0 1

Total # of neighbors = 4
Ave neighs/atom = 0.00945626
Neighbor list builds = 27924
Dangerous builds = 434
Setting up run at Sat Nov 26 20:28:41 2022

Memory usage per processor = 964.609 Mbytes
    Step    Atoms         KinEng            CPU 
23456718      423     0.20572299              0 
23765359      419     0.18575948      3307.0318 
Loop time of 3307.03 on 40 procs for 308641 steps with 419 atoms, finish time Sat Nov 26 21:23:48 2022


Pair  time (%) = 0.608981 (0.0184147)
Neigh time (%) = 55.0056 (1.66329)
Comm  time (%) = 25.4817 (0.770532)
Outpt time (%) = 0.000531168 (1.60618e-05)
Other time (%) = 3225.94 (97.5477)

Nlocal:    10.475 ave 159 max 0 min
Histogram: 36 2 0 0 0 0 0 0 1 1
Nghost:    1.15 ave 22 max 0 min
Histogram: 36 0 2 0 1 0 0 0 0 1
Neighs:    0.025 ave 1 max 0 min
Histogram: 39 0 0 0 0 0 0 0 0 1

Total # of neighbors = 1
Ave neighs/atom = 0.00238663
Neighbor list builds = 21042
Dangerous builds = 0
Setting up run at Sat Nov 26 21:23:48 2022

Memory usage per processor = 964.609 Mbytes
    Step    Atoms         KinEng            CPU 
23765359      419     0.18575948              0 
24074000      411     0.16243219      3232.6161 
Loop time of 3232.62 on 40 procs for 308641 steps with 411 atoms, finish time Sat Nov 26 22:17:41 2022


Pair  time (%) = 0.611214 (0.0189077)
Neigh time (%) = 55.6125 (1.72036)
Comm  time (%) = 25.057 (0.775129)
Outpt time (%) = 0.000727235 (2.24968e-05)
Other time (%) = 3151.34 (97.4856)

Nlocal:    10.275 ave 155 max 0 min
Histogram: 36 1 1 0 0 0 0 0 1 1
Nghost:    1.125 ave 17 max 0 min
Histogram: 36 0 0 0 3 0 0 0 0 1
Neighs:    0.05 ave 1 max 0 min
Histogram: 38 0 0 0 0 0 0 0 0 2

Total # of neighbors = 2
Ave neighs/atom = 0.00486618
Neighbor list builds = 21278
Dangerous builds = 295
Setting up run at Sat Nov 26 22:17:41 2022

Memory usage per processor = 964.609 Mbytes
    Step    Atoms         KinEng            CPU 
24074000      411     0.16243219              0 
24382641      406     0.16047377      3234.2164 
Loop time of 3234.22 on 40 procs for 308641 steps with 406 atoms, finish time Sat Nov 26 23:11:35 2022


Pair  time (%) = 0.613468 (0.018968)
Neigh time (%) = 56.4204 (1.74448)
Comm  time (%) = 21.7917 (0.673785)
Outpt time (%) = 0.000615805 (1.90403e-05)
Other time (%) = 3155.39 (97.5627)

Nlocal:    10.15 ave 152 max 0 min
Histogram: 36 1 1 0 0 0 0 0 1 1
Nghost:    1.125 ave 20 max 0 min
Histogram: 34 2 1 1 1 0 0 0 0 1
Neighs:    0 ave 0 max 0 min
Histogram: 40 0 0 0 0 0 0 0 0 0

Total # of neighbors = 0
Ave neighs/atom = 0
Neighbor list builds = 21580
Dangerous builds = 2
Setting up run at Sat Nov 26 23:11:35 2022

Memory usage per processor = 964.609 Mbytes
    Step    Atoms         KinEng            CPU 
24382641      406     0.16047377              0 
24691282      398     0.19350062      3195.9796 
Loop time of 3195.98 on 40 procs for 308641 steps with 398 atoms, finish time Sun Nov 27 00:04:51 2022


Pair  time (%) = 0.614346 (0.0192225)
Neigh time (%) = 52.6706 (1.64803)
Comm  time (%) = 21.6721 (0.678104)
Outpt time (%) = 0.000497803 (1.55759e-05)
Other time (%) = 3121.02 (97.6546)

Nlocal:    9.95 ave 152 max 0 min
Histogram: 36 1 1 0 0 0 0 0 1 1
Nghost:    1.2 ave 17 max 0 min
Histogram: 35 1 0 0 2 1 0 0 0 1
Neighs:    0.05 ave 1 max 0 min
Histogram: 38 0 0 0 0 0 0 0 0 2

Total # of neighbors = 2
Ave neighs/atom = 0.00502513
Neighbor list builds = 20161
Dangerous builds = 499
Setting up run at Sun Nov 27 00:04:51 2022

Memory usage per processor = 964.609 Mbytes
    Step    Atoms         KinEng            CPU 
24691282      398     0.19350062              0 
24999923      390     0.14044154      3312.5337 
Loop time of 3312.53 on 40 procs for 308641 steps with 390 atoms, finish time Sun Nov 27 01:00:04 2022


Pair  time (%) = 0.613526 (0.0185213)
Neigh time (%) = 70.3296 (2.12313)
Comm  time (%) = 35.5299 (1.07259)
Outpt time (%) = 0.00568361 (0.000171579)
Other time (%) = 3206.06 (96.7856)

Nlocal:    9.75 ave 146 max 0 min
Histogram: 36 1 1 0 0 0 0 0 1 1
Nghost:    0.925 ave 12 max 0 min
Histogram: 36 0 0 0 0 2 0 1 0 1
Neighs:    0.025 ave 1 max 0 min
Histogram: 39 0 0 0 0 0 0 0 0 1

Total # of neighbors = 1
Ave neighs/atom = 0.0025641
Neighbor list builds = 26863
Dangerous builds = 1092
Setting up run at Sun Nov 27 01:00:04 2022

Memory usage per processor = 964.609 Mbytes
    Step    Atoms         KinEng            CPU 
24999923      390     0.14044154              0 
25308564      386     0.09296748       3307.137 
Loop time of 3307.14 on 40 procs for 308641 steps with 386 atoms, finish time Sun Nov 27 01:55:11 2022


Pair  time (%) = 0.614668 (0.0185861)
Neigh time (%) = 74.2352 (2.2447)
Comm  time (%) = 29.9312 (0.905047)
Outpt time (%) = 0.000540714 (1.63499e-05)
Other time (%) = 3202.36 (96.8317)

Nlocal:    9.65 ave 146 max 0 min
Histogram: 36 1 1 0 0 0 0 0 1 1
Nghost:    1.025 ave 12 max 0 min
Histogram: 36 0 0 0 0 1 0 0 1 2
Neighs:    0 ave 0 max 0 min
Histogram: 40 0 0 0 0 0 0 0 0 0

Total # of neighbors = 0
Ave neighs/atom = 0
Neighbor list builds = 28440
Dangerous builds = 249
Setting up run at Sun Nov 27 01:55:11 2022

Memory usage per processor = 964.609 Mbytes
    Step    Atoms         KinEng            CPU 
25308564      386     0.09296748              0 
25617205      377    0.095948297      3356.9125 
Loop time of 3356.91 on 40 procs for 308641 steps with 377 atoms, finish time Sun Nov 27 02:51:08 2022


Pair  time (%) = 0.623119 (0.0185623)
Neigh time (%) = 84.2176 (2.50878)
Comm  time (%) = 30.8324 (0.918475)
Outpt time (%) = 0.00599047 (0.000178452)
Other time (%) = 3241.23 (96.554)

Nlocal:    9.425 ave 142 max 0 min
Histogram: 36 1 1 0 0 0 0 0 0 2
Nghost:    1.125 ave 11 max 0 min
Histogram: 35 0 1 0 0 0 1 0 0 3
Neighs:    0.05 ave 1 max 0 min
Histogram: 38 0 0 0 0 0 0 0 0 2

Total # of neighbors = 2
Ave neighs/atom = 0.00530504
Neighbor list builds = 32219
Dangerous builds = 2016
Setting up run at Sun Nov 27 02:51:08 2022

Memory usage per processor = 964.609 Mbytes
    Step    Atoms         KinEng            CPU 
25617205      377    0.095948297              0 
25925846      372    0.078377756      3243.9138 
Loop time of 3243.91 on 40 procs for 308641 steps with 372 atoms, finish time Sun Nov 27 03:45:12 2022


Pair  time (%) = 0.608484 (0.0187577)
Neigh time (%) = 55.9555 (1.72494)
Comm  time (%) = 25.3477 (0.781393)
Outpt time (%) = 0.000635131 (1.95792e-05)
Other time (%) = 3162 (97.4749)

Nlocal:    9.3 ave 142 max 0 min
Histogram: 36 2 0 0 0 0 0 0 0 2
Nghost:    1.275 ave 13 max 0 min
Histogram: 35 0 1 0 0 0 1 0 0 3
Neighs:    0.15 ave 4 max 0 min
Histogram: 37 0 2 0 0 0 0 0 0 1

Total # of neighbors = 6
Ave neighs/atom = 0.016129
Neighbor list builds = 21392
Dangerous builds = 635
Setting up run at Sun Nov 27 03:45:12 2022

Memory usage per processor = 964.609 Mbytes
    Step    Atoms         KinEng            CPU 
25925846      372    0.078377756              0 
26234487      368    0.084047543      3391.1457 
Loop time of 3391.15 on 40 procs for 308641 steps with 368 atoms, finish time Sun Nov 27 04:41:43 2022


Pair  time (%) = 0.621305 (0.0183214)
Neigh time (%) = 88.8314 (2.61951)
Comm  time (%) = 31.9954 (0.943499)
Outpt time (%) = 0.000559649 (1.65032e-05)
Other time (%) = 3269.7 (96.4187)

Nlocal:    9.2 ave 144 max 0 min
Histogram: 36 1 1 0 0 0 0 0 1 1
Nghost:    1.4 ave 14 max 0 min
Histogram: 34 2 0 0 0 1 0 0 1 2
Neighs:    0.1 ave 2 max 0 min
Histogram: 38 0 0 0 0 0 0 0 0 2

Total # of neighbors = 4
Ave neighs/atom = 0.0108696
Neighbor list builds = 33948
Dangerous builds = 23
Setting up run at Sun Nov 27 04:41:43 2022

Memory usage per processor = 964.609 Mbytes
    Step    Atoms         KinEng            CPU 
26234487      368    0.084047543              0 
26543128      363     0.10348256       3517.508 
Loop time of 3517.51 on 40 procs for 308641 steps with 363 atoms, finish time Sun Nov 27 05:40:21 2022


Pair  time (%) = 0.621655 (0.0176732)
Neigh time (%) = 118.673 (3.37378)
Comm  time (%) = 57.5902 (1.63724)
Outpt time (%) = 0.000591075 (1.68038e-05)
Other time (%) = 3340.62 (94.9713)

Nlocal:    9.075 ave 146 max 0 min
Histogram: 36 2 0 0 0 0 0 0 1 1
Nghost:    1.25 ave 12 max 0 min
Histogram: 32 3 1 0 0 0 1 1 0 2
Neighs:    0.15 ave 3 max 0 min
Histogram: 38 0 0 0 0 0 0 0 0 2

Total # of neighbors = 6
Ave neighs/atom = 0.0165289
Neighbor list builds = 45270
Dangerous builds = 6
Setting up run at Sun Nov 27 05:40:21 2022

Memory usage per processor = 964.609 Mbytes
    Step    Atoms         KinEng            CPU 
26543128      363     0.10348256              0 
26851769      358     0.10865659      3449.4989 
Loop time of 3449.5 on 40 procs for 308641 steps with 358 atoms, finish time Sun Nov 27 06:37:50 2022


Pair  time (%) = 0.607878 (0.0176222)
Neigh time (%) = 99.4702 (2.88361)
Comm  time (%) = 55.3851 (1.6056)
Outpt time (%) = 0.000579152 (1.67895e-05)
Other time (%) = 3294.04 (95.4932)

Nlocal:    8.95 ave 144 max 0 min
Histogram: 36 2 0 0 0 0 0 0 1 1
Nghost:    1 ave 12 max 0 min
Histogram: 36 0 0 0 0 1 1 0 1 1
Neighs:    0.025 ave 1 max 0 min
Histogram: 39 0 0 0 0 0 0 0 0 1

Total # of neighbors = 1
Ave neighs/atom = 0.0027933
Neighbor list builds = 37965
Dangerous builds = 3
Setting up run at Sun Nov 27 06:37:50 2022

Memory usage per processor = 964.609 Mbytes
    Step    Atoms         KinEng            CPU 
26851769      358     0.10865659              0 
27160410      356     0.10362186      3356.0847 
Loop time of 3356.09 on 40 procs for 308641 steps with 356 atoms, finish time Sun Nov 27 07:33:47 2022


Pair  time (%) = 0.610076 (0.0181782)
Neigh time (%) = 79.5402 (2.37003)
Comm  time (%) = 30.8937 (0.920527)
Outpt time (%) = 0.000326254 (9.72128e-06)
Other time (%) = 3245.04 (96.6913)

Nlocal:    8.9 ave 141 max 0 min
Histogram: 36 2 0 0 0 0 0 0 1 1
Nghost:    0.95 ave 13 max 0 min
Histogram: 36 0 0 0 1 0 1 1 0 1
Neighs:    0 ave 0 max 0 min
Histogram: 40 0 0 0 0 0 0 0 0 0

Total # of neighbors = 0
Ave neighs/atom = 0
Neighbor list builds = 30353
Dangerous builds = 0
Setting up run at Sun Nov 27 07:33:47 2022

Memory usage per processor = 964.609 Mbytes
    Step    Atoms         KinEng            CPU 
27160410      356     0.10362186              0 
27469051      346     0.13942162      3253.9255 
Loop time of 3253.93 on 40 procs for 308641 steps with 346 atoms, finish time Sun Nov 27 08:28:01 2022


Pair  time (%) = 0.601896 (0.0184975)
Neigh time (%) = 48.0841 (1.47772)
Comm  time (%) = 20.385 (0.626475)
Outpt time (%) = 0.000517088 (1.58912e-05)
Other time (%) = 3184.85 (97.8773)

Nlocal:    8.65 ave 136 max 0 min
Histogram: 36 2 0 0 0 0 0 0 0 2
Nghost:    1.125 ave 13 max 0 min
Histogram: 34 2 0 0 0 2 0 1 0 1
Neighs:    0.075 ave 2 max 0 min
Histogram: 38 0 0 0 0 1 0 0 0 1

Total # of neighbors = 3
Ave neighs/atom = 0.00867052
Neighbor list builds = 18390
Dangerous builds = 303
Setting up run at Sun Nov 27 08:28:01 2022

Memory usage per processor = 964.609 Mbytes
    Step    Atoms         KinEng            CPU 
27469051      346     0.13942162              0 
27777692      340     0.13782443      3239.8545 
Loop time of 3239.85 on 40 procs for 308641 steps with 340 atoms, finish time Sun Nov 27 09:22:01 2022


Pair  time (%) = 0.596601 (0.0184144)
Neigh time (%) = 43.4154 (1.34004)
Comm  time (%) = 22.6366 (0.698691)
Outpt time (%) = 0.000572252 (1.76629e-05)
Other time (%) = 3173.21 (97.9428)

Nlocal:    8.5 ave 136 max 0 min
Histogram: 36 2 0 0 0 0 0 0 1 1
Nghost:    1.35 ave 18 max 0 min
Histogram: 35 1 0 2 0 0 0 0 1 1
Neighs:    0.15 ave 3 max 0 min
Histogram: 37 0 0 1 0 0 1 0 0 1

Total # of neighbors = 6
Ave neighs/atom = 0.0176471
Neighbor list builds = 16632
Dangerous builds = 17
Setting up run at Sun Nov 27 09:22:01 2022

Memory usage per processor = 964.609 Mbytes
    Step    Atoms         KinEng            CPU 
27777692      340     0.13782443              0 
28086333      338     0.14428568      3202.7954 
Loop time of 3202.8 on 40 procs for 308641 steps with 338 atoms, finish time Sun Nov 27 10:15:23 2022


Pair  time (%) = 0.603933 (0.0188564)
Neigh time (%) = 44.7546 (1.39736)
Comm  time (%) = 16.6469 (0.51976)
Outpt time (%) = 0.000519002 (1.62047e-05)
Other time (%) = 3140.79 (98.064)

Nlocal:    8.45 ave 137 max 0 min
Histogram: 36 1 1 0 0 0 0 0 1 1
Nghost:    1.275 ave 16 max 0 min
Histogram: 34 2 0 1 1 0 0 0 0 2
[...]
Histogram: 33 4 0 1 0 1 0 0 0 1
Neighs:    0.05 ave 2 max 0 min
Histogram: 39 0 0 0 0 0 0 0 0 1

Total # of neighbors = 2
Ave neighs/atom = 0.010582
Neighbor list builds = 20128
Dangerous builds = 0
Setting up run at Wed Nov 30 16:06:09 2022

Memory usage per processor = 964.609 Mbytes
    Step    Atoms         KinEng            CPU 
54629555      189     0.02635666              0 
54938196      189    0.026902478      3216.7487 
Loop time of 3216.75 on 40 procs for 308641 steps with 189 atoms, finish time Wed Nov 30 16:59:45 2022


Pair  time (%) = 0.574556 (0.0178614)
Neigh time (%) = 52.8657 (1.64345)
Comm  time (%) = 17.9613 (0.558369)
Outpt time (%) = 0.000271354 (8.43567e-06)
Other time (%) = 3145.35 (97.7803)

Nlocal:    4.725 ave 82 max 0 min
Histogram: 37 1 0 0 0 0 0 0 1 1
Nghost:    0.675 ave 12 max 0 min
Histogram: 37 0 0 1 0 0 1 0 0 1
Neighs:    0.1 ave 2 max 0 min
Histogram: 38 0 0 0 0 0 0 0 0 2

Total # of neighbors = 4
Ave neighs/atom = 0.021164
Neighbor list builds = 20317
Dangerous builds = 0
Setting up run at Wed Nov 30 16:59:45 2022

Memory usage per processor = 964.609 Mbytes
    Step    Atoms         KinEng            CPU 
54938196      189    0.026902478              0 
55246837      189    0.027485841      3206.1338 
Loop time of 3206.13 on 40 procs for 308641 steps with 189 atoms, finish time Wed Nov 30 17:53:12 2022


Pair  time (%) = 0.573047 (0.0178735)
Neigh time (%) = 52.5665 (1.63956)
Comm  time (%) = 19.3787 (0.604426)
Outpt time (%) = 0.000531311 (1.65717e-05)
Other time (%) = 3133.62 (97.7381)

Nlocal:    4.725 ave 84 max 0 min
Histogram: 36 2 0 0 0 0 0 0 1 1
Nghost:    0.525 ave 12 max 0 min
Histogram: 37 0 1 1 0 0 0 0 0 1
Neighs:    0.125 ave 3 max 0 min
Histogram: 38 0 0 0 0 0 1 0 0 1

Total # of neighbors = 5
Ave neighs/atom = 0.026455
Neighbor list builds = 20200
Dangerous builds = 0
Setting up run at Wed Nov 30 17:53:12 2022

Memory usage per processor = 964.609 Mbytes
    Step    Atoms         KinEng            CPU 
55246837      189    0.027485841              0 
55555478      189    0.026919971      3203.5443 
Loop time of 3203.54 on 40 procs for 308641 steps with 189 atoms, finish time Wed Nov 30 18:46:35 2022


Pair  time (%) = 0.578022 (0.0180432)
Neigh time (%) = 51.8953 (1.61993)
Comm  time (%) = 17.0438 (0.53203)
Outpt time (%) = 0.000571092 (1.78269e-05)
Other time (%) = 3134.03 (97.83)

Nlocal:    4.725 ave 81 max 0 min
Histogram: 36 2 0 0 0 0 0 0 0 2
Nghost:    0.525 ave 9 max 0 min
Histogram: 34 3 0 1 0 0 1 0 0 1
Neighs:    0.05 ave 1 max 0 min
Histogram: 38 0 0 0 0 0 0 0 0 2

Total # of neighbors = 2
Ave neighs/atom = 0.010582
Neighbor list builds = 19934
Dangerous builds = 0
Setting up run at Wed Nov 30 18:46:35 2022

Memory usage per processor = 964.609 Mbytes
    Step    Atoms         KinEng            CPU 
55555478      189    0.026919971              0 
55864119      189    0.026634515      3209.8484 
Loop time of 3209.85 on 40 procs for 308641 steps with 189 atoms, finish time Wed Nov 30 19:40:05 2022


Pair  time (%) = 0.575118 (0.0179173)
Neigh time (%) = 51.4726 (1.60358)
Comm  time (%) = 18.1452 (0.565299)
Outpt time (%) = 0.000522761 (1.62861e-05)
Other time (%) = 3139.66 (97.8132)

Nlocal:    4.725 ave 81 max 0 min
Histogram: 37 1 0 0 0 0 0 0 0 2
Nghost:    0.425 ave 10 max 0 min
Histogram: 37 0 0 1 1 0 0 0 0 1
Neighs:    0.1 ave 3 max 0 min
Histogram: 38 0 0 1 0 0 0 0 0 1

Total # of neighbors = 4
Ave neighs/atom = 0.021164
Neighbor list builds = 19774
Dangerous builds = 0
Setting up run at Wed Nov 30 19:40:05 2022

Memory usage per processor = 964.609 Mbytes
    Step    Atoms         KinEng            CPU 
55864119      189    0.026634515              0 
56172760      188    0.026509389      3201.4607 
Loop time of 3201.46 on 40 procs for 308641 steps with 188 atoms, finish time Wed Nov 30 20:33:27 2022


Pair  time (%) = 0.575477 (0.0179754)
Neigh time (%) = 50.6456 (1.58195)
Comm  time (%) = 17.293 (0.54016)
Outpt time (%) = 0.000502531 (1.56969e-05)
Other time (%) = 3132.95 (97.8599)

Nlocal:    4.7 ave 79 max 0 min
Histogram: 36 2 0 0 0 0 0 0 0 2
Nghost:    0.45 ave 9 max 0 min
Histogram: 34 3 0 2 0 0 0 0 0 1
Neighs:    0.075 ave 2 max 0 min
Histogram: 38 0 0 0 0 1 0 0 0 1

Total # of neighbors = 3
Ave neighs/atom = 0.0159574
Neighbor list builds = 19460
Dangerous builds = 0
Setting up run at Wed Nov 30 20:33:27 2022

Memory usage per processor = 964.609 Mbytes
    Step    Atoms         KinEng            CPU 
56172760      188    0.026509389              0 
56481401      186    0.026629235      3206.9664 
Loop time of 3206.97 on 40 procs for 308641 steps with 186 atoms, finish time Wed Nov 30 21:26:54 2022


Pair  time (%) = 0.575211 (0.0179363)
Neigh time (%) = 50.314 (1.5689)
Comm  time (%) = 16.6362 (0.518752)
Outpt time (%) = 0.000450859 (1.40587e-05)
Other time (%) = 3139.44 (97.8944)

Nlocal:    4.65 ave 80 max 0 min
Histogram: 36 2 0 0 0 0 0 0 0 2
Nghost:    0.35 ave 7 max 0 min
Histogram: 36 1 0 0 2 0 0 0 0 1
Neighs:    0.05 ave 1 max 0 min
Histogram: 38 0 0 0 0 0 0 0 0 2

Total # of neighbors = 2
Ave neighs/atom = 0.0107527
Neighbor list builds = 19333
Dangerous builds = 0
Setting up run at Wed Nov 30 21:26:54 2022

Memory usage per processor = 964.609 Mbytes
    Step    Atoms         KinEng            CPU 
56481401      186    0.026629235              0 
56790042      186    0.026965393      3201.0483 
Loop time of 3201.05 on 40 procs for 308641 steps with 186 atoms, finish time Wed Nov 30 22:20:15 2022


Pair  time (%) = 0.568296 (0.0177534)
Neigh time (%) = 50.2492 (1.56977)
Comm  time (%) = 19.511 (0.60952)
Outpt time (%) = 0.000345803 (1.08028e-05)
Other time (%) = 3130.72 (97.8029)

Nlocal:    4.65 ave 79 max 0 min
Histogram: 36 2 0 0 0 0 0 0 0 2
Nghost:    0.5 ave 8 max 0 min
Histogram: 33 3 2 0 0 0 1 0 0 1
Neighs:    0.075 ave 2 max 0 min
Histogram: 38 0 0 0 0 1 0 0 0 1

Total # of neighbors = 3
Ave neighs/atom = 0.016129
Neighbor list builds = 19304
Dangerous builds = 0
Setting up run at Wed Nov 30 22:20:15 2022

Memory usage per processor = 964.609 Mbytes
    Step    Atoms         KinEng            CPU 
56790042      186    0.026965393              0 
57098683      186    0.032538282      3199.2621 
Loop time of 3199.26 on 40 procs for 308641 steps with 186 atoms, finish time Wed Nov 30 23:13:34 2022


Pair  time (%) = 0.569991 (0.0178163)
Neigh time (%) = 50.1509 (1.56758)
Comm  time (%) = 18.4651 (0.577168)
Outpt time (%) = 0.000503162 (1.57274e-05)
Other time (%) = 3130.08 (97.8374)

Nlocal:    4.65 ave 78 max 0 min
Histogram: 36 2 0 0 0 0 0 0 0 2
Nghost:    0.55 ave 9 max 0 min
Histogram: 34 3 1 0 0 0 0 0 1 1
Neighs:    0.05 ave 1 max 0 min
Histogram: 38 0 0 0 0 0 0 0 0 2

Total # of neighbors = 2
Ave neighs/atom = 0.0107527
Neighbor list builds = 19270
Dangerous builds = 0
Setting up run at Wed Nov 30 23:13:34 2022

Memory usage per processor = 964.609 Mbytes
    Step    Atoms         KinEng            CPU 
57098683      186    0.032538282              0 
57407324      184    0.025563349      3163.7269 
Loop time of 3163.73 on 40 procs for 308641 steps with 184 atoms, finish time Thu Dec  1 00:06:18 2022


Pair  time (%) = 0.562813 (0.0177896)
Neigh time (%) = 41.1298 (1.30004)
Comm  time (%) = 19.7809 (0.62524)
Outpt time (%) = 0.000567236 (1.79293e-05)
Other time (%) = 3102.25 (98.0569)

Nlocal:    4.6 ave 78 max 0 min
Histogram: 36 2 0 0 0 0 0 0 0 2
Nghost:    0.525 ave 9 max 0 min
Histogram: 35 2 1 0 0 0 0 0 1 1
Neighs:    0.05 ave 1 max 0 min
Histogram: 38 0 0 0 0 0 0 0 0 2

Total # of neighbors = 2
Ave neighs/atom = 0.0108696
Neighbor list builds = 15803
Dangerous builds = 393
Setting up run at Thu Dec  1 00:06:18 2022

Memory usage per processor = 964.609 Mbytes
    Step    Atoms         KinEng            CPU 
57407324      184    0.025563349              0 
57715965      183    0.025422129      3126.3893 
Loop time of 3126.39 on 40 procs for 308641 steps with 183 atoms, finish time Thu Dec  1 00:58:25 2022


Pair  time (%) = 0.564638 (0.0180604)
Neigh time (%) = 35.3028 (1.12919)
Comm  time (%) = 14.1425 (0.452359)
Outpt time (%) = 0.000557056 (1.78179e-05)
Other time (%) = 3076.38 (98.4004)

Nlocal:    4.575 ave 80 max 0 min
Histogram: 36 2 0 0 0 0 0 0 0 2
Nghost:    0.55 ave 11 max 0 min
Histogram: 37 1 0 0 0 0 0 1 0 1
Neighs:    0.05 ave 2 max 0 min
Histogram: 39 0 0 0 0 0 0 0 0 1

Total # of neighbors = 2
Ave neighs/atom = 0.010929
Neighbor list builds = 13568
Dangerous builds = 1
Setting up run at Thu Dec  1 00:58:25 2022

Memory usage per processor = 964.609 Mbytes
    Step    Atoms         KinEng            CPU 
57715965      183    0.025422129              0 
58024606      182    0.025923848      3133.1761 
Loop time of 3133.18 on 40 procs for 308641 steps with 182 atoms, finish time Thu Dec  1 01:50:38 2022


Pair  time (%) = 0.560946 (0.0179034)
Neigh time (%) = 34.9077 (1.11413)
Comm  time (%) = 15.4901 (0.494391)
Outpt time (%) = 0.000520213 (1.66034e-05)
Other time (%) = 3082.22 (98.3736)

Nlocal:    4.55 ave 82 max 0 min
Histogram: 36 2 0 0 0 0 0 0 1 1
Nghost:    0.5 ave 11 max 0 min
Histogram: 37 1 0 0 0 1 0 0 0 1
Neighs:    0.075 ave 3 max 0 min
Histogram: 39 0 0 0 0 0 0 0 0 1

Total # of neighbors = 3
Ave neighs/atom = 0.0164835
Neighbor list builds = 13421
Dangerous builds = 2
Setting up run at Thu Dec  1 01:50:38 2022

Memory usage per processor = 964.609 Mbytes
    Step    Atoms         KinEng            CPU 
58024606      182    0.025923848              0 
58333247      180    0.026011361      3131.3271 
Loop time of 3131.33 on 40 procs for 308641 steps with 180 atoms, finish time Thu Dec  1 02:42:49 2022


Pair  time (%) = 0.5644 (0.0180243)
Neigh time (%) = 34.9696 (1.11677)
Comm  time (%) = 14.3843 (0.459367)
Outpt time (%) = 0.000258448 (8.25362e-06)
Other time (%) = 3081.41 (98.4058)

Nlocal:    4.5 ave 80 max 0 min
Histogram: 36 2 0 0 0 0 0 0 1 1
Nghost:    0.625 ave 9 max 0 min
Histogram: 32 5 0 1 0 0 0 0 1 1
Neighs:    0.1 ave 3 max 0 min
Histogram: 38 0 0 1 0 0 0 0 0 1

Total # of neighbors = 4
Ave neighs/atom = 0.0222222
Neighbor list builds = 13447
Dangerous builds = 13
Setting up run at Thu Dec  1 02:42:49 2022

Memory usage per processor = 964.609 Mbytes
    Step    Atoms         KinEng            CPU 
58333247      180    0.026011361              0 
58641888      180    0.025987947      3133.2089 
Loop time of 3133.21 on 40 procs for 308641 steps with 180 atoms, finish time Thu Dec  1 03:35:02 2022


Pair  time (%) = 0.564559 (0.0180185)
Neigh time (%) = 35.5203 (1.13367)
Comm  time (%) = 16.9628 (0.541386)
Outpt time (%) = 0.000556545 (1.77628e-05)
Other time (%) = 3080.16 (98.3069)

Nlocal:    4.5 ave 77 max 0 min
Histogram: 36 2 0 0 0 0 0 0 0 2
Nghost:    0.575 ave 9 max 0 min
Histogram: 35 1 1 1 0 0 0 0 1 1
Neighs:    0.05 ave 2 max 0 min
Histogram: 39 0 0 0 0 0 0 0 0 1

Total # of neighbors = 2
Ave neighs/atom = 0.0111111
Neighbor list builds = 13657
Dangerous builds = 0
Setting up run at Thu Dec  1 03:35:03 2022

Memory usage per processor = 964.609 Mbytes
    Step    Atoms         KinEng            CPU 
58641888      180    0.025987947              0 
58950529      180     0.02543604      3145.8218 
Loop time of 3145.84 on 40 procs for 308641 steps with 180 atoms, finish time Thu Dec  1 04:27:28 2022


Pair  time (%) = 0.56502 (0.0179609)
Neigh time (%) = 38.0366 (1.20911)
Comm  time (%) = 16.3105 (0.518478)
Outpt time (%) = 0.000506551 (1.61023e-05)
Other time (%) = 3090.92 (98.2544)

Nlocal:    4.5 ave 79 max 0 min
Histogram: 37 1 0 0 0 0 0 0 1 1
Nghost:    0.675 ave 10 max 0 min
Histogram: 31 5 1 1 0 0 0 1 0 1
Neighs:    0.125 ave 4 max 0 min
Histogram: 38 0 1 0 0 0 0 0 0 1

Total # of neighbors = 5
Ave neighs/atom = 0.0277778
Neighbor list builds = 14624
Dangerous builds = 0
Setting up run at Thu Dec  1 04:27:29 2022

Memory usage per processor = 964.609 Mbytes
    Step    Atoms         KinEng            CPU 
58950529      180     0.02543604              0 
59259170      179     0.03338811      3146.0068 
Loop time of 3146.01 on 40 procs for 308641 steps with 179 atoms, finish time Thu Dec  1 05:19:55 2022


Pair  time (%) = 0.564515 (0.0179439)
Neigh time (%) = 38.2282 (1.21514)
Comm  time (%) = 14.58 (0.463446)
Outpt time (%) = 0.000428261 (1.36128e-05)
Other time (%) = 3092.63 (98.3035)

Nlocal:    4.475 ave 79 max 0 min
Histogram: 36 2 0 0 0 0 0 0 1 1
Nghost:    0.45 ave 7 max 0 min
Histogram: 34 3 1 0 0 0 0 0 1 1
Neighs:    0.025 ave 1 max 0 min
Histogram: 39 0 0 0 0 0 0 0 0 1

Total # of neighbors = 1
Ave neighs/atom = 0.00558659
Neighbor list builds = 14692
Dangerous builds = 0
Setting up run at Thu Dec  1 05:19:55 2022

Memory usage per processor = 964.609 Mbytes
    Step    Atoms         KinEng            CPU 
59259170      179     0.03338811              0 
59567811      179    0.025866744      3142.3949 
Loop time of 3142.4 on 40 procs for 308641 steps with 179 atoms, finish time Thu Dec  1 06:12:17 2022


Pair  time (%) = 0.563548 (0.0179337)
Neigh time (%) = 38.2318 (1.21665)
Comm  time (%) = 13.8517 (0.4408)
Outpt time (%) = 0.000596885 (1.89946e-05)
Other time (%) = 3089.75 (98.3246)

Nlocal:    4.475 ave 78 max 0 min
Histogram: 36 2 0 0 0 0 0 0 1 1
Nghost:    0.45 ave 5 max 0 min
Histogram: 33 0 3 0 1 0 1 0 0 2
Neighs:    0.025 ave 1 max 0 min
Histogram: 39 0 0 0 0 0 0 0 0 1

Total # of neighbors = 1
Ave neighs/atom = 0.00558659
Neighbor list builds = 14697
Dangerous builds = 0
Setting up run at Thu Dec  1 06:12:17 2022

Memory usage per processor = 964.609 Mbytes
    Step    Atoms         KinEng            CPU 
59567811      179    0.025866744              0 
59876452      177    0.039308637      3146.3999 
Loop time of 3146.4 on 40 procs for 308641 steps with 177 atoms, finish time Thu Dec  1 07:04:44 2022


Pair  time (%) = 0.566962 (0.0180194)
Neigh time (%) = 39.5904 (1.25828)
Comm  time (%) = 12.5848 (0.399974)
Outpt time (%) = 0.000248814 (7.9079e-06)
Other time (%) = 3093.66 (98.3237)

Nlocal:    4.425 ave 77 max 0 min
Histogram: 36 2 0 0 0 0 0 0 0 2
Nghost:    0.325 ave 5 max 0 min
Histogram: 36 0 0 0 2 0 0 0 1 1
Neighs:    0.05 ave 2 max 0 min
Histogram: 39 0 0 0 0 0 0 0 0 1

Total # of neighbors = 2
Ave neighs/atom = 0.0112994
Neighbor list builds = 15221
Dangerous builds = 1
Setting up run at Thu Dec  1 07:04:44 2022

Memory usage per processor = 964.609 Mbytes
    Step    Atoms         KinEng            CPU 
59876452      177    0.039308637              0 
60185093      177    0.038356047      3154.2785 
Loop time of 3154.28 on 40 procs for 308641 steps with 177 atoms, finish time Thu Dec  1 07:57:18 2022


Pair  time (%) = 0.566524 (0.0179605)
Neigh time (%) = 38.2424 (1.2124)
Comm  time (%) = 14.0117 (0.444214)
Outpt time (%) = 0.000592726 (1.87912e-05)
Other time (%) = 3101.46 (98.3254)

Nlocal:    4.425 ave 76 max 0 min
Histogram: 37 1 0 0 0 0 0 0 0 2
Nghost:    0.425 ave 6 max 0 min
Histogram: 36 0 0 0 0 2 0 0 1 1
Neighs:    0.075 ave 2 max 0 min
Histogram: 38 0 0 0 0 1 0 0 0 1

Total # of neighbors = 3
Ave neighs/atom = 0.0169492
Neighbor list builds = 14697
Dangerous builds = 0
Setting up run at Thu Dec  1 07:57:18 2022

Memory usage per processor = 964.609 Mbytes
    Step    Atoms         KinEng            CPU 
60185093      177    0.038356047              0 
60493734      177    0.037306792      3141.7726 
Loop time of 3141.77 on 40 procs for 308641 steps with 177 atoms, finish time Thu Dec  1 08:49:40 2022


Pair  time (%) = 0.56484 (0.0179784)
Neigh time (%) = 38.2271 (1.21674)
Comm  time (%) = 12.7313 (0.405228)
Outpt time (%) = 0.000622581 (1.98162e-05)
Other time (%) = 3090.25 (98.36)

Nlocal:    4.425 ave 75 max 0 min
Histogram: 36 2 0 0 0 0 0 0 0 2
Nghost:    0.55 ave 9 max 0 min
Histogram: 33 3 2 0 0 0 1 0 0 1
Neighs:    0.075 ave 3 max 0 min
Histogram: 39 0 0 0 0 0 0 0 0 1

Total # of neighbors = 3
Ave neighs/atom = 0.0169492
Neighbor list builds = 14697
Dangerous builds = 0
Setting up run at Thu Dec  1 08:49:40 2022

Memory usage per processor = 964.609 Mbytes
    Step    Atoms         KinEng            CPU 
60493734      177    0.037306792              0 
60802375      177     0.03692466      3138.8863 
Loop time of 3138.89 on 40 procs for 308641 steps with 177 atoms, finish time Thu Dec  1 09:41:59 2022


Pair  time (%) = 0.565191 (0.0180061)
Neigh time (%) = 38.242 (1.21833)
Comm  time (%) = 14.0499 (0.447608)
Outpt time (%) = 0.000692252 (2.20541e-05)
Other time (%) = 3086.03 (98.316)

Nlocal:    4.425 ave 75 max 0 min
Histogram: 36 2 0 0 0 0 0 0 0 2
Nghost:    0.575 ave 7 max 0 min
Histogram: 34 1 1 0 2 0 0 0 0 2
Neighs:    0.075 ave 3 max 0 min
Histogram: 39 0 0 0 0 0 0 0 0 1

Total # of neighbors = 3
Ave neighs/atom = 0.0169492
Neighbor list builds = 14697
Dangerous builds = 0
Setting up run at Thu Dec  1 09:41:59 2022

Memory usage per processor = 964.609 Mbytes
    Step    Atoms         KinEng            CPU 
60802375      177     0.03692466              0 
61111016      177    0.037026026      3141.2907 
Loop time of 3141.29 on 40 procs for 308641 steps with 177 atoms, finish time Thu Dec  1 10:34:20 2022


Pair  time (%) = 0.566131 (0.0180222)
Neigh time (%) = 38.2209 (1.21673)
Comm  time (%) = 14.488 (0.461211)
Outpt time (%) = 0.000596609 (1.89925e-05)
Other time (%) = 3088.02 (98.304)

Nlocal:    4.425 ave 74 max 0 min
Histogram: 37 1 0 0 0 0 0 0 0 2
Nghost:    0.575 ave 9 max 0 min
Histogram: 34 1 2 1 0 0 1 0 0 1
Neighs:    0.1 ave 2 max 0 min
Histogram: 37 0 0 0 0 2 0 0 0 1

Total # of neighbors = 4
Ave neighs/atom = 0.0225989
Neighbor list builds = 14697
Dangerous builds = 0
Setting up run at Thu Dec  1 10:34:20 2022

Memory usage per processor = 964.609 Mbytes
    Step    Atoms         KinEng            CPU 
61111016      177    0.037026026              0 
61419657      176    0.036918076      3151.6631 
Loop time of 3151.66 on 40 procs for 308641 steps with 176 atoms, finish time Thu Dec  1 11:26:52 2022


Pair  time (%) = 0.566191 (0.0179648)
Neigh time (%) = 38.2347 (1.21316)
Comm  time (%) = 13.9975 (0.44413)
Outpt time (%) = 0.000249355 (7.91186e-06)
Other time (%) = 3098.86 (98.3247)

Nlocal:    4.4 ave 74 max 0 min
Histogram: 37 1 0 0 0 0 0 0 0 2
Nghost:    0.525 ave 9 max 0 min
Histogram: 34 1 2 1 1 0 0 0 0 1
Neighs:    0.075 ave 2 max 0 min
Histogram: 38 0 0 0 0 1 0 0 0 1

Total # of neighbors = 3
Ave neighs/atom = 0.0170455
Neighbor list builds = 14699
Dangerous builds = 2
Setting up run at Thu Dec  1 11:26:52 2022

Memory usage per processor = 964.609 Mbytes
    Step    Atoms         KinEng            CPU 
61419657      176    0.036918076              0 
61728298      176    0.040224162      3416.9911 
Loop time of 3416.99 on 40 procs for 308641 steps with 176 atoms, finish time Thu Dec  1 12:23:49 2022


Pair  time (%) = 0.585982 (0.0171491)
Neigh time (%) = 76.6919 (2.24443)
Comm  time (%) = 29.271 (0.85663)
Outpt time (%) = 0.00057816 (1.69201e-05)
Other time (%) = 3310.44 (96.8818)

Nlocal:    4.4 ave 75 max 0 min
Histogram: 37 1 0 0 0 0 0 0 0 2
Nghost:    0.575 ave 8 max 0 min
Histogram: 32 4 0 1 0 2 0 0 0 1
Neighs:    0.1 ave 2 max 0 min
Histogram: 38 0 0 0 0 0 0 0 0 2

Total # of neighbors = 4
Ave neighs/atom = 0.0227273
Neighbor list builds = 29416
Dangerous builds = 690
Setting up run at Thu Dec  1 12:23:49 2022

Memory usage per processor = 964.609 Mbytes
    Step    Atoms         KinEng            CPU 
61728298      176    0.040224162              0 
61728394      176    0.039894081      1.0496638 
Loop time of 1.04968 on 40 procs for 96 steps with 176 atoms, finish time Thu Dec  1 12:23:50 2022


Pair  time (%) = 0.000182558 (0.0173918)
Neigh time (%) = 0.0340025 (3.23933)
Comm  time (%) = 0.0171477 (1.63361)
Outpt time (%) = 0.000224164 (0.0213556)
Other time (%) = 0.99812 (95.0883)

Nlocal:    4.4 ave 75 max 0 min
Histogram: 37 1 0 0 0 0 0 0 0 2
Nghost:    0.575 ave 8 max 0 min
Histogram: 32 4 0 1 0 2 0 0 0 1
Neighs:    0.1 ave 2 max 0 min
Histogram: 38 0 0 0 0 0 0 0 0 2

Total # of neighbors = 4
Ave neighs/atom = 0.0227273
Neighbor list builds = 13
Dangerous builds = 0
