ITEM: TIMESTEP
15020555
ITEM: NUMBER OF ATOMS
464
ITEM: BOX BOUNDS ff ff ff
-0.15 0.15
-0.15 0.15
-0.15 0.15
ITEM: ATOMS id type x y z radius vx vy vz density 
1105 1 -0.0128209 -0.0079244 -0.0671525 0.000635 -24.8587 2.41787 4.74948 2650 
396 1 -0.00703874 -0.00737483 -0.0682658 0.000175 -0.589131 1.95003 0.735961 2650 
787 1 -0.00482407 -0.00461745 -0.0676407 0.000175 -17.7214 -6.82791 -2.21303 2650 
675 1 -0.00786661 -0.0215277 -0.0636412 0.000635 -0.0302584 -1.09733 0.198168 2650 
534 1 -0.0517496 -0.00518162 -0.0453769 0.000175 -0.0871932 -0.113764 0.214691 2650 
1016 1 -0.0596443 -0.052339 -0.0334287 0.000635 -2.37937 -0.869351 4.24267 2650 
118 1 -0.0154431 -0.00570231 -0.0204835 0.000635 -1.99356 -0.333941 -2.41835 2650 
859 1 -0.00586176 -0.00148311 -0.0156007 0.000175 0.0296785 -0.0211311 -0.00815132 2650 
833 1 -0.000222511 -0.00102521 -0.0167864 0.000175 -0.126805 -0.078232 0.0232054 2650 
608 1 -0.0142595 -0.0260727 -0.0116654 0.000984 -15.4032 -10.9083 15.5302 2650 
162 1 -0.00295779 -0.000943736 -0.0124735 0.000175 0.0465009 -0.060743 -0.00806507 2650 
220 1 -0.00927571 -0.00169895 -0.0111807 0.000635 0.0056813 -0.060828 0.00584857 2650 
272 1 -0.0118102 -0.00285574 -0.00907693 6.3e-05 0.01045 -0.0205076 -0.0282687 2650 
1165 1 -0.000541533 -0.000687366 -0.00926028 6.3e-05 0.0077224 -0.018109 0.00484478 2650 
156 1 -0.01202 -0.00137049 -0.004783 0.000175 0 -0.01175 0 2650 
403 1 -0.000132 -0.00114149 -0.004486 0.000175 0 -0.01175 0 2650 
583 1 -0.0683637 -0.0239533 -0.00140447 0.000635 0.000516144 -0.762136 -0.0251095 2650 
886 1 -0.008763 -0.00254649 -0.001992 0.000175 0 -0.01175 0 2650 
379 1 -0.00469241 -0.00258941 0.00299866 0.000635 0.0221315 -0.0142215 0.0507988 2650 
1033 1 -0.0166445 -0.00188485 0.00249593 6.3e-05 -0.0124674 0.0279969 -0.314754 2650 
265 1 -0.00539566 -0.00106644 0.00388242 0.000175 0.00633087 0.0088248 0.0533956 2650 
1118 1 -0.0156765 -0.00316311 0.00481732 0.000175 -0.0211192 -0.0163657 -0.108089 2650 
1152 1 -0.004408 -0.000847487 0.005639 0.000175 0 -0.01175 0 2650 
1166 1 -0.002781 -0.00267849 0.007491 6.3e-05 0 -0.01175 0 2650 
1223 1 -0.00688005 -0.000358175 0.0116591 0.000175 -0.00667259 -0.0183495 0.0247774 2650 
747 1 -0.00581064 -0.0022602 0.0131479 0.000635 -0.017291 -0.0210629 -0.00198362 2650 
64 1 -0.00569395 -0.00109238 0.0127918 0.000175 -0.0340706 0.00197277 -0.0207399 2650 
363 1 -0.00367194 -0.00211272 0.0156341 0.000175 -0.0283733 -0.00777027 0.0317721 2650 
654 1 -0.00102239 -0.00170378 0.0161953 0.000635 -0.0651857 -0.0369264 -0.0164585 2650 
397 1 -0.00177165 -0.00115031 0.0156309 0.000175 0.00609463 -0.00186071 0.0226175 2650 
1293 1 -0.0165794 -0.0128851 0.0666154 0.000175 -0.103498 -0.520732 0.00251249 2650 
524 1 -0.0142825 0.0645725 -0.0657794 0.000175 13.8457 -0.637189 -3.11224 2650 
192 1 -0.0373251 0.0636617 -0.0568318 0.000175 94.9898 -0.0335346 34.0296 2650 
616 1 -0.0565043 0.0743297 -0.0333252 0.000635 -0.588287 0.0537489 -0.110338 2650 
323 1 -0.000713858 0.00104161 -0.0161858 0.000635 -0.179 -0.0160555 -0.00592691 2650 
828 1 -0.000208231 0.00245799 -0.0166334 0.000175 0.12965 0.00451486 -0.00521334 2650 
1296 1 -0.00319341 0.00432375 -0.0164666 6.3e-05 0.0453601 -0.034395 -0.0119516 2650 
57 1 -0.00136693 0.00612697 -0.0165187 0.000175 0.0240075 -0.00749628 -0.000858439 2650 
481 1 -0.00384488 0.0123798 -0.0157754 0.000635 0.0353367 -0.00328959 -0.014602 2650 
356 1 -0.00146101 0.0227956 -0.0161164 0.000635 0.0932847 0.0447761 -0.021897 2650 
170 1 -0.00611274 0.0294061 -0.0157113 6.3e-05 -0.0256965 0.0440389 -0.00833997 2650 
1026 1 -0.00580418 0.0286101 -0.0157215 0.000175 0.137603 0.0400624 -0.0338549 2650 
831 1 -0.00197542 0.0377301 -0.0166054 0.000175 0.242697 0.0752949 -0.0509292 2650 
702 1 -0.00371969 0.0548127 -0.0159015 6.3e-05 -0.042755 0.0758283 -0.000245982 2650 
390 1 -0.00494594 0.0596162 -0.0157164 0.000635 -0.0465212 0.123605 0.00174805 2650 
979 1 -0.00642109 0.000354168 -0.0148815 0.000635 0.036138 -0.0247981 -0.00167755 2650 
544 1 -0.00603631 0.00453144 -0.0149056 0.000635 0.0593464 -0.00697288 -0.0409042 2650 
401 1 -0.00739491 0.00700539 -0.0150677 0.000175 0.0596384 0.0210695 -0.0508442 2650 
929 1 -0.00223714 0.00680369 -0.0151849 0.000175 -0.0131811 0.016492 -0.00985725 2650 
1056 1 -0.00554484 0.00717959 -0.0148043 0.000175 0.059381 0.0188704 -0.0350299 2650 
739 1 -0.00200808 0.0201332 -0.0146821 0.000984 0.0238114 0.0233459 -0.0133724 2650 
945 1 -0.00128806 0.0220034 -0.0150704 0.000635 0.0255452 0.0406232 0.0144068 2650 
871 1 -0.00142111 0.0367673 -0.0147588 0.000984 -0.0280192 0.065572 0.0384871 2650 
30 1 -0.00525989 0.0436517 -0.0151228 0.000175 0.00508837 0.0479793 -0.0136002 2650 
1072 1 -0.00022435 0.0446835 -0.0145268 0.000635 -0.00195747 0.0999273 -0.0482728 2650 
1006 1 -0.00907451 0.00625197 -0.0134116 0.000635 0.0478016 0.00785886 -0.0253978 2650 
1186 1 -0.00702172 0.00687735 -0.0139127 0.000175 0.0169773 0.0415831 -0.0117641 2650 
592 1 -0.00560476 0.00903494 -0.0136689 0.000175 0.0392796 0.00250259 0.00274118 2650 
1330 1 -0.00444365 0.0169239 -0.0134879 6.3e-05 0.0227662 0.00902428 0.0707443 2650 
213 1 -0.00781647 0.0221299 -0.0135531 0.000635 0.0145564 0.095939 0.00276262 2650 
443 1 -0.00718649 0.0269212 -0.0142027 0.000984 0.16965 0.0400864 -0.0894753 2650 
1289 1 -0.0083185 0.0323679 -0.0141716 0.000175 0.123685 -0.0220593 -0.0878236 2650 
1206 1 -0.00915002 0.0360304 -0.0134139 0.000635 0.0803232 0.0627247 -0.0653584 2650 
550 1 -0.00893079 0.0430309 -0.013523 0.000635 0.042891 0.0591272 -0.0187897 2650 
282 1 -0.00870505 0.052221 -0.0135744 0.000635 0.102733 0.0512024 -0.0543296 2650 
144 1 -0.0068664 0.011522 -0.0122194 0.000635 -0.0800472 0.0108877 0.0290279 2650 
450 1 -0.00181557 0.016344 -0.0127119 0.000635 -0.00915734 0.00429942 0.00653472 2650 
222 1 -0.0109993 0.0204085 -0.0125883 0.000175 0.0669891 0.0295492 -0.0586116 2650 
884 1 -0.000968268 0.0206547 -0.0123219 0.000635 0.0148702 0.0301898 0.0246463 2650 
479 1 -0.010852 0.0320715 -0.0122746 0.000635 0.0719055 0.0891489 -0.0671083 2650 
677 1 -0.0102219 0.0342483 -0.0127296 0.000635 0.0695588 0.0246515 -0.0748439 2650 
522 1 -0.00485264 0.0429794 -0.012309 0.000635 0.00897902 0.0786924 0.0204003 2650 
774 1 -0.00113099 0.0456208 -0.0129556 0.000635 0.00196882 0.106974 0.0202782 2650 
276 1 -0.00861178 0.0486505 -0.0130977 0.000984 0.033861 0.0857204 -0.0243919 2650 
1265 1 -0.0107517 0.0619906 -0.0128173 6.3e-05 -0.0237117 0.0585808 -0.0669344 2650 
1163 1 -0.00971904 0.00229095 -0.0110416 0.000175 0.00718611 -0.00640202 -0.000393861 2650 
93 1 -0.000219896 0.00794534 -0.0118757 0.000175 0.0620385 -0.0393679 -0.00556627 2650 
154 1 -0.010998 0.00924924 -0.0113372 0.000175 -0.0245486 0.00174746 0.0335205 2650 
637 1 -0.0117027 0.0139065 -0.0113121 6.3e-05 0.0357894 -0.0234628 -0.0442716 2650 
333 1 -0.00223109 0.0137217 -0.0112929 0.000175 -0.00162765 0.00652208 0.0122384 2650 
319 1 -0.00369499 0.0155292 -0.0115103 0.000635 0.0190524 0.0244431 -0.00756987 2650 
1073 1 -0.00443694 0.0223861 -0.0114915 0.000635 0.0297135 0.0334778 -0.0036906 2650 
121 1 -0.00534328 0.0384591 -0.0111083 0.000175 0.0216334 0.0495746 -0.0116624 2650 
956 1 -0.00711961 0.000907875 -0.0106916 0.000175 0.00205378 -0.00888039 -0.0299469 2650 
994 1 -0.00552239 0.0030503 -0.00976186 0.000175 0.0215743 -0.0149086 0.0211138 2650 
943 1 -0.012837 0.00462709 -0.00979773 0.000635 0.00701553 -0.00016614 0.0212493 2650 
571 1 -0.008585 0.00426251 -0.010244 6.3e-05 0 -0.01175 0 2650 
1290 1 -0.00847385 0.0106721 -0.0107158 0.000175 0.0285443 0.00787354 -0.0257804 2650 
557 1 -0.0104479 0.0130112 -0.00972024 0.000175 0.0123751 -0.000851025 0.067285 2650 
1308 1 -0.0121264 0.0152519 -0.0104077 0.000635 0.0207776 0.0140736 0.0224176 2650 
135 1 -0.0130232 0.0223633 -0.00970883 6.3e-05 -0.0645306 0.147721 0.145693 2650 
749 1 -0.00431302 0.0376303 -0.0105855 0.000635 -0.0300282 0.073835 -0.0336042 2650 
243 1 -0.00715269 0.048215 -0.0102157 0.000635 0.141612 0.000656359 -0.125194 2650 
1060 1 -0.00959356 0.0691193 -0.00981722 0.000175 -0.108575 0.134559 0.0681261 2650 
890 1 -0.008469 0.000775513 -0.008886 0.000175 0 -0.01175 0 2650 
868 1 -0.005513 0.00242051 -0.008425 6.3e-05 0 -0.01175 0 2650 
1230 1 -0.000206372 0.0088198 -0.00934176 6.3e-05 -0.0459577 0.00405612 0.0396191 2650 
320 1 -0.0138643 0.0192197 -0.00857497 0.000635 0.0542587 0.0439171 -0.0733055 2650 
487 1 -0.00179829 0.0202713 -0.00893288 0.000635 -0.00271248 0.0285304 0.050364 2650 
511 1 -0.00735537 0.0581515 -0.0092886 0.000635 -0.00574644 0.0539637 0.00872076 2650 
472 1 -0.0148475 0.0119286 -0.00795803 6.3e-05 0.143595 0.00246694 -0.339649 2650 
1220 1 -0.0105989 0.019266 -0.00799259 0.000175 0.041168 0.0142664 -0.010881 2650 
797 1 -0.0116021 0.0231763 -0.00726473 0.000175 -0.00218403 0.0379928 -0.0224175 2650 
1209 1 -0.0140953 0.0453773 -0.00756085 0.000635 0.0744908 0.0264175 -0.144541 2650 
607 1 -0.0136154 0.0582218 -0.00822775 0.000984 -0.0262329 0.100458 0.0369654 2650 
195 1 -0.0069527 0.0584799 -0.00749489 0.000175 0.033641 0.14919 0.0125986 2650 
768 1 -0.00492516 0.00560342 -0.00701828 6.3e-05 0.0144946 0.00483294 -0.00101861 2650 
433 1 -0.0136214 0.00848931 -0.00698775 0.000175 0.0137661 -0.00100155 -0.0037434 2650 
924 1 -0.0118579 0.00882431 -0.00626633 0.000175 0.000471034 0.011719 0.0067381 2650 
665 1 -0.0106841 0.00874895 -0.00667353 0.000175 -0.0249767 -0.00783811 -0.0216928 2650 
133 1 -0.00334984 0.0154067 -0.00651437 6.3e-05 -0.0601947 0.0235832 0.0145226 2650 
305 1 -0.0152911 0.0260758 -0.00713206 6.3e-05 -0.0939861 0.0471958 0.178094 2650 
1155 1 -0.0136431 0.0544444 -0.00643538 0.000175 0.0240297 0.0835121 -0.0425613 2650 
102 1 -0.00179512 0.00115508 -0.0059729 6.3e-05 0.0246887 -0.0228461 0.00138908 2650 
1126 1 -0.00145317 0.00377742 -0.00565327 0.000175 -0.00433591 -0.0119764 -0.00215402 2650 
786 1 -0.0152477 0.00733071 -0.00555115 0.000635 -0.0923706 -0.0086848 0.350672 2650 
966 1 -0.0156745 0.00979039 -0.00555454 6.3e-05 0.02176 -0.000681516 -0.0658812 2650 
615 1 -0.00560508 0.0294894 -0.00507639 0.000635 0.0269074 0.019873 0.00987582 2650 
469 1 -0.000914593 0.0365959 -0.00549809 0.000175 0.0958133 0.126601 -0.083151 2650 
1235 1 -0.00774956 0.0546091 -0.00556722 0.000984 0.0161807 0.0866668 -0.0413773 2650 
1139 1 -0.00547674 0.073803 -0.00481155 0.000635 0.0619216 0.298847 0.136038 2650 
788 1 -0.006237 7.75126e-05 -0.003705 0.000175 0 -0.01175 0 2650 
1222 1 -0.00603746 0.00306601 -0.00419058 0.000175 -0.000823926 -0.0103451 -0.00598924 2650 
498 1 -0.00875046 0.00433467 -0.00410183 0.000175 0.012686 0.0153877 -0.0389994 2650 
855 1 -0.00943559 0.0126851 -0.00444 0.000175 -0.0202533 0.0114111 -0.0114334 2650 
660 1 -0.0156346 0.0194872 -0.00478181 0.000175 0.0184005 0.084127 -0.0673685 2650 
35 1 -0.000889486 0.0327147 -0.00382911 0.000984 0.00578417 0.0490595 -0.0405509 2650 
567 1 -0.00758166 0.040167 -0.00391954 0.000175 -0.0573846 0.0603878 0.0213104 2650 
406 1 -0.003114 0.000583513 -0.002553 6.3e-05 0 -0.01175 0 2650 
863 1 -0.00738141 0.00289754 -0.00331377 0.000175 -0.00559964 -0.0106365 -0.00410659 2650 
1180 1 -0.0121231 0.0108373 -0.00262886 0.000635 0.0290198 0.00655107 0.0228098 2650 
259 1 -0.0164127 0.0232373 -0.00275904 0.000175 0.0181359 -0.00909074 -0.103221 2650 
1281 1 -0.000415806 0.00383975 -0.00140314 0.000635 -0.0207693 0.00442165 -0.0272903 2650 
1129 1 -0.00968636 0.00547856 -0.00150402 0.000175 -0.0117335 -0.00389042 -0.00243884 2650 
1326 1 -0.0055154 0.00589467 -0.00161409 0.000175 -0.0187087 -0.00239876 -0.0282537 2650 
408 1 -0.00816772 0.0184635 -0.00215366 0.000984 0.0353038 0.0140615 0.00583355 2650 
1164 1 -0.016715 0.0309181 -0.00174012 6.3e-05 -0.00229052 0.0196254 0.0594618 2650 
806 1 -0.0135386 0.0380836 -0.0015227 0.000984 0.0087308 0.0413562 -0.0205184 2650 
803 1 -0.0127015 0.0433734 -0.0017056 6.3e-05 0.0169892 0.0601821 -0.0174513 2650 
1142 1 -0.0059069 0.0468389 -0.00135772 0.000635 0.0166011 0.0711026 -0.026218 2650 
275 1 -0.012143 0.0662199 -0.00162984 0.000984 -0.00827874 0.15234 -0.00115943 2650 
55 1 -0.0165064 0.0112325 -0.00114575 0.000175 -0.000593837 0.0112509 0.0168697 2650 
501 1 -0.0166649 0.0541177 -0.00040878 0.000175 -0.00281474 0.0840805 -0.0628933 2650 
767 1 -0.00288669 0.0563159 -0.000154698 0.000175 -0.109196 0.0954555 -0.000585303 2650 
1224 1 -0.00355525 0.000560945 0.000395132 0.000175 0.0244497 -0.0142337 0.0188983 2650 
558 1 -0.011131 0.00418351 0.000798 0.000175 0 -0.01175 0 2650 
1055 1 -0.0163979 0.0123553 0.000286701 0.000175 -0.0332092 0.0128143 0.0934769 2650 
801 1 -0.0127344 0.0137588 0.00106053 6.3e-05 0.0222772 0.0115873 0.0212157 2650 
506 1 -0.00472778 0.013279 0.000636034 6.3e-05 -0.0178825 0.0220165 -0.0365853 2650 
1079 1 -0.00372265 0.0197864 0.000919421 0.000635 0.0259767 0.0356888 0.0521576 2650 
1027 1 -0.015828 0.0303321 0.000346646 0.000175 0.0388567 0.0516946 0.0747616 2650 
1028 1 -0.0166406 0.0369704 0.000725357 0.000175 -0.00593972 0.0432914 -0.141752 2650 
1137 1 -0.0135446 0.0538747 0.000883916 0.000635 0.0368129 0.0345181 0.0185015 2650 
1266 1 -0.0145835 0.0635877 0.00084065 0.000984 0.0149198 0.154965 0.0370878 2650 
726 1 -0.0105803 0.0636269 0.000397023 0.000175 -0.0140181 0.0880157 -0.0614318 2650 
94 1 -0.0165539 0.0689299 0.00103338 0.000175 -0.00137662 0.189643 0.00542127 2650 
715 1 -0.0109874 0.000238816 0.0013428 0.000635 -0.0258663 -0.0775416 0.12065 2650 
494 1 -0.0019179 0.0175601 0.0023793 0.000175 -0.0250451 0.0293139 0.0346021 2650 
414 1 -0.00546974 0.0256766 0.00139332 0.000635 -0.0162456 0.0269063 -0.0880323 2650 
769 1 -0.003816 0.00304651 0.003188 6.3e-05 0 -0.01175 0 2650 
1091 1 -0.0161805 0.0065043 0.0027072 0.000175 0.00526396 0.00327977 0.0026449 2650 
132 1 -0.0016578 0.0178272 0.00253351 0.000175 0.00345596 0.0362007 -0.04216 2650 
424 1 -0.00300648 0.0510069 0.00308157 0.000635 0.00793162 0.056283 0.0290702 2650 
751 1 -0.0126094 0.0597732 0.00329748 0.000635 -0.0221459 0.110429 0.0366423 2650 
66 1 -0.006818 0.00164751 0.004587 6.3e-05 0 -0.01175 0 2650 
252 1 -0.0157514 0.00495987 0.00368183 0.000635 0.0196809 0.0122934 0.10382 2650 
113 1 -0.0154609 0.0534545 0.00478128 0.000635 -0.0342433 0.0907773 -0.124971 2650 
885 1 -0.0158601 0.0612052 0.00370501 0.000635 0.00194075 0.141244 0.102671 2650 
1141 1 -0.000117795 0.00058059 0.00583043 0.000635 -0.00916437 -0.00243667 -0.0106149 2650 
1238 1 -0.007556 0.0137537 0.00520091 0.000635 -0.0160123 0.0101325 0.0201254 2650 
165 1 -0.0101831 0.040373 0.00489294 0.000175 -0.00634257 0.0588998 0.00980155 2650 
978 1 -0.012659 0.0512972 0.00517764 0.000635 -0.0113702 0.037972 -0.0505147 2650 
109 1 -0.00254949 0.0524348 0.00558884 0.000635 0.000498826 0.0507076 0.0410947 2650 
293 1 -0.0106635 0.000641834 0.00640863 0.000175 -0.0390743 0.00729485 -0.0406571 2650 
777 1 -0.010367 0.00150133 0.00692461 0.000635 -0.00226632 -0.0249281 -0.00920734 2650 
714 1 -0.00615145 0.00223116 0.00694832 0.000635 -0.0160881 -0.00562472 0.0286879 2650 
1021 1 -0.004268 0.00397051 0.006589 0.000175 0 -0.01175 0 2650 
1193 1 -0.0135018 0.00688161 0.00651576 0.000175 -0.0106094 -0.00422928 -0.0469267 2650 
946 1 -0.0040112 0.00662215 0.00668583 0.000635 -0.0186668 -0.00625371 -0.00383491 2650 
822 1 -0.0145281 0.0117019 0.00668361 0.000175 0.00434887 0.0109457 -0.00215861 2650 
52 1 -0.0143737 0.015346 0.00664825 0.000175 -0.00420846 0.0185548 0.0472311 2650 
112 1 -0.0132653 0.0147587 0.006397 0.000635 0.0568572 -0.0173908 0.0844145 2650 
225 1 -9.01065e-05 0.017516 0.00604376 0.000175 -0.0225847 0.0100319 -0.0334502 2650 
227 1 -0.0154029 0.0283271 0.00666714 0.000175 -0.0168941 0.0228588 -0.0998199 2650 
809 1 -0.00984821 0.0304466 0.00609099 0.000635 0.0355906 0.043345 0.0241309 2650 
1108 1 -0.00775066 0.0461718 0.00684287 0.000635 0.00741458 0.0291851 -0.0420493 2650 
1245 1 -0.0138275 0.0473113 0.00710004 0.000635 -0.00544213 0.0821309 -0.00853313 2650 
1148 1 -0.00968199 0.00157148 0.00810407 0.000635 -0.0520762 -0.0177406 -0.0105945 2650 
488 1 -0.0100978 0.00294221 0.00726261 0.000635 -0.0486882 -0.0105455 -0.0128134 2650 
683 1 -0.00716278 0.00508084 0.00778669 0.000635 -0.025276 0.0049841 -0.0137369 2650 
897 1 -0.0144088 0.0238822 0.00815309 0.000175 -0.0242005 0.0533834 -0.0555067 2650 
1106 1 -0.00337059 0.0471967 0.00720826 0.000635 -0.0238559 0.0905053 -0.0348976 2650 
267 1 -0.00811743 0.00806877 0.00921928 0.000175 0.014904 0.00469267 -5.3787e-06 2650 
360 1 -0.00611139 0.00911348 0.00903674 0.000175 -0.00738324 0.00428888 -0.0396428 2650 
101 1 -0.0141121 0.017832 0.00923627 6.3e-05 -0.132133 -0.000756492 -0.249881 2650 
1203 1 -0.00194684 0.0327072 0.00952582 0.000635 -0.0299798 0.0620491 0.044492 2650 
134 1 -0.0136336 0.00267484 0.00966231 6.3e-05 0.0391537 0.00669571 0.0527492 2650 
1217 1 -0.00219169 0.00294867 0.0102201 0.000175 0.00854595 -0.0103371 0.0195958 2650 
1272 1 -0.00565748 0.012276 0.0100011 0.000635 -0.00643054 0.0139104 -0.014657 2650 
1010 1 -0.00419436 0.0196388 0.0102935 0.000635 0.0103402 0.0245287 0.0251659 2650 
630 1 -0.0111038 0.037901 0.010005 0.000175 0.0106272 0.0676037 0.0544442 2650 
792 1 -0.0104861 0.0073575 0.0109096 0.000175 -0.0457946 -0.00131577 -0.0400404 2650 
830 1 -0.00443859 0.0121228 0.0110642 0.000175 0.0115484 0.00233838 -0.00672192 2650 
814 1 -0.00623529 0.016837 0.0119205 0.000635 0.0106513 0.0144021 0.0176641 2650 
61 1 -0.00282969 0.0364421 0.0117358 0.000175 -0.0523099 0.0656819 -0.0249724 2650 
1229 1 -0.00722707 0.0600853 0.0109496 0.000175 -0.024801 0.148159 0.0351627 2650 
745 1 -0.000295 0.00467651 0.012411 0.000635 0 -0.01175 0 2650 
123 1 -0.000134941 0.0117772 0.0122526 0.000175 0.00480605 0.00323935 -0.0265063 2650 
538 1 -0.00691228 0.015591 0.0124546 6.3e-05 -0.0315646 0.0151959 0.0154063 2650 
60 1 -0.0110591 0.0252969 0.0126078 0.000175 -0.286097 0.042364 -0.212284 2650 
160 1 -0.00768919 0.00601626 0.0134475 0.000175 -0.0269436 -0.00759929 -0.0261118 2650 
1124 1 -0.00973065 0.00936371 0.0134523 0.000175 -0.0900906 -0.026979 -0.0679339 2650 
523 1 -0.00601537 0.0124473 0.0139395 0.000635 -0.0125404 0.0170441 -0.00790377 2650 
143 1 -0.00858158 0.021776 0.0135024 0.000635 -0.0345998 0.0532664 -0.0383102 2650 
705 1 -0.0056867 0.0353398 0.0137604 0.000984 -0.0459764 0.0678508 0.000401384 2650 
1242 1 -0.00731743 0.043412 0.0138759 0.000635 -0.0455842 0.0252546 -0.0391282 2650 
676 1 -0.00234006 0.0430243 0.0137721 0.000635 -0.0326333 0.0371037 -0.0265904 2650 
719 1 -0.00510557 0.0476637 0.0142999 0.000635 -0.0193142 0.0917309 -0.0253185 2650 
373 1 -0.00189756 0.0493952 0.0142007 6.3e-05 -0.0623448 0.0606035 0.0188047 2650 
1284 1 -0.00726513 0.0273857 0.0147329 0.000175 -0.0527224 0.0173436 0.0132183 2650 
131 1 -0.00424077 0.0420994 0.0154196 0.000175 -0.0550178 0.0939982 -0.00148248 2650 
343 1 -0.00310182 0.049734 0.014929 0.000984 -0.0540461 0.0922448 -0.00910111 2650 
1188 1 -0.00265409 0.0388317 0.0165197 0.000175 0.0573793 0.0274482 0.00108858 2650 
835 1 -0.000849789 0.0394061 0.0168019 6.3e-05 -0.0787726 0.0753321 -0.0144148 2650 
837 1 -0.0195367 0.120855 -0.0651498 0.000984 10.1402 0.0779088 -3.04072 2650 
1048 1 -0.0212632 0.101312 -0.0508205 0.000635 -3.17538 0.13044 -7.59436 2650 
507 1 -0.0493404 0.075995 -0.0468232 0.000984 -0.325529 -0.0929312 0.342653 2650 
1244 1 -0.0651898 0.0764772 -0.0206304 0.000635 -0.0504611 -0.0680916 0.159358 2650 
1247 1 -0.0664087 0.0873461 -0.0162881 0.000635 -0.0280612 -0.154137 0.114343 2650 
606 1 -0.00819646 0.100221 -0.0148796 0.000984 -0.0714637 0.195417 -0.0521301 2650 
912 1 -0.0667364 0.12125 -0.0148893 0.000635 -0.015957 0.284169 0.0714804 2650 
1168 1 -0.000173068 0.0840684 -0.0100212 0.000984 0.00694765 0.183557 -0.120797 2650 
82 1 -0.00542359 0.0869427 -0.0099331 0.000635 0.0220528 0.130673 -0.0271236 2650 
598 1 -0.0684068 0.0785716 -0.00760719 0.000175 -0.00349229 -0.206315 0.031399 2650 
76 1 -0.0149739 0.0770173 -0.0060527 0.000635 -0.0564885 0.129484 0.0507991 2650 
728 1 -0.00695852 0.0909717 -0.00454598 0.000175 -0.0401008 0.108387 0.00907622 2650 
359 1 -0.0112998 0.0953563 -0.00294046 0.000175 -0.0113515 0.222659 0.0359762 2650 
354 1 -0.0132993 0.135367 -0.0024283 0.000635 -0.0359262 0.171089 -0.0221489 2650 
1250 1 -0.0153077 0.0800703 -0.00228853 0.000175 -0.00018208 0.195007 0.0123323 2650 
556 1 -0.0119542 0.0850883 -0.00171376 0.000635 -0.0445894 0.175988 0.0698718 2650 
458 1 -0.00429808 0.0759138 0.00610752 0.000175 -0.0273517 0.0853488 0.0354585 2650 
300 1 -0.00766429 0.11924 0.00857794 0.000175 0.00170115 0.148187 0.035275 2650 
754 1 -0.00124298 0.122105 0.0113713 0.000635 0.00621309 0.149098 0.0468521 2650 
775 1 -0.00113032 0.0870059 0.0148853 0.000635 -0.0431407 0.170105 0.105088 2650 
9 1 -0.0238462 0.0890082 0.0640713 0.000635 0.341438 -0.00372709 0.127077 2650 
808 1 0.00651482 -0.0271632 -0.0680539 0.000635 0.00640747 -0.525768 -0.000392935 2650 
253 1 0.0313021 -0.0522197 -0.0585444 0.000635 0.254122 -5.4691 4.66951 2650 
1297 1 0.0442781 -0.00500365 -0.0527639 6.3e-05 0.239262 -0.109308 0.0527989 2650 
549 1 0.0399509 -0.00836438 -0.0510456 0.000635 0.421242 -0.321501 -0.0468284 2650 
445 1 0.00134806 -0.00127283 -0.0161296 0.000635 -0.145176 -0.121666 -0.00692593 2650 
497 1 0.00386414 -0.00335105 -0.0140514 0.000175 0.234541 -0.0275986 -0.852877 2650 
409 1 0.00947218 -0.00254675 -0.0127054 0.000984 0.117591 0.0138067 0.0844358 2650 
448 1 0.0079486 -0.000738112 -0.0125096 0.000635 0.00337261 -0.0081918 0.035145 2650 
928 1 0.0103669 -0.00246747 -0.0114202 0.000175 0.0199017 -0.0211995 0.0189867 2650 
395 1 0.0684438 -0.0250861 -0.0072668 0.000175 0.00482371 -0.478251 0.0454257 2650 
655 1 0.00600171 -0.000758703 -0.00768663 0.000635 -0.122335 -0.0180058 -0.0439148 2650 
124 1 0.0107256 -0.00320224 -0.00657522 0.000175 -0.0137088 -0.0118564 0.0139348 2650 
1319 1 0.00375397 -0.00305945 -0.00569105 0.000175 -0.057305 -0.018636 0.0131495 2650 
921 1 0.0105331 -0.00308634 -0.0059291 0.000175 0.00353848 -0.0131431 -0.010633 2650 
475 1 0.0128711 -0.00288605 -0.00413142 0.000984 0.00921853 -0.0286279 0.0329874 2650 
1276 1 0.00608182 -0.00204237 0.00113298 0.000635 -0.00614998 -0.00870997 0.00115264 2650 
1198 1 0.00314124 -0.0013382 0.00234919 6.3e-05 -0.00439494 -0.00472383 -0.0177467 2650 
263 1 0.016508 -0.000946487 0.001828 0.000175 0 -0.01175 0 2650 
869 1 0.0165056 -0.00269593 0.00278994 6.3e-05 -0.00581141 -0.00428616 0.0307725 2650 
729 1 0.010208 -0.000206487 0.002656 0.000175 0 -0.01175 0 2650 
1219 1 0.00487199 -0.00284042 0.00438831 0.000175 -0.00856696 -0.031848 -0.0110993 2650 
917 1 0.00475981 -0.00222981 0.00492222 0.000635 -0.00932521 -0.017823 -0.0211919 2650 
291 1 0.00313248 -0.000870641 0.00648845 0.000175 0.0323958 0.0018307 -0.00427381 2650 
304 1 0.002986 -0.00137249 0.008788 6.3e-05 0 -0.01175 0 2650 
861 1 0.00582033 -0.00235042 0.00927175 0.000175 0.0128326 -0.0116409 0.0365401 2650 
329 1 0.00492779 -0.0017981 0.00911904 0.000175 -0.0305438 0.00403733 0.0162042 2650 
303 1 0.000636373 -0.000552744 0.0084205 6.3e-05 0.00815037 -0.0276839 0.0164394 2650 
725 1 0.005744 -0.00112549 0.00955 0.000175 0 -0.01175 0 2650 
962 1 0.008004 -0.00325549 0.009611 0.000175 0 -0.01175 0 2650 
44 1 0.00894575 -0.0029022 0.0104018 0.000635 0.0332087 -0.0113773 -0.00645885 2650 
952 1 0.00796361 -0.00595002 0.0364925 0.000175 1.08323 -0.291152 5.13942 2650 
86 1 0.0384708 -0.0261146 0.057069 0.000175 0.167623 -0.441584 -0.112997 2650 
1089 1 0.0215077 0.0731873 -0.0653781 0.000175 0.131005 -0.184739 0.0430975 2650 
77 1 0.0237189 0.0659761 -0.0484777 0.000635 26.566 -0.0899059 -16.8725 2650 
1047 1 0.0528017 0.0706955 -0.0434323 0.000635 0.172702 -0.108315 0.209809 2650 
16 1 0.00205616 0.0152174 -0.016014 0.000635 0.065753 0.00874363 0.0163005 2650 
1040 1 0.000671239 0.0159655 -0.0162582 0.000635 0.0510136 -0.000746647 -0.00744258 2650 
251 1 0.00353329 0.0175124 -0.0158467 0.000635 0.0805316 0.00683088 0.00149921 2650 
857 1 0.00322158 0.0314852 -0.0163596 0.000175 -0.258638 -0.0186271 -0.0642681 2650 
984 1 0.00464636 0.0346199 -0.0156138 0.000635 0.062493 0.0511945 0.0110285 2650 
760 1 0.00182851 0.0524601 -0.0165959 0.000175 -0.251862 0.121553 -0.0113083 2650 
1032 1 0.00415551 0.00948076 -0.014741 6.3e-05 -0.0652007 0.0245245 0.00493143 2650 
128 1 0.00753375 0.0143382 -0.0145679 0.000175 -0.00628057 0.0114448 -0.0235177 2650 
270 1 0.00814624 0.017132 -0.0147605 6.3e-05 0.10922 -0.00788435 0.084233 2650 
466 1 0.00480744 0.0187287 -0.0150286 0.000175 0.0622857 -0.0433797 -0.00481217 2650 
976 1 0.00652358 0.0184192 -0.0148606 0.000635 0.118294 -0.00496918 0.0494285 2650 
246 1 0.000535017 0.0297688 -0.0153869 0.000635 0.0498684 -0.0124189 -0.0115505 2650 
975 1 0.000102584 0.0543552 -0.0149193 0.000635 -0.0340317 0.0994081 0.0298262 2650 
770 1 0.00546713 0.000560686 -0.0139305 6.3e-05 0.13431 0.0180692 0.000594008 2650 
957 1 0.00887019 0.00238811 -0.0141213 0.000175 0.0990872 -0.065147 0.0727571 2650 
1039 1 0.00399689 0.0119496 -0.0138387 0.000635 0.00469294 -0.00832304 0.000180028 2650 
1270 1 0.00148818 0.0190177 -0.0136061 0.000635 0.0451131 0.02892 0.00340054 2650 
875 1 0.00770669 0.0199206 -0.0143232 0.000635 0.113102 0.0204403 0.0478272 2650 
1123 1 0.0084007 0.0303162 -0.013644 0.000175 -0.10056 0.172878 0.0306194 2650 
757 1 0.006257 0.000220513 -0.01278 0.000175 0 -0.01175 0 2650 
1140 1 0.000123022 0.0131457 -0.0124057 0.000635 0.031002 -0.036636 0.0332991 2650 
361 1 0.0106314 0.0153905 -0.012634 0.000175 0.115495 -0.0303254 0.0961461 2650 
565 1 0.0103215 0.0210891 -0.0131388 0.000175 0.146552 0.00428228 0.108856 2650 
1190 1 0.00474708 0.0245961 -0.0128478 0.000175 -0.0349233 0.0448025 -0.00369097 2650 
260 1 0.0019546 0.0255256 -0.0126233 0.000175 -0.0163681 0.0462997 -0.00452872 2650 
491 1 0.0110629 0.0341294 -0.0125588 0.000175 0.145868 0.0194768 0.108649 2650 
1102 1 0.00993953 0.0377491 -0.0121621 0.000984 -0.146701 -0.0321729 -0.103029 2650 
138 1 0.0087019 0.0392273 -0.0130063 0.000984 -0.0333046 0.0599684 2.92145e-05 2650 
1082 1 0.0102414 0.040001 -0.0127239 0.000635 -0.0333328 0.136265 -0.0233737 2650 
527 1 0.00613024 0.0581795 -0.0126753 0.000175 -0.0282009 0.129101 -0.0439192 2650 
1002 1 0.00461754 0.0734462 -0.0123459 0.000984 -0.0359366 0.172571 -0.0737556 2650 
1153 1 0.0117911 0.00843487 -0.0111141 0.000175 0.0614098 -0.109365 0.0989487 2650 
973 1 0.0118946 0.0300458 -0.011148 0.000635 0.0613226 0.0361232 0.0709101 2650 
283 1 0.0105551 0.0346084 -0.0110841 0.000635 -0.015906 0.0741951 -0.0184977 2650 
590 1 0.00763556 0.036821 -0.0117955 0.000175 0.0321077 0.0422379 0.00924926 2650 
722 1 0.000770323 0.00457875 -0.00996717 0.000175 -0.000765307 -0.00724665 -0.00160405 2650 
399 1 0.0134588 0.00747807 -0.00981565 0.000175 -0.0504343 0.00954308 -0.0679634 2650 
1132 1 0.00116469 0.0103042 -0.0103976 6.3e-05 -0.0144492 0.00554189 -0.0155795 2650 
734 1 0.00758267 0.0113998 -0.0099482 0.000175 0.000462245 0.00149956 0.0133386 2650 
700 1 0.0137489 0.0377084 -0.00964868 0.000175 0.0550813 0.0508889 0.0641416 2650 
1263 1 0.00164226 0.00325805 -0.00871733 6.3e-05 -5.52108e-05 -0.011226 0.0130423 2650 
136 1 0.010438 0.00359651 -0.008509 6.3e-05 0 -0.01175 0 2650 
1063 1 0.00909633 0.00272827 -0.00828271 0.000175 -0.00146722 -0.0113388 0.0214675 2650 
599 1 0.00997692 0.00485534 -0.00802091 0.000175 -0.0139723 -0.00181165 0.0388559 2650 
1254 1 0.0101723 0.0155589 -0.00795167 0.000175 0.0352223 0.0160003 0.0162151 2650 
882 1 0.0079152 0.0195279 -0.00788286 0.000635 -0.0305455 0.00827329 -0.0237146 2650 
1228 1 0.0129948 0.0205533 -0.00792561 0.000175 0.00408659 0.0276936 0.0103245 2650 
324 1 0.0138779 0.0206042 -0.00742414 0.000175 0.00537832 0.0220357 0.0238414 2650 
110 1 0.0117367 0.0230068 -0.00803806 0.000635 0.0117222 0.0418612 -0.0125544 2650 
410 1 0.0134157 0.0311683 -0.00761254 0.000984 0.0483658 0.03934 0.0360019 2650 
553 1 0.000148958 0.0342839 -0.00798226 0.000635 0.0390128 0.0501178 -0.0300795 2650 
1093 1 0.00714168 0.0488651 -0.00820517 0.000175 0.0804776 0.0888731 0.0255044 2650 
1205 1 0.00377071 0.054663 -0.0083507 0.000635 0.0151839 0.110987 0.0221741 2650 
1097 1 0.0110157 0.0204999 -0.00628658 0.000175 0.0228054 0.0104581 -0.0036187 2650 
625 1 0.0145669 0.0218759 -0.0068079 0.000175 0.0259317 0.038538 0.0898644 2650 
1292 1 0.00370459 0.0299794 -0.00715543 0.000175 0.0743479 0.0214763 0.0297725 2650 
85 1 0.00830106 0.046501 -0.00625739 0.000635 0.012853 0.048329 0.0735049 2650 
413 1 0.0144626 0.0568617 -0.00666375 0.000635 0.0508786 0.050595 0.108706 2650 
905 1 0.0146164 0.00221238 -0.00502353 0.000984 0.0262358 -0.0166753 0.0163996 2650 
1068 1 0.0106674 0.00700467 -0.00491415 0.000984 0.0244038 -0.0146957 0.0239277 2650 
193 1 0.0157003 0.0182781 -0.00583137 0.000175 0.0406396 -0.0066831 0.161998 2650 
384 1 0.0148328 0.0197414 -0.0051657 0.000635 0.0135921 -0.0281117 0.0363404 2650 
1181 1 0.0152428 0.0422668 -0.00545465 0.000635 0.0413942 0.0393656 0.162724 2650 
1147 1 0.0153316 0.0439996 -0.00529772 0.000635 0.0456942 0.0258089 0.172383 2650 
67 1 0.0159146 0.0498984 -0.00500846 6.3e-05 0.0204894 0.0621537 0.122278 2650 
1036 1 0.0125863 0.0559788 -0.00564404 0.000984 0.117283 0.145357 0.0326956 2650 
51 1 0.0156524 0.0691442 -0.00592779 0.000635 0.0594755 0.112762 0.043588 2650 
818 1 0.0109125 0.0732647 -0.00480916 0.000635 0.0128833 0.0949372 0.0211063 2650 
744 1 0.00335229 0.00303741 -0.00374386 0.000635 0.00515182 -0.0119043 -0.0290524 2650 
670 1 0.00789549 0.00374482 -0.00388936 6.3e-05 0.0480864 -0.0035966 -0.0157973 2650 
53 1 0.00724576 0.00527528 -0.00479399 0.000175 0.00409639 -0.0124888 0.0179543 2650 
261 1 0.0132893 0.0095729 -0.00440323 0.000175 0.042568 0.0136323 0.00617227 2650 
364 1 0.0159593 0.0142022 -0.00373252 0.000175 0.00308159 0.0115944 0.0292504 2650 
521 1 0.0128095 0.0318582 -0.00467018 0.000635 0.0227239 0.0350288 0.00867338 2650 
880 1 0.00604973 0.0446557 -0.00402424 0.000635 -0.0083322 0.062912 -0.0105047 2650 
1159 1 0.00800458 0.0567741 -0.00387404 0.000175 0.0356561 0.0698142 0.0195589 2650 