LIGGGHTS (Version LIGGGHTS-PUBLIC 3.8.0, compiled 2022-11-07-16:55:38 by serperd1, git commit 86544c3f1215bc9744d7929e3eacf53ba086af9e)
Created orthogonal box = (-0.15 -0.15 -0.15) to (0.15 0.15 0.15)
  2 by 4 by 5 MPI processor grid

Reading STL file 'cone.stl' (mesh processing step 1/3) 

Reading STL file 'in_cyl.stl' (mesh processing step 1/3) 

Reading STL file 'top_cyl.stl' (mesh processing step 1/3) 

Reading STL file 'bot_cyl.stl' (mesh processing step 1/3) 

Reading STL file 'bottom_disk.stl' (mesh processing step 1/3) 

Reading STL file 'top_disk.stl' (mesh processing step 1/3) 
Fix particledistribution/discrete (id prob_par): distribution based on mass%:
    r_0to10p: d=1.260000e-04 (max. bounding sphere) mass%=10.000000%
    r_10to50p: d=3.492000e-04 (max. bounding sphere) mass%=40.000000%
    r_50to90p: d=1.269900e-03 (max. bounding sphere) mass%=40.000000%
    r_90to100p: d=1.968300e-03 (max. bounding sphere) mass%=10.000000%
Fix particledistribution/discrete (id prob_par): distribution based on number%:
    r_0to10p: d=1.260000e-04 (max. bounding sphere) number%=83.887052%
    r_10to50p: d=3.492000e-04 (max. bounding sphere) number%=15.763181%
    r_50to90p: d=1.269900e-03 (max. bounding sphere) number%=0.327762%
    r_90to100p: d=1.968300e-03 (max. bounding sphere) number%=0.022006%
Setting up run at Sun Dec 25 03:43:12 2022

Import and parallelization of mesh cone_mesh containing 868 triangle(s) successful
Import and parallelization of mesh inlet_cyl_wall_mesh containing 1064 triangle(s) successful
Import and parallelization of mesh top_cyl_wall_mesh containing 682 triangle(s) successful
Import and parallelization of mesh bot_cyl_wall_mesh containing 1280 triangle(s) successful
Import and parallelization of mesh bot_disk_wall_mesh containing 1682 triangle(s) successful
Import and parallelization of mesh top_disk_wall_mesh containing 1144 triangle(s) successful
Memory usage per processor = 955.842 Mbytes
    Step    Atoms         KinEng            CPU 
       0        0              0              0 
Loop time of 5.3263e-05 on 40 procs for 0 steps with 0 atoms, finish time Sun Dec 25 03:43:12 2022


Pair  time (%) = 0 (0)
Neigh time (%) = 0 (0)
Comm  time (%) = 0 (0)
Outpt time (%) = 0 (0)
Other time (%) = 5.3263e-05 (100)

Nlocal:    0 ave 0 max 0 min
Histogram: 40 0 0 0 0 0 0 0 0 0
Nghost:    0 ave 0 max 0 min
Histogram: 40 0 0 0 0 0 0 0 0 0
Neighs:    0 ave 0 max 0 min
Histogram: 40 0 0 0 0 0 0 0 0 0

Total # of neighbors = 0
Neighbor list builds = 0
Dangerous builds = 0
Setting up run at Sun Dec 25 03:43:12 2022

Memory usage per processor = 955.842 Mbytes
    Step    Atoms         KinEng            CPU 
       0        0              0              0 
       1        0              0     0.00976683 
Loop time of 0.00977711 on 40 procs for 1 steps with 0 atoms, finish time Sun Dec 25 03:43:12 2022


Pair  time (%) = 2.65973e-06 (0.0272036)
Neigh time (%) = 0 (0)
Comm  time (%) = 0.000252502 (2.58258)
Outpt time (%) = 9.24024e-05 (0.945089)
Other time (%) = 0.00942955 (96.4451)

Nlocal:    0 ave 0 max 0 min
Histogram: 40 0 0 0 0 0 0 0 0 0
Nghost:    0 ave 0 max 0 min
Histogram: 40 0 0 0 0 0 0 0 0 0
Neighs:    0 ave 0 max 0 min
Histogram: 40 0 0 0 0 0 0 0 0 0

Total # of neighbors = 0
Neighbor list builds = 0
Dangerous builds = 0
Scanning dump file ...
Reading snapshot from dump file ...
  orthogonal box = (-0.15 -0.15 -0.15) to (0.15 0.15 0.15)
  0 atoms before read
  1331 atoms in snapshot
  0 atoms purged
  0 atoms replaced
  0 atoms trimmed
  1331 atoms added
  1331 atoms after read
Setting atom values ...
  1331 settings made for type
  1331 settings made for density
  1331 settings made for vy
Setting up run at Sun Dec 25 03:43:12 2022

Memory usage per processor = 960.195 Mbytes
    Step    Atoms         KinEng            CPU 
       1     1331    2.04396e-07              0 
       2     1331  2.5455856e-07    0.009226265 
Loop time of 0.00923617 on 40 procs for 1 steps with 1331 atoms, finish time Sun Dec 25 03:43:12 2022


Pair  time (%) = 2.72312e-06 (0.0294833)
Neigh time (%) = 0 (0)
Comm  time (%) = 6.96395e-06 (0.0753987)
Outpt time (%) = 0.000137778 (1.49172)
Other time (%) = 0.0090887 (98.4034)

Nlocal:    33.275 ave 555 max 0 min
Histogram: 36 0 2 0 0 0 0 0 0 2
Nghost:    13.575 ave 173 max 0 min
Histogram: 36 0 0 0 0 1 1 0 0 2
Neighs:    10.175 ave 168 max 0 min
Histogram: 36 0 2 0 0 0 0 0 0 2

Total # of neighbors = 407
Ave neighs/atom = 0.305785
Neighbor list builds = 0
Dangerous builds = 0
Setting up run at Sun Dec 25 03:43:12 2022

Memory usage per processor = 960.195 Mbytes
    Step    Atoms         KinEng            CPU 
       2     1331  2.5455856e-07              0 
  205763     1331  6.9273694e-05      2043.1563 
Loop time of 2043.16 on 40 procs for 205761 steps with 1331 atoms, finish time Sun Dec 25 04:17:16 2022


Pair  time (%) = 0.511148 (0.0250175)
Neigh time (%) = 0.418635 (0.0204896)
Comm  time (%) = 1.16416 (0.0569785)
Outpt time (%) = 0.000299518 (1.46596e-05)
Other time (%) = 2041.06 (99.8975)

Nlocal:    33.275 ave 551 max 0 min
Histogram: 36 0 2 0 0 0 0 0 0 2
Nghost:    13.8 ave 171 max 0 min
Histogram: 36 0 0 0 0 1 1 0 0 2
Neighs:    11.175 ave 191 max 0 min
Histogram: 36 1 1 0 0 0 0 0 1 1

Total # of neighbors = 447
Ave neighs/atom = 0.335838
Neighbor list builds = 550
Dangerous builds = 0
Setting up run at Sun Dec 25 04:17:16 2022

Memory usage per processor = 960.195 Mbytes
    Step    Atoms         KinEng            CPU 
  205763     1331  6.9273694e-05              0 
  411524     1331  0.00040217614      2040.0185 
Loop time of 2040.02 on 40 procs for 205761 steps with 1331 atoms, finish time Sun Dec 25 04:51:16 2022


Pair  time (%) = 0.512877 (0.0251408)
Neigh time (%) = 0.417067 (0.0204443)
Comm  time (%) = 1.2724 (0.0623721)
Outpt time (%) = 0.000622824 (3.05303e-05)
Other time (%) = 2037.82 (99.892)

Nlocal:    33.275 ave 538 max 0 min
Histogram: 36 0 2 0 0 0 0 0 0 2
Nghost:    13.625 ave 169 max 0 min
Histogram: 36 0 0 0 0 1 1 0 0 2
Neighs:    11.725 ave 197 max 0 min
Histogram: 36 1 1 0 0 0 0 0 0 2

Total # of neighbors = 469
Ave neighs/atom = 0.352367
Neighbor list builds = 550
Dangerous builds = 0
Setting up run at Sun Dec 25 04:51:16 2022

Memory usage per processor = 960.195 Mbytes
    Step    Atoms         KinEng            CPU 
  411524     1331  0.00040217614              0 
  617285     1331  0.00067128357      2046.7214 
Loop time of 2046.72 on 40 procs for 205761 steps with 1331 atoms, finish time Sun Dec 25 05:25:22 2022


Pair  time (%) = 0.514776 (0.0251512)
Neigh time (%) = 0.417285 (0.020388)
Comm  time (%) = 1.26877 (0.0619903)
Outpt time (%) = 0.00061201 (2.9902e-05)
Other time (%) = 2044.52 (99.8924)

Nlocal:    33.275 ave 522 max 0 min
Histogram: 36 0 2 0 0 0 0 0 0 2
Nghost:    13.05 ave 158 max 0 min
Histogram: 36 0 0 0 0 0 1 1 0 2
Neighs:    11.9 ave 190 max 0 min
Histogram: 36 0 2 0 0 0 0 0 0 2

Total # of neighbors = 476
Ave neighs/atom = 0.357626
Neighbor list builds = 550
Dangerous builds = 0
Setting up run at Sun Dec 25 05:25:23 2022

Memory usage per processor = 960.195 Mbytes
    Step    Atoms         KinEng            CPU 
  617285     1331  0.00067128357              0 
  823046     1330   0.0010775495      2035.7318 
Loop time of 2035.73 on 40 procs for 205761 steps with 1330 atoms, finish time Sun Dec 25 05:59:18 2022


Pair  time (%) = 0.51817 (0.0254537)
Neigh time (%) = 0.70462 (0.0346126)
Comm  time (%) = 1.80366 (0.0886)
Outpt time (%) = 0.000328291 (1.61265e-05)
Other time (%) = 2032.71 (99.8513)

Nlocal:    33.25 ave 512 max 0 min
Histogram: 36 0 1 1 0 0 0 0 0 2
Nghost:    12.925 ave 161 max 0 min
Histogram: 36 0 0 0 0 1 1 0 0 2
Neighs:    12.575 ave 203 max 0 min
Histogram: 36 0 2 0 0 0 0 0 0 2

Total # of neighbors = 503
Ave neighs/atom = 0.378195
Neighbor list builds = 914
Dangerous builds = 1
Setting up run at Sun Dec 25 05:59:18 2022

Memory usage per processor = 960.195 Mbytes
    Step    Atoms         KinEng            CPU 
  823046     1330   0.0010775495              0 
 1028807     1329  0.00057542063       2030.368 
Loop time of 2030.37 on 40 procs for 205761 steps with 1329 atoms, finish time Sun Dec 25 06:33:09 2022


Pair  time (%) = 0.514537 (0.0253421)
Neigh time (%) = 0.54025 (0.0266085)
Comm  time (%) = 1.52216 (0.0749697)
Outpt time (%) = 0.0210393 (0.00103623)
Other time (%) = 2027.77 (99.872)

Nlocal:    33.225 ave 498 max 0 min
Histogram: 36 0 1 1 0 0 0 0 0 2
Nghost:    12.25 ave 159 max 0 min
Histogram: 36 0 0 0 0 1 1 0 0 2
Neighs:    12.675 ave 194 max 0 min
Histogram: 36 0 1 1 0 0 0 0 0 2

Total # of neighbors = 507
Ave neighs/atom = 0.38149
Neighbor list builds = 702
Dangerous builds = 80
Setting up run at Sun Dec 25 06:33:09 2022

Memory usage per processor = 960.195 Mbytes
    Step    Atoms         KinEng            CPU 
 1028807     1329  0.00057542063              0 
 1234568     1328   0.0097366168      2044.4642 
Loop time of 2044.47 on 40 procs for 205761 steps with 1328 atoms, finish time Sun Dec 25 07:07:13 2022


Pair  time (%) = 0.518627 (0.0253674)
Neigh time (%) = 1.79635 (0.0878642)
Comm  time (%) = 2.20985 (0.10809)
Outpt time (%) = 0.000342536 (1.67543e-05)
Other time (%) = 2039.94 (99.7787)

Nlocal:    33.2 ave 496 max 0 min
Histogram: 36 0 1 1 0 0 0 0 0 2
Nghost:    11.675 ave 155 max 0 min
Histogram: 36 0 0 0 0 2 0 0 1 1
Neighs:    11.875 ave 183 max 0 min
Histogram: 36 0 1 1 0 0 0 0 0 2

Total # of neighbors = 475
Ave neighs/atom = 0.357681
Neighbor list builds = 2235
Dangerous builds = 1
Setting up run at Sun Dec 25 07:07:13 2022

Memory usage per processor = 960.195 Mbytes
    Step    Atoms         KinEng            CPU 
 1234568     1328   0.0097366168              0 
 1440329     1320   0.0083485092      2057.6514 
Loop time of 2057.65 on 40 procs for 205761 steps with 1320 atoms, finish time Sun Dec 25 07:41:31 2022


Pair  time (%) = 0.523545 (0.0254438)
Neigh time (%) = 3.16043 (0.153594)
Comm  time (%) = 3.28412 (0.159605)
Outpt time (%) = 0.000661561 (3.21513e-05)
Other time (%) = 2050.68 (99.6613)

Nlocal:    33 ave 490 max 0 min
Histogram: 36 0 1 1 0 0 0 0 0 2
Nghost:    11.025 ave 141 max 0 min
Histogram: 36 0 0 0 0 1 1 0 0 2
Neighs:    11.925 ave 180 max 0 min
Histogram: 36 0 0 1 1 0 0 0 0 2

Total # of neighbors = 477
Ave neighs/atom = 0.361364
Neighbor list builds = 3910
Dangerous builds = 88
Setting up run at Sun Dec 25 07:41:31 2022

Memory usage per processor = 960.195 Mbytes
    Step    Atoms         KinEng            CPU 
 1440329     1320   0.0083485092              0 
 1646090     1315   0.0006825829      2049.1431 
Loop time of 2049.14 on 40 procs for 205761 steps with 1315 atoms, finish time Sun Dec 25 08:15:40 2022


Pair  time (%) = 0.516305 (0.0251962)
Neigh time (%) = 2.27814 (0.111175)
Comm  time (%) = 2.31498 (0.112973)
Outpt time (%) = 0.000275792 (1.34589e-05)
Other time (%) = 2044.03 (99.7506)

Nlocal:    32.875 ave 487 max 0 min
Histogram: 36 0 1 1 0 0 0 0 0 2
Nghost:    10.6 ave 135 max 0 min
Histogram: 36 0 0 0 0 2 0 0 0 2
Neighs:    11.7 ave 178 max 0 min
Histogram: 36 0 0 2 0 0 0 0 0 2

Total # of neighbors = 468
Ave neighs/atom = 0.355894
Neighbor list builds = 2830
Dangerous builds = 374
Setting up run at Sun Dec 25 08:15:40 2022

Memory usage per processor = 960.195 Mbytes
    Step    Atoms         KinEng            CPU 
 1646090     1315   0.0006825829              0 
 1851851     1311   0.0010039372      2046.3896 
Loop time of 2046.39 on 40 procs for 205761 steps with 1311 atoms, finish time Sun Dec 25 08:49:47 2022


Pair  time (%) = 0.514023 (0.0251185)
Neigh time (%) = 2.01277 (0.098357)
Comm  time (%) = 2.12167 (0.103679)
Outpt time (%) = 0.000674915 (3.29808e-05)
Other time (%) = 2041.74 (99.7728)

Nlocal:    32.775 ave 485 max 0 min
Histogram: 36 0 1 1 0 0 0 0 0 2
Nghost:    10.375 ave 139 max 0 min
Histogram: 36 0 0 0 0 2 0 0 1 1
Neighs:    11.625 ave 177 max 0 min
Histogram: 36 0 0 2 0 0 0 0 0 2

Total # of neighbors = 465
Ave neighs/atom = 0.354691
Neighbor list builds = 2480
Dangerous builds = 6
Setting up run at Sun Dec 25 08:49:47 2022

Memory usage per processor = 960.195 Mbytes
    Step    Atoms         KinEng            CPU 
 1851851     1311   0.0010039372              0 
 2057612     1302    0.014774388      2049.7427 
Loop time of 2049.74 on 40 procs for 205761 steps with 1302 atoms, finish time Sun Dec 25 09:23:57 2022


Pair  time (%) = 0.509409 (0.0248523)
Neigh time (%) = 2.28522 (0.111488)
Comm  time (%) = 3.4802 (0.169787)
Outpt time (%) = 0.000285062 (1.39072e-05)
Other time (%) = 2043.47 (99.6939)

Nlocal:    32.55 ave 480 max 0 min
Histogram: 36 0 2 0 0 0 0 0 0 2
Nghost:    10.225 ave 135 max 0 min
Histogram: 36 0 0 0 0 1 1 0 1 1
Neighs:    11.2 ave 175 max 0 min
Histogram: 36 0 0 2 0 0 0 0 0 2

Total # of neighbors = 448
Ave neighs/atom = 0.344086
Neighbor list builds = 2830
Dangerous builds = 114
Setting up run at Sun Dec 25 09:23:57 2022

Memory usage per processor = 960.195 Mbytes
    Step    Atoms         KinEng            CPU 
 2057612     1302    0.014774388              0 
 2263373     1288    0.019637623      2084.6278 
Loop time of 2084.63 on 40 procs for 205761 steps with 1288 atoms, finish time Sun Dec 25 09:58:41 2022


Pair  time (%) = 0.514111 (0.024662)
Neigh time (%) = 4.94022 (0.236984)
Comm  time (%) = 5.13785 (0.246464)
Outpt time (%) = 0.0257085 (0.00123324)
Other time (%) = 2074.01 (99.4907)

Nlocal:    32.2 ave 477 max 0 min
Histogram: 36 0 2 0 0 0 0 0 0 2
Nghost:    10 ave 125 max 0 min
Histogram: 36 0 0 0 0 0 2 0 0 2
Neighs:    10.7 ave 170 max 0 min
Histogram: 36 0 1 1 0 0 0 0 0 2

Total # of neighbors = 428
Ave neighs/atom = 0.332298
Neighbor list builds = 6071
Dangerous builds = 91
Setting up run at Sun Dec 25 09:58:41 2022

Memory usage per processor = 960.195 Mbytes
    Step    Atoms         KinEng            CPU 
 2263373     1288    0.019637623              0 
 2469134     1269   0.0066067895      2087.0712 
Loop time of 2087.07 on 40 procs for 205761 steps with 1269 atoms, finish time Sun Dec 25 10:33:29 2022


Pair  time (%) = 0.510977 (0.024483)
Neigh time (%) = 5.20294 (0.249294)
Comm  time (%) = 5.8284 (0.279262)
Outpt time (%) = 0.000340247 (1.63026e-05)
Other time (%) = 2075.53 (99.4469)

Nlocal:    31.725 ave 481 max 0 min
Histogram: 36 0 2 0 0 0 0 0 0 2
Nghost:    9.4 ave 124 max 0 min
Histogram: 36 0 0 0 0 1 1 1 0 1
Neighs:    10.8 ave 176 max 0 min
Histogram: 36 1 1 0 0 0 0 0 0 2

Total # of neighbors = 432
Ave neighs/atom = 0.340426
Neighbor list builds = 6475
Dangerous builds = 1436
Setting up run at Sun Dec 25 10:33:29 2022

Memory usage per processor = 960.195 Mbytes
    Step    Atoms         KinEng            CPU 
 2469134     1269   0.0066067895              0 
 2674895     1255    0.057921747      2102.1032 
Loop time of 2102.1 on 40 procs for 205761 steps with 1255 atoms, finish time Sun Dec 25 11:08:31 2022


Pair  time (%) = 0.511539 (0.0243346)
Neigh time (%) = 5.6572 (0.269121)
Comm  time (%) = 4.99838 (0.23778)
Outpt time (%) = 0.000628536 (2.99003e-05)
Other time (%) = 2090.94 (99.4687)

Nlocal:    31.375 ave 481 max 0 min
Histogram: 36 0 2 0 0 0 0 0 0 2
Nghost:    9.25 ave 115 max 0 min
Histogram: 36 0 0 0 0 0 2 0 1 1
Neighs:    10.575 ave 178 max 0 min
Histogram: 36 1 1 0 0 0 0 0 1 1

Total # of neighbors = 423
Ave neighs/atom = 0.337052
Neighbor list builds = 6988
Dangerous builds = 1145
Setting up run at Sun Dec 25 11:08:31 2022

Memory usage per processor = 960.195 Mbytes
    Step    Atoms         KinEng            CPU 
 2674895     1255    0.057921747              0 
 2880656     1244     0.20921779      2080.9435 
Loop time of 2080.94 on 40 procs for 205761 steps with 1244 atoms, finish time Sun Dec 25 11:43:12 2022


Pair  time (%) = 0.503956 (0.0242176)
Neigh time (%) = 5.36169 (0.257657)
Comm  time (%) = 4.65062 (0.223486)
Outpt time (%) = 0.000283245 (1.36114e-05)
Other time (%) = 2070.43 (99.4946)

Nlocal:    31.1 ave 482 max 0 min
Histogram: 36 0 2 0 0 0 0 0 0 2
Nghost:    9.25 ave 117 max 0 min
Histogram: 36 0 0 0 0 0 2 0 1 1
Neighs:    10.125 ave 169 max 0 min
Histogram: 36 1 1 0 0 0 0 0 0 2

Total # of neighbors = 405
Ave neighs/atom = 0.325563
Neighbor list builds = 6564
Dangerous builds = 76
Setting up run at Sun Dec 25 11:43:12 2022

Memory usage per processor = 960.195 Mbytes
    Step    Atoms         KinEng            CPU 
 2880656     1244     0.20921779              0 
 3086417     1226     0.12394189      2088.1049 
Loop time of 2088.1 on 40 procs for 205761 steps with 1226 atoms, finish time Sun Dec 25 12:18:00 2022


Pair  time (%) = 0.506367 (0.0242501)
Neigh time (%) = 5.88735 (0.281947)
Comm  time (%) = 5.18573 (0.248346)
Outpt time (%) = 0.000595036 (2.84965e-05)
Other time (%) = 2076.52 (99.4454)

Nlocal:    30.65 ave 481 max 0 min
Histogram: 36 0 2 0 0 0 0 0 0 2
Nghost:    9.325 ave 124 max 0 min
Histogram: 36 0 0 0 0 1 1 1 0 1
Neighs:    9.55 ave 168 max 0 min
Histogram: 36 1 1 0 0 0 0 0 1 1

Total # of neighbors = 382
Ave neighs/atom = 0.311582
Neighbor list builds = 7202
Dangerous builds = 15
Setting up run at Sun Dec 25 12:18:00 2022

Memory usage per processor = 960.195 Mbytes
    Step    Atoms         KinEng            CPU 
 3086417     1226     0.12394189              0 
 3292178     1210    0.052024891      2096.5137 
Loop time of 2096.51 on 40 procs for 205761 steps with 1210 atoms, finish time Sun Dec 25 12:52:57 2022


Pair  time (%) = 0.506688 (0.0241681)
Neigh time (%) = 5.99597 (0.285997)
Comm  time (%) = 5.80016 (0.276657)
Outpt time (%) = 0.000667757 (3.18508e-05)
Other time (%) = 2084.21 (99.4131)

Nlocal:    30.25 ave 477 max 0 min
Histogram: 36 0 2 0 0 0 0 0 0 2
Nghost:    8.9 ave 119 max 0 min
Histogram: 36 0 0 0 0 1 1 1 0 1
Neighs:    9.7 ave 164 max 0 min
Histogram: 37 0 1 0 0 0 0 0 0 2

Total # of neighbors = 388
Ave neighs/atom = 0.320661
Neighbor list builds = 7356
Dangerous builds = 171
Setting up run at Sun Dec 25 12:52:57 2022

Memory usage per processor = 960.195 Mbytes
    Step    Atoms         KinEng            CPU 
 3292178     1210    0.052024891              0 
 3497939     1196    0.014053806      2065.5829 
Loop time of 2065.58 on 40 procs for 205761 steps with 1196 atoms, finish time Sun Dec 25 13:27:22 2022


Pair  time (%) = 0.486514 (0.0235534)
Neigh time (%) = 4.35318 (0.210748)
Comm  time (%) = 6.01509 (0.291205)
Outpt time (%) = 0.000656366 (3.17763e-05)
Other time (%) = 2054.73 (99.4745)

Nlocal:    29.9 ave 469 max 0 min
Histogram: 36 0 2 0 0 0 0 0 0 2
Nghost:    8.65 ave 109 max 0 min
Histogram: 36 0 0 0 0 0 2 0 1 1
Neighs:    8.875 ave 163 max 0 min
Histogram: 37 1 0 0 0 0 0 0 0 2

Total # of neighbors = 355
Ave neighs/atom = 0.296823
Neighbor list builds = 5328
Dangerous builds = 165
Setting up run at Sun Dec 25 13:27:22 2022

Memory usage per processor = 960.195 Mbytes
    Step    Atoms         KinEng            CPU 
 3497939     1196    0.014053806              0 
 3703700     1185    0.023216188      2077.9588 
Loop time of 2077.96 on 40 procs for 205761 steps with 1185 atoms, finish time Sun Dec 25 14:02:00 2022


Pair  time (%) = 0.492553 (0.0237037)
Neigh time (%) = 5.50412 (0.264881)
Comm  time (%) = 6.54134 (0.314797)
Outpt time (%) = 0.000762623 (3.67006e-05)
Other time (%) = 2065.42 (99.3966)

Nlocal:    29.625 ave 463 max 0 min
Histogram: 36 0 2 0 0 0 0 0 0 2
Nghost:    8.525 ave 114 max 0 min
Histogram: 36 0 0 0 0 1 1 1 0 1
Neighs:    9.3 ave 158 max 0 min
Histogram: 36 1 1 0 0 0 0 0 0 2

Total # of neighbors = 372
Ave neighs/atom = 0.313924
Neighbor list builds = 6713
Dangerous builds = 8
Setting up run at Sun Dec 25 14:02:00 2022

Memory usage per processor = 960.195 Mbytes
    Step    Atoms         KinEng            CPU 
 3703700     1185    0.023216188              0 
 3909461     1167    0.019042881      2100.8511 
Loop time of 2100.85 on 40 procs for 205761 steps with 1167 atoms, finish time Sun Dec 25 14:37:01 2022


Pair  time (%) = 0.492501 (0.0234429)
Neigh time (%) = 5.99683 (0.285448)
Comm  time (%) = 6.20239 (0.295232)
Outpt time (%) = 0.000648947 (3.08897e-05)
Other time (%) = 2088.16 (99.3958)

Nlocal:    29.175 ave 463 max 0 min
Histogram: 36 1 1 0 0 0 0 0 0 2
Nghost:    8.1 ave 105 max 0 min
Histogram: 36 0 0 0 0 0 2 1 0 1
Neighs:    9.175 ave 161 max 0 min
Histogram: 36 2 0 0 0 0 0 0 0 2

Total # of neighbors = 367
Ave neighs/atom = 0.314482
Neighbor list builds = 7326
Dangerous builds = 210
Setting up run at Sun Dec 25 14:37:01 2022

Memory usage per processor = 960.195 Mbytes
    Step    Atoms         KinEng            CPU 
 3909461     1167    0.019042881              0 
 4115222     1155    0.047558864      2232.9578 
Loop time of 2232.96 on 40 procs for 205761 steps with 1155 atoms, finish time Sun Dec 25 15:14:14 2022


Pair  time (%) = 0.490154 (0.0219509)
Neigh time (%) = 5.81345 (0.260347)
Comm  time (%) = 6.47591 (0.290015)
Outpt time (%) = 0.000605979 (2.71379e-05)
Other time (%) = 2220.18 (99.4277)

Nlocal:    28.875 ave 461 max 0 min
Histogram: 36 1 1 0 0 0 0 0 0 2
Nghost:    8.1 ave 110 max 0 min
Histogram: 36 0 0 0 0 0 3 0 0 1
Neighs:    8.525 ave 157 max 0 min
Histogram: 36 2 0 0 0 0 0 0 0 2

Total # of neighbors = 341
Ave neighs/atom = 0.295238
Neighbor list builds = 7099
Dangerous builds = 260
Setting up run at Sun Dec 25 15:14:14 2022

Memory usage per processor = 960.195 Mbytes
    Step    Atoms         KinEng            CPU 
 4115222     1155    0.047558864              0 
 4320983     1141    0.088968076      2203.5276 
Loop time of 2203.53 on 40 procs for 205761 steps with 1141 atoms, finish time Sun Dec 25 15:50:58 2022


Pair  time (%) = 0.487211 (0.0221105)
Neigh time (%) = 5.93089 (0.269154)
Comm  time (%) = 5.11124 (0.231957)
Outpt time (%) = 0.000303682 (1.37816e-05)
Other time (%) = 2192 (99.4768)

Nlocal:    28.525 ave 456 max 0 min
Histogram: 36 1 1 0 0 0 0 0 0 2
Nghost:    7.85 ave 105 max 0 min
Histogram: 36 0 0 0 0 0 2 1 0 1
Neighs:    7.9 ave 143 max 0 min
Histogram: 36 2 0 0 0 0 0 0 0 2

Total # of neighbors = 316
Ave neighs/atom = 0.27695
Neighbor list builds = 7217
Dangerous builds = 90
Setting up run at Sun Dec 25 15:50:58 2022

Memory usage per processor = 960.195 Mbytes
    Step    Atoms         KinEng            CPU 
 4320983     1141    0.088968076              0 
 4526744     1136    0.042754796      2078.3099 
Loop time of 2078.31 on 40 procs for 205761 steps with 1136 atoms, finish time Sun Dec 25 16:25:36 2022


Pair  time (%) = 0.473096 (0.0227635)
Neigh time (%) = 4.2719 (0.205547)
Comm  time (%) = 5.6395 (0.271351)
Outpt time (%) = 0.000642749 (3.09265e-05)
Other time (%) = 2067.92 (99.5003)

Nlocal:    28.4 ave 446 max 0 min
Histogram: 36 1 1 0 0 0 0 0 0 2
Nghost:    8.125 ave 96 max 0 min
Histogram: 36 0 0 0 0 0 1 1 0 2
Neighs:    7.475 ave 138 max 0 min
Histogram: 37 1 0 0 0 0 0 0 0 2

Total # of neighbors = 299
Ave neighs/atom = 0.263204
Neighbor list builds = 5202
Dangerous builds = 4
Setting up run at Sun Dec 25 16:25:36 2022

Memory usage per processor = 960.195 Mbytes
    Step    Atoms         KinEng            CPU 
 4526744     1136    0.042754796              0 
 4732505     1123    0.056223994      2215.0865 
Loop time of 2215.09 on 40 procs for 205761 steps with 1123 atoms, finish time Sun Dec 25 17:02:32 2022


Pair  time (%) = 0.477329 (0.021549)
Neigh time (%) = 5.05752 (0.228322)
Comm  time (%) = 5.8721 (0.265096)
Outpt time (%) = 0.000262586 (1.18544e-05)
Other time (%) = 2203.68 (99.485)

Nlocal:    28.075 ave 437 max 0 min
Histogram: 36 1 1 0 0 0 0 0 0 2
Nghost:    8.3 ave 98 max 0 min
Histogram: 36 0 0 0 0 0 1 1 0 2
Neighs:    6.85 ave 131 max 0 min
Histogram: 37 1 0 0 0 0 0 0 0 2

Total # of neighbors = 274
Ave neighs/atom = 0.243989
Neighbor list builds = 6188
Dangerous builds = 456
Setting up run at Sun Dec 25 17:02:32 2022

Memory usage per processor = 960.195 Mbytes
    Step    Atoms         KinEng            CPU 
 4732505     1123    0.056223994              0 
 4938266     1111    0.072874077      2096.2329 
Loop time of 2096.23 on 40 procs for 205761 steps with 1111 atoms, finish time Sun Dec 25 17:37:28 2022


Pair  time (%) = 0.476886 (0.0227497)
Neigh time (%) = 5.95672 (0.284163)
Comm  time (%) = 7.6077 (0.362922)
Outpt time (%) = 0.000624175 (2.9776e-05)
Other time (%) = 2082.19 (99.3301)

Nlocal:    27.775 ave 440 max 0 min
Histogram: 36 1 1 0 0 0 0 0 0 2
Nghost:    8.125 ave 98 max 0 min
Histogram: 36 0 0 0 0 0 1 1 0 2
Neighs:    7.1 ave 133 max 0 min
Histogram: 37 1 0 0 0 0 0 0 0 2

Total # of neighbors = 284
Ave neighs/atom = 0.255626
Neighbor list builds = 7285
Dangerous builds = 501
Setting up run at Sun Dec 25 17:37:28 2022

Memory usage per processor = 960.195 Mbytes
    Step    Atoms         KinEng            CPU 
 4938266     1111    0.072874077              0 
 5144027     1098    0.057250542      2121.9037 
Loop time of 2121.9 on 40 procs for 205761 steps with 1098 atoms, finish time Sun Dec 25 18:12:50 2022


Pair  time (%) = 0.47614 (0.0224393)
Neigh time (%) = 4.55356 (0.214598)
Comm  time (%) = 4.69407 (0.22122)
Outpt time (%) = 0.000288875 (1.3614e-05)
Other time (%) = 2112.18 (99.5417)

Nlocal:    27.45 ave 443 max 0 min
Histogram: 36 1 1 0 0 0 0 0 0 2
Nghost:    7.85 ave 93 max 0 min
Histogram: 36 0 0 0 0 0 1 1 0 2
Neighs:    6.925 ave 134 max 0 min
Histogram: 37 1 0 0 0 0 0 0 1 1

Total # of neighbors = 277
Ave neighs/atom = 0.252277
Neighbor list builds = 5537
Dangerous builds = 121
Setting up run at Sun Dec 25 18:12:50 2022

Memory usage per processor = 960.195 Mbytes
    Step    Atoms         KinEng            CPU 
 5144027     1098    0.057250542              0 
 5349788     1092       0.123199       2114.751 
Loop time of 2114.75 on 40 procs for 205761 steps with 1092 atoms, finish time Sun Dec 25 18:48:05 2022


Pair  time (%) = 0.477685 (0.0225882)
Neigh time (%) = 6.35192 (0.300363)
Comm  time (%) = 7.56534 (0.357742)
Outpt time (%) = 0.000603564 (2.85407e-05)
Other time (%) = 2100.36 (99.3193)

Nlocal:    27.3 ave 439 max 0 min
Histogram: 36 2 0 0 0 0 0 0 0 2
Nghost:    7.3 ave 88 max 0 min
Histogram: 36 0 0 0 0 0 1 1 1 1
Neighs:    6.6 ave 130 max 0 min
Histogram: 37 1 0 0 0 0 0 1 0 1

Total # of neighbors = 264
Ave neighs/atom = 0.241758
Neighbor list builds = 7689
Dangerous builds = 5
Setting up run at Sun Dec 25 18:48:05 2022

Memory usage per processor = 960.195 Mbytes
    Step    Atoms         KinEng            CPU 
 5349788     1092       0.123199              0 
 5555549     1075    0.047637018      2148.0336 
Loop time of 2148.03 on 40 procs for 205761 steps with 1075 atoms, finish time Sun Dec 25 19:23:53 2022


Pair  time (%) = 0.48089 (0.0223874)
Neigh time (%) = 7.27175 (0.33853)
Comm  time (%) = 7.641 (0.355721)
Outpt time (%) = 0.000190461 (8.86677e-06)
Other time (%) = 2132.64 (99.2834)

Nlocal:    26.875 ave 420 max 0 min
Histogram: 36 0 2 0 0 0 0 0 0 2
Nghost:    7.175 ave 89 max 0 min
Histogram: 36 0 0 0 0 1 1 0 0 2
Neighs:    6.55 ave 118 max 0 min
Histogram: 37 1 0 0 0 0 0 0 0 2

Total # of neighbors = 262
Ave neighs/atom = 0.243721
Neighbor list builds = 8815
Dangerous builds = 58
Setting up run at Sun Dec 25 19:23:53 2022

Memory usage per processor = 960.195 Mbytes
    Step    Atoms         KinEng            CPU 
 5555549     1075    0.047637018              0 
 5761310     1055    0.045833844      2131.1058 
Loop time of 2131.11 on 40 procs for 205761 steps with 1055 atoms, finish time Sun Dec 25 19:59:24 2022


Pair  time (%) = 0.474344 (0.0222581)
Neigh time (%) = 6.7527 (0.316863)
Comm  time (%) = 8.56713 (0.402004)
Outpt time (%) = 0.000592768 (2.7815e-05)
Other time (%) = 2115.31 (99.2588)

Nlocal:    26.375 ave 417 max 0 min
Histogram: 36 1 1 0 0 0 0 0 0 2
Nghost:    6.8 ave 86 max 0 min
Histogram: 36 0 0 0 1 0 1 0 0 2
Neighs:    6.25 ave 117 max 0 min
Histogram: 36 2 0 0 0 0 0 0 1 1

Total # of neighbors = 250
Ave neighs/atom = 0.236967
Neighbor list builds = 8218
Dangerous builds = 1462
Setting up run at Sun Dec 25 19:59:24 2022

Memory usage per processor = 960.195 Mbytes
    Step    Atoms         KinEng            CPU 
 5761310     1055    0.045833844              0 
 5967071     1042    0.049380344      2113.7652 
Loop time of 2113.78 on 40 procs for 205761 steps with 1042 atoms, finish time Sun Dec 25 20:34:38 2022


Pair  time (%) = 0.46729 (0.0221069)
Neigh time (%) = 6.23441 (0.294942)
Comm  time (%) = 7.5849 (0.358832)
Outpt time (%) = 0.023764 (0.00112424)
Other time (%) = 2099.47 (99.323)

Nlocal:    26.05 ave 408 max 0 min
Histogram: 36 1 1 0 0 0 0 0 0 2
Nghost:    7.1 ave 97 max 0 min
Histogram: 36 0 0 0 1 1 0 0 1 1
Neighs:    5.775 ave 114 max 0 min
Histogram: 36 2 0 0 0 0 0 0 1 1

Total # of neighbors = 231
Ave neighs/atom = 0.221689
Neighbor list builds = 7580
Dangerous builds = 492
Setting up run at Sun Dec 25 20:34:38 2022

Memory usage per processor = 960.195 Mbytes
    Step    Atoms         KinEng            CPU 
 5967071     1042    0.049380344              0 
 6172832     1023    0.033717969      2069.7557 
Loop time of 2069.76 on 40 procs for 205761 steps with 1023 atoms, finish time Sun Dec 25 21:09:08 2022


Pair  time (%) = 0.467082 (0.022567)
Neigh time (%) = 7.01363 (0.338862)
Comm  time (%) = 6.99794 (0.338104)
Outpt time (%) = 0.000314127 (1.5177e-05)
Other time (%) = 2055.28 (99.3005)

Nlocal:    25.575 ave 401 max 0 min
Histogram: 36 1 1 0 0 0 0 0 0 2
Nghost:    6.75 ave 89 max 0 min
Histogram: 36 0 0 0 1 0 1 0 0 2
Neighs:    5.475 ave 98 max 0 min
Histogram: 36 2 0 0 0 0 0 0 0 2

Total # of neighbors = 219
Ave neighs/atom = 0.214076
Neighbor list builds = 8487
Dangerous builds = 32
Setting up run at Sun Dec 25 21:09:08 2022

Memory usage per processor = 960.195 Mbytes
    Step    Atoms         KinEng            CPU 
 6172832     1023    0.033717969              0 
 6378593     1007    0.076125496       2084.623 
Loop time of 2084.62 on 40 procs for 205761 steps with 1007 atoms, finish time Sun Dec 25 21:43:53 2022


Pair  time (%) = 0.463928 (0.0222548)
Neigh time (%) = 6.46124 (0.309948)
Comm  time (%) = 6.42307 (0.308117)
Outpt time (%) = 0.00064906 (3.11356e-05)
Other time (%) = 2071.27 (99.3596)

Nlocal:    25.175 ave 410 max 0 min
Histogram: 36 1 1 0 0 0 0 0 0 2
Nghost:    6.6 ave 84 max 0 min
Histogram: 36 0 0 0 1 0 1 0 0 2
Neighs:    5.35 ave 96 max 0 min
Histogram: 36 2 0 0 0 0 0 0 0 2

Total # of neighbors = 214
Ave neighs/atom = 0.212512
Neighbor list builds = 7845
Dangerous builds = 392
Setting up run at Sun Dec 25 21:43:53 2022

Memory usage per processor = 960.195 Mbytes
    Step    Atoms         KinEng            CPU 
 6378593     1007    0.076125496              0 
 6584354      991    0.022805353      2050.5445 
Loop time of 2050.55 on 40 procs for 205761 steps with 991 atoms, finish time Sun Dec 25 22:18:03 2022


Pair  time (%) = 0.458775 (0.0223733)
Neigh time (%) = 4.62993 (0.22579)
Comm  time (%) = 5.03641 (0.245613)
Outpt time (%) = 0.000240964 (1.17512e-05)
Other time (%) = 2040.42 (99.5062)

Nlocal:    24.775 ave 394 max 0 min
Histogram: 36 0 2 0 0 0 0 0 0 2
Nghost:    6.475 ave 89 max 0 min
Histogram: 36 0 0 1 0 0 1 0 1 1
Neighs:    5.525 ave 108 max 0 min
Histogram: 36 2 0 0 0 0 0 1 0 1

Total # of neighbors = 221
Ave neighs/atom = 0.223007
Neighbor list builds = 5647
Dangerous builds = 970
Setting up run at Sun Dec 25 22:18:03 2022

Memory usage per processor = 960.195 Mbytes
    Step    Atoms         KinEng            CPU 
 6584354      991    0.022805353              0 
 6790115      975    0.037723356      2035.0678 
Loop time of 2035.07 on 40 procs for 205761 steps with 975 atoms, finish time Sun Dec 25 22:51:58 2022


Pair  time (%) = 0.454881 (0.0223521)
Neigh time (%) = 3.10445 (0.152548)
Comm  time (%) = 3.73208 (0.183388)
Outpt time (%) = 0.000565931 (2.78089e-05)
Other time (%) = 2027.78 (99.6417)

Nlocal:    24.375 ave 391 max 0 min
Histogram: 36 0 2 0 0 0 0 0 0 2
Nghost:    6.225 ave 85 max 0 min
Histogram: 36 0 0 0 1 0 1 0 1 1
Neighs:    4.9 ave 96 max 0 min
Histogram: 36 2 0 0 0 0 0 1 0 1

Total # of neighbors = 196
Ave neighs/atom = 0.201026
Neighbor list builds = 3769
Dangerous builds = 269
Setting up run at Sun Dec 25 22:51:59 2022

Memory usage per processor = 960.195 Mbytes
    Step    Atoms         KinEng            CPU 
 6790115      975    0.037723356              0 
 6995876      960    0.040132013       2067.999 
Loop time of 2068 on 40 procs for 205761 steps with 960 atoms, finish time Sun Dec 25 23:26:27 2022


Pair  time (%) = 0.453962 (0.0219517)
Neigh time (%) = 6.53292 (0.315905)
Comm  time (%) = 9.94411 (0.480857)
Outpt time (%) = 0.000277789 (1.34327e-05)
Other time (%) = 2051.07 (99.1813)

Nlocal:    24 ave 404 max 0 min
Histogram: 36 1 1 0 0 0 0 1 0 1
Nghost:    5.525 ave 74 max 0 min
Histogram: 36 0 0 1 0 0 1 0 1 1
Neighs:    3.475 ave 96 max 0 min
Histogram: 38 0 0 1 0 0 0 0 0 1

Total # of neighbors = 139
Ave neighs/atom = 0.144792
Neighbor list builds = 7905
Dangerous builds = 647
Setting up run at Sun Dec 25 23:26:27 2022

Memory usage per processor = 960.195 Mbytes
    Step    Atoms         KinEng            CPU 
 6995876      960    0.040132013              0 
 7201637      949    0.035050705      2066.0638 
Loop time of 2066.06 on 40 procs for 205761 steps with 949 atoms, finish time Mon Dec 26 00:00:53 2022


Pair  time (%) = 0.4457 (0.0215724)
Neigh time (%) = 5.61851 (0.271943)
Comm  time (%) = 9.4211 (0.455993)
Outpt time (%) = 0.000516376 (2.49932e-05)
Other time (%) = 2050.58 (99.2505)

Nlocal:    23.725 ave 387 max 0 min
Histogram: 36 1 1 0 0 0 0 1 0 1
Nghost:    5.25 ave 76 max 0 min
Histogram: 36 0 1 0 0 1 0 1 0 1
Neighs:    3.3 ave 90 max 0 min
Histogram: 37 1 1 0 0 0 0 0 0 1

Total # of neighbors = 132
Ave neighs/atom = 0.139094
Neighbor list builds = 6765
Dangerous builds = 77
Setting up run at Mon Dec 26 00:00:53 2022

Memory usage per processor = 960.195 Mbytes
    Step    Atoms         KinEng            CPU 
 7201637      949    0.035050705              0 
 7407398      927    0.086105425      2089.3436 
Loop time of 2089.34 on 40 procs for 205761 steps with 927 atoms, finish time Mon Dec 26 00:35:42 2022


Pair  time (%) = 0.447942 (0.0214393)
Neigh time (%) = 7.60065 (0.363782)
Comm  time (%) = 11.1558 (0.533939)
Outpt time (%) = 0.000268259 (1.28394e-05)
Other time (%) = 2070.14 (99.0808)

Nlocal:    23.175 ave 363 max 0 min
Histogram: 36 1 1 0 0 0 0 0 1 1
Nghost:    5.025 ave 82 max 0 min
Histogram: 36 0 1 0 1 0 1 0 0 1
Neighs:    3.05 ave 80 max 0 min
Histogram: 37 1 0 1 0 0 0 0 0 1

Total # of neighbors = 122
Ave neighs/atom = 0.131607
Neighbor list builds = 9150
Dangerous builds = 369
Setting up run at Mon Dec 26 00:35:42 2022

Memory usage per processor = 960.195 Mbytes
    Step    Atoms         KinEng            CPU 
 7407398      927    0.086105425              0 
 7613159      908    0.068816659      2068.3798 
Loop time of 2068.38 on 40 procs for 205761 steps with 908 atoms, finish time Mon Dec 26 01:10:11 2022


Pair  time (%) = 0.439157 (0.0212319)
Neigh time (%) = 7.0062 (0.338729)
Comm  time (%) = 12.216 (0.590605)
Outpt time (%) = 0.0004937 (2.38689e-05)
Other time (%) = 2048.72 (99.0494)

Nlocal:    22.7 ave 349 max 0 min
Histogram: 36 1 1 0 0 0 0 0 1 1
Nghost:    5.05 ave 77 max 0 min
Histogram: 36 0 1 0 1 0 0 1 0 1
Neighs:    2.475 ave 57 max 0 min
Histogram: 37 1 0 0 1 0 0 0 0 1

Total # of neighbors = 99
Ave neighs/atom = 0.109031
Neighbor list builds = 8480
Dangerous builds = 1104
Setting up run at Mon Dec 26 01:10:11 2022

Memory usage per processor = 960.195 Mbytes
    Step    Atoms         KinEng            CPU 
 7613159      908    0.068816659              0 
 7818920      898    0.085695688      2068.7896 
Loop time of 2068.79 on 40 procs for 205761 steps with 898 atoms, finish time Mon Dec 26 01:44:39 2022


Pair  time (%) = 0.43846 (0.021194)
Neigh time (%) = 6.80423 (0.328899)
Comm  time (%) = 10.7126 (0.517817)
Outpt time (%) = 0.000354895 (1.71547e-05)
Other time (%) = 2050.83 (99.1321)

Nlocal:    22.45 ave 342 max 0 min
Histogram: 36 1 1 0 0 0 0 0 0 2
Nghost:    4.925 ave 71 max 0 min
Histogram: 36 0 1 0 0 1 0 1 0 1
Neighs:    2.325 ave 52 max 0 min
Histogram: 36 2 0 0 1 0 0 0 0 1

Total # of neighbors = 93
Ave neighs/atom = 0.103563
Neighbor list builds = 8188
Dangerous builds = 499
Setting up run at Mon Dec 26 01:44:39 2022

Memory usage per processor = 960.195 Mbytes
    Step    Atoms         KinEng            CPU 
 7818920      898    0.085695688              0 
 8024681      861    0.098190023      2108.2597 
Loop time of 2108.26 on 40 procs for 205761 steps with 861 atoms, finish time Mon Dec 26 02:19:48 2022


Pair  time (%) = 0.440408 (0.0208896)
Neigh time (%) = 11.371 (0.539356)
Comm  time (%) = 17.2767 (0.819476)
Outpt time (%) = 0.000585723 (2.77823e-05)
Other time (%) = 2079.17 (98.6203)

Nlocal:    21.525 ave 323 max 0 min
Histogram: 36 1 1 0 0 0 0 0 0 2
Nghost:    4.725 ave 69 max 0 min
Histogram: 36 0 0 1 0 0 2 0 0 1
Neighs:    2.325 ave 52 max 0 min
Histogram: 37 1 0 0 0 1 0 0 0 1

Total # of neighbors = 93
Ave neighs/atom = 0.108014
Neighbor list builds = 13785
Dangerous builds = 1769
Setting up run at Mon Dec 26 02:19:48 2022

Memory usage per processor = 960.195 Mbytes
    Step    Atoms         KinEng            CPU 
 8024681      861    0.098190023              0 
 8230442      835    0.022020658      2076.6648 
Loop time of 2076.67 on 40 procs for 205761 steps with 835 atoms, finish time Mon Dec 26 02:54:24 2022


Pair  time (%) = 0.434571 (0.0209264)
Neigh time (%) = 7.92039 (0.381399)
Comm  time (%) = 12.9027 (0.621317)
Outpt time (%) = 0.000329844 (1.58834e-05)
Other time (%) = 2055.41 (98.9763)

Nlocal:    20.875 ave 311 max 0 min
Histogram: 36 1 1 0 0 0 0 0 0 2
Nghost:    4.45 ave 70 max 0 min
Histogram: 36 0 0 1 1 1 0 0 0 1
Neighs:    2.025 ave 38 max 0 min
Histogram: 37 0 0 1 0 0 0 1 0 1

Total # of neighbors = 81
Ave neighs/atom = 0.097006
Neighbor list builds = 9603
Dangerous builds = 1494
Setting up run at Mon Dec 26 02:54:25 2022

Memory usage per processor = 960.195 Mbytes
    Step    Atoms         KinEng            CPU 
 8230442      835    0.022020658              0 
 8436203      816     0.25725041      2076.3542 
Loop time of 2076.35 on 40 procs for 205761 steps with 816 atoms, finish time Mon Dec 26 03:29:01 2022


Pair  time (%) = 0.43166 (0.0207893)
Neigh time (%) = 7.72003 (0.371807)
Comm  time (%) = 13.1008 (0.630953)
Outpt time (%) = 0.0225215 (0.00108467)
Other time (%) = 2055.08 (98.9754)

Nlocal:    20.4 ave 301 max 0 min
Histogram: 36 1 1 0 0 0 0 0 0 2
Nghost:    3.875 ave 58 max 0 min
Histogram: 36 0 0 1 0 2 0 0 0 1
Neighs:    1.475 ave 30 max 0 min
Histogram: 36 1 1 0 0 0 1 0 0 1

Total # of neighbors = 59
Ave neighs/atom = 0.0723039
Neighbor list builds = 9285
Dangerous builds = 131
Setting up run at Mon Dec 26 03:29:01 2022

Memory usage per processor = 960.195 Mbytes
    Step    Atoms         KinEng            CPU 
 8436203      816     0.25725041              0 
 8641964      793     0.06686525      2091.6589 
Loop time of 2091.66 on 40 procs for 205761 steps with 793 atoms, finish time Mon Dec 26 04:03:53 2022


Pair  time (%) = 0.434145 (0.020756)
Neigh time (%) = 9.35247 (0.447131)
Comm  time (%) = 15.4095 (0.73671)
Outpt time (%) = 0.000247123 (1.18147e-05)
Other time (%) = 2066.46 (98.7954)

Nlocal:    19.825 ave 295 max 0 min
Histogram: 36 1 1 0 0 0 0 0 0 2
Nghost:    4.025 ave 59 max 0 min
Histogram: 36 0 0 1 0 1 1 0 0 1
Neighs:    1.575 ave 31 max 0 min
Histogram: 37 0 0 1 0 0 1 0 0 1

Total # of neighbors = 63
Ave neighs/atom = 0.0794451
Neighbor list builds = 11220
Dangerous builds = 19
Setting up run at Mon Dec 26 04:03:53 2022

Memory usage per processor = 960.195 Mbytes
    Step    Atoms         KinEng            CPU 
 8641964      793     0.06686525              0 
 8847725      765      2.2611318      2073.9696 
Loop time of 2073.97 on 40 procs for 205761 steps with 765 atoms, finish time Mon Dec 26 04:38:27 2022


Pair  time (%) = 0.427461 (0.0206108)
Neigh time (%) = 7.09496 (0.342096)
Comm  time (%) = 9.72158 (0.468743)
Outpt time (%) = 0.000829666 (4.00038e-05)
Other time (%) = 2056.72 (99.1685)

Nlocal:    19.125 ave 295 max 0 min
Histogram: 36 1 1 0 0 0 0 0 0 2
Nghost:    3.825 ave 59 max 0 min
Histogram: 36 0 0 1 1 1 0 0 0 1
Neighs:    1.4 ave 26 max 0 min
Histogram: 37 0 0 1 0 0 1 0 0 1

Total # of neighbors = 56
Ave neighs/atom = 0.0732026
Neighbor list builds = 8557
Dangerous builds = 865
Setting up run at Mon Dec 26 04:38:27 2022

Memory usage per processor = 960.195 Mbytes
    Step    Atoms         KinEng            CPU 
 8847725      765      2.2611318              0 
 9053486      753    0.039294988      2043.3459 
Loop time of 2043.35 on 40 procs for 205761 steps with 753 atoms, finish time Mon Dec 26 05:12:30 2022


Pair  time (%) = 0.417246 (0.0204197)
Neigh time (%) = 4.22479 (0.206758)
Comm  time (%) = 7.08359 (0.346666)
Outpt time (%) = 0.0003048 (1.49167e-05)
Other time (%) = 2031.62 (99.4261)

Nlocal:    18.825 ave 286 max 0 min
Histogram: 36 1 1 0 0 0 0 0 0 2
Nghost:    4.125 ave 60 max 0 min
Histogram: 36 0 0 1 0 1 0 1 0 1
Neighs:    1.375 ave 20 max 0 min
Histogram: 36 1 0 0 0 0 0 1 0 2

Total # of neighbors = 55
Ave neighs/atom = 0.0730412
Neighbor list builds = 5086
Dangerous builds = 253
Setting up run at Mon Dec 26 05:12:30 2022

Memory usage per processor = 960.195 Mbytes
    Step    Atoms         KinEng            CPU 
 9053486      753    0.039294988              0 
 9259247      730    0.066607148      2075.0675 
Loop time of 2075.07 on 40 procs for 205761 steps with 730 atoms, finish time Mon Dec 26 05:47:05 2022


Pair  time (%) = 0.422869 (0.0203786)
Neigh time (%) = 8.01014 (0.386018)
Comm  time (%) = 12.5969 (0.60706)
Outpt time (%) = 0.000567974 (2.73713e-05)
Other time (%) = 2054.04 (98.9865)

Nlocal:    18.25 ave 286 max 0 min
Histogram: 36 1 1 0 0 0 0 0 0 2
Nghost:    4 ave 64 max 0 min
Histogram: 36 0 0 2 0 0 1 0 0 1
Neighs:    0.975 ave 16 max 0 min
Histogram: 36 0 1 0 0 1 1 0 0 1

Total # of neighbors = 39
Ave neighs/atom = 0.0534247
Neighbor list builds = 9680
Dangerous builds = 115
Setting up run at Mon Dec 26 05:47:05 2022

Memory usage per processor = 960.195 Mbytes
    Step    Atoms         KinEng            CPU 
 9259247      730    0.066607148              0 
 9465008      714    0.047584605      2046.3051 
Loop time of 2046.31 on 40 procs for 205761 steps with 714 atoms, finish time Mon Dec 26 06:21:12 2022


Pair  time (%) = 0.416816 (0.0203692)
Neigh time (%) = 4.9349 (0.241161)
Comm  time (%) = 6.22343 (0.30413)
Outpt time (%) = 0.000555616 (2.71522e-05)
Other time (%) = 2034.73 (99.4343)

Nlocal:    17.85 ave 284 max 0 min
Histogram: 36 1 1 0 0 0 0 0 0 2
Nghost:    4.05 ave 63 max 0 min
Histogram: 36 0 1 1 0 0 0 1 0 1
Neighs:    1.1 ave 24 max 0 min
Histogram: 36 0 2 1 0 0 0 0 0 1

Total # of neighbors = 44
Ave neighs/atom = 0.0616246
Neighbor list builds = 5910
Dangerous builds = 32
Setting up run at Mon Dec 26 06:21:12 2022

Memory usage per processor = 960.195 Mbytes
    Step    Atoms         KinEng            CPU 
 9465008      714    0.047584605              0 
 9670769      701    0.039863827      2066.9062 
Loop time of 2066.91 on 40 procs for 205761 steps with 701 atoms, finish time Mon Dec 26 06:55:39 2022


Pair  time (%) = 0.410985 (0.0198841)
Neigh time (%) = 6.21601 (0.30074)
Comm  time (%) = 9.18059 (0.44417)
Outpt time (%) = 0.000349279 (1.68986e-05)
Other time (%) = 2051.1 (99.2352)

Nlocal:    17.525 ave 283 max 0 min
Histogram: 36 1 1 0 0 0 0 0 1 1
Nghost:    3.925 ave 59 max 0 min
Histogram: 36 0 0 2 0 0 0 1 0 1
Neighs:    0.975 ave 23 max 0 min
Histogram: 37 1 0 1 0 0 0 0 0 1

Total # of neighbors = 39
Ave neighs/atom = 0.0556348
Neighbor list builds = 7400
Dangerous builds = 9
Setting up run at Mon Dec 26 06:55:39 2022

Memory usage per processor = 960.195 Mbytes
    Step    Atoms         KinEng            CPU 
 9670769      701    0.039863827              0 
 9876530      692    0.054995471      2062.0654 
Loop time of 2062.07 on 40 procs for 205761 steps with 692 atoms, finish time Mon Dec 26 07:30:01 2022


Pair  time (%) = 0.411537 (0.0199575)
Neigh time (%) = 6.18975 (0.300172)
Comm  time (%) = 10.3977 (0.504238)
Outpt time (%) = 0.000589266 (2.85765e-05)
Other time (%) = 2045.07 (99.1756)

Nlocal:    17.3 ave 282 max 0 min
Histogram: 36 1 1 0 0 0 0 0 1 1
Nghost:    3.875 ave 57 max 0 min
Histogram: 36 0 0 2 0 0 0 1 0 1
Neighs:    1.025 ave 20 max 0 min
Histogram: 36 2 0 0 0 0 0 1 0 1

Total # of neighbors = 41
Ave neighs/atom = 0.0592486
Neighbor list builds = 7356
Dangerous builds = 7
Setting up run at Mon Dec 26 07:30:01 2022

Memory usage per processor = 960.195 Mbytes
    Step    Atoms         KinEng            CPU 
 9876530      692    0.054995471              0 
10082291      684    0.068091797      2077.2986 
Loop time of 2077.3 on 40 procs for 205761 steps with 684 atoms, finish time Mon Dec 26 08:04:38 2022


Pair  time (%) = 0.407916 (0.0196369)
Neigh time (%) = 7.54392 (0.36316)
Comm  time (%) = 12.962 (0.623986)
Outpt time (%) = 0.000264718 (1.27434e-05)
Other time (%) = 2056.38 (98.9932)

Nlocal:    17.1 ave 284 max 0 min
Histogram: 36 2 0 0 0 0 0 0 1 1
Nghost:    4 ave 60 max 0 min
Histogram: 36 0 0 1 1 0 1 0 0 1
Neighs:    0.9 ave 18 max 0 min
Histogram: 37 1 0 0 0 0 0 1 0 1

Total # of neighbors = 36
Ave neighs/atom = 0.0526316
Neighbor list builds = 8964
Dangerous builds = 7
Setting up run at Mon Dec 26 08:04:38 2022

Memory usage per processor = 960.195 Mbytes
    Step    Atoms         KinEng            CPU 
10082291      684    0.068091797              0 
10288052      668    0.060401732       2049.809 
Loop time of 2049.81 on 40 procs for 205761 steps with 668 atoms, finish time Mon Dec 26 08:38:48 2022


Pair  time (%) = 0.407461 (0.019878)
Neigh time (%) = 5.61894 (0.27412)
Comm  time (%) = 8.09591 (0.394959)
Outpt time (%) = 0.000532897 (2.59974e-05)
Other time (%) = 2035.69 (99.311)

Nlocal:    16.7 ave 278 max 0 min
Histogram: 36 2 0 0 0 0 0 0 1 1
Nghost:    3.675 ave 53 max 0 min
Histogram: 36 0 0 1 1 0 1 0 0 1
Neighs:    0.925 ave 20 max 0 min
Histogram: 36 2 0 0 0 0 1 0 0 1

Total # of neighbors = 37
Ave neighs/atom = 0.0553892
Neighbor list builds = 6683
Dangerous builds = 183
Setting up run at Mon Dec 26 08:38:48 2022

Memory usage per processor = 960.195 Mbytes
    Step    Atoms         KinEng            CPU 
10288052      668    0.060401732              0 
10493813      654    0.027683522      2068.7855 
Loop time of 2068.79 on 40 procs for 205761 steps with 654 atoms, finish time Mon Dec 26 09:13:17 2022


Pair  time (%) = 0.40628 (0.0196386)
Neigh time (%) = 6.03552 (0.291742)
Comm  time (%) = 8.16768 (0.394806)
Outpt time (%) = 0.000323969 (1.56599e-05)
Other time (%) = 2054.18 (99.2938)

Nlocal:    16.35 ave 270 max 0 min
Histogram: 36 2 0 0 0 0 0 0 1 1
Nghost:    3.675 ave 53 max 0 min
Histogram: 36 0 0 1 1 0 0 1 0 1
Neighs:    0.7 ave 17 max 0 min
Histogram: 38 0 0 0 0 1 0 0 0 1

Total # of neighbors = 28
Ave neighs/atom = 0.0428135
Neighbor list builds = 7211
Dangerous builds = 550
Setting up run at Mon Dec 26 09:13:17 2022

Memory usage per processor = 960.195 Mbytes
    Step    Atoms         KinEng            CPU 
10493813      654    0.027683522              0 
10699574      641    0.035547801      2065.1572 
Loop time of 2065.16 on 40 procs for 205761 steps with 641 atoms, finish time Mon Dec 26 09:47:42 2022


Pair  time (%) = 0.403669 (0.0195466)
Neigh time (%) = 5.50522 (0.266576)
Comm  time (%) = 7.22977 (0.350083)
Outpt time (%) = 0.000586802 (2.84144e-05)
Other time (%) = 2052.02 (99.3638)

Nlocal:    16.025 ave 258 max 0 min
Histogram: 36 2 0 0 0 0 0 0 0 2
Nghost:    3.525 ave 46 max 0 min
Histogram: 36 0 0 1 1 0 0 0 0 2
Neighs:    0.675 ave 15 max 0 min
Histogram: 37 0 1 0 1 0 0 0 0 1

Total # of neighbors = 27
Ave neighs/atom = 0.0421217
Neighbor list builds = 6532
Dangerous builds = 13
Setting up run at Mon Dec 26 09:47:42 2022

Memory usage per processor = 960.195 Mbytes
    Step    Atoms         KinEng            CPU 
10699574      641    0.035547801              0 
10905335      632    0.086787994      2062.6114 
Loop time of 2062.61 on 40 procs for 205761 steps with 632 atoms, finish time Mon Dec 26 10:22:05 2022


Pair  time (%) = 0.399928 (0.0193894)
Neigh time (%) = 5.72853 (0.277732)
Comm  time (%) = 8.32753 (0.403737)
Outpt time (%) = 0.000326524 (1.58306e-05)
Other time (%) = 2048.16 (99.2991)

Nlocal:    15.8 ave 257 max 0 min
Histogram: 36 2 0 0 0 0 0 0 0 2
Nghost:    3.25 ave 45 max 0 min
Histogram: 36 0 0 0 2 0 0 0 1 1
Neighs:    0.925 ave 25 max 0 min
Histogram: 38 0 0 1 0 0 0 0 0 1

Total # of neighbors = 37
Ave neighs/atom = 0.0585443
Neighbor list builds = 6798
Dangerous builds = 124
Setting up run at Mon Dec 26 10:22:05 2022

Memory usage per processor = 960.195 Mbytes
    Step    Atoms         KinEng            CPU 
10905335      632    0.086787994              0 
11111096      626     0.11210909      2064.5811 
Loop time of 2064.58 on 40 procs for 205761 steps with 626 atoms, finish time Mon Dec 26 10:56:30 2022


Pair  time (%) = 0.404226 (0.0195791)
Neigh time (%) = 5.70644 (0.276397)
Comm  time (%) = 6.78049 (0.32842)
Outpt time (%) = 0.021081 (0.00102108)
Other time (%) = 2051.67 (99.3746)

Nlocal:    15.65 ave 253 max 0 min
Histogram: 36 2 0 0 0 0 0 0 0 2
Nghost:    3.25 ave 44 max 0 min
Histogram: 36 0 0 0 1 1 0 0 1 1
Neighs:    0.9 ave 23 max 0 min
Histogram: 37 1 0 1 0 0 0 0 0 1

Total # of neighbors = 36
Ave neighs/atom = 0.057508
Neighbor list builds = 6782
Dangerous builds = 71
Setting up run at Mon Dec 26 10:56:30 2022

Memory usage per processor = 960.195 Mbytes
    Step    Atoms         KinEng            CPU 
11111096      626     0.11210909              0 
11316857      619    0.031002929      2052.5719 
Loop time of 2052.57 on 40 procs for 205761 steps with 619 atoms, finish time Mon Dec 26 11:30:42 2022


Pair  time (%) = 0.396403 (0.0193125)
Neigh time (%) = 4.34452 (0.211662)
Comm  time (%) = 7.17966 (0.349788)
Outpt time (%) = 0.000312242 (1.52122e-05)
Other time (%) = 2040.65 (99.4192)

Nlocal:    15.475 ave 248 max 0 min
Histogram: 36 2 0 0 0 0 0 0 0 2
Nghost:    3.55 ave 44 max 0 min
Histogram: 35 1 0 0 2 0 0 0 0 2
Neighs:    0.725 ave 15 max 0 min
Histogram: 37 1 0 0 0 0 0 1 0 1

Total # of neighbors = 29
Ave neighs/atom = 0.0468498
Neighbor list builds = 5166
Dangerous builds = 34
Setting up run at Mon Dec 26 11:30:42 2022

Memory usage per processor = 960.195 Mbytes
    Step    Atoms         KinEng            CPU 
11316857      619    0.031002929              0 
11522618      611    0.053518879      2057.4229 
Loop time of 2057.42 on 40 procs for 205761 steps with 611 atoms, finish time Mon Dec 26 12:05:00 2022


Pair  time (%) = 0.39645 (0.0192692)
Neigh time (%) = 4.65092 (0.226056)
Comm  time (%) = 9.12178 (0.44336)
Outpt time (%) = 0.000530636 (2.57913e-05)
Other time (%) = 2043.25 (99.3113)

Nlocal:    15.275 ave 246 max 0 min
Histogram: 36 2 0 0 0 0 0 0 0 2
Nghost:    3.475 ave 46 max 0 min
Histogram: 36 0 0 0 2 0 0 0 0 2
Neighs:    0.775 ave 19 max 0 min
Histogram: 38 0 0 0 0 1 0 0 0 1

Total # of neighbors = 31
Ave neighs/atom = 0.0507365
Neighbor list builds = 5537
Dangerous builds = 8
Setting up run at Mon Dec 26 12:05:00 2022

Memory usage per processor = 960.195 Mbytes
    Step    Atoms         KinEng            CPU 
11522618      611    0.053518879              0 
11728379      605    0.027880851      2050.8134 
Loop time of 2050.81 on 40 procs for 205761 steps with 605 atoms, finish time Mon Dec 26 12:39:11 2022


Pair  time (%) = 0.39453 (0.0192378)
Neigh time (%) = 3.96898 (0.193532)
Comm  time (%) = 6.35987 (0.310114)
Outpt time (%) = 0.000312516 (1.52386e-05)
Other time (%) = 2040.09 (99.4771)

Nlocal:    15.125 ave 244 max 0 min
Histogram: 36 2 0 0 0 0 0 0 0 2
Nghost:    3.2 ave 43 max 0 min
Histogram: 36 0 0 2 0 0 0 0 0 2
Neighs:    0.7 ave 14 max 0 min
Histogram: 38 0 0 0 0 0 0 0 1 1

Total # of neighbors = 28
Ave neighs/atom = 0.046281
Neighbor list builds = 4737
Dangerous builds = 478
Setting up run at Mon Dec 26 12:39:11 2022

Memory usage per processor = 960.195 Mbytes
    Step    Atoms         KinEng            CPU 
11728379      605    0.027880851              0 
11934140      599     0.13850914      2052.0143 
Loop time of 2052.01 on 40 procs for 205761 steps with 599 atoms, finish time Mon Dec 26 13:13:23 2022


Pair  time (%) = 0.397555 (0.0193739)
Neigh time (%) = 4.8598 (0.236831)
Comm  time (%) = 7.66716 (0.373641)
Outpt time (%) = 0.000576274 (2.80833e-05)
Other time (%) = 2039.09 (99.3701)

Nlocal:    14.975 ave 241 max 0 min
Histogram: 36 2 0 0 0 0 0 0 0 2
Nghost:    3.125 ave 41 max 0 min
Histogram: 34 2 0 1 1 0 0 0 0 2
Neighs:    0.8 ave 15 max 0 min
Histogram: 37 1 0 0 0 0 0 0 0 2

Total # of neighbors = 32
Ave neighs/atom = 0.0534224
Neighbor list builds = 5769
Dangerous builds = 4
Setting up run at Mon Dec 26 13:13:23 2022

Memory usage per processor = 960.195 Mbytes
    Step    Atoms         KinEng            CPU 
11934140      599     0.13850914              0 
12139901      591    0.074348442      2061.4679 
Loop time of 2061.47 on 40 procs for 205761 steps with 591 atoms, finish time Mon Dec 26 13:47:44 2022


Pair  time (%) = 0.402173 (0.0195091)
Neigh time (%) = 5.91913 (0.287132)
Comm  time (%) = 7.27628 (0.352966)
Outpt time (%) = 0.000308957 (1.49872e-05)
Other time (%) = 2047.87 (99.3404)

Nlocal:    14.775 ave 233 max 0 min
Histogram: 37 1 0 0 0 0 0 0 0 2
Nghost:    3.125 ave 43 max 0 min
Histogram: 35 1 1 0 1 0 0 0 1 1
Neighs:    0.525 ave 13 max 0 min
Histogram: 38 0 0 0 0 1 0 0 0 1

Total # of neighbors = 21
Ave neighs/atom = 0.035533
Neighbor list builds = 7055
Dangerous builds = 724
Setting up run at Mon Dec 26 13:47:45 2022

Memory usage per processor = 960.195 Mbytes
    Step    Atoms         KinEng            CPU 
12139901      591    0.074348442              0 
12345662      577    0.059540681       2056.147 
Loop time of 2056.15 on 40 procs for 205761 steps with 577 atoms, finish time Mon Dec 26 14:22:01 2022


Pair  time (%) = 0.400679 (0.0194869)
Neigh time (%) = 4.99044 (0.242708)
Comm  time (%) = 6.66819 (0.324305)
Outpt time (%) = 0.000645825 (3.14095e-05)
Other time (%) = 2044.09 (99.4135)

Nlocal:    14.425 ave 232 max 0 min
Histogram: 36 2 0 0 0 0 0 0 0 2
Nghost:    3.05 ave 42 max 0 min
Histogram: 35 1 0 1 1 0 0 0 1 1
Neighs:    0.55 ave 13 max 0 min
Histogram: 37 0 1 0 1 0 0 0 0 1

Total # of neighbors = 22
Ave neighs/atom = 0.0381282
Neighbor list builds = 5934
Dangerous builds = 410
Setting up run at Mon Dec 26 14:22:01 2022

Memory usage per processor = 960.195 Mbytes
    Step    Atoms         KinEng            CPU 
12345662      577    0.059540681              0 
12551423      572    0.031685605      2042.6292 
Loop time of 2042.63 on 40 procs for 205761 steps with 572 atoms, finish time Mon Dec 26 14:56:03 2022


Pair  time (%) = 0.397059 (0.0194386)
Neigh time (%) = 4.33426 (0.21219)
Comm  time (%) = 6.11346 (0.299294)
Outpt time (%) = 0.000306201 (1.49905e-05)
Other time (%) = 2031.78 (99.4691)

Nlocal:    14.3 ave 229 max 0 min
Histogram: 36 2 0 0 0 0 0 0 0 2
Nghost:    3.075 ave 45 max 0 min
Histogram: 35 1 1 0 1 0 0 1 0 1
Neighs:    0.7 ave 18 max 0 min
Histogram: 37 1 0 1 0 0 0 0 0 1

Total # of neighbors = 28
Ave neighs/atom = 0.048951
Neighbor list builds = 5148
Dangerous builds = 4
Setting up run at Mon Dec 26 14:56:03 2022

Memory usage per processor = 960.195 Mbytes
    Step    Atoms         KinEng            CPU 
12551423      572    0.031685605              0 
12757184      564    0.051374287      2056.6091 
Loop time of 2056.62 on 40 procs for 205761 steps with 564 atoms, finish time Mon Dec 26 15:30:20 2022


Pair  time (%) = 0.395442 (0.0192278)
Neigh time (%) = 4.54496 (0.220992)
Comm  time (%) = 6.29912 (0.306286)
Outpt time (%) = 0.000608962 (2.96099e-05)
Other time (%) = 2045.38 (99.4535)

Nlocal:    14.1 ave 224 max 0 min
Histogram: 36 2 0 0 0 0 0 0 0 2
Nghost:    3.2 ave 43 max 0 min
Histogram: 34 2 0 2 0 0 0 0 1 1
Neighs:    0.525 ave 11 max 0 min
Histogram: 37 1 0 0 0 0 0 1 0 1

Total # of neighbors = 21
Ave neighs/atom = 0.037234
Neighbor list builds = 5386
Dangerous builds = 50
Setting up run at Mon Dec 26 15:30:20 2022

Memory usage per processor = 960.195 Mbytes
    Step    Atoms         KinEng            CPU 
12757184      564    0.051374287              0 
12962945      555    0.055203975      2057.2154 
Loop time of 2057.22 on 40 procs for 205761 steps with 555 atoms, finish time Mon Dec 26 16:04:37 2022


Pair  time (%) = 0.395883 (0.0192436)
Neigh time (%) = 4.55495 (0.221413)
Comm  time (%) = 5.71549 (0.277827)
Outpt time (%) = 0.000317521 (1.54345e-05)
Other time (%) = 2046.55 (99.4815)

Nlocal:    13.875 ave 224 max 0 min
Histogram: 37 1 0 0 0 0 0 0 0 2
Nghost:    3.125 ave 43 max 0 min
Histogram: 34 2 1 1 0 0 0 1 0 1
Neighs:    0.675 ave 15 max 0 min
Histogram: 37 1 0 0 0 1 0 0 0 1

Total # of neighbors = 27
Ave neighs/atom = 0.0486486
Neighbor list builds = 5403
Dangerous builds = 125
Setting up run at Mon Dec 26 16:04:38 2022

Memory usage per processor = 960.195 Mbytes
    Step    Atoms         KinEng            CPU 
12962945      555    0.055203975              0 
13168706      547    0.039308157      2052.1017 
Loop time of 2052.1 on 40 procs for 205761 steps with 547 atoms, finish time Mon Dec 26 16:38:50 2022


Pair  time (%) = 0.397256 (0.0193585)
Neigh time (%) = 4.90346 (0.238948)
Comm  time (%) = 6.35986 (0.309919)
Outpt time (%) = 0.000615939 (3.0015e-05)
Other time (%) = 2040.44 (99.4317)

Nlocal:    13.675 ave 220 max 0 min
Histogram: 37 1 0 0 0 0 0 0 1 1
Nghost:    3.275 ave 49 max 0 min
Histogram: 34 2 1 1 0 0 0 1 0 1
Neighs:    0.8 ave 23 max 0 min
Histogram: 38 0 0 1 0 0 0 0 0 1

Total # of neighbors = 32
Ave neighs/atom = 0.0585009
Neighbor list builds = 5802
Dangerous builds = 8
Setting up run at Mon Dec 26 16:38:50 2022

Memory usage per processor = 960.195 Mbytes
    Step    Atoms         KinEng            CPU 
13168706      547    0.039308157              0 
13374467      540    0.053191935      2061.6582 
Loop time of 2061.66 on 40 procs for 205761 steps with 540 atoms, finish time Mon Dec 26 17:13:11 2022


Pair  time (%) = 0.395507 (0.0191839)
Neigh time (%) = 5.12297 (0.248488)
Comm  time (%) = 7.77011 (0.376886)
Outpt time (%) = 0.000557444 (2.70386e-05)
Other time (%) = 2048.37 (99.3554)

Nlocal:    13.5 ave 219 max 0 min
Histogram: 37 1 0 0 0 0 0 0 1 1
Nghost:    2.975 ave 48 max 0 min
Histogram: 35 1 2 0 0 1 0 0 0 1
Neighs:    0.525 ave 15 max 0 min
Histogram: 37 0 2 0 0 0 0 0 0 1

Total # of neighbors = 21
Ave neighs/atom = 0.0388889
Neighbor list builds = 6073
Dangerous builds = 154
Setting up run at Mon Dec 26 17:13:11 2022

Memory usage per processor = 960.195 Mbytes
    Step    Atoms         KinEng            CPU 
13374467      540    0.053191935              0 
13580228      536     0.04340965      2044.3917 
Loop time of 2044.39 on 40 procs for 205761 steps with 536 atoms, finish time Mon Dec 26 17:47:16 2022


Pair  time (%) = 0.391552 (0.0191525)
Neigh time (%) = 3.9069 (0.191103)
Comm  time (%) = 7.76416 (0.379778)
Outpt time (%) = 0.000296104 (1.44837e-05)
Other time (%) = 2032.33 (99.41)

Nlocal:    13.4 ave 212 max 0 min
Histogram: 36 2 0 0 0 0 0 0 0 2
Nghost:    3.025 ave 38 max 0 min
Histogram: 34 2 0 2 0 0 0 0 0 2
Neighs:    0.625 ave 19 max 0 min
Histogram: 37 1 1 0 0 0 0 0 0 1

Total # of neighbors = 25
Ave neighs/atom = 0.0466418
Neighbor list builds = 4627
Dangerous builds = 13
Setting up run at Mon Dec 26 17:47:16 2022

Memory usage per processor = 960.195 Mbytes
    Step    Atoms         KinEng            CPU 
13580228      536     0.04340965              0 
13785989      520    0.075880643      2070.8912 
Loop time of 2070.9 on 40 procs for 205761 steps with 520 atoms, finish time Mon Dec 26 18:21:47 2022


Pair  time (%) = 0.397572 (0.0191981)
Neigh time (%) = 6.54295 (0.315948)
Comm  time (%) = 10.0933 (0.487388)
Outpt time (%) = 0.00053791 (2.59748e-05)
Other time (%) = 2053.86 (99.1774)

Nlocal:    13 ave 206 max 0 min
Histogram: 36 2 0 0 0 0 0 0 0 2
Nghost:    3.075 ave 42 max 0 min
Histogram: 34 2 0 1 1 0 0 1 0 1
Neighs:    0.65 ave 14 max 0 min
Histogram: 37 0 1 0 0 1 0 0 0 1

Total # of neighbors = 26
Ave neighs/atom = 0.05
Neighbor list builds = 7760
Dangerous builds = 160
Setting up run at Mon Dec 26 18:21:47 2022

Memory usage per processor = 960.195 Mbytes
    Step    Atoms         KinEng            CPU 
13785989      520    0.075880643              0 
13991750      512     0.21464852      2078.0454 
Loop time of 2078.05 on 40 procs for 205761 steps with 512 atoms, finish time Mon Dec 26 18:56:25 2022


Pair  time (%) = 0.39992 (0.019245)
Neigh time (%) = 6.54531 (0.314974)
Comm  time (%) = 9.02836 (0.434464)
Outpt time (%) = 0.000691764 (3.32892e-05)
Other time (%) = 2062.07 (99.2313)

Nlocal:    12.8 ave 206 max 0 min
Histogram: 36 2 0 0 0 0 0 0 1 1
Nghost:    3.1 ave 44 max 0 min
Histogram: 35 1 0 2 0 0 0 1 0 1
Neighs:    0.525 ave 10 max 0 min
Histogram: 36 1 1 0 0 0 0 0 1 1

Total # of neighbors = 21
Ave neighs/atom = 0.0410156
Neighbor list builds = 7754
Dangerous builds = 160
Setting up run at Mon Dec 26 18:56:25 2022

Memory usage per processor = 960.195 Mbytes
    Step    Atoms         KinEng            CPU 
13991750      512     0.21464852              0 
14197511      493    0.030542676      2085.5042 
Loop time of 2085.5 on 40 procs for 205761 steps with 493 atoms, finish time Mon Dec 26 19:31:11 2022


Pair  time (%) = 0.405724 (0.0194545)
Neigh time (%) = 7.9122 (0.37939)
Comm  time (%) = 9.79718 (0.469775)
Outpt time (%) = 0.01259 (0.000603693)
Other time (%) = 2067.38 (99.1308)

Nlocal:    12.325 ave 199 max 0 min
Histogram: 36 2 0 0 0 0 0 0 0 2
Nghost:    2.625 ave 42 max 0 min
Histogram: 36 0 1 1 0 0 1 0 0 1
Neighs:    0.45 ave 9 max 0 min
Histogram: 36 1 0 0 2 0 0 0 0 1

Total # of neighbors = 18
Ave neighs/atom = 0.0365112
Neighbor list builds = 9377
Dangerous builds = 324
Setting up run at Mon Dec 26 19:31:11 2022

Memory usage per processor = 960.195 Mbytes
    Step    Atoms         KinEng            CPU 
14197511      493    0.030542676              0 
14403272      483    0.072958862       2062.767 
Loop time of 2062.77 on 40 procs for 205761 steps with 483 atoms, finish time Mon Dec 26 20:05:34 2022


Pair  time (%) = 0.399819 (0.0193826)
Neigh time (%) = 5.03615 (0.244145)
Comm  time (%) = 5.00055 (0.24242)
Outpt time (%) = 0.000324119 (1.57128e-05)
Other time (%) = 2052.33 (99.494)

Nlocal:    12.075 ave 199 max 0 min
Histogram: 35 3 0 0 0 0 0 0 1 1
Nghost:    2.7 ave 39 max 0 min
Histogram: 35 1 0 2 0 0 0 1 0 1
Neighs:    0.425 ave 8 max 0 min
Histogram: 35 1 1 2 0 0 0 0 0 1

Total # of neighbors = 17
Ave neighs/atom = 0.0351967
Neighbor list builds = 5963
Dangerous builds = 32
Setting up run at Mon Dec 26 20:05:34 2022

Memory usage per processor = 960.195 Mbytes
    Step    Atoms         KinEng            CPU 
14403272      483    0.072958862              0 
14609033      475    0.030298561      2071.4031 
Loop time of 2071.4 on 40 procs for 205761 steps with 475 atoms, finish time Mon Dec 26 20:40:05 2022


Pair  time (%) = 0.403024 (0.0194566)
Neigh time (%) = 5.61934 (0.271282)
Comm  time (%) = 5.73556 (0.276893)
Outpt time (%) = 0.000530634 (2.56171e-05)
Other time (%) = 2059.64 (99.4323)

Nlocal:    11.875 ave 198 max 0 min
Histogram: 35 3 0 0 0 0 0 0 1 1
Nghost:    2.6 ave 38 max 0 min
Histogram: 36 0 0 2 0 0 0 1 0 1
Neighs:    0.475 ave 7 max 0 min
Histogram: 35 2 0 0 1 0 0 0 0 2

Total # of neighbors = 19
Ave neighs/atom = 0.04
Neighbor list builds = 6703
Dangerous builds = 876
Setting up run at Mon Dec 26 20:40:05 2022

Memory usage per processor = 960.195 Mbytes
    Step    Atoms         KinEng            CPU 
14609033      475    0.030298561              0 
14814794      472    0.017469297      2063.8393 
Loop time of 2063.84 on 40 procs for 205761 steps with 472 atoms, finish time Mon Dec 26 21:14:29 2022


Pair  time (%) = 0.399833 (0.0193733)
Neigh time (%) = 5.17384 (0.25069)
Comm  time (%) = 5.34654 (0.259058)
Outpt time (%) = 0.00038183 (1.85009e-05)
Other time (%) = 2052.92 (99.4709)

Nlocal:    11.8 ave 191 max 0 min
Histogram: 35 3 0 0 0 0 0 0 0 2
Nghost:    2.7 ave 36 max 0 min
Histogram: 35 1 1 0 1 0 0 0 0 2
Neighs:    0.475 ave 9 max 0 min
Histogram: 36 1 0 1 0 0 1 0 0 1

Total # of neighbors = 19
Ave neighs/atom = 0.0402542
Neighbor list builds = 6117
Dangerous builds = 2
Setting up run at Mon Dec 26 21:14:29 2022

Memory usage per processor = 960.195 Mbytes
    Step    Atoms         KinEng            CPU 
14814794      472    0.017469297              0 
15020555      464   0.0066286672        2048.43 
Loop time of 2048.43 on 40 procs for 205761 steps with 464 atoms, finish time Mon Dec 26 21:48:37 2022


Pair  time (%) = 0.402154 (0.0196323)
Neigh time (%) = 3.37357 (0.164691)
Comm  time (%) = 4.16176 (0.203168)
Outpt time (%) = 0.000596309 (2.91105e-05)
Other time (%) = 2040.49 (99.6125)

Nlocal:    11.6 ave 190 max 0 min
Histogram: 36 2 0 0 0 0 0 0 0 2
Nghost:    2.875 ave 39 max 0 min
Histogram: 35 1 0 2 0 0 0 0 0 2
Neighs:    0.35 ave 6 max 0 min
Histogram: 36 1 0 1 0 0 0 0 1 1

Total # of neighbors = 14
Ave neighs/atom = 0.0301724
Neighbor list builds = 4011
Dangerous builds = 12
Setting up run at Mon Dec 26 21:48:38 2022

Memory usage per processor = 960.195 Mbytes
    Step    Atoms         KinEng            CPU 
15020555      464   0.0066286672              0 
15226316      453   0.0035974982      2054.1439 
Loop time of 2054.14 on 40 procs for 205761 steps with 453 atoms, finish time Mon Dec 26 22:22:52 2022


Pair  time (%) = 0.39709 (0.0193312)
Neigh time (%) = 3.22582 (0.15704)
Comm  time (%) = 3.73739 (0.181944)
Outpt time (%) = 0.000264298 (1.28666e-05)
Other time (%) = 2046.78 (99.6417)

Nlocal:    11.325 ave 185 max 0 min
Histogram: 36 2 0 0 0 0 0 0 0 2
Nghost:    2.675 ave 37 max 0 min
Histogram: 34 2 0 2 0 0 0 0 1 1
Neighs:    0.3 ave 5 max 0 min
Histogram: 36 0 1 0 1 0 0 0 1 1

Total # of neighbors = 12
Ave neighs/atom = 0.0264901
Neighbor list builds = 3835
Dangerous builds = 8
Setting up run at Mon Dec 26 22:22:52 2022

Memory usage per processor = 960.195 Mbytes
    Step    Atoms         KinEng            CPU 
15226316      453   0.0035974982              0 
15432077      448  0.00066816995      2043.9658 
Loop time of 2043.97 on 40 procs for 205761 steps with 448 atoms, finish time Mon Dec 26 22:56:56 2022


Pair  time (%) = 0.399695 (0.0195548)
Neigh time (%) = 2.93922 (0.143799)
Comm  time (%) = 4.37555 (0.214071)
Outpt time (%) = 0.000637455 (3.1187e-05)
Other time (%) = 2036.26 (99.6225)

Nlocal:    11.2 ave 185 max 0 min
Histogram: 36 2 0 0 0 0 0 0 1 1
Nghost:    2.5 ave 37 max 0 min
Histogram: 34 2 1 1 0 0 0 1 0 1
Neighs:    0.275 ave 6 max 0 min
Histogram: 37 1 0 0 0 0 1 0 0 1

Total # of neighbors = 11
Ave neighs/atom = 0.0245536
Neighbor list builds = 3529
Dangerous builds = 640
Setting up run at Mon Dec 26 22:56:56 2022

Memory usage per processor = 960.195 Mbytes
    Step    Atoms         KinEng            CPU 
15432077      448  0.00066816995              0 
15637838      443   0.0031799242      2043.4833 
Loop time of 2043.48 on 40 procs for 205761 steps with 443 atoms, finish time Mon Dec 26 23:30:59 2022


Pair  time (%) = 0.39609 (0.0193831)
Neigh time (%) = 2.1928 (0.107307)
Comm  time (%) = 2.93713 (0.143732)
Outpt time (%) = 0.00033809 (1.65448e-05)
Other time (%) = 2037.96 (99.7296)

Nlocal:    11.075 ave 186 max 0 min
Histogram: 36 2 0 0 0 0 0 0 1 1
Nghost:    2.3 ave 33 max 0 min
Histogram: 35 1 0 2 0 0 1 0 0 1
Neighs:    0.275 ave 5 max 0 min
Histogram: 37 0 0 0 1 0 0 0 1 1

Total # of neighbors = 11
Ave neighs/atom = 0.0248307
Neighbor list builds = 2605
Dangerous builds = 29
Setting up run at Mon Dec 26 23:30:59 2022

Memory usage per processor = 960.195 Mbytes
    Step    Atoms         KinEng            CPU 
15637838      443   0.0031799242              0 
15843599      439  0.00075993685      2026.8484 
Loop time of 2026.85 on 40 procs for 205761 steps with 439 atoms, finish time Tue Dec 27 00:04:46 2022


Pair  time (%) = 0.387602 (0.0191234)
Neigh time (%) = 1.34807 (0.0665104)
Comm  time (%) = 2.70832 (0.133622)
Outpt time (%) = 0.000539053 (2.65956e-05)
Other time (%) = 2022.4 (99.7807)

Nlocal:    10.975 ave 185 max 0 min
Histogram: 36 2 0 0 0 0 0 0 1 1
Nghost:    2.375 ave 35 max 0 min
Histogram: 36 0 0 1 1 0 1 0 0 1
Neighs:    0.175 ave 3 max 0 min
Histogram: 37 0 0 1 0 0 0 0 0 2

Total # of neighbors = 7
Ave neighs/atom = 0.0159453
Neighbor list builds = 1611
Dangerous builds = 3
Setting up run at Tue Dec 27 00:04:46 2022

Memory usage per processor = 960.195 Mbytes
    Step    Atoms         KinEng            CPU 
15843599      439  0.00075993685              0 
16049360      436   0.0045453928      2034.6428 
Loop time of 2034.65 on 40 procs for 205761 steps with 436 atoms, finish time Tue Dec 27 00:38:41 2022


Pair  time (%) = 0.388453 (0.0190919)
Neigh time (%) = 2.01866 (0.0992142)
Comm  time (%) = 3.0564 (0.150217)
Outpt time (%) = 0.0101297 (0.00049786)
Other time (%) = 2029.18 (99.731)

Nlocal:    10.9 ave 181 max 0 min
Histogram: 36 2 0 0 0 0 0 0 1 1
Nghost:    2.35 ave 36 max 0 min
Histogram: 35 1 0 2 0 0 1 0 0 1
Neighs:    0.25 ave 7 max 0 min
Histogram: 37 1 1 0 0 0 0 0 0 1

Total # of neighbors = 10
Ave neighs/atom = 0.0229358
Neighbor list builds = 2396
Dangerous builds = 2
Setting up run at Tue Dec 27 00:38:41 2022

Memory usage per processor = 960.195 Mbytes
    Step    Atoms         KinEng            CPU 
16049360      436   0.0045453928              0 
16255121      432    0.021368204      2043.7413 
Loop time of 2043.74 on 40 procs for 205761 steps with 432 atoms, finish time Tue Dec 27 01:12:45 2022


Pair  time (%) = 0.388792 (0.0190236)
Neigh time (%) = 2.62045 (0.128218)
Comm  time (%) = 3.18958 (0.156066)
Outpt time (%) = 0.000483296 (2.36476e-05)
Other time (%) = 2037.54 (99.6967)

Nlocal:    10.8 ave 175 max 0 min
Histogram: 36 2 0 0 0 0 0 0 0 2
Nghost:    2.3 ave 32 max 0 min
Histogram: 35 1 0 2 0 0 0 0 1 1
Neighs:    0.35 ave 9 max 0 min
Histogram: 38 0 0 0 0 1 0 0 0 1

Total # of neighbors = 14
Ave neighs/atom = 0.0324074
Neighbor list builds = 3106
Dangerous builds = 5
Setting up run at Tue Dec 27 01:12:45 2022

Memory usage per processor = 960.195 Mbytes
    Step    Atoms         KinEng            CPU 
16255121      432    0.021368204              0 
16460882      426    0.026316366      2049.6306 
Loop time of 2049.63 on 40 procs for 205761 steps with 426 atoms, finish time Tue Dec 27 01:46:55 2022


Pair  time (%) = 0.398128 (0.0194244)
Neigh time (%) = 3.69985 (0.180513)
Comm  time (%) = 4.62858 (0.225825)
Outpt time (%) = 0.000275992 (1.34655e-05)
Other time (%) = 2040.9 (99.5742)

Nlocal:    10.65 ave 170 max 0 min
Histogram: 35 3 0 0 0 0 0 0 0 2
Nghost:    2.15 ave 32 max 0 min
Histogram: 35 1 0 2 0 0 0 0 1 1
Neighs:    0.325 ave 8 max 0 min
Histogram: 38 0 0 0 0 0 1 0 0 1

Total # of neighbors = 13
Ave neighs/atom = 0.0305164
Neighbor list builds = 4381
Dangerous builds = 161
Setting up run at Tue Dec 27 01:46:55 2022

Memory usage per processor = 960.195 Mbytes
    Step    Atoms         KinEng            CPU 
16460882      426    0.026316366              0 
16666643      419     0.38115429      2051.6365 
Loop time of 2051.64 on 40 procs for 205761 steps with 419 atoms, finish time Tue Dec 27 02:21:06 2022


Pair  time (%) = 0.392478 (0.01913)
Neigh time (%) = 3.41776 (0.166587)
Comm  time (%) = 2.72392 (0.132768)
Outpt time (%) = 0.000574922 (2.80226e-05)
Other time (%) = 2045.1 (99.6815)

Nlocal:    10.475 ave 166 max 0 min
Histogram: 35 3 0 0 0 0 0 0 0 2
Nghost:    2 ave 31 max 0 min
Histogram: 36 0 1 1 0 0 0 0 1 1
Neighs:    0.2 ave 3 max 0 min
Histogram: 37 0 0 0 0 0 1 0 0 2

Total # of neighbors = 8
Ave neighs/atom = 0.0190931
Neighbor list builds = 4048
Dangerous builds = 47
Setting up run at Tue Dec 27 02:21:06 2022

Memory usage per processor = 960.195 Mbytes
    Step    Atoms         KinEng            CPU 
16666643      419     0.38115429              0 
16872404      411    0.060393464      2072.5596 
Loop time of 2072.56 on 40 procs for 205761 steps with 411 atoms, finish time Tue Dec 27 02:55:39 2022


Pair  time (%) = 0.399397 (0.0192707)
Neigh time (%) = 5.37965 (0.259565)
Comm  time (%) = 4.28115 (0.206564)
Outpt time (%) = 0.000312716 (1.50884e-05)
Other time (%) = 2062.5 (99.5146)

Nlocal:    10.275 ave 170 max 0 min
Histogram: 36 2 0 0 0 0 0 0 0 2
Nghost:    2.125 ave 34 max 0 min
Histogram: 36 0 0 2 0 0 0 1 0 1
Neighs:    0.25 ave 5 max 0 min
Histogram: 36 0 2 0 0 0 1 0 0 1

Total # of neighbors = 10
Ave neighs/atom = 0.0243309
Neighbor list builds = 6364
Dangerous builds = 202
Setting up run at Tue Dec 27 02:55:39 2022

Memory usage per processor = 960.195 Mbytes
    Step    Atoms         KinEng            CPU 
16872404      411    0.060393464              0 
17078165      407    0.017316421       2045.172 
Loop time of 2045.17 on 40 procs for 205761 steps with 407 atoms, finish time Tue Dec 27 03:29:44 2022


Pair  time (%) = 0.391934 (0.0191639)
Neigh time (%) = 3.0292 (0.148115)
Comm  time (%) = 3.43901 (0.168152)
Outpt time (%) = 0.000643672 (3.14727e-05)
Other time (%) = 2038.31 (99.6645)

Nlocal:    10.175 ave 164 max 0 min
Histogram: 36 2 0 0 0 0 0 0 0 2
Nghost:    2 ave 30 max 0 min
Histogram: 36 0 0 2 0 0 0 0 1 1
Neighs:    0.175 ave 4 max 0 min
Histogram: 37 0 1 0 0 1 0 0 0 1

Total # of neighbors = 7
Ave neighs/atom = 0.017199
Neighbor list builds = 3592
Dangerous builds = 18
Setting up run at Tue Dec 27 03:29:44 2022

Memory usage per processor = 960.195 Mbytes
    Step    Atoms         KinEng            CPU 
17078165      407    0.017316421              0 
17283926      404    0.016401524      2046.8516 
Loop time of 2046.85 on 40 procs for 205761 steps with 404 atoms, finish time Tue Dec 27 04:03:51 2022


Pair  time (%) = 0.393727 (0.0192357)
Neigh time (%) = 2.59124 (0.126597)
Comm  time (%) = 2.82846 (0.138186)
Outpt time (%) = 0.000626877 (3.06264e-05)
Other time (%) = 2041.04 (99.716)

Nlocal:    10.1 ave 160 max 0 min
Histogram: 36 2 0 0 0 0 0 0 0 2
Nghost:    2.2 ave 30 max 0 min
Histogram: 35 1 0 1 1 0 0 0 0 2
Neighs:    0.2 ave 6 max 0 min
Histogram: 37 2 0 0 0 0 0 0 0 1

Total # of neighbors = 8
Ave neighs/atom = 0.019802
Neighbor list builds = 3073
Dangerous builds = 67
Setting up run at Tue Dec 27 04:03:51 2022

Memory usage per processor = 960.195 Mbytes
    Step    Atoms         KinEng            CPU 
17283926      404    0.016401524              0 
17489687      395    0.014939482      2049.0988 
Loop time of 2049.1 on 40 procs for 205761 steps with 395 atoms, finish time Tue Dec 27 04:38:00 2022


Pair  time (%) = 0.397071 (0.0193779)
Neigh time (%) = 3.6894 (0.18005)
Comm  time (%) = 4.03295 (0.196816)
Outpt time (%) = 0.0011113 (5.42335e-05)
Other time (%) = 2040.98 (99.6037)

Nlocal:    9.875 ave 160 max 0 min
Histogram: 36 2 0 0 0 0 0 0 0 2
Nghost:    2.3 ave 32 max 0 min
Histogram: 36 0 0 2 0 0 0 0 0 2
Neighs:    0.275 ave 9 max 0 min
Histogram: 37 2 0 0 0 0 0 0 0 1

Total # of neighbors = 11
Ave neighs/atom = 0.0278481
Neighbor list builds = 4383
Dangerous builds = 150
Setting up run at Tue Dec 27 04:38:00 2022

Memory usage per processor = 960.195 Mbytes
    Step    Atoms         KinEng            CPU 
17489687      395    0.014939482              0 
17695448      391    0.015854606      2049.6964 
Loop time of 2049.7 on 40 procs for 205761 steps with 391 atoms, finish time Tue Dec 27 05:12:10 2022


Pair  time (%) = 0.39389 (0.019217)
Neigh time (%) = 2.90173 (0.141569)
Comm  time (%) = 3.10852 (0.151658)
Outpt time (%) = 0.000510785 (2.492e-05)
Other time (%) = 2043.29 (99.6875)

Nlocal:    9.775 ave 159 max 0 min
Histogram: 36 2 0 0 0 0 0 0 0 2
Nghost:    2.175 ave 31 max 0 min
Histogram: 36 0 0 2 0 0 0 0 1 1
Neighs:    0.275 ave 8 max 0 min
Histogram: 37 1 1 0 0 0 0 0 0 1

Total # of neighbors = 11
Ave neighs/atom = 0.028133
Neighbor list builds = 3458
Dangerous builds = 3
Setting up run at Tue Dec 27 05:12:10 2022

Memory usage per processor = 960.195 Mbytes
    Step    Atoms         KinEng            CPU 
17695448      391    0.015854606              0 
17901209      388    0.023995367      2039.1161 
Loop time of 2039.12 on 40 procs for 205761 steps with 388 atoms, finish time Tue Dec 27 05:46:09 2022


Pair  time (%) = 0.397371 (0.0194874)
Neigh time (%) = 2.45577 (0.120433)
Comm  time (%) = 3.26616 (0.160175)
Outpt time (%) = 0.000322335 (1.58076e-05)
Other time (%) = 2033 (99.6999)

Nlocal:    9.7 ave 158 max 0 min
Histogram: 36 2 0 0 0 0 0 0 0 2
Nghost:    2.025 ave 29 max 0 min
Histogram: 36 0 0 0 2 0 0 1 0 1
Neighs:    0.225 ave 6 max 0 min
Histogram: 37 1 0 1 0 0 0 0 0 1

Total # of neighbors = 9
Ave neighs/atom = 0.0231959
Neighbor list builds = 2912
Dangerous builds = 2
Setting up run at Tue Dec 27 05:46:09 2022

Memory usage per processor = 960.195 Mbytes
    Step    Atoms         KinEng            CPU 
17901209      388    0.023995367              0 
18106970      383     0.33457937      2037.8757 
Loop time of 2037.88 on 40 procs for 205761 steps with 383 atoms, finish time Tue Dec 27 06:20:07 2022


Pair  time (%) = 0.39569 (0.0194168)
Neigh time (%) = 2.2423 (0.110031)
Comm  time (%) = 3.69268 (0.181202)
Outpt time (%) = 0.000494733 (2.42769e-05)
Other time (%) = 2031.55 (99.6893)

Nlocal:    9.575 ave 156 max 0 min
Histogram: 36 2 0 0 0 0 0 0 0 2
Nghost:    2 ave 26 max 0 min
Histogram: 36 0 0 1 0 1 0 0 0 2
Neighs:    0.1 ave 3 max 0 min
Histogram: 38 0 0 1 0 0 0 0 0 1

Total # of neighbors = 4
Ave neighs/atom = 0.0104439
Neighbor list builds = 2663
Dangerous builds = 0
Setting up run at Tue Dec 27 06:20:07 2022

Memory usage per processor = 960.195 Mbytes
    Step    Atoms         KinEng            CPU 
18106970      383     0.33457937              0 
18312731      380    0.021339594      2042.5648 
Loop time of 2042.57 on 40 procs for 205761 steps with 380 atoms, finish time Tue Dec 27 06:54:10 2022


Pair  time (%) = 0.392346 (0.0192085)
Neigh time (%) = 2.66522 (0.130484)
Comm  time (%) = 3.03033 (0.148359)
Outpt time (%) = 0.00025935 (1.26973e-05)
Other time (%) = 2036.48 (99.7019)

Nlocal:    9.5 ave 157 max 0 min
Histogram: 36 2 0 0 0 0 0 0 0 2
Nghost:    1.8 ave 24 max 0 min
Histogram: 36 0 0 0 1 1 0 0 1 1
Neighs:    0.075 ave 3 max 0 min
Histogram: 39 0 0 0 0 0 0 0 0 1

Total # of neighbors = 3
Ave neighs/atom = 0.00789474
Neighbor list builds = 3164
Dangerous builds = 45
Setting up run at Tue Dec 27 06:54:10 2022

Memory usage per processor = 960.195 Mbytes
    Step    Atoms         KinEng            CPU 
18312731      380    0.021339594              0 
18518492      373     0.01456061      2053.3381 
Loop time of 2053.34 on 40 procs for 205761 steps with 373 atoms, finish time Tue Dec 27 07:28:23 2022


Pair  time (%) = 0.39514 (0.0192438)
Neigh time (%) = 3.32723 (0.16204)
Comm  time (%) = 3.85156 (0.187576)
Outpt time (%) = 0.000597951 (2.91209e-05)
Other time (%) = 2045.76 (99.6311)

Nlocal:    9.325 ave 153 max 0 min
Histogram: 37 1 0 0 0 0 0 0 0 2
Nghost:    1.975 ave 27 max 0 min
Histogram: 35 1 0 0 2 0 0 0 1 1
Neighs:    0.15 ave 5 max 0 min
Histogram: 38 0 1 0 0 0 0 0 0 1

Total # of neighbors = 6
Ave neighs/atom = 0.0160858
Neighbor list builds = 3943
Dangerous builds = 4
Setting up run at Tue Dec 27 07:28:23 2022

Memory usage per processor = 960.195 Mbytes
    Step    Atoms         KinEng            CPU 
18518492      373     0.01456061              0 
18724253      370    0.014514541      2040.6513 
Loop time of 2040.67 on 40 procs for 205761 steps with 370 atoms, finish time Tue Dec 27 08:02:24 2022


Pair  time (%) = 0.393437 (0.0192798)
Neigh time (%) = 2.96831 (0.145458)
Comm  time (%) = 3.24982 (0.159253)
Outpt time (%) = 0.000310881 (1.52343e-05)
Other time (%) = 2034.05 (99.676)

Nlocal:    9.25 ave 155 max 0 min
Histogram: 36 2 0 0 0 0 0 0 0 2
Nghost:    2.025 ave 26 max 0 min
Histogram: 36 0 0 0 0 2 0 0 0 2
Neighs:    0.175 ave 5 max 0 min
Histogram: 37 0 2 0 0 0 0 0 0 1

[...]
Neighbor list builds = 2334
Dangerous builds = 132
Setting up run at Wed Dec 28 16:35:10 2022

Memory usage per processor = 960.195 Mbytes
    Step    Atoms         KinEng            CPU 
30452660      221  0.00031705623              0 
30658421      219  0.00017313771      2025.0843 
Loop time of 2025.1 on 40 procs for 205761 steps with 219 atoms, finish time Wed Dec 28 17:08:55 2022


Pair  time (%) = 0.367371 (0.0181409)
Neigh time (%) = 0.677217 (0.0334412)
Comm  time (%) = 1.32047 (0.0652051)
Outpt time (%) = 0.000495426 (2.44643e-05)
Other time (%) = 2022.74 (99.8832)

Nlocal:    5.475 ave 94 max 0 min
Histogram: 38 0 0 0 0 0 0 0 0 2
Nghost:    1.05 ave 13 max 0 min
Histogram: 34 1 0 2 1 0 0 0 0 2
Neighs:    0.05 ave 2 max 0 min
Histogram: 39 0 0 0 0 0 0 0 0 1

Total # of neighbors = 2
Ave neighs/atom = 0.00913242
Neighbor list builds = 819
Dangerous builds = 2
Setting up run at Wed Dec 28 17:08:55 2022

Memory usage per processor = 960.195 Mbytes
    Step    Atoms         KinEng            CPU 
30658421      219  0.00017313771              0 
30864182      218  0.00016143999      2017.4807 
Loop time of 2017.48 on 40 procs for 205761 steps with 218 atoms, finish time Wed Dec 28 17:42:32 2022


Pair  time (%) = 0.366351 (0.0181588)
Neigh time (%) = 0.455384 (0.0225719)
Comm  time (%) = 0.962919 (0.0477288)
Outpt time (%) = 0.000565588 (2.80344e-05)
Other time (%) = 2015.7 (99.9115)

Nlocal:    5.45 ave 95 max 0 min
Histogram: 38 0 0 0 0 0 0 0 0 2
Nghost:    1 ave 14 max 0 min
Histogram: 35 0 1 1 1 0 1 0 0 1
Neighs:    0.05 ave 2 max 0 min
Histogram: 39 0 0 0 0 0 0 0 0 1

Total # of neighbors = 2
Ave neighs/atom = 0.00917431
Neighbor list builds = 558
Dangerous builds = 1
Setting up run at Wed Dec 28 17:42:32 2022

Memory usage per processor = 960.195 Mbytes
    Step    Atoms         KinEng            CPU 
30864182      218  0.00016143999              0 
31069943      216  0.00020286817      2172.2078 
Loop time of 2172.21 on 40 procs for 205761 steps with 216 atoms, finish time Wed Dec 28 18:18:45 2022


Pair  time (%) = 0.364129 (0.0167631)
Neigh time (%) = 0.450329 (0.0207314)
Comm  time (%) = 1.05635 (0.0486302)
Outpt time (%) = 0.013068 (0.000601601)
Other time (%) = 2170.32 (99.9133)

Nlocal:    5.4 ave 96 max 0 min
Histogram: 38 0 0 0 0 0 0 0 0 2
Nghost:    1.025 ave 17 max 0 min
Histogram: 35 1 1 2 0 0 0 0 0 1
Neighs:    0.025 ave 1 max 0 min
Histogram: 39 0 0 0 0 0 0 0 0 1

Total # of neighbors = 1
Ave neighs/atom = 0.00462963
Neighbor list builds = 552
Dangerous builds = 1
Setting up run at Wed Dec 28 18:18:45 2022

Memory usage per processor = 960.195 Mbytes
    Step    Atoms         KinEng            CPU 
31069943      216  0.00020286817              0 
31275704      214  0.00016077992      2111.7606 
Loop time of 2111.76 on 40 procs for 205761 steps with 214 atoms, finish time Wed Dec 28 18:53:57 2022


Pair  time (%) = 0.365126 (0.0172901)
Neigh time (%) = 0.851933 (0.0403423)
Comm  time (%) = 1.26528 (0.0599161)
Outpt time (%) = 0.000230866 (1.09324e-05)
Other time (%) = 2109.28 (99.8824)

Nlocal:    5.35 ave 96 max 0 min
Histogram: 38 0 0 0 0 0 0 0 0 2
Nghost:    0.975 ave 16 max 0 min
Histogram: 35 1 0 3 0 0 0 0 0 1
Neighs:    0.05 ave 2 max 0 min
Histogram: 39 0 0 0 0 0 0 0 0 1

Total # of neighbors = 2
Ave neighs/atom = 0.00934579
Neighbor list builds = 1026
Dangerous builds = 1
Setting up run at Wed Dec 28 18:53:57 2022

Memory usage per processor = 960.195 Mbytes
    Step    Atoms         KinEng            CPU 
31275704      214  0.00016077992              0 
31481465      213  0.00022263174      2072.9128 
Loop time of 2072.91 on 40 procs for 205761 steps with 213 atoms, finish time Wed Dec 28 19:28:30 2022


Pair  time (%) = 0.361758 (0.0174517)
Neigh time (%) = 0.449209 (0.0216704)
Comm  time (%) = 1.32486 (0.063913)
Outpt time (%) = 0.000568139 (2.74078e-05)
Other time (%) = 2070.78 (99.8969)

Nlocal:    5.325 ave 98 max 0 min
Histogram: 38 0 0 0 0 0 0 0 1 1
Nghost:    0.975 ave 16 max 0 min
Histogram: 34 2 1 1 0 1 0 0 0 1
Neighs:    0.05 ave 2 max 0 min
Histogram: 39 0 0 0 0 0 0 0 0 1

Total # of neighbors = 2
Ave neighs/atom = 0.00938967
Neighbor list builds = 552
Dangerous builds = 1
Setting up run at Wed Dec 28 19:28:30 2022

Memory usage per processor = 960.195 Mbytes
    Step    Atoms         KinEng            CPU 
31481465      213  0.00022263174              0 
31687226      213  0.00018056374      2027.5384 
Loop time of 2027.54 on 40 procs for 205761 steps with 213 atoms, finish time Wed Dec 28 20:02:17 2022


Pair  time (%) = 0.363868 (0.0179463)
Neigh time (%) = 0.826304 (0.0407541)
Comm  time (%) = 1.42292 (0.0701798)
Outpt time (%) = 0.000278608 (1.37412e-05)
Other time (%) = 2024.93 (99.8711)

Nlocal:    5.325 ave 98 max 0 min
Histogram: 37 1 0 0 0 0 0 0 1 1
Nghost:    0.925 ave 16 max 0 min
Histogram: 34 2 2 0 1 0 0 0 0 1
Neighs:    0.05 ave 2 max 0 min
Histogram: 39 0 0 0 0 0 0 0 0 1

Total # of neighbors = 2
Ave neighs/atom = 0.00938967
Neighbor list builds = 994
Dangerous builds = 0
Setting up run at Wed Dec 28 20:02:17 2022

Memory usage per processor = 960.195 Mbytes
    Step    Atoms         KinEng            CPU 
31687226      213  0.00018056374              0 
31892987      213    0.027711579      2044.1986 
Loop time of 2044.2 on 40 procs for 205761 steps with 213 atoms, finish time Wed Dec 28 20:36:22 2022


Pair  time (%) = 0.36613 (0.0179107)
Neigh time (%) = 2.09554 (0.102512)
Comm  time (%) = 2.36971 (0.115924)
Outpt time (%) = 0.000579878 (2.8367e-05)
Other time (%) = 2039.37 (99.7636)

Nlocal:    5.325 ave 100 max 0 min
Histogram: 38 0 0 0 0 0 0 0 1 1
Nghost:    1.025 ave 17 max 0 min
Histogram: 34 2 2 0 0 1 0 0 0 1
Neighs:    0.05 ave 2 max 0 min
Histogram: 39 0 0 0 0 0 0 0 0 1

Total # of neighbors = 2
Ave neighs/atom = 0.00938967
Neighbor list builds = 2491
Dangerous builds = 0
Setting up run at Wed Dec 28 20:36:22 2022

Memory usage per processor = 960.195 Mbytes
    Step    Atoms         KinEng            CPU 
31892987      213    0.027711579              0 
32098748      211   0.0045795644      2061.5961 
Loop time of 2061.64 on 40 procs for 205761 steps with 211 atoms, finish time Wed Dec 28 21:10:43 2022


Pair  time (%) = 0.364917 (0.0177003)
Neigh time (%) = 1.72093 (0.083474)
Comm  time (%) = 2.09886 (0.101806)
Outpt time (%) = 0.000284671 (1.3808e-05)
Other time (%) = 2057.45 (99.797)

Nlocal:    5.275 ave 98 max 0 min
Histogram: 37 1 0 0 0 0 0 0 1 1
Nghost:    1.025 ave 16 max 0 min
Histogram: 34 2 2 0 0 0 1 0 0 1
Neighs:    0.05 ave 2 max 0 min
Histogram: 39 0 0 0 0 0 0 0 0 1

Total # of neighbors = 2
Ave neighs/atom = 0.00947867
Neighbor list builds = 2050
Dangerous builds = 2
Setting up run at Wed Dec 28 21:10:43 2022

Memory usage per processor = 960.195 Mbytes
    Step    Atoms         KinEng            CPU 
32098748      211   0.0045795644              0 
32304509      208  0.00045100649      2050.8173 
Loop time of 2050.82 on 40 procs for 205761 steps with 208 atoms, finish time Wed Dec 28 21:44:54 2022


Pair  time (%) = 0.367805 (0.0179346)
Neigh time (%) = 1.39855 (0.0681946)
Comm  time (%) = 1.55759 (0.0759499)
Outpt time (%) = 0.000618948 (3.01805e-05)
Other time (%) = 2047.49 (99.8379)

Nlocal:    5.2 ave 96 max 0 min
Histogram: 38 0 0 0 0 0 0 0 1 1
Nghost:    1.1 ave 15 max 0 min
Histogram: 34 1 2 1 0 0 0 0 0 2
Neighs:    0.025 ave 1 max 0 min
Histogram: 39 0 0 0 0 0 0 0 0 1

Total # of neighbors = 1
Ave neighs/atom = 0.00480769
Neighbor list builds = 1675
Dangerous builds = 103
Setting up run at Wed Dec 28 21:44:54 2022

Memory usage per processor = 960.195 Mbytes
    Step    Atoms         KinEng            CPU 
32304509      208  0.00045100649              0 
32510270      207   0.0075394803      2076.2691 
Loop time of 2076.27 on 40 procs for 205761 steps with 207 atoms, finish time Wed Dec 28 22:19:30 2022


Pair  time (%) = 0.370406 (0.01784)
Neigh time (%) = 1.99012 (0.0958509)
Comm  time (%) = 1.5548 (0.0748845)
Outpt time (%) = 0.000590412 (2.84362e-05)
Other time (%) = 2072.35 (99.8114)

Nlocal:    5.175 ave 96 max 0 min
Histogram: 38 0 0 0 0 0 0 0 1 1
Nghost:    0.975 ave 13 max 0 min
Histogram: 34 1 1 2 0 0 0 0 0 2
Neighs:    0.075 ave 2 max 0 min
Histogram: 38 0 0 0 0 1 0 0 0 1

Total # of neighbors = 3
Ave neighs/atom = 0.0144928
Neighbor list builds = 2370
Dangerous builds = 1
Setting up run at Wed Dec 28 22:19:31 2022

Memory usage per processor = 960.195 Mbytes
    Step    Atoms         KinEng            CPU 
32510270      207   0.0075394803              0 
32716031      205  0.00026547109       2042.427 
Loop time of 2042.43 on 40 procs for 205761 steps with 205 atoms, finish time Wed Dec 28 22:53:33 2022


Pair  time (%) = 0.371995 (0.0182134)
Neigh time (%) = 2.52746 (0.123748)
Comm  time (%) = 1.71538 (0.0839874)
Outpt time (%) = 0.00025674 (1.25704e-05)
Other time (%) = 2037.81 (99.774)

Nlocal:    5.125 ave 97 max 0 min
Histogram: 38 0 0 0 0 0 0 0 1 1
Nghost:    0.95 ave 17 max 0 min
Histogram: 34 2 2 0 1 0 0 0 0 1
Neighs:    0.1 ave 3 max 0 min
Histogram: 38 0 0 1 0 0 0 0 0 1

Total # of neighbors = 4
Ave neighs/atom = 0.0195122
Neighbor list builds = 2998
Dangerous builds = 2
Setting up run at Wed Dec 28 22:53:33 2022

Memory usage per processor = 960.195 Mbytes
    Step    Atoms         KinEng            CPU 
32716031      205  0.00026547109              0 
32921792      204  0.00018430403      2023.8181 
Loop time of 2023.82 on 40 procs for 205761 steps with 204 atoms, finish time Wed Dec 28 23:27:17 2022


Pair  time (%) = 0.367216 (0.0181447)
Neigh time (%) = 0.557323 (0.0275382)
Comm  time (%) = 0.910581 (0.0449932)
Outpt time (%) = 0.000521384 (2.57624e-05)
Other time (%) = 2021.98 (99.9093)

Nlocal:    5.1 ave 95 max 0 min
Histogram: 38 0 0 0 0 0 0 0 1 1
Nghost:    0.975 ave 16 max 0 min
Histogram: 34 2 1 1 0 1 0 0 0 1
Neighs:    0.125 ave 5 max 0 min
Histogram: 39 0 0 0 0 0 0 0 0 1

Total # of neighbors = 5
Ave neighs/atom = 0.0245098
Neighbor list builds = 679
Dangerous builds = 1
Setting up run at Wed Dec 28 23:27:17 2022

Memory usage per processor = 960.195 Mbytes
    Step    Atoms         KinEng            CPU 
32921792      204  0.00018430403              0 
33127553      202    0.000174532       2024.302 
Loop time of 2024.3 on 40 procs for 205761 steps with 202 atoms, finish time Thu Dec 29 00:01:01 2022


Pair  time (%) = 0.367431 (0.018151)
Neigh time (%) = 0.927979 (0.0458419)
Comm  time (%) = 1.15037 (0.0568282)
Outpt time (%) = 0.00027183 (1.34283e-05)
Other time (%) = 2021.86 (99.8792)

Nlocal:    5.05 ave 94 max 0 min
Histogram: 38 0 0 0 0 0 0 0 1 1
Nghost:    0.95 ave 12 max 0 min
Histogram: 34 0 1 2 1 0 0 0 1 1
Neighs:    0.15 ave 6 max 0 min
Histogram: 39 0 0 0 0 0 0 0 0 1

Total # of neighbors = 6
Ave neighs/atom = 0.029703
Neighbor list builds = 1116
Dangerous builds = 2
Setting up run at Thu Dec 29 00:01:01 2022

Memory usage per processor = 960.195 Mbytes
    Step    Atoms         KinEng            CPU 
33127553      202    0.000174532              0 
33333314      202  0.00016920971      2015.6573 
Loop time of 2015.66 on 40 procs for 205761 steps with 202 atoms, finish time Thu Dec 29 00:34:37 2022


Pair  time (%) = 0.362895 (0.0180038)
Neigh time (%) = 0.54911 (0.0272422)
Comm  time (%) = 1.20705 (0.0598839)
Outpt time (%) = 0.000615112 (3.05167e-05)
Other time (%) = 2013.54 (99.8948)

Nlocal:    5.05 ave 92 max 0 min
Histogram: 38 0 0 0 0 0 0 0 1 1
Nghost:    0.9 ave 12 max 0 min
Histogram: 34 0 3 1 0 0 0 0 0 2
Neighs:    0.175 ave 6 max 0 min
Histogram: 38 1 0 0 0 0 0 0 0 1

Total # of neighbors = 7
Ave neighs/atom = 0.0346535
Neighbor list builds = 669
Dangerous builds = 0
Setting up run at Thu Dec 29 00:34:37 2022

Memory usage per processor = 960.195 Mbytes
    Step    Atoms         KinEng            CPU 
33333314      202  0.00016920971              0 
33539075      201  0.00030096679      2027.2206 
Loop time of 2027.24 on 40 procs for 205761 steps with 201 atoms, finish time Thu Dec 29 01:08:24 2022


Pair  time (%) = 0.364691 (0.0179895)
Neigh time (%) = 0.865735 (0.0427051)
Comm  time (%) = 1.6546 (0.0816182)
Outpt time (%) = 0.000104258 (5.14287e-06)
Other time (%) = 2024.36 (99.8577)

Nlocal:    5.025 ave 91 max 0 min
Histogram: 38 0 0 0 0 0 0 0 0 2
Nghost:    0.95 ave 14 max 0 min
Histogram: 34 0 4 0 0 0 0 1 0 1
Neighs:    0.1 ave 4 max 0 min
Histogram: 39 0 0 0 0 0 0 0 0 1

Total # of neighbors = 4
Ave neighs/atom = 0.0199005
Neighbor list builds = 1041
Dangerous builds = 1
Setting up run at Thu Dec 29 01:08:24 2022

Memory usage per processor = 960.195 Mbytes
    Step    Atoms         KinEng            CPU 
33539075      201  0.00030096679              0 
33744836      199  0.00016491351      2026.6704 
Loop time of 2026.67 on 40 procs for 205761 steps with 199 atoms, finish time Thu Dec 29 01:42:11 2022


Pair  time (%) = 0.366339 (0.0180759)
Neigh time (%) = 1.44091 (0.0710972)
Comm  time (%) = 1.96636 (0.0970243)
Outpt time (%) = 0.000563785 (2.78183e-05)
Other time (%) = 2022.9 (99.8138)

Nlocal:    4.975 ave 87 max 0 min
srun: Job step aborted: Waiting up to 62 seconds for job step to finish.
slurmstepd: error: *** JOB 14676807 ON r02c05 CANCELLED AT 2022-12-29T03:43:25 DUE TO TIME LIMIT ***
slurmstepd: error: *** STEP 14676807.0 ON r02c05 CANCELLED AT 2022-12-29T03:43:25 DUE TO TIME LIMIT ***

SIGINT/SIGTERM caught - Writing restart on next occasion and quitting after that.
Histogram: 38 0 0 0 0 0 0 0 0 
SIGINT/SIGTERM caught - Writing restart on next occasion and quitting after that.

SIGINT/SIGTERM caught - Writing restart on next occasion and quitting after that.

SIGINT/SIGTERM caught - Writing restart on next occasion and quitting after that.

SIGINT/SIGTERM caught - Writing restart on next occasion and quitting after that.

SIGINT/SIGTERM caught - Writing restart on next occasion and quitting after that.

SIGINT/SIGTERM caught - Writing restart on next occasion and quitting after that.

SIGINT/SIGTERM caught - Writing restart on next occasion and quitting after that.

SIGINT/SIGTERM caught - Writing restart on next occasion and quitting after that.

SIGINT/SIGTERM caught - Writing restart on next occasion and quitting after that.

SIGINT/SIGTERM caught - Writing restart on next occasion and quitting after that.

SIGINT/SIGTERM caught - Writing restart on next occasion and quitting after that.

SIGINT/SIGTERM caught - Writing restart on next occasion and quitting after that.

SIGINT/SIGTERM caught - Writing restart on next occasion and quitting after that.

SIGINT/SIGTERM caught - Writing restart on next occasion and quitting after that.

SIGINT/SIGTERM caught - Writing restart on next occasion and quitting after that.

SIGINT/SIGTERM caught - Writing restart on next occasion and quitting after that.

SIGINT/SIGTERM caught - Writing restart on next occasion and quitting after that.

SIGINT/SIGTERM caught - Writing restart on next occasion and quitting after that.

SIGINT/SIGTERM caught - Writing restart on next occasion and quitting after that.

SIGINT/SIGTERM caught - Writing restart on next occasion and quitting after that.

SIGINT/SIGTERM caught - Writing restart on next occasion and quitting after that.

SIGINT/SIGTERM caught - Writing restart on next occasion and quitting after that.

SIGINT/SIGTERM caught - Writing restart on next occasion and quitting after that.

SIGINT/SIGTERM caught - Writing restart on next occasion and quitting after that.

SIGINT/SIGTERM caught - Writing restart on next occasion and quitting after that.

SIGINT/SIGTERM caught - Writing restart on next occasion and quitting after that.

SIGINT/SIGTERM caught - Writing restart on next occasion and quitting after that.

SIGINT/SIGTERM caught - Writing restart on next occasion and quitting after that.

SIGINT/SIGTERM caught - Writing restart on next occasion and quitting after that.

SIGINT/SIGTERM caught - Writing restart on next occasion and quitting after that.

SIGINT/SIGTERM caught - Writing restart on next occasion and quitting after that.

SIGINT/SIGTERM caught - Writing restart on next occasion and quitting after that.

SIGINT/SIGTERM caught - Writing restart on next occasion and quitting after that.

SIGINT/SIGTERM caught - Writing restart on next occasion and quitting after that.

SIGINT/SIGTERM caught - Writing restart on next occasion and quitting after that.

SIGINT/SIGTERM caught - Writing restart on next occasion and quitting after that.

SIGINT/SIGTERM caught - Writing restart on next occasion and quitting after that.

SIGINT/SIGTERM caught - Writing restart on next occasion and quitting after that.

SIGINT/SIGTERM caught - Writing restart on next occasion and quitting after that.

SIGINT/SIGTERM caught - Writing restart on next occasion and quitting after that.

SIGINT/SIGTERM caught - Writing restart on next occasion and quitting after that.

SIGINT/SIGTERM caught - Writing restart on next occasion and quitting after that.

SIGINT/SIGTERM caught - Writing restart on next occasion and quitting after that.

SIGINT/SIGTERM caught - Writing restart on next occasion and quitting after that.

SIGINT/SIGTERM caught - Writing restart on next occasion and quitting after that.

SIGINT/SIGTERM caught - Writing restart on next occasion and quitting after that.

SIGINT/SIGTERM caught - Writing restart on next occasion and quitting after that.

SIGINT/SIGTERM caught - Writing restart on next occasion and quitting after that.

SIGINT/SIGTERM caught - Writing restart on next occasion and quitting after that.

SIGINT/SIGTERM caught - Writing restart on next occasion and quitting after that.

SIGINT/SIGTERM caught - Writing restart on next occasion and quitting after that.

SIGINT/SIGTERM caught - Writing restart on next occasion and quitting after that.

SIGINT/SIGTERM caught - Writing restart on next occasion and quitting after that.

SIGINT/SIGTERM caught - Writing restart on next occasion and quitting after that.

SIGINT/SIGTERM caught - Writing restart on next occasion and quitting after that.

SIGINT/SIGTERM caught - Writing restart on next occasion and quitting after that.

SIGINT/SIGTERM caught - Writing restart on next occasion and quitting after that.

SIGINT/SIGTERM caught - Writing restart on next occasion and quitting after that.

SIGINT/SIGTERM caught - Writing restart on next occasion and quitting after that.

SIGINT/SIGTERM caught - Writing restart on next occasion and quitting after that.

SIGINT/SIGTERM caught - Writing restart on next occasion and quitting after that.

SIGINT/SIGTERM caught - Writing restart on next occasion and quitting after that.

SIGINT/SIGTERM caught - Writing restart on next occasion and quitting after that.

SIGINT/SIGTERM caught - Writing restart on next occasion and quitting after that.

SIGINT/SIGTERM caught - Writing restart on next occasion and quitting after that.

SIGINT/SIGTERM caught - Writing restart on next occasion and quitting after that.

SIGINT/SIGTERM caught - Writing restart on next occasion and quitting after that.

SIGINT/SIGTERM caught - Writing restart on next occasion and quitting after that.

SIGINT/SIGTERM caught - Writing restart on next occasion and quitting after that.

SIGINT/SIGTERM caught - Writing restart on next occasion and quitting after that.

SIGINT/SIGTERM caught - Writing restart on next occasion and quitting after that.

SIGINT/SIGTERM caught - Writing restart on next occasion and quitting after that.

SIGINT/SIGTERM caught - Writing restart on next occasion and quitting after that.

SIGINT/SIGTERM caught - Writing restart on next occasion and quitting after that.

SIGINT/SIGTERM caught - Writing restart on next occasion and quitting after that.

SIGINT/SIGTERM caught - Writing restart on next occasion and quitting after that.

SIGINT/SIGTERM caught - Writing restart on next occasion and quitting after that.

SIGINT/SIGTERM caught - Writing restart on next occasion and quitting after that.

SIGINT/SIGTERM caught - Writing restart on next occasion and quitting after that.
