ITEM: TIMESTEP
7407362
ITEM: NUMBER OF ATOMS
440
ITEM: BOX BOUNDS ff ff ff
-0.15 0.15
-0.15 0.15
-0.15 0.15
ITEM: ATOMS id type x y z radius vx vy vz density 
321 1 -0.00176788 -0.0296286 -0.0681383 0.000847 -37.9394 -3.98091 0.983809 2650 
459 1 -0.00510379 -0.00807598 -0.0679621 0.000847 -20.6621 -1.86149 1.55149 2650 
259 1 -0.0119377 -0.0225224 -0.067723 0.000233 -39.9021 -5.98569 7.03346 2650 
125 1 -0.0214556 -0.0164447 -0.064703 0.000847 -42.4242 0.278273 14.0599 2650 
454 1 -0.0324768 -0.0164276 -0.0606149 0.000233 -25.3305 -8.40006 13.5714 2650 
488 1 -0.03788 -0.0562375 -0.0566635 0.000847 -19.8045 -2.59484 13.2306 2650 
463 1 -0.0363952 -0.00244168 -0.0576214 0.000847 -4.19782 5.62421 2.65187 2650 
337 1 -0.0384302 -0.0610518 -0.0553851 0.000233 -26.883 3.21949 39.4864 2650 
20 1 -0.0438916 -0.0401451 -0.052163 0.000847 -32.165 2.76798 27.0482 2650 
100 1 -0.0477789 -0.0250071 -0.0486308 0.000847 -31 8.38812 30.4386 2650 
474 1 -0.0494093 -0.0147803 -0.0469823 0.000847 -35.6478 2.46893 37.468 2650 
278 1 -0.0500579 -0.0473295 -0.0462786 0.000847 -26.1102 -3.95839 28.2249 2650 
305 1 -0.049708 -0.0388964 -0.0466434 0.000847 -17.4181 -0.390272 18.5494 2650 
151 1 -0.0523748 -0.0298534 -0.0436297 0.000847 -16.049 3.72698 19.2522 2650 
124 1 -0.0362172 -0.0590137 -0.041224 0.000847 -76.7211 -26.7579 8.23694 2650 
219 1 -0.0570656 -0.0496787 -0.0383769 0.000233 -11.8814 -6.53627 17.6634 2650 
114 1 -0.0580084 -0.0417544 -0.0369378 0.000233 -18.6907 -5.50897 29.3462 2650 
372 1 -0.0605826 -0.0131963 -0.0312609 0.000847 -12.8132 -4.54034 24.8148 2650 
230 1 -0.0662301 -0.0044576 -0.0161766 0.000847 -7.12989 -2.60749 29.1759 2650 
239 1 -0.0666345 -0.021029 -0.0144167 0.000847 -5.86959 0.526638 27.1114 2650 
26 1 -0.001949 -0.00278396 -0.014832 0.000233 0 -0.01175 0 2650 
424 1 -0.0675115 -0.00857434 -0.00951983 0.000847 -4.6395 -2.99556 32.8807 2650 
118 1 -0.0398447 -0.00431664 -0.00961288 0.000233 -6.18728 -0.112061 -1.49274 2650 
164 1 -0.00870766 -0.00136518 -0.0106588 0.000847 0.00294994 -0.0207008 -0.00755046 2650 
86 1 -0.00293359 -0.00321062 -0.00873716 0.000847 0.0650709 -0.0493894 0.0825401 2650 
232 1 -0.00914463 -0.00289729 -0.00820808 0.000233 -0.0528774 -0.0211419 0.0182398 2650 
449 1 -0.00387118 -0.000594368 -0.00852356 0.000847 -0.00134785 0.026508 0.0317889 2650 
347 1 -0.00821273 -0.00196996 -0.00652622 0.000847 0.00610495 -0.0199663 -8.64862e-05 2650 
483 1 -0.010366 -0.000995965 -0.006716 8.4e-05 0 -0.01175 0 2650 
51 1 -0.00927552 -0.000507839 -0.00660548 0.000233 -0.0152548 -0.0128778 0.00110874 2650 
136 1 -0.00329535 -0.000360492 -0.00682905 0.000847 0.00874069 0.00171183 0.0423767 2650 
286 1 -0.016281 -0.000763965 -0.003576 0.000233 0 -0.01175 0 2650 
306 1 -0.011393 -0.00138996 -0.004559 0.000847 0 -0.01175 0 2650 
84 1 -0.00492398 -0.000790142 -0.00203755 0.000847 -0.000691888 -0.0111714 0.000314706 2650 
480 1 -0.0042338 -0.00151438 -0.00247001 0.000233 -0.0243277 -0.0296104 -0.0270468 2650 
115 1 -0.0136542 -0.000313884 -0.000665731 0.000233 -0.0260951 -0.0168939 -0.0244494 2650 
384 1 -0.000988777 -0.000219108 0.00126697 0.000847 0.00453983 1.76909e-05 0.0213336 2650 
250 1 -0.0676688 -0.0337441 0.00303653 0.001312 1.49649 -1.41779 33.3205 2650 
294 1 -0.0681289 -0.00999482 0.00257155 0.000847 1.0536 0.164071 27.896 2650 
440 1 -0.0150454 -0.000596693 0.00312193 0.000233 0.00637766 0.0032616 -0.0067895 2650 
323 1 -0.008651 -0.000470965 0.002916 0.000233 0 -0.01175 0 2650 
218 1 -0.012593 -0.00309196 0.003611 0.000233 0 -0.01175 0 2650 
441 1 -0.014312 -0.000332965 0.004679 0.000233 0 -0.01175 0 2650 
302 1 -0.0111793 -0.000737743 0.00429789 0.001312 0.00298532 -0.0131639 0.00478809 2650 
264 1 -0.003065 -0.00235296 0.00492 0.000847 0 -0.01175 0 2650 
274 1 -0.005863 -0.000557965 0.005228 0.000233 0 -0.01175 0 2650 
411 1 -0.0677505 -0.0230909 0.00762118 0.000847 3.281 -5.57133 29.1487 2650 
41 1 -0.008377 -0.000283965 0.009542 8.4e-05 0 -0.01175 0 2650 
350 1 -0.001594 -0.00212096 0.011915 0.000233 0 -0.01175 0 2650 
451 1 -0.0026322 -0.00232737 0.0132631 0.000847 0.00714752 -0.00865095 -0.0225037 2650 
311 1 -0.0623222 -0.0527275 0.0142992 0.000233 -1.21022 3.31814 -0.984037 2650 
9 1 -0.00121053 -0.00264843 0.014738 0.000233 0.000476754 -0.0220523 -0.00164228 2650 
322 1 -0.0599415 -0.0538073 0.0266168 0.000233 5.32042 4.78958 -1.05309 2650 
141 1 -0.0607517 -0.0614254 0.0279836 0.000233 -9.77991 5.07257 1.83016 2650 
429 1 -0.028299 -0.0236755 0.0381763 0.000233 3.30721 19.8963 -10.2984 2650 
317 1 -0.0539981 -0.0267757 0.0416094 0.000847 18.0648 2.05677 23.4276 2650 
380 1 -0.0513138 -0.050448 0.0441817 0.001312 15.7458 -0.534941 18.2688 2650 
269 1 -0.048419 -0.0450616 0.0479787 0.000847 17.0314 0.599674 17.1754 2650 
97 1 -0.0444131 -0.0394737 0.051708 0.000847 19.8802 5.01117 17.0636 2650 
481 1 -0.0303026 -0.0369467 0.0617305 0.000233 23.5387 5.69543 11.5547 2650 
378 1 -0.0260252 -0.0612002 0.0636719 0.000233 114.938 13.2743 45.6814 2650 
231 1 -0.0279926 -0.0573452 0.0628187 0.000233 96.7492 24.9554 43.104 2650 
410 1 -0.0213691 -0.0487486 0.0630339 0.000847 54.1434 21.0495 16.2192 2650 
251 1 -0.0226922 -0.0542805 0.0642429 0.000847 6.84037 3.33419 3.05198 2650 
113 1 -0.0611527 -0.0483818 0.030122 0.000847 7.77807 4.37134 15.7799 2650 
234 1 -0.00271201 0.00519101 -0.0162264 0.000233 0.00666386 0.0113116 0.0110827 2650 
395 1 -0.00496835 0.000387389 -0.0152135 0.000847 0.0155312 -0.00706574 -0.00529493 2650 
233 1 -0.00513951 0.00151544 -0.014247 0.000233 0.0138699 -0.00603489 0.0127794 2650 
224 1 -0.00300464 0.00155963 -0.0151699 0.001312 0.0152846 -0.00356374 0.00365726 2650 
501 1 -0.00530285 0.00314261 -0.0146771 0.000847 -0.000104806 -0.0104483 -0.00932042 2650 
49 1 -0.006313 0.00363004 -0.014865 0.000233 0 -0.01175 0 2650 
309 1 -0.005736 0.00731604 -0.014845 0.000233 0 -0.01175 0 2650 
228 1 -0.000982115 0.0100141 -0.0157894 0.000847 0.0445879 0.048566 -0.000578394 2650 
48 1 -0.0066411 0.0206816 -0.0145698 0.000847 -0.0324849 0.118816 0.0124538 2650 
362 1 -0.00774633 0.0250506 -0.0148901 0.000233 -0.126792 0.295598 0.0971242 2650 
29 1 -0.00770959 0.000771651 -0.0130379 0.001312 0.00663445 -0.00752509 -0.00023339 2650 
36 1 -0.008519 0.00386004 -0.013643 0.000233 0 -0.01175 0 2650 
143 1 -0.00771198 0.0103176 -0.0138687 0.000233 -0.0282935 0.0190951 0.0124684 2650 
60 1 -0.00386035 0.018304 -0.0139837 0.000847 0.0356032 0.101387 0.0278718 2650 
444 1 -0.000349898 0.0184404 -0.0139241 8.4e-05 -0.00448298 0.0465385 0.0015305 2650 
482 1 -0.00887526 0.0256231 -0.0126598 0.000233 0.000351426 0.0488467 0.0205314 2650 
137 1 -0.00508546 0.0377988 -0.0129448 0.000847 -0.19203 0.0915619 -0.0273588 2650 
121 1 -0.00354194 0.0018638 -0.0114914 0.001312 -0.0288712 0.00259566 -0.01163 2650 
95 1 -0.00621934 0.00339654 -0.0126181 0.001312 0.00564422 -0.00172366 -0.00320696 2650 
287 1 -0.00432143 0.00353084 -0.0117511 0.000233 -0.0235473 0.0143795 -0.0120124 2650 
209 1 -0.00202617 0.00628858 -0.0110641 0.000233 -0.00376604 -0.010128 -0.00102716 2650 
129 1 -0.00728551 0.00661131 -0.0126297 0.000233 -0.147959 0.0631033 0.0640647 2650 
68 1 -0.0108512 0.00966744 -0.0111702 0.001312 -0.0552362 0.0426669 0.0349767 2650 
16 1 -0.00112663 0.0182422 -0.0117636 0.001312 0.000470666 0.0868073 0.0200211 2650 
271 1 -0.005149 0.000993035 -0.010304 0.000233 0 -0.01175 0 2650 
37 1 -0.00981832 0.00210035 -0.0105524 0.000233 -0.0127272 -0.0577541 0.0288901 2650 
158 1 -0.00523612 0.00308756 -0.00958906 8.4e-05 -0.0101756 -0.0104479 -0.0186654 2650 
13 1 -0.012448 0.00477304 -0.010914 8.4e-05 0 -0.01175 0 2650 
69 1 -0.00919795 0.0057176 -0.0110508 0.001312 0.00992811 0.00274044 -0.00857288 2650 
392 1 -0.00394004 0.00517734 -0.00959021 8.4e-05 0.000331427 -0.0128363 0.000109303 2650 
147 1 -0.0041251 0.00654941 -0.00997741 0.001312 0.00123508 -0.0125911 -0.000576614 2650 
146 1 -0.000412904 0.00649314 -0.0104137 0.001312 -0.000280084 0.00152135 0.00293787 2650 
517 1 -0.00991966 0.033952 -0.010584 0.000233 -0.142003 0.117395 0.101908 2650 
468 1 -0.0101498 0.000290897 -0.00914493 0.000233 0.00112078 -0.0133423 -0.00397386 2650 
407 1 -0.00463508 0.00215787 -0.00837317 0.000847 -0.0221087 -0.0025042 0.0107174 2650 
336 1 -0.000699 0.00211004 -0.008095 0.000233 0 -0.01175 0 2650 
289 1 -0.010561 0.00401806 -0.00918864 0.001312 0.00966218 0.00533267 0.00455192 2650 
348 1 -0.011402 0.00630904 -0.008993 0.000233 0 -0.01175 0 2650 
455 1 -0.00218855 0.00543028 -0.00867788 0.000233 0.00963311 0.0266332 -0.00092845 2650 
332 1 -0.013253 0.00750404 -0.008686 0.000847 0 -0.01175 0 2650 
66 1 -0.0120704 0.0271196 -0.00865903 0.000233 -0.00952687 0.0365334 -0.00433662 2650 
72 1 -0.00720763 0.027658 -0.00870563 0.000847 -0.0206207 0.0396561 -0.0248414 2650 
102 1 -0.0141901 0.0515423 -0.00853909 0.000233 -0.236953 0.0596372 0.443783 2650 
464 1 -3.2e-05 0.00596404 -0.007535 0.000233 0 -0.01175 0 2650 
273 1 -0.0031662 0.0105129 -0.00784841 0.000233 -0.0203117 0.004391 0.0297204 2650 
418 1 -0.0149489 0.0269368 -0.00742591 8.4e-05 -0.043396 0.0428729 0.0904788 2650 
175 1 -0.00163547 0.00381442 -0.00541645 0.000847 -0.0389808 0.00131595 0.0250148 2650 
7 1 -0.000161234 0.00532724 -0.005656 0.000847 -0.0393875 0.0162705 0.0139075 2650 
216 1 -0.00132322 0.0125871 -0.00629541 0.000847 0.00347878 0.0283419 0.0066285 2650 
416 1 -0.0154899 0.0572503 -0.00562807 0.000233 0.0518203 0.0696163 -0.100027 2650 
316 1 -0.0134766 0.00226603 -0.00393441 0.000847 0.0223463 -0.0186785 0.0439202 2650 
145 1 -0.007489 0.00575604 -0.00326 8.4e-05 0 -0.01175 0 2650 
512 1 -0.0050036 0.00804342 -0.00455792 0.000847 -0.00493027 0.00614677 0.0142848 2650 
199 1 -0.00356151 0.0199405 -0.00447295 0.001312 0.00543624 0.0453565 0.000480051 2650 
213 1 -0.00335587 0.0365966 -0.00455448 0.000847 -0.0502713 0.0685319 -0.0328655 2650 
248 1 -0.00172109 0.0515519 -0.0045998 0.000233 -0.0748911 0.224852 -0.134008 2650 
168 1 -0.011097 0.000548035 -0.001986 0.000233 0 -0.01175 0 2650 
505 1 -0.0118434 0.00280702 -0.00217791 0.000233 0.00279447 0.0119381 -0.000228879 2650 
266 1 -0.00852286 0.00359314 -0.00189537 0.000847 0.0311196 0.0215292 0.0429926 2650 
312 1 -0.006897 0.00426404 -0.002463 0.000233 0 -0.01175 0 2650 
399 1 -0.00283 0.00438404 -0.001648 0.000847 0 -0.01175 0 2650 
478 1 -0.00981396 0.00529781 -0.00165939 0.000233 0.00552025 0.0369228 0.0361556 2650 
285 1 -0.004117 0.00533904 -0.002186 0.000233 0 -0.01175 0 2650 
204 1 -0.005796 0.00682204 -0.002651 0.000847 0 -0.01175 0 2650 
214 1 -0.001591 0.00739904 -0.002687 0.000847 0 -0.01175 0 2650 
63 1 -0.000147 0.00761704 -0.0027 0.000233 0 -0.01175 0 2650 
201 1 -0.005857 0.000943035 -0.001367 0.000847 0 -0.01175 0 2650 
208 1 -0.003072 0.00238204 -0.000554 0.000233 0 -0.01175 0 2650 
75 1 -0.004976 0.00575004 -0.001105 0.000233 0 -0.01175 0 2650 
486 1 -0.00292226 0.00914064 -0.000508566 0.000847 -0.0499905 0.0464493 -0.0336395 2650 
301 1 -0.000387397 0.00836243 -0.000455327 8.4e-05 0.014617 0.0250478 -0.00677003 2650 
373 1 -0.015091 0.00198204 0.000947 0.000847 0 -0.01175 0 2650 
504 1 -0.012481 0.00696804 0.001551 0.000233 0 -0.01175 0 2650 
364 1 -0.0139 0.000191035 0.002152 0.000233 0 -0.01175 0 2650 
174 1 -0.001898 0.00476304 0.003155 0.000847 0 -0.01175 0 2650 
242 1 -0.010702 0.00483104 0.00289 0.000847 0 -0.01175 0 2650 
376 1 -0.005395 0.00524004 0.002758 0.000233 0 -0.01175 0 2650 
188 1 -0.00304528 0.0253865 0.0023191 0.000847 0.00797073 0.0304807 0.00488408 2650 
206 1 -0.002945 0.000337035 0.003686 0.000233 0 -0.01175 0 2650 
467 1 -0.00102502 0.000826898 0.00423478 0.000233 0.0227308 -0.0271844 -0.0914335 2650 
345 1 -0.0132475 0.00205062 0.0036709 0.000847 -0.0113075 0.0166541 0.0207274 2650 
156 1 -0.015257 0.00634904 0.00371 0.000233 0 -0.01175 0 2650 
131 1 -0.009967 0.00509004 0.004313 0.000233 0 -0.01175 0 2650 
116 1 -0.000454299 0.00492688 0.00410252 0.000233 -0.00943145 0.0184853 0.0180497 2650 
77 1 -0.0128556 0.00726519 0.00365616 0.000233 -0.0334701 0.0659132 0.104386 2650 
374 1 -0.006913 0.00789504 0.00361 0.000233 0 -0.01175 0 2650 
296 1 -0.002285 0.00692904 0.004233 0.000233 0 -0.01175 0 2650 
470 1 -0.008539 0.00798804 0.004033 8.4e-05 0 -0.01175 0 2650 
195 1 -0.014509 0.000648035 0.005621 0.000233 0 -0.01175 0 2650 
135 1 -0.008556 0.00222304 0.005239 0.000847 0 -0.01175 0 2650 
431 1 -0.007173 0.00171104 0.006023 8.4e-05 0 -0.01175 0 2650 
223 1 -0.014414 0.00438204 0.005039 8.4e-05 0 -0.01175 0 2650 
56 1 -0.011864 0.00374004 0.004858 0.001312 0 -0.01175 0 2650 
469 1 -0.012765 0.00562904 0.005129 0.000233 0 -0.01175 0 2650 
90 1 -0.009269 0.00587204 0.005356 0.000233 0 -0.01175 0 2650 
361 1 -0.0121649 0.00734914 0.00530408 0.000233 -0.0291914 0.0105081 0.000889413 2650 
235 1 -0.0118181 0.00702357 0.00491832 0.000233 -0.0335927 0.00126052 -0.0733235 2650 
244 1 -0.002251 0.00745004 0.006118 0.000233 0 -0.01175 0 2650 
172 1 -0.000380148 0.00638578 0.00621582 0.001312 0.00248751 -0.0107109 0.000689174 2650 
96 1 -7.1e-05 0.000902035 0.006733 0.000847 0 -0.01175 0 2650 
283 1 -0.00727 0.00339804 0.006824 0.000233 0 -0.01175 0 2650 
256 1 -0.00540409 0.0037568 0.00761568 0.000847 -0.00426754 -0.0114665 0.00611625 2650 
369 1 -0.008047 0.00578704 0.006729 0.000847 0 -0.01175 0 2650 
45 1 -0.00532035 0.00660524 0.00688536 0.000847 0.0044998 0.000426046 -0.0418261 2650 
22 1 -0.00347558 0.00687098 0.00766669 0.000233 -0.00493111 -0.00829639 -0.00924296 2650 
196 1 -0.0103548 0.0125379 0.00679361 0.000233 -0.0447891 0.0557647 -0.0590804 2650 
87 1 -0.000974331 0.0278677 0.00768192 0.000847 -0.0284966 0.0364342 0.00984131 2650 
88 1 -0.010473 0.00328004 0.008034 0.000233 0 -0.01175 0 2650 
130 1 -0.004749 0.00348104 0.009456 0.000233 0 -0.01175 0 2650 
417 1 -0.001923 0.00354704 0.008831 0.000233 0 -0.01175 0 2650 
475 1 -0.0081222 0.00680653 0.00935321 0.000847 -0.0124637 -0.00576061 -0.00444211 2650 
152 1 -0.00184753 0.0069134 0.00813971 0.000847 -0.0018724 -0.0107873 0.000558582 2650 
402 1 -0.011085 0.0127593 0.00873113 0.000233 0.106373 0.32843 0.354143 2650 
178 1 -0.00211021 0.0127967 0.00905064 0.000847 -0.00914058 0.0242794 -0.00257282 2650 
18 1 -0.00965561 0.0145529 0.00894166 0.000847 -0.0407813 0.100332 -0.0350021 2650 
176 1 -0.003497 0.00174204 0.009518 0.000847 0 -0.01175 0 2650 
509 1 -0.001563 0.00313604 0.010036 8.4e-05 0 -0.01175 0 2650 
267 1 -0.00835384 0.00378764 0.00965224 0.000847 -0.000518959 -0.0127069 -4.23421e-05 2650 
291 1 -0.00232074 0.00846432 0.0102418 0.000847 -0.00126071 0.00240356 0.000411461 2650 
25 1 -0.0136896 0.0545728 0.00947641 0.000233 -0.140161 0.0999638 -0.161224 2650 
226 1 -0.005007 0.00333904 0.011519 0.000847 0 -0.01175 0 2650 
128 1 -0.003888 0.00502204 0.011415 0.000233 0 -0.01175 0 2650 
313 1 -0.004641 0.00766804 0.011299 0.000233 0 -0.01175 0 2650 
430 1 -0.0113283 0.0266648 0.0119401 0.000233 -0.0556575 0.0319476 -0.0484815 2650 
180 1 -0.005697 0.00224204 0.013052 0.000233 0 -0.01175 0 2650 
379 1 -0.006906 0.00425304 0.013866 8.4e-05 0 -0.01175 0 2650 
443 1 -0.004264 0.00372104 0.013262 0.000233 0 -0.01175 0 2650 
40 1 -0.010923 0.0353071 0.0679066 0.000233 164.071 -12.4148 26.388 2650 
245 1 -0.0594432 0.129674 -0.0345898 0.000233 -43.8833 0.00481456 75.402 2650 
365 1 -0.000742166 0.082928 -0.0163138 0.000233 -0.0419099 0.297329 -0.00500676 2650 
42 1 -0.0672123 0.0801338 0.00824097 0.001312 -0.00783403 -0.290292 -0.0638196 2650 
487 1 0.00117604 -0.0158697 -0.0681491 0.000847 -34.7382 0.63194 -0.599175 2650 
253 1 0.00118898 -0.00399856 -0.0681426 0.000847 -1.0699 5.29718 -0.0630848 2650 
85 1 0.00576531 -0.024221 -0.0679146 0.000847 -33.8664 1.58866 -2.87345 2650 
461 1 0.00893628 -0.00381177 -0.0675649 0.000847 -18.2334 -0.612071 -2.41144 2650 
489 1 0.0174283 -0.0335369 -0.0658972 0.000847 -37.282 -4.39626 -9.85452 2650 
434 1 0.0200423 -0.0394837 -0.0644566 0.000847 7.2499 -0.548584 1.61264 2650 
327 1 0.0301454 -0.0277909 -0.0619731 8.4e-05 -32.239 -6.94628 -15.6819 2650 
396 1 0.0374959 -0.0165348 -0.0569212 0.000847 -23.1505 -0.927941 -15.2398 2650 
385 1 0.041432 -0.0456299 -0.0541305 0.000847 -27.4276 5.03994 -20.9798 2650 
159 1 0.0438372 -0.051636 -0.0516179 0.001312 -26.6743 1.74269 -22.6318 2650 
173 1 0.0452818 -0.055316 -0.0503382 0.001312 -14.4464 2.89511 -12.8384 2650 
393 1 0.0463175 -0.0108806 -0.0493675 0.001312 -2.63167 0.335415 -2.4656 2650 
448 1 0.0474302 -0.0554675 -0.0488688 0.000847 -12.1449 0.548264 -12.052 2650 
31 1 0.0515345 -0.0224921 -0.0446131 0.000847 -10.9349 -2.79437 -12.6215 2650 
161 1 0.0520991 -0.0197915 -0.0439857 0.000847 -34.9132 4.49545 -41.3352 2650 
82 1 0.0566 -0.0257548 -0.0371913 0.001312 -17.0543 -3.98216 -25.9034 2650 
297 1 0.0168457 -0.024383 -0.034537 0.000233 -0.572825 -7.54433 8.14975 2650 
117 1 0.0511519 -0.0324174 -0.019197 0.000233 -1.26121 9.10691 -9.09867 2650 
360 1 0.0648598 -0.0246522 -0.0210041 0.000847 -9.04685 -1.41944 -27.9181 2650 
52 1 0.0656203 -0.0240135 -0.0205797 0.000233 -8.77814 -1.69542 -27.9841 2650 
357 1 0.002883 -0.00135396 -0.015739 0.000847 0 -0.01175 0 2650 
153 1 0.00567631 -0.00136426 -0.0130454 0.000233 -0.0108825 -0.00589899 -0.00750993 2650 
134 1 0.0025141 -0.00180269 -0.0083045 0.001312 -0.0678222 -0.000270169 0.0437224 2650 
389 1 0.011221 -0.00191096 -0.009451 0.000233 0 -0.01175 0 2650 
370 1 0.013063 -0.00178941 -0.0083383 0.000847 -0.00770907 -0.0168879 -0.0166299 2650 
93 1 0.0107701 -0.0010682 -0.0090793 8.4e-05 -0.0114059 -0.00928271 0.00571047 2650 
307 1 0.0677807 -0.00775073 -0.00597144 0.000847 0.17814 -2.5429 -28.8284 2650 
268 1 0.011061 -0.00244085 -0.00509461 0.000847 -0.0123929 -0.00834987 0.00498623 2650 
496 1 0.00971603 -0.000250711 -0.00557378 8.4e-05 0.0105932 -0.00476339 -0.00841698 2650 
34 1 0.0282021 -0.00595921 -0.00221751 0.000847 3.64277 -0.32967 -0.27225 2650 
184 1 0.0118686 -0.00166446 -0.00166332 8.4e-05 0.00213366 -0.0270273 -0.0563182 2650 
477 1 0.000187 -0.00138296 -0.00227 0.000233 0 -0.01175 0 2650 
408 1 0.0115621 -0.00066871 -0.00279292 0.000847 -0.00476941 -0.0331821 -0.0305448 2650 
35 1 0.0145575 -0.000725198 -0.00158657 0.000847 0.0137041 -0.00179888 -0.0059487 2650 
122 1 0.00795422 -0.00123568 -0.00156714 0.000847 -0.0197573 -0.0400741 -0.0276809 2650 
427 1 0.01258 -0.00223296 0.000348 0.000233 0 -0.01175 0 2650 
165 1 0.0142186 -0.00117565 0.000601079 0.000847 0.00261058 -0.011203 -0.00119124 2650 
189 1 0.000904399 -0.00188997 0.00307846 0.000847 0.00883009 -0.0154017 -0.00701291 2650 
485 1 0.0130998 -0.00178009 0.00199797 0.000847 0.0077744 -0.0150287 0.00812522 2650 
123 1 0.0150221 -0.00283 0.00202429 0.000847 0.0153827 -0.0102235 0.0150565 2650 
497 1 0.00966042 -0.0012314 0.00167111 0.001312 -0.0015356 -0.0133887 -0.00949776 2650 
111 1 0.0118202 -0.00247212 0.00319473 0.000847 0.000505467 -0.0199332 0.00072474 2650 
432 1 0.0114971 -0.000635644 0.00431381 0.001312 0.00643948 -0.0128727 -0.00560793 2650 
70 1 0.0150355 -0.000749099 0.00364397 0.000847 0.000321679 -0.0120015 -0.000394665 2650 
92 1 0.0685451 -0.0278496 0.00558355 0.000233 2.10623 -7.08881 -25.8514 2650 
358 1 0.0680455 -0.0225929 0.0044101 0.000847 3.15668 6.0853 -48.677 2650 
249 1 0.008036 -0.00324196 0.006254 8.4e-05 0 -0.01175 0 2650 
106 1 0.00181 -0.00230996 0.00562 8.4e-05 0 -0.01175 0 2650 
428 1 0.013534 -0.00122496 0.00562 0.000233 0 -0.01175 0 2650 
24 1 0.004515 -0.00172996 0.007639 0.000233 0 -0.01175 0 2650 
10 1 0.00074 -0.00231196 0.009007 0.000233 0 -0.01175 0 2650 
298 1 0.011042 -0.00168996 0.009111 0.000233 0 -0.01175 0 2650 
190 1 0.0668389 -0.0399302 0.0134961 0.000847 9.74704 16.0698 -48.2437 2650 
185 1 0.0630123 -0.0267197 0.0248983 0.001312 18.435 7.65791 -46.6165 2650 
320 1 0.0314856 -0.0539903 0.0310426 0.000847 -21.3228 6.31674 0.26592 2650 
439 1 0.0596966 -0.0149329 0.0341409 0.000233 4.01479 -1.46064 -7.01832 2650 
150 1 0.0588596 -0.0482775 0.0344011 0.000847 17.9204 0.183119 -30.6419 2650 
155 1 0.05858 -0.0455298 0.0360233 0.000233 9.75554 -2.49782 -15.8605 2650 
205 1 0.0490338 -0.0530158 0.048216 0.000233 18.354 -9.44456 -18.6609 2650 
21 1 0.0374628 -0.00220953 0.0569455 0.000847 26.616 -1.27668 -17.4985 2650 
498 1 0.0334158 -0.0286365 0.0594115 0.000847 30.5395 -5.42614 -17.1662 2650 
257 1 0.0309307 -0.00333916 0.0614201 0.000233 15.7122 -0.727965 -8.65674 2650 
315 1 0.0235899 -0.0456497 0.0634617 0.001312 27.7955 -0.0184457 -10.3227 2650 
101 1 0.0187423 -0.0181539 0.0661637 0.000233 -30.0895 2.97957 8.52387 2650 
314 1 0.0180505 -0.0055209 0.0665101 8.4e-05 30.2055 -4.26651 -8.19764 2650 
324 1 0.0520874 0.0693022 -0.0405174 0.000233 0.788412 0.217994 -0.728956 2650 
67 1 0.000179497 0.0215621 -0.0161072 8.4e-05 -0.0356435 0.0913984 0.000213815 2650 
32 1 0.0038492 0.000143594 -0.0147708 0.000847 0.0162916 -0.0203213 0.0431087 2650 
160 1 0.000494705 0.00175635 -0.0148359 0.001312 -0.0107933 0.00984247 0.00807333 2650 
133 1 0.00304151 0.00388122 -0.0149541 0.001312 0.0157168 0.00188383 0.0104294 2650 
422 1 0.00121062 0.00496949 -0.0142915 0.000847 0.00261428 0.010291 -0.0107677 2650 
177 1 0.00270811 0.012798 -0.0157347 0.000847 -0.0205877 0.0384321 -0.00268157 2650 
198 1 0.00194657 0.0147863 -0.015371 0.001312 0.0524803 0.0635744 0.0280105 2650 
222 1 0.00429736 0.0265849 -0.015111 0.000233 -0.0404047 0.0139169 0.0287244 2650 
210 1 0.0106468 0.00427926 -0.0130434 8.4e-05 -0.0143787 -0.0035462 -0.00725523 2650 
342 1 0.00262126 0.00526547 -0.0130088 0.000847 -0.00766555 -0.0104026 -0.00218953 2650 
12 1 0.00628447 0.00503523 -0.0135948 0.000233 0.00566753 -0.00227241 -0.0203052 2650 
412 1 0.00794625 0.00493877 -0.0138875 0.000847 -0.00829823 0.00396163 0.000195754 2650 
246 1 0.000489771 0.00664731 -0.0135722 0.000233 -0.0147987 0.0224734 -0.0124453 2650 
435 1 0.00886428 0.00869214 -0.0132997 0.000847 0.106625 0.01202 0.0283651 2650 
366 1 0.00978859 0.00934914 -0.0135868 8.4e-05 0.150388 0.0904745 -0.00158177 2650 
330 1 0.00712785 0.001975 -0.0116281 0.000847 0.0144085 -0.000789678 0.0630225 2650 
404 1 0.00970583 0.00215897 -0.0115119 0.000233 -0.00316587 0.0021107 -0.00847545 2650 
343 1 0.000958482 0.00323676 -0.0117345 0.000847 0.0381553 -0.0242356 -0.00307729 2650 
423 1 0.00590905 0.0047198 -0.0126201 0.000847 -0.0173451 0.0225444 -0.0146849 2650 
397 1 0.00837703 0.00408505 -0.0124251 0.000847 0.0103943 0.0356711 0.0253993 2650 
276 1 0.0103663 0.00428133 -0.0115371 0.001312 -0.00672955 0.00215973 0.00387187 2650 
139 1 0.00112416 0.00590955 -0.012536 0.000847 -0.00690897 0.00134139 -0.0118715 2650 
207 1 0.00818731 0.00714691 -0.011931 0.000233 0.0493513 -0.0314029 0.0896341 2650 
58 1 0.00927346 0.00887715 -0.0112511 0.000847 -0.00510424 0.0130184 0.00389156 2650 
356 1 0.0093378 0.0100893 -0.0124519 0.000847 0.0266879 0.0551314 0.041101 2650 
94 1 0.00523317 0.0117708 -0.0124159 0.001312 0.0116197 0.0134919 0.0120908 2650 
351 1 0.00330359 0.0144493 -0.0119857 0.000233 0.00409184 0.0180406 0.0328294 2650 
215 1 0.00806984 0.0221315 -0.012362 0.000847 0.0288634 0.0974978 -0.0278846 2650 
522 1 0.00650418 0.000271001 -0.0103463 8.4e-05 -0.00153634 -0.0105192 -0.000356333 2650 
157 1 0.006689 0.000649035 -0.009595 0.000233 0 -0.01175 0 2650 
144 1 0.000616 0.00168904 -0.009639 0.000233 0 -0.01175 0 2650 
325 1 0.00906624 0.00171915 -0.010839 0.000233 -0.0191333 0.000891146 0.00113125 2650 
163 1 0.0125566 0.00410742 -0.00984404 0.000847 0.0139495 0.0172959 0.0083165 2650 
405 1 0.001255 0.00497204 -0.009572 8.4e-05 0 -0.01175 0 2650 
386 1 0.00276817 0.00545007 -0.0104113 0.000847 -0.00543116 0.00150974 0.0125299 2650 
109 1 0.00550579 0.00554483 -0.0109522 0.000847 -0.00745721 0.00702426 0.0143526 2650 
212 1 0.00304339 0.00769862 -0.0107727 0.001312 -0.00202731 0.00384595 0.00280795 2650 
5 1 0.00907179 0.00744164 -0.0102109 0.000847 0.0185014 -0.00727221 -0.00067177 2650 
502 1 0.0126046 0.00859356 -0.00996253 0.000847 0.0115853 -0.0203459 -0.000448224 2650 
30 1 0.0112373 0.0109237 -0.0097595 0.001312 0.00868722 0.00269266 0.0173448 2650 
28 1 0.0136767 0.0128254 -0.00983724 8.4e-05 0.0223778 0.046202 0.0112656 2650 
368 1 0.000621581 0.019864 -0.0104079 0.000847 0.0335713 0.0207598 0.00538703 2650 
425 1 0.003338 0.0193206 -0.0100135 0.000847 -0.00166981 0.0212448 -0.0293284 2650 
3 1 0.00375365 0.029952 -0.0104047 0.000847 0.0277643 0.0375434 0.0182655 2650 
65 1 0.00448859 1.1742e-05 -0.00942953 0.000233 -0.0210085 -0.00352818 -0.0999383 2650 
447 1 0.010065 0.000191035 -0.009246 0.000847 0 -0.01175 0 2650 
371 1 0.0133924 0.000335995 -0.0081271 0.000847 -0.000440737 -0.00775639 -0.00237121 2650 
284 1 0.00851541 0.00190906 -0.00847638 0.000233 -0.0288039 0.00640103 -0.00556492 2650 
110 1 0.0113144 0.00232976 -0.00943465 0.000847 -0.00258723 0.0128236 0.0226012 2650 
282 1 0.00271857 0.0037052 -0.00886359 0.000847 0.0027139 0.00714723 0.0207536 2650 
377 1 0.00711512 0.00718717 -0.00824546 0.000233 0.0415982 -0.0120429 -0.0489663 2650 
437 1 0.0106653 0.00979044 -0.00799688 0.000847 -0.00606222 0.00475138 0.0153351 2650 
391 1 0.00264828 0.0117302 -0.00880117 0.000233 0.0202642 0.019737 -0.00497997 2650 
154 1 0.00976405 0.0650969 -0.00915457 0.000233 -0.00924804 0.118602 0.00100956 2650 
217 1 0.0039135 0.00717496 -0.00752457 0.000847 -0.00257813 0.0141642 0.0271072 2650 
494 1 0.0139895 0.00666619 -0.00647726 0.000233 0.037224 -0.0112905 0.0187645 2650 
400 1 0.008609 0.00822904 -0.006808 0.000233 0 -0.01175 0 2650 
81 1 0.0122801 0.00899346 -0.00671952 0.001312 0.0160362 0.00928093 0.0001286 2650 
53 1 0.00551834 0.0111825 -0.0067558 0.000233 0.411778 0.286223 0.10075 2650 
6 1 0.0142732 0.0226468 -0.00746614 0.000847 -0.0605537 0.0977883 0.0740468 2650 
495 1 0.00876844 0.000494392 -0.00492604 0.000233 -0.0216097 -0.00536975 0.0219754 2650 
187 1 0.012624 0.00290127 -0.00520962 0.000847 -0.0115691 0.002587 0.00246969 2650 
255 1 0.00719682 0.00762235 -0.00581189 0.000847 0.00927062 0.0132388 0.00289052 2650 
510 1 0.0147928 0.0069519 -0.0048194 0.001312 0.00126411 -0.00204436 0.00599752 2650 
493 1 0.0133668 0.011226 -0.00622482 0.000233 0.0250922 0.00444056 -0.00491334 2650 
108 1 0.0132134 0.0125527 -0.00486494 0.001312 0.0057297 0.0115343 0.00599647 2650 
363 1 0.0156422 0.0125347 -0.00508112 0.000233 0.00192331 0.0066355 -0.0107033 2650 
457 1 0.00614257 0.0142242 -0.00613941 8.4e-05 0.00801527 0.0347161 0.0147456 2650 
403 1 0.0149932 0.0152477 -0.00620772 0.000233 -0.00418647 0.0229299 -0.0160901 2650 
15 1 0.0111429 0.0233649 -0.00575648 0.001312 0.12009 0.199897 0.00543468 2650 
227 1 0.0143818 0.00459077 -0.0036742 0.000847 0.0173286 -0.0211435 0.00444258 2650 
27 1 0.00966 0.00624504 -0.004536 8.4e-05 0 -0.01175 0 2650 
105 1 0.00021 0.00772504 -0.003991 0.000233 0 -0.01175 0 2650 
292 1 0.00782927 0.00789202 -0.00426269 0.000847 0.00648836 -0.00784046 0.0121195 2650 
413 1 0.00265783 0.00870791 -0.00404096 0.000233 0.0222149 0.0129815 0.00213247 2650 
211 1 0.00348349 0.0172625 -0.00317656 0.001312 -0.00854215 0.0127125 -0.0169799 2650 
462 1 0.015477 0.0252837 -0.00427006 0.000847 -0.0312723 0.056654 -0.179095 2650 
279 1 0.0152164 0.0494826 -0.00335016 0.000847 -0.00852572 0.0529766 -0.101055 2650 
11 1 0.015764 0.00159404 -0.002545 0.000233 0 -0.01175 0 2650 
471 1 0.0107404 0.00243349 -0.00179745 0.001312 -0.0120318 -0.00960886 0.0186928 2650 
142 1 0.00234816 0.00332754 -0.00175048 0.000233 0.0135531 0.00148188 -0.000636612 2650 
14 1 0.00984618 0.00477894 -0.00264625 8.4e-05 0.0151231 -0.000355747 0.0254789 2650 
388 1 0.0144382 0.00598988 -0.0018108 0.000233 0.00816597 -0.00260384 0.0151025 2650 
80 1 0.000184 0.00770004 -0.002772 8.4e-05 0 -0.01175 0 2650 
398 1 0.0156902 0.00862142 -0.00264018 0.000847 -0.00348009 0.00393025 0.0039623 2650 
74 1 0.00709071 0.0097328 -0.00188696 0.000847 -0.00423609 0.00905328 0.00538328 2650 
421 1 0.0123113 0.00129473 -0.000718918 0.000847 0.012782 -0.0188981 -0.0191095 2650 
17 1 0.00401317 0.00513444 -0.00119849 0.000847 -0.000232265 -0.01105 -0.00146143 2650 
303 1 0.00667422 0.0049521 -0.00154696 0.000847 -0.0243874 -0.00390663 -0.0345654 2650 
99 1 0.0132342 0.00492904 -0.00108315 0.000847 -0.00818105 0.00676204 0.00817814 2650 
426 1 0.00833152 0.00736905 -0.00123009 0.000233 0.0105999 0.00435667 -0.0329317 2650 
304 1 0.016052 0.00924204 -4.72839e-05 0.000847 -0.0211455 0.0299501 0.0714087 2650 
383 1 0.0132006 0.0119286 -0.00101695 0.000847 -0.0178103 0.00948738 0.00375842 2650 
506 1 0.0155923 0.0181574 -0.00015891 0.000233 -0.00220319 0.0243737 0.0201119 2650 
79 1 0.016092 0.047861 -0.000372348 0.000233 0.0969445 0.177517 0.105172 2650 
192 1 0.0166311 0.0487874 -0.000806145 0.000233 0.0107378 0.275961 -0.24951 2650 
220 1 0.004447 6.90353e-05 0.000291 0.000233 0 -0.01175 0 2650 
438 1 0.0126844 0.00411588 0.000298189 0.000847 -0.000200046 -0.00136623 0.0100425 2650 
8 1 0.000475294 0.00902655 0.000799605 0.000233 -0.0377859 0.00117362 -0.00427534 2650 
126 1 0.0115594 0.0154176 0.00153405 0.000847 0.0106797 0.0135435 0.0243174 2650 
112 1 0.00449688 0.018893 0.00114651 0.000847 -0.0490865 0.0478398 0.0760703 2650 
319 1 0.0159435 0.0397533 0.00134318 0.000847 0.00936349 0.2165 -0.220055 2650 
492 1 0.00753845 0.00310617 0.0026551 0.000233 -0.0187418 -0.0143038 0.0254154 2650 
50 1 0.0115687 0.00283603 0.00240925 0.000233 -0.00146534 -0.00851253 -0.00219049 2650 
270 1 1.57939e-05 0.00422633 0.00232303 0.000233 -0.0377887 -0.0230306 0.00455896 2650 
132 1 0.013326 0.00377104 0.002036 8.4e-05 0 -0.01175 0 2650 
225 1 0.00304837 0.00628636 0.00180716 0.001312 0.0399339 0.00329371 0.0628268 2650 
499 1 0.0086945 0.00533692 0.00167716 0.000847 0.00865988 -0.0127153 -0.00711987 2650 
472 1 0.0118061 0.00500187 0.00194073 0.000847 -0.00350701 -0.00246584 0.00758633 2650 
83 1 0.0135301 0.00683913 0.0029018 0.000847 -0.000379633 -0.00951986 -0.000817454 2650 
39 1 0.015601 0.00773753 0.00176562 0.000233 -0.00365969 0.00520383 0.0309193 2650 
515 1 0.00191727 0.00857475 0.00227759 0.000847 -0.0340626 0.0307427 0.0234515 2650 
265 1 0.00600722 0.00918133 0.00187893 0.000847 -0.022085 0.0136966 -0.0282445 2650 