ITEM: TIMESTEP
14814722
ITEM: NUMBER OF ATOMS
283
ITEM: BOX BOUNDS ff ff ff
-0.15 0.15
-0.15 0.15
-0.15 0.15
ITEM: ATOMS id type x y z radius vx vy vz density 
411 1 -0.0149946 -0.0547108 -0.0664862 0.000847 -27.1214 4.34203 6.11394 2650 
34 1 -0.0117313 -0.0197698 -0.0671781 0.000847 -80.4756 6.16284 14.0468 2650 
336 1 -0.00563477 -0.00464191 -0.0645469 0.000233 0.0700284 -0.0949441 1.26789 2650 
371 1 -0.0268675 -0.0333548 -0.0626358 0.000847 -20.1324 -4.7097 8.6321 2650 
381 1 -0.0331457 -0.0247616 -0.059562 0.000847 -29.9651 -2.23314 16.6649 2650 
343 1 -0.0359127 -0.0608256 -0.0579327 0.000847 -24.3379 -5.86384 15.0773 2650 
164 1 -0.0379857 -0.0274342 -0.0566034 0.000847 -32.1064 -3.36108 21.5329 2650 
263 1 -0.0445781 -0.0398798 -0.0500818 0.001312 -22.053 6.72852 21.7747 2650 
357 1 -0.0482869 -0.0492109 -0.0474242 0.000847 -44.5438 -35.4595 43.4479 2650 
231 1 -0.0534093 -0.0329985 -0.0433203 0.000233 -16.3697 13.6832 20.1775 2650 
251 1 -0.0552252 -0.0610901 -0.0399695 0.000847 -19.0144 -5.85541 26.2559 2650 
512 1 -0.0554306 -0.0514813 -0.0396434 0.000847 -16.7165 8.84621 23.7251 2650 
212 1 -0.0564041 -0.0592725 -0.0374772 0.001312 -15.6619 -2.05337 23.5412 2650 
93 1 -0.0575944 -0.0305509 -0.0378475 8.4e-05 -15.6968 -11.006 23.8845 2650 
370 1 -0.000344575 -0.0402407 -0.0681542 0.000847 -26.7352 -1.54867 0.135085 2650 
307 1 -0.00724611 -0.0603074 -0.028296 0.000847 -6.78703 0.0105008 1.77715 2650 
201 1 -0.0598477 -0.0588532 -0.0170175 0.000847 16.2796 15.9374 22.3679 2650 
49 1 -0.006313 -0.00200993 -0.014865 0.000233 0 -0.01175 0 2650 
36 1 -0.008519 -0.00177993 -0.013643 0.000233 0 -0.01175 0 2650 
501 1 -0.00329727 -0.00109834 -0.0139276 0.000847 0.00466299 -0.00865284 0.00279295 2650 
393 1 -0.0675143 -0.0476659 -0.00617084 0.001312 -7.00527 6.2486 76.5872 2650 
13 1 -0.012448 -0.000866929 -0.010914 8.4e-05 0 -0.01175 0 2650 
392 1 -0.00378095 -0.000984052 -0.00953775 8.4e-05 0.000331427 -0.0128363 0.000109303 2650 
135 1 -0.0677214 -0.0171172 -0.0078471 0.000847 -2.48863 -1.98429 21.4622 2650 
65 1 -0.0141654 -0.00308666 -0.0075395 0.000233 -0.01522 -0.00877562 0.0324898 2650 
86 1 -0.0681758 -0.0607547 0.000391082 0.000847 0.153075 0.70774 26.6733 2650 
73 1 -0.0681616 -0.0458615 0.00149554 0.000847 0.640452 0.683197 29.1725 2650 
495 1 -0.00160414 -0.00208307 0.00562207 0.000233 -0.0216097 -0.00536975 0.0219754 2650 
283 1 -0.00727 -0.00224193 0.006824 0.000233 0 -0.01175 0 2650 
88 1 -0.010473 -0.00235993 0.008034 0.000233 0 -0.01175 0 2650 
130 1 -0.004749 -0.00215893 0.009456 0.000233 0 -0.01175 0 2650 
37 1 -0.0672245 -0.0575178 0.0145244 0.000233 18.0392 -9.28253 83.479 2650 
256 1 -0.00745249 -0.00174706 0.0105515 0.000847 -0.00426754 -0.0114665 0.00611625 2650 
128 1 -0.003888 -0.000617929 0.011415 0.000233 0 -0.01175 0 2650 
443 1 -0.004264 -0.00191893 0.013262 0.000233 0 -0.01175 0 2650 
98 1 -0.00808761 -0.000780392 0.0128752 0.000847 -0.140283 -0.0757298 -0.157546 2650 
379 1 -0.006906 -0.00138693 0.013866 8.4e-05 0 -0.01175 0 2650 
406 1 -0.000471778 -0.000643602 0.0156151 0.001312 -0.0453658 -0.0282102 -0.00896864 2650 
133 1 -0.0652826 -0.0500185 0.0180187 0.001312 5.79206 2.19389 20.9636 2650 
111 1 -0.0648281 -0.0420526 0.0210958 0.000847 7.80118 3.83994 23.9571 2650 
203 1 -0.0587618 -0.0179194 0.0345649 0.000847 16.39 -7.68732 27.8457 2650 
271 1 -0.0256995 -0.0604428 0.0334832 0.000233 6.36621 1.88588 -60.293 2650 
189 1 -0.0562656 -0.0547839 0.0384782 0.000847 7.8942 -1.15762 11.5344 2650 
295 1 -0.0548989 -0.0232188 0.040411 0.000847 15.3572 0.475687 20.8484 2650 
364 1 -0.0558227 -0.0191425 0.0401641 0.000233 20.2041 -0.636635 28.075 2650 
144 1 -0.0557116 -0.0126024 0.0403177 0.000233 18.3732 0.0590746 25.3828 2650 
274 1 -0.0532578 -0.047426 0.0435067 0.000233 18.5094 4.5773 22.6528 2650 
250 1 -0.0390933 -0.0174368 0.0536131 0.001312 10.0127 2.01946 21.728 2650 
417 1 -0.0424372 -0.0100866 0.0541119 0.000233 24.7633 3.70202 19.4167 2650 
317 1 -0.0387936 -0.00745605 0.0560476 0.000847 25.3794 -4.0418 17.5681 2650 
422 1 -0.0383376 -0.0486272 0.0565108 0.000847 13.8962 -6.38818 7.16626 2650 
298 1 -0.0385193 -0.00894239 0.0568963 0.000233 24.6729 -8.22508 18.5831 2650 
380 1 -0.0368341 -0.0017099 0.0568156 0.001312 19.031 -2.35955 12.3716 2650 
219 1 -0.0373698 -0.0129939 0.057727 0.000233 19.2977 -3.69998 12.4921 2650 
173 1 -0.0338529 -0.0123215 0.0586305 0.001312 20.6825 2.15516 11.93 2650 
306 1 -0.0311727 -0.0288188 0.0606163 0.000847 28.9782 -3.78907 14.8934 2650 
160 1 -0.0265037 -0.0240692 0.0589876 0.001312 -1.01606 -1.10898 1.37094 2650 
84 1 -0.0276918 -0.0492534 0.062282 0.000847 29.0197 6.73975 12.8948 2650 
438 1 -0.0275704 -0.0284676 0.062338 0.000847 32.0604 4.53711 14.1708 2650 
497 1 -0.0261125 -0.0214414 0.0624712 0.001312 29.9332 -0.274868 12.5003 2650 
302 1 -0.0183896 -0.0572045 0.0651765 0.001312 41.4977 1.12664 11.6986 2650 
451 1 -0.015447 -0.051636 0.0663845 0.000847 30.1589 -3.29574 7.014 2650 
421 1 -0.00881007 -0.0344603 0.0675873 0.000847 33.6782 0.815873 4.38768 2650 
175 1 -0.0648186 0.0502155 -0.0213227 0.000847 -35.5096 8.95857 107.898 2650 
184 1 -0.00100719 0.0189169 -0.0165884 8.4e-05 0.402836 -0.0314155 -0.0108073 2650 
423 1 -0.00254856 0.0149916 -0.0148911 0.000847 -0.0178625 0.0203904 0.00404334 2650 
246 1 -0.00546025 0.0170047 -0.0144956 0.000233 -0.0101735 0.0207499 0.00780821 2650 
165 1 -0.00766652 0.000589293 -0.0140314 0.000847 -0.0872704 0.00898753 0.0383767 2650 
70 1 -0.00933307 0.00360493 -0.0129028 0.000847 -0.107161 0.0123058 0.0792817 2650 
420 1 -0.00880538 0.0228003 -0.0134439 0.000847 -0.452024 -0.179706 0.336353 2650 
486 1 -0.00796638 0.0439195 -0.0138829 0.000847 0.102112 0.294955 0.0086335 2650 
121 1 -0.00828981 0.000604638 -0.0115173 0.001312 -0.00793663 -0.00217034 0.00116333 2650 
287 1 -0.00473559 0.0132719 -0.0120546 0.000233 0.000141444 0.0205559 -0.000128638 2650 
158 1 -0.0102385 0.00112373 -0.0110248 8.4e-05 -0.000728497 -0.00305337 0.0122284 2650 
325 1 -0.000117691 0.0021469 -0.010296 0.000233 -0.0191333 0.000891146 0.00113125 2650 
72 1 -0.00604141 0.0443475 -0.00955152 0.000847 0.0131193 0.0325042 0.0089407 2650 
18 1 -0.0125135 0.0605507 -0.0100516 0.000847 0.0243505 0.0916471 -0.0349811 2650 
348 1 -0.011402 0.000669071 -0.008993 0.000233 0 -0.01175 0 2650 
332 1 -0.013253 0.00186407 -0.008686 0.000847 0 -0.01175 0 2650 
198 1 -0.0122692 0.051228 -0.008416 0.001312 -0.0578422 0.0780942 0.0612756 2650 
67 1 -0.0134813 0.064505 -0.0094486 8.4e-05 -0.0193491 0.087684 0.0252624 2650 
464 1 -3.2e-05 0.000324071 -0.007535 0.000233 0 -0.01175 0 2650 
177 1 -0.00254121 0.0468204 -0.00764826 0.000847 0.010286 0.141177 0.0546929 2650 
403 1 -0.0160721 0.0019149 -0.00413026 0.000233 0.0450799 -0.0457667 -0.237694 2650 
296 1 -0.00705203 0.00183843 -0.00396617 0.000233 -0.0339269 -0.00832328 -0.0576308 2650 
446 1 -0.0127491 0.0270191 -0.00389489 0.000847 -0.0771164 -0.00473659 -0.0845087 2650 
213 1 -0.0680214 0.0612837 -0.00450811 0.000847 -0.00275657 -0.0732452 0.0415615 2650 
462 1 -0.00594708 0.0672419 -0.00423169 0.000847 0.0558703 0.124962 0.0409752 2650 
63 1 -0.000147 0.00197707 -0.0027 0.000233 0 -0.01175 0 2650 
204 1 -0.00653468 0.00540836 -0.00197086 0.000847 -0.00195545 -0.00056211 0.00180048 2650 
505 1 -0.010502 0.00853726 -0.00228777 0.000233 0.00279447 0.0119381 -0.000228879 2650 
475 1 -0.0149599 0.0237574 -0.00275852 0.000847 0.030189 0.0762933 -0.117384 2650 
482 1 -0.00870658 0.0490694 -0.00280481 0.000233 0.000351426 0.0488467 0.0205314 2650 
440 1 -0.0119841 0.000968867 -0.000137008 0.000233 0.00637766 0.0032616 -0.0067895 2650 
172 1 -0.00844449 0.000816839 -0.000527534 0.001312 -0.0511884 -0.0133546 -0.0405891 2650 
8 1 -0.0161568 0.00954377 -0.00104327 0.000233 0.0177695 -0.00052839 0.00344916 2650 
412 1 -0.0140511 0.0207669 -0.00015343 0.000847 0.0123136 0.0589135 -0.132122 2650 
191 1 -0.0157537 0.030696 -0.000252063 0.000847 0.0163022 0.0831319 -0.151942 2650 
174 1 -0.00857737 0.00715191 0.000116405 0.000847 -0.041694 0.0197945 -0.0306217 2650 
7 1 -0.0149608 0.012583 0.00127811 0.000847 0.016009 0.00879665 0.0173954 2650 
361 1 -0.012224 0.0114475 0.00127429 0.000233 0.00991083 0.00785854 -0.0116005 2650 
1 1 -0.0154298 0.0162467 0.000974297 0.001312 -0.00385218 0.018402 -0.12664 2650 
112 1 -0.00881784 0.0367029 0.00122285 0.000847 -0.0140513 0.0302205 -0.0485154 2650 
345 1 -0.00922264 0.00931159 0.00194914 0.000847 0.00491802 0.0335378 -0.0219141 2650 
492 1 -0.0158981 0.0107852 0.00263019 0.000233 -0.0334799 0.243247 -0.361971 2650 
470 1 -0.008539 0.00234807 0.004033 8.4e-05 0 -0.01175 0 2650 
374 1 -0.006913 0.00225507 0.00361 0.000233 0 -0.01175 0 2650 
22 1 -0.0058425 0.00288873 0.0032301 0.000233 -0.00493111 -0.00829639 -0.00924296 2650 
433 1 -0.000603454 0.00200211 0.00456867 0.000847 -0.0517177 0.00641299 0.000235799 2650 
266 1 -0.010138 0.00669284 0.00426244 0.000847 -0.0303208 0.00499827 0.00405546 2650 
244 1 -0.002251 0.00181007 0.006118 0.000233 0 -0.01175 0 2650 
156 1 -0.0150113 0.00500232 0.0061482 0.000233 0.00220235 0.026726 0.0218511 2650 
116 1 -0.00768137 0.0117096 0.00493375 0.000233 -0.0155717 0.0137319 0.000237016 2650 
55 1 -0.00964419 0.0204225 0.00486424 0.001312 -0.139065 0.0224024 0.106333 2650 
56 1 -0.0137338 0.0017747 0.00692293 0.001312 0.0165445 0.0101006 0.029671 2650 
223 1 -0.0142421 0.00838401 0.00759582 8.4e-05 0.000415489 0.0115601 0.0061813 2650 
389 1 -0.0137476 0.00924372 0.00656873 0.000233 -0.193906 0.835412 -0.66867 2650 
333 1 -0.000618794 0.0137722 0.00675085 0.000847 -0.0199028 0.0119662 -0.0215366 2650 
469 1 -0.0118776 0.00123647 0.00816381 0.000233 0.0580194 0.00203115 0.0229709 2650 
61 1 -0.00540732 0.00092741 0.00906256 0.000847 -0.0539133 -0.00783089 -0.0253431 2650 
152 1 -0.00274628 0.00173552 0.00840782 0.000847 -0.0018724 -0.0107873 0.000558582 2650 
514 1 -0.013524 0.0162243 0.0086527 0.000847 -0.253732 0.0920765 -0.477303 2650 
268 1 -0.00586238 0.031752 0.00819747 0.000847 0.00104994 0.117304 -0.0345035 2650 
292 1 -0.0121653 0.0327783 0.00908872 0.000847 -0.0398054 0.101166 -0.110293 2650 
87 1 -0.0115238 0.0446882 0.00908574 0.000847 -0.000765043 0.030515 -0.0195847 2650 
242 1 -0.0121442 0.00288376 0.0104315 0.000847 0.0371297 0.00765267 0.0112359 2650 
291 1 -0.00292587 0.00961802 0.0104393 0.000847 -0.00126071 0.00240356 0.000411461 2650 
71 1 -0.00309955 0.0535403 0.010177 0.000847 -0.0146025 0.0443271 0.015827 2650 
226 1 -0.0102276 0.000875705 0.0121342 0.000847 -0.165556 0.0838329 -0.191961 2650 
208 1 -0.01086 0.00182492 0.0118922 0.000233 -0.175093 0.181486 -0.0886589 2650 
313 1 -0.004641 0.00202807 0.011299 0.000233 0 -0.01175 0 2650 
479 1 -0.00434868 0.00505482 0.0125663 0.000233 -0.0867202 0.0650369 -0.0950141 2650 
237 1 -0.000358876 0.00814094 0.0123741 0.001312 -0.0277231 0.0192661 -0.00180598 2650 
449 1 -0.00399932 0.0149901 0.0111293 0.000847 0.0476931 0.0347603 -0.0292235 2650 
107 1 -0.0103501 0.0206327 0.0118086 0.001312 -0.0460603 0.0342913 -0.0630585 2650 
238 1 -0.00846902 0.0313279 0.0119835 0.001312 -0.0956522 0.0303315 -0.070223 2650 
91 1 -0.00168803 0.0410197 0.0112289 0.000233 -0.0363941 0.045077 -0.00579716 2650 
284 1 -0.000196465 0.00980427 0.013642 0.000233 -0.0161106 0.0120469 -0.0311177 2650 
304 1 -0.00868224 0.0299238 0.0136174 0.000847 -0.0841804 0.0484077 -0.0579423 2650 
390 1 -0.00112235 0.000646012 0.0150584 0.000233 -0.00511716 -0.00910385 0.00447344 2650 
478 1 -0.00698682 0.0229345 0.0150795 0.000233 0.018799 0.0304763 -0.00992086 2650 
39 1 -0.00500973 0.0408719 0.0155197 0.000233 -0.0609199 0.160324 -0.01886 2650 
366 1 -0.00523443 0.0421228 0.0159742 8.4e-05 -0.0776398 0.0524254 -0.0333757 2650 
369 1 -0.0318768 0.0022199 0.0417106 0.000847 -8.39115 1.0125 -26.4238 2650 
139 1 -0.00762956 0.137267 0.00245456 0.000847 -0.0305392 0.576921 0.0828429 2650 
260 1 -0.0143765 0.0906244 0.00900495 0.000233 -0.106217 0.378589 -0.0767445 2650 
356 1 -0.00200215 0.0884931 0.0155483 0.000847 -0.100027 0.392212 0.0151355 2650 
320 1 0.0600429 -0.0326417 -0.0323313 0.000847 -30.3203 11.5137 -56.2787 2650 
373 1 0.00591836 -0.0450888 -0.0678955 0.000847 -6.50298 3.71979 -0.54075 2650 
83 1 0.0123042 -0.0324534 -0.0670392 0.000847 -32.7582 9.54514 -6.00912 2650 
510 1 0.0126955 -0.00992613 -0.0664868 0.001312 -7.08671 0.0812877 -1.35317 2650 
312 1 0.0197472 -0.00868394 -0.0658708 0.000233 -34.8719 0.965184 -10.4539 2650 
267 1 0.0173129 -0.00253181 -0.0659173 0.000847 -9.56722 -0.996146 -2.51259 2650 
153 1 0.0307348 -0.049314 -0.0615164 0.000233 -13.1908 2.39135 -6.59039 2650 
151 1 0.0298668 -0.044421 -0.0612705 0.000847 -30.072 3.48494 -14.6497 2650 
168 1 0.0440177 -0.00831536 -0.0528338 0.000233 -18.6286 -0.562233 -15.5168 2650 
134 1 0.0428504 -0.0247576 -0.0524382 0.001312 -26.5479 -5.00231 -21.6737 2650 
359 1 0.0475967 -0.0565289 -0.0487856 0.000847 -7.15711 -3.66146 -6.97642 2650 
293 1 0.0483077 -0.0107248 -0.0480812 0.000847 -5.18903 0.605434 -5.20872 2650 
455 1 0.0487516 -0.0442356 -0.0485045 0.000233 -40.3667 -8.33671 -40.5647 2650 
477 1 0.050986 -0.00842245 -0.0461465 0.000233 -10.516 4.58923 -11.6157 2650 
253 1 0.0532506 -0.044115 -0.0425656 0.000847 -21.5835 2.65178 -26.9841 2650 
32 1 0.0619655 -0.0184427 0.0284136 0.000847 7.46999 -4.3729 -16.2789 2650 
115 1 0.0608895 -0.0536038 -0.0220645 0.000233 -9.82641 -2.3865 -19.6133 2650 
26 1 0.0639948 -0.0361123 -0.0252562 0.000233 -104.221 -15.5188 -263.984 2650 
254 1 0.0127423 -0.00184439 -0.00961435 0.000847 -0.0219131 -0.0510692 -0.0149994 2650 
405 1 0.001255 -0.000667929 -0.009572 8.4e-05 0 -0.01175 0 2650 
461 1 0.0672756 -0.0283691 -0.0110831 0.000847 -6.38097 -1.66245 -38.7101 2650 
163 1 0.00756028 -0.00206307 -0.00806682 0.000847 -0.153257 -0.0908012 0.0753833 2650 
496 1 0.0137529 -0.00250408 -0.00894248 8.4e-05 -0.00606114 -0.00423817 0.00225466 2650 
233 1 0.00151798 -0.00138129 -0.00811293 0.000233 0.0138699 -0.00603489 0.0127794 2650 
323 1 0.0679282 -0.0554137 -0.0107543 0.000233 -10.3403 -11.5108 -65.3019 2650 
330 1 0.0678818 -0.0425733 -0.00634867 0.000847 -2.76753 3.3451 -29.5725 2650 
142 1 0.00473987 -0.00149661 -0.0049405 0.000233 0.00324513 -0.0123885 -0.00786429 2650 
17 1 0.00398732 -5.43026e-05 -0.00183993 0.000847 -1.76833e-05 -0.0107613 -0.00131097 2650 
11 1 0.0160677 -0.000664949 -0.00152199 0.000233 0.000798873 -0.00285632 0.00269102 2650 
132 1 0.0139039 -0.000312762 0.0013889 8.4e-05 0.00207343 -0.00616698 -0.00232159 2650 
328 1 0.0136328 -0.00196945 0.0015977 0.001312 0.00265803 -0.0076612 -0.00326394 2650 
448 1 0.0681401 -0.0283484 0.00223354 0.000847 0.865985 3.15001 -26.4007 2650 
214 1 0.00279029 -0.00133472 0.00457896 0.000847 0.030827 -0.0335183 0.0511241 2650 
456 1 0.009608 -0.000949929 0.003179 0.000233 0 -0.01175 0 2650 
329 1 0.0680141 -0.0259947 0.0046615 0.000847 1.25408 -1.36153 -18.2846 2650 
167 1 0.009498 -0.00300093 0.007687 0.000233 0 -0.01175 0 2650 
286 1 0.0681375 -0.0413954 0.00933023 0.000233 7.00625 4.0102 -51.1563 2650 
220 1 0.0664551 -0.0100258 0.0177009 0.000233 9.18602 -6.47384 -34.4805 2650 
352 1 0.0643329 -0.0317163 0.0243044 0.000233 4.04373 -2.61443 -10.7012 2650 
294 1 0.050318 -0.0596943 0.0235612 0.000847 101.021 24.3242 -48.642 2650 
450 1 0.0508868 -0.0530864 0.0238305 0.000847 -9.22361 31.1501 -58.5916 2650 
157 1 0.0101403 -0.025348 0.0288591 0.000233 2.39726 7.19487 -3.09856 2650 
119 1 0.0616499 -0.00575182 0.0308035 8.4e-05 0.0802775 -0.139981 -0.160653 2650 
190 1 0.0565696 -0.0556684 0.0319463 0.000847 -11.8274 -15.9345 -20.0477 2650 
471 1 0.0604247 -0.0503705 0.0305839 0.001312 12.3475 -7.6497 -24.3708 2650 
432 1 0.0518491 -0.0456345 0.0435504 0.001312 15.6094 -4.47295 -18.6775 2650 
396 1 0.0527515 -0.0401554 0.0431772 0.000847 22.0559 11.8958 -26.9981 2650 
316 1 0.0519286 -0.0369456 0.0441717 0.000847 25.6805 8.41465 -30.172 2650 
305 1 0.0482629 -0.00638024 0.0481303 0.000847 11.6582 -0.993998 -11.6811 2650 
101 1 0.0508988 -0.0609326 0.0462562 0.000233 84.3119 2.89219 -92.7606 2650 
126 1 0.0455815 -0.00108965 0.0506774 0.000847 15.1777 -0.395429 -13.6413 2650 
395 1 0.0292859 -0.0438997 0.0615487 0.000847 28.6375 -0.533113 -13.6179 2650 
431 1 0.035155 -0.0422617 0.0592768 8.4e-05 112.867 -15.9138 -66.9335 2650 
385 1 0.0244977 -0.0442287 0.0636037 0.000847 27.53 -1.45762 -10.5975 2650 
24 1 0.00418543 -0.0327166 0.0685111 0.000233 19.3538 12.1574 -7.50593 2650 
9 1 0.00528295 -0.0142439 0.0685638 0.000233 34.4279 -7.38407 -2.65271 2650 
94 1 0.0420898 0.0260731 -0.0530009 0.001312 6.07258 -2.26882 5.19611 2650 
48 1 0.0608301 0.0532614 -0.0307607 0.000847 1.56994 -0.290871 3.10207 2650 
210 1 0.00373535 0.00257684 -0.0164781 8.4e-05 -0.0149876 -0.00356182 -0.00425744 2650 
77 1 0.00194716 0.0465439 -0.0164799 0.000233 0.516627 0.0876418 0.0981852 2650 
404 1 0.00763326 0.00317714 -0.0143504 0.000233 -0.00650702 0.00214116 -0.0010451 2650 
511 1 0.00268262 0.00484233 -0.0147456 0.000847 0.22044 -0.208225 0.0367518 2650 
338 1 0.00565148 0.0275131 -0.0143948 0.000233 -0.0616397 0.28638 -0.221017 2650 
30 1 0.00564708 0.00871855 -0.0133576 0.001312 -0.0415905 0.00498815 -0.00698769 2650 
12 1 0.00483531 0.00466651 -0.0117439 0.000233 -0.00483284 -0.000454109 0.00890104 2650 
5 1 0.0105983 0.00416821 -0.011594 0.000847 -0.0192883 -0.0222788 -0.0108747 2650 
516 1 0.0120374 0.00524273 -0.0113418 0.000233 -0.0374739 -0.0106555 -0.03136 2650 
35 1 0.00619479 0.00659982 -0.0125607 0.000847 -0.0409709 0.00409173 -0.00132336 2650 
398 1 0.0103353 0.00760627 -0.0123333 0.000847 -0.0621595 0.0275029 -0.0565481 2650 
425 1 0.00391149 0.0342368 -0.01117 0.000847 0.00470319 0.0442887 0.0174285 2650 
43 1 0.0119634 0.00828477 -0.0099529 0.001312 -0.0279571 0.0941609 -0.0369164 2650 
234 1 0.000486629 0.0106205 -0.0109068 0.000233 0.00666386 0.0113116 0.0110827 2650 
391 1 0.0112211 0.0225097 -0.0105571 0.000233 0.0163256 0.0241937 -0.00281456 2650 
419 1 0.00606393 9.43248e-05 -0.00922008 0.001312 -0.0464227 -0.0126194 -0.0444454 2650 
363 1 0.0134862 0.0153801 -0.0088339 0.000233 -0.00516116 0.0058541 -0.00751722 2650 
400 1 0.008609 0.00258907 -0.006808 0.000233 0 -0.01175 0 2650 
493 1 0.00812641 0.0140627 -0.00772615 0.000233 -0.0350389 0.00533607 -0.000173476 2650 
368 1 0.0143414 0.05105 -0.00704183 0.000847 -0.124217 0.0127434 -0.285749 2650 
27 1 0.00697489 0.00302883 -0.00552052 8.4e-05 -0.00977723 -0.00292444 -0.00358491 2650 
276 1 0.0117607 0.00270748 -0.00525465 0.001312 0.0183982 -0.0239978 0.0354711 2650 
377 1 0.0011083 0.00458546 -0.00565357 0.000233 -0.0250426 -0.00388706 0.0179868 2650 
397 1 0.000248527 0.014585 -0.00607537 0.000847 -0.0372166 -0.0146385 0.00732656 2650 
273 1 0.00311042 0.0258414 -0.00504295 0.000233 -0.125966 0.0414799 -0.119789 2650 
228 1 0.0151809 0.0315542 -0.00509233 0.000847 0.010121 0.0403214 0.0416598 2650 
45 1 0.00558131 0.0381306 -0.00564458 0.000847 -0.0846493 0.0963449 -0.148238 2650 
105 1 0.00021 0.00208507 -0.003991 0.000233 0 -0.01175 0 2650 
109 1 0.00192635 0.00891645 -0.00406303 0.000847 -0.00745721 0.00702426 0.0143526 2650 
485 1 0.00396969 0.008864 -0.00355318 0.000847 -0.029317 0.0266257 -0.008824 2650 
58 1 0.0016496 0.0123528 -0.0036696 0.000847 -0.0251084 -0.00259086 -0.000261686 2650 
255 1 0.00844785 0.0119725 -0.00339568 0.000847 -0.000152053 0.00733458 0.00592091 2650 
383 1 0.00593134 0.0180595 -0.00467043 0.000847 -0.0100767 0.0185191 -0.00991804 2650 
301 1 0.00662873 0.0203853 -0.00370492 8.4e-05 0.014617 0.0250478 -0.00677003 2650 
80 1 0.000184 0.00206007 -0.002772 8.4e-05 0 -0.01175 0 2650 
187 1 0.00707625 0.0024741 -0.00311334 0.000847 -0.0120455 -0.00367718 0.00169353 2650 
353 1 0.00826518 0.00352225 -0.00267659 8.4e-05 0.00908281 0.00118574 -0.0158319 2650 
435 1 0.00991729 0.00664562 -0.001734 0.000847 -0.0173269 -0.0054703 0.00941482 2650 
426 1 0.0138428 0.00938588 -0.00201502 0.000233 -0.0119961 0.00257197 0.0109227 2650 
437 1 0.0110184 0.0140467 -0.00168893 0.000847 0.00373217 0.0104887 0.0121652 2650 
413 1 0.0102379 0.0163232 -0.00185952 0.000233 0.00435847 0.0209987 0.00883861 2650 
216 1 0.000346582 0.0261912 -0.00311375 0.000847 0.00347878 0.0283419 0.0066285 2650 
200 1 0.00206238 0.0540156 -0.00180674 0.000847 0.140528 0.179245 0.0685727 2650 
494 1 0.00510985 0.00617853 -0.00153276 0.000233 -0.0452811 0.0168568 0.00191361 2650 
110 1 0.00924571 0.00980833 -0.000802343 0.000847 -0.00897299 0.0181743 0.0168124 2650 
81 1 0.0141231 0.0160521 -0.000101163 0.001312 -0.00301941 0.0216029 0.0151399 2650 
95 1 0.0154803 0.0362143 -0.00131749 0.001312 0.026145 -0.111282 0.668884 2650 
375 1 0.0124627 0.00820569 0.000565806 0.000233 -0.00661432 -0.000106325 0.0193449 2650 
467 1 0.0122632 0.0151169 0.000216129 0.000233 -0.0302936 0.0201185 -0.00244968 2650 
457 1 0.00998987 0.0308879 0.000938454 8.4e-05 0.00801527 0.0347161 0.0147456 2650 
28 1 0.0168325 0.0339304 0.000271082 8.4e-05 -0.00639653 0.0422867 0.0198075 2650 
277 1 0.00601382 0.0660077 0.00175824 0.000847 -0.0314963 0.189717 -0.0703206 2650 
14 1 0.0110201 0.0063506 0.00444417 8.4e-05 -0.00615551 0.00493893 0.00762042 2650 
388 1 0.0151888 0.00478814 0.00462771 0.000233 -0.00599918 -0.00238884 0.011479 2650 
502 1 0.0153439 0.00795538 0.0046419 0.000847 -0.174297 0.136474 0.398258 2650 
299 1 0.0105404 0.00910034 0.00398092 0.000233 -0.0067092 0.00573937 -0.00119716 2650 
351 1 0.00526766 0.0231088 0.00377234 0.000233 0.00409184 0.0180406 0.0328294 2650 
188 1 0.000780649 0.0400171 0.00466345 0.000847 0.00797073 0.0304807 0.00488408 2650 
261 1 0.00168617 0.00290032 0.0062932 0.000233 0.00211365 -0.00978047 0.000245052 2650 
418 1 0.015747 0.0435538 0.00584109 8.4e-05 0.0341002 0.0324596 -0.129365 2650 
441 1 0.0149998 0.054396 0.00617276 0.000233 -0.0894254 0.195323 0.152847 2650 
503 1 0.00373623 0.00306972 0.00777092 0.000233 0.00756227 -0.00437594 0.00642374 2650 
89 1 0.00172153 0.00345822 0.00726562 0.000233 -0.00879813 -0.00766393 -0.0251778 2650 
129 1 0.00322614 0.0160053 0.00766251 0.000233 0.000601083 -0.0135965 -0.0609851 2650 
384 1 0.0145909 0.0495738 0.00646644 0.000847 -0.385697 0.295327 0.891818 2650 
54 1 0.010942 0.00448053 0.00899977 8.4e-05 -0.010167 0.000395699 0.00379535 2650 
387 1 0.0105688 0.0115378 0.00797369 0.000233 0.0175133 0.0151067 0.00617877 2650 
506 1 0.0138214 0.0298262 0.00900425 0.000233 -0.0128936 0.0239161 0.0127615 2650 
484 1 0.00487331 0.0419912 0.00899075 0.001312 -0.13435 0.0445405 -0.0110058 2650 
499 1 0.00684628 0.000311599 0.012021 0.000847 -0.0434418 -0.000564959 0.0155159 2650 
430 1 0.0122326 0.00318868 0.0111847 0.000233 0.140861 -0.122519 -0.161753 2650 
38 1 0.00848598 0.0316367 0.0136893 0.000233 -0.020266 0.0326074 0.00886807 2650 
472 1 0.00509075 0.011999 0.0149647 0.000847 -0.0401778 0.0278474 0.0142632 2650 
394 1 0.000970844 0.0232384 0.0159425 0.000847 -0.0689373 0.0804626 0.00236841 2650 
199 1 0.0621018 0.119379 -0.0269817 0.001312 -0.743716 1.61554 -1.70976 2650 
60 1 0.0642462 0.11979 -0.0230421 0.000847 -44.933 -6.36693 -125.231 2650 
15 1 0.00917685 0.117398 0.00216665 0.001312 -0.00383471 0.206713 -0.0197233 2650 
196 1 0.00943915 0.0867404 0.00345655 0.000233 0.14737 0.408094 0.0973858 2650 
