ITEM: TIMESTEP
26234499
ITEM: NUMBER OF ATOMS
125
ITEM: BOX BOUNDS ff ff ff
-0.15 0.15
-0.15 0.15
-0.15 0.15
ITEM: ATOMS id type x y z radius vx vy vz density 
5 1 -0.0305715 -0.0082045 -0.0609181 0.000847 -24.7801 -5.88012 12.4289 2650 
263 1 -0.0475542 -0.00626083 -0.0482324 0.001312 -30.8183 -3.96159 30.3544 2650 
246 1 -0.049067 -0.0476105 -0.0481818 0.000233 -14.6375 -10.0823 14.9026 2650 
61 1 -0.0296309 -0.00734299 -0.0381332 0.000847 -4.35058 -0.362718 -5.66775 2650 
253 1 -4.38036e-05 -0.0185714 -0.0681569 0.000847 -30.6636 6.36265 0.0196642 2650 
464 1 -0.0648945 -0.0485471 -0.0227741 0.000233 -25.9884 1.0673 74.0412 2650 
420 1 -0.0676193 -0.0252095 -0.00897482 0.000847 -11.0133 -6.19999 82.937 2650 
89 1 -0.0047891 -0.0022131 -0.011366 0.000233 -0.00879813 -0.00766393 -0.0251778 2650 
256 1 -0.0532225 -0.0512684 -0.00742595 0.000847 -12.0263 -3.22338 6.93428 2650 
328 1 -0.0675452 -0.0419976 -0.00528474 0.001312 -3.5995 10.2668 45.9655 2650 
516 1 -0.0145657 -0.00131777 -0.00786596 0.000233 -0.0177061 -0.00559475 0.0330808 2650 
189 1 -0.0681161 -0.0219291 -0.0030388 0.000847 -1.82741 3.76878 40.9363 2650 
22 1 -0.00949152 -0.00325061 -0.00360971 0.000233 -0.00493111 -0.00829639 -0.00924296 2650 
187 1 -0.00183744 -0.000247026 -0.00186012 0.000847 -0.0120455 -0.00367718 0.00169353 2650 
121 1 -0.0150461 -0.00165036 0.00416295 0.001312 -0.00723199 -0.00515534 0.0205998 2650 
470 1 -0.0684036 -0.0490033 0.00840269 8.4e-05 3.81239 4.3436 31.0331 2650 
305 1 -0.0676181 -0.0441916 0.0088134 0.000847 6.71693 0.491262 51.5053 2650 
307 1 -0.0257572 -0.0580457 0.0140285 0.000847 2.73707 0.0906789 4.9783 2650 
448 1 -0.0607491 -0.0511624 0.0309364 0.000847 12.5297 -0.130697 24.5879 2650 
254 1 -0.0460245 -0.0113955 0.0502978 0.000847 35.2596 -0.2432 32.2452 2650 
400 1 -0.0314051 -0.062567 0.061191 0.000233 141.457 6.78028e-06 72.5904 2650 
472 1 -0.029912 -0.036167 0.0612578 0.000847 41.4117 -1.41027 20.2095 2650 
317 1 -0.00979081 -0.00363448 0.0674587 0.000847 43.2253 -2.09661 6.27006 2650 
210 1 -0.00676477 7.93569e-05 -0.0152362 8.4e-05 -0.0127261 -0.0030397 0.00558385 2650 
242 1 -0.00997744 0.0574985 -0.0127084 0.000847 0.0239138 0.0557204 -0.0285721 2650 
383 1 -0.00152542 0.0317637 -0.0120098 0.000847 -0.0100767 0.0185191 -0.00991804 2650 
388 1 -0.0105702 0.0547067 -0.0119859 0.000233 1.24534 -0.0426036 -0.714333 2650 
412 1 -0.0120327 0.0552879 -0.00999299 0.000847 -0.0135854 0.0559454 0.0140493 2650 
27 1 -0.000260277 0.000864736 -0.00817336 8.4e-05 -0.00977723 -0.00292444 -0.00358491 2650 
325 1 -0.0137085 0.00285541 -0.00902065 0.000233 -0.00088679 0.00246738 0.0152127 2650 
284 1 -0.0101075 0.0241258 -0.00794324 0.000233 -0.013261 0.0197088 -0.0290744 2650 
485 1 -0.00961712 0.0293999 -0.00925341 0.000847 -0.0180986 0.027778 -0.0076762 2650 
129 1 -0.0037068 0.00789967 -0.00713473 0.000233 -0.0207357 -0.00794031 0.0267358 2650 
361 1 -0.00488998 0.0172629 -0.00731008 0.000233 0.00991083 0.00785854 -0.0116005 2650 
333 1 -0.0132944 0.0225622 -0.00765589 0.000847 0.0135833 0.0109065 0.00342954 2650 
440 1 -0.00726462 0.00338246 -0.00516125 0.000233 0.00637766 0.0032616 -0.0067895 2650 
58 1 -0.0152374 0.0105437 -0.00332105 0.000847 0.0083519 -0.000453989 0.0104529 2650 
107 1 -0.0150865 0.0590057 -0.00351541 0.001312 0.00117055 0.0559878 -0.0180592 2650 
158 1 -0.0165496 0.00108819 -0.0025418 8.4e-05 -0.00940048 0.000287955 0.0113779 2650 
35 1 -0.0153447 0.00781462 -0.00235035 0.000847 -0.00532244 -0.00228633 0.0337711 2650 
419 1 -0.00128662 0.0106637 -0.00280958 0.001312 0.00263124 0.0238751 0.024308 2650 
30 1 -0.0150933 0.0145933 -0.00282267 0.001312 -0.0115007 0.0110448 0.0301362 2650 
505 1 -0.00843412 0.0173715 -0.00245714 0.000233 0.00279447 0.0119381 -0.000228879 2650 
91 1 -0.0146485 0.0722012 -0.00169923 0.000233 -0.00201407 0.0397236 -0.0270539 2650 
499 1 -0.0160559 0.00162267 -0.000676186 0.000847 -0.00277731 0.0147317 -0.042014 2650 
204 1 -0.00798171 0.0049924 -0.000638502 0.000847 -0.00195545 -0.00056211 0.00180048 2650 
494 1 -0.0112273 0.0183234 -7.05948e-05 0.000233 0.0211744 0.0155828 0.00209207 2650 
397 1 -0.0108946 0.005331 0.000745229 0.000847 0.0159786 -0.00951761 0.011865 2650 
433 1 -0.0132329 0.0140255 0.00204868 0.000847 0.00587186 0.0215518 -0.0084741 2650 
109 1 -0.0114463 0.0118539 0.00397569 0.000847 -0.017462 -0.000960928 0.00481627 2650 
291 1 -0.010391 0.0161662 0.00318438 0.000847 -0.0116665 0.014129 -0.00483327 2650 
435 1 -0.00290467 0.00259759 0.00523298 0.000847 -0.0173269 -0.0054703 0.00941482 2650 
502 1 -0.0147278 0.0272518 0.00640845 0.000847 1.58221 -0.343657 3.84662 2650 
377 1 -0.0142128 0.00187 0.006439 0.000233 0.0157729 -0.0018408 0.00250622 2650 
56 1 -0.0142085 0.0165943 0.00651089 0.001312 -0.0209457 0.00820903 -0.0266284 2650 
156 1 -0.0150573 0.0191503 0.00668793 0.000233 -0.00900277 0.0124543 -0.0156797 2650 
237 1 -0.0134524 0.0209751 0.00669064 0.001312 -0.0109841 0.0166865 -0.0151411 2650 
345 1 -0.000257087 0.0222764 0.00779821 0.000847 0.30187 -0.187217 -0.403123 2650 
514 1 -0.0127316 0.0259381 0.00725104 0.000847 -0.0195743 0.0529112 -0.0318591 2650 
223 1 -0.0127909 0.0161009 0.0102977 8.4e-05 0.00313032 0.00585877 -0.00498582 2650 
398 1 -0.0122768 0.022778 0.0103645 0.000847 0.0315884 0.014208 0.0425546 2650 
165 1 -0.0100667 0.008828 0.0124168 0.000847 0.0308057 0.0080171 0.0268908 2650 
7 1 -0.00352692 0.0190614 0.0140124 0.000847 0.015248 0.00873928 0.0171403 2650 
95 1 -0.0029258 0.0341465 0.0148497 0.001312 -0.0201219 -0.0137175 0.000945148 2650 
492 1 -0.00498789 0.0526666 0.0158861 0.000233 -0.197984 -0.0199544 -0.0865594 2650 
175 1 -0.0565309 0.0205669 0.0382442 0.000847 75.5846 4.28066 111.68 2650 
71 1 -0.0434774 0.0280408 0.0526334 0.000847 119.953 -5.48035 99.0478 2650 
475 1 -0.0421563 0.00279243 0.0536124 0.000847 64.7074 5.39435 50.8558 2650 
482 1 -0.00844652 0.085216 0.0123884 0.000233 0.000351426 0.0488467 0.0205314 2650 
294 1 0.0536297 -0.0514302 -0.0420913 0.000847 -24.0727 -2.33787 -30.6527 2650 
63 1 0.0199663 -0.0289631 -0.0658047 0.000233 -36.9248 -2.95782 -11.2033 2650 
184 1 0.0229077 -0.0270853 -0.0649976 8.4e-05 -81.3999 6.76413 -28.6872 2650 
471 1 0.024254 -0.00741556 -0.0632173 0.001312 -31.6912 -3.81279 -12.1476 2650 
32 1 0.0314108 -0.0203196 -0.0604995 0.000847 -36.3257 10.6208 -18.8486 2650 
313 1 0.044723 -0.033023 -0.0522444 0.000233 -61.3916 5.51972 -52.5445 2650 
450 1 0.0251285 -0.00673179 -0.0155941 0.000847 -48.2831 -29.3896 -40.2021 2650 
203 1 0.0681381 -0.0304313 -0.00282289 0.000847 -2.54914 -7.2286 -61.5 2650 
11 1 0.0166589 -0.00277863 0.000469371 0.000233 0.000798873 -0.00285632 0.00269102 2650 
503 1 0.00933232 -0.000168478 0.0125245 0.000233 0.00756227 -0.00437594 0.00642374 2650 
244 1 0.0675674 -0.0388416 0.0107492 0.000233 4.88522 -11.3176 -61.2951 2650 
77 1 0.0636609 -0.0218442 0.0237025 0.000233 2.43424 -0.818451 0.590088 2650 
276 1 0.0635057 -0.0131422 0.0235296 0.001312 8.72084 -1.53187 -23.5137 2650 
226 1 0.063105 -0.0548639 0.02582 0.000847 16.9137 -3.86808 -41.3132 2650 
212 1 0.0589575 -0.0192468 0.0333949 0.001312 27.7734 3.46544 -48.994 2650 
430 1 0.0310879 -0.00817709 0.041008 0.000233 12.3835 -3.27518 -5.26864 2650 
251 1 0.0501182 -0.00566568 0.0462132 0.000847 25.971 -4.48889 -28.1479 2650 
411 1 0.0243147 -0.0560145 0.0637144 0.000847 76.2933 -5.84237 -29.101 2650 
348 1 0.0146408 -0.011104 0.0670255 0.000233 45.6279 -15.8628 29.6007 2650 
336 1 0.0121835 -0.0548402 0.0676706 0.000233 32.7792 8.42215 -5.89277 2650 
456 1 0.00287294 -0.0267759 0.0687091 0.000233 73.8986 12.7818 -3.08947 2650 
73 1 0.00272068 -0.00130639 0.0681048 0.000847 34.5679 -0.661257 -1.38034 2650 
320 1 0.000139878 -0.00311269 0.0681589 0.000847 34.4202 -1.78187 -0.0705809 2650 
301 1 0.00213062 0.0400531 -0.0166617 8.4e-05 -3.79452 0.219299 -0.159682 2650 
404 1 0.00281805 0.00476161 -0.0151237 0.000233 -0.00650702 0.00214116 -0.0010451 2650 
363 1 0.00927461 0.0196245 -0.0136308 0.000233 -0.00757594 0.0053142 -0.0028034 2650 
353 1 0.0111383 0.00453103 -0.00991924 8.4e-05 -0.00790224 0.00176539 0.00391071 2650 
449 1 0.00758117 0.0372992 -0.00805514 0.000847 -0.0263941 0.0240948 -0.0215968 2650 
43 1 0.00348338 0.0625297 -0.00927389 0.001312 0.000232009 0.0634141 0.0141219 2650 
479 1 0.015272 0.04136 -0.00662725 0.000233 0.0286087 0.0353954 0.0545489 2650 
208 1 0.00474012 0.0613832 -0.00643287 0.000233 -0.0338468 0.0698051 0.0110411 2650 
12 1 0.001259 0.00433047 -0.00515708 0.000233 -0.00483284 -0.000454109 0.00890104 2650 
391 1 0.0137757 0.0388586 -0.00426069 0.000233 0.00139547 0.0217574 0.0103177 2650 
234 1 0.0054179 0.0189911 -0.00270557 0.000233 0.00666386 0.0113116 0.0110827 2650 
55 1 0.00798145 0.026036 -0.00191008 0.001312 0.0173121 0.0067254 0.0367473 2650 
469 1 0.0161788 0.00314681 0.00124854 0.000233 0.0048082 0.00171169 -0.0390359 2650 
255 1 0.00833533 0.0174001 0.000985801 0.000847 -0.000152053 0.00733458 0.00592091 2650 
446 1 0.0160412 0.0517178 0.000610565 0.000847 -0.0132059 0.0208973 0.0482086 2650 
233 1 0.0164575 0.0104384 0.00261334 0.000233 -0.049704 0.00539083 -0.0405864 2650 
299 1 0.00557555 0.0133475 0.00309502 0.000233 -0.0067092 0.00573937 -0.00119716 2650 
425 1 0.00739186 0.0670105 0.00172712 0.000847 0.00470319 0.0442887 0.0174285 2650 
413 1 0.0134632 0.0318623 0.00468107 0.000233 0.00435847 0.0209987 0.00883861 2650 
418 1 0.00642847 0.00614259 0.00600591 8.4e-05 0.0693665 -0.137733 0.0282819 2650 
426 1 0.00496563 0.0112891 0.00606779 0.000233 -0.0119961 0.00257197 0.0109227 2650 
387 1 0.0108541 0.0209511 0.00549887 0.000233 -0.00570984 0.0118715 -0.00673351 2650 
304 1 0.0152681 0.0539495 0.00474524 0.000847 -0.0161503 0.0253624 0.0832685 2650 
478 1 0.00692444 0.045487 0.00773807 0.000233 0.018799 0.0304763 -0.00992086 2650 
14 1 0.00646498 0.0100054 0.0100833 8.4e-05 -0.00615551 0.00493893 0.00762042 2650 
273 1 0.0117674 0.0344353 0.0107359 0.000233 0.0214502 0.0018955 -0.0483598 2650 
457 1 0.0119976 0.0560085 0.0097158 8.4e-05 -0.0111483 0.0319351 0.00432043 2650 
54 1 0.00341843 0.00477335 0.0118083 8.4e-05 -0.010167 0.000395699 0.00379535 2650 
116 1 0.000628825 0.0233664 0.0117584 0.000233 0.0209887 0.0164881 0.0124942 2650 
110 1 0.00260569 0.0232573 0.0116389 0.000847 -0.00897299 0.0181743 0.0168124 2650 
375 1 0.00756806 0.00812701 0.0148811 0.000233 -0.00661432 -0.000106325 0.0193449 2650 
506 1 0.00309832 0.0471578 0.0163116 0.000233 -0.0171725 0.0225356 0.00460837 2650 
423 1 0.00606285 0.0785146 0.0636399 0.000847 0.243188 0.641385 -0.112264 2650 
