ITEM: TIMESTEP
23919699
ITEM: NUMBER OF ATOMS
140
ITEM: BOX BOUNDS ff ff ff
-0.15 0.15
-0.15 0.15
-0.15 0.15
ITEM: ATOMS id type x y z radius vx vy vz density 
313 1 -0.00869374 -0.0257541 -0.0682155 0.000233 -47.1142 -7.87007 6.00414 2650 
32 1 -0.0203148 -0.0156979 -0.0650671 0.000847 -38.7743 4.96853 12.0989 2650 
395 1 -0.0238671 -0.0465296 -0.0638515 0.000847 -39.5049 -0.777123 14.758 2650 
317 1 -0.0453308 -0.0421532 -0.0508965 0.000847 -8.58773 2.08694 7.64216 2650 
226 1 -0.0553299 -0.049022 -0.0398343 0.000847 -24.8103 -3.99029 34.4407 2650 
105 1 -0.0570212 -0.0558715 -0.0384432 0.000233 -14.5071 -7.0487 21.5124 2650 
203 1 -0.0600499 -0.00255552 -0.0322833 0.000847 -18.2552 -3.20504 33.9353 2650 
5 1 -0.0616028 -0.0543275 -0.0291915 0.000847 -7.84253 5.04167 16.5387 2650 
294 1 -0.0663211 -0.00310687 -0.015833 0.000847 -10.3856 7.45458 43.4772 2650 
472 1 -0.0672036 -0.039057 -0.0115281 0.000847 -7.5174 0.381148 43.797 2650 
516 1 -0.0110984 -0.000361307 -0.0123517 0.000233 -0.0315536 -0.00762583 0.0233261 2650 
61 1 -0.012735 -0.00279108 -0.00962967 0.000847 0.0174712 -0.00383716 -0.0145517 2650 
89 1 -0.00346939 -0.00106352 -0.00758937 0.000233 -0.00879813 -0.00766393 -0.0251778 2650 
22 1 -0.00875186 -0.00200616 -0.00222327 0.000233 -0.00493111 -0.00829639 -0.00924296 2650 
121 1 -0.0138203 -0.00103185 0.00101353 0.001312 -0.00937639 -0.00279986 0.0215054 2650 
189 1 -0.0613207 -0.0592512 0.0297987 0.000847 15.9965 -12.146 32.8951 2650 
320 1 -0.0583644 -0.0370095 0.0352467 0.000847 23.823 8.93117 39.425 2650 
400 1 -0.0505575 -0.0188232 0.0466175 0.000233 26.237 -2.47061 28.4484 2650 
267 1 -0.049813 -0.0153644 0.046543 0.000847 26.2446 -0.990063 28.0895 2650 
73 1 -0.0485965 -0.0137516 0.0478101 0.000847 27.3538 1.82897 27.7849 2650 
251 1 -0.0296598 -0.0293416 0.0615826 0.000847 46.6698 1.15405 71.4856 2650 
336 1 -0.0194598 -0.0373116 0.0659576 0.000233 57.6389 -0.40078 17.003 2650 
287 1 -0.0164671 -0.0310497 0.0656564 0.000233 75.7113 4.38102 12.8283 2650 
152 1 -0.0118005 -0.0305321 0.0671473 0.000847 60.2377 3.39897 10.4613 2650 
210 1 -0.00485587 0.000535309 -0.0160737 8.4e-05 -0.0127261 -0.0030397 0.00558385 2650 
129 1 -0.000596472 0.00909071 -0.0111451 0.000233 -0.0207357 -0.00794031 0.0267358 2650 
184 1 -0.0118345 0.0203801 -0.0116173 8.4e-05 0.180462 0.00726791 -0.209972 2650 
412 1 -0.00805373 0.0476499 -0.0116997 0.000847 -0.0267102 0.0508492 0.0113405 2650 
325 1 -0.0114064 0.00267268 -0.00962861 0.000233 -0.0191333 0.000891146 0.00113125 2650 
246 1 -0.0114626 0.0292472 -0.00988878 0.000233 -0.0101735 0.0207499 0.00780821 2650 
345 1 -0.00632099 0.029099 -0.0109803 0.000847 0.00491802 0.0335378 -0.0219141 2650 
383 1 -1.39302e-05 0.0289859 -0.0105221 0.000847 -0.0100767 0.0185191 -0.00991804 2650 
485 1 -0.00690234 0.0252332 -0.00810198 0.000847 -0.0180986 0.027778 -0.0076762 2650 
242 1 -0.0135645 0.0491405 -0.00842257 0.000847 0.0239138 0.0557204 -0.0285721 2650 
419 1 -0.0016813 0.00708246 -0.00645576 0.001312 0.00263124 0.0238751 0.024308 2650 
35 1 -0.0141818 0.00811412 -0.00728574 0.000847 -0.0229088 -0.000189347 0.027488 2650 
30 1 -0.0133682 0.0129366 -0.00734307 0.001312 -0.0115007 0.0110448 0.0301362 2650 
493 1 -0.0125466 0.017211 -0.00782851 0.000233 -0.0350389 0.00533607 -0.000173476 2650 
361 1 -0.00637659 0.0160841 -0.00557002 0.000233 0.00991083 0.00785854 -0.0116005 2650 
333 1 -0.0123615 0.0208323 -0.00595578 0.000847 -0.0199028 0.0119662 -0.0215366 2650 
423 1 -0.0136738 0.0291502 -0.00519273 0.000847 -0.0233945 0.0335451 0.0451783 2650 
158 1 -0.0151395 0.00104499 -0.00424848 8.4e-05 -0.00940048 0.000287955 0.0113779 2650 
440 1 -0.00822127 0.00289322 -0.00414283 0.000233 0.00637766 0.0032616 -0.0067895 2650 
58 1 -0.0131644 0.0108241 -0.003824 0.000847 -0.0251084 -0.00259086 -0.000261686 2650 
284 1 -0.00811833 0.0211695 -0.00358211 0.000233 -0.013261 0.0197088 -0.0290744 2650 
187 1 -3.06293e-05 0.000304548 -0.00211415 0.000847 -0.0120455 -0.00367718 0.00169353 2650 
505 1 -0.00885328 0.0155808 -0.00242281 0.000233 0.00279447 0.0119381 -0.000228879 2650 
204 1 -0.0076884 0.00507671 -0.000908573 0.000847 -0.00195545 -0.00056211 0.00180048 2650 
397 1 -0.0132914 0.00675863 -0.00103451 0.000847 0.0159786 -0.00951761 0.011865 2650 
494 1 -0.0144034 0.015986 -0.000384404 0.000233 0.0211744 0.0155828 0.00209207 2650 
107 1 -0.015262 0.0506075 -0.000806554 0.001312 0.00117055 0.0559878 -0.0180592 2650 
398 1 -0.0156556 0.0204707 0.003152 0.000847 0.00980534 0.0169419 0.0546091 2650 
418 1 -0.00397645 0.0268025 0.00176365 8.4e-05 0.0693665 -0.137733 0.0282819 2650 
91 1 -0.0143464 0.0662427 0.00235883 0.000233 -0.00201407 0.0397236 -0.0270539 2650 
435 1 -0.000305647 0.00341813 0.00382076 0.000847 -0.0173269 -0.0054703 0.00941482 2650 
433 1 -0.0141137 0.0107928 0.00331979 0.000847 0.00587186 0.0215518 -0.0084741 2650 
109 1 -0.00882697 0.0119981 0.00325326 0.000847 -0.017462 -0.000960928 0.00481627 2650 
291 1 -0.00864104 0.0140468 0.00390937 0.000847 -0.0116665 0.014129 -0.00483327 2650 
499 1 -0.0149378 0.000163769 0.00565599 0.000847 -0.0208888 0.00218497 -0.0397045 2650 
377 1 -0.0136669 0.00229209 0.00495867 0.000233 -0.0250426 -0.00388706 0.0179868 2650 
233 1 -0.000928181 0.00750675 0.00520679 0.000233 0.116223 0.019572 -0.0172449 2650 
165 1 -0.0140512 0.00752204 0.0077671 0.000847 0.0163998 0.00999879 0.038081 2650 
156 1 -0.0137069 0.0172822 0.00903986 0.000233 -0.00900277 0.0124543 -0.0156797 2650 
237 1 -0.0118048 0.0184721 0.00896179 0.001312 -0.0109841 0.0166865 -0.0151411 2650 
223 1 -0.0128284 0.0150355 0.0104087 8.4e-05 0.00384422 0.0110641 0.0037338 2650 
56 1 -0.0110666 0.0153629 0.0105051 0.001312 -0.0209492 0.00820828 -0.0266273 2650 
116 1 -0.00251946 0.0208932 0.00988432 0.000233 0.0209887 0.0164881 0.0124942 2650 
296 1 -0.0110402 0.00311767 0.0115316 0.000233 0.0261681 0.00326995 0.0376133 2650 
514 1 -0.00979551 0.0180015 0.0120299 0.000847 -0.0195743 0.0529112 -0.0318591 2650 
7 1 -0.0058141 0.0177506 0.0114413 0.000847 0.015248 0.00873928 0.0171403 2650 
482 1 -0.00849924 0.077889 0.00930874 0.000233 0.000351426 0.0488467 0.0205314 2650 
45 1 -0.0445527 0.101125 0.0516393 0.000847 62.4344 -0.998319 53.8403 2650 
332 1 0.000260479 -0.0386078 -0.0681753 0.000847 -58.3773 -13.4221 -0.222872 2650 
276 1 0.00504594 -0.0169155 -0.0675137 0.001312 -30.3696 5.01053 -2.26785 2650 
411 1 0.025857 -0.00851874 -0.0630723 0.000847 -38.6181 -1.12917 -15.8224 2650 
330 1 0.0291154 -0.0433885 -0.0616271 0.000847 -25.057 4.3996 -11.8309 2650 
448 1 0.0316275 -0.0260561 -0.0603775 0.000847 -25.1221 5.5482 -13.1514 2650 
464 1 0.0387926 -0.0364316 -0.0567895 0.000233 -89.6587 -5.38235 -61.2361 2650 
328 1 0.0426521 -0.024598 -0.0525661 0.001312 -6.8619 -1.84113 -5.56132 2650 
471 1 0.0467446 -0.0332932 -0.0490146 0.001312 -30.0368 -6.872 -28.6206 2650 
144 1 0.064099 -0.0478015 -0.0249185 0.000233 -16.5501 -6.78481 -42.5644 2650 
456 1 0.0651756 -0.0393489 -0.0219489 0.000233 -13.2545 6.24945 -39.3394 2650 
380 1 0.0652048 -0.0454708 -0.018359 0.001312 -10.3121 -4.145 -36.595 2650 
256 1 0.0580284 -0.0589367 -0.0163297 0.000847 20.7559 16.2617 -62.2931 2650 
420 1 0.0681799 -0.0379471 -0.000872549 0.000847 -0.560244 -2.93669 -43.7562 2650 
11 1 0.016539 -0.00235018 6.57203e-05 0.000233 0.000798873 -0.00285632 0.00269102 2650 
348 1 0.0687351 -0.0131635 0.00224654 0.000233 0.347896 3.2658 -10.642 2650 
307 1 0.0288641 -0.0593778 0.0041891 0.000847 0.778168 0.149935 -5.56947 2650 
261 1 0.00293323 -0.00287019 0.00643778 0.000233 0.00211365 -0.00978047 0.000245052 2650 
305 1 0.0673496 -0.0491067 0.0106235 0.000847 6.08934 3.63591 -38.5808 2650 
63 1 0.0672031 -0.0287186 0.0146086 0.000233 9.02993 0.381416 -41.5318 2650 
253 1 0.064422 -0.0105525 0.0223211 0.000847 12.0709 -3.51399 -34.8168 2650 
450 1 0.0621676 -0.0594962 0.0279925 0.000847 15.97 -2.65616 -35.4454 2650 
470 1 0.0483965 -0.0618698 0.0403553 8.4e-05 -89.0532 6.25521 58.7918 2650 
430 1 0.0333328 -0.0326361 0.0601495 0.000233 39.8281 4.8722 -22.0678 2650 
244 1 0.00336583 -0.050981 0.0631733 0.000233 16.7707 4.29367 7.10114 2650 
263 1 0.0277157 -0.0058561 0.0617772 0.001312 29.8548 -2.39633 -13.3818 2650 
254 1 0.0248684 -0.0504233 0.0634579 0.000847 24.5341 0.425892 -9.60956 2650 
212 1 0.0165295 -0.0525183 0.0656661 0.001312 37.7634 5.36372 -9.49765 2650 
71 1 0.0410218 0.0269095 -0.0545804 0.000847 -132.092 -2.10012 -99.2412 2650 
404 1 0.0037941 0.00444044 -0.014967 0.000233 -0.00650702 0.00214116 -0.0010451 2650 
363 1 0.010411 0.0188273 -0.0132103 0.000233 -0.00757594 0.0053142 -0.0028034 2650 
479 1 0.00941097 0.0357792 -0.0137837 0.000233 0.0510029 0.0393677 0.0382619 2650 
43 1 0.00344858 0.0530176 -0.0113922 0.001312 0.000232009 0.0634141 0.0141219 2650 
353 1 0.0123236 0.00426622 -0.0105058 8.4e-05 -0.00790224 0.00176539 0.00391071 2650 
208 1 0.0098171 0.0509125 -0.00808902 0.000233 -0.0338468 0.0698051 0.0110411 2650 
27 1 0.0012063 0.0013034 -0.00763563 8.4e-05 -0.00977723 -0.00292444 -0.00358491 2650 
12 1 0.00198392 0.00439859 -0.00649223 0.000233 -0.00483284 -0.000454109 0.00890104 2650 
55 1 0.00538465 0.0250272 -0.00742214 0.001312 0.0173121 0.0067254 0.0367473 2650 
301 1 0.0150917 0.0351428 -0.00761594 8.4e-05 -0.00657264 0.0223135 0.00418606 2650 
446 1 0.0144142 0.0480371 -0.00696346 0.000847 0.0308316 0.0300178 0.0432887 2650 
304 1 0.014081 0.0496521 -0.00770823 0.000847 0.0434712 0.0315715 0.0761207 2650 
449 1 0.0115403 0.033685 -0.00481565 0.000847 -0.0263941 0.0240948 -0.0215968 2650 
39 1 0.0676347 0.0353696 -0.0125097 0.000233 -27.0001 15.9563 -145.959 2650 
391 1 0.0135664 0.035595 -0.00580834 0.000233 0.00139547 0.0217574 0.0103177 2650 
234 1 0.00441832 0.0172944 -0.00436796 0.000233 0.00666386 0.0113116 0.0110827 2650 
475 1 0.0152382 0.0594476 -0.00349972 0.000847 0.0196222 0.0750266 0.0512241 2650 
492 1 0.016492 0.0557368 -0.00226098 0.000233 0.00910281 -0.0171726 0.228653 2650 
425 1 0.00668639 0.0603672 -0.000887137 0.000847 0.00470319 0.0442887 0.0174285 2650 
255 1 0.00835814 0.0163 9.76705e-05 0.000847 -0.000152053 0.00733458 0.00592091 2650 
426 1 0.00676503 0.0109033 0.00442939 0.000233 -0.0119961 0.00257197 0.0109227 2650 
299 1 0.00658192 0.0124866 0.00327459 0.000233 -0.0067092 0.00573937 -0.00119716 2650 
413 1 0.0128094 0.0287125 0.00335529 0.000233 0.00435847 0.0209987 0.00883861 2650 
469 1 0.014597 0.00282967 0.00683248 0.000233 0.0298141 0.00346674 -0.0311495 2650 
387 1 0.0117106 0.0191704 0.00650889 0.000233 -0.00570984 0.0118715 -0.00673351 2650 
14 1 0.0073883 0.00926458 0.00894023 8.4e-05 -0.00615551 0.00493893 0.00762042 2650 
110 1 0.00395163 0.0205312 0.00911702 0.000847 -0.00897299 0.0181743 0.0168124 2650 
77 1 0.0136652 0.0394202 0.0094318 0.000233 -0.178754 -0.0437382 0.240898 2650 
478 1 0.00410461 0.0409156 0.00922619 0.000233 0.018799 0.0304763 -0.00992086 2650 
457 1 0.0136699 0.0512182 0.00906774 8.4e-05 -0.0111483 0.0319351 0.00432043 2650 
502 1 0.0119181 0.00122461 0.0106944 0.000847 -0.0833808 0.0101333 0.113152 2650 
503 1 0.00819799 0.000487908 0.0115609 0.000233 0.00756227 -0.00437594 0.00642374 2650 
54 1 0.00494346 0.00471399 0.011239 8.4e-05 -0.010167 0.000395699 0.00379535 2650 
388 1 0.0116493 0.00337872 0.0114004 0.000233 -0.00599918 -0.00238884 0.011479 2650 
375 1 0.0085602 0.00814296 0.0119794 0.000233 -0.00661432 -0.000106325 0.0193449 2650 
273 1 0.00414784 0.0334778 0.0135441 0.000233 0.0629927 0.008249 -0.00640556 2650 
95 1 9.24629e-05 0.0362041 0.014708 0.001312 -0.0201219 -0.0137175 0.000945148 2650 
506 1 0.00567417 0.0437775 0.0156204 0.000233 -0.0171725 0.0225356 0.00460837 2650 
366 1 0.0660795 0.000448839 0.0195987 8.4e-05 77.5838 -0.384806 -261.193 2650 
175 1 0.0295152 0.0127133 0.0615273 0.000847 117.645 -6.87382 -56.4123 2650 
