ITEM: TIMESTEP
25617219
ITEM: NUMBER OF ATOMS
132
ITEM: BOX BOUNDS ff ff ff
-0.15 0.15
-0.15 0.15
-0.15 0.15
ITEM: ATOMS id type x y z radius vx vy vz density 
470 1 -0.00268718 -0.0204708 -0.0688636 8.4e-05 -59.4623 -14.3948 2.32032 2650 
456 1 -0.00381048 -0.0128941 -0.0686617 0.000233 -49.6336 8.13931 2.7543 2650 
73 1 -0.0295116 -0.0221055 -0.0614702 0.000847 -62.4551 -0.348259 29.9691 2650 
420 1 -0.0269814 -0.00258266 -0.0623137 0.000847 -5.84186 -6.93958 3.20085 2650 
254 1 -0.0298518 -0.0378039 -0.061278 0.000847 -30.669 3.01816 14.9314 2650 
226 1 -0.0420825 -0.0540771 -0.0536352 0.000847 -35.8088 -1.7481 28.0792 2650 
313 1 -0.000245814 -0.0492737 -0.0687688 0.000233 -74.8962 -3.17724 0.267674 2650 
263 1 -0.0637692 -0.0238246 -0.0228892 0.001312 -16.7098 -8.02261 46.5148 2650 
296 1 -0.0648776 -0.00249095 -0.0228109 0.000233 -1.97915 1.31873 5.62775 2650 
307 1 -0.0193478 -0.0593472 -0.0220387 0.000847 -4.25856 0.346758 3.72795 2650 
61 1 -0.0108131 -0.00321317 -0.0112303 0.000847 0.0174712 -0.00383716 -0.0145517 2650 
89 1 -0.00443718 -0.00190655 -0.0103589 0.000233 -0.00879813 -0.00766393 -0.0251778 2650 
516 1 -0.0138574 -0.00109398 -0.00918919 0.000233 -0.0177061 -0.00559475 0.0330808 2650 
472 1 -0.0680653 -0.0478137 -0.00395568 0.000847 -1.97314 -12.2691 33.9295 2650 
22 1 -0.00929428 -0.00291876 -0.00323999 0.000233 -0.00493111 -0.00829639 -0.00924296 2650 
187 1 -0.00135563 -9.99395e-05 -0.00192786 0.000847 -0.0120455 -0.00367718 0.00169353 2650 
121 1 -0.0147568 -0.00144414 0.00333897 0.001312 -0.00723199 -0.00515534 0.0205998 2650 
400 1 -0.0589144 -0.0167863 0.0354743 0.000233 12.5034 -0.415391 20.7606 2650 
411 1 -0.0533554 -0.0271196 0.0424339 0.000847 21.3466 10.0345 26.8234 2650 
305 1 -0.0496678 -0.0452319 0.0467103 0.000847 35.817 3.17615 38.0632 2650 
189 1 -0.042394 -0.021919 0.0533867 0.000847 32.6776 -4.29415 25.9333 2650 
471 1 -0.0382818 -0.0184089 0.0558723 0.001312 35.8153 -6.83591 24.5182 2650 
212 1 -0.0311795 -0.0219206 0.0601407 0.001312 49.0025 -1.44759 25.3847 2650 
261 1 -0.0057206 -0.0145954 0.0622526 0.000233 -14.5401 6.6497 -4.16095 2650 
276 1 -0.0148974 -0.0524354 0.0660403 0.001312 26.8413 3.3254 6.04958 2650 
184 1 -0.00822781 -0.0448971 0.0682338 8.4e-05 3.37068 -1.0574 0.200173 2650 
210 1 -0.00625573 0.000200944 -0.0154595 8.4e-05 -0.0127261 -0.0030397 0.00558385 2650 
383 1 -0.00112236 0.031023 -0.0116131 0.000847 -0.0100767 0.0185191 -0.00991804 2650 
242 1 -0.010934 0.0552697 -0.0115655 0.000847 0.0239138 0.0557204 -0.0285721 2650 
325 1 -0.013511 0.0027707 -0.00950417 0.000233 -0.0191333 0.000891146 0.00113125 2650 
412 1 -0.0109918 0.0532433 -0.0104523 0.000847 -0.0267102 0.0508492 0.0113405 2650 
129 1 -0.00287738 0.00821729 -0.00820415 0.000233 -0.0207357 -0.00794031 0.0267358 2650 
485 1 -0.00889317 0.0282888 -0.00894636 0.000847 -0.0180986 0.027778 -0.0076762 2650 
345 1 -0.00578756 0.031366 -0.0081505 0.000847 0.00320152 -0.260291 1.06074 2650 
361 1 -0.00528641 0.0169485 -0.00684607 0.000233 0.00991083 0.00785854 -0.0116005 2650 
333 1 -0.0138377 0.0221259 -0.00779307 0.000847 0.0135833 0.0109065 0.00342954 2650 
284 1 -0.00957704 0.0233374 -0.00678027 0.000233 -0.013261 0.0197088 -0.0290744 2650 
440 1 -0.00751973 0.003252 -0.00488967 0.000233 0.00637766 0.0032616 -0.0067895 2650 
35 1 -0.0151318 0.00790607 -0.00370119 0.000847 -0.00532244 -0.00228633 0.0337711 2650 
58 1 -0.0155715 0.0105619 -0.00373916 0.000847 0.0083519 -0.000453989 0.0104529 2650 
419 1 -0.00139187 0.00970871 -0.0037819 0.001312 0.00263124 0.0238751 0.024308 2650 
30 1 -0.0146333 0.0141515 -0.00402811 0.001312 -0.0115007 0.0110448 0.0301362 2650 
158 1 -0.0161735 0.00107667 -0.00299692 8.4e-05 -0.00940048 0.000287955 0.0113779 2650 
505 1 -0.00854589 0.0168939 -0.00244798 0.000233 0.00279447 0.0119381 -0.000228879 2650 
107 1 -0.0151333 0.0567662 -0.00279305 0.001312 0.00117055 0.0559878 -0.0180592 2650 
204 1 -0.00790349 0.00501488 -0.000710521 0.000847 -0.00195545 -0.00056211 0.00180048 2650 
494 1 -0.0120742 0.0177001 -0.000154277 0.000233 0.0211744 0.0155828 0.00209207 2650 
91 1 -0.014568 0.0706123 -0.000617079 0.000233 -0.00201407 0.0397236 -0.0270539 2650 
499 1 -0.0159448 0.0010334 0.00100436 0.000847 -0.00277731 0.0147317 -0.042014 2650 
397 1 -0.0115338 0.0057117 0.000270632 0.000847 0.0159786 -0.00951761 0.011865 2650 
433 1 -0.0134678 0.0131635 0.00238764 0.000847 0.00587186 0.0215518 -0.0084741 2650 
423 1 -0.0158984 0.0354265 0.00165075 0.000847 0.137792 1.18861 0.879502 2650 
109 1 -0.0107478 0.0118924 0.00378304 0.000847 -0.017462 -0.000960928 0.00481627 2650 
291 1 -0.00992435 0.015601 0.00337771 0.000847 -0.0116665 0.014129 -0.00483327 2650 
435 1 -0.0022116 0.0028164 0.00485639 0.000847 -0.0173269 -0.0054703 0.00941482 2650 
246 1 -0.00863095 0.0217778 0.00577645 0.000233 1.08122 -2.67344 4.09848 2650 
301 1 -0.01554 0.0416645 0.00627904 8.4e-05 2.00245 0.276394 4.73651 2650 
377 1 -0.0148437 0.00194363 0.00633875 0.000233 0.0157729 -0.0018408 0.00250622 2650 
56 1 -0.0133707 0.0162659 0.00757602 0.001312 -0.0209457 0.00820903 -0.0266284 2650 
156 1 -0.0146972 0.0186522 0.00731511 0.000233 -0.00900277 0.0124543 -0.0156797 2650 
237 1 -0.013013 0.0203076 0.00729628 0.001312 -0.0109841 0.0166865 -0.0151411 2650 
398 1 -0.0135404 0.0222097 0.00866228 0.000847 0.0315884 0.014208 0.0425546 2650 
514 1 -0.0119487 0.0238217 0.0085254 0.000847 -0.0195743 0.0529112 -0.0318591 2650 
223 1 -0.0129161 0.0158665 0.0104971 8.4e-05 0.00313032 0.00585877 -0.00498582 2650 
502 1 -0.011989 0.0282672 0.0108864 0.000847 4.26396 -0.983786 3.92558 2650 
165 1 -0.0112989 0.00850732 0.0113412 0.000847 0.0308057 0.0080171 0.0268908 2650 
77 1 -0.000911432 0.0224793 0.0123814 0.000233 0.7635 -1.17929 -0.0101611 2650 
116 1 -0.000210717 0.0227069 0.0112587 0.000233 0.0209887 0.0164881 0.0124942 2650 
7 1 -0.00413683 0.0187119 0.0133267 0.000847 0.015248 0.00873928 0.0171403 2650 
95 1 -0.00212093 0.0346952 0.0148119 0.001312 -0.0201219 -0.0137175 0.000945148 2650 
482 1 -0.00846058 0.0832622 0.0115672 0.000233 0.000351426 0.0488467 0.0205314 2650 
244 1 0.0582292 -0.0361679 -0.0365891 0.000233 -19.3227 -6.8284 -30.7445 2650 
448 1 0.0113889 -0.0415761 -0.0672062 0.000847 -41.1945 -10.3707 -6.97695 2650 
256 1 0.0149509 -0.0249719 -0.0665153 0.000847 -54.4331 -15.0677 -12.2285 2650 
251 1 0.0250183 -0.0122406 -0.0634087 0.000847 -37.8862 15.0901 -14.9421 2650 
430 1 0.0272845 -0.0460661 -0.0628483 0.000233 -70.9565 -33.2699 -37.3501 2650 
336 1 0.0315494 -0.0118061 -0.0611045 0.000233 -49.383 -10.2478 -25.4931 2650 
450 1 0.0365611 -0.0596153 -0.057518 0.000847 -6.75897 3.96741 -4.47259 2650 
253 1 0.0358058 -0.0442031 -0.0580035 0.000847 -17.9138 -26.877 -10.9981 2650 
328 1 0.0478841 -0.0609747 -0.0479116 0.001312 -32.8959 2.1233 -32.8174 2650 
287 1 0.0542719 -0.0516448 -0.0422349 0.000233 -15.199 5.47913 -19.5261 2650 
203 1 0.0575869 -0.0443072 -0.0365328 0.000847 -37.3291 6.4429 -58.7984 2650 
294 1 0.0680669 -0.0332172 -0.00409741 0.000847 -3.10364 -4.88095 -51.5243 2650 
464 1 0.0687722 -0.0401364 -0.000492644 0.000233 -0.426714 -7.17663 -59.5596 2650 
11 1 0.0166269 -0.00266438 0.000361731 0.000233 0.000798873 -0.00285632 0.00269102 2650 
330 1 0.0671084 -0.0270454 0.0120613 0.000847 7.39759 1.8653 -41.1349 2650 
320 1 0.0661122 -0.0112338 0.0166457 0.000847 6.55689 -2.01043 -26.0247 2650 
348 1 0.0627852 -0.0349478 0.0280653 0.000233 21.1987 -11.4971 -47.4148 2650 
32 1 0.0616467 -0.00734795 0.0291722 0.000847 30.8728 -1.69182 -65.2073 2650 
63 1 0.0217724 -0.036664 0.06523 0.000233 47.8128 -2.44127 -15.9571 2650 
5 1 0.0377904 -0.00356354 0.0346888 0.000847 56.841 -27.1521 -42.3186 2650 
317 1 0.0382543 -0.0509999 0.0564507 0.000847 59.3397 13.4471 -40.1916 2650 
332 1 0.0280115 -0.0496108 0.0621439 0.000847 35.7594 -3.75983 -16.109 2650 
175 1 0.020705 0.0198754 -0.0650221 0.000847 -124 5.62443 -39.4689 2650 
366 1 0.0557363 0.0219538 -0.0405377 8.4e-05 -99.5712 -15.1752 -136.895 2650 
404 1 0.00307833 0.00467596 -0.0150819 0.000233 -0.00650702 0.00214116 -0.0010451 2650 
363 1 0.00957765 0.0194119 -0.0135187 0.000233 -0.00757594 0.0053142 -0.0028034 2650 
353 1 0.0114544 0.00446041 -0.0100757 8.4e-05 -0.00790224 0.00176539 0.00391071 2650 
43 1 0.0034741 0.0599931 -0.00983876 0.001312 0.000232009 0.0634141 0.0141219 2650 
27 1 0.00013081 0.000981713 -0.00802996 8.4e-05 -0.00977723 -0.00292444 -0.00358491 2650 
479 1 0.0141277 0.0399442 -0.00880919 0.000233 0.0286087 0.0353954 0.0545489 2650 
449 1 0.00863693 0.0363354 -0.00719128 0.000847 -0.0263941 0.0240948 -0.0215968 2650 
208 1 0.00609398 0.058591 -0.00687451 0.000233 -0.0338468 0.0698051 0.0110411 2650 
12 1 0.00145231 0.00434864 -0.00551312 0.000233 -0.00483284 -0.000454109 0.00890104 2650 
55 1 0.00728897 0.025767 -0.00337996 0.001312 0.0173121 0.0067254 0.0367473 2650 
388 1 0.0160318 0.0359051 -0.00411496 0.000233 0.230613 0.636563 1.8811 2650 
391 1 0.0137199 0.0379883 -0.0046734 0.000233 0.00139547 0.0217574 0.0103177 2650 
234 1 0.00515135 0.0185386 -0.00314887 0.000233 0.00666386 0.0113116 0.0110827 2650 
446 1 0.0157398 0.0507632 -0.00141817 0.000847 0.0103772 0.0242709 0.0510628 2650 
255 1 0.00834141 0.0171068 0.000748966 0.000847 -0.000152053 0.00733458 0.00592091 2650 
304 1 0.0159141 0.052935 0.00141452 0.000847 -0.0161503 0.0253624 0.0832685 2650 
425 1 0.00720373 0.065239 0.00102999 0.000847 0.00470319 0.0442887 0.0174285 2650 
469 1 0.0159865 0.00307834 0.00280996 0.000233 0.0048082 0.00171169 -0.0390359 2650 
299 1 0.00584392 0.0131179 0.00314291 0.000233 -0.0067092 0.00573937 -0.00119716 2650 
233 1 0.0118563 0.00965966 0.00330985 0.000233 0.116223 0.019572 -0.0172449 2650 
413 1 0.0132888 0.0310224 0.00432753 0.000233 0.00435847 0.0209987 0.00883861 2650 
418 1 0.00365382 0.0116519 0.00487464 8.4e-05 0.0693665 -0.137733 0.0282819 2650 
426 1 0.00544547 0.0111863 0.00563088 0.000233 -0.0119961 0.00257197 0.0109227 2650 
387 1 0.0110825 0.0204762 0.0057682 0.000233 -0.00570984 0.0118715 -0.00673351 2650 
475 1 0.067969 0.0663338 0.00523875 0.000847 0.000607347 -0.0397464 -0.00787395 2650 
478 1 0.00617248 0.044268 0.0081349 0.000233 0.018799 0.0304763 -0.00992086 2650 
14 1 0.00671119 0.00980786 0.00977847 8.4e-05 -0.00615551 0.00493893 0.00762042 2650 
110 1 0.00296461 0.0225304 0.0109664 0.000847 -0.00897299 0.0181743 0.0168124 2650 
457 1 0.0124436 0.0547311 0.00954298 8.4e-05 -0.0111483 0.0319351 0.00432043 2650 
503 1 0.00902983 6.55814e-06 0.0122676 0.000233 0.00756227 -0.00437594 0.00642374 2650 
54 1 0.0038251 0.00475752 0.0116565 8.4e-05 -0.010167 0.000395699 0.00379535 2650 
375 1 0.00783263 0.00813127 0.0141073 0.000233 -0.00661432 -0.000106325 0.0193449 2650 
273 1 0.0109094 0.0343595 0.0126703 0.000233 0.0214502 0.0018955 -0.0483598 2650 
506 1 0.00378521 0.0462564 0.0161273 0.000233 -0.0171725 0.0225356 0.00460837 2650 
492 1 0.0036306 0.0535108 0.0161763 0.000233 -0.212553 -0.0215194 0.058019 2650 
71 1 0.0461925 0.0229106 0.0502762 0.000847 119.232 1.2686 -109.506 2650 
493 1 0.0561153 0.0851521 -0.0152635 0.000233 8.89306 3.2531 -3.58855 2650 
