ITEM: TIMESTEP
28086339
ITEM: NUMBER OF ATOMS
112
ITEM: BOX BOUNDS ff ff ff
-0.15 0.15
-0.15 0.15
-0.15 0.15
ITEM: ATOMS id type x y z radius vx vy vz density 
244 1 -0.00771935 -0.0486376 -0.0683334 0.000233 -59.9106 4.6557 6.76701 2650 
61 1 -0.0022196 -0.0081232 -0.0681208 0.000847 -30.863 1.65791 1.00509 2650 
246 1 -0.0288707 -0.0261331 -0.0624162 0.000233 -65.3543 -4.79332 30.2247 2650 
73 1 -0.0336728 -0.013149 -0.0592725 0.000847 -37.6269 -1.07359 21.3633 2650 
189 1 -0.0470947 -0.0128108 -0.0493001 0.000847 -36.8182 5.39529 35.1511 2650 
294 1 -0.0573265 -0.0430358 -0.0368838 0.000847 -10.69 -1.5662 16.6026 2650 
320 1 -0.0617995 -0.0297511 -0.028802 0.000847 -18.4273 9.71361 39.5154 2650 
418 1 -0.0659834 -0.0199881 -0.0198954 8.4e-05 -10.4203 14.4615 34.5562 2650 
328 1 -0.0662512 -0.0449885 -0.0141462 0.001312 -8.64101 -6.55978 40.4329 2650 
89 1 -0.00584487 -0.00313277 -0.0143873 0.000233 -0.00879813 -0.00766393 -0.0251778 2650 
210 1 -0.0082919 -0.000285405 -0.0145661 8.4e-05 -0.0127261 -0.0030397 0.00558385 2650 
516 1 -0.0161607 -0.00191444 -0.00372659 0.000233 -0.00974766 -0.00447257 0.0356305 2650 
187 1 -0.00328289 -0.000688285 -0.0016569 0.000847 -0.0120455 -0.00367718 0.00169353 2650 
411 1 -0.0681945 -0.0168089 0.000970168 0.000847 0.975027 -0.0876243 68.5085 2650 
121 1 -0.0135281 -0.00229421 0.0061651 0.001312 0.0126813 -0.00536581 0.0166785 2650 
32 1 -0.0644243 -0.0569998 0.022351 0.000847 18.5339 7.91691 53.3929 2650 
464 1 -0.063739 -0.00461519 0.0258414 0.000233 44.1751 -10.4465 108.944 2650 
254 1 -0.0514765 -0.0343566 0.0446856 0.000847 16.4019 -7.04234 18.8812 2650 
203 1 -0.0451132 -0.0443084 0.0511186 0.000847 37.7123 -12.0855 33.2628 2650 
63 1 -0.0451512 -0.0295604 0.0518681 0.000233 51.3218 8.89819 44.2483 2650 
400 1 -0.0384795 -0.053106 0.0569981 0.000233 62.1518 -3.98171 41.9515 2650 
77 1 -0.024819 -0.0322723 0.0641364 0.000233 80.4344 6.19263 31.1209 2650 
226 1 -0.0100108 -0.00233655 0.0674323 0.000847 51.1828 2.12947 7.59425 2650 
383 1 -0.00273462 0.033986 -0.0132 0.000847 -0.0100767 0.0185191 -0.00991804 2650 
345 1 -0.00898635 0.00663912 -0.0121285 0.000847 -0.286063 -0.0979123 -0.0310633 2650 
284 1 -0.0116988 0.0264908 -0.0114321 0.000233 -0.013261 0.0197088 -0.0290744 2650 
485 1 -0.0117889 0.0327332 -0.0101745 0.000847 -0.0180986 0.027778 -0.0076762 2650 
27 1 -0.00143354 0.000513805 -0.00860354 8.4e-05 -0.00977723 -0.00292444 -0.00358491 2650 
361 1 -0.00370068 0.0182059 -0.00870213 0.000233 0.00991083 0.00785854 -0.0116005 2650 
412 1 -0.0136629 0.0620014 -0.00830708 0.000847 -0.0135854 0.0559454 0.0140493 2650 
325 1 -0.0138149 0.00315149 -0.00719514 0.000233 -0.00088679 0.00246738 0.0152127 2650 
333 1 -0.0116644 0.023871 -0.00724435 0.000847 0.0135833 0.0109065 0.00342954 2650 
301 1 -0.0150299 0.0383214 -0.00742238 8.4e-05 -1.00462 -0.0383166 1.88977 2650 
499 1 -0.0150025 0.00358354 -0.00559142 0.000847 0.0164947 0.0174928 -0.0384856 2650 
440 1 -0.00649931 0.00377385 -0.00597598 0.000233 0.00637766 0.0032616 -0.0067895 2650 
107 1 -0.014946 0.0657241 -0.0056825 0.001312 0.00117055 0.0559878 -0.0180592 2650 
129 1 -0.00619506 0.00694684 -0.00392645 0.000233 -0.0207357 -0.00794031 0.0267358 2650 
492 1 -0.0160316 0.0507995 -0.00434066 0.000233 0.0387793 -0.0100709 -0.204318 2650 
58 1 -0.0142352 0.0104892 -0.00206672 0.000847 0.0083519 -0.000453989 0.0104529 2650 
505 1 -0.00809878 0.018804 -0.00248461 0.000233 0.00279447 0.0119381 -0.000228879 2650 
158 1 -0.0163524 0.00110744 -0.00121567 8.4e-05 0.00258819 0.000149478 0.0110232 2650 
204 1 -0.00821636 0.00492494 -0.000422446 0.000847 -0.00195545 -0.00056211 0.00180048 2650 
419 1 -0.000970871 0.0135287 0.000107356 0.001312 0.00263124 0.0238751 0.024308 2650 
30 1 -0.0154432 0.016028 0.000890796 0.001312 0.000471869 0.0123154 0.0312652 2650 
433 1 -0.0125283 0.0166117 0.00103179 0.000847 0.00587186 0.0215518 -0.0084741 2650 
494 1 -0.00868636 0.0201933 0.000180452 0.000233 0.0211744 0.0155828 0.00209207 2650 
397 1 -0.00897721 0.00418889 0.00216902 0.000847 0.0159786 -0.00951761 0.011865 2650 
35 1 -0.0159412 0.00753676 0.00169805 0.000847 0.00804056 -0.00338614 0.0324708 2650 
56 1 -0.014838 0.0175997 0.00297014 0.001312 -0.00431553 0.00838869 -0.0296768 2650 
291 1 -0.011791 0.0178616 0.00260439 0.000847 -0.0116665 0.014129 -0.00483327 2650 
109 1 -0.0135417 0.0117386 0.00455364 0.000847 -0.017462 -0.000960928 0.00481627 2650 
514 1 -0.0150805 0.0322874 0.00342798 0.000847 -0.0195743 0.0529112 -0.0318591 2650 
156 1 -0.0159692 0.0206277 0.00476814 0.000233 -0.00389794 0.0119343 -0.0168388 2650 
237 1 -0.0147704 0.0229775 0.00487372 0.001312 -0.0109841 0.0166865 -0.0151411 2650 
377 1 -0.01232 0.00164911 0.00673974 0.000233 0.0157729 -0.0018408 0.00250622 2650 
435 1 -0.00498389 0.00194116 0.00636275 0.000847 -0.0173269 -0.0054703 0.00941482 2650 
223 1 -0.0124153 0.0168039 0.00969942 8.4e-05 0.00313032 0.00585877 -0.00498582 2650 
165 1 -0.00591447 0.00968732 0.0149437 0.000847 0.0360834 0.00667509 0.0184308 2650 
398 1 -0.00738937 0.0243463 0.0142404 0.000847 0.0462886 0.0122149 0.0244094 2650 
95 1 -0.00252455 0.0280049 0.014371 0.001312 0.140908 -0.273599 -0.022717 2650 
7 1 -0.00169034 0.020103 0.0159226 0.000847 0.0163119 0.00762672 -0.00560447 2650 
91 1 -0.0148902 0.076968 -0.00494567 0.000233 -0.00201407 0.0397236 -0.0270539 2650 
482 1 -0.00985238 0.0910361 0.0174021 0.000233 -0.807311 0.0263371 1.44398 2650 
305 1 0.0360898 -0.0127511 -0.0578434 0.000847 -46.578 2.44505 -29.0449 2650 
448 1 0.0583312 -0.0355252 -0.0353129 0.000847 -28.5851 11.0126 -47.1918 2650 
307 1 0.00838215 -0.0577319 -0.028012 0.000847 -5.25173 -0.120606 -1.54195 2650 
212 1 0.0675338 -0.0297051 -0.00579025 0.001312 -4.72883 -14.9572 -56.4042 2650 
471 1 0.0676609 -0.0278484 -0.003796 0.001312 -3.84091 3.49556 -63.3855 2650 
256 1 0.0681984 -0.0445332 -0.000118253 0.000847 -0.111639 6.82126 -64.4095 2650 
11 1 0.0166414 -0.00310741 0.000770795 0.000233 -0.000792443 -0.00266003 0.00238905 2650 
456 1 0.0680959 -0.0441202 0.00962365 0.000233 5.41206 -5.42038 -38.2877 2650 
22 1 0.0678298 -0.00277121 0.0113537 0.000233 9.05624 7.98808 -54.0942 2650 
503 1 0.0101995 -0.000698855 0.013207 0.000233 0.00174176 -0.00513697 -0.00633361 2650 
251 1 0.0613538 -0.0261743 0.0297554 0.000847 24.0246 10.6523 -49.5098 2650 
317 1 0.00296262 -0.0407256 0.0681083 0.000847 54.1832 7.76088 -2.35566 2650 
253 1 0.0597771 -0.049365 0.0328054 0.000847 26.1342 9.75269 -47.5944 2650 
263 1 0.0363763 -0.00656788 0.0571157 0.001312 29.3334 -0.181161 -18.6649 2650 
348 1 0.0259847 -0.00850569 0.0636707 0.000233 58.8167 -7.50339 -23.999 2650 
175 1 0.0169574 0.0127691 -0.0660958 0.000847 -123.765 6.44512 -31.7397 2650 
71 1 0.0267267 0.0206363 -0.0628154 0.000847 -143.141 4.34947 -60.8799 2650 
404 1 0.00203722 0.00501855 -0.0152492 0.000233 -0.00650702 0.00214116 -0.0010451 2650 
363 1 0.00836551 0.0202622 -0.0139672 0.000233 -0.00757594 0.0053142 -0.0028034 2650 
273 1 0.0120096 0.0320435 -0.0116848 0.000233 -0.907735 0.0493789 -0.789107 2650 
449 1 0.00441389 0.0401906 -0.0106467 0.000847 -0.0263941 0.0240948 -0.0215968 2650 
353 1 0.01019 0.00474288 -0.00944996 8.4e-05 -0.00790224 0.00176539 0.00391071 2650 
43 1 0.00351122 0.0701393 -0.00757928 0.001312 0.000232009 0.0634141 0.0141219 2650 
208 1 0.000678528 0.0697598 -0.00510795 0.000233 -0.0338468 0.0698051 0.0110411 2650 
12 1 0.000679059 0.00427598 -0.00408896 0.000233 -0.00483284 -0.000454109 0.00890104 2650 
469 1 0.0161988 0.00331567 -0.00337522 0.000233 -0.00868844 0.000826643 -0.0375695 2650 
233 1 0.0104931 0.0110853 -0.002257 0.000233 -0.049704 0.00539083 -0.0405864 2650 
391 1 0.0139432 0.0414695 -0.00302257 0.000233 0.00139547 0.0217574 0.0103177 2650 
234 1 0.00621756 0.0203485 -0.00137566 0.000233 0.00666386 0.0113116 0.0110827 2650 
502 1 0.0160155 0.0425844 -0.00075576 0.000847 0.0793611 0.280039 -1.83339 2650 
479 1 0.0166311 0.0452978 0.000430945 0.000233 0.0027067 0.0315917 0.0597776 2650 
299 1 0.00477045 0.0140362 0.00295136 0.000233 -0.0067092 0.00573937 -0.00119716 2650 
255 1 0.00831708 0.0182803 0.00169631 0.000847 -0.000152053 0.00733458 0.00592091 2650 
55 1 0.0100589 0.0268431 0.00249958 0.001312 0.0173121 0.0067254 0.0367473 2650 
387 1 0.010169 0.0223757 0.00469085 0.000233 -0.00570984 0.0118715 -0.00673351 2650 
388 1 0.0161775 0.0490199 0.00357194 0.000233 -0.200118 0.256541 1.05768 2650 
425 1 0.00795624 0.0723251 0.00381853 0.000847 0.00470319 0.0442887 0.0174285 2650 
413 1 0.0139862 0.0343822 0.0057417 0.000233 0.00435847 0.0209987 0.00883861 2650 
426 1 0.00352611 0.0115978 0.0073785 0.000233 -0.0119961 0.00257197 0.0109227 2650 
478 1 0.0091803 0.0491442 0.00654758 0.000233 0.018799 0.0304763 -0.00992086 2650 
446 1 0.0144565 0.0542255 0.00639555 0.000847 -0.0132059 0.0208973 0.0482086 2650 
14 1 0.00572632 0.0105981 0.0109977 8.4e-05 -0.00615551 0.00493893 0.00762042 2650 
457 1 0.0106598 0.0598407 0.0102342 8.4e-05 -0.0111483 0.0319351 0.00432043 2650 
54 1 0.0021984 0.00482083 0.0122638 8.4e-05 -0.010167 0.000395699 0.00379535 2650 
110 1 0.0015919 0.0254311 0.0136526 0.000847 -0.00827344 0.0180944 0.0167706 2650 
116 1 0.00012282 0.0256903 0.0134386 0.000233 -0.012616 0.020325 0.0145038 2650 
304 1 0.00960067 0.0564033 0.0128153 0.000847 -0.0625732 0.0177136 0.0544557 2650 
375 1 0.00584602 0.00804557 0.0151795 0.000233 -0.0145612 -0.000694274 0.00202751 2650 
506 1 0.00100123 0.0498168 0.016546 0.000233 -0.017617 0.0219825 0.000717788 2650 
