ITEM: TIMESTEP
14506082
ITEM: NUMBER OF ATOMS
291
ITEM: BOX BOUNDS ff ff ff
-0.15 0.15
-0.15 0.15
-0.15 0.15
ITEM: ATOMS id type x y z radius vx vy vz density 
86 1 -0.000524447 -0.0401339 -0.068153 0.000847 -26.7932 1.88872 0.20607 2650 
73 1 -0.0215964 -0.0206251 -0.0646422 0.000847 -20.6858 0.906847 6.90889 2650 
438 1 -0.021821 -0.00252444 -0.0645672 0.000847 -21.7434 3.83856 7.34575 2650 
164 1 -0.0309367 -0.00446182 -0.0607372 0.000847 -29.5839 5.65446 15.0594 2650 
37 1 -0.0311883 -0.0196935 -0.0583548 0.000233 -7.29401 -5.78343 5.18784 2650 
34 1 -0.0378345 -0.0464041 -0.0567091 0.000847 -36.9959 9.05736 24.6679 2650 
111 1 -0.0391075 -0.00573582 -0.0558253 0.000847 -21.0776 -3.97217 14.7568 2650 
317 1 -0.0403475 -0.0348511 -0.0549371 0.000847 -21.5828 0.876479 15.8403 2650 
101 1 -0.0441875 -0.0155695 -0.0526929 0.000233 -26.7575 -4.12911 22.4337 2650 
295 1 -0.0501695 -0.00719545 -0.0461477 0.000847 -17.8328 1.27618 19.3733 2650 
253 1 -0.0496964 -0.0458449 -0.045396 0.000847 -27.1532 8.15101 31.1072 2650 
227 1 -0.0509466 -0.0416817 -0.045292 0.000847 -20.1302 0.890655 22.6282 2650 
380 1 -0.0514687 -0.0122748 -0.0440084 0.001312 -18.8533 -1.14844 22.0278 2650 
393 1 -0.0534543 -0.0565063 -0.0415576 0.001312 -10.3839 0.733951 13.3412 2650 
385 1 -0.0544694 -0.01714 -0.0409902 0.000847 -17.6565 -1.3889 23.4467 2650 
298 1 -0.0559462 -0.0447203 -0.0399937 0.000233 -29.5183 6.4718 41.2844 2650 
352 1 -0.0553385 -0.0117533 -0.040827 0.000233 -8.37387 3.863 11.3474 2650 
134 1 -0.0563887 -0.0302268 -0.0375121 0.001312 -18.116 -3.77978 27.2066 2650 
451 1 -0.0628764 -0.0399096 -0.0263514 0.000847 -11.7069 3.82641 27.9151 2650 
422 1 -0.0643526 -0.0305841 -0.0225158 0.000847 -11.2925 -4.04211 32.2547 2650 
294 1 -0.0649632 -0.0616921 -0.0206818 0.000847 -8.87394 0.839508 27.8639 2650 
455 1 -0.0662162 -0.0405112 -0.018574 0.000233 -8.55748 -2.51597 30.5012 2650 
373 1 -0.0659572 -0.0454628 -0.0172378 0.000847 -4.92048 9.54979 18.8152 2650 
133 1 -0.0661168 -0.0610971 -0.0146743 0.001312 -5.08509 0.578265 22.8888 2650 
49 1 -0.006313 -0.00177493 -0.014865 0.000233 0 -0.01175 0 2650 
36 1 -0.008519 -0.00154493 -0.013643 0.000233 0 -0.01175 0 2650 
501 1 -0.00339053 -0.000925281 -0.0139834 0.000847 0.00466299 -0.00865284 0.00279295 2650 
13 1 -0.012448 -0.00063193 -0.010914 8.4e-05 0 -0.01175 0 2650 
392 1 -0.00378758 -0.000727328 -0.00953994 8.4e-05 0.000331427 -0.0128363 0.000109303 2650 
336 1 -0.000699 -0.00329493 -0.008095 0.000233 0 -0.01175 0 2650 
65 1 -0.013861 -0.00291114 -0.00818929 0.000233 -0.01522 -0.00877562 0.0324898 2650 
448 1 -0.0681051 -0.00290536 0.00322424 0.000847 1.71854 1.79133 36.2791 2650 
307 1 -0.0289262 -0.059314 0.00363499 0.000847 0.840543 0.255874 7.01172 2650 
395 1 -0.0679317 -0.0552002 0.00580049 0.000847 2.68049 -0.712351 31.3727 2650 
495 1 -0.00117194 -0.00197568 0.00518257 0.000233 -0.0216097 -0.00536975 0.0219754 2650 
283 1 -0.00727 -0.00200693 0.006824 0.000233 0 -0.01175 0 2650 
151 1 -0.0676465 -0.0456385 0.00851977 0.000847 4.49915 3.13788 35.7013 2650 
88 1 -0.010473 -0.00212493 0.008034 0.000233 0 -0.01175 0 2650 
130 1 -0.004749 -0.00192393 0.009456 0.000233 0 -0.01175 0 2650 
160 1 -0.00394885 -0.00356794 0.0108745 0.001312 -0.296236 -0.145052 0.728072 2650 
256 1 -0.00736714 -0.00151774 0.0104291 0.000847 -0.00426754 -0.0114665 0.00611625 2650 
226 1 -0.0051478 -0.00191037 0.0116591 0.000847 -0.218053 0.229071 0.217139 2650 
128 1 -0.003888 -0.00038293 0.011415 0.000233 0 -0.01175 0 2650 
443 1 -0.004264 -0.00168393 0.013262 0.000233 0 -0.01175 0 2650 
379 1 -0.006906 -0.00115193 0.013866 8.4e-05 0 -0.01175 0 2650 
135 1 -0.0633307 -0.00819742 0.0252295 0.000847 7.37588 -2.04307 18.5017 2650 
26 1 -0.0573472 -0.0517199 0.0379564 0.000233 20.6069 -5.89017 31.128 2650 
219 1 -0.0574185 -0.0261877 0.0378471 0.000233 11.953 -5.6313 18.1299 2650 
173 1 -0.0541397 -0.00318785 0.0391208 0.001312 18.72 -9.21275 20.5633 2650 
225 1 -0.0513188 -0.00669309 0.0435037 0.001312 6.87576 12.2895 7.72807 2650 
417 1 -0.0517943 -0.0152661 0.0452372 0.000233 -0.156618 -0.474358 -0.179267 2650 
357 1 -0.04846 -0.0479865 0.0479423 0.000847 21.6569 -1.29058 21.8761 2650 
450 1 -0.046741 -0.0269201 0.0496201 0.000847 23.7769 -2.18026 22.3826 2650 
24 1 -0.0464506 -0.0491351 0.0507085 0.000233 17.0522 4.88545 15.6166 2650 
312 1 -0.0313196 -0.0093469 0.0612208 0.000233 24.3849 -0.859522 12.4747 2650 
471 1 -0.0237932 -0.0599534 0.0633824 0.001312 25.0478 -7.71387 9.39405 2650 
250 1 -0.0133448 -0.0270438 0.0655951 0.001312 15.3885 -3.75226 9.256 2650 
461 1 -0.0114649 -0.0520332 0.0671836 0.000847 25.0544 -6.41769 4.27415 2650 
364 1 -0.0172066 -0.0200439 0.0665796 0.000233 35.5104 -5.26205 9.17703 2650 
343 1 -0.00611436 -0.00990657 0.067895 0.000847 49.8021 -9.23368 4.48247 2650 
48 1 -0.00705862 0.0618497 -0.0611201 0.000847 9.06176 -0.56861 -7.05528 2650 
165 1 -0.00592112 0.000409543 -0.0147989 0.000847 -0.0872704 0.00898753 0.0383767 2650 
70 1 -0.00710686 0.00334496 -0.0143141 0.000847 -0.120153 0.0144741 0.0520019 2650 
511 1 -0.00172615 0.00900681 -0.0154806 0.000847 0.22044 -0.208225 0.0367518 2650 
423 1 -0.00219131 0.0145838 -0.014972 0.000847 -0.0178625 0.0203904 0.00404334 2650 
246 1 -0.00525679 0.0165897 -0.0146518 0.000233 -0.0101735 0.0207499 0.00780821 2650 
184 1 -0.00866944 0.0196831 -0.0143368 8.4e-05 0.372459 -0.0420196 -0.166674 2650 
77 1 -0.00827538 0.0442103 -0.0143682 0.000233 0.47422 0.139206 -0.25358 2650 
158 1 -0.0102239 0.0011848 -0.0112693 8.4e-05 -0.000728497 -0.00305337 0.0122284 2650 
121 1 -0.00813108 0.000648044 -0.0115406 0.001312 -0.00793663 -0.00217034 0.00116333 2650 
287 1 -0.00473842 0.0128608 -0.0120521 0.000233 0.000141444 0.0205559 -0.000128638 2650 
486 1 -0.00829193 0.0375316 -0.0110021 0.000847 0.0111105 0.320868 -0.15323 2650 
72 1 -0.0063038 0.0436974 -0.00973033 0.000847 0.0131193 0.0325042 0.0089407 2650 
198 1 -0.0111124 0.0496662 -0.00964151 0.001312 -0.0578422 0.0780942 0.0612756 2650 
67 1 -0.0130943 0.0627513 -0.00995384 8.4e-05 -0.0193491 0.087684 0.0252624 2650 
348 1 -0.011402 0.00090407 -0.008993 0.000233 0 -0.01175 0 2650 
332 1 -0.013253 0.00209907 -0.008686 0.000847 0 -0.01175 0 2650 
177 1 -0.00274692 0.0439969 -0.00874211 0.000847 0.010286 0.141177 0.0546929 2650 
18 1 -0.0130005 0.0587177 -0.00935195 0.000847 0.0243505 0.0916471 -0.0349811 2650 
464 1 -3.2e-05 0.00055907 -0.007535 0.000233 0 -0.01175 0 2650 
462 1 -0.00706448 0.0647427 -0.00505119 0.000847 0.0558703 0.124962 0.0409752 2650 
482 1 -0.00871361 0.0480924 -0.00321544 0.000233 0.000351426 0.0488467 0.0205314 2650 
200 1 -0.000748158 0.0504307 -0.00317819 0.000847 0.140528 0.179245 0.0685727 2650 
296 1 -0.00637349 0.0020049 -0.00281357 0.000233 -0.0339269 -0.00832328 -0.0576308 2650 
63 1 -0.000147 0.00221207 -0.0027 0.000233 0 -0.01175 0 2650 
204 1 -0.00649557 0.0054196 -0.00200687 0.000847 -0.00195545 -0.00056211 0.00180048 2650 
505 1 -0.0105579 0.0082985 -0.00228319 0.000233 0.00279447 0.0119381 -0.000228879 2650 
446 1 -0.0112068 0.0271138 -0.00220473 0.000847 -0.0771164 -0.00473659 -0.0845087 2650 
213 1 -0.0213217 0.0620477 -0.00169359 0.000847 -2.03659 0.00319578 -0.127701 2650 
440 1 -0.0121117 0.000903636 -1.21896e-06 0.000233 0.00637766 0.0032616 -0.0067895 2650 
8 1 -0.0165122 0.00955433 -0.00111226 0.000233 0.0177695 -0.00052839 0.00344916 2650 
475 1 -0.0155637 0.0222315 -0.000410855 0.000847 0.030189 0.0762933 -0.117384 2650 
172 1 -0.00742073 0.00108393 0.000284242 0.001312 -0.0511884 -0.0133546 -0.0405891 2650 
403 1 -0.0165541 0.00285255 0.0006663 0.000233 -0.0100736 -0.0487036 -0.243308 2650 
174 1 -0.0077435 0.00675603 0.000728836 0.000847 -0.041694 0.0197945 -0.0306217 2650 
7 1 -0.0152809 0.0124071 0.000930205 0.000847 0.016009 0.00879665 0.0173954 2650 
361 1 -0.0124222 0.0112904 0.0015063 0.000233 0.00991083 0.00785854 -0.0116005 2650 
345 1 -0.009321 0.00864084 0.00238742 0.000847 0.00491802 0.0335378 -0.0219141 2650 
412 1 -0.0142974 0.0195887 0.00248898 0.000847 0.0123136 0.0589135 -0.132122 2650 
55 1 -0.00686291 0.0199744 0.00273759 0.001312 -0.139065 0.0224024 0.106333 2650 
191 1 -0.0153971 0.0289351 0.00271771 0.000847 -0.0827912 0.097385 -0.141921 2650 
112 1 -0.00853682 0.0360985 0.00219315 0.000847 -0.0140513 0.0302205 -0.0485154 2650 
470 1 -0.008539 0.00258307 0.004033 8.4e-05 0 -0.01175 0 2650 
374 1 -0.006913 0.00249007 0.00361 0.000233 0 -0.01175 0 2650 
22 1 -0.00574388 0.00305466 0.00341495 0.000233 -0.00493111 -0.00829639 -0.00924296 2650 
266 1 -0.00953158 0.00659287 0.00418133 0.000847 -0.0303208 0.00499827 0.00405546 2650 
1 1 -0.0151911 0.015857 0.00349772 0.001312 -0.0344128 0.0224878 -0.12487 2650 
244 1 -0.002251 0.00204507 0.006118 0.000233 0 -0.01175 0 2650 
156 1 -0.0150553 0.00446781 0.00571118 0.000233 0.00220235 0.026726 0.0218511 2650 
116 1 -0.00736994 0.011435 0.00492901 0.000233 -0.0155717 0.0137319 0.000237016 2650 
56 1 -0.0140647 0.00157269 0.00632951 0.001312 0.0165445 0.0101006 0.029671 2650 
469 1 -0.013038 0.00119585 0.0077044 0.000233 0.0580194 0.00203115 0.0229709 2650 
223 1 -0.0142504 0.00815281 0.00747219 8.4e-05 0.000415489 0.0115601 0.0061813 2650 
333 1 -0.000220741 0.0135329 0.00718158 0.000847 -0.0199028 0.0119662 -0.0215366 2650 
242 1 -0.0123117 0.00249076 0.00917908 0.000847 0.0041772 0.024443 0.0765642 2650 
152 1 -0.00270883 0.00195127 0.00839665 0.000847 -0.0018724 -0.0107873 0.000558582 2650 
492 1 -0.0122743 0.00567074 0.00918772 0.000233 -0.302043 0.265928 -0.299983 2650 
268 1 -0.00588338 0.0294059 0.00888754 0.000847 0.00104994 0.117304 -0.0345035 2650 
61 1 -0.00432906 0.00108403 0.00956942 0.000847 -0.0539133 -0.00783089 -0.0253431 2650 
291 1 -0.00290066 0.00956995 0.010431 0.000847 -0.00126071 0.00240356 0.000411461 2650 
87 1 -0.0115085 0.0440779 0.00947743 0.000847 -0.000765043 0.030515 -0.0195847 2650 
71 1 -0.00280751 0.0526538 0.00986048 0.000847 -0.0146025 0.0443271 0.015827 2650 
208 1 -0.0101966 0.00156432 0.0114111 0.000233 -0.0196751 -0.00298478 0.0347675 2650 
313 1 -0.004641 0.00226307 0.011299 0.000233 0 -0.01175 0 2650 
449 1 -0.00495317 0.0142949 0.0117137 0.000847 0.0476931 0.0347603 -0.0292235 2650 
107 1 -0.00885822 0.0199006 0.012625 0.001312 -0.0762884 0.0367448 -0.0395041 2650 
292 1 -0.0113692 0.030755 0.0112946 0.000847 -0.0398054 0.101166 -0.110293 2650 
369 1 -0.0672051 0.0379397 0.0114288 0.000847 0.0686605 -0.466706 0.403439 2650 
91 1 -0.000960149 0.0401181 0.0113448 0.000233 -0.0363941 0.045077 -0.00579716 2650 
238 1 -0.00655185 0.0308062 0.0132917 0.001312 -0.0958878 0.0254998 -0.0647467 2650 
390 1 -0.00102001 0.000828088 0.0149689 0.000233 -0.00511716 -0.00910385 0.00447344 2650 
98 1 -0.00359495 0.00167088 0.0151888 0.000847 -0.366715 -0.21576 -0.0999314 2650 
479 1 -0.00261429 0.00375409 0.0144666 0.000233 -0.0867202 0.0650369 -0.0950141 2650 
514 1 -0.00528764 0.0149805 0.0151451 0.000847 -0.491432 0.0427431 -0.205102 2650 
478 1 -0.00727466 0.0222822 0.0149721 0.000233 0.00552025 0.0369228 0.0361556 2650 
304 1 -0.0067177 0.0285776 0.0145228 0.000847 -0.100861 0.0700918 -0.0421133 2650 
39 1 -0.00379134 0.0376654 0.0158969 0.000233 -0.0609199 0.160324 -0.01886 2650 
366 1 -0.00356326 0.0410279 0.0163307 8.4e-05 -0.0843605 0.0550605 -0.0157168 2650 
252 1 -0.0402833 0.108817 -0.0550096 0.000847 -47.0864 -0.845783 34.4625 2650 
139 1 -0.00701878 0.125729 0.000797714 0.000847 -0.0305392 0.576921 0.0828429 2650 
260 1 -0.0122522 0.0830526 0.0105398 0.000233 -0.106217 0.378589 -0.0767445 2650 
356 1 -1.62395e-06 0.0806489 0.0152456 0.000847 -0.100027 0.392212 0.0151355 2650 
117 1 0.00650558 -0.0609627 -0.0684586 0.000233 -38.7437 -4.33154 -3.68174 2650 
144 1 0.00494609 -0.00663906 -0.0685889 0.000233 0.0311329 -0.161926 0.00460226 2650 
251 1 0.0180734 -0.0574813 -0.0657152 0.000847 -24.2397 0.365139 -6.66396 2650 
306 1 0.0270535 -0.0346716 -0.062558 0.000847 -23.9102 2.98855 -10.3342 2650 
337 1 0.037841 -0.0210052 -0.0574192 0.000233 -18.6179 -5.54146 -12.2694 2650 
381 1 0.0414453 -0.0583446 -0.05411 0.000847 -15.8449 -7.36261 -12.1274 2650 
32 1 0.0420873 -0.0191899 -0.0536056 0.000847 -3.68661 -6.63109 -2.8933 2650 
190 1 0.0442909 -0.0251577 -0.0518046 0.000847 -10.5102 9.95485 -8.9782 2650 
126 1 0.0407286 -0.0136307 -0.0512202 0.000847 -0.790283 -0.648007 1.43062 2650 
329 1 0.0479017 -0.0195625 -0.0484947 0.000847 -17.0225 -0.472231 -16.8022 2650 
396 1 0.050192 -0.0193708 -0.046118 0.000847 -12.359 -3.97327 -13.4398 2650 
83 1 0.0523663 -0.0150567 -0.0436365 0.000847 -12.6923 3.65763 -15.22 2650 
305 1 0.0490095 -0.00411715 -0.0418051 0.000847 -14.1965 -2.01309 -8.7506 2650 
370 1 0.0558728 -0.052393 -0.0390444 0.000847 -6.20246 -7.34382 -8.86854 2650 
231 1 0.0577919 -0.00740283 -0.0372757 0.000233 -19.0141 0.276121 -29.4731 2650 
371 1 0.0576795 -0.0117869 -0.0363361 0.000847 -14.4757 -3.63625 -22.9629 2650 
153 1 0.0341565 -0.00880001 -0.0307128 0.000233 -22.5468 -17.441 -25.0883 2650 
189 1 0.0606874 -0.00382609 -0.0307276 0.000847 -2.54229 -4.10664 -6.57694 2650 
220 1 0.0648516 -0.0301471 -0.0228933 0.000233 -16.0024 0.667341 -46.6568 2650 
320 1 0.0646794 -0.0406905 -0.0215379 0.000847 -5.57267 -4.8182 -16.723 2650 
168 1 0.0655034 -0.000655158 -0.0209478 0.000233 -6.74074 -0.560251 -21.0737 2650 
286 1 0.0663383 -0.0407127 -0.0181399 0.000233 -16.395 -9.97053 -59.9468 2650 
323 1 0.0667302 -0.0604159 -0.0166342 0.000233 -8.76249 -2.25462 -35.145 2650 
330 1 0.0659214 -0.00660088 -0.0173646 0.000847 -2.52021 -1.75353 -9.56004 2650 
405 1 0.001255 -0.00043293 -0.009572 8.4e-05 0 -0.01175 0 2650 
163 1 0.0106254 -0.000247054 -0.00957447 0.000847 -0.153257 -0.0908012 0.0753833 2650 
510 1 0.0227103 -0.00633421 -0.00904723 0.001312 2.71054 -0.401937 -1.10984 2650 
496 1 0.0138741 -0.00241931 -0.00898758 8.4e-05 -0.00606114 -0.00423817 0.00225466 2650 
233 1 0.00124059 -0.00126059 -0.00836852 0.000233 0.0138699 -0.00603489 0.0127794 2650 
254 1 0.0129454 -0.000786366 -0.00917364 0.000847 0.00735286 -0.0556286 -0.0325095 2650 
142 1 0.00467497 -0.00124884 -0.00478322 0.000233 0.00324513 -0.0123885 -0.00786429 2650 
477 1 0.0687386 -0.000896793 -0.00213185 0.000233 0.06243 6.26846 2.01254 2650 
274 1 0.0687521 -0.00326027 -0.00167607 0.000233 -0.833129 -0.431896 -34.1684 2650 
11 1 0.0160517 -0.000607823 -0.00157581 0.000233 0.000798873 -0.00285632 0.00269102 2650 
132 1 0.0138625 -0.000189423 0.00143533 8.4e-05 0.00207343 -0.00616698 -0.00232159 2650 
512 1 0.0431753 -0.0420691 0.00164275 0.000847 2.93301 16.988 -36.7435 2650 
328 1 0.0135797 -0.00181623 0.00166297 0.001312 0.00265803 -0.0076612 -0.00326394 2650 
214 1 0.00217375 -0.000664362 0.00355648 0.000847 0.030827 -0.0335183 0.0511241 2650 
456 1 0.009608 -0.00071493 0.003179 0.000233 0 -0.01175 0 2650 
167 1 0.009498 -0.00276593 0.007687 0.000233 0 -0.01175 0 2650 
93 1 0.0671516 -0.0126518 0.0155016 8.4e-05 7.0425 10.6136 -30.5053 2650 
406 1 0.000483757 -6.69105e-05 0.0155983 0.001312 -0.048193 -0.0289424 0.00253476 2650 
119 1 0.0295231 -0.00370193 0.0163255 8.4e-05 4.20853 -0.0711115 2.32317 2650 
212 1 0.0644111 -0.0580862 0.0209804 0.001312 12.5224 3.34844 -38.4033 2650 
9 1 0.0654849 -0.0530465 0.0210097 0.000233 13.9786 16.4344 -43.5449 2650 
432 1 0.0641638 -0.0228702 0.0216603 0.001312 6.5385 -0.0324288 -19.3486 2650 
203 1 0.0647666 -0.00318553 0.0213026 0.000847 11.8245 6.15534 -35.9279 2650 
267 1 0.0604906 -0.0340448 0.03146 0.000847 21.3431 -16.2077 -41.0139 2650 
263 1 0.056987 -0.00239696 0.0365581 0.001312 3.44433 -0.764856 -5.36196 2650 
201 1 0.0177536 -0.0583936 0.0419562 0.000847 60.6303 19.9719 -7.0768 2650 
316 1 0.0539882 -0.0429431 0.0416384 0.000847 28.7159 5.11947 -37.2111 2650 
359 1 0.0455898 -0.00938119 0.0476256 0.000847 1.49281 -0.365542 1.22666 2650 
407 1 0.0104433 -0.0209098 0.0508851 0.000847 71.5267 38.3955 -55.8325 2650 
271 1 0.0414526 -0.0579115 0.0548703 0.000233 31.6985 0.219004 -23.9424 2650 
411 1 0.0382057 -0.043759 0.0564565 0.000847 33.3798 8.54082 -22.5752 2650 
293 1 0.0397575 -0.0163173 0.0552789 0.000847 0.213948 -0.618049 -0.015881 2650 
431 1 0.0386008 -0.0239054 0.0570911 8.4e-05 24.4307 -8.86951 -16.5182 2650 
115 1 0.0342688 -0.0567944 0.0596214 0.000233 41.7355 -1.07485 -23.9844 2650 
303 1 0.0343489 -0.0361528 0.058886 0.000847 40.138 4.73827 -23.3994 2650 
302 1 0.0221923 -0.0523539 0.0639768 0.001312 37.1845 -2.15398 -12.8874 2650 
497 1 0.0217609 -0.0252716 0.0641277 0.001312 39.2654 -3.66641 -13.3128 2650 
84 1 0.0131614 -0.044808 0.0668945 0.000847 57.9873 -6.82953 -11.403 2650 
421 1 0.00749934 -0.0371361 0.067754 0.000847 46.9306 -0.425367 -5.19266 2650 
157 1 0.00765262 -0.0312031 0.0683399 0.000233 18.2648 3.26683 -2.04527 2650 
94 1 0.0248912 0.0672347 -0.0629452 0.001312 -5.42766 -2.81724 -2.14627 2650 
217 1 0.0502087 0.00105057 -0.046101 0.000847 -14.8758 0.942692 -16.1814 2650 
210 1 0.00403263 0.00264802 -0.0163808 8.4e-05 -0.0143787 -0.0035462 -0.00725523 2650 
420 1 0.00206187 0.0270679 -0.0159227 0.000847 -0.572835 -0.234913 -0.0224748 2650 
404 1 0.0077634 0.00313432 -0.0143295 0.000233 -0.00650702 0.00214116 -0.0010451 2650 
30 1 0.00647889 0.00861878 -0.0132179 0.001312 -0.0415905 0.00498815 -0.00698769 2650 
95 1 0.00899162 0.0385832 -0.012695 0.001312 0.5525 -0.119898 0.408664 2650 
12 1 0.00493196 0.0046756 -0.0119219 0.000233 -0.00483284 -0.000454109 0.00890104 2650 
5 1 0.010984 0.00461379 -0.0113765 0.000847 -0.0192883 -0.0222788 -0.0108747 2650 
35 1 0.0070142 0.00651798 -0.0125342 0.000847 -0.0409709 0.00409173 -0.00132336 2650 
234 1 0.000353352 0.0103943 -0.0111284 0.000233 0.00666386 0.0113116 0.0110827 2650 
425 1 0.00381743 0.033351 -0.0115186 0.000847 0.00470319 0.0442887 0.0174285 2650 
384 1 0.0109396 0.0442875 -0.0116368 0.000847 0.803177 0.194368 0.606008 2650 
325 1 0.000264973 0.00212907 -0.0103187 0.000233 -0.0191333 0.000891146 0.00113125 2650 
516 1 0.0127868 0.00545583 -0.0107146 0.000233 -0.0374739 -0.0106555 -0.03136 2650 
398 1 0.0114335 0.00704515 -0.0110139 0.000847 -0.0542111 0.0281093 -0.0668762 2650 
338 1 0.00688427 0.0217855 -0.00997452 0.000233 -0.0616397 0.28638 -0.221017 2650 
391 1 0.0108946 0.0220258 -0.0105008 0.000233 0.0163256 0.0241937 -0.00281456 2650 
419 1 0.00699237 0.000346711 -0.00833118 0.001312 -0.0464227 -0.0126194 -0.0444454 2650 
43 1 0.0125225 0.00640156 -0.00921458 0.001312 -0.0279571 0.0941609 -0.0369164 2650 
363 1 0.0135894 0.0152631 -0.00868356 0.000233 -0.00516116 0.0058541 -0.00751722 2650 
400 1 0.008609 0.00282407 -0.006808 0.000233 0 -0.01175 0 2650 
493 1 0.00882718 0.013956 -0.00772268 0.000233 -0.0350389 0.00533607 -0.000173476 2650 
27 1 0.00717043 0.00308731 -0.00544882 8.4e-05 -0.00977723 -0.00292444 -0.00358491 2650 
276 1 0.0113927 0.00318744 -0.00596406 0.001312 0.0183982 -0.0239978 0.0354711 2650 
377 1 0.00160914 0.0046632 -0.00601331 0.000233 -0.0250426 -0.00388706 0.0179868 2650 
397 1 0.000992854 0.0148777 -0.0062219 0.000847 -0.0372166 -0.0146385 0.00732656 2650 
228 1 0.0149785 0.0307478 -0.00592552 0.000847 0.010121 0.0403214 0.0416598 2650 
105 1 0.00021 0.00232007 -0.003991 0.000233 0 -0.01175 0 2650 
502 1 0.0153472 0.00491119 -0.00447026 0.000847 0.142904 0.161943 0.465718 2650 
109 1 0.00207549 0.00877596 -0.00435008 0.000847 -0.00745721 0.00702426 0.0143526 2650 
485 1 0.00455602 0.00833149 -0.0033767 0.000847 -0.029317 0.0266257 -0.008824 2650 
58 1 0.00215176 0.0124046 -0.00366437 0.000847 -0.0251084 -0.00259086 -0.000261686 2650 
255 1 0.00845089 0.0118259 -0.0035141 0.000847 -0.000152053 0.00733458 0.00592091 2650 
383 1 0.00613288 0.0176891 -0.00447207 0.000847 -0.0100767 0.0185191 -0.00991804 2650 
301 1 0.00633639 0.0198844 -0.00356952 8.4e-05 0.014617 0.0250478 -0.00677003 2650 
216 1 0.000277007 0.0256243 -0.00324632 0.000847 0.00347878 0.0283419 0.0066285 2650 
17 1 0.00398767 0.000160922 -0.00181371 0.000847 -1.76833e-05 -0.0107613 -0.00131097 2650 
80 1 0.000184 0.00229507 -0.002772 8.4e-05 0 -0.01175 0 2650 
187 1 0.00731716 0.00254764 -0.00314721 0.000847 -0.0120455 -0.00367718 0.00169353 2650 
353 1 0.00808352 0.00349854 -0.00235996 8.4e-05 0.00908281 0.00118574 -0.0158319 2650 
435 1 0.0102638 0.00675502 -0.0019223 0.000847 -0.0173269 -0.0054703 0.00941482 2650 
426 1 0.0140827 0.00933444 -0.00223347 0.000233 -0.0119961 0.00257197 0.0109227 2650 
437 1 0.0109438 0.0138369 -0.00193223 0.000847 0.00373217 0.0104887 0.0121652 2650 
413 1 0.0101507 0.0159032 -0.00203629 0.000233 0.00435847 0.0209987 0.00883861 2650 
273 1 0.00562971 0.0250118 -0.00264719 0.000233 -0.125966 0.0414799 -0.119789 2650 
45 1 0.00727429 0.0362037 -0.00267984 0.000847 -0.0846493 0.0963449 -0.148238 2650 
494 1 0.00601547 0.00584139 -0.00157103 0.000233 -0.0452811 0.0168568 0.00191361 2650 
110 1 0.00942517 0.00944485 -0.00113859 0.000847 -0.00897299 0.0181743 0.0168124 2650 
81 1 0.0141835 0.01562 -0.000403958 0.001312 -0.00301941 0.0216029 0.0151399 2650 
28 1 0.0168631 0.0330721 -0.000134884 8.4e-05 0.00684607 0.0440032 0.0211436 2650 
368 1 0.0160167 0.0506747 -0.00106077 0.000847 -0.058669 0.0225066 -0.307309 2650 
375 1 0.012595 0.00820782 0.00017891 0.000233 -0.00661432 -0.000106325 0.0193449 2650 
467 1 0.0128691 0.0147145 0.000265123 0.000233 -0.0302936 0.0201185 -0.00244968 2650 
457 1 0.00982957 0.0301936 0.000643543 8.4e-05 0.00801527 0.0347161 0.0147456 2650 
351 1 0.00518582 0.022748 0.00311576 0.000233 0.00409184 0.0180406 0.0328294 2650 
441 1 0.0161476 0.0503951 0.00287719 0.000233 0.00866855 0.209792 0.189386 2650 
433 1 0.000430893 0.00187385 0.00456395 0.000847 -0.0517177 0.00641299 0.000235799 2650 
14 1 0.0111432 0.00625182 0.00429176 8.4e-05 -0.00615551 0.00493893 0.00762042 2650 
388 1 0.0153088 0.00483592 0.00439813 0.000233 -0.00599918 -0.00238884 0.011479 2650 
299 1 0.0106745 0.00898556 0.00400486 0.000233 -0.0067092 0.00573937 -0.00119716 2650 
188 1 0.000621236 0.0394075 0.00456576 0.000847 0.00797073 0.0304807 0.00488408 2650 
277 1 0.00664375 0.0622134 0.00316465 0.000847 -0.0314963 0.189717 -0.0703206 2650 
261 1 0.0016439 0.00309592 0.0062883 0.000233 0.00211365 -0.00978047 0.000245052 2650 
503 1 0.00358499 0.00315724 0.00764245 0.000233 0.00756227 -0.00437594 0.00642374 2650 
89 1 0.00189749 0.0036115 0.00776917 0.000233 -0.00879813 -0.00766393 -0.0251778 2650 
387 1 0.0102185 0.0112356 0.00785012 0.000233 0.0175133 0.0151067 0.00617877 2650 
54 1 0.0111453 0.00447262 0.00892386 8.4e-05 -0.010167 0.000395699 0.00379535 2650 
129 1 0.00321412 0.0162773 0.0088822 0.000233 0.000601083 -0.0135965 -0.0609851 2650 
506 1 0.0140793 0.0293479 0.00874902 0.000233 -0.0128936 0.0239161 0.0127615 2650 
484 1 0.00756029 0.0411004 0.00921086 0.001312 -0.13435 0.0445405 -0.0110058 2650 
418 1 0.014593 0.0429197 0.00818796 8.4e-05 0.0617593 0.031578 -0.115277 2650 
499 1 0.00771511 0.000322898 0.0117106 0.000847 -0.0434418 -0.000564959 0.0155159 2650 
237 1 0.000195582 0.00775562 0.0124103 0.001312 -0.0277231 0.0192661 -0.00180598 2650 
430 1 0.00893398 0.00573344 0.0139551 0.000233 0.172971 -0.128815 -0.130764 2650 
38 1 0.0088913 0.0309845 0.0135119 0.000233 -0.020266 0.0326074 0.00886807 2650 
389 1 0.00767977 0.00134267 0.0142491 0.000233 -1.59353 0.0594821 1.17767 2650 
284 1 0.000125746 0.00956334 0.0142643 0.000233 -0.0161106 0.0120469 -0.0311177 2650 
472 1 0.0058943 0.0114421 0.0146794 0.000847 -0.0401778 0.0278474 0.0142632 2650 
394 1 0.00234958 0.0216291 0.0158951 0.000847 -0.0689373 0.0804626 0.00236841 2650 
175 1 0.0124615 0.0945557 -0.0670719 0.000847 -108.358 -9.13007 -20.1232 2650 
199 1 0.0565049 0.085107 -0.0372964 0.001312 1.699 1.80793 2.57081 2650 
196 1 0.00649177 0.0785786 0.00150884 0.000233 0.14737 0.408094 0.0973858 2650 
15 1 0.00925355 0.113264 0.00256111 0.001312 -0.00383471 0.206713 -0.0197233 2650 
60 1 0.0347784 0.115279 0.0587178 0.000847 115.017 6.96653 -68.0962 2650 
