ITEM: TIMESTEP
6049346
ITEM: NUMBER OF ATOMS
240
ITEM: BOX BOUNDS ff ff ff
-0.15 0.15
-0.15 0.15
-0.15 0.15
ITEM: ATOMS id type x y z radius vx vy vz density 
43 1 -0.0137972 -0.0333805 -0.0665307 0.001058 -24.6297 1.10929 5.10479 2650 
38 1 -0.0385114 -0.0534619 -0.0569016 0.000291 -5.71848 0.815313 3.8703 2650 
141 1 -0.042515 -0.00830199 -0.053976 0.000291 -0.16031 -0.200724 0.12627 2650 
219 1 -0.0536488 -0.022668 -0.0429323 0.000291 -17.9135 -6.99414 22.3788 2650 
264 1 -0.0166147 -0.0605938 -0.0331349 0.001058 17.8001 0.620651 -4.38236 2650 
30 1 -0.00106653 -0.03433 -0.0687038 0.000291 -68.9846 3.10715 1.07068 2650 
302 1 -0.0643579 -0.00414882 -0.0240807 0.000291 -13.9364 5.3458 37.2372 2650 
121 1 -0.0647865 -0.0574877 -0.0188768 0.00164 -17.6765 -5.43581 60.6105 2650 
44 1 -0.0648227 -0.00382749 -0.0204326 0.001058 -6.01137 -4.38887 19.0735 2650 
293 1 -0.0663649 -0.0316536 -0.0146513 0.001058 -0.0504379 -0.725615 0.228248 2650 
214 1 -0.0275475 -0.00852049 -0.01309 0.000291 -3.90597 -1.04928 -1.82911 2650 
295 1 -0.006507 -0.00238846 -0.01264 0.000291 0 -0.01175 0 2650 
108 1 -0.007031 -0.00169946 -0.009032 0.001058 0 -0.01175 0 2650 
200 1 -0.012172 -0.00315546 -0.006974 0.000105 0 -0.01175 0 2650 
211 1 -0.0143054 -0.00121708 -0.00630505 0.001058 -0.0121592 -0.0310362 -0.0612751 2650 
135 1 -0.00329125 -0.000315198 -0.00528639 0.000291 0.0022501 0.000177671 -0.0146391 2650 
76 1 -0.00176254 -0.00106056 -0.00553434 0.001058 0.00564796 -0.0105611 0.000695373 2650 
14 1 -0.006378 -0.00106446 0.001478 0.000291 0 -0.01175 0 2650 
296 1 -0.005879 -0.000586464 0.000521 0.000291 0 -0.01175 0 2650 
49 1 -0.00748719 -0.00306544 0.00526431 0.00164 -0.000971666 -0.00928815 0.00263678 2650 
243 1 -0.0675723 -0.0335043 0.00730778 0.001058 1.33841 3.57724 12.3649 2650 
122 1 -0.0294312 -0.0051786 0.00636536 0.001058 -4.61627 -0.151925 0.998412 2650 
251 1 -0.00751475 -0.0012201 0.0119138 0.001058 0.00244061 -0.0240469 -0.0113516 2650 
233 1 -0.001796 -0.00114746 0.010436 0.000291 0 -0.01175 0 2650 
226 1 -0.009224 -0.000175464 0.012787 0.000291 0 -0.01175 0 2650 
93 1 -0.0647612 -0.0545178 0.0229692 0.000291 -2.68771 1.06894 -7.57588 2650 
64 1 -0.0103347 -0.00420087 0.0395778 0.000105 -1.59752 -0.105562 6.11787 2650 
16 1 -0.0427864 -0.00800446 0.0539834 0.000105 20.3254 -3.21819 16.487 2650 
173 1 -0.0411854 -0.0174785 0.0549982 0.000291 22.2467 -0.466495 16.6554 2650 
218 1 -0.0383282 -0.00177913 0.0561278 0.001058 32.6931 10.6361 22.3087 2650 
272 1 -0.0301409 -0.0248619 0.0604755 0.001058 0.163046 -1.2127 -0.764563 2650 
193 1 -0.00632228 -0.00220168 0.0670847 0.00164 36.2812 -6.2922 4.04977 2650 
91 1 -0.03874 0.0631641 -0.0551526 0.001058 -6.39751 -0.0454286 8.64928 2650 
180 1 -0.00374441 0.000943668 -0.0153476 0.001058 0.0703794 -0.00408826 -0.0195957 2650 
85 1 -0.00238779 0.00139946 -0.0158898 0.000291 0.0766191 0.00838776 -0.029439 2650 
70 1 -0.002345 0.00289654 -0.015511 0.000291 0 -0.01175 0 2650 
155 1 -0.00115854 0.00636563 -0.0156686 0.001058 0.079494 0.0370671 -0.00429127 2650 
33 1 -0.00381133 0.00614509 -0.0127273 0.00164 0.00139121 -0.00702858 0.00589607 2650 
203 1 -0.00310354 0.0013013 -0.0108224 0.001058 0.0209108 0.0584553 -0.0872504 2650 
234 1 -0.00740698 0.00588869 -0.0109635 0.000291 -0.0198056 0.0044 -0.0033269 2650 
94 1 -0.011581 0.00802154 -0.01188 0.000291 0 -0.01175 0 2650 
163 1 -0.00453721 0.0172209 -0.0109197 0.001058 0.148238 0.430061 0.0454896 2650 
127 1 -0.0113857 0.0191195 -0.0111981 0.000291 0.0287766 0.0561217 0.00113528 2650 
198 1 -0.0137688 0.00100482 -0.00871903 0.000291 -0.0189321 -0.0185963 0.0322719 2650 
47 1 -0.013975 0.00638037 -0.00883959 0.000291 -0.0151239 0.0424086 0.0277911 2650 
115 1 -0.0131786 0.00852309 -0.00875767 0.001058 -0.0164764 0.0248805 0.0304094 2650 
144 1 -0.012556 0.00919036 -0.00801949 0.000105 0.00862261 0.0155448 0.0270904 2650 
175 1 -0.0144344 0.00348201 -0.00767478 0.000291 -0.00548155 -0.0122699 0.0356858 2650 
17 1 -0.0129207 0.00485189 -0.00799526 0.00164 -0.0319861 0.0121596 0.01495 2650 
74 1 -0.0110034 0.006653 -0.00643793 0.001058 0.0223283 0.0206406 -0.0248191 2650 
250 1 -0.00612627 0.00830641 -0.00630231 0.001058 0.056604 0.0605666 -0.00107285 2650 
187 1 -0.0140671 0.0111958 -0.00662459 0.001058 -0.0111972 -0.0033368 -0.00320404 2650 
75 1 -0.0145556 0.0239492 -0.00606209 0.001058 0.0114283 0.0841616 -0.0748557 2650 
97 1 -0.0124544 0.0021178 -0.00439463 0.00164 0.0121553 0.0106013 -0.0710584 2650 
114 1 -0.0132269 0.00481967 -0.00511189 0.001058 -0.0289472 0.00771389 0.0293244 2650 
159 1 -0.012707 0.00812254 -0.00588 0.000291 0 -0.01175 0 2650 
123 1 -0.00150557 0.00842102 -0.00593905 0.001058 0.063573 0.0430792 -0.0441042 2650 
256 1 -0.015217 0.010933 -0.00591814 0.000291 -0.0124574 -8.7345e-05 -0.00544798 2650 
41 1 -0.00736792 0.0118851 -0.0047035 0.00164 0.0101493 0.00903205 0.0210511 2650 
220 1 -0.0144699 0.0167705 -0.00489921 0.000291 0.00621602 0.00749286 0.0146849 2650 
82 1 -0.0153356 0.0187609 -0.0040461 0.001058 0.00253638 0.0365077 -0.0747446 2650 
274 1 -0.016349 0.00199354 -0.002509 0.000291 0 -0.01175 0 2650 
276 1 -0.0138614 0.00525785 -0.00394511 0.000291 -0.0261747 0.00630698 0.0399243 2650 
13 1 -0.014201 0.00422854 -0.003882 0.000291 0 -0.01175 0 2650 
104 1 -0.014089 0.00491054 -0.003012 0.000105 0 -0.01175 0 2650 
209 1 -0.0117786 0.00533075 -0.00211035 0.001058 0.015559 0.000777763 -0.0163002 2650 
240 1 -0.0108996 0.00586053 -0.0035595 0.000291 -0.00735799 0.0125146 0.0246778 2650 
99 1 -0.0151762 0.00694193 -0.00284155 0.001058 0.0193954 0.0223274 -0.0313797 2650 
10 1 -0.0137376 0.00841351 -0.00234455 0.001058 0.0118673 0.0253436 -0.0110551 2650 
28 1 -0.0153976 0.0159439 -0.00305707 0.001058 0.0193505 0.068452 -0.102384 2650 
7 1 -0.00708565 0.0171435 -0.00304588 0.000291 0.00379351 0.0136266 -0.000190797 2650 
136 1 -0.0057804 0.0595884 -0.00389883 0.000105 0.0370802 0.101801 0.0201257 2650 
61 1 -0.016439 0.00784054 -0.001038 0.000291 0 -0.01175 0 2650 
65 1 -0.0101855 0.0146257 -0.00172149 0.00164 -0.00350053 0.0118922 0.00337463 2650 
273 1 -0.00114448 0.014622 -0.00185419 0.001058 -0.00378567 0.0376334 0.0311204 2650 
191 1 -0.0108 0.000267536 0.001549 0.000291 0 -0.01175 0 2650 
168 1 -0.007536 0.00127854 0.001389 0.000105 0 -0.01175 0 2650 
120 1 -0.016055 0.00348054 0.000189 0.000105 0 -0.01175 0 2650 
52 1 -0.0156805 0.00543224 0.0011962 0.001058 0.00278668 0.00600564 -0.00863977 2650 
80 1 -0.014935 0.00617854 0.00039 0.000105 0 -0.01175 0 2650 
268 1 -0.011054 0.00670254 0.000789 0.000291 0 -0.01175 0 2650 
129 1 -0.00869956 0.00649918 0.00193284 0.00164 0.000219449 -0.0120332 0.000405385 2650 
292 1 -0.00250301 0.00811792 0.00181415 0.001058 0.0192322 0.0276757 0.064947 2650 
18 1 -0.005138 0.000472536 0.00212 0.001058 0 -0.01175 0 2650 
176 1 -0.003983 0.00481754 0.002552 0.000105 0 -0.01175 0 2650 
77 1 -0.00878166 0.0103278 0.00268044 0.000291 0.0277953 0.00207908 -0.016867 2650 
206 1 -0.015992 0.0203972 0.00267289 0.000291 -0.00229865 0.236368 -0.00599883 2650 
157 1 -0.0125071 0.0314981 0.00327745 0.000291 0.0200522 0.0842483 0.026686 2650 
98 1 -0.00189297 0.000796181 0.00405461 0.001058 -0.000888658 -0.0146521 -0.00984914 2650 
53 1 -0.000389 0.00155554 0.004762 0.000291 0 -0.01175 0 2650 
170 1 -0.01149 0.00295054 0.005193 0.001058 0 -0.01175 0 2650 
164 1 -0.003894 0.00385354 0.005467 0.001058 0 -0.01175 0 2650 
291 1 -0.008194 0.00822754 0.004767 0.000291 0 -0.01175 0 2650 
124 1 -0.0149582 0.0117538 0.00518346 0.001058 0.00266368 0.055279 0.00445737 2650 
87 1 -0.0130137 0.010849 0.00428472 0.000291 -0.0561812 0.0413788 0.0608668 2650 
242 1 -0.00727692 0.0113977 0.00458779 0.000291 -0.0086111 0.00654042 0.00262129 2650 
153 1 -0.00523211 0.0114579 0.00551582 0.00164 -0.0160505 0.0135553 -0.0319037 2650 
68 1 -0.00809325 0.0139017 0.00586507 0.001058 -0.0196316 0.0181485 -0.0267118 2650 
54 1 -0.0102639 0.0257726 0.00580752 0.000291 0.0409507 0.0217642 0.0638771 2650 
58 1 -0.0114649 0.00147986 0.00683799 0.001058 -0.00593126 -0.00817978 0.00596219 2650 
186 1 -0.006177 0.00616954 0.006545 0.001058 0 -0.01175 0 2650 
106 1 -0.0118566 0.0133756 0.00690166 0.001058 0.0137575 0.0554487 0.0117951 2650 
266 1 -0.0121144 0.00665052 0.00952832 0.001058 0.00937684 0.0221622 0.0136256 2650 
195 1 -0.00826803 0.00920282 0.00955442 0.001058 -0.0892162 0.0279856 -0.177422 2650 
71 1 -0.00172651 0.00811183 0.00886902 0.000291 0.00030078 -0.00911555 -0.0267516 2650 
224 1 -0.00684947 0.016721 0.00952081 0.001058 -0.00447147 0.0341032 -0.0147251 2650 
300 1 -0.0110626 0.00337503 0.0112449 0.001058 -0.00517173 -0.00942998 -0.00459252 2650 
299 1 -0.010497 0.00593812 0.0107585 0.001058 0.00876654 -0.0132883 0.00667507 2650 
249 1 -0.00436314 0.0159805 0.0104371 0.000291 0.00967839 0.0183331 -0.0129307 2650 
217 1 -0.00998731 0.0195398 0.0113447 0.001058 0.00073517 0.0265897 -0.0055625 2650 
245 1 -0.00437166 0.040677 0.0105864 0.001058 0.0132501 0.0534812 -0.0221989 2650 
285 1 -0.00889044 0.00339752 0.01307 0.001058 -0.00771031 -0.0133685 -0.00514153 2650 
4 1 -0.00765861 0.0123024 0.0134578 0.001058 -0.00150284 0.0780749 0.00283743 2650 
238 1 -0.00622542 0.0137146 0.0126666 0.001058 0.0409726 0.0661139 0.0147149 2650 
304 1 -0.00470733 0.00798394 0.0155533 0.000291 0.115923 -0.00456724 0.0217162 2650 
55 1 -0.00367925 0.00931597 0.0161434 0.000291 0.127762 0.00672053 0.0376683 2650 
197 1 0.0614934 -0.00575046 -0.0306601 0.000291 0.0785635 -0.134874 0.157525 2650 
254 1 0.0115983 -0.0611779 -0.0641557 0.000291 -16.0142 1.45402 -4.56407 2650 
26 1 0.000204674 -0.024231 -0.0507116 0.001058 -24.7309 2.65053 -10.9245 2650 
213 1 0.00760826 -0.00403005 -0.035192 0.000291 1.1628 -0.0951656 -5.37852 2650 
257 1 0.0614076 -0.00949024 -0.0291223 0.001058 -7.40406 -2.20208 -15.5984 2650 
184 1 0.00438672 -0.00233146 -0.0160638 0.000105 -0.0924609 -0.00511868 -0.0250891 2650 
303 1 0.001598 -0.000485464 -0.015917 0.000291 0 -0.01175 0 2650 
46 1 0.007499 -0.00104846 -0.014091 0.000291 0 -0.01175 0 2650 
237 1 0.005321 -0.00178546 -0.012467 0.001058 0 -0.01175 0 2650 
196 1 0.002599 -0.000492464 -0.011929 0.001058 0 -0.01175 0 2650 
259 1 0.006357 -0.00253146 -0.00938 0.001058 0 -0.01175 0 2650 
178 1 0.00370462 -0.00176199 -0.00518469 0.001058 0.000447662 -0.0102267 0.00270423 2650 
171 1 0.000459 -0.00264346 -0.002783 0.001058 0 -0.01175 0 2650 
270 1 0.00190512 -0.00104553 -0.00258888 0.000291 0.0222139 -0.00940451 0.00236984 2650 
88 1 0.002864 -0.000933464 -0.002457 0.000105 0 -0.01175 0 2650 
6 1 0.004141 -0.00321146 -0.001643 0.000291 0 -0.01175 0 2650 
205 1 0.0032054 -0.000150043 -0.0012349 0.000291 -0.0110845 -0.00951857 0.00619805 2650 
183 1 0.01481 -0.00257046 0.000242 0.000291 0 -0.01175 0 2650 
277 1 0.015014 -0.00219246 0.001212 0.000291 0 -0.01175 0 2650 
96 1 0.009869 -0.000803464 0.000788 0.000105 0 -0.01175 0 2650 
143 1 0.013105 -0.00210346 0.003332 0.000291 0 -0.01175 0 2650 
223 1 0.00557645 -0.000431021 0.00350563 0.001058 0.0235385 -0.00904348 0.00881089 2650 
210 1 0.010971 -0.000110464 0.002357 0.001058 0 -0.01175 0 2650 
267 1 0.007574 -0.00300646 0.005778 0.000291 0 -0.01175 0 2650 
305 1 0.00862108 -0.00331213 0.00505109 0.000105 0.0970818 -0.0311014 0.0474675 2650 
50 1 0.00856958 -0.00171426 0.00432476 0.001058 0.0196422 -0.0189992 -0.0163642 2650 
150 1 0.010064 -0.000922464 0.004311 0.000291 0 -0.01175 0 2650 
118 1 0.001179 -0.00284146 0.007467 0.000291 0 -0.01175 0 2650 
174 1 0.002361 -0.00127046 0.006466 0.000291 0 -0.01175 0 2650 
204 1 0.00516642 -0.00117111 0.00750926 0.001058 0.0123955 0.0167674 0.0186642 2650 
232 1 0.00894689 -0.000559811 0.00884556 0.001058 0.0295441 -0.0200452 0.0179526 2650 
228 1 0.010294 -0.00176146 0.01009 0.000291 0 -0.01175 0 2650 
3 1 0.0104607 -0.000354651 0.0118595 0.001058 0.0118113 -0.00922286 -0.0152332 2650 
158 1 0.0675358 -0.0233528 0.0126767 0.000291 4.38029 -4.23375 -23.3301 2650 
111 1 0.0670205 -0.0356053 0.0136196 0.000291 2.84493 -0.426249 -20.4184 2650 
29 1 0.0651236 -0.0340262 0.0219257 0.000291 19.595 -4.57936 -58.349 2650 
140 1 0.0386612 -0.00575257 0.0378549 0.001058 4.27291 -1.84483 11.9878 2650 
229 1 0.0532438 -0.0582082 0.0422263 0.001058 9.55503 1.67594 -12.0366 2650 
146 1 0.0530007 -0.0260008 0.0425257 0.001058 -2.31657 -4.56893 3.10926 2650 
20 1 0.0488157 -0.00427123 0.0472679 0.001058 7.80578 5.6684 -8.05281 2650 
225 1 0.0476823 -0.0180196 0.0484058 0.001058 -0.235719 -1.06806 0.231924 2650 
162 1 0.0454994 -0.00328452 0.0504948 0.001058 30.2896 5.18103 -27.2729 2650 
182 1 0.0298175 -0.0357132 0.0538347 0.000291 18.9236 -5.45283 -13.6779 2650 
107 1 0.0249693 -0.0256585 0.0541654 0.001058 5.13445 -26.1686 -9.94626 2650 
148 1 0.0223221 -0.054633 0.0641704 0.001058 2.04059 1.58711 -0.709739 2650 
235 1 0.0243875 -0.0426014 0.0642353 0.000291 12.8765 -7.73291 -4.91106 2650 
25 1 0.0130819 -0.0464061 0.0661022 0.00164 29.4329 -1.70949 -5.81854 2650 
36 1 0.0102843 -0.020322 0.0672488 0.001058 101.679 -1.24893 -15.5414 2650 
137 1 0.0119204 -0.00656628 0.0662971 0.00164 8.65119 0.33078 -1.5554 2650 
130 1 1.4e-05 0.00160554 -0.015674 0.001058 0 -0.01175 0 2650 
269 1 0.002277 0.00177854 -0.015181 0.000291 0 -0.01175 0 2650 
160 1 0.004468 0.000637536 -0.014641 0.000105 0 -0.01175 0 2650 
37 1 0.006156 0.00754054 -0.015157 0.000291 0 -0.01175 0 2650 
263 1 0.006877 0.00103454 -0.012319 0.000291 0 -0.01175 0 2650 
289 1 0.001465 0.00220154 -0.012477 0.000291 0 -0.01175 0 2650 
142 1 0.002378 0.00261654 -0.013184 0.000291 0 -0.01175 0 2650 
252 1 0.00245 0.00591154 -0.01336 0.001058 0 -0.01175 0 2650 
78 1 0.001258 0.00752654 -0.012517 0.000291 0 -0.01175 0 2650 
154 1 0.00142671 0.0282845 -0.013018 0.001058 -0.0457969 0.0551383 0.0326121 2650 
201 1 0.00905315 0.00108595 -0.0109765 0.00164 0.00137504 -0.011407 -0.00388383 2650 
275 1 0.012705 0.00527354 -0.010476 0.000291 0 -0.01175 0 2650 
105 1 0.00352043 0.00633428 -0.0108257 0.00164 -0.00411271 -0.00659863 -0.00452495 2650 
110 1 0.00935156 0.00759033 -0.0109202 0.000291 -0.0349099 -0.0189642 -0.00546868 2650 
147 1 0.010384 0.00991804 -0.0118062 0.001058 -0.0433073 0.0440118 -0.0379544 2650 
67 1 0.00483244 0.0046322 -0.00895975 0.001058 -0.00558703 -0.00493479 0.00721537 2650 
116 1 0.00980224 0.0102533 -0.00964505 0.001058 0.159795 0.0851505 -0.0594394 2650 
139 1 0.00675692 0.0166228 -0.00909614 0.001058 0.0124295 0.00846741 0.0230295 2650 
102 1 0.003423 0.000939536 -0.006065 0.000291 0 -0.01175 0 2650 
117 1 0.004754 0.00120154 -0.007063 0.000291 0 -0.01175 0 2650 
260 1 0.00951296 0.0018461 -0.00770732 0.000291 -0.0126887 0.00194451 -0.0180502 2650 
60 1 0.007579 0.00384254 -0.006312 0.001058 0 -0.01175 0 2650 
134 1 0.0102164 0.00325906 -0.00714434 0.000291 -0.0118829 0.00375813 -0.00608975 2650 
45 1 0.010575 0.00376254 -0.007722 0.000291 0 -0.01175 0 2650 
246 1 0.001376 0.000440536 -0.005453 0.001058 0 -0.01175 0 2650 
92 1 0.010387 0.00334372 -0.00462799 0.001058 -0.00506887 0.00740905 -0.00800433 2650 
161 1 0.0127667 0.00216177 -0.00580042 0.00164 -0.0015835 0.00388378 -0.00180513 2650 
279 1 0.0110425 0.005006 -0.00580313 0.001058 -0.00533148 0.0111222 -0.00488372 2650 
19 1 0.013799 0.00542554 -0.005439 0.001058 0 -0.01175 0 2650 
199 1 0.014464 0.00425354 -0.004562 0.000291 0 -0.01175 0 2650 
278 1 7.4e-05 0.00635354 -0.004448 0.001058 0 -0.01175 0 2650 
284 1 0.014191 0.00713354 -0.005949 0.000291 0 -0.01175 0 2650 
177 1 0.00507218 0.000240284 -0.00261428 0.00164 -0.00979838 -0.00607514 0.00419875 2650 
113 1 0.0120292 0.00283315 -0.00218967 0.00164 0.0413255 0.00420523 -0.0156024 2650 
253 1 0.014729 0.00261154 -0.002617 0.000291 0 -0.01175 0 2650 
227 1 0.00944 0.00444054 -0.002109 0.000291 0 -0.01175 0 2650 
271 1 0.00466965 0.00600406 -0.00353792 0.001058 0.0289317 -0.00785113 0.0310685 2650 
81 1 0.00584487 0.0109631 -0.00171105 0.00164 -0.0388686 0.219606 -0.0385176 2650 
190 1 0.0034455 0.0125522 -8.39979e-05 0.000291 -0.10279 0.214892 0.018852 2650 
261 1 0.011218 0.000735536 0.000328 0.000291 0 -0.01175 0 2650 
48 1 0.009671 0.00503454 0.000233 0.000105 0 -0.01175 0 2650 
128 1 0.00361 0.00674154 0.000511 0.000105 0 -0.01175 0 2650 
9 1 0.012984 0.00677954 0.000468 0.00164 0 -0.01175 0 2650 
286 1 0.015584 0.00744754 0.000132 0.001058 0 -0.01175 0 2650 
101 1 0.004812 0.00546454 0.002517 0.000291 0 -0.01175 0 2650 
294 1 0.006997 0.00474854 0.003581 0.001058 0 -0.01175 0 2650 
57 1 0.000851031 0.0187724 0.00358812 0.00164 0.00921248 0.0490459 0.0145317 2650 
212 1 0.001087 0.00525854 0.005915 0.000291 0 -0.01175 0 2650 
24 1 0.005464 0.00483054 0.005551 0.000105 0 -0.01175 0 2650 
51 1 0.009662 0.00590354 0.004577 0.001058 0 -0.01175 0 2650 
244 1 0.014869 0.00531654 0.00421 0.001058 0 -0.01175 0 2650 
79 1 0.014214 0.00774354 0.005058 0.000291 0 -0.01175 0 2650 
1 1 0.00207088 0.0161926 0.00543479 0.00164 0.0206202 0.0139923 -0.0113203 2650 
208 1 0.0100094 0.00149107 0.00773724 0.001058 0.015057 -0.000780944 -0.00273884 2650 
35 1 3.79911e-05 0.00225352 0.00612654 0.001058 0.00657044 -0.0107373 -0.00948648 2650 
202 1 0.000661775 0.00433852 0.00794681 0.001058 0.00926462 -0.00702607 -0.0140864 2650 
231 1 0.006459 0.00445554 0.007445 0.001058 0 -0.01175 0 2650 
222 1 0.009219 0.00710254 0.006833 0.001058 0 -0.01175 0 2650 
112 1 0.013668 0.00806654 0.007002 0.000105 0 -0.01175 0 2650 
145 1 0.0073553 0.00717443 0.00939697 0.00164 0.0115522 -0.00742039 0.000808485 2650 
103 1 0.005979 0.00143354 0.01127 0.000291 0 -0.01175 0 2650 
100 1 0.00612344 0.00318708 0.0105178 0.001058 0.0087991 -0.0114563 -0.00712117 2650 
287 1 0.00811661 0.003426 0.0114596 0.001058 0.00682141 -0.00787141 0.000922002 2650 
258 1 0.00984668 0.00246999 0.0101326 0.001058 0.00708305 -0.0124375 -0.00443385 2650 
59 1 0.00504194 0.00549416 0.0103984 0.001058 0.000203033 0.0248548 -0.0698057 2650 
194 1 0.00906378 0.00499545 0.0102191 0.001058 0.00965479 -0.00844737 -0.00170701 2650 
66 1 0.00565034 0.00938406 0.0113809 0.001058 0.0129375 0.00406755 0.00279353 2650 
11 1 0.00489583 0.0680266 0.0100272 0.001058 0.0559064 0.127731 0.0121966 2650 
95 1 0.00700274 0.0045676 0.0134695 0.000291 0.000317815 -0.00292264 0.00231518 2650 
298 1 0.00704036 0.00775456 0.0126916 0.000105 0.0129991 -0.00593697 0.0036458 2650 
156 1 0.00301095 0.0119861 0.0124792 0.001058 0.00972231 -0.000191895 -0.0100171 2650 
207 1 0.00575128 0.00507547 0.015366 0.000291 -0.0189605 -0.0383543 -0.0248952 2650 
126 1 0.00276636 0.0104091 0.0143534 0.000291 0.00805529 0.0088781 0.00120996 2650 
265 1 0.000754999 0.0179648 0.0151862 0.001058 0.00391359 0.0468173 -0.00456159 2650 
181 1 0.0205252 0.0902726 -0.0655717 0.000291 2.48657 -6.00402 0.777074 2650 
