ITEM: TIMESTEP
5556548
ITEM: NUMBER OF ATOMS
4357
ITEM: BOX BOUNDS ff ff ff
-0.15 0.15
-0.15 0.15
-0.15 0.15
ITEM: ATOMS id type x y z radius vx vy vz density 
4006 1 -0.00150985 -0.0339346 -0.068867 0.000116 -4.07212 -1.00938 0.0790382 2650 
1207 1 -0.00461523 -0.0327125 -0.0688036 4.2e-05 -6.27305 0.0924489 0.414222 2650 
3470 1 -0.00296315 -0.0119568 -0.06882 0.000116 -4.51781 0.489 0.208425 2650 
529 1 -6.32737e-05 -0.00977387 -0.0688592 0.000116 -3.24524 -0.327951 0.0962698 2650 
1081 1 -0.000700762 -0.00334499 -0.0688803 0.000116 -4.35546 0.444667 0.0305414 2650 
406 1 -0.00793984 -0.0442208 -0.0684249 0.000116 -4.50407 -0.602737 0.529178 2650 
2028 1 -0.00472342 -0.0275329 -0.0684149 0.000423 -5.36156 0.158339 0.377934 2650 
3881 1 -0.00929172 -0.0209278 -0.0679449 0.000423 -5.11592 -0.349415 0.699464 2650 
2179 1 -0.00986476 -0.0182807 -0.0681735 0.000116 -4.97806 -0.261158 0.700217 2650 
2083 1 -0.0108292 -0.0153095 -0.0681023 4.2e-05 -4.0421 0.176227 0.655163 2650 
4204 1 -0.00396148 -0.00966179 -0.0684631 0.000423 -3.5116 -0.232396 0.198765 2650 
4254 1 -0.00942713 -0.000173013 -0.0682357 0.000116 -6.90435 0.0198193 0.951135 2650 
3625 1 -0.0112785 -0.0435968 -0.0674078 0.000656 -4.57651 -0.734833 0.78172 2650 
1132 1 -0.0134758 -0.0398978 -0.0672398 0.000423 -5.2145 -0.121355 1.07313 2650 
4142 1 -0.0155068 -0.0257289 -0.0671106 0.000116 -4.73807 0.386475 1.10069 2650 
1157 1 -0.014167 -0.0114246 -0.0674086 0.000116 -3.32072 -0.235423 0.645984 2650 
3649 1 -0.0170718 -0.0419648 -0.0664189 0.000423 -4.4765 -0.445041 1.14576 2650 
1716 1 -0.0184851 -0.04133 -0.0663567 0.000116 -5.01727 0.339322 1.40169 2650 
2023 1 -0.0174348 -0.0298207 -0.0663161 0.000423 -5.64003 0.173245 1.42991 2650 
1740 1 -0.0175564 -0.0192414 -0.0666086 0.000116 -4.69351 0.398669 1.23128 2650 
1136 1 -0.0149229 -0.0159072 -0.0669327 0.000423 -5.1686 -0.109925 1.14465 2650 
2169 1 -0.0156703 -0.00898448 -0.0670732 0.000116 -3.51239 -0.149532 0.787569 2650 
3390 1 -0.0169876 -0.00197051 -0.0667559 0.000116 -4.7871 -0.0723936 1.19298 2650 
897 1 -0.0200956 -0.0449411 -0.0655671 0.000423 -4.63606 -0.0403216 1.45259 2650 
38 1 -0.0189109 -0.0308718 -0.065908 0.000423 -5.06778 0.0621287 1.50058 2650 
2245 1 -0.0185033 -0.0299808 -0.0660234 0.000423 -5.40161 0.151387 1.55165 2650 
3946 1 -0.0203995 -0.0221892 -0.0658708 4.2e-05 -3.60668 0.562051 1.13561 2650 
1461 1 -0.0179891 -0.0141703 -0.0661642 0.000423 -5.19909 0.00170363 1.43053 2650 
3381 1 -0.0203278 -0.012102 -0.0657907 0.000116 -3.74062 -0.16529 1.06101 2650 
3339 1 -0.0197126 -0.00766872 -0.0656637 0.000423 -3.77661 -0.0853886 0.985115 2650 
893 1 -0.0218978 -0.0294385 -0.0649602 0.000423 -4.85021 0.188098 1.67975 2650 
917 1 -0.0223558 -0.0185408 -0.0648263 0.000423 -3.77546 -0.127711 1.27946 2650 
1503 1 -0.0213854 -0.0153634 -0.0654581 0.000116 -3.09862 -0.438702 1.05199 2650 
3094 1 -0.0216336 -0.0018758 -0.0650763 0.000423 -3.92525 -0.158911 1.26647 2650 
1655 1 -0.0230461 -0.0364943 -0.0643425 0.000656 -5.96833 -0.203437 2.1749 2650 
2855 1 -0.0240255 -0.0232943 -0.0646368 4.2e-05 -5.12914 0.386554 1.90699 2650 
3978 1 -0.0229234 -0.0140366 -0.0646267 0.000423 -3.83456 -0.365469 1.56844 2650 
981 1 -0.0255228 -0.0121283 -0.0640607 4.2e-05 -3.41625 0.392085 1.33449 2650 
2702 1 -0.0239759 -0.00933543 -0.0645762 0.000116 -4.1389 0.305544 1.53168 2650 
3440 1 -0.0263688 -0.0377547 -0.0633052 0.000423 -4.83002 -0.0396671 2.01248 2650 
3261 1 -0.0264223 -0.0270585 -0.0636148 0.000116 -4.74954 0.125013 1.96339 2650 
3018 1 -0.0254295 -0.0241847 -0.0636888 0.000423 -5.18985 0.0066292 2.06477 2650 
3095 1 -0.0283848 -0.022384 -0.0624276 0.000423 -4.03578 -0.0161666 1.83468 2650 
2296 1 -0.0281571 -0.00549434 -0.0628664 0.000116 -4.82177 -0.22282 2.16143 2650 
2833 1 -0.0292495 -0.00321846 -0.0623655 0.000116 -3.98933 0.377058 1.85487 2650 
2274 1 -0.0305886 -0.0211717 -0.0617197 0.000116 -5.0405 -0.167758 2.49746 2650 
2820 1 -0.0302549 -0.0133726 -0.0618848 0.000116 -3.99708 -0.104225 1.93698 2650 
2970 1 -0.0299731 -0.0199438 -0.0614235 0.000656 -5.07109 0.287036 2.48754 2650 
2557 1 -0.0332532 -0.0380415 -0.0599758 0.000423 -4.84187 0.083296 2.67279 2650 
2132 1 -0.0329446 -0.0259195 -0.0601467 0.000423 -4.5742 0.198914 2.52113 2650 
601 1 -0.0336942 -0.0291774 -0.0597297 0.000423 -3.75051 -0.390655 2.10785 2650 
3196 1 -0.0300064 -0.00830635 -0.0597595 0.000423 -2.72189 -0.332131 1.88735 2650 
1326 1 -0.0346767 -0.0502759 -0.0588977 0.000656 -4.10501 -0.126129 2.39337 2650 
3372 1 -0.0353567 -0.02193 -0.0591177 0.000116 -5.75418 0.264771 3.42746 2650 
1213 1 -0.0347995 -0.0183684 -0.0588233 0.000656 -4.07366 0.0116907 2.39046 2650 
491 1 -0.0349712 -0.00277309 -0.0589894 0.000423 -3.59752 0.00819599 2.10891 2650 
2232 1 -0.0364243 -0.0304275 -0.0581025 0.000423 -3.90082 -0.391737 2.48949 2650 
1433 1 -0.0364192 -0.0292252 -0.0578342 0.000656 -3.78849 -0.290492 2.4493 2650 
575 1 -0.0367733 -0.0247874 -0.0578833 0.000423 -5.08962 -0.0907101 3.20861 2650 
2664 1 -0.0362026 -0.0235891 -0.0582414 0.000423 -3.97217 0.113986 2.43575 2650 
3265 1 -0.0371966 -0.0162448 -0.0579761 0.000116 -3.0426 0.0222987 1.95975 2650 
3260 1 -0.0376346 -0.0125736 -0.0576883 0.000116 -3.1796 -0.204566 2.08434 2650 
4366 1 -0.0366091 -0.0124063 -0.0583479 0.000116 -3.38759 0.107868 2.12753 2650 
3671 1 -0.0367099 -0.0107027 -0.0579269 0.000423 -4.70955 0.116185 2.96396 2650 
1356 1 -0.0372169 -0.0175959 -0.057597 0.000423 -2.9543 -0.37442 1.96013 2650 
3229 1 -0.037935 -0.00804036 -0.057127 0.000423 -4.18684 -0.122321 2.82404 2650 
3276 1 -0.0399851 -0.0331029 -0.0560788 0.000116 -4.33077 0.113192 3.11366 2650 
163 1 -0.0414329 -0.0342769 -0.054607 0.000423 -4.41242 0.0197351 3.26652 2650 
400 1 -0.0421371 -0.0089971 -0.0544595 0.000116 -3.06036 0.407563 2.30038 2650 
3502 1 -0.0416444 -0.00437172 -0.0549488 4.2e-05 -2.65477 -0.0212827 1.94305 2650 
4338 1 -0.0425377 -0.0299253 -0.0541446 0.000116 -3.23152 -0.704666 2.53669 2650 
2765 1 -0.0422779 -0.00977087 -0.0539594 0.000423 -3.92361 -0.253583 3.06292 2650 
4213 1 -0.043113 -0.0229615 -0.0533251 0.000423 -4.92492 -0.328706 3.9649 2650 
333 1 -0.0427684 -0.0219265 -0.0533089 0.000656 -4.94956 -0.333829 3.91139 2650 
3015 1 -0.0440335 -0.0277359 -0.0525738 0.000423 -4.00205 0.128454 3.36051 2650 
3319 1 -0.0441394 -0.023603 -0.0524846 0.000423 -3.7001 -0.408552 3.10097 2650 
2875 1 -0.0448768 -0.00693191 -0.0518553 0.000423 -2.78825 -0.0149123 2.42683 2650 
2546 1 -0.0459312 -0.0241078 -0.0509242 0.000423 -3.39742 0.0551862 3.03009 2650 
1453 1 -0.0462642 -0.0218468 -0.050622 0.000423 -3.9437 -0.208005 3.60557 2650 
3868 1 -0.0456198 -0.0217074 -0.0512023 0.000423 -3.98051 -0.188009 3.54978 2650 
465 1 -0.045632 -0.0198427 -0.0511915 0.000423 -3.74383 0.0226218 3.38033 2650 
416 1 -0.0463677 -0.00604018 -0.0509414 0.000116 -4.13968 0.449154 3.76292 2650 
4026 1 -0.0470624 -0.0411817 -0.0502999 0.000116 -3.29141 0.0686912 3.0786 2650 
1915 1 -0.0468032 -0.026669 -0.0501237 0.000423 -3.81972 -0.656741 3.55869 2650 
3683 1 -0.048126 -0.0276624 -0.0492843 0.000116 -3.99418 -1.01593 3.8975 2650 
1914 1 -0.048046 -0.0222448 -0.0489328 0.000423 -3.55795 -0.151265 3.50236 2650 
1510 1 -0.0483869 -0.0216308 -0.0490275 0.000116 -3.10756 0.296872 3.06837 2650 
1060 1 -0.0491066 -0.0369798 -0.048307 0.000116 -3.28944 -0.335349 3.32786 2650 
367 1 -0.0481404 -0.0251548 -0.0488407 0.000423 -2.86372 -0.362588 2.80269 2650 
4138 1 -0.0485519 -0.00938567 -0.0488645 0.000116 -3.08052 0.125968 3.04776 2650 
3198 1 -0.0495753 -0.0435868 -0.0473831 0.000423 -3.09555 0.0904837 3.19105 2650 
2228 1 -0.0495409 -0.028993 -0.0474205 0.000423 -2.91294 -0.587964 3.01857 2650 
2052 1 -0.0499551 -0.000242345 -0.0474289 0.000116 -3.53082 -0.0448704 3.71462 2650 
4021 1 -0.0507363 -0.0190549 -0.0465915 0.000116 -4.71671 0.0434801 5.13014 2650 
646 1 -0.0506761 -0.0165466 -0.0466114 0.000116 -4.10864 -1.1558 4.32345 2650 
3729 1 -0.0499819 -0.0160048 -0.0466138 0.000656 -4.0363 0.0206507 4.33707 2650 
1343 1 -0.0502675 -0.00683842 -0.0466496 0.000423 -2.76811 0.00333918 3.01865 2650 
4373 1 -0.0509628 -0.00512658 -0.0464542 4.2e-05 -2.18907 -0.0952017 2.38507 2650 
3252 1 -0.0517959 -0.017639 -0.0454111 0.000116 -2.85855 0.126225 3.24154 2650 
1210 1 -0.0526145 -0.0220198 -0.0445742 4.2e-05 -3.01801 -0.525092 3.5571 2650 
3069 1 -0.0535014 -0.0385307 -0.0435061 4.2e-05 -3.53969 -0.713442 4.37899 2650 
1107 1 -0.0521844 -0.0330168 -0.0441357 0.000656 -3.83846 -0.13906 4.52125 2650 
1784 1 -0.0527133 -0.0312575 -0.0438681 0.000423 -3.77984 0.0727133 4.49822 2650 
1870 1 -0.0544558 -0.0210301 -0.0422711 4.2e-05 -1.54886 -0.214254 1.90945 2650 
2626 1 -0.0543006 -0.00775814 -0.0423851 0.000116 -3.86202 0.0877783 4.90419 2650 
1816 1 -0.0549786 -0.0228289 -0.0415009 0.000116 -3.00876 0.295694 3.96259 2650 
4293 1 -0.0549633 -0.0175256 -0.041012 0.000423 -2.65982 -0.394639 3.49143 2650 
578 1 -0.0555644 -0.0194305 -0.0401937 0.000423 -2.82217 -0.110124 3.87785 2650 
2835 1 -0.0562221 -0.0158763 -0.0397972 0.000116 -2.80947 -0.427488 4.0794 2650 
2457 1 -0.0569511 -0.0440285 -0.0382037 0.000423 -2.84778 -0.139705 4.25138 2650 
1943 1 -0.0570898 -0.0241284 -0.0385454 0.000116 -2.27083 0.572233 3.41746 2650 
1481 1 -0.0574706 -0.0276516 -0.0374174 0.000423 -2.76934 0.0502241 4.24247 2650 
1170 1 -0.0584967 -0.00580022 -0.0363138 0.000116 -2.57981 0.200646 4.26362 2650 
3834 1 -0.058693 -0.0461444 -0.036198 4.2e-05 -2.08806 0.311645 3.35198 2650 
2343 1 -0.059116 -0.0406816 -0.034759 0.000423 -2.56218 0.375421 4.33232 2650 
3248 1 -0.059362 -0.00690683 -0.0349241 0.000116 -1.61825 -0.116065 3.17027 2650 
3349 1 -0.0384806 -0.00641937 -0.0342141 0.000116 -5.8709 -0.258475 -5.2398 2650 
413 1 -0.0600706 -0.0191847 -0.0337127 0.000116 -2.25862 -0.336671 4.02169 2650 
138 1 -0.0598226 -0.01754 -0.033529 0.000423 -2.29775 -0.281918 4.08546 2650 
1638 1 -0.0608237 -0.0149696 -0.0323327 0.000116 -1.94971 0.40861 3.65946 2650 
2601 1 -0.0609069 -0.0129885 -0.0321769 0.000116 -1.94959 -0.143239 3.72492 2650 
1042 1 -0.0612764 -0.0224398 -0.03079 0.000423 -2.40845 0.111411 4.72896 2650 
2103 1 -0.061093 -0.0133568 -0.031154 0.000423 -1.95699 -0.243584 3.80517 2650 
2685 1 -0.0614216 -0.0294572 -0.0304934 0.000423 -2.33584 0.282403 4.48664 2650 
2238 1 -0.0614481 -0.0234283 -0.0304426 0.000423 -2.3494 0.0214103 4.70801 2650 
1606 1 -0.0621851 -0.0166091 -0.0296315 0.000116 -1.61748 -0.119323 3.34393 2650 
2881 1 -0.0288545 -0.0135289 -0.0277831 0.000423 -4.11852 -1.17196 -4.00449 2650 
838 1 -0.0628929 -0.0111127 -0.028099 0.000116 -1.43823 -0.203386 3.19433 2650 
1841 1 -0.063002 -0.00182486 -0.0278518 0.000116 -1.99771 -0.0960729 4.54103 2650 
1428 1 -0.0633661 -0.0165983 -0.027202 4.2e-05 -1.40559 -0.162275 3.21016 2650 
2846 1 -0.0632445 -0.0110457 -0.0274851 4.2e-05 -1.92162 1.41774 4.42034 2650 
2160 1 -0.0632148 -0.00842256 -0.0273675 0.000116 -1.62943 -0.122054 3.7279 2650 
1500 1 -0.00215615 -0.00757797 -0.0273744 0.000116 -0.485723 -0.691255 -3.63755 2650 
15 1 -0.00361431 -0.00477157 -0.0276121 0.000423 -0.498114 -0.183127 -3.98774 2650 
2514 1 -0.0637561 -0.0163766 -0.0260795 0.000116 -1.59365 0.220913 3.86521 2650 
4193 1 -0.0634736 -0.0458642 -0.0259592 0.000423 -1.78116 0.53161 4.26919 2650 
1379 1 -0.0639139 -0.0129895 -0.0256928 0.000116 -1.71329 -0.0160451 4.29603 2650 
3041 1 -0.0642178 -0.012379 -0.0249231 0.000116 -1.63105 -0.183682 4.19534 2650 
1669 1 -0.0639444 -0.0108817 -0.0247814 0.000423 -1.66495 0.0281724 4.26869 2650 
2545 1 -0.064821 -0.0253466 -0.0223875 0.000423 -1.67493 0.542578 4.90049 2650 
1282 1 -0.0650117 -0.016068 -0.02277 0.000116 -1.16756 -0.0863765 3.36414 2650 
2819 1 -0.0151283 -0.00518283 -0.0228628 0.000116 -1.88564 -0.283148 -2.83446 2650 
3850 1 -0.0655829 -0.0324597 -0.0200477 0.000423 -1.52212 0.18997 4.92998 2650 
1735 1 -0.0661679 -0.0278101 -0.019154 0.000116 -1.45363 1.14475 5.00031 2650 
3960 1 -0.0657997 -0.00582522 -0.0193226 0.000423 -1.07591 0.0636207 3.61668 2650 
3256 1 -0.00307608 -0.00372291 -0.0187325 0.000116 -0.443154 -0.0728317 -2.69869 2650 
2487 1 -0.0667123 -0.0122614 -0.0171618 0.000116 -1.07048 0.127717 4.2097 2650 
1535 1 -0.0667805 -4.20744e-05 -0.0171914 4.2e-05 -1.43491 -0.00380323 5.61815 2650 
1185 1 -0.0667752 -0.0174331 -0.0165101 0.000116 -1.756 -0.744933 2.86624 2650 
103 1 -0.0157578 -0.0041017 -0.0161861 4.2e-05 -2.11433 -0.124191 -2.2135 2650 
2793 1 -0.00198449 -0.000374253 -0.01618 0.000423 -0.213662 0.103062 -0.139396 2650 
1760 1 -0.0672385 -0.00290351 -0.0153018 4.2e-05 -1.40198 -0.146552 6.16111 2650 
980 1 -0.0660261 -0.00500914 -0.0143364 4.2e-05 -3.17722 -0.116062 2.30132 2650 
4097 1 -0.00853964 -0.00454598 -0.0147943 0.000423 -0.314402 -0.998187 -0.621076 2650 
4031 1 -0.00277002 -0.00263466 -0.0143458 0.000116 -0.0637469 -0.0153509 0.0757243 2650 
2827 1 -0.00488179 -0.0009642 -0.0142705 0.000116 -0.0201753 -0.0226203 0.0017234 2650 
1053 1 -0.007469 -0.000359526 -0.014946 0.000116 0 -0.011753 0 2650 
1640 1 -0.00132597 -0.000133083 -0.0147416 4.2e-05 -0.0259185 0.040509 0.0670209 2650 
1175 1 -0.0674447 -0.0430424 -0.0140075 0.000116 -0.721303 -0.566768 3.34458 2650 
212 1 -0.0675337 -0.0263337 -0.0139427 4.2e-05 -0.924415 0.00127733 4.56067 2650 
2436 1 -0.0672559 -0.0264429 -0.013399 0.000423 -1.07987 0.272291 5.24919 2650 
4020 1 -0.0675412 -0.0224684 -0.0135348 0.000116 -1.01297 0.152041 5.00155 2650 
3802 1 -0.0674935 -0.0154831 -0.0137671 0.000116 -0.833589 -0.133057 4.04644 2650 
1071 1 -0.0675044 -0.0133813 -0.0137168 0.000116 -0.959735 0.386476 4.70766 2650 
1022 1 -0.00270158 -0.00233634 -0.0136473 0.000423 -0.0706343 0.0669134 -0.223671 2650 
545 1 -0.00276845 -0.00139541 -0.0136373 4.2e-05 -0.0648089 0.15615 -0.177355 2650 
4068 1 -0.0674163 -0.0275252 -0.0125662 0.000423 -0.963058 0.489753 5.24258 2650 
3258 1 -0.00895739 -0.00243175 -0.0132405 0.000116 -0.0876445 -0.0463972 -0.0398231 2650 
330 1 -0.00747396 -0.0029773 -0.0126695 4.2e-05 -0.0696064 -0.0147686 0.0345761 2650 
3153 1 -0.00190423 -0.00243364 -0.0129335 0.000116 -0.0842498 -0.0374178 0.0430189 2650 
1808 1 -0.0095443 -0.00158997 -0.0131497 0.000423 -0.0298126 -0.00205403 0.0542627 2650 
1468 1 -0.00433382 -0.00192407 -0.0133823 0.000423 -0.0197001 -0.0470204 -0.0326717 2650 
800 1 -0.00760459 -0.00115073 -0.0128861 0.000423 -0.0167515 -0.0257184 0.0377771 2650 
1085 1 -0.00117515 -0.000754536 -0.0133969 0.000116 -0.0581578 -0.0273893 0.0145531 2650 
3619 1 -0.0678931 -0.0194298 -0.0120673 4.2e-05 -0.747367 0.493974 4.10375 2650 
693 1 -0.0674661 -0.0175926 -0.0122967 0.000423 -0.891478 -0.220372 4.88686 2650 
3531 1 -0.0674678 -0.0156963 -0.0122865 0.000423 -0.892561 0.0253923 5.02232 2650 
3882 1 -0.0674978 -0.0103638 -0.0121236 0.000423 -0.519582 -0.712301 3.37055 2650 
2172 1 -0.00849141 -0.00165723 -0.012481 0.000116 0.0554354 0.00150657 -0.0523357 2650 
2468 1 -0.00320103 -0.00226757 -0.0123384 0.000423 -0.00257432 -0.019623 -0.0156875 2650 
1763 1 -0.00117083 -0.00195915 -0.0124769 0.000656 -0.0019065 -0.0174824 -0.00239033 2650 
509 1 -0.00579343 -0.000866139 -0.0125124 0.000116 0.107688 0.00851546 0.0606997 2650 
1025 1 -0.000902708 -0.0008463 -0.0122817 0.000423 0.000252092 -0.00810614 -0.0160059 2650 
3191 1 -0.00695674 -0.000136476 -0.0123089 0.000656 -0.00606643 0.0190813 0.0222707 2650 
1422 1 -0.003881 -2.95257e-05 -0.012349 4.2e-05 0 -0.011753 0 2650 
1462 1 -0.0676296 -0.0458482 -0.0113336 0.000423 -0.952532 -0.214823 5.33203 2650 
3482 1 -0.0679369 -0.0424564 -0.0113522 0.000116 -0.896612 0.242925 5.28304 2650 
1095 1 -0.0100338 -0.00325406 -0.0118147 4.2e-05 -0.00673389 -0.0287528 -0.101216 2650 
2413 1 -0.00916732 -0.00293992 -0.0111491 4.2e-05 -0.0826713 -0.0311639 0.0536157 2650 
457 1 -0.00238009 -0.00269753 -0.0111908 0.000423 0.00748426 -0.0226545 -0.0281971 2650 
2645 1 -0.00591709 -0.00119381 -0.0117732 0.000656 -0.0337941 -0.0138903 0.0451577 2650 
3093 1 -0.00314932 -0.00145284 -0.0117695 0.000423 -0.00689307 0.00932534 -0.0270397 2650 
440 1 -0.00061 -0.00156553 -0.011485 4.2e-05 0 -0.011753 0 2650 
756 1 -0.00595391 -0.000127837 -0.0117911 0.000116 0.0429258 0.0693415 0.0148245 2650 
2167 1 -0.0680788 -0.0299452 -0.0103155 0.000116 -0.865049 0.307356 5.40243 2650 
3505 1 -0.00693907 -0.0031385 -0.0107538 4.2e-05 0.000592082 -0.024164 0.0220403 2650 
2714 1 -0.00589597 -0.00284403 -0.0109859 0.000116 0.177102 -0.00405135 -0.132842 2650 
2130 1 -8.53114e-05 -0.0026425 -0.0104395 0.000423 0.00486106 -0.0222043 0.00108471 2650 
2414 1 -0.00648918 -0.00197832 -0.0104692 4.2e-05 0.0173832 -0.0156492 -0.075661 2650 
3530 1 -0.00119762 -0.00216291 -0.010733 0.000423 -0.00993778 -0.0275578 -0.00308902 2650 
1193 1 -4.3e-05 -0.00158053 -0.010628 0.000116 0 -0.011753 0 2650 
3673 1 -0.00270174 -0.00101917 -0.0108429 0.000423 0.000169124 -0.0108514 -9.18803e-05 2650 
3284 1 -0.001323 -0.00109153 -0.010635 4.2e-05 0 -0.011753 0 2650 
1514 1 -0.011407 -0.000373094 -0.0107522 0.000116 0.0472637 -0.0347544 -0.0237964 2650 
2767 1 -0.0678728 -0.0430814 -0.00980112 0.000423 -0.794209 0.240905 5.30678 2650 
1721 1 -0.0682284 -0.0368002 -0.0094482 0.000116 -0.418812 0.437306 3.95911 2650 
2380 1 -0.0682162 -0.00479039 -0.00947925 0.000116 0.378887 -0.054015 3.05478 2650 
1393 1 -0.013312 -0.00307963 -0.0102358 0.000116 -0.0365642 -0.00979486 0.0367338 2650 
417 1 -0.004944 -0.00253453 -0.009884 0.000116 0 -0.011753 0 2650 
1030 1 -0.00299795 -0.00279043 -0.00958921 0.000423 -0.0217558 -0.0335916 -0.0277993 2650 
2530 1 -0.0118355 -0.000797892 -0.009567 0.000656 0.0444419 -0.0375195 0.023234 2650 
4203 1 -0.00875325 -0.000192864 -0.00950201 0.000423 0.00502711 -0.00608151 -0.0240799 2650 
3264 1 -0.003542 -0.000580526 -0.010108 0.000116 0 -0.011753 0 2650 
1169 1 -0.00806257 -0.00333782 -0.00903243 0.000116 -0.400878 -0.0244992 -0.449101 2650 
3393 1 -0.006109 -0.00237553 -0.008736 4.2e-05 0 -0.011753 0 2650 
1690 1 -0.004681 -0.00249853 -0.00917 0.000423 0 -0.011753 0 2650 
3640 1 -0.00846945 -0.00181917 -0.0094648 0.000423 0.00685227 0.0045692 -0.00107333 2650 
159 1 -0.005821 -0.00176353 -0.009096 0.000423 0 -0.011753 0 2650 
2139 1 -0.00969909 -0.00151979 -0.0092331 0.000423 0.036289 0.030116 -0.0648024 2650 
4328 1 -0.00987164 -0.000281063 -0.00882808 0.000423 -0.0252232 -0.0229333 -0.0515545 2650 
1487 1 -0.00693543 -0.000521964 -0.00945358 0.000116 -0.0174261 -0.0117543 0.00583496 2650 
486 1 -0.0680447 -0.0279493 -0.00850799 0.000423 -0.672871 -0.227492 5.46593 2650 
3599 1 -0.002399 -0.000733526 -0.008331 0.000116 0 -0.011753 0 2650 
4153 1 -0.0139697 -0.00195994 -0.00782739 0.000116 0.0426604 0.0142436 0.0677726 2650 
4363 1 -0.0685004 -0.000811101 -0.0072507 0.000116 -0.555484 -0.133998 5.18025 2650 
4306 1 -0.0139828 -0.000897558 -0.00753272 0.000423 -0.0308087 0.00290922 0.018547 2650 
63 1 -0.0119707 -0.00141921 -0.00740475 0.000116 -0.0604626 -0.0651142 -0.0533102 2650 
161 1 -0.00252359 -0.000819879 -0.00778085 0.000423 0.0170677 0.00649831 -0.0436585 2650 
3311 1 -0.0145043 -0.000215715 -0.00772802 0.000423 -0.0303837 0.0138134 -0.00332754 2650 
1639 1 -0.005507 -4.25257e-05 -0.007416 4.2e-05 0 -0.011753 0 2650 
2538 1 -0.000624494 -0.00416176 -0.00688073 0.000656 -0.0925864 -0.110833 -1.01971 2650 
1693 1 -0.0132551 -0.00146705 -0.00654854 0.000423 -0.0519832 0.0192632 0.0222323 2650 
3376 1 -0.008969 -0.00136953 -0.006983 0.000116 0 -0.011753 0 2650 
848 1 -0.004556 -0.00153253 -0.006748 0.000116 0 -0.011753 0 2650 
3627 1 -0.00122603 -0.000947793 -0.00653229 0.000656 -0.0236125 0.0161089 -0.00359308 2650 
4141 1 -0.000360235 -0.000824527 -0.00673503 0.000116 -0.000502989 -0.0315461 -0.0648211 2650 
1220 1 -0.011384 -0.000660408 -0.00647974 0.000656 -0.0587663 -0.0563226 -0.0461925 2650 
3583 1 -0.0686545 -0.0311948 -0.00561023 0.000116 -0.525968 -0.240293 5.52946 2650 
538 1 -0.068664 -0.00967079 -0.00544828 0.000116 -0.390595 -0.437135 5.08174 2650 
1596 1 -0.014304 -0.00310653 -0.005674 0.000116 0 -0.011753 0 2650 
4178 1 -0.00199268 -0.00251254 -0.00594731 0.000423 0.0148577 0.00262151 -0.024227 2650 
542 1 -0.014888 -0.00222553 -0.005532 4.2e-05 0 -0.011753 0 2650 
4182 1 -0.0128418 -0.00133478 -0.00571295 0.000423 0.00169939 -0.0100469 0.0177953 2650 
1829 1 -0.00484778 -0.000242227 -0.00604462 0.000116 0.00976188 -0.0365412 -0.0338902 2650 
3172 1 -0.00749657 -0.0032573 -0.00532891 0.000116 -0.0100756 -0.0795906 -0.0296041 2650 
3783 1 -0.00463246 -0.00316224 -0.0053776 0.000423 -0.00171543 -0.013444 0.00297154 2650 
3694 1 -0.012245 -0.00254453 -0.004934 0.000116 0 -0.011753 0 2650 
3034 1 -0.00460933 -0.00211289 -0.00526421 0.000116 -0.0142946 -0.0469312 -0.0277608 2650 
4201 1 -0.00692821 -0.00106623 -0.00474533 0.000423 0.0261034 -0.0195205 -0.00953961 2650 
656 1 -0.0146506 -0.000409619 -0.00537138 4.2e-05 0.0238995 -0.0215552 0.00766746 2650 
1773 1 -0.0129327 -0.000778905 -0.00506586 0.000423 -0.00115651 -0.000233867 0.0160718 2650 
3747 1 -0.00630195 -0.00299512 -0.00473205 0.000423 -0.0281461 -0.0137028 -0.0291706 2650 
711 1 -0.00451029 -0.00310229 -0.00431339 0.000423 -0.000538135 -0.0123378 0.00440049 2650 
203 1 -0.002373 -0.00243253 -0.004593 0.000116 0 -0.011753 0 2650 
2938 1 -5.00591e-05 -0.00239763 -0.00458918 0.000116 -0.104913 -0.0574563 -0.0429248 2650 
4237 1 -0.0131696 -0.00198087 -0.00434784 0.000116 0.0489183 -0.0128522 0.0150913 2650 
3668 1 -0.00480748 -0.0011616 -0.00424078 0.000423 0.0115676 -0.0508297 -0.0177137 2650 
3181 1 -0.0242084 -0.00363607 -0.00385628 4.2e-05 -2.88168 -0.0719048 -0.348966 2650 
1746 1 -0.013078 -0.00215153 -0.003722 0.000116 0 -0.011753 0 2650 
4041 1 -0.0163415 -0.000778405 -0.00380672 0.000116 0.0553535 0.014314 -0.0588123 2650 
4023 1 -0.008532 -0.00318553 -0.002418 0.000116 0 -0.011753 0 2650 
1072 1 -0.00579413 -0.00351041 -0.00284312 0.000116 -0.706594 -0.0520435 -0.346719 2650 
1944 1 -0.004594 -0.00317753 -0.002792 0.000116 0 -0.011753 0 2650 
3337 1 -0.00145162 -0.00320134 -0.00251477 0.000423 0.00040866 -0.00393898 -0.00524198 2650 
1054 1 -0.0136131 -0.00242802 -0.0027826 0.000116 0.00249196 -0.0326446 0.0347002 2650 
2001 1 -0.00526504 -0.00256514 -0.00271775 0.000423 -0.0482725 -0.0255761 0.0430509 2650 
2976 1 -0.00293653 -0.00241616 -0.00251955 0.000656 0.0217654 -0.0419251 -0.00676511 2650 
1335 1 -0.00188285 -0.00239945 -0.00275148 0.000423 0.0219821 -0.0155929 -0.0102357 2650 
3001 1 -0.0121475 -0.00180439 -0.00292615 0.000423 -0.030525 -0.0635477 -0.0185744 2650 
2879 1 -0.01428 -0.00138734 -0.00237342 0.000423 -0.0112202 -0.0272809 -0.000593329 2650 
3212 1 -0.0155889 -0.000691258 -0.00289979 0.000423 -0.0157693 -0.0177998 -0.00526332 2650 
2932 1 -0.011472 -0.000240526 -0.00308 0.000116 0 -0.011753 0 2650 
1336 1 -0.00763796 -0.000476712 -0.00282807 0.000423 -0.0567591 0.0492727 -0.0237546 2650 
2338 1 -0.00486724 -0.000149427 -0.00260674 0.000423 -0.0139749 -0.0517754 0.00471844 2650 
387 1 -0.00903283 -0.0021489 -0.00185189 0.000116 0.0101744 -0.0480051 -0.0365776 2650 
1061 1 -0.00617457 -0.0019335 -0.00161552 0.000116 -0.0368421 -0.0157253 0.0068304 2650 
2778 1 -0.0157731 -0.00109494 -0.00200801 0.000423 0.0393063 0.120463 0.00139271 2650 
2275 1 -0.0150546 -0.000736129 -0.00192045 0.000116 0.0663622 0.125845 -0.00284064 2650 
935 1 -0.0685698 -0.0145763 -0.00107365 0.000423 -0.0742989 0.235725 5.08412 2650 
2033 1 -0.0136132 -0.00316078 -0.0012368 0.000423 -0.0650481 -0.070949 0.00410109 2650 
2799 1 -0.0164586 -0.00283385 -0.000888188 0.000423 -0.000732563 -0.0294623 0.0175065 2650 
1609 1 -0.00457 -0.00281453 -0.000974 0.000116 0 -0.011753 0 2650 
366 1 -0.00905778 -0.00213166 -0.00104973 0.000423 0.0455259 -0.0121785 0.0146431 2650 
890 1 -0.0162028 -0.00129026 -0.000817169 0.000656 0.0337042 0.048927 -0.000896496 2650 
3249 1 -0.015392 -0.000847526 -0.000962 0.000116 0 -0.011753 0 2650 
2336 1 -0.00398052 -0.000620771 -0.00136858 0.000423 -0.0261037 0.0102451 -0.00457796 2650 
2018 1 -0.00147391 -0.000353251 -0.00100059 0.000423 0.0282035 0.0402702 -0.132181 2650 
2002 1 -0.0685782 -0.0244473 4.49768e-05 0.000423 0.00838269 -0.0125849 5.32253 2650 
1363 1 -0.0685776 -0.0194014 -9.2838e-05 0.000423 -0.0215903 -0.256604 5.57606 2650 
1031 1 -0.0302544 -0.00534925 -0.000368978 0.000423 -3.99102 -0.257727 -0.0139746 2650 
94 1 -0.0167156 -0.00302525 -0.000332495 0.000116 0.01316 -0.0331114 -0.00808602 2650 
1123 1 -0.0125115 -0.00275311 -0.000592486 0.000423 -0.00328401 -0.00624547 0.00162091 2650 
1402 1 -0.0116438 -0.00104541 -0.000730133 0.000116 -0.00785589 -0.0238284 0.00242914 2650 
1558 1 -0.00625243 -0.00140936 -0.000416883 0.000423 0.00171386 -0.0124495 0.00171374 2650 
2698 1 -0.0168065 -0.000650233 -0.000624488 0.000116 0.00310476 0.124926 0.0343118 2650 
228 1 -0.0683459 -0.0159819 0.000256736 0.000656 0.00810532 0.105645 5.75897 2650 
2543 1 -0.0685739 -0.0125557 0.000352903 0.000423 -0.0659231 -1.03554 3.95967 2650 
3242 1 -0.0688841 -0.0116258 0.000136604 0.000116 0.0147846 0.128367 4.5256 2650 
1257 1 -0.0137745 -0.00262596 0.000291156 0.000423 -0.0042823 -0.011545 0.000883368 2650 
42 1 -0.0129343 -0.00257054 0.000121157 0.000423 -0.00373084 -0.00894559 0.00258337 2650 
2711 1 -0.006109 -0.00244653 0.000422 0.000116 0 -0.011753 0 2650 
1529 1 -0.007601 -0.00204553 0.000457 4.2e-05 0 -0.011753 0 2650 
3873 1 -0.00163234 -0.00210111 0.000723127 0.000423 -0.00824351 -0.0335078 0.01118 2650 
1825 1 -0.0154444 -0.00122241 0.000746826 0.000116 -0.0322225 0.0443379 -0.0545906 2650 
659 1 -0.0143929 -0.000899191 0.000420002 4.2e-05 0.012095 -0.0396332 -0.015129 2650 
4018 1 -0.0142074 -0.00139386 2.95183e-05 0.000116 -0.00366098 -0.0457022 0.0167252 2650 
647 1 -0.007901 -0.00123253 0.000409 0.000116 0 -0.011753 0 2650 
3058 1 -0.00281484 -0.00105541 0.00053987 0.000116 -0.00482637 -0.0232095 -0.105722 2650 
2721 1 -0.0155712 -0.000591876 0.000627381 0.000116 0.0379611 0.00324256 0.0260673 2650 
3562 1 -0.0113098 -0.000564078 0.000266665 0.000423 -0.00289577 -0.017597 -0.00477042 2650 
4145 1 -0.00189289 -0.000758469 0.000111239 0.000116 0.0475158 -0.0557926 -0.03445 2650 
1497 1 -0.00147919 -0.000213933 0.000468045 0.000116 0.0296098 -0.0258513 0.00989386 2650 
3577 1 -0.0688688 -0.0103804 0.00147871 0.000116 0.134521 -0.136249 5.35068 2650 
2234 1 -0.0685687 -0.00796632 0.00117199 0.000423 0.0899846 -0.272082 4.49969 2650 
3366 1 -0.068877 -0.00267801 0.000977682 0.000116 0.063976 -0.280447 5.25865 2650 
1419 1 -0.000476 -0.00291053 0.001134 0.000116 0 -0.011753 0 2650 
213 1 -0.0167292 -0.00185705 0.000869724 4.2e-05 0.0246614 -0.02378 -0.0555107 2650 
1881 1 -0.0157929 -0.00197417 0.00102354 0.000656 0.0177372 -0.0114552 0.04304 2650 
1039 1 -0.00641569 -0.00147204 0.00150527 0.000423 -0.0560855 -0.0247817 0.0192739 2650 
4019 1 -0.0688725 -0.000606765 0.00124708 0.000116 0.0763459 -0.0413331 4.81444 2650 
337 1 -0.0105019 -0.000175417 0.00100705 0.000656 0.00209487 -0.0229452 -0.00461031 2650 
1613 1 -0.008946 -0.00299453 0.001748 0.000116 0 -0.011753 0 2650 
3395 1 -0.0165965 -0.00197806 0.00225343 4.2e-05 0.0157063 -0.0121488 -0.00481372 2650 
3232 1 -0.016251 -0.00151986 0.00198292 0.000423 0.0307428 0.0342411 -0.0333624 2650 
1524 1 -0.0163945 -0.000865999 0.00171825 0.000116 0.018643 0.0218213 0.0414056 2650 
1792 1 -0.0139931 -0.00137753 0.00196334 0.000423 0.0326482 0.0098457 -0.0536012 2650 
433 1 -0.0689267 -4.20923e-05 0.00206414 4.2e-05 0.153804 -0.00120995 4.91382 2650 
251 1 -0.0162977 -0.000307089 0.0023026 0.000423 -0.0037671 0.00877956 0.0013956 2650 
7 1 -0.0124793 -4.72132e-06 0.00235238 0.000656 0.0307868 0.00151379 -0.0151433 2650 
3602 1 -0.0688359 -0.047446 0.0025863 0.000116 0.14887 0.276407 3.72578 2650 
4074 1 -0.0685085 -0.0108046 0.00311421 0.000423 0.272234 0.00651316 5.64116 2650 
518 1 -0.0688141 -0.00920425 0.00304879 0.000116 0.55823 0.542642 5.93542 2650 
3089 1 -0.0685296 -0.00921867 0.00259018 0.000423 0.232577 0.0368939 5.62939 2650 
1224 1 -0.00325265 -0.00337932 0.00244226 0.000423 -0.208083 -0.0378139 0.167299 2650 
1734 1 -0.0162845 -0.00272976 0.00252593 0.000116 -0.0356972 -0.00634883 -0.017572 2650 
446 1 -0.00135759 -0.00236793 0.00292812 0.000656 -0.00733355 -0.0369549 0.0179641 2650 
631 1 -0.00325894 -0.00106964 0.00310369 0.000116 0.0232757 -0.0126266 0.0106943 2650 
2462 1 -0.014622 -0.000488308 0.00269432 0.000423 -0.0566114 0.0210942 -0.00904177 2650 
2063 1 -0.010326 -0.000555526 0.002962 0.000116 0 -0.011753 0 2650 
4265 1 -0.00209463 -0.000515375 0.00239376 4.2e-05 0.00325572 0.0100356 0.00220521 2650 
814 1 -0.0684906 -0.0265731 0.00346833 0.000423 0.263541 -0.0539092 5.45495 2650 
1723 1 -0.0687881 -0.00849426 0.00364541 0.000116 0.228368 -0.0174376 3.83894 2650 
3947 1 -0.0158169 -0.00267238 0.00336273 0.000656 -0.0603633 0.0120514 0.0394405 2650 
3566 1 -0.011615 -0.00284353 0.003338 0.000116 0 -0.011753 0 2650 
1377 1 -0.007523 -0.00267553 0.003255 0.000116 0 -0.011753 0 2650 
1890 1 -0.000539271 -0.00192843 0.00349591 0.000423 -0.00606597 -0.0362898 0.0174036 2650 
1047 1 -0.008296 -0.00143653 0.003622 0.000116 0 -0.011753 0 2650 
1791 1 -0.0154725 -0.000300657 0.00337556 0.000423 0.0189357 -0.00508318 0.0231994 2650 
4196 1 -0.014392 -4.99887e-05 0.00362314 0.000423 -0.00544665 0.020732 0.0173605 2650 
3839 1 -0.0682253 -0.0351478 0.00407611 0.000656 0.266858 -0.28191 4.74225 2650 
3586 1 -0.0687397 -0.010689 0.00446642 0.000116 0.339605 -0.10551 5.43415 2650 
630 1 -0.012148 -0.00254653 0.004712 0.000116 0 -0.011753 0 2650 
956 1 -0.007659 -0.00301053 0.004073 0.000116 0 -0.011753 0 2650 
209 1 -0.0111084 -0.00205201 0.00469937 0.000116 -0.0845748 0.149203 -0.0449563 2650 
293 1 -0.007685 -0.00185853 0.00423 0.000116 0 -0.011753 0 2650 
4251 1 -0.0143519 -0.00153322 0.00452215 0.000116 0.0143326 0.0206373 0.00416576 2650 
3759 1 -0.0128118 -0.00124391 0.00436397 0.000423 0.0153783 0.00317383 -0.00844504 2650 
3697 1 -0.011498 -0.00102453 0.004561 0.000116 0 -0.011753 0 2650 
680 1 -0.010644 -0.00112953 0.004039 0.000423 0 -0.011753 0 2650 
1989 1 -0.00652967 -0.00140888 0.00428272 0.000656 0.0370296 -0.0239529 0.0333248 2650 