ITEM: TIMESTEP
14508761
ITEM: NUMBER OF ATOMS
4288
ITEM: BOX BOUNDS ff ff ff
-0.15 0.15
-0.15 0.15
-0.15 0.15
ITEM: ATOMS id type x y z radius vx vy vz density 
71 1 -0.000742965 -0.0266499 -0.0688804 0.000116 -8.16535 0.207158 0.0806512 2650 
4043 1 -0.00446065 -0.0120927 -0.0687401 0.000116 -6.00458 -0.166491 0.398172 2650 
3506 1 -0.00264325 -0.00632364 -0.0689077 4.2e-05 -7.96084 0.0987116 0.308031 2650 
3139 1 -0.000921758 -0.000265366 -0.0688776 0.000116 -4.86525 -0.0505226 0.0620319 2650 
1568 1 -0.00721406 -0.0520305 -0.0681949 0.000423 -8.43137 -0.208706 0.900507 2650 
732 1 -0.00566327 -0.0510566 -0.0686418 0.000116 -4.34709 -1.39619 0.345346 2650 
3543 1 -0.00366694 -0.0276653 -0.0684778 0.000423 -8.00374 -0.201122 0.410243 2650 
2112 1 -0.00267902 -0.0265462 -0.0685244 0.000423 -8.2428 -0.0782076 0.328831 2650 
3647 1 -0.00171688 -0.0264879 -0.0685561 0.000423 -8.19707 0.0459427 0.20044 2650 
54 1 -0.00141361 -0.0211412 -0.0685637 0.000423 -7.58943 -0.0804758 0.174136 2650 
3393 1 -0.00743475 -0.0197844 -0.0685558 4.2e-05 -7.49592 1.52302 0.804828 2650 
170 1 -0.00732333 -0.0190832 -0.0684933 0.000116 -6.49359 -0.328825 0.694833 2650 
1669 1 -0.00890654 -0.0153974 -0.0679973 0.000423 -7.05703 0.336729 0.907205 2650 
4352 1 -0.00771307 -0.0157597 -0.0684506 0.000116 -6.60526 -0.0834639 0.740805 2650 
312 1 -0.0110468 -0.0146497 -0.0679922 0.000116 -5.782 -0.645519 0.938338 2650 
432 1 -0.0120402 -0.0136615 -0.0678987 4.2e-05 -7.61168 0.213216 1.3494 2650 
1402 1 -0.0100654 -0.0141862 -0.0681442 0.000116 -6.9049 0.130367 1.02022 2650 
3388 1 -0.00896701 -0.0134616 -0.0682978 0.000116 -6.51055 0.269518 0.847108 2650 
425 1 -0.0107295 -0.0126245 -0.0680431 0.000116 -5.79137 -0.154863 0.903084 2650 
1289 1 -0.00931627 -0.0116249 -0.0682508 0.000116 -3.3495 -0.165777 0.480779 2650 
1646 1 -0.00853951 -0.0111682 -0.0684271 4.2e-05 -7.66033 0.689649 0.962202 2650 
2518 1 -0.00710325 -0.0115668 -0.0685169 0.000116 -5.11058 -0.412734 0.524286 2650 
1404 1 -0.00915683 -0.00442318 -0.0682725 0.000116 -6.13884 -0.152942 0.817628 2650 
2951 1 -0.00829728 -0.0010142 -0.0683825 0.000116 -6.16481 -0.118732 0.72725 2650 
81 1 -0.0109563 -0.00013438 -0.0680069 0.000116 -4.47285 -0.0157383 0.720363 2650 
543 1 -0.0084075 -4.20524e-05 -0.0684432 4.2e-05 -5.68954 0.00158581 0.692171 2650 
3718 1 -0.00845172 -0.000249468 -0.0684379 4.2e-05 -6.39893 0.0878645 0.797121 2650 
3331 1 -0.0123478 -0.0428821 -0.0674571 0.000423 -7.87658 -0.00352208 1.44067 2650 
4353 1 -0.0150611 -0.0419597 -0.0672174 0.000116 -7.73197 0.455672 1.73219 2650 
375 1 -0.00968905 -0.0307434 -0.0678594 0.000423 -8.50665 0.113361 1.21623 2650 
1960 1 -0.0153924 -0.0283853 -0.0671425 0.000116 -7.6025 -0.122739 1.76084 2650 
1994 1 -0.0141093 -0.0270962 -0.0671107 0.000423 -7.93598 -0.0996167 1.65795 2650 
3118 1 -0.0119175 -0.0254374 -0.0675348 0.000423 -8.33084 0.128406 1.46899 2650 
1020 1 -0.0112363 -0.024674 -0.0676457 0.000423 -7.80199 0.0595865 1.32459 2650 
3040 1 -0.0137934 -0.0213636 -0.0674888 0.000116 -8.01979 -0.257924 1.64644 2650 
1989 1 -0.00886266 -0.0168069 -0.067769 0.000656 -7.57233 -0.141787 0.989024 2650 
844 1 -0.0156256 -0.0151929 -0.0670883 0.000116 -7.78735 0.128681 1.80791 2650 
334 1 -0.0100979 -0.0131297 -0.0675954 0.000656 -7.77198 -0.0430006 1.15216 2650 
4114 1 -0.0140672 -0.0109111 -0.0674322 0.000116 -3.34523 -0.191462 0.717001 2650 
2100 1 -0.0116033 -0.00542167 -0.0673534 0.000656 -4.87572 0.190377 0.87752 2650 
2916 1 -0.013357 -0.00337382 -0.0675766 0.000116 -4.47835 -0.0813126 0.907336 2650 
3903 1 -0.0129773 -0.00393137 -0.0676504 0.000116 -5.80255 -0.368023 1.12026 2650 
3925 1 -0.0129191 -0.00361586 -0.0676613 0.000116 -6.03458 -0.0979643 1.14957 2650 
3694 1 -0.0167002 -0.0391134 -0.0668288 0.000116 -6.76903 0.792195 1.71209 2650 
114 1 -0.0145645 -0.0313228 -0.0667762 0.000656 -8.45175 -0.0673126 1.86907 2650 
1759 1 -0.0173136 -0.0242144 -0.0667485 4.2e-05 -7.50362 0.101014 1.94839 2650 
3258 1 -0.0157719 -0.0243729 -0.0670539 0.000116 -7.39316 0.0726659 1.73485 2650 
1116 1 -0.0147552 -0.0234372 -0.0669721 0.000423 -7.91601 -0.0510839 1.77627 2650 
3248 1 -0.0176075 -0.016256 -0.0665954 0.000116 -6.46697 0.0567728 1.71284 2650 
2007 1 -0.0154704 -0.0132974 -0.0668102 0.000423 -6.2698 -0.0319154 1.45132 2650 
3399 1 -0.0166875 -0.00763831 -0.0669086 4.2e-05 -3.97607 -0.0259463 0.969866 2650 
2231 1 -0.0146171 -0.00237481 -0.0670017 0.000423 -6.58898 -0.14165 1.4406 2650 
3902 1 -0.0173727 -0.000490031 -0.0666573 0.000116 -6.10933 -0.14262 1.59945 2650 
1905 1 -0.0198761 -0.0324251 -0.0656352 0.000423 -7.93953 0.0314727 2.41208 2650 
2706 1 -0.0211219 -0.0255326 -0.0655661 0.000116 -7.66147 0.36681 2.45577 2650 
4025 1 -0.0210441 -0.0246541 -0.0655909 0.000116 -5.98713 0.564498 1.91314 2650 
1275 1 -0.0193795 -0.0242209 -0.0661015 0.000116 -7.5134 0.106706 2.20359 2650 
1028 1 -0.0177473 -0.0223017 -0.0662414 0.000423 -5.86722 -0.978039 1.57183 2650 
1916 1 -0.0179678 -0.0181077 -0.0661824 0.000423 -6.1168 -0.0526194 1.6746 2650 
2386 1 -0.0208603 -0.0139526 -0.0656499 0.000116 -5.95765 -0.637217 1.90814 2650 
474 1 -0.018553 -0.0123585 -0.0660214 0.000423 -5.62639 -0.486453 1.56854 2650 
1317 1 -0.019574 -0.00552494 -0.0661213 4.2e-05 -6.55841 -0.72859 1.93481 2650 
197 1 -0.019986 -0.00399485 -0.0659209 0.000116 -5.35435 -0.0782776 1.65961 2650 
2039 1 -0.0223423 -0.0200374 -0.0651598 0.000116 -7.13574 -0.136533 2.43872 2650 
4328 1 -0.0226653 -0.0150994 -0.0647244 0.000423 -6.24457 -0.0953525 2.19709 2650 
2596 1 -0.0227302 -0.00285368 -0.0650253 0.000116 -5.23367 -0.298781 1.82743 2650 
327 1 -0.0233313 -0.000432121 -0.0648907 4.2e-05 -5.33976 -0.0696578 1.91916 2650 
3930 1 -0.023327 -0.000116001 -0.064814 0.000116 -5.31134 -0.00111025 1.91048 2650 
3140 1 -0.0247969 -0.0265697 -0.0642659 0.000116 -7.30114 0.129799 2.80679 2650 
586 1 -0.0239252 -0.0263421 -0.0642689 0.000423 -7.51644 -0.0281938 2.79931 2650 
1379 1 -0.0249513 -0.0236481 -0.0642062 0.000116 -6.15764 -0.306833 2.37831 2650 
983 1 -0.024648 -0.0199846 -0.064402 4.2e-05 -8.98587 0.31442 3.43767 2650 
1062 1 -0.0240204 -0.0150692 -0.0645604 0.000116 -6.47716 -0.181678 2.41039 2650 
1572 1 -0.0132369 -0.00819166 -0.0640057 0.000423 -3.31672 -0.294981 -0.0323233 2650 
3610 1 -0.0246141 -0.00530632 -0.0644155 4.2e-05 -2.94546 -0.0727006 1.10738 2650 
1239 1 -0.0264787 -0.061866 -0.0632597 0.000423 -7.66385 -0.00927081 3.20661 2650 
2237 1 -0.0252937 -0.0569032 -0.0637431 0.000423 -7.43207 -0.0161037 2.93866 2650 
3284 1 -0.0271019 -0.0498849 -0.0634071 4.2e-05 -8.71369 1.50998 3.71022 2650 
1046 1 -0.026743 -0.0228008 -0.0634802 0.000116 -7.29115 -0.0846206 3.07193 2650 
685 1 -0.0261084 -0.0224764 -0.0634133 0.000423 -7.22197 0.209138 2.97005 2650 
3168 1 -0.0268992 -0.0193473 -0.0634146 0.000116 -7.25806 -0.0442614 3.06692 2650 
1585 1 -0.0313973 -0.0208117 -0.060969 0.000423 -6.75187 -0.0406364 3.44822 2650 
1462 1 -0.0328346 -0.0534419 -0.0601781 0.000423 -7.65994 -0.0845135 4.19714 2650 
4312 1 -0.0331145 -0.0277306 -0.0600286 0.000423 -7.45794 0.0995549 4.14453 2650 
1870 1 -0.03395 -0.0270207 -0.0600159 4.2e-05 -7.31708 0.428971 4.17064 2650 
529 1 -0.0334011 -0.0213497 -0.060243 0.000116 -6.58564 -0.632233 3.6207 2650 
3583 1 -0.03309 -0.0189205 -0.0604064 0.000116 -5.73421 -0.263612 3.05412 2650 
4132 1 -0.0331749 -0.0182638 -0.0603584 0.000116 -5.81175 -0.113933 3.19017 2650 
1735 1 -0.0337446 -0.0175101 -0.0600447 0.000116 -5.88036 0.118439 3.34454 2650 
4141 1 -0.0334558 -0.0179892 -0.0602037 0.000116 -6.07482 -0.0699022 3.39257 2650 
3409 1 -0.0334706 -0.0515498 -0.0595748 0.000656 -7.8947 -0.0203061 4.47368 2650 
3652 1 -0.0333614 -0.0431209 -0.0599067 0.000423 -7.37896 -0.0699085 4.1217 2650 
2247 1 -0.033897 -0.0277056 -0.0596082 0.000423 -7.06257 0.0469894 4.08318 2650 
1466 1 -0.0346303 -0.0177191 -0.0591913 0.000423 -6.36127 -0.264212 3.72478 2650 
1510 1 -0.0343182 -0.0152178 -0.0597265 0.000116 -7.30656 0.720448 4.19396 2650 
3047 1 -0.0351501 -0.00255179 -0.0592407 0.000116 -5.6525 0.137815 3.33187 2650 
1132 1 -0.0358878 -0.0470049 -0.0584383 0.000423 -7.35622 0.0191192 4.52372 2650 
3440 1 -0.0347079 -0.0470837 -0.0591463 0.000423 -7.63623 -0.0248599 4.48592 2650 
1683 1 -0.0348422 -0.0348154 -0.0590673 0.000423 -7.21194 0.014558 4.2664 2650 
3729 1 -0.0346815 -0.0304315 -0.0588923 0.000656 -7.54936 -0.053474 4.46491 2650 
612 1 -0.0362477 -0.0176893 -0.0585758 0.000116 -5.14046 -0.0482237 3.17423 2650 
2883 1 -0.0365785 -0.0473111 -0.0580083 0.000423 -7.29717 -0.0810759 4.59477 2650 
914 1 -0.0366604 -0.0160482 -0.0579566 0.000423 -5.79868 0.017047 3.66286 2650 
2835 1 -0.0369217 -0.0100685 -0.0581533 0.000116 -5.20614 -0.0487912 3.28842 2650 
3831 1 -0.0376087 -0.00778904 -0.0577997 4.2e-05 -6.06901 0.712752 3.94601 2650 
3539 1 -0.0380819 -0.0255625 -0.0570329 0.000423 -6.82425 0.00689066 4.56015 2650 
3381 1 -0.0386378 -0.0218056 -0.0570272 0.000116 -6.18029 -0.185933 4.18413 2650 
319 1 -0.0386106 -0.00975013 -0.0570458 0.000116 -4.46089 -0.395016 3.01575 2650 
3724 1 -0.0397573 -0.0297046 -0.0563438 4.2e-05 -6.3439 -0.187381 4.47938 2650 
350 1 -0.0391775 -0.0275959 -0.0562859 0.000423 -6.66368 -0.0547855 4.62841 2650 
1588 1 -0.0390348 -0.02648 -0.0563849 0.000423 -6.75804 -0.047673 4.687 2650 
3134 1 -0.0406848 -0.0144026 -0.055586 0.000116 -5.35302 -0.411561 3.91025 2650 
2841 1 -0.0410762 -0.011688 -0.0552972 0.000116 -6.355 0.363239 4.7209 2650 
2514 1 -0.0412508 -0.0279201 -0.0551673 0.000116 -6.64059 -0.314721 4.96606 2650 
397 1 -0.0421126 -0.00191695 -0.0545115 0.000116 -6.29124 1.0837 4.85328 2650 
3625 1 -0.0418268 -0.054209 -0.0540546 0.000656 -7.24097 0.0196064 5.61561 2650 
1031 1 -0.0419944 -0.0211812 -0.0542157 0.000423 -5.99606 0.0340936 4.6323 2650 
3514 1 -0.0414796 -0.0043381 -0.0543202 0.000656 -6.33981 0.0606571 4.86095 2650 
2910 1 -0.0421478 -0.00119965 -0.0540966 0.000423 -3.50725 0.314391 2.74046 2650 
245 1 -0.043258 -0.032659 -0.0532142 0.000423 -6.64158 0.0611499 5.38665 2650 
3412 1 -0.0424635 -0.0320122 -0.053556 0.000656 -6.64228 -0.00189575 5.28265 2650 
400 1 -0.0436943 -0.0184874 -0.0532515 0.000116 -5.36851 -0.130477 4.40409 2650 
3000 1 -0.0448424 -0.0232293 -0.0518848 0.000423 -6.26581 -0.041439 5.41964 2650 
3615 1 -0.0454993 -0.0216192 -0.0518169 4.2e-05 -6.84086 0.00435943 6.00015 2650 
1768 1 -0.0458343 -0.0249969 -0.0506986 0.000656 -6.26933 -0.0329315 5.65407 2650 
542 1 -0.0465112 -0.000863669 -0.0509104 4.2e-05 -5.27263 -0.0140477 4.82459 2650 
535 1 -0.0476547 -0.0124301 -0.0497333 0.000116 -4.31392 0.089878 4.16376 2650 
3266 1 -0.0472242 -0.00648889 -0.0501486 0.000116 -4.7234 -0.0427584 4.54236 2650 
3147 1 -0.0479778 -0.0193658 -0.0494268 0.000116 -5.91192 0.315602 5.73891 2650 
2470 1 -0.0482049 -0.0246675 -0.0487749 0.000423 -5.91284 -0.033562 5.86486 2650 
688 1 -0.0493771 -0.0398888 -0.0475896 0.000423 -5.64062 0.110222 5.86886 2650 
2134 1 -0.0496089 -0.0344254 -0.0473234 0.000423 -3.83819 -0.252335 3.81806 2650 
2966 1 -0.0488238 -0.0230803 -0.0478248 0.000656 -5.89698 -0.0386292 6.00121 2650 
2601 1 -0.0507416 -0.0261056 -0.0465653 0.000116 -4.30123 -0.113944 4.6279 2650 
3357 1 -0.0501263 -0.0211306 -0.0472477 0.000116 -5.81945 0.271784 6.17411 2650 
699 1 -0.0496418 -0.00358009 -0.0473122 0.000423 -3.4724 0.236929 3.84189 2650 
1071 1 -0.0502554 -0.00090755 -0.047109 0.000116 -4.17694 -0.233197 4.42414 2650 
3554 1 -0.0508192 -0.0369405 -0.0460131 0.000423 -4.46962 -1.03328 4.92251 2650 
3466 1 -0.0514825 -0.0288299 -0.0457266 0.000116 -4.88524 -0.153181 5.5282 2650 
2225 1 -0.0507318 -0.0245131 -0.0461392 0.000423 -4.83786 0.0989484 5.42483 2650 
3387 1 -0.0513037 -0.0184994 -0.0459642 0.000116 -4.67833 -0.414542 5.21336 2650 
1723 1 -0.051381 -0.0165546 -0.0458723 0.000116 -4.71999 -0.137485 5.22628 2650 
1965 1 -0.0518526 -0.020194 -0.045346 0.000116 -6.60047 0.21881 7.54177 2650 
2543 1 -0.0521963 -0.0198215 -0.0444742 0.000423 -4.30422 0.15349 5.15038 2650 
2256 1 -0.0536899 -0.0294447 -0.0431549 0.000116 -4.79259 -0.0339621 5.96834 2650 
1716 1 -0.0537666 -0.0243678 -0.0430593 0.000116 -4.27352 0.0233203 5.34225 2650 
2612 1 -0.0537895 -0.0189988 -0.0430305 0.000116 -4.64515 -0.0503016 5.80722 2650 
1475 1 -0.0541999 -0.031797 -0.0420161 0.000423 -5.20688 0.0247961 6.72196 2650 
1072 1 -0.0546021 -0.0180617 -0.0419952 0.000116 -4.42478 -0.216954 5.74807 2650 
4204 1 -0.0543487 -0.0153939 -0.0418228 0.000423 -4.64098 0.225251 6.05643 2650 
2023 1 -0.0549083 -0.041057 -0.0410856 0.000423 -5.43197 0.050899 7.25406 2650 
940 1 -0.0552025 -0.0160466 -0.0412024 0.000116 -4.46143 0.597717 5.96912 2650 
2743 1 -0.0553697 -0.0101173 -0.0411025 4.2e-05 -4.49414 -0.429925 6.06099 2650 
2846 1 -0.0555225 -0.00308868 -0.0408951 4.2e-05 -4.41464 -0.0386195 5.98383 2650 
3785 1 -0.0562139 -0.021617 -0.0398117 0.000116 -4.26433 0.189126 6.0321 2650 
2523 1 -0.0564102 -0.0167657 -0.0396622 4.2e-05 -4.62655 0.305684 6.58673 2650 
1422 1 -0.0125584 -0.00385814 -0.0399598 4.2e-05 -1.87611 -0.0834058 -5.96963 2650 
2672 1 -0.0566257 -0.0251333 -0.0386844 0.000423 -4.03077 0.119667 5.9759 2650 
1258 1 -0.0563629 -0.0241703 -0.0390665 0.000423 -4.43457 -0.382785 6.39911 2650 
2616 1 -0.0568795 -0.00798078 -0.038856 0.000116 -4.2353 0.394256 6.19236 2650 
2821 1 -0.0569145 -0.000116018 -0.0388037 0.000116 -4.2253 0.000248656 6.18889 2650 
1500 1 -0.0574234 -0.0270015 -0.0380473 0.000116 -4.75895 0.346846 7.17917 2650 
1912 1 -0.0570109 -0.00133853 -0.0381146 0.000423 -4.21349 -0.0715338 6.30113 2650 
424 1 -0.0576228 -0.0168347 -0.0377441 0.000116 -4.15328 -0.159179 6.34922 2650 
3154 1 -0.057972 -0.0161738 -0.0372055 0.000116 -4.17987 -0.113388 6.52275 2650 
109 1 -0.0585435 -0.00527577 -0.0364392 4.2e-05 -1.79403 -0.0937188 2.84468 2650 
3547 1 -0.0588705 -0.0293995 -0.0351756 0.000423 -3.95435 -0.328514 6.61712 2650 
2544 1 -0.0588151 -0.0228817 -0.035266 0.000423 -4.247 -0.113871 7.05428 2650 
3094 1 -0.0588067 -0.0199911 -0.035281 0.000423 -3.64942 -0.20296 6.12922 2650 
1123 1 -0.0592349 -0.020138 -0.0345563 0.000423 -3.5947 -0.723575 6.14371 2650 
200 1 -0.0602714 -0.0616383 -0.0333517 0.000116 -3.98174 -0.311153 7.19554 2650 
662 1 -0.059773 -0.0340983 -0.0331437 0.000656 -4.10996 -0.0442419 7.48788 2650 
843 1 -0.0601218 -0.0292017 -0.0336226 0.000116 -3.81971 -0.133651 6.82217 2650 
4376 1 -0.0601937 -0.0223608 -0.0336432 4.2e-05 -3.82049 -1.12533 6.82106 2650 
2414 1 -0.0606019 -0.0139306 -0.0329021 4.2e-05 -3.41032 -0.734193 6.26299 2650 
3601 1 -0.0609485 -0.0214641 -0.0320975 0.000116 -3.58293 0.324499 6.81691 2650 
1161 1 -0.0612152 -0.0215103 -0.0315864 0.000116 -3.24646 -0.222873 6.30956 2650 
333 1 -0.0615841 -0.0362208 -0.0296405 0.000656 -3.77066 -0.033805 7.80769 2650 
209 1 -0.0626338 -0.0172136 -0.0286625 0.000116 -2.79629 -0.149723 6.12154 2650 
1257 1 -0.0622416 -0.0166409 -0.028788 0.000423 -3.05291 -0.084139 6.58813 2650 
2201 1 -0.0624467 -0.0464652 -0.0277797 0.000656 -3.76794 -0.0426446 8.4822 2650 
457 1 -0.0637841 -0.0334307 -0.02519 0.000423 -3.20362 -0.0467405 8.10428 2650 
2299 1 -0.0640647 -0.0108587 -0.0254517 4.2e-05 -2.8851 -0.010363 7.26328 2650 
404 1 -0.0637972 -0.00214942 -0.0259679 0.000116 -2.3363 0.0698148 5.76899 2650 
992 1 -0.0638511 -0.0598168 -0.024375 0.000656 -3.27606 -0.0737074 8.58962 2650 
1326 1 -0.0636519 -0.0466238 -0.0248944 0.000656 -3.33847 -0.00571229 8.55007 2650 
2998 1 -0.0638093 -0.0310162 -0.0251252 0.000423 -3.08554 0.043847 7.79407 2650 
3817 1 -0.0641837 -0.0128808 -0.0249522 0.000116 -2.65291 0.0150077 6.89517 2650 
623 1 -0.0536479 -0.00619026 -0.0249737 0.000116 -8.08608 -0.264548 -3.74446 2650 
3585 1 -0.064338 -0.00260161 -0.0245955 0.000116 -1.63834 -0.152766 4.27859 2650 
1463 1 -0.0642394 -0.0429406 -0.0240043 0.000423 -2.99139 -0.148924 8.00624 2650 
2086 1 -0.0647777 -0.0130024 -0.0236435 4.2e-05 -2.00252 -0.0955395 5.48126 2650 
3227 1 -0.064595 -0.0195352 -0.0230315 0.000423 -2.14607 0.114848 6.0501 2650 
3152 1 -0.064981 -0.0179434 -0.022858 0.000116 -2.42996 0.420568 6.88915 2650 
2123 1 -0.0649232 -0.0309573 -0.0220128 0.000423 -2.72448 0.000796441 7.97304 2650 
1721 1 -0.0650992 -0.0282514 -0.0224555 0.000116 -2.45086 0.0891234 6.96287 2650 
1083 1 -0.0650133 -0.0233407 -0.0227418 0.000116 -2.16623 0.0201761 6.1064 2650 
2148 1 -0.0654039 -0.0213239 -0.0216165 0.000116 -2.57425 0.132773 7.81349 2650 
3702 1 -0.0656603 -0.0370218 -0.0207803 0.000116 -2.44213 -0.555958 7.73795 2650 
1304 1 -0.0656057 -0.0209745 -0.0209979 0.000116 -2.51803 0.14983 7.87248 2650 
747 1 -0.0658253 -0.036207 -0.0202364 0.000116 -2.26276 -0.176572 7.48633 2650 
1053 1 -0.00984522 -0.00391643 -0.0195667 0.000116 -0.962261 -0.127769 -1.99258 2650 
390 1 -0.0662951 -0.0207902 -0.0187082 0.000116 -1.82502 -0.167949 6.43979 2650 
4363 1 -0.0664802 -0.0178744 -0.0180381 0.000116 -2.01322 -0.296023 7.38783 2650 
1925 1 -0.000746184 -0.00369674 -0.016585 0.000423 -0.107367 -0.0723336 -2.27392 2650 
736 1 -0.003429 -0.00221487 -0.016474 0.000116 0 -0.011753 0 2650 
1758 1 -0.000271381 -0.0016114 -0.0161387 4.2e-05 0.00234536 -0.0304678 0.0124664 2650 
2013 1 -0.00236123 -0.00229913 -0.0151434 0.000423 0.000908078 -0.0230115 0.00688289 2650 
3346 1 -6.93843e-05 -0.000839825 -0.0155593 0.000423 -0.016804 0.017634 0.0360546 2650 
4217 1 -0.00459398 -0.000343286 -0.0157826 0.000423 -0.0160108 -0.016196 0.00969995 2650 
51 1 -0.0670105 -0.0471555 -0.014581 0.000423 -1.8156 -0.00301437 8.41009 2650 
2538 1 -0.066727 -0.024195 -0.0147905 0.000656 -1.88304 -0.0598939 8.40646 2650 
207 1 -0.00605621 -0.00284518 -0.0146127 0.000116 0.0149737 -0.0254854 0.00737087 2650 
4203 1 -0.00646598 -0.00193634 -0.0146115 0.000423 0.0155247 -0.00575566 5.37869e-05 2650 
858 1 -0.0046838 -0.00120107 -0.0143331 0.000116 -0.0132105 -0.0128364 0.0116617 2650 
1978 1 -0.0106998 -0.00372275 -0.0137309 4.2e-05 -0.465672 -0.251976 -0.548806 2650 
2959 1 -0.06777 -0.0123341 -0.0127479 4.2e-05 -1.76286 1.75699 9.36231 2650 
2525 1 -0.004063 -0.00196987 -0.013231 4.2e-05 0 -0.011753 0 2650 
2619 1 -0.005851 -0.00115387 -0.012854 0.000116 0 -0.011753 0 2650 
2512 1 -0.00426918 -0.00104214 -0.0130258 0.000116 0.018779 -0.0192413 0.00230208 2650 
2609 1 -0.00886 -0.000429872 -0.013248 0.000116 0 -0.011753 0 2650 
1388 1 -0.00758614 -0.000533393 -0.013261 0.000116 -0.0252089 -0.0182247 0.0103112 2650 
454 1 -0.0111934 -0.00106281 -0.0120095 0.000423 -0.00861197 -0.0118809 -0.00814637 2650 
3894 1 -0.00610613 -0.00138288 -0.0120284 0.000116 -0.00208335 -0.0100804 -0.00370532 2650 
1687 1 -0.0676491 -0.0378046 -0.0112506 0.000423 -1.47737 -0.013858 8.86827 2650 
579 1 -0.00453913 -0.00323006 -0.0115021 0.000423 -0.0260818 -0.0168318 0.0178146 2650 
4300 1 -0.0105668 -0.000599134 -0.0116468 0.000423 -0.00961166 -0.0027529 -0.0082929 2650 
3839 1 -0.0674787 -0.0444004 -0.0108578 0.000656 -1.46306 -0.0314145 9.23202 2650 
3329 1 -0.0677079 -0.0421444 -0.0108895 0.000423 -1.43883 0.235371 8.96932 2650 
2800 1 -0.0677041 -0.0296092 -0.010918 0.000423 -1.36283 -0.017543 8.31022 2650 
3778 1 -0.0155734 -0.00419788 -0.0103349 0.000423 -1.13194 -0.230027 -0.763778 2650 
124 1 -0.00636364 -0.000914242 -0.0109152 0.000423 -0.00397396 -0.0075032 -0.00110335 2650 
3093 1 -0.00190198 -0.000574818 -0.0105773 0.000423 0.00398138 0.00338615 0.00938436 2650 
2803 1 -0.0682316 -0.0347349 -0.00946213 0.000116 -1.09585 -0.225459 7.90921 2650 
1051 1 -0.0681346 -0.0246827 -0.0101335 0.000116 -1.16931 0.0994896 7.98156 2650 
4374 1 -0.008921 -0.00280487 -0.009568 4.2e-05 0 -0.011753 0 2650 
3250 1 -0.008233 -0.00283187 -0.010036 0.000116 0 -0.011753 0 2650 
3578 1 -0.00439346 -0.00213492 -0.0100887 0.000116 0.0166174 -0.0080284 -0.0212687 2650 
497 1 -0.0069221 -0.00131762 -0.00992127 0.000116 -0.00435767 -0.00969139 0.00175739 2650 
1977 1 -0.006037 -0.00156187 -0.009842 4.2e-05 0 -0.011753 0 2650 
2679 1 -0.0679724 -0.0472146 -0.00909875 0.000423 -1.22067 0.212742 9.04956 2650 
3918 1 -0.0682852 -0.00684747 -0.00906787 0.000116 -0.891471 -0.0762004 6.66722 2650 
2172 1 -0.00254582 -0.00247261 -0.00931206 0.000116 -0.0566193 -0.0940105 0.104597 2650 
2666 1 -0.0139499 -0.000926171 -0.00869138 0.000423 -0.0061099 -0.00346613 0.0118317 2650 
2022 1 -0.00296342 -0.000839671 -0.00936006 0.000423 0.00727907 -0.00436409 0.0042744 2650 
4158 1 -0.0129731 -0.00024141 -0.00882809 4.2e-05 0.0078446 -0.0183484 0.0170625 2650 
3840 1 -0.0678299 -0.0536064 -0.00839933 0.000656 -1.11523 0.00465899 8.99904 2650 
3832 1 -0.014413 -0.00265592 -0.00832108 4.2e-05 -0.0167836 -0.0125192 0.0116659 2650 
3383 1 -0.0143386 -0.00104823 -0.00811564 0.000116 -0.00572193 -0.00734955 0.0176853 2650 
80 1 -0.0138932 -3.17123e-05 -0.00866537 0.000116 -0.00879252 -0.0034051 0.028101 2650 
3643 1 -0.0141262 -0.000212139 -0.00810421 0.000423 -0.0155463 -0.003885 0.0129955 2650 
687 1 -0.0103286 -0.000223136 -0.00810317 0.000423 -0.0131623 -0.0218751 -0.00125555 2650 
2385 1 -0.007736 -0.000166872 -0.008312 0.000116 0 -0.011753 0 2650 
92 1 -0.0147258 -0.00244983 -0.00722953 0.000116 -0.0162756 -0.0143481 0.00416975 2650 
263 1 -0.0126326 -0.00262162 -0.00739316 0.000423 0.00279886 -0.0132197 -0.0149143 2650 
1780 1 -0.0143323 -0.00206941 -0.00717642 0.000423 -0.0110945 -0.0147253 0.0012333 2650 
3542 1 -0.00677713 -0.00225986 -0.00751999 0.000423 -0.00879141 -0.0220421 0.00291429 2650 
3956 1 -0.012901 -0.00127315 -0.00780468 0.000656 -0.0141439 -0.0138285 0.0163342 2650 
3347 1 -0.0133423 -0.000375825 -0.00734084 0.000423 -0.0119728 0.0019021 0.000771257 2650 
3626 1 -0.0680513 -0.0444305 -0.0063411 0.000656 -0.816846 -0.0396011 9.18107 2650 
3699 1 -0.00534 -0.00182387 -0.006997 0.000116 0 -0.011753 0 2650 
934 1 -0.00286751 -0.00212106 -0.00632007 0.000423 -0.021989 -0.0180124 0.00437253 2650 
3463 1 -0.014846 -0.000256872 -0.007018 0.000116 0 -0.011753 0 2650 
1840 1 -0.0116651 -0.000140583 -0.00645443 0.000116 -0.00171569 -0.01307 -0.00214532 2650 
2381 1 -0.00870123 -0.00076752 -0.00661929 0.000116 -0.0521158 -0.0206838 0.00130077 2650 
3249 1 -0.00174404 -0.000147696 -0.00668107 0.000116 0.0467911 0.00119016 -0.0211549 2650 
951 1 -0.0686437 -0.00671222 -0.00575296 0.000116 -0.532631 -0.218652 6.4175 2650 
4344 1 -0.0686584 -0.00528221 -0.00556935 0.000116 -0.24365 -0.129632 3.25655 2650 
4183 1 -0.00173329 -0.00255549 -0.00586409 0.000423 0.0155933 -0.0166325 -0.00436001 2650 
2542 1 -0.00677124 -0.00175428 -0.00613911 0.000423 -0.000835976 -0.0103491 0.00776888 2650 
2159 1 -0.00225871 -0.0017197 -0.00605122 0.000116 0.00403652 -0.0164115 -0.00037532 2650 
3545 1 -0.0125635 -0.000985948 -0.00606404 0.000423 0.00126649 -0.00561468 -0.0111358 2650 
4306 1 -0.0137961 -0.000627591 -0.00569697 0.000423 0.0109102 -0.00111456 -0.0161313 2650 
1055 1 -0.01293 -0.000476611 -0.0060984 0.000116 0.00788184 0.0109739 -0.0146112 2650 
1908 1 -0.0114495 -1.69835e-05 -0.0059392 0.000423 -0.00424857 -0.0159924 0.00168299 2650 
4115 1 -0.008822 -0.000235872 -0.005657 0.000116 0 -0.011753 0 2650 
3611 1 -0.005874 -2.88721e-05 -0.006192 4.2e-05 0 -0.011753 0 2650 
216 1 -0.0137573 -0.00344651 -0.00523898 4.2e-05 -1.46692 -0.0439083 -0.558627 2650 
1621 1 -0.0151686 -0.00248376 -0.00500888 0.000116 0.0113233 -0.0108112 -0.0231007 2650 
4351 1 -0.000799 -0.000893872 -0.005176 0.000116 0 -0.011753 0 2650 
234 1 -0.00244808 -0.000643435 -0.00517647 0.000423 -0.00822625 -0.0133379 0.0216942 2650 
428 1 -0.0687433 -0.0189835 -0.00439622 0.000116 -0.563109 -0.140048 8.82996 2650 
850 1 -0.0687722 -0.0125124 -0.00392802 0.000116 -0.440808 0.0779817 7.93443 2650 
1773 1 -0.0191955 -0.00433157 -0.00405133 0.000423 -1.60901 -0.234633 -0.282736 2650 
309 1 -0.00127492 -0.00202683 -0.00455054 0.000116 -0.0382334 -0.0133124 -0.0275244 2650 
1834 1 -0.00694552 -0.000413189 -0.00446569 0.000116 0.0049248 -0.0128928 0.00426497 2650 
3945 1 -0.0688642 -0.0147796 -0.00359219 4.2e-05 -0.387204 0.674383 7.3148 2650 
3371 1 -0.0163872 -0.00263791 -0.00334968 0.000116 0.000574404 -0.0160502 -0.0013293 2650 
4232 1 -0.01438 -0.00305187 -0.00366958 0.000116 -1.33978e-07 -0.0116406 -0.000114396 2650 
746 1 -0.0146453 -0.00297598 -0.00329625 0.000116 -0.000891342 -0.0108384 0.00058416 2650 
2753 1 -0.0155002 -0.000889256 -0.00379141 0.000656 0.00139314 -0.00418699 -0.0100293 2650 
3074 1 -0.01395 -0.000856872 -0.003467 4.2e-05 0 -0.011753 0 2650 
278 1 -0.007107 -0.000338872 -0.003807 0.000116 0 -0.011753 0 2650 
1121 1 -0.0026384 -9.42809e-05 -0.00367199 0.000423 -0.000885952 -0.00848046 0.0134358 2650 
4017 1 -0.0688374 -0.0189596 -0.00253308 0.000116 -0.304518 -0.0773048 8.17145 2650 
2822 1 -0.0688413 -0.00886775 -0.00242334 0.000116 -0.287719 0.472443 8.02935 2650 
3963 1 -0.00266259 -0.00318976 -0.00280267 0.000423 0.0117802 -0.0140937 -0.0132174 2650 
1515 1 -0.0148742 -0.00191414 -0.00270653 0.000116 0.00283549 -0.00357976 0.00440292 2650 
2845 1 -0.00961671 -0.00205877 -0.00257893 0.000116 0.00278668 -0.0106331 -0.0157805 2650 
3128 1 -0.0074022 -0.00198965 -0.00260062 0.000423 0.0290004 -0.015593 -0.00503777 2650 
2884 1 -0.0159859 -0.000176534 -0.00291919 0.000423 0.00171805 -0.00691615 -0.00588836 2650 
1824 1 -0.00843585 -0.0003638 -0.00286081 0.000116 -0.0183534 -0.00720707 -0.0310575 2650 
1104 1 -0.0683272 -0.0421176 -0.00160127 0.000656 -0.18715 -0.0393069 9.38175 2650 
2031 1 -0.00308262 -0.00302377 -0.00188012 0.000423 0.0182678 -0.00965564 -0.000895704 2650 
1003 1 -0.0157384 -0.00203674 -0.00164239 0.000423 0.0127238 -0.0142211 -0.0144792 2650 
3212 1 -0.0152184 -0.00135054 -0.00198107 0.000423 0.0117992 0.00985315 0.000218028 2650 
860 1 -0.008113 -0.000987872 -0.002155 0.000116 0 -0.011753 0 2650 
2807 1 -0.0238205 -0.00367306 -0.00081737 0.000116 -3.05471 -0.0733097 -0.105254 2650 
1047 1 -0.00599628 -0.00295718 -0.0015544 0.000116 0.013748 -0.000468203 -0.0309451 2650 
3804 1 -0.00141911 -0.00288174 -0.000845366 0.000116 0.000559783 -0.017751 0.00277547 2650 
4322 1 -0.000157133 -0.00263534 -0.000889864 0.000423 -0.0230925 -0.0162731 -0.00845774 2650 
1867 1 -0.009592 -0.00195887 -0.001096 4.2e-05 0 -0.011753 0 2650 
2901 1 -0.00864094 -0.00028828 -0.00157188 0.000423 0.0230366 -0.0119222 -0.0213812 2650 
7 1 -0.00627492 -0.000160262 -0.000925462 0.000656 0.0208599 -0.000661128 -0.0110151 2650 
3041 1 -0.0688825 -0.00865685 -0.00041628 0.000116 -0.0404179 0.0189634 6.72979 2650 
524 1 -0.0688838 -0.00584587 -0.000118362 0.000116 -0.0153261 -0.347853 6.71373 2650 
4343 1 -0.0688827 -0.00276934 -0.000366553 0.000116 -0.0304929 0.031519 7.08751 2650 
1558 1 -0.00385309 -0.00252337 -0.000111167 0.000423 0.00975927 -0.00189192 0.000904834 2650 
1397 1 -0.016414 -0.000900779 -0.000264906 0.000116 -0.00791697 -0.0193378 -0.069013 2650 
3617 1 -0.014343 -1.26256e-05 -0.00028059 4.2e-05 0.000230152 -0.0109217 -0.0189649 2650 
3709 1 -0.00467 -0.000206872 -0.000346 0.000116 0 -0.011753 0 2650 
2810 1 -0.004695 -7.18721e-05 -0.00071 0.000116 0 -0.011753 0 2650 
2705 1 -0.0688826 -0.0341057 0.000408762 0.000116 0.0504159 -0.195125 8.23399 2650 
3174 1 -0.0689559 -0.0197448 0.000542159 4.2e-05 0.0622082 -0.491852 8.57247 2650 
2964 1 -0.0689562 -0.0185335 0.000436312 4.2e-05 0.0526802 -0.359506 7.98917 2650 
3469 1 -0.010677 -0.00296887 0.000412 0.000116 0 -0.011753 0 2650 
1743 1 -0.0127249 -0.00113101 4.20798e-05 0.000116 0.00815436 -0.0208615 -0.0106459 2650 
1732 1 -0.002663 -0.00118887 0.000416 0.000116 0 -0.011753 0 2650 
3130 1 -0.000448736 -0.00115972 0.000262645 0.000116 -0.0428209 -0.0153653 0.00347305 2650 
299 1 -0.06887 -0.0206399 0.00138596 0.000116 0.147055 -0.0174962 7.49614 2650 
2074 1 -0.0688707 -0.0186824 0.00135491 0.000116 0.152873 -0.23973 8.0861 2650 
13 1 -0.015133 -0.00287474 0.0012301 0.000423 -0.00559735 -0.0109795 -0.0309119 2650 
609 1 -0.016624 -0.00191587 0.001568 0.000116 0 -0.011753 0 2650 
3280 1 -0.00828984 -0.00178214 0.00123127 0.000116 -0.0186926 -0.00783423 -0.0348899 2650 
3292 1 -0.00727517 -0.000370116 0.00149899 4.2e-05 0.0078395 -0.00588379 0.00730209 2650 
4307 1 -0.068552 -0.0279306 0.00190086 0.000423 0.241243 -0.018835 8.33395 2650 
789 1 -0.0685357 -0.0211046 0.00241161 0.000423 0.274686 -0.0765629 7.56992 2650 
469 1 -0.0685523 -0.0110468 0.00185649 0.000423 0.118364 -0.110166 5.45722 2650 
4038 1 -0.0688468 -0.00388724 0.00225171 0.000116 0.226193 -0.187133 6.89376 2650 
3113 1 -0.0161805 -0.00306937 0.00180328 0.000423 -0.00369566 -0.0125608 -0.0296672 2650 
4251 1 -0.015195 -0.00168207 0.00226922 0.000116 -0.00302116 -0.000652879 -0.00784754 2650 
403 1 -0.0100766 -0.00200417 0.00204907 0.000116 0.00425188 -0.0145041 0.00244993 2650 
1332 1 -0.00471917 -0.0013654 0.00167752 0.000656 -0.0140905 -0.0169415 0.00409457 2650 
4259 1 -0.002248 -0.00105187 0.002086 0.000116 0 -0.011753 0 2650 
2296 1 -0.0688219 -0.0196968 0.00292343 0.000116 0.338713 -0.571907 8.12947 2650 
4219 1 -0.0149818 -0.00133192 0.00278634 0.000423 0.00444191 -0.0214875 -0.00760134 2650 
3824 1 -0.0110518 -0.000990063 0.00280139 0.000116 0.0113077 -0.00905293 -0.00389377 2650 
2521 1 -0.011147 -0.000290872 0.00258 4.2e-05 0 -0.011753 0 2650 
3978 1 -0.0684675 -0.0212613 0.00388695 0.000423 0.425689 0.158306 7.78052 2650 
3730 1 -0.015655 -0.0028487 0.00326312 0.000656 -0.00321846 -0.00990691 -0.0236169 2650 
1888 1 -0.0101247 -0.000848461 0.00370102 0.000423 0.00944992 -0.0245306 0.0169992 2650 
2336 1 -0.00658841 -0.000794122 0.00342297 0.000423 -0.000484561 -0.0012633 0.0136178 2650 
4048 1 -0.0688312 -0.0367694 0.00417641 4.2e-05 0.477456 -0.481833 7.94293 2650 
707 1 -0.0684492 -0.0278327 0.00420439 0.000423 0.514775 -0.0598905 8.40075 2650 
1619 1 -0.0687399 -0.0250609 0.0044528 0.000116 0.532452 -0.191602 8.28412 2650 
1343 1 -0.0684298 -0.0233656 0.00450691 0.000423 0.566662 -0.076938 8.34926 2650 
2877 1 -0.0684184 -0.0225136 0.00467521 0.000423 0.560722 -0.044216 8.27786 2650 
3748 1 -0.00208081 -0.00208519 0.00439621 0.000423 0.0239084 -0.00144846 -0.0158761 2650 
1135 1 -0.0683831 -0.0478882 0.00517336 0.000423 0.689085 0.05575 8.90423 2650 