ITEM: TIMESTEP
17595731
ITEM: NUMBER OF ATOMS
4254
ITEM: BOX BOUNDS ff ff ff
-0.15 0.15
-0.15 0.15
-0.15 0.15
ITEM: ATOMS id type x y z radius vx vy vz density 
3945 1 -0.0055558 -0.021018 -0.0687335 4.2e-05 -8.12079 0.00222078 0.659106 2650 
3802 1 -0.00174179 -0.0183777 -0.0688619 0.000116 -7.42189 -0.0955533 0.180461 2650 
868 1 -0.00366028 -0.017113 -0.0687865 0.000116 -8.98069 -0.58551 0.473141 2650 
3282 1 -0.000900801 -0.0122778 -0.0689528 4.2e-05 -7.56742 -0.0845147 0.0848384 2650 
2165 1 -0.00429878 -0.0037354 -0.0687497 0.000116 -4.78471 0.0782634 0.287039 2650 
3137 1 -0.00261415 -0.00289478 -0.0688342 0.000116 -6.11643 -0.171384 0.226915 2650 
4343 1 -0.00222199 -0.002843 -0.068848 0.000116 -7.65718 0.441028 0.247815 2650 
2237 1 -0.000220669 -0.0589306 -0.0685777 0.000423 -8.72061 -0.00331402 0.0223632 2650 
586 1 -0.000809434 -0.0290385 -0.0685744 0.000423 -8.70217 -0.0768229 0.110124 2650 
3094 1 -0.00178433 -0.0216953 -0.0685548 0.000423 -8.48058 -0.0135382 0.222129 2650 
941 1 -0.00785723 -0.0209507 -0.0684343 0.000116 -9.42905 -0.0393886 1.08011 2650 
3422 1 -0.00659563 -0.0171553 -0.0682602 0.000423 -7.06797 0.0850352 0.697823 2650 
3955 1 -0.00595067 -0.015302 -0.068088 0.000656 -6.99253 0.0496915 0.605984 2650 
1296 1 -0.0100871 -0.00838234 -0.0681414 0.000116 -7.28896 0.220052 1.07347 2650 
633 1 -0.0109091 -0.00759816 -0.0680141 0.000116 -7.30159 0.421812 1.17747 2650 
2172 1 -0.008244 -0.00337295 -0.0683888 0.000116 -8.0746 -0.0828969 0.967466 2650 
3331 1 -0.0117501 -0.0472133 -0.0675642 0.000423 -9.15783 0.243957 1.5929 2650 
3892 1 -0.0128533 -0.0268517 -0.0673498 0.000423 -3.87279 -1.3448 0.602743 2650 
3147 1 -0.0121644 -0.0220178 -0.0678011 0.000116 -8.165 0.0245695 1.43518 2650 
203 1 -0.0140926 -0.0210926 -0.067427 0.000116 -6.8213 -0.550508 1.42501 2650 
734 1 -0.0151944 -0.0193141 -0.0671867 0.000116 -8.36671 0.515794 1.89137 2650 
2900 1 -0.0104056 -0.0197124 -0.0677843 0.000423 -6.47556 -0.529997 0.982412 2650 
2681 1 -0.00998768 -0.00886937 -0.067846 0.000423 -6.86567 0.0883788 1.0313 2650 
2343 1 -0.0161729 -0.0453152 -0.0666439 0.000423 -9.10615 -0.0752109 2.21956 2650 
1870 1 -0.0189232 -0.0257029 -0.0663053 4.2e-05 -8.23411 0.420941 2.36432 2650 
685 1 -0.0171996 -0.0230824 -0.0663837 0.000423 -8.61986 0.00882523 2.23173 2650 
3926 1 -0.0177367 -0.0130622 -0.0665544 0.000116 -7.30118 0.0387994 1.95874 2650 
4377 1 -0.0175022 -0.00122142 -0.0666989 4.2e-05 -7.29587 -0.0709261 1.92413 2650 
719 1 -0.0205122 -0.0599222 -0.0657589 0.000116 -2.62138 -2.97374 0.826892 2650 
3702 1 -0.0203542 -0.0209059 -0.0658084 0.000116 -7.15859 -0.42595 2.23054 2650 
2414 1 -0.020378 -0.0186737 -0.0658771 4.2e-05 -7.28039 -0.456551 2.24862 2650 
1533 1 -0.0201134 -0.0181114 -0.0659588 4.2e-05 -7.21649 0.184671 2.1863 2650 
862 1 -0.0190323 -0.0155773 -0.0661981 0.000116 -7.0739 0.018877 2.08196 2650 
1510 1 -0.0200904 -0.01385 -0.0658849 0.000116 -8.21345 0.45585 2.50124 2650 
4163 1 -0.0211668 -0.0119756 -0.0656272 4.2e-05 -7.54627 0.109444 2.44927 2650 
4260 1 -0.0205386 -0.000316424 -0.0657505 0.000116 -7.32907 -0.0975071 2.29581 2650 
1752 1 -0.0195876 -0.000239932 -0.0661173 4.2e-05 -7.09709 -0.0270238 2.10507 2650 
1568 1 -0.0221552 -0.0541943 -0.0649017 0.000423 -8.53982 -0.0863703 2.93159 2650 
3519 1 -0.0218308 -0.0466137 -0.0647664 0.000656 -9.08098 0.000417571 3.03049 2650 
3319 1 -0.0204664 -0.0410158 -0.0654527 0.000423 -9.14356 0.0177152 2.86235 2650 
1304 1 -0.0235422 -0.0363416 -0.0647362 0.000116 -6.83458 -0.0668952 2.47533 2650 
338 1 -0.021012 -0.0262359 -0.0650359 0.000656 -8.83708 -0.0422905 2.85238 2650 
1944 1 -0.0221472 -0.0190281 -0.0652258 0.000116 -7.12313 -0.262807 2.42798 2650 
2606 1 -0.0227508 -0.0176008 -0.0650177 0.000116 -7.11685 -0.162988 2.50163 2650 
3904 1 -0.0216891 -0.0167817 -0.065379 0.000116 -7.11686 -0.0943597 2.36474 2650 
2616 1 -0.0223903 -0.016524 -0.0651434 0.000116 -8.82729 -0.716239 3.03844 2650 
1500 1 -0.0244616 -0.0271282 -0.0643946 0.000116 -7.78106 0.274143 2.96666 2650 
2470 1 -0.024731 -0.02642 -0.0639639 0.000423 -8.05716 -0.0978514 3.11162 2650 
3284 1 -0.0241338 -0.0217336 -0.0645967 4.2e-05 -7.40457 -0.0596939 2.75802 2650 
1169 1 -0.0252791 -0.0208135 -0.0640784 0.000116 -7.56732 -0.118834 2.99319 2650 
3724 1 -0.0253995 -0.0167217 -0.0641097 4.2e-05 -7.3736 0.0401393 2.92331 2650 
2087 1 -0.0239306 -0.0144156 -0.0646725 4.2e-05 -7.22999 -0.326372 2.67107 2650 
3514 1 -0.022306 -0.00695116 -0.0646033 0.000656 -8.27518 -0.0497871 2.8511 2650 
2198 1 -0.0243594 -0.00597113 -0.0645122 4.2e-05 -8.14846 -0.286217 3.08239 2650 
555 1 -0.0243999 -0.0412703 -0.0638427 0.000656 -9.0523 -0.0600777 3.48163 2650 
2928 1 -0.0263572 -0.0266204 -0.0636422 0.000116 -7.85487 0.206262 3.25497 2650 
3378 1 -0.027613 -0.014093 -0.0631077 0.000116 -7.16494 -0.0786891 3.13178 2650 
2589 1 -0.0263532 -0.00576767 -0.063644 0.000116 -6.62646 -0.00720738 2.73613 2650 
4355 1 -0.0264093 -0.00545016 -0.0636204 0.000116 -6.24138 0.341959 2.58676 2650 
2148 1 -0.0277009 -0.0346071 -0.0630694 0.000116 -6.8314 -0.0445302 2.98573 2650 
602 1 -0.0281616 -0.0203759 -0.0625292 0.000423 -7.74256 0.128935 3.4891 2650 
3154 1 -0.0286546 -0.0175432 -0.0626411 0.000116 -8.08757 0.292975 3.6956 2650 
1406 1 -0.0278007 -0.0181325 -0.0630248 0.000116 -6.94177 0.285522 3.05375 2650 
1852 1 -0.0277997 -0.0123151 -0.0630259 0.000116 -7.23909 0.251459 3.18671 2650 
3873 1 -0.0274874 -0.0112586 -0.0628292 0.000423 -6.99791 -0.00673194 3.08336 2650 
3850 1 -0.0288344 -0.0420604 -0.0622217 0.000423 -9.19354 -0.0951539 4.24072 2650 
2970 1 -0.0297095 -0.0339262 -0.0615525 0.000656 -8.47567 -0.0176831 4.08059 2650 
350 1 -0.0300981 -0.0286297 -0.0616207 0.000423 -7.94762 -0.0446534 3.87273 2650 
605 1 -0.0294505 -0.0165147 -0.0619325 0.000423 -3.44037 -0.718839 1.64514 2650 
843 1 -0.0321801 -0.0322749 -0.0609047 0.000116 -7.44446 0.00312514 3.93785 2650 
375 1 -0.0316407 -0.031948 -0.0608431 0.000423 -8.08233 0.0213609 4.19594 2650 
4193 1 -0.0307643 -0.0323353 -0.0612909 0.000423 -8.42329 -0.0105177 4.23157 2650 
1606 1 -0.0324113 -0.0310881 -0.0607822 0.000116 -7.67448 -0.473384 4.08896 2650 
3539 1 -0.0305514 -0.0254082 -0.0613969 0.000423 -7.88348 -0.00148957 3.94137 2650 
1585 1 -0.0313205 -0.0231901 -0.0610078 0.000423 -7.76774 -0.0325175 3.96758 2650 
299 1 -0.0323759 -0.0187646 -0.0608011 0.000116 -6.68043 -0.14799 3.5587 2650 
2964 1 -0.0316657 -0.0153858 -0.0612575 4.2e-05 -6.8212 -0.388715 3.54426 2650 
3000 1 -0.0328035 -0.0261511 -0.0602237 0.000423 -7.78575 -0.176779 4.2384 2650 
1588 1 -0.0321057 -0.0266375 -0.060598 0.000423 -7.748 -0.127223 4.10442 2650 
2052 1 -0.0333043 -0.00831861 -0.0602971 0.000116 -5.53085 0.0235758 3.05054 2650 
3113 1 -0.032093 -0.00865829 -0.0606049 0.000423 -5.41185 -0.152046 2.86798 2650 
747 1 -0.0340199 -0.0421303 -0.0598936 0.000116 -7.56607 0.111387 4.2766 2650 
4229 1 -0.0342674 -0.0192077 -0.0597558 0.000116 -7.13205 -0.189993 4.08309 2650 
387 1 -0.034267 -0.0195929 -0.059756 0.000116 -7.17683 -0.278055 4.10881 2650 
1890 1 -0.0335457 -0.0181887 -0.0598137 0.000423 -6.70703 -0.167156 3.77314 2650 
3469 1 -0.0347944 -0.0175386 -0.0594464 0.000116 -6.41839 0.270459 3.7057 2650 
2396 1 -0.0346283 -0.0139592 -0.0595466 0.000116 -6.3972 -0.0238517 3.65576 2650 
3336 1 -0.0346558 -0.0131203 -0.0591688 0.000423 -4.84489 0.370648 2.68174 2650 
1076 1 -0.0343311 -0.00598541 -0.0597191 0.000116 -6.78101 0.193346 3.8943 2650 
3786 1 -0.0357105 -0.0418148 -0.0589045 0.000116 -7.32725 1.59331 4.44097 2650 
1446 1 -0.0359888 -0.0193048 -0.0583757 0.000423 -7.07928 0.0840475 4.34637 2650 
3538 1 -0.0354482 -0.0139158 -0.0586847 0.000423 -4.79692 -0.719507 2.82154 2650 
3357 1 -0.0363277 -0.0106911 -0.05849 0.000116 -6.32135 -0.530553 3.92577 2650 
1934 1 -0.0363319 -0.00796548 -0.0584873 0.000116 -5.88163 -0.354692 3.65339 2650 
4255 1 -0.0365452 -0.00247254 -0.0583882 0.000116 -6.07243 -0.0446031 3.78594 2650 
3181 1 -0.0359799 -0.00150403 -0.0588228 4.2e-05 -3.17641 -0.151868 2.10675 2650 
807 1 -0.0365343 -0.0225127 -0.0580351 0.000423 -6.35851 0.143969 3.99739 2650 
850 1 -0.0376388 -0.0189821 -0.0576892 0.000116 -6.93071 -0.224467 4.50612 2650 
2399 1 -0.0370795 -0.000281365 -0.0580527 0.000116 -6.07381 0.0633829 3.87013 2650 
1239 1 -0.0380723 -0.0623612 -0.0570386 0.000423 -7.6067 0.0181764 5.07727 2650 
2247 1 -0.0385203 -0.0295831 -0.0567377 0.000423 -7.44772 -0.0766955 5.05241 2650 
4244 1 -0.0381712 -0.0193398 -0.0573393 0.000116 -6.64893 -0.244811 4.44031 2650 
1086 1 -0.0388678 -0.0180514 -0.056868 0.000116 -6.65879 0.657922 4.55806 2650 
1258 1 -0.0388408 -0.0186544 -0.0565179 0.000423 -6.58125 0.529983 4.53362 2650 
688 1 -0.0400848 -0.0403172 -0.0556432 0.000423 -7.14847 0.039053 5.14542 2650 
1683 1 -0.0405184 -0.0367326 -0.0553288 0.000423 -7.2228 -0.0200621 5.28041 2650 
4264 1 -0.0412071 -0.0188348 -0.0552904 4.2e-05 -6.82272 0.383611 5.07639 2650 
877 1 -0.0422955 -0.0336124 -0.054464 4.2e-05 -7.31372 -0.476231 5.68228 2650 
1566 1 -0.040988 -0.0259019 -0.0549816 0.000423 -6.65729 -0.146934 4.95522 2650 
2173 1 -0.0419417 -0.022392 -0.0546433 0.000116 -6.57342 -0.0595693 5.03792 2650 
2827 1 -0.0419719 -0.0154603 -0.0546182 0.000116 -6.66405 0.243537 5.11096 2650 
746 1 -0.0423992 -0.0318951 -0.0542905 0.000116 -7.15323 1.29424 5.58134 2650 
1447 1 -0.0418325 -0.0181578 -0.0543403 0.000423 -6.69138 -0.0409723 5.1499 2650 
1768 1 -0.0431603 -0.0274455 -0.0529942 0.000656 -6.72816 -0.0537352 5.46567 2650 
4237 1 -0.0437949 -0.002096 -0.053169 0.000116 -5.69906 -0.318794 4.70047 2650 
1634 1 -0.0437722 -0.000489134 -0.053188 0.000116 -4.53672 -0.0823361 3.74049 2650 
1905 1 -0.0444467 -0.0342072 -0.0522261 0.000423 -6.97924 -0.0108993 5.93635 2650 
2803 1 -0.044666 -0.0293788 -0.0524411 0.000116 -6.76169 0.381034 5.76214 2650 
507 1 -0.0448172 -0.00856786 -0.0523118 0.000116 -4.91753 0.0181325 4.22417 2650 
3969 1 -0.044831 -0.0179379 -0.0518944 0.000423 -5.98645 0.0190486 5.18615 2650 
1475 1 -0.0462312 -0.0352696 -0.050651 0.000423 -6.47366 -0.00661625 5.91446 2650 
520 1 -0.0468435 -0.0226156 -0.0505031 0.000116 -6.41595 0.392258 5.94825 2650 
1630 1 -0.0469569 -0.0195112 -0.0503987 0.000116 -6.39402 -0.286482 5.95229 2650 
30 1 -0.0457785 -0.0162186 -0.0510614 0.000423 -5.91219 0.187984 5.31211 2650 
114 1 -0.0464413 -0.0335946 -0.050145 0.000656 -6.74582 -0.0101391 6.27331 2650 
4312 1 -0.0471835 -0.0304823 -0.0497634 0.000423 -6.70124 0.0723304 6.33662 2650 
4128 1 -0.0474743 -0.00227125 -0.0499117 0.000116 -5.59605 0.453379 5.31074 2650 
2708 1 -0.0480847 -0.0299062 -0.049316 0.000116 -6.91166 0.642758 6.75202 2650 
3547 1 -0.0474256 -0.0294562 -0.0495267 0.000423 -6.35017 -0.116164 6.06901 2650 
1410 1 -0.0484014 -0.0201007 -0.0490135 0.000116 -5.6766 -0.0166508 5.59321 2650 
2544 1 -0.0476738 -0.014711 -0.0492975 0.000423 -5.73566 0.559833 5.54426 2650 
4021 1 -0.0478259 -0.0136767 -0.0495755 0.000116 -5.70851 -0.13331 5.49854 2650 
2672 1 -0.04847 -0.0238608 -0.0485109 0.000423 -6.26522 -0.156298 6.25931 2650 
789 1 -0.048796 -0.022078 -0.0481867 0.000423 -6.19724 -0.00157846 6.27363 2650 
3470 1 -0.0489179 -0.015494 -0.0484979 0.000116 -5.56311 0.0984284 5.6108 2650 
1392 1 -0.0507658 -0.0156082 -0.04656 0.000116 -5.49944 0.546587 5.98708 2650 
832 1 -0.0504356 -0.00430726 -0.0469172 0.000116 -4.75228 0.104824 5.09221 2650 
252 1 -0.0510433 -0.0172346 -0.0457992 0.000423 -5.37286 -0.110332 6.00554 2650 
3440 1 -0.051437 -0.0513632 -0.0453319 0.000423 -6.30124 -0.255442 7.15237 2650 
4048 1 -0.0520016 -0.039615 -0.0452841 4.2e-05 -5.62341 -0.389172 6.44191 2650 
162 1 -0.0516744 -0.0202529 -0.0450858 0.000423 -5.35466 -0.0320655 6.13829 2650 
1208 1 -0.0522214 -0.000430209 -0.0450345 4.2e-05 -4.41004 0.0203434 5.10634 2650 
2966 1 -0.0522389 -0.0333768 -0.0440722 0.000656 -5.49747 -0.362622 6.51445 2650 
153 1 -0.0524096 -0.0153256 -0.0442287 0.000423 -4.4165 0.118327 5.27622 2650 
1290 1 -0.052519 -0.0144021 -0.0445727 0.000116 -4.47964 0.110875 5.28746 2650 
23 1 -0.053102 -0.019104 -0.0433952 0.000423 -5.18121 -0.000410208 6.34208 2650 
1408 1 -0.0532981 -0.0175724 -0.0436382 0.000116 -4.73085 -0.109803 5.77683 2650 
1957 1 -0.0532744 -0.0172898 -0.0436671 0.000116 -4.87825 0.0929561 5.94911 2650 
1132 1 -0.0537518 -0.0502885 -0.0425877 0.000423 -5.6665 -0.0614846 7.12949 2650 
4056 1 -0.053061 -0.0469059 -0.043079 0.000656 -6.17761 0.0193996 7.60739 2650 
3602 1 -0.0541683 -0.0349136 -0.0425536 0.000116 -5.43398 0.731432 6.92613 2650 
4342 1 -0.0540358 -0.0227995 -0.0427214 0.000116 -5.05443 0.0511395 6.4012 2650 
2674 1 -0.0538069 -0.0184916 -0.0425173 0.000423 -5.1042 0.00239489 6.47349 2650 
2515 1 -0.0542722 -0.0229657 -0.0424206 0.000116 -4.95672 0.359494 6.3442 2650 
3999 1 -0.0540104 -0.019273 -0.042259 0.000423 -5.08879 0.00173094 6.49255 2650 
3174 1 -0.0547959 -0.0186367 -0.0418637 4.2e-05 -4.96072 0.0577697 6.48728 2650 
4017 1 -0.0548612 -0.0262897 -0.0416564 0.000116 -5.31348 0.275357 7.00064 2650 
710 1 -0.054667 -0.0143588 -0.041406 0.000423 -4.94113 -0.0645103 6.57291 2650 
4288 1 -0.055584 -0.0448073 -0.0401663 0.000423 -5.60085 -0.0781024 7.76455 2650 
1849 1 -0.05579 -0.00835091 -0.0404038 0.000116 -3.9927 -0.221442 5.51641 2650 
3782 1 -0.0552106 -0.0073976 -0.0406796 0.000423 -4.33335 0.0709894 5.89805 2650 
3652 1 -0.0560911 -0.0397734 -0.0394552 0.000423 -5.54707 0.037517 7.85609 2650 
1598 1 -0.0570592 -0.0263423 -0.0385912 0.000116 -4.78798 -0.0618426 7.06902 2650 
3978 1 -0.0565087 -0.022414 -0.0388546 0.000423 -4.81579 -0.0670833 7.02566 2650 
2921 1 -0.0565962 -0.0192854 -0.0392661 0.000116 -4.69716 -0.000406528 6.76112 2650 
4235 1 -0.0575658 -0.0161544 -0.0378312 0.000116 -3.33491 -0.584175 5.05617 2650 
3024 1 -0.0575298 -0.00404141 -0.0378855 0.000116 -3.15856 -0.402647 4.78367 2650 
2883 1 -0.0576076 -0.0477186 -0.0372077 0.000423 -4.98464 -0.0503028 7.6995 2650 
2938 1 -0.057915 -0.0163509 -0.037294 0.000116 -4.34473 0.176068 6.75024 2650 
1462 1 -0.0580366 -0.0548582 -0.0365351 0.000423 -4.88201 -0.0303334 7.79514 2650 
3708 1 -0.0586104 -0.02043 -0.036191 0.000116 -3.85067 0.393324 6.23903 2650 
646 1 -0.0584574 -0.0156209 -0.0364378 0.000116 -4.38833 -0.220634 7.04576 2650 
440 1 -0.0584224 -4.20538e-05 -0.036633 4.2e-05 -3.92759 -0.000340417 6.26788 2650 
1051 1 -0.0590576 -0.0242852 -0.0354569 0.000116 -4.70764 0.0727764 7.84752 2650 
3808 1 -0.0588652 -0.0187329 -0.035775 0.000116 -3.9267 -0.297035 6.45601 2650 
2186 1 -0.0587661 -0.0018491 -0.035938 0.000116 -4.1592 0.249355 6.77866 2650 
245 1 -0.0588494 -0.0323603 -0.0352109 0.000423 -4.66021 0.0438839 7.79284 2650 
3206 1 -0.0591728 -0.0215149 -0.0346631 0.000423 -4.28104 -0.045636 7.31385 2650 
791 1 -0.0591983 -0.0193458 -0.0346194 0.000423 -4.26938 -0.0827875 7.30058 2650 
1478 1 -0.0590502 -0.0112203 -0.0348726 0.000423 -3.58906 -0.0287221 6.05189 2650 
1059 1 -0.059689 -0.00501892 -0.0343839 0.000116 -3.69787 -0.463241 6.39416 2650 
1829 1 -0.0602545 -0.00413726 -0.0333816 0.000116 -3.64348 -0.29145 6.55851 2650 
984 1 -0.0607999 -0.0280972 -0.0325335 4.2e-05 -3.32098 0.392269 6.25342 2650 
1066 1 -0.0608199 -0.0100883 -0.0323367 0.000116 -2.70691 -0.153688 5.14475 2650 
528 1 -0.0606829 -0.00231813 -0.032595 0.000116 -3.37213 0.157173 6.25657 2650 
4082 1 -0.060253 -0.000423079 -0.032748 0.000423 -3.6238 0.00258599 6.7042 2650 
4145 1 -0.0607569 -0.000686768 -0.0324584 0.000116 -3.57235 -0.141825 6.71242 2650 
106 1 -0.0612729 -0.00632693 -0.0316289 4.2e-05 -2.67567 -0.0639536 5.15254 2650 
2588 1 -0.0614911 -0.00998376 -0.03103 0.000116 -3.03447 -0.450443 6.01412 2650 
2705 1 -0.0620123 -0.0335422 -0.0299808 0.000116 -3.70462 -0.155067 7.58371 2650 
1407 1 -0.0621611 -0.0195747 -0.0296811 0.000116 -3.61052 -0.0598052 7.57155 2650 
428 1 -0.0625006 -0.0234975 -0.0289546 0.000116 -3.55884 -0.215054 7.67609 2650 
3530 1 -0.062165 -0.0191128 -0.028956 0.000423 -3.58333 -0.144786 7.73096 2650 
3412 1 -0.0627305 -0.0361862 -0.0271069 0.000656 -3.72311 -0.0507388 8.54419 2650 
1765 1 -0.0627227 -0.011738 -0.0271197 0.000656 -2.54262 -0.144375 5.62592 2650 
1074 1 -0.0634312 -0.00380679 -0.0268544 0.000116 -2.6193 0.082028 6.3379 2650 
2006 1 -0.0634938 -0.0214589 -0.0259119 0.000423 -3.19997 0.0931415 7.88651 2650 
3348 1 -0.0639457 -0.0249667 -0.0255799 0.000116 -3.16869 1.21338 7.90333 2650 
2626 1 -0.0647414 -0.0201759 -0.0235278 0.000116 -3.15541 -0.668867 8.67899 2650 
303 1 -0.0646467 -0.0188331 -0.0237871 0.000116 -2.91067 -0.0360851 7.89028 2650 
1537 1 -0.0646331 -0.0159738 -0.0240301 4.2e-05 -3.28086 0.415159 8.85988 2650 
736 1 -0.00545008 -0.00413209 -0.0244243 0.000116 -0.661277 -0.147908 -2.82705 2650 
2296 1 -0.0650453 -0.0248159 -0.0226733 0.000116 -2.83919 -0.106723 8.14431 2650 
1760 1 -0.0652046 -0.0232748 -0.0224394 4.2e-05 -2.6972 0.651618 7.83217 2650 
3607 1 -0.0651384 -0.0236276 -0.0224038 0.000116 -2.79674 0.00582199 8.14315 2650 
2891 1 -0.0649528 -0.0223985 -0.0220006 0.000423 -2.7796 0.00497983 8.20721 2650 
2074 1 -0.0651293 -0.0214303 -0.0224309 0.000116 -2.17403 -1.05612 6.30716 2650 
1012 1 -0.0648539 -0.0195248 -0.0222914 0.000423 -2.02697 -0.406348 5.92743 2650 
1178 1 -0.0650986 -0.00327459 -0.0225202 0.000116 -2.43376 -0.389403 7.01593 2650 
2192 1 -0.0655635 -0.0246615 -0.0213674 4.2e-05 -2.74902 1.51281 8.44082 2650 
711 1 -0.0649971 -0.00706432 -0.0218679 0.000423 -2.22291 0.236253 6.55638 2650 
1619 1 -0.0657975 -0.0259246 -0.0203885 0.000116 -2.50658 -0.216302 8.08456 2650 
797 1 -0.0657656 -0.0211361 -0.0194394 0.000423 -2.35397 0.208333 7.93988 2650 
198 1 -0.0663371 -0.0248402 -0.0185579 0.000116 -2.25368 0.279738 8.09399 2650 
1925 1 -0.0660559 -0.0143773 -0.0184275 0.000423 -1.76235 0.21499 6.26445 2650 
3128 1 -0.0295566 -0.00432736 -0.0188822 0.000423 -4.57685 -0.113109 -2.92774 2650 
2998 1 -0.0665906 -0.0311961 -0.0163914 0.000423 -2.18694 0.142282 8.89189 2650 
3891 1 -0.0665626 -0.0208395 -0.0165036 0.000423 -2.12811 -0.0194007 8.61682 2650 
3486 1 -0.0670078 -0.024555 -0.0159667 0.000116 -2.07708 -0.0297974 8.72877 2650 
3299 1 -0.00104671 -0.00247987 -0.0160966 0.000656 -0.0237196 -0.00603456 5.98032e-05 2650 
1114 1 -0.00289695 -0.00154007 -0.0162358 0.000423 -0.0211008 -0.0216569 0.00242196 2650 
3269 1 -0.000855174 -0.00115216 -0.0163373 0.000116 -0.0259799 0.00600481 0.0161977 2650 
2945 1 -0.00124245 -9.11511e-05 -0.0162426 0.000116 -0.00820899 -0.00286898 -0.00225341 2650 
3729 1 -0.0665724 -0.0334363 -0.015475 0.000656 -2.13053 -0.0886688 9.16612 2650 
4203 1 -0.00491352 -0.0025119 -0.0146061 0.000423 0.0155247 -0.00575566 5.37869e-05 2650 
4217 1 -0.00619504 -0.00196287 -0.0148126 0.000423 -0.0160108 -0.016196 0.00969995 2650 
3261 1 -0.0675455 -0.008823 -0.0135173 0.000116 -1.4443 0.675133 7.22101 2650 
1684 1 -0.00387835 -0.00101213 -0.013684 0.000423 -0.0230827 -0.0176723 -0.00108576 2650 
2123 1 -0.0673585 -0.0323571 -0.0128825 0.000423 -1.69273 -0.00879765 8.81379 2650 
3349 1 -0.0677252 -0.0225886 -0.012582 0.000116 -1.54881 0.0216129 8.30503 2650 
858 1 -0.00600484 -0.00248471 -0.0131669 0.000116 -0.0132105 -0.0128364 0.0116617 2650 
2525 1 -0.004063 -0.00314516 -0.013231 4.2e-05 0 -0.011753 0 2650 
2512 1 -0.00239129 -0.00296626 -0.0127956 0.000116 0.018779 -0.0192413 0.00230208 2650 
2609 1 -0.00886 -0.00160516 -0.013248 0.000116 0 -0.011753 0 2650 
2619 1 -0.005851 -0.00232916 -0.012854 0.000116 0 -0.011753 0 2650 
3917 1 -0.003984 -0.000844164 -0.012703 0.000116 0 -0.011753 0 2650 
2918 1 -0.00757 -0.000254164 -0.012948 0.000116 0 -0.011753 0 2650 
187 1 -0.00246086 -0.00055026 -0.0127678 0.000116 -0.0216537 -0.0126996 -0.00655513 2650 
4001 1 -0.0674553 -0.0209034 -0.0123587 0.000423 -1.6121 0.0240758 8.82378 2650 
454 1 -0.0110323 -0.00254181 -0.011971 0.000423 0.00190144 -0.0150065 0.000671232 2650 
3894 1 -0.00631446 -0.00239092 -0.0123989 0.000116 -0.00208335 -0.0100804 -0.00370532 2650 
3578 1 -0.00273173 -0.00293775 -0.0122156 0.000116 0.0166174 -0.0080284 -0.0212687 2650 
1388 1 -0.010107 -0.00235585 -0.0122299 0.000116 -0.0252089 -0.0182247 0.0103112 2650 
4300 1 -0.011 -0.000580053 -0.0121384 0.000423 0.00380944 0.00169419 0.00224967 2650 
1734 1 -0.0679356 -0.0190464 -0.0113904 0.000116 -1.42771 -0.118424 8.51587 2650 
3563 1 -0.00498995 -0.000311191 -0.0112881 0.000423 -0.0286892 -0.00630582 0.00233392 2650 
95 1 -0.0680336 -0.0249597 -0.0107903 0.000116 -1.30647 0.455989 8.26436 2650 
4011 1 -0.0680383 -0.0182314 -0.0107591 0.000116 -1.35406 -0.0821359 8.54436 2650 
2632 1 -0.0681559 -0.0154779 -0.0104868 4.2e-05 -1.01207 -0.583519 6.56738 2650 
124 1 -0.00676103 -0.00166456 -0.0110255 0.000423 -0.00397396 -0.0075032 -0.00110335 2650 
410 1 -0.0681031 -0.000309977 -0.0103418 0.000116 -0.997922 0.265144 6.53888 2650 
3621 1 -0.000515358 -0.000190709 -0.0107809 0.000656 -0.0159954 -0.0056662 0.0031394 2650 
4177 1 -0.0678945 -0.0207515 -0.00966195 0.000423 -1.03123 -0.289983 7.38855 2650 
1977 1 -0.006037 -0.00273716 -0.009842 4.2e-05 0 -0.011753 0 2650 
497 1 -0.00735787 -0.00228675 -0.00974554 0.000116 -0.00435767 -0.00969139 0.00175739 2650 
3912 1 -0.00644572 -0.000914725 -0.00996699 0.000116 0.0252579 -0.0175165 -0.00302197 2650 
3093 1 -0.00138709 -0.000445582 -0.00973031 0.000423 0.0119053 -0.0108237 0.00318103 2650 
1164 1 -0.0683215 -0.0210546 -0.00878568 0.000116 -1.14462 0.0214894 8.88251 2650 
934 1 -0.0680208 -0.00659826 -0.00873006 0.000423 -0.500263 -0.130964 3.52889 2650 
309 1 -0.00631462 -0.00341614 -0.00906483 0.000116 -0.620692 -0.0399497 -0.869027 2650 
382 1 -0.000313144 -0.00221922 -0.00921519 0.000423 -0.0182164 -0.00640409 0.0035457 2650 
2022 1 -0.00223552 -0.00127608 -0.00893262 0.000423 0.00727907 -0.00436409 0.0042744 2650 
676 1 -0.00707129 -0.000427337 -0.0088379 0.000423 -0.0120097 -0.00576812 0.0180553 2650 
1780 1 -0.0161616 -0.00407348 -0.00805412 0.000423 -0.942474 -0.231877 -0.575426 2650 
687 1 -0.0116449 -0.00241063 -0.00822873 0.000423 -0.0131623 -0.0218751 -0.00125555 2650 
3826 1 -0.0105683 -0.000901887 -0.0086465 0.000116 0.0157651 -0.0166807 -0.00070511 2650 
2385 1 -0.007736 -0.00134216 -0.008312 0.000116 0 -0.011753 0 2650 
4069 1 -0.0681804 -0.0228048 -0.00737162 0.000423 -0.901941 0.0537548 8.32058 2650 
1203 1 -0.0685891 -0.00936965 -0.00707522 4.2e-05 -1.06367 -0.918447 10.245 2650 
2159 1 -0.0021803 -0.00340281 -0.00715039 0.000116 -0.17614 -0.0390548 -0.589249 2650 
2622 1 -0.00715073 -0.00297426 -0.00747865 0.000116 0.0018379 -0.0356874 -0.018679 2650 
4158 1 -0.0121886 -0.00207624 -0.00712185 4.2e-05 0.0078446 -0.0183484 0.0170625 2650 
1639 1 -0.0150969 -0.000810329 -0.00760998 4.2e-05 -0.00613661 -0.0126697 0.0131371 2650 
2666 1 -0.0145763 -0.00137756 -0.00750355 0.000423 -0.00641049 -0.00550429 0.0119223 2650 
4047 1 -0.011744 -0.000992164 -0.007801 4.2e-05 0 -0.011753 0 2650 
3200 1 -0.0146502 -0.000469101 -0.0075646 0.000423 -0.0112389 -0.00393408 0.0107003 2650 
3885 1 -0.0129405 -7.72559e-05 -0.00744115 0.000423 -0.00629426 -0.0060531 0.00807268 2650 
1003 1 -0.0262239 -0.00558713 -0.00677714 0.000423 -3.27553 -0.296278 -0.930107 2650 
1397 1 -0.0153597 -0.00271253 -0.00666285 0.000116 0.0241385 -0.0171332 -0.0588571 2650 
3545 1 -0.0126861 -0.00253069 -0.00695432 0.000423 -0.00415219 -0.0260812 -0.00648296 2650 
3699 1 -0.00534 -0.00299916 -0.006997 0.000116 0 -0.011753 0 2650 
3383 1 -0.0149108 -0.00178318 -0.00634713 0.000116 -0.00572193 -0.00734955 0.0176853 2650 
1840 1 -0.0119309 -0.00216555 -0.00634332 0.000116 -0.00305859 -0.0233008 0.00249486 2650 
3463 1 -0.014852 -0.00154287 -0.00695712 0.000116 -0.000144442 -0.0144133 0.00146301 2650 
4306 1 -0.0136713 -0.00126311 -0.00703131 0.000423 -0.014131 -0.0111999 -0.010284 2650 
3186 1 -0.0123807 -0.00105008 -0.00693395 0.000656 -0.00654653 -0.0146151 -0.00210359 2650 
3643 1 -0.0150502 -0.000777517 -0.00661401 0.000423 -0.00319663 -0.00764527 0.0156239 2650 
3347 1 -0.0142255 -0.000227733 -0.00662453 0.000423 -0.00634608 0.00111433 0.0128237 2650 
628 1 -0.0136343 -0.000597014 -0.00695523 0.000116 -0.0178789 -0.00374897 0.000741801 2650 
725 1 -0.00172095 -0.000584969 -0.00654323 0.000116 -0.0285734 -0.0221751 0.0212984 2650 
2272 1 -0.002177 -2.01639e-05 -0.006703 0.000116 0 -0.011753 0 2650 
1197 1 -0.0686273 -0.010744 -0.00577714 0.000116 -0.539306 -0.0880012 6.44294 2650 
2381 1 -0.0137597 -0.00321636 -0.00628996 0.000116 -0.0467566 -0.0340048 0.00827691 2650 
3956 1 -0.0143154 -0.002656 -0.00617126 0.000656 -0.0141439 -0.0138285 0.0163342 2650 
2174 1 -0.00101452 -0.00291919 -0.00621186 0.000116 -0.0249118 -0.0164757 0.0089871 2650 
1908 1 -0.0118744 -0.00161621 -0.00577091 0.000423 -0.00424857 -0.0159924 0.00168299 2650 
1217 1 -0.000131766 -0.0020182 -0.00611619 0.000656 -0.0215617 -0.00376242 0.0157431 2650 
1824 1 -0.0102712 -0.0010845 -0.00596654 0.000116 -0.0183534 -0.00720707 -0.0310575 2650 
4115 1 -0.008822 -0.00141116 -0.005657 0.000116 0 -0.011753 0 2650 
3611 1 -0.005874 -0.00120416 -0.006192 4.2e-05 0 -0.011753 0 2650 
2555 1 -0.0146047 -0.000419134 -0.00568533 0.000423 -0.0059455 -0.00591384 0.00254365 2650 
4337 1 -0.0127886 -0.000304213 -0.00590135 0.000116 0.0122518 -0.0139505 0.016412 2650 
1621 1 -0.0687046 -0.00899735 -0.00471051 0.000116 -0.39669 -0.250629 3.16257 2650 
502 1 -0.0687018 -0.00455057 -0.00494535 0.000116 -0.485858 -0.109137 7.2592 2650 
2542 1 -0.00685483 -0.00278918 -0.00536222 0.000423 -0.000835976 -0.0103491 0.00776888 2650 
1246 1 -0.00546645 -0.00209599 -0.00516422 0.000423 0.014098 -0.030687 -0.00858771 2650 
4351 1 -0.000799 -0.00206916 -0.005176 0.000116 0 -0.011753 0 2650 
2753 1 -0.0153609 -0.00130795 -0.00479433 0.000656 0.00139314 -0.00418699 -0.0100293 2650 
645 1 -0.002205 -0.000282164 -0.005013 0.000116 0 -0.011753 0 2650 
1650 1 -0.001686 -5.61639e-05 -0.00538 4.2e-05 0 -0.011753 0 2650 
3448 1 -0.0684566 -0.0208395 -0.00408473 0.000423 -0.539237 -0.0285619 9.01382 2650 
3367 1 -0.0687654 -0.0166515 -0.00393156 0.000116 -0.514034 -0.291594 8.88906 2650 
2845 1 -0.00933805 -0.00312208 -0.00415697 0.000116 0.00278668 -0.0106331 -0.0157805 2650 
1047 1 -0.0046215 -0.003004 -0.00464889 0.000116 0.013748 -0.000468203 -0.0309451 2650 
1834 1 -0.00644224 -0.00176283 -0.0041953 0.000116 0.00660681 -0.0222957 -0.0200487 2650 
2871 1 -0.0136301 -0.000342243 -0.00416579 0.000423 0.00676151 -0.00453377 0.00717719 2650 
3207 1 -0.00858313 -0.000696294 -0.00425128 0.000423 0.00054577 -0.0139842 0.00362989 2650 
3938 1 -0.008305 -3.81639e-05 -0.004532 4.2e-05 0 -0.011753 0 2650 
1353 1 -0.0684761 -0.0216115 -0.00373458 0.000423 -0.466107 -0.107078 8.87211 2650 
3074 1 -0.01395 -0.00203216 -0.003467 4.2e-05 0 -0.011753 0 2650 
2884 1 -0.0158141 -0.000868144 -0.00350803 0.000423 0.00171805 -0.00691615 -0.00588836 2650 
278 1 -0.007107 -0.00151416 -0.003807 0.000116 0 -0.011753 0 2650 
2901 1 -0.00633752 -0.00147925 -0.00370676 0.000423 0.023002 -0.0117283 -0.0208798 2650 
251 1 -0.0160213 -4.03996e-05 -0.00358156 0.000423 0.0041046 -0.00634743 -0.017612 2650 
234 1 -0.0032707 -0.00197722 -0.00300707 0.000423 -0.00822625 -0.0133379 0.0216942 2650 
1069 1 -0.0099598 -0.00119495 -0.00256201 0.000116 -0.00601503 -0.0189795 0.00468219 2650 
865 1 -0.00931407 -0.00105401 -0.00255422 0.000116 -0.000892348 -0.0190811 0.00576265 2650 
2627 1 -0.006963 -2.71639e-05 -0.002906 0.000116 0 -0.011753 0 2650 
3280 1 -0.0101591 -0.00256556 -0.00225769 0.000116 -0.0186926 -0.00783423 -0.0348899 2650 
1515 1 -0.0145907 -0.00227212 -0.00226624 0.000116 0.00283549 -0.00357976 0.00440292 2650 
860 1 -0.008113 -0.00216316 -0.002155 0.000116 0 -0.011753 0 2650 
1121 1 -0.00272699 -0.000942321 -0.00232842 0.000423 -0.000885952 -0.00848046 0.0134358 2650 
3212 1 -0.0140387 -0.000365246 -0.00196004 0.000423 0.0117922 0.00985266 0.000195758 2650 
7 1 -0.00418894 -0.000226374 -0.00202697 0.000656 0.0208599 -0.000661128 -0.0110151 2650 
1463 1 -0.0685669 -0.0465703 -0.00121771 0.000423 -0.164681 -0.0666447 9.10739 2650 
2800 1 -0.06855 -0.0313533 -0.00112559 0.000423 -0.12073 0.0114017 9.00858 2650 
2877 1 -0.0685604 -0.0249778 -0.00111443 0.000423 -0.136441 -0.0404711 8.86625 2650 
1743 1 -0.0119095 -0.00321714 -0.00102251 0.000116 0.00815436 -0.0208615 -0.0106459 2650 
1867 1 -0.009592 -0.00313416 -0.001096 4.2e-05 0 -0.011753 0 2650 
3617 1 -0.0140727 -0.00108723 -0.00138656 4.2e-05 0.00734614 -0.0104164 0.0037858 2650 
1558 1 -0.00287717 -0.00271256 -2.06844e-05 0.000423 0.00975927 -0.00189192 0.000904834 2650 
3709 1 -0.00467 -0.00138216 -0.000346 0.000116 0 -0.011753 0 2650 
2810 1 -0.004695 -0.00124716 -0.00071 0.000116 0 -0.011753 0 2650 
2427 1 -0.01618 -0.000229741 -0.000148377 0.000656 -0.0167459 0.0122225 -0.050902 2650 
3819 1 -0.007582 -5.21639e-05 -0.000425 0.000116 0 -0.011753 0 2650 
3386 1 -0.068883 -0.0413133 0.000335848 0.000116 0.038436 0.0482286 8.46033 2650 
3130 1 -0.00394032 -0.0032205 0.000657651 0.000116 -0.0277813 -0.0253399 0.00438065 2650 
1732 1 -0.00345348 -0.0018399 0.000368296 0.000116 -0.0150396 -0.00177842 -0.000907604 2650 
3692 1 -0.0688717 -0.0277113 0.00129338 0.000116 0.14406 -0.433729 7.91013 2650 
609 1 -0.016624 -0.00309116 0.001568 0.000116 0 -0.011753 0 2650 
4251 1 -0.0154972 -0.00174736 0.00148447 0.000116 -0.00302116 -0.000652879 -0.00784754 2650 
3921 1 -0.014219 -0.000932548 0.00108115 0.000116 0.00529858 -0.0163904 -0.0101792 2650 
2004 1 -0.0106625 -0.000506891 0.00154136 0.000423 -0.0474355 -0.0134851 -0.0107773 2650 
3356 1 -0.0688502 -0.0297704 0.00214599 0.000116 0.287666 -0.11893 9.225 2650 
2298 1 -0.0688588 -0.0153695 0.00186232 0.000116 0.196592 -0.201231 6.743 2650 
2037 1 -0.0688494 -0.00458131 0.00217027 0.000116 0.20608 -0.237309 6.55203 2650 
1332 1 -0.00612821 -0.00305953 0.00208698 0.000656 -0.0140905 -0.0169415 0.00409457 2650 
4259 1 -0.002248 -0.00222716 0.002086 0.000116 0 -0.011753 0 2650 
3292 1 -0.00649122 -0.000958491 0.00222919 4.2e-05 0.0078395 -0.00588379 0.00730209 2650 
712 1 -0.00131004 -0.000445816 0.00226446 0.000423 -0.0218768 -0.00992737 0.00128664 2650 