ITEM: TIMESTEP
31178448
ITEM: NUMBER OF ATOMS
4062
ITEM: BOX BOUNDS ff ff ff
-0.15 0.15
-0.15 0.15
-0.15 0.15
ITEM: ATOMS id type x y z radius vx vy vz density 
1638 1 -0.00111411 -0.0270739 -0.0688753 0.000116 -9.81105 0.0784217 0.160635 2650 
1718 1 -0.00146276 -0.0224286 -0.0688684 0.000116 -9.58669 -0.430706 0.200063 2650 
3577 1 -0.0010994 -0.0201367 -0.0688752 0.000116 -9.9223 -0.201196 0.160552 2650 
3707 1 -0.000730642 -0.00897161 -0.0688811 0.000116 -8.97371 -0.391008 0.0923254 2650 
3251 1 -0.00452292 -0.0050189 -0.0687353 0.000116 -3.09404 -0.153463 0.199807 2650 
3181 1 -0.00470092 -0.00029488 -0.0687973 4.2e-05 -10.0133 -0.0495038 0.68514 2650 
3986 1 -0.00318225 -0.0467659 -0.0685043 0.000423 -10.5104 -0.0725492 0.488045 2650 
2413 1 -0.0119537 -0.0330644 -0.0679137 4.2e-05 -9.9034 0.422945 1.74357 2650 
3210 1 -0.00352021 -0.030162 -0.0684887 0.000423 -9.98464 -0.0310615 0.519147 2650 
3946 1 -0.00880394 -0.0295248 -0.0683935 4.2e-05 -9.78139 0.061678 1.25703 2650 
1343 1 -0.00809126 -0.0285962 -0.0680991 0.000423 -9.95117 -0.0134849 1.21075 2650 
175 1 -0.00894487 -0.0277924 -0.0683006 0.000116 -9.94825 0.0503114 1.30269 2650 
1365 1 -0.00930234 -0.0275033 -0.0679434 0.000423 -9.93479 -0.00838097 1.36205 2650 
294 1 -0.00865738 -0.0260163 -0.0683378 0.000116 -10.0719 -0.239845 1.27544 2650 
1168 1 -0.00980834 -0.0247068 -0.0681817 0.000116 -9.51498 0.209162 1.37009 2650 
2344 1 -0.0093782 -0.0241475 -0.0679333 0.000423 -9.92582 0.111016 1.37157 2650 
1503 1 -0.00948546 -0.0228995 -0.0682277 0.000116 -8.91553 -0.00459803 1.24419 2650 
1197 1 -0.0116664 -0.016388 -0.067889 0.000116 -8.28515 -0.0339775 1.42528 2650 
613 1 -0.0115098 -0.0104406 -0.067915 0.000116 -8.48558 -0.246385 1.44354 2650 
4301 1 -0.0077281 -0.00749384 -0.0681412 0.000423 -5.94844 -0.256167 0.677883 2650 
3506 1 -0.00638791 -0.00745956 -0.0686618 4.2e-05 -8.40603 0.114634 0.781067 2650 
2031 1 -0.00779342 -0.00661455 -0.0681338 0.000423 -7.02814 -0.0232455 0.791321 2650 
3175 1 -0.00764229 -0.00364827 -0.0685329 4.2e-05 -9.05912 0.0632752 1.00916 2650 
1829 1 -0.00860959 -0.00261729 -0.0683435 0.000116 -7.75148 0.1141 0.976474 2650 
3356 1 -0.0153919 -0.0360015 -0.0671222 0.000116 -9.77019 -0.0355084 2.25073 2650 
4148 1 -0.0128954 -0.0241796 -0.0676612 0.000116 -9.90043 0.183026 1.88651 2650 
1621 1 -0.0141636 -0.0218022 -0.0674107 0.000116 -9.30537 -0.191856 1.95245 2650 
2822 1 -0.0151535 -0.016856 -0.0671959 0.000116 -9.20553 -0.296204 2.0595 2650 
1311 1 -0.014283 -0.0109548 -0.0674339 4.2e-05 -8.03358 -0.691136 1.71035 2650 
3612 1 -0.00100863 -0.00502504 -0.0675434 4.2e-05 -2.8915 -0.116058 2.61899 2650 
1424 1 -0.0135529 -0.00451157 -0.0675999 4.2e-05 -10.4852 0.123936 2.10059 2650 
3245 1 -0.015655 -0.000321437 -0.0670815 0.000116 -7.95258 -0.641221 1.84995 2650 
2626 1 -0.0163481 -0.0363546 -0.0669159 0.000116 -10.575 0.13789 2.58278 2650 
649 1 -0.0187292 -0.033635 -0.0662855 0.000116 -9.66347 0.15554 2.743 2650 
3484 1 -0.0170065 -0.0208429 -0.0667518 0.000116 -9.29629 -0.212992 2.36132 2650 
3763 1 -0.016607 -0.0184246 -0.0665369 0.000423 -3.53688 -0.898077 0.852462 2650 
1568 1 -0.0182478 -0.0603934 -0.0661058 0.000423 -9.92406 0.0282019 2.73933 2650 
3656 1 -0.0184137 -0.0472601 -0.0660597 0.000423 -10.1567 0.123082 2.83179 2650 
2254 1 -0.018725 -0.0448633 -0.0659723 0.000423 -10.1805 0.0504335 2.88974 2650 
2247 1 -0.0192954 -0.0358898 -0.0658059 0.000423 -9.82004 -0.0181725 2.87553 2650 
3912 1 -0.0189299 -0.0258624 -0.0662263 0.000116 -9.11434 -0.448823 2.62339 2650 
3050 1 -0.0190816 -0.0133256 -0.0661856 0.000116 -6.37179 -0.365786 1.88467 2650 
3273 1 -0.0208526 -0.0110043 -0.0656517 0.000116 -6.92937 0.108827 2.20159 2650 
4019 1 -0.0188066 -0.00328299 -0.066264 0.000116 -8.36269 -0.0780591 2.36786 2650 
1716 1 -0.0223383 -0.0231452 -0.0651611 0.000116 -9.12106 -0.196802 3.13083 2650 
1512 1 -0.0230186 -0.0143172 -0.0649241 0.000116 -9.35439 0.878991 3.32096 2650 
2049 1 -0.0235062 -0.0104252 -0.0647502 0.000116 -8.20636 0.216284 2.97129 2650 
3463 1 -0.0225651 -0.00918747 -0.065082 0.000116 -8.17019 0.311396 2.83784 2650 
2063 1 -0.0251959 -0.0240099 -0.0641105 0.000116 -8.82749 -0.467206 3.47097 2650 
1751 1 -0.0250736 -0.0196742 -0.0642377 4.2e-05 -7.96798 0.882483 3.10823 2650 
3554 1 -0.0265792 -0.0448797 -0.0632173 0.000423 -9.82445 0.0278058 4.13055 2650 
306 1 -0.0271093 -0.0306224 -0.063326 0.000116 -8.93482 0.114572 3.82803 2650 
2948 1 -0.018196 -0.00432151 -0.0635862 0.000116 -3.33833 -0.0590462 -0.474945 2650 
1522 1 -0.0274227 -0.0027135 -0.0631899 0.000116 -5.77965 -0.282438 2.52229 2650 
984 1 -0.0270157 -0.000877983 -0.0634454 4.2e-05 -6.71232 -0.130269 2.85774 2650 
2301 1 -0.0288206 -0.000870388 -0.0626462 4.2e-05 -8.1421 -0.0424038 3.7469 2650 
4073 1 -0.0299944 -0.0405771 -0.0616713 0.000423 -9.61557 0.0172437 4.67651 2650 
1217 1 -0.0297702 -0.0370321 -0.061523 0.000656 -9.56596 0.221243 4.62937 2650 
1925 1 -0.0289173 -0.019878 -0.0621832 0.000423 -7.9643 -0.133643 3.70719 2650 
186 1 -0.030504 -0.00426333 -0.0617618 0.000116 -7.0142 0.0626921 3.45134 2650 
1402 1 -0.0297993 -0.000116005 -0.0621049 0.000116 -8.15221 -0.00329195 3.91906 2650 
2803 1 -0.0321679 -0.0368861 -0.0609117 0.000116 -9.07527 -0.154654 4.79299 2650 
212 1 -0.0313982 -0.0300687 -0.0613949 4.2e-05 -8.48032 0.464171 4.33436 2650 
4112 1 -0.0321232 -0.0235123 -0.0609351 0.000116 -9.17999 0.126953 4.84018 2650 
2159 1 -0.0312267 -0.0198028 -0.0613995 0.000116 -8.13583 0.122044 4.13604 2650 
8 1 -0.0320606 -0.0452311 -0.0603576 0.000656 -9.54955 0.0437174 5.0727 2650 
21 1 -0.032214 -0.0441788 -0.0605403 0.000423 -9.50688 0.0475217 5.05869 2650 
3648 1 -0.0325087 -0.0255635 -0.0603833 0.000423 -8.77348 0.0780492 4.74376 2650 
109 1 -0.0339963 -0.00315044 -0.0599951 4.2e-05 -7.07538 -0.214151 4.00657 2650 
527 1 -0.0347888 -0.023266 -0.0594534 0.000116 -7.87666 -0.34916 4.6092 2650 
1478 1 -0.0336169 -0.0221519 -0.0597731 0.000423 -8.7065 -0.00758059 4.89451 2650 
3383 1 -0.034448 -0.0202242 -0.0596517 0.000116 -8.05004 -0.181166 4.65052 2650 
2485 1 -0.0339998 -0.0170766 -0.0599082 0.000116 -8.29076 -0.194575 4.70497 2650 
2958 1 -0.0346165 -0.00570162 -0.0596397 4.2e-05 -7.74596 0.172935 4.46023 2650 
169 1 -0.0344708 -0.000498411 -0.0596386 0.000116 -7.36426 -0.0597942 4.25998 2650 
1104 1 -0.0343942 -0.0459108 -0.0590613 0.000656 -9.2821 0.0285911 5.40507 2650 
1515 1 -0.0358939 -0.0238427 -0.0587929 0.000116 -8.51485 0.224276 5.19794 2650 
1587 1 -0.0350344 -0.0224434 -0.058954 0.000423 -8.59207 0.0703866 5.10487 2650 
2381 1 -0.0365002 -0.021571 -0.0584188 0.000116 -8.59447 -0.0126923 5.3719 2650 
2987 1 -0.0358275 -0.0218745 -0.0584755 0.000423 -8.61085 0.00654557 5.25857 2650 
1138 1 -0.0358752 -0.019381 -0.0584457 0.000423 -7.96617 -0.129427 4.88649 2650 
3617 1 -0.0364937 -0.00808895 -0.0584739 4.2e-05 -7.52901 0.0133508 4.70413 2650 
398 1 -0.0365402 -0.00178756 -0.0583899 0.000116 -7.49958 0.318435 4.68633 2650 
4228 1 -0.0365378 -0.000115995 -0.058395 0.000116 -7.72006 0.000240066 4.83166 2650 
4246 1 -0.0365049 -0.00051508 -0.0584152 0.000116 -7.6793 -0.0311222 4.79985 2650 
1321 1 -0.0364049 -0.0422492 -0.057843 0.000656 -9.07201 -0.0433383 5.73525 2650 
3502 1 -0.0375591 -0.038056 -0.0578313 4.2e-05 -8.34485 0.0607349 5.41816 2650 
3694 1 -0.0369261 -0.0214731 -0.0581503 0.000116 -8.13266 0.0304566 5.16848 2650 
2932 1 -0.0376152 -0.018665 -0.0577052 0.000116 -7.77388 0.0877353 5.0576 2650 
437 1 -0.0376524 -0.00821619 -0.0577549 4.2e-05 -7.28884 -0.111812 4.82313 2650 
3749 1 -0.0376337 -0.0481406 -0.0573299 0.000423 -9.06777 -0.0510723 5.95234 2650 
2130 1 -0.037381 -0.0431026 -0.0574944 0.000423 -8.93133 -0.0680076 5.80716 2650 
1616 1 -0.0383237 -0.0253394 -0.0572389 0.000116 -8.50055 -0.205129 5.69102 2650 
3257 1 -0.0389599 -0.0221751 -0.0568075 0.000116 -7.61552 0.239971 5.22036 2650 
3261 1 -0.0384855 -0.0177686 -0.0571274 0.000116 -7.76074 0.446052 5.22089 2650 
2325 1 -0.0385037 -0.04856 -0.0567496 0.000423 -8.99588 0.0198092 6.10452 2650 
2767 1 -0.0385462 -0.0463998 -0.0567203 0.000423 -8.97093 -0.0134099 6.09645 2650 
1964 1 -0.0392181 -0.0380034 -0.05663 0.000116 -8.46421 0.127477 5.85983 2650 
4244 1 -0.0399054 -0.0242048 -0.0561476 0.000116 -7.21773 -0.716932 5.13624 2650 
2061 1 -0.0394353 -0.00953205 -0.0564684 0.000116 -5.60694 0.0526446 3.90348 2650 
338 1 -0.0394011 -0.02974 -0.0558476 0.000656 -8.42159 -0.030552 5.94091 2650 
3957 1 -0.041237 -0.0543293 -0.0545049 0.000656 -8.62544 -0.0323634 6.52567 2650 
3796 1 -0.0414224 -0.0511447 -0.0550389 0.000116 -8.7872 -0.0057269 6.61371 2650 
588 1 -0.0408407 -0.050897 -0.0550919 0.000423 -8.78736 0.0144395 6.51455 2650 
2996 1 -0.0408172 -0.049757 -0.0551094 0.000423 -8.76305 -0.00458507 6.49053 2650 
3198 1 -0.0414489 -0.0485949 -0.0546358 0.000423 -8.63614 0.0339987 6.55178 2650 
2685 1 -0.041531 -0.0455466 -0.0545727 0.000423 -8.48955 0.0052036 6.46082 2650 
4143 1 -0.041366 -0.025262 -0.0550806 0.000116 -7.89249 0.132831 5.9293 2650 
1625 1 -0.041668 -0.0216761 -0.0548522 0.000116 -7.68058 -0.311161 5.8372 2650 
2399 1 -0.0419653 -0.000426553 -0.0546251 0.000116 -7.21022 -0.0104003 5.53537 2650 
1952 1 -0.0412608 -0.000115993 -0.0551593 0.000116 -7.29388 -0.000714881 5.45473 2650 
2169 1 -0.0415723 -0.000116018 -0.0549248 0.000116 -7.26164 0.000952887 5.49787 2650 
2843 1 -0.0418404 -0.000115995 -0.0547208 0.000116 -7.23701 4.66593e-06 5.53204 2650 
3845 1 -0.0417119 -0.0509511 -0.0541431 0.000656 -8.51311 0.0157795 6.55882 2650 
2573 1 -0.0427325 -0.037452 -0.0536371 0.000423 -7.95262 -0.00515525 6.33669 2650 
3020 1 -0.0431756 -0.0435192 -0.0532808 0.000423 -8.19679 0.0330366 6.6416 2650 
245 1 -0.0436279 -0.0382939 -0.0529109 0.000423 -7.98801 0.00724782 6.58651 2650 
4161 1 -0.0440665 -0.0139602 -0.0530416 4.2e-05 -5.24068 -1.19629 4.37187 2650 
3253 1 -0.0433223 -0.0125188 -0.0535554 0.000116 -6.87769 -0.192331 5.55618 2650 
543 1 -0.0434424 -0.00122391 -0.0535529 4.2e-05 -6.76979 0.205745 5.48516 2650 
4316 1 -0.0446278 -0.0496573 -0.0520708 0.000423 -8.24819 0.0292487 7.06944 2650 
3839 1 -0.0435139 -0.0482036 -0.0527054 0.000656 -8.37557 -0.0435272 6.87861 2650 
3386 1 -0.0448272 -0.0423246 -0.0523022 0.000116 -7.71027 0.195028 6.61019 2650 
3730 1 -0.0442757 -0.0246799 -0.0520656 0.000656 -7.65523 0.0339151 6.52085 2650 
4343 1 -0.0450899 -0.000133834 -0.0520757 0.000116 -6.78972 0.0234439 5.88419 2650 
4072 1 -0.0448952 -0.0104139 -0.0518411 0.000423 -6.86709 -0.0352178 5.92194 2650 
1487 1 -0.045997 -0.00331722 -0.0512761 0.000116 -6.18501 -0.100436 5.54469 2650 
293 1 -0.045961 -0.000116 -0.0513088 0.000116 -6.72549 0.00128768 6.02216 2650 
3703 1 -0.0456745 -0.0004475 -0.0515637 0.000116 -6.69765 0.0747292 5.93576 2650 
1927 1 -0.0457878 -0.000115998 -0.0514631 0.000116 -6.74379 -0.000301724 6.00136 2650 
1805 1 -0.0457856 -0.048771 -0.0510553 0.000423 -8.09499 0.0591371 7.2599 2650 
2563 1 -0.0460842 -0.0365492 -0.0507857 0.000423 -7.76591 0.131057 7.04651 2650 
2503 1 -0.0464417 -0.013303 -0.0508745 0.000116 -5.573 -1.04191 5.08807 2650 
3750 1 -0.0457717 -0.00756736 -0.0510683 0.000423 -5.40196 0.0706776 4.85556 2650 
2706 1 -0.0464074 -0.00159851 -0.0509051 0.000116 -6.34312 -0.206784 5.77863 2650 
1647 1 -0.0469554 -4.19858e-05 -0.050501 4.2e-05 -6.61473 -0.000789534 6.15496 2650 
1753 1 -0.0470169 -4.19827e-05 -0.0504439 4.2e-05 -6.6067 -0.000875529 6.16619 2650 
2842 1 -0.0468186 -0.000116542 -0.0505273 0.000116 -6.62392 -0.0141067 6.13424 2650 
2741 1 -0.0462708 -4.19925e-05 -0.0511291 4.2e-05 -6.69498 0.000578247 6.06174 2650 
311 1 -0.0461335 -0.000116223 -0.0511536 0.000116 -6.703 -0.00199543 6.04595 2650 
871 1 -0.0464401 -4.19899e-05 -0.0509754 4.2e-05 -6.67659 -0.00145597 6.08218 2650 
3390 1 -0.0463059 -0.000122388 -0.0509977 0.000116 -6.67732 -0.000633758 6.06577 2650 
1833 1 -0.0466483 -0.000115999 -0.0506848 0.000116 -6.64294 -0.000240592 6.11187 2650 
2589 1 -0.0464772 -0.000116917 -0.0508414 0.000116 -6.66151 -0.00337937 6.08754 2650 
538 1 -0.0470227 -0.0347162 -0.0503373 0.000116 -7.41216 -0.0802101 6.92784 2650 
312 1 -0.047461 -0.0275222 -0.049922 0.000116 -7.29803 -0.00372082 6.94802 2650 
3720 1 -0.047714 -4.20015e-05 -0.0497849 4.2e-05 -6.49331 -0.00076339 6.22616 2650 
433 1 -0.0475334 -4.1999e-05 -0.0499576 4.2e-05 -6.515 -9.04484e-09 6.19277 2650 
3153 1 -0.0475749 -0.000115997 -0.0498159 0.000116 -6.49887 0.000294747 6.20537 2650 
4115 1 -0.0470526 -0.000117178 -0.0503096 0.000116 -6.58323 -0.0326683 6.15693 2650 
3603 1 -0.0469355 -0.000285055 -0.0504188 0.000116 -6.59772 -0.0311772 6.13711 2650 
2841 1 -0.0470019 -0.000527864 -0.0503565 0.000116 -6.54772 -0.0611343 6.10973 2650 
3507 1 -0.0473583 -4.19626e-05 -0.0501235 4.2e-05 -6.55584 -0.00170942 6.20547 2650 
1289 1 -0.0472216 -0.000116234 -0.0501507 0.000116 -6.56503 -0.0135099 6.17862 2650 
3930 1 -0.0473934 -0.000116278 -0.0499886 0.000116 -6.54543 -0.0176871 6.20276 2650 
375 1 -0.0477622 -0.039369 -0.0492102 0.000423 -7.48205 -0.201159 7.26263 2650 
2966 1 -0.0475051 -0.0373826 -0.049137 0.000656 -7.55107 0.0149599 7.30602 2650 
4307 1 -0.0473185 -0.0363934 -0.049635 0.000423 -7.44591 -0.00699338 7.09881 2650 
3601 1 -0.0480826 -0.0256567 -0.0493204 0.000116 -7.08908 -0.154428 6.89889 2650 
2817 1 -0.0482316 -0.0153386 -0.0491809 0.000116 -7.01834 0.1019 6.88738 2650 
283 1 -0.0480782 -0.0128129 -0.0493312 0.000116 -6.40168 -0.00959151 6.24523 2650 
63 1 -0.0479322 -0.000115995 -0.0494721 0.000116 -6.46093 -0.000181753 6.25795 2650 
4260 1 -0.0477647 -0.000116038 -0.0496341 0.000116 -6.47899 0.000510357 6.23908 2650 
1220 1 -0.0485234 -0.0408153 -0.0481329 0.000656 -7.42132 -0.221517 7.48175 2650 
1386 1 -0.0492561 -0.0011502 -0.0481541 0.000116 -5.90526 0.0219512 6.03733 2650 
497 1 -0.0492009 -0.00146031 -0.0482108 0.000116 -5.34518 -0.40742 5.48348 2650 
2742 1 -0.0491323 -0.00139788 -0.0483854 4.2e-05 -5.33646 -0.159777 5.4237 2650 
3156 1 -0.0495192 -0.0370286 -0.047881 0.000116 -7.52938 0.151316 7.78631 2650 
2179 1 -0.0493862 -0.026784 -0.048021 0.000116 -6.91983 -0.112 7.09863 2650 
3040 1 -0.049382 -0.0245909 -0.04802 0.000116 -6.55525 0.0543528 6.71518 2650 
3660 1 -0.0489646 -0.0251239 -0.0480139 0.000423 -6.69475 -0.0909747 6.85926 2650 
3168 1 -0.0497236 -0.0188604 -0.0476712 0.000116 -6.30443 0.272893 6.57175 2650 
3029 1 -0.0496305 -0.0142217 -0.0477682 0.000116 -5.46341 -0.0817443 5.67162 2650 
2845 1 -0.0493594 -0.000957402 -0.0480481 0.000116 -5.80175 0.130579 5.96301 2650 
1172 1 -0.0499233 -0.000116023 -0.0474624 0.000116 -6.1283 3.81702e-05 6.45333 2650 
2921 1 -0.0502268 -0.0248395 -0.0471296 0.000116 -6.77413 -0.332102 7.22538 2650 
4014 1 -0.0506201 -0.00443698 -0.046718 0.000116 -4.37476 0.143133 4.74154 2650 
515 1 -0.0508048 -0.000115998 -0.0465173 0.000116 -6.00723 0.00206695 6.5631 2650 
1061 1 -0.050618 -0.000116021 -0.0467207 0.000116 -6.04269 0.000351406 6.55163 2650 
2385 1 -0.0501458 -0.00011603 -0.0472271 0.000116 -6.10105 0.000732202 6.48435 2650 
327 1 -0.0504661 -4.1999e-05 -0.0469928 4.2e-05 -6.0654 -8.94531e-06 6.51286 2650 
1404 1 -0.0511072 -0.018854 -0.0461848 0.000116 -5.35315 -0.61462 5.92506 2650 
1428 1 -0.0509394 -4.20581e-05 -0.0464797 4.2e-05 -6.00039 1.18674e-05 6.5832 2650 
93 1 -0.0509659 -0.000116019 -0.046341 0.000116 -5.98573 -0.00100303 6.58297 2650 
3395 1 -0.0512317 -4.2002e-05 -0.0461571 4.2e-05 -5.97574 -0.000105889 6.63723 2650 
4312 1 -0.0515018 -0.0376626 -0.0452712 0.000423 -6.78471 0.075312 7.72313 2650 
1279 1 -0.0519386 -0.0116328 -0.0452473 0.000116 -5.3891 0.199862 6.18835 2650 
1971 1 -0.0526149 -4.20323e-05 -0.0445742 4.2e-05 -5.77874 -8.85483e-05 6.83268 2650 
1535 1 -0.0525604 -4.19968e-05 -0.0446382 4.2e-05 -5.79267 -0.000644263 6.82422 2650 
956 1 -0.0524274 -0.000115994 -0.0446805 0.000116 -5.79877 -0.000129542 6.80385 2650 
4334 1 -0.0527664 -0.000116008 -0.0442801 0.000116 -5.74816 -0.00199464 6.8607 2650 
4373 1 -0.0529539 -4.1999e-05 -0.044171 4.2e-05 -5.74367 -2.13729e-08 6.87726 2650 
656 1 -0.0528997 -4.20336e-05 -0.044236 4.2e-05 -5.75148 -0.00109168 6.88035 2650 
992 1 -0.0528511 -0.062144 -0.0433371 0.000656 -6.80456 1.06074e-07 8.2984 2650 
3651 1 -0.0527112 -0.0243124 -0.0438688 0.000423 -6.21958 0.124345 7.44443 2650 
2591 1 -0.0529998 -0.000115995 -0.0439999 0.000116 -5.72167 -8.58934e-05 6.89018 2650 
3684 1 -0.0533646 -0.000116054 -0.0435569 0.000116 -5.6963 8.45566e-05 6.9803 2650 
2238 1 -0.0533736 -0.0471673 -0.043061 0.000423 -6.75653 -0.0329285 8.37467 2650 
645 1 -0.0542369 -0.0220789 -0.0424661 0.000116 -6.10695 0.119901 7.79562 2650 
691 1 -0.0541537 -0.0125845 -0.0420751 0.000423 -5.63432 0.0687713 7.22626 2650 
387 1 -0.0549632 -0.0251944 -0.0415211 0.000116 -5.97636 0.157556 7.91009 2650 
3863 1 -0.0545647 -0.0214872 -0.0415399 0.000423 -6.02124 0.0378783 7.90193 2650 
1075 1 -0.055154 -0.0204577 -0.0412676 0.000116 -5.9443 -0.188648 7.94324 2650 
4328 1 -0.0553249 -0.019955 -0.0405231 0.000423 -5.69444 0.120104 7.76973 2650 
3535 1 -0.0554166 -0.0161016 -0.0403972 0.000423 -5.39505 -0.0345078 7.4403 2650 
4355 1 -0.0555095 -0.00943819 -0.0407884 0.000116 -3.66472 0.213915 4.98629 2650 
468 1 -0.0561222 -0.0506944 -0.0394128 0.000423 -6.24192 -0.0495552 8.88867 2650 
2192 1 -0.056286 -0.0297129 -0.0398387 4.2e-05 -5.51756 -0.265449 7.80625 2650 
3685 1 -0.0564134 -0.0236304 -0.0395287 0.000116 -5.70242 -0.0678637 8.13948 2650 
3394 1 -0.0562413 -0.0174748 -0.0399011 4.2e-05 -5.1902 0.439041 7.32028 2650 
3891 1 -0.0560384 -0.0158121 -0.0395303 0.000423 -5.31082 0.022795 7.5255 2650 
3963 1 -0.0561406 -0.0107854 -0.0393865 0.000423 -5.15894 0.122734 7.34173 2650 
3260 1 -0.0567542 -0.0286553 -0.0390389 0.000116 -5.52197 -0.0738606 8.02983 2650 
167 1 -0.0569936 -0.0240261 -0.0386875 0.000116 -5.59833 0.0172442 8.24618 2650 
309 1 -0.0568721 -0.0209012 -0.0388662 0.000116 -5.3151 -0.183356 7.77419 2650 
4203 1 -0.0563438 -0.0191854 -0.0390929 0.000423 -5.591 0.0582166 8.06761 2650 
2253 1 -0.0563549 -0.0148006 -0.0390782 0.000423 -5.11342 -0.162217 7.36845 2650 
1285 1 -0.0569477 -0.0115938 -0.0387564 0.000116 -5.09574 -0.0832311 7.48135 2650 
687 1 -0.0564304 -0.00898267 -0.0389694 0.000423 -4.75345 0.194639 6.90859 2650 
2418 1 -0.0571019 -0.00246476 -0.0386594 4.2e-05 -3.98439 -0.0742525 5.88344 2650 
854 1 -0.0571398 -0.0251931 -0.0384717 0.000116 -5.54119 0.0842834 8.23113 2650 
1883 1 -0.0569031 -0.0207478 -0.0382764 0.000423 -5.26571 -0.262601 7.84839 2650 
2521 1 -0.0573746 -0.0202712 -0.0382536 4.2e-05 -4.9038 -0.0682147 7.35297 2650 
2681 1 -0.0571274 -0.0194664 -0.03794 0.000423 -5.21828 -0.040557 7.85726 2650 
3128 1 -0.056897 -0.0185615 -0.0382832 0.000423 -5.3328 0.12289 7.93332 2650 
2954 1 -0.0575217 -0.0176401 -0.0378978 0.000116 -5.32738 0.367272 8.08951 2650 
3004 1 -0.0573522 -0.0246643 -0.0375989 0.000423 -5.48785 -0.0381107 8.32972 2650 
3073 1 -0.0578979 -0.0237608 -0.0374565 4.2e-05 -5.44436 0.152183 8.41413 2650 
1086 1 -0.0579138 -0.0240447 -0.0372956 0.000116 -5.66656 0.0838113 8.79982 2650 
2317 1 -0.0576779 -0.062144 -0.0366685 0.000656 -5.75981 1.53623e-07 9.05992 2650 
2212 1 -0.0576707 -0.0482341 -0.0366787 0.000656 -5.7242 -0.0176725 9.00032 2650 
3875 1 -0.058214 -0.0293863 -0.0362527 0.000423 -5.35643 0.0342106 8.59801 2650 
3353 1 -0.0586573 -0.0255599 -0.0361149 0.000116 -5.32151 0.130888 8.64235 2650 
2428 1 -0.0582422 -0.0248203 -0.0357645 0.000656 -5.18408 -0.0903643 8.48111 2650 
19 1 -0.0584986 -0.0204582 -0.0357899 0.000423 -5.12298 0.0560301 8.36841 2650 
1838 1 -0.058679 -0.0120239 -0.0360818 0.000116 -3.38311 -1.44669 5.5026 2650 
2270 1 -0.0586575 -0.0106764 -0.0361166 0.000116 -3.03749 0.731777 4.92094 2650 
482 1 -0.0595169 -0.0623476 -0.0340695 0.000423 -5.34802 -0.00575649 9.34285 2650 
897 1 -0.0593565 -0.0522004 -0.0343498 0.000423 -5.36542 -0.0704274 9.27169 2650 
3375 1 -0.0597519 -0.00289218 -0.0342731 0.000116 -4.05833 0.157253 7.07192 2650 
1903 1 -0.060006 -0.0623263 -0.0332008 0.000423 -5.21203 -0.0121441 9.42002 2650 
2530 1 -0.0596751 -0.0515735 -0.0333204 0.000656 -5.17988 0.00555446 9.27691 2650 
3088 1 -0.0599996 -0.0502472 -0.0332122 0.000423 -5.19094 -0.0600243 9.37821 2650 
3426 1 -0.0600007 -0.0479466 -0.0332087 0.000423 -5.25766 0.0188232 9.49858 2650 
239 1 -0.0600312 -0.0464457 -0.033154 0.000423 -5.21466 -0.0345644 9.44195 2650 
3372 1 -0.0603198 -0.0374427 -0.0332644 0.000116 -5.12317 -0.275787 9.29155 2650 
2951 1 -0.0603423 -0.00221697 -0.0332218 0.000116 -3.93411 -0.336743 7.13873 2650 
2172 1 -0.0603935 -0.000186047 -0.0331302 0.000116 -3.85216 -0.0403266 7.0277 2650 
3466 1 -0.0608334 -0.0147076 -0.03231 0.000116 -4.56068 -0.19927 8.59512 2650 
3148 1 -0.0605038 -0.000116142 -0.0329287 0.000116 -3.73927 0.00134472 6.88996 2650 
3819 1 -0.0606245 -0.000147416 -0.0327055 0.000116 -3.70829 -0.0135876 6.87173 2650 
2237 1 -0.0607833 -0.0623128 -0.0317548 0.000423 -4.98537 0.00467033 9.54271 2650 
163 1 -0.0606101 -0.0531108 -0.0320839 0.000423 -5.04567 -0.0507622 9.53215 2650 
4263 1 -0.0612144 -0.0271075 -0.0317438 4.2e-05 -4.59931 0.0192715 8.8609 2650 
1816 1 -0.0610518 -0.0254955 -0.0318965 0.000116 -4.64486 -0.000863426 8.87577 2650 
3266 1 -0.0610247 -0.0237138 -0.0319507 0.000116 -4.62981 -0.130198 8.83212 2650 
734 1 -0.0611329 -0.0218162 -0.0317444 0.000116 -4.33524 -0.0249162 8.35842 2650 
2443 1 -0.0610826 -0.0216017 -0.0311742 0.000423 -4.26746 0.0817849 8.35777 2650 
3159 1 -0.061611 -0.0143854 -0.0307955 0.000116 -4.12423 0.293282 8.26623 2650 
234 1 -0.0610606 -0.00626822 -0.0312104 0.000423 -3.88892 0.0161429 7.65805 2650 
3918 1 -0.0614536 -0.00117848 -0.0311198 0.000116 -4.10251 -0.0917268 8.08643 2650 
989 1 -0.0618843 -0.0276417 -0.0304114 4.2e-05 -4.80438 0.258151 9.78073 2650 
2337 1 -0.0614255 -0.024919 -0.0304922 0.000423 -4.45875 0.0267846 8.9731 2650 
865 1 -0.0617581 -0.00344536 -0.0305049 0.000116 -3.66505 0.128866 7.40121 2650 
681 1 -0.0619899 -0.0372286 -0.029325 0.000423 -4.36758 -0.0435567 9.23948 2650 
849 1 -0.0620575 -0.0267703 -0.0298734 0.000116 -4.30496 0.112639 8.92874 2650 
235 1 -0.0620231 -0.0248673 -0.0292579 0.000423 -4.27525 -0.0122959 9.08277 2650 
2396 1 -0.0623556 -0.0196643 -0.0292692 0.000116 -3.50688 0.0837443 7.48046 2650 
3060 1 -0.0626067 -0.0278598 -0.0287159 0.000116 -4.51476 0.468619 9.83973 2650 
832 1 -0.0627825 -0.0186917 -0.028341 0.000116 -4.15978 0.401134 9.22669 2650 
3264 1 -0.0626059 -0.010494 -0.0286925 0.000116 -3.24094 -0.109276 7.08544 2650 
4199 1 -0.0625186 -0.0246082 -0.0281838 0.000423 -4.12632 -0.0141288 9.15761 2650 
3645 1 -0.0616444 -0.00649425 -0.028253 0.000423 1.35889 -0.28678 3.61514 2650 
647 1 -0.0628939 -0.00445856 -0.0280914 0.000116 -3.8708 0.198971 8.63098 2650 
3219 1 -0.0625413 -0.00244122 -0.0281337 0.000423 -3.86305 -0.0122457 8.62343 2650 
574 1 -0.0628286 -0.0250832 -0.0274748 0.000423 -4.03171 0.0471811 9.21474 2650 
299 1 -0.0631654 -0.00393063 -0.0274666 0.000116 -3.81585 -0.534157 8.77408 2650 
817 1 -0.0633153 -0.0300673 -0.0262858 0.000423 -3.91213 0.142903 9.40535 2650 
3578 1 -0.0637036 -0.0286459 -0.0261211 0.000116 -3.86306 -0.0476662 9.41599 2650 
733 1 -0.0637262 -0.0278151 -0.0260518 0.000116 -3.86418 0.102839 9.45157 2650 
2543 1 -0.0632405 -0.0171137 -0.0265253 0.000423 -3.56145 -0.0827638 8.46885 2650 
3282 1 -0.063882 -0.00156801 -0.0259571 4.2e-05 -3.21498 0.0745848 7.93534 2650 
2765 1 -0.0637139 -0.0322709 -0.0252926 0.000423 -3.53941 -0.420284 8.92807 2650 
416 1 -0.0638782 -0.0261181 -0.0257177 0.000116 -3.75325 -0.0410231 9.34272 2650 
633 1 -0.0638622 -0.014463 -0.0257328 0.000116 -3.23891 -0.416658 8.05493 2650 
688 1 -0.0641566 -0.0444724 -0.0242145 0.000423 -3.78546 -0.107643 10.0302 2650 
4235 1 -0.0646931 -0.0194719 -0.0236598 0.000116 -3.36901 -0.178322 9.20994 2650 
3031 1 -0.0646721 -0.00366329 -0.0237175 0.000116 -2.83237 0.106975 7.71136 2650 
3013 1 -0.0647793 -0.0359526 -0.0225082 0.000423 -3.35534 -0.0774504 9.6537 2650 
2340 1 -0.065053 -0.0360178 -0.0217055 0.000423 -3.23544 -0.0145649 9.71767 2650 
1119 1 -0.0650318 -0.0285314 -0.0217662 0.000423 -3.18785 -0.186855 9.52865 2650 
5 1 -0.0648653 -0.027454 -0.0215321 0.000656 -3.13879 -0.165352 9.46405 2650 
1552 1 -0.0649305 -0.0255003 -0.0213392 0.000656 -3.1597 -0.0943494 9.54841 2650 
2669 1 -0.0651511 -0.0215788 -0.0214082 0.000423 -3.09804 0.644558 9.4311 2650 
2350 1 -0.0653834 -0.029416 -0.0206888 0.000423 -3.06692 0.112102 9.69639 2650 
286 1 -0.065746 -0.0275244 -0.0205535 0.000116 -3.03253 -0.340031 9.70176 2650 
1014 1 -0.0652458 -0.0265138 -0.0211167 0.000423 -3.06594 -0.126527 9.50468 2650 
1392 1 -0.0657877 -0.0228958 -0.0204197 0.000116 -2.99424 0.140438 9.64138 2650 
3255 1 -0.065642 -0.0216021 -0.0208839 0.000116 -3.07212 0.384525 9.66102 2650 
25 1 -0.065298 -0.0174756 -0.0209568 0.000423 -3.03732 0.225195 9.48697 2650 
981 1 -0.0659102 -0.0280401 -0.0202747 4.2e-05 -2.92616 0.202301 9.51513 2650 
4018 1 -0.0658108 -0.0272977 -0.0203455 0.000116 -2.999 -0.183579 9.70415 2650 
2057 1 -0.0659932 -0.0229579 -0.0197461 0.000116 -2.94293 0.0541374 9.83604 2650 
4187 1 -0.0658505 -0.0492782 -0.019149 0.000423 -2.98951 0.022223 10.2813 2650 
2269 1 -0.0661141 -0.023921 -0.0193362 0.000116 -2.75495 0.103027 9.42333 2650 
1606 1 -0.0662309 -0.0191086 -0.0189336 0.000116 -2.79869 -0.118425 9.79832 2650 
4025 1 -0.0664467 -0.0287608 -0.0181621 0.000116 -2.69918 0.253845 9.88087 2650 
2714 1 -0.0663506 -0.0260023 -0.0185098 0.000116 -2.70777 0.0425173 9.70304 2650 
1083 1 -0.0666637 -0.026261 -0.0173486 0.000116 -2.56456 -0.0182148 9.83922 2650 
3222 1 -0.0663502 -0.0267971 -0.0173401 0.000423 -2.56635 -0.0284139 9.81013 2650 
3204 1 -0.0662843 -0.0238787 -0.0175897 0.000423 -2.62708 -0.193126 9.9316 2650 
2386 1 -0.0666078 -0.022474 -0.0175611 0.000116 -2.61619 -0.196688 9.92309 2650 
1208 1 -0.0667444 -4.20456e-05 -0.0173306 4.2e-05 -1.89841 6.5178e-05 7.33205 2650 
2091 1 -0.0662037 -0.0533536 -0.0169796 0.000656 -2.66064 -0.0430657 10.3746 2650 
3671 1 -0.0665632 -0.0306896 -0.0165057 0.000423 -2.47103 0.146992 9.95415 2650 
1758 1 -0.0668033 -0.0156475 -0.0171033 4.2e-05 -2.34083 -0.131163 9.14402 2650 
2182 1 -0.000622635 -0.00194771 -0.0167698 0.000116 -0.00181692 -0.0147255 0.00528327 2650 
1905 1 -0.0665867 -0.0393502 -0.0164064 0.000423 -2.50015 -0.0160414 10.1464 2650 
3760 1 -0.0665819 -0.0365519 -0.0164269 0.000423 -2.45141 0.000533389 9.93519 2650 
3936 1 -0.067152 -0.0329565 -0.0156805 4.2e-05 -2.50725 0.474134 10.7379 2650 
3636 1 -0.066706 -0.0276112 -0.0159175 0.000423 -2.35271 -0.0326497 9.85688 2650 
4136 1 -0.0030172 -0.00268022 -0.0162898 0.000116 -0.00277006 -0.00865259 0.0062964 2650 
2945 1 -0.00452363 -0.00130422 -0.0159399 0.000116 -0.0070416 -0.00269505 0.00231432 2650 
3934 1 -0.00110111 -0.000406327 -0.0160271 0.000116 0.00117709 -0.00998159 0.000256542 2650 
2800 1 -0.066933 -0.0399298 -0.014929 0.000423 -2.25045 -0.0692623 10.0615 2650 
4323 1 -0.0669192 -0.037123 -0.0149939 0.000423 -2.23911 0.00331141 9.99343 2650 
1275 1 -0.0671395 -0.0308934 -0.0154076 0.000116 -2.26231 0.0470317 9.8589 2650 
2879 1 -0.0668244 -0.0254985 -0.0154122 0.000423 -2.26946 -0.00285236 9.85744 2650 
1303 1 -0.0671249 -0.0240266 -0.015467 0.000116 -2.21876 0.102534 9.62117 2650 
4259 1 -0.0671728 -0.00462052 -0.0152589 0.000116 -1.70665 0.0573754 7.51678 2650 
3830 1 -0.006879 -0.000172467 -0.015411 4.2e-05 0 -0.011753 0 2650 
3727 1 -0.00575853 -0.000785872 -0.0155316 4.2e-05 -0.00143931 -0.00938471 -0.0055359 2650 
4212 1 -0.0669996 -0.0268138 -0.0146308 0.000423 -2.1554 0.0207419 9.87518 2650 
3868 1 -0.067116 -0.0258403 -0.0140889 0.000423 -2.07167 0.00766179 9.91485 2650 
3873 1 -0.0670761 -0.00868192 -0.0142769 0.000423 -1.639 0.0126868 7.68628 2650 
4327 1 -0.0669623 -0.00288836 -0.0148007 0.000423 -1.98852 -0.0227743 9.0364 2650 
1038 1 -0.00530611 -0.00296566 -0.0145853 0.000423 0.000746832 -0.00666264 0.0052836 2650 
15 1 -0.0672552 -0.0312567 -0.0134105 0.000423 -1.99975 0.131846 10.0226 2650 
1499 1 -0.0675098 -0.0176212 -0.0136899 0.000116 -1.80042 0.0423072 8.8801 2650 
3207 1 -0.067421 -0.0311412 -0.0125512 0.000423 -1.87875 0.0482568 10.0797 2650 
83 1 -0.0677168 -0.0284923 -0.0126299 0.000116 -1.85101 0.331181 9.92391 2650 
3583 1 -0.0676995 -0.0280528 -0.0127228 0.000116 -1.87231 -0.0224607 9.96996 2650 
1373 1 -0.0673088 -0.0258317 -0.0131354 0.000423 -1.94041 0.036689 9.94016 2650 
1166 1 -0.0676068 -0.0219526 -0.013202 0.000116 -1.96716 -0.114933 10.0751 2650 
1177 1 -0.0676402 -0.00261227 -0.013031 0.000116 -1.58875 -0.0306929 8.21171 2650 
57 1 -0.0676696 -0.00106578 -0.0128757 0.000116 -1.43279 -0.169553 7.50739 2650 
339 1 -0.00551227 -0.000132462 -0.0130363 0.000656 -0.006822 -0.00276167 0.00431219 2650 
4053 1 -0.00313558 -0.00023332 -0.0129407 4.2e-05 -0.00270543 -0.0152689 0.0143332 2650 
94 1 -0.0678449 -0.0252771 -0.0119196 0.000116 -1.7675 0.0520097 10.0656 2650 
2846 1 -0.0678145 -0.0134247 -0.0125088 4.2e-05 -1.38769 -0.407825 7.53928 2650 
210 1 -0.0679109 -0.00299956 -0.0119695 4.2e-05 -1.37619 -0.181621 7.80359 2650 
191 1 -0.011348 -0.00203947 -0.012254 0.000116 0 -0.011753 0 2650 
3173 1 -0.004958 -0.00123147 -0.012321 4.2e-05 0 -0.011753 0 2650 
159 1 -0.067649 -0.0333942 -0.0112532 0.000423 -1.66975 -0.0168459 10.0422 2650 
308 1 -0.0679263 -0.0236854 -0.0114423 0.000116 -1.6936 0.117483 10.0525 2650 
835 1 -0.0680048 -0.0242674 -0.010968 0.000116 -1.64574 0.229118 10.2056 2650 
3958 1 -0.0676083 -0.0243451 -0.0114928 0.000423 -1.70933 0.0696099 10.055 2650 
3443 1 -0.0676136 -0.0227024 -0.0114619 0.000423 -1.61414 -0.0540171 9.45951 2650 
1669 1 -0.0676479 -0.0190417 -0.0112566 0.000423 -1.48422 0.0882013 8.90935 2650 
3374 1 -0.00825384 -0.00190485 -0.0116123 0.000116 0.0183951 -0.00541119 -0.0013933 2650 
3456 1 -0.00593422 -0.0010332 -0.0111816 0.000423 -0.00654906 -0.00668986 0.00763897 2650 
3098 1 -0.0015533 -3.44499e-05 -0.0117944 0.000423 0.0110732 -0.0144476 0.00018578 2650 
3626 1 -0.0675097 -0.0531299 -0.0106726 0.000656 -1.68171 0.0111323 10.6375 2650 