ITEM: TIMESTEP
39821964
ITEM: NUMBER OF ATOMS
3939
ITEM: BOX BOUNDS ff ff ff
-0.15 0.15
-0.15 0.15
-0.15 0.15
ITEM: ATOMS id type x y z radius vx vy vz density 
1157 1 -0.00080067 -0.0421259 -0.0688793 0.000116 -10.8684 -0.0342989 0.126416 2650 
1619 1 -0.00507371 -0.035574 -0.0686973 0.000116 -10.7214 -0.0281126 0.791657 2650 
3583 1 -0.00078928 -0.0292303 -0.0688805 0.000116 -10.7822 0.248015 0.123785 2650 
2588 1 -0.00529021 -0.0189025 -0.0686803 0.000116 -10.1797 0.317492 0.784764 2650 
3383 1 -0.00455935 -0.015488 -0.0687333 0.000116 -9.26749 0.286849 0.619825 2650 
1609 1 -0.00330753 -0.00505162 -0.0688047 0.000116 -9.01983 -0.0175844 0.433738 2650 
656 1 -0.00212841 -0.00439874 -0.068925 4.2e-05 -9.00171 -0.141223 0.275085 2650 
2520 1 -0.00367486 -0.00247759 -0.0688599 4.2e-05 -9.13618 -0.309779 0.4865 2650 
3656 1 -0.00440506 -0.0498022 -0.068437 0.000423 -10.7715 -0.0250487 0.693197 2650 
2208 1 -0.00271195 -0.0496477 -0.068294 0.000656 -10.7219 0.0327615 0.425792 2650 
2254 1 -0.000791927 -0.0496668 -0.0685742 0.000423 -10.799 -0.0304021 0.124693 2650 
3986 1 -0.00211499 -0.0487725 -0.0685466 0.000423 -10.7597 0.0456993 0.331981 2650 
3554 1 -0.00143917 -0.0476434 -0.0685638 0.000423 -10.7308 0.0373698 0.225161 2650 
3936 1 -0.01193 -0.0430275 -0.0679179 4.2e-05 -10.4 -0.0878015 1.82704 2650 
3722 1 -0.011038 -0.0404534 -0.0680687 4.2e-05 -10.0221 0.00571033 1.62398 2650 
4323 1 -0.00885385 -0.0384261 -0.0680042 0.000423 -10.4669 0.0540027 1.36267 2650 
1598 1 -0.00610624 -0.0383698 -0.0686127 0.000116 -11.032 -0.112449 0.981828 2650 
4307 1 -0.00323636 -0.0386456 -0.0685015 0.000423 -10.8386 -0.00531311 0.512726 2650 
2247 1 -0.0041878 -0.0364409 -0.0684507 0.000423 -10.6979 -0.0331283 0.654557 2650 
2573 1 -0.0049726 -0.0360816 -0.0683982 0.000423 -10.7516 -0.114689 0.781538 2650 
596 1 -0.00464852 -0.0351573 -0.0684211 0.000423 -10.5617 -0.0485172 0.717127 2650 
5 1 -0.00548886 -0.0329553 -0.0681268 0.000656 -10.6712 -0.00823432 0.85979 2650 
2544 1 -0.00672487 -0.0291034 -0.0682479 0.000423 -10.728 0.291746 1.05815 2650 
4006 1 -0.00783417 -0.0261014 -0.0684372 0.000116 -10.2817 -0.13615 1.17726 2650 
4011 1 -0.00910148 -0.0259227 -0.0682798 0.000116 -10.2931 -0.0739311 1.37197 2650 
2266 1 -0.00555449 -0.00644591 -0.0686601 0.000116 -6.3707 -1.1121 0.512514 2650 
2070 1 -0.00725627 -0.00241399 -0.0685005 0.000116 -8.39407 -0.270956 0.889356 2650 
3282 1 -0.0120187 -9.41383e-05 -0.0679024 4.2e-05 -9.2492 0.00936477 1.63428 2650 
1977 1 -0.0071303 -0.000100777 -0.0685882 4.2e-05 -8.86712 0.0604802 0.927209 2650 
4335 1 -0.0120764 -0.00906442 -0.0678174 0.000116 -8.74205 0.205283 1.54432 2650 
4113 1 -0.0134007 -0.00568214 -0.0675476 0.000116 -8.76723 0.056407 1.70787 2650 
2399 1 -0.0148815 -0.00158587 -0.0672536 0.000116 -8.97568 -0.166497 1.99434 2650 
197 1 -0.0149191 -0.00125693 -0.0672473 0.000116 -8.90022 -0.0371414 1.9835 2650 
2419 1 -0.0131804 -0.00106755 -0.067683 4.2e-05 -8.29541 -0.0435252 1.64538 2650 
980 1 -0.0135761 -4.33238e-05 -0.0676083 4.2e-05 -8.41994 0.00629822 1.70119 2650 
2272 1 -0.0134101 -0.000216028 -0.0675654 0.000116 -8.51073 0.0785872 1.69187 2650 
3156 1 -0.0161594 -0.0416363 -0.066962 0.000116 -10.426 -0.185058 2.51617 2650 
3760 1 -0.0150203 -0.0411035 -0.0669128 0.000423 -10.5243 0.00171075 2.36247 2650 
3807 1 -0.0178284 -0.0370945 -0.0665364 0.000116 -10.4857 -0.166207 2.81009 2650 
4026 1 -0.0174569 -0.0371043 -0.0666332 0.000116 -10.4594 -0.141983 2.73992 2650 
491 1 -0.0168815 -0.0365836 -0.0664635 0.000423 -10.4359 -0.0103314 2.65075 2650 
2837 1 -0.0161396 -0.0366258 -0.0669649 0.000116 -10.537 -0.020896 2.53957 2650 
1009 1 -0.0161554 -0.0361904 -0.0666475 0.000423 -10.4622 -0.0156318 2.53606 2650 
3222 1 -0.0170868 -0.0354104 -0.0664046 0.000423 -10.4309 0.00410515 2.68399 2650 
3562 1 -0.0162707 -0.0353527 -0.0666199 0.000423 -10.4633 -0.0161486 2.55547 2650 
3586 1 -0.0186379 -0.0346051 -0.0663107 0.000116 -10.4243 0.102753 2.92989 2650 
3783 1 -0.0171583 -0.0345676 -0.066387 0.000423 -10.4259 0.00449444 2.69463 2650 
3527 1 -0.0163361 -0.0345094 -0.066604 0.000423 -10.4668 -0.0162207 2.56708 2650 
2905 1 -0.0176578 -0.0334658 -0.0662541 0.000423 -10.4452 0.000172286 2.78378 2650 
1257 1 -0.0168609 -0.0337795 -0.0664659 0.000423 -10.4575 0.0124697 2.65306 2650 
2812 1 -0.0164883 -0.0339308 -0.0668811 0.000116 -10.5067 -0.0253154 2.59001 2650 
3602 1 -0.01658 -0.0333414 -0.0668551 0.000116 -10.4984 -0.0425792 2.6034 2650 
83 1 -0.0165321 -0.0336229 -0.0668687 0.000116 -10.5123 0.00894165 2.59914 2650 
844 1 -0.0167226 -0.0331624 -0.0668168 0.000116 -10.4819 -0.0337998 2.62306 2650 
2594 1 -0.0163557 -0.0333391 -0.0669141 0.000116 -10.5079 -0.0337862 2.56859 2650 
3636 1 -0.0160414 -0.0337189 -0.0666668 0.000423 -10.4867 -0.0191273 2.52309 2650 
3308 1 -0.016238 -0.032897 -0.0666279 0.000423 -10.4889 -0.0212836 2.55694 2650 
1466 1 -0.0167764 -0.0322462 -0.0664835 0.000423 -10.4805 -0.0408215 2.64494 2650 
15 1 -0.0159485 -0.0321049 -0.0666939 0.000423 -10.5175 -0.013779 2.514 2650 
2055 1 -0.0187434 -0.0312334 -0.0662837 0.000116 -10.6885 -0.112734 3.01663 2650 
3993 1 -0.0160512 -0.0312654 -0.0666717 0.000423 -10.4562 -0.00558887 2.517 2650 
1510 1 -0.0159718 -0.030851 -0.0670071 0.000116 -10.5224 -0.00448043 2.50817 2650 
4232 1 -0.0164079 -0.0307467 -0.0668937 0.000116 -10.5077 -0.0340568 2.57747 2650 
2066 1 -0.0161859 -0.030781 -0.0669515 0.000116 -10.5117 0.00232232 2.54116 2650 
1930 1 -0.0158204 -0.030678 -0.0670385 0.000116 -10.5093 -0.0191286 2.48219 2650 
3517 1 -0.015994 -0.0302113 -0.0664486 0.000656 -10.4052 -0.00457071 2.50388 2650 
1387 1 -0.0164008 -0.0296554 -0.066899 0.000116 -10.5281 -0.00763705 2.58137 2650 
1684 1 -0.0151718 -0.0296383 -0.0668576 0.000423 -10.6022 0.033319 2.40476 2650 
1916 1 -0.0162145 -0.0291699 -0.0666322 0.000423 -10.462 -0.0139214 2.54586 2650 
2732 1 -0.0180076 -0.0282566 -0.0664808 0.000116 -10.5505 0.0148047 2.85821 2650 
54 1 -0.016583 -0.0284142 -0.0665396 0.000423 -10.3966 0.0138235 2.59036 2650 
2901 1 -0.0176037 -0.0275729 -0.0662718 0.000423 -10.4458 -0.179374 2.77424 2650 
2917 1 -0.0167474 -0.0259951 -0.0668168 0.000116 -10.0241 0.103049 2.51876 2650 
3563 1 -0.0169292 -0.0231094 -0.066454 0.000423 -10.3401 0.352287 2.63377 2650 
4337 1 -0.0185473 -0.00986987 -0.0663338 0.000116 -8.57855 0.160765 2.43406 2650 
4047 1 -0.0183951 -0.00364618 -0.0664576 4.2e-05 -8.73756 -0.0334602 2.4171 2650 
1611 1 -0.0177946 -0.00390158 -0.0665447 0.000116 -8.62591 -0.179261 2.31432 2650 
2300 1 -0.0186254 -0.00156965 -0.0663945 4.2e-05 -9.24902 -0.168628 2.59972 2650 
816 1 -0.0202188 -0.0546502 -0.0655302 0.000423 -10.2139 -0.0402451 3.15174 2650 
1444 1 -0.0202101 -0.0386885 -0.0655298 0.000423 -10.1855 -0.0399014 3.14208 2650 
800 1 -0.0192896 -0.0389546 -0.0658086 0.000423 -10.2732 -0.0176061 3.01146 2650 
4312 1 -0.0184325 -0.0388802 -0.0660542 0.000423 -10.2778 -0.0748091 2.86842 2650 
2788 1 -0.0204576 -0.037292 -0.0654547 0.000423 -10.202 0.012465 3.18852 2650 
3671 1 -0.0192312 -0.0369448 -0.0658256 0.000423 -10.369 0.100791 3.02948 2650 
3337 1 -0.0178853 -0.036584 -0.0662017 0.000423 -10.3214 -0.0420968 2.78879 2650 
1555 1 -0.0184768 -0.0359194 -0.0660406 0.000423 -10.3397 -0.0454357 2.89308 2650 
159 1 -0.0189097 -0.0348567 -0.065919 0.000423 -10.2995 0.00516202 2.9538 2650 
2976 1 -0.0196128 -0.0337831 -0.0654671 0.000656 -10.3132 0.0602819 3.08965 2650 
1020 1 -0.0194659 -0.0324341 -0.0657537 0.000423 -10.3462 -0.0234447 3.06294 2650 
2014 1 -0.0188972 -0.0331169 -0.0659238 0.000423 -10.3852 0.0613277 2.97662 2650 
3464 1 -0.021434 -0.0318895 -0.0654631 0.000116 -10.3902 -0.118195 3.4019 2650 
2271 1 -0.0213835 -0.032189 -0.0654792 0.000116 -10.4721 0.00582875 3.41935 2650 
412 1 -0.0202998 -0.0321507 -0.0658221 0.000116 -10.4586 0.0132642 3.22449 2650 
1185 1 -0.0199255 -0.0320783 -0.0659342 0.000116 -10.4235 -0.0239618 3.14981 2650 
4025 1 -0.0191694 -0.0321282 -0.066161 0.000116 -10.3811 0.000554647 3.00769 2650 
3958 1 -0.0187913 -0.0317418 -0.065954 0.000423 -10.3677 -0.040616 2.95385 2650 
2019 1 -0.0194304 -0.0311707 -0.0657618 0.000423 -10.3099 -0.0353795 3.04608 2650 
170 1 -0.0205136 -0.0301102 -0.0657586 0.000116 -10.2951 -0.208187 3.21095 2650 
2620 1 -0.0191065 -0.0295999 -0.0661786 0.000116 -10.5931 0.0194111 3.05951 2650 
3385 1 -0.0190307 -0.0279699 -0.0661992 0.000116 -10.421 -0.211881 2.9946 2650 
4043 1 -0.0214492 -0.0251778 -0.0654584 0.000116 -9.5554 -0.0724193 3.13182 2650 
711 1 -0.0180196 -0.02521 -0.0661662 0.000423 -9.86683 -0.0469885 2.68428 2650 
546 1 -0.0214077 -0.0200246 -0.0655504 4.2e-05 -9.45604 0.227897 3.08889 2650 
2182 1 -0.019829 -0.00403456 -0.0659664 0.000116 -8.57585 -0.361766 2.58942 2650 
1967 1 -0.0211337 -0.00270682 -0.0655608 0.000116 -8.59783 0.0769193 2.76447 2650 
3576 1 -0.0197365 -0.00131726 -0.0659953 0.000116 -8.97274 0.0881964 2.68682 2650 
3178 1 -0.0207782 -4.19993e-05 -0.0657528 4.2e-05 -8.89184 1.87311e-05 2.81301 2650 
3020 1 -0.0217853 -0.0450167 -0.065026 0.000423 -10.1817 -0.0447844 3.41111 2650 
4073 1 -0.0221378 -0.0442234 -0.0649068 0.000423 -10.2141 -0.0502675 3.48382 2650 
14 1 -0.0214016 -0.0417499 -0.0651536 0.000423 -10.0748 -0.0741154 3.3106 2650 
2476 1 -0.0237675 -0.037878 -0.0646536 0.000116 -10.2634 -0.234959 3.77324 2650 
2920 1 -0.0232385 -0.0367345 -0.0648456 0.000116 -10.256 -0.101885 3.6753 2650 
338 1 -0.0220387 -0.0358437 -0.0646947 0.000656 -10.2237 0.00140418 3.48366 2650 
921 1 -0.0220406 -0.0335763 -0.0649389 0.000423 -10.2527 0.0225649 3.47921 2650 
2000 1 -0.0208222 -0.0332894 -0.06534 0.000423 -10.29 -0.0107381 3.2793 2650 
2295 1 -0.0230359 -0.0329855 -0.0649185 0.000116 -10.3717 0.0368923 3.68125 2650 
2072 1 -0.0224706 -0.032373 -0.0651146 0.000116 -10.3896 -0.0199538 3.58514 2650 
1373 1 -0.0208197 -0.0322886 -0.0653405 0.000423 -10.4151 0.070891 3.31933 2650 
1765 1 -0.020848 -0.0292267 -0.0650884 0.000656 -10.4017 -0.177469 3.3314 2650 
1176 1 -0.0218851 -0.0285621 -0.0653126 0.000116 -9.59641 -1.16151 3.21369 2650 
1071 1 -0.0215163 -0.0286481 -0.0654358 0.000116 -10.3344 0.0197025 3.39843 2650 
1224 1 -0.0220188 -0.0275082 -0.0649476 0.000423 -10.3941 -0.104237 3.52273 2650 
3668 1 -0.0223842 -0.0225987 -0.0648217 0.000423 -9.53599 -0.0530171 3.29833 2650 
4250 1 -0.0224006 -0.0207745 -0.0651405 0.000116 -9.45613 0.180108 3.25521 2650 
3288 1 -0.0224978 -0.00541225 -0.0651834 4.2e-05 -8.47664 -0.12124 2.92514 2650 
245 1 -0.0232656 -0.0438914 -0.0645112 0.000423 -10.1739 0.0234954 3.66921 2650 
3549 1 -0.0243131 -0.0331853 -0.0641246 0.000423 -9.8993 0.0316913 3.75282 2650 
3560 1 -0.023701 -0.0318736 -0.0643533 0.000423 -10.1943 0.103728 3.75484 2650 
3207 1 -0.0228909 -0.0319472 -0.0646458 0.000423 -10.2392 0.0735615 3.62643 2650 
4150 1 -0.0254366 -0.0279647 -0.0640163 0.000116 -10.2888 -0.0213447 4.08758 2650 
525 1 -0.0239931 -0.00852579 -0.0645709 0.000116 -8.20179 -0.0307816 3.04791 2650 
2478 1 -0.0242117 -0.00381061 -0.0644887 0.000116 -8.27743 0.0608657 3.11485 2650 
313 1 -0.024747 -0.00314838 -0.064285 0.000116 -8.09759 -0.0463401 3.11742 2650 
186 1 -0.0254809 -0.00222572 -0.0639975 0.000116 -8.24024 0.0567515 3.28372 2650 
969 1 -0.0258095 -0.000115995 -0.0638659 0.000116 -8.5747 -0.000118456 3.46459 2650 
375 1 -0.0261109 -0.0411651 -0.0634131 0.000423 -9.92874 0.0219468 4.08836 2650 
1217 1 -0.0245461 -0.041411 -0.0637865 0.000656 -10.0213 0.0487888 3.85503 2650 
4305 1 -0.025912 -0.0399422 -0.0634946 0.000423 -9.88852 0.0544698 4.03619 2650 
4163 1 -0.0266421 -0.0339797 -0.0636039 4.2e-05 -10.1106 0.162126 4.235 2650 
3410 1 -0.0255197 -0.0289302 -0.0634033 0.000656 -9.59632 -0.0482446 3.86482 2650 
1838 1 -0.0262624 -0.0276081 -0.0636818 0.000116 -10.2969 0.0723658 4.24683 2650 
1498 1 -0.0261973 -0.0157674 -0.0637081 0.000116 -10.2253 -0.664835 4.2062 2650 
298 1 -0.026007 -0.00233046 -0.0637858 0.000116 -8.07695 0.00110106 3.305 2650 
2591 1 -0.0260249 -0.000115995 -0.0637787 0.000116 -8.5642 0.000162095 3.49285 2650 
3921 1 -0.026235 -0.000200825 -0.0636925 0.000116 -8.55841 0.0109904 3.52355 2650 
2966 1 -0.0278049 -0.0412895 -0.0624355 0.000656 -9.77012 0.016898 4.35225 2650 
981 1 -0.0288038 -0.0305287 -0.0626543 4.2e-05 -10.1552 0.15724 4.66816 2650 
952 1 -0.0290534 -0.0283047 -0.0624577 0.000116 -9.81057 0.451755 4.56331 2650 
2038 1 -0.0287755 -0.0261409 -0.0625858 0.000116 -9.20997 -0.0105671 4.23476 2650 
543 1 -0.0289319 -4.20023e-05 -0.0625949 4.2e-05 -8.4103 -0.000175843 3.88302 2650 
1474 1 -0.028863 -0.0445272 -0.0622085 0.000423 -9.79542 0.0137895 4.54537 2650 
2118 1 -0.0301821 -0.0402059 -0.0615795 0.000423 -9.54689 0.0137157 4.67924 2650 
321 1 -0.0298017 -0.031658 -0.0621862 4.2e-05 -9.58458 0.370373 4.59236 2650 
3445 1 -0.0288869 -0.0296208 -0.0621979 0.000423 -9.76235 0.240534 4.52953 2650 
1051 1 -0.029702 -0.0268114 -0.0621516 0.000116 -9.35823 -0.13539 4.47227 2650 
92 1 -0.0303525 -0.0125233 -0.0618367 0.000116 -8.2079 -0.271603 4.02456 2650 
2741 1 -0.0300872 -0.00413949 -0.0620479 4.2e-05 -8.03568 0.182522 3.90233 2650 
2302 1 -0.030005 -0.00174378 -0.0620877 4.2e-05 -7.79892 0.161971 3.77613 2650 
1927 1 -0.0294725 -0.000682492 -0.0622606 0.000116 -8.47497 -0.0131344 4.01014 2650 
3621 1 -0.0314373 -0.0281744 -0.0606878 0.000656 -9.18491 -0.0742224 4.74874 2650 
42 1 -0.0308025 -0.021425 -0.0612714 0.000423 -9.06425 0.0427503 4.5555 2650 
633 1 -0.0321182 -0.0163282 -0.0609377 0.000116 -7.85203 -0.00849913 4.13803 2650 
3830 1 -0.0278596 -0.00478714 -0.0611419 4.2e-05 -4.23985 -0.152119 -9.29272 2650 
8 1 -0.0318774 -0.04513 -0.0604555 0.000656 -9.50672 0.00508197 5.01259 2650 
21 1 -0.0320039 -0.0440053 -0.0606524 0.000423 -9.5539 -0.0235796 5.04174 2650 
2683 1 -0.0323271 -0.0308538 -0.060481 0.000423 -9.20508 0.123706 4.91965 2650 
3823 1 -0.0339931 -0.00783767 -0.0599116 0.000116 -7.63898 0.197329 4.33757 2650 
3918 1 -0.03301 -0.00718368 -0.0604595 0.000116 -8.10643 0.0534722 4.42282 2650 
2529 1 -0.0338516 -0.00175311 -0.0600772 4.2e-05 -7.99484 -0.0331316 4.5059 2650 
2800 1 -0.0342491 -0.0416734 -0.0594699 0.000423 -9.3529 0.0164521 5.37668 2650 
1621 1 -0.0345137 -0.0385981 -0.059614 0.000116 -7.42157 -1.59641 4.29776 2650 
3785 1 -0.0345572 -0.025604 -0.0595888 0.000116 -9.36039 -0.263793 5.42835 2650 
954 1 -0.0345349 -0.0244835 -0.0596018 0.000116 -9.42453 -0.311798 5.45181 2650 
2512 1 -0.0343642 -0.00828488 -0.0597 0.000116 -7.93376 0.019986 4.56653 2650 
515 1 -0.0347502 -0.00166059 -0.0594725 0.000116 -7.77122 -0.000475349 4.51296 2650 
432 1 -0.0347166 -0.000110476 -0.0595798 4.2e-05 -7.95142 -0.00539227 4.63045 2650 
1104 1 -0.034402 -0.0458927 -0.0590572 0.000656 -9.27541 -0.000798493 5.40313 2650 
3013 1 -0.0354472 -0.0363473 -0.0587062 0.000423 -9.27907 0.00648072 5.60346 2650 
2840 1 -0.0354606 -0.0122321 -0.059028 0.000116 -7.58954 0.118715 4.52453 2650 
2820 1 -0.0359593 -0.00690462 -0.0587286 0.000116 -7.75112 0.711333 4.73342 2650 
730 1 -0.0357055 -0.00601442 -0.0588937 0.000116 -7.89742 -0.0130392 4.78616 2650 
1321 1 -0.0362069 -0.048408 -0.0579687 0.000656 -9.09411 0.0109619 5.68014 2650 
2304 1 -0.0373159 -0.0264762 -0.0579885 4.2e-05 -9.33425 0.638626 6.00682 2650 
3725 1 -0.0372005 -0.0217982 -0.0580626 4.2e-05 -8.82652 0.0464278 5.65477 2650 
3574 1 -0.0368262 -0.0189845 -0.058209 0.000116 -6.61879 -0.729837 4.20546 2650 
2685 1 -0.0382362 -0.0452484 -0.0569296 0.000423 -8.94257 8.56156e-07 6.00619 2650 
1905 1 -0.0374339 -0.0438975 -0.0574603 0.000423 -8.99124 -0.0654719 5.85742 2650 
2468 1 -0.0384968 -0.0417746 -0.0567541 0.000423 -8.90957 0.0224978 6.04334 2650 
1220 1 -0.0374153 -0.0417923 -0.0571965 0.000656 -8.98206 -0.00535711 5.87567 2650 
2296 1 -0.0387545 -0.039107 -0.0569477 0.000116 -8.8776 -0.0188647 6.04152 2650 
707 1 -0.037677 -0.0346495 -0.0573013 0.000423 -9.04468 -0.17953 5.94681 2650 
2633 1 -0.0382516 -5.76047e-05 -0.0573757 4.2e-05 -7.72132 -0.0120288 5.14868 2650 
3749 1 -0.0395059 -0.0528809 -0.0560564 0.000423 -8.79118 -0.0391571 6.19567 2650 
2340 1 -0.0387482 -0.0386989 -0.0565825 0.000423 -8.90693 -0.0571454 6.09946 2650 
879 1 -0.0393131 -0.0238118 -0.0566538 4.2e-05 -8.25137 1.52182 5.724 2650 
1503 1 -0.040018 -0.0198194 -0.0560673 0.000116 -7.8326 0.189183 5.58963 2650 
2767 1 -0.0406884 -0.0505024 -0.0552046 0.000423 -8.70974 0.0676154 6.41956 2650 
685 1 -0.040754 -0.032434 -0.0551562 0.000423 -8.17006 0.0436255 6.03463 2650 
3154 1 -0.0410822 -0.0281755 -0.055293 0.000116 -8.28632 0.0389146 6.15637 2650 
1297 1 -0.0413047 -0.0258238 -0.0551268 0.000116 -8.32934 0.380659 6.24237 2650 
2996 1 -0.0413493 -0.0554582 -0.0547115 0.000423 -8.56641 0.0676917 6.47412 2650 
3796 1 -0.0416059 -0.0513298 -0.0549004 0.000116 -8.63142 -0.0245333 6.5412 2650 
588 1 -0.0409453 -0.0516905 -0.0550144 0.000423 -8.66074 -0.0259988 6.44591 2650 
3957 1 -0.0421136 -0.062144 -0.0538311 0.000656 -8.45398 -1.28113e-07 6.61379 2650 
3198 1 -0.0427024 -0.0512533 -0.0536622 0.000423 -8.42626 -0.00330215 6.70531 2650 
3845 1 -0.0416759 -0.0510493 -0.0541717 0.000656 -8.50951 -0.000212217 6.54663 2650 
2325 1 -0.0426738 -0.0502129 -0.0536848 0.000423 -8.42487 -0.00618845 6.69698 2650 
722 1 -0.0432345 -0.00819387 -0.0536266 0.000116 -6.59518 -0.602638 5.30626 2650 
2637 1 -0.0433085 -0.004017 -0.0536606 4.2e-05 -9.02805 0.0578437 7.28145 2650 
4115 1 -0.0432654 -0.000155488 -0.0536013 0.000116 -7.05161 -0.0130329 5.69211 2650 
951 1 -0.0429142 -0.000606086 -0.0538827 0.000116 -7.2928 -0.0294077 5.8101 2650 
3148 1 -0.0436383 -0.00193877 -0.0532974 0.000116 -6.73343 -0.512754 5.52089 2650 
1295 1 -0.0437046 -0.00215769 -0.053243 0.000116 -7.16859 0.0692647 5.88649 2650 
764 1 -0.0437525 -4.1999e-05 -0.0533001 4.2e-05 -7.10018 -2.41768e-08 5.8234 2650 
402 1 -0.0435038 -0.000164528 -0.0534081 0.000116 -7.0528 -0.0522685 5.74906 2650 
3839 1 -0.0437165 -0.0507145 -0.0525385 0.000656 -8.25293 -0.000308261 6.86713 2650 
4316 1 -0.0444373 -0.0499713 -0.0522345 0.000423 -8.2051 -0.000207673 6.98029 2650 
2130 1 -0.0443625 -0.0465247 -0.0522972 0.000423 -8.13301 -0.0312509 6.8984 2650 
400 1 -0.04454 -0.0279754 -0.0525478 0.000116 -7.76453 0.224068 6.58256 2650 
1753 1 -0.0451533 -0.00453289 -0.0521189 4.2e-05 -7.11905 -0.640083 6.16656 2650 
3374 1 -0.0443004 -0.0045815 -0.0527493 0.000116 -4.21756 1.79391 3.52747 2650 
950 1 -0.0450171 -0.00139194 -0.0521387 0.000116 -6.73359 0.0942713 5.81545 2650 
1074 1 -0.0450278 -0.000937367 -0.0521294 0.000116 -6.76867 0.174147 5.84798 2650 
631 1 -0.0451801 -0.000248672 -0.0519978 0.000116 -6.56117 -0.0324756 5.69549 2650 
1533 1 -0.0448618 -0.000604168 -0.0523699 4.2e-05 -6.9546 -0.0718668 5.96156 2650 
4044 1 -0.0449185 -0.000252681 -0.0522237 0.000116 -7.06205 0.0461161 6.07508 2650 
2284 1 -0.044551 -0.000115994 -0.0525376 0.000116 -7.05111 -0.000166055 5.97732 2650 
437 1 -0.0461666 -0.0485994 -0.0512226 4.2e-05 -8.10263 0.108214 7.3028 2650 
4264 1 -0.0454012 -0.0340347 -0.0519031 4.2e-05 -8.13318 -0.0487936 7.11422 2650 
2174 1 -0.0453507 -0.0289664 -0.0518497 0.000116 -7.63323 0.0557899 6.67655 2650 
283 1 -0.0454562 -0.0143923 -0.051757 0.000116 -7.20768 0.298791 6.33255 2650 
2310 1 -0.0461923 -0.0115455 -0.0512011 4.2e-05 -6.61418 -0.861686 5.96881 2650 
1715 1 -0.0456912 -0.00645171 -0.0515497 0.000116 -7.38167 0.465538 6.54281 2650 
403 1 -0.0458806 -0.00636298 -0.0513815 0.000116 -6.88744 -0.538023 6.1453 2650 
2089 1 -0.0455637 -4.20106e-05 -0.0517604 4.2e-05 -7.12879 0.000357849 6.28043 2650 
2278 1 -0.0465215 -0.029577 -0.0508009 0.000116 -7.63893 0.283621 6.993 2650 
1504 1 -0.0466227 -0.0133368 -0.0507093 0.000116 -7.02135 0.0945172 6.45557 2650 
1597 1 -0.046657 -0.00388718 -0.0506769 0.000116 -6.62929 -0.0447021 6.10624 2650 
1805 1 -0.0472522 -0.0518194 -0.0497012 0.000423 -7.86108 0.0102323 7.47387 2650 
2036 1 -0.04732 -0.0211189 -0.0500583 0.000116 -7.39777 0.242196 6.99311 2650 
297 1 -0.0471229 -0.00718118 -0.0502446 0.000116 -6.6082 -0.176302 6.19704 2650 
725 1 -0.0472772 -0.00333386 -0.0500986 0.000116 -6.47755 0.083894 6.11569 2650 
687 1 -0.0479767 -0.0152675 -0.0490028 0.000423 -7.12831 -0.10058 6.98736 2650 
507 1 -0.0485132 -0.00578738 -0.0489028 0.000116 -6.16177 -0.00579016 6.11465 2650 
3507 1 -0.0481982 -0.00267836 -0.0493161 4.2e-05 -6.60676 -0.047995 6.45818 2650 
3741 1 -0.0486655 -0.041002 -0.0483176 0.000423 -7.54215 0.00441441 7.59656 2650 
1944 1 -0.0491621 -0.0327038 -0.0482482 0.000116 -7.18732 -0.158985 7.33866 2650 
1824 1 -0.0486492 -0.0322322 -0.0487547 0.000116 -7.61943 -0.11791 7.60421 2650 
2186 1 -0.049157 -0.0281674 -0.0482501 0.000116 -6.13115 -0.0581896 6.27424 2650 
3045 1 -0.0493669 -0.0227003 -0.048037 0.000116 -7.39767 0.0944538 7.60219 2650 
3284 1 -0.0489142 -0.0222628 -0.0486049 4.2e-05 -7.24889 0.243766 7.29893 2650 
183 1 -0.0491019 -0.00548396 -0.0483113 0.000116 -6.35829 -0.0398925 6.46077 2650 
2353 1 -0.0493665 -0.0415199 -0.0476022 0.000423 -7.43894 -0.0517166 7.71503 2650 
3367 1 -0.0499456 -0.0290092 -0.04743 0.000116 -6.97684 -0.611105 7.36229 2650 
2521 1 -0.0496909 -0.0255621 -0.0478036 4.2e-05 -6.77515 -0.194956 7.03141 2650 
3289 1 -0.049707 -0.0122547 -0.0477956 4.2e-05 -7.1287 1.61715 7.41317 2650 
2037 1 -0.0502263 -0.0151338 -0.0471416 0.000116 -7.10051 -0.342803 7.56408 2650 
2843 1 -0.0507117 -0.00314542 -0.0466183 0.000116 -6.34728 -0.111307 6.90316 2650 
979 1 -0.0509582 -0.0117723 -0.0463493 0.000116 -6.60378 -0.0420061 7.26455 2650 
1531 1 -0.0511124 -0.00338247 -0.0462891 4.2e-05 -6.19996 0.397599 6.84221 2650 
850 1 -0.0517956 -0.0250099 -0.0453993 0.000116 -6.41558 -0.142664 7.33238 2650 
691 1 -0.0514721 -0.0163342 -0.045316 0.000423 -6.29442 -0.0186094 7.16717 2650 
2596 1 -0.0520485 -0.00798793 -0.0451212 0.000116 -5.95707 -0.245577 6.87504 2650 
3907 1 -0.0519306 -0.000975346 -0.0452569 0.000116 -5.14976 -0.732703 5.90551 2650 
2301 1 -0.0520922 -4.19992e-05 -0.0451836 4.2e-05 -6.12123 3.28235e-07 7.05447 2650 
3181 1 -0.0521833 -4.1999e-05 -0.0450784 4.2e-05 -6.10531 -0.000276586 7.06932 2650 
169 1 -0.0521584 -0.000364958 -0.0449943 0.000116 -5.69193 -0.236078 6.597 2650 
4308 1 -0.0525648 -0.0431797 -0.0440448 0.000423 -6.84216 0.0141454 8.16606 2650 
2937 1 -0.0529067 -0.0396735 -0.0441122 0.000116 -6.96805 -0.0533665 8.3574 2650 
1130 1 -0.0524039 -0.0399972 -0.0442361 0.000423 -6.94509 -0.0250234 8.22743 2650 
3743 1 -0.0524284 -0.0383986 -0.0442069 0.000423 -6.95111 -0.0253273 8.24389 2650 
2148 1 -0.0525866 -0.0349671 -0.0444935 0.000116 -6.95751 0.0167126 8.22282 2650 
3683 1 -0.0525989 -0.0334571 -0.0444789 0.000116 -6.97003 -0.0303409 8.24237 2650 
653 1 -0.0528195 -0.0295317 -0.0443314 4.2e-05 -6.96774 -0.296567 8.30183 2650 
1390 1 -0.0523157 -0.0135754 -0.0448114 0.000116 -5.17768 0.465235 6.0339 2650 
2743 1 -0.0526815 -4.1998e-05 -0.0444956 4.2e-05 -6.02161 -0.000389618 7.13025 2650 
992 1 -0.0529265 -0.0621441 -0.0432437 0.000656 -6.79273 -1.87353e-07 8.31371 2650 
2238 1 -0.0526361 -0.0512791 -0.0439598 0.000423 -6.93131 0.000715943 8.29945 2650 
229 1 -0.0523783 -0.0444133 -0.0439073 0.000656 -6.888 0.0355589 8.21693 2650 
2248 1 -0.0526616 -0.0391909 -0.043929 0.000423 -6.90158 -0.0551705 8.2735 2650 
552 1 -0.0528984 -0.0379255 -0.0432773 0.000656 -6.77436 0.0603873 8.27998 2650 
337 1 -0.0527871 -0.0350295 -0.043414 0.000656 -6.87382 -0.078148 8.35363 2650 
3887 1 -0.0532077 -0.0309263 -0.0432658 0.000423 -6.72003 -0.113672 8.26376 2650 
1388 1 -0.0532591 -0.0305327 -0.0436858 0.000116 -6.78215 -0.486929 8.26906 2650 
358 1 -0.0528245 -0.0294367 -0.0437327 0.000423 -6.83885 0.083972 8.2607 2650 
3684 1 -0.0533818 -0.024907 -0.043536 0.000116 -5.04304 -0.651645 6.17224 2650 
712 1 -0.0535271 -0.0395017 -0.0428701 0.000423 -6.74863 0.0452194 8.42623 2650 
4098 1 -0.0536701 -0.0373059 -0.0426911 0.000423 -6.70826 -0.0624936 8.43344 2650 
566 1 -0.0534495 -0.0332054 -0.0429668 0.000423 -6.84772 -0.0876979 8.51325 2650 
3650 1 -0.053528 -0.0318086 -0.0428687 0.000423 -6.7326 -0.119611 8.40653 2650 
3577 1 -0.0542077 -0.0294959 -0.0425032 0.000116 -6.71159 0.00255435 8.55999 2650 
1003 1 -0.0533676 -0.0295655 -0.0430681 0.000423 -6.72566 0.0708273 8.33423 2650 
3782 1 -0.0534979 -0.022433 -0.0429062 0.000423 -6.16707 0.143489 7.69109 2650 
1069 1 -0.0541267 -0.014429 -0.0426066 0.000116 -5.92601 -1.26677 7.52614 2650 
3113 1 -0.0537237 -0.0132475 -0.0426231 0.000423 -6.0936 -0.010638 7.67772 2650 
647 1 -0.0536524 -0.00163399 -0.0432019 0.000116 -5.71864 -0.710893 7.08626 2650 
2530 1 -0.054087 -0.0555931 -0.041784 0.000656 -6.57103 0.00633799 8.5055 2650 
4101 1 -0.0542762 -0.0391441 -0.0419171 0.000423 -6.5844 -0.00684908 8.52579 2650 
3242 1 -0.0547924 -0.032269 -0.0417468 0.000116 -6.61485 -0.0112107 8.68055 2650 
3227 1 -0.0541115 -0.0321277 -0.0421294 0.000423 -6.63082 0.051672 8.51668 2650 
1953 1 -0.0542663 -0.00470862 -0.0424283 0.000116 -5.4186 -0.0762358 6.94996 2650 
2246 1 -0.0548066 -0.0406414 -0.0412217 0.000423 -6.45703 -0.0778515 8.58505 2650 
2898 1 -0.0545236 -0.0384019 -0.0415951 0.000423 -6.54318 -0.0155038 8.57687 2650 
914 1 -0.0549259 -0.0378811 -0.0410625 0.000423 -6.44862 -0.00257961 8.62577 2650 
2576 1 -0.0547826 -0.0370676 -0.0412536 0.000423 -6.49035 0.0050695 8.61876 2650 
2098 1 -0.0545158 -0.0358019 -0.0412233 0.000656 -6.46984 -0.00194873 8.55603 2650 
4320 1 -0.0546935 -0.0343265 -0.0413718 0.000423 -6.53527 -0.0611456 8.63952 2650 
3130 1 -0.0549959 -0.032803 -0.0414788 0.000116 -6.37576 -0.173301 8.44493 2650 
428 1 -0.0550405 -0.0271962 -0.0414192 0.000116 -6.1246 0.35265 8.14041 2650 
498 1 -0.055087 -0.0070294 -0.0413572 0.000116 -5.71105 0.120527 7.60687 2650 
3088 1 -0.0551967 -0.0524415 -0.0406984 0.000423 -6.39196 -0.00666041 8.66917 2650 
16 1 -0.0554759 -0.0403943 -0.0403166 0.000423 -6.32825 0.00804059 8.70767 2650 
1960 1 -0.0559774 -0.0362735 -0.0401441 0.000116 -6.34001 0.00787247 8.84048 2650 
4311 1 -0.0551124 -0.0349051 -0.0408121 0.000423 -6.40009 -0.0417291 8.64253 2650 
2242 1 -0.0554783 -0.0338943 -0.0403137 0.000423 -6.32593 0.000110292 8.70548 2650 
3904 1 -0.0559986 -0.0130224 -0.0401148 0.000116 -5.01692 -0.222588 7.00015 2650 
4193 1 -0.0558656 -0.0443996 -0.0397733 0.000423 -6.20981 0.0441149 8.72299 2650 
3339 1 -0.0560846 -0.0393333 -0.0394655 0.000423 -6.22987 0.000338011 8.85339 2650 
3372 1 -0.056555 -0.0385641 -0.0393257 0.000116 -6.18761 0.0241093 8.89856 2650 
1670 1 -0.0560203 -0.0380937 -0.0395567 0.000423 -6.2205 -0.0028147 8.80953 2650 
1368 1 -0.0556953 -0.0374391 -0.0400131 0.000423 -6.27059 -0.015328 8.72864 2650 
3534 1 -0.0561587 -0.0362416 -0.0393603 0.000423 -6.18622 0.0106889 8.82638 2650 
3611 1 -0.0562533 -0.0326566 -0.0398846 4.2e-05 -6.30831 0.0244404 8.89721 2650 
2053 1 -0.0564118 -0.0328128 -0.0395321 0.000116 -6.22025 -0.0144769 8.87624 2650 
3490 1 -0.0560114 -0.00878588 -0.040097 0.000116 -4.43305 0.288415 6.20197 2650 
1164 1 -0.0563332 -0.00574223 -0.0396435 0.000116 -5.006 -0.317041 7.12028 2650 
1200 1 -0.0563371 -0.00544715 -0.039766 4.2e-05 -4.95466 -0.204046 7.00503 2650 
2871 1 -0.056028 -0.00362499 -0.039544 0.000423 -4.3199 -0.211962 6.08131 2650 
3350 1 -0.0561379 -0.00197433 -0.0399185 0.000116 -5.37735 0.162085 7.56 2650 
3529 1 -0.0565577 -0.0402158 -0.0387838 0.000423 -6.10502 -0.0442592 8.90259 2650 
3966 1 -0.0565728 -0.0366741 -0.0387627 0.000423 -6.09367 0.0143194 8.89316 2650 
3960 1 -0.0567733 -0.0347251 -0.0384688 0.000423 -6.04632 -0.0330538 8.92328 2650 
2338 1 -0.0565631 -0.0339467 -0.0387771 0.000423 -6.11249 0.00471502 8.91628 2650 
2126 1 -0.0563444 -0.0257173 -0.0390926 0.000423 -5.83232 0.0592805 8.40101 2650 
2700 1 -0.0570833 -0.00106055 -0.0385551 0.000116 -5.21642 -0.187429 7.72064 2650 
468 1 -0.0570663 -0.0545795 -0.038033 0.000423 -5.9531 -0.0175668 8.93395 2650 
2212 1 -0.0565637 -0.0477712 -0.0383656 0.000656 -6.02572 -0.00660986 8.884 2650 
1045 1 -0.0569442 -0.0387941 -0.0382146 0.000423 -6.01811 0.00388552 8.96776 2650 
2873 1 -0.0570752 -0.0339244 -0.0380201 0.000423 -5.97215 0.0123671 8.9653 2650 
2376 1 -0.0575159 -0.0326731 -0.0379081 0.000116 -5.91366 -0.119494 8.97274 2650 
2395 1 -0.0571939 -0.0320424 -0.0383922 0.000116 -6.02764 -0.0567223 8.97946 2650 
1363 1 -0.0577873 -0.0353862 -0.036928 0.000423 -5.7959 0.0335662 9.06975 2650 
635 1 -0.0581484 -0.0342751 -0.0369301 0.000116 -5.49507 0.359068 8.65332 2650 
1963 1 -0.058152 -0.0347091 -0.0369245 0.000116 -5.69652 -0.177988 8.97094 2650 
1360 1 -0.0575477 -0.0336302 -0.037301 0.000423 -5.84168 -0.00185295 9.01235 2650 
2632 1 -0.0579725 -0.00526381 -0.0373411 4.2e-05 -4.93144 -0.165305 7.65547 2650 
2317 1 -0.0576665 -0.062144 -0.0366865 0.000656 -5.76274 -5.38312e-08 9.05827 2650 
2538 1 -0.0578599 -0.0436715 -0.0363796 0.000656 -5.69539 -0.00755194 9.05945 2650 
250 1 -0.0579617 -0.0364806 -0.0366533 0.000423 -5.772 -0.0559044 9.12757 2650 
2001 1 -0.0582773 -0.0337845 -0.0361505 0.000423 -5.6256 0.0359507 9.06834 2650 
4302 1 -0.0584175 -0.0380842 -0.0359212 0.000423 -5.66983 -0.0640036 9.2102 2650 
821 1 -0.0586355 -0.0368537 -0.0355653 0.000423 -5.56621 0.0489851 9.17701 2650 
3974 1 -0.0583764 -0.0361604 -0.0359891 0.000423 -5.65005 0.046348 9.16476 2650 
2703 1 -0.0591171 -0.0335776 -0.0353592 0.000116 -5.47153 0.0107795 9.14816 2650 
2022 1 -0.0584897 -0.0312299 -0.0358062 0.000423 -5.59998 -0.0486861 9.14769 2650 
1170 1 -0.0589995 -0.0300817 -0.0355552 0.000116 -5.71274 -0.00667153 9.47971 2650 
897 1 -0.0592179 -0.0509062 -0.0345886 0.000423 -5.43368 0.00286393 9.30272 2650 
2525 1 -0.0594763 -0.0338795 -0.0348964 4.2e-05 -5.39298 0.172093 9.19261 2650 
4309 1 -0.0590348 -0.0331712 -0.0348978 0.000423 -5.46926 0.00170237 9.24296 2650 
4094 1 -0.0592193 -0.020627 -0.0345843 0.000423 -4.75159 -0.0179565 8.1684 2650 
482 1 -0.0595065 -0.0623459 -0.0340877 0.000423 -5.35427 -0.000204965 9.34689 2650 
3426 1 -0.0594675 -0.0485019 -0.0341565 0.000423 -5.34042 0.0304835 9.29808 2650 
3252 1 -0.0596496 -0.0340273 -0.0344526 0.000116 -5.43796 -0.0161045 9.41485 2650 
3258 1 -0.0596681 -0.0332371 -0.0344202 0.000116 -5.40863 -0.174568 9.3755 2650 