LIGGGHTS (Version LIGGGHTS-PUBLIC 3.8.0, compiled 2022-11-07-16:55:38 by serperd1, git commit 86544c3f1215bc9744d7929e3eacf53ba086af9e)
Created orthogonal box = (-0.15 -0.15 -0.15) to (0.15 0.15 0.15)
  2 by 4 by 5 MPI processor grid

Reading STL file 'cone.stl' (mesh processing step 1/3) 

Reading STL file 'dem_walls_30X_14micronpore_mod_mesh.stl' (mesh processing step 1/3) 
   successfully read a chunk of 100000 elements in STL file 'dem_walls_30X_14micronpore_mod_mesh.stl'
   successfully read a chunk of 100000 elements in STL file 'dem_walls_30X_14micronpore_mod_mesh.stl'
   successfully read a chunk of 100000 elements in STL file 'dem_walls_30X_14micronpore_mod_mesh.stl'
   successfully read a chunk of 100000 elements in STL file 'dem_walls_30X_14micronpore_mod_mesh.stl'
   successfully read a chunk of 100000 elements in STL file 'dem_walls_30X_14micronpore_mod_mesh.stl'
   successfully read a chunk of 100000 elements in STL file 'dem_walls_30X_14micronpore_mod_mesh.stl'
   successfully read a chunk of 100000 elements in STL file 'dem_walls_30X_14micronpore_mod_mesh.stl'
   successfully read a chunk of 100000 elements in STL file 'dem_walls_30X_14micronpore_mod_mesh.stl'
   successfully read a chunk of 100000 elements in STL file 'dem_walls_30X_14micronpore_mod_mesh.stl'
   successfully read a chunk of 100000 elements in STL file 'dem_walls_30X_14micronpore_mod_mesh.stl'
   successfully read a chunk of 100000 elements in STL file 'dem_walls_30X_14micronpore_mod_mesh.stl'
   successfully read a chunk of 100000 elements in STL file 'dem_walls_30X_14micronpore_mod_mesh.stl'

Reading STL file 'in_cyl.stl' (mesh processing step 1/3) 

Reading STL file 'top_cyl.stl' (mesh processing step 1/3) 

Reading STL file 'bot_cyl.stl' (mesh processing step 1/3) 

Reading STL file 'bottom_disk.stl' (mesh processing step 1/3) 

Reading STL file 'top_disk.stl' (mesh processing step 1/3) 
Fix particledistribution/discrete (id prob_par): distribution based on mass%:
    r_0to10p: d=8.400000e-05 (max. bounding sphere) mass%=10.000000%
    r_10to50p: d=2.328000e-04 (max. bounding sphere) mass%=40.000000%
    r_50to90p: d=8.466000e-04 (max. bounding sphere) mass%=40.000000%
    r_90to100p: d=1.312200e-03 (max. bounding sphere) mass%=10.000000%
Fix particledistribution/discrete (id prob_par): distribution based on number%:
    r_0to10p: d=8.400000e-05 (max. bounding sphere) number%=83.887052%
    r_10to50p: d=2.328000e-04 (max. bounding sphere) number%=15.763181%
    r_50to90p: d=8.466000e-04 (max. bounding sphere) number%=0.327762%
    r_90to100p: d=1.312200e-03 (max. bounding sphere) number%=0.022006%
Setting up run at Fri Nov 25 07:42:09 2022

Import and parallelization of mesh cone_mesh containing 868 triangle(s) successful
Import and parallelization of mesh filter_mesh_walls containing 182784 triangle(s) successful
Import and parallelization of mesh inlet_cyl_wall_mesh containing 1064 triangle(s) successful
Import and parallelization of mesh top_cyl_wall_mesh containing 682 triangle(s) successful
Import and parallelization of mesh bot_cyl_wall_mesh containing 1280 triangle(s) successful
Import and parallelization of mesh bot_disk_wall_mesh containing 1682 triangle(s) successful
Import and parallelization of mesh top_disk_wall_mesh containing 1144 triangle(s) successful
Memory usage per processor = 1084.23 Mbytes
    Step    Atoms         KinEng            CPU 
       0        0              0              0 
Loop time of 5.69774e-05 on 40 procs for 0 steps with 0 atoms, finish time Fri Nov 25 07:42:12 2022


Pair  time (%) = 0 (0)
Neigh time (%) = 0 (0)
Comm  time (%) = 0 (0)
Outpt time (%) = 0 (0)
Other time (%) = 5.69774e-05 (100)

Nlocal:    0 ave 0 max 0 min
Histogram: 40 0 0 0 0 0 0 0 0 0
Nghost:    0 ave 0 max 0 min
Histogram: 40 0 0 0 0 0 0 0 0 0
Neighs:    0 ave 0 max 0 min
Histogram: 40 0 0 0 0 0 0 0 0 0

Total # of neighbors = 0
Neighbor list builds = 0
Dangerous builds = 0
Setting up run at Fri Nov 25 07:42:12 2022

Memory usage per processor = 1084.23 Mbytes
    Step    Atoms         KinEng            CPU 
       0        0              0              0 
       1        0              0    0.016696738 
Loop time of 0.0167103 on 40 procs for 1 steps with 0 atoms, finish time Fri Nov 25 07:42:12 2022


Pair  time (%) = 2.95945e-06 (0.0177104)
Neigh time (%) = 0 (0)
Comm  time (%) = 0.000233982 (1.40023)
Outpt time (%) = 0.00041356 (2.47489)
Other time (%) = 0.0160598 (96.1072)

Nlocal:    0 ave 0 max 0 min
Histogram: 40 0 0 0 0 0 0 0 0 0
Nghost:    0 ave 0 max 0 min
Histogram: 40 0 0 0 0 0 0 0 0 0
Neighs:    0 ave 0 max 0 min
Histogram: 40 0 0 0 0 0 0 0 0 0

Total # of neighbors = 0
Neighbor list builds = 0
Dangerous builds = 0
Scanning dump file ...
Reading snapshot from dump file ...
  orthogonal box = (-0.15 -0.15 -0.15) to (0.15 0.15 0.15)
  0 atoms before read
  4382 atoms in snapshot
  0 atoms purged
  0 atoms replaced
  0 atoms trimmed
  4382 atoms added
  4382 atoms after read
Setting atom values ...
  4382 settings made for type
  4382 settings made for density
  4382 settings made for vy
Setting up run at Fri Nov 25 07:42:13 2022

Memory usage per processor = 1088.62 Mbytes
    Step    Atoms         KinEng            CPU 
       1     4382  2.0416084e-07              0 
       2     4382   2.527916e-06    0.016132338 
Loop time of 0.0161427 on 40 procs for 1 steps with 4382 atoms, finish time Fri Nov 25 07:42:13 2022


Pair  time (%) = 5.3004e-06 (0.0328346)
Neigh time (%) = 0 (0)
Comm  time (%) = 9.30223e-06 (0.0576248)
Outpt time (%) = 0.00040376 (2.50119)
Other time (%) = 0.0157244 (97.4084)

Nlocal:    109.55 ave 1816 max 0 min
Histogram: 36 0 2 0 0 0 0 0 0 2
Nghost:    27.3 ave 345 max 0 min
Histogram: 36 0 0 0 0 1 1 0 0 2
Neighs:    35.525 ave 600 max 0 min
Histogram: 36 0 2 0 0 0 0 0 0 2

Total # of neighbors = 1421
Ave neighs/atom = 0.324281
Neighbor list builds = 0
Dangerous builds = 0
Setting up run at Fri Nov 25 07:42:13 2022

Memory usage per processor = 1088.62 Mbytes
    Step    Atoms         KinEng            CPU 
       2     4382   2.527916e-06              0 
  308699     4382  0.00030941701      5672.0806 
Loop time of 5672.08 on 40 procs for 308697 steps with 4382 atoms, finish time Fri Nov 25 09:16:45 2022


Pair  time (%) = 1.5846 (0.0279369)
Neigh time (%) = 3.29392 (0.0580725)
Comm  time (%) = 6.61098 (0.116553)
Outpt time (%) = 0.000919212 (1.62059e-05)
Other time (%) = 5660.59 (99.7974)

Nlocal:    109.55 ave 1775 max 0 min
Histogram: 36 0 2 0 0 0 0 0 0 2
Nghost:    28.1 ave 351 max 0 min
Histogram: 36 0 0 0 0 1 1 0 0 2
Neighs:    39.4 ave 669 max 0 min
Histogram: 36 0 2 0 0 0 0 0 0 2

Total # of neighbors = 1576
Ave neighs/atom = 0.359653
Neighbor list builds = 1306
Dangerous builds = 0
Setting up run at Fri Nov 25 09:16:45 2022

Memory usage per processor = 1088.62 Mbytes
    Step    Atoms         KinEng            CPU 
  308699     4382  0.00030941701              0 
  617396     4382  0.00041101485        5637.15 
Loop time of 5637.15 on 40 procs for 308697 steps with 4382 atoms, finish time Fri Nov 25 10:50:43 2022


Pair  time (%) = 1.6151 (0.0286511)
Neigh time (%) = 2.11544 (0.0375268)
Comm  time (%) = 6.76573 (0.12002)
Outpt time (%) = 0.000913972 (1.62134e-05)
Other time (%) = 5626.65 (99.8138)

Nlocal:    109.55 ave 1745 max 0 min
Histogram: 36 0 2 0 0 0 0 0 0 2
Nghost:    26.775 ave 334 max 0 min
Histogram: 36 0 0 0 0 1 1 0 0 2
Neighs:    40.925 ave 697 max 0 min
Histogram: 36 0 2 0 0 0 0 0 0 2

Total # of neighbors = 1637
Ave neighs/atom = 0.373574
Neighbor list builds = 851
Dangerous builds = 0
Setting up run at Fri Nov 25 10:50:43 2022

Memory usage per processor = 1088.62 Mbytes
    Step    Atoms         KinEng            CPU 
  617396     4382  0.00041101485              0 
  926093     4380  0.00093703154      5659.7182 
Loop time of 5659.72 on 40 procs for 308697 steps with 4380 atoms, finish time Fri Nov 25 12:25:03 2022


Pair  time (%) = 1.59995 (0.028269)
Neigh time (%) = 2.23888 (0.0395581)
Comm  time (%) = 6.78384 (0.119862)
Outpt time (%) = 0.000950858 (1.68004e-05)
Other time (%) = 5649.1 (99.8123)

Nlocal:    109.5 ave 1722 max 0 min
Histogram: 36 0 2 0 0 0 0 0 0 2
Nghost:    24.65 ave 301 max 0 min
Histogram: 36 0 0 0 0 0 2 0 0 2
Neighs:    41.825 ave 692 max 0 min
Histogram: 36 1 1 0 0 0 0 0 0 2

Total # of neighbors = 1673
Ave neighs/atom = 0.381963
Neighbor list builds = 891
Dangerous builds = 0
Setting up run at Fri Nov 25 12:25:03 2022

Memory usage per processor = 1088.62 Mbytes
    Step    Atoms         KinEng            CPU 
  926093     4380  0.00093703154              0 
 1234790     4378   0.0012757294       5720.485 
Loop time of 5720.49 on 40 procs for 308697 steps with 4378 atoms, finish time Fri Nov 25 14:00:23 2022


Pair  time (%) = 1.59478 (0.0278784)
Neigh time (%) = 2.17045 (0.0379417)
Comm  time (%) = 6.93275 (0.121192)
Outpt time (%) = 0.0010626 (1.85753e-05)
Other time (%) = 5709.79 (99.813)

Nlocal:    109.45 ave 1691 max 0 min
Histogram: 36 0 2 0 0 0 0 0 0 2
Nghost:    23.2 ave 283 max 0 min
Histogram: 36 0 0 0 0 0 2 0 0 2
Neighs:    38.075 ave 635 max 0 min
Histogram: 36 1 1 0 0 0 0 0 0 2

Total # of neighbors = 1523
Ave neighs/atom = 0.347876
Neighbor list builds = 861
Dangerous builds = 0
Setting up run at Fri Nov 25 14:00:23 2022

Memory usage per processor = 1088.62 Mbytes
    Step    Atoms         KinEng            CPU 
 1234790     4378   0.0012757294              0 
 1543487     4376   0.0016233787      5775.1014 
Loop time of 5775.1 on 40 procs for 308697 steps with 4376 atoms, finish time Fri Nov 25 15:36:39 2022


Pair  time (%) = 1.55019 (0.0268426)
Neigh time (%) = 2.07721 (0.0359684)
Comm  time (%) = 8.18049 (0.141651)
Outpt time (%) = 0.00131835 (2.28281e-05)
Other time (%) = 5763.29 (99.7955)

Nlocal:    109.4 ave 1679 max 0 min
Histogram: 36 0 2 0 0 0 0 0 0 2
Nghost:    22.275 ave 284 max 0 min
Histogram: 36 0 0 0 0 1 1 0 1 1
Neighs:    37.675 ave 617 max 0 min
Histogram: 36 1 1 0 0 0 0 0 0 2

Total # of neighbors = 1507
Ave neighs/atom = 0.344378
Neighbor list builds = 825
Dangerous builds = 0
Setting up run at Fri Nov 25 15:36:39 2022

Memory usage per processor = 1088.62 Mbytes
    Step    Atoms         KinEng            CPU 
 1543487     4376   0.0016233787              0 
 1852184     4376   0.0018533942      5825.3516 
Loop time of 5825.35 on 40 procs for 308697 steps with 4376 atoms, finish time Fri Nov 25 17:13:44 2022


Pair  time (%) = 1.53795 (0.0264009)
Neigh time (%) = 2.08308 (0.0357589)
Comm  time (%) = 9.51006 (0.163253)
Outpt time (%) = 0.00143977 (2.47156e-05)
Other time (%) = 5812.22 (99.7746)

Nlocal:    109.4 ave 1654 max 0 min
Histogram: 36 0 2 0 0 0 0 0 0 2
Nghost:    22.675 ave 300 max 0 min
Histogram: 36 0 0 0 0 2 0 0 1 1
Neighs:    38.625 ave 626 max 0 min
Histogram: 36 1 1 0 0 0 0 0 0 2

Total # of neighbors = 1545
Ave neighs/atom = 0.353062
Neighbor list builds = 825
Dangerous builds = 0
Setting up run at Fri Nov 25 17:13:45 2022

Memory usage per processor = 1088.62 Mbytes
    Step    Atoms         KinEng            CPU 
 1852184     4376   0.0018533942              0 
 2160881     4373   0.0023228269      5842.6455 
Loop time of 5842.65 on 40 procs for 308697 steps with 4373 atoms, finish time Fri Nov 25 18:51:07 2022


Pair  time (%) = 1.53254 (0.0262302)
Neigh time (%) = 2.08804 (0.0357379)
Comm  time (%) = 11.6283 (0.199025)
Outpt time (%) = 0.00143184 (2.45067e-05)
Other time (%) = 5827.4 (99.739)

Nlocal:    109.325 ave 1634 max 0 min
Histogram: 36 0 2 0 0 0 0 0 0 2
Nghost:    22.2 ave 283 max 0 min
Histogram: 36 0 0 0 0 2 0 0 0 2
Neighs:    38.1 ave 619 max 0 min
Histogram: 36 1 1 0 0 0 0 0 0 2

Total # of neighbors = 1524
Ave neighs/atom = 0.348502
Neighbor list builds = 825
Dangerous builds = 0
Setting up run at Fri Nov 25 18:51:07 2022

Memory usage per processor = 1088.62 Mbytes
    Step    Atoms         KinEng            CPU 
 2160881     4373   0.0023228269              0 
 2469578     4372   0.0033063993      5795.6449 
Loop time of 5795.65 on 40 procs for 308697 steps with 4372 atoms, finish time Fri Nov 25 20:27:43 2022


Pair  time (%) = 1.50366 (0.0259446)
Neigh time (%) = 2.08581 (0.0359893)
Comm  time (%) = 11.7903 (0.203433)
Outpt time (%) = 0.00164338 (2.83554e-05)
Other time (%) = 5780.26 (99.7346)

Nlocal:    109.3 ave 1621 max 0 min
Histogram: 36 0 2 0 0 0 0 0 0 2
Nghost:    22.325 ave 280 max 0 min
Histogram: 36 0 0 0 0 1 1 0 0 2
Neighs:    36.7 ave 597 max 0 min
Histogram: 36 1 1 0 0 0 0 0 0 2

Total # of neighbors = 1468
Ave neighs/atom = 0.335773
Neighbor list builds = 825
Dangerous builds = 0
Setting up run at Fri Nov 25 20:27:43 2022

Memory usage per processor = 1088.62 Mbytes
    Step    Atoms         KinEng            CPU 
 2469578     4372   0.0033063993              0 
 2778275     4372   0.0031108041      5832.2874 
Loop time of 5832.29 on 40 procs for 308697 steps with 4372 atoms, finish time Fri Nov 25 22:04:56 2022


Pair  time (%) = 1.51246 (0.0259326)
Neigh time (%) = 2.09636 (0.035944)
Comm  time (%) = 11.2573 (0.193017)
Outpt time (%) = 0.000782304 (1.34133e-05)
Other time (%) = 5817.42 (99.7451)

Nlocal:    109.3 ave 1595 max 0 min
Histogram: 36 0 2 0 0 0 0 0 0 2
Nghost:    21.15 ave 267 max 0 min
Histogram: 36 0 0 0 0 2 0 0 0 2
Neighs:    36.825 ave 584 max 0 min
Histogram: 36 0 1 1 0 0 0 0 0 2

Total # of neighbors = 1473
Ave neighs/atom = 0.336917
Neighbor list builds = 825
Dangerous builds = 0
Setting up run at Fri Nov 25 22:04:56 2022

Memory usage per processor = 1088.62 Mbytes
    Step    Atoms         KinEng            CPU 
 2778275     4372   0.0031108041              0 
 3086972     4370   0.0032042705      5862.2383 
Loop time of 5862.24 on 40 procs for 308697 steps with 4370 atoms, finish time Fri Nov 25 23:42:38 2022


Pair  time (%) = 1.50109 (0.0256061)
Neigh time (%) = 2.11244 (0.0360348)
Comm  time (%) = 10.5419 (0.179827)
Outpt time (%) = 0.00181955 (3.10385e-05)
Other time (%) = 5848.08 (99.7585)

Nlocal:    109.25 ave 1584 max 0 min
Histogram: 36 0 2 0 0 0 0 0 0 2
Nghost:    20.275 ave 258 max 0 min
Histogram: 36 0 0 0 0 1 1 0 0 2
Neighs:    37.325 ave 578 max 0 min
Histogram: 36 0 1 1 0 0 0 0 0 2

Total # of neighbors = 1493
Ave neighs/atom = 0.341648
Neighbor list builds = 825
Dangerous builds = 0
Setting up run at Fri Nov 25 23:42:38 2022

Memory usage per processor = 1088.62 Mbytes
    Step    Atoms         KinEng            CPU 
 3086972     4370   0.0032042705              0 
 3395669     4369   0.0036848557      5876.6261 
Loop time of 5876.63 on 40 procs for 308697 steps with 4369 atoms, finish time Sat Nov 26 01:20:35 2022


Pair  time (%) = 1.50315 (0.0255785)
Neigh time (%) = 2.11577 (0.0360032)
Comm  time (%) = 11.8092 (0.200952)
Outpt time (%) = 0.00169676 (2.88731e-05)
Other time (%) = 5861.2 (99.7374)

Nlocal:    109.225 ave 1576 max 0 min
Histogram: 36 0 2 0 0 0 0 0 0 2
Nghost:    20 ave 252 max 0 min
Histogram: 36 0 0 0 0 1 1 0 0 2
Neighs:    36.5 ave 584 max 0 min
Histogram: 36 0 2 0 0 0 0 0 0 2

Total # of neighbors = 1460
Ave neighs/atom = 0.334173
Neighbor list builds = 825
Dangerous builds = 0
Setting up run at Sat Nov 26 01:20:35 2022

Memory usage per processor = 1088.62 Mbytes
    Step    Atoms         KinEng            CPU 
 3395669     4369   0.0036848557              0 
 3704366     4365   0.0040673932      5871.5934 
Loop time of 5871.59 on 40 procs for 308697 steps with 4365 atoms, finish time Sat Nov 26 02:58:27 2022


Pair  time (%) = 1.48789 (0.0253405)
Neigh time (%) = 2.1967 (0.0374123)
Comm  time (%) = 13.2265 (0.225263)
Outpt time (%) = 0.00191073 (3.2542e-05)
Other time (%) = 5854.68 (99.712)

Nlocal:    109.125 ave 1578 max 0 min
Histogram: 36 0 2 0 0 0 0 0 0 2
Nghost:    20.35 ave 245 max 0 min
Histogram: 36 0 0 0 0 1 1 0 0 2
Neighs:    35.75 ave 593 max 0 min
Histogram: 36 0 2 0 0 0 0 0 0 2

Total # of neighbors = 1430
Ave neighs/atom = 0.327606
Neighbor list builds = 854
Dangerous builds = 0
Setting up run at Sat Nov 26 02:58:27 2022

Memory usage per processor = 1088.62 Mbytes
    Step    Atoms         KinEng            CPU 
 3704366     4365   0.0040673932              0 
 4013063     4364     0.00466889      5863.9693 
Loop time of 5863.99 on 40 procs for 308697 steps with 4364 atoms, finish time Sat Nov 26 04:36:11 2022


Pair  time (%) = 1.4878 (0.0253719)
Neigh time (%) = 2.11278 (0.0360297)
Comm  time (%) = 12.9577 (0.220971)
Outpt time (%) = 0.00184888 (3.15294e-05)
Other time (%) = 5847.43 (99.7176)

Nlocal:    109.1 ave 1565 max 0 min
Histogram: 36 0 2 0 0 0 0 0 0 2
Nghost:    19.725 ave 250 max 0 min
Histogram: 36 0 0 0 0 1 1 0 1 1
Neighs:    35.8 ave 580 max 0 min
Histogram: 36 0 2 0 0 0 0 0 0 2

Total # of neighbors = 1432
Ave neighs/atom = 0.328139
Neighbor list builds = 825
Dangerous builds = 0
Setting up run at Sat Nov 26 04:36:11 2022

Memory usage per processor = 1088.62 Mbytes
    Step    Atoms         KinEng            CPU 
 4013063     4364     0.00466889              0 
 4321760     4362   0.0051146984       5891.416 
Loop time of 5891.42 on 40 procs for 308697 steps with 4362 atoms, finish time Sat Nov 26 06:14:23 2022


Pair  time (%) = 1.49853 (0.0254359)
Neigh time (%) = 2.1119 (0.0358471)
Comm  time (%) = 12.0243 (0.204099)
Outpt time (%) = 0.00181209 (3.07582e-05)
Other time (%) = 5875.78 (99.7346)

Nlocal:    109.05 ave 1564 max 0 min
Histogram: 36 0 2 0 0 0 0 0 0 2
Nghost:    19.1 ave 233 max 0 min
Histogram: 36 0 0 0 0 0 2 0 0 2
Neighs:    35.85 ave 586 max 0 min
Histogram: 36 0 2 0 0 0 0 0 0 2

Total # of neighbors = 1434
Ave neighs/atom = 0.328748
Neighbor list builds = 825
Dangerous builds = 0
Setting up run at Sat Nov 26 06:14:23 2022

Memory usage per processor = 1088.62 Mbytes
    Step    Atoms         KinEng            CPU 
 4321760     4362   0.0051146984              0 
 4630457     4362   0.0054670741      5917.2233 
Loop time of 5917.23 on 40 procs for 308697 steps with 4362 atoms, finish time Sat Nov 26 07:53:00 2022


Pair  time (%) = 1.48061 (0.0250219)
Neigh time (%) = 2.12761 (0.0359561)
Comm  time (%) = 12.5795 (0.212591)
Outpt time (%) = 0.0205658 (0.000347557)
Other time (%) = 5901.03 (99.7261)

Nlocal:    109.05 ave 1573 max 0 min
Histogram: 36 0 2 0 0 0 0 0 0 2
Nghost:    19.425 ave 219 max 0 min
Histogram: 36 0 0 0 0 0 1 1 0 2
Neighs:    34.175 ave 563 max 0 min
Histogram: 36 1 1 0 0 0 0 0 0 2

Total # of neighbors = 1367
Ave neighs/atom = 0.313388
Neighbor list builds = 825
Dangerous builds = 0
Setting up run at Sat Nov 26 07:53:00 2022

Memory usage per processor = 1088.62 Mbytes
    Step    Atoms         KinEng            CPU 
 4630457     4362   0.0054670741              0 
 4939154     4360   0.0057821467      5947.9438 
Loop time of 5948.01 on 40 procs for 308697 steps with 4360 atoms, finish time Sat Nov 26 09:32:09 2022


Pair  time (%) = 1.4864 (0.02499)
Neigh time (%) = 2.22251 (0.0373657)
Comm  time (%) = 13.7633 (0.231394)
Outpt time (%) = 0.0222728 (0.000374458)
Other time (%) = 5930.51 (99.7059)

Nlocal:    109 ave 1578 max 0 min
Histogram: 36 0 2 0 0 0 0 0 0 2
Nghost:    19.4 ave 217 max 0 min
Histogram: 36 0 0 0 0 0 1 1 0 2
Neighs:    34.4 ave 563 max 0 min
Histogram: 36 2 0 0 0 0 0 0 0 2

Total # of neighbors = 1376
Ave neighs/atom = 0.315596
Neighbor list builds = 865
Dangerous builds = 0
Setting up run at Sat Nov 26 09:32:09 2022

Memory usage per processor = 1088.62 Mbytes
    Step    Atoms         KinEng            CPU 
 4939154     4360   0.0057821467              0 
 5247851     4359   0.0063553848      5962.8639 
Loop time of 5962.95 on 40 procs for 308697 steps with 4359 atoms, finish time Sat Nov 26 11:11:32 2022


Pair  time (%) = 1.48203 (0.0248539)
Neigh time (%) = 2.33788 (0.0392068)
Comm  time (%) = 14.528 (0.243638)
Outpt time (%) = 0.00208792 (3.50149e-05)
Other time (%) = 5944.6 (99.6923)

Nlocal:    108.975 ave 1569 max 0 min
Histogram: 36 0 2 0 0 0 0 0 0 2
Nghost:    18.75 ave 215 max 0 min
Histogram: 36 0 0 0 0 0 2 0 0 2
Neighs:    35.05 ave 600 max 0 min
Histogram: 36 2 0 0 0 0 0 0 0 2

Total # of neighbors = 1402
Ave neighs/atom = 0.321633
Neighbor list builds = 904
Dangerous builds = 0
Setting up run at Sat Nov 26 11:11:32 2022

Memory usage per processor = 1088.62 Mbytes
    Step    Atoms         KinEng            CPU 
 5247851     4359   0.0063553848              0 
 5556548     4357   0.0069313203      5975.1823 
Loop time of 5975.2 on 40 procs for 308697 steps with 4357 atoms, finish time Sat Nov 26 12:51:07 2022


Pair  time (%) = 1.49394 (0.0250024)
Neigh time (%) = 2.16911 (0.0363018)
Comm  time (%) = 15.1315 (0.253239)
Outpt time (%) = 0.00209336 (3.50341e-05)
Other time (%) = 5956.4 (99.6854)

Nlocal:    108.925 ave 1566 max 0 min
Histogram: 35 2 1 0 0 0 0 0 0 2
Nghost:    18.325 ave 214 max 0 min
Histogram: 36 0 0 0 0 0 1 1 1 1
Neighs:    35.825 ave 612 max 0 min
Histogram: 36 2 0 0 0 0 0 0 0 2

Total # of neighbors = 1433
Ave neighs/atom = 0.328896
Neighbor list builds = 839
Dangerous builds = 0
Setting up run at Sat Nov 26 12:51:08 2022

Memory usage per processor = 1088.62 Mbytes
    Step    Atoms         KinEng            CPU 
 5556548     4357   0.0069313203              0 
 5865245     4353   0.0074398731      5962.4142 
Loop time of 5962.43 on 40 procs for 308697 steps with 4353 atoms, finish time Sat Nov 26 14:30:30 2022


Pair  time (%) = 1.46624 (0.0245914)
Neigh time (%) = 2.1321 (0.0357589)
Comm  time (%) = 13.8494 (0.232277)
Outpt time (%) = 0.0197474 (0.000331198)
Other time (%) = 5944.96 (99.707)

Nlocal:    108.825 ave 1553 max 0 min
Histogram: 35 1 2 0 0 0 0 0 0 2
Nghost:    17.95 ave 199 max 0 min
Histogram: 36 0 0 0 0 0 0 2 0 2
Neighs:    33.4 ave 595 max 0 min
Histogram: 36 2 0 0 0 0 0 0 0 2

Total # of neighbors = 1336
Ave neighs/atom = 0.306915
Neighbor list builds = 828
Dangerous builds = 0
Setting up run at Sat Nov 26 14:30:30 2022

Memory usage per processor = 1088.62 Mbytes
    Step    Atoms         KinEng            CPU 
 5865245     4353   0.0074398731              0 
 6173942     4350   0.0079550912      5941.7818 
Loop time of 5941.79 on 40 procs for 308697 steps with 4350 atoms, finish time Sat Nov 26 16:09:32 2022


Pair  time (%) = 1.44423 (0.0243064)
Neigh time (%) = 2.23872 (0.0376775)
Comm  time (%) = 13.4124 (0.225729)
Outpt time (%) = 0.00201395 (3.38947e-05)
Other time (%) = 5924.69 (99.7123)

Nlocal:    108.75 ave 1544 max 0 min
Histogram: 35 1 2 0 0 0 0 0 0 2
Nghost:    17.8 ave 208 max 0 min
Histogram: 36 0 0 0 0 0 2 0 1 1
Neighs:    33.275 ave 586 max 0 min
Histogram: 36 2 0 0 0 0 0 0 0 2

Total # of neighbors = 1331
Ave neighs/atom = 0.305977
Neighbor list builds = 866
Dangerous builds = 0
Setting up run at Sat Nov 26 16:09:32 2022

Memory usage per processor = 1088.62 Mbytes
    Step    Atoms         KinEng            CPU 
 6173942     4350   0.0079550912              0 
 6482639     4349   0.0085752792      5943.3118 
Loop time of 5943.31 on 40 procs for 308697 steps with 4349 atoms, finish time Sat Nov 26 17:48:36 2022


Pair  time (%) = 1.43491 (0.0241433)
Neigh time (%) = 2.15551 (0.0362678)
Comm  time (%) = 13.0808 (0.220093)
Outpt time (%) = 0.00210838 (3.54748e-05)
Other time (%) = 5926.64 (99.7195)

Nlocal:    108.725 ave 1546 max 0 min
Histogram: 34 2 2 0 0 0 0 0 0 2
Nghost:    17.075 ave 199 max 0 min
Histogram: 36 0 0 0 0 0 2 0 0 2
Neighs:    32.65 ave 567 max 0 min
Histogram: 36 2 0 0 0 0 0 0 0 2

Total # of neighbors = 1306
Ave neighs/atom = 0.300299
Neighbor list builds = 832
Dangerous builds = 0
Setting up run at Sat Nov 26 17:48:36 2022

Memory usage per processor = 1088.62 Mbytes
    Step    Atoms         KinEng            CPU 
 6482639     4349   0.0085752792              0 
 6791336     4347   0.0091007545      6001.6349 
Loop time of 6001.64 on 40 procs for 308697 steps with 4347 atoms, finish time Sat Nov 26 19:28:38 2022


Pair  time (%) = 1.45319 (0.0242133)
Neigh time (%) = 2.21566 (0.0369176)
Comm  time (%) = 12.5146 (0.208519)
Outpt time (%) = 0.00217759 (3.62833e-05)
Other time (%) = 5985.45 (99.7303)

Nlocal:    108.675 ave 1537 max 0 min
Histogram: 34 2 2 0 0 0 0 0 0 2
Nghost:    17.225 ave 198 max 0 min
Histogram: 36 0 0 0 0 0 2 0 0 2
Neighs:    32.6 ave 575 max 0 min
Histogram: 36 2 0 0 0 0 0 0 0 2

Total # of neighbors = 1304
Ave neighs/atom = 0.299977
Neighbor list builds = 855
Dangerous builds = 0
Setting up run at Sat Nov 26 19:28:38 2022

Memory usage per processor = 1088.62 Mbytes
    Step    Atoms         KinEng            CPU 
 6791336     4347   0.0091007545              0 
 7100033     4343   0.0095667814      6060.2997 
Loop time of 6060.3 on 40 procs for 308697 steps with 4343 atoms, finish time Sat Nov 26 21:09:38 2022


Pair  time (%) = 1.455 (0.0240087)
Neigh time (%) = 2.17888 (0.0359534)
Comm  time (%) = 13.7995 (0.227704)
Outpt time (%) = 0.00214896 (3.54597e-05)
Other time (%) = 6042.86 (99.7123)

Nlocal:    108.575 ave 1534 max 0 min
Histogram: 35 1 2 0 0 0 0 0 0 2
Nghost:    16.9 ave 199 max 0 min
Histogram: 36 0 0 0 0 2 0 0 0 2
Neighs:    32.05 ave 546 max 0 min
Histogram: 36 2 0 0 0 0 0 0 0 2

Total # of neighbors = 1282
Ave neighs/atom = 0.295188
Neighbor list builds = 842
Dangerous builds = 0
Setting up run at Sat Nov 26 21:09:38 2022

Memory usage per processor = 1088.62 Mbytes
    Step    Atoms         KinEng            CPU 
 7100033     4343   0.0095667814              0 
 7408730     4340    0.010166127      5988.5486 
Loop time of 5988.55 on 40 procs for 308697 steps with 4340 atoms, finish time Sat Nov 26 22:49:27 2022


Pair  time (%) = 1.45592 (0.0243117)
Neigh time (%) = 2.20742 (0.0368606)
Comm  time (%) = 15.183 (0.253534)
Outpt time (%) = 0.00226444 (3.78128e-05)
Other time (%) = 5969.7 (99.6853)

Nlocal:    108.5 ave 1527 max 0 min
Histogram: 34 2 2 0 0 0 0 0 0 2
Nghost:    16.275 ave 196 max 0 min
Histogram: 36 0 0 0 0 2 0 0 0 2
Neighs:    32.375 ave 561 max 0 min
Histogram: 37 1 0 0 0 0 0 0 0 2

Total # of neighbors = 1295
Ave neighs/atom = 0.298387
Neighbor list builds = 853
Dangerous builds = 0
Setting up run at Sat Nov 26 22:49:27 2022

Memory usage per processor = 1088.62 Mbytes
    Step    Atoms         KinEng            CPU 
 7408730     4340    0.010166127              0 
 7717427     4339    0.010723615      5989.0379 
Loop time of 5989.04 on 40 procs for 308697 steps with 4339 atoms, finish time Sun Nov 27 00:29:16 2022


Pair  time (%) = 1.44509 (0.0241289)
Neigh time (%) = 2.13895 (0.0357143)
Comm  time (%) = 13.4744 (0.224984)
Outpt time (%) = 0.00228692 (3.81851e-05)
Other time (%) = 5971.98 (99.7151)

Nlocal:    108.475 ave 1518 max 0 min
Histogram: 33 3 2 0 0 0 0 0 0 2
Nghost:    16.125 ave 194 max 0 min
Histogram: 36 0 0 0 0 1 1 0 1 1
Neighs:    32.325 ave 562 max 0 min
Histogram: 37 1 0 0 0 0 0 0 0 2

Total # of neighbors = 1293
Ave neighs/atom = 0.297995
Neighbor list builds = 825
Dangerous builds = 0
Setting up run at Sun Nov 27 00:29:16 2022

Memory usage per processor = 1088.62 Mbytes
    Step    Atoms         KinEng            CPU 
 7717427     4339    0.010723615              0 
 8026124     4337    0.011270977      5994.0873 
Loop time of 5994.09 on 40 procs for 308697 steps with 4337 atoms, finish time Sun Nov 27 02:09:11 2022


Pair  time (%) = 1.43617 (0.0239599)
Neigh time (%) = 2.18638 (0.0364756)
Comm  time (%) = 13.1726 (0.21976)
Outpt time (%) = 0.00223158 (3.72297e-05)
Other time (%) = 5977.29 (99.7198)

Nlocal:    108.425 ave 1524 max 0 min
Histogram: 33 3 2 0 0 0 0 0 0 2
Nghost:    16.275 ave 184 max 0 min
Histogram: 36 0 0 0 0 0 2 0 0 2
Neighs:    31.925 ave 580 max 0 min
Histogram: 37 1 0 0 0 0 0 0 1 1

Total # of neighbors = 1277
Ave neighs/atom = 0.294443
Neighbor list builds = 840
Dangerous builds = 0
Setting up run at Sun Nov 27 02:09:11 2022

Memory usage per processor = 1088.62 Mbytes
    Step    Atoms         KinEng            CPU 
 8026124     4337    0.011270977              0 
 8334821     4335    0.011885465      5972.0592 
Loop time of 5972.06 on 40 procs for 308697 steps with 4335 atoms, finish time Sun Nov 27 03:48:43 2022


Pair  time (%) = 1.42933 (0.0239336)
Neigh time (%) = 2.14848 (0.0359755)
Comm  time (%) = 14.5574 (0.243759)
Outpt time (%) = 0.00220015 (3.68408e-05)
Other time (%) = 5953.92 (99.6963)

Nlocal:    108.375 ave 1519 max 0 min
Histogram: 33 3 2 0 0 0 0 0 0 2
Nghost:    15.875 ave 182 max 0 min
Histogram: 36 0 0 0 0 0 2 0 0 2
Neighs:    31.2 ave 575 max 0 min
Histogram: 37 1 0 0 0 0 0 0 1 1

Total # of neighbors = 1248
Ave neighs/atom = 0.287889
Neighbor list builds = 827
Dangerous builds = 0
Setting up run at Sun Nov 27 03:48:43 2022

Memory usage per processor = 1088.62 Mbytes
    Step    Atoms         KinEng            CPU 
 8334821     4335    0.011885465              0 
 8643518     4331    0.012388607      6007.2682 
Loop time of 6007.29 on 40 procs for 308697 steps with 4331 atoms, finish time Sun Nov 27 05:28:51 2022


Pair  time (%) = 1.44301 (0.024021)
Neigh time (%) = 2.14896 (0.0357725)
Comm  time (%) = 13.6837 (0.227784)
Outpt time (%) = 0.00224203 (3.73218e-05)
Other time (%) = 5990.01 (99.7124)

Nlocal:    108.275 ave 1502 max 0 min
Histogram: 32 4 2 0 0 0 0 0 0 2
Nghost:    15.65 ave 195 max 0 min
Histogram: 36 0 0 0 0 2 0 0 1 1
Neighs:    30.975 ave 562 max 0 min
Histogram: 37 1 0 0 0 0 0 0 1 1

Total # of neighbors = 1239
Ave neighs/atom = 0.286077
Neighbor list builds = 830
Dangerous builds = 0
Setting up run at Sun Nov 27 05:28:51 2022

Memory usage per processor = 1088.62 Mbytes
    Step    Atoms         KinEng            CPU 
 8643518     4331    0.012388607              0 
 8952215     4329    0.013232991      6010.8886 
Loop time of 6010.89 on 40 procs for 308697 steps with 4329 atoms, finish time Sun Nov 27 07:09:02 2022


Pair  time (%) = 1.45085 (0.0241371)
Neigh time (%) = 2.16246 (0.0359758)
Comm  time (%) = 12.708 (0.211416)
Outpt time (%) = 0.0023752 (3.9515e-05)
Other time (%) = 5994.57 (99.7284)

Nlocal:    108.225 ave 1501 max 0 min
Histogram: 33 3 2 0 0 0 0 0 0 2
Nghost:    15.55 ave 189 max 0 min
Histogram: 36 0 0 0 0 1 1 0 0 2
Neighs:    30.5 ave 571 max 0 min
Histogram: 37 1 0 0 0 0 0 0 1 1

Total # of neighbors = 1220
Ave neighs/atom = 0.28182
Neighbor list builds = 834
Dangerous builds = 0
Setting up run at Sun Nov 27 07:09:02 2022

Memory usage per processor = 1088.62 Mbytes
    Step    Atoms         KinEng            CPU 
 8952215     4329    0.013232991              0 
 9260912     4326    0.013624448      5980.8967 
Loop time of 5980.91 on 40 procs for 308697 steps with 4326 atoms, finish time Sun Nov 27 08:48:43 2022


Pair  time (%) = 1.46038 (0.0244174)
Neigh time (%) = 2.136 (0.0357136)
Comm  time (%) = 13.9411 (0.233093)
Outpt time (%) = 0.00219995 (3.67829e-05)
Other time (%) = 5963.37 (99.7067)

Nlocal:    108.15 ave 1490 max 0 min
Histogram: 33 3 2 0 0 0 0 0 0 2
Nghost:    15.375 ave 185 max 0 min
Histogram: 36 0 0 0 0 2 0 0 0 2
Neighs:    31.7 ave 571 max 0 min
Histogram: 36 2 0 0 0 0 0 0 1 1

Total # of neighbors = 1268
Ave neighs/atom = 0.293111
Neighbor list builds = 825
Dangerous builds = 0
Setting up run at Sun Nov 27 08:48:43 2022

Memory usage per processor = 1088.62 Mbytes
    Step    Atoms         KinEng            CPU 
 9260912     4326    0.013624448              0 
 9569609     4324    0.014197258      6082.3986 
Loop time of 6082.41 on 40 procs for 308697 steps with 4324 atoms, finish time Sun Nov 27 10:30:06 2022


Pair  time (%) = 1.4626 (0.0240464)
Neigh time (%) = 3.67324 (0.0603912)
Comm  time (%) = 19.1767 (0.315281)
Outpt time (%) = 0.00296272 (4.87096e-05)
Other time (%) = 6058.1 (99.6002)

Nlocal:    108.1 ave 1495 max 0 min
Histogram: 32 5 1 0 0 0 0 0 0 2
Nghost:    15.425 ave 185 max 0 min
Histogram: 36 0 0 0 0 2 0 0 0 2
Neighs:    31.6 ave 580 max 0 min
Histogram: 37 1 0 0 0 0 0 1 0 1

Total # of neighbors = 1264
Ave neighs/atom = 0.292322
Neighbor list builds = 1396
Dangerous builds = 0
Setting up run at Sun Nov 27 10:30:06 2022

Memory usage per processor = 1088.62 Mbytes
    Step    Atoms         KinEng            CPU 
 9569609     4324    0.014197258              0 
 9878306     4324    0.014862439      6076.8673 
Loop time of 6076.87 on 40 procs for 308697 steps with 4324 atoms, finish time Sun Nov 27 12:11:23 2022


Pair  time (%) = 1.47353 (0.0242482)
Neigh time (%) = 2.52187 (0.0414995)
Comm  time (%) = 15.2558 (0.251047)
Outpt time (%) = 0.00241608 (3.97587e-05)
Other time (%) = 6057.61 (99.6832)

Nlocal:    108.1 ave 1491 max 0 min
Histogram: 32 4 2 0 0 0 0 0 0 2
Nghost:    14.8 ave 179 max 0 min
Histogram: 36 0 0 0 0 2 0 0 0 2
Neighs:    30.95 ave 569 max 0 min
Histogram: 37 1 0 0 0 0 0 1 0 1

Total # of neighbors = 1238
Ave neighs/atom = 0.286309
Neighbor list builds = 963
Dangerous builds = 0
Setting up run at Sun Nov 27 12:11:23 2022

Memory usage per processor = 1088.62 Mbytes
    Step    Atoms         KinEng            CPU 
 9878306     4324    0.014862439              0 
10187003     4321    0.015664725      6039.7553 
Loop time of 6039.76 on 40 procs for 308697 steps with 4321 atoms, finish time Sun Nov 27 13:52:03 2022


Pair  time (%) = 1.45218 (0.0240437)
Neigh time (%) = 2.14465 (0.0355089)
Comm  time (%) = 14.6572 (0.242678)
Outpt time (%) = 0.00228221 (3.77864e-05)
Other time (%) = 6021.5 (99.6977)

Nlocal:    108.025 ave 1488 max 0 min
Histogram: 32 4 2 0 0 0 0 0 0 2
Nghost:    14.825 ave 173 max 0 min
Histogram: 36 0 0 0 0 1 1 0 0 2
Neighs:    31.05 ave 582 max 0 min
Histogram: 37 1 0 0 0 0 0 1 0 1

Total # of neighbors = 1242
Ave neighs/atom = 0.287433
Neighbor list builds = 825
Dangerous builds = 0
Setting up run at Sun Nov 27 13:52:03 2022

Memory usage per processor = 1088.62 Mbytes
    Step    Atoms         KinEng            CPU 
10187003     4321    0.015664725              0 
10495700     4320    0.016109287      6026.3031 
Loop time of 6026.3 on 40 procs for 308697 steps with 4320 atoms, finish time Sun Nov 27 15:32:30 2022


Pair  time (%) = 1.45648 (0.0241687)
Neigh time (%) = 2.15079 (0.03569)
Comm  time (%) = 12.4168 (0.206043)
Outpt time (%) = 0.000779988 (1.29431e-05)
Other time (%) = 6010.28 (99.7341)

Nlocal:    108 ave 1485 max 0 min
Histogram: 32 5 1 0 0 0 0 0 0 2
Nghost:    14.875 ave 174 max 0 min
Histogram: 36 0 0 0 0 1 1 0 0 2
Neighs:    31.425 ave 575 max 0 min
Histogram: 37 1 0 0 0 0 0 0 1 1

Total # of neighbors = 1257
Ave neighs/atom = 0.290972
Neighbor list builds = 828
Dangerous builds = 0
Setting up run at Sun Nov 27 15:32:30 2022

Memory usage per processor = 1088.62 Mbytes
    Step    Atoms         KinEng            CPU 
10495700     4320    0.016109287              0 
10804397     4320    0.016879702      6044.5484 
Loop time of 6044.56 on 40 procs for 308697 steps with 4320 atoms, finish time Sun Nov 27 17:13:14 2022


Pair  time (%) = 1.45709 (0.0241058)
Neigh time (%) = 2.1975 (0.0363551)
Comm  time (%) = 12.6925 (0.209983)
Outpt time (%) = 0.00244171 (4.03952e-05)
Other time (%) = 6028.21 (99.7295)

Nlocal:    108 ave 1474 max 0 min
Histogram: 32 4 2 0 0 0 0 0 0 2
Nghost:    14.675 ave 172 max 0 min
Histogram: 36 0 0 0 0 1 1 0 1 1
Neighs:    30.825 ave 570 max 0 min
Histogram: 36 2 0 0 0 0 0 0 1 1

Total # of neighbors = 1233
Ave neighs/atom = 0.285417
Neighbor list builds = 848
Dangerous builds = 0
Setting up run at Sun Nov 27 17:13:15 2022

Memory usage per processor = 1088.62 Mbytes
    Step    Atoms         KinEng            CPU 
10804397     4320    0.016879702              0 
11113094     4315    0.017363963      6051.3806 
Loop time of 6051.38 on 40 procs for 308697 steps with 4315 atoms, finish time Sun Nov 27 18:54:06 2022


Pair  time (%) = 1.45121 (0.0239815)
Neigh time (%) = 2.52483 (0.0417232)
Comm  time (%) = 15.2559 (0.252105)
Outpt time (%) = 0.00228296 (3.77263e-05)
Other time (%) = 6032.15 (99.6822)

Nlocal:    107.875 ave 1474 max 0 min
Histogram: 32 4 2 0 0 0 0 0 0 2
Nghost:    14.675 ave 159 max 0 min
Histogram: 36 0 0 0 0 1 0 1 0 2
Neighs:    29.5 ave 547 max 0 min
Histogram: 36 2 0 0 0 0 0 0 1 1

Total # of neighbors = 1180
Ave neighs/atom = 0.273465
Neighbor list builds = 968
Dangerous builds = 0
Setting up run at Sun Nov 27 18:54:06 2022

Memory usage per processor = 1088.62 Mbytes
    Step    Atoms         KinEng            CPU 
11113094     4315    0.017363963              0 
11421791     4313    0.017987122      6052.3924 
Loop time of 6052.4 on 40 procs for 308697 steps with 4313 atoms, finish time Sun Nov 27 20:34:59 2022


Pair  time (%) = 1.44217 (0.0238281)
Neigh time (%) = 2.19674 (0.0362954)
Comm  time (%) = 13.6349 (0.22528)
Outpt time (%) = 0.00247288 (4.08578e-05)
Other time (%) = 6035.13 (99.7146)

Nlocal:    107.825 ave 1472 max 0 min
Histogram: 32 4 2 0 0 0 0 0 0 2
Nghost:    14.825 ave 164 max 0 min
Histogram: 36 0 0 0 0 1 1 0 0 2
Neighs:    29.575 ave 556 max 0 min
Histogram: 38 0 0 0 0 0 0 0 1 1

Total # of neighbors = 1183
Ave neighs/atom = 0.274287
Neighbor list builds = 842
Dangerous builds = 0
Setting up run at Sun Nov 27 20:34:59 2022

Memory usage per processor = 1088.62 Mbytes
    Step    Atoms         KinEng            CPU 
11421791     4313    0.017987122              0 
11730488     4311    0.018824249      6058.4695 
Loop time of 6058.47 on 40 procs for 308697 steps with 4311 atoms, finish time Sun Nov 27 22:15:57 2022


Pair  time (%) = 1.55275 (0.0256295)
Neigh time (%) = 2.29013 (0.0378004)
Comm  time (%) = 13.8622 (0.228807)
Outpt time (%) = 0.00243553 (4.02003e-05)
Other time (%) = 6040.76 (99.7077)

Nlocal:    107.775 ave 1469 max 0 min
Histogram: 32 4 2 0 0 0 0 0 0 2
Nghost:    14.15 ave 164 max 0 min
Histogram: 36 0 0 0 0 1 1 0 0 2
Neighs:    28.775 ave 538 max 0 min
Histogram: 37 1 0 0 0 0 0 0 1 1

Total # of neighbors = 1151
Ave neighs/atom = 0.266991
Neighbor list builds = 879
Dangerous builds = 0
Setting up run at Sun Nov 27 22:15:58 2022

Memory usage per processor = 1088.62 Mbytes
    Step    Atoms         KinEng            CPU 
11730488     4311    0.018824249              0 
12039185     4308    0.019235813       6001.245 
Loop time of 6001.25 on 40 procs for 308697 steps with 4308 atoms, finish time Sun Nov 27 23:55:59 2022


Pair  time (%) = 1.44303 (0.0240454)
Neigh time (%) = 2.1401 (0.035661)
Comm  time (%) = 15.1546 (0.252524)
Outpt time (%) = 0.00236418 (3.93948e-05)
Other time (%) = 5982.51 (99.6877)

Nlocal:    107.7 ave 1464 max 0 min
Histogram: 33 4 1 0 0 0 0 0 0 2
Nghost:    14.5 ave 158 max 0 min
Histogram: 36 0 0 0 0 0 2 0 0 2
Neighs:    28.75 ave 518 max 0 min
Histogram: 37 1 0 0 0 0 0 0 1 1

Total # of neighbors = 1150
Ave neighs/atom = 0.266945
Neighbor list builds = 825
Dangerous builds = 0
Setting up run at Sun Nov 27 23:55:59 2022

Memory usage per processor = 1088.62 Mbytes
    Step    Atoms         KinEng            CPU 
12039185     4308    0.019235813              0 
12347882     4307    0.019821333      6051.2998 
Loop time of 6051.3 on 40 procs for 308697 steps with 4307 atoms, finish time Mon Nov 28 01:36:50 2022


Pair  time (%) = 1.44019 (0.0237996)
Neigh time (%) = 2.14131 (0.035386)
Comm  time (%) = 14.0611 (0.232364)
Outpt time (%) = 0.0024777 (4.09449e-05)
Other time (%) = 6033.66 (99.7084)

Nlocal:    107.675 ave 1454 max 0 min
Histogram: 32 5 1 0 0 0 0 0 0 2
Nghost:    14.575 ave 161 max 0 min
Histogram: 36 0 0 0 0 1 1 0 0 2
Neighs:    27.95 ave 500 max 0 min
Histogram: 36 2 0 0 0 0 0 0 1 1

Total # of neighbors = 1118
Ave neighs/atom = 0.259577
Neighbor list builds = 825
Dangerous builds = 0
Setting up run at Mon Nov 28 01:36:51 2022

Memory usage per processor = 1088.62 Mbytes
    Step    Atoms         KinEng            CPU 
12347882     4307    0.019821333              0 
12656579     4304    0.020527033       6065.128 
Loop time of 6065.13 on 40 procs for 308697 steps with 4304 atoms, finish time Mon Nov 28 03:17:56 2022


Pair  time (%) = 1.49709 (0.0246836)
Neigh time (%) = 2.14818 (0.0354186)
Comm  time (%) = 14.9817 (0.247014)
Outpt time (%) = 0.00237443 (3.91488e-05)
Other time (%) = 6046.5 (99.6928)

Nlocal:    107.6 ave 1451 max 0 min
Histogram: 33 3 2 0 0 0 0 0 0 2
Nghost:    15.15 ave 166 max 0 min
Histogram: 36 0 0 0 0 0 2 0 0 2
Neighs:    27.55 ave 479 max 0 min
Histogram: 35 3 0 0 0 0 0 0 1 1

Total # of neighbors = 1102
Ave neighs/atom = 0.256041
Neighbor list builds = 825
Dangerous builds = 0
Setting up run at Mon Nov 28 03:17:56 2022

Memory usage per processor = 1088.62 Mbytes
    Step    Atoms         KinEng            CPU 
12656579     4304    0.020527033              0 
12965276     4302    0.021214006      6045.9382 
Loop time of 6045.94 on 40 procs for 308697 steps with 4302 atoms, finish time Mon Nov 28 04:58:42 2022


Pair  time (%) = 1.44297 (0.0238667)
Neigh time (%) = 2.22526 (0.0368058)
Comm  time (%) = 15.5288 (0.256847)
Outpt time (%) = 0.00273307 (4.52051e-05)
Other time (%) = 6026.74 (99.6824)

Nlocal:    107.55 ave 1444 max 0 min
Histogram: 33 2 3 0 0 0 0 0 0 2
Nghost:    14.575 ave 160 max 0 min
Histogram: 35 1 0 0 0 0 2 0 0 2
Neighs:    27.5 ave 457 max 0 min
Histogram: 37 1 0 0 0 0 0 0 0 2

Total # of neighbors = 1100
Ave neighs/atom = 0.255695
Neighbor list builds = 856
Dangerous builds = 0
Setting up run at Mon Nov 28 04:58:42 2022

Memory usage per processor = 1088.62 Mbytes
    Step    Atoms         KinEng            CPU 
12965276     4302    0.021214006              0 
13273973     4299    0.021867623      6121.1088 
Loop time of 6121.11 on 40 procs for 308697 steps with 4299 atoms, finish time Mon Nov 28 06:40:44 2022


Pair  time (%) = 1.44293 (0.0235731)
Neigh time (%) = 2.29104 (0.0374285)
Comm  time (%) = 15.8514 (0.258963)
Outpt time (%) = 0.00266084 (4.347e-05)
Other time (%) = 6101.52 (99.68)

Nlocal:    107.475 ave 1439 max 0 min
Histogram: 32 3 3 0 0 0 0 0 0 2
Nghost:    14.825 ave 171 max 0 min
Histogram: 36 0 0 0 0 2 0 0 0 2
Neighs:    27.3 ave 437 max 0 min
Histogram: 36 2 0 0 0 0 0 0 0 2

Total # of neighbors = 1092
Ave neighs/atom = 0.254013
Neighbor list builds = 879
Dangerous builds = 0
Setting up run at Mon Nov 28 06:40:44 2022

Memory usage per processor = 1088.62 Mbytes
    Step    Atoms         KinEng            CPU 
13273973     4299    0.021867623              0 
13582670     4295    0.022355095      6024.9019 
Loop time of 6024.9 on 40 procs for 308697 steps with 4295 atoms, finish time Mon Nov 28 08:21:09 2022


Pair  time (%) = 1.44888 (0.0240482)
Neigh time (%) = 2.18948 (0.0363404)
Comm  time (%) = 15.0219 (0.249329)
Outpt time (%) = 0.00222789 (3.6978e-05)
Other time (%) = 6006.24 (99.6902)

Nlocal:    107.375 ave 1437 max 0 min
Histogram: 32 4 1 1 0 0 0 0 0 2
Nghost:    15.525 ave 175 max 0 min
Histogram: 36 0 0 0 0 1 1 0 1 1
Neighs:    27.225 ave 423 max 0 min
Histogram: 36 1 1 0 0 0 0 0 0 2

Total # of neighbors = 1089
Ave neighs/atom = 0.253551
Neighbor list builds = 840
Dangerous builds = 0
Setting up run at Mon Nov 28 08:21:09 2022

Memory usage per processor = 1088.62 Mbytes
    Step    Atoms         KinEng            CPU 
13582670     4295    0.022355095              0 
13891367     4292    0.022941724      6049.2088 
Loop time of 6049.21 on 40 procs for 308697 steps with 4292 atoms, finish time Mon Nov 28 10:01:58 2022


Pair  time (%) = 1.4115 (0.0233337)
Neigh time (%) = 2.18768 (0.0361647)
Comm  time (%) = 14.9609 (0.24732)
Outpt time (%) = 0.00243167 (4.01982e-05)
Other time (%) = 6030.65 (99.6931)

Nlocal:    107.3 ave 1431 max 0 min
Histogram: 32 4 2 0 0 0 0 0 0 2
Nghost:    15.1 ave 168 max 0 min
Histogram: 35 1 0 0 0 2 0 0 0 2
Neighs:    26.45 ave 415 max 0 min
Histogram: 37 1 0 0 0 0 0 0 0 2

Total # of neighbors = 1058
Ave neighs/atom = 0.246505
Neighbor list builds = 841
Dangerous builds = 0
Setting up run at Mon Nov 28 10:01:58 2022

Memory usage per processor = 1088.62 Mbytes
    Step    Atoms         KinEng            CPU 
13891367     4292    0.022941724              0 
14200064     4289    0.023558203      6079.8402 
Loop time of 6079.84 on 40 procs for 308697 steps with 4289 atoms, finish time Mon Nov 28 11:43:18 2022


Pair  time (%) = 1.42076 (0.0233684)
Neigh time (%) = 2.2496 (0.0370009)
Comm  time (%) = 14.7115 (0.241971)
Outpt time (%) = 0.0809936 (0.00133217)
Other time (%) = 6061.38 (99.6963)

Nlocal:    107.225 ave 1428 max 0 min
Histogram: 33 2 3 0 0 0 0 0 0 2
Nghost:    15.05 ave 171 max 0 min
Histogram: 35 1 0 0 0 1 1 0 0 2
Neighs:    26.65 ave 413 max 0 min
Histogram: 34 4 0 0 0 0 0 0 0 2

Total # of neighbors = 1066
Ave neighs/atom = 0.248543
Neighbor list builds = 859
Dangerous builds = 0
Setting up run at Mon Nov 28 11:43:18 2022

Memory usage per processor = 1088.62 Mbytes
    Step    Atoms         KinEng            CPU 
14200064     4289    0.023558203              0 
14508761     4288    0.024215059      6098.3804 
Loop time of 6098.39 on 40 procs for 308697 steps with 4288 atoms, finish time Mon Nov 28 13:24:57 2022


Pair  time (%) = 1.42339 (0.0233404)
Neigh time (%) = 2.18864 (0.0358889)
Comm  time (%) = 14.8595 (0.243663)
Outpt time (%) = 0.0207056 (0.000339525)
Other time (%) = 6079.9 (99.6968)

Nlocal:    107.2 ave 1424 max 0 min
Histogram: 32 4 2 0 0 0 0 0 0 2
Nghost:    14.625 ave 166 max 0 min
Histogram: 36 0 0 0 0 2 0 0 0 2
Neighs:    25.675 ave 405 max 0 min
Histogram: 35 2 1 0 0 0 0 0 0 2

Total # of neighbors = 1027
Ave neighs/atom = 0.239506
Neighbor list builds = 842
Dangerous builds = 0
Setting up run at Mon Nov 28 13:24:57 2022

Memory usage per processor = 1088.62 Mbytes
    Step    Atoms         KinEng            CPU 
14508761     4288    0.024215059              0 
14817458     4285    0.024777334      6130.1463 
Loop time of 6130.15 on 40 procs for 308697 steps with 4285 atoms, finish time Mon Nov 28 15:07:07 2022


Pair  time (%) = 1.52411 (0.0248625)
Neigh time (%) = 2.23514 (0.0364614)
Comm  time (%) = 15.7123 (0.256313)
Outpt time (%) = 0.153262 (0.00250014)
Other time (%) = 6110.52 (99.6799)

Nlocal:    107.125 ave 1414 max 0 min
Histogram: 32 3 3 0 0 0 0 0 0 2
Nghost:    15.3 ave 163 max 0 min
Histogram: 34 2 0 0 0 0 2 0 0 2
Neighs:    26.175 ave 399 max 0 min
Histogram: 36 1 1 0 0 0 0 0 0 2

Total # of neighbors = 1047
Ave neighs/atom = 0.244341
Neighbor list builds = 829
Dangerous builds = 0
Setting up run at Mon Nov 28 15:07:08 2022

Memory usage per processor = 1088.62 Mbytes
    Step    Atoms         KinEng            CPU 
14817458     4285    0.024777334              0 
15126155     4283    0.025148753      6201.4884 
Loop time of 6201.49 on 40 procs for 308697 steps with 4283 atoms, finish time Mon Nov 28 16:50:30 2022


Pair  time (%) = 1.42124 (0.0229177)
Neigh time (%) = 2.22459 (0.0358718)
Comm  time (%) = 14.9562 (0.241171)
Outpt time (%) = 0.00233188 (3.76019e-05)
Other time (%) = 6182.88 (99.7)

Nlocal:    107.075 ave 1402 max 0 min
Histogram: 32 4 1 1 0 0 0 0 0 2
Nghost:    15.3 ave 172 max 0 min
Histogram: 35 1 0 0 0 2 0 0 0 2
Neighs:    26 ave 391 max 0 min
Histogram: 36 1 1 0 0 0 0 0 0 2

Total # of neighbors = 1040
Ave neighs/atom = 0.24282
Neighbor list builds = 852
Dangerous builds = 0
Setting up run at Mon Nov 28 16:50:30 2022

Memory usage per processor = 1088.62 Mbytes
    Step    Atoms         KinEng            CPU 
15126155     4283    0.025148753              0 
15434852     4279    0.025764365      6253.5168 
Loop time of 6253.52 on 40 procs for 308697 steps with 4279 atoms, finish time Mon Nov 28 18:34:43 2022


Pair  time (%) = 1.42236 (0.0227449)
Neigh time (%) = 2.2005 (0.0351882)
Comm  time (%) = 15.4891 (0.247685)
Outpt time (%) = 0.0232238 (0.000371372)
Other time (%) = 6234.38 (99.694)

Nlocal:    106.975 ave 1394 max 0 min
Histogram: 32 4 2 0 0 0 0 0 0 2
Nghost:    15.25 ave 182 max 0 min
Histogram: 36 0 0 0 0 2 0 0 1 1
Neighs:    25.825 ave 386 max 0 min
Histogram: 36 1 0 1 0 0 0 0 0 2

Total # of neighbors = 1033
Ave neighs/atom = 0.241412
Neighbor list builds = 849
Dangerous builds = 0
Setting up run at Mon Nov 28 18:34:44 2022

Memory usage per processor = 1088.62 Mbytes
    Step    Atoms         KinEng            CPU 
15434852     4279    0.025764365              0 
15743549     4279    0.026285056      6148.5396 
Loop time of 6148.54 on 40 procs for 308697 steps with 4279 atoms, finish time Mon Nov 28 20:17:12 2022


Pair  time (%) = 1.44125 (0.0234405)
Neigh time (%) = 2.22096 (0.0361218)
Comm  time (%) = 15.913 (0.258809)
Outpt time (%) = 0.0026798 (4.35843e-05)
Other time (%) = 6128.96 (99.6816)

Nlocal:    106.975 ave 1380 max 0 min
Histogram: 32 3 3 0 0 0 0 0 0 2
Nghost:    14.7 ave 172 max 0 min
Histogram: 35 1 0 0 1 1 0 0 0 2
Neighs:    25.85 ave 383 max 0 min
Histogram: 35 2 0 1 0 0 0 0 0 2

Total # of neighbors = 1034
Ave neighs/atom = 0.241645
Neighbor list builds = 852
Dangerous builds = 0
Setting up run at Mon Nov 28 20:17:13 2022

Memory usage per processor = 1088.62 Mbytes
    Step    Atoms         KinEng            CPU 
15743549     4279    0.026285056              0 
16052246     4274    0.027039356      6085.5593 
Loop time of 6085.57 on 40 procs for 308697 steps with 4274 atoms, finish time Mon Nov 28 21:58:38 2022


Pair  time (%) = 1.44165 (0.0236896)
Neigh time (%) = 2.24048 (0.0368163)
Comm  time (%) = 15.3173 (0.251698)
Outpt time (%) = 0.00259798 (4.26909e-05)
Other time (%) = 6066.57 (99.6878)

Nlocal:    106.85 ave 1380 max 0 min
Histogram: 32 3 2 1 0 0 0 0 0 2
Nghost:    14.875 ave 174 max 0 min
Histogram: 35 1 0 0 1 1 0 0 0 2
Neighs:    26.925 ave 393 max 0 min
Histogram: 34 3 0 1 0 0 0 0 0 2

Total # of neighbors = 1077
Ave neighs/atom = 0.251989
Neighbor list builds = 861
Dangerous builds = 0
Setting up run at Mon Nov 28 21:58:38 2022

Memory usage per processor = 1088.62 Mbytes
    Step    Atoms         KinEng            CPU 
16052246     4274    0.027039356              0 
16360943     4270    0.027614812      6084.1166 
Loop time of 6084.12 on 40 procs for 308697 steps with 4270 atoms, finish time Mon Nov 28 23:40:03 2022


Pair  time (%) = 1.43581 (0.0235992)
Neigh time (%) = 2.16317 (0.0355543)
Comm  time (%) = 14.0536 (0.230988)
Outpt time (%) = 0.00264288 (4.34391e-05)
Other time (%) = 6066.46 (99.7098)

Nlocal:    106.75 ave 1379 max 0 min
Histogram: 32 3 3 0 0 0 0 0 0 2
Nghost:    15.025 ave 178 max 0 min
Histogram: 36 0 0 0 1 1 0 0 0 2
Neighs:    27.275 ave 392 max 0 min
Histogram: 35 2 0 1 0 0 0 0 0 2

Total # of neighbors = 1091
Ave neighs/atom = 0.255504
Neighbor list builds = 828
Dangerous builds = 0
Setting up run at Mon Nov 28 23:40:03 2022

Memory usage per processor = 1088.62 Mbytes
    Step    Atoms         KinEng            CPU 
16360943     4270    0.027614812              0 
16669640     4267    0.027933409      6099.0701 
Loop time of 6099.07 on 40 procs for 308697 steps with 4267 atoms, finish time Tue Nov 29 01:21:42 2022


Pair  time (%) = 1.45319 (0.0238263)
Neigh time (%) = 3.52215 (0.0577489)
Comm  time (%) = 21.6245 (0.354555)
Outpt time (%) = 0.00234106 (3.83839e-05)
Other time (%) = 6072.47 (99.5638)

Nlocal:    106.675 ave 1367 max 0 min
Histogram: 32 4 1 1 0 0 0 0 0 2
Nghost:    14.625 ave 166 max 0 min
Histogram: 35 1 0 0 1 1 0 0 0 2
Neighs:    27.075 ave 385 max 0 min
Histogram: 35 2 0 0 1 0 0 0 0 2

Total # of neighbors = 1083
Ave neighs/atom = 0.253808
Neighbor list builds = 1335
Dangerous builds = 0
Setting up run at Tue Nov 29 01:21:42 2022

Memory usage per processor = 1088.62 Mbytes
    Step    Atoms         KinEng            CPU 
16669640     4267    0.027933409              0 
16978337     4260    0.028480351      6069.3849 
Loop time of 6069.4 on 40 procs for 308697 steps with 4260 atoms, finish time Tue Nov 29 03:02:52 2022


Pair  time (%) = 1.4573 (0.0240107)
Neigh time (%) = 2.2563 (0.0371751)
Comm  time (%) = 15.6537 (0.257912)
Outpt time (%) = 0.00247025 (4.07e-05)
Other time (%) = 6050.03 (99.6809)

Nlocal:    106.5 ave 1361 max 0 min
Histogram: 32 3 3 0 0 0 0 0 0 2
Nghost:    15.45 ave 170 max 0 min
Histogram: 35 1 0 0 1 0 1 0 0 2
Neighs:    29.2 ave 396 max 0 min
Histogram: 34 2 1 1 0 0 0 0 0 2

Total # of neighbors = 1168
Ave neighs/atom = 0.274178
Neighbor list builds = 868
Dangerous builds = 0
Setting up run at Tue Nov 29 03:02:52 2022

Memory usage per processor = 1088.62 Mbytes
    Step    Atoms         KinEng            CPU 
16978337     4260    0.028480351              0 
17287034     4256    0.028906534      6159.9884 
Loop time of 6159.99 on 40 procs for 308697 steps with 4256 atoms, finish time Tue Nov 29 04:45:32 2022


Pair  time (%) = 1.45173 (0.0235671)
Neigh time (%) = 2.65692 (0.0431319)
Comm  time (%) = 17.8641 (0.290001)
Outpt time (%) = 0.00249704 (4.05364e-05)
Other time (%) = 6138.02 (99.6433)

Nlocal:    106.4 ave 1355 max 0 min
Histogram: 32 3 2 1 0 0 0 0 0 2
Nghost:    15.5 ave 186 max 0 min
Histogram: 36 0 0 1 0 1 0 0 0 2
Neighs:    28.8 ave 399 max 0 min
Histogram: 35 1 0 2 0 0 0 0 0 2

Total # of neighbors = 1152
Ave neighs/atom = 0.270677
Neighbor list builds = 1016
Dangerous builds = 0
Setting up run at Tue Nov 29 04:45:32 2022

Memory usage per processor = 1088.62 Mbytes
    Step    Atoms         KinEng            CPU 
17287034     4256    0.028906534              0 
17595731     4254     0.02955601      6086.3707 
Loop time of 6086.38 on 40 procs for 308697 steps with 4254 atoms, finish time Tue Nov 29 06:26:58 2022


Pair  time (%) = 1.4524 (0.0238631)
Neigh time (%) = 2.91648 (0.0479182)
Comm  time (%) = 18.8392 (0.30953)
Outpt time (%) = 0.00294788 (4.84342e-05)
Other time (%) = 6063.16 (99.6186)

Nlocal:    106.35 ave 1347 max 0 min
Histogram: 32 3 3 0 0 0 0 0 0 2
Nghost:    15.05 ave 169 max 0 min
Histogram: 35 0 1 0 1 1 0 0 0 2
Neighs:    28.15 ave 399 max 0 min
Histogram: 36 1 0 0 0 1 0 0 0 2

Total # of neighbors = 1126
Ave neighs/atom = 0.264692
Neighbor list builds = 1112
Dangerous builds = 0
Setting up run at Tue Nov 29 06:26:59 2022

Memory usage per processor = 1088.62 Mbytes
    Step    Atoms         KinEng            CPU 
17595731     4254     0.02955601              0 
17904428     4251    0.030259922      6109.2536 
Loop time of 6109.26 on 40 procs for 308697 steps with 4251 atoms, finish time Tue Nov 29 08:08:48 2022


Pair  time (%) = 1.45183 (0.0237644)
Neigh time (%) = 2.22129 (0.0363594)
Comm  time (%) = 15.47 (0.253222)
Outpt time (%) = 0.0251149 (0.000411095)
Other time (%) = 6090.1 (99.6862)

Nlocal:    106.275 ave 1351 max 0 min
Histogram: 32 3 3 0 0 0 0 0 0 2
Nghost:    15.55 ave 175 max 0 min
Histogram: 35 0 1 0 1 1 0 0 0 2
Neighs:    27.5 ave 378 max 0 min
Histogram: 35 2 0 0 0 1 0 0 0 2

Total # of neighbors = 1100
Ave neighs/atom = 0.258763
Neighbor list builds = 853
Dangerous builds = 0
Setting up run at Tue Nov 29 08:08:48 2022

Memory usage per processor = 1088.62 Mbytes
    Step    Atoms         KinEng            CPU 
17904428     4251    0.030259922              0 
18213125     4246    0.030463299      6090.6604 
Loop time of 6090.66 on 40 procs for 308697 steps with 4246 atoms, finish time Tue Nov 29 09:50:19 2022


Pair  time (%) = 1.4444 (0.0237149)
Neigh time (%) = 2.27126 (0.0372909)
Comm  time (%) = 15.075 (0.247511)
Outpt time (%) = 0.000741188 (1.21693e-05)
Other time (%) = 6071.87 (99.6915)

Nlocal:    106.15 ave 1340 max 0 min
Histogram: 32 3 2 1 0 0 0 0 0 2
Nghost:    15.5 ave 175 max 0 min
Histogram: 35 1 0 0 1 1 0 0 0 2
Neighs:    27.45 ave 380 max 0 min
Histogram: 35 1 1 0 0 1 0 0 1 1

Total # of neighbors = 1098
Ave neighs/atom = 0.258596
Neighbor list builds = 869
Dangerous builds = 0
Setting up run at Tue Nov 29 09:50:19 2022

Memory usage per processor = 1088.62 Mbytes
    Step    Atoms         KinEng            CPU 
18213125     4246    0.030463299              0 
18521822     4243    0.030897953      6145.8172 
Loop time of 6145.83 on 40 procs for 308697 steps with 4243 atoms, finish time Tue Nov 29 11:32:45 2022


Pair  time (%) = 1.44776 (0.0235568)
Neigh time (%) = 2.33265 (0.037955)
Comm  time (%) = 16.2099 (0.263755)
Outpt time (%) = 0.00262695 (4.27437e-05)
Other time (%) = 6125.83 (99.6747)

Nlocal:    106.075 ave 1339 max 0 min
Histogram: 32 2 4 0 0 0 0 0 0 2
Nghost:    14.975 ave 179 max 0 min
Histogram: 35 1 0 0 2 0 0 0 1 1
Neighs:    27.6 ave 375 max 0 min
Histogram: 35 1 1 0 0 1 0 0 1 1

Total # of neighbors = 1104
Ave neighs/atom = 0.260193
Neighbor list builds = 897
Dangerous builds = 0
Setting up run at Tue Nov 29 11:32:45 2022

Memory usage per processor = 1088.62 Mbytes
    Step    Atoms         KinEng            CPU 
18521822     4243    0.030897953              0 
18830519     4241    0.031518916      6090.1903 
Loop time of 6090.2 on 40 procs for 308697 steps with 4241 atoms, finish time Tue Nov 29 13:14:16 2022


Pair  time (%) = 1.46152 (0.0239979)
Neigh time (%) = 2.3504 (0.0385931)
Comm  time (%) = 16.4058 (0.26938)
Outpt time (%) = 0.00242279 (3.97818e-05)
Other time (%) = 6069.98 (99.668)

Nlocal:    106.025 ave 1327 max 0 min
Histogram: 32 4 1 1 0 0 0 0 0 2
Nghost:    15.325 ave 192 max 0 min
Histogram: 35 1 0 1 0 1 0 0 1 1
Neighs:    27.125 ave 357 max 0 min
Histogram: 36 0 0 1 0 0 1 0 1 1

Total # of neighbors = 1085
Ave neighs/atom = 0.255836
Neighbor list builds = 901
Dangerous builds = 0
Setting up run at Tue Nov 29 13:14:16 2022

Memory usage per processor = 1088.62 Mbytes
    Step    Atoms         KinEng            CPU 
18830519     4241    0.031518916              0 
19139216     4235    0.031830901      6072.1844 
Loop time of 6072.19 on 40 procs for 308697 steps with 4235 atoms, finish time Tue Nov 29 14:55:28 2022


Pair  time (%) = 1.44429 (0.0237854)
Neigh time (%) = 2.24617 (0.0369911)
Comm  time (%) = 14.7902 (0.243572)
Outpt time (%) = 0.00275157 (4.53143e-05)
Other time (%) = 6053.71 (99.6956)

Nlocal:    105.875 ave 1323 max 0 min
Histogram: 32 3 2 1 0 0 0 0 0 2
Nghost:    14.925 ave 167 max 0 min
Histogram: 35 0 1 0 1 1 0 0 0 2
Neighs:    25.475 ave 352 max 0 min
Histogram: 36 1 0 0 0 0 1 0 1 1

Total # of neighbors = 1019
Ave neighs/atom = 0.240614
Neighbor list builds = 864
Dangerous builds = 0
Setting up run at Tue Nov 29 14:55:28 2022

Memory usage per processor = 1088.62 Mbytes
    Step    Atoms         KinEng            CPU 
19139216     4235    0.031830901              0 
19447913     4233    0.032241056      6125.3155 
Loop time of 6125.32 on 40 procs for 308697 steps with 4233 atoms, finish time Tue Nov 29 16:37:34 2022


Pair  time (%) = 1.44622 (0.0236106)
Neigh time (%) = 2.30202 (0.037582)
Comm  time (%) = 15.858 (0.258893)
Outpt time (%) = 0.00255072 (4.16422e-05)
Other time (%) = 6105.71 (99.6799)

Nlocal:    105.825 ave 1324 max 0 min
Histogram: 32 3 3 0 0 0 0 0 0 2
Nghost:    14.575 ave 168 max 0 min
Histogram: 35 1 0 0 1 1 0 0 0 2
Neighs:    25.35 ave 336 max 0 min
Histogram: 35 2 0 0 0 0 1 0 0 2

Total # of neighbors = 1014
Ave neighs/atom = 0.239546
Neighbor list builds = 882
Dangerous builds = 0
Setting up run at Tue Nov 29 16:37:34 2022

Memory usage per processor = 1088.62 Mbytes
    Step    Atoms         KinEng            CPU 
19447913     4233    0.032241056              0 
19756610     4230    0.032743834      6067.2761 
Loop time of 6067.28 on 40 procs for 308697 steps with 4230 atoms, finish time Tue Nov 29 18:18:41 2022


Pair  time (%) = 1.43792 (0.0236996)
Neigh time (%) = 2.29686 (0.0378565)
Comm  time (%) = 15.6824 (0.258474)
Outpt time (%) = 0.00256814 (4.23277e-05)
Other time (%) = 6047.86 (99.6799)

Nlocal:    105.75 ave 1313 max 0 min
Histogram: 32 3 3 0 0 0 0 0 0 2
Nghost:    14.9 ave 176 max 0 min
Histogram: 35 1 0 0 1 1 0 0 0 2
Neighs:    25.4 ave 319 max 0 min
Histogram: 35 1 0 1 1 0 0 0 0 2

Total # of neighbors = 1016
Ave neighs/atom = 0.240189
Neighbor list builds = 879
Dangerous builds = 0
Setting up run at Tue Nov 29 18:18:41 2022

Memory usage per processor = 1088.62 Mbytes
    Step    Atoms         KinEng            CPU 
19756610     4230    0.032743834              0 
20065307     4228     0.03322824      6106.4102 
Loop time of 6106.41 on 40 procs for 308697 steps with 4228 atoms, finish time Tue Nov 29 20:00:28 2022


Pair  time (%) = 1.44173 (0.0236101)
Neigh time (%) = 2.30817 (0.0377992)
Comm  time (%) = 15.9231 (0.260761)
Outpt time (%) = 0.00265896 (4.35438e-05)
Other time (%) = 6086.73 (99.6778)

Nlocal:    105.7 ave 1311 max 0 min
Histogram: 32 3 3 0 0 0 0 0 0 2
Nghost:    14.425 ave 168 max 0 min
Histogram: 34 2 0 1 1 0 0 0 0 2
Neighs:    25.225 ave 314 max 0 min
Histogram: 34 3 0 0 0 0 0 1 0 2

Total # of neighbors = 1009
Ave neighs/atom = 0.238647
Neighbor list builds = 886
Dangerous builds = 0
Setting up run at Tue Nov 29 20:00:28 2022

Memory usage per processor = 1088.62 Mbytes
    Step    Atoms         KinEng            CPU 
20065307     4228     0.03322824              0 
20374004     4226    0.033627529       6070.665 
Loop time of 6070.67 on 40 procs for 308697 steps with 4226 atoms, finish time Tue Nov 29 21:41:39 2022


Pair  time (%) = 1.43948 (0.0237121)
Neigh time (%) = 2.15668 (0.0355262)
Comm  time (%) = 13.5476 (0.223164)
Outpt time (%) = 0.00248663 (4.09614e-05)
Other time (%) = 6053.52 (99.7176)

Nlocal:    105.65 ave 1309 max 0 min
Histogram: 32 4 1 1 0 0 0 0 0 2
Nghost:    13.8 ave 182 max 0 min
Histogram: 36 0 0 1 1 0 0 0 1 1
Neighs:    24.3 ave 303 max 0 min
Histogram: 35 2 0 0 0 0 0 0 1 2

Total # of neighbors = 972
Ave neighs/atom = 0.230005
Neighbor list builds = 828
Dangerous builds = 0
Setting up run at Tue Nov 29 21:41:39 2022

Memory usage per processor = 1088.62 Mbytes
    Step    Atoms         KinEng            CPU 
20374004     4226    0.033627529              0 
20682701     4224    0.034179058      6098.6185 
Loop time of 6098.62 on 40 procs for 308697 steps with 4224 atoms, finish time Tue Nov 29 23:23:18 2022


Pair  time (%) = 1.43784 (0.0235764)
Neigh time (%) = 2.22872 (0.0365446)
Comm  time (%) = 13.8781 (0.227561)
Outpt time (%) = 0.00256404 (4.2043e-05)
Other time (%) = 6081.08 (99.7123)

Nlocal:    105.6 ave 1305 max 0 min
Histogram: 32 1 5 0 0 0 0 0 0 2
Nghost:    13.4 ave 156 max 0 min
Histogram: 34 2 0 0 2 0 0 0 1 1
Neighs:    24.15 ave 295 max 0 min
Histogram: 34 3 0 0 0 0 1 0 0 2

Total # of neighbors = 966
Ave neighs/atom = 0.228693
Neighbor list builds = 853
Dangerous builds = 0
Setting up run at Tue Nov 29 23:23:18 2022

Memory usage per processor = 1088.62 Mbytes
    Step    Atoms         KinEng            CPU 
20682701     4224    0.034179058              0 
20991398     4219    0.034388954      6117.2547 
Loop time of 6117.26 on 40 procs for 308697 steps with 4219 atoms, finish time Wed Nov 30 01:05:15 2022


Pair  time (%) = 1.44424 (0.0236092)
Neigh time (%) = 2.26292 (0.0369924)
Comm  time (%) = 15.5726 (0.254568)
Outpt time (%) = 0.00242277 (3.96056e-05)
Other time (%) = 6097.97 (99.6848)

Nlocal:    105.475 ave 1303 max 0 min
Histogram: 32 4 1 1 0 0 0 0 0 2
Nghost:    13.625 ave 165 max 0 min
Histogram: 34 2 0 0 2 0 0 0 1 1
Neighs:    24.975 ave 305 max 0 min
Histogram: 34 2 1 0 0 0 0 1 0 2

Total # of neighbors = 999
Ave neighs/atom = 0.236786
Neighbor list builds = 863
Dangerous builds = 0
Setting up run at Wed Nov 30 01:05:15 2022

Memory usage per processor = 1088.62 Mbytes
    Step    Atoms         KinEng            CPU 
20991398     4219    0.034388954              0 
21300095     4213    0.034918623      6047.4598 
Loop time of 6047.47 on 40 procs for 308697 steps with 4213 atoms, finish time Wed Nov 30 02:46:03 2022


Pair  time (%) = 1.43632 (0.0237507)
Neigh time (%) = 2.33369 (0.0385896)
Comm  time (%) = 15.742 (0.260308)
Outpt time (%) = 0.00246764 (4.08046e-05)
Other time (%) = 6027.95 (99.6773)

Nlocal:    105.325 ave 1296 max 0 min
Histogram: 32 3 3 0 0 0 0 0 0 2
Nghost:    13.7 ave 173 max 0 min
Histogram: 36 0 0 1 1 0 0 0 0 2
Neighs:    25.5 ave 302 max 0 min
Histogram: 33 3 1 0 0 0 0 1 0 2

Total # of neighbors = 1020
Ave neighs/atom = 0.242108
Neighbor list builds = 894
Dangerous builds = 0
Setting up run at Wed Nov 30 02:46:03 2022

Memory usage per processor = 1088.62 Mbytes
    Step    Atoms         KinEng            CPU 
21300095     4213    0.034918623              0 
21608792     4208    0.035253225      6084.0643 
Loop time of 6084.06 on 40 procs for 308697 steps with 4208 atoms, finish time Wed Nov 30 04:27:27 2022


Pair  time (%) = 1.44591 (0.0237655)
Neigh time (%) = 2.36386 (0.0388533)
Comm  time (%) = 16.323 (0.268291)
Outpt time (%) = 0.00254992 (4.19115e-05)
Other time (%) = 6063.93 (99.669)

Nlocal:    105.2 ave 1287 max 0 min
Histogram: 32 2 4 0 0 0 0 0 0 2
Nghost:    13.45 ave 166 max 0 min
Histogram: 34 1 1 2 0 0 0 0 1 1
Neighs:    25.95 ave 299 max 0 min
Histogram: 34 2 1 0 0 0 0 1 0 2

Total # of neighbors = 1038
Ave neighs/atom = 0.246673
Neighbor list builds = 906
Dangerous builds = 0
Setting up run at Wed Nov 30 04:27:27 2022

Memory usage per processor = 1088.62 Mbytes
    Step    Atoms         KinEng            CPU 
21608792     4208    0.035253225              0 
21917489     4204      0.0356907      6098.0952 
Loop time of 6098.1 on 40 procs for 308697 steps with 4204 atoms, finish time Wed Nov 30 06:09:06 2022


Pair  time (%) = 1.45138 (0.0238006)
Neigh time (%) = 2.58153 (0.0423334)
Comm  time (%) = 17.7283 (0.290719)
Outpt time (%) = 0.00261512 (4.28841e-05)
Other time (%) = 6076.33 (99.6431)

Nlocal:    105.1 ave 1281 max 0 min
Histogram: 32 3 3 0 0 0 0 0 0 2
Nghost:    14.125 ave 162 max 0 min
Histogram: 34 1 1 0 2 0 0 0 0 2
Neighs:    25.9 ave 303 max 0 min
Histogram: 33 4 0 0 0 0 0 1 0 2

Total # of neighbors = 1036
Ave neighs/atom = 0.246432
Neighbor list builds = 986
Dangerous builds = 0
Setting up run at Wed Nov 30 06:09:06 2022

Memory usage per processor = 1088.62 Mbytes
    Step    Atoms         KinEng            CPU 
21917489     4204      0.0356907              0 
22226186     4200     0.03602659      6113.0507 
Loop time of 6113.05 on 40 procs for 308697 steps with 4200 atoms, finish time Wed Nov 30 07:50:59 2022


Pair  time (%) = 1.45396 (0.0237844)
Neigh time (%) = 2.62978 (0.0430191)
Comm  time (%) = 17.4141 (0.284868)
Outpt time (%) = 0.00252719 (4.13409e-05)
Other time (%) = 6091.55 (99.6483)

Nlocal:    105 ave 1276 max 0 min
Histogram: 32 3 3 0 0 0 0 0 0 2
Nghost:    13.875 ave 162 max 0 min
Histogram: 34 2 0 0 2 0 0 0 0 2
Neighs:    25.675 ave 303 max 0 min
Histogram: 32 5 0 0 0 0 0 1 0 2

Total # of neighbors = 1027
Ave neighs/atom = 0.244524
Neighbor list builds = 1001
Dangerous builds = 0
Setting up run at Wed Nov 30 07:50:59 2022

Memory usage per processor = 1088.62 Mbytes
    Step    Atoms         KinEng            CPU 
22226186     4200     0.03602659              0 
22534883     4197    0.036579105      6051.3474 
Loop time of 6051.35 on 40 procs for 308697 steps with 4197 atoms, finish time Wed Nov 30 09:31:51 2022


Pair  time (%) = 1.45238 (0.0240009)
Neigh time (%) = 2.35372 (0.0388959)
Comm  time (%) = 16.1068 (0.266169)
Outpt time (%) = 0.00231544 (3.82633e-05)
Other time (%) = 6031.43 (99.6709)

Nlocal:    104.925 ave 1276 max 0 min
Histogram: 32 3 2 1 0 0 0 0 0 2
Nghost:    14.725 ave 163 max 0 min
Histogram: 33 2 1 0 2 0 0 0 0 2
Neighs:    25.675 ave 294 max 0 min
Histogram: 33 2 1 1 0 0 1 0 0 2

Total # of neighbors = 1027
Ave neighs/atom = 0.244699
Neighbor list builds = 902
Dangerous builds = 0
Setting up run at Wed Nov 30 09:31:51 2022

Memory usage per processor = 1088.62 Mbytes
    Step    Atoms         KinEng            CPU 
22534883     4197    0.036579105              0 
22843580     4193    0.036906158      6066.8728 
Loop time of 6066.87 on 40 procs for 308697 steps with 4193 atoms, finish time Wed Nov 30 11:12:58 2022


Pair  time (%) = 1.46297 (0.0241141)
Neigh time (%) = 2.27873 (0.0375602)
Comm  time (%) = 15.9435 (0.262797)
Outpt time (%) = 0.00268278 (4.42202e-05)
Other time (%) = 6047.19 (99.6755)

Nlocal:    104.825 ave 1270 max 0 min
Histogram: 32 3 2 1 0 0 0 0 0 2
Nghost:    14.125 ave 179 max 0 min
Histogram: 36 0 0 2 0 0 0 0 0 2
Neighs:    25.425 ave 301 max 0 min
Histogram: 34 2 1 0 0 0 0 0 2 1

Total # of neighbors = 1017
Ave neighs/atom = 0.242547
Neighbor list builds = 876
Dangerous builds = 0
Setting up run at Wed Nov 30 11:12:58 2022

Memory usage per processor = 1088.62 Mbytes
    Step    Atoms         KinEng            CPU 
22843580     4193    0.036906158              0 
23152277     4189    0.037151109      6102.1658 
Loop time of 6102.17 on 40 procs for 308697 steps with 4189 atoms, finish time Wed Nov 30 12:54:40 2022


Pair  time (%) = 1.45295 (0.0238103)
Neigh time (%) = 2.29384 (0.0375905)
Comm  time (%) = 16.2766 (0.266735)
Outpt time (%) = 0.00250096 (4.09848e-05)
Other time (%) = 6082.14 (99.6718)

Nlocal:    104.725 ave 1269 max 0 min
Histogram: 32 4 1 1 0 0 0 0 0 2
Nghost:    13.85 ave 181 max 0 min
Histogram: 34 2 0 2 0 0 0 1 0 1
Neighs:    26.25 ave 302 max 0 min
Histogram: 33 2 2 0 0 0 0 0 1 2

Total # of neighbors = 1050
Ave neighs/atom = 0.250656
Neighbor list builds = 878
Dangerous builds = 0
Setting up run at Wed Nov 30 12:54:40 2022

Memory usage per processor = 1088.62 Mbytes
    Step    Atoms         KinEng            CPU 
23152277     4189    0.037151109              0 
23460974     4186    0.037567246      6142.9611 
Loop time of 6142.96 on 40 procs for 308697 steps with 4186 atoms, finish time Wed Nov 30 14:37:03 2022


Pair  time (%) = 1.46139 (0.0237897)
Neigh time (%) = 2.26417 (0.0368579)
Comm  time (%) = 16.1193 (0.262403)
Outpt time (%) = 0.0025232 (4.10747e-05)
Other time (%) = 6123.11 (99.6769)

Nlocal:    104.65 ave 1264 max 0 min
Histogram: 32 1 5 0 0 0 0 0 0 2
Nghost:    14.35 ave 162 max 0 min
Histogram: 33 2 1 1 1 0 0 0 1 1
Neighs:    26.15 ave 286 max 0 min
Histogram: 33 3 1 0 0 0 0 0 2 1

Total # of neighbors = 1046
Ave neighs/atom = 0.249881
Neighbor list builds = 868
Dangerous builds = 0
Setting up run at Wed Nov 30 14:37:03 2022

Memory usage per processor = 1088.62 Mbytes
    Step    Atoms         KinEng            CPU 
23460974     4186    0.037567246              0 
23769671     4183    0.037995661      6092.6109 
Loop time of 6092.62 on 40 procs for 308697 steps with 4183 atoms, finish time Wed Nov 30 16:18:36 2022


Pair  time (%) = 1.44443 (0.0237079)
Neigh time (%) = 2.25905 (0.0370784)
Comm  time (%) = 15.9913 (0.26247)
Outpt time (%) = 0.00237497 (3.89811e-05)
Other time (%) = 6072.92 (99.6767)

Nlocal:    104.575 ave 1265 max 0 min
Histogram: 32 4 1 1 0 0 0 0 0 2
Nghost:    13.35 ave 183 max 0 min
Histogram: 35 1 0 2 0 0 0 0 1 1
Neighs:    26.3 ave 309 max 0 min
Histogram: 35 1 0 1 0 0 0 0 1 2

Total # of neighbors = 1052
Ave neighs/atom = 0.251494
Neighbor list builds = 864
Dangerous builds = 0
Setting up run at Wed Nov 30 16:18:36 2022

Memory usage per processor = 1088.62 Mbytes
    Step    Atoms         KinEng            CPU 
23769671     4183    0.037995661              0 
24078368     4178    0.038386226      6079.5471 
Loop time of 6079.55 on 40 procs for 308697 steps with 4178 atoms, finish time Wed Nov 30 17:59:56 2022


Pair  time (%) = 1.46066 (0.0240258)
Neigh time (%) = 2.487 (0.0409077)
Comm  time (%) = 17.0738 (0.28084)
Outpt time (%) = 0.00266531 (4.38405e-05)
Other time (%) = 6058.52 (99.6542)

Nlocal:    104.45 ave 1258 max 0 min
Histogram: 32 3 2 1 0 0 0 0 0 2
Nghost:    14.05 ave 156 max 0 min
Histogram: 32 2 2 1 1 0 0 0 1 1
Neighs:    25.8 ave 288 max 0 min
Histogram: 34 2 0 1 0 0 0 0 1 2

Total # of neighbors = 1032
Ave neighs/atom = 0.247008
Neighbor list builds = 952
Dangerous builds = 0
Setting up run at Wed Nov 30 17:59:56 2022

Memory usage per processor = 1088.62 Mbytes
    Step    Atoms         KinEng            CPU 
24078368     4178    0.038386226              0 
24387065     4174    0.038751978      6141.5079 
Loop time of 6141.51 on 40 procs for 308697 steps with 4174 atoms, finish time Wed Nov 30 19:42:18 2022


Pair  time (%) = 1.46566 (0.0238648)
Neigh time (%) = 2.59447 (0.0422449)
Comm  time (%) = 17.9697 (0.292594)
Outpt time (%) = 0.00254703 (4.14724e-05)
Other time (%) = 6119.48 (99.6413)

Nlocal:    104.35 ave 1252 max 0 min
Histogram: 32 2 3 1 0 0 0 0 0 2
Nghost:    14.125 ave 172 max 0 min
Histogram: 35 1 0 2 0 0 0 0 0 2
Neighs:    25.625 ave 289 max 0 min
Histogram: 34 0 2 1 0 0 0 0 2 1

Total # of neighbors = 1025
Ave neighs/atom = 0.245568
Neighbor list builds = 989
Dangerous builds = 0
Setting up run at Wed Nov 30 19:42:18 2022

Memory usage per processor = 1088.62 Mbytes
    Step    Atoms         KinEng            CPU 
24387065     4174    0.038751978              0 
24695762     4168    0.039300251      6118.1426 
Loop time of 6118.14 on 40 procs for 308697 steps with 4168 atoms, finish time Wed Nov 30 21:24:16 2022


Pair  time (%) = 1.47782 (0.0241547)
Neigh time (%) = 2.282 (0.0372989)
Comm  time (%) = 17.0814 (0.279193)
Outpt time (%) = 0.0207068 (0.000338448)
Other time (%) = 6097.28 (99.659)

Nlocal:    104.2 ave 1244 max 0 min
Histogram: 32 2 3 1 0 0 0 0 0 2
Nghost:    14.2 ave 159 max 0 min
Histogram: 34 0 2 1 1 0 0 0 1 1
Neighs:    25.225 ave 293 max 0 min
Histogram: 34 2 0 1 0 0 0 0 1 2

Total # of neighbors = 1009
Ave neighs/atom = 0.242083
Neighbor list builds = 876
Dangerous builds = 0
Setting up run at Wed Nov 30 21:24:17 2022

Memory usage per processor = 1088.62 Mbytes
    Step    Atoms         KinEng            CPU 
24695762     4168    0.039300251              0 
25004459     4162    0.039529972      6103.7409 
Loop time of 6103.74 on 40 procs for 308697 steps with 4162 atoms, finish time Wed Nov 30 23:06:01 2022


Pair  time (%) = 1.47196 (0.0241156)
Neigh time (%) = 2.29306 (0.0375682)
Comm  time (%) = 16.2874 (0.266843)
Outpt time (%) = 0.00260306 (4.2647e-05)
Other time (%) = 6083.69 (99.6714)

Nlocal:    104.05 ave 1243 max 0 min
Histogram: 32 2 3 1 0 0 0 0 0 2
Nghost:    13.95 ave 154 max 0 min
Histogram: 34 0 2 0 2 0 0 0 0 2
Neighs:    26.45 ave 313 max 0 min
Histogram: 34 2 0 1 0 0 0 1 0 2

Total # of neighbors = 1058
Ave neighs/atom = 0.254205
Neighbor list builds = 877
Dangerous builds = 0
Setting up run at Wed Nov 30 23:06:01 2022

Memory usage per processor = 1088.62 Mbytes
    Step    Atoms         KinEng            CPU 
25004459     4162    0.039529972              0 
25313156     4156    0.039783582      6054.5728 
Loop time of 6054.58 on 40 procs for 308697 steps with 4156 atoms, finish time Thu Dec  1 00:46:56 2022


Pair  time (%) = 1.46878 (0.024259)
Neigh time (%) = 2.26195 (0.0373593)
Comm  time (%) = 15.7574 (0.260256)
Outpt time (%) = 0.00247761 (4.09213e-05)
Other time (%) = 6035.09 (99.6781)

Nlocal:    103.9 ave 1245 max 0 min
Histogram: 32 2 2 2 0 0 0 0 0 2
Nghost:    14.275 ave 180 max 0 min
Histogram: 35 1 0 1 1 0 0 0 1 1
Neighs:    25.95 ave 273 max 0 min
Histogram: 34 1 1 0 1 0 0 0 1 2

Total # of neighbors = 1038
Ave neighs/atom = 0.249759
Neighbor list builds = 867
Dangerous builds = 0
Setting up run at Thu Dec  1 00:46:56 2022

Memory usage per processor = 1088.62 Mbytes
    Step    Atoms         KinEng            CPU 
25313156     4156    0.039783582              0 
25621853     4152    0.040231126      6091.9905 
Loop time of 6092 on 40 procs for 308697 steps with 4152 atoms, finish time Thu Dec  1 02:28:28 2022


Pair  time (%) = 1.44433 (0.0237087)
Neigh time (%) = 2.48754 (0.0408329)
Comm  time (%) = 16.3001 (0.267566)
Outpt time (%) = 0.00269023 (4.41601e-05)
Other time (%) = 6071.76 (99.6678)

Nlocal:    103.8 ave 1242 max 0 min
Histogram: 32 2 3 1 0 0 0 0 0 2
Nghost:    13.725 ave 152 max 0 min
Histogram: 33 1 2 0 2 0 0 0 1 1
Neighs:    25.375 ave 266 max 0 min
Histogram: 33 1 2 1 0 0 0 0 2 1

Total # of neighbors = 1015
Ave neighs/atom = 0.244461
Neighbor list builds = 949
Dangerous builds = 0
Setting up run at Thu Dec  1 02:28:28 2022

Memory usage per processor = 1088.62 Mbytes
    Step    Atoms         KinEng            CPU 
25621853     4152    0.040231126              0 
25930550     4142    0.040484871      6128.4815 
Loop time of 6128.49 on 40 procs for 308697 steps with 4142 atoms, finish time Thu Dec  1 04:10:36 2022


Pair  time (%) = 1.47534 (0.0240734)
Neigh time (%) = 3.19543 (0.0521405)
Comm  time (%) = 20.6032 (0.336187)
Outpt time (%) = 0.0116435 (0.00018999)
Other time (%) = 6103.21 (99.5874)

Nlocal:    103.55 ave 1232 max 0 min
Histogram: 32 4 1 1 0 0 0 0 0 2
Nghost:    14.25 ave 168 max 0 min
Histogram: 34 2 0 1 1 0 0 0 0 2
Neighs:    27.125 ave 337 max 0 min
Histogram: 33 3 0 1 0 0 1 1 0 1

Total # of neighbors = 1085
Ave neighs/atom = 0.261951
Neighbor list builds = 1212
Dangerous builds = 0
Setting up run at Thu Dec  1 04:10:37 2022

Memory usage per processor = 1088.62 Mbytes
    Step    Atoms         KinEng            CPU 
25930550     4142    0.040484871              0 
26239247     4134    0.040773073      6115.6243 
Loop time of 6115.62 on 40 procs for 308697 steps with 4134 atoms, finish time Thu Dec  1 05:52:32 2022


Pair  time (%) = 1.49456 (0.0244383)
Neigh time (%) = 3.40269 (0.0556393)
Comm  time (%) = 22.7039 (0.371245)
Outpt time (%) = 0.00245678 (4.01721e-05)
Other time (%) = 6088.02 (99.5486)

Nlocal:    103.35 ave 1234 max 0 min
Histogram: 32 3 3 0 0 0 0 0 0 2
Nghost:    13.7 ave 146 max 0 min
Histogram: 33 1 2 0 1 1 0 0 0 2
Neighs:    25.925 ave 272 max 0 min
Histogram: 33 2 1 1 0 0 0 0 1 2

Total # of neighbors = 1037
Ave neighs/atom = 0.250847
Neighbor list builds = 1290
Dangerous builds = 0
Setting up run at Thu Dec  1 05:52:32 2022

Memory usage per processor = 1088.62 Mbytes
    Step    Atoms         KinEng            CPU 
26239247     4134    0.040773073              0 
26547944     4125    0.041090779      6105.9636 
Loop time of 6105.96 on 40 procs for 308697 steps with 4125 atoms, finish time Thu Dec  1 07:34:18 2022


Pair  time (%) = 1.48691 (0.0243518)
Neigh time (%) = 2.8301 (0.0463498)
Comm  time (%) = 18.6791 (0.305915)
Outpt time (%) = 0.0227891 (0.000373227)
Other time (%) = 6082.95 (99.623)

Nlocal:    103.125 ave 1227 max 0 min
Histogram: 32 3 2 1 0 0 0 0 0 2
Nghost:    13.575 ave 134 max 0 min
Histogram: 34 0 0 2 1 0 1 0 0 2
Neighs:    24.15 ave 249 max 0 min
Histogram: 33 1 2 0 1 0 0 0 1 2

Total # of neighbors = 966
Ave neighs/atom = 0.234182
Neighbor list builds = 1076
Dangerous builds = 0
Setting up run at Thu Dec  1 07:34:19 2022

Memory usage per processor = 1088.62 Mbytes
    Step    Atoms         KinEng            CPU 
26547944     4125    0.041090779              0 
26856641     4121    0.041464529      6126.7295 
Loop time of 6126.73 on 40 procs for 308697 steps with 4121 atoms, finish time Thu Dec  1 09:16:25 2022


Pair  time (%) = 1.4281 (0.0233093)
Neigh time (%) = 2.79255 (0.0455798)
Comm  time (%) = 18.8148 (0.307093)
Outpt time (%) = 0.0025633 (4.18379e-05)
Other time (%) = 6103.7 (99.624)

Nlocal:    103.025 ave 1221 max 0 min
Histogram: 32 2 4 0 0 0 0 0 0 2
Nghost:    13.75 ave 161 max 0 min
Histogram: 35 1 0 1 1 0 0 0 0 2
Neighs:    22.95 ave 259 max 0 min
Histogram: 32 3 1 1 0 0 1 0 1 1

Total # of neighbors = 918
Ave neighs/atom = 0.222761
Neighbor list builds = 1066
Dangerous builds = 0
Setting up run at Thu Dec  1 09:16:26 2022

Memory usage per processor = 1088.62 Mbytes
    Step    Atoms         KinEng            CPU 
26856641     4121    0.041464529              0 
27165338     4113    0.041725546      6181.2411 
Loop time of 6181.24 on 40 procs for 308697 steps with 4113 atoms, finish time Thu Dec  1 10:59:27 2022


Pair  time (%) = 1.44252 (0.0233371)
Neigh time (%) = 2.74492 (0.0444072)
Comm  time (%) = 18.3595 (0.297019)
Outpt time (%) = 0.00257779 (4.17035e-05)
Other time (%) = 6158.69 (99.6352)

Nlocal:    102.825 ave 1218 max 0 min
Histogram: 32 2 3 1 0 0 0 0 0 2
Nghost:    13.925 ave 136 max 0 min
Histogram: 32 2 1 1 1 1 0 0 0 2
Neighs:    22.825 ave 258 max 0 min
Histogram: 34 1 1 1 0 0 0 1 1 1

Total # of neighbors = 913
Ave neighs/atom = 0.221979
Neighbor list builds = 1042
Dangerous builds = 0
Setting up run at Thu Dec  1 10:59:27 2022

Memory usage per processor = 1088.62 Mbytes
    Step    Atoms         KinEng            CPU 
27165338     4113    0.041725546              0 
27474035     4111    0.041962801      6217.8791 
Loop time of 6217.88 on 40 procs for 308697 steps with 4111 atoms, finish time Thu Dec  1 12:43:05 2022


Pair  time (%) = 1.43223 (0.0230341)
Neigh time (%) = 2.65731 (0.0427366)
Comm  time (%) = 17.8011 (0.28629)
Outpt time (%) = 0.0027545 (4.42996e-05)
Other time (%) = 6195.99 (99.6479)

Nlocal:    102.775 ave 1211 max 0 min
Histogram: 32 2 3 1 0 0 0 0 0 2
[...]

Nlocal:    95.2 ave 1018 max 0 min
Histogram: 32 0 4 1 1 0 0 0 0 2
Nghost:    11.75 ave 110 max 0 min
Histogram: 32 1 1 1 2 1 0 0 0 2
Neighs:    25.75 ave 356 max 0 min
Histogram: 33 0 4 1 0 1 0 0 0 1

Total # of neighbors = 1030
Ave neighs/atom = 0.270483
Neighbor list builds = 888
Dangerous builds = 0
Setting up run at Tue Dec  6 15:13:12 2022

Memory usage per processor = 1088.62 Mbytes
    Step    Atoms         KinEng            CPU 
49082874     3808    0.053309433              0 
49391571     3806    0.053258782      6388.4655 
Loop time of 6388.47 on 40 procs for 308697 steps with 3806 atoms, finish time Tue Dec  6 16:59:41 2022


Pair  time (%) = 1.83518 (0.0287265)
Neigh time (%) = 2.33553 (0.0365585)
Comm  time (%) = 15.8496 (0.248098)
Outpt time (%) = 0.00306137 (4.79203e-05)
Other time (%) = 6368.44 (99.6866)

Nlocal:    95.15 ave 1017 max 0 min
Histogram: 32 1 3 1 1 0 0 0 0 2
Nghost:    12.55 ave 144 max 0 min
Histogram: 31 4 3 0 0 0 0 0 0 2
Neighs:    26.65 ave 358 max 0 min
Histogram: 32 1 3 3 0 0 0 0 0 1

Total # of neighbors = 1066
Ave neighs/atom = 0.280084
Neighbor list builds = 894
Dangerous builds = 0
Setting up run at Tue Dec  6 16:59:41 2022

Memory usage per processor = 1088.62 Mbytes
    Step    Atoms         KinEng            CPU 
49391571     3806    0.053258782              0 
49700268     3797    0.053263957      6501.7863 
Loop time of 6501.79 on 40 procs for 308697 steps with 3797 atoms, finish time Tue Dec  6 18:48:03 2022


Pair  time (%) = 1.81991 (0.027991)
Neigh time (%) = 2.65322 (0.0408075)
Comm  time (%) = 17.8853 (0.275083)
Outpt time (%) = 0.0217584 (0.000334653)
Other time (%) = 6479.41 (99.6558)

Nlocal:    94.925 ave 1016 max 0 min
Histogram: 32 1 3 1 1 0 0 0 0 2
Nghost:    12.525 ave 109 max 0 min
Histogram: 31 2 1 2 1 0 1 0 1 1
Neighs:    26.95 ave 375 max 0 min
Histogram: 32 3 2 1 0 1 0 0 0 1

Total # of neighbors = 1078
Ave neighs/atom = 0.283908
Neighbor list builds = 1010
Dangerous builds = 0
Setting up run at Tue Dec  6 18:48:03 2022

Memory usage per processor = 1088.62 Mbytes
    Step    Atoms         KinEng            CPU 
49700268     3797    0.053263957              0 
50008965     3795    0.053381691      6322.8538 
Loop time of 6322.88 on 40 procs for 308697 steps with 3795 atoms, finish time Tue Dec  6 20:33:26 2022


Pair  time (%) = 1.79578 (0.0284013)
Neigh time (%) = 2.69171 (0.042571)
Comm  time (%) = 17.8648 (0.282542)
Outpt time (%) = 0.00318382 (5.03539e-05)
Other time (%) = 6300.52 (99.6464)

Nlocal:    94.875 ave 1018 max 0 min
Histogram: 32 1 2 2 1 0 0 0 0 2
Nghost:    12.1 ave 149 max 0 min
Histogram: 33 3 1 1 0 0 0 0 1 1
Neighs:    27.075 ave 339 max 0 min
Histogram: 32 2 1 2 1 1 0 0 0 1

Total # of neighbors = 1083
Ave neighs/atom = 0.285375
Neighbor list builds = 1021
Dangerous builds = 0
Setting up run at Tue Dec  6 20:33:26 2022

Memory usage per processor = 1088.62 Mbytes
    Step    Atoms         KinEng            CPU 
50008965     3795    0.053381691              0 
50317662     3794    0.053451272      6317.2723 
Loop time of 6317.27 on 40 procs for 308697 steps with 3794 atoms, finish time Tue Dec  6 22:18:44 2022


Pair  time (%) = 1.80591 (0.0285868)
Neigh time (%) = 2.47458 (0.0391716)
Comm  time (%) = 16.6506 (0.263573)
Outpt time (%) = 0.00281469 (4.45554e-05)
Other time (%) = 6296.34 (99.6686)

Nlocal:    94.85 ave 1017 max 0 min
Histogram: 32 1 3 1 1 0 0 0 0 2
Nghost:    11.925 ave 117 max 0 min
Histogram: 33 1 2 1 0 0 0 2 0 1
Neighs:    27.6 ave 409 max 0 min
Histogram: 34 0 2 2 1 0 0 0 0 1

Total # of neighbors = 1104
Ave neighs/atom = 0.290986
Neighbor list builds = 940
Dangerous builds = 0
Setting up run at Tue Dec  6 22:18:44 2022

Memory usage per processor = 1088.62 Mbytes
    Step    Atoms         KinEng            CPU 
50317662     3794    0.053451272              0 
50626359     3788    0.053463852      6316.4597 
Loop time of 6316.47 on 40 procs for 308697 steps with 3788 atoms, finish time Wed Dec  7 00:04:00 2022


Pair  time (%) = 1.82367 (0.0288716)
Neigh time (%) = 2.25283 (0.035666)
Comm  time (%) = 15.4407 (0.244452)
Outpt time (%) = 0.0223249 (0.000353439)
Other time (%) = 6296.93 (99.6907)

Nlocal:    94.7 ave 1015 max 0 min
Histogram: 32 3 0 2 1 0 0 0 0 2
Nghost:    13.825 ave 149 max 0 min
Histogram: 30 6 1 0 1 0 0 1 0 1
Neighs:    28.75 ave 374 max 0 min
Histogram: 33 1 1 2 2 0 0 0 0 1

Total # of neighbors = 1150
Ave neighs/atom = 0.30359
Neighbor list builds = 863
Dangerous builds = 0
Setting up run at Wed Dec  7 00:04:00 2022

Memory usage per processor = 1088.62 Mbytes
    Step    Atoms         KinEng            CPU 
50626359     3788    0.053463852              0 
50935056     3785    0.053582402      6258.7211 
Loop time of 6258.73 on 40 procs for 308697 steps with 3785 atoms, finish time Wed Dec  7 01:48:19 2022


Pair  time (%) = 1.81859 (0.0290568)
Neigh time (%) = 2.41642 (0.0386088)
Comm  time (%) = 16.6074 (0.265347)
Outpt time (%) = 0.0204504 (0.000326749)
Other time (%) = 6237.87 (99.6667)

Nlocal:    94.625 ave 1016 max 0 min
Histogram: 32 2 2 1 0 1 0 0 0 2
Nghost:    12.25 ave 142 max 0 min
Histogram: 34 1 1 1 1 0 0 1 0 1
Neighs:    27.3 ave 444 max 0 min
Histogram: 34 0 5 0 0 0 0 0 0 1

Total # of neighbors = 1092
Ave neighs/atom = 0.288507
Neighbor list builds = 924
Dangerous builds = 0
Setting up run at Wed Dec  7 01:48:20 2022

Memory usage per processor = 1088.62 Mbytes
    Step    Atoms         KinEng            CPU 
50935056     3785    0.053582402              0 
51243753     3784    0.053586883      6237.0614 
Loop time of 6237.06 on 40 procs for 308697 steps with 3784 atoms, finish time Wed Dec  7 03:32:17 2022


Pair  time (%) = 1.80144 (0.0288828)
Neigh time (%) = 2.2868 (0.0366647)
Comm  time (%) = 15.7308 (0.252214)
Outpt time (%) = 0.00316635 (5.07666e-05)
Other time (%) = 6217.24 (99.6822)

Nlocal:    94.6 ave 1017 max 0 min
Histogram: 32 2 1 2 1 0 0 0 0 2
Nghost:    12.825 ave 118 max 0 min
Histogram: 31 1 3 1 1 0 0 2 0 1
Neighs:    25.65 ave 369 max 0 min
Histogram: 34 1 1 2 0 0 1 0 0 1

Total # of neighbors = 1026
Ave neighs/atom = 0.271142
Neighbor list builds = 876
Dangerous builds = 0
Setting up run at Wed Dec  7 03:32:17 2022

Memory usage per processor = 1088.62 Mbytes
    Step    Atoms         KinEng            CPU 
51243753     3784    0.053586883              0 
51552450     3781       0.053677      6255.0405 
Loop time of 6255.04 on 40 procs for 308697 steps with 3781 atoms, finish time Wed Dec  7 05:16:32 2022


Pair  time (%) = 1.80668 (0.0288835)
Neigh time (%) = 2.27884 (0.0364321)
Comm  time (%) = 15.6017 (0.249427)
Outpt time (%) = 0.000811478 (1.29732e-05)
Other time (%) = 6235.35 (99.6852)

Nlocal:    94.525 ave 1013 max 0 min
Histogram: 32 2 1 2 0 1 0 0 0 2
Nghost:    12.325 ave 146 max 0 min
Histogram: 33 2 1 2 0 0 1 0 0 1
Neighs:    26.35 ave 406 max 0 min
Histogram: 34 0 2 3 0 0 0 0 0 1

Total # of neighbors = 1054
Ave neighs/atom = 0.278762
Neighbor list builds = 869
Dangerous builds = 0
Setting up run at Wed Dec  7 05:16:32 2022

Memory usage per processor = 1088.62 Mbytes
    Step    Atoms         KinEng            CPU 
51552450     3781       0.053677              0 
51861147     3779    0.053720765      6238.3979 
Loop time of 6238.4 on 40 procs for 308697 steps with 3779 atoms, finish time Wed Dec  7 07:00:31 2022


Pair  time (%) = 1.82225 (0.0292102)
Neigh time (%) = 2.26114 (0.0362456)
Comm  time (%) = 12.8512 (0.206002)
Outpt time (%) = 0.0030146 (4.83233e-05)
Other time (%) = 6221.46 (99.7285)

Nlocal:    94.475 ave 1015 max 0 min
Histogram: 32 2 2 1 1 0 0 0 0 2
Nghost:    12.65 ave 118 max 0 min
Histogram: 31 1 3 0 2 1 0 1 0 1
Neighs:    27.55 ave 385 max 0 min
Histogram: 34 1 1 2 0 0 1 0 0 1

Total # of neighbors = 1102
Ave neighs/atom = 0.291612
Neighbor list builds = 868
Dangerous builds = 0
Setting up run at Wed Dec  7 07:00:31 2022

Memory usage per processor = 1088.62 Mbytes
    Step    Atoms         KinEng            CPU 
51861147     3779    0.053720765              0 
52169844     3776    0.053799213      6267.0707 
Loop time of 6267.08 on 40 procs for 308697 steps with 3776 atoms, finish time Wed Dec  7 08:44:58 2022


Pair  time (%) = 1.8468 (0.0294682)
Neigh time (%) = 2.23998 (0.0357421)
Comm  time (%) = 13.0867 (0.208817)
Outpt time (%) = 0.00283415 (4.52228e-05)
Other time (%) = 6249.9 (99.7259)

Nlocal:    94.4 ave 1013 max 0 min
Histogram: 32 1 3 1 0 1 0 0 0 2
Nghost:    12.45 ave 159 max 0 min
Histogram: 33 3 2 0 0 0 0 0 0 2
Neighs:    28.15 ave 553 max 0 min
Histogram: 34 4 1 0 0 0 0 0 0 1

Total # of neighbors = 1126
Ave neighs/atom = 0.298199
Neighbor list builds = 862
Dangerous builds = 0
Setting up run at Wed Dec  7 08:44:58 2022

Memory usage per processor = 1088.62 Mbytes
    Step    Atoms         KinEng            CPU 
52169844     3776    0.053799213              0 
52478541     3773     0.05385164      6870.4005 
Loop time of 6870.41 on 40 procs for 308697 steps with 3773 atoms, finish time Wed Dec  7 10:39:29 2022


Pair  time (%) = 1.84922 (0.0269157)
Neigh time (%) = 2.26079 (0.0329062)
Comm  time (%) = 15.7872 (0.229786)
Outpt time (%) = 0.00333074 (4.84795e-05)
Other time (%) = 6850.51 (99.7103)

Nlocal:    94.325 ave 1012 max 0 min
Histogram: 32 2 2 1 1 0 0 0 0 2
Nghost:    12.875 ave 111 max 0 min
Histogram: 31 0 4 0 0 3 0 0 1 1
Neighs:    28.975 ave 430 max 0 min
Histogram: 34 1 2 0 1 1 0 0 0 1

Total # of neighbors = 1159
Ave neighs/atom = 0.307183
Neighbor list builds = 866
Dangerous builds = 0
Setting up run at Wed Dec  7 10:40:52 2022

Memory usage per processor = 1088.62 Mbytes
    Step    Atoms         KinEng            CPU 
52478541     3773     0.05385164              0 
52787238     3770    0.053957633      6512.0089 
Loop time of 6512.01 on 40 procs for 308697 steps with 3770 atoms, finish time Wed Dec  7 12:29:24 2022


Pair  time (%) = 1.8765 (0.0288159)
Neigh time (%) = 2.26854 (0.0348362)
Comm  time (%) = 15.8976 (0.244127)
Outpt time (%) = 0.0206101 (0.000316493)
Other time (%) = 6491.95 (99.6919)

Nlocal:    94.25 ave 1013 max 0 min
Histogram: 32 2 2 1 0 1 0 0 0 2
Nghost:    11.825 ave 156 max 0 min
Histogram: 35 2 0 1 0 0 0 0 1 1
Neighs:    29.325 ave 520 max 0 min
Histogram: 35 1 1 2 0 0 0 0 0 1

Total # of neighbors = 1173
Ave neighs/atom = 0.311141
Neighbor list builds = 867
Dangerous builds = 0
Setting up run at Wed Dec  7 12:29:24 2022

Memory usage per processor = 1088.62 Mbytes
    Step    Atoms         KinEng            CPU 
52787238     3770    0.053957633              0 
53095935     3765    0.053939131      6372.1037 
Loop time of 6372.1 on 40 procs for 308697 steps with 3765 atoms, finish time Wed Dec  7 14:15:37 2022


Pair  time (%) = 1.84407 (0.0289397)
Neigh time (%) = 2.23756 (0.035115)
Comm  time (%) = 15.706 (0.246481)
Outpt time (%) = 0.0030553 (4.7948e-05)
Other time (%) = 6352.31 (99.6894)

Nlocal:    94.125 ave 1015 max 0 min
Histogram: 32 1 3 1 1 0 0 0 0 2
Nghost:    14.1 ave 139 max 0 min
Histogram: 30 2 4 1 0 0 2 0 0 1
Neighs:    28.725 ave 490 max 0 min
Histogram: 33 3 3 0 0 0 0 0 0 1

Total # of neighbors = 1149
Ave neighs/atom = 0.305179
Neighbor list builds = 861
Dangerous builds = 0
Setting up run at Wed Dec  7 14:15:37 2022

Memory usage per processor = 1088.62 Mbytes
    Step    Atoms         KinEng            CPU 
53095935     3765    0.053939131              0 
53404632     3761    0.054050659      6854.1451 
Loop time of 6854.15 on 40 procs for 308697 steps with 3761 atoms, finish time Wed Dec  7 16:09:51 2022


Pair  time (%) = 1.86006 (0.0271378)
Neigh time (%) = 2.23802 (0.032652)
Comm  time (%) = 15.8638 (0.231448)
Outpt time (%) = 0.00278477 (4.06289e-05)
Other time (%) = 6834.18 (99.7087)

Nlocal:    94.025 ave 1013 max 0 min
Histogram: 32 2 2 1 0 1 0 0 0 2
Nghost:    12.275 ave 160 max 0 min
Histogram: 35 1 1 1 0 0 0 0 1 1
Neighs:    28 ave 502 max 0 min
Histogram: 35 1 1 2 0 0 0 0 0 1

Total # of neighbors = 1120
Ave neighs/atom = 0.297793
Neighbor list builds = 859
Dangerous builds = 0
Setting up run at Wed Dec  7 16:09:51 2022

Memory usage per processor = 1088.62 Mbytes
    Step    Atoms         KinEng            CPU 
53404632     3761    0.054050659              0 
53713329     3759    0.054201066      6670.0546 
Loop time of 6670.05 on 40 procs for 308697 steps with 3759 atoms, finish time Wed Dec  7 18:01:02 2022


Pair  time (%) = 1.83086 (0.0274489)
Neigh time (%) = 2.53624 (0.0380242)
Comm  time (%) = 17.3176 (0.259632)
Outpt time (%) = 0.00317294 (4.75699e-05)
Other time (%) = 6648.37 (99.6748)

Nlocal:    93.975 ave 1009 max 0 min
Histogram: 32 1 3 1 1 0 0 0 0 2
Nghost:    13.3 ave 125 max 0 min
Histogram: 32 2 2 0 1 0 1 0 0 2
Neighs:    27.525 ave 505 max 0 min
Histogram: 34 2 3 0 0 0 0 0 0 1

Total # of neighbors = 1101
Ave neighs/atom = 0.292897
Neighbor list builds = 968
Dangerous builds = 0
Setting up run at Wed Dec  7 18:01:02 2022

Memory usage per processor = 1088.62 Mbytes
    Step    Atoms         KinEng            CPU 
53713329     3759    0.054201066              0 
54022026     3754    0.054141431      7928.9027 
Loop time of 7928.9 on 40 procs for 308697 steps with 3754 atoms, finish time Wed Dec  7 20:13:11 2022


Pair  time (%) = 1.90666 (0.024047)
Neigh time (%) = 2.31928 (0.0292509)
Comm  time (%) = 16.0656 (0.202621)
Outpt time (%) = 0.0509106 (0.000642089)
Other time (%) = 7908.56 (99.7434)

Nlocal:    93.85 ave 1009 max 0 min
Histogram: 32 1 3 1 1 0 0 0 0 2
Nghost:    13 ave 129 max 0 min
Histogram: 32 1 4 0 0 0 1 0 0 2
Neighs:    26.525 ave 380 max 0 min
Histogram: 33 2 2 1 0 1 0 0 0 1

Total # of neighbors = 1061
Ave neighs/atom = 0.282632
Neighbor list builds = 868
Dangerous builds = 0
Setting up run at Wed Dec  7 20:13:34 2022

Memory usage per processor = 1088.62 Mbytes
    Step    Atoms         KinEng            CPU 
54022026     3754    0.054141431              0 
54330723     3747    0.054457558      6492.5752 
Loop time of 6492.58 on 40 procs for 308697 steps with 3747 atoms, finish time Wed Dec  7 22:01:47 2022


Pair  time (%) = 1.85643 (0.0285931)
Neigh time (%) = 2.28197 (0.0351474)
Comm  time (%) = 15.8901 (0.244743)
Outpt time (%) = 0.00307473 (4.73577e-05)
Other time (%) = 6472.54 (99.6915)

Nlocal:    93.675 ave 1004 max 0 min
Histogram: 32 2 1 2 1 0 0 0 0 2
Nghost:    12.65 ave 159 max 0 min
Histogram: 33 2 1 2 0 1 0 0 0 1
Neighs:    27.025 ave 458 max 0 min
Histogram: 34 1 4 0 0 0 0 0 0 1

Total # of neighbors = 1081
Ave neighs/atom = 0.288497
Neighbor list builds = 879
Dangerous builds = 0
Setting up run at Wed Dec  7 22:01:47 2022

Memory usage per processor = 1088.62 Mbytes
    Step    Atoms         KinEng            CPU 
54330723     3747    0.054457558              0 
54639420     3745    0.054311022      6452.3128 
Loop time of 6452.33 on 40 procs for 308697 steps with 3745 atoms, finish time Wed Dec  7 23:49:19 2022


Pair  time (%) = 1.85663 (0.0287745)
Neigh time (%) = 2.4469 (0.0379228)
Comm  time (%) = 16.9051 (0.261999)
Outpt time (%) = 0.00295745 (4.58354e-05)
Other time (%) = 6431.12 (99.6713)

Nlocal:    93.625 ave 999 max 0 min
Histogram: 32 2 2 1 1 0 0 0 0 2
Nghost:    12.125 ave 109 max 0 min
Histogram: 32 1 3 0 0 1 0 1 1 1
Neighs:    26.25 ave 407 max 0 min
Histogram: 34 1 3 0 1 0 0 0 0 1

Total # of neighbors = 1050
Ave neighs/atom = 0.280374
Neighbor list builds = 935
Dangerous builds = 0
Setting up run at Wed Dec  7 23:49:19 2022

Memory usage per processor = 1088.62 Mbytes
    Step    Atoms         KinEng            CPU 
54639420     3745    0.054311022              0 
54948117     3742    0.054352841      6259.0279 
Loop time of 6259.03 on 40 procs for 308697 steps with 3742 atoms, finish time Thu Dec  8 01:33:39 2022


Pair  time (%) = 1.86433 (0.0297863)
Neigh time (%) = 2.49659 (0.0398878)
Comm  time (%) = 17.1 (0.273206)
Outpt time (%) = 0.0555675 (0.000887797)
Other time (%) = 6237.51 (99.6562)

Nlocal:    93.55 ave 995 max 0 min
Histogram: 32 1 3 1 1 0 0 0 0 2
Nghost:    13.025 ave 127 max 0 min
Histogram: 31 2 3 0 2 0 0 0 1 1
Neighs:    26.475 ave 444 max 0 min
Histogram: 33 2 4 0 0 0 0 0 0 1

Total # of neighbors = 1059
Ave neighs/atom = 0.283004
Neighbor list builds = 938
Dangerous builds = 0
Setting up run at Thu Dec  8 01:33:39 2022

Memory usage per processor = 1088.62 Mbytes
    Step    Atoms         KinEng            CPU 
54948117     3742    0.054352841              0 
55256814     3740    0.054306808      6278.7336 
Loop time of 6278.79 on 40 procs for 308697 steps with 3740 atoms, finish time Thu Dec  8 03:18:18 2022


Pair  time (%) = 1.83745 (0.0292644)
Neigh time (%) = 2.42259 (0.0385836)
Comm  time (%) = 16.4135 (0.261412)
Outpt time (%) = 0.00292461 (4.65793e-05)
Other time (%) = 6258.11 (99.6707)

Nlocal:    93.5 ave 996 max 0 min
Histogram: 32 2 2 1 1 0 0 0 0 2
Nghost:    12.375 ave 102 max 0 min
Histogram: 30 3 2 0 1 1 1 0 0 2
Neighs:    25.2 ave 396 max 0 min
Histogram: 34 1 3 0 1 0 0 0 0 1

Total # of neighbors = 1008
Ave neighs/atom = 0.269519
Neighbor list builds = 919
Dangerous builds = 0
Setting up run at Thu Dec  8 03:18:18 2022

Memory usage per processor = 1088.62 Mbytes
    Step    Atoms         KinEng            CPU 
55256814     3740    0.054306808              0 
55565511     3737    0.054258552      6241.3209 
Loop time of 6241.32 on 40 procs for 308697 steps with 3737 atoms, finish time Thu Dec  8 05:02:20 2022


Pair  time (%) = 1.83943 (0.0294719)
Neigh time (%) = 2.38322 (0.0381845)
Comm  time (%) = 16.2869 (0.260952)
Outpt time (%) = 0.00307805 (4.93174e-05)
Other time (%) = 6220.81 (99.6713)

Nlocal:    93.425 ave 995 max 0 min
Histogram: 32 1 2 2 1 0 0 0 0 2
Nghost:    13.625 ave 162 max 0 min
Histogram: 31 5 2 0 0 0 0 1 0 1
Neighs:    26.25 ave 414 max 0 min
Histogram: 33 2 3 1 0 0 0 0 0 1

Total # of neighbors = 1050
Ave neighs/atom = 0.280974
Neighbor list builds = 915
Dangerous builds = 0
Setting up run at Thu Dec  8 05:02:20 2022

Memory usage per processor = 1088.62 Mbytes
    Step    Atoms         KinEng            CPU 
55565511     3737    0.054258552              0 
55874208     3736    0.054395917      6261.0985 
Loop time of 6261.1 on 40 procs for 308697 steps with 3736 atoms, finish time Thu Dec  8 06:46:41 2022


Pair  time (%) = 1.84999 (0.0295473)
Neigh time (%) = 2.35599 (0.0376289)
Comm  time (%) = 16.6175 (0.265409)
Outpt time (%) = 0.00293231 (4.68337e-05)
Other time (%) = 6240.27 (99.6674)

Nlocal:    93.4 ave 993 max 0 min
Histogram: 32 1 3 1 0 1 0 0 0 2
Nghost:    12.55 ave 104 max 0 min
Histogram: 31 2 1 1 0 3 0 0 0 2
Neighs:    27.15 ave 440 max 0 min
Histogram: 34 1 3 0 1 0 0 0 0 1

Total # of neighbors = 1086
Ave neighs/atom = 0.290685
Neighbor list builds = 903
Dangerous builds = 0
Setting up run at Thu Dec  8 06:46:41 2022

Memory usage per processor = 1088.62 Mbytes
    Step    Atoms         KinEng            CPU 
55874208     3736    0.054395917              0 
56182905     3729    0.054474591      6386.2833 
Loop time of 6386.3 on 40 procs for 308697 steps with 3729 atoms, finish time Thu Dec  8 08:33:07 2022


Pair  time (%) = 1.86116 (0.029143)
Neigh time (%) = 2.3409 (0.036655)
Comm  time (%) = 16.1339 (0.252634)
Outpt time (%) = 0.00311692 (4.88064e-05)
Other time (%) = 6365.96 (99.6815)

Nlocal:    93.225 ave 987 max 0 min
Histogram: 32 1 2 2 1 0 0 0 0 2
Nghost:    12.975 ave 163 max 0 min
Histogram: 32 3 3 0 0 0 0 0 0 2
Neighs:    27.225 ave 388 max 0 min
Histogram: 33 0 3 2 1 0 0 0 0 1

Total # of neighbors = 1089
Ave neighs/atom = 0.292035
Neighbor list builds = 892
Dangerous builds = 0
Setting up run at Thu Dec  8 08:33:08 2022

Memory usage per processor = 1088.62 Mbytes
    Step    Atoms         KinEng            CPU 
56182905     3729    0.054474591              0 
56491602     3727    0.054481968      6320.1092 
srun: Job step aborted: Waiting up to 62 seconds for job step to finish.
slurmstepd: error: *** JOB 14337280 ON r01c22 CANCELLED AT 2022-12-08T15:03:29 ***
slurmstepd: error: *** STEP 14337280.0 ON r01c22 CANCELLED AT 2022-12-08T15:03:29 ***
