LIGGGHTS (Version LIGGGHTS-PUBLIC 3.8.0, compiled 2022-11-07-16:55:38 by serperd1, git commit 86544c3f1215bc9744d7929e3eacf53ba086af9e)
Created orthogonal box = (-0.15 -0.15 -0.15) to (0.15 0.15 0.15)
  2 by 4 by 5 MPI processor grid

Reading STL file 'cone.stl' (mesh processing step 1/3) 

Reading STL file 'in_cyl.stl' (mesh processing step 1/3) 

Reading STL file 'top_cyl.stl' (mesh processing step 1/3) 

Reading STL file 'bot_cyl.stl' (mesh processing step 1/3) 

Reading STL file 'bottom_disk.stl' (mesh processing step 1/3) 

Reading STL file 'top_disk.stl' (mesh processing step 1/3) 
Fix particledistribution/discrete (id prob_par): distribution based on mass%:
    r_0to10p: d=1.680000e-04 (max. bounding sphere) mass%=10.000000%
    r_10to50p: d=4.656000e-04 (max. bounding sphere) mass%=40.000000%
    r_50to90p: d=1.693200e-03 (max. bounding sphere) mass%=40.000000%
    r_90to100p: d=2.624400e-03 (max. bounding sphere) mass%=10.000000%
Fix particledistribution/discrete (id prob_par): distribution based on number%:
    r_0to10p: d=1.680000e-04 (max. bounding sphere) number%=83.887052%
    r_10to50p: d=4.656000e-04 (max. bounding sphere) number%=15.763181%
    r_50to90p: d=1.693200e-03 (max. bounding sphere) number%=0.327762%
    r_90to100p: d=2.624400e-03 (max. bounding sphere) number%=0.022006%
Setting up run at Thu Nov 24 05:36:53 2022

Import and parallelization of mesh cone_mesh containing 868 triangle(s) successful
Import and parallelization of mesh inlet_cyl_wall_mesh containing 1064 triangle(s) successful
Import and parallelization of mesh top_cyl_wall_mesh containing 682 triangle(s) successful
Import and parallelization of mesh bot_cyl_wall_mesh containing 1280 triangle(s) successful
Import and parallelization of mesh bot_disk_wall_mesh containing 1682 triangle(s) successful
Import and parallelization of mesh top_disk_wall_mesh containing 1144 triangle(s) successful
Memory usage per processor = 954.637 Mbytes
    Step    Atoms         KinEng            CPU 
       0        0              0              0 
Loop time of 5.62143e-05 on 40 procs for 0 steps with 0 atoms, finish time Thu Nov 24 05:36:54 2022


Pair  time (%) = 0 (0)
Neigh time (%) = 0 (0)
Comm  time (%) = 0 (0)
Outpt time (%) = 0 (0)
Other time (%) = 5.62143e-05 (100)

Nlocal:    0 ave 0 max 0 min
Histogram: 40 0 0 0 0 0 0 0 0 0
Nghost:    0 ave 0 max 0 min
Histogram: 40 0 0 0 0 0 0 0 0 0
Neighs:    0 ave 0 max 0 min
Histogram: 40 0 0 0 0 0 0 0 0 0

Total # of neighbors = 0
Neighbor list builds = 0
Dangerous builds = 0
Setting up run at Thu Nov 24 05:36:54 2022

Memory usage per processor = 954.637 Mbytes
    Step    Atoms         KinEng            CPU 
       0        0              0              0 
       1        0              0    0.009745801 
Loop time of 0.0097641 on 40 procs for 1 steps with 0 atoms, finish time Thu Nov 24 05:36:54 2022


Pair  time (%) = 2.56135e-06 (0.0262323)
Neigh time (%) = 0 (0)
Comm  time (%) = 0.000234448 (2.40112)
Outpt time (%) = 0.000180907 (1.85277)
Other time (%) = 0.00934618 (95.7199)

Nlocal:    0 ave 0 max 0 min
Histogram: 40 0 0 0 0 0 0 0 0 0
Nghost:    0 ave 0 max 0 min
Histogram: 40 0 0 0 0 0 0 0 0 0
Neighs:    0 ave 0 max 0 min
Histogram: 40 0 0 0 0 0 0 0 0 0

Total # of neighbors = 0
Neighbor list builds = 0
Dangerous builds = 0
Scanning dump file ...
Reading snapshot from dump file ...
  orthogonal box = (-0.15 -0.15 -0.15) to (0.15 0.15 0.15)
  0 atoms before read
  522 atoms in snapshot
  0 atoms purged
  0 atoms replaced
  0 atoms trimmed
  522 atoms added
  522 atoms after read
Setting atom values ...
  522 settings made for type
  522 settings made for density
  522 settings made for vy
Setting up run at Thu Nov 24 05:36:54 2022

Memory usage per processor = 958.989 Mbytes
    Step    Atoms         KinEng            CPU 
       1      522  2.0467238e-07              0 
       2      522  2.2321206e-07    0.009140441 
Loop time of 0.00916362 on 40 procs for 1 steps with 522 atoms, finish time Thu Nov 24 05:36:54 2022


Pair  time (%) = 2.1249e-06 (0.0231884)
Neigh time (%) = 0 (0)
Comm  time (%) = 5.61828e-06 (0.0613106)
Outpt time (%) = 0.000208384 (2.27404)
Other time (%) = 0.00894749 (97.6415)

Nlocal:    13.05 ave 230 max 0 min
Histogram: 36 2 0 0 0 0 0 0 1 1
Nghost:    6.9 ave 88 max 0 min
Histogram: 36 0 0 0 0 1 1 0 0 2
Neighs:    4.05 ave 71 max 0 min
Histogram: 36 2 0 0 0 0 0 0 0 2

Total # of neighbors = 162
Ave neighs/atom = 0.310345
Neighbor list builds = 0
Dangerous builds = 0
Setting up run at Thu Nov 24 05:36:54 2022

Memory usage per processor = 958.989 Mbytes
    Step    Atoms         KinEng            CPU 
       2      522  2.2321206e-07              0 
  154322      522  2.5096779e-05       1509.932 
Loop time of 1509.93 on 40 procs for 154320 steps with 522 atoms, finish time Thu Nov 24 06:02:04 2022


Pair  time (%) = 0.341837 (0.0226392)
Neigh time (%) = 0.13722 (0.00908783)
Comm  time (%) = 0.618621 (0.0409701)
Outpt time (%) = 0.000266425 (1.76448e-05)
Other time (%) = 1508.83 (99.9273)

Nlocal:    13.05 ave 225 max 0 min
Histogram: 36 0 2 0 0 0 0 0 0 2
Nghost:    6.975 ave 93 max 0 min
Histogram: 36 0 0 0 1 1 0 0 0 2
Neighs:    4.4 ave 82 max 0 min
Histogram: 36 2 0 0 0 0 0 0 1 1

Total # of neighbors = 176
Ave neighs/atom = 0.337165
Neighbor list builds = 412
Dangerous builds = 0
Setting up run at Thu Nov 24 06:02:04 2022

Memory usage per processor = 958.989 Mbytes
    Step    Atoms         KinEng            CPU 
  154322      522  2.5096779e-05              0 
  308642      522  0.00014274771      1497.5942 
Loop time of 1497.59 on 40 procs for 154320 steps with 522 atoms, finish time Thu Nov 24 06:27:01 2022


Pair  time (%) = 0.34171 (0.0228173)
Neigh time (%) = 0.138311 (0.00923553)
Comm  time (%) = 0.636081 (0.0424735)
Outpt time (%) = 0.000285779 (1.90825e-05)
Other time (%) = 1496.48 (99.9255)

Nlocal:    13.05 ave 215 max 0 min
Histogram: 36 0 2 0 0 0 0 0 0 2
Nghost:    7.05 ave 94 max 0 min
Histogram: 36 0 0 0 0 2 0 0 0 2
Neighs:    4.375 ave 75 max 0 min
Histogram: 36 1 1 0 0 0 0 0 0 2

Total # of neighbors = 175
Ave neighs/atom = 0.335249
Neighbor list builds = 412
Dangerous builds = 0
Setting up run at Thu Nov 24 06:27:01 2022

Memory usage per processor = 958.989 Mbytes
    Step    Atoms         KinEng            CPU 
  308642      522  0.00014274771              0 
  462962      522  0.00014423352      1511.3728 
Loop time of 1511.37 on 40 procs for 154320 steps with 522 atoms, finish time Thu Nov 24 06:52:13 2022


Pair  time (%) = 0.34269 (0.0226741)
Neigh time (%) = 0.137768 (0.00911539)
Comm  time (%) = 0.694024 (0.0459201)
Outpt time (%) = 0.000643382 (4.25694e-05)
Other time (%) = 1510.2 (99.9222)

Nlocal:    13.05 ave 210 max 0 min
Histogram: 36 0 2 0 0 0 0 0 0 2
Nghost:    6.9 ave 92 max 0 min
Histogram: 36 0 0 0 1 1 0 0 0 2
Neighs:    4.275 ave 72 max 0 min
Histogram: 36 0 2 0 0 0 0 0 0 2

Total # of neighbors = 171
Ave neighs/atom = 0.327586
Neighbor list builds = 412
Dangerous builds = 0
Setting up run at Thu Nov 24 06:52:13 2022

Memory usage per processor = 958.989 Mbytes
    Step    Atoms         KinEng            CPU 
  462962      522  0.00014423352              0 
  617282      522  7.6652719e-05      1502.0584 
Loop time of 1502.06 on 40 procs for 154320 steps with 522 atoms, finish time Thu Nov 24 07:17:15 2022


Pair  time (%) = 0.33622 (0.022384)
Neigh time (%) = 0.138232 (0.00920283)
Comm  time (%) = 0.60614 (0.040354)
Outpt time (%) = 0.000702807 (4.67896e-05)
Other time (%) = 1500.98 (99.928)

Nlocal:    13.05 ave 207 max 0 min
Histogram: 36 0 2 0 0 0 0 0 0 2
Nghost:    6.925 ave 90 max 0 min
Histogram: 36 0 0 0 0 1 1 0 0 2
Neighs:    4.1 ave 74 max 0 min
Histogram: 36 1 1 0 0 0 0 1 0 1

Total # of neighbors = 164
Ave neighs/atom = 0.314176
Neighbor list builds = 412
Dangerous builds = 0
Setting up run at Thu Nov 24 07:17:15 2022

Memory usage per processor = 958.989 Mbytes
    Step    Atoms         KinEng            CPU 
  617282      522  7.6652719e-05              0 
  771602      522   0.0003105504      1493.8657 
Loop time of 1493.87 on 40 procs for 154320 steps with 522 atoms, finish time Thu Nov 24 07:42:09 2022


Pair  time (%) = 0.334532 (0.0223937)
Neigh time (%) = 0.138081 (0.00924318)
Comm  time (%) = 0.61866 (0.0414133)
Outpt time (%) = 0.000669103 (4.479e-05)
Other time (%) = 1492.77 (99.9269)

Nlocal:    13.05 ave 208 max 0 min
Histogram: 36 0 2 0 0 0 0 0 0 2
Nghost:    6.9 ave 91 max 0 min
Histogram: 36 0 0 0 0 1 1 0 1 1
Neighs:    4 ave 70 max 0 min
Histogram: 36 1 1 0 0 0 0 0 1 1

Total # of neighbors = 160
Ave neighs/atom = 0.306513
Neighbor list builds = 412
Dangerous builds = 0
Setting up run at Thu Nov 24 07:42:09 2022

Memory usage per processor = 958.989 Mbytes
    Step    Atoms         KinEng            CPU 
  771602      522   0.0003105504              0 
  925922      522   0.0034803611      1509.2299 
Loop time of 1509.23 on 40 procs for 154320 steps with 522 atoms, finish time Thu Nov 24 08:07:18 2022


Pair  time (%) = 0.329846 (0.0218552)
Neigh time (%) = 0.232659 (0.0154157)
Comm  time (%) = 0.697035 (0.0461848)
Outpt time (%) = 0.000287643 (1.90589e-05)
Other time (%) = 1507.97 (99.9165)

Nlocal:    13.05 ave 206 max 0 min
Histogram: 36 0 2 0 0 0 0 0 0 2
Nghost:    6.775 ave 86 max 0 min
Histogram: 36 0 0 0 0 1 1 0 1 1
Neighs:    3.975 ave 74 max 0 min
Histogram: 36 2 0 0 0 0 0 1 0 1

Total # of neighbors = 159
Ave neighs/atom = 0.304598
Neighbor list builds = 694
Dangerous builds = 0
Setting up run at Thu Nov 24 08:07:18 2022

Memory usage per processor = 958.989 Mbytes
    Step    Atoms         KinEng            CPU 
  925922      522   0.0034803611              0 
 1080242      522    0.010464203      1513.6124 
Loop time of 1513.61 on 40 procs for 154320 steps with 522 atoms, finish time Thu Nov 24 08:32:32 2022


Pair  time (%) = 0.328712 (0.0217171)
Neigh time (%) = 0.452553 (0.0298989)
Comm  time (%) = 1.06125 (0.0701135)
Outpt time (%) = 0.000619858 (4.09522e-05)
Other time (%) = 1511.77 (99.8782)

Nlocal:    13.05 ave 204 max 0 min
Histogram: 36 0 2 0 0 0 0 0 0 2
Nghost:    6.825 ave 84 max 0 min
Histogram: 36 0 0 0 0 0 2 0 0 2
Neighs:    4.05 ave 72 max 0 min
Histogram: 36 0 2 0 0 0 0 1 0 1

Total # of neighbors = 162
Ave neighs/atom = 0.310345
Neighbor list builds = 1358
Dangerous builds = 0
Setting up run at Thu Nov 24 08:32:32 2022

Memory usage per processor = 958.989 Mbytes
    Step    Atoms         KinEng            CPU 
 1080242      522    0.010464203              0 
 1234562      522    0.042089764       1529.037 
Loop time of 1529.05 on 40 procs for 154320 steps with 522 atoms, finish time Thu Nov 24 08:58:01 2022


Pair  time (%) = 0.334195 (0.0218563)
Neigh time (%) = 1.67 (0.109218)
Comm  time (%) = 2.10198 (0.137469)
Outpt time (%) = 0.000400626 (2.62009e-05)
Other time (%) = 1524.95 (99.7314)

Nlocal:    13.05 ave 203 max 0 min
Histogram: 36 0 2 0 0 0 0 0 0 2
Nghost:    6.6 ave 85 max 0 min
Histogram: 36 0 0 0 0 2 0 0 0 2
Neighs:    4.35 ave 76 max 0 min
Histogram: 36 0 2 0 0 0 0 1 0 1

Total # of neighbors = 174
Ave neighs/atom = 0.333333
Neighbor list builds = 5005
Dangerous builds = 0
Setting up run at Thu Nov 24 08:58:01 2022

Memory usage per processor = 958.989 Mbytes
    Step    Atoms         KinEng            CPU 
 1234562      522    0.042089764              0 
 1388882      519    0.035920217      1528.6751 
Loop time of 1528.68 on 40 procs for 154320 steps with 519 atoms, finish time Thu Nov 24 09:23:30 2022


Pair  time (%) = 0.337125 (0.0220534)
Neigh time (%) = 1.682 (0.11003)
Comm  time (%) = 2.7116 (0.177383)
Outpt time (%) = 0.000572307 (3.74381e-05)
Other time (%) = 1523.94 (99.6905)

Nlocal:    12.975 ave 200 max 0 min
Histogram: 36 0 2 0 0 0 0 0 0 2
Nghost:    6.425 ave 84 max 0 min
Histogram: 36 0 0 0 0 2 0 0 1 1
Neighs:    4.275 ave 78 max 0 min
Histogram: 36 0 2 0 0 0 1 0 0 1

Total # of neighbors = 171
Ave neighs/atom = 0.32948
Neighbor list builds = 5052
Dangerous builds = 22
Setting up run at Thu Nov 24 09:23:30 2022

Memory usage per processor = 958.989 Mbytes
    Step    Atoms         KinEng            CPU 
 1388882      519    0.035920217              0 
 1543202      513    0.010336733      1516.3874 
Loop time of 1516.39 on 40 procs for 154320 steps with 513 atoms, finish time Thu Nov 24 09:48:46 2022


Pair  time (%) = 0.329547 (0.0217324)
Neigh time (%) = 1.07461 (0.0708665)
Comm  time (%) = 1.78283 (0.117571)
Outpt time (%) = 0.000297292 (1.96053e-05)
Other time (%) = 1513.2 (99.7898)

Nlocal:    12.825 ave 195 max 0 min
Histogram: 36 0 1 1 0 0 0 0 0 2
Nghost:    6.275 ave 85 max 0 min
Histogram: 36 0 0 0 0 2 0 0 1 1
Neighs:    4.2 ave 74 max 0 min
Histogram: 36 0 2 0 0 0 0 1 0 1

Total # of neighbors = 168
Ave neighs/atom = 0.327485
Neighbor list builds = 3288
Dangerous builds = 46
Setting up run at Thu Nov 24 09:48:46 2022

Memory usage per processor = 958.989 Mbytes
    Step    Atoms         KinEng            CPU 
 1543202      513    0.010336733              0 
 1697522      513     0.10533851      1529.4323 
Loop time of 1529.43 on 40 procs for 154320 steps with 513 atoms, finish time Thu Nov 24 10:14:16 2022


Pair  time (%) = 0.335124 (0.0219117)
Neigh time (%) = 1.74088 (0.113825)
Comm  time (%) = 2.09914 (0.13725)
Outpt time (%) = 0.000281028 (1.83747e-05)
Other time (%) = 1525.26 (99.727)

Nlocal:    12.825 ave 195 max 0 min
Histogram: 36 0 1 1 0 0 0 0 0 2
Nghost:    6.325 ave 85 max 0 min
Histogram: 36 0 0 0 0 2 0 0 1 1
Neighs:    4.175 ave 71 max 0 min
Histogram: 36 0 1 1 0 0 0 1 0 1

Total # of neighbors = 167
Ave neighs/atom = 0.325536
Neighbor list builds = 5215
Dangerous builds = 0
Setting up run at Thu Nov 24 10:14:16 2022

Memory usage per processor = 958.989 Mbytes
    Step    Atoms         KinEng            CPU 
 1697522      513     0.10533851              0 
 1851842      512    0.093892438      1526.2182 
Loop time of 1526.22 on 40 procs for 154320 steps with 512 atoms, finish time Thu Nov 24 10:39:42 2022


Pair  time (%) = 0.335917 (0.0220098)
Neigh time (%) = 1.67542 (0.109776)
Comm  time (%) = 2.98271 (0.195431)
Outpt time (%) = 0.000562077 (3.68281e-05)
Other time (%) = 1521.22 (99.6727)

Nlocal:    12.8 ave 194 max 0 min
Histogram: 36 0 1 1 0 0 0 0 0 2
Nghost:    6.325 ave 87 max 0 min
Histogram: 36 0 0 0 0 2 0 0 1 1
Neighs:    4.05 ave 68 max 0 min
Histogram: 36 0 1 1 0 0 0 1 0 1

Total # of neighbors = 162
Ave neighs/atom = 0.316406
Neighbor list builds = 5011
Dangerous builds = 1
Setting up run at Thu Nov 24 10:39:42 2022

Memory usage per processor = 958.989 Mbytes
    Step    Atoms         KinEng            CPU 
 1851842      512    0.093892438              0 
 2006162      508     0.10514823       1534.776 
Loop time of 1534.78 on 40 procs for 154320 steps with 508 atoms, finish time Thu Nov 24 11:05:17 2022


Pair  time (%) = 0.336084 (0.0218979)
Neigh time (%) = 2.01277 (0.131144)
Comm  time (%) = 3.03355 (0.197654)
Outpt time (%) = 0.000303543 (1.97777e-05)
Other time (%) = 1529.39 (99.6493)

Nlocal:    12.7 ave 196 max 0 min
Histogram: 36 0 1 1 0 0 0 0 0 2
Nghost:    6.35 ave 84 max 0 min
Histogram: 36 0 0 0 0 1 1 0 1 1
Neighs:    4.225 ave 68 max 0 min
Histogram: 36 0 1 0 1 0 0 1 0 1

Total # of neighbors = 169
Ave neighs/atom = 0.332677
Neighbor list builds = 6327
Dangerous builds = 710
Setting up run at Thu Nov 24 11:05:17 2022

Memory usage per processor = 958.989 Mbytes
    Step    Atoms         KinEng            CPU 
 2006162      508     0.10514823              0 
 2160482      508     0.04896401      1521.7906 
Loop time of 1521.79 on 40 procs for 154320 steps with 508 atoms, finish time Thu Nov 24 11:30:39 2022


Pair  time (%) = 0.332062 (0.0218205)
Neigh time (%) = 1.42265 (0.093485)
Comm  time (%) = 2.57395 (0.169139)
Outpt time (%) = 0.000649179 (4.26589e-05)
Other time (%) = 1517.46 (99.7155)

Nlocal:    12.7 ave 193 max 0 min
Histogram: 36 0 1 1 0 0 0 0 0 2
Nghost:    6.55 ave 90 max 0 min
Histogram: 36 0 0 0 1 1 0 0 1 1
Neighs:    4.375 ave 75 max 0 min
Histogram: 36 0 1 1 0 0 0 1 0 1

Total # of neighbors = 175
Ave neighs/atom = 0.344488
Neighbor list builds = 4276
Dangerous builds = 0
Setting up run at Thu Nov 24 11:30:39 2022

Memory usage per processor = 958.989 Mbytes
    Step    Atoms         KinEng            CPU 
 2160482      508     0.04896401              0 
 2314802      506     0.16499994      1528.7075 
Loop time of 1528.71 on 40 procs for 154320 steps with 506 atoms, finish time Thu Nov 24 11:56:08 2022


Pair  time (%) = 0.334227 (0.0218633)
Neigh time (%) = 1.81994 (0.119051)
Comm  time (%) = 2.69609 (0.176364)
Outpt time (%) = 0.000322059 (2.10674e-05)
Other time (%) = 1523.86 (99.6827)

Nlocal:    12.65 ave 194 max 0 min
Histogram: 36 0 2 0 0 0 0 0 0 2
Nghost:    6.475 ave 83 max 0 min
Histogram: 36 0 0 0 1 0 1 0 1 1
Neighs:    4.1 ave 74 max 0 min
Histogram: 36 0 2 0 0 0 1 0 0 1

Total # of neighbors = 164
Ave neighs/atom = 0.324111
Neighbor list builds = 5624
Dangerous builds = 415
Setting up run at Thu Nov 24 11:56:08 2022

Memory usage per processor = 958.989 Mbytes
    Step    Atoms         KinEng            CPU 
 2314802      506     0.16499994              0 
 2469122      505     0.33471393      1554.6494 
Loop time of 1554.65 on 40 procs for 154320 steps with 505 atoms, finish time Thu Nov 24 12:22:02 2022


Pair  time (%) = 0.340844 (0.0219242)
Neigh time (%) = 2.80453 (0.180396)
Comm  time (%) = 4.09534 (0.263425)
Outpt time (%) = 0.000207313 (1.3335e-05)
Other time (%) = 1547.41 (99.5342)

Nlocal:    12.625 ave 194 max 0 min
Histogram: 36 0 2 0 0 0 0 0 0 2
Nghost:    6.575 ave 81 max 0 min
Histogram: 36 0 0 0 1 0 0 1 0 2
Neighs:    4.275 ave 73 max 0 min
Histogram: 36 0 1 1 0 0 0 1 0 1

Total # of neighbors = 171
Ave neighs/atom = 0.338614
Neighbor list builds = 8424
Dangerous builds = 0
Setting up run at Thu Nov 24 12:22:02 2022

Memory usage per processor = 958.989 Mbytes
    Step    Atoms         KinEng            CPU 
 2469122      505     0.33471393              0 
 2623442      503     0.16496754      1572.6493 
Loop time of 1572.65 on 40 procs for 154320 steps with 503 atoms, finish time Thu Nov 24 12:48:15 2022


Pair  time (%) = 0.338324 (0.021513)
Neigh time (%) = 2.41046 (0.153274)
Comm  time (%) = 3.674 (0.233619)
Outpt time (%) = 0.00063842 (4.05952e-05)
Other time (%) = 1566.23 (99.5916)

Nlocal:    12.575 ave 194 max 0 min
Histogram: 36 0 2 0 0 0 0 0 0 2
Nghost:    6.725 ave 83 max 0 min
Histogram: 36 0 0 0 0 1 0 1 0 2
Neighs:    4.25 ave 71 max 0 min
Histogram: 36 0 1 1 0 0 0 1 0 1

Total # of neighbors = 170
Ave neighs/atom = 0.337972
Neighbor list builds = 7458
Dangerous builds = 406
Setting up run at Thu Nov 24 12:48:15 2022

Memory usage per processor = 958.989 Mbytes
    Step    Atoms         KinEng            CPU 
 2623442      503     0.16496754              0 
 2777762      502     0.22677961      1540.2853 
Loop time of 1540.29 on 40 procs for 154320 steps with 502 atoms, finish time Thu Nov 24 13:13:56 2022


Pair  time (%) = 0.334838 (0.0217387)
Neigh time (%) = 2.00282 (0.130029)
Comm  time (%) = 3.21599 (0.208792)
Outpt time (%) = 0.000310166 (2.01369e-05)
Other time (%) = 1534.73 (99.6394)

Nlocal:    12.55 ave 195 max 0 min
Histogram: 36 0 1 1 0 0 0 0 1 1
Nghost:    6.6 ave 82 max 0 min
Histogram: 36 0 0 0 0 1 0 1 0 2
Neighs:    4.25 ave 70 max 0 min
Histogram: 36 0 1 1 0 0 0 0 1 1

Total # of neighbors = 170
Ave neighs/atom = 0.338645
Neighbor list builds = 6186
Dangerous builds = 596
Setting up run at Thu Nov 24 13:13:56 2022

Memory usage per processor = 958.989 Mbytes
    Step    Atoms         KinEng            CPU 
 2777762      502     0.22677961              0 
 2932082      499     0.27721741       1536.739 
Loop time of 1536.74 on 40 procs for 154320 steps with 499 atoms, finish time Thu Nov 24 13:39:32 2022


Pair  time (%) = 0.333342 (0.0216915)
Neigh time (%) = 2.18187 (0.141981)
Comm  time (%) = 3.90229 (0.253933)
Outpt time (%) = 0.000612165 (3.98353e-05)
Other time (%) = 1530.32 (99.5824)

Nlocal:    12.475 ave 194 max 0 min
Histogram: 36 0 2 0 0 0 0 0 1 1
Nghost:    6.725 ave 83 max 0 min
Histogram: 36 0 0 0 0 1 0 1 0 2
Neighs:    3.85 ave 68 max 0 min
Histogram: 36 1 0 1 0 0 0 1 0 1

Total # of neighbors = 154
Ave neighs/atom = 0.308617
Neighbor list builds = 6659
Dangerous builds = 0
Setting up run at Thu Nov 24 13:39:32 2022

Memory usage per processor = 958.989 Mbytes
    Step    Atoms         KinEng            CPU 
 2932082      499     0.27721741              0 
 3086402      496     0.26260263       1586.096 
Loop time of 1586.1 on 40 procs for 154320 steps with 496 atoms, finish time Thu Nov 24 14:05:58 2022


Pair  time (%) = 0.332595 (0.0209694)
Neigh time (%) = 2.40422 (0.151581)
Comm  time (%) = 3.27605 (0.206548)
Outpt time (%) = 0.000291338 (1.83683e-05)
Other time (%) = 1580.08 (99.6209)

Nlocal:    12.4 ave 192 max 0 min
Histogram: 36 0 2 0 0 0 0 0 0 2
Nghost:    6.65 ave 79 max 0 min
Histogram: 36 0 0 0 0 1 0 0 1 2
Neighs:    4.35 ave 83 max 0 min
Histogram: 36 1 1 0 0 0 1 0 0 1

Total # of neighbors = 174
Ave neighs/atom = 0.350806
Neighbor list builds = 7239
Dangerous builds = 6
Setting up run at Thu Nov 24 14:05:58 2022

Memory usage per processor = 958.989 Mbytes
    Step    Atoms         KinEng            CPU 
 3086402      496     0.26260263              0 
 3240722      492     0.27863467      1533.0712 
Loop time of 1533.07 on 40 procs for 154320 steps with 492 atoms, finish time Thu Nov 24 14:31:32 2022


Pair  time (%) = 0.32791 (0.0213891)
Neigh time (%) = 1.86023 (0.12134)
Comm  time (%) = 3.09898 (0.202142)
Outpt time (%) = 0.000314818 (2.05351e-05)
Other time (%) = 1527.78 (99.6551)

Nlocal:    12.3 ave 190 max 0 min
Histogram: 36 0 2 0 0 0 0 0 0 2
Nghost:    6.4 ave 77 max 0 min
Histogram: 36 0 0 0 0 1 0 0 1 2
Neighs:    4.275 ave 85 max 0 min
Histogram: 36 1 1 0 0 0 1 0 0 1

Total # of neighbors = 171
Ave neighs/atom = 0.347561
Neighbor list builds = 5652
Dangerous builds = 83
Setting up run at Thu Nov 24 14:31:32 2022

Memory usage per processor = 958.989 Mbytes
    Step    Atoms         KinEng            CPU 
 3240722      492     0.27863467              0 
 3395042      489     0.66582654      1538.0922 
Loop time of 1538.09 on 40 procs for 154320 steps with 489 atoms, finish time Thu Nov 24 14:57:10 2022


Pair  time (%) = 0.332771 (0.0216353)
Neigh time (%) = 2.37956 (0.154708)
Comm  time (%) = 3.51884 (0.22878)
Outpt time (%) = 0.000664834 (4.32246e-05)
Other time (%) = 1531.86 (99.5948)

Nlocal:    12.225 ave 191 max 0 min
Histogram: 36 0 2 0 0 0 0 0 0 2
Nghost:    6.525 ave 79 max 0 min
Histogram: 36 0 0 0 1 0 0 0 1 2
Neighs:    4.35 ave 87 max 0 min
Histogram: 36 1 1 0 0 0 1 0 0 1

Total # of neighbors = 174
Ave neighs/atom = 0.355828
Neighbor list builds = 7151
Dangerous builds = 0
Setting up run at Thu Nov 24 14:57:10 2022

Memory usage per processor = 958.989 Mbytes
    Step    Atoms         KinEng            CPU 
 3395042      489     0.66582654              0 
 3549362      487     0.71081532      1572.4754 
Loop time of 1572.48 on 40 procs for 154320 steps with 487 atoms, finish time Thu Nov 24 15:23:22 2022


Pair  time (%) = 0.332284 (0.0211313)
Neigh time (%) = 2.39518 (0.152319)
Comm  time (%) = 3.52608 (0.224237)
Outpt time (%) = 0.000318147 (2.02322e-05)
Other time (%) = 1566.22 (99.6023)

Nlocal:    12.175 ave 190 max 0 min
Histogram: 36 0 2 0 0 0 0 0 0 2
Nghost:    6.475 ave 78 max 0 min
Histogram: 36 0 0 0 1 0 0 0 1 2
Neighs:    4.35 ave 84 max 0 min
Histogram: 36 1 0 1 0 0 1 0 0 1

Total # of neighbors = 174
Ave neighs/atom = 0.35729
Neighbor list builds = 7177
Dangerous builds = 1
Setting up run at Thu Nov 24 15:23:22 2022

Memory usage per processor = 958.989 Mbytes
    Step    Atoms         KinEng            CPU 
 3549362      487     0.71081532              0 
 3703682      483     0.63201231       1544.606 
Loop time of 1544.61 on 40 procs for 154320 steps with 483 atoms, finish time Thu Nov 24 15:49:07 2022


Pair  time (%) = 0.333365 (0.0215825)
Neigh time (%) = 2.39684 (0.155175)
Comm  time (%) = 3.46375 (0.224248)
Outpt time (%) = 0.000558227 (3.61404e-05)
Other time (%) = 1538.41 (99.599)

Nlocal:    12.075 ave 189 max 0 min
Histogram: 36 0 2 0 0 0 0 0 0 2
Nghost:    6.075 ave 74 max 0 min
Histogram: 36 0 0 0 0 1 0 1 0 2
Neighs:    4.175 ave 74 max 0 min
Histogram: 36 1 0 1 0 0 0 1 0 1

Total # of neighbors = 167
Ave neighs/atom = 0.345756
Neighbor list builds = 7229
Dangerous builds = 1
Setting up run at Thu Nov 24 15:49:07 2022

Memory usage per processor = 958.989 Mbytes
    Step    Atoms         KinEng            CPU 
 3703682      483     0.63201231              0 
 3858002      482     0.55401758      1559.9306 
Loop time of 1559.98 on 40 procs for 154320 steps with 482 atoms, finish time Thu Nov 24 16:15:07 2022


Pair  time (%) = 0.327507 (0.0209942)
Neigh time (%) = 1.82077 (0.116717)
Comm  time (%) = 2.99919 (0.192258)
Outpt time (%) = 0.000304754 (1.95357e-05)
Other time (%) = 1554.84 (99.67)

Nlocal:    12.05 ave 185 max 0 min
Histogram: 36 0 2 0 0 0 0 0 0 2
Nghost:    6.275 ave 78 max 0 min
Histogram: 36 0 0 0 1 0 0 1 0 2
Neighs:    4.225 ave 82 max 0 min
Histogram: 36 1 1 0 0 0 1 0 0 1

Total # of neighbors = 169
Ave neighs/atom = 0.350622
Neighbor list builds = 5458
Dangerous builds = 0
Setting up run at Thu Nov 24 16:15:07 2022

Memory usage per processor = 958.989 Mbytes
    Step    Atoms         KinEng            CPU 
 3858002      482     0.55401758              0 
 4012322      480      0.4479437      1569.4053 
Loop time of 1569.41 on 40 procs for 154320 steps with 480 atoms, finish time Thu Nov 24 16:41:16 2022


Pair  time (%) = 0.332284 (0.0211724)
Neigh time (%) = 2.55844 (0.163019)
Comm  time (%) = 4.14868 (0.264346)
Outpt time (%) = 0.00015367 (9.79154e-06)
Other time (%) = 1562.38 (99.5515)

Nlocal:    12 ave 184 max 0 min
Histogram: 36 0 2 0 0 0 0 0 0 2
Nghost:    6.225 ave 76 max 0 min
Histogram: 36 0 0 0 0 1 0 1 0 2
Neighs:    4.625 ave 88 max 0 min
Histogram: 36 1 1 0 0 0 1 0 0 1

Total # of neighbors = 185
Ave neighs/atom = 0.385417
Neighbor list builds = 7789
Dangerous builds = 0
Setting up run at Thu Nov 24 16:41:17 2022

Memory usage per processor = 958.989 Mbytes
    Step    Atoms         KinEng            CPU 
 4012322      480      0.4479437              0 
 4166642      479     0.39209854      1516.5543 
Loop time of 1516.55 on 40 procs for 154320 steps with 479 atoms, finish time Thu Nov 24 17:06:33 2022


Pair  time (%) = 0.323529 (0.0213332)
Neigh time (%) = 1.68722 (0.111254)
Comm  time (%) = 2.98134 (0.196587)
Outpt time (%) = 0.000554594 (3.65693e-05)
Other time (%) = 1511.56 (99.6708)

Nlocal:    11.975 ave 182 max 0 min
Histogram: 36 0 2 0 0 0 0 0 0 2
Nghost:    6.25 ave 73 max 0 min
Histogram: 36 0 0 0 0 1 0 0 1 2
Neighs:    4.425 ave 78 max 0 min
Histogram: 36 1 1 0 0 0 0 0 1 1

Total # of neighbors = 177
Ave neighs/atom = 0.36952
Neighbor list builds = 5057
Dangerous builds = 1
Setting up run at Thu Nov 24 17:06:33 2022

Memory usage per processor = 958.989 Mbytes
    Step    Atoms         KinEng            CPU 
 4166642      479     0.39209854              0 
 4320962      478     0.34167582       1542.642 
Loop time of 1542.64 on 40 procs for 154320 steps with 478 atoms, finish time Thu Nov 24 17:32:16 2022


Pair  time (%) = 0.329708 (0.0213729)
Neigh time (%) = 2.58212 (0.167383)
Comm  time (%) = 3.96324 (0.256912)
Outpt time (%) = 0.000338842 (2.1965e-05)
Other time (%) = 1535.77 (99.5543)

Nlocal:    11.95 ave 181 max 0 min
Histogram: 36 0 2 0 0 0 0 0 0 2
Nghost:    6.175 ave 73 max 0 min
Histogram: 36 0 0 0 0 1 0 0 1 2
Neighs:    4.45 ave 77 max 0 min
Histogram: 36 1 1 0 0 0 0 0 1 1

Total # of neighbors = 178
Ave neighs/atom = 0.372385
Neighbor list builds = 7869
Dangerous builds = 2
Setting up run at Thu Nov 24 17:32:16 2022

Memory usage per processor = 958.989 Mbytes
    Step    Atoms         KinEng            CPU 
 4320962      478     0.34167582              0 
 4475282      475     0.34270414      1565.4867 
Loop time of 1565.49 on 40 procs for 154320 steps with 475 atoms, finish time Thu Nov 24 17:58:21 2022


Pair  time (%) = 0.33504 (0.0214017)
Neigh time (%) = 3.31702 (0.211884)
Comm  time (%) = 4.79508 (0.306299)
Outpt time (%) = 0.000629953 (4.02401e-05)
Other time (%) = 1557.04 (99.4604)

Nlocal:    11.875 ave 177 max 0 min
Histogram: 36 0 1 1 0 0 0 0 0 2
Nghost:    6.1 ave 74 max 0 min
Histogram: 36 0 0 0 0 1 0 1 0 2
Neighs:    4.325 ave 75 max 0 min
Histogram: 36 1 1 0 0 0 0 0 1 1

Total # of neighbors = 173
Ave neighs/atom = 0.364211
Neighbor list builds = 10003
Dangerous builds = 0
Setting up run at Thu Nov 24 17:58:21 2022

Memory usage per processor = 958.989 Mbytes
    Step    Atoms         KinEng            CPU 
 4475282      475     0.34270414              0 
 4629602      473     0.45673691      1541.2739 
Loop time of 1541.27 on 40 procs for 154320 steps with 473 atoms, finish time Thu Nov 24 18:24:03 2022


Pair  time (%) = 0.329352 (0.0213688)
Neigh time (%) = 2.83345 (0.183838)
Comm  time (%) = 4.2773 (0.277517)
Outpt time (%) = 0.000278285 (1.80555e-05)
Other time (%) = 1533.83 (99.5173)

Nlocal:    11.825 ave 174 max 0 min
Histogram: 36 0 2 0 0 0 0 0 0 2
Nghost:    5.875 ave 71 max 0 min
Histogram: 36 0 0 0 0 0 1 1 0 2
Neighs:    4.275 ave 75 max 0 min
Histogram: 36 1 1 0 0 0 0 0 1 1

Total # of neighbors = 171
Ave neighs/atom = 0.361522
Neighbor list builds = 8632
Dangerous builds = 167
Setting up run at Thu Nov 24 18:24:03 2022

Memory usage per processor = 958.989 Mbytes
    Step    Atoms         KinEng            CPU 
 4629602      473     0.45673691              0 
 4783922      466     0.32406948      1520.6729 
Loop time of 1520.67 on 40 procs for 154320 steps with 466 atoms, finish time Thu Nov 24 18:49:23 2022


Pair  time (%) = 0.323733 (0.0212888)
Neigh time (%) = 2.31406 (0.152174)
Comm  time (%) = 4.45163 (0.292741)
Outpt time (%) = 0.00018158 (1.19408e-05)
Other time (%) = 1513.58 (99.5338)

Nlocal:    11.65 ave 174 max 0 min
Histogram: 36 0 2 0 0 0 0 0 0 2
Nghost:    5.75 ave 68 max 0 min
Histogram: 36 0 0 0 0 0 1 1 0 2
Neighs:    4.05 ave 74 max 0 min
Histogram: 36 1 1 0 0 0 0 0 1 1

Total # of neighbors = 162
Ave neighs/atom = 0.347639
Neighbor list builds = 7227
Dangerous builds = 840
Setting up run at Thu Nov 24 18:49:23 2022

Memory usage per processor = 958.989 Mbytes
    Step    Atoms         KinEng            CPU 
 4783922      466     0.32406948              0 
 4938242      461     0.33258765      1532.3864 
Loop time of 1532.39 on 40 procs for 154320 steps with 461 atoms, finish time Thu Nov 24 19:14:56 2022


Pair  time (%) = 0.324358 (0.0211668)
Neigh time (%) = 2.4802 (0.161852)
Comm  time (%) = 4.58826 (0.299419)
Outpt time (%) = 0.000604898 (3.94742e-05)
Other time (%) = 1524.99 (99.5175)

Nlocal:    11.525 ave 173 max 0 min
Histogram: 36 0 2 0 0 0 0 0 0 2
Nghost:    5.775 ave 66 max 0 min
Histogram: 36 0 0 0 0 0 0 2 0 2
Neighs:    3.975 ave 73 max 0 min
Histogram: 36 2 0 0 0 0 0 0 1 1

Total # of neighbors = 159
Ave neighs/atom = 0.344902
Neighbor list builds = 7485
Dangerous builds = 118
Setting up run at Thu Nov 24 19:14:56 2022

Memory usage per processor = 958.989 Mbytes
    Step    Atoms         KinEng            CPU 
 4938242      461     0.33258765              0 
 5092562      457     0.23371343      1521.5948 
Loop time of 1521.59 on 40 procs for 154320 steps with 457 atoms, finish time Thu Nov 24 19:40:18 2022


Pair  time (%) = 0.325365 (0.0213832)
Neigh time (%) = 2.56757 (0.168742)
Comm  time (%) = 4.08296 (0.268334)
Outpt time (%) = 0.000276273 (1.81568e-05)
Other time (%) = 1514.62 (99.5415)

Nlocal:    11.425 ave 173 max 0 min
Histogram: 36 0 2 0 0 0 0 0 0 2
Nghost:    5.675 ave 68 max 0 min
Histogram: 36 0 0 0 0 0 1 1 1 1
Neighs:    4.125 ave 73 max 0 min
Histogram: 36 2 0 0 0 0 0 0 0 2

Total # of neighbors = 165
Ave neighs/atom = 0.36105
Neighbor list builds = 7811
Dangerous builds = 58
Setting up run at Thu Nov 24 19:40:18 2022

Memory usage per processor = 958.989 Mbytes
    Step    Atoms         KinEng            CPU 
 5092562      457     0.23371343              0 
 5246882      456      0.3651413      1521.2587 
Loop time of 1521.26 on 40 procs for 154320 steps with 456 atoms, finish time Thu Nov 24 20:05:39 2022


Pair  time (%) = 0.322635 (0.0212084)
Neigh time (%) = 1.99067 (0.130857)
Comm  time (%) = 3.2809 (0.21567)
Outpt time (%) = 0.000272213 (1.78939e-05)
Other time (%) = 1515.66 (99.6322)

Nlocal:    11.4 ave 174 max 0 min
Histogram: 36 0 2 0 0 0 0 0 0 2
Nghost:    5.675 ave 70 max 0 min
Histogram: 36 0 0 0 0 0 1 2 0 1
Neighs:    4.075 ave 69 max 0 min
Histogram: 36 1 1 0 0 0 0 0 0 2

Total # of neighbors = 163
Ave neighs/atom = 0.357456
Neighbor list builds = 5974
Dangerous builds = 0
Setting up run at Thu Nov 24 20:05:39 2022

Memory usage per processor = 958.989 Mbytes
    Step    Atoms         KinEng            CPU 
 5246882      456      0.3651413              0 
 5401202      453     0.28855616      1573.6774 
Loop time of 1573.68 on 40 procs for 154320 steps with 453 atoms, finish time Thu Nov 24 20:31:53 2022


Pair  time (%) = 0.322519 (0.0204946)
Neigh time (%) = 2.06547 (0.131251)
Comm  time (%) = 3.4994 (0.222371)
Outpt time (%) = 0.000620893 (3.94549e-05)
Other time (%) = 1567.79 (99.6258)

Nlocal:    11.325 ave 172 max 0 min
Histogram: 36 0 2 0 0 0 0 0 0 2
Nghost:    5.35 ave 63 max 0 min
Histogram: 36 0 0 0 0 0 1 1 1 1
Neighs:    4.125 ave 70 max 0 min
Histogram: 36 1 1 0 0 0 0 0 0 2

Total # of neighbors = 165
Ave neighs/atom = 0.364238
Neighbor list builds = 6216
Dangerous builds = 1
Setting up run at Thu Nov 24 20:31:53 2022

Memory usage per processor = 958.989 Mbytes
    Step    Atoms         KinEng            CPU 
 5401202      453     0.28855616              0 
 5555522      452     0.30291258      1592.3386 
Loop time of 1592.34 on 40 procs for 154320 steps with 452 atoms, finish time Thu Nov 24 20:58:25 2022


Pair  time (%) = 0.333571 (0.0209485)
Neigh time (%) = 3.89818 (0.244808)
Comm  time (%) = 5.34174 (0.335465)
Outpt time (%) = 0.000316565 (1.98805e-05)
Other time (%) = 1582.77 (99.3988)

Nlocal:    11.3 ave 172 max 0 min
Histogram: 36 0 2 0 0 0 0 0 0 2
Nghost:    5.375 ave 60 max 0 min
Histogram: 36 0 0 0 0 0 0 1 1 2
Neighs:    3.875 ave 68 max 0 min
Histogram: 37 0 1 0 0 0 0 0 0 2

Total # of neighbors = 155
Ave neighs/atom = 0.34292
Neighbor list builds = 11766
Dangerous builds = 0
Setting up run at Thu Nov 24 20:58:25 2022

Memory usage per processor = 958.989 Mbytes
    Step    Atoms         KinEng            CPU 
 5555522      452     0.30291258              0 
 5709842      448     0.27758081      1539.7075 
Loop time of 1539.71 on 40 procs for 154320 steps with 448 atoms, finish time Thu Nov 24 21:24:05 2022


Pair  time (%) = 0.323032 (0.0209801)
Neigh time (%) = 2.51745 (0.163502)
Comm  time (%) = 3.85065 (0.25009)
Outpt time (%) = 0.000639169 (4.15124e-05)
Other time (%) = 1533.02 (99.5654)

Nlocal:    11.2 ave 174 max 0 min
Histogram: 36 0 2 0 0 0 0 0 0 2
Nghost:    5.225 ave 63 max 0 min
Histogram: 36 0 0 0 0 0 1 1 1 1
Neighs:    3.625 ave 71 max 0 min
Histogram: 37 0 1 0 0 0 0 1 0 1

Total # of neighbors = 145
Ave neighs/atom = 0.323661
Neighbor list builds = 7561
Dangerous builds = 2
Setting up run at Thu Nov 24 21:24:05 2022

Memory usage per processor = 958.989 Mbytes
    Step    Atoms         KinEng            CPU 
 5709842      448     0.27758081              0 
 5864162      445     0.27179772      1531.7463 
Loop time of 1531.75 on 40 procs for 154320 steps with 445 atoms, finish time Thu Nov 24 21:49:37 2022


Pair  time (%) = 0.317979 (0.0207593)
Neigh time (%) = 2.13556 (0.13942)
Comm  time (%) = 3.05737 (0.1996)
Outpt time (%) = 0.000307812 (2.00955e-05)
Other time (%) = 1526.24 (99.6402)

Nlocal:    11.125 ave 173 max 0 min
Histogram: 36 1 0 1 0 0 0 0 0 2
Nghost:    5.025 ave 65 max 0 min
Histogram: 36 0 0 0 0 1 0 2 0 1
Neighs:    3.7 ave 76 max 0 min
Histogram: 37 0 1 0 0 0 1 0 0 1

Total # of neighbors = 148
Ave neighs/atom = 0.332584
Neighbor list builds = 6362
Dangerous builds = 1
Setting up run at Thu Nov 24 21:49:37 2022

Memory usage per processor = 958.989 Mbytes
    Step    Atoms         KinEng            CPU 
 5864162      445     0.27179772              0 
 6018482      441      0.2403354      1534.0934 
Loop time of 1534.09 on 40 procs for 154320 steps with 441 atoms, finish time Thu Nov 24 22:15:11 2022


Pair  time (%) = 0.317697 (0.0207091)
Neigh time (%) = 2.42686 (0.158195)
Comm  time (%) = 3.92001 (0.255526)
Outpt time (%) = 0.000250509 (1.63294e-05)
Other time (%) = 1527.43 (99.5656)

Nlocal:    11.025 ave 173 max 0 min
Histogram: 36 1 1 0 0 0 0 0 0 2
Nghost:    5.15 ave 67 max 0 min
Histogram: 36 0 0 0 0 1 1 1 0 1
Neighs:    3.475 ave 73 max 0 min
Histogram: 37 0 1 0 0 0 1 0 0 1

Total # of neighbors = 139
Ave neighs/atom = 0.315193
Neighbor list builds = 7242
Dangerous builds = 1
Setting up run at Thu Nov 24 22:15:11 2022

Memory usage per processor = 958.989 Mbytes
    Step    Atoms         KinEng            CPU 
 6018482      441      0.2403354              0 
 6172802      441     0.30424899      1512.2063 
Loop time of 1512.21 on 40 procs for 154320 steps with 441 atoms, finish time Thu Nov 24 22:40:23 2022


Pair  time (%) = 0.313862 (0.0207552)
Neigh time (%) = 1.94847 (0.12885)
Comm  time (%) = 3.04764 (0.201536)
Outpt time (%) = 0.000670643 (4.43486e-05)
Other time (%) = 1506.9 (99.6488)

Nlocal:    11.025 ave 170 max 0 min
Histogram: 36 0 2 0 0 0 0 0 0 2
Nghost:    5.15 ave 65 max 0 min
Histogram: 36 0 0 0 0 1 0 2 0 1
Neighs:    3.55 ave 73 max 0 min
Histogram: 37 0 1 0 0 0 1 0 0 1

Total # of neighbors = 142
Ave neighs/atom = 0.321995
Neighbor list builds = 5789
Dangerous builds = 0
Setting up run at Thu Nov 24 22:40:23 2022

Memory usage per processor = 958.989 Mbytes
    Step    Atoms         KinEng            CPU 
 6172802      441     0.30424899              0 
 6327122      436     0.52004493      1543.4919 
Loop time of 1543.49 on 40 procs for 154320 steps with 436 atoms, finish time Thu Nov 24 23:06:07 2022


Pair  time (%) = 0.319428 (0.0206952)
Neigh time (%) = 2.81598 (0.182442)
Comm  time (%) = 4.25857 (0.275905)
Outpt time (%) = 0.000248741 (1.61154e-05)
Other time (%) = 1536.1 (99.5209)

Nlocal:    10.9 ave 171 max 0 min
Histogram: 36 0 2 0 0 0 0 0 0 2
Nghost:    4.95 ave 64 max 0 min
Histogram: 36 0 0 0 0 1 0 2 0 1
Neighs:    3.5 ave 75 max 0 min
Histogram: 37 1 0 0 0 0 1 0 0 1

Total # of neighbors = 140
Ave neighs/atom = 0.321101
Neighbor list builds = 8505
Dangerous builds = 3
Setting up run at Thu Nov 24 23:06:07 2022

Memory usage per processor = 958.989 Mbytes
    Step    Atoms         KinEng            CPU 
 6327122      436     0.52004493              0 
 6481442      435     0.41896149      1534.3805 
Loop time of 1534.38 on 40 procs for 154320 steps with 435 atoms, finish time Thu Nov 24 23:31:41 2022


Pair  time (%) = 0.317162 (0.0206704)
Neigh time (%) = 2.62395 (0.17101)
Comm  time (%) = 4.06856 (0.265159)
Outpt time (%) = 0.000599276 (3.90565e-05)
Other time (%) = 1527.37 (99.5431)

Nlocal:    10.875 ave 168 max 0 min
Histogram: 36 0 2 0 0 0 0 0 0 2
Nghost:    4.95 ave 65 max 0 min
Histogram: 36 0 0 0 0 1 1 0 1 1
Neighs:    3.475 ave 69 max 0 min
Histogram: 37 1 0 0 0 0 0 1 0 1

Total # of neighbors = 139
Ave neighs/atom = 0.31954
Neighbor list builds = 7976
Dangerous builds = 402
Setting up run at Thu Nov 24 23:31:41 2022

Memory usage per processor = 958.989 Mbytes
    Step    Atoms         KinEng            CPU 
 6481442      435     0.41896149              0 
 6635762      432     0.41828366       1526.581 
Loop time of 1526.58 on 40 procs for 154320 steps with 432 atoms, finish time Thu Nov 24 23:57:08 2022


Pair  time (%) = 0.315981 (0.0206986)
Neigh time (%) = 2.26698 (0.148501)
Comm  time (%) = 3.44279 (0.225523)
Outpt time (%) = 0.000245953 (1.61113e-05)
Other time (%) = 1520.56 (99.6053)

Nlocal:    10.8 ave 169 max 0 min
Histogram: 36 0 2 0 0 0 0 0 0 2
Nghost:    4.975 ave 66 max 0 min
Histogram: 36 0 0 0 1 0 1 0 1 1
Neighs:    3.45 ave 66 max 0 min
Histogram: 37 1 0 0 0 0 0 0 1 1

Total # of neighbors = 138
Ave neighs/atom = 0.319444
Neighbor list builds = 6833
Dangerous builds = 330
Setting up run at Thu Nov 24 23:57:08 2022

Memory usage per processor = 958.989 Mbytes
    Step    Atoms         KinEng            CPU 
 6635762      432     0.41828366              0 
 6790082      428     0.92646192      1533.0279 
Loop time of 1533.03 on 40 procs for 154320 steps with 428 atoms, finish time Fri Nov 25 00:22:41 2022


Pair  time (%) = 0.31529 (0.0205665)
Neigh time (%) = 2.43069 (0.158555)
Comm  time (%) = 3.80894 (0.248459)
Outpt time (%) = 0.00266707 (0.000173974)
Other time (%) = 1526.47 (99.5722)

Nlocal:    10.7 ave 167 max 0 min
Histogram: 36 0 2 0 0 0 0 0 0 2
Nghost:    4.975 ave 66 max 0 min
Histogram: 36 0 0 0 0 1 1 0 1 1
Neighs:    3.325 ave 63 max 0 min
Histogram: 37 1 0 0 0 0 0 0 1 1

Total # of neighbors = 133
Ave neighs/atom = 0.310748
Neighbor list builds = 7504
Dangerous builds = 418
Setting up run at Fri Nov 25 00:22:41 2022

Memory usage per processor = 958.989 Mbytes
    Step    Atoms         KinEng            CPU 
 6790082      428     0.92646192              0 
 6944402      426     0.92047083      1544.0273 
Loop time of 1544.03 on 40 procs for 154320 steps with 426 atoms, finish time Fri Nov 25 00:48:25 2022


Pair  time (%) = 0.317264 (0.0205478)
Neigh time (%) = 2.76795 (0.179268)
Comm  time (%) = 4.67077 (0.302506)
Outpt time (%) = 0.00319449 (0.000206893)
Other time (%) = 1536.27 (99.4975)

Nlocal:    10.65 ave 164 max 0 min
Histogram: 36 0 2 0 0 0 0 0 0 2
Nghost:    5 ave 62 max 0 min
Histogram: 36 0 0 0 0 1 1 0 0 2
Neighs:    3.55 ave 66 max 0 min
Histogram: 37 0 1 0 0 0 0 0 1 1

Total # of neighbors = 142
Ave neighs/atom = 0.333333
Neighbor list builds = 8279
Dangerous builds = 1
Setting up run at Fri Nov 25 00:48:25 2022

Memory usage per processor = 958.989 Mbytes
    Step    Atoms         KinEng            CPU 
 6944402      426     0.92047083              0 
 7098722      425     0.84228978       1533.336 
Loop time of 1533.34 on 40 procs for 154320 steps with 425 atoms, finish time Fri Nov 25 01:13:58 2022


Pair  time (%) = 0.317061 (0.0206778)
Neigh time (%) = 2.85022 (0.185883)
Comm  time (%) = 5.22274 (0.340613)
Outpt time (%) = 0.000273183 (1.78163e-05)
Other time (%) = 1524.95 (99.4528)

Nlocal:    10.625 ave 158 max 0 min
Histogram: 36 0 2 0 0 0 0 0 0 2
Nghost:    4.975 ave 60 max 0 min
Histogram: 36 0 0 0 0 0 2 0 0 2
Neighs:    3.475 ave 61 max 0 min
Histogram: 36 1 1 0 0 0 0 0 0 2

Total # of neighbors = 139
Ave neighs/atom = 0.327059
Neighbor list builds = 8572
Dangerous builds = 0
Setting up run at Fri Nov 25 01:13:59 2022

Memory usage per processor = 958.989 Mbytes
    Step    Atoms         KinEng            CPU 
 7098722      425     0.84228978              0 
 7253042      424     0.68153088      1528.6528 
Loop time of 1528.65 on 40 procs for 154320 steps with 424 atoms, finish time Fri Nov 25 01:39:27 2022


Pair  time (%) = 0.31226 (0.0204271)
Neigh time (%) = 2.2366 (0.146312)
Comm  time (%) = 3.40829 (0.222961)
Outpt time (%) = 0.000577939 (3.78071e-05)
Other time (%) = 1522.7 (99.6103)

Nlocal:    10.6 ave 159 max 0 min
Histogram: 36 0 2 0 0 0 0 0 0 2
Nghost:    4.775 ave 61 max 0 min
Histogram: 36 0 0 0 0 1 1 0 1 1
Neighs:    3.35 ave 61 max 0 min
Histogram: 36 2 0 0 0 0 0 0 1 1

Total # of neighbors = 134
Ave neighs/atom = 0.316038
Neighbor list builds = 6671
Dangerous builds = 1
Setting up run at Fri Nov 25 01:39:27 2022

Memory usage per processor = 958.989 Mbytes
    Step    Atoms         KinEng            CPU 
 7253042      424     0.68153088              0 
 7407362      422     0.58130076      1535.5367 
Loop time of 1535.54 on 40 procs for 154320 steps with 422 atoms, finish time Fri Nov 25 02:05:03 2022


Pair  time (%) = 0.311867 (0.02031)
Neigh time (%) = 2.27448 (0.148123)
Comm  time (%) = 3.13532 (0.204184)
Outpt time (%) = 0.000211436 (1.37695e-05)
Other time (%) = 1529.81 (99.6274)

Nlocal:    10.55 ave 157 max 0 min
Histogram: 36 0 2 0 0 0 0 0 0 2
Nghost:    4.775 ave 56 max 0 min
Histogram: 36 0 0 0 0 0 1 1 0 2
Neighs:    3.25 ave 60 max 0 min
Histogram: 36 2 0 0 0 0 0 0 1 1

Total # of neighbors = 130
Ave neighs/atom = 0.308057
Neighbor list builds = 6892
Dangerous builds = 205
Setting up run at Fri Nov 25 02:05:03 2022

Memory usage per processor = 958.989 Mbytes
    Step    Atoms         KinEng            CPU 
 7407362      422     0.58130076              0 
 7561682      420     0.57489015      1530.6304 
Loop time of 1530.63 on 40 procs for 154320 steps with 420 atoms, finish time Fri Nov 25 02:30:33 2022


Pair  time (%) = 0.310385 (0.0202782)
Neigh time (%) = 2.33915 (0.152823)
Comm  time (%) = 3.24503 (0.212006)
Outpt time (%) = 0.000289983 (1.89453e-05)
Other time (%) = 1524.74 (99.6149)

Nlocal:    10.5 ave 158 max 0 min
Histogram: 36 0 2 0 0 0 0 0 0 2
Nghost:    4.775 ave 59 max 0 min
Histogram: 36 0 0 0 0 1 1 0 0 2
Neighs:    3 ave 56 max 0 min
Histogram: 36 1 1 0 0 0 0 1 0 1

Total # of neighbors = 120
Ave neighs/atom = 0.285714
Neighbor list builds = 7002
Dangerous builds = 111
Setting up run at Fri Nov 25 02:30:34 2022

Memory usage per processor = 958.989 Mbytes
    Step    Atoms         KinEng            CPU 
 7561682      420     0.57489015              0 
 7716002      419     0.51900148      1524.9799 
Loop time of 1524.98 on 40 procs for 154320 steps with 419 atoms, finish time Fri Nov 25 02:55:59 2022


Pair  time (%) = 0.306786 (0.0201174)
Neigh time (%) = 2.11463 (0.138666)
Comm  time (%) = 3.60455 (0.236367)
Outpt time (%) = 0.000573225 (3.7589e-05)
Other time (%) = 1518.95 (99.6048)

Nlocal:    10.475 ave 158 max 0 min
Histogram: 36 0 2 0 0 0 0 0 0 2
Nghost:    4.675 ave 59 max 0 min
Histogram: 36 0 0 0 0 1 1 0 1 1
Neighs:    3.125 ave 56 max 0 min
Histogram: 36 1 1 0 0 0 0 0 1 1

Total # of neighbors = 125
Ave neighs/atom = 0.298329
Neighbor list builds = 6325
Dangerous builds = 120
Setting up run at Fri Nov 25 02:55:59 2022

Memory usage per processor = 958.989 Mbytes
    Step    Atoms         KinEng            CPU 
 7716002      419     0.51900148              0 
 7870322      416     0.58469498      1533.0534 
Loop time of 1533.05 on 40 procs for 154320 steps with 416 atoms, finish time Fri Nov 25 03:21:32 2022


Pair  time (%) = 0.309925 (0.0202162)
Neigh time (%) = 2.48728 (0.162243)
Comm  time (%) = 4.41355 (0.287893)
Outpt time (%) = 0.000275511 (1.79714e-05)
Other time (%) = 1525.84 (99.5296)

Nlocal:    10.4 ave 157 max 0 min
Histogram: 36 0 2 0 0 0 0 0 0 2
Nghost:    4.5 ave 57 max 0 min
Histogram: 36 0 0 0 0 1 1 0 1 1
Neighs:    2.85 ave 51 max 0 min
Histogram: 36 2 0 0 0 0 0 0 1 1

Total # of neighbors = 114
Ave neighs/atom = 0.274038
Neighbor list builds = 7613
Dangerous builds = 385
Setting up run at Fri Nov 25 03:21:32 2022

Memory usage per processor = 958.989 Mbytes
    Step    Atoms         KinEng            CPU 
 7870322      416     0.58469498              0 
 8024642      413     0.49281755       1544.912 
Loop time of 1544.91 on 40 procs for 154320 steps with 413 atoms, finish time Fri Nov 25 03:47:17 2022


Pair  time (%) = 0.310503 (0.0200984)
Neigh time (%) = 2.87015 (0.185781)
Comm  time (%) = 4.74921 (0.307409)
Outpt time (%) = 0.000608106 (3.93619e-05)
Other time (%) = 1536.98 (99.4867)

Nlocal:    10.325 ave 155 max 0 min
Histogram: 36 0 2 0 0 0 0 0 0 2
Nghost:    4.675 ave 60 max 0 min
Histogram: 36 0 0 0 0 1 1 0 1 1
Neighs:    2.925 ave 50 max 0 min
Histogram: 36 0 2 0 0 0 0 0 1 1

Total # of neighbors = 117
Ave neighs/atom = 0.283293
Neighbor list builds = 8561
Dangerous builds = 2
Setting up run at Fri Nov 25 03:47:17 2022

Memory usage per processor = 958.989 Mbytes
    Step    Atoms         KinEng            CPU 
 8024642      413     0.49281755              0 
 8178962      412     0.38597075      1514.3558 
Loop time of 1514.36 on 40 procs for 154320 steps with 412 atoms, finish time Fri Nov 25 04:12:31 2022


Pair  time (%) = 0.303236 (0.0200241)
Neigh time (%) = 1.86773 (0.123335)
Comm  time (%) = 2.81177 (0.185675)
Outpt time (%) = 0.000379223 (2.50419e-05)
Other time (%) = 1509.37 (99.6709)

Nlocal:    10.3 ave 156 max 0 min
Histogram: 36 0 1 1 0 0 0 0 0 2
Nghost:    4.675 ave 64 max 0 min
Histogram: 36 0 0 0 0 2 0 1 0 1
Neighs:    2.85 ave 52 max 0 min
Histogram: 36 1 1 0 0 0 0 1 0 1

Total # of neighbors = 114
Ave neighs/atom = 0.276699
Neighbor list builds = 5573
Dangerous builds = 1
Setting up run at Fri Nov 25 04:12:31 2022

Memory usage per processor = 958.989 Mbytes
    Step    Atoms         KinEng            CPU 
 8178962      412     0.38597075              0 
 8333282      407      0.7243587      1527.4833 
Loop time of 1527.48 on 40 procs for 154320 steps with 407 atoms, finish time Fri Nov 25 04:37:59 2022


Pair  time (%) = 0.304663 (0.0199454)
Neigh time (%) = 1.81393 (0.118752)
Comm  time (%) = 2.89568 (0.189572)
Outpt time (%) = 0.0027856 (0.000182365)
Other time (%) = 1522.47 (99.6715)

Nlocal:    10.175 ave 158 max 0 min
Histogram: 36 0 2 0 0 0 0 0 1 1
Nghost:    4.6 ave 62 max 0 min
Histogram: 36 0 0 0 0 1 1 1 0 1
Neighs:    2.875 ave 55 max 0 min
Histogram: 36 1 1 0 0 0 1 0 0 1

Total # of neighbors = 115
Ave neighs/atom = 0.282555
Neighbor list builds = 5551
Dangerous builds = 230
Setting up run at Fri Nov 25 04:37:59 2022

Memory usage per processor = 958.989 Mbytes
    Step    Atoms         KinEng            CPU 
 8333282      407      0.7243587              0 
 8487602      403     0.31297396      1544.8375 
Loop time of 1544.84 on 40 procs for 154320 steps with 403 atoms, finish time Fri Nov 25 05:03:44 2022


Pair  time (%) = 0.314569 (0.0203626)
Neigh time (%) = 3.09351 (0.200248)
Comm  time (%) = 4.71692 (0.305334)
Outpt time (%) = 0.000598424 (3.8737e-05)
Other time (%) = 1536.71 (99.474)

Nlocal:    10.075 ave 157 max 0 min
Histogram: 36 0 2 0 0 0 0 0 0 2
Nghost:    4.625 ave 63 max 0 min
Histogram: 36 0 0 0 0 2 0 1 0 1
Neighs:    2.65 ave 48 max 0 min
Histogram: 36 1 1 0 0 0 0 1 0 1

Total # of neighbors = 106
Ave neighs/atom = 0.263027
Neighbor list builds = 9274
Dangerous builds = 4
Setting up run at Fri Nov 25 05:03:44 2022

Memory usage per processor = 958.989 Mbytes
    Step    Atoms         KinEng            CPU 
 8487602      403     0.31297396              0 
 8641922      402     0.39071515      1525.4179 
Loop time of 1525.42 on 40 procs for 154320 steps with 402 atoms, finish time Fri Nov 25 05:29:09 2022


Pair  time (%) = 0.302573 (0.0198354)
Neigh time (%) = 2.08473 (0.136666)
Comm  time (%) = 4.09868 (0.268692)
Outpt time (%) = 0.000274912 (1.80221e-05)
Other time (%) = 1518.93 (99.5748)

Nlocal:    10.05 ave 151 max 0 min
Histogram: 36 0 2 0 0 0 0 0 0 2
Nghost:    4.5 ave 59 max 0 min
Histogram: 36 0 0 0 0 2 0 0 1 1
Neighs:    2.65 ave 45 max 0 min
Histogram: 36 1 1 0 0 0 0 0 1 1

Total # of neighbors = 106
Ave neighs/atom = 0.263682
Neighbor list builds = 6310
Dangerous builds = 0
Setting up run at Fri Nov 25 05:29:09 2022

Memory usage per processor = 958.989 Mbytes
    Step    Atoms         KinEng            CPU 
 8641922      402     0.39071515              0 
 8796242      402      0.3953418      1525.5301 
Loop time of 1525.53 on 40 procs for 154320 steps with 402 atoms, finish time Fri Nov 25 05:54:35 2022


Pair  time (%) = 0.301711 (0.0197774)
Neigh time (%) = 1.89889 (0.124474)
Comm  time (%) = 3.18127 (0.208535)
Outpt time (%) = 0.000530441 (3.47709e-05)
Other time (%) = 1520.15 (99.6472)

Nlocal:    10.05 ave 147 max 0 min
Histogram: 36 0 2 0 0 0 0 0 0 2
Nghost:    4.575 ave 61 max 0 min
Histogram: 36 0 0 0 0 2 0 0 1 1
Neighs:    2.675 ave 45 max 0 min
Histogram: 36 0 1 1 0 0 0 0 1 1

Total # of neighbors = 107
Ave neighs/atom = 0.266169
Neighbor list builds = 5645
Dangerous builds = 0
Setting up run at Fri Nov 25 05:54:35 2022

Memory usage per processor = 958.989 Mbytes
    Step    Atoms         KinEng            CPU 
 8796242      402      0.3953418              0 
 8950562      400      0.4775516      1524.4095 
Loop time of 1524.41 on 40 procs for 154320 steps with 400 atoms, finish time Fri Nov 25 06:19:59 2022


Pair  time (%) = 0.300028 (0.0196816)
Neigh time (%) = 1.64941 (0.1082)
Comm  time (%) = 2.49395 (0.163601)
Outpt time (%) = 0.000258751 (1.69739e-05)
Other time (%) = 1519.97 (99.7085)

Nlocal:    10 ave 145 max 0 min
Histogram: 36 0 2 0 0 0 0 0 0 2
Nghost:    4.675 ave 59 max 0 min
Histogram: 36 0 0 0 0 1 1 0 0 2
Neighs:    2.625 ave 43 max 0 min
Histogram: 36 0 2 0 0 0 0 0 1 1

Total # of neighbors = 105
Ave neighs/atom = 0.2625
Neighbor list builds = 5010
Dangerous builds = 3
Setting up run at Fri Nov 25 06:19:59 2022

Memory usage per processor = 958.989 Mbytes
    Step    Atoms         KinEng            CPU 
 8950562      400      0.4775516              0 
 9104882      397     0.40143943      1522.1442 
Loop time of 1522.14 on 40 procs for 154320 steps with 397 atoms, finish time Fri Nov 25 06:45:21 2022


Pair  time (%) = 0.302117 (0.0198481)
Neigh time (%) = 1.89672 (0.124608)
Comm  time (%) = 3.04038 (0.199743)
Outpt time (%) = 0.000307083 (2.01743e-05)
Other time (%) = 1516.91 (99.6558)

Nlocal:    9.925 ave 144 max 0 min
Histogram: 36 0 2 0 0 0 0 0 0 2
Nghost:    4.625 ave 57 max 0 min
Histogram: 36 0 0 0 0 1 1 0 0 2
Neighs:    2.475 ave 46 max 0 min
Histogram: 36 0 2 0 0 0 1 0 0 1

Total # of neighbors = 99
Ave neighs/atom = 0.24937
Neighbor list builds = 5795
Dangerous builds = 2
Setting up run at Fri Nov 25 06:45:21 2022

Memory usage per processor = 958.989 Mbytes
    Step    Atoms         KinEng            CPU 
 9104882      397     0.40143943              0 
 9259202      396     0.42187748      1506.3985 
Loop time of 1506.4 on 40 procs for 154320 steps with 396 atoms, finish time Fri Nov 25 07:10:28 2022


Pair  time (%) = 0.298392 (0.0198083)
Neigh time (%) = 1.22305 (0.0811902)
Comm  time (%) = 2.04348 (0.135653)
Outpt time (%) = 0.000604619 (4.01367e-05)
Other time (%) = 1502.83 (99.7633)

Nlocal:    9.9 ave 146 max 0 min
Histogram: 36 0 2 0 0 0 0 0 0 2
Nghost:    4.525 ave 54 max 0 min
Histogram: 36 0 0 0 0 0 2 0 0 2
Neighs:    2.425 ave 49 max 0 min
Histogram: 36 1 1 0 0 1 0 0 0 1

Total # of neighbors = 97
Ave neighs/atom = 0.244949
Neighbor list builds = 3685
Dangerous builds = 82
Setting up run at Fri Nov 25 07:10:28 2022

Memory usage per processor = 958.989 Mbytes
    Step    Atoms         KinEng            CPU 
 9259202      396     0.42187748              0 
 9413522      391     0.49264619      1521.7573 
Loop time of 1521.76 on 40 procs for 154320 steps with 391 atoms, finish time Fri Nov 25 07:35:50 2022


Pair  time (%) = 0.299972 (0.0197122)
Neigh time (%) = 2.01355 (0.132317)
Comm  time (%) = 3.50019 (0.23001)
Outpt time (%) = 0.000307379 (2.0199e-05)
Other time (%) = 1515.94 (99.6179)

Nlocal:    9.775 ave 145 max 0 min
Histogram: 36 0 2 0 0 0 0 0 0 2
Nghost:    4.55 ave 54 max 0 min
Histogram: 36 0 0 0 0 0 2 0 0 2
Neighs:    2.3 ave 44 max 0 min
Histogram: 36 0 2 0 0 0 1 0 0 1

Total # of neighbors = 92
Ave neighs/atom = 0.235294
Neighbor list builds = 6071
Dangerous builds = 5
Setting up run at Fri Nov 25 07:35:50 2022

Memory usage per processor = 958.989 Mbytes
    Step    Atoms         KinEng            CPU 
 9413522      391     0.49264619              0 
 9567842      389     0.58478614      1522.0991 
Loop time of 1522.1 on 40 procs for 154320 steps with 389 atoms, finish time Fri Nov 25 08:01:12 2022


Pair  time (%) = 0.300137 (0.0197186)
Neigh time (%) = 2.03626 (0.13378)
Comm  time (%) = 3.59643 (0.236281)
Outpt time (%) = 0.000632705 (4.15679e-05)
Other time (%) = 1516.17 (99.6102)

Nlocal:    9.725 ave 145 max 0 min
Histogram: 36 0 2 0 0 0 0 0 0 2
Nghost:    4.25 ave 51 max 0 min
Histogram: 36 0 0 0 0 0 2 0 0 2
Neighs:    2.2 ave 38 max 0 min
Histogram: 36 0 2 0 0 0 0 0 1 1

Total # of neighbors = 88
Ave neighs/atom = 0.226221
Neighbor list builds = 6248
Dangerous builds = 359
Setting up run at Fri Nov 25 08:01:12 2022

Memory usage per processor = 958.989 Mbytes
    Step    Atoms         KinEng            CPU 
 9567842      389     0.58478614              0 
 9722162      385     0.42104265      1521.2051 
Loop time of 1521.21 on 40 procs for 154320 steps with 385 atoms, finish time Fri Nov 25 08:26:33 2022


Pair  time (%) = 0.299235 (0.0196709)
Neigh time (%) = 2.09354 (0.137624)
Comm  time (%) = 3.03155 (0.199286)
Outpt time (%) = 0.000191563 (1.25928e-05)
Other time (%) = 1515.78 (99.6434)

Nlocal:    9.625 ave 146 max 0 min
Histogram: 36 0 2 0 0 0 0 0 0 2
Nghost:    4.125 ave 50 max 0 min
Histogram: 36 0 0 0 0 0 2 0 0 2
Neighs:    1.975 ave 34 max 0 min
Histogram: 36 0 2 0 0 0 0 1 0 1

Total # of neighbors = 79
Ave neighs/atom = 0.205195
Neighbor list builds = 6245
Dangerous builds = 2
Setting up run at Fri Nov 25 08:26:33 2022

Memory usage per processor = 958.989 Mbytes
    Step    Atoms         KinEng            CPU 
 9722162      385     0.42104265              0 
 9876482      384     0.38741259      1509.3593 
Loop time of 1509.36 on 40 procs for 154320 steps with 384 atoms, finish time Fri Nov 25 08:51:43 2022


Pair  time (%) = 0.29474 (0.0195275)
Neigh time (%) = 1.3758 (0.0911512)
Comm  time (%) = 2.20143 (0.145852)
Outpt time (%) = 0.000225074 (1.49119e-05)
Other time (%) = 1505.49 (99.7435)

Nlocal:    9.6 ave 148 max 0 min
Histogram: 36 0 2 0 0 0 0 0 1 1
Nghost:    4.175 ave 48 max 0 min
Histogram: 36 0 0 0 0 0 0 2 0 2
Neighs:    2.05 ave 35 max 0 min
Histogram: 36 0 1 1 0 0 0 0 1 1

Total # of neighbors = 82
Ave neighs/atom = 0.213542
Neighbor list builds = 4250
Dangerous builds = 362
Setting up run at Fri Nov 25 08:51:43 2022

Memory usage per processor = 958.989 Mbytes
    Step    Atoms         KinEng            CPU 
 9876482      384     0.38741259              0 
10030802      380      0.5438334      1531.2699 
Loop time of 1531.27 on 40 procs for 154320 steps with 380 atoms, finish time Fri Nov 25 09:17:14 2022


Pair  time (%) = 0.303065 (0.0197917)
Neigh time (%) = 2.28328 (0.14911)
Comm  time (%) = 3.04814 (0.199059)
Outpt time (%) = 0.000681704 (4.45188e-05)
Other time (%) = 1525.63 (99.632)

Nlocal:    9.5 ave 147 max 0 min
Histogram: 36 0 2 0 0 0 0 0 1 1
Nghost:    4.15 ave 45 max 0 min
Histogram: 36 0 0 0 0 0 0 1 1 2
Neighs:    2.15 ave 35 max 0 min
Histogram: 36 0 1 1 0 0 0 0 1 1

Total # of neighbors = 86
Ave neighs/atom = 0.226316
Neighbor list builds = 6891
Dangerous builds = 2
Setting up run at Fri Nov 25 09:17:14 2022

Memory usage per processor = 958.989 Mbytes
    Step    Atoms         KinEng            CPU 
10030802      380      0.5438334              0 
10185122      377     0.47168324       1541.093 
Loop time of 1541.09 on 40 procs for 154320 steps with 377 atoms, finish time Fri Nov 25 09:42:55 2022


Pair  time (%) = 0.307289 (0.0199397)
Neigh time (%) = 2.78634 (0.180803)
Comm  time (%) = 3.8397 (0.249154)
Outpt time (%) = 0.000264185 (1.71427e-05)
Other time (%) = 1534.16 (99.5501)

Nlocal:    9.425 ave 148 max 0 min
Histogram: 36 0 2 0 0 0 0 0 1 1
Nghost:    3.975 ave 45 max 0 min
Histogram: 36 0 0 0 0 0 0 1 1 2
Neighs:    2.175 ave 33 max 0 min
Histogram: 36 0 0 2 0 0 0 0 0 2

Total # of neighbors = 87
Ave neighs/atom = 0.230769
Neighbor list builds = 8303
Dangerous builds = 1
Setting up run at Fri Nov 25 09:42:55 2022

Memory usage per processor = 958.989 Mbytes
    Step    Atoms         KinEng            CPU 
10185122      377     0.47168324              0 
10339442      375     0.41752176      1527.9792 
Loop time of 1527.98 on 40 procs for 154320 steps with 375 atoms, finish time Fri Nov 25 10:08:23 2022


Pair  time (%) = 0.304629 (0.0199367)
Neigh time (%) = 2.40291 (0.157261)
Comm  time (%) = 3.44959 (0.225761)
Outpt time (%) = 0.000553607 (3.62313e-05)
Other time (%) = 1521.82 (99.597)

Nlocal:    9.375 ave 148 max 0 min
Histogram: 36 0 2 0 0 0 0 0 1 1
Nghost:    4.125 ave 48 max 0 min
Histogram: 36 0 0 0 0 0 1 1 0 2
Neighs:    2.125 ave 33 max 0 min
Histogram: 36 0 1 1 0 0 0 0 0 2

Total # of neighbors = 85
Ave neighs/atom = 0.226667
Neighbor list builds = 7209
Dangerous builds = 0
Setting up run at Fri Nov 25 10:08:23 2022

Memory usage per processor = 958.989 Mbytes
    Step    Atoms         KinEng            CPU 
10339442      375     0.41752176              0 
10493762      372     0.75088497      1525.7559 
Loop time of 1525.76 on 40 procs for 154320 steps with 372 atoms, finish time Fri Nov 25 10:33:49 2022


Pair  time (%) = 0.302105 (0.0198003)
Neigh time (%) = 2.37906 (0.155926)
Comm  time (%) = 3.43372 (0.22505)
Outpt time (%) = 0.000324097 (2.12418e-05)
Other time (%) = 1519.64 (99.5992)

Nlocal:    9.3 ave 147 max 0 min
Histogram: 36 1 1 0 0 0 0 0 1 1
Nghost:    3.95 ave 43 max 0 min
Histogram: 36 0 0 0 0 0 0 1 1 2
Neighs:    2.025 ave 33 max 0 min
Histogram: 36 1 0 1 0 0 0 0 0 2

Total # of neighbors = 81
Ave neighs/atom = 0.217742
Neighbor list builds = 7127
Dangerous builds = 100
Setting up run at Fri Nov 25 10:33:49 2022

Memory usage per processor = 958.989 Mbytes
    Step    Atoms         KinEng            CPU 
10493762      372     0.75088497              0 
10648082      370     0.55989699      1527.7459 
Loop time of 1527.75 on 40 procs for 154320 steps with 370 atoms, finish time Fri Nov 25 10:59:17 2022


Pair  time (%) = 0.301328 (0.0197237)
Neigh time (%) = 2.11834 (0.138658)
Comm  time (%) = 3.12924 (0.204827)
Outpt time (%) = 0.000244682 (1.60159e-05)
Other time (%) = 1522.2 (99.6368)

Nlocal:    9.25 ave 149 max 0 min
Histogram: 36 1 1 0 0 0 0 0 1 1
Nghost:    3.925 ave 44 max 0 min
Histogram: 36 0 0 0 0 0 0 1 2 1
Neighs:    2.175 ave 35 max 0 min
Histogram: 36 1 0 1 0 0 0 0 0 2

Total # of neighbors = 87
Ave neighs/atom = 0.235135
Neighbor list builds = 6379
Dangerous builds = 1
Setting up run at Fri Nov 25 10:59:17 2022

Memory usage per processor = 958.989 Mbytes
    Step    Atoms         KinEng            CPU 
10648082      370     0.55989699              0 
10802402      365      1.4674928      1520.5164 
Loop time of 1520.52 on 40 procs for 154320 steps with 365 atoms, finish time Fri Nov 25 11:24:37 2022


Pair  time (%) = 0.302518 (0.0198958)
Neigh time (%) = 2.33069 (0.153283)
Comm  time (%) = 3.9001 (0.256498)
Outpt time (%) = 0.000543322 (3.57327e-05)
Other time (%) = 1513.98 (99.5703)

Nlocal:    9.125 ave 148 max 0 min
Histogram: 36 0 2 0 0 0 0 0 1 1
Nghost:    3.975 ave 43 max 0 min
Histogram: 36 0 0 0 0 0 0 1 1 2
Neighs:    2.35 ave 39 max 0 min
Histogram: 36 0 2 0 0 0 0 0 1 1

Total # of neighbors = 94
Ave neighs/atom = 0.257534
Neighbor list builds = 7028
Dangerous builds = 6
Setting up run at Fri Nov 25 11:24:38 2022

Memory usage per processor = 958.989 Mbytes
    Step    Atoms         KinEng            CPU 
10802402      365      1.4674928              0 
10956722      364      0.4250705      1518.4039 
Loop time of 1518.4 on 40 procs for 154320 steps with 364 atoms, finish time Fri Nov 25 11:49:56 2022


Pair  time (%) = 0.296975 (0.0195583)
Neigh time (%) = 1.56642 (0.103162)
Comm  time (%) = 2.6665 (0.175612)
Outpt time (%) = 0.00028145 (1.85359e-05)
Other time (%) = 1513.87 (99.7016)

Nlocal:    9.1 ave 145 max 0 min
Histogram: 36 0 2 0 0 0 0 0 1 1
Nghost:    4.1 ave 45 max 0 min
Histogram: 36 0 0 0 0 0 0 0 2 2
Neighs:    2.375 ave 40 max 0 min
Histogram: 36 0 1 1 0 0 0 0 1 1

Total # of neighbors = 95
Ave neighs/atom = 0.260989
Neighbor list builds = 4628
Dangerous builds = 0
Setting up run at Fri Nov 25 11:49:56 2022

Memory usage per processor = 958.989 Mbytes
    Step    Atoms         KinEng            CPU 
10956722      364      0.4250705              0 
11111042      362     0.41675717      1543.3926 
Loop time of 1543.39 on 40 procs for 154320 steps with 362 atoms, finish time Fri Nov 25 12:15:39 2022


Pair  time (%) = 0.307203 (0.0199044)
Neigh time (%) = 3.196 (0.207076)
Comm  time (%) = 4.75941 (0.308373)
Outpt time (%) = 0.000576778 (3.73708e-05)
Other time (%) = 1535.13 (99.4646)

Nlocal:    9.05 ave 145 max 0 min
Histogram: 36 0 2 0 0 0 0 0 1 1
Nghost:    4.05 ave 44 max 0 min
Histogram: 36 0 0 0 0 0 0 0 2 2
Neighs:    2.4 ave 42 max 0 min
Histogram: 36 0 2 0 0 0 0 1 0 1

Total # of neighbors = 96
Ave neighs/atom = 0.265193
Neighbor list builds = 9473
Dangerous builds = 1
Setting up run at Fri Nov 25 12:15:39 2022

Memory usage per processor = 958.989 Mbytes
    Step    Atoms         KinEng            CPU 
11111042      362     0.41675717              0 
11265362      361     0.36317506      1526.8787 
Loop time of 1526.88 on 40 procs for 154320 steps with 361 atoms, finish time Fri Nov 25 12:41:06 2022


Pair  time (%) = 0.299353 (0.0196056)
Neigh time (%) = 2.05087 (0.134318)
Comm  time (%) = 2.99797 (0.196346)
Outpt time (%) = 0.000239757 (1.57024e-05)
Other time (%) = 1521.53 (99.6497)

Nlocal:    9.025 ave 146 max 0 min
Histogram: 36 0 2 0 0 0 0 0 1 1
Nghost:    3.875 ave 46 max 0 min
Histogram: 36 0 0 0 0 0 0 2 1 1
Neighs:    2.275 ave 43 max 0 min
Histogram: 36 0 2 0 0 0 1 0 0 1

Total # of neighbors = 91
Ave neighs/atom = 0.252078
Neighbor list builds = 6064
Dangerous builds = 0
Setting up run at Fri Nov 25 12:41:06 2022

Memory usage per processor = 958.989 Mbytes
    Step    Atoms         KinEng            CPU 
11265362      361     0.36317506              0 
11419682      361      3.7956758      1511.2151 
Loop time of 1511.22 on 40 procs for 154320 steps with 361 atoms, finish time Fri Nov 25 13:06:18 2022


Pair  time (%) = 0.298467 (0.0197501)
Neigh time (%) = 1.80806 (0.119643)
Comm  time (%) = 2.39779 (0.158666)
Outpt time (%) = 0.000152135 (1.00671e-05)
Other time (%) = 1506.71 (99.7019)

Nlocal:    9.025 ave 147 max 0 min
Histogram: 36 1 1 0 0 0 0 1 0 1
Nghost:    3.975 ave 47 max 0 min
Histogram: 36 0 0 0 0 0 0 2 1 1
Neighs:    2.15 ave 41 max 0 min
Histogram: 36 1 1 0 0 0 1 0 0 1

Total # of neighbors = 86
Ave neighs/atom = 0.238227
Neighbor list builds = 5361
Dangerous builds = 0
Setting up run at Fri Nov 25 13:06:18 2022

Memory usage per processor = 958.989 Mbytes
    Step    Atoms         KinEng            CPU 
11419682      361      3.7956758              0 
11574002      360     0.30892707      1517.2619 
Loop time of 1517.26 on 40 procs for 154320 steps with 360 atoms, finish time Fri Nov 25 13:31:35 2022


Pair  time (%) = 0.298378 (0.0196655)
Neigh time (%) = 1.86089 (0.122648)
Comm  time (%) = 2.99724 (0.197543)
Outpt time (%) = 0.000571347 (3.76565e-05)
Other time (%) = 1512.11 (99.6601)

Nlocal:    9 ave 143 max 0 min
Histogram: 36 0 2 0 0 0 0 0 1 1
Nghost:    4 ave 46 max 0 min
Histogram: 36 0 0 0 0 0 1 0 1 2
Neighs:    1.85 ave 37 max 0 min
Histogram: 36 1 1 0 0 0 1 0 0 1

Total # of neighbors = 74
Ave neighs/atom = 0.205556
Neighbor list builds = 5501
Dangerous builds = 1
Setting up run at Fri Nov 25 13:31:35 2022

Memory usage per processor = 958.989 Mbytes
    Step    Atoms         KinEng            CPU 
11574002      360     0.30892707              0 
11728322      359     0.43390136      1524.6784 
Loop time of 1524.68 on 40 procs for 154320 steps with 359 atoms, finish time Fri Nov 25 13:57:00 2022


Pair  time (%) = 0.298097 (0.0195515)
Neigh time (%) = 1.8597 (0.121973)
Comm  time (%) = 3.75489 (0.246274)
Outpt time (%) = 0.00026389 (1.73079e-05)
Other time (%) = 1518.77 (99.6122)

Nlocal:    8.975 ave 144 max 0 min
Histogram: 36 0 2 0 0 0 0 1 0 1
Nghost:    4.025 ave 46 max 0 min
Histogram: 36 0 0 0 0 0 1 0 1 2
Neighs:    1.775 ave 34 max 0 min
Histogram: 36 1 1 0 0 0 0 1 0 1

Total # of neighbors = 71
Ave neighs/atom = 0.197772
Neighbor list builds = 5558
Dangerous builds = 1
Setting up run at Fri Nov 25 13:57:00 2022

Memory usage per processor = 958.989 Mbytes
    Step    Atoms         KinEng            CPU 
11728322      359     0.43390136              0 
11882642      353     0.34350869      1542.4843 
Loop time of 1542.48 on 40 procs for 154320 steps with 353 atoms, finish time Fri Nov 25 14:22:42 2022


Pair  time (%) = 0.308968 (0.0200305)
Neigh time (%) = 3.54127 (0.229582)
Comm  time (%) = 5.06607 (0.328435)
Outpt time (%) = 0.0298301 (0.0019339)
Other time (%) = 1533.54 (99.42)

Nlocal:    8.825 ave 140 max 0 min
Histogram: 36 0 2 0 0 0 0 0 1 1
Nghost:    4.075 ave 47 max 0 min
Histogram: 36 0 0 0 0 0 1 0 1 2
Neighs:    1.75 ave 37 max 0 min
Histogram: 36 2 0 0 0 1 0 0 0 1

Total # of neighbors = 70
Ave neighs/atom = 0.1983
Neighbor list builds = 10800
Dangerous builds = 18
Setting up run at Fri Nov 25 14:22:42 2022

Memory usage per processor = 958.989 Mbytes
    Step    Atoms         KinEng            CPU 
11882642      353     0.34350869              0 
12036962      351      47.760416      1523.9697 
Loop time of 1523.98 on 40 procs for 154320 steps with 351 atoms, finish time Fri Nov 25 14:48:06 2022


Pair  time (%) = 0.301619 (0.0197915)
Neigh time (%) = 2.26517 (0.148635)
Comm  time (%) = 3.35963 (0.220451)
Outpt time (%) = 0.00021087 (1.38368e-05)
Other time (%) = 1518.05 (99.6111)

Nlocal:    8.775 ave 139 max 0 min
Histogram: 36 0 1 1 0 0 0 0 1 1
Nghost:    4.075 ave 45 max 0 min
Histogram: 36 0 0 0 0 0 1 0 1 2
Neighs:    1.8 ave 34 max 0 min
Histogram: 36 1 1 0 0 0 1 0 0 1

Total # of neighbors = 72
Ave neighs/atom = 0.205128
Neighbor list builds = 6785
Dangerous builds = 20
Setting up run at Fri Nov 25 14:48:06 2022

Memory usage per processor = 958.989 Mbytes
    Step    Atoms         KinEng            CPU 
12036962      351      47.760416              0 
12191282      345     0.33757254      1626.0303 
Loop time of 1626.03 on 40 procs for 154320 steps with 345 atoms, finish time Fri Nov 25 15:15:13 2022


Pair  time (%) = 0.30727 (0.0188969)
Neigh time (%) = 3.0233 (0.185931)
Comm  time (%) = 3.97356 (0.244372)
Outpt time (%) = 0.00268406 (0.000165068)
Other time (%) = 1618.72 (99.5506)

Nlocal:    8.625 ave 137 max 0 min
Histogram: 36 0 2 0 0 0 0 0 1 1
Nghost:    3.975 ave 50 max 0 min
Histogram: 36 0 0 0 0 1 0 1 1 1
Neighs:    1.75 ave 32 max 0 min
Histogram: 36 1 1 0 0 0 0 1 0 1

Total # of neighbors = 70
Ave neighs/atom = 0.202899
Neighbor list builds = 9272
Dangerous builds = 496
Setting up run at Fri Nov 25 15:15:13 2022

Memory usage per processor = 958.989 Mbytes
    Step    Atoms         KinEng            CPU 
12191282      345     0.33757254              0 
12345602      344     0.31006651      1530.8388 
Loop time of 1530.84 on 40 procs for 154320 steps with 344 atoms, finish time Fri Nov 25 15:40:43 2022


Pair  time (%) = 0.300441 (0.0196259)
Neigh time (%) = 2.1156 (0.138199)
Comm  time (%) = 2.97481 (0.194325)
Outpt time (%) = 0.000590517 (3.85747e-05)
Other time (%) = 1525.45 (99.6478)

Nlocal:    8.6 ave 136 max 0 min
Histogram: 36 0 2 0 0 0 0 0 1 1
Nghost:    4.075 ave 49 max 0 min
Histogram: 36 0 0 0 0 0 1 1 1 1
Neighs:    2 ave 33 max 0 min
Histogram: 36 0 1 1 0 0 0 0 1 1

Total # of neighbors = 80
Ave neighs/atom = 0.232558
Neighbor list builds = 6340
Dangerous builds = 227
Setting up run at Fri Nov 25 15:40:43 2022

Memory usage per processor = 958.989 Mbytes
    Step    Atoms         KinEng            CPU 
12345602      344     0.31006651              0 
12499922      342     0.40383387      1526.5899 
Loop time of 1526.59 on 40 procs for 154320 steps with 342 atoms, finish time Fri Nov 25 16:06:10 2022


Pair  time (%) = 0.302451 (0.0198122)
Neigh time (%) = 2.31164 (0.151425)
Comm  time (%) = 4.10008 (0.268578)
Outpt time (%) = 0.000301616 (1.97575e-05)
Other time (%) = 1519.88 (99.5602)

Nlocal:    8.55 ave 136 max 0 min
Histogram: 36 0 2 0 0 0 0 0 1 1
Nghost:    4.225 ave 49 max 0 min
Histogram: 36 0 0 0 0 0 1 1 1 1
Neighs:    1.925 ave 36 max 0 min
Histogram: 36 2 0 0 0 0 0 1 0 1

Total # of neighbors = 77
Ave neighs/atom = 0.225146
Neighbor list builds = 7089
Dangerous builds = 631
Setting up run at Fri Nov 25 16:06:10 2022

Memory usage per processor = 958.989 Mbytes
    Step    Atoms         KinEng            CPU 
12499922      342     0.40383387              0 
12654242      341     0.45638191      1562.0637 
Loop time of 1562.06 on 40 procs for 154320 steps with 341 atoms, finish time Fri Nov 25 16:32:12 2022


Pair  time (%) = 0.300877 (0.0192615)
Neigh time (%) = 2.05652 (0.131654)
Comm  time (%) = 3.41626 (0.218702)
Outpt time (%) = 0.000519143 (3.32344e-05)
Other time (%) = 1556.29 (99.6303)

Nlocal:    8.525 ave 136 max 0 min
Histogram: 36 0 2 0 0 0 0 0 1 1
Nghost:    4.1 ave 50 max 0 min
Histogram: 36 0 0 0 0 0 1 1 0 2
Neighs:    1.775 ave 35 max 0 min
Histogram: 36 1 1 0 0 0 1 0 0 1

Total # of neighbors = 71
Ave neighs/atom = 0.208211
Neighbor list builds = 6105
Dangerous builds = 1
Setting up run at Fri Nov 25 16:32:12 2022

Memory usage per processor = 958.989 Mbytes
    Step    Atoms         KinEng            CPU 
12654242      341     0.45638191              0 
12808562      335     0.28529519       1536.991 
Loop time of 1536.99 on 40 procs for 154320 steps with 335 atoms, finish time Fri Nov 25 16:57:49 2022


Pair  time (%) = 0.304046 (0.0197819)
Neigh time (%) = 2.89943 (0.188644)
Comm  time (%) = 3.71343 (0.241604)
Outpt time (%) = 0.00279927 (0.000182127)
Other time (%) = 1530.07 (99.5498)

Nlocal:    8.375 ave 135 max 0 min
Histogram: 36 0 2 0 0 0 0 0 1 1
Nghost:    4.075 ave 51 max 0 min
Histogram: 36 0 0 0 0 1 0 1 1 1
Neighs:    1.675 ave 34 max 0 min
Histogram: 36 1 1 0 0 0 1 0 0 1

Total # of neighbors = 67
Ave neighs/atom = 0.2
Neighbor list builds = 8792
Dangerous builds = 318
Setting up run at Fri Nov 25 16:57:49 2022

Memory usage per processor = 958.989 Mbytes
    Step    Atoms         KinEng            CPU 
12808562      335     0.28529519              0 
12962882      334     0.23749543      1534.4125 
Loop time of 1534.41 on 40 procs for 154320 steps with 334 atoms, finish time Fri Nov 25 17:23:24 2022


Pair  time (%) = 0.298467 (0.0194515)
Neigh time (%) = 2.15992 (0.140765)
Comm  time (%) = 3.15297 (0.205484)
Outpt time (%) = 0.000210545 (1.37215e-05)
Other time (%) = 1528.8 (99.6343)

Nlocal:    8.35 ave 133 max 0 min
Histogram: 36 0 2 0 0 0 0 0 1 1
Nghost:    4.05 ave 51 max 0 min
Histogram: 36 0 0 0 0 1 0 1 1 1
Neighs:    1.725 ave 32 max 0 min
Histogram: 36 0 2 0 0 0 1 0 0 1

Total # of neighbors = 69
Ave neighs/atom = 0.206587
Neighbor list builds = 6506
Dangerous builds = 317
Setting up run at Fri Nov 25 17:23:24 2022

Memory usage per processor = 958.989 Mbytes
    Step    Atoms         KinEng            CPU 
12962882      334     0.23749543              0 
13117202      331     0.26820238      1520.9386 
Loop time of 1520.94 on 40 procs for 154320 steps with 331 atoms, finish time Fri Nov 25 17:48:45 2022


Pair  time (%) = 0.296526 (0.0194962)
Neigh time (%) = 1.91778 (0.126092)
Comm  time (%) = 2.65104 (0.174303)
Outpt time (%) = 0.000534148 (3.51196e-05)
Other time (%) = 1516.07 (99.6801)

Nlocal:    8.275 ave 133 max 0 min
Histogram: 36 0 2 0 0 0 0 0 1 1
Nghost:    4.075 ave 52 max 0 min
Histogram: 36 0 0 0 0 1 0 2 0 1
Neighs:    1.6 ave 31 max 0 min
Histogram: 36 1 1 0 0 0 1 0 0 1

Total # of neighbors = 64
Ave neighs/atom = 0.193353
Neighbor list builds = 5807
Dangerous builds = 327
Setting up run at Fri Nov 25 17:49:03 2022

Memory usage per processor = 958.989 Mbytes
    Step    Atoms         KinEng            CPU 
13117202      331     0.26820238              0 
13271522      330     0.40171749      1535.8987 
Loop time of 1535.9 on 40 procs for 154320 steps with 330 atoms, finish time Fri Nov 25 18:14:39 2022


Pair  time (%) = 0.30387 (0.0197845)
Neigh time (%) = 2.97102 (0.193438)
Comm  time (%) = 3.63975 (0.236978)
Outpt time (%) = 0.000261412 (1.70201e-05)
Other time (%) = 1528.98 (99.5498)

Nlocal:    8.25 ave 135 max 0 min
Histogram: 36 1 1 0 0 0 0 0 1 1
Nghost:    4.025 ave 49 max 0 min
Histogram: 36 0 0 0 0 1 0 1 0 2
Neighs:    1.5 ave 26 max 0 min
Histogram: 36 0 1 1 0 0 0 1 0 1

Total # of neighbors = 60
Ave neighs/atom = 0.181818
Neighbor list builds = 8818
Dangerous builds = 1
Setting up run at Fri Nov 25 18:14:39 2022

Memory usage per processor = 958.989 Mbytes
    Step    Atoms         KinEng            CPU 
13271522      330     0.40171749              0 
13425842      329     0.37823567      1521.5026 
Loop time of 1521.5 on 40 procs for 154320 steps with 329 atoms, finish time Fri Nov 25 18:40:00 2022


Pair  time (%) = 0.300218 (0.0197316)
Neigh time (%) = 2.45574 (0.161403)
Comm  time (%) = 3.24257 (0.213116)
Outpt time (%) = 0.000196733 (1.29302e-05)
Other time (%) = 1515.5 (99.6057)

Nlocal:    8.225 ave 136 max 0 min
Histogram: 36 1 1 0 0 0 0 1 0 1
Nghost:    4.025 ave 47 max 0 min
Histogram: 36 0 0 0 0 0 2 0 0 2
Neighs:    1.3 ave 24 max 0 min
Histogram: 36 0 2 0 0 0 1 0 0 1

Total # of neighbors = 52
Ave neighs/atom = 0.158055
Neighbor list builds = 7211
Dangerous builds = 0
Setting up run at Fri Nov 25 18:40:01 2022

Memory usage per processor = 958.989 Mbytes
    Step    Atoms         KinEng            CPU 
13425842      329     0.37823567              0 
13580162      326      0.3373712      1528.1629 
Loop time of 1528.16 on 40 procs for 154320 steps with 326 atoms, finish time Fri Nov 25 19:05:29 2022


Pair  time (%) = 0.296398 (0.0193957)
Neigh time (%) = 2.1019 (0.137544)
Comm  time (%) = 2.95053 (0.193077)
Outpt time (%) = 0.00062595 (4.0961e-05)
Other time (%) = 1522.81 (99.6499)

Nlocal:    8.15 ave 135 max 0 min
Histogram: 36 1 1 0 0 0 0 1 0 1
Nghost:    4 ave 49 max 0 min
Histogram: 36 0 0 0 0 0 2 0 0 2
Neighs:    1.25 ave 22 max 0 min
Histogram: 36 0 1 1 0 0 1 0 0 1

Total # of neighbors = 50
Ave neighs/atom = 0.153374
Neighbor list builds = 6316
Dangerous builds = 219
Setting up run at Fri Nov 25 19:05:29 2022

Memory usage per processor = 958.989 Mbytes
    Step    Atoms         KinEng            CPU 
13580162      326      0.3373712              0 
13734482      323     0.24171216      1611.7254 
Loop time of 1611.73 on 40 procs for 154320 steps with 323 atoms, finish time Fri Nov 25 19:32:20 2022


Pair  time (%) = 0.308214 (0.0191232)
Neigh time (%) = 3.76793 (0.233782)
Comm  time (%) = 4.75129 (0.294795)
Outpt time (%) = 0.000290488 (1.80234e-05)
Other time (%) = 1602.9 (99.4523)

Nlocal:    8.075 ave 135 max 0 min
Histogram: 36 1 1 0 0 0 0 1 0 1
Nghost:    3.925 ave 49 max 0 min
Histogram: 36 0 0 0 0 0 2 0 1 1
Neighs:    1.2 ave 20 max 0 min
Histogram: 36 0 2 0 0 0 0 0 0 2

Total # of neighbors = 48
Ave neighs/atom = 0.148607
Neighbor list builds = 11297
Dangerous builds = 321
Setting up run at Fri Nov 25 19:32:21 2022

Memory usage per processor = 958.989 Mbytes
    Step    Atoms         KinEng            CPU 
13734482      323     0.24171216              0 
13888802      321     0.10000097       1585.014 
Loop time of 1585.01 on 40 procs for 154320 steps with 321 atoms, finish time Fri Nov 25 19:58:46 2022


Pair  time (%) = 0.301393 (0.0190152)
Neigh time (%) = 2.65882 (0.167748)
Comm  time (%) = 3.36456 (0.212273)
Outpt time (%) = 0.000506801 (3.19745e-05)
Other time (%) = 1578.69 (99.6009)

Nlocal:    8.025 ave 134 max 0 min
Histogram: 36 1 1 0 0 0 0 1 0 1
Nghost:    3.9 ave 49 max 0 min
Histogram: 36 0 0 0 0 1 1 0 1 1
Neighs:    1.175 ave 19 max 0 min
Histogram: 36 0 1 1 0 0 0 0 1 1

Total # of neighbors = 47
Ave neighs/atom = 0.146417
Neighbor list builds = 7853
Dangerous builds = 1
Setting up run at Fri Nov 25 19:58:46 2022

Memory usage per processor = 958.989 Mbytes
    Step    Atoms         KinEng            CPU 
13888802      321     0.10000097              0 
14043122      317     0.10829354      1578.5094 
Loop time of 1578.51 on 40 procs for 154320 steps with 317 atoms, finish time Fri Nov 25 20:25:04 2022


Pair  time (%) = 0.299147 (0.0189512)
Neigh time (%) = 2.02925 (0.128555)
Comm  time (%) = 3.01286 (0.190867)
Outpt time (%) = 0.000297206 (1.88283e-05)
Other time (%) = 1573.17 (99.6616)

Nlocal:    7.925 ave 134 max 0 min
Histogram: 36 1 1 0 0 0 0 1 0 1
Nghost:    3.825 ave 49 max 0 min
Histogram: 36 0 0 0 0 1 1 1 0 1
Neighs:    1.15 ave 19 max 0 min
Histogram: 36 0 1 1 0 0 0 0 1 1

Total # of neighbors = 46
Ave neighs/atom = 0.14511
Neighbor list builds = 6192
[...]
Histogram: 35 1 0 0 2 0 0 0 1 1
Neighs:    0.2 ave 5 max 0 min
Histogram: 38 0 0 0 0 0 1 0 0 1

Total # of neighbors = 8
Ave neighs/atom = 0.0479042
Neighbor list builds = 5054
Dangerous builds = 0
Setting up run at Sun Nov 27 08:46:23 2022

Memory usage per processor = 958.989 Mbytes
    Step    Atoms         KinEng            CPU 
27314739      167     0.51163174              0 
27469059      166     0.80455175      1556.2198 
Loop time of 1556.22 on 40 procs for 154320 steps with 166 atoms, finish time Sun Nov 27 09:12:20 2022


Pair  time (%) = 0.29246 (0.018793)
Neigh time (%) = 3.88916 (0.249911)
Comm  time (%) = 6.8563 (0.440574)
Outpt time (%) = 0.000278118 (1.78714e-05)
Other time (%) = 1545.18 (99.2907)

Nlocal:    4.15 ave 77 max 0 min
Histogram: 37 1 0 0 0 0 0 1 0 1
Nghost:    1.325 ave 17 max 0 min
Histogram: 35 1 0 0 2 0 0 0 0 2
Neighs:    0.175 ave 5 max 0 min
Histogram: 38 0 0 0 1 0 0 0 0 1

Total # of neighbors = 7
Ave neighs/atom = 0.0421687
Neighbor list builds = 11378
Dangerous builds = 2
Setting up run at Sun Nov 27 09:12:20 2022

Memory usage per processor = 958.989 Mbytes
    Step    Atoms         KinEng            CPU 
27469059      166     0.80455175              0 
27623379      166     0.78501641      1544.4689 
Loop time of 1544.47 on 40 procs for 154320 steps with 166 atoms, finish time Sun Nov 27 09:38:04 2022


Pair  time (%) = 0.289426 (0.0187395)
Neigh time (%) = 3.53736 (0.229034)
Comm  time (%) = 5.95015 (0.385255)
Outpt time (%) = 0.00294695 (0.000190807)
Other time (%) = 1534.69 (99.3668)

Nlocal:    4.15 ave 78 max 0 min
Histogram: 37 1 0 0 0 0 0 1 0 1
Nghost:    1.25 ave 18 max 0 min
Histogram: 35 1 0 2 0 0 0 0 1 1
Neighs:    0.175 ave 5 max 0 min
Histogram: 38 0 0 0 1 0 0 0 0 1

Total # of neighbors = 7
Ave neighs/atom = 0.0421687
Neighbor list builds = 10288
Dangerous builds = 0
Setting up run at Sun Nov 27 09:38:04 2022

Memory usage per processor = 958.989 Mbytes
    Step    Atoms         KinEng            CPU 
27623379      166     0.78501641              0 
27777699      165     0.82495439      1547.2622 
Loop time of 1547.26 on 40 procs for 154320 steps with 165 atoms, finish time Sun Nov 27 10:03:51 2022


Pair  time (%) = 0.290691 (0.0187875)
Neigh time (%) = 3.34372 (0.216106)
Comm  time (%) = 4.43322 (0.28652)
Outpt time (%) = 0.000272342 (1.76015e-05)
Other time (%) = 1539.19 (99.4786)

Nlocal:    4.125 ave 77 max 0 min
Histogram: 38 0 0 0 0 0 0 1 0 1
Nghost:    1.25 ave 17 max 0 min
Histogram: 35 1 0 0 2 0 0 0 1 1
Neighs:    0.175 ave 4 max 0 min
Histogram: 37 0 1 0 0 1 0 0 0 1

Total # of neighbors = 7
Ave neighs/atom = 0.0424242
Neighbor list builds = 9774
Dangerous builds = 1
Setting up run at Sun Nov 27 10:03:51 2022

Memory usage per processor = 958.989 Mbytes
    Step    Atoms         KinEng            CPU 
27777699      165     0.82495439              0 
27932019      164     0.70622272      1533.0707 
Loop time of 1533.07 on 40 procs for 154320 steps with 164 atoms, finish time Sun Nov 27 10:29:25 2022


Pair  time (%) = 0.289361 (0.0188746)
Neigh time (%) = 3.28996 (0.2146)
Comm  time (%) = 5.03745 (0.328586)
Outpt time (%) = 0.00260121 (0.000169673)
Other time (%) = 1524.45 (99.4378)

Nlocal:    4.1 ave 77 max 0 min
Histogram: 36 2 0 0 0 0 0 1 0 1
Nghost:    1.175 ave 17 max 0 min
Histogram: 35 1 0 0 2 0 0 1 0 1
Neighs:    0.175 ave 4 max 0 min
Histogram: 37 0 1 0 0 1 0 0 0 1

Total # of neighbors = 7
Ave neighs/atom = 0.0426829
Neighbor list builds = 9645
Dangerous builds = 0
Setting up run at Sun Nov 27 10:29:25 2022

Memory usage per processor = 958.989 Mbytes
    Step    Atoms         KinEng            CPU 
27932019      164     0.70622272              0 
28086339      164     0.65760941      1545.8776 
Loop time of 1545.89 on 40 procs for 154320 steps with 164 atoms, finish time Sun Nov 27 10:55:10 2022


Pair  time (%) = 0.288794 (0.0186814)
Neigh time (%) = 3.29426 (0.213099)
Comm  time (%) = 5.59763 (0.362098)
Outpt time (%) = 0.00301277 (0.00019489)
Other time (%) = 1536.7 (99.4059)

Nlocal:    4.1 ave 77 max 0 min
Histogram: 37 1 0 0 0 0 0 1 0 1
Nghost:    1.225 ave 18 max 0 min
Histogram: 35 1 0 2 0 0 0 1 0 1
Neighs:    0.225 ave 5 max 0 min
Histogram: 37 0 1 0 0 0 1 0 0 1

Total # of neighbors = 9
Ave neighs/atom = 0.054878
Neighbor list builds = 9645
Dangerous builds = 0
Setting up run at Sun Nov 27 10:55:11 2022

Memory usage per processor = 958.989 Mbytes
    Step    Atoms         KinEng            CPU 
28086339      164     0.65760941              0 
28240659      164     0.65479897      1543.3599 
Loop time of 1543.36 on 40 procs for 154320 steps with 164 atoms, finish time Sun Nov 27 11:20:54 2022


Pair  time (%) = 0.289892 (0.0187832)
Neigh time (%) = 3.29288 (0.213358)
Comm  time (%) = 5.94397 (0.385132)
Outpt time (%) = 0.00283214 (0.000183505)
Other time (%) = 1533.83 (99.3825)

Nlocal:    4.1 ave 75 max 0 min
Histogram: 37 1 0 0 0 0 0 1 0 1
Nghost:    1.225 ave 17 max 0 min
Histogram: 34 2 0 1 1 0 0 1 0 1
Neighs:    0.175 ave 4 max 0 min
Histogram: 37 0 1 0 0 1 0 0 0 1

Total # of neighbors = 7
Ave neighs/atom = 0.0426829
Neighbor list builds = 9645
Dangerous builds = 0
Setting up run at Sun Nov 27 11:20:54 2022

Memory usage per processor = 958.989 Mbytes
    Step    Atoms         KinEng            CPU 
28240659      164     0.65479897              0 
28394979      164     0.54692398       1556.667 
Loop time of 1556.67 on 40 procs for 154320 steps with 164 atoms, finish time Sun Nov 27 11:46:51 2022


Pair  time (%) = 0.290016 (0.0186305)
Neigh time (%) = 3.1531 (0.202554)
Comm  time (%) = 4.94061 (0.317384)
Outpt time (%) = 0.000526214 (3.38039e-05)
Other time (%) = 1548.28 (99.4614)

Nlocal:    4.1 ave 73 max 0 min
Histogram: 35 3 0 0 0 0 0 1 0 1
Nghost:    1.175 ave 17 max 0 min
Histogram: 36 0 0 1 1 0 0 1 0 1
Neighs:    0.125 ave 2 max 0 min
Histogram: 37 0 0 0 0 1 0 0 0 2

Total # of neighbors = 5
Ave neighs/atom = 0.0304878
Neighbor list builds = 9230
Dangerous builds = 0
Setting up run at Sun Nov 27 11:46:51 2022

Memory usage per processor = 958.989 Mbytes
    Step    Atoms         KinEng            CPU 
28394979      164     0.54692398              0 
28549299      161     0.50263944      1543.1477 
Loop time of 1543.15 on 40 procs for 154320 steps with 161 atoms, finish time Sun Nov 27 12:12:34 2022


Pair  time (%) = 0.289593 (0.0187663)
Neigh time (%) = 3.00217 (0.194548)
Comm  time (%) = 4.05241 (0.262606)
Outpt time (%) = 0.000303977 (1.96985e-05)
Other time (%) = 1535.8 (99.5241)

Nlocal:    4.025 ave 71 max 0 min
Histogram: 38 0 0 0 0 0 0 1 0 1
Nghost:    1.1 ave 15 max 0 min
Histogram: 36 0 0 0 1 1 0 0 0 2
Neighs:    0.1 ave 2 max 0 min
Histogram: 38 0 0 0 0 0 0 0 0 2

Total # of neighbors = 4
Ave neighs/atom = 0.0248447
Neighbor list builds = 8833
Dangerous builds = 1
Setting up run at Sun Nov 27 12:12:34 2022

Memory usage per processor = 958.989 Mbytes
    Step    Atoms         KinEng            CPU 
28549299      161     0.50263944              0 
28703619      161     0.46155327      1524.7519 
Loop time of 1524.75 on 40 procs for 154320 steps with 161 atoms, finish time Sun Nov 27 12:37:59 2022


Pair  time (%) = 0.286817 (0.0188107)
Neigh time (%) = 2.43804 (0.159898)
Comm  time (%) = 3.54868 (0.232738)
Outpt time (%) = 0.0002741 (1.79767e-05)
Other time (%) = 1518.48 (99.5885)

Nlocal:    4.025 ave 69 max 0 min
Histogram: 37 1 0 0 0 0 0 1 0 1
Nghost:    1.125 ave 16 max 0 min
Histogram: 36 0 0 1 1 0 0 0 1 1
Neighs:    0.15 ave 2 max 0 min
Histogram: 37 0 0 0 0 0 0 0 0 3

Total # of neighbors = 6
Ave neighs/atom = 0.0372671
Neighbor list builds = 7124
Dangerous builds = 0
Setting up run at Sun Nov 27 12:37:59 2022

Memory usage per processor = 958.989 Mbytes
    Step    Atoms         KinEng            CPU 
28703619      161     0.46155327              0 
28857939      160     0.50223526      1519.2236 
Loop time of 1519.22 on 40 procs for 154320 steps with 160 atoms, finish time Sun Nov 27 13:03:18 2022


Pair  time (%) = 0.285373 (0.0187841)
Neigh time (%) = 2.17948 (0.14346)
Comm  time (%) = 3.30055 (0.217252)
Outpt time (%) = 0.000549194 (3.61496e-05)
Other time (%) = 1513.46 (99.6205)

Nlocal:    4 ave 70 max 0 min
Histogram: 37 1 0 0 0 0 0 1 0 1
Nghost:    1.25 ave 16 max 0 min
Histogram: 36 0 0 0 1 1 0 0 0 2
Neighs:    0.025 ave 1 max 0 min
Histogram: 39 0 0 0 0 0 0 0 0 1

Total # of neighbors = 1
Ave neighs/atom = 0.00625
Neighbor list builds = 6372
Dangerous builds = 0
Setting up run at Sun Nov 27 13:03:18 2022

Memory usage per processor = 958.989 Mbytes
    Step    Atoms         KinEng            CPU 
28857939      160     0.50223526              0 
29012259      158     0.46059456      1531.3087 
Loop time of 1531.31 on 40 procs for 154320 steps with 158 atoms, finish time Sun Nov 27 13:28:49 2022


Pair  time (%) = 0.28324 (0.0184966)
Neigh time (%) = 2.08678 (0.136275)
Comm  time (%) = 3.64873 (0.238275)
Outpt time (%) = 0.000268521 (1.75354e-05)
Other time (%) = 1525.29 (99.6069)

Nlocal:    3.95 ave 70 max 0 min
Histogram: 38 0 0 0 0 0 0 1 0 1
Nghost:    1.125 ave 15 max 0 min
Histogram: 36 0 0 1 1 0 0 0 0 2
Neighs:    0.05 ave 2 max 0 min
Histogram: 39 0 0 0 0 0 0 0 0 1

Total # of neighbors = 2
Ave neighs/atom = 0.0126582
Neighbor list builds = 6244
Dangerous builds = 2
Setting up run at Sun Nov 27 13:28:49 2022

Memory usage per processor = 958.989 Mbytes
    Step    Atoms         KinEng            CPU 
29012259      158     0.46059456              0 
29166579      156     0.39941014      1528.8309 
Loop time of 1528.83 on 40 procs for 154320 steps with 156 atoms, finish time Sun Nov 27 13:54:18 2022


Pair  time (%) = 0.284526 (0.0186107)
Neigh time (%) = 2.33525 (0.152748)
Comm  time (%) = 3.4957 (0.228652)
Outpt time (%) = 0.000527554 (3.4507e-05)
Other time (%) = 1522.71 (99.6)

Nlocal:    3.9 ave 69 max 0 min
Histogram: 37 1 0 0 0 0 0 1 0 1
Nghost:    1.175 ave 15 max 0 min
Histogram: 35 1 0 0 2 0 0 0 1 1
Neighs:    0.025 ave 1 max 0 min
Histogram: 39 0 0 0 0 0 0 0 0 1

Total # of neighbors = 1
Ave neighs/atom = 0.00641026
Neighbor list builds = 6884
Dangerous builds = 1
Setting up run at Sun Nov 27 13:54:18 2022

Memory usage per processor = 958.989 Mbytes
    Step    Atoms         KinEng            CPU 
29166579      156     0.39941014              0 
29320899      156       1.255827      1527.9292 
Loop time of 1527.93 on 40 procs for 154320 steps with 156 atoms, finish time Sun Nov 27 14:19:46 2022


Pair  time (%) = 0.285369 (0.0186769)
Neigh time (%) = 2.54245 (0.166398)
Comm  time (%) = 3.86284 (0.252815)
Outpt time (%) = 0.000274905 (1.7992e-05)
Other time (%) = 1521.24 (99.5621)

Nlocal:    3.9 ave 67 max 0 min
Histogram: 37 1 0 0 0 0 0 1 0 1
Nghost:    1.225 ave 16 max 0 min
Histogram: 35 1 0 0 2 0 0 1 0 1
Neighs:    0.075 ave 2 max 0 min
Histogram: 38 0 0 0 0 1 0 0 0 1

Total # of neighbors = 3
Ave neighs/atom = 0.0192308
Neighbor list builds = 7455
Dangerous builds = 0
Setting up run at Sun Nov 27 14:19:46 2022

Memory usage per processor = 958.989 Mbytes
    Step    Atoms         KinEng            CPU 
29320899      156       1.255827              0 
29475219      150     0.58594518      1527.7184 
Loop time of 1527.72 on 40 procs for 154320 steps with 150 atoms, finish time Sun Nov 27 14:45:14 2022


Pair  time (%) = 0.284357 (0.0186132)
Neigh time (%) = 2.23123 (0.14605)
Comm  time (%) = 2.82329 (0.184805)
Outpt time (%) = 0.000198438 (1.29892e-05)
Other time (%) = 1522.38 (99.6505)

Nlocal:    3.75 ave 63 max 0 min
Histogram: 37 1 0 0 0 0 0 0 1 1
Nghost:    1.15 ave 16 max 0 min
Histogram: 35 1 0 1 1 0 0 1 0 1
Neighs:    0.075 ave 2 max 0 min
Histogram: 38 0 0 0 0 1 0 0 0 1

Total # of neighbors = 3
Ave neighs/atom = 0.02
Neighbor list builds = 6520
Dangerous builds = 0
Setting up run at Sun Nov 27 14:45:14 2022

Memory usage per processor = 958.989 Mbytes
    Step    Atoms         KinEng            CPU 
29475219      150     0.58594518              0 
29629539      150     0.50697944       1525.561 
Loop time of 1525.56 on 40 procs for 154320 steps with 150 atoms, finish time Sun Nov 27 15:10:40 2022


Pair  time (%) = 0.287776 (0.0188636)
Neigh time (%) = 2.74677 (0.18005)
Comm  time (%) = 3.38906 (0.222152)
Outpt time (%) = 0.000498171 (3.26549e-05)
Other time (%) = 1519.14 (99.5789)

Nlocal:    3.75 ave 63 max 0 min
Histogram: 37 1 0 0 0 0 0 1 0 1
Nghost:    1.2 ave 18 max 0 min
Histogram: 36 0 0 2 0 0 0 1 0 1
Neighs:    0.05 ave 1 max 0 min
Histogram: 38 0 0 0 0 0 0 0 0 2

Total # of neighbors = 2
Ave neighs/atom = 0.0133333
Neighbor list builds = 8063
Dangerous builds = 0
Setting up run at Sun Nov 27 15:10:40 2022

Memory usage per processor = 958.989 Mbytes
    Step    Atoms         KinEng            CPU 
29629539      150     0.50697944              0 
29783859      148     0.71161412      1529.3102 
Loop time of 1529.31 on 40 procs for 154320 steps with 148 atoms, finish time Sun Nov 27 15:36:09 2022


Pair  time (%) = 0.285846 (0.0186912)
Neigh time (%) = 2.43118 (0.158973)
Comm  time (%) = 3.85134 (0.251835)
Outpt time (%) = 0.000178746 (1.1688e-05)
Other time (%) = 1522.74 (99.5705)

Nlocal:    3.7 ave 67 max 0 min
Histogram: 37 1 0 0 0 0 1 0 0 1
Nghost:    1.125 ave 15 max 0 min
Histogram: 35 1 0 1 1 0 0 0 0 2
Neighs:    0.05 ave 2 max 0 min
Histogram: 39 0 0 0 0 0 0 0 0 1

Total # of neighbors = 2
Ave neighs/atom = 0.0135135
Neighbor list builds = 7190
Dangerous builds = 2
Setting up run at Sun Nov 27 15:36:09 2022

Memory usage per processor = 958.989 Mbytes
    Step    Atoms         KinEng            CPU 
29783859      148     0.71161412              0 
29938179      146     0.66292712      1528.6999 
Loop time of 1528.7 on 40 procs for 154320 steps with 146 atoms, finish time Sun Nov 27 16:01:38 2022


Pair  time (%) = 0.287462 (0.0188044)
Neigh time (%) = 2.67463 (0.174961)
Comm  time (%) = 3.27751 (0.214399)
Outpt time (%) = 0.00052426 (3.42945e-05)
Other time (%) = 1522.46 (99.5918)

Nlocal:    3.65 ave 67 max 0 min
Histogram: 37 1 0 0 0 0 1 0 0 1
Nghost:    1.05 ave 16 max 0 min
Histogram: 36 0 1 0 1 0 0 0 1 1
Neighs:    0.1 ave 3 max 0 min
Histogram: 38 0 0 1 0 0 0 0 0 1

Total # of neighbors = 4
Ave neighs/atom = 0.0273973
Neighbor list builds = 7862
Dangerous builds = 0
Setting up run at Sun Nov 27 16:01:38 2022

Memory usage per processor = 958.989 Mbytes
    Step    Atoms         KinEng            CPU 
29938179      146     0.66292712              0 
30092499      145     0.80152986       1533.539 
Loop time of 1533.54 on 40 procs for 154320 steps with 145 atoms, finish time Sun Nov 27 16:27:12 2022


Pair  time (%) = 0.287396 (0.0187407)
Neigh time (%) = 2.59299 (0.169085)
Comm  time (%) = 2.91481 (0.190071)
Outpt time (%) = 0.000343395 (2.23923e-05)
Other time (%) = 1527.74 (99.6221)

Nlocal:    3.625 ave 66 max 0 min
Histogram: 36 2 0 0 0 0 1 0 0 1
Nghost:    1.05 ave 16 max 0 min
Histogram: 35 1 1 1 0 0 0 0 1 1
Neighs:    0.2 ave 5 max 0 min
Histogram: 38 0 0 0 0 0 1 0 0 1

Total # of neighbors = 8
Ave neighs/atom = 0.0551724
Neighbor list builds = 7561
Dangerous builds = 0
Setting up run at Sun Nov 27 16:27:12 2022

Memory usage per processor = 958.989 Mbytes
    Step    Atoms         KinEng            CPU 
30092499      145     0.80152986              0 
30246819      144     0.78478985      1522.1284 
Loop time of 1522.13 on 40 procs for 154320 steps with 144 atoms, finish time Sun Nov 27 16:52:34 2022


Pair  time (%) = 0.286186 (0.0188017)
Neigh time (%) = 2.57774 (0.169351)
Comm  time (%) = 3.2763 (0.215244)
Outpt time (%) = 0.0002286 (1.50184e-05)
Other time (%) = 1515.99 (99.5966)

Nlocal:    3.6 ave 65 max 0 min
Histogram: 37 1 0 0 0 0 1 0 0 1
Nghost:    1.025 ave 14 max 0 min
Histogram: 36 0 1 0 1 0 0 0 0 2
Neighs:    0.2 ave 5 max 0 min
Histogram: 38 0 0 0 0 0 1 0 0 1

Total # of neighbors = 8
Ave neighs/atom = 0.0555556
Neighbor list builds = 7596
Dangerous builds = 74
Setting up run at Sun Nov 27 16:52:34 2022

Memory usage per processor = 958.989 Mbytes
    Step    Atoms         KinEng            CPU 
30246819      144     0.78478985              0 
30401139      143     0.86724957      1529.3265 
Loop time of 1529.33 on 40 procs for 154320 steps with 143 atoms, finish time Sun Nov 27 17:18:03 2022


Pair  time (%) = 0.284072 (0.018575)
Neigh time (%) = 2.47141 (0.161601)
Comm  time (%) = 3.73779 (0.244407)
Outpt time (%) = 0.000473357 (3.0952e-05)
Other time (%) = 1522.83 (99.5754)

Nlocal:    3.575 ave 65 max 0 min
Histogram: 37 1 0 0 0 0 1 0 0 1
Nghost:    1.15 ave 16 max 0 min
Histogram: 35 1 1 0 0 1 0 0 0 2
Neighs:    0.1 ave 2 max 0 min
Histogram: 38 0 0 0 0 0 0 0 0 2

Total # of neighbors = 4
Ave neighs/atom = 0.027972
Neighbor list builds = 7258
Dangerous builds = 0
Setting up run at Sun Nov 27 17:18:03 2022

Memory usage per processor = 958.989 Mbytes
    Step    Atoms         KinEng            CPU 
30401139      143     0.86724957              0 
30555459      141     0.67125129      1531.0602 
Loop time of 1531.06 on 40 procs for 154320 steps with 141 atoms, finish time Sun Nov 27 17:43:34 2022


Pair  time (%) = 0.28614 (0.018689)
Neigh time (%) = 2.71807 (0.177529)
Comm  time (%) = 3.66469 (0.239356)
Outpt time (%) = 0.00025067 (1.63723e-05)
Other time (%) = 1524.39 (99.5644)

Nlocal:    3.525 ave 64 max 0 min
Histogram: 35 3 0 0 0 0 1 0 0 1
Nghost:    1.05 ave 16 max 0 min
Histogram: 36 0 1 1 0 0 0 0 1 1
Neighs:    0.05 ave 2 max 0 min
Histogram: 39 0 0 0 0 0 0 0 0 1

Total # of neighbors = 2
Ave neighs/atom = 0.0141844
Neighbor list builds = 8128
Dangerous builds = 311
Setting up run at Sun Nov 27 17:43:34 2022

Memory usage per processor = 958.989 Mbytes
    Step    Atoms         KinEng            CPU 
30555459      141     0.67125129              0 
30709779      141     0.66506828      1527.3237 
Loop time of 1527.32 on 40 procs for 154320 steps with 141 atoms, finish time Sun Nov 27 18:09:02 2022


Pair  time (%) = 0.284764 (0.0186446)
Neigh time (%) = 2.25381 (0.147566)
Comm  time (%) = 3.08329 (0.201876)
Outpt time (%) = 0.000468614 (3.0682e-05)
Other time (%) = 1521.7 (99.6319)

Nlocal:    3.525 ave 63 max 0 min
Histogram: 37 1 0 0 0 0 1 0 0 1
Nghost:    1.025 ave 16 max 0 min
Histogram: 34 2 1 1 0 0 1 0 0 1
Neighs:    0.075 ave 3 max 0 min
Histogram: 39 0 0 0 0 0 0 0 0 1

Total # of neighbors = 3
Ave neighs/atom = 0.0212766
Neighbor list builds = 6581
Dangerous builds = 0
Setting up run at Sun Nov 27 18:09:02 2022

Memory usage per processor = 958.989 Mbytes
    Step    Atoms         KinEng            CPU 
30709779      141     0.66506828              0 
30864099      137     0.65938971      1520.6011 
Loop time of 1520.6 on 40 procs for 154320 steps with 137 atoms, finish time Sun Nov 27 18:34:22 2022


Pair  time (%) = 0.2849 (0.018736)
Neigh time (%) = 2.21869 (0.145909)
Comm  time (%) = 4.22992 (0.278174)
Outpt time (%) = 0.000253574 (1.66759e-05)
Other time (%) = 1513.87 (99.5572)

Nlocal:    3.425 ave 62 max 0 min
Histogram: 38 0 0 0 0 0 1 0 0 1
Nghost:    1.025 ave 16 max 0 min
Histogram: 34 3 1 0 0 0 1 0 0 1
Neighs:    0.15 ave 5 max 0 min
Histogram: 38 0 1 0 0 0 0 0 0 1

Total # of neighbors = 6
Ave neighs/atom = 0.0437956
Neighbor list builds = 6652
Dangerous builds = 359
Setting up run at Sun Nov 27 18:34:22 2022

Memory usage per processor = 958.989 Mbytes
    Step    Atoms         KinEng            CPU 
30864099      137     0.65938971              0 
30864196      137     0.65932304     0.92687185 
Loop time of 0.926886 on 40 procs for 97 steps with 137 atoms, finish time Sun Nov 27 18:34:23 2022


Pair  time (%) = 0.000176513 (0.0190437)
Neigh time (%) = 0.00102157 (0.110216)
Comm  time (%) = 0.00270448 (0.291781)
Outpt time (%) = 0.000207277 (0.0223627)
Other time (%) = 0.922776 (99.5566)

Nlocal:    3.425 ave 63 max 0 min
Histogram: 38 0 0 0 0 0 1 0 0 1
Nghost:    1.025 ave 15 max 0 min
Histogram: 34 2 2 0 0 0 0 1 0 1
Neighs:    0.15 ave 5 max 0 min
Histogram: 38 0 1 0 0 0 0 0 0 1

Total # of neighbors = 6
Ave neighs/atom = 0.0437956
Neighbor list builds = 3
Dangerous builds = 0
