ITEM: TIMESTEP
17592579
ITEM: NUMBER OF ATOMS
146
ITEM: BOX BOUNDS ff ff ff
-0.15 0.15
-0.15 0.15
-0.15 0.15
ITEM: ATOMS id type x y z radius vx vy vz density 
443 1 -0.0568038 -0.0183989 -0.0387727 0.000233 -53.2491 -14.0994 77.9997 2650 
499 1 -0.00322588 -0.0599414 -0.068133 0.000847 -100.201 11.4029 4.59225 2650 
312 1 -0.0445768 -0.00429789 -0.0159189 0.000233 -6.91778 -0.111033 -2.47042 2650 
17 1 -0.00448523 -0.000353057 -0.0130277 0.000847 -0.00404958 -0.00744421 0.010746 2650 
77 1 -0.0113723 -0.00220561 -0.0121764 0.000233 -0.481823 0.0169208 0.555629 2650 
404 1 -0.00241886 -0.00253823 -0.0121737 0.000233 0.00345182 -0.00380056 -0.00408233 2650 
299 1 -0.0680224 -0.00786215 -0.0101232 0.000233 -0.00314384 -0.197612 0.0211203 2650 
392 1 -0.003997 -0.00239099 -0.009609 8.4e-05 0 -0.01175 0 2650 
2 1 -0.0671141 -0.00983718 -0.00902859 0.001312 -1.60624 -1.22885 11.9267 2650 
391 1 -0.001389 -0.00229799 -0.007809 0.000233 0 -0.01175 0 2650 
79 1 -0.009334 -0.00150899 -0.006031 0.000233 0 -0.01175 0 2650 
467 1 -0.01128 -0.00280699 -0.004037 0.000233 0 -0.01175 0 2650 
301 1 -0.000431 -0.00325799 -0.003081 8.4e-05 0 -0.01175 0 2650 
376 1 -0.005395 -0.00251499 0.002758 0.000233 0 -0.01175 0 2650 
63 1 -0.00311559 -0.00126831 0.003063 0.000233 -0.0031558 -0.0178056 0.0125173 2650 
455 1 -0.0143014 -0.00300896 0.0041561 0.000233 0.00486457 -0.00598722 0.0195422 2650 
90 1 -0.0103302 -0.00261634 0.00380259 0.000233 -0.00490546 -0.01514 -0.00718079 2650 
475 1 -0.00942364 -0.00146861 0.00431579 0.000847 -0.0035223 -0.0118719 -0.00839862 2650 
180 1 -0.0048537 -0.00102208 0.00412993 0.000233 0.00893885 -0.0064373 -0.0143239 2650 
244 1 -0.002251 -0.000304989 0.006118 0.000233 0 -0.01175 0 2650 
172 1 -0.0109069 -0.00294893 0.00883489 0.001312 0.0059555 -0.0102445 -0.00291838 2650 
425 1 -0.0437088 -0.0208669 0.0523601 0.000847 66.9124 36.198 55.8328 2650 
251 1 -0.0340289 -0.0200448 0.059113 0.000847 80.3301 25.8189 46.2211 2650 
235 1 -0.0256099 -0.0167499 0.0601318 0.000233 -0.654872 -0.750624 1.25703 2650 
361 1 -0.0654095 0.0341196 -0.0212378 0.000233 -0.0488034 -0.47856 0.150275 2650 
85 1 -0.00421334 0.0322244 -0.0154493 0.000847 -0.750677 -0.31965 0.166294 2650 
437 1 -0.00317556 0.0594399 -0.0155881 0.000847 0.0485255 0.057161 -0.0203141 2650 
209 1 -0.00880865 0.00208123 -0.0135482 0.000233 -0.00171719 -0.00384376 0.0093548 2650 
218 1 -0.00280149 0.00870782 -0.0138837 0.000233 0.0269464 0.0150735 -0.0142902 2650 
37 1 -0.000131748 0.00911989 -0.0141975 0.000233 0.0110791 0.00547466 0.000960455 2650 
128 1 -0.00868324 0.00583038 -0.0124655 0.000233 -0.00610861 -0.000841187 -0.0304212 2650 
309 1 -0.00980394 0.00745882 -0.0111656 0.000233 -0.00450576 -0.001553 0.00675875 2650 
137 1 -0.00800316 0.037674 -0.011156 0.000847 0.0135337 0.020306 -0.0316419 2650 
362 1 -0.0133319 0.00630496 -0.00991093 0.000233 -0.0211459 0.00558664 0.0242991 2650 
390 1 -0.0140817 0.00895104 -0.00880599 0.000233 -0.367276 0.0962506 0.682711 2650 
291 1 -0.0116335 0.0106167 -0.00861365 0.000847 -0.00151578 0.00160474 -0.0150482 2650 
73 1 -0.0127323 0.016183 -0.00865035 0.000847 0.0119034 0.00813226 -0.0171786 2650 
146 1 -0.0671247 0.0487379 -0.00894883 0.001312 1.52648 -0.477236 -11.4376 2650 
55 1 -0.00424933 0.0163731 -0.00729472 0.001312 -0.00374929 0.010234 -0.0225091 2650 
13 1 -0.00228927 0.0296201 -0.00707505 8.4e-05 0.0394899 0.00712031 -0.0147626 2650 
255 1 -0.0147191 0.0403402 -0.00637968 0.000847 -0.458936 -0.0487719 0.858372 2650 
66 1 -0.0120415 0.0501281 -0.00763196 0.000233 0.00377936 0.0342087 0.00385618 2650 
273 1 -0.00964905 0.0474496 -0.00591058 0.000233 0.0170065 0.0458959 -0.0509946 2650 
98 1 -0.00504238 0.00557689 -0.00376554 0.000847 0.0469713 -0.013063 -0.0923225 2650 
105 1 -0.00151464 0.00639705 -0.00426906 0.000233 -0.0038186 0.00248038 -0.00061567 2650 
43 1 -0.0147713 0.0230681 -0.0031822 0.001312 0.00784929 0.0126392 -0.0221802 2650 
381 1 -0.000652946 0.0350566 -0.00347344 0.000847 0.00408091 0.0273237 -0.0225548 2650 
206 1 -0.00552893 0.00107341 -0.0021713 0.000233 -0.00793167 -0.00411541 -0.0129836 2650 
484 1 -0.00353902 0.00197803 -0.00221012 0.001312 0.000771827 -0.0052352 -0.0189613 2650 
355 1 -0.0068953 0.00676209 -0.00247714 0.000847 0.0227715 0.0163024 -0.0897481 2650 
360 1 -0.0159105 0.0459302 -0.00169904 0.000847 -0.0653405 -0.102098 1.54517 2650 
14 1 -0.0162215 0.0501222 -0.00171512 8.4e-05 0.00119821 0.063014 -0.0722296 2650 
222 1 -0.0145247 0.0287824 -0.000198055 0.000233 0.0229142 0.00160847 0.00779497 2650 
263 1 -0.00260673 0.0492718 -0.000533334 0.001312 0.0105926 0.0434776 -0.0174285 2650 
457 1 -0.0164125 0.00096277 0.000973404 8.4e-05 0.00644959 -0.0128754 -0.045688 2650 
430 1 -0.0071091 0.022587 0.00293175 0.000233 -0.0456019 0.00621951 -0.0131774 2650 
466 1 -0.0164353 0.0392183 0.00175666 0.000233 0.00888232 0.187885 0.0448826 2650 
345 1 -0.00557755 0.0022446 0.00435515 0.000847 0.00764886 0.00287812 0.00877621 2650 
283 1 -0.0119276 0.00414219 0.00473091 0.000233 0.00620868 -0.00270802 -0.00521613 2650 
310 1 -0.0161324 0.0114783 0.0038174 0.000233 0.162695 0.165156 0.867714 2650 
178 1 -0.0116287 0.0433871 0.00554853 0.000847 -0.0161273 0.0791383 0.0566144 2650 
482 1 -0.00367567 0.0450936 0.00481898 0.000233 0.00469409 0.0342639 0.0260087 2650 
440 1 -0.014789 0.0220806 0.00765931 0.000233 -0.0558322 -0.00992725 -0.106054 2650 
156 1 -0.00212374 0.00429695 0.00890355 0.000233 0.133252 0.0466231 0.0621831 2650 
196 1 -0.0140333 0.00607015 0.00805273 0.000233 -0.00186342 -0.00869861 -0.00971558 2650 
325 1 -0.0145086 0.0330079 0.00837465 0.000233 1.5726 -0.0832285 2.11668 2650 
40 1 -0.0138113 0.0327412 0.00938558 0.000233 -0.0238104 0.0912734 -0.0463977 2650 
511 1 -0.00875571 0.0568025 0.00793674 0.000847 0.00427935 0.0528312 -0.0152122 2650 
298 1 -0.0136959 0.0065187 0.00948912 0.000233 -0.0576943 -0.00973847 -0.107417 2650 
316 1 -0.0104639 0.0344982 0.00989357 0.000847 0.0120838 0.0402563 0.0122571 2650 
495 1 -0.000515419 0.007405 0.0132883 0.000233 0.0462427 -0.0281834 0.0648041 2650 
351 1 -0.00644639 0.024032 0.013518 0.000233 -0.00991851 0.0154487 0.0373 2650 
204 1 -0.0106382 0.0773653 -0.00864286 0.000847 0.0082208 0.219543 0.0128618 2650 
400 1 -0.00640661 0.0755793 0.00410855 0.000233 -0.032364 0.0963256 0.0226569 2650 
6 1 -0.000923595 0.0879025 0.0681467 0.000847 -0.00319939 -0.0575775 -4.33615e-05 2650 
191 1 0.00510432 -0.00197147 -0.0679565 0.000847 -20.901 -2.69871 -1.10086 2650 
123 1 0.00816871 -0.0539536 -0.0271676 0.000847 -4.06649 7.80844e-06 -1.21345 2650 
374 1 0.00872976 -0.000442791 -0.00640007 0.000233 -0.0186032 -0.00918325 0.0137603 2650 
5 1 0.0571215 -0.00592467 -0.00600253 0.000847 -18.3903 -12.8969 -49.5998 2650 
349 1 0.0297005 -0.0608895 -0.0016499 0.000233 0.153061 -0.197943 0.490095 2650 
363 1 0.013993 -4.98889e-06 -0.001599 0.000233 0 -0.01175 0 2650 
8 1 0.006698 -0.00106599 0.001482 0.000233 0 -0.01175 0 2650 
456 1 0.009608 -0.00306499 0.003179 0.000233 0 -0.01175 0 2650 
132 1 0.0684637 -0.0113623 0.00789713 8.4e-05 0.00580359 -0.260242 -0.05031 2650 
474 1 0.00372897 -0.00223384 0.0108511 0.000847 0.0187745 -0.00937088 0.0135508 2650 
373 1 0.059191 -0.0576512 0.0338387 0.000847 22.1806 1.05435 -38.7755 2650 
184 1 0.0542567 -0.013625 0.0424935 8.4e-05 0.131999 -0.294955 -0.168522 2650 
375 1 0.00139853 0.000963204 -0.0165496 0.000233 -0.45882 0.0450531 -0.0183313 2650 
462 1 0.00208242 0.0196903 -0.0158526 0.000847 0.183601 -0.0242011 0.0326848 2650 
242 1 0.00546428 0.0180971 -0.00950127 0.000847 0.0106523 0.0117111 0.0179508 2650 
319 1 0.00405616 0.0609972 -0.0103949 0.000847 0.018509 0.0680095 -0.0277984 2650 
261 1 0.00948711 0.0071963 -0.00861691 0.000233 -0.0209803 3.46459e-05 0.00492984 2650 
296 1 0.0141887 0.0198702 -0.0080114 0.000233 0.0692082 -0.0363938 0.186437 2650 
201 1 0.0142892 0.00984957 -0.00654432 0.000847 -0.0161732 0.00297775 0.00487183 2650 
104 1 0.0149904 0.0223157 -0.00747927 0.000233 0.00870692 0.00587881 0.0426256 2650 
198 1 0.00766759 0.0253384 -0.00676306 0.001312 0.0139318 0.0188735 0.00855589 2650 
429 1 0.0142294 0.00259358 -0.00608172 0.000233 0.0266779 0.00591676 -0.0117365 2650 
353 1 0.00990013 0.00373569 -0.00552641 8.4e-05 0.00908281 0.00118574 -0.0158319 2650 
237 1 0.0120135 0.00922258 -0.00582051 0.001312 0.0327669 0.00290189 -0.00282958 2650 
476 1 0.013231 0.0187186 -0.00589503 0.000847 -0.0135782 0.010868 -0.0139986 2650 
366 1 0.0161644 0.0175888 -0.00384796 8.4e-05 0.0151379 0.0163292 0.0176797 2650 
379 1 0.0162299 0.0315718 -0.00412602 8.4e-05 0.0153036 0.0105683 0.0615262 2650 
267 1 0.0107239 0.00366118 -0.0017205 0.000847 -0.0208833 -0.00553961 -0.00483514 2650 
289 1 0.0147697 0.010694 -0.00186871 0.001312 -0.0103701 0.00122195 0.00490905 2650 
11 1 0.0165187 0.0266936 -0.000222508 0.000233 0.0167733 -0.102464 -0.516923 2650 
412 1 0.0159453 0.0291261 -3.84731e-05 0.000847 0.0137261 0.101959 -0.387875 2650 
281 1 0.0168549 0.0587489 -0.00149117 0.000847 0.0296222 0.0456846 -0.113358 2650 
386 1 0.0149209 0.00879783 0.000550651 0.000847 -0.022809 -0.0287729 0.0115865 2650 
295 1 0.00713096 0.018662 0.000243311 0.000847 0.0219125 0.01998 -0.0175308 2650 
359 1 0.0158063 0.00478401 0.00291914 0.000847 -0.00642167 0.00130264 -0.00704933 2650 
31 1 0.0109487 0.0109942 0.00282432 0.000847 0.0317442 0.0131548 0.00265078 2650 
327 1 0.0166575 0.0519226 0.00182275 8.4e-05 -0.0320969 -0.00295168 0.169078 2650 
75 1 0.00154182 0.00479812 0.0040995 0.000233 0.00332582 -5.88382e-05 0.0169148 2650 
260 1 0.00736766 0.011117 0.00363621 0.000233 -0.00526434 0.0135742 -0.0322824 2650 
131 1 0.0155752 0.00959249 0.00339341 0.000233 0.0289554 0.00214541 -0.00104248 2650 
252 1 0.00919163 0.0118188 0.00382181 0.000847 0.00491769 0.00803068 -0.0198657 2650 
99 1 0.011389 0.0255836 0.00386756 0.000847 0.0130843 0.0220184 -0.0105542 2650 
80 1 0.00176734 0.00374591 0.00618543 8.4e-05 0.00373656 -0.00278016 0.0211389 2650 
512 1 0.00350683 0.0507833 0.00563035 0.000847 0.0120363 0.054604 0.0114501 2650 
50 1 0.00242498 0.0672742 0.00526294 0.000233 -0.00622688 0.064114 -0.0394471 2650 
441 1 0.0140548 0.00380694 0.00787521 0.000233 -0.0388999 -0.036577 0.067915 2650 
313 1 0.0140976 0.01128 0.00686549 0.000233 0.0291926 0.00236247 -0.034166 2650 
321 1 0.00952116 0.051307 0.00744215 0.000847 0.0212317 0.0606835 -0.00559239 2650 
406 1 0.00280992 0.0027851 0.00945816 0.001312 0.00159577 -0.000499242 -0.0020534 2650 
217 1 0.00175788 0.00593639 0.00807529 0.000847 0.011163 0.00149183 0.0268597 2650 
103 1 0.00507126 0.00757165 0.00895804 0.000233 -0.0110492 -0.00251187 -0.00895235 2650 
464 1 0.00859631 0.00782597 0.0102072 0.000233 0.0846468 -0.0168812 -0.02409 2650 
416 1 0.0132968 0.00706464 0.0100323 0.000233 0.174399 0.0159527 -0.150409 2650 
16 1 0.00868215 0.0201492 0.010569 0.001312 0.00869428 0.00730609 0.0249125 2650 
356 1 0.00401109 0.0446122 0.0107563 0.000847 0.0189286 0.0395986 -0.00601023 2650 
89 1 0.003537 0.000500011 0.012461 0.000233 0 -0.01175 0 2650 
229 1 0.00438357 0.0540452 0.011528 0.000847 0.0389858 -0.0666553 -0.0531237 2650 
517 1 0.000337872 0.0722605 0.0118378 0.000233 0.0168324 0.0960293 0.0170836 2650 
282 1 0.00548228 0.000158136 0.0129716 0.000847 -0.0123942 -0.000300201 -0.0122191 2650 
224 1 0.00735782 0.0158361 0.0132534 0.001312 0.0624832 0.0125179 -0.0378371 2650 
28 1 0.00252495 0.0389256 0.0135827 8.4e-05 0.036863 0.0365593 0.0188487 2650 
12 1 0.00115149 0.0587301 0.0132944 0.000233 -0.00199581 0.0457217 -0.0222227 2650 
254 1 0.00165902 0.00387604 0.0152891 0.000847 0.000708798 -0.002306 0.00597962 2650 
186 1 0.0045854 0.0633448 0.0152086 0.001312 0.0098561 0.0706695 0.0049049 2650 
139 1 0.00148694 0.0576758 0.015893 0.000847 -0.0654201 0.100082 0.00259044 2650 
97 1 0.0367257 0.14467 -0.0574308 0.000847 -34.7509 -0.559844 -22.2089 2650 
154 1 0.00366033 0.143374 -0.00848825 0.000233 -0.00924804 0.118602 0.00100956 2650 
383 1 0.00578673 0.116866 -9.72917e-05 0.000847 -0.012285 0.112245 0.000503282 2650 
223 1 0.00874926 0.0778886 0.0138674 8.4e-05 0.026994 0.0833022 -0.00953033 2650 
365 1 0.00135394 0.135354 0.0152128 0.000233 0.0179174 0.166228 0.039892 2650 
329 1 0.00330407 0.079381 0.0159072 0.000847 -0.0499317 0.163496 0.0312812 2650 
