ITEM: TIMESTEP
21604899
ITEM: NUMBER OF ATOMS
108
ITEM: BOX BOUNDS ff ff ff
-0.15 0.15
-0.15 0.15
-0.15 0.15
ITEM: ATOMS id type x y z radius vx vy vz density 
429 1 -0.0209259 -0.016427 -0.0655058 0.000233 -0.130322 -0.336426 0.0414061 2650 
77 1 -0.0261747 -0.000536712 -0.0635908 0.000233 7.10358 -0.0353572 -2.9239 2650 
457 1 -0.0523876 -0.015726 -0.044778 8.4e-05 -35.9119 -0.507924 42.0114 2650 
17 1 -0.00553812 -0.00228854 -0.0102337 0.000847 -0.00404958 -0.00744421 0.010746 2650 
349 1 -0.0289041 -0.0600524 -0.00732621 0.000233 -0.47768 -0.211892 1.17815 2650 
180 1 -0.00252962 -0.00269577 0.000405745 0.000233 0.00893885 -0.0064373 -0.0143239 2650 
244 1 -0.00301396 -0.00343952 0.00819164 0.000233 -0.314824 -0.0429242 0.85566 2650 
123 1 -0.023292 -0.0539535 0.0162088 0.000847 2.48748 8.35182e-06 3.56489 2650 
14 1 -0.059216 0.0395958 -0.0352563 8.4e-05 -0.0841682 -0.416653 0.141355 2650 
440 1 -0.00378941 0.0181831 -0.0161517 0.000233 0.110418 -0.0173224 -0.0276904 2650 
298 1 -0.00512028 0.00260392 -0.0157688 0.000233 0.111837 -0.0185462 -0.0304177 2650 
273 1 -0.00424462 0.0591329 -0.014608 0.000233 0.0302262 0.0425391 0.0103593 2650 
73 1 -0.00955834 0.0182773 -0.0129826 0.000847 0.0179971 0.00658179 -0.00683939 2650 
55 1 -0.00522414 0.019034 -0.0131471 0.001312 -0.00374929 0.010234 -0.0225091 2650 
137 1 -0.0032657 0.042384 -0.013961 0.000847 0.0219097 0.0163916 0.00562176 2650 
40 1 -0.00958208 0.049699 -0.0134687 0.000233 -0.132977 0.192155 0.0683894 2650 
209 1 -0.00925511 0.00108186 -0.011116 0.000233 -0.00171719 -0.00384376 0.0093548 2650 
128 1 -0.00584812 0.00598071 -0.0125972 0.000233 0.0150298 0.000922321 0.00674739 2650 
416 1 -0.0124502 0.00998762 -0.0109882 0.000233 -0.0531382 -0.0365401 0.0494139 2650 
291 1 -0.0107126 0.0111245 -0.0110366 0.000847 0.0103828 0.00327181 0.0016352 2650 
309 1 -0.0109754 0.00705504 -0.00940831 0.000233 -0.00450576 -0.001553 0.00675875 2650 
43 1 -0.0127305 0.0263543 -0.00894902 0.001312 0.00784929 0.0126392 -0.0221802 2650 
484 1 -0.00333835 0.000616886 -0.00714003 0.001312 0.000771827 -0.0052352 -0.0189613 2650 
66 1 -0.0110588 0.0590223 -0.00662936 0.000233 0.00377936 0.0342087 0.00385618 2650 
206 1 -0.00759115 3.40687e-06 -0.00554703 0.000233 -0.00793167 -0.00411541 -0.0129836 2650 
105 1 -0.00250747 0.00704194 -0.00442914 0.000233 -0.0038186 0.00248038 -0.00061567 2650 
362 1 -0.0164922 0.00760609 -0.00235937 0.000233 -0.00128511 0.00447704 0.0314625 2650 
430 1 -0.0158265 0.0238571 -0.000756057 0.000233 0.0190261 -0.000924056 -0.0185657 2650 
360 1 -0.0159344 0.0516215 -0.000799328 0.000847 -0.0359081 0.00582431 0.897713 2650 
255 1 -0.0160251 0.0366352 0.000651462 0.000847 -0.0279519 -0.132574 0.673046 2650 
222 1 -0.00856705 0.0292006 0.00182863 0.000233 0.0229142 0.00160847 0.00779497 2650 
283 1 -0.0103133 0.00343811 0.00337472 0.000233 0.00620868 -0.00270802 -0.00521613 2650 
511 1 -0.00764309 0.0705385 0.00398159 0.000847 0.00427935 0.0528312 -0.0152122 2650 
196 1 -0.0145178 0.00380853 0.0055267 0.000233 -0.00186342 -0.00869861 -0.00971558 2650 
345 1 -0.00358886 0.00299291 0.00663695 0.000847 0.00764886 0.00287812 0.00877621 2650 
310 1 -0.00846538 0.00876127 0.0106013 0.000233 -0.102501 0.0541746 -0.0618587 2650 
351 1 -0.00505639 0.0263507 0.0118676 0.000233 0.00883329 0.0074265 -0.0163183 2650 
482 1 -0.00245521 0.0540022 0.0115812 0.000233 0.00469409 0.0342639 0.0260087 2650 
316 1 -0.0073221 0.0449648 0.0130804 0.000847 0.0120838 0.0402563 0.0122571 2650 
186 1 -0.0623667 0.0738954 0.0265907 0.001312 31.7507 18.4214 74.4375 2650 
466 1 -0.0618341 0.0675222 0.0300981 0.000233 -0.0489151 -0.237772 -0.100469 2650 
437 1 -0.0301524 0.0483027 0.0612035 0.000847 -104.793 -41.3937 -51.6339 2650 
204 1 -0.00850076 0.134446 -0.00529881 0.000847 0.0082208 0.219543 0.0128618 2650 
319 1 -0.057321 0.0783673 0.0369648 0.000847 44.1691 1.96307 68.4594 2650 
400 1 -0.058081 0.0990671 0.0368217 0.000233 -0.107666 -0.0348649 -0.169785 2650 
172 1 0.0403109 -0.0392197 -0.054496 0.001312 -63.9366 -1.33119 -47.2607 2650 
374 1 0.00389295 -0.00283042 -0.00282243 0.000233 -0.0186032 -0.00918325 0.0137603 2650 
363 1 0.013993 -0.00305997 -0.001599 0.000233 0 -0.01175 0 2650 
8 1 0.0679156 -0.0148287 0.0108161 0.000233 0.0108739 -0.310575 -0.0682638 2650 
89 1 0.003537 -0.00255497 0.012461 0.000233 0 -0.01175 0 2650 
325 1 0.00505994 0.0223158 -0.0158429 0.000233 -0.601054 0.0406599 -0.149309 2650 
218 1 0.00375197 0.0125152 -0.0157352 0.000233 0.0209357 0.0135901 0.0104647 2650 
11 1 0.00554672 0.0335975 -0.0157176 0.000233 -0.420167 0.0158351 -0.105426 2650 
37 1 0.00274879 0.0105433 -0.0139477 0.000233 0.0110791 0.00547466 0.000960455 2650 
355 1 0.000871472 0.0107258 -0.0116187 0.000847 0.0392452 0.0138498 0.0368967 2650 
98 1 0.0034355 0.00283151 -0.00984985 0.000847 0.0176423 -0.00795082 0.0484106 2650 
353 1 0.0122616 0.00404398 -0.00964266 8.4e-05 0.00908281 0.00118574 -0.0158319 2650 
201 1 0.0122965 0.0127069 -0.0103845 0.000847 -0.0154556 0.0100311 -0.012727 2650 
476 1 0.0097007 0.0215443 -0.00953464 0.000847 -0.0135782 0.010868 -0.0139986 2650 
13 1 0.00797803 0.0314714 -0.0109133 8.4e-05 0.0394899 0.00712031 -0.0147626 2650 
381 1 0.000408083 0.0421607 -0.00933766 0.000847 0.00408091 0.0273237 -0.0225548 2650 
261 1 0.00403227 0.0072053 -0.00733516 0.000233 -0.0209803 3.46459e-05 0.00492984 2650 
131 1 0.00334499 0.0248767 -0.00782294 0.000233 -0.0900796 0.126776 -0.0309968 2650 
390 1 0.0158099 0.00467665 -0.00518981 0.000233 -0.221005 0.100516 -0.512432 2650 
260 1 0.00599894 0.0146463 -0.00475716 0.000233 -0.00526434 0.0135742 -0.0322824 2650 
242 1 0.00823387 0.021142 -0.00483409 0.000847 0.0106523 0.0117111 0.0179508 2650 
464 1 0.0158236 0.00601502 -0.00461112 0.000233 -0.0354032 0.00309659 -0.0532139 2650 
237 1 0.0141602 0.00871489 -0.00452395 0.001312 -0.00411048 -0.00143618 0.00814316 2650 
313 1 0.0160076 0.0116313 -0.00326151 0.000233 -0.00942653 0.000683118 -0.0397288 2650 
295 1 0.0128282 0.0238567 -0.00431466 0.000847 0.0219125 0.01998 -0.0175308 2650 
198 1 0.0112898 0.0302455 -0.00453855 0.001312 0.0139318 0.0188735 0.00855589 2650 
267 1 0.00529424 0.00222089 -0.00297763 0.000847 -0.0208833 -0.00553961 -0.00483514 2650 
229 1 0.0145198 0.0367149 -0.0022841 0.000847 0.0389858 -0.0666553 -0.0531237 2650 
296 1 0.0158677 0.00330101 -0.000686088 0.000233 -0.00372965 -0.0828173 -0.0443387 2650 
289 1 0.0120717 0.0110118 -0.000603008 0.001312 -0.0104375 0.00122541 0.00450456 2650 
252 1 0.0104702 0.0139067 -0.00134325 0.000847 0.00491769 0.00803068 -0.0198657 2650 
99 1 0.0143438 0.0313553 -0.000177855 0.000847 -0.00254184 0.0236621 -0.0560396 2650 
359 1 0.0141367 0.00512269 0.00108632 0.000847 -0.00642167 0.00130264 -0.00704933 2650 
156 1 0.0120563 0.0101162 0.00123656 0.000233 -0.025076 -0.0319333 0.0174215 2650 
462 1 0.0138253 0.0144446 0.00108779 0.000847 -0.0169014 -0.025555 -0.0261818 2650 
366 1 0.0155448 0.0214407 0.000766904 8.4e-05 -0.0042948 0.0146499 0.0177572 2650 
31 1 0.0143793 0.0138744 0.00279069 0.000847 -0.0126281 0.00854201 -0.00432378 2650 
16 1 0.0154626 0.032602 0.00189615 0.001312 0.00127352 0.0629002 -0.0553958 2650 
386 1 0.00899057 0.00131693 0.00356312 0.000847 -0.022809 -0.0287729 0.0115865 2650 
224 1 0.0134891 0.0192975 0.00397262 0.001312 -0.00863684 0.0155067 -0.0166064 2650 
104 1 0.0159878 0.0236622 0.00346109 0.000233 -0.010543 0.00311371 0.0404636 2650 
321 1 0.0150414 0.0670846 0.00598814 0.000847 0.0212317 0.0606835 -0.00559239 2650 
103 1 0.0021985 0.00691857 0.00663045 0.000233 -0.0110492 -0.00251187 -0.00895235 2650 
12 1 0.000632586 0.0706177 0.00751659 0.000233 -0.00199581 0.0457217 -0.0222227 2650 
406 1 0.00322523 0.00265488 0.00892481 0.001312 0.00159845 -0.000501913 -0.00204999 2650 
495 1 0.0066152 0.00193063 0.0090428 0.000233 0.0228925 -0.0193382 -0.0358742 2650 
75 1 0.00240653 0.00478282 0.00849733 0.000233 0.00332582 -5.88382e-05 0.0169148 2650 
356 1 0.0089325 0.0549077 0.00919361 0.000847 0.0189286 0.0395986 -0.00601023 2650 
512 1 0.00663623 0.0649803 0.00860736 0.000847 0.0120363 0.054604 0.0114501 2650 
282 1 0.0022598 8.0084e-05 0.00979465 0.000847 -0.0123942 -0.000300201 -0.0122191 2650 
80 1 0.00114319 0.0046133 0.00965282 8.4e-05 -0.00647536 0.00739704 0.00815569 2650 
254 1 0.00427472 0.00293044 0.011646 0.000847 0.0242178 -0.00555343 -0.0409947 2650 
379 1 0.0126778 0.0332068 0.0110836 8.4e-05 -0.0369542 0.00263445 0.0497171 2650 
28 1 0.00992018 0.0474446 0.0120296 8.4e-05 0.0226654 0.0301623 -0.0230072 2650 
412 1 0.00829794 0.0336505 0.0138029 0.000847 0.242488 -0.0552068 -0.180125 2650 
217 1 0.00466025 0.00632426 0.0150588 0.000847 0.011163 0.00149183 0.0268597 2650 
375 1 0.00422848 0.0130676 0.0147721 0.000233 0.0261005 0.0753866 -0.0152717 2650 
441 1 0.00128081 0.0146229 0.0145721 0.000233 -0.0509768 0.0723692 0.0112891 2650 
146 1 0.00175641 0.0167804 0.0677668 0.001312 87.5054 5.1874 -2.26668 2650 
97 1 0.00264954 0.139714 -0.068112 0.000847 -41.2814 0.693164 -1.60493 2650 
50 1 0.000806001 0.0839437 -0.00499325 0.000233 -0.00622688 0.064114 -0.0394471 2650 
383 1 0.00259265 0.14605 3.35607e-05 0.000847 -0.012285 0.112245 0.000503282 2650 
517 1 0.00471427 0.0972279 0.0162795 0.000233 0.0168324 0.0960293 0.0170836 2650 
