ITEM: TIMESTEP
16820979
ITEM: NUMBER OF ATOMS
148
ITEM: BOX BOUNDS ff ff ff
-0.15 0.15
-0.15 0.15
-0.15 0.15
ITEM: ATOMS id type x y z radius vx vy vz density 
443 1 -0.0672164 -0.0549452 -0.0145429 0.000233 4.32837 0.540103 -20.0013 2650 
404 1 -0.00259145 -0.0023482 -0.0119696 0.000233 0.00345182 -0.00380056 -0.00408233 2650 
392 1 -0.003997 -0.00180349 -0.009609 8.4e-05 0 -0.01175 0 2650 
391 1 -0.001389 -0.00171049 -0.007809 0.000233 0 -0.01175 0 2650 
79 1 -0.009334 -0.000921493 -0.006031 0.000233 0 -0.01175 0 2650 
467 1 -0.01128 -0.00221949 -0.004037 0.000233 0 -0.01175 0 2650 
312 1 -0.006897 -0.00290349 -0.002463 0.000233 0 -0.01175 0 2650 
301 1 -0.000431 -0.00267049 -0.003081 8.4e-05 0 -0.01175 0 2650 
299 1 -0.0136691 -0.00282451 -0.0007822 0.000233 0.0500805 -0.0368593 -0.0629243 2650 
376 1 -0.005395 -0.00192749 0.002758 0.000233 0 -0.01175 0 2650 
63 1 -0.0029578 -0.000378032 0.00243714 0.000233 -0.0031558 -0.0178056 0.0125173 2650 
455 1 -0.0145446 -0.0027096 0.00317899 0.000233 0.00486457 -0.00598722 0.0195422 2650 
90 1 -0.0100849 -0.00185935 0.00416163 0.000233 -0.00490546 -0.01514 -0.00718079 2650 
475 1 -0.00924752 -0.000875019 0.00473572 0.000847 -0.0035223 -0.0118719 -0.00839862 2650 
180 1 -0.00530064 -0.000700217 0.00484612 0.000233 0.00893885 -0.0064373 -0.0143239 2650 
172 1 -0.0112047 -0.00243671 0.00898081 0.001312 0.0059555 -0.0102445 -0.00291838 2650 
235 1 -0.00605 -0.00296449 0.012276 0.000233 0 -0.01175 0 2650 
130 1 -0.0222179 -0.0358796 0.0622818 0.000233 51.4715 -41.8846 8.0769 2650 
373 1 -0.0137966 -0.0519497 0.0667558 0.000847 43.6273 1.82379 9.01145 2650 
216 1 -0.0537253 0.0678787 -0.0419452 0.000847 -0.329242 -0.328153 0.421327 2650 
361 1 -0.0621163 0.0526905 -0.0295114 0.000233 -0.0851113 -0.264049 0.179103 2650 
37 1 -0.000685697 0.00884616 -0.0142455 0.000233 0.0110791 0.00547466 0.000960455 2650 
462 1 -0.00705158 0.0209855 -0.0144086 0.000847 0.168142 -0.0271639 -0.0884253 2650 
437 1 -0.00560182 0.0565818 -0.0145724 0.000847 0.0485255 0.057161 -0.0203141 2650 
17 1 -0.00428275 1.9151e-05 -0.013565 0.000847 -0.00404958 -0.00744421 0.010746 2650 
209 1 -0.00872279 0.00227342 -0.014016 0.000233 -0.00171719 -0.00384376 0.0093548 2650 
218 1 -0.0041488 0.00795415 -0.0131692 0.000233 0.0269464 0.0150735 -0.0142902 2650 
362 1 -0.0122746 0.00602563 -0.0111259 0.000233 -0.0211459 0.00558664 0.0242991 2650 
309 1 -0.00957865 0.00753646 -0.0115035 0.000233 -0.00450576 -0.001553 0.00675875 2650 
191 1 -0.00977411 0.0108161 -0.012573 0.000847 -0.936927 -0.958804 0.720672 2650 
128 1 -0.00837781 0.00587244 -0.0109445 0.000233 -0.00610861 -0.000841187 -0.0304212 2650 
137 1 -0.00867984 0.0366587 -0.00957394 0.000847 0.0135337 0.020306 -0.0316419 2650 
204 1 -0.0110492 0.0663882 -0.00928595 0.000847 0.0082208 0.219543 0.0128618 2650 
291 1 -0.0115577 0.0105365 -0.00786125 0.000847 -0.00151578 0.00160474 -0.0150482 2650 
73 1 -0.0133274 0.0157764 -0.00779142 0.000847 0.0119034 0.00813226 -0.0171786 2650 
13 1 -0.00426375 0.0292641 -0.00633693 8.4e-05 0.0394899 0.00712031 -0.0147626 2650 
66 1 -0.0122304 0.0484177 -0.00782476 0.000233 0.00377936 0.0342087 0.00385618 2650 
55 1 -0.00406187 0.0158614 -0.00616927 0.001312 -0.00374929 0.010234 -0.0225091 2650 
105 1 -0.00132371 0.00627303 -0.00423828 0.000233 -0.0038186 0.00248038 -0.00061567 2650 
273 1 -0.0104994 0.0451548 -0.00336087 0.000233 0.0170065 0.0458959 -0.0509946 2650 
43 1 -0.0151638 0.0224362 -0.00207319 0.001312 0.00784929 0.0126392 -0.0221802 2650 
381 1 -0.00085699 0.0336904 -0.0023457 0.000847 0.00408091 0.0273237 -0.0225548 2650 
206 1 -0.00513235 0.00127918 -0.00152213 0.000233 -0.00793167 -0.00411541 -0.0129836 2650 
484 1 -0.00357761 0.00223979 -0.00126206 0.001312 0.000771827 -0.0052352 -0.0189613 2650 
98 1 -0.0062341 0.00593689 -0.000574808 0.000847 -0.00964048 0.00128331 -0.0225715 2650 
222 1 -0.0156704 0.0287019 -0.000587801 0.000233 0.0229142 0.00160847 0.00779497 2650 
466 1 -0.0166863 0.0298085 -0.000486335 0.000233 -0.00399122 0.188929 0.0448083 2650 
263 1 -0.00313636 0.0470979 0.000338086 0.001312 0.0105926 0.0434776 -0.0174285 2650 
178 1 -0.0108223 0.0394302 0.00271783 0.000847 -0.0161273 0.0791383 0.0566144 2650 
14 1 -0.0162814 0.0469715 0.00189634 8.4e-05 0.00119821 0.063014 -0.0722296 2650 
400 1 -0.00478842 0.070763 0.00297571 0.000233 -0.032364 0.0963256 0.0226569 2650 
457 1 -0.0161506 0.00168664 0.00317847 8.4e-05 -0.029317 -0.0177778 -0.0408338 2650 
345 1 -0.00595999 0.0021007 0.00391634 0.000847 0.00764886 0.00287812 0.00877621 2650 
355 1 -0.00919069 0.00624013 0.0034356 0.000847 0.0793832 0.00195606 -0.159499 2650 
430 1 -0.00482902 0.022276 0.00359061 0.000233 -0.0456019 0.00621951 -0.0131774 2650 
482 1 -0.00391037 0.0433804 0.00351855 0.000233 0.00469409 0.0342639 0.0260087 2650 
244 1 -0.002251 0.000282507 0.006118 0.000233 0 -0.01175 0 2650 
156 1 -0.00878631 0.00196581 0.00579441 0.000233 0.133252 0.0466231 0.0621831 2650 
283 1 -0.012238 0.00427759 0.00499171 0.000233 0.00620868 -0.00270802 -0.00521613 2650 
360 1 -0.0150318 0.041331 0.00554739 0.000847 1.03788 0.735912 2.44786 2650 
196 1 -0.0139402 0.00650508 0.00853851 0.000233 -0.00186342 -0.00869861 -0.00971558 2650 
316 1 -0.0110681 0.0324854 0.00928072 0.000847 0.0120838 0.0402563 0.0122571 2650 
511 1 -0.00896967 0.0541609 0.00869734 0.000847 0.00427935 0.0528312 -0.0152122 2650 
495 1 -0.00282754 0.00881416 0.0100481 0.000233 0.0462427 -0.0281834 0.0648041 2650 
517 1 -0.000503743 0.067459 0.0109836 0.000233 0.0168324 0.0960293 0.0170836 2650 
440 1 -0.0112162 0.0225112 0.0124436 0.000233 -0.0974612 -0.00593619 -0.072358 2650 
351 1 -0.00595047 0.0232595 0.011653 0.000233 -0.00991851 0.0154487 0.0373 2650 
40 1 -0.0122713 0.0281268 0.0114442 0.000233 -0.0408888 0.0940008 -0.0311353 2650 
298 1 -0.00928 0.00686272 0.0137162 0.000233 -0.0989305 -0.00567452 -0.0737574 2650 
11 1 -0.00699932 0.0305591 0.0151317 0.000233 0.650846 -0.0710637 0.34292 2650 
97 1 -0.0310386 0.138921 -0.0606913 0.000847 -37.0884 -0.0992783 18.9564 2650 
6 1 -0.000786017 0.0853284 0.0681485 0.000847 -0.00234765 0.160543 -2.70775e-05 2650 
251 1 0.00584091 -0.0118455 -0.0679664 0.000847 -107.24 3.3713 -9.2118 2650 
349 1 0.0116233 -0.0622344 -0.0274027 0.000233 0.844768 0.0529997 0.156297 2650 
123 1 0.0281487 -0.0539535 -0.00323441 0.000847 -0.492387 -4.61792e-08 -4.28234 2650 
77 1 0.016614 -0.0013508 -0.000518835 0.000233 0.0325636 -0.0490435 -0.788752 2650 
8 1 0.006698 -0.000478493 0.001482 0.000233 0 -0.01175 0 2650 
375 1 0.0159395 -0.00198564 0.00180417 0.000233 0.357722 0.0784083 -0.599539 2650 
132 1 0.0260385 -0.00360246 0.00397826 8.4e-05 3.51388 -0.0619106 0.536865 2650 
456 1 0.009608 -0.00247749 0.003179 0.000233 0 -0.01175 0 2650 
474 1 0.00279025 -0.0017653 0.0101736 0.000847 0.0187745 -0.00937088 0.0135508 2650 
425 1 0.0676136 -0.0174688 0.00901886 0.000847 11.0907 2.33011 -83.105 2650 
2 1 0.0476913 -0.00874814 0.0266788 0.001312 7.28226 -0.445312 3.86058 2650 
5 1 0.0623617 -0.0385615 0.0275954 0.000847 25.5481 -1.7365 -57.7044 2650 
184 1 0.0467903 -0.00428379 0.050548 8.4e-05 7.25771 -0.110255 7.84057 2650 
499 1 0.000392209 -0.0272907 0.0682751 0.000847 169.174 -4.84699 -0.969286 2650 
296 1 0.00674317 0.0216062 -0.0146939 0.000233 0.173532 -0.0342018 0.117344 2650 
325 1 0.00952453 0.0314571 -0.0138008 0.000233 -3.01568 -0.114639 -1.58816 2650 
310 1 0.0135011 0.00333331 -0.0095576 0.000233 -0.568319 0.10058 -0.767046 2650 
242 1 0.00493167 0.0175116 -0.0103988 0.000847 0.0106523 0.0117111 0.0179508 2650 
261 1 0.0105361 0.00719456 -0.0088634 0.000233 -0.0209803 3.46459e-05 0.00492984 2650 
104 1 0.012779 0.0217295 -0.00849726 0.000233 0.0488835 0.012488 0.0174426 2650 
319 1 0.00313072 0.0575968 -0.009005 0.000847 0.018509 0.0680095 -0.0277984 2650 
374 1 0.00965992 1.63684e-05 -0.00708808 0.000233 -0.0186032 -0.00918325 0.0137603 2650 
201 1 0.0137723 0.00968712 -0.00652988 0.000847 0.035855 0.00351015 -0.00525606 2650 
198 1 0.00697101 0.0243947 -0.00719086 0.001312 0.0139318 0.0188735 0.00855589 2650 
379 1 0.015228 0.031008 -0.00712111 8.4e-05 0.029686 0.0127172 0.0565927 2650 
327 1 0.0153795 0.0519975 -0.00665461 8.4e-05 0.083066 6.74118e-05 0.154595 2650 
429 1 0.0128955 0.00229774 -0.0054949 0.000233 0.0266779 0.00591676 -0.0117365 2650 
237 1 0.0103752 0.00907748 -0.00567903 0.001312 0.0327669 0.00290189 -0.00282958 2650 
476 1 0.0139099 0.0181752 -0.00519511 0.000847 -0.0135782 0.010868 -0.0139986 2650 
353 1 0.00944599 0.00367641 -0.00473482 8.4e-05 0.00908281 0.00118574 -0.0158319 2650 
366 1 0.0154076 0.0167723 -0.00473194 8.4e-05 0.0151379 0.0163292 0.0176797 2650 
363 1 0.013993 0.000582507 -0.001599 0.000233 0 -0.01175 0 2650 
289 1 0.0152882 0.0106329 -0.00211416 0.001312 -0.0103701 0.00122195 0.00490905 2650 
390 1 0.016543 0.00104209 -0.00161226 0.000233 -0.177964 0.214623 -0.928194 2650 
267 1 0.011768 0.00393816 -0.00147875 0.000847 -0.0208833 -0.00553961 -0.00483514 2650 
386 1 0.0160613 0.0102365 -2.86707e-05 0.000847 -0.022809 -0.0287729 0.0115865 2650 
295 1 0.00603534 0.017663 0.00111984 0.000847 0.0219125 0.01998 -0.0175308 2650 
31 1 0.00936152 0.0103365 0.00269179 0.000847 0.0317442 0.0131548 0.00265078 2650 
359 1 0.0150325 0.00464155 0.00328273 0.000847 0.0160387 0.00288881 -0.00727752 2650 
75 1 0.00137553 0.00480106 0.00325377 0.000233 0.00332582 -5.88382e-05 0.0169148 2650 
441 1 0.0159998 0.00563578 0.00447949 0.000233 -0.0388999 -0.036577 0.067915 2650 
131 1 0.0141275 0.00948522 0.00344553 0.000233 0.0289554 0.00214541 -0.00104248 2650 
99 1 0.0107347 0.0244827 0.00439526 0.000847 0.0130843 0.0220184 -0.0105542 2650 
85 1 0.0142279 0.0444783 0.00442174 0.000847 0.0383885 0.0575406 -0.0325653 2650 
281 1 0.0153738 0.0564646 0.00417669 0.000847 0.0296222 0.0456846 -0.113358 2650 
80 1 0.00158051 0.00388492 0.00512849 8.4e-05 0.00373656 -0.00278016 0.0211389 2650 
260 1 0.00763087 0.0104383 0.00525032 0.000233 -0.00526434 0.0135742 -0.0322824 2650 
252 1 0.00894574 0.0114172 0.00481509 0.000847 0.00491769 0.00803068 -0.0198657 2650 
512 1 0.00290502 0.0480532 0.00505785 0.000847 0.0120363 0.054604 0.0114501 2650 
217 1 0.00119974 0.0058618 0.00673232 0.000847 0.011163 0.00149183 0.0268597 2650 
255 1 0.0145616 0.0318548 0.00677839 0.000847 0.496376 0.394768 -0.944656 2650 
321 1 0.00845958 0.0482728 0.00772177 0.000847 0.0212317 0.0606835 -0.00559239 2650 
50 1 0.00273632 0.0640685 0.00723528 0.000233 -0.00622688 0.064114 -0.0394471 2650 
103 1 0.00562372 0.00769724 0.00940566 0.000233 -0.0110492 -0.00251187 -0.00895235 2650 
313 1 0.012638 0.0111619 0.00857378 0.000233 0.0291926 0.00236247 -0.034166 2650 
16 1 0.00824744 0.0197839 0.00932335 0.001312 0.00869428 0.00730609 0.0249125 2650 
406 1 0.00273013 0.00281006 0.00956082 0.001312 0.00159577 -0.000499242 -0.0020534 2650 
89 1 0.003537 0.00108751 0.012461 0.000233 0 -0.01175 0 2650 
464 1 0.004364 0.00867003 0.0114117 0.000233 0.0846468 -0.0168812 -0.02409 2650 
356 1 0.00306466 0.0426322 0.0110568 0.000847 0.0189286 0.0395986 -0.00601023 2650 
282 1 0.00610199 0.000173146 0.0135826 0.000847 -0.0123942 -0.000300201 -0.0122191 2650 
28 1 0.000681813 0.0370976 0.0126402 8.4e-05 0.036863 0.0365593 0.0188487 2650 
229 1 0.00243429 0.0573779 0.0141841 0.000847 0.0389858 -0.0666553 -0.0531237 2650 
254 1 0.00162358 0.00399134 0.0149901 0.000847 0.000708798 -0.002306 0.00597962 2650 
224 1 0.00411852 0.0151893 0.0149041 0.001312 0.0838296 0.0163941 0.00687402 2650 
412 1 0.00332783 0.0233484 0.0147013 0.000847 0.473746 0.129739 -0.119278 2650 
139 1 0.00472087 0.0526061 0.0152772 0.000847 -0.0642512 0.102153 0.0179315 2650 
12 1 0.00125128 0.056444 0.0144056 0.000233 -0.00199581 0.0457217 -0.0222227 2650 
186 1 0.00409259 0.0598114 0.0149634 0.001312 0.0098561 0.0706695 0.0049049 2650 
329 1 0.00580064 0.0712063 0.0143432 0.000847 -0.0499317 0.163496 0.0312812 2650 
223 1 0.00739957 0.0737235 0.0143439 8.4e-05 0.026994 0.0833022 -0.00953033 2650 
416 1 0.00357567 0.00633089 0.0158901 0.000233 0.228441 0.0125031 -0.0606661 2650 
146 1 0.0387171 0.040413 0.0555271 0.001312 -9.38917 -0.212408 6.53984 2650 
154 1 0.00412273 0.137444 -0.00853873 0.000233 -0.00924804 0.118602 0.00100956 2650 
383 1 0.00640098 0.111254 -0.000122456 0.000847 -0.012285 0.112245 0.000503282 2650 
365 1 0.00045808 0.127042 0.0132182 0.000233 0.0179174 0.166228 0.039892 2650 
