LIGGGHTS (Version LIGGGHTS-PUBLIC 3.8.0, compiled 2022-11-07-16:55:38 by serperd1, git commit 86544c3f1215bc9744d7929e3eacf53ba086af9e)
Created orthogonal box = (-0.15 -0.15 -0.15) to (0.15 0.15 0.15)
  2 by 4 by 5 MPI processor grid

Reading STL file 'cone.stl' (mesh processing step 1/3) 

Reading STL file 'in_cyl.stl' (mesh processing step 1/3) 

Reading STL file 'top_cyl.stl' (mesh processing step 1/3) 

Reading STL file 'bot_cyl.stl' (mesh processing step 1/3) 

Reading STL file 'bottom_disk.stl' (mesh processing step 1/3) 

Reading STL file 'top_disk.stl' (mesh processing step 1/3) 
Fix particledistribution/discrete (id prob_par): distribution based on mass%:
    r_0to10p: d=8.400000e-05 (max. bounding sphere) mass%=10.000000%
    r_10to50p: d=2.328000e-04 (max. bounding sphere) mass%=40.000000%
    r_50to90p: d=8.466000e-04 (max. bounding sphere) mass%=40.000000%
    r_90to100p: d=1.312200e-03 (max. bounding sphere) mass%=10.000000%
Fix particledistribution/discrete (id prob_par): distribution based on number%:
    r_0to10p: d=8.400000e-05 (max. bounding sphere) number%=83.887052%
    r_10to50p: d=2.328000e-04 (max. bounding sphere) number%=15.763181%
    r_50to90p: d=8.466000e-04 (max. bounding sphere) number%=0.327762%
    r_90to100p: d=1.312200e-03 (max. bounding sphere) number%=0.022006%
Setting up run at Wed Dec 21 15:33:59 2022

Import and parallelization of mesh cone_mesh containing 868 triangle(s) successful
Import and parallelization of mesh inlet_cyl_wall_mesh containing 1064 triangle(s) successful
Import and parallelization of mesh top_cyl_wall_mesh containing 682 triangle(s) successful
Import and parallelization of mesh bot_cyl_wall_mesh containing 1280 triangle(s) successful
Import and parallelization of mesh bot_disk_wall_mesh containing 1682 triangle(s) successful
Import and parallelization of mesh top_disk_wall_mesh containing 1144 triangle(s) successful
Memory usage per processor = 960.256 Mbytes
    Step    Atoms         KinEng            CPU 
       0        0              0              0 
Loop time of 7.36241e-05 on 40 procs for 0 steps with 0 atoms, finish time Wed Dec 21 15:33:59 2022


Pair  time (%) = 0 (0)
Neigh time (%) = 0 (0)
Comm  time (%) = 0 (0)
Outpt time (%) = 0 (0)
Other time (%) = 7.36241e-05 (100)

Nlocal:    0 ave 0 max 0 min
Histogram: 40 0 0 0 0 0 0 0 0 0
Nghost:    0 ave 0 max 0 min
Histogram: 40 0 0 0 0 0 0 0 0 0
Neighs:    0 ave 0 max 0 min
Histogram: 40 0 0 0 0 0 0 0 0 0

Total # of neighbors = 0
Neighbor list builds = 0
Dangerous builds = 0
Setting up run at Wed Dec 21 15:33:59 2022

Memory usage per processor = 960.256 Mbytes
    Step    Atoms         KinEng            CPU 
       0        0              0              0 
       1        0              0    0.009826839 
Loop time of 0.00983932 on 40 procs for 1 steps with 0 atoms, finish time Wed Dec 21 15:33:59 2022


Pair  time (%) = 2.63595e-06 (0.0267899)
Neigh time (%) = 0 (0)
Comm  time (%) = 0.000218858 (2.22432)
Outpt time (%) = 0.000149534 (1.51976)
Other time (%) = 0.0094683 (96.2291)

Nlocal:    0 ave 0 max 0 min
Histogram: 40 0 0 0 0 0 0 0 0 0
Nghost:    0 ave 0 max 0 min
Histogram: 40 0 0 0 0 0 0 0 0 0
Neighs:    0 ave 0 max 0 min
Histogram: 40 0 0 0 0 0 0 0 0 0

Total # of neighbors = 0
Neighbor list builds = 0
Dangerous builds = 0
Scanning dump file ...
Reading snapshot from dump file ...
  orthogonal box = (-0.15 -0.15 -0.15) to (0.15 0.15 0.15)
  0 atoms before read
  4382 atoms in snapshot
  0 atoms purged
  0 atoms replaced
  0 atoms trimmed
  4382 atoms added
  4382 atoms after read
Setting atom values ...
  4382 settings made for type
  4382 settings made for density
  4382 settings made for vy
Setting up run at Wed Dec 21 15:33:59 2022

Memory usage per processor = 964.609 Mbytes
    Step    Atoms         KinEng            CPU 
       1     4382  2.0405663e-07              0 
       2     4382  2.5286639e-06     0.00938935 
Loop time of 0.0094009 on 40 procs for 1 steps with 4382 atoms, finish time Wed Dec 21 15:33:59 2022


Pair  time (%) = 4.10107e-06 (0.0436243)
Neigh time (%) = 0 (0)
Comm  time (%) = 8.78903e-06 (0.0934913)
Outpt time (%) = 0.000253888 (2.70068)
Other time (%) = 0.00913412 (97.1622)

Nlocal:    109.55 ave 1816 max 0 min
Histogram: 36 0 2 0 0 0 0 0 0 2
Nghost:    27.3 ave 345 max 0 min
Histogram: 36 0 0 0 0 1 1 0 0 2
Neighs:    35.525 ave 600 max 0 min
Histogram: 36 0 2 0 0 0 0 0 0 2

Total # of neighbors = 1421
Ave neighs/atom = 0.324281
Neighbor list builds = 0
Dangerous builds = 0
Setting up run at Wed Dec 21 15:33:59 2022

Memory usage per processor = 964.609 Mbytes
    Step    Atoms         KinEng            CPU 
       2     4382  2.5286639e-06              0 
  308643     4382  0.00030849076      3096.2942 
Loop time of 3096.29 on 40 procs for 308641 steps with 4382 atoms, finish time Wed Dec 21 16:25:36 2022


Pair  time (%) = 1.30935 (0.0422877)
Neigh time (%) = 4.19715 (0.135554)
Comm  time (%) = 4.13672 (0.133602)
Outpt time (%) = 0.000658062 (2.12532e-05)
Other time (%) = 3086.65 (99.6885)

Nlocal:    109.55 ave 1780 max 0 min
Histogram: 36 0 2 0 0 0 0 0 0 2
Nghost:    28.15 ave 360 max 0 min
Histogram: 36 0 0 0 0 1 1 0 0 2
Neighs:    39.35 ave 668 max 0 min
Histogram: 36 0 2 0 0 0 0 0 0 2

Total # of neighbors = 1574
Ave neighs/atom = 0.359197
Neighbor list builds = 1630
Dangerous builds = 0
Setting up run at Wed Dec 21 16:25:36 2022

Memory usage per processor = 964.609 Mbytes
    Step    Atoms         KinEng            CPU 
  308643     4382  0.00030849076              0 
  617284     4380  0.00035966223      3207.5274 
Loop time of 3207.54 on 40 procs for 308641 steps with 4380 atoms, finish time Wed Dec 21 17:19:03 2022


Pair  time (%) = 1.31704 (0.0410609)
Neigh time (%) = 3.26956 (0.101933)
Comm  time (%) = 4.526 (0.141105)
Outpt time (%) = 0.000674072 (2.10152e-05)
Other time (%) = 3198.43 (99.7159)

Nlocal:    109.5 ave 1746 max 0 min
Histogram: 36 0 2 0 0 0 0 0 0 2
Nghost:    26.625 ave 327 max 0 min
Histogram: 36 0 0 0 0 0 2 0 0 2
Neighs:    41.125 ave 672 max 0 min
Histogram: 36 0 2 0 0 0 0 0 0 2

Total # of neighbors = 1645
Ave neighs/atom = 0.375571
Neighbor list builds = 1274
Dangerous builds = 0
Setting up run at Wed Dec 21 17:19:03 2022

Memory usage per processor = 964.609 Mbytes
    Step    Atoms         KinEng            CPU 
  617284     4380  0.00035966223              0 
  925925     4374   0.0013262206      3153.1482 
Loop time of 3153.16 on 40 procs for 308641 steps with 4374 atoms, finish time Wed Dec 21 18:11:36 2022


Pair  time (%) = 1.30797 (0.0414812)
Neigh time (%) = 8.31025 (0.263553)
Comm  time (%) = 6.98064 (0.221385)
Outpt time (%) = 0.000107947 (3.42345e-06)
Other time (%) = 3136.56 (99.4736)

Nlocal:    109.35 ave 1729 max 0 min
Histogram: 36 0 2 0 0 0 0 0 0 2
Nghost:    24.525 ave 304 max 0 min
Histogram: 36 0 0 0 0 1 1 0 0 2
Neighs:    40.525 ave 658 max 0 min
Histogram: 36 0 2 0 0 0 0 0 0 2

Total # of neighbors = 1621
Ave neighs/atom = 0.370599
Neighbor list builds = 3136
Dangerous builds = 3
Setting up run at Wed Dec 21 18:11:37 2022

Memory usage per processor = 964.609 Mbytes
    Step    Atoms         KinEng            CPU 
  925925     4374   0.0013262206              0 
 1234566     4367   0.0068448814      3165.5301 
Loop time of 3165.53 on 40 procs for 308641 steps with 4367 atoms, finish time Wed Dec 21 19:04:22 2022


Pair  time (%) = 1.29561 (0.0409288)
Neigh time (%) = 21.1051 (0.666715)
Comm  time (%) = 11.4705 (0.362355)
Outpt time (%) = 0.00632173 (0.000199705)
Other time (%) = 3131.65 (98.9298)

Nlocal:    109.175 ave 1704 max 0 min
Histogram: 36 0 2 0 0 0 0 0 0 2
Nghost:    23.675 ave 294 max 0 min
Histogram: 36 0 0 0 0 1 1 0 0 2
Neighs:    37.925 ave 630 max 0 min
Histogram: 36 1 1 0 0 0 0 0 0 2

Total # of neighbors = 1517
Ave neighs/atom = 0.347378
Neighbor list builds = 7879
Dangerous builds = 729
Setting up run at Wed Dec 21 19:04:22 2022

Memory usage per processor = 964.609 Mbytes
    Step    Atoms         KinEng            CPU 
 1234566     4367   0.0068448814              0 
 1543207     4358    0.040769909      3400.5157 
Loop time of 3400.52 on 40 procs for 308641 steps with 4358 atoms, finish time Wed Dec 21 20:01:03 2022


Pair  time (%) = 1.32367 (0.0389256)
Neigh time (%) = 75.7715 (2.22824)
Comm  time (%) = 35.7978 (1.05272)
Outpt time (%) = 0.00066115 (1.94426e-05)
Other time (%) = 3287.62 (96.6801)

Nlocal:    108.95 ave 1666 max 0 min
Histogram: 36 0 2 0 0 0 0 0 0 2
Nghost:    23.15 ave 299 max 0 min
Histogram: 36 0 0 0 0 2 0 0 0 2
Neighs:    38.675 ave 638 max 0 min
Histogram: 36 0 2 0 0 0 0 0 0 2

Total # of neighbors = 1547
Ave neighs/atom = 0.354979
Neighbor list builds = 28143
Dangerous builds = 663
Setting up run at Wed Dec 21 20:01:03 2022

Memory usage per processor = 964.609 Mbytes
    Step    Atoms         KinEng            CPU 
 1543207     4358    0.040769909              0 
 1851848     4353     0.14062856      3799.6081 
Loop time of 3799.61 on 40 procs for 308641 steps with 4353 atoms, finish time Wed Dec 21 21:04:22 2022


Pair  time (%) = 1.39828 (0.0368006)
Neigh time (%) = 158.754 (4.17817)
Comm  time (%) = 92.378 (2.43125)
Outpt time (%) = 0.000610328 (1.60629e-05)
Other time (%) = 3547.08 (93.3538)

Nlocal:    108.825 ave 1652 max 0 min
Histogram: 36 0 2 0 0 0 0 0 0 2
Nghost:    22.95 ave 292 max 0 min
Histogram: 36 0 0 0 0 2 0 0 0 2
Neighs:    38.575 ave 628 max 0 min
Histogram: 36 1 1 0 0 0 0 0 0 2

Total # of neighbors = 1543
Ave neighs/atom = 0.354468
Neighbor list builds = 59033
Dangerous builds = 1625
Setting up run at Wed Dec 21 21:04:23 2022

Memory usage per processor = 964.609 Mbytes
    Step    Atoms         KinEng            CPU 
 1851848     4353     0.14062856              0 
 2160489     4340    0.053069728      3699.8477 
Loop time of 3699.85 on 40 procs for 308641 steps with 4340 atoms, finish time Wed Dec 21 22:06:02 2022


Pair  time (%) = 1.36066 (0.0367761)
Neigh time (%) = 137.057 (3.7044)
Comm  time (%) = 84.2266 (2.27649)
Outpt time (%) = 0.000584752 (1.58048e-05)
Other time (%) = 3477.2 (93.9823)

Nlocal:    108.5 ave 1649 max 0 min
Histogram: 36 0 2 0 0 0 0 0 0 2
Nghost:    22.075 ave 271 max 0 min
Histogram: 36 0 0 0 0 1 1 0 0 2
Neighs:    36.475 ave 622 max 0 min
Histogram: 36 0 2 0 0 0 0 0 0 2

Total # of neighbors = 1459
Ave neighs/atom = 0.336175
Neighbor list builds = 50932
Dangerous builds = 4188
Setting up run at Wed Dec 21 22:06:02 2022

Memory usage per processor = 964.609 Mbytes
    Step    Atoms         KinEng            CPU 
 2160489     4340    0.053069728              0 
 2469130     4320    0.041985535       3419.763 
Loop time of 3419.76 on 40 procs for 308641 steps with 4320 atoms, finish time Wed Dec 21 23:03:02 2022


Pair  time (%) = 1.31082 (0.0383307)
Neigh time (%) = 84.5204 (2.47153)
Comm  time (%) = 62.0618 (1.8148)
Outpt time (%) = 0.000661144 (1.9333e-05)
Other time (%) = 3271.87 (95.6753)

Nlocal:    108 ave 1632 max 0 min
Histogram: 36 0 2 0 0 0 0 0 0 2
Nghost:    22.2 ave 277 max 0 min
Histogram: 36 0 0 0 0 1 1 0 0 2
Neighs:    36.625 ave 628 max 0 min
Histogram: 36 1 1 0 0 0 0 0 0 2

Total # of neighbors = 1465
Ave neighs/atom = 0.33912
Neighbor list builds = 31347
Dangerous builds = 4360
Setting up run at Wed Dec 21 23:03:02 2022

Memory usage per processor = 964.609 Mbytes
    Step    Atoms         KinEng            CPU 
 2469130     4320    0.041985535              0 
 2777771     4305    0.094740372      3352.2675 
Loop time of 3352.27 on 40 procs for 308641 steps with 4305 atoms, finish time Wed Dec 21 23:58:55 2022


Pair  time (%) = 1.29909 (0.0387524)
Neigh time (%) = 67.5033 (2.01366)
Comm  time (%) = 53.8357 (1.60595)
Outpt time (%) = 0.000693283 (2.0681e-05)
Other time (%) = 3229.63 (96.3416)

Nlocal:    107.625 ave 1625 max 0 min
Histogram: 36 0 2 0 0 0 0 0 0 2
Nghost:    21.575 ave 261 max 0 min
Histogram: 36 0 0 0 0 0 2 0 0 2
Neighs:    36.725 ave 630 max 0 min
Histogram: 36 1 1 0 0 0 0 0 0 2

Total # of neighbors = 1469
Ave neighs/atom = 0.341231
Neighbor list builds = 25026
Dangerous builds = 437
Setting up run at Wed Dec 21 23:58:55 2022

Memory usage per processor = 964.609 Mbytes
    Step    Atoms         KinEng            CPU 
 2777771     4305    0.094740372              0 
 3086412     4290    0.084844625      3550.5882 
Loop time of 3550.59 on 40 procs for 308641 steps with 4290 atoms, finish time Thu Dec 22 00:58:05 2022


Pair  time (%) = 1.33526 (0.0376066)
Neigh time (%) = 107.859 (3.03779)
Comm  time (%) = 84.3096 (2.37452)
Outpt time (%) = 0.000652911 (1.83888e-05)
Other time (%) = 3357.08 (94.5501)

Nlocal:    107.25 ave 1616 max 0 min
Histogram: 36 0 2 0 0 0 0 0 0 2
Nghost:    21.95 ave 271 max 0 min
Histogram: 36 0 0 0 0 1 1 0 0 2
Neighs:    36.975 ave 642 max 0 min
Histogram: 36 2 0 0 0 0 0 0 0 2

Total # of neighbors = 1479
Ave neighs/atom = 0.344755
Neighbor list builds = 40002
Dangerous builds = 5162
Setting up run at Thu Dec 22 00:58:05 2022

Memory usage per processor = 964.609 Mbytes
    Step    Atoms         KinEng            CPU 
 3086412     4290    0.084844625              0 
 3395053     4265     0.12529049       3709.043 
Loop time of 3709.04 on 40 procs for 308641 steps with 4265 atoms, finish time Thu Dec 22 01:59:54 2022


Pair  time (%) = 1.33842 (0.0360853)
Neigh time (%) = 138.393 (3.73125)
Comm  time (%) = 118.192 (3.18658)
Outpt time (%) = 0.0006958 (1.87596e-05)
Other time (%) = 3451.12 (93.0461)

Nlocal:    106.625 ave 1613 max 0 min
Histogram: 36 0 2 0 0 0 0 0 0 2
Nghost:    21.475 ave 261 max 0 min
Histogram: 36 0 0 0 0 1 1 0 0 2
Neighs:    36.125 ave 617 max 0 min
Histogram: 36 1 1 0 0 0 0 0 0 2

Total # of neighbors = 1445
Ave neighs/atom = 0.338804
Neighbor list builds = 51342
Dangerous builds = 5444
Setting up run at Thu Dec 22 01:59:55 2022

Memory usage per processor = 964.609 Mbytes
    Step    Atoms         KinEng            CPU 
 3395053     4265     0.12529049              0 
 3703694     4235     0.27922573      3713.4824 
Loop time of 3713.48 on 40 procs for 308641 steps with 4235 atoms, finish time Thu Dec 22 03:01:48 2022


Pair  time (%) = 1.33233 (0.0358782)
Neigh time (%) = 140.213 (3.77578)
Comm  time (%) = 125.712 (3.3853)
Outpt time (%) = 0.000648967 (1.7476e-05)
Other time (%) = 3446.22 (92.803)

Nlocal:    105.875 ave 1576 max 0 min
Histogram: 36 0 2 0 0 0 0 0 0 2
Nghost:    20.95 ave 260 max 0 min
Histogram: 36 0 0 0 0 1 1 0 0 2
Neighs:    34.925 ave 593 max 0 min
Histogram: 36 1 1 0 0 0 0 0 0 2

Total # of neighbors = 1397
Ave neighs/atom = 0.32987
Neighbor list builds = 52002
Dangerous builds = 4273
Setting up run at Thu Dec 22 03:01:48 2022

Memory usage per processor = 964.609 Mbytes
    Step    Atoms         KinEng            CPU 
 3703694     4235     0.27922573              0 
 4012335     4224      1.2047499      3679.5773 
Loop time of 3679.58 on 40 procs for 308641 steps with 4224 atoms, finish time Thu Dec 22 04:03:08 2022


Pair  time (%) = 1.303 (0.0354118)
Neigh time (%) = 135.771 (3.68984)
Comm  time (%) = 111.528 (3.03101)
Outpt time (%) = 0.000638051 (1.73403e-05)
Other time (%) = 3430.98 (93.2437)

Nlocal:    105.6 ave 1558 max 0 min
Histogram: 36 0 2 0 0 0 0 0 0 2
Nghost:    20.6 ave 242 max 0 min
Histogram: 36 0 0 0 0 0 2 0 0 2
Neighs:    35.35 ave 598 max 0 min
Histogram: 36 2 0 0 0 0 0 0 0 2

Total # of neighbors = 1414
Ave neighs/atom = 0.334754
Neighbor list builds = 50347
Dangerous builds = 1824
Setting up run at Thu Dec 22 04:03:08 2022

Memory usage per processor = 964.609 Mbytes
    Step    Atoms         KinEng            CPU 
 4012335     4224      1.2047499              0 
 4320976     4200     0.46564202      3793.6172 
Loop time of 3793.62 on 40 procs for 308641 steps with 4200 atoms, finish time Thu Dec 22 05:06:21 2022


Pair  time (%) = 1.31391 (0.0346348)
Neigh time (%) = 157.504 (4.15182)
Comm  time (%) = 128.621 (3.39046)
Outpt time (%) = 0.000311428 (8.20926e-06)
Other time (%) = 3506.18 (92.4231)

Nlocal:    105 ave 1543 max 0 min
Histogram: 36 0 2 0 0 0 0 0 0 2
Nghost:    19.85 ave 233 max 0 min
Histogram: 36 0 0 0 0 0 2 0 0 2
Neighs:    34.9 ave 592 max 0 min
Histogram: 36 1 1 0 0 0 0 0 0 2

Total # of neighbors = 1396
Ave neighs/atom = 0.332381
Neighbor list builds = 58303
Dangerous builds = 3231
Setting up run at Thu Dec 22 05:06:21 2022

Memory usage per processor = 964.609 Mbytes
    Step    Atoms         KinEng            CPU 
 4320976     4200     0.46564202              0 
 4629617     4173     0.19343536      3748.7845 
Loop time of 3748.78 on 40 procs for 308641 steps with 4173 atoms, finish time Thu Dec 22 06:08:50 2022


Pair  time (%) = 1.29173 (0.0344574)
Neigh time (%) = 152.334 (4.06355)
Comm  time (%) = 124.646 (3.32497)
Outpt time (%) = 0.000626168 (1.67032e-05)
Other time (%) = 3470.51 (92.577)

Nlocal:    104.325 ave 1502 max 0 min
Histogram: 36 0 2 0 0 0 0 0 0 2
Nghost:    20.125 ave 230 max 0 min
Histogram: 36 0 0 0 0 0 1 1 0 2
Neighs:    33.925 ave 562 max 0 min
Histogram: 36 1 1 0 0 0 0 0 0 2

Total # of neighbors = 1357
Ave neighs/atom = 0.325186
Neighbor list builds = 56282
Dangerous builds = 3920
Setting up run at Thu Dec 22 06:08:50 2022

Memory usage per processor = 964.609 Mbytes
    Step    Atoms         KinEng            CPU 
 4629617     4173     0.19343536              0 
 4938258     4150       1.615407      3736.0481 
Loop time of 3736.05 on 40 procs for 308641 steps with 4150 atoms, finish time Thu Dec 22 07:11:06 2022


Pair  time (%) = 1.27467 (0.034118)
Neigh time (%) = 149.839 (4.01063)
Comm  time (%) = 129.117 (3.45597)
Outpt time (%) = 0.006096 (0.000163167)
Other time (%) = 3455.81 (92.4991)

Nlocal:    103.75 ave 1465 max 0 min
Histogram: 36 0 2 0 0 0 0 0 0 2
Nghost:    19.9 ave 233 max 0 min
Histogram: 36 0 0 0 0 0 1 1 0 2
Neighs:    32.6 ave 520 max 0 min
Histogram: 36 0 2 0 0 0 0 0 0 2

Total # of neighbors = 1304
Ave neighs/atom = 0.314217
Neighbor list builds = 55324
Dangerous builds = 6707
Setting up run at Thu Dec 22 07:11:06 2022

Memory usage per processor = 964.609 Mbytes
    Step    Atoms         KinEng            CPU 
 4938258     4150       1.615407              0 
 5246899     4112     0.52266168      3820.4107 
Loop time of 3820.41 on 40 procs for 308641 steps with 4112 atoms, finish time Thu Dec 22 08:14:47 2022


Pair  time (%) = 1.26549 (0.0331245)
Neigh time (%) = 167.657 (4.38845)
Comm  time (%) = 153.007 (4.00499)
Outpt time (%) = 0.00049577 (1.29769e-05)
Other time (%) = 3498.48 (91.5734)

Nlocal:    102.8 ave 1453 max 0 min
Histogram: 36 0 2 0 0 0 0 0 0 2
Nghost:    19.75 ave 231 max 0 min
Histogram: 36 0 0 0 0 0 1 1 0 2
Neighs:    29.825 ave 510 max 0 min
Histogram: 36 1 1 0 0 0 0 0 1 1

Total # of neighbors = 1193
Ave neighs/atom = 0.290126
Neighbor list builds = 61986
Dangerous builds = 3807
Setting up run at Thu Dec 22 08:14:47 2022

Memory usage per processor = 964.609 Mbytes
    Step    Atoms         KinEng            CPU 
 5246899     4112     0.52266168              0 
 5555540     4080      0.3687588      3803.3083 
Loop time of 3803.31 on 40 procs for 308641 steps with 4080 atoms, finish time Thu Dec 22 09:18:10 2022


Pair  time (%) = 1.23186 (0.0323891)
Neigh time (%) = 163.16 (4.28994)
Comm  time (%) = 152.048 (3.99779)
Outpt time (%) = 0.000620423 (1.63127e-05)
Other time (%) = 3486.87 (91.6799)

Nlocal:    102 ave 1441 max 0 min
Histogram: 36 0 2 0 0 0 0 0 0 2
Nghost:    18.225 ave 218 max 0 min
Histogram: 36 0 0 0 0 0 2 0 1 1
Neighs:    26.5 ave 477 max 0 min
Histogram: 36 2 0 0 0 0 0 0 1 1

Total # of neighbors = 1060
Ave neighs/atom = 0.259804
Neighbor list builds = 60345
Dangerous builds = 4380
Setting up run at Thu Dec 22 09:18:10 2022

Memory usage per processor = 964.609 Mbytes
    Step    Atoms         KinEng            CPU 
 5555540     4080      0.3687588              0 
 5864181     4046       0.518872       3785.173 
Loop time of 3785.17 on 40 procs for 308641 steps with 4046 atoms, finish time Thu Dec 22 10:21:16 2022


Pair  time (%) = 1.19228 (0.0314986)
Neigh time (%) = 162.833 (4.30186)
Comm  time (%) = 149.155 (3.94051)
Outpt time (%) = 0.0061473 (0.000162405)
Other time (%) = 3471.99 (91.726)

Nlocal:    101.15 ave 1420 max 0 min
Histogram: 36 0 1 1 0 0 0 0 0 2
Nghost:    17.6 ave 208 max 0 min
Histogram: 36 0 0 0 0 1 1 0 0 2
Neighs:    22.725 ave 433 max 0 min
Histogram: 36 2 0 0 0 0 0 1 0 1

Total # of neighbors = 909
Ave neighs/atom = 0.224666
Neighbor list builds = 60234
Dangerous builds = 5556
Setting up run at Thu Dec 22 10:21:16 2022

Memory usage per processor = 964.609 Mbytes
    Step    Atoms         KinEng            CPU 
 5864181     4046       0.518872              0 
 6172822     4003      0.3153271      3773.3643 
Loop time of 3773.36 on 40 procs for 308641 steps with 4003 atoms, finish time Thu Dec 22 11:24:09 2022


Pair  time (%) = 1.15198 (0.0305293)
Neigh time (%) = 156.802 (4.15549)
Comm  time (%) = 162.299 (4.30117)
Outpt time (%) = 0.000546454 (1.44819e-05)
Other time (%) = 3453.11 (91.5128)

Nlocal:    100.075 ave 1418 max 0 min
Histogram: 35 1 2 0 0 0 0 0 1 1
Nghost:    16.75 ave 206 max 0 min
Histogram: 36 0 0 0 1 0 1 0 1 1
Neighs:    19.925 ave 376 max 0 min
Histogram: 36 1 1 0 0 0 1 0 0 1

Total # of neighbors = 797
Ave neighs/atom = 0.199101
Neighbor list builds = 57949
Dangerous builds = 6854
Setting up run at Thu Dec 22 11:24:09 2022

Memory usage per processor = 964.609 Mbytes
    Step    Atoms         KinEng            CPU 
 6172822     4003      0.3153271              0 
 6481463     3941     0.35923536        3811.86 
Loop time of 3811.88 on 40 procs for 308641 steps with 3941 atoms, finish time Thu Dec 22 12:27:41 2022


Pair  time (%) = 1.1354 (0.0297858)
Neigh time (%) = 164.219 (4.30808)
Comm  time (%) = 182.566 (4.78939)
Outpt time (%) = 0.00154435 (4.05142e-05)
Other time (%) = 3463.96 (90.8727)

Nlocal:    98.525 ave 1445 max 0 min
Histogram: 36 0 2 0 0 0 0 1 0 1
Nghost:    15.825 ave 192 max 0 min
Histogram: 36 0 0 0 0 1 0 1 1 1
Neighs:    17.45 ave 390 max 0 min
Histogram: 36 1 1 0 1 0 0 0 0 1

Total # of neighbors = 698
Ave neighs/atom = 0.177112
Neighbor list builds = 60634
Dangerous builds = 8498
Setting up run at Thu Dec 22 12:27:41 2022

Memory usage per processor = 964.609 Mbytes
    Step    Atoms         KinEng            CPU 
 6481463     3941     0.35923536              0 
 6790104     3886     0.38383714      3850.6472 
Loop time of 3850.65 on 40 procs for 308641 steps with 3886 atoms, finish time Thu Dec 22 13:31:52 2022


Pair  time (%) = 1.12108 (0.029114)
Neigh time (%) = 174.75 (4.5382)
Comm  time (%) = 188.947 (4.9069)
Outpt time (%) = 0.000609027 (1.58162e-05)
Other time (%) = 3485.83 (90.5258)

Nlocal:    97.15 ave 1402 max 0 min
Histogram: 35 1 2 0 0 0 0 1 0 1
Nghost:    14.875 ave 172 max 0 min
Histogram: 36 0 0 0 0 1 0 1 0 2
Neighs:    15.375 ave 354 max 0 min
Histogram: 36 1 1 1 0 0 0 0 0 1

Total # of neighbors = 615
Ave neighs/atom = 0.15826
Neighbor list builds = 64505
Dangerous builds = 8624
Setting up run at Thu Dec 22 13:31:52 2022

Memory usage per processor = 964.609 Mbytes
    Step    Atoms         KinEng            CPU 
 6790104     3886     0.38383714              0 
 7098745     3829     0.83276252      3755.6848 
Loop time of 3755.69 on 40 procs for 308641 steps with 3829 atoms, finish time Thu Dec 22 14:34:28 2022


Pair  time (%) = 1.08061 (0.0287726)
Neigh time (%) = 158.158 (4.21117)
Comm  time (%) = 182.776 (4.86666)
Outpt time (%) = 0.000636773 (1.69549e-05)
Other time (%) = 3413.67 (90.8934)

Nlocal:    95.725 ave 1358 max 0 min
Histogram: 34 2 2 0 0 0 0 1 0 1
Nghost:    14.8 ave 183 max 0 min
Histogram: 36 0 0 0 1 0 1 1 0 1
Neighs:    13.725 ave 315 max 0 min
Histogram: 36 1 1 1 0 0 0 0 0 1

Total # of neighbors = 549
Ave neighs/atom = 0.143379
Neighbor list builds = 58282
Dangerous builds = 7844
Setting up run at Thu Dec 22 14:34:28 2022

Memory usage per processor = 964.609 Mbytes
    Step    Atoms         KinEng            CPU 
 7098745     3829     0.83276252              0 
 7407386     3760      1.0577485      3726.7217 
Loop time of 3726.72 on 40 procs for 308641 steps with 3760 atoms, finish time Thu Dec 22 15:36:34 2022


Pair  time (%) = 1.06839 (0.0286683)
Neigh time (%) = 152.731 (4.09826)
Comm  time (%) = 188.712 (5.06374)
Outpt time (%) = 0.000508571 (1.36466e-05)
Other time (%) = 3384.21 (90.8093)

Nlocal:    94 ave 1366 max 0 min
Histogram: 33 3 2 0 0 0 1 0 0 1
Nghost:    13.625 ave 162 max 0 min
Histogram: 36 0 0 0 1 0 0 1 0 2
Neighs:    13.5 ave 312 max 0 min
Histogram: 36 1 2 0 0 0 0 0 0 1

Total # of neighbors = 540
Ave neighs/atom = 0.143617
Neighbor list builds = 56292
Dangerous builds = 10469
Setting up run at Thu Dec 22 15:36:35 2022

Memory usage per processor = 964.609 Mbytes
    Step    Atoms         KinEng            CPU 
 7407386     3760      1.0577485              0 
 7716027     3697     0.43029154      3875.7925 
Loop time of 3875.79 on 40 procs for 308641 steps with 3697 atoms, finish time Thu Dec 22 16:41:10 2022


Pair  time (%) = 1.07307 (0.0276864)
Neigh time (%) = 183.517 (4.73495)
Comm  time (%) = 210.954 (5.44285)
Outpt time (%) = 0.000616474 (1.59057e-05)
Other time (%) = 3480.25 (89.7945)

Nlocal:    92.425 ave 1358 max 0 min
Histogram: 33 3 2 0 0 0 1 0 0 1
Nghost:    13.725 ave 147 max 0 min
Histogram: 36 0 0 0 1 0 0 0 1 2
Neighs:    12.525 ave 281 max 0 min
Histogram: 37 0 1 1 0 0 0 0 0 1

Total # of neighbors = 501
Ave neighs/atom = 0.135515
Neighbor list builds = 67619
Dangerous builds = 8852
Setting up run at Thu Dec 22 16:41:10 2022

Memory usage per processor = 964.609 Mbytes
    Step    Atoms         KinEng            CPU 
 7716027     3697     0.43029154              0 
 8024668     3633     0.46573245      3819.4743 
Loop time of 3819.47 on 40 procs for 308641 steps with 3633 atoms, finish time Thu Dec 22 17:44:50 2022


Pair  time (%) = 1.04781 (0.0274333)
Neigh time (%) = 172.271 (4.51034)
Comm  time (%) = 198.051 (5.18529)
Outpt time (%) = 0.000596919 (1.56283e-05)
Other time (%) = 3448.1 (90.2769)

Nlocal:    90.825 ave 1297 max 0 min
Histogram: 32 4 2 0 0 0 1 0 0 1
Nghost:    12.675 ave 146 max 0 min
Histogram: 36 0 0 0 1 0 0 1 1 1
Neighs:    10.75 ave 265 max 0 min
Histogram: 37 1 1 0 0 0 0 0 0 1

Total # of neighbors = 430
Ave neighs/atom = 0.118359
Neighbor list builds = 63489
Dangerous builds = 7943
Setting up run at Thu Dec 22 17:44:50 2022

Memory usage per processor = 964.609 Mbytes
    Step    Atoms         KinEng            CPU 
 8024668     3633     0.46573245              0 
 8333309     3566       0.505304      3872.3319 
Loop time of 3872.33 on 40 procs for 308641 steps with 3566 atoms, finish time Thu Dec 22 18:49:22 2022


Pair  time (%) = 1.04493 (0.0269846)
Neigh time (%) = 183.832 (4.74733)
Comm  time (%) = 214.456 (5.53815)
Outpt time (%) = 0.00587641 (0.000151754)
Other time (%) = 3472.99 (89.6874)

Nlocal:    89.15 ave 1274 max 0 min
Histogram: 32 5 1 0 0 0 1 0 0 1
Nghost:    12.95 ave 149 max 0 min
Histogram: 36 0 0 0 1 0 0 1 1 1
Neighs:    11.025 ave 258 max 0 min
Histogram: 37 0 2 0 0 0 0 0 0 1

Total # of neighbors = 441
Ave neighs/atom = 0.123668
Neighbor list builds = 67681
Dangerous builds = 13360
Setting up run at Thu Dec 22 18:49:22 2022

Memory usage per processor = 964.609 Mbytes
    Step    Atoms         KinEng            CPU 
 8333309     3566       0.505304              0 
 8641950     3505     0.50919824      3770.2336 
Loop time of 3770.23 on 40 procs for 308641 steps with 3505 atoms, finish time Thu Dec 22 19:52:13 2022


Pair  time (%) = 1.01493 (0.0269195)
Neigh time (%) = 163.404 (4.33406)
Comm  time (%) = 189.95 (5.03815)
Outpt time (%) = 0.000709143 (1.8809e-05)
Other time (%) = 3415.86 (90.6008)

Nlocal:    87.625 ave 1237 max 0 min
Histogram: 32 4 2 0 0 0 1 0 0 1
Nghost:    12.525 ave 159 max 0 min
Histogram: 36 0 0 0 1 1 0 1 0 1
Neighs:    10.05 ave 215 max 0 min
Histogram: 36 1 1 1 0 0 0 0 0 1

Total # of neighbors = 402
Ave neighs/atom = 0.114693
Neighbor list builds = 60027
Dangerous builds = 10608
Setting up run at Thu Dec 22 19:52:13 2022

Memory usage per processor = 964.609 Mbytes
    Step    Atoms         KinEng            CPU 
 8641950     3505     0.50919824              0 
 8950591     3428     0.59050426      3765.2211 
Loop time of 3765.22 on 40 procs for 308641 steps with 3428 atoms, finish time Thu Dec 22 20:54:58 2022


Pair  time (%) = 0.995498 (0.0264393)
Neigh time (%) = 162.559 (4.31737)
Comm  time (%) = 196.585 (5.22107)
Outpt time (%) = 0.0058101 (0.00015431)
Other time (%) = 3405.08 (90.435)

Nlocal:    85.7 ave 1194 max 0 min
Histogram: 32 4 2 0 0 0 1 0 0 1
Nghost:    11.325 ave 133 max 0 min
Histogram: 36 0 0 0 0 2 0 0 1 1
Neighs:    9.675 ave 233 max 0 min
Histogram: 36 1 2 0 0 0 0 0 0 1

Total # of neighbors = 387
Ave neighs/atom = 0.112894
Neighbor list builds = 59769
Dangerous builds = 7951
Setting up run at Thu Dec 22 20:54:58 2022

Memory usage per processor = 964.609 Mbytes
    Step    Atoms         KinEng            CPU 
 8950591     3428     0.59050426              0 
 9259232     3349     0.46322511      3691.4373 
Loop time of 3691.44 on 40 procs for 308641 steps with 3349 atoms, finish time Thu Dec 22 21:56:30 2022


Pair  time (%) = 0.976279 (0.0264471)
Neigh time (%) = 146.986 (3.98182)
Comm  time (%) = 167.413 (4.53516)
Outpt time (%) = 0.000695004 (1.88275e-05)
Other time (%) = 3376.06 (91.4566)

Nlocal:    83.725 ave 1176 max 0 min
Histogram: 32 4 1 1 0 1 0 0 0 1
Nghost:    10.625 ave 134 max 0 min
Histogram: 36 0 0 0 1 0 1 1 0 1
Neighs:    7.875 ave 177 max 0 min
Histogram: 37 0 1 1 0 0 0 0 0 1

Total # of neighbors = 315
Ave neighs/atom = 0.0940579
Neighbor list builds = 54020
Dangerous builds = 8880
Setting up run at Thu Dec 22 21:56:30 2022

Memory usage per processor = 964.609 Mbytes
    Step    Atoms         KinEng            CPU 
 9259232     3349     0.46322511              0 
 9567873     3284     0.73809718       3813.559 
Loop time of 3813.56 on 40 procs for 308641 steps with 3284 atoms, finish time Thu Dec 22 23:00:03 2022


Pair  time (%) = 0.9804 (0.0257083)
Neigh time (%) = 174.429 (4.57392)
Comm  time (%) = 198.839 (5.21401)
Outpt time (%) = 0.000583305 (1.52956e-05)
Other time (%) = 3439.31 (90.1863)

Nlocal:    82.1 ave 1147 max 0 min
Histogram: 32 3 3 0 0 1 0 0 0 1
Nghost:    10.6 ave 129 max 0 min
Histogram: 36 0 0 0 1 1 0 1 0 1
Neighs:    7.25 ave 146 max 0 min
Histogram: 35 2 1 1 0 0 0 0 0 1

Total # of neighbors = 290
Ave neighs/atom = 0.0883069
Neighbor list builds = 64065
Dangerous builds = 17415
Setting up run at Thu Dec 22 23:00:03 2022

Memory usage per processor = 964.609 Mbytes
    Step    Atoms         KinEng            CPU 
 9567873     3284     0.73809718              0 
 9876514     3227     0.83087168      3864.1332 
Loop time of 3864.13 on 40 procs for 308641 steps with 3227 atoms, finish time Fri Dec 23 00:04:27 2022


Pair  time (%) = 0.956235 (0.0247464)
Neigh time (%) = 183.051 (4.73718)
Comm  time (%) = 207.295 (5.36458)
Outpt time (%) = 0.000654192 (1.69298e-05)
Other time (%) = 3472.83 (89.8735)

Nlocal:    80.675 ave 1093 max 0 min
Histogram: 32 4 2 0 0 1 0 0 0 1
Nghost:    9.575 ave 118 max 0 min
Histogram: 36 0 0 0 1 0 1 1 0 1
Neighs:    6.65 ave 141 max 0 min
Histogram: 36 1 1 1 0 0 0 0 0 1

Total # of neighbors = 266
Ave neighs/atom = 0.0824295
Neighbor list builds = 67209
Dangerous builds = 7703
Setting up run at Fri Dec 23 00:04:28 2022

Memory usage per processor = 964.609 Mbytes
    Step    Atoms         KinEng            CPU 
 9876514     3227     0.83087168              0 
10185155     3143     0.95340592      3935.5991 
Loop time of 3935.6 on 40 procs for 308641 steps with 3143 atoms, finish time Fri Dec 23 01:10:03 2022


Pair  time (%) = 0.969118 (0.0246244)
Neigh time (%) = 203.182 (5.16268)
Comm  time (%) = 238.724 (6.06577)
Outpt time (%) = 0.000572596 (1.45491e-05)
Other time (%) = 3492.72 (88.7469)

Nlocal:    78.575 ave 977 max 0 min
Histogram: 32 3 2 1 0 0 1 0 0 1
Nghost:    10.725 ave 123 max 0 min
Histogram: 35 1 0 0 1 1 0 0 0 2
Neighs:    5.825 ave 109 max 0 min
Histogram: 36 0 2 1 0 0 0 0 0 1

Total # of neighbors = 233
Ave neighs/atom = 0.074133
Neighbor list builds = 74603
Dangerous builds = 13911
Setting up run at Fri Dec 23 01:10:03 2022

Memory usage per processor = 964.609 Mbytes
    Step    Atoms         KinEng            CPU 
10185155     3143     0.95340592              0 
10493796     3049      1.3366338      3854.8838 
Loop time of 3854.88 on 40 procs for 308641 steps with 3049 atoms, finish time Fri Dec 23 02:14:18 2022


Pair  time (%) = 0.944776 (0.0245085)
Neigh time (%) = 185.729 (4.81803)
Comm  time (%) = 209.97 (5.44685)
Outpt time (%) = 0.000586774 (1.52216e-05)
Other time (%) = 3458.24 (89.7106)

Nlocal:    76.225 ave 912 max 0 min
Histogram: 32 3 1 2 0 0 1 0 0 1
Nghost:    9.3 ave 109 max 0 min
Histogram: 36 0 0 0 1 1 0 0 0 2
Neighs:    4.9 ave 75 max 0 min
Histogram: 33 3 0 3 0 0 0 0 0 1

Total # of neighbors = 196
Ave neighs/atom = 0.0642834
Neighbor list builds = 68220
Dangerous builds = 10317
Setting up run at Fri Dec 23 02:14:18 2022

Memory usage per processor = 964.609 Mbytes
    Step    Atoms         KinEng            CPU 
10493796     3049      1.3366338              0 
10802437     2969     0.91217113      3971.9518 
Loop time of 3971.95 on 40 procs for 308641 steps with 2969 atoms, finish time Fri Dec 23 03:20:30 2022


Pair  time (%) = 0.941388 (0.0237009)
Neigh time (%) = 211.336 (5.32071)
Comm  time (%) = 242.057 (6.09415)
Outpt time (%) = 0.00580302 (0.0001461)
Other time (%) = 3517.61 (88.5613)

Nlocal:    74.225 ave 851 max 0 min
Histogram: 32 1 4 1 0 0 0 1 0 1
Nghost:    9.925 ave 97 max 0 min
Histogram: 33 3 0 0 0 1 0 0 1 2
Neighs:    4.65 ave 58 max 0 min
Histogram: 32 1 2 3 0 0 1 0 0 1

Total # of neighbors = 186
Ave neighs/atom = 0.0626474
Neighbor list builds = 77640
Dangerous builds = 12048
Setting up run at Fri Dec 23 03:20:30 2022

Memory usage per processor = 964.609 Mbytes
    Step    Atoms         KinEng            CPU 
10802437     2969     0.91217113              0 
11111078     2887     0.98291445      3831.4873 
Loop time of 3831.49 on 40 procs for 308641 steps with 2887 atoms, finish time Fri Dec 23 04:24:22 2022


Pair  time (%) = 0.907342 (0.0236812)
Neigh time (%) = 184.907 (4.82598)
Comm  time (%) = 214.903 (5.60887)
Outpt time (%) = 0.00057505 (1.50085e-05)
Other time (%) = 3430.77 (89.5415)

Nlocal:    72.175 ave 782 max 0 min
Histogram: 32 0 4 2 0 0 0 1 0 1
Nghost:    8.975 ave 102 max 0 min
Histogram: 36 0 0 1 0 0 1 1 0 1
Neighs:    4.125 ave 48 max 0 min
Histogram: 32 3 1 0 0 1 2 0 0 1

Total # of neighbors = 165
Ave neighs/atom = 0.0571528
Neighbor list builds = 67965
Dangerous builds = 8149
Setting up run at Fri Dec 23 04:24:22 2022

Memory usage per processor = 964.609 Mbytes
    Step    Atoms         KinEng            CPU 
11111078     2887     0.98291445              0 
11419719     2805      1.8234016      3892.2001 
Loop time of 3892.2 on 40 procs for 308641 steps with 2805 atoms, finish time Fri Dec 23 05:29:14 2022


Pair  time (%) = 0.90879 (0.023349)
Neigh time (%) = 197.113 (5.0643)
Comm  time (%) = 227.872 (5.85457)
Outpt time (%) = 0.000578395 (1.48604e-05)
Other time (%) = 3466.31 (89.0578)

Nlocal:    70.125 ave 720 max 0 min
Histogram: 32 0 3 2 1 0 0 1 0 1
Nghost:    9.175 ave 103 max 0 min
Histogram: 35 1 0 1 0 0 1 1 0 1
Neighs:    4.25 ave 48 max 0 min
Histogram: 32 1 2 1 1 1 1 0 0 1

Total # of neighbors = 170
Ave neighs/atom = 0.0606061
Neighbor list builds = 72405
Dangerous builds = 4810
Setting up run at Fri Dec 23 05:29:14 2022

Memory usage per processor = 964.609 Mbytes
    Step    Atoms         KinEng            CPU 
11419719     2805      1.8234016              0 
11728360     2728       1.240872      3917.4024 
Loop time of 3917.4 on 40 procs for 308641 steps with 2728 atoms, finish time Fri Dec 23 06:34:32 2022


Pair  time (%) = 0.912204 (0.0232859)
Neigh time (%) = 204.815 (5.22834)
Comm  time (%) = 233.48 (5.96006)
Outpt time (%) = 0.000531569 (1.35694e-05)
Other time (%) = 3478.2 (88.7883)

Nlocal:    68.2 ave 676 max 0 min
Histogram: 32 0 3 2 1 0 0 1 0 1
Nghost:    7.8 ave 88 max 0 min
Histogram: 36 0 0 0 1 1 0 0 1 1
Neighs:    3.35 ave 36 max 0 min
Histogram: 32 2 0 1 2 2 0 0 0 1

Total # of neighbors = 134
Ave neighs/atom = 0.0491202
Neighbor list builds = 75185
Dangerous builds = 7875
Setting up run at Fri Dec 23 06:34:32 2022

Memory usage per processor = 964.609 Mbytes
    Step    Atoms         KinEng            CPU 
11728360     2728       1.240872              0 
12037001     2630     0.93866723      3751.7006 
Loop time of 3751.7 on 40 procs for 308641 steps with 2630 atoms, finish time Fri Dec 23 07:37:03 2022


Pair  time (%) = 0.868334 (0.0231451)
Neigh time (%) = 168.53 (4.49209)
Comm  time (%) = 200.748 (5.35085)
Outpt time (%) = 0.000531547 (1.41682e-05)
Other time (%) = 3381.55 (90.1339)

Nlocal:    65.75 ave 595 max 0 min
Histogram: 31 1 1 3 2 0 0 0 0 2
Nghost:    8.125 ave 94 max 0 min
Histogram: 34 2 0 0 1 1 1 0 0 1
Neighs:    2.95 ave 24 max 0 min
Histogram: 32 0 2 0 1 1 0 2 1 1

Total # of neighbors = 118
Ave neighs/atom = 0.0448669
Neighbor list builds = 61897
Dangerous builds = 8221
Setting up run at Fri Dec 23 07:37:03 2022

Memory usage per processor = 964.609 Mbytes
    Step    Atoms         KinEng            CPU 
12037001     2630     0.93866723              0 
12345642     2555      1.1606448      3911.8347 
Loop time of 3911.84 on 40 procs for 308641 steps with 2555 atoms, finish time Fri Dec 23 08:42:15 2022


Pair  time (%) = 0.880015 (0.0224962)
Neigh time (%) = 204.357 (5.22407)
Comm  time (%) = 234.87 (6.0041)
Outpt time (%) = 0.000506425 (1.2946e-05)
Other time (%) = 3471.73 (88.7493)

Nlocal:    63.875 ave 564 max 0 min
Histogram: 31 1 1 3 2 0 0 0 0 2
Nghost:    8 ave 89 max 0 min
Histogram: 32 4 0 0 0 2 0 1 0 1
Neighs:    2.95 ave 26 max 0 min
Histogram: 32 0 1 1 0 2 3 0 0 1

Total # of neighbors = 118
Ave neighs/atom = 0.046184
Neighbor list builds = 75053
Dangerous builds = 12072
Setting up run at Fri Dec 23 08:42:15 2022

Memory usage per processor = 964.609 Mbytes
    Step    Atoms         KinEng            CPU 
12345642     2555      1.1606448              0 
12654283     2474      1.3232775      3859.5853 
Loop time of 3859.59 on 40 procs for 308641 steps with 2474 atoms, finish time Fri Dec 23 09:46:35 2022


Pair  time (%) = 0.863221 (0.0223656)
Neigh time (%) = 193.624 (5.01671)
Comm  time (%) = 217.215 (5.62794)
Outpt time (%) = 0.000535558 (1.38761e-05)
Other time (%) = 3447.88 (89.333)

Nlocal:    61.85 ave 499 max 0 min
Histogram: 30 2 0 2 3 1 0 0 0 2
Nghost:    7.575 ave 92 max 0 min
Histogram: 36 0 0 1 0 1 0 1 0 1
Neighs:    2.675 ave 32 max 0 min
Histogram: 32 3 1 1 0 0 2 0 0 1

Total # of neighbors = 107
Ave neighs/atom = 0.0432498
Neighbor list builds = 71122
Dangerous builds = 8708
Setting up run at Fri Dec 23 09:46:35 2022

Memory usage per processor = 964.609 Mbytes
    Step    Atoms         KinEng            CPU 
12654283     2474      1.3232775              0 
12962924     2387       1.274728      3933.4711 
Loop time of 3933.47 on 40 procs for 308641 steps with 2387 atoms, finish time Fri Dec 23 10:52:08 2022


Pair  time (%) = 0.874109 (0.0222223)
Neigh time (%) = 212.194 (5.39457)
Comm  time (%) = 231.89 (5.89529)
Outpt time (%) = 0.000522949 (1.32949e-05)
Other time (%) = 3488.51 (88.6879)

Nlocal:    59.675 ave 477 max 0 min
Histogram: 31 1 0 3 1 2 0 0 0 2
Nghost:    7.425 ave 81 max 0 min
Histogram: 32 4 0 1 0 1 0 0 0 2
Neighs:    2.6 ave 21 max 0 min
Histogram: 32 1 1 0 1 1 1 0 1 2

Total # of neighbors = 104
Ave neighs/atom = 0.0435693
Neighbor list builds = 77923
Dangerous builds = 13801
Setting up run at Fri Dec 23 10:52:09 2022

Memory usage per processor = 964.609 Mbytes
    Step    Atoms         KinEng            CPU 
12962924     2387       1.274728              0 
13271565     2308      2.7473368      3859.4533 
Loop time of 3859.45 on 40 procs for 308641 steps with 2308 atoms, finish time Fri Dec 23 11:56:28 2022


Pair  time (%) = 0.853804 (0.0221224)
Neigh time (%) = 194.849 (5.04863)
Comm  time (%) = 199.98 (5.18156)
Outpt time (%) = 0.000482482 (1.25013e-05)
Other time (%) = 3463.77 (89.7477)

Nlocal:    57.7 ave 448 max 0 min
Histogram: 31 1 0 2 1 3 0 0 0 2
Nghost:    6.375 ave 69 max 0 min
Histogram: 32 4 0 0 1 1 0 0 1 1
Neighs:    2.425 ave 22 max 0 min
Histogram: 32 1 0 2 1 1 1 0 0 2

Total # of neighbors = 97
Ave neighs/atom = 0.0420277
Neighbor list builds = 71564
Dangerous builds = 12013
Setting up run at Fri Dec 23 11:56:28 2022

Memory usage per processor = 964.609 Mbytes
    Step    Atoms         KinEng            CPU 
13271565     2308      2.7473368              0 
13580206     2238      1.1616309      3864.1503 
Loop time of 3864.15 on 40 procs for 308641 steps with 2238 atoms, finish time Fri Dec 23 13:00:52 2022


Pair  time (%) = 0.849151 (0.0219751)
Neigh time (%) = 196.973 (5.09744)
Comm  time (%) = 212.172 (5.49077)
Outpt time (%) = 0.000494977 (1.28095e-05)
Other time (%) = 3454.16 (89.3898)

Nlocal:    55.95 ave 455 max 0 min
Histogram: 31 1 1 2 1 1 1 0 1 1
Nghost:    6.175 ave 68 max 0 min
Histogram: 32 4 0 1 0 1 0 1 0 1
Neighs:    2.2 ave 25 max 0 min
Histogram: 32 2 2 0 1 1 0 1 0 1

Total # of neighbors = 88
Ave neighs/atom = 0.0393208
Neighbor list builds = 72417
Dangerous builds = 6382
Setting up run at Fri Dec 23 13:00:52 2022

Memory usage per processor = 964.609 Mbytes
    Step    Atoms         KinEng            CPU 
13580206     2238      1.1616309              0 
13888847     2183      1.0245152      3801.8042 
Loop time of 3801.8 on 40 procs for 308641 steps with 2183 atoms, finish time Fri Dec 23 14:04:14 2022


Pair  time (%) = 0.827257 (0.0217596)
Neigh time (%) = 181.208 (4.76637)
Comm  time (%) = 189.06 (4.97291)
Outpt time (%) = 0.00593074 (0.000155998)
Other time (%) = 3430.7 (90.2388)

Nlocal:    54.575 ave 440 max 0 min
Histogram: 31 1 2 1 1 1 0 1 0 2
Nghost:    6.025 ave 64 max 0 min
Histogram: 33 3 0 0 1 1 0 0 1 1
Neighs:    2.225 ave 33 max 0 min
Histogram: 33 1 3 2 0 0 0 0 0 1

Total # of neighbors = 89
Ave neighs/atom = 0.0407696
Neighbor list builds = 66630
Dangerous builds = 4272
Setting up run at Fri Dec 23 14:04:14 2022

Memory usage per processor = 964.609 Mbytes
    Step    Atoms         KinEng            CPU 
13888847     2183      1.0245152              0 
14197488     2118      1.0271142       3933.511 
Loop time of 3933.51 on 40 procs for 308641 steps with 2118 atoms, finish time Fri Dec 23 15:09:48 2022


Pair  time (%) = 0.845205 (0.0214873)
Neigh time (%) = 211.936 (5.38796)
Comm  time (%) = 224.796 (5.7149)
Outpt time (%) = 0.000551831 (1.4029e-05)
Other time (%) = 3495.93 (88.8756)

Nlocal:    52.95 ave 421 max 0 min
Histogram: 31 1 0 3 1 1 1 0 1 1
Nghost:    6.3 ave 75 max 0 min
Histogram: 34 2 0 1 1 0 0 1 0 1
Neighs:    2.625 ave 37 max 0 min
Histogram: 33 2 2 1 0 0 1 0 0 1

Total # of neighbors = 105
Ave neighs/atom = 0.0495751
Neighbor list builds = 77945
Dangerous builds = 7323
Setting up run at Fri Dec 23 15:09:48 2022

Memory usage per processor = 964.609 Mbytes
    Step    Atoms         KinEng            CPU 
14197488     2118      1.0271142              0 
14506129     2057      1.0795651      3837.0736 
Loop time of 3837.07 on 40 procs for 308641 steps with 2057 atoms, finish time Fri Dec 23 16:13:45 2022


Pair  time (%) = 0.82199 (0.0214223)
Neigh time (%) = 190.329 (4.96027)
Comm  time (%) = 197.214 (5.13969)
Outpt time (%) = 0.000509878 (1.32882e-05)
Other time (%) = 3448.71 (89.8786)

Nlocal:    51.425 ave 408 max 0 min
Histogram: 31 1 0 3 1 1 0 1 1 1
Nghost:    5.625 ave 76 max 0 min
Histogram: 32 4 0 2 0 1 0 0 0 1
Neighs:    2.275 ave 33 max 0 min
Histogram: 33 2 1 2 0 1 0 0 0 1

Total # of neighbors = 91
Ave neighs/atom = 0.0442392
Neighbor list builds = 70017
Dangerous builds = 6744
Setting up run at Fri Dec 23 16:13:45 2022

Memory usage per processor = 964.609 Mbytes
    Step    Atoms         KinEng            CPU 
14506129     2057      1.0795651              0 
14814770     2003       1.460936      3846.8111 
Loop time of 3846.81 on 40 procs for 308641 steps with 2003 atoms, finish time Fri Dec 23 17:17:52 2022


Pair  time (%) = 0.829325 (0.0215588)
Neigh time (%) = 194.799 (5.0639)
Comm  time (%) = 195.616 (5.08515)
Outpt time (%) = 0.0006244 (1.62316e-05)
Other time (%) = 3455.57 (89.8294)

Nlocal:    50.075 ave 384 max 0 min
Histogram: 32 0 0 0 4 2 0 0 0 2
Nghost:    5.425 ave 55 max 0 min
Histogram: 34 2 0 0 0 1 1 0 0 2
Neighs:    1.925 ave 18 max 0 min
Histogram: 32 0 0 2 1 4 0 0 0 1

Total # of neighbors = 77
Ave neighs/atom = 0.0384423
Neighbor list builds = 71691
Dangerous builds = 6146
Setting up run at Fri Dec 23 17:17:52 2022

Memory usage per processor = 964.609 Mbytes
    Step    Atoms         KinEng            CPU 
14814770     2003       1.460936              0 
15123411     1952      1.2302904      3781.8101 
Loop time of 3781.81 on 40 procs for 308641 steps with 1952 atoms, finish time Fri Dec 23 18:20:54 2022


Pair  time (%) = 0.807878 (0.0213622)
Neigh time (%) = 179.733 (4.75258)
Comm  time (%) = 182.352 (4.82182)
Outpt time (%) = 0.000588385 (1.55583e-05)
Other time (%) = 3418.92 (90.4042)

Nlocal:    48.8 ave 370 max 0 min
Histogram: 31 1 0 0 4 1 1 0 0 2
Nghost:    5.15 ave 57 max 0 min
Histogram: 33 3 0 0 2 0 0 1 0 1
Neighs:    1.65 ave 18 max 0 min
Histogram: 32 1 0 4 0 2 0 0 0 1

Total # of neighbors = 66
Ave neighs/atom = 0.0338115
Neighbor list builds = 66127
Dangerous builds = 8487
Setting up run at Fri Dec 23 18:20:54 2022

Memory usage per processor = 964.609 Mbytes
    Step    Atoms         KinEng            CPU 
15123411     1952      1.2302904              0 
15432052     1897     0.97634464      3812.8317 
Loop time of 3812.83 on 40 procs for 308641 steps with 1897 atoms, finish time Fri Dec 23 19:24:27 2022


Pair  time (%) = 0.818126 (0.0214572)
Neigh time (%) = 187.885 (4.92771)
Comm  time (%) = 203.283 (5.33156)
Outpt time (%) = 0.000574773 (1.50747e-05)
Other time (%) = 3420.84 (89.7193)

Nlocal:    47.425 ave 361 max 0 min
Histogram: 31 1 0 1 2 3 0 0 0 2
Nghost:    5.35 ave 55 max 0 min
Histogram: 30 6 0 0 1 1 0 0 1 1
Neighs:    1.85 ave 13 max 0 min
Histogram: 32 0 0 1 0 1 2 1 1 2

Total # of neighbors = 74
Ave neighs/atom = 0.039009
Neighbor list builds = 69132
Dangerous builds = 8189
Setting up run at Fri Dec 23 19:24:27 2022

Memory usage per processor = 964.609 Mbytes
    Step    Atoms         KinEng            CPU 
15432052     1897     0.97634464              0 
15740693     1839      1.1922298       3791.258 
Loop time of 3791.26 on 40 procs for 308641 steps with 1839 atoms, finish time Fri Dec 23 20:27:38 2022


Pair  time (%) = 0.80793 (0.0213103)
Neigh time (%) = 181.271 (4.78128)
Comm  time (%) = 182.612 (4.81666)
Outpt time (%) = 0.000520267 (1.37228e-05)
Other time (%) = 3426.57 (90.3807)

Nlocal:    45.975 ave 353 max 0 min
Histogram: 31 1 0 1 1 4 0 0 0 2
Nghost:    4.775 ave 47 max 0 min
Histogram: 32 4 0 0 1 1 0 0 1 1
Neighs:    1.65 ave 13 max 0 min
Histogram: 32 0 1 2 0 0 1 0 3 1

Total # of neighbors = 66
Ave neighs/atom = 0.0358891
Neighbor list builds = 66706
Dangerous builds = 8249
Setting up run at Fri Dec 23 20:27:38 2022

Memory usage per processor = 964.609 Mbytes
    Step    Atoms         KinEng            CPU 
15740693     1839      1.1922298              0 
16049334     1786      1.0256811      3791.5112 
Loop time of 3791.51 on 40 procs for 308641 steps with 1786 atoms, finish time Fri Dec 23 21:30:50 2022


Pair  time (%) = 0.795989 (0.020994)
Neigh time (%) = 183.371 (4.83636)
Comm  time (%) = 189.143 (4.98858)
Outpt time (%) = 0.00586277 (0.000154629)
Other time (%) = 3418.2 (90.1539)

Nlocal:    44.65 ave 330 max 0 min
Histogram: 31 1 0 0 3 2 1 0 0 2
Nghost:    4.125 ave 42 max 0 min
Histogram: 33 3 0 0 0 2 0 1 0 1
Neighs:    1.475 ave 15 max 0 min
Histogram: 32 2 1 0 2 0 1 0 1 1

Total # of neighbors = 59
Ave neighs/atom = 0.0330347
Neighbor list builds = 67451
Dangerous builds = 7039
Setting up run at Fri Dec 23 21:30:50 2022

Memory usage per processor = 964.609 Mbytes
    Step    Atoms         KinEng            CPU 
16049334     1786      1.0256811              0 
16357975     1727      1.2957115       4008.498 
Loop time of 4008.5 on 40 procs for 308641 steps with 1727 atoms, finish time Fri Dec 23 22:37:38 2022


Pair  time (%) = 0.833137 (0.0207843)
Neigh time (%) = 234.012 (5.83789)
Comm  time (%) = 229.521 (5.72586)
Outpt time (%) = 0.000750912 (1.8733e-05)
Other time (%) = 3544.13 (88.4154)

Nlocal:    43.175 ave 307 max 0 min
Histogram: 31 1 0 0 1 4 1 0 0 2
Nghost:    4.075 ave 44 max 0 min
Histogram: 31 5 0 1 0 1 0 1 0 1
Neighs:    1.4 ave 13 max 0 min
Histogram: 32 0 0 3 2 0 2 0 0 1

Total # of neighbors = 56
Ave neighs/atom = 0.0324262
Neighbor list builds = 86053
Dangerous builds = 8032
Setting up run at Fri Dec 23 22:37:38 2022

Memory usage per processor = 964.609 Mbytes
    Step    Atoms         KinEng            CPU 
16357975     1727      1.2957115              0 
16666616     1673      1.0607426      4274.1623 
Loop time of 4274.16 on 40 procs for 308641 steps with 1673 atoms, finish time Fri Dec 23 23:48:53 2022


Pair  time (%) = 0.857013 (0.020051)
Neigh time (%) = 294.153 (6.88212)
Comm  time (%) = 301.905 (7.06349)
Outpt time (%) = 0.000618801 (1.44777e-05)
Other time (%) = 3677.25 (86.0343)

Nlocal:    41.825 ave 298 max 0 min
Histogram: 30 2 0 0 3 0 3 0 1 1
Nghost:    4.2 ave 36 max 0 min
Histogram: 29 5 2 0 0 0 2 0 1 1
Neighs:    1.225 ave 14 max 0 min
Histogram: 32 2 1 1 1 1 0 1 0 1

Total # of neighbors = 49
Ave neighs/atom = 0.0292887
Neighbor list builds = 108094
Dangerous builds = 6911
Setting up run at Fri Dec 23 23:48:53 2022

Memory usage per processor = 964.609 Mbytes
    Step    Atoms         KinEng            CPU 
16666616     1673      1.0607426              0 
16975257     1619     0.89149775      4042.0031 
Loop time of 4042 on 40 procs for 308641 steps with 1619 atoms, finish time Sat Dec 24 00:56:15 2022


Pair  time (%) = 0.806968 (0.0199646)
Neigh time (%) = 237.561 (5.8773)
Comm  time (%) = 240.867 (5.9591)
Outpt time (%) = 0.00595979 (0.000147447)
Other time (%) = 3562.76 (88.1435)

Nlocal:    40.475 ave 276 max 0 min
Histogram: 30 2 0 1 1 1 3 0 0 2
Nghost:    3.075 ave 30 max 0 min
Histogram: 29 7 0 0 0 2 0 0 1 1
Neighs:    1.55 ave 16 max 0 min
Histogram: 32 1 0 4 0 0 1 1 0 1

Total # of neighbors = 62
Ave neighs/atom = 0.0382952
Neighbor list builds = 87555
Dangerous builds = 8701
Setting up run at Sat Dec 24 00:56:15 2022

Memory usage per processor = 964.609 Mbytes
    Step    Atoms         KinEng            CPU 
16975257     1619     0.89149775              0 
17283898     1562       1.427611      3758.6711 
Loop time of 3758.67 on 40 procs for 308641 steps with 1562 atoms, finish time Sat Dec 24 01:58:54 2022


Pair  time (%) = 0.77775 (0.0206921)
Neigh time (%) = 177.49 (4.72214)
Comm  time (%) = 161.484 (4.2963)
Outpt time (%) = 0.000558997 (1.48722e-05)
Other time (%) = 3418.92 (90.9609)

Nlocal:    39.05 ave 275 max 0 min
Histogram: 31 1 0 0 1 4 1 0 1 1
Nghost:    3.15 ave 34 max 0 min
Histogram: 31 3 3 0 1 0 0 1 0 1
Neighs:    1.175 ave 14 max 0 min
Histogram: 33 0 4 0 1 0 0 0 0 2

Total # of neighbors = 47
Ave neighs/atom = 0.0300896
Neighbor list builds = 65345
Dangerous builds = 7395
Setting up run at Sat Dec 24 01:58:54 2022

Memory usage per processor = 964.609 Mbytes
    Step    Atoms         KinEng            CPU 
17283898     1562       1.427611              0 
17592539     1515     0.87578916      3690.4432 
Loop time of 3690.45 on 40 procs for 308641 steps with 1515 atoms, finish time Sat Dec 24 03:00:24 2022


Pair  time (%) = 0.748406 (0.0202795)
Neigh time (%) = 159.612 (4.325)
Comm  time (%) = 158.602 (4.29764)
Outpt time (%) = 0.0129074 (0.00034975)
Other time (%) = 3371.48 (91.3567)

Nlocal:    37.875 ave 264 max 0 min
Histogram: 31 1 0 0 0 5 1 0 1 1
Nghost:    3.725 ave 33 max 0 min
Histogram: 28 7 1 1 0 0 0 1 1 1
Neighs:    0.775 ave 11 max 0 min
Histogram: 35 1 1 1 0 0 0 0 0 2

Total # of neighbors = 31
Ave neighs/atom = 0.020462
Neighbor list builds = 58817
Dangerous builds = 3596
Setting up run at Sat Dec 24 03:00:24 2022

Memory usage per processor = 964.609 Mbytes
    Step    Atoms         KinEng            CPU 
17592539     1515     0.87578916              0 
17901180     1466      1.0164745      3756.6712 
Loop time of 3756.67 on 40 procs for 308641 steps with 1466 atoms, finish time Sat Dec 24 04:03:01 2022


Pair  time (%) = 0.759537 (0.0202183)
Neigh time (%) = 177.334 (4.72052)
Comm  time (%) = 186.509 (4.96473)
Outpt time (%) = 0.0056776 (0.000151134)
Other time (%) = 3392.06 (90.2944)

Nlocal:    36.65 ave 262 max 0 min
Histogram: 31 1 0 1 1 3 0 0 2 1
Nghost:    3.575 ave 28 max 0 min
Histogram: 28 5 1 2 0 1 0 2 0 1
Neighs:    1.425 ave 30 max 0 min
Histogram: 36 1 1 0 1 0 0 0 0 1

Total # of neighbors = 57
Ave neighs/atom = 0.0388813
Neighbor list builds = 65392
Dangerous builds = 10174
Setting up run at Sat Dec 24 04:03:01 2022

Memory usage per processor = 964.609 Mbytes
    Step    Atoms         KinEng            CPU 
17901180     1466      1.0164745              0 
18209821     1430     0.96046341      3938.6986 
Loop time of 3938.7 on 40 procs for 308641 steps with 1430 atoms, finish time Sat Dec 24 05:08:40 2022


Pair  time (%) = 0.782818 (0.019875)
Neigh time (%) = 218.427 (5.54567)
Comm  time (%) = 207.296 (5.26305)
Outpt time (%) = 0.00576659 (0.000146408)
Other time (%) = 3512.19 (89.1713)

Nlocal:    35.75 ave 255 max 0 min
Histogram: 32 0 0 1 1 2 2 0 1 1
Nghost:    3.1 ave 26 max 0 min
Histogram: 30 4 0 2 0 0 1 0 2 1
Neighs:    1.125 ave 19 max 0 min
Histogram: 35 1 1 1 0 1 0 0 0 1

Total # of neighbors = 45
Ave neighs/atom = 0.0314685
Neighbor list builds = 80499
Dangerous builds = 6253
Setting up run at Sat Dec 24 05:08:40 2022

Memory usage per processor = 964.609 Mbytes
    Step    Atoms         KinEng            CPU 
18209821     1430     0.96046341              0 
18518462     1388     0.88600219      3894.7884 
Loop time of 3894.79 on 40 procs for 308641 steps with 1388 atoms, finish time Sat Dec 24 06:13:35 2022


Pair  time (%) = 0.753573 (0.0193482)
Neigh time (%) = 205.674 (5.28076)
Comm  time (%) = 205.694 (5.28125)
Outpt time (%) = 0.00601863 (0.00015453)
Other time (%) = 3482.66 (89.4185)

Nlocal:    34.7 ave 235 max 0 min
Histogram: 32 0 0 1 1 0 1 3 0 2
Nghost:    3.35 ave 32 max 0 min
Histogram: 32 2 1 1 1 0 1 0 1 1
Neighs:    0.975 ave 10 max 0 min
Histogram: 32 0 3 1 0 0 1 2 0 1

Total # of neighbors = 39
Ave neighs/atom = 0.028098
Neighbor list builds = 75856
Dangerous builds = 1831
Setting up run at Sat Dec 24 06:13:35 2022

Memory usage per processor = 964.609 Mbytes
    Step    Atoms         KinEng            CPU 
18518462     1388     0.88600219              0 
18827103     1340     0.84511467      3828.8748 
Loop time of 3828.88 on 40 procs for 308641 steps with 1340 atoms, finish time Sat Dec 24 07:17:24 2022


Pair  time (%) = 0.760009 (0.0198494)
Neigh time (%) = 194.111 (5.06967)
Comm  time (%) = 196.557 (5.13355)
Outpt time (%) = 0.000507814 (1.32627e-05)
Other time (%) = 3437.45 (89.7769)

Nlocal:    33.5 ave 217 max 0 min
Histogram: 31 1 0 0 0 2 2 2 0 2
Nghost:    3.475 ave 39 max 0 min
Histogram: 28 5 4 0 2 0 0 0 0 1
Neighs:    1.175 ave 14 max 0 min
Histogram: 34 0 1 2 0 1 1 0 0 1

Total # of neighbors = 47
Ave neighs/atom = 0.0350746
Neighbor list builds = 71554
Dangerous builds = 15914
Setting up run at Sat Dec 24 07:17:24 2022

Memory usage per processor = 964.609 Mbytes
    Step    Atoms         KinEng            CPU 
18827103     1340     0.84511467              0 
19135744     1304     0.74403111      3699.9341 
Loop time of 3699.93 on 40 procs for 308641 steps with 1304 atoms, finish time Sat Dec 24 08:19:04 2022


Pair  time (%) = 0.723981 (0.0195674)
Neigh time (%) = 164.156 (4.43672)
Comm  time (%) = 174.935 (4.72805)
Outpt time (%) = 0.00064208 (1.73538e-05)
Other time (%) = 3360.12 (90.8156)

Nlocal:    32.6 ave 205 max 0 min
Histogram: 32 0 0 0 0 2 2 2 0 2
Nghost:    3.075 ave 26 max 0 min
Histogram: 29 3 3 2 0 1 0 0 1 1
Neighs:    0.725 ave 11 max 0 min
Histogram: 34 1 2 1 1 0 0 0 0 1

Total # of neighbors = 29
Ave neighs/atom = 0.0222393
Neighbor list builds = 60571
Dangerous builds = 3748
Setting up run at Sat Dec 24 08:19:04 2022

Memory usage per processor = 964.609 Mbytes
    Step    Atoms         KinEng            CPU 
19135744     1304     0.74403111              0 
19444385     1268     0.78201077      3612.5149 
Loop time of 3612.52 on 40 procs for 308641 steps with 1268 atoms, finish time Sat Dec 24 09:19:16 2022


Pair  time (%) = 0.71015 (0.0196581)
Neigh time (%) = 144.067 (3.98798)
Comm  time (%) = 145.226 (4.02009)
Outpt time (%) = 0.000545942 (1.51125e-05)
Other time (%) = 3322.51 (91.9723)

Nlocal:    31.7 ave 206 max 0 min
Histogram: 31 1 0 0 1 1 3 0 1 2
Nghost:    2.95 ave 28 max 0 min
Histogram: 28 6 2 1 0 1 0 0 1 1
Neighs:    0.7 ave 8 max 0 min
Histogram: 32 2 2 0 0 2 0 1 0 1

Total # of neighbors = 28
Ave neighs/atom = 0.022082
Neighbor list builds = 53157
Dangerous builds = 6189
Setting up run at Sat Dec 24 09:19:16 2022

Memory usage per processor = 964.609 Mbytes
    Step    Atoms         KinEng            CPU 
19444385     1268     0.78201077              0 
19753026     1229     0.69729481      3657.0485 
Loop time of 3657.05 on 40 procs for 308641 steps with 1229 atoms, finish time Sat Dec 24 10:20:13 2022


Pair  time (%) = 0.718513 (0.0196473)
Neigh time (%) = 155.129 (4.24192)
Comm  time (%) = 144.482 (3.95079)
Outpt time (%) = 0.000579065 (1.58342e-05)
Other time (%) = 3356.72 (91.7876)

Nlocal:    30.725 ave 194 max 0 min
Histogram: 32 0 0 0 0 3 0 3 0 2
Nghost:    2.9 ave 29 max 0 min
Histogram: 28 6 2 2 0 0 0 0 1 1
Neighs:    0.725 ave 9 max 0 min
Histogram: 33 3 0 0 0 2 0 1 0 1

Total # of neighbors = 29
Ave neighs/atom = 0.0235964
Neighbor list builds = 57285
Dangerous builds = 1580
Setting up run at Sat Dec 24 10:20:14 2022

Memory usage per processor = 964.609 Mbytes
    Step    Atoms         KinEng            CPU 
19753026     1229     0.69729481              0 
20061667     1178     0.65356352      3743.4588 
Loop time of 3743.46 on 40 procs for 308641 steps with 1178 atoms, finish time Sat Dec 24 11:22:37 2022


Pair  time (%) = 0.730477 (0.0195134)
Neigh time (%) = 173.396 (4.63198)
Comm  time (%) = 163.27 (4.36148)
Outpt time (%) = 0.000495645 (1.32403e-05)
Other time (%) = 3406.06 (90.987)

Nlocal:    29.45 ave 182 max 0 min
Histogram: 31 1 0 0 1 1 1 2 1 2
Nghost:    2.5 ave 24 max 0 min
Histogram: 31 2 2 2 0 1 0 0 1 1
Neighs:    0.825 ave 10 max 0 min
Histogram: 33 1 1 0 2 1 0 1 0 1

Total # of neighbors = 33
Ave neighs/atom = 0.0280136
Neighbor list builds = 64024
Dangerous builds = 5526
Setting up run at Sat Dec 24 11:22:37 2022

Memory usage per processor = 964.609 Mbytes
    Step    Atoms         KinEng            CPU 
20061667     1178     0.65356352              0 
20370308     1143     0.71349778      3643.8026 
Loop time of 3643.8 on 40 procs for 308641 steps with 1143 atoms, finish time Sat Dec 24 12:23:21 2022


Pair  time (%) = 0.706243 (0.019382)
Neigh time (%) = 152.006 (4.17164)
Comm  time (%) = 152.208 (4.17717)
Outpt time (%) = 0.000260346 (7.14491e-06)
Other time (%) = 3338.88 (91.6318)

Nlocal:    28.575 ave 174 max 0 min
Histogram: 30 2 0 0 0 2 1 1 2 2
Nghost:    2.1 ave 20 max 0 min
Histogram: 28 4 4 1 0 0 1 1 0 1
Neighs:    0.725 ave 11 max 0 min
Histogram: 34 2 1 1 0 1 0 0 0 1

Total # of neighbors = 29
Ave neighs/atom = 0.0253718
Neighbor list builds = 56135
Dangerous builds = 1891
Setting up run at Sat Dec 24 12:23:21 2022

Memory usage per processor = 964.609 Mbytes
    Step    Atoms         KinEng            CPU 
20370308     1143     0.71349778              0 
20678949     1106     0.70095529       3727.952 
Loop time of 3727.95 on 40 procs for 308641 steps with 1106 atoms, finish time Sat Dec 24 13:25:29 2022


Pair  time (%) = 0.722789 (0.0193884)
Neigh time (%) = 173.444 (4.65252)
Comm  time (%) = 151.045 (4.0517)
Outpt time (%) = 0.00602696 (0.000161669)
Other time (%) = 3402.73 (91.2762)

Nlocal:    27.65 ave 166 max 0 min
Histogram: 30 2 0 0 0 0 4 1 1 2
Nghost:    2.2 ave 19 max 0 min
Histogram: 29 2 3 1 3 0 0 0 1 1
Neighs:    0.725 ave 9 max 0 min
Histogram: 33 2 0 1 1 1 1 0 0 1

Total # of neighbors = 29
Ave neighs/atom = 0.0262206
Neighbor list builds = 64067
Dangerous builds = 6589
Setting up run at Sat Dec 24 13:25:29 2022

Memory usage per processor = 964.609 Mbytes
    Step    Atoms         KinEng            CPU 
20678949     1106     0.70095529              0 
20987590     1069      0.6536055      3685.5475 
Loop time of 3685.55 on 40 procs for 308641 steps with 1069 atoms, finish time Sat Dec 24 14:26:55 2022


Pair  time (%) = 0.716493 (0.0194406)
Neigh time (%) = 163.21 (4.42838)
Comm  time (%) = 137.608 (3.73373)
Outpt time (%) = 0.000544077 (1.47625e-05)
Other time (%) = 3384.01 (91.8184)

Nlocal:    26.725 ave 162 max 0 min
Histogram: 30 2 0 0 0 0 4 2 0 2
Nghost:    2.125 ave 19 max 0 min
Histogram: 27 5 2 2 2 0 0 1 0 1
Neighs:    0.375 ave 5 max 0 min
Histogram: 35 0 0 0 2 0 2 0 0 1

Total # of neighbors = 15
Ave neighs/atom = 0.0140318
Neighbor list builds = 60318
Dangerous builds = 5498
Setting up run at Sat Dec 24 14:26:55 2022

Memory usage per processor = 964.609 Mbytes
    Step    Atoms         KinEng            CPU 
20987590     1069      0.6536055              0 
21296231     1046     0.68230225       3737.674 
Loop time of 3737.67 on 40 procs for 308641 steps with 1046 atoms, finish time Sat Dec 24 15:29:12 2022


Pair  time (%) = 0.705408 (0.0188729)
Neigh time (%) = 149.621 (4.00305)
Comm  time (%) = 140.603 (3.76179)
Outpt time (%) = 0.000591168 (1.58165e-05)
Other time (%) = 3446.74 (92.2163)

Nlocal:    26.15 ave 157 max 0 min
Histogram: 30 2 0 0 0 0 4 1 0 3
Nghost:    2.95 ave 24 max 0 min
Histogram: 27 5 4 1 0 0 0 1 1 1
Neighs:    0.55 ave 5 max 0 min
Histogram: 33 0 1 0 1 0 2 0 2 1

Total # of neighbors = 22
Ave neighs/atom = 0.0210325
Neighbor list builds = 55294
Dangerous builds = 9700
Setting up run at Sat Dec 24 15:29:12 2022

Memory usage per processor = 964.609 Mbytes
    Step    Atoms         KinEng            CPU 
21296231     1046     0.68230225              0 
21604872     1016     0.56922722      3683.3951 
Loop time of 3683.4 on 40 procs for 308641 steps with 1016 atoms, finish time Sat Dec 24 16:30:36 2022


Pair  time (%) = 0.705255 (0.0191469)
Neigh time (%) = 148.867 (4.04157)
Comm  time (%) = 126.382 (3.43114)
Outpt time (%) = 0.000576505 (1.56515e-05)
Other time (%) = 3407.44 (92.5081)

Nlocal:    25.4 ave 168 max 0 min
Histogram: 31 1 0 0 0 1 3 3 0 1
Nghost:    2.1 ave 20 max 0 min
Histogram: 29 3 4 0 1 0 1 1 0 1
Neighs:    0.475 ave 4 max 0 min
Histogram: 32 0 2 0 0 2 0 3 0 1

Total # of neighbors = 19
Ave neighs/atom = 0.0187008
Neighbor list builds = 55032
Dangerous builds = 2647
Setting up run at Sat Dec 24 16:30:36 2022

Memory usage per processor = 964.609 Mbytes
    Step    Atoms         KinEng            CPU 
21604872     1016     0.56922722              0 
21913513      983     0.55764918      3659.7814 
Loop time of 3659.78 on 40 procs for 308641 steps with 983 atoms, finish time Sat Dec 24 17:31:36 2022


Pair  time (%) = 0.692593 (0.0189244)
Neigh time (%) = 139.693 (3.81698)
Comm  time (%) = 113.581 (3.1035)
Outpt time (%) = 0.000630727 (1.7234e-05)
Other time (%) = 3405.81 (93.0606)

Nlocal:    24.575 ave 156 max 0 min
Histogram: 31 1 0 0 0 2 1 2 2 1
Nghost:    2.075 ave 16 max 0 min
Histogram: 26 7 1 2 1 0 0 1 0 2
Neighs:    0.425 ave 5 max 0 min
Histogram: 33 0 2 0 2 0 2 0 0 1

Total # of neighbors = 17
Ave neighs/atom = 0.017294
Neighbor list builds = 51676
Dangerous builds = 2246
Setting up run at Sat Dec 24 17:31:36 2022

Memory usage per processor = 964.609 Mbytes
    Step    Atoms         KinEng            CPU 
21913513      983     0.55764918              0 
22222154      955     0.62390557      3789.4648 
Loop time of 3789.47 on 40 procs for 308641 steps with 955 atoms, finish time Sat Dec 24 18:34:45 2022


Pair  time (%) = 0.695198 (0.0183455)
Neigh time (%) = 178.987 (4.72327)
Comm  time (%) = 175.464 (4.63031)
Outpt time (%) = 0.000530469 (1.39985e-05)
Other time (%) = 3434.32 (90.6281)

Nlocal:    23.875 ave 147 max 0 min
Histogram: 31 1 0 0 0 0 5 0 1 2
Nghost:    1.7 ave 16 max 0 min
Histogram: 31 4 0 1 1 1 0 0 1 1
Neighs:    0.375 ave 4 max 0 min
Histogram: 35 0 0 0 0 1 0 3 0 1

Total # of neighbors = 15
Ave neighs/atom = 0.0157068
Neighbor list builds = 66256
Dangerous builds = 7294
Setting up run at Sat Dec 24 18:34:45 2022

Memory usage per processor = 964.609 Mbytes
    Step    Atoms         KinEng            CPU 
22222154      955     0.62390557              0 
22530795      928      1.5828143      3667.5872 
Loop time of 3667.59 on 40 procs for 308641 steps with 928 atoms, finish time Sat Dec 24 19:35:53 2022


Pair  time (%) = 0.691664 (0.0188588)
Neigh time (%) = 150.454 (4.10226)
Comm  time (%) = 117.337 (3.19931)
Outpt time (%) = 0.000524053 (1.42888e-05)
Other time (%) = 3399.1 (92.6796)

Nlocal:    23.2 ave 152 max 0 min
Histogram: 31 1 0 0 1 2 2 0 1 2
Nghost:    2.1 ave 16 max 0 min
Histogram: 29 3 2 1 1 1 1 0 0 2
Neighs:    0.625 ave 9 max 0 min
Histogram: 34 2 1 0 1 0 0 0 1 1

Total # of neighbors = 25
Ave neighs/atom = 0.0269397
Neighbor list builds = 55683
Dangerous builds = 4607
Setting up run at Sat Dec 24 19:35:53 2022

Memory usage per processor = 964.609 Mbytes
    Step    Atoms         KinEng            CPU 
22530795      928      1.5828143              0 
22839436      898     0.55760993      3676.4268 
Loop time of 3676.43 on 40 procs for 308641 steps with 898 atoms, finish time Sat Dec 24 20:37:09 2022


Pair  time (%) = 0.681772 (0.0185444)
Neigh time (%) = 136.841 (3.72211)
Comm  time (%) = 123.063 (3.34735)
Outpt time (%) = 0.00598765 (0.000162866)
Other time (%) = 3415.84 (92.9118)

Nlocal:    22.45 ave 138 max 0 min
Histogram: 30 2 0 0 0 1 3 1 1 2
Nghost:    1.925 ave 15 max 0 min
Histogram: 29 1 5 1 0 0 1 1 1 1
Neighs:    0.325 ave 6 max 0 min
Histogram: 34 3 0 2 0 0 0 0 0 1

Total # of neighbors = 13
Ave neighs/atom = 0.0144766
Neighbor list builds = 50630
Dangerous builds = 4589
Setting up run at Sat Dec 24 20:37:09 2022

Memory usage per processor = 964.609 Mbytes
    Step    Atoms         KinEng            CPU 
22839436      898     0.55760993              0 
23148077      872     0.54602094      3556.6502 
Loop time of 3556.65 on 40 procs for 308641 steps with 872 atoms, finish time Sat Dec 24 21:36:26 2022


Pair  time (%) = 0.675079 (0.0189808)
Neigh time (%) = 134.201 (3.77324)
Comm  time (%) = 114.848 (3.22911)
Outpt time (%) = 0.000507465 (1.42681e-05)
Other time (%) = 3306.93 (92.9787)

Nlocal:    21.8 ave 130 max 0 min
Histogram: 30 2 0 0 0 1 2 1 2 2
Nghost:    1.95 ave 16 max 0 min
Histogram: 30 2 3 1 0 1 1 0 1 1
Neighs:    0.475 ave 5 max 0 min
Histogram: 34 0 2 0 0 0 0 0 3 1

Total # of neighbors = 19
Ave neighs/atom = 0.021789
Neighbor list builds = 49692
Dangerous builds = 3253
Setting up run at Sat Dec 24 21:36:26 2022

Memory usage per processor = 964.609 Mbytes
    Step    Atoms         KinEng            CPU 
23148077      872     0.54602094              0 
23456718      854       0.618922      3558.0452 
Loop time of 3558.05 on 40 procs for 308641 steps with 854 atoms, finish time Sat Dec 24 22:35:44 2022


Pair  time (%) = 0.668345 (0.018784)
Neigh time (%) = 117.207 (3.29415)
Comm  time (%) = 90.5726 (2.54557)
Outpt time (%) = 0.000568119 (1.59672e-05)
Other time (%) = 3349.6 (94.1415)

Nlocal:    21.35 ave 126 max 0 min
Histogram: 30 2 0 0 0 0 1 5 0 2
Nghost:    1.675 ave 14 max 0 min
Histogram: 32 2 1 0 1 0 0 1 0 3
Neighs:    0.3 ave 2 max 0 min
Histogram: 33 0 0 0 0 2 0 0 0 5

Total # of neighbors = 12
Ave neighs/atom = 0.0140515
Neighbor list builds = 43372
Dangerous builds = 895
Setting up run at Sat Dec 24 22:35:44 2022

Memory usage per processor = 964.609 Mbytes
    Step    Atoms         KinEng            CPU 
23456718      854       0.618922              0 
23765359      828     0.48864516       3562.421 
Loop time of 3562.42 on 40 procs for 308641 steps with 828 atoms, finish time Sat Dec 24 23:35:07 2022


Pair  time (%) = 0.679514 (0.0190745)
Neigh time (%) = 136.425 (3.82955)
Comm  time (%) = 106.575 (2.99165)
Outpt time (%) = 0.000543287 (1.52505e-05)
Other time (%) = 3318.74 (93.1597)

Nlocal:    20.7 ave 128 max 0 min
Histogram: 30 2 0 0 0 1 3 0 2 2
Nghost:    1.725 ave 15 max 0 min
Histogram: 29 4 2 1 0 0 2 0 1 1
Neighs:    0.3 ave 5 max 0 min
Histogram: 34 0 3 0 2 0 0 0 0 1

Total # of neighbors = 12
Ave neighs/atom = 0.0144928
Neighbor list builds = 50489
Dangerous builds = 3914
Setting up run at Sat Dec 24 23:35:07 2022

Memory usage per processor = 964.609 Mbytes
    Step    Atoms         KinEng            CPU 
23765359      828     0.48864516              0 
24074000      800     0.54240839      3680.5896 
Loop time of 3680.59 on 40 procs for 308641 steps with 800 atoms, finish time Sun Dec 25 00:36:28 2022


Pair  time (%) = 0.698997 (0.0189915)
Neigh time (%) = 164.134 (4.45944)
Comm  time (%) = 119.025 (3.23385)
Outpt time (%) = 0.00078825 (2.14164e-05)
Other time (%) = 3396.73 (92.2877)

Nlocal:    20 ave 121 max 0 min
Histogram: 31 1 0 0 0 0 3 3 0 2
Nghost:    1.75 ave 17 max 0 min
Histogram: 29 6 0 1 1 1 0 1 0 1
Neighs:    0.35 ave 6 max 0 min
Histogram: 34 3 0 1 0 1 0 0 0 1

Total # of neighbors = 14
Ave neighs/atom = 0.0175
Neighbor list builds = 60827
Dangerous builds = 5125
Setting up run at Sun Dec 25 00:36:28 2022

Memory usage per processor = 964.609 Mbytes
    Step    Atoms         KinEng            CPU 
24074000      800     0.54240839              0 
24382641      781     0.47981291      3534.5355 
Loop time of 3534.54 on 40 procs for 308641 steps with 781 atoms, finish time Sun Dec 25 01:35:22 2022


Pair  time (%) = 0.6643 (0.0187946)
Neigh time (%) = 128.34 (3.63103)
Comm  time (%) = 105.897 (2.99607)
Outpt time (%) = 0.000463219 (1.31055e-05)
Other time (%) = 3299.63 (93.3541)

Nlocal:    19.525 ave 127 max 0 min
Histogram: 31 1 0 0 0 1 5 0 1 1
Nghost:    1.775 ave 17 max 0 min
Histogram: 29 5 1 1 1 0 2 0 0 1
Neighs:    0.4 ave 4 max 0 min
Histogram: 34 0 1 0 0 1 0 3 0 1

Total # of neighbors = 16
Ave neighs/atom = 0.0204866
Neighbor list builds = 47587
Dangerous builds = 1471
Setting up run at Sun Dec 25 01:35:22 2022

Memory usage per processor = 964.609 Mbytes
    Step    Atoms         KinEng            CPU 
24382641      781     0.47981291              0 
24691282      764     0.52403956      3558.5323 
Loop time of 3558.53 on 40 procs for 308641 steps with 764 atoms, finish time Sun Dec 25 02:34:41 2022


Pair  time (%) = 0.680884 (0.0191338)
Neigh time (%) = 135.495 (3.80762)
Comm  time (%) = 96.9208 (2.72362)
Outpt time (%) = 0.00588327 (0.000165328)
Other time (%) = 3325.43 (93.4495)

Nlocal:    19.1 ave 126 max 0 min
Histogram: 32 0 0 0 0 2 4 0 1 1
Nghost:    1.625 ave 14 max 0 min
Histogram: 33 0 1 1 1 0 0 2 0 2
Neighs:    0.275 ave 2 max 0 min
Histogram: 33 0 0 0 0 3 0 0 0 4

Total # of neighbors = 11
Ave neighs/atom = 0.0143979
Neighbor list builds = 50236
Dangerous builds = 4129
Setting up run at Sun Dec 25 02:34:41 2022

Memory usage per processor = 964.609 Mbytes
    Step    Atoms         KinEng            CPU 
24691282      764     0.52403956              0 
24999923      745     0.51467392      3559.8923 
Loop time of 3559.89 on 40 procs for 308641 steps with 745 atoms, finish time Sun Dec 25 03:34:01 2022


Pair  time (%) = 0.675014 (0.0189616)
Neigh time (%) = 133.133 (3.73982)
Comm  time (%) = 94.3715 (2.65097)
Outpt time (%) = 0.000340563 (9.56665e-06)
Other time (%) = 3331.71 (93.5902)

Nlocal:    18.625 ave 125 max 0 min
Histogram: 32 0 0 0 0 2 3 1 1 1
Nghost:    1.475 ave 16 max 0 min
Histogram: 31 3 1 2 0 2 0 0 0 1
Neighs:    0.275 ave 4 max 0 min
Histogram: 34 0 4 0 0 0 0 1 0 1

Total # of neighbors = 11
Ave neighs/atom = 0.0147651
Neighbor list builds = 49362
Dangerous builds = 4574
Setting up run at Sun Dec 25 03:34:01 2022

Memory usage per processor = 964.609 Mbytes
    Step    Atoms         KinEng            CPU 
24999923      745     0.51467392              0 
25308564      731     0.57558923      3568.5097 
Loop time of 3568.51 on 40 procs for 308641 steps with 731 atoms, finish time Sun Dec 25 04:33:29 2022


Pair  time (%) = 0.678489 (0.0190132)
Neigh time (%) = 136.468 (3.82423)
Comm  time (%) = 102.936 (2.88457)
Outpt time (%) = 0.000546107 (1.53035e-05)
Other time (%) = 3328.43 (93.2722)

Nlocal:    18.275 ave 119 max 0 min
Histogram: 32 0 0 0 0 3 1 2 1 1
Nghost:    1.7 ave 14 max 0 min
Histogram: 30 2 3 0 0 2 1 0 0 2
Neighs:    0.35 ave 3 max 0 min
Histogram: 33 0 0 1 0 0 5 0 0 1

Total # of neighbors = 14
Ave neighs/atom = 0.0191518
Neighbor list builds = 50643
Dangerous builds = 2691
Setting up run at Sun Dec 25 04:33:30 2022

Memory usage per processor = 964.609 Mbytes
    Step    Atoms         KinEng            CPU 
25308564      731     0.57558923              0 
25617205      713     0.49318255       3583.698 
Loop time of 3583.7 on 40 procs for 308641 steps with 713 atoms, finish time Sun Dec 25 05:33:13 2022


Pair  time (%) = 0.669357 (0.0186778)
Neigh time (%) = 139.418 (3.89033)
Comm  time (%) = 113.509 (3.16736)
Outpt time (%) = 0.000581675 (1.62311e-05)
Other time (%) = 3330.1 (92.9236)

Nlocal:    17.825 ave 115 max 0 min
Histogram: 31 1 0 0 1 1 1 2 1 2
Nghost:    1.875 ave 15 max 0 min
Histogram: 28 4 2 1 2 0 1 0 0 2
Neighs:    0.4 ave 5 max 0 min
Histogram: 34 0 2 0 1 0 1 0 1 1

Total # of neighbors = 16
Ave neighs/atom = 0.0224404
Neighbor list builds = 51731
Dangerous builds = 2627
Setting up run at Sun Dec 25 05:33:13 2022

Memory usage per processor = 964.609 Mbytes
    Step    Atoms         KinEng            CPU 
25617205      713     0.49318255              0 
25925846      702     0.53132225      3642.9229 
Loop time of 3642.92 on 40 procs for 308641 steps with 702 atoms, finish time Sun Dec 25 06:33:56 2022


Pair  time (%) = 0.674344 (0.0185111)
Neigh time (%) = 154.162 (4.23182)
Comm  time (%) = 127.321 (3.49503)
Outpt time (%) = 0.000516903 (1.41892e-05)
Other time (%) = 3360.77 (92.2546)

Nlocal:    17.55 ave 118 max 0 min
Histogram: 31 1 0 0 1 1 3 1 1 1
Nghost:    1.625 ave 17 max 0 min
Histogram: 29 4 3 1 0 2 0 0 0 1
Neighs:    0.225 ave 3 max 0 min
Histogram: 35 0 0 2 0 0 2 0 0 1

Total # of neighbors = 9
Ave neighs/atom = 0.0128205
Neighbor list builds = 57221
Dangerous builds = 2214
Setting up run at Sun Dec 25 06:33:56 2022

Memory usage per processor = 964.609 Mbytes
    Step    Atoms         KinEng            CPU 
25925846      702     0.53132225              0 
26234487      687     0.49714998      3859.3763 
Loop time of 3859.38 on 40 procs for 308641 steps with 687 atoms, finish time Sun Dec 25 07:38:16 2022


Pair  time (%) = 0.698157 (0.0180899)
Neigh time (%) = 203.873 (5.28253)
Comm  time (%) = 143.384 (3.7152)
Outpt time (%) = 0.00606702 (0.000157202)
Other time (%) = 3511.42 (90.984)

Nlocal:    17.175 ave 118 max 0 min
Histogram: 32 0 0 0 1 2 2 1 1 1
Nghost:    1.35 ave 15 max 0 min
Histogram: 30 5 2 0 0 0 1 0 1 1
Neighs:    0.3 ave 6 max 0 min
Histogram: 35 3 0 0 0 1 0 0 0 1

Total # of neighbors = 12
Ave neighs/atom = 0.0174672
Neighbor list builds = 75772
Dangerous builds = 2928
Setting up run at Sun Dec 25 07:38:16 2022

Memory usage per processor = 964.609 Mbytes
    Step    Atoms         KinEng            CPU 
26234487      687     0.49714998              0 
26543128      669     0.48815694      3976.9164 
Loop time of 3976.92 on 40 procs for 308641 steps with 669 atoms, finish time Sun Dec 25 08:44:33 2022


Pair  time (%) = 0.717125 (0.0180322)
Neigh time (%) = 228.659 (5.74965)
Comm  time (%) = 158.334 (3.98132)
Outpt time (%) = 0.000526629 (1.32421e-05)
Other time (%) = 3589.21 (90.251)

Nlocal:    16.725 ave 104 max 0 min
Histogram: 32 0 0 0 0 2 1 3 0 2
Nghost:    1.35 ave 12 max 0 min
Histogram: 33 2 0 0 2 0 1 0 0 2
Neighs:    0.275 ave 6 max 0 min
Histogram: 35 3 0 1 0 0 0 0 0 1

Total # of neighbors = 11
Ave neighs/atom = 0.0164425
Neighbor list builds = 85022
Dangerous builds = 4148
Setting up run at Sun Dec 25 08:44:33 2022

Memory usage per processor = 964.609 Mbytes
    Step    Atoms         KinEng            CPU 
26543128      669     0.48815694              0 
26851769      653     0.56164672      3895.5192 
Loop time of 3895.52 on 40 procs for 308641 steps with 653 atoms, finish time Sun Dec 25 09:49:28 2022


Pair  time (%) = 0.691001 (0.0177383)
Neigh time (%) = 209.147 (5.36892)
Comm  time (%) = 160.679 (4.12471)
Outpt time (%) = 0.000556036 (1.42737e-05)
Other time (%) = 3525 (90.4886)

Nlocal:    16.325 ave 103 max 0 min
Histogram: 31 1 0 0 0 0 6 0 0 2
Nghost:    1.475 ave 14 max 0 min
Histogram: 31 3 1 1 1 1 0 0 0 2
Neighs:    0.25 ave 3 max 0 min
Histogram: 34 0 0 3 0 0 2 0 0 1

Total # of neighbors = 10
Ave neighs/atom = 0.0153139
Neighbor list builds = 77795
Dangerous builds = 2017
Setting up run at Sun Dec 25 09:49:28 2022

Memory usage per processor = 964.609 Mbytes
    Step    Atoms         KinEng            CPU 
26851769      653     0.56164672              0 
27160410      639     0.47900577       3847.043 
Loop time of 3847.05 on 40 procs for 308641 steps with 639 atoms, finish time Sun Dec 25 10:53:35 2022


Pair  time (%) = 0.673662 (0.0175111)
Neigh time (%) = 197.859 (5.14313)
Comm  time (%) = 148.217 (3.85274)
Outpt time (%) = 0.0105349 (0.000273844)
Other time (%) = 3500.29 (90.9864)

Nlocal:    15.975 ave 105 max 0 min
Histogram: 32 0 0 0 0 2 4 0 0 2
Nghost:    1.5 ave 15 max 0 min
Histogram: 28 4 5 0 0 0 1 1 0 1
Neighs:    0.275 ave 2 max 0 min
Histogram: 33 0 0 0 0 3 0 0 0 4

Total # of neighbors = 11
Ave neighs/atom = 0.0172144
Neighbor list builds = 73574
Dangerous builds = 1750
Setting up run at Sun Dec 25 10:53:36 2022

Memory usage per processor = 964.609 Mbytes
    Step    Atoms         KinEng            CPU 
27160410      639     0.47900577              0 
27469051      631     0.49108455      3633.0645 
Loop time of 3633.06 on 40 procs for 308641 steps with 631 atoms, finish time Sun Dec 25 11:54:09 2022


Pair  time (%) = 0.65242 (0.0179578)
Neigh time (%) = 147.805 (4.06833)
Comm  time (%) = 123.142 (3.38948)
Outpt time (%) = 0.000510796 (1.40597e-05)
Other time (%) = 3361.46 (92.5242)

Nlocal:    15.775 ave 105 max 0 min
Histogram: 31 1 0 0 2 0 2 2 1 1
Nghost:    1.7 ave 14 max 0 min
Histogram: 27 4 5 0 1 0 0 1 0 2
Neighs:    0.2 ave 2 max 0 min
Histogram: 34 0 0 0 0 4 0 0 0 2

Total # of neighbors = 8
Ave neighs/atom = 0.0126783
Neighbor list builds = 54877
Dangerous builds = 3663
Setting up run at Sun Dec 25 11:54:09 2022

Memory usage per processor = 964.609 Mbytes
    Step    Atoms         KinEng            CPU 
27469051      631     0.49108455              0 
27777692      617     0.48617951       3585.388 
Loop time of 3585.39 on 40 procs for 308641 steps with 617 atoms, finish time Sun Dec 25 12:53:54 2022


Pair  time (%) = 0.650975 (0.0181563)
Neigh time (%) = 140.953 (3.9313)
Comm  time (%) = 107.028 (2.98511)
Outpt time (%) = 0.000519153 (1.44797e-05)
Other time (%) = 3336.76 (93.0654)

Nlocal:    15.425 ave 100 max 0 min
Histogram: 30 2 0 0 1 1 2 2 1 1
Nghost:    1.525 ave 17 max 0 min
Histogram: 32 3 1 0 0 2 0 1 0 1
Neighs:    0.3 ave 3 max 0 min
Histogram: 34 0 0 2 0 0 2 0 0 2

Total # of neighbors = 12
Ave neighs/atom = 0.0194489
Neighbor list builds = 52349
Dangerous builds = 587
Setting up run at Sun Dec 25 12:53:54 2022

Memory usage per processor = 964.609 Mbytes
    Step    Atoms         KinEng            CPU 
27777692      617     0.48617951              0 
28086333      599     0.44267889       3593.415 
Loop time of 3593.41 on 40 procs for 308641 steps with 599 atoms, finish time Sun Dec 25 13:53:48 2022


Pair  time (%) = 0.661986 (0.0184222)
Neigh time (%) = 145.245 (4.04199)
Comm  time (%) = 92.6642 (2.57872)
[...]
Histogram: 39 0 0 0 0 0 0 0 0 1

Total # of neighbors = 2
Ave neighs/atom = 0.00625
Neighbor list builds = 43567
Dangerous builds = 399
Setting up run at Mon Dec 26 21:41:32 2022

Memory usage per processor = 964.609 Mbytes
    Step    Atoms         KinEng            CPU 
37962941      320     0.42361549              0 
38271582      312     0.43882414        3527.26 
Loop time of 3527.26 on 40 procs for 308641 steps with 312 atoms, finish time Mon Dec 26 22:40:19 2022


Pair  time (%) = 0.616036 (0.017465)
Neigh time (%) = 125.715 (3.56411)
Comm  time (%) = 81.2144 (2.30248)
Outpt time (%) = 0.000494341 (1.40149e-05)
Other time (%) = 3319.71 (94.1159)

Nlocal:    7.8 ave 64 max 0 min
Histogram: 30 2 0 3 1 1 1 1 0 1
Nghost:    0.9 ave 8 max 0 min
Histogram: 30 3 2 0 0 2 0 1 1 1
Neighs:    0.075 ave 2 max 0 min
Histogram: 38 0 0 0 0 1 0 0 0 1

Total # of neighbors = 3
Ave neighs/atom = 0.00961538
Neighbor list builds = 46803
Dangerous builds = 38
Setting up run at Mon Dec 26 22:40:20 2022

Memory usage per processor = 964.609 Mbytes
    Step    Atoms         KinEng            CPU 
38271582      312     0.43882414              0 
38580223      303     0.42935416      3410.7051 
Loop time of 3410.71 on 40 procs for 308641 steps with 303 atoms, finish time Mon Dec 26 23:37:10 2022


Pair  time (%) = 0.615389 (0.0180429)
Neigh time (%) = 103.049 (3.02133)
Comm  time (%) = 55.2874 (1.621)
Outpt time (%) = 0.000481367 (1.41134e-05)
Other time (%) = 3251.75 (95.3396)

Nlocal:    7.575 ave 62 max 0 min
Histogram: 31 2 0 2 2 0 0 1 1 1
Nghost:    0.825 ave 8 max 0 min
Histogram: 28 5 3 1 0 0 1 1 0 1
Neighs:    0.05 ave 1 max 0 min
Histogram: 38 0 0 0 0 0 0 0 0 2

Total # of neighbors = 2
Ave neighs/atom = 0.00660066
Neighbor list builds = 38400
Dangerous builds = 813
Setting up run at Mon Dec 26 23:37:10 2022

Memory usage per processor = 964.609 Mbytes
    Step    Atoms         KinEng            CPU 
38580223      303     0.42935416              0 
38888864      295      0.3865117      3430.3982 
Loop time of 3430.4 on 40 procs for 308641 steps with 295 atoms, finish time Tue Dec 27 00:34:21 2022


Pair  time (%) = 0.614411 (0.0179108)
Neigh time (%) = 107.557 (3.13542)
Comm  time (%) = 56.8147 (1.65621)
Outpt time (%) = 0.0113459 (0.000330745)
Other time (%) = 3265.4 (95.1901)

Nlocal:    7.375 ave 60 max 0 min
Histogram: 30 2 1 1 2 1 1 1 0 1
Nghost:    0.85 ave 7 max 0 min
Histogram: 29 5 0 0 2 0 0 2 1 1
Neighs:    0 ave 0 max 0 min
Histogram: 40 0 0 0 0 0 0 0 0 0

Total # of neighbors = 0
Ave neighs/atom = 0
Neighbor list builds = 40110
Dangerous builds = 905
Setting up run at Tue Dec 27 00:34:21 2022

Memory usage per processor = 964.609 Mbytes
    Step    Atoms         KinEng            CPU 
38888864      295      0.3865117              0 
39197505      286     0.36965029      3391.4631 
Loop time of 3391.46 on 40 procs for 308641 steps with 286 atoms, finish time Tue Dec 27 01:30:53 2022


Pair  time (%) = 0.615145 (0.018138)
Neigh time (%) = 99.3398 (2.92911)
Comm  time (%) = 54.185 (1.59769)
Outpt time (%) = 0.00601042 (0.000177222)
Other time (%) = 3237.32 (95.4549)

Nlocal:    7.15 ave 60 max 0 min
Histogram: 31 1 2 2 0 1 1 1 0 1
Nghost:    0.8 ave 7 max 0 min
Histogram: 29 4 2 0 1 1 0 2 0 1
Neighs:    0.025 ave 1 max 0 min
Histogram: 39 0 0 0 0 0 0 0 0 1

Total # of neighbors = 1
Ave neighs/atom = 0.0034965
Neighbor list builds = 37067
Dangerous builds = 353
Setting up run at Tue Dec 27 01:30:53 2022

Memory usage per processor = 964.609 Mbytes
    Step    Atoms         KinEng            CPU 
39197505      286     0.36965029              0 
39506146      280     0.40078022      3364.4713 
Loop time of 3364.47 on 40 procs for 308641 steps with 280 atoms, finish time Tue Dec 27 02:26:57 2022


Pair  time (%) = 0.610126 (0.0181344)
Neigh time (%) = 94.0476 (2.79532)
Comm  time (%) = 57.0089 (1.69444)
Outpt time (%) = 0.000533446 (1.58553e-05)
Other time (%) = 3212.8 (95.4921)

Nlocal:    7 ave 61 max 0 min
Histogram: 31 1 3 1 1 0 1 1 0 1
Nghost:    0.625 ave 5 max 0 min
Histogram: 30 0 4 0 2 0 1 0 1 2
Neighs:    0.05 ave 1 max 0 min
Histogram: 38 0 0 0 0 0 0 0 0 2

Total # of neighbors = 2
Ave neighs/atom = 0.00714286
Neighbor list builds = 35058
Dangerous builds = 2106
Setting up run at Tue Dec 27 02:26:57 2022

Memory usage per processor = 964.609 Mbytes
    Step    Atoms         KinEng            CPU 
39506146      280     0.40078022              0 
39814787      272     0.40620563      3459.5584 
Loop time of 3459.56 on 40 procs for 308641 steps with 272 atoms, finish time Tue Dec 27 03:24:37 2022


Pair  time (%) = 0.618739 (0.0178849)
Neigh time (%) = 113.683 (3.28606)
Comm  time (%) = 70.8287 (2.04733)
Outpt time (%) = 0.00053959 (1.55971e-05)
Other time (%) = 3274.43 (94.6487)

Nlocal:    6.8 ave 54 max 0 min
Histogram: 31 1 2 2 0 1 0 1 0 2
Nghost:    0.675 ave 5 max 0 min
Histogram: 28 0 5 0 3 0 1 0 2 1
Neighs:    0 ave 0 max 0 min
Histogram: 40 0 0 0 0 0 0 0 0 0

Total # of neighbors = 0
Ave neighs/atom = 0
Neighbor list builds = 42360
Dangerous builds = 3707
Setting up run at Tue Dec 27 03:24:37 2022

Memory usage per processor = 964.609 Mbytes
    Step    Atoms         KinEng            CPU 
39814787      272     0.40620563              0 
40123428      263     0.40425574      3332.4974 
Loop time of 3332.5 on 40 procs for 308641 steps with 263 atoms, finish time Tue Dec 27 04:20:09 2022


Pair  time (%) = 0.606082 (0.018187)
Neigh time (%) = 87.0543 (2.61228)
Comm  time (%) = 46.8368 (1.40546)
Outpt time (%) = 0.000265134 (7.956e-06)
Other time (%) = 3198 (95.9641)

Nlocal:    6.575 ave 51 max 0 min
Histogram: 31 0 2 3 0 1 1 0 0 2
Nghost:    0.875 ave 6 max 0 min
Histogram: 29 3 0 3 0 0 2 0 0 3
Neighs:    0.05 ave 2 max 0 min
Histogram: 39 0 0 0 0 0 0 0 0 1

Total # of neighbors = 2
Ave neighs/atom = 0.00760456
Neighbor list builds = 32446
Dangerous builds = 562
Setting up run at Tue Dec 27 04:20:09 2022

Memory usage per processor = 964.609 Mbytes
    Step    Atoms         KinEng            CPU 
40123428      263     0.40425574              0 
40432069      258     0.41641941      3359.4542 
Loop time of 3359.45 on 40 procs for 308641 steps with 258 atoms, finish time Tue Dec 27 05:16:09 2022


Pair  time (%) = 0.610857 (0.0181832)
Neigh time (%) = 90.3228 (2.68861)
Comm  time (%) = 44.2685 (1.31773)
Outpt time (%) = 0.00607981 (0.000180976)
Other time (%) = 3224.25 (95.9753)

Nlocal:    6.45 ave 52 max 0 min
Histogram: 31 1 2 2 0 1 0 1 1 1
Nghost:    0.675 ave 7 max 0 min
Histogram: 32 3 1 0 0 1 0 1 1 1
Neighs:    0.025 ave 1 max 0 min
Histogram: 39 0 0 0 0 0 0 0 0 1

Total # of neighbors = 1
Ave neighs/atom = 0.00387597
Neighbor list builds = 33679
Dangerous builds = 479
Setting up run at Tue Dec 27 05:16:09 2022

Memory usage per processor = 964.609 Mbytes
    Step    Atoms         KinEng            CPU 
40432069      258     0.41641941              0 
40740710      253      0.3999077      3349.9375 
Loop time of 3349.94 on 40 procs for 308641 steps with 253 atoms, finish time Tue Dec 27 06:11:59 2022


Pair  time (%) = 0.611013 (0.0182395)
Neigh time (%) = 89.5539 (2.6733)
Comm  time (%) = 45.1963 (1.34917)
Outpt time (%) = 0.000505163 (1.50798e-05)
Other time (%) = 3214.58 (95.9593)

Nlocal:    6.325 ave 57 max 0 min
Histogram: 31 0 4 1 0 2 0 1 0 1
Nghost:    0.775 ave 7 max 0 min
Histogram: 30 3 2 0 1 1 0 2 0 1
Neighs:    0.025 ave 1 max 0 min
Histogram: 39 0 0 0 0 0 0 0 0 1

Total # of neighbors = 1
Ave neighs/atom = 0.00395257
Neighbor list builds = 33394
Dangerous builds = 891
Setting up run at Tue Dec 27 06:11:59 2022

Memory usage per processor = 964.609 Mbytes
    Step    Atoms         KinEng            CPU 
40740710      253      0.3999077              0 
41049351      253     0.43775891      3408.5035 
Loop time of 3408.5 on 40 procs for 308641 steps with 253 atoms, finish time Tue Dec 27 07:08:48 2022


Pair  time (%) = 0.61444 (0.0180267)
Neigh time (%) = 102.711 (3.01339)
Comm  time (%) = 54.8059 (1.60792)
Outpt time (%) = 0.00597468 (0.000175287)
Other time (%) = 3250.37 (95.3605)

Nlocal:    6.325 ave 56 max 0 min
Histogram: 31 2 2 0 2 0 1 1 0 1
Nghost:    0.725 ave 7 max 0 min
Histogram: 31 3 2 0 0 1 0 1 1 1
Neighs:    0 ave 0 max 0 min
Histogram: 40 0 0 0 0 0 0 0 0 0

Total # of neighbors = 0
Ave neighs/atom = 0
Neighbor list builds = 38331
Dangerous builds = 0
Setting up run at Tue Dec 27 07:08:48 2022

Memory usage per processor = 964.609 Mbytes
    Step    Atoms         KinEng            CPU 
41049351      253     0.43775891              0 
41357992      249     0.49531247      3332.2796 
Loop time of 3332.28 on 40 procs for 308641 steps with 249 atoms, finish time Tue Dec 27 08:04:20 2022


Pair  time (%) = 0.610815 (0.0183302)
Neigh time (%) = 85.7793 (2.57419)
Comm  time (%) = 39.0681 (1.17241)
Outpt time (%) = 0.000518746 (1.55673e-05)
Other time (%) = 3206.82 (96.235)

Nlocal:    6.225 ave 58 max 0 min
Histogram: 31 1 3 1 0 2 1 0 0 1
Nghost:    0.675 ave 7 max 0 min
Histogram: 31 3 2 0 0 2 0 1 0 1
Neighs:    0 ave 0 max 0 min
Histogram: 40 0 0 0 0 0 0 0 0 0

Total # of neighbors = 0
Ave neighs/atom = 0
Neighbor list builds = 31985
Dangerous builds = 739
Setting up run at Tue Dec 27 08:04:20 2022

Memory usage per processor = 964.609 Mbytes
    Step    Atoms         KinEng            CPU 
41357992      249     0.49531247              0 
41666633      245     0.46318472      3367.1551 
Loop time of 3367.16 on 40 procs for 308641 steps with 245 atoms, finish time Tue Dec 27 09:00:27 2022


Pair  time (%) = 0.610701 (0.018137)
Neigh time (%) = 87.0157 (2.58425)
Comm  time (%) = 42.3473 (1.25766)
Outpt time (%) = 0.00057934 (1.72056e-05)
Other time (%) = 3237.18 (96.1399)

Nlocal:    6.125 ave 56 max 0 min
Histogram: 32 1 2 2 0 0 0 2 0 1
Nghost:    0.75 ave 5 max 0 min
Histogram: 30 0 4 0 0 0 1 0 2 3
Neighs:    0.05 ave 2 max 0 min
Histogram: 39 0 0 0 0 0 0 0 0 1

Total # of neighbors = 2
Ave neighs/atom = 0.00816327
Neighbor list builds = 32428
Dangerous builds = 1558
Setting up run at Tue Dec 27 09:00:27 2022

Memory usage per processor = 964.609 Mbytes
    Step    Atoms         KinEng            CPU 
41666633      245     0.46318472              0 
41975274      237     0.47817598      3449.6126 
Loop time of 3449.61 on 40 procs for 308641 steps with 237 atoms, finish time Tue Dec 27 09:57:57 2022


Pair  time (%) = 0.616401 (0.0178687)
Neigh time (%) = 107.894 (3.1277)
Comm  time (%) = 54.3185 (1.57463)
Outpt time (%) = 0.000515777 (1.49517e-05)
Other time (%) = 3286.78 (95.2798)

Nlocal:    5.925 ave 52 max 0 min
Histogram: 31 1 1 3 1 1 0 0 1 1
Nghost:    0.7 ave 6 max 0 min
Histogram: 31 3 0 1 0 1 1 0 2 1
Neighs:    0 ave 0 max 0 min
Histogram: 40 0 0 0 0 0 0 0 0 0

Total # of neighbors = 0
Ave neighs/atom = 0
Neighbor list builds = 40262
Dangerous builds = 202
Setting up run at Tue Dec 27 09:57:57 2022

Memory usage per processor = 964.609 Mbytes
    Step    Atoms         KinEng            CPU 
41975274      237     0.47817598              0 
42283915      234     0.46478267      3376.1184 
Loop time of 3376.12 on 40 procs for 308641 steps with 234 atoms, finish time Tue Dec 27 10:54:13 2022


Pair  time (%) = 0.612074 (0.0181295)
Neigh time (%) = 90.7537 (2.68811)
Comm  time (%) = 37.998 (1.12549)
Outpt time (%) = 0.00024757 (7.33297e-06)
Other time (%) = 3246.75 (96.1683)

Nlocal:    5.85 ave 53 max 0 min
Histogram: 31 2 2 1 1 0 1 0 1 1
Nghost:    0.675 ave 6 max 0 min
Histogram: 28 8 0 0 0 1 0 0 2 1
Neighs:    0.075 ave 1 max 0 min
Histogram: 37 0 0 0 0 0 0 0 0 3

Total # of neighbors = 3
Ave neighs/atom = 0.0128205
Neighbor list builds = 33858
Dangerous builds = 730
Setting up run at Tue Dec 27 10:54:13 2022

Memory usage per processor = 964.609 Mbytes
    Step    Atoms         KinEng            CPU 
42283915      234     0.46478267              0 
42592556      231     0.52476797      3353.2984 
Loop time of 3353.3 on 40 procs for 308641 steps with 231 atoms, finish time Tue Dec 27 11:50:07 2022


Pair  time (%) = 0.601796 (0.0179464)
Neigh time (%) = 78.9537 (2.35451)
Comm  time (%) = 37.1145 (1.10681)
Outpt time (%) = 0.00054032 (1.61131e-05)
Other time (%) = 3236.63 (96.5207)

Nlocal:    5.775 ave 54 max 0 min
Histogram: 31 1 3 2 0 1 0 1 0 1
Nghost:    0.7 ave 6 max 0 min
Histogram: 29 3 0 4 0 2 0 0 1 1
Neighs:    0 ave 0 max 0 min
Histogram: 40 0 0 0 0 0 0 0 0 0

Total # of neighbors = 0
Ave neighs/atom = 0
Neighbor list builds = 29469
Dangerous builds = 187
Setting up run at Tue Dec 27 11:50:07 2022

Memory usage per processor = 964.609 Mbytes
    Step    Atoms         KinEng            CPU 
42592556      231     0.52476797              0 
42901197      227     0.50564896      3318.9112 
Loop time of 3318.91 on 40 procs for 308641 steps with 227 atoms, finish time Tue Dec 27 12:45:26 2022


Pair  time (%) = 0.604565 (0.0182158)
Neigh time (%) = 80.2712 (2.4186)
Comm  time (%) = 37.8509 (1.14046)
Outpt time (%) = 0.000512803 (1.54509e-05)
Other time (%) = 3200.18 (96.4227)

Nlocal:    5.675 ave 48 max 0 min
Histogram: 31 1 2 2 0 2 0 0 1 1
slurmstepd: error: *** JOB 14676680 ON r07c25 CANCELLED AT 2022-12-27T15:34:16 DUE TO TIME LIMIT ***
srun: Job step aborted: Waiting up to 62 seconds for job step to finish.
slurmstepd: error: *** STEP 14676680.0 ON r07c25 CANCELLED AT 2022-12-27T15:34:16 DUE TO TIME LIMIT ***

SIGINT/SIGTERM caught - Writing restart on next occasion and quitting after that.

SIGINT/SIGTERM caught - Writing restart on next occasion and quitting after that.

SIGINT/SIGTERM caught - Writing restart on next occasion and quitting after that.

SIGINT/SIGTERM caught - Writing restart on next occasion and quitting after that.

SIGINT/SIGTERM caught - Writing restart on next occasion and quitting after that.

SIGINT/SIGTERM caught - Writing restart on next occasion and quitting after that.

SIGINT/SIGTERM caught - Writing restart on next occasion and quitting after that.

SIGINT/SIGTERM caught - Writing restart on next occasion and quitting after that.

SIGINT/SIGTERM caught - Writing restart on next occasion and quitting after that.

SIGINT/SIGTERM caught - Writing restart on next occasion and quitting after that.

SIGINT/SIGTERM caught - Writing restart on next occasion and quitting after that.

SIGINT/SIGTERM caught - Writing restart on next occasion and quitting after that.

SIGINT/SIGTERM caught - Writing restart on next occasion and quitting after that.

SIGINT/SIGTERM caught - Writing restart on next occasion and quitting after that.

SIGINT/SIGTERM caught - Writing restart on next occasion and quitting after that.

SIGINT/SIGTERM caught - Writing restart on next occasion and quitting after that.

SIGINT/SIGTERM caught - Writing restart on next occasion and quitting after that.

SIGINT/SIGTERM caught - Writing restart on next occasion and quitting after that.

SIGINT/SIGTERM caught - Writing restart on next occasion and quitting after that.

SIGINT/SIGTERM caught - Writing restart on next occasion and quitting after that.

SIGINT/SIGTERM caught - Writing restart on next occasion and quitting after that.

SIGINT/SIGTERM caught - Writing restart on next occasion and quitting after that.

SIGINT/SIGTERM caught - Writing restart on next occasion and quitting after that.

SIGINT/SIGTERM caught - Writing restart on next occasion and quitting after that.

SIGINT/SIGTERM caught - Writing restart on next occasion and quitting after that.

SIGINT/SIGTERM caught - Writing restart on next occasion and quitting after that.
Nghost:    0
SIGINT/SIGTERM caught - Writing restart on next occasion and quitting after that.

SIGINT/SIGTERM caught - Writing restart on next occasion and quitting after that.

SIGINT/SIGTERM caught - Writing restart on next occasion and quitting after that.

SIGINT/SIGTERM caught - Writing restart on next occasion and quitting after that.

SIGINT/SIGTERM caught - Writing restart on next occasion and quitting after that.

SIGINT/SIGTERM caught - Writing restart on next occasion and quitting after that.

SIGINT/SIGTERM caught - Writing restart on next occasion and quitting after that.

SIGINT/SIGTERM caught - Writing restart on next occasion and quitting after that.

SIGINT/SIGTERM caught - Writing restart on next occasion and quitting after that.

SIGINT/SIGTERM caught - Writing restart on next occasion and quitting after that.

SIGINT/SIGTERM caught - Writing restart on next occasion and quitting after that.

SIGINT/SIGTERM caught - Writing restart on next occasion and quitting after that.

SIGINT/SIGTERM caught - Writing restart on next occasion and quitting after that.

SIGINT/SIGTERM caught - Writing restart on next occasion and quitting after that.

SIGINT/SIGTERM caught - Writing restart on next occasion and quitting after that.

SIGINT/SIGTERM caught - Writing restart on next occasion and quitting after that.

SIGINT/SIGTERM caught - Writing restart on next occasion and quitting after that.

SIGINT/SIGTERM caught - Writing restart on next occasion and quitting after that.

SIGINT/SIGTERM caught - Writing restart on next occasion and quitting after that.

SIGINT/SIGTERM caught - Writing restart on next occasion and quitting after that.

SIGINT/SIGTERM caught - Writing restart on next occasion and quitting after that.

SIGINT/SIGTERM caught - Writing restart on next occasion and quitting after that.

SIGINT/SIGTERM caught - Writing restart on next occasion and quitting after that.

SIGINT/SIGTERM caught - Writing restart on next occasion and quitting after that.

SIGINT/SIGTERM caught - Writing restart on next occasion and quitting after that.

SIGINT/SIGTERM caught - Writing restart on next occasion and quitting after that.

SIGINT/SIGTERM caught - Writing restart on next occasion and quitting after that.

SIGINT/SIGTERM caught - Writing restart on next occasion and quitting after that.

SIGINT/SIGTERM caught - Writing restart on next occasion and quitting after that.

SIGINT/SIGTERM caught - Writing restart on next occasion and quitting after that.

SIGINT/SIGTERM caught - Writing restart on next occasion and quitting after that.

SIGINT/SIGTERM caught - Writing restart on next occasion and quitting after that.

SIGINT/SIGTERM caught - Writing restart on next occasion and quitting after that.

SIGINT/SIGTERM caught - Writing restart on next occasion and quitting after that.

SIGINT/SIGTERM caught - Writing restart on next occasion and quitting after that.

SIGINT/SIGTERM caught - Writing restart on next occasion and quitting after that.

SIGINT/SIGTERM caught - Writing restart on next occasion and quitting after that.

SIGINT/SIGTERM caught - Writing restart on next occasion and quitting after that.

SIGINT/SIGTERM caught - Writing restart on next occasion and quitting after that.

SIGINT/SIGTERM caught - Writing restart on next occasion and quitting after that.

SIGINT/SIGTERM caught - Writing restart on next occasion and quitting after that.

SIGINT/SIGTERM caught - Writing restart on next occasion and quitting after that.

SIGINT/SIGTERM caught - Writing restart on next occasion and quitting after that.

SIGINT/SIGTERM caught - Writing restart on next occasion and quitting after that.

SIGINT/SIGTERM caught - Writing restart on next occasion and quitting after that.

SIGINT/SIGTERM caught - Writing restart on next occasion and quitting after that.

SIGINT/SIGTERM caught - Writing restart on next occasion and quitting after that.

SIGINT/SIGTERM caught - Writing restart on next occasion and quitting after that.

SIGINT/SIGTERM caught - Writing restart on next occasion and quitting after that.

SIGINT/SIGTERM caught - Writing restart on next occasion and quitting after that.

SIGINT/SIGTERM caught - Writing restart on next occasion and quitting after that.

SIGINT/SIGTERM caught - Writing restart on next occasion and quitting after that.

SIGINT/SIGTERM caught - Writing restart on next occasion and quitting after that.

SIGINT/SIGTERM caught - Writing restart on next occasion and quitting after that.
