ITEM: TIMESTEP
1
ITEM: NUMBER OF ATOMS
522
ITEM: BOX BOUNDS ff ff ff
-0.150000 0.150000 
-0.150000 0.019331 
-0.150000 0.150000 
ITEM: ATOMS id type x y z radius vx vy vz
1 1 0.003389 0.008309 0.012157 0.001312 0.000000 -0.000588 0.000000 
2 1 -0.003312 0.005850 -0.000225 0.001312 0.000000 -0.000588 0.000000 
3 1 -0.008334 0.004472 -0.010637 0.001312 0.000000 -0.000588 0.000000 
4 1 -0.011465 0.012578 -0.006478 0.001312 0.000000 -0.000588 0.000000 
5 1 -0.005069 0.005299 0.013627 0.001312 0.000000 -0.000588 0.000000 
6 1 -0.006284 0.009757 -0.013069 0.001312 0.000000 -0.000588 0.000000 
7 1 0.006160 0.006884 -0.003369 0.001312 0.000000 -0.000588 0.000000 
8 1 0.002982 0.012896 -0.014222 0.001312 0.000000 -0.000588 0.000000 
9 1 0.004836 0.011847 0.012037 0.001312 0.000000 -0.000588 0.000000 
10 1 0.000504 0.000332 0.001386 0.001312 0.000000 -0.000588 0.000000 
11 1 -0.001223 0.003550 -0.012911 0.001312 0.000000 -0.000588 0.000000 
12 1 -0.000651 0.010181 -0.010343 0.001312 0.000000 -0.000588 0.000000 
13 1 0.011381 -0.000214 0.005461 0.001312 0.000000 -0.000588 0.000000 
14 1 -0.000863 0.011783 0.005980 0.001312 0.000000 -0.000588 0.000000 
15 1 0.015337 -0.000850 0.002277 0.001312 0.000000 -0.000588 0.000000 
16 1 -0.004067 0.012214 -0.012517 0.001312 0.000000 -0.000588 0.000000 
17 1 0.005484 0.012810 0.002631 0.001312 0.000000 -0.000588 0.000000 
18 1 -0.006986 0.005087 -0.013120 0.001312 0.000000 -0.000588 0.000000 
19 1 -0.001743 0.005304 -0.003089 0.001312 0.000000 -0.000588 0.000000 
20 1 0.001895 0.007261 -0.005298 0.001312 0.000000 -0.000588 0.000000 
21 1 0.002721 0.007747 0.014702 0.001312 0.000000 -0.000588 0.000000 
22 1 0.007761 0.007856 -0.010843 0.001312 0.000000 -0.000588 0.000000 
23 1 -0.011692 0.006909 -0.008759 0.001312 0.000000 -0.000588 0.000000 
24 1 -0.011390 0.005002 0.003960 0.001312 0.000000 -0.000588 0.000000 
25 1 -0.003103 0.001620 -0.002159 0.001312 0.000000 -0.000588 0.000000 
26 1 0.012205 0.007112 0.003353 0.001312 0.000000 -0.000588 0.000000 
27 1 -0.010021 0.000222 0.003213 0.001312 0.000000 -0.000588 0.000000 
28 1 0.002983 0.010459 -0.004225 0.001312 0.000000 -0.000588 0.000000 
29 1 -0.012598 -0.001706 -0.000686 0.001312 0.000000 -0.000588 0.000000 
30 1 0.002153 0.001874 0.004009 0.001312 0.000000 -0.000588 0.000000 
31 1 0.005162 0.006640 -0.000787 0.001312 0.000000 -0.000588 0.000000 
32 1 -0.004910 0.003560 0.007611 0.001312 0.000000 -0.000588 0.000000 
33 1 0.000247 0.006499 0.015612 0.001312 0.000000 -0.000588 0.000000 
34 1 0.010278 0.005087 0.006216 0.001312 0.000000 -0.000588 0.000000 
35 1 -0.006004 0.000759 -0.002238 0.001312 0.000000 -0.000588 0.000000 
36 1 0.003938 -0.001369 0.005370 0.001312 0.000000 -0.000588 0.000000 
37 1 -0.005638 0.007469 -0.004504 0.001312 0.000000 -0.000588 0.000000 
38 1 -0.008172 0.000992 0.007827 0.001312 0.000000 -0.000588 0.000000 
39 1 0.009852 0.004613 0.002856 0.001312 0.000000 -0.000588 0.000000 
40 1 0.013785 0.010372 -0.007094 0.001312 0.000000 -0.000588 0.000000 
41 1 -0.013793 0.009639 -0.003576 0.001312 0.000000 -0.000588 0.000000 
42 1 -0.000825 -0.000287 -0.014225 0.001312 0.000000 -0.000588 0.000000 
43 1 0.004818 0.012332 -0.005920 0.001312 0.000000 -0.000588 0.000000 
44 1 0.008171 0.008532 0.010524 0.001312 0.000000 -0.000588 0.000000 
45 1 -0.011864 0.009380 0.004858 0.001312 0.000000 -0.000588 0.000000 
46 1 -0.009590 0.010784 -0.010713 0.001312 0.000000 -0.000588 0.000000 
47 1 -0.008396 0.001364 0.000082 0.001312 0.000000 -0.000588 0.000000 
48 1 -0.007267 0.007428 -0.011007 0.001312 0.000000 -0.000588 0.000000 
49 1 0.007094 0.008234 -0.006113 0.001312 0.000000 -0.000588 0.000000 
50 1 0.012567 -0.001942 -0.005084 0.001312 0.000000 -0.000588 0.000000 
51 1 0.007876 0.003510 -0.008855 0.001312 0.000000 -0.000588 0.000000 
52 1 -0.004382 0.012365 -0.009794 0.001312 0.000000 -0.000588 0.000000 
53 1 -0.003722 0.004183 -0.010854 0.001312 0.000000 -0.000588 0.000000 
54 1 -0.007011 -0.001693 -0.011028 0.001312 0.000000 -0.000588 0.000000 
55 1 -0.015511 0.012454 0.000026 0.001312 0.000000 -0.000588 0.000000 
56 1 -0.003328 0.012492 -0.003915 0.001312 0.000000 -0.000588 0.000000 
57 1 0.003265 0.011810 -0.011183 0.001312 0.000000 -0.000588 0.000000 
58 1 0.003648 0.003957 -0.003983 0.001312 0.000000 -0.000588 0.000000 
59 1 0.002964 0.006680 0.006236 0.001312 0.000000 -0.000588 0.000000 
60 1 -0.014721 -0.000979 0.001687 0.000847 0.000000 -0.000588 0.000000 
61 1 -0.003065 0.003287 0.004920 0.000847 0.000000 -0.000588 0.000000 
62 1 0.011190 -0.000491 -0.002548 0.000847 0.000000 -0.000588 0.000000 
63 1 0.005085 0.000932 -0.010718 0.000847 0.000000 -0.000588 0.000000 
64 1 0.009309 0.009553 0.002118 0.000847 0.000000 -0.000588 0.000000 
65 1 0.004115 -0.000276 -0.012961 0.000847 0.000000 -0.000588 0.000000 
66 1 -0.000212 0.009441 0.006779 0.000847 0.000000 -0.000588 0.000000 
67 1 0.004090 0.010268 -0.013033 0.000847 0.000000 -0.000588 0.000000 
68 1 -0.012705 0.012465 0.006672 0.000847 0.000000 -0.000588 0.000000 
69 1 -0.006481 0.009726 -0.004342 0.000847 0.000000 -0.000588 0.000000 
70 1 0.004393 0.009481 0.010617 0.000847 0.000000 -0.000588 0.000000 
71 1 0.006286 0.005294 -0.006456 0.000847 0.000000 -0.000588 0.000000 
72 1 -0.002601 0.006943 -0.009363 0.000847 0.000000 -0.000588 0.000000 
73 1 -0.008015 0.000848 0.010091 0.000847 0.000000 -0.000588 0.000000 
74 1 0.005634 0.001538 0.002891 0.000847 0.000000 -0.000588 0.000000 
75 1 -0.000353 0.012663 0.015695 0.000847 0.000000 -0.000588 0.000000 
76 1 0.006732 0.000557 -0.013289 0.000847 0.000000 -0.000588 0.000000 
77 1 0.012143 0.009750 0.001212 0.000847 0.000000 -0.000588 0.000000 
78 1 0.008368 0.006015 -0.002132 0.000847 0.000000 -0.000588 0.000000 
79 1 -0.011021 -0.001297 0.010853 0.000847 0.000000 -0.000588 0.000000 
80 1 0.014639 0.012303 -0.000933 0.000847 0.000000 -0.000588 0.000000 
81 1 -0.005019 0.010763 -0.004739 0.000847 0.000000 -0.000588 0.000000 
82 1 0.004080 0.010573 -0.000778 0.000847 0.000000 -0.000588 0.000000 
83 1 -0.012990 0.007516 -0.006744 0.000847 0.000000 -0.000588 0.000000 
84 1 0.003792 -0.001836 -0.001327 0.000847 0.000000 -0.000588 0.000000 
85 1 -0.002674 -0.000333 0.014160 0.000847 0.000000 -0.000588 0.000000 
86 1 0.014892 0.005003 0.003820 0.000847 0.000000 -0.000588 0.000000 
87 1 0.013630 0.011892 0.003117 0.000847 0.000000 -0.000588 0.000000 
88 1 -0.000071 0.006542 0.006733 0.000847 0.000000 -0.000588 0.000000 
89 1 0.005483 0.010730 -0.011097 0.000847 0.000000 -0.000588 0.000000 
90 1 0.009753 0.006983 0.000953 0.000847 0.000000 -0.000588 0.000000 
91 1 -0.008556 0.007863 0.005239 0.000847 0.000000 -0.000588 0.000000 
92 1 0.002350 -0.002326 -0.013422 0.000847 0.000000 -0.000588 0.000000 
93 1 -0.000360 0.000717 -0.006920 0.000847 0.000000 -0.000588 0.000000 
94 1 -0.001898 0.010403 0.003155 0.000847 0.000000 -0.000588 0.000000 
95 1 0.010192 0.004517 -0.003969 0.000847 0.000000 -0.000588 0.000000 
96 1 0.008340 0.012233 0.011213 0.000847 0.000000 -0.000588 0.000000 
97 1 0.000485 0.013367 0.003604 0.000847 0.000000 -0.000588 0.000000 
98 1 -0.005007 0.008979 0.011519 0.000847 0.000000 -0.000588 0.000000 
99 1 -0.009868 -0.000932 -0.001645 0.000847 0.000000 -0.000588 0.000000 
100 1 0.001065 0.010163 0.008117 0.000847 0.000000 -0.000588 0.000000 
101 1 0.010553 0.011508 0.003118 0.000847 0.000000 -0.000588 0.000000 
102 1 -0.001638 0.000101 0.010915 0.000847 0.000000 -0.000588 0.000000 
103 1 -0.002108 0.010533 0.011455 0.000847 0.000000 -0.000588 0.000000 
104 1 -0.012077 0.000712 -0.006698 0.000847 0.000000 -0.000588 0.000000 
105 1 0.007804 -0.000951 0.000475 0.000847 0.000000 -0.000588 0.000000 
106 1 0.001472 0.002973 -0.007973 0.000847 0.000000 -0.000588 0.000000 
107 1 -0.003612 0.009275 -0.011070 0.000847 0.000000 -0.000588 0.000000 
108 1 0.002168 0.008107 -0.015265 0.000847 0.000000 -0.000588 0.000000 
109 1 -0.008047 0.011427 0.006729 0.000847 0.000000 -0.000588 0.000000 
110 1 -0.010787 -0.001132 -0.009230 0.000847 0.000000 -0.000588 0.000000 
111 1 -0.014690 -0.000851 -0.003697 0.000847 0.000000 -0.000588 0.000000 
112 1 0.006733 -0.000669 -0.002233 0.000847 0.000000 -0.000588 0.000000 
113 1 -0.003637 -0.000214 0.009938 0.000847 0.000000 -0.000588 0.000000 
114 1 0.002752 0.000783 0.000852 0.000847 0.000000 -0.000588 0.000000 
115 1 0.010065 0.005831 -0.009246 0.000847 0.000000 -0.000588 0.000000 
116 1 0.008163 -0.000600 0.013538 0.000847 0.000000 -0.000588 0.000000 
117 1 0.007099 -0.001970 0.006314 0.000847 0.000000 -0.000588 0.000000 
118 1 0.005507 0.004964 0.005173 0.000847 0.000000 -0.000588 0.000000 
119 1 0.005411 0.009884 0.005603 0.000847 0.000000 -0.000588 0.000000 
120 1 -0.004090 0.010367 -0.007205 0.000847 0.000000 -0.000588 0.000000 
121 1 -0.001179 -0.001643 -0.010288 0.000847 0.000000 -0.000588 0.000000 
122 1 0.000655 0.000804 0.006634 0.000847 0.000000 -0.000588 0.000000 
123 1 0.007496 0.000376 0.012128 0.000847 0.000000 -0.000588 0.000000 
124 1 -0.001763 0.010245 0.008462 0.000847 0.000000 -0.000588 0.000000 
125 1 0.003363 0.007802 0.001498 0.000847 0.000000 -0.000588 0.000000 
126 1 -0.002983 0.003006 0.000398 0.000847 0.000000 -0.000588 0.000000 
127 1 -0.004923 0.004849 -0.002038 0.000847 0.000000 -0.000588 0.000000 
128 1 -0.009673 0.001342 -0.003235 0.000847 0.000000 -0.000588 0.000000 
129 1 0.009756 0.003718 -0.010800 0.000847 0.000000 -0.000588 0.000000 
130 1 0.013662 0.002675 0.000693 0.000847 0.000000 -0.000588 0.000000 
131 1 -0.003358 0.006436 -0.006990 0.000847 0.000000 -0.000588 0.000000 
132 1 -0.012304 0.012276 -0.004092 0.000847 0.000000 -0.000588 0.000000 
133 1 -0.002748 -0.001648 0.010676 0.000847 0.000000 -0.000588 0.000000 
134 1 -0.005921 0.008935 -0.001927 0.000847 0.000000 -0.000588 0.000000 
135 1 -0.006851 0.011018 0.000024 0.000847 0.000000 -0.000588 0.000000 
136 1 -0.005857 0.006583 -0.001367 0.000847 0.000000 -0.000588 0.000000 
137 1 -0.001591 0.013039 -0.002687 0.000847 0.000000 -0.000588 0.000000 
138 1 0.012657 0.007383 -0.003684 0.000847 0.000000 -0.000588 0.000000 
139 1 -0.009988 0.005001 0.000238 0.000847 0.000000 -0.000588 0.000000 
140 1 -0.005192 0.001462 0.012040 0.000847 0.000000 -0.000588 0.000000 
141 1 -0.012074 0.005412 -0.006827 0.000847 0.000000 -0.000588 0.000000 
142 1 -0.013859 0.011955 -0.006184 0.000847 0.000000 -0.000588 0.000000 
143 1 0.007808 0.013464 -0.004111 0.000847 0.000000 -0.000588 0.000000 
144 1 0.000850 0.001341 -0.009230 0.000847 0.000000 -0.000588 0.000000 
145 1 -0.015211 -0.001991 0.004509 0.000847 0.000000 -0.000588 0.000000 
146 1 -0.015157 0.006650 -0.001358 0.000847 0.000000 -0.000588 0.000000 
147 1 0.005762 -0.002047 -0.008952 0.000847 0.000000 -0.000588 0.000000 
148 1 0.002883 0.004286 -0.015739 0.000847 0.000000 -0.000588 0.000000 
149 1 0.014246 0.002889 -0.002322 0.000847 0.000000 -0.000588 0.000000 
150 1 0.004455 0.006729 0.002537 0.000847 0.000000 -0.000588 0.000000 
151 1 0.005166 0.002732 0.001440 0.000847 0.000000 -0.000588 0.000000 
152 1 -0.006259 -0.001593 0.010839 0.000847 0.000000 -0.000588 0.000000 
153 1 -0.000333 0.010010 -0.012757 0.000847 0.000000 -0.000588 0.000000 
154 1 -0.005486 0.008711 -0.011036 0.000847 0.000000 -0.000588 0.000000 
155 1 -0.005395 0.000668 0.009791 0.000847 0.000000 -0.000588 0.000000 
156 1 -0.013829 0.001975 -0.000684 0.000847 0.000000 -0.000588 0.000000 
157 1 -0.013434 0.006887 -0.000630 0.000847 0.000000 -0.000588 0.000000 
158 1 -0.005470 0.001739 -0.008469 0.000847 0.000000 -0.000588 0.000000 
159 1 0.009232 -0.002414 -0.003171 0.000847 0.000000 -0.000588 0.000000 
160 1 0.008089 -0.001624 -0.005467 0.000847 0.000000 -0.000588 0.000000 
161 1 0.005292 0.010814 -0.008353 0.000847 0.000000 -0.000588 0.000000 
162 1 -0.004265 -0.002136 -0.002914 0.000847 0.000000 -0.000588 0.000000 
163 1 0.002964 -0.000970 -0.010521 0.000847 0.000000 -0.000588 0.000000 
164 1 -0.009231 0.000234 -0.011381 0.000847 0.000000 -0.000588 0.000000 
165 1 0.007537 -0.000017 0.002449 0.000847 0.000000 -0.000588 0.000000 
166 1 0.001790 0.010213 0.002731 0.000847 0.000000 -0.000588 0.000000 
167 1 -0.014420 0.002029 -0.005129 0.000847 0.000000 -0.000588 0.000000 
168 1 -0.003605 0.003219 0.011197 0.000847 0.000000 -0.000588 0.000000 
169 1 0.011904 0.003435 0.002793 0.000847 0.000000 -0.000588 0.000000 
170 1 -0.014063 0.010957 -0.007897 0.000847 0.000000 -0.000588 0.000000 
171 1 -0.000613 0.009615 0.000664 0.000847 0.000000 -0.000588 0.000000 
172 1 0.004369 0.000782 0.011732 0.000847 0.000000 -0.000588 0.000000 
173 1 0.010550 0.008810 -0.008139 0.000847 0.000000 -0.000588 0.000000 
174 1 -0.003497 0.007382 0.009518 0.000847 0.000000 -0.000588 0.000000 
175 1 -0.001267 0.004648 0.004803 0.000847 0.000000 -0.000588 0.000000 
176 1 0.008441 0.004461 -0.006807 0.000847 0.000000 -0.000588 0.000000 
177 1 0.002334 0.006914 -0.008528 0.000847 0.000000 -0.000588 0.000000 
178 1 0.006974 0.003627 -0.013967 0.000847 0.000000 -0.000588 0.000000 
179 1 -0.005597 -0.000318 0.001193 0.000847 0.000000 -0.000588 0.000000 
180 1 0.000995 0.009531 0.010786 0.000847 0.000000 -0.000588 0.000000 
181 1 -0.008320 0.009490 0.009655 0.000847 0.000000 -0.000588 0.000000 
182 1 0.000739 -0.000653 -0.000607 0.000847 0.000000 -0.000588 0.000000 
183 1 0.000514 0.013455 0.008633 0.000847 0.000000 -0.000588 0.000000 
184 1 -0.011393 0.004250 -0.004559 0.000847 0.000000 -0.000588 0.000000 
185 1 -0.014687 0.001694 0.006167 0.000847 0.000000 -0.000588 0.000000 
186 1 -0.013253 0.013144 -0.008686 0.000847 0.000000 -0.000588 0.000000 
187 1 -0.013234 0.001023 -0.003502 0.000847 0.000000 -0.000588 0.000000 
188 1 0.003127 -0.001886 -0.003674 0.000847 0.000000 -0.000588 0.000000 
189 1 0.013422 0.005708 -0.007968 0.000847 0.000000 -0.000588 0.000000 
190 1 -0.002976 -0.001575 -0.012309 0.000847 0.000000 -0.000588 0.000000 
191 1 0.008881 0.004585 -0.012590 0.000847 0.000000 -0.000588 0.000000 
192 1 0.007024 0.001119 -0.004117 0.000847 0.000000 -0.000588 0.000000 
193 1 0.000439 0.008251 0.000354 0.000847 0.000000 -0.000588 0.000000 
194 1 -0.000153 -0.001508 0.009912 0.000847 0.000000 -0.000588 0.000000 
195 1 -0.001174 0.004655 -0.009486 0.000847 0.000000 -0.000588 0.000000 
196 1 -0.013341 0.011404 0.008656 0.000847 0.000000 -0.000588 0.000000 
197 1 -0.007166 0.011987 0.009694 0.000847 0.000000 -0.000588 0.000000 
198 1 -0.004478 -0.001553 0.008761 0.000847 0.000000 -0.000588 0.000000 
199 1 -0.005104 0.007298 -0.014134 0.000847 0.000000 -0.000588 0.000000 
200 1 0.002857 0.010352 0.014108 0.000847 0.000000 -0.000588 0.000000 
201 1 -0.001311 0.012508 0.001674 0.000847 0.000000 -0.000588 0.000000 
202 1 -0.008552 0.006002 -0.005326 0.000847 0.000000 -0.000588 0.000000 
203 1 0.003518 -0.000160 -0.001306 0.000847 0.000000 -0.000588 0.000000 
204 1 -0.007610 -0.000783 0.005015 0.000847 0.000000 -0.000588 0.000000 
205 1 -0.005537 0.005621 -0.006955 0.000847 0.000000 -0.000588 0.000000 
206 1 -0.010447 0.010582 0.011428 0.000847 0.000000 -0.000588 0.000000 
207 1 -0.006253 0.001842 -0.011069 0.000847 0.000000 -0.000588 0.000000 
208 1 0.007112 0.002169 0.001356 0.000847 0.000000 -0.000588 0.000000 
209 1 -0.009312 0.011183 -0.004659 0.000847 0.000000 -0.000588 0.000000 
210 1 -0.003357 0.002962 -0.006037 0.000847 0.000000 -0.000588 0.000000 
211 1 0.010598 0.000073 0.009391 0.000847 0.000000 -0.000588 0.000000 
212 1 -0.000027 0.000949 0.014966 0.000847 0.000000 -0.000588 0.000000 
213 1 -0.008139 0.009019 -0.006397 0.000847 0.000000 -0.000588 0.000000 
214 1 0.009488 -0.000247 -0.012466 0.000847 0.000000 -0.000588 0.000000 
215 1 -0.007617 0.003553 0.003768 0.000847 0.000000 -0.000588 0.000000 
216 1 0.005033 0.005731 0.009185 0.000847 0.000000 -0.000588 0.000000 
217 1 0.007417 0.003567 0.004043 0.000847 0.000000 -0.000588 0.000000 
218 1 -0.015511 0.006254 -0.003754 0.000847 0.000000 -0.000588 0.000000 
219 1 -0.010702 0.010471 0.002890 0.000847 0.000000 -0.000588 0.000000 
220 1 -0.000452 0.001787 -0.011838 0.000847 0.000000 -0.000588 0.000000 
221 1 0.011330 0.003170 -0.002480 0.000847 0.000000 -0.000588 0.000000 
222 1 0.008680 0.004056 0.011533 0.000847 0.000000 -0.000588 0.000000 
223 1 -0.007375 -0.001841 0.000948 0.000847 0.000000 -0.000588 0.000000 
224 1 -0.001691 0.001252 0.013444 0.000847 0.000000 -0.000588 0.000000 
225 1 -0.001647 0.002992 0.009108 0.000847 0.000000 -0.000588 0.000000 
226 1 0.004798 0.008438 0.003856 0.000847 0.000000 -0.000588 0.000000 
227 1 0.008537 -0.000717 -0.002504 0.000847 0.000000 -0.000588 0.000000 
228 1 -0.001339 0.002498 0.010730 0.000847 0.000000 -0.000588 0.000000 
229 1 -0.010707 0.005912 0.010207 0.000847 0.000000 -0.000588 0.000000 
230 1 0.001094 0.001819 0.009084 0.000847 0.000000 -0.000588 0.000000 
231 1 0.013722 0.009718 -0.003791 0.000847 0.000000 -0.000588 0.000000 
232 1 0.012543 -0.001695 0.008869 0.000847 0.000000 -0.000588 0.000000 
233 1 0.008555 -0.000463 -0.009862 0.000847 0.000000 -0.000588 0.000000 
234 1 0.003212 0.004584 -0.009027 0.000847 0.000000 -0.000588 0.000000 
235 1 -0.015765 0.008984 -0.000749 0.000847 0.000000 -0.000588 0.000000 
236 1 0.005673 -0.001228 0.003587 0.000847 0.000000 -0.000588 0.000000 
237 1 0.000779 0.011898 0.011457 0.000847 0.000000 -0.000588 0.000000 
238 1 0.000580 0.004356 -0.006228 0.000847 0.000000 -0.000588 0.000000 
239 1 0.012627 0.012905 -0.008633 0.000847 0.000000 -0.000588 0.000000 
240 1 -0.001761 0.007771 -0.003820 0.000847 0.000000 -0.000588 0.000000 
241 1 0.012664 0.001099 -0.003664 0.000847 0.000000 -0.000588 0.000000 
242 1 0.002521 0.000157 0.011048 0.000847 0.000000 -0.000588 0.000000 
243 1 0.012730 0.004431 -0.000866 0.000847 0.000000 -0.000588 0.000000 
244 1 -0.000500 0.012192 -0.014942 0.000847 0.000000 -0.000588 0.000000 
245 1 -0.000548 0.002329 -0.001635 0.000847 0.000000 -0.000588 0.000000 
246 1 0.008324 0.009070 -0.003253 0.000847 0.000000 -0.000588 0.000000 
247 1 -0.016133 0.002514 -0.000690 0.000847 0.000000 -0.000588 0.000000 
248 1 -0.005183 0.000008 -0.009911 0.000847 0.000000 -0.000588 0.000000 
249 1 -0.006490 -0.002448 0.013564 0.000847 0.000000 -0.000588 0.000000 
250 1 0.006712 0.009984 -0.011994 0.000847 0.000000 -0.000588 0.000000 
251 1 0.002959 0.006998 -0.010276 0.000847 0.000000 -0.000588 0.000000 
252 1 -0.005232 0.012888 0.005026 0.000847 0.000000 -0.000588 0.000000 
253 1 0.014050 0.004429 0.000678 0.000847 0.000000 -0.000588 0.000000 
254 1 -0.000894 0.012340 0.009502 0.000847 0.000000 -0.000588 0.000000 
255 1 0.014453 0.010117 0.004611 0.000847 0.000000 -0.000588 0.000000 
256 1 -0.005796 0.012462 -0.002651 0.000847 0.000000 -0.000588 0.000000 
257 1 0.004394 0.006687 -0.007645 0.000847 0.000000 -0.000588 0.000000 
258 1 -0.001681 -0.001691 -0.004229 0.000847 0.000000 -0.000588 0.000000 
259 1 -0.008596 -0.002348 0.002017 0.000847 0.000000 -0.000588 0.000000 
260 1 -0.003436 0.009266 0.004795 0.000847 0.000000 -0.000588 0.000000 
261 1 0.004915 -0.000107 0.010071 0.000847 0.000000 -0.000588 0.000000 
262 1 0.004347 0.002384 -0.012194 0.000847 0.000000 -0.000588 0.000000 
263 1 0.014833 0.006468 0.004809 0.000847 0.000000 -0.000588 0.000000 
264 1 -0.010594 -0.002370 0.004293 0.000847 0.000000 -0.000588 0.000000 
265 1 -0.010881 0.008392 0.010029 0.000847 0.000000 -0.000588 0.000000 
266 1 -0.010183 -0.002092 0.006133 0.000847 0.000000 -0.000588 0.000000 
267 1 -0.011178 0.007347 -0.006445 0.000847 0.000000 -0.000588 0.000000 
268 1 -0.008207 0.001383 -0.012559 0.000847 0.000000 -0.000588 0.000000 
269 1 -0.015091 0.007622 0.000947 0.000847 0.000000 -0.000588 0.000000 
270 1 0.005145 0.006261 -0.013769 0.000847 0.000000 -0.000588 0.000000 
271 1 -0.002830 0.010024 -0.001648 0.000847 0.000000 -0.000588 0.000000 
272 1 0.008048 0.010394 -0.013895 0.000847 0.000000 -0.000588 0.000000 
273 1 0.002903 0.007541 0.003381 0.000847 0.000000 -0.000588 0.000000 
274 1 0.013180 0.006479 -0.001645 0.000847 0.000000 -0.000588 0.000000 
275 1 -0.003394 0.002901 0.014549 0.000847 0.000000 -0.000588 0.000000 
276 1 -0.000032 0.011604 -0.007535 0.000233 0.000000 -0.000588 0.000000 
277 1 0.000187 0.004257 -0.002270 0.000233 0.000000 -0.000588 0.000000 
278 1 -0.003885 -0.001980 -0.008960 0.000233 0.000000 -0.000588 0.000000 
279 1 0.008679 -0.002561 0.003036 0.000233 0.000000 -0.000588 0.000000 
280 1 -0.010492 0.012117 0.012435 0.000233 0.000000 -0.000588 0.000000 
281 1 0.006698 0.012329 0.001482 0.000233 0.000000 -0.000588 0.000000 
282 1 -0.002569 0.011876 0.009366 0.000233 0.000000 -0.000588 0.000000 
283 1 -0.008519 0.009500 -0.013643 0.000233 0.000000 -0.000588 0.000000 
284 1 -0.006313 0.009270 -0.014865 0.000233 0.000000 -0.000588 0.000000 
285 1 -0.012835 0.001457 0.004641 0.000233 0.000000 -0.000588 0.000000 
286 1 -0.004976 0.011390 -0.001105 0.000233 0.000000 -0.000588 0.000000 
287 1 -0.010473 0.008920 0.008034 0.000233 0.000000 -0.000588 0.000000 
288 1 -0.007806 0.001629 0.002945 0.000233 0.000000 -0.000588 0.000000 
289 1 -0.004861 0.000749 0.015786 0.000233 0.000000 -0.000588 0.000000 
290 1 0.000644 -0.002614 0.010796 0.000233 0.000000 -0.000588 0.000000 
291 1 -0.008662 -0.000822 0.002683 0.000233 0.000000 -0.000588 0.000000 
292 1 0.006879 0.000221 -0.008106 0.000233 0.000000 -0.000588 0.000000 
293 1 -0.005874 -0.002660 0.002422 0.000233 0.000000 -0.000588 0.000000 
294 1 0.005134 0.005878 0.001709 0.000233 0.000000 -0.000588 0.000000 
295 1 -0.009107 0.010526 0.013183 0.000233 0.000000 -0.000588 0.000000 
296 1 -0.004469 0.002508 0.012048 0.000233 0.000000 -0.000588 0.000000 
297 1 -0.012593 0.002548 0.003611 0.000233 0.000000 -0.000588 0.000000 
298 1 0.006230 0.001335 0.014979 0.000233 0.000000 -0.000588 0.000000 
299 1 -0.002251 0.013090 0.006118 0.000233 0.000000 -0.000588 0.000000 
300 1 -0.010761 -0.000499 -0.003937 0.000233 0.000000 -0.000588 0.000000 
301 1 0.004392 0.010945 -0.003033 0.000233 0.000000 -0.000588 0.000000 
302 1 -0.007270 0.009038 0.006824 0.000233 0.000000 -0.000588 0.000000 
303 1 -0.002285 0.012569 0.004233 0.000233 0.000000 -0.000588 0.000000 
304 1 -0.005736 0.012956 -0.014845 0.000233 0.000000 -0.000588 0.000000 
305 1 0.012407 0.000179 0.002788 0.000233 0.000000 -0.000588 0.000000 
306 1 -0.007807 0.000324 -0.009311 0.000233 0.000000 -0.000588 0.000000 
307 1 -0.011402 0.011949 -0.008993 0.000233 0.000000 -0.000588 0.000000 
308 1 -0.012031 0.012887 0.005300 0.000233 0.000000 -0.000588 0.000000 
309 1 -0.006913 0.013535 0.003610 0.000233 0.000000 -0.000588 0.000000 
310 1 0.002106 0.009840 0.004988 0.000233 0.000000 -0.000588 0.000000 
311 1 0.008609 0.013869 -0.006808 0.000233 0.000000 -0.000588 0.000000 
312 1 0.002052 0.005519 -0.004189 0.000233 0.000000 -0.000588 0.000000 
313 1 0.006296 0.010973 0.003087 0.000233 0.000000 -0.000588 0.000000 
314 1 0.002533 0.001938 0.008747 0.000233 0.000000 -0.000588 0.000000 
315 1 -0.006650 0.000227 -0.004116 0.000233 0.000000 -0.000588 0.000000 
316 1 0.007526 -0.001336 -0.007682 0.000233 0.000000 -0.000588 0.000000 
317 1 -0.010102 0.008398 -0.003546 0.000233 0.000000 -0.000588 0.000000 
318 1 0.013292 -0.001588 0.009834 0.000233 0.000000 -0.000588 0.000000 
319 1 -0.012481 0.012608 0.001551 0.000233 0.000000 -0.000588 0.000000 
320 1 -0.011514 0.009767 -0.000191 0.000233 0.000000 -0.000588 0.000000 
321 1 -0.003631 0.005132 0.014194 0.000233 0.000000 -0.000588 0.000000 
322 1 0.005522 -0.000561 0.007659 0.000233 0.000000 -0.000588 0.000000 
323 1 -0.007724 0.010237 -0.014299 0.000233 0.000000 -0.000588 0.000000 
324 1 0.011618 0.008367 0.002483 0.000233 0.000000 -0.000588 0.000000 
325 1 -0.000147 0.013257 -0.002700 0.000233 0.000000 -0.000588 0.000000 
326 1 -0.005578 0.010663 -0.011829 0.000233 0.000000 -0.000588 0.000000 
327 1 0.003537 0.013895 0.012461 0.000233 0.000000 -0.000588 0.000000 
328 1 0.005984 -0.000193 0.015494 0.000233 0.000000 -0.000588 0.000000 
329 1 0.011815 0.008210 0.006298 0.000233 0.000000 -0.000588 0.000000 
330 1 -0.003888 0.010662 0.011415 0.000233 0.000000 -0.000588 0.000000 
331 1 0.002289 0.001138 -0.014794 0.000233 0.000000 -0.000588 0.000000 
332 1 0.012406 0.011488 -0.008801 0.000233 0.000000 -0.000588 0.000000 
333 1 0.009498 0.008279 0.007687 0.000233 0.000000 -0.000588 0.000000 
334 1 -0.005697 0.007882 0.013052 0.000233 0.000000 -0.000588 0.000000 
335 1 0.000052 0.003052 0.001811 0.000233 0.000000 -0.000588 0.000000 
336 1 -0.002945 0.005977 0.003686 0.000233 0.000000 -0.000588 0.000000 
337 1 -0.008798 0.003936 0.011826 0.000233 0.000000 -0.000588 0.000000 
338 1 0.005544 0.007887 -0.012719 0.000233 0.000000 -0.000588 0.000000 
339 1 -0.015895 0.011856 -0.001607 0.000233 0.000000 -0.000588 0.000000 
340 1 0.000040 -0.001885 -0.009118 0.000233 0.000000 -0.000588 0.000000 
341 1 -0.005149 0.006633 -0.010304 0.000233 0.000000 -0.000588 0.000000 
342 1 0.009022 0.002861 -0.003650 0.000233 0.000000 -0.000588 0.000000 
343 1 0.009274 0.001548 -0.004716 0.000233 0.000000 -0.000588 0.000000 
344 1 0.005010 0.008267 -0.001334 0.000233 0.000000 -0.000588 0.000000 
345 1 -0.008651 0.005169 0.002916 0.000233 0.000000 -0.000588 0.000000 
346 1 -0.000699 0.007750 -0.008095 0.000233 0.000000 -0.000588 0.000000 
347 1 -0.002112 0.013271 0.004695 0.000233 0.000000 -0.000588 0.000000 
348 1 0.011937 0.002377 -0.011389 0.000233 0.000000 -0.000588 0.000000 
349 1 0.002381 0.010096 0.009939 0.000233 0.000000 -0.000588 0.000000 
350 1 -0.009678 0.000860 0.006446 0.000233 0.000000 -0.000588 0.000000 
351 1 0.003573 0.000316 -0.006008 0.000233 0.000000 -0.000588 0.000000 
352 1 -0.010885 0.010176 -0.005372 0.000233 0.000000 -0.000588 0.000000 
353 1 0.012580 0.003407 0.000348 0.000233 0.000000 -0.000588 0.000000 
354 1 -0.012160 -0.001293 0.004474 0.000233 0.000000 -0.000588 0.000000 
355 1 0.006767 -0.000071 -0.000527 0.000233 0.000000 -0.000588 0.000000 
356 1 -0.015616 0.007994 -0.003521 0.000233 0.000000 -0.000588 0.000000 
357 1 0.006310 0.007498 0.014132 0.000233 0.000000 -0.000588 0.000000 
358 1 0.009114 0.007578 -0.002429 0.000233 0.000000 -0.000588 0.000000 
359 1 -0.012355 0.004110 -0.002136 0.000233 0.000000 -0.000588 0.000000 
360 1 -0.011612 0.010243 0.011810 0.000233 0.000000 -0.000588 0.000000 
361 1 0.000740 0.003328 0.009007 0.000233 0.000000 -0.000588 0.000000 
362 1 0.004515 0.003910 0.007639 0.000233 0.000000 -0.000588 0.000000 
363 1 0.007780 0.000264 -0.002565 0.000233 0.000000 -0.000588 0.000000 
364 1 -0.003974 0.007027 -0.002955 0.000233 0.000000 -0.000588 0.000000 
365 1 -0.001320 -0.001516 0.004914 0.000233 0.000000 -0.000588 0.000000 
366 1 0.011246 -0.000918 -0.003727 0.000233 0.000000 -0.000588 0.000000 
367 1 -0.009269 0.011512 0.005356 0.000233 0.000000 -0.000588 0.000000 
368 1 0.005836 0.013638 -0.000854 0.000233 0.000000 -0.000588 0.000000 
369 1 0.000080 0.008854 0.003080 0.000233 0.000000 -0.000588 0.000000 
370 1 -0.005849 0.003427 0.015158 0.000233 0.000000 -0.000588 0.000000 
371 1 0.000422 0.007087 -0.001660 0.000233 0.000000 -0.000588 0.000000 
372 1 0.011525 -0.000479 -0.007485 0.000233 0.000000 -0.000588 0.000000 
373 1 -0.011097 0.006188 -0.001986 0.000233 0.000000 -0.000588 0.000000 
374 1 -0.005031 -0.002019 -0.015718 0.000233 0.000000 -0.000588 0.000000 
375 1 -0.011240 -0.002672 -0.008486 0.000233 0.000000 -0.000588 0.000000 
376 1 0.007509 0.013057 -0.013163 0.000233 0.000000 -0.000588 0.000000 
377 1 0.004447 0.005709 0.000291 0.000233 0.000000 -0.000588 0.000000 
378 1 -0.006747 0.008263 -0.012410 0.000233 0.000000 -0.000588 0.000000 
379 1 0.002039 0.006731 -0.015680 0.000233 0.000000 -0.000588 0.000000 
380 1 -0.007193 0.005388 0.011052 0.000233 0.000000 -0.000588 0.000000 
381 1 -0.009203 -0.001681 0.012025 0.000233 0.000000 -0.000588 0.000000 
382 1 -0.004117 0.010979 -0.002186 0.000233 0.000000 -0.000588 0.000000 
383 1 0.011042 0.003950 0.009111 0.000233 0.000000 -0.000588 0.000000 
384 1 -0.002572 0.006381 0.015752 0.000233 0.000000 -0.000588 0.000000 
385 1 -0.004804 0.007372 -0.006739 0.000233 0.000000 -0.000588 0.000000 
386 1 0.011824 0.008472 -0.009451 0.000233 0.000000 -0.000588 0.000000 
387 1 -0.001594 0.003519 0.011915 0.000233 0.000000 -0.000588 0.000000 
388 1 0.013993 0.013390 -0.001599 0.000233 0.000000 -0.000588 0.000000 
389 1 -0.005395 0.010880 0.002758 0.000233 0.000000 -0.000588 0.000000 
390 1 0.011221 0.003729 -0.009451 0.000233 0.000000 -0.000588 0.000000 
391 1 -0.012528 0.001941 -0.007100 0.000233 0.000000 -0.000588 0.000000 
392 1 0.008150 -0.001270 0.007549 0.000233 0.000000 -0.000588 0.000000 
393 1 0.013534 0.004415 0.005620 0.000233 0.000000 -0.000588 0.000000 
394 1 -0.014312 0.005307 0.004679 0.000233 0.000000 -0.000588 0.000000 
395 1 0.009343 0.000628 -0.001501 0.000233 0.000000 -0.000588 0.000000 
396 1 -0.011280 0.010588 -0.004037 0.000233 0.000000 -0.000588 0.000000 
397 1 0.005640 0.003614 0.000630 0.000233 0.000000 -0.000588 0.000000 
398 1 0.001242 0.008357 -0.008712 0.000233 0.000000 -0.000588 0.000000 
399 1 0.009593 0.012321 -0.005756 0.000233 0.000000 -0.000588 0.000000 
400 1 -0.014357 0.001230 -0.000107 0.000233 0.000000 -0.000588 0.000000 
401 1 0.015764 0.007234 -0.002545 0.000233 0.000000 -0.000588 0.000000 
402 1 -0.008510 0.013488 0.014405 0.000233 0.000000 -0.000588 0.000000 
403 1 0.012691 0.008540 -0.006050 0.000233 0.000000 -0.000588 0.000000 
404 1 0.001100 -0.001359 -0.008092 0.000233 0.000000 -0.000588 0.000000 
405 1 0.004392 0.006307 0.007541 0.000233 0.000000 -0.000588 0.000000 
406 1 0.004456 0.000369 0.014175 0.000233 0.000000 -0.000588 0.000000 
407 1 0.000697 0.006982 -0.010700 0.000233 0.000000 -0.000588 0.000000 
408 1 0.002239 0.012260 0.008255 0.000233 0.000000 -0.000588 0.000000 
409 1 -0.006406 0.001719 0.006156 0.000233 0.000000 -0.000588 0.000000 
410 1 -0.004749 0.009121 0.009456 0.000233 0.000000 -0.000588 0.000000 
411 1 -0.000198 0.007985 -0.016003 0.000233 0.000000 -0.000588 0.000000 
412 1 -0.015257 0.011989 0.003710 0.000233 0.000000 -0.000588 0.000000 
413 1 0.005283 -0.002531 -0.011149 0.000233 0.000000 -0.000588 0.000000 
414 1 -0.005693 -0.002205 -0.002264 0.000233 0.000000 -0.000588 0.000000 