ITEM: TIMESTEP
12808562
ITEM: NUMBER OF ATOMS
206
ITEM: BOX BOUNDS ff ff ff
-0.15 0.15
-0.15 0.15
-0.15 0.15
ITEM: ATOMS id type x y z radius vx vy vz density 
60 1 -0.0565643 -0.00270413 -0.0382464 0.000847 -92.177 28.3429 136.371 2650 
483 1 -0.0545444 -0.0522564 -0.0421237 8.4e-05 0.796354 -0.563494 -1.03107 2650 
234 1 -0.003242 -0.00320044 -0.013015 0.000233 0 -0.01175 0 2650 
404 1 -0.00348894 -0.00136004 -0.0109081 0.000233 0.00345182 -0.00380056 -0.00408233 2650 
397 1 -0.0676523 -0.0281053 -0.00840258 0.000847 -1.70966 -2.84873 13.7547 2650 
336 1 -0.000699 -0.00200244 -0.008095 0.000233 0 -0.01175 0 2650 
324 1 -0.004804 -0.00238044 -0.006739 0.000233 0 -0.01175 0 2650 
478 1 -0.010102 -0.00135444 -0.003546 0.000233 0 -0.01175 0 2650 
455 1 -0.0158094 -0.0011529 -0.00190206 0.000233 0.00486457 -0.00598722 0.0195422 2650 
431 1 -0.007173 -0.00240144 0.006023 8.4e-05 0 -0.01175 0 2650 
130 1 -0.004749 -0.000631438 0.009456 0.000233 0 -0.01175 0 2650 
509 1 -0.001563 -0.000976438 0.010036 8.4e-05 0 -0.01175 0 2650 
349 1 -0.0272899 -0.0564044 0.0119412 0.000233 -0.859793 -0.163439 -2.57589 2650 
248 1 -0.0115459 -0.00217421 0.011139 0.000233 0.0207465 -0.00997463 0.0173838 2650 
256 1 -0.0105104 -0.00293528 0.0121736 0.000847 -0.00982248 -0.0191806 0.00223237 2650 
155 1 -0.00400511 -0.00254729 0.0146755 0.000233 0.043158 -0.00673998 0.0310284 2650 
41 1 -0.056726 -0.0232166 0.0391367 8.4e-05 -0.117108 -0.412256 -0.169724 2650 
362 1 -0.00519322 0.00427972 -0.0158008 0.000233 -0.030875 0.00744458 0.0133701 2650 
494 1 -0.000894946 0.0483367 -0.0166342 0.000233 -0.26973 0.217056 0.0718016 2650 
17 1 -0.00287207 0.00207399 -0.0146002 0.000847 -0.0104042 -0.00956362 -0.0204892 2650 
37 1 -0.0035663 0.00742272 -0.0144952 0.000233 0.0110791 0.00547466 0.000960455 2650 
361 1 -0.00302356 0.0523746 -0.0149384 0.000233 -0.0555308 0.0434905 0.0250048 2650 
216 1 -0.00417048 0.0584088 -0.0154249 0.000847 0.073421 0.134478 -0.0224092 2650 
309 1 -0.00840713 0.00794025 -0.0132608 0.000233 -0.00450576 -0.001553 0.00675875 2650 
5 1 -0.0082077 0.0179583 -0.013865 0.000847 -0.523889 -0.160302 0.390794 2650 
1 1 -0.00736981 0.0405414 -0.0133538 0.001312 0.0797043 0.0235548 -0.0335917 2650 
209 1 -0.00485611 0.00345504 -0.0124155 0.000233 -0.0158796 -0.00459834 -0.00734412 2650 
56 1 -0.00181435 0.0174795 -0.0121839 0.001312 0.0161903 0.019035 -0.035572 2650 
178 1 -0.00662913 0.0188539 -0.0120022 0.000847 -0.0161273 0.0791383 0.0566144 2650 
446 1 -0.0105179 0.0194208 -0.0120112 0.000847 -0.00842265 0.0159767 -0.0565597 2650 
191 1 -0.0111087 0.0226603 -0.0116221 0.000847 0.063359 0.0176032 -0.0550099 2650 
392 1 -0.003997 0.00125156 -0.009609 8.4e-05 0 -0.01175 0 2650 
373 1 -0.0117361 0.0315483 -0.0110236 0.000847 -0.321213 0.031599 0.369793 2650 
218 1 -0.011155 0.00403496 -0.00945364 0.000233 0.0269464 0.0150735 -0.0142902 2650 
66 1 -0.0132131 0.0395233 -0.00882739 0.000233 0.00377936 0.0342087 0.00385618 2650 
391 1 -0.001389 0.00134456 -0.007809 0.000233 0 -0.01175 0 2650 
386 1 -0.0128158 0.0158172 -0.00739764 0.000847 -0.0110749 0.0246183 -0.00500388 2650 
79 1 -0.009334 0.00213356 -0.006031 0.000233 0 -0.01175 0 2650 
495 1 -0.013634 0.0154831 -0.00581434 0.000233 -0.0189623 0.00712339 0.0119237 2650 
437 1 -0.0149158 0.0410112 -0.00490869 0.000847 0.0141341 0.0637506 -0.055152 2650 
467 1 -0.01128 0.000835562 -0.004037 0.000233 0 -0.01175 0 2650 
105 1 -0.000330856 0.00562812 -0.0040782 0.000233 -0.0038186 0.00248038 -0.00061567 2650 
482 1 -0.00513086 0.0344717 -0.00324382 0.000233 0.00469409 0.0342639 0.0260087 2650 
204 1 -0.00476998 0.0439734 -0.00338116 0.000847 -0.0432782 0.0378812 -0.0439972 2650 
312 1 -0.006897 0.000151562 -0.002463 0.000233 0 -0.01175 0 2650 
301 1 -0.000431 0.000384562 -0.003081 8.4e-05 0 -0.01175 0 2650 
128 1 -0.00678954 0.00609115 -0.00303482 0.000233 -0.00610861 -0.000841187 -0.0304212 2650 
291 1 -0.00892424 0.00988031 -0.00241051 0.000847 -0.0130506 0.0028354 -0.022971 2650 
73 1 -0.0148298 0.0134502 -0.00267757 0.000847 -0.0048913 0.0103656 -0.024005 2650 
13 1 -0.0145313 0.0274128 -0.00249859 8.4e-05 0.0394899 0.00712031 -0.0147626 2650 
319 1 -0.00168171 0.039914 -0.00177729 0.000847 0.018509 0.0680095 -0.0277984 2650 
63 1 -0.00125217 0.00347128 -0.00106471 0.000233 -0.00969411 -0.012042 0.014344 2650 
217 1 -0.0017027 0.00547392 -0.000251322 0.000847 0.011163 0.00149183 0.0268597 2650 
224 1 -0.0112428 0.0100694 -0.000958486 0.001312 0.0328638 0.0230865 0.118908 2650 
55 1 -0.00308703 0.0132006 -0.000316799 0.001312 -0.00374929 0.010234 -0.0225091 2650 
222 1 -0.00584568 0.0263571 -0.000965921 0.000233 -0.050006 0.0105101 0.000177887 2650 
137 1 -0.0121987 0.0313791 -0.00134689 0.000847 0.0135337 0.020306 -0.0316419 2650 
520 1 -0.0165487 0.000836452 0.000468773 0.000233 -0.00373171 -0.035467 -0.0910328 2650 
206 1 -0.00397681 0.00119708 0.000918304 0.000233 -0.00290858 0.00226706 -0.00780188 2650 
327 1 -0.016668 0.050579 0.0015359 8.4e-05 -0.00785365 0.00960511 -0.189355 2650 
345 1 -0.00794873 0.00135237 0.00163449 0.000847 0.00764886 0.00287812 0.00877621 2650 
376 1 -0.005395 0.00112756 0.002758 0.000233 0 -0.01175 0 2650 
351 1 -0.00337161 0.0192428 0.00195478 0.000233 -0.00991851 0.0154487 0.0373 2650 
512 1 -0.000224464 0.0338559 0.00208078 0.000847 0.0120363 0.054604 0.0114501 2650 
484 1 -0.00377817 0.00361179 0.0036746 0.001312 0.000780314 -0.00530323 -0.0190006 2650 
43 1 -0.0148813 0.0188603 0.0047089 0.001312 -0.0195276 0.0152168 -0.023796 2650 
381 1 -0.00191804 0.0265861 0.00351866 0.000847 0.00408091 0.0273237 -0.0225548 2650 
90 1 -0.009269 0.00175956 0.005356 0.000233 0 -0.01175 0 2650 
244 1 -0.002251 0.00333756 0.006118 0.000233 0 -0.01175 0 2650 
98 1 -0.00372754 0.00560322 0.00529388 0.000847 -0.00964048 0.00128331 -0.0225715 2650 
469 1 -0.0157289 0.0171097 0.00546153 0.000233 0.0649085 -0.155879 0.158359 2650 
316 1 -0.0142099 0.0220186 0.00609383 0.000847 0.0120838 0.0402563 0.0122571 2650 
273 1 -0.0157976 0.0313209 0.00512774 0.000233 0.0450683 0.0221794 0.103413 2650 
263 1 -0.00589049 0.0357936 0.00486958 0.001312 0.0105926 0.0434776 -0.0174285 2650 
474 1 -0.00209121 0.00067117 0.00665034 0.000847 0.0187745 -0.00937088 0.0135508 2650 
475 1 -0.00832214 0.00221833 0.0069334 0.000847 -0.00362441 -0.0119424 -0.0085481 2650 
283 1 -0.0138523 0.00498169 0.00634793 0.000233 0.00620868 -0.00270802 -0.00521613 2650 
28 1 -0.00890275 0.027592 0.00773946 8.4e-05 0.036863 0.0365593 0.0188487 2650 
517 1 -0.00488024 0.042491 0.00654176 0.000233 0.0168324 0.0960293 0.0170836 2650 
62 1 -0.00311187 0.0727748 0.00729356 0.000233 -0.0770948 0.143664 0.0345428 2650 
172 1 -0.0115975 0.000390238 0.0090978 0.001312 -0.0122068 -0.0128114 0.00716822 2650 
180 1 -0.00762478 0.00097351 0.0085704 0.000233 0.00893885 -0.0064373 -0.0143239 2650 
196 1 -0.011753 0.00902165 0.0101291 0.000233 -0.0116111 -0.0101578 -0.00436 2650 
40 1 -0.0135401 0.0178968 0.00965282 0.000233 0.106253 -0.109158 0.141048 2650 
499 1 -0.0130729 0.0338187 0.00947371 0.000847 -0.0155812 0.0512785 -0.0308104 2650 
235 1 -0.00605 9.05617e-05 0.012276 0.000233 0 -0.01175 0 2650 
466 1 -0.0118979 0.03114 0.0117702 0.000233 -0.185697 0.0183559 -0.213647 2650 
356 1 -0.00185686 0.0323364 0.0126195 0.000847 0.0189286 0.0395986 -0.00601023 2650 
443 1 -0.008997 0.00098622 0.0131802 0.000233 -0.00417624 -0.00129037 -0.00542712 2650 
457 1 -0.00852802 0.00630896 0.0137954 8.4e-05 -0.029317 -0.0177778 -0.0408338 2650 
255 1 -0.0059571 0.0369933 0.0141961 0.000847 -0.0399553 0.0436676 -0.0245485 2650 
511 1 -0.0100823 0.0404246 0.0126526 0.000847 0.00427935 0.0528312 -0.0152122 2650 
390 1 -0.000457121 0.00182951 0.0144769 0.000233 -0.00511716 -0.00910385 0.00447344 2650 
464 1 -0.0036825 0.00936767 0.0156411 0.000233 -0.00408771 0.00921474 -0.00963351 2650 
296 1 -0.00857169 0.017146 0.0143101 0.000233 -0.162007 0.0060662 -0.12039 2650 
14 1 -6.71318e-05 0.0282023 0.0151805 8.4e-05 -0.0715053 0.073508 -0.0480514 2650 
281 1 -0.00250546 0.029049 0.0154701 0.000847 -0.101522 0.0918263 0.0068855 2650 
229 1 -0.00616713 0.0436824 0.0146459 0.000847 0.0200117 0.0644129 0.00964598 2650 
38 1 -0.0633115 0.0753765 -0.0193288 0.000233 -0.00144239 -0.00641885 0.115072 2650 
514 1 -0.0166238 0.116453 -0.000827892 0.000847 -0.0244952 0.177148 -0.0280676 2650 
365 1 -0.00420052 0.0838221 0.00284608 0.000233 0.0179174 0.166228 0.039892 2650 
88 1 0.00508753 -0.0593235 -0.0685211 0.000233 5.83296 3.15484 0.452214 2650 
135 1 0.0569107 -0.0461465 -0.0375834 0.000847 -41.0943 0.207401 -62.1961 2650 
344 1 0.018138 -0.0123305 -0.0204202 0.000847 11.5256 15.376 1.44671 2650 
333 1 0.0655697 -0.0464487 -0.0187249 0.000847 -15.1312 9.34673 -52.9565 2650 
394 1 0.0118243 -0.0031656 -0.00632206 0.000847 -0.0103629 -0.03022 0.0133403 2650 
39 1 0.012691 -0.00121244 -0.00605 0.000233 0 -0.01175 0 2650 
123 1 0.0280622 -0.0539535 -0.00400881 0.000847 -0.586979 -4.31056e-06 -4.02599 2650 
142 1 0.000422 -0.00266544 -0.00166 0.000233 0 -0.01175 0 2650 
143 1 0.0211134 -0.00646449 -0.00113751 0.000233 2.04349 -0.633753 -0.0339523 2650 
122 1 0.009753 -0.00276944 0.000953 0.000847 0 -0.01175 0 2650 
116 1 8e-05 -0.000898438 0.00308 0.000233 0 -0.01175 0 2650 
132 1 0.013326 -0.000341438 0.002036 8.4e-05 0 -0.01175 0 2650 
282 1 0.0051258 -0.00025064 0.00793444 0.000847 0.0103943 0.00242356 0.0356793 2650 
119 1 0.00722 -0.00122644 0.008414 8.4e-05 0 -0.01175 0 2650 
184 1 0.007384 -0.000434438 0.007977 8.4e-05 0 -0.01175 0 2650 
270 1 0.00516296 -0.00264143 0.0103283 0.000233 0.0415997 -0.0108802 -0.0174282 2650 
375 1 0.00970079 -0.000608347 0.0125637 0.000233 0.0185628 -0.0127788 0.00574506 2650 
479 1 0.00631 -0.00225444 0.014132 0.000233 0 -0.01175 0 2650 
444 1 0.00923457 -0.00232441 0.0139757 8.4e-05 0.0378868 -0.0425023 -0.0274436 2650 
266 1 0.0535459 -0.0594006 0.0422052 0.000847 29.1316 4.61945 -36.933 2650 
419 1 0.0335915 -0.0520624 0.0587995 0.001312 -32.3178 -1.50378 18.4461 2650 
226 1 0.0248093 -0.0388517 0.0635176 0.000847 69.4898 -15.1661 -27.1327 2650 
192 1 0.023441 -0.00804909 0.0646484 0.000233 0.132735 -0.189242 -0.0481139 2650 
219 1 0.0171026 -0.0355989 0.0666144 0.000233 121.053 4.18212 -31.0747 2650 
352 1 0.035843 0.0609488 -0.0369356 0.000233 5.3068 -0.053414 -5.48366 2650 
379 1 0.00216718 0.0265931 -0.0166007 8.4e-05 0.0656147 0.0212717 0.0114936 2650 
242 1 0.00216201 0.0144666 -0.0150661 0.000847 0.0106523 0.0117111 0.0179508 2650 
289 1 0.00643609 0.0111864 -0.0135583 0.001312 0.0697214 -0.00134213 0.0143215 2650 
310 1 0.00569628 0.0144173 -0.0128178 0.000233 0.0450288 0.0266522 -0.0225148 2650 
2 1 0.0070939 0.014869 -0.0134392 0.001312 0.0497879 0.0305551 0.0266061 2650 
104 1 6.90386e-05 0.0184826 -0.0130324 0.000233 0.0488835 0.012488 0.0174426 2650 
515 1 0.00321941 0.0441501 -0.01384 0.000847 0.0882721 0.0744652 0.0297527 2650 
369 1 0.0070165 0.0440361 -0.0139685 0.000847 0.0118537 0.0884116 0.037425 2650 
70 1 0.00868387 0.0498359 -0.0134258 0.000847 -0.277091 0.187995 -0.147334 2650 
22 1 0.00969694 0.0032333 -0.0112863 0.000233 0.0407004 -0.0178622 0.0422683 2650 
416 1 0.0120012 0.00884259 -0.0113074 0.000233 -0.239323 -0.0290984 -0.176371 2650 
441 1 0.00385708 0.012843 -0.0116609 0.000233 0.169049 -0.0671902 -0.0416935 2650 
97 1 0.0105604 0.0553332 -0.012028 0.000847 0.0620231 0.101556 0.0690614 2650 
374 1 0.0111251 0.0026903 -0.00834907 0.000233 0.0405433 -0.014205 -0.0268798 2650 
366 1 0.0114716 0.0125267 -0.00932875 8.4e-05 0.0151379 0.0163292 0.0176797 2650 
251 1 0.00967286 0.0163289 -0.00885236 0.000847 0.0360586 0.0161379 0.0194324 2650 
198 1 0.00334867 0.0194876 -0.00941543 0.001312 0.0139318 0.0188735 0.00855589 2650 
360 1 0.0134303 0.0210744 -0.00829666 0.000847 0.0227875 0.0410257 0.0184258 2650 
261 1 0.01039 0.00720925 -0.00573633 0.000233 0.0289804 -0.000176686 -0.0343964 2650 
237 1 0.00185561 0.00832298 -0.00494333 0.001312 0.0327669 0.00290189 -0.00282958 2650 
201 1 0.00444984 0.00877446 -0.00516328 0.000847 0.035855 0.00351015 -0.00525606 2650 
355 1 0.00944575 0.00683594 -0.00455825 0.000847 0.0386883 -0.00507248 -0.0198329 2650 
211 1 0.00222313 0.0291228 -0.00467989 0.001312 -0.00357409 0.0354167 -0.00294005 2650 
146 1 0.0674062 0.0626171 -0.00746368 0.001312 -10.0698 0.0457537 -90.0467 2650 
429 1 0.00595913 0.000759358 -0.00244336 0.000233 0.0266779 0.00591676 -0.0117365 2650 
363 1 0.013993 0.00363756 -0.001599 0.000233 0 -0.01175 0 2650 
325 1 0.0165443 0.0254884 -0.0020309 0.000233 0.00138815 0.0496526 0.0403606 2650 
400 1 0.00362638 0.045718 -0.00291518 0.000233 -0.032364 0.0963256 0.0226569 2650 
370 1 0.0188681 0.0619868 -0.00204933 0.000847 1.32784 0.0803019 -0.0603328 2650 
80 1 0.000608988 0.00460777 -0.000367712 8.4e-05 0.00373656 -0.00278016 0.0211389 2650 
353 1 0.00708442 0.00336811 -0.000618466 8.4e-05 0.00908281 0.00118574 -0.0158319 2650 
75 1 0.0005108 0.00481636 -0.00114417 0.000233 0.00332582 -5.88382e-05 0.0169148 2650 
476 1 0.0130194 0.0150937 -0.000476239 0.000847 0.0229742 0.0129824 -0.0229211 2650 
8 1 0.006698 0.00257656 0.001482 0.000233 0 -0.01175 0 2650 
267 1 0.0139452 0.00535055 0.00051393 0.000847 0.0406825 -0.00501088 -0.0187584 2650 
176 1 0.0109976 0.0482192 0.000680473 0.000847 0.0546859 0.114455 -0.0204283 2650 
298 1 0.016298 0.00549734 0.00293831 0.000233 -0.0242905 0.0154684 0.128575 2650 
31 1 0.00110789 0.00691619 0.00200257 0.000847 0.0317442 0.0131548 0.00265078 2650 
16 1 0.00598689 0.0178843 0.00284598 0.001312 0.00869428 0.00730609 0.0249125 2650 
139 1 0.0157666 0.0245706 0.0021158 0.000847 -0.0245354 0.111404 0.0676988 2650 
329 1 0.0154992 0.0280318 0.002537 0.000847 -0.0237216 0.168802 0.0605966 2650 
456 1 0.009608 0.000577562 0.003179 0.000233 0 -0.01175 0 2650 
156 1 0.0146555 0.00042238 0.00419533 0.000233 0.0891834 -0.00351866 -0.319428 2650 
299 1 0.015947 0.00295394 0.00472534 0.000233 -0.0429178 -0.0620525 0.224725 2650 
131 1 0.00659894 0.0089274 0.00371658 0.000233 0.0289554 0.00214541 -0.00104248 2650 
232 1 0.0160893 0.039365 0.00355891 0.000233 0.0552466 0.144017 -0.133876 2650 
359 1 0.0108624 0.00389045 0.00517492 0.000847 0.0160387 0.00288881 -0.00727752 2650 
295 1 0.000337999 0.0124681 0.00567793 0.000847 0.0219125 0.01998 -0.0175308 2650 
440 1 0.0155122 0.0216313 0.00574945 0.000233 -0.0299591 0.0148063 0.128738 2650 
77 1 0.0123577 0.00427103 0.00787694 0.000233 -0.0595235 -0.0177779 0.09809 2650 
152 1 0.00939714 0.0146506 0.00687767 0.000847 0.0247798 0.0182694 -0.00090491 2650 
99 1 0.00733276 0.0187578 0.00713939 0.000847 0.0130843 0.0220184 -0.0105542 2650 
430 1 0.00702769 0.0206589 0.00701679 0.000233 -0.0456019 0.00621951 -0.0131774 2650 
425 1 0.0145371 0.0281057 0.00673836 0.000847 -0.00275009 0.0286526 0.131651 2650 
200 1 0.0108118 0.0138333 0.00942977 0.000847 0.0131574 0.0204693 -0.0100006 2650 
321 1 0.00293924 0.0324949 0.00917581 0.000847 0.0212317 0.0606835 -0.00559239 2650 
12 1 0.000242943 0.0429672 0.00911568 0.000233 0.00747796 0.0555781 0.0464328 2650 
406 1 0.00231522 0.00293987 0.0100947 0.001312 0.00159577 -0.000499242 -0.0020534 2650 
252 1 0.00766712 0.00932922 0.00998027 0.000847 0.00491769 0.00803068 -0.0198657 2650 
11 1 0.00885424 0.0164598 0.0101391 0.000233 0.0140484 0.0417646 0.0238701 2650 
6 1 0.0118218 0.0387039 0.0108231 0.000847 -0.144182 0.0528186 0.121838 2650 
96 1 0.0153065 0.0621361 0.00975153 0.000847 0.722702 0.166177 0.738406 2650 
89 1 0.003537 0.00414256 0.012461 0.000233 0 -0.01175 0 2650 
103 1 0.00849655 0.00835034 0.0117333 0.000233 -0.0110492 -0.00251187 -0.00895235 2650 
161 1 0.0106477 0.0173941 0.0120459 0.000847 0.0490366 0.0350821 -0.0359216 2650 
186 1 0.0103498 0.0503725 0.0111636 0.001312 -0.0246881 0.0215127 0.017991 2650 
254 1 0.00143928 0.00459091 0.0134354 0.000847 0.000708798 -0.002306 0.00597962 2650 
260 1 0.00899962 0.0069089 0.0136439 0.000233 -0.00526434 0.0135742 -0.0322824 2650 
412 1 0.00904522 0.00903441 0.0132565 0.000847 -0.160944 0.00936652 0.0863741 2650 
313 1 0.00353114 0.0103415 0.013143 0.000233 0.0526414 0.00554921 0.0325331 2650 
462 1 0.00800712 0.0257217 0.0139227 0.000847 -0.183919 0.00155097 0.096649 2650 
85 1 0.00424674 0.0295174 0.0128889 0.000847 0.0383885 0.0575406 -0.0325653 2650 
50 1 0.00269745 0.047433 0.0138164 0.000233 0.0440745 0.0630711 0.0720609 2650 
292 1 0.00897045 0.0572312 0.0131763 0.000847 -0.12463 0.16078 0.0627894 2650 
223 1 0.00038102 0.0520646 0.0168218 8.4e-05 0.026994 0.0833022 -0.00953033 2650 
489 1 0.0572543 0.0338734 0.0370405 0.000847 50.7037 10.5126 -83.9675 2650 
407 1 0.00777934 0.0876846 -0.0677079 0.000847 -18.7908 -1.05533 -2.15884 2650 
154 1 0.00652726 0.106607 -0.00880122 0.000233 -0.00924804 0.118602 0.00100956 2650 
383 1 0.00959515 0.0820701 -0.000253311 0.000847 -0.012285 0.112245 0.000503282 2650 
233 1 0.00967182 0.082585 0.00499996 0.000233 -0.0313005 0.371268 -0.0030139 2650 
