ITEM: TIMESTEP
5092562
ITEM: NUMBER OF ATOMS
392
ITEM: BOX BOUNDS ff ff ff
-0.15 0.15
-0.15 0.15
-0.15 0.15
ITEM: ATOMS id type x y z radius vx vy vz density 
148 1 -0.00302287 -0.0558783 -0.0681079 0.000847 -57.1724 3.4851 2.5362 2650 
57 1 -0.0253628 -0.0132895 -0.0632781 0.000847 -45.989 5.23622 18.4227 2650 
166 1 -0.0278342 -0.00663571 -0.0628851 0.000233 -64.8266 8.52198 28.6887 2650 
453 1 -0.0391822 -0.0185978 -0.0565125 0.000233 -18.9331 -5.4628 13.1263 2650 
276 1 -0.0380163 -0.00850253 -0.0560508 0.001312 -35.5285 0.139171 24.0603 2650 
175 1 -0.0418455 -0.0295656 -0.0539241 0.000847 -69.3654 9.05198 50.3113 2650 
411 1 -0.0402206 -0.0248456 -0.0550509 0.000847 -43.0289 3.31626 31.4198 2650 
334 1 -0.0478188 -0.0457094 -0.0486298 0.000847 -57.8307 7.93896 56.8384 2650 
335 1 -0.0412647 -0.0220108 -0.0520007 0.000233 -1.38141 -1.06838 -1.44405 2650 
138 1 -0.0498113 -0.00680112 -0.0465547 0.000847 -47.3863 -5.93396 49.7454 2650 
452 1 -0.0524722 -0.0166548 -0.0444493 0.000233 -0.0677536 -0.54831 0.07996 2650 
120 1 -0.0543462 -0.00255808 -0.0407466 0.001312 -89.252 16.8516 119.065 2650 
150 1 -0.0582017 -0.00434704 -0.0355006 0.000847 -17.7696 -0.0130453 29.1137 2650 
182 1 -0.0657376 -0.0568869 -0.0202039 0.000233 -12.2 1.93509 39.6874 2650 
269 1 -0.0641775 -0.0237349 -0.0200591 0.000847 -45.3541 9.11885 51.4539 2650 
290 1 -0.0432887 -0.0286812 -0.0154244 0.000847 0.03144 -17.8244 19.532 2650 
141 1 -0.000291175 -0.00167034 -0.0166633 0.000233 -0.018357 -0.0181538 0.00742846 2650 
395 1 -0.00229315 -0.00275491 -0.0155885 0.000847 0.0705154 -0.0328313 -0.0157165 2650 
26 1 -0.001949 -0.00102148 -0.014832 0.000233 0 -0.01175 0 2650 
357 1 -0.000761019 -0.00157777 -0.0151038 0.000847 -0.00566809 -0.0445587 0.0110902 2650 
164 1 -0.00652163 -0.00053309 -0.0135364 0.000847 0.0302902 -0.0284494 -0.00347906 2650 
487 1 -0.00547 -0.00213848 -0.008469 0.000847 0 -0.01175 0 2650 
29 1 -0.00693236 -0.000163874 -0.00922885 0.001312 0.0139563 -0.0189032 0.0130984 2650 
304 1 -0.0124364 -0.00291414 -0.00661381 0.000847 -0.0158203 -0.000685189 0.0037065 2650 
402 1 -0.012528 -0.00193648 -0.0071 0.000233 0 -0.01175 0 2650 
53 1 -0.011013 -0.00196648 -0.007695 0.000233 0 -0.01175 0 2650 
31 1 -0.0140798 -0.00110351 -0.00636775 0.000847 0.00315239 -0.0205367 0.000105283 2650 
35 1 -0.0681415 -0.0619729 -0.00314301 0.000847 -3.80613 -19.7035 84.9789 2650 
85 1 -0.0144645 -0.00208892 -0.00490219 0.000847 -0.00100994 -0.017203 0.0051437 2650 
125 1 -0.003357 -0.000915476 -0.006037 0.000847 0 -0.01175 0 2650 
97 1 -0.009673 -0.00253548 -0.003235 0.000847 0 -0.01175 0 2650 
399 1 -0.00673525 -0.000787847 -0.00401408 0.000847 0.0422446 -0.0254475 0.0697207 2650 
445 1 -0.006004 -0.00311848 -0.002238 0.001312 0 -0.01175 0 2650 
378 1 -0.001584 -0.00232548 -0.002895 0.000233 0 -0.01175 0 2650 
315 1 -0.003103 -0.00225748 -0.002159 0.001312 0 -0.01175 0 2650 
345 1 -0.0118265 -0.000209227 -0.00275739 0.000847 0.00932488 0.00546524 0.0047395 2650 
418 1 -0.0274298 -0.00633434 -0.00151504 8.4e-05 -3.61572 -0.40514 -0.111567 2650 
519 1 -0.014357 -0.00264748 -0.000107 0.000233 0 -0.01175 0 2650 
118 1 -0.006006 -0.00173048 -0.001449 0.000233 0 -0.01175 0 2650 
250 1 -0.0675991 -0.0160529 0.00444445 0.001312 2.66389 -5.21939 40.4835 2650 
101 1 -0.007806 -0.00224848 0.002945 0.000233 0 -0.01175 0 2650 
429 1 -0.00737974 -0.002199 0.00342484 0.000233 0.0266779 0.00591676 -0.0117365 2650 
440 1 -0.016002 -0.00108593 0.00414035 0.000233 0.00637766 0.0032616 -0.0067895 2650 
195 1 -0.0154817 -0.00124306 0.00453169 0.000233 -0.0273947 -0.114649 -0.0306788 2650 
218 1 -0.012593 -0.00132948 0.003611 0.000233 0 -0.01175 0 2650 
302 1 -0.00968886 -0.000404144 0.00451066 0.001312 0.0206288 -0.0313404 0.00579023 2650 
165 1 -0.0676233 -0.0552707 0.00911737 0.000847 14.893 -12.5015 110.414 2650 
4 1 -0.0655321 -0.0178214 0.00917446 0.000847 -8.06665 33.7895 80.2695 2650 
45 1 -0.00744551 -0.00170718 0.00622619 0.000847 -0.0264963 -0.0559961 -0.0101666 2650 
451 1 -0.0115151 -0.00259175 0.00751446 0.000847 -0.095701 -0.0402964 -0.0749119 2650 
117 1 -0.00547481 -0.00199256 0.00724014 0.000233 0.0303875 -0.00633589 0.0353784 2650 
364 1 -0.00687787 -0.00387855 0.00900483 0.000233 -0.815327 -0.103368 1.12879 2650 
314 1 -0.012863 -0.00200348 0.007925 8.4e-05 0 -0.01175 0 2650 
394 1 -0.0131836 -0.00161904 0.00905014 0.000847 -0.0769743 -0.00786382 -0.145058 2650 
372 1 -0.00739807 -0.000341479 0.00887589 0.000847 0.125632 -0.0545518 -0.00618199 2650 
92 1 -0.012301 -0.00314848 0.010509 0.000233 0 -0.01175 0 2650 
450 1 -0.00991832 -0.00078936 0.00972396 0.000847 0.0893523 -0.0738961 0.0504862 2650 
341 1 -0.0570244 -0.0122725 0.0115712 0.001312 -8.66234 -0.643682 1.70447 2650 
510 1 -0.00506786 -0.00170238 0.012484 0.001312 -0.137324 -0.0603939 -0.0239172 2650 
176 1 -0.0065739 -0.000107177 0.0115633 0.000847 -0.0511141 -0.0181627 -0.0271805 2650 
298 1 -0.00940639 -0.00161837 0.013728 0.000233 -0.141299 -0.00828067 -0.102543 2650 
486 1 -0.00299446 -0.00318638 0.0137486 0.000847 -0.0787282 -0.0184828 0.0193847 2650 
70 1 -0.00697501 -0.00121772 0.0140334 0.000847 -0.128411 -0.0571517 0.0359829 2650 
9 1 -0.00497032 -0.0028995 0.0153642 0.000233 -0.0570409 -0.0801443 0.0239661 2650 
52 1 -0.0641508 -0.00467517 0.0247856 0.000233 17.7642 3.36588 45.969 2650 
123 1 -0.0130495 -0.0539547 0.0252767 0.000847 2.82326 0.00693368 1.35786 2650 
82 1 -0.0589831 -0.0271417 0.0333404 0.001312 25.8455 -5.42724 45.6868 2650 
115 1 -0.050017 -0.0361388 0.0471968 0.000233 26.2618 -2.22508 27.8254 2650 
151 1 -0.0337427 -0.0216323 0.0592408 0.000847 46.0059 -3.80953 26.1895 2650 
140 1 -0.0202211 -0.0454014 0.0657268 0.000233 26.0682 -3.71565 8.01993 2650 
307 1 -0.00810479 -0.0430373 0.0676858 0.000847 48.8815 -9.80796 5.84985 2650 
492 1 -0.015329 -0.0342592 0.0669883 0.000233 10.9788 7.1046 2.38617 2650 
102 1 -0.00153921 -0.0439983 0.0687504 0.000233 55.9928 10.6703 1.25347 2650 
225 1 -0.031694 0.0670927 -0.0598094 0.001312 -0.0335042 0.0231779 0.0308421 2650 
360 1 -0.000517027 0.00158272 -0.0160439 0.000847 0.0497732 0.032423 -0.00969442 2650 
143 1 -0.00334716 0.00670002 -0.0158346 0.000233 -0.0269971 0.0121775 0.0115281 2650 
403 1 -0.000599792 0.0520949 -0.0164961 0.000233 0.389307 0.15855 -0.0144818 2650 
3 1 -0.0661248 0.0731774 -0.0165693 0.000847 -0.038568 0.124304 0.153799 2650 
232 1 -0.00577065 0.00225511 -0.0154779 0.000233 -0.0174415 -0.00497908 0.0333962 2650 
37 1 -0.007724 0.00635952 -0.014299 0.000233 0 -0.01175 0 2650 
49 1 -0.006313 0.00539252 -0.014865 0.000233 0 -0.01175 0 2650 
309 1 -0.005736 0.00907852 -0.014845 0.000233 0 -0.01175 0 2650 
299 1 -0.0074674 0.0128569 -0.0145274 0.000233 0.455161 -0.032059 -0.200555 2650 
489 1 -0.0029522 0.0190581 -0.0148603 0.000847 -0.167603 0.0875041 0.00796522 2650 
224 1 -0.00472714 0.00114403 -0.0138503 0.001312 0.0226177 -0.012579 -0.00750745 2650 
285 1 -0.00931531 0.00310758 -0.013673 0.000233 -0.0136893 0.0114254 0.0378663 2650 
234 1 -0.003242 0.00267452 -0.013015 0.000233 0 -0.01175 0 2650 
217 1 -0.00273652 0.00391255 -0.0128238 0.000847 -0.0535587 0.0130975 0.0146586 2650 
198 1 -0.00180938 0.0106721 -0.0126643 0.001312 0.000654555 0.0143107 0.000998504 2650 
12 1 -0.00349601 0.0151783 -0.0141006 0.000233 0.00747796 0.0555781 0.0464328 2650 
245 1 -0.00949249 0.0175883 -0.0134505 0.000233 0.0841129 0.0635416 -0.0554826 2650 
482 1 -0.00676922 0.0176188 -0.0129592 0.000233 -0.0125738 0.0274672 -0.0541309 2650 
495 1 -0.00182331 0.00194081 -0.0113915 0.000233 -0.0598717 0.0427264 0.0736543 2650 
233 1 -0.006747 0.00438552 -0.01241 0.000233 0 -0.01175 0 2650 
386 1 -0.00336948 0.00546859 -0.01201 0.000847 -0.0578151 0.00973727 0.0123685 2650 
75 1 -0.00245013 0.00741427 -0.0123644 0.000233 0.0272445 -0.0701063 -0.0173763 2650 
430 1 -0.0100191 0.0164859 -0.012151 0.000233 -0.142462 0.00704974 -0.147873 2650 
404 1 -0.00168586 0.000908408 -0.00980539 0.000233 -0.0929109 -0.0275897 0.0187224 2650 
133 1 -0.00368039 0.00183195 -0.00960755 0.001312 -0.0155202 0.00151148 0.0224827 2650 
28 1 -0.0021486 0.0055764 -0.0101021 8.4e-05 -0.0487345 0.0492571 0.0474564 2650 
392 1 -0.003997 0.00712652 -0.009609 8.4e-05 0 -0.01175 0 2650 
209 1 -0.001802 0.00795452 -0.011003 0.000233 0 -0.01175 0 2650 
455 1 -0.006244 0.00265452 -0.008207 0.000233 0 -0.01175 0 2650 
336 1 -0.000699 0.00387252 -0.008095 0.000233 0 -0.01175 0 2650 
251 1 -0.00841433 0.00759019 -0.00823973 0.000847 0.0485514 0.0190071 -0.0400102 2650 
316 1 -0.00582557 0.00734088 -0.00802911 0.000847 -0.0581366 0.0310809 0.0153227 2650 
2 1 -0.0106574 0.00803014 -0.00858426 0.001312 0.0376634 0.00674337 -0.0319519 2650 
66 1 -0.0106414 0.0216396 -0.00800854 0.000233 -0.00952687 0.0365334 -0.00433662 2650 
483 1 -0.010366 0.000766524 -0.006716 8.4e-05 0 -0.01175 0 2650 
155 1 -0.0027388 0.000295511 -0.00712799 0.000233 -0.0610416 -0.00231235 0.051144 2650 
60 1 -0.005537 0.00174352 -0.006955 0.000847 0 -0.01175 0 2650 
324 1 -0.004804 0.00349452 -0.006739 0.000233 0 -0.01175 0 2650 
158 1 -0.004052 0.00469852 -0.007417 8.4e-05 0 -0.01175 0 2650 
391 1 -0.001389 0.00721952 -0.007809 0.000233 0 -0.01175 0 2650 
266 1 -0.0117409 0.000759664 -0.00601833 0.000847 0.00215122 -0.0181044 0.00378023 2650 
289 1 -0.0144739 0.00320251 -0.00566896 0.001312 -0.00581254 -0.00886052 0.0319193 2650 
512 1 -0.0049434 0.00783054 -0.00516143 0.000847 -0.0222461 0.0232069 0.0532698 2650 
79 1 -0.009334 0.00800852 -0.006031 0.000233 0 -0.01175 0 2650 
72 1 -0.00411455 0.0217096 -0.00497944 0.000847 -0.0206207 0.0396561 -0.0248414 2650 
286 1 -0.016281 0.000998524 -0.003576 0.000233 0 -0.01175 0 2650 
306 1 -0.0113397 0.000294709 -0.00438033 0.000847 0.00215268 -0.014894 0.0072184 2650 
229 1 -0.0155294 0.00236531 -0.00374288 0.000847 0.000209159 -0.0119443 0.000741757 2650 
248 1 -0.0141817 0.00308264 -0.00405875 0.000233 0.000730028 -0.010672 0.0342145 2650 
466 1 -0.015616 0.00411652 -0.003521 0.000233 0 -0.01175 0 2650 
478 1 -0.010102 0.00452052 -0.003546 0.000233 0 -0.01175 0 2650 
421 1 -0.00865484 0.0057933 -0.00434058 0.000847 -0.045111 -0.00626445 -0.168566 2650 
467 1 -0.01128 0.00671052 -0.004037 0.000233 0 -0.01175 0 2650 
413 1 -0.0030942 0.00690537 -0.00456183 0.000233 -0.027059 0.0159275 -0.00196035 2650 
313 1 -0.00548538 0.00803902 -0.00377188 0.000233 -0.0086097 -0.0259381 -0.153668 2650 
331 1 -0.0150947 0.00987789 -0.00385538 0.000847 0.00587816 0.021856 -0.0102275 2650 
352 1 -0.00596987 0.0293393 -0.00462842 0.000233 0.0597404 0.0757619 0.163411 2650 
505 1 -0.0124189 0.000394955 -0.00199318 0.000233 -0.00378522 -0.00213289 0.00845565 2650 
168 1 -0.011097 0.00231052 -0.001986 0.000233 0 -0.01175 0 2650 
448 1 -0.00412393 0.0016765 -0.00314139 0.000847 0.049654 0.0156373 -0.153817 2650 
312 1 -0.006897 0.00602652 -0.002463 0.000233 0 -0.01175 0 2650 
301 1 -0.000431 0.00625952 -0.003081 8.4e-05 0 -0.01175 0 2650 
63 1 -0.000147 0.00937952 -0.0027 0.000233 0 -0.01175 0 2650 
68 1 -0.00679004 0.0139172 -0.00204441 0.001312 -0.00599746 0.0515637 0.0892215 2650 
93 1 -0.0166102 0.0216309 -0.00165024 8.4e-05 -0.00599956 0.118047 -0.561156 2650 
274 1 -0.0134118 0.0331792 -0.00191618 0.000233 0.0727035 0.224919 -0.0383669 2650 
51 1 -0.00880748 0.0379796 -0.00192868 0.000233 0.0856433 0.19649 0.0193231 2650 
174 1 -0.00213269 0.00448824 -0.000498129 0.000847 -0.00194374 -0.028622 -0.0302539 2650 
517 1 -0.011514 0.00588952 -0.000191 0.000233 0 -0.01175 0 2650 
237 1 -0.0149394 0.00769661 -0.00111311 0.001312 0.0118003 -0.00464755 0.000287807 2650 
201 1 -0.00858842 0.00640335 -0.00027067 0.000847 0.0502164 0.0340039 -0.0450817 2650 
242 1 -0.00872931 0.0084355 -0.000161347 0.000847 0.0237385 0.0114729 -0.0355425 2650 
178 1 -0.00497509 0.0112844 -0.00109206 0.000847 -0.0043648 0.00536194 -0.136405 2650 
6 1 -0.0160644 0.0179466 -0.000350272 0.000847 -0.021637 -0.116543 -0.494919 2650 
204 1 -0.00278843 0.020977 -0.000853588 0.000847 0.0925402 0.0659045 0.0905325 2650 
310 1 -0.00581452 0.00311883 8.38539e-05 0.000233 -0.0908326 -0.0132465 -0.0354539 2650 
373 1 -0.015091 0.00374452 0.000947 0.000847 0 -0.01175 0 2650 
356 1 -0.00307486 0.011593 0.00137331 0.000847 -0.0308553 0.0328962 0.108978 2650 
296 1 -0.00450819 0.0128742 0.000767305 0.000233 -0.0824316 0.0985264 0.0156653 2650 
323 1 -0.008651 0.00129152 0.002916 0.000233 0 -0.01175 0 2650 
327 1 -0.0166137 0.00732808 0.00195137 8.4e-05 -0.015086 0.176311 -0.272919 2650 
376 1 -0.005395 0.00700252 0.002758 0.000233 0 -0.01175 0 2650 
56 1 -0.0101113 0.00848038 0.00270662 0.001312 0.0176106 0.0191107 -0.0220441 2650 
22 1 -0.0104624 0.0115063 0.0021445 0.000233 -0.0823264 -0.0253419 -0.0910835 2650 
216 1 -0.00914827 0.0120078 0.0030066 0.000847 -0.0580341 0.0280655 0.00680035 2650 
137 1 -0.00861178 0.0146971 0.0017954 0.000847 -0.0419939 0.031769 0.00899049 2650 
188 1 -0.00424088 0.0208144 0.00158649 0.000847 0.00797073 0.0304807 0.00488408 2650 
292 1 -0.0159014 0.0370989 0.00229815 0.000847 -0.0441134 -0.0350511 -0.842658 2650 
441 1 -0.014312 0.00142952 0.004679 0.000233 0 -0.01175 0 2650 
264 1 -0.00969641 0.00225651 0.00422096 0.000847 0.0343441 -0.0226458 -0.00720675 2650 
206 1 -0.002945 0.00209952 0.003686 0.000233 0 -0.01175 0 2650 
131 1 -0.00787865 0.0078547 0.00423782 0.000233 0.0289554 0.00214541 -0.00104248 2650 
156 1 -0.015257 0.00811152 0.00371 0.000233 0 -0.01175 0 2650 
374 1 -0.006913 0.00965752 0.00361 0.000233 0 -0.01175 0 2650 
332 1 -0.0147777 0.0526499 0.00461126 0.000847 -0.00816954 0.274522 0.0889536 2650 
387 1 -0.00289093 0.0598602 0.00442284 0.000233 -0.0456413 0.346906 -0.121451 2650 
189 1 -0.001267 0.000770524 0.004803 0.000847 0 -0.01175 0 2650 
135 1 -0.008556 0.00398552 0.005239 0.000847 0 -0.01175 0 2650 
431 1 -0.007173 0.00347352 0.006023 8.4e-05 0 -0.01175 0 2650 
370 1 -0.0151398 0.00562953 0.00479633 0.000847 -0.0521399 0.120082 -0.205193 2650 
469 1 -0.012765 0.00739152 0.005129 0.000233 0 -0.01175 0 2650 
283 1 -0.0104439 0.00698818 0.00491796 0.000233 -0.0149812 -0.00483098 0.00792194 2650 
90 1 -0.009269 0.00763452 0.005356 0.000233 0 -0.01175 0 2650 
172 1 -0.00527179 0.00674558 0.00541217 0.001312 -0.0158833 -0.0117422 0.00876366 2650 
464 1 -0.00251193 0.00690538 0.00582262 0.000233 0.0293497 -0.0104472 0.0486113 2650 
355 1 -0.00994475 0.00937498 0.00538898 0.000847 0.0395322 -0.00512358 -0.0203925 2650 
244 1 -0.002251 0.00921252 0.006118 0.000233 0 -0.01175 0 2650 
281 1 -0.0101212 0.000623594 0.00709139 0.000847 0.241329 0.102525 -0.00306913 2650 
96 1 -7.1e-05 0.00266452 0.006733 0.000847 0 -0.01175 0 2650 
256 1 -0.00527371 0.00431909 0.00777893 0.000847 -0.011673 -0.0282842 0.0218155 2650 
62 1 -0.012762 0.00490656 0.00788935 0.000233 0.251033 0.395355 0.0929796 2650 
474 1 -0.0106012 0.00589223 0.00734404 0.000847 0.0162804 -0.0151424 -0.0202446 2650 
260 1 -0.00690747 0.00604523 0.00659634 0.000233 -0.0466202 -0.0503798 -0.0944835 2650 
329 1 -0.000212 0.00556352 0.006779 0.000847 0 -0.01175 0 2650 
196 1 -0.00803476 0.00692547 0.00787972 0.000233 -0.000496307 0.0280491 0.0192263 2650 
369 1 -0.008047 0.00754952 0.006729 0.000847 0 -0.01175 0 2650 
152 1 -0.00114721 0.00865722 0.00785859 0.000847 0.0164777 -0.00758025 -0.00755069 2650 
393 1 -0.0127175 0.0190683 0.00658447 0.001312 0.00293312 0.0605255 -0.14011 2650 
265 1 -0.0136847 0.0299708 0.00680996 0.000847 -0.145056 0.203139 -0.0601505 2650 
238 1 -0.0113012 0.0291909 0.00742736 0.001312 -0.0789563 0.172955 -0.110382 2650 
293 1 -0.00204173 0.0361919 0.00713571 0.000847 -0.023198 0.208946 -0.0776918 2650 
319 1 -0.0132412 0.00213542 0.00874565 0.000847 0.124198 0.279127 0.163788 2650 
88 1 -0.0103837 0.00489847 0.00806081 0.000233 0.00384863 -0.0179609 0.00115601 2650 
130 1 -0.004749 0.00524352 0.009456 0.000233 0 -0.01175 0 2650 
462 1 -0.01378 0.00751071 0.00814397 0.000847 -0.0169557 -0.0123601 -0.0197745 2650 
73 1 -0.0123841 0.0082674 0.00932484 0.000847 -0.0048913 0.0103656 -0.024005 2650 
291 1 -0.00239896 0.00846262 0.00907491 0.000847 -0.0130506 0.0028354 -0.022971 2650 
379 1 -0.0133521 0.0110957 0.00830101 8.4e-05 -0.042062 0.0398149 -0.079211 2650 
223 1 -0.012634 0.0118733 0.00819241 8.4e-05 0.0208174 0.0552486 0.0368793 2650 
318 1 -0.0126773 0.0417237 0.00894497 0.000847 -0.0630483 0.205024 -0.148385 2650 
86 1 -0.0136346 0.0566474 0.00835413 0.000847 -0.478969 0.232367 -0.897386 2650 
161 1 -0.0122356 0.000570203 0.0104156 0.000847 0.10285 -0.033031 0.0910472 2650 
333 1 -0.0108682 0.00145004 0.00983705 0.000847 0.0567776 -0.0139799 -0.039061 2650 
41 1 -0.008377 0.00147852 0.009542 8.4e-05 0 -0.01175 0 2650 
259 1 -0.007193 0.00151052 0.011052 0.000233 0 -0.01175 0 2650 
321 1 -0.010881 0.00451452 0.010029 0.000847 0 -0.01175 0 2650 
219 1 -0.00871133 0.00326962 0.00990797 0.000233 0.00849933 0.00349453 -0.0201485 2650 
267 1 -0.00832 0.00561252 0.009655 0.000847 0 -0.01175 0 2650 
509 1 -0.001563 0.00489852 0.010036 8.4e-05 0 -0.01175 0 2650 
446 1 -0.010269 0.00756258 0.0104976 0.000847 0.00401808 0.0156622 0.0193974 2650 
475 1 -0.007166 0.00810952 0.009694 0.000847 0 -0.01175 0 2650 
55 1 -0.0012124 0.00808359 0.0109377 0.001312 -0.00374929 0.010234 -0.0225091 2650 
104 1 -0.0102485 0.0114147 0.0110414 0.000233 -0.139391 0.0100845 0.0551284 2650 
303 1 -0.0036435 0.0167774 0.0110119 0.000847 0.124984 0.0945688 0.108216 2650 
518 1 -0.011612 0.00636552 0.01181 0.000233 0 -0.01175 0 2650 
226 1 -0.005007 0.00510152 0.011519 0.000847 0 -0.01175 0 2650 
235 1 -0.00605 0.00596552 0.012276 0.000233 0 -0.01175 0 2650 
192 1 -0.00777606 0.00713642 0.0114782 0.000233 0.0202212 -0.0060897 -0.0268819 2650 
128 1 -0.003888 0.00678452 0.011415 0.000233 0 -0.01175 0 2650 
516 1 -0.010492 0.00823952 0.012435 0.000233 0 -0.01175 0 2650 
186 1 -0.00654307 0.0155999 0.0111638 0.001312 0.0807011 0.042143 0.140378 2650 
180 1 -0.005697 0.00400452 0.013052 0.000233 0 -0.01175 0 2650 
443 1 -0.00441648 0.00539824 0.0131938 0.000233 -0.0175323 -0.0215559 -0.00783954 2650 
484 1 -0.00312362 0.00625823 0.0134928 0.001312 -0.0157474 -0.00788579 -0.025633 2650 
149 1 -0.00904425 0.0106038 0.0131928 0.000847 -0.0621659 0.000281577 -0.0492779 2650 
381 1 -0.00175468 0.0127217 0.0138978 0.000847 -0.0726805 0.0565094 0.00133821 2650 
1 1 -0.00548037 0.0149674 0.0141283 0.001312 -0.063242 0.0529587 -0.0186708 2650 
514 1 -0.00437629 0.0278791 0.0132058 0.000847 -0.0244952 0.177148 -0.0280676 2650 
417 1 -0.00647827 0.000612555 0.0153484 0.000233 -0.0337406 -0.0426269 -0.0346126 2650 
311 1 -0.00708159 0.0034028 0.0145278 0.000233 -0.0669443 -0.00186684 -0.0243144 2650 
419 1 -0.00542094 0.00362058 0.0145524 0.001312 -0.0582599 0.00968039 -0.0242722 2650 
295 1 -0.00235737 0.0071231 0.0155451 0.000847 -0.0387627 -0.0138003 -0.0221295 2650 
515 1 -0.0036908 0.0100478 0.0146514 0.000847 -0.0422827 0.0413566 -0.0146741 2650 
43 1 -0.000638221 0.0100947 0.0155701 0.001312 -0.0737195 0.0462551 0.0290122 2650 
263 1 -0.00609506 0.0118881 0.0142991 0.001312 -0.0562965 0.043969 -0.0142552 2650 
5 1 -0.00444657 0.0171625 0.0147219 0.000847 -0.0775378 0.0742564 -0.0170822 2650 
262 1 -0.0610557 0.122881 -0.0319651 8.4e-05 -0.0619993 0.0572555 0.118413 2650 
422 1 -0.05782 0.0829464 -0.0216493 0.000847 -1.70774 11.196 6.32625 2650 
330 1 -0.0645385 0.0842068 -0.0197203 0.000847 -2.3695 0.310191 -0.661282 2650 
42 1 -0.00981422 0.0774287 0.0044863 0.001312 -0.116046 0.177736 -0.0102008 2650 
147 1 -0.000244345 0.0847443 0.00889611 0.001312 -0.172478 0.435678 0.0416444 2650 
205 1 0.00926294 -0.0383506 -0.0681411 0.000233 -57.8133 -2.99215 -7.86607 2650 
34 1 0.0440841 -0.025921 -0.0521407 0.000847 -88.1026 15.8078 -71.3435 2650 
415 1 0.0622326 -0.0497799 -0.0292728 0.000233 -28.7465 1.12683 -61.1031 2650 
498 1 0.0650621 -0.00610193 -0.0204408 0.000847 -19.5178 -12.4971 -62.0802 2650 
177 1 0.00332246 -0.00125766 -0.0146082 0.000847 -0.0299852 0.0058712 0.0118447 2650 
228 1 0.006974 -0.000250476 -0.013967 0.000847 0 -0.01175 0 2650 
67 1 0.00820501 -0.00038112 -0.0135897 8.4e-05 -0.0117748 -0.0172064 0.0127814 2650 
362 1 0.0116589 -0.00118312 -0.0118218 0.000233 -0.0307765 0.0146028 -0.0237138 2650 
74 1 0.0114659 -0.00273629 -0.0108715 0.000847 -0.0437383 -0.0764428 0.00427931 2650 
305 1 0.000483698 -0.00325314 -0.00689723 0.000847 -0.00573839 -0.0208103 0.027725 2650 
339 1 0.001696 -0.000767476 -0.005869 0.000233 0 -0.01175 0 2650 
297 1 0.009274 -0.00232948 -0.004716 0.000233 0 -0.01175 0 2650 
433 1 0.0140099 -0.00295726 -0.00156001 0.000847 -0.0170889 -0.0183544 0.00345649 2650 
428 1 0.000270246 -0.00148125 -0.00111288 0.000233 -0.0578068 -0.00262498 -0.094991 2650 
447 1 0.0681738 -0.0619736 -0.000832016 0.000847 -0.580849 -7.53713 -35.1917 2650 
434 1 0.002752 -0.00309448 0.000852 0.000847 0 -0.01175 0 2650 
480 1 0.00564 -0.000263476 0.00063 0.000233 0 -0.01175 0 2650 
249 1 0.008036 -0.00147948 0.006254 8.4e-05 0 -0.01175 0 2650 
18 1 0.00074274 -0.00337941 0.00735805 0.000847 0.0553173 -0.0342199 0.54687 2650 
320 1 0.00194272 -0.00153322 0.00698074 0.000847 0.0176626 -0.0149798 -0.00937228 2650 
385 1 0.00137736 -0.00231199 0.00941555 0.000847 0.00293837 -0.0143789 0.00343815 2650 
439 1 0.002533 -0.00193948 0.008747 0.000233 0 -0.01175 0 2650 
10 1 0.00074 -0.000549476 0.009007 0.000233 0 -0.01175 0 2650 
481 1 0.000293 -0.00288248 0.009789 0.000233 0 -0.01175 0 2650 
65 1 0.00913432 -0.000140702 0.00993757 0.000233 0.0158543 -0.0203427 0.00801213 2650 
501 1 0.0678217 -0.00888293 0.00760523 0.000847 13.8601 -9.00811 -123.661 2650 
522 1 0.0663362 -0.0123846 0.0135752 8.4e-05 0.213131 -40.876 -57.7247 2650 
349 1 0.0202726 -0.0572569 0.0218894 0.000233 -9.38777 -0.0235414 8.11279 2650 
432 1 0.0622938 -0.0142367 0.0266467 0.001312 20.0619 -4.23005 -46.8782 2650 
134 1 0.0625751 -0.00357149 0.0260015 0.001312 21.9071 -0.654447 -52.6452 2650 
280 1 0.0618054 -0.0117262 0.0287939 0.000847 19.5377 -12.4892 -41.8688 2650 
33 1 0.0333284 -0.0308148 0.0594614 0.000847 31.5199 12.5934 -17.6562 2650 
382 1 0.058604 -0.0357151 0.0342711 0.000847 19.5416 -6.31626 -27.1814 2650 
427 1 0.0436012 -0.0153381 0.0422644 0.000233 -10.672 -2.3413 0.900987 2650 
300 1 0.0443689 -0.0307567 0.0507931 0.000233 -111.359 -1.07606 51.4567 2650 
84 1 0.0435947 -0.0606297 0.0523955 0.000847 27.5244 6.72487 -20.3126 2650 
109 1 0.0429165 -0.0344191 0.0529458 0.000847 4.04213 -1.90834 -3.30966 2650 
344 1 0.0417753 -0.0473981 0.0538788 0.000847 39.6938 -7.42964 -30.7674 2650 
471 1 0.0410683 -0.0451491 0.0538763 0.001312 42.6831 -4.92087 -32.5101 2650 
460 1 0.0330061 -0.0443116 0.0596481 0.000847 40.1331 -3.32836 -22.1946 2650 
414 1 0.0542425 0.0674654 -0.0422715 0.000233 0.133088 -0.201548 0.170731 2650 
477 1 0.056796 0.0587918 -0.0387739 0.000233 0.247805 -0.099283 0.362891 2650 
94 1 0.0649339 0.074486 -0.0192 0.001312 -0.00289129 -0.049081 -0.00976673 2650 
351 1 0.00154328 0.0115099 -0.0163689 0.000233 0.0060861 0.0185508 -0.080381 2650 
459 1 0.00312066 0.00790624 -0.0156509 0.000847 -0.00525176 0.161089 0.00325286 2650 
366 1 0.005681 0.00795952 -0.015538 8.4e-05 0 -0.01175 0 2650 
246 1 0.00489058 0.00946106 -0.015335 0.000233 0.0194156 0.0361935 0.0116956 2650 
325 1 0.00455449 0.00297345 -0.0131725 0.000233 0.00938521 0.0159583 -0.00345558 2650 
397 1 0.00745451 0.00931688 -0.0137349 0.000847 0.0916022 -0.0101899 0.0352233 2650 
207 1 0.00798959 0.00910893 -0.0126752 0.000233 0.0688814 -0.0218671 0.0699082 2650 
494 1 0.005414 0.0104584 -0.0129041 0.000233 0.0281058 0.0489588 0.0197188 2650 
365 1 0.00271134 0.0233481 -0.0137959 0.000233 -0.0925811 0.00859955 0.0168886 2650 
40 1 0.00969188 0.0452615 -0.0134149 0.000233 2.94382 -0.128932 2.19709 2650 
16 1 0.000929869 0.0103215 -0.0122215 0.001312 0.0126936 0.0293328 0.0396239 2650 
282 1 0.00420272 0.0003017 -0.0100511 0.000847 -0.00622339 -0.00443542 0.0362471 2650 
139 1 0.00328336 0.0030695 -0.0104328 0.000847 0.00129991 -0.0119544 -0.000628428 2650 
368 1 0.0121126 0.0283896 -0.0105131 0.000847 0.0281848 0.140807 0.0636683 2650 
77 1 0.00070832 0.00021327 -0.00805415 0.000233 -0.0254072 0.0580067 -0.000310724 2650 
215 1 0.00248026 0.00287157 -0.0083755 0.000847 0.000567464 -0.01239 0.000591655 2650 
502 1 0.0118679 0.00913245 -0.00805355 0.000847 -0.00258434 -0.0113928 0.00197279 2650 
493 1 0.00974981 0.0201222 -0.00831065 0.000233 0.0558896 0.116937 0.0356193 2650 
154 1 0.0111513 0.0473068 -0.009306 0.000233 -0.00924804 0.118602 0.00100956 2650 
14 1 0.006783 0.00423352 -0.007807 8.4e-05 0 -0.01175 0 2650 
400 1 0.008609 0.00999152 -0.006808 0.000233 0 -0.01175 0 2650 
39 1 0.012691 0.00466252 -0.00605 0.000233 0 -0.01175 0 2650 
405 1 0.0145478 0.00323395 -0.00580944 8.4e-05 -0.00569416 -0.025655 0.0708516 2650 
425 1 0.00357908 0.0161372 -0.00561807 0.000847 -0.00179661 0.0212887 -0.0293796 2650 
17 1 0.00243871 0.00689448 -0.00416793 0.000847 -0.0108196 -0.0104384 -0.0223469 2650 
105 1 0.00021 0.00948752 -0.003991 0.000233 0 -0.01175 0 2650 
337 1 0.014824 0.00253726 -0.00276197 0.000233 0.0204879 -0.021934 0.0541176 2650 
142 1 0.000422 0.00320952 -0.00166 0.000233 0 -0.01175 0 2650 
11 1 0.0154761 0.004204 -0.00172264 0.000233 -0.0354392 0.0104807 0.0236044 2650 
80 1 0.000184 0.00946252 -0.002772 8.4e-05 0 -0.01175 0 2650 
363 1 0.013993 0.00951252 -0.001599 0.000233 0 -0.01175 0 2650 
377 1 0.00409235 0.0173337 -0.00315771 0.000233 -0.00743467 0.0415235 -0.00232682 2650 
348 1 0.0151671 0.043533 -0.00185566 0.000233 -0.0863495 0.184567 0.0688001 2650 
255 1 0.0134136 0.010806 -0.00136785 0.000847 0.0854974 0.0677712 0.0645602 2650 
457 1 0.00741946 0.0114351 -1.71393e-05 8.4e-05 0.0645709 0.0674432 0.0780914 2650 
211 1 0.00476481 0.0153556 -0.000629596 0.001312 -0.00854215 0.0127125 -0.0169799 2650 
222 1 0.0114429 0.0213271 -0.000479599 0.000233 0.10422 0.00601138 -0.0113222 2650 
383 1 0.0158133 0.026467 -0.000743294 0.000847 0.0346662 0.114327 -0.00365909 2650 
485 1 0.01214 0.000493225 0.000428497 0.000847 0.0149122 -0.0182506 0.0101227 2650 
220 1 0.004447 0.00183152 0.000291 0.000233 0 -0.01175 0 2650 
122 1 0.009753 0.00310552 0.000953 0.000847 0 -0.01175 0 2650 
8 1 0.006698 0.00845152 0.001482 0.000233 0 -0.01175 0 2650 
354 1 0.00896648 0.0136489 0.000914894 0.001312 0.0217972 0.00773275 0.0224866 2650 
76 1 0.000476174 0.0154846 0.000409845 0.000233 0.0494161 0.0592548 0.0998977 2650 
214 1 0.0102679 0.0297289 0.00115976 0.000847 0.0984519 0.156505 0.0299785 2650 
15 1 0.00120896 0.0392637 0.000172758 0.001312 0.132187 0.201925 -0.0627068 2650 
213 1 0.00079323 0.0619384 0.000877442 0.000847 0.102652 0.271685 0.196781 2650 
520 1 0.0164836 0.00466839 0.00187943 0.000233 -0.0357421 0.0243038 0.10387 2650 
116 1 8e-05 0.00497652 0.00308 0.000233 0 -0.01175 0 2650 
132 1 0.013326 0.00553352 0.002036 8.4e-05 0 -0.01175 0 2650 
270 1 0.0107518 0.00843488 0.00301297 0.000233 0.023643 -0.00666675 0.0224762 2650 
163 1 0.00922394 0.0166757 0.00204023 0.000847 0.0430854 0.0590945 0.119399 2650 
511 1 0.0066443 0.0194316 0.00300358 0.000847 -0.0411457 0.0321393 0.0170147 2650 
456 1 0.009608 0.00645252 0.003179 0.000233 0 -0.01175 0 2650 
103 1 0.00732056 0.0107411 0.00381361 0.000233 0.00887738 -0.00588662 0.0279114 2650 
506 1 0.014666 0.0114646 0.00397898 0.000233 -0.0827587 -0.106934 0.332673 2650 
13 1 0.00809302 0.0157693 0.004691 8.4e-05 0.135337 0.0482109 0.10345 2650 
167 1 0.00314408 0.00450335 0.00608588 0.000233 -0.0624893 -0.0339135 -0.0841837 2650 
261 1 0.000382 0.00908752 0.006142 0.000233 0 -0.01175 0 2650 
24 1 0.004515 3.25241e-05 0.007639 0.000233 0 -0.01175 0 2650 
353 1 0.00254304 0.00277525 0.00729741 8.4e-05 0.00908281 0.00118574 -0.0158319 2650 
191 1 0.0146279 0.0156793 0.00655509 0.000847 -0.187969 0.0621545 0.450952 2650 
361 1 0.00177517 0.0220729 0.00761636 0.000233 0.141654 0.0851067 -0.00539908 2650 
146 1 1.15344e-05 0.0354873 0.00662056 0.001312 -0.267689 0.115571 -0.00883534 2650 
95 1 0.0110263 0.0575003 0.00695878 0.001312 0.0464273 0.301905 -0.195547 2650 
359 1 0.00284314 0.00244606 0.00881365 0.000847 0.0160387 0.00288881 -0.00727752 2650 
119 1 0.00722 0.00464852 0.008414 8.4e-05 0 -0.01175 0 2650 
252 1 0.001065 0.00628552 0.008117 0.000847 0 -0.01175 0 2650 
184 1 0.007384 0.00544052 0.007977 8.4e-05 0 -0.01175 0 2650 
437 1 0.0129247 0.0102053 0.00813941 0.000847 0.0238939 0.0440676 0.1397 2650 
208 1 0.00190871 0.0409719 0.00906521 0.000233 0.0406946 0.199818 -0.0966651 2650 
406 1 0.000713903 0.00348022 0.0103738 0.001312 0.012333 -0.00149873 0.00816574 2650 
254 1 0.000995 0.00565352 0.010786 0.000847 0 -0.01175 0 2650 
375 1 0.002381 0.00621852 0.009939 0.000233 0 -0.01175 0 2650 
50 1 0.00297569 0.00527258 0.00953503 0.000233 -0.166271 0.208797 -0.251518 2650 
476 1 0.00153233 0.00860256 0.0109842 0.000847 0.0229742 0.0129824 -0.0229211 2650 
388 1 0.0128052 0.00869885 0.0104973 0.000233 0.0857367 0.0315469 -0.117083 2650 
407 1 0.0122847 0.016876 0.00970011 0.000847 -0.0666817 0.0519445 -0.0264343 2650 
470 1 0.00647755 0.0357565 0.0110352 8.4e-05 0.153605 0.170127 -0.0350765 2650 
390 1 0.00210144 0.0063814 0.0122402 0.000233 -0.00511716 -0.00910385 0.00447344 2650 
99 1 0.000790634 0.00774867 0.0124164 0.000847 0.0130843 0.0220184 -0.0105542 2650 
89 1 0.003537 0.0100175 0.012461 0.000233 0 -0.01175 0 2650 
412 1 0.0106911 0.00963794 0.0118999 0.000847 -0.192286 -0.02576 0.167333 2650 
273 1 0.00596905 0.0190409 0.0120601 0.000233 0.0171125 0.0384938 -0.163066 2650 
444 1 0.0121526 0.0237841 0.0117426 8.4e-05 -0.16787 -0.0847056 0.125241 2650 
499 1 0.00242818 0.0043353 0.012892 0.000847 0.0121409 -0.00463282 0.0427382 2650 
479 1 0.00631 0.00362052 0.014132 0.000233 0 -0.01175 0 2650 
200 1 0.00537878 0.00536612 0.0135476 0.000847 -0.0200125 -0.0307002 0.0155467 2650 
98 1 0.00105494 0.00479645 0.0148607 0.000847 -0.00803154 0.00832735 0.0507465 2650 
504 1 0.00675936 0.0172638 0.01449 0.000233 0.164914 0.0334857 -0.0793582 2650 
38 1 0.0057866 0.0204468 0.0151176 0.000233 -0.045507 0.111302 -0.0411734 2650 