ITEM: TIMESTEP
7561682
ITEM: NUMBER OF ATOMS
304
ITEM: BOX BOUNDS ff ff ff
-0.15 0.15
-0.15 0.15
-0.15 0.15
ITEM: ATOMS id type x y z radius vx vy vz density 
246 1 -0.00784672 -0.0139967 -0.0683197 0.000233 -69.2761 -16.3228 7.95638 2650 
450 1 -0.0276794 -0.0369005 -0.0623164 0.000847 -63.4329 3.83623 28.1609 2650 
109 1 -0.0443983 -0.0127334 -0.0518103 0.000847 -88.7577 -0.897624 76.0273 2650 
250 1 -0.047962 -0.0455435 -0.0443637 0.001312 -36.0104 16.5829 43.9648 2650 
315 1 -0.0581233 -0.00953671 -0.0347352 0.001312 -8.04987 3.75477 13.4549 2650 
357 1 -0.04906 -0.0584505 -0.0332778 0.000847 -44.3729 2.53142 23.0781 2650 
4 1 -0.0600337 -0.0145447 -0.032316 0.000847 -19.3391 -5.59638 35.9044 2650 
34 1 -0.063516 -0.0261924 -0.0248381 0.000847 -25.3944 8.03568 64.9051 2650 
101 1 -0.0659846 -0.0505299 -0.0193781 0.000233 3.43096 0.0114573 -11.6803 2650 
394 1 -0.00652404 -0.00303137 -0.0146047 0.000847 0.165198 -0.00142912 -0.0880009 2650 
26 1 -0.001949 -0.00290146 -0.014832 0.000233 0 -0.01175 0 2650 
404 1 -0.00466256 -6.786e-05 -0.00952015 0.000233 0.00345182 -0.00380056 -0.00408233 2650 
298 1 -0.0143319 -0.00154962 -0.00845752 0.000233 0.0845701 0.0147289 -0.114904 2650 
29 1 -0.00510904 -0.00279981 -0.00731171 0.001312 0.00789103 -0.015767 0.00914874 2650 
483 1 -0.010366 -0.00111346 -0.006716 8.4e-05 0 -0.01175 0 2650 
60 1 -0.00567127 -0.000278374 -0.00661015 0.000847 -0.00163553 -0.0128917 0.00187814 2650 
481 1 -0.0303065 -0.0168944 -0.0065965 0.000233 3.02155 2.19068 -7.73369 2650 
266 1 -0.0114121 -0.00212572 -0.00546989 0.000847 0.00199437 -0.0179891 0.00320501 2650 
125 1 -0.00336158 -0.00280197 -0.00596148 0.000847 0.010739 -0.0128363 0.0101899 2650 
167 1 -0.00648226 -0.00129138 -0.00532419 0.000233 -0.0449901 -0.0512581 0.0127152 2650 
174 1 -0.00244368 -9.12449e-05 -0.00533873 0.000847 -0.00194374 -0.028622 -0.0302539 2650 
306 1 -0.0107807 -0.00190465 -0.00383447 0.000847 0.00362064 -0.0137261 0.00341387 2650 
286 1 -0.016281 -0.000881464 -0.003576 0.000233 0 -0.01175 0 2650 
168 1 -0.00807192 -0.000382012 -0.00246463 0.000233 0.0550342 -0.0278874 0.00210919 2650 
218 1 -0.013083 -0.00169853 0.00136393 0.000233 -0.00969799 0.0181562 -0.0444767 2650 
155 1 -0.0118832 -0.000251476 0.00157278 0.000233 -0.0452841 -0.00679515 0.0642569 2650 
429 1 -0.0031113 -0.00125233 0.00154702 0.000233 0.0266779 0.00591676 -0.0117365 2650 
323 1 -0.008651 -0.000588464 0.002916 0.000233 0 -0.01175 0 2650 
264 1 -0.0042014 -0.0013668 0.00306789 0.000847 0.0343441 -0.0226458 -0.00720675 2650 
441 1 -0.014312 -0.000450464 0.004679 0.000233 0 -0.01175 0 2650 
333 1 -0.00221702 -0.000686233 0.00349158 0.000847 0.0336892 -0.00868286 -0.0441312 2650 
506 1 -0.0154403 -0.000964516 0.00622671 0.000233 -0.0423033 -0.0507849 -0.208034 2650 
189 1 -0.000832891 -0.00121427 0.00490114 0.000847 0.0231489 -0.0173389 0.00523261 2650 
41 1 -0.008377 -0.000401464 0.009542 8.4e-05 0 -0.01175 0 2650 
259 1 -0.007193 -0.000369464 0.011052 0.000233 0 -0.01175 0 2650 
372 1 -0.0655605 -0.0384383 0.0188336 0.000847 23.3039 3.19282 81.0832 2650 
123 1 -0.00688669 -0.0539537 0.0276109 0.000847 3.49023 0.0011241 0.785123 2650 
164 1 -0.05689 -0.0601508 0.0376721 0.000847 62.4671 4.48028 88.957 2650 
344 1 -0.0437612 -0.0364245 0.0523162 0.000847 66.7 7.19506 55.7663 2650 
151 1 -0.0354321 -0.0487064 0.0582561 0.000847 54.6376 9.03888 33.2137 2650 
18 1 -0.00504541 -0.0455791 0.0679761 0.000847 40.3891 0.428642 2.99613 2650 
421 1 -0.00583203 0.00300037 -0.0143305 0.000847 0.0395742 -0.0233981 -0.00586755 2650 
49 1 -0.00549654 0.00373727 -0.0156657 0.000233 0.0254191 -0.00475305 -0.0249301 2650 
37 1 -0.00733316 0.00556135 -0.0148218 0.000233 0.0110791 0.00547466 0.000960455 2650 
309 1 -0.00646109 0.00848789 -0.0147588 0.000233 -0.0115489 -0.00188668 -0.0068473 2650 
251 1 -0.00258698 0.0108421 -0.0154593 0.000847 0.0360586 0.0161379 0.0194324 2650 
292 1 -0.00692817 0.0284223 -0.0144869 0.000847 0.605217 0.146567 -0.317918 2650 
234 1 -0.003242 0.000794536 -0.013015 0.000233 0 -0.01175 0 2650 
143 1 -0.00695931 0.00730811 -0.0141378 0.000233 -0.0179694 -0.00492807 0.00964441 2650 
2 1 -0.00575212 0.00958303 -0.0138405 0.001312 0.0289909 0.0125238 -0.0332939 2650 
178 1 -0.00316845 0.0115314 -0.0132333 0.000847 0.0107607 -0.0152117 0.0168213 2650 
370 1 -0.00995919 0.0256828 -0.0126941 0.000847 0.0752979 0.120225 -0.0682464 2650 
233 1 -0.006747 0.00250554 -0.01241 0.000233 0 -0.01175 0 2650 
198 1 -0.00138812 0.0130706 -0.0123244 0.001312 0.0139318 0.0188735 0.00855589 2650 
482 1 -0.00672683 0.022822 -0.0120867 0.000233 0.00469409 0.0342639 0.0260087 2650 
232 1 -0.00856127 0.00145847 -0.0101346 0.000233 -0.0174415 -0.00497908 0.0333962 2650 
392 1 -0.003997 0.00524654 -0.009609 8.4e-05 0 -0.01175 0 2650 
209 1 -0.001802 0.00607454 -0.011003 0.000233 0 -0.01175 0 2650 
331 1 -0.011322 0.0123283 -0.00991182 0.000847 0.0307934 0.0126492 -0.0491117 2650 
50 1 -0.0122878 0.025989 -0.0106841 0.000233 0.0440745 0.0630711 0.0720609 2650 
365 1 -0.0102924 0.0273048 -0.0107171 0.000233 0.0179174 0.166228 0.039892 2650 
149 1 -0.00803227 0.0594875 -0.0101333 0.000847 0.0125464 0.386365 0.205738 2650 
133 1 -0.00785753 0.00184077 -0.00869265 0.001312 -0.0281378 -0.000108132 0.00202447 2650 
336 1 -0.000699 0.00199254 -0.008095 0.000233 0 -0.01175 0 2650 
217 1 -0.0054981 0.0049667 -0.00938355 0.000847 0.011163 0.00149183 0.0268597 2650 
66 1 -0.0121657 0.0274849 -0.0087024 0.000233 -0.00952687 0.0365334 -0.00433662 2650 
274 1 -0.0017793 0.069166 -0.00805485 0.000233 0.0727035 0.224919 -0.0383669 2650 
455 1 -0.0093195 0.00123064 -0.0068764 0.000233 -0.0290806 -0.00743731 0.0125815 2650 
324 1 -0.004804 0.00161454 -0.006739 0.000233 0 -0.01175 0 2650 
158 1 -0.004052 0.00281854 -0.007417 8.4e-05 0 -0.01175 0 2650 
285 1 -0.0115056 0.00493564 -0.00761442 0.000233 -0.0136893 0.0114254 0.0378663 2650 
391 1 -0.001389 0.00533954 -0.007809 0.000233 0 -0.01175 0 2650 
386 1 -0.00871174 0.00761645 -0.0073638 0.000847 -0.0149314 0.0132721 0.0414458 2650 
22 1 -0.010178 0.00845631 -0.0074125 0.000233 0.0664708 -0.0142332 -0.0356158 2650 
12 1 -0.00229955 0.0240708 -0.00667138 0.000233 0.00747796 0.0555781 0.0464328 2650 
310 1 -0.00961342 0.00535557 -0.00516279 0.000233 0.0450288 0.0266522 -0.0225148 2650 
79 1 -0.009334 0.00612854 -0.006031 0.000233 0 -0.01175 0 2650 
413 1 -0.00742361 0.00945376 -0.00487548 0.000233 -0.027059 0.0159275 -0.00196035 2650 
242 1 -0.00496738 0.0103308 -0.00583366 0.000847 0.0234594 0.0119322 -0.0354311 2650 
466 1 -0.015616 0.00223654 -0.003521 0.000233 0 -0.01175 0 2650 
478 1 -0.010102 0.00264054 -0.003546 0.000233 0 -0.01175 0 2650 
289 1 -0.0138373 0.00565455 -0.00364762 0.001312 -0.000442818 0.0149671 0.00541977 2650 
467 1 -0.01128 0.00483054 -0.004037 0.000233 0 -0.01175 0 2650 
237 1 -0.0102041 0.00714933 -0.00375438 0.001312 0.038356 0.0066231 -0.0143656 2650 
316 1 -0.00958178 0.0119208 -0.0032299 0.000847 -0.0211148 0.0284576 0.0309949 2650 
379 1 -0.0161211 0.0171084 -0.00438027 8.4e-05 0.00711929 0.0353735 -0.0793054 2650 
40 1 -0.016197 0.032696 -0.00365284 0.000233 0.239542 -0.0447671 -1.35865 2650 
146 1 -0.00850209 0.0479405 -0.00445558 0.001312 0.0669534 0.0615825 -0.101864 2650 
312 1 -0.006897 0.00414654 -0.002463 0.000233 0 -0.01175 0 2650 
301 1 -0.000431 0.00437954 -0.003081 8.4e-05 0 -0.01175 0 2650 
440 1 -0.015704 0.00718071 -0.00168607 0.000233 0.0067649 0.0627693 -0.0439145 2650 
201 1 -0.00440843 0.00794556 -0.00296641 0.000847 0.0180832 0.001566 -0.00744168 2650 
63 1 -0.000147 0.00749954 -0.0027 0.000233 0 -0.01175 0 2650 
495 1 -0.00840041 0.0112192 -0.0018567 0.000233 -0.057439 0.0527808 0.0350414 2650 
28 1 -0.00994606 0.0134575 -0.00250917 8.4e-05 -0.0487345 0.0492571 0.0474564 2650 
512 1 -0.00431676 0.0152906 -0.00181223 0.000847 0.0120363 0.054604 0.0114501 2650 
505 1 -0.0130246 5.36954e-05 -0.000640289 0.000233 -0.00378522 -0.00213289 0.00845565 2650 
345 1 -0.0105493 0.000373818 -0.0013494 0.000847 0.00764886 0.00287812 0.00877621 2650 
31 1 -0.0100031 0.0024437 -0.00103251 0.000847 0.0366223 0.0131529 0.0353739 2650 
56 1 -0.0072935 0.0115381 -0.000820308 0.001312 0.0177177 0.0191524 -0.0219171 2650 
248 1 -0.0140649 0.00137513 0.00141553 0.000233 0.000730028 -0.010672 0.0342145 2650 
373 1 -0.015091 0.00186454 0.000947 0.000847 0 -0.01175 0 2650 
260 1 -0.00831178 0.00244214 0.000131403 0.000233 0.0526765 0.0131239 0.0419995 2650 
412 1 -0.0159532 0.00767873 0.000757928 0.000847 -0.00909125 -0.0064114 -0.214475 2650 
374 1 -0.00265955 0.00751998 0.000789998 0.000233 0.0405433 -0.014205 -0.0268798 2650 
517 1 -0.0106032 0.00984122 0.000733359 0.000233 0.0168324 0.0960293 0.0170836 2650 
104 1 -0.00966207 0.013743 0.000289871 0.000233 0.0150983 0.0149093 -0.0769744 2650 
376 1 -0.005395 0.00512254 0.002758 0.000233 0 -0.01175 0 2650 
85 1 -0.00951954 0.00731377 0.00264739 0.000847 0.0413482 0.0684794 0.0557481 2650 
313 1 -0.0143668 0.00845479 0.00208184 0.000233 0.0526414 0.00554921 0.0325331 2650 
355 1 -0.00370817 0.00856057 0.00218491 0.000847 0.0386883 -0.00507248 -0.0198329 2650 
216 1 -0.015797 0.0193749 0.00205725 0.000847 0.00312045 0.0530975 -0.0304192 2650 
188 1 -0.00296557 0.0256913 0.00236794 0.000847 0.00797073 0.0304807 0.00488408 2650 
206 1 -0.0029879 0.000426289 0.00357092 0.000233 -0.00290858 0.00226706 -0.00780188 2650 
474 1 -0.00815643 0.00385713 0.00417692 0.000847 0.0138964 -0.00936897 -0.0191723 2650 
156 1 -0.0152623 0.00627199 0.003641 0.000233 -0.00146132 -0.000564156 -0.0190787 2650 
462 1 -0.0152445 0.00562419 0.00451922 0.000847 -0.00618036 -0.0118081 -0.0229956 2650 
131 1 -0.00324582 0.00819796 0.00407102 0.000233 0.0289554 0.00214541 -0.00104248 2650 
369 1 -0.00760257 0.00965161 0.00368381 0.000847 0.0387174 0.0948256 -0.099007 2650 
137 1 -0.0147012 0.0201853 0.00332573 0.000847 -0.0127642 0.050579 0.0132807 2650 
431 1 -0.007173 0.00159354 0.006023 8.4e-05 0 -0.01175 0 2650 
135 1 -0.00839593 0.00171787 0.005167 0.000847 0.002384 -0.0175234 -0.0010723 2650 
469 1 -0.012765 0.00551154 0.005129 0.000233 0 -0.01175 0 2650 
283 1 -0.0128408 0.00621523 0.00618547 0.000233 -0.0149812 -0.00483098 0.00792194 2650 
90 1 -0.009269 0.00575454 0.005356 0.000233 0 -0.01175 0 2650 
244 1 -0.002251 0.00733254 0.006118 0.000233 0 -0.01175 0 2650 
291 1 -0.00448705 0.00891628 0.00539957 0.000847 -0.0130506 0.0028354 -0.022971 2650 
73 1 -0.0131667 0.00992589 0.00548407 0.000847 -0.0048913 0.0103656 -0.024005 2650 
489 1 -0.0152421 0.0304097 0.00514031 0.000847 0.0690277 0.0693713 0.168043 2650 
96 1 -7.1e-05 0.000784536 0.006733 0.000847 0 -0.01175 0 2650 
219 1 -0.00764777 0.00309359 0.00710391 0.000233 -0.00358037 -0.0264738 -0.00304002 2650 
311 1 -0.0146326 0.00320247 0.00764467 0.000233 -0.0288172 -0.000663895 -0.0550167 2650 
172 1 -0.00744716 0.00474608 0.00666062 0.001312 -0.0122068 -0.0128114 0.00716822 2650 
128 1 -0.00471263 0.00637715 0.00730833 0.000233 -0.00610861 -0.000841187 -0.0304212 2650 
267 1 -5.99901e-06 0.00697886 0.0068911 0.000847 0.0417127 -0.00435964 -0.0187528 2650 
176 1 -0.00759553 0.00930475 0.00762604 0.000847 0.0546859 0.114455 -0.0204283 2650 
55 1 -0.00181228 0.00972102 0.00733625 0.001312 -0.00374929 0.010234 -0.0225091 2650 
446 1 -0.00765421 0.0139888 0.00721894 0.000847 -0.00842265 0.0159767 -0.0565597 2650 
319 1 -0.00797473 0.0167909 0.0076741 0.000847 0.018509 0.0680095 -0.0277984 2650 
5 1 -0.0140699 0.0289111 0.00718791 0.000847 -0.0337567 0.0717612 -0.0757115 2650 
88 1 -0.00976796 0.00202475 0.00824577 0.000233 0.00384863 -0.0179609 0.00115601 2650 
130 1 -0.004749 0.00336354 0.009456 0.000233 0 -0.01175 0 2650 
192 1 -0.00438421 0.00425868 0.00897711 0.000233 0.0177379 -0.0251411 -0.0186529 2650 
515 1 -0.0107088 0.01675 0.00884836 0.000847 -0.0311238 0.0253828 -0.0640408 2650 
97 1 -0.0118541 0.0183366 0.00863372 0.000847 -0.0172485 0.0560134 -0.0156371 2650 
38 1 -0.00149448 0.038255 0.0085299 0.000233 -0.045507 0.111302 -0.0411734 2650 
514 1 -0.0082955 0.0562227 0.00871504 0.000847 -0.0244952 0.177148 -0.0280676 2650 
509 1 -0.001563 0.00301854 0.010036 8.4e-05 0 -0.01175 0 2650 
475 1 -0.00717132 0.00626729 0.00965293 0.000847 -4.37456e-05 -0.0114396 -0.000337602 2650 
484 1 -0.00404347 0.00541487 0.0101347 0.001312 0.000780314 -0.00530323 -0.0190006 2650 
419 1 -0.0111192 0.00788159 0.0108707 0.001312 -0.0239723 0.0423051 -0.0259513 2650 
196 1 -0.00811417 0.0114133 0.0109559 0.000233 -0.000496307 0.0280491 0.0192263 2650 
263 1 -0.0104281 0.0198106 0.0105145 0.001312 0.0163849 0.0509068 -0.0156915 2650 
229 1 -0.0122614 0.0214087 0.0103941 0.000847 0.0368737 0.122577 0.0230078 2650 
1 1 -0.0110321 0.0235269 0.0108123 0.001312 -0.0272447 0.0818243 -0.0393907 2650 
407 1 -0.0120746 0.0390317 0.00974307 0.000847 -0.022501 0.122378 -0.108571 2650 
518 1 -0.011612 0.00448554 0.01181 0.000233 0 -0.01175 0 2650 
256 1 -0.00717075 0.00358608 0.0114146 0.000847 -0.00982248 -0.0191806 0.00223237 2650 
235 1 -0.00605 0.00408554 0.012276 0.000233 0 -0.01175 0 2650 
295 1 -0.00703073 0.00568639 0.0118252 0.000847 0.0183318 0.0194771 -0.0257413 2650 
464 1 -0.000421197 0.00644509 0.0116397 0.000233 -0.0112156 0.00841332 0.0180816 2650 
516 1 -0.0112055 0.00893717 0.0123292 0.000233 -0.00497974 0.0401007 -0.00749785 2650 
321 1 -0.00427949 0.0118626 0.0110772 0.000847 0.0212317 0.0606835 -0.00559239 2650 
43 1 -0.00707353 0.01342 0.0124938 0.001312 -0.0244029 0.0037777 -0.0114216 2650 
191 1 -0.0105419 0.0163529 0.0115613 0.000847 -0.0513611 0.0188216 -0.0519468 2650 
381 1 -0.00330554 0.0172961 0.0111873 0.000847 0.00408091 0.0273237 -0.0225548 2650 
68 1 -0.00779306 0.0221803 0.0121486 0.001312 -0.00630759 0.0516568 0.0886336 2650 
180 1 -0.0096232 0.00318312 0.0126584 0.000233 -0.032367 -0.00726833 0.0167145 2650 
226 1 -0.00655718 0.00169629 0.0134754 0.000847 -0.0127192 -0.024385 0.0183282 2650 
161 1 -0.00772477 0.00572594 0.0137061 0.000847 0.0535418 0.0341198 0.0181623 2650 
98 1 -0.000449794 0.0051669 0.0129681 0.000847 -0.00964048 0.00128331 -0.0225715 2650 
356 1 -0.00770246 0.0198713 0.0141681 0.000847 0.00972323 0.0731105 -0.0160802 2650 
223 1 -0.00979411 0.0229259 0.0135136 8.4e-05 0.0299959 0.0857589 0.0101822 2650 
296 1 -0.00707915 0.0255426 0.0132644 0.000233 0.0622171 0.0580059 -0.0260957 2650 
443 1 -0.00750134 0.00187526 0.0147973 0.000233 -0.0203482 -0.0223015 0.0209308 2650 
444 1 -0.0062221 0.0132601 0.0153564 8.4e-05 0.0462384 -0.0484339 0.0144772 2650 
499 1 -0.00231429 0.0135427 0.0147469 0.000847 -0.0404494 0.0736324 0.00353625 2650 
107 1 -0.00218529 0.0370255 0.0149427 0.001312 -0.0238695 0.0977085 -0.0116364 2650 
93 1 -0.00282264 0.0200245 0.016495 8.4e-05 -0.463621 -0.0938035 -0.0814492 2650 
387 1 -0.0221126 0.115113 -0.0321514 0.000233 -3.11567 0.29142 -4.55514 2650 
225 1 -0.0438362 0.0949362 0.0516201 0.001312 100.869 -2.31153 75.0808 2650 
434 1 0.0258508 -0.0216107 -0.0630552 0.000847 -3.74228 -1.56331 -1.41065 2650 
297 1 0.0105622 -0.0573154 -0.0490544 0.000233 -40.9273 2.63926 -30.7853 2650 
399 1 0.0511117 -0.0488746 -0.0451358 0.000847 -40.4037 -5.6954 -45.7286 2650 
320 1 0.0595767 -0.0230814 -0.0331721 0.000847 -27.7069 -5.35936 -49.734 2650 
228 1 0.006974 -0.00213046 -0.013967 0.000847 0 -0.01175 0 2650 
67 1 0.00632105 -0.00313413 -0.0115447 8.4e-05 -0.0117748 -0.0172064 0.0127814 2650 
177 1 0.000991094 -0.00306494 -0.00980366 0.000847 0.00258402 -0.0306867 0.0491128 2650 
428 1 0.00220935 -0.00259331 -0.00876138 0.000233 0.0538878 -0.00812043 0.0487248 2650 
339 1 0.001696 -0.00264746 -0.005869 0.000233 0 -0.01175 0 2650 
282 1 0.00320699 -0.000407962 -0.00425163 0.000847 -0.00622339 -0.00443542 0.0362471 2650 
480 1 0.00564 -0.00214346 0.00063 0.000233 0 -0.01175 0 2650 
220 1 0.004447 -4.84639e-05 0.000291 0.000233 0 -0.01175 0 2650 
485 1 0.0145259 -0.00242686 0.00204812 0.000847 0.0149122 -0.0182506 0.0101227 2650 
150 1 0.0675117 -0.0342229 0.00380001 0.000847 25.8684 21.8791 -26.4626 2650 
405 1 0.0136368 -0.00087083 0.00552674 8.4e-05 -0.00569416 -0.025655 0.0708516 2650 
337 1 0.0152269 -0.00100673 0.00515103 0.000233 -0.0176788 -0.0223928 0.0442177 2650 
24 1 0.004515 -0.00184746 0.007639 0.000233 0 -0.01175 0 2650 
249 1 0.0107117 -0.00343768 0.00833635 8.4e-05 1.11253 -0.0426618 0.865824 2650 
10 1 0.00074 -0.00242946 0.009007 0.000233 0 -0.01175 0 2650 
65 1 0.0127993 -0.00386354 0.0122521 0.000233 0.723897 -0.179902 0.670342 2650 
349 1 0.0180969 -0.0598646 0.0238153 0.000233 -5.60302 -0.535293 4.43741 2650 
195 1 0.0647597 -0.0618521 0.0231467 0.000233 13.4713 2.34798 -37.6825 2650 
148 1 0.0619223 -0.0204532 0.02857 0.000847 27.102 4.35133 -58.7094 2650 
486 1 0.0420481 -0.0406239 0.0537067 0.000847 72.4073 -14.3701 -56.6626 2650 
290 1 0.0605836 -0.0455749 0.0313257 0.000847 34.9879 -11.298 -67.6323 2650 
510 1 0.0450198 -0.0196179 0.0506615 0.001312 54.0583 -6.21787 -48.0033 2650 
432 1 0.0394636 0.0399511 -0.0552185 0.001312 -103.602 10.9511 -73.9983 2650 
25 1 0.00413261 0.0451352 -0.0160666 0.000233 0.308205 -0.0856024 0.0578346 2650 
362 1 0.00659302 0.00111222 -0.0152874 0.000233 -0.035878 0.012805 -0.00919737 2650 
360 1 0.00570202 0.00714419 -0.0145991 0.000847 0.0222121 0.040479 0.0195448 2650 
366 1 0.00632475 0.00697477 -0.0153398 8.4e-05 0.0151379 0.0163292 0.0176797 2650 
245 1 0.00436945 0.0273878 -0.0156113 0.000233 0.0819277 0.0592542 0.021834 2650 
459 1 0.00273028 0.0329076 -0.0145612 0.000847 -0.00200567 0.155514 0.0073596 2650 
224 1 0.0056249 0.00141899 -0.0139323 0.001312 0.0790572 0.0111171 0.0127349 2650 
325 1 0.00845177 0.00775277 -0.0134049 0.000233 0.0531706 0.056643 0.00240164 2650 
273 1 0.00870702 0.0251999 -0.0140303 0.000233 0.0171125 0.0384938 -0.163066 2650 
327 1 0.00910567 0.0310389 -0.014161 8.4e-05 0.171707 0.115746 0.128039 2650 
448 1 0.00876887 0.00383506 -0.0122531 0.000847 0.0574238 -0.00477948 0.064578 2650 
77 1 0.00465392 0.00726261 -0.0112237 0.000233 0.041093 0.0221941 -0.0548942 2650 
139 1 0.00351529 0.00115154 -0.010525 0.000847 0.00248902 -0.0122157 -0.000214538 2650 
75 1 0.00228868 0.00198452 -0.0102388 0.000233 -0.0100118 0.0142999 0.0316337 2650 
388 1 0.0128884 0.0125201 -0.0104016 0.000233 -0.0834149 0.0150812 -0.11161 2650 
351 1 6.64569e-07 0.0139903 -0.0107271 0.000233 -0.00991851 0.0154487 0.0373 2650 
494 1 0.0099109 0.0182918 -0.0097491 0.000233 0.0281058 0.0489588 0.0197188 2650 
425 1 0.00329162 0.0195433 -0.0103188 0.000847 -0.00179661 0.0212887 -0.0293796 2650 
215 1 0.00257105 0.000889183 -0.00828084 0.000847 0.000567464 -0.01239 0.000591655 2650 
400 1 0.0111272 0.012415 -0.0083648 0.000233 0.0729622 0.112938 -0.0451068 2650 
504 1 0.0143645 0.0197987 -0.00836122 0.000233 -0.106014 -0.00413495 -0.122828 2650 
154 1 0.00967157 0.0662829 -0.00914447 0.000233 -0.00924804 0.118602 0.00100956 2650 
14 1 0.006783 0.00235354 -0.007807 8.4e-05 0 -0.01175 0 2650 
17 1 0.000714155 0.00530362 -0.00761138 0.000847 -0.0107348 -0.00941474 -0.0206421 2650 
502 1 0.0114572 0.00737082 -0.00763593 0.000847 -0.00255818 -0.010811 0.00294225 2650 
208 1 0.00841981 0.0729426 -0.0064011 0.000233 0.0406946 0.199818 -0.0966651 2650 
39 1 0.012691 0.00278254 -0.00605 0.000233 0 -0.01175 0 2650 
16 1 0.00296083 0.0150147 -0.00588172 0.001312 0.0126936 0.0293328 0.0396239 2650 
207 1 0.015224 0.00299584 -0.00464068 0.000233 0.00763355 -0.0444716 0.0520385 2650 
105 1 0.00021 0.00760754 -0.003991 0.000233 0 -0.01175 0 2650 
304 1 0.0139675 0.0106679 -0.00372595 0.000847 0.168255 0.0890368 0.0795269 2650 
211 1 0.00350833 0.0174667 -0.00342279 0.001312 -0.00757343 0.0133899 -0.0176514 2650 
377 1 0.00290281 0.0239774 -0.00352999 0.000233 -0.00743467 0.0415235 -0.00232682 2650 
402 1 0.0162648 0.0557742 -0.00354948 0.000233 0.0676416 0.3913 0.241332 2650 
470 1 0.0148593 0.0606861 -0.00320822 8.4e-05 0.00767943 0.149487 -0.112849 2650 
142 1 0.000422 0.00132954 -0.00166 0.000233 0 -0.01175 0 2650 
80 1 0.000184 0.00758254 -0.002772 8.4e-05 0 -0.01175 0 2650 
363 1 0.013993 0.00763254 -0.001599 0.000233 0 -0.01175 0 2650 
397 1 0.0157487 0.00835693 -0.00289304 0.000847 0.0215047 -0.00328853 0.0812449 2650 
430 1 0.000564831 0.0179677 -0.00290343 0.000233 0.0730595 0.00933462 0.06461 2650 
493 1 0.0160417 0.0385027 -0.00192917 0.000233 -0.00406 0.10949 0.0510556 2650 
281 1 0.0144799 0.00224483 -0.00101281 0.000847 -0.0727328 -0.00667815 -0.0548627 2650 
222 1 0.0111563 0.0227837 -0.0010264 0.000233 -0.050006 0.0105101 0.000177887 2650 
62 1 0.0156353 0.0381472 -0.000419252 0.000233 0.0385118 0.00931072 -0.0084078 2650 
383 1 0.013772 0.0439071 -0.000424426 0.000847 -0.012285 0.112245 0.000503282 2650 
122 1 0.009753 0.00122554 0.000953 0.000847 0 -0.01175 0 2650 
8 1 0.006698 0.00657154 0.001482 0.000233 0 -0.01175 0 2650 
368 1 0.0157968 0.0514324 0.000374411 0.000847 0.00810747 0.153306 0.0806846 2650 
51 1 0.00489535 0.0694179 0.00116299 0.000233 0.0856433 0.19649 0.0193231 2650 
116 1 8e-05 0.00309654 0.00308 0.000233 0 -0.01175 0 2650 
132 1 0.013326 0.00365354 0.002036 8.4e-05 0 -0.01175 0 2650 
11 1 0.00980585 0.0058809 0.00205404 0.000233 -0.0354392 0.0104807 0.0236044 2650 
361 1 0.0124713 0.0338806 0.00250966 0.000233 -0.0430228 0.0571877 -0.0708682 2650 
456 1 0.009608 0.00457254 0.003179 0.000233 0 -0.01175 0 2650 
354 1 0.0124456 0.0148869 0.0045017 0.001312 0.0207349 0.00754819 0.0213211 2650 
214 1 0.0106417 0.0525167 0.00422325 0.000847 -0.0502705 0.134717 0.0132185 2650 
353 1 0.00399628 0.00296496 0.00476433 8.4e-05 0.00908281 0.00118574 -0.0158319 2650 
261 1 0.000536709 0.00726932 0.00595837 0.000233 0.0289804 -0.000176686 -0.0343964 2650 
329 1 0.0046353 0.0102566 0.00514811 0.000847 0.0416038 0.0386093 -0.0159097 2650 
13 1 0.0051869 0.020544 0.00611849 8.4e-05 -0.0771912 0.0227786 -0.0274283 2650 
255 1 0.00987766 0.0196931 0.00547546 0.000847 -0.0481352 0.0525864 0.0374985 2650 
511 1 6.10262e-05 0.0245738 0.00572592 0.000847 -0.0411457 0.0321393 0.0170147 2650 
359 1 0.0054093 0.00290826 0.00764926 0.000847 0.0160387 0.00288881 -0.00727752 2650 
270 1 0.0145347 0.00736821 0.00660913 0.000233 0.023643 -0.00666675 0.0224762 2650 
152 1 0.000972065 0.0084391 0.00718534 0.000847 0.0247798 0.0182694 -0.00090491 2650 
476 1 0.00520818 0.0106797 0.00731689 0.000847 0.0229742 0.0129824 -0.0229211 2650 
53 1 0.011415 0.0173608 0.00724938 0.000233 -0.192791 0.246776 0.189128 2650 
119 1 0.00722 0.00276854 0.008414 8.4e-05 0 -0.01175 0 2650 
184 1 0.007384 0.00356054 0.007977 8.4e-05 0 -0.01175 0 2650 
103 1 0.00874093 0.0097992 0.0082794 0.000233 0.00887738 -0.00588662 0.0279114 2650 
416 1 0.011192 0.0145321 0.00863092 0.000233 0.239642 -0.125993 -0.443408 2650 
163 1 0.00701329 0.0258582 0.0090457 0.000847 -0.05949 0.0560235 -0.0169091 2650 
303 1 0.0121818 0.0298138 0.00826186 0.000847 0.0885478 0.0762763 -0.0670142 2650 
136 1 0.0103181 0.060575 0.00940048 0.000847 0.0500939 0.168696 -0.0446865 2650 
348 1 0.00135125 0.0730636 0.00915228 0.000233 -0.0863495 0.184567 0.0688001 2650 
385 1 0.00511808 0.000894805 0.0108042 0.000847 0.0233178 -0.0220398 -0.0192064 2650 
406 1 0.00177266 0.00310961 0.0107929 0.001312 0.00159577 -0.000499242 -0.0020534 2650 
375 1 0.00338946 0.00373642 0.0106104 0.000233 0.0185628 -0.0127788 0.00574506 2650 
99 1 0.00288411 0.0112716 0.0107278 0.000847 0.0130843 0.0220184 -0.0105542 2650 
254 1 0.0011983 0.00537495 0.0114024 0.000847 0.000708798 -0.002306 0.00597962 2650 
252 1 0.00390685 0.00664428 0.0117736 0.000847 0.0256477 0.00757923 0.0293789 2650 
89 1 0.003537 0.00813754 0.012461 0.000233 0 -0.01175 0 2650 
457 1 0.0108058 0.012066 0.0123742 8.4e-05 -0.05964 -0.0168475 0.00871567 2650 
204 1 0.00994452 0.0310939 0.0115778 0.000847 -0.0432782 0.0378812 -0.0439972 2650 
479 1 0.00631 0.00174054 0.014132 0.000233 0 -0.01175 0 2650 
390 1 0.0012827 0.0049248 0.0129559 0.000233 -0.00511716 -0.00910385 0.00447344 2650 
200 1 0.00633826 0.0068738 0.0128299 0.000847 0.0131574 0.0204693 -0.0100006 2650 
186 1 0.000636152 0.0275185 0.0132415 0.001312 0.0439882 0.0758376 0.00892494 2650 
352 1 0.00274229 0.0412796 0.0140186 0.000233 0.031788 0.0697668 -0.0842783 2650 
417 1 0.00609558 0.00264494 0.0150854 0.000233 0.10104 0.0249921 -0.0279881 2650 
520 1 0.00663563 0.00783313 0.0151611 0.000233 -0.0937693 0.0134453 0.0494754 2650 
437 1 0.000237236 0.0193212 0.0156178 0.000847 -0.0831786 0.0588282 -0.011484 2650 
76 1 0.00712054 0.0247547 0.0144461 0.000233 -0.0394408 0.0444283 -0.0371903 2650 
70 1 0.0010653 0.0113017 0.0160184 0.000847 0.0739708 0.0954978 0.00311318 2650 
6 1 0.00137752 0.0165034 0.0159144 0.000847 -0.430814 0.082533 0.0159988 2650 
299 1 0.0027994 0.0327834 0.0163946 0.000233 -0.318635 0.0903738 0.0785618 2650 
