ITEM: TIMESTEP
30709779
ITEM: NUMBER OF ATOMS
69
ITEM: BOX BOUNDS ff ff ff
-0.15 0.15
-0.15 0.15
-0.15 0.15
ITEM: ATOMS id type x y z radius vx vy vz density 
123 1 -0.0178576 -0.0539536 -0.02223 0.000847 -3.59752 6.16175e-06 2.91049 2650 
484 1 -0.00293494 -0.00278196 -0.0139375 0.001312 0.00044192 -0.00720362 0.00890208 2650 
206 1 -0.0108723 -0.00233634 -0.0117635 0.000233 0.00721632 -0.00315877 0.00265435 2650 
156 1 -0.0683623 -0.0230125 -0.00749248 0.000233 0.751198 0.279396 -6.85257 2650 
209 1 -0.0102682 -0.00118594 -0.0055967 0.000233 -0.00171719 -0.00384376 0.0093548 2650 
267 1 -0.00702684 -0.00104746 -0.00583035 0.000847 -0.0208833 -0.00553961 -0.00483514 2650 
282 1 -0.00505275 -9.70333e-05 0.00258542 0.000847 -0.0123942 -0.000300201 -0.0122191 2650 
75 1 -0.00127205 0.0279071 -0.0157991 0.000233 -0.0162561 0.206252 0.0249132 2650 
73 1 -0.001656 0.0205619 -0.0151448 0.000847 -0.00744094 0.0029482 0.0202967 2650 
260 1 -0.000202856 0.0212355 -0.0143037 0.000233 -0.0184791 0.00751507 0.00826867 2650 
43 1 -0.00356029 0.0328027 -0.014867 0.001312 0.0167585 0.010086 -0.00321158 2650 
325 1 -0.00513031 0.0421503 -0.0155904 0.000233 0.0118522 0.0347373 -0.00227831 2650 
430 1 -0.00460121 0.0233119 -0.0117097 0.000233 0.0190261 -0.000924056 -0.0185657 2650 
291 1 -0.00458681 0.0130549 -0.0100718 0.000847 0.0103828 0.00327181 0.0016352 2650 
55 1 -0.00203953 0.0249168 -0.00970489 0.001312 0.00681472 0.0101093 0.00947014 2650 
309 1 -0.0136338 0.00613877 -0.00542067 0.000233 -0.00450576 -0.001553 0.00675875 2650 
105 1 -0.00476043 0.00850535 -0.00479238 0.000233 -0.0038186 0.00248038 -0.00061567 2650 
261 1 -0.00834603 0.00722574 -0.00442657 0.000233 -0.0209803 3.46459e-05 0.00492984 2650 
476 1 -0.0155171 0.0348078 -0.00375182 0.000847 -0.0310902 0.0436131 0.125888 2650 
441 1 -0.0161439 0.0583887 -0.00347013 0.000233 0.0102542 0.0789716 -0.0530098 2650 
104 1 -0.0165179 0.0236447 -0.00222332 0.000233 -0.00630366 -0.0123247 0.162976 2650 
255 1 -0.0159375 0.0194988 -0.00154064 0.000847 -0.0075635 -0.0328715 0.183844 2650 
283 1 -0.00665023 0.00184039 0.000297222 0.000233 0.00620868 -0.00270802 -0.00521613 2650 
103 1 -0.00432046 0.00543658 0.00134859 0.000233 -0.0110492 -0.00251187 -0.00895235 2650 
390 1 -0.0157629 0.00901033 0.00532979 0.000233 0.14012 -0.0265091 0.327328 2650 
362 1 -0.00957739 0.00972024 0.0136684 0.000233 0.0268432 0.00211459 0.0144159 2650 
80 1 -0.00267725 0.00897753 0.0144647 8.4e-05 -0.00647536 0.00739704 0.00815569 2650 
440 1 -0.00715395 0.0138564 0.0150251 0.000233 -0.0944141 0.00633946 -0.0394722 2650 
412 1 -0.000620853 0.0313644 0.0159764 0.000847 0.289796 -0.0424754 0.0114606 2650 
12 1 -0.000544935 0.0975933 -0.00559469 0.000233 -0.00199581 0.0457217 -0.0222227 2650 
511 1 -0.00511829 0.101709 -0.00499354 0.000847 0.00427935 0.0528312 -0.0152122 2650 
66 1 -0.00882903 0.0792054 -0.00435423 0.000233 0.00377936 0.0342087 0.00385618 2650 
131 1 -0.00879304 0.092003 0.0108281 0.000233 0.0047558 0.109036 0.0544274 2650 
254 1 0.0111111 -0.00020216 -0.0086538 0.000847 -0.0239706 -0.00462287 -0.0158599 2650 
98 1 0.00647789 -0.00148632 0.0115054 0.000847 -0.0315487 -0.00545983 0.000285601 2650 
349 1 0.000179792 -0.0573357 0.0297604 0.000233 3.4655 0.157187 0.00950585 2650 
172 1 0.00945235 -0.0548918 0.0671249 0.001312 85.0732 3.89858 -11.9718 2650 
196 1 0.0146111 -0.0420111 0.0672005 0.000233 83.7506 7.31522 -18.2067 2650 
11 1 0.00320682 0.0330014 -0.0163055 0.000233 -0.293019 -0.0135749 -0.0735583 2650 
17 1 0.00478286 0.00433968 -0.0152264 0.000847 -1.5426 0.0766565 -0.413275 2650 
310 1 0.00864895 0.0300423 -0.014328 0.000233 0.0512718 0.0294059 0.0382793 2650 
360 1 0.00528718 0.0503365 -0.0150916 0.000847 -0.444749 0.0114793 -0.120732 2650 
37 1 0.00928539 0.0137733 -0.0133811 0.000233 0.0110791 0.00547466 0.000960455 2650 
381 1 0.00231876 0.0569855 -0.0126381 0.000847 0.00240271 0.0229473 0.0112322 2650 
252 1 0.010677 0.0182301 -0.0104152 0.000847 -0.0134601 0.0052027 -0.00180065 2650 
137 1 0.00966095 0.052055 -0.0106441 0.000847 0.0219097 0.0163916 0.00562176 2650 
128 1 0.00301941 0.00652488 -0.00861626 0.000233 0.0150298 0.000922321 0.00674739 2650 
295 1 0.00840747 0.0367672 -0.00628583 0.000847 -0.0133394 0.0222605 -0.00051959 2650 
99 1 0.0118787 0.0456348 -0.00627644 0.000847 -0.0085502 0.0243169 -0.00327069 2650 
224 1 0.010006 0.0268788 -0.00336187 0.001312 -0.00437267 0.0113615 -0.0100927 2650 
242 1 0.00852541 0.0338775 -0.0033982 0.000847 -0.00519606 0.0271173 -0.00625837 2650 
359 1 0.0103479 0.00589125 -0.00307276 0.000847 -0.00642167 0.00130264 -0.00704933 2650 
198 1 0.0153312 0.0388825 -0.00100817 0.001312 0.00594866 0.0141003 0.00565639 2650 
237 1 0.011735 0.00786754 0.000280479 0.001312 -0.00411048 -0.00143618 0.00814316 2650 
31 1 0.00692875 0.0189141 0.000239677 0.000847 -0.0126281 0.00854201 -0.00432378 2650 
13 1 0.011509 0.034721 0.000420626 8.4e-05 -0.000258711 0.00520741 0.0255407 2650 
289 1 0.0044736 0.00968279 0.00256932 0.001312 -0.0131848 -0.00268942 0.00548645 2650 
351 1 0.000155219 0.0307323 0.00223989 0.000233 0.00883329 0.0074265 -0.0163183 2650 
462 1 0.00937702 0.0547995 0.00190474 0.000847 -0.044581 0.159844 -0.146202 2650 
375 1 0.0160618 0.0572337 0.00285583 0.000233 0.00945654 0.0739318 -0.0288356 2650 
217 1 0.0063988 0.00754337 0.00629434 0.000847 0.00280479 0.00207622 -0.0155757 2650 
406 1 0.00416831 0.00235875 0.00771532 0.001312 0.00159845 -0.000501913 -0.00204999 2650 
222 1 0.00495226 0.0301495 0.00642763 0.000233 0.0229142 0.00160847 0.00779497 2650 
355 1 0.0109205 0.0179356 0.00888091 0.000847 -0.0238833 0.00921899 0.0307826 2650 
366 1 0.0134204 0.0284678 0.0104515 8.4e-05 0.0178978 -0.116617 -0.027861 2650 
345 1 0.000923944 0.00469099 0.0118149 0.000847 0.00764886 0.00287812 0.00877621 2650 
316 1 0.00143085 0.0680525 0.0158979 0.000847 0.0159283 0.0386855 0.0018046 2650 
273 1 0.0135887 0.0842308 -0.00849605 0.000233 0.0302262 0.0425391 0.0103593 2650 
97 1 0.0322108 0.144263 0.0600774 0.000847 36.2569 -0.737944 -19.4276 2650 
