LIGGGHTS (Version LIGGGHTS-PUBLIC 3.8.0, compiled 2022-11-07-16:55:38 by serperd1, git commit 86544c3f1215bc9744d7929e3eacf53ba086af9e)
Created orthogonal box = (-0.15 -0.15 -0.15) to (0.15 0.15 0.15)
  2 by 4 by 5 MPI processor grid

Reading STL file 'cone.stl' (mesh processing step 1/3) 

Reading STL file 'in_cyl.stl' (mesh processing step 1/3) 

Reading STL file 'top_cyl.stl' (mesh processing step 1/3) 

Reading STL file 'bot_cyl.stl' (mesh processing step 1/3) 

Reading STL file 'bottom_disk.stl' (mesh processing step 1/3) 

Reading STL file 'top_disk.stl' (mesh processing step 1/3) 
Fix particledistribution/discrete (id prob_par): distribution based on mass%:
    r_0to10p: d=1.680000e-04 (max. bounding sphere) mass%=10.000000%
    r_10to50p: d=4.656000e-04 (max. bounding sphere) mass%=40.000000%
    r_50to90p: d=1.693200e-03 (max. bounding sphere) mass%=40.000000%
    r_90to100p: d=2.624400e-03 (max. bounding sphere) mass%=10.000000%
Fix particledistribution/discrete (id prob_par): distribution based on number%:
    r_0to10p: d=1.680000e-04 (max. bounding sphere) number%=83.887052%
    r_10to50p: d=4.656000e-04 (max. bounding sphere) number%=15.763181%
    r_50to90p: d=1.693200e-03 (max. bounding sphere) number%=0.327762%
    r_90to100p: d=2.624400e-03 (max. bounding sphere) number%=0.022006%
Setting up run at Tue Jan  3 02:43:55 2023

Import and parallelization of mesh cone_mesh containing 868 triangle(s) successful
Import and parallelization of mesh inlet_cyl_wall_mesh containing 1064 triangle(s) successful
Import and parallelization of mesh top_cyl_wall_mesh containing 682 triangle(s) successful
Import and parallelization of mesh bot_cyl_wall_mesh containing 1280 triangle(s) successful
Import and parallelization of mesh bot_disk_wall_mesh containing 1682 triangle(s) successful
Import and parallelization of mesh top_disk_wall_mesh containing 1144 triangle(s) successful
Memory usage per processor = 954.637 Mbytes
    Step    Atoms         KinEng            CPU 
       0        0              0              0 
Loop time of 6.96707e-05 on 40 procs for 0 steps with 0 atoms, finish time Tue Jan  3 02:43:55 2023


Pair  time (%) = 0 (0)
Neigh time (%) = 0 (0)
Comm  time (%) = 0 (0)
Outpt time (%) = 0 (0)
Other time (%) = 6.96707e-05 (100)

Nlocal:    0 ave 0 max 0 min
Histogram: 40 0 0 0 0 0 0 0 0 0
Nghost:    0 ave 0 max 0 min
Histogram: 40 0 0 0 0 0 0 0 0 0
Neighs:    0 ave 0 max 0 min
Histogram: 40 0 0 0 0 0 0 0 0 0

Total # of neighbors = 0
Neighbor list builds = 0
Dangerous builds = 0
Setting up run at Tue Jan  3 02:43:55 2023

Memory usage per processor = 954.637 Mbytes
    Step    Atoms         KinEng            CPU 
       0        0              0              0 
       1        0              0    0.009690101 
Loop time of 0.00970073 on 40 procs for 1 steps with 0 atoms, finish time Tue Jan  3 02:43:55 2023


Pair  time (%) = 2.79313e-06 (0.0287929)
Neigh time (%) = 0 (0)
Comm  time (%) = 0.000197053 (2.03133)
Outpt time (%) = 0.000118401 (1.22054)
Other time (%) = 0.00938248 (96.7193)

Nlocal:    0 ave 0 max 0 min
Histogram: 40 0 0 0 0 0 0 0 0 0
Nghost:    0 ave 0 max 0 min
Histogram: 40 0 0 0 0 0 0 0 0 0
Neighs:    0 ave 0 max 0 min
Histogram: 40 0 0 0 0 0 0 0 0 0

Total # of neighbors = 0
Neighbor list builds = 0
Dangerous builds = 0
Scanning dump file ...
Reading snapshot from dump file ...
  orthogonal box = (-0.15 -0.15 -0.15) to (0.15 0.15 0.15)
  0 atoms before read
  522 atoms in snapshot
  0 atoms purged
  0 atoms replaced
  0 atoms trimmed
  522 atoms added
  522 atoms after read
Setting atom values ...
  522 settings made for type
  522 settings made for density
  522 settings made for vy
Setting up run at Tue Jan  3 02:43:55 2023

Memory usage per processor = 958.989 Mbytes
    Step    Atoms         KinEng            CPU 
       1      522  2.0467238e-07              0 
       2      522  2.2321206e-07    0.009160935 
Loop time of 0.00917935 on 40 procs for 1 steps with 522 atoms, finish time Tue Jan  3 02:43:55 2023


Pair  time (%) = 2.37855e-06 (0.025912)
Neigh time (%) = 0 (0)
Comm  time (%) = 5.93843e-06 (0.0646933)
Outpt time (%) = 0.000162881 (1.77443)
Other time (%) = 0.00900815 (98.135)

Nlocal:    13.05 ave 230 max 0 min
Histogram: 36 2 0 0 0 0 0 0 1 1
Nghost:    6.9 ave 88 max 0 min
Histogram: 36 0 0 0 0 1 1 0 0 2
Neighs:    4.05 ave 71 max 0 min
Histogram: 36 2 0 0 0 0 0 0 0 2

Total # of neighbors = 162
Ave neighs/atom = 0.310345
Neighbor list builds = 0
Dangerous builds = 0
Setting up run at Tue Jan  3 02:43:55 2023

Memory usage per processor = 958.989 Mbytes
    Step    Atoms         KinEng            CPU 
       2      522  2.2321206e-07              0 
  154322      522  2.5096779e-05      1487.4629 
Loop time of 1487.46 on 40 procs for 154320 steps with 522 atoms, finish time Tue Jan  3 03:08:43 2023


Pair  time (%) = 0.33684 (0.0226453)
Neigh time (%) = 0.117065 (0.00787014)
Comm  time (%) = 0.840018 (0.0564732)
Outpt time (%) = 0.000503557 (3.38534e-05)
Other time (%) = 1486.17 (99.913)

Nlocal:    13.05 ave 225 max 0 min
Histogram: 36 0 2 0 0 0 0 0 0 2
Nghost:    6.975 ave 93 max 0 min
Histogram: 36 0 0 0 1 1 0 0 0 2
Neighs:    4.4 ave 82 max 0 min
Histogram: 36 2 0 0 0 0 0 0 1 1

Total # of neighbors = 176
Ave neighs/atom = 0.337165
Neighbor list builds = 412
Dangerous builds = 0
Setting up run at Tue Jan  3 03:08:43 2023

Memory usage per processor = 958.989 Mbytes
    Step    Atoms         KinEng            CPU 
  154322      522  2.5096779e-05              0 
  308642      522  0.00014274771      1489.6645 
Loop time of 1489.66 on 40 procs for 154320 steps with 522 atoms, finish time Tue Jan  3 03:33:32 2023


Pair  time (%) = 0.336263 (0.0225731)
Neigh time (%) = 0.117925 (0.00791619)
Comm  time (%) = 0.860013 (0.057732)
Outpt time (%) = 0.000512938 (3.44331e-05)
Other time (%) = 1488.35 (99.9117)

Nlocal:    13.05 ave 215 max 0 min
Histogram: 36 0 2 0 0 0 0 0 0 2
Nghost:    7.05 ave 94 max 0 min
Histogram: 36 0 0 0 0 2 0 0 0 2
Neighs:    4.375 ave 75 max 0 min
Histogram: 36 1 1 0 0 0 0 0 0 2

Total # of neighbors = 175
Ave neighs/atom = 0.335249
Neighbor list builds = 412
Dangerous builds = 0
Setting up run at Tue Jan  3 03:33:32 2023

Memory usage per processor = 958.989 Mbytes
    Step    Atoms         KinEng            CPU 
  308642      522  0.00014274771              0 
  462962      522  0.00014423352      1494.9248 
Loop time of 1494.93 on 40 procs for 154320 steps with 522 atoms, finish time Tue Jan  3 03:58:27 2023


Pair  time (%) = 0.339327 (0.0226986)
Neigh time (%) = 0.1175 (0.00785989)
Comm  time (%) = 0.985963 (0.065954)
Outpt time (%) = 0.000503162 (3.3658e-05)
Other time (%) = 1493.48 (99.9035)

Nlocal:    13.05 ave 210 max 0 min
Histogram: 36 0 2 0 0 0 0 0 0 2
Nghost:    6.9 ave 92 max 0 min
Histogram: 36 0 0 0 1 1 0 0 0 2
Neighs:    4.275 ave 72 max 0 min
Histogram: 36 0 2 0 0 0 0 0 0 2

Total # of neighbors = 171
Ave neighs/atom = 0.327586
Neighbor list builds = 412
Dangerous builds = 0
Setting up run at Tue Jan  3 03:58:27 2023

Memory usage per processor = 958.989 Mbytes
    Step    Atoms         KinEng            CPU 
  462962      522  0.00014423352              0 
  617282      522  7.6652719e-05      1479.1469 
Loop time of 1479.15 on 40 procs for 154320 steps with 522 atoms, finish time Tue Jan  3 04:23:07 2023


Pair  time (%) = 0.332608 (0.0224865)
Neigh time (%) = 0.118911 (0.00803915)
Comm  time (%) = 0.87547 (0.0591875)
Outpt time (%) = 0.00051714 (3.4962e-05)
Other time (%) = 1477.82 (99.9103)

Nlocal:    13.05 ave 207 max 0 min
Histogram: 36 0 2 0 0 0 0 0 0 2
Nghost:    6.925 ave 90 max 0 min
Histogram: 36 0 0 0 0 1 1 0 0 2
Neighs:    4.1 ave 74 max 0 min
Histogram: 36 1 1 0 0 0 0 1 0 1

Total # of neighbors = 164
Ave neighs/atom = 0.314176
Neighbor list builds = 412
Dangerous builds = 0
Setting up run at Tue Jan  3 04:23:07 2023

Memory usage per processor = 958.989 Mbytes
    Step    Atoms         KinEng            CPU 
  617282      522  7.6652719e-05              0 
  771602      522   0.0003105504       1487.742 
Loop time of 1487.74 on 40 procs for 154320 steps with 522 atoms, finish time Tue Jan  3 04:47:54 2023


Pair  time (%) = 0.333551 (0.0224199)
Neigh time (%) = 0.117827 (0.00791985)
Comm  time (%) = 0.904996 (0.0608301)
Outpt time (%) = 0.000466842 (3.13792e-05)
Other time (%) = 1486.39 (99.9088)

Nlocal:    13.05 ave 208 max 0 min
Histogram: 36 0 2 0 0 0 0 0 0 2
Nghost:    6.9 ave 91 max 0 min
Histogram: 36 0 0 0 0 1 1 0 1 1
Neighs:    4 ave 70 max 0 min
Histogram: 36 1 1 0 0 0 0 0 1 1

Total # of neighbors = 160
Ave neighs/atom = 0.306513
Neighbor list builds = 412
Dangerous builds = 0
Setting up run at Tue Jan  3 04:47:54 2023

Memory usage per processor = 958.989 Mbytes
    Step    Atoms         KinEng            CPU 
  771602      522   0.0003105504              0 
  925922      521   0.0014221772      1497.4479 
Loop time of 1497.45 on 40 procs for 154320 steps with 521 atoms, finish time Tue Jan  3 05:12:52 2023


Pair  time (%) = 0.338217 (0.0225862)
Neigh time (%) = 0.237447 (0.0158568)
Comm  time (%) = 1.36903 (0.0914245)
Outpt time (%) = 0.000505832 (3.37796e-05)
Other time (%) = 1495.5 (99.8701)

Nlocal:    13.025 ave 206 max 0 min
Histogram: 36 0 2 0 0 0 0 0 0 2
Nghost:    6.775 ave 86 max 0 min
Histogram: 36 0 0 0 0 1 1 0 1 1
Neighs:    3.975 ave 74 max 0 min
Histogram: 36 2 0 0 0 0 0 1 0 1

Total # of neighbors = 159
Ave neighs/atom = 0.305182
Neighbor list builds = 910
Dangerous builds = 367
Setting up run at Tue Jan  3 05:12:52 2023

Memory usage per processor = 958.989 Mbytes
    Step    Atoms         KinEng            CPU 
  925922      521   0.0014221772              0 
 1080242      521    0.021748926       1491.502 
Loop time of 1491.5 on 40 procs for 154320 steps with 521 atoms, finish time Tue Jan  3 05:37:44 2023


Pair  time (%) = 0.336407 (0.0225549)
Neigh time (%) = 0.32924 (0.0220744)
Comm  time (%) = 1.185 (0.0794503)
Outpt time (%) = 0.000534744 (3.58527e-05)
Other time (%) = 1489.65 (99.8759)

Nlocal:    13.025 ave 204 max 0 min
Histogram: 36 0 2 0 0 0 0 0 0 2
Nghost:    6.85 ave 84 max 0 min
Histogram: 36 0 0 0 0 0 2 0 0 2
Neighs:    4.05 ave 72 max 0 min
Histogram: 36 0 2 0 0 0 0 1 0 1

Total # of neighbors = 162
Ave neighs/atom = 0.31094
Neighbor list builds = 1047
Dangerous builds = 0
Setting up run at Tue Jan  3 05:37:44 2023

Memory usage per processor = 958.989 Mbytes
    Step    Atoms         KinEng            CPU 
 1080242      521    0.021748926              0 
 1234562      520     0.14406366      1550.5063 
Loop time of 1550.52 on 40 procs for 154320 steps with 520 atoms, finish time Tue Jan  3 06:03:34 2023


Pair  time (%) = 0.351551 (0.0226731)
Neigh time (%) = 2.0456 (0.13193)
Comm  time (%) = 2.98599 (0.19258)
Outpt time (%) = 0.020348 (0.00131234)
Other time (%) = 1545.11 (99.6515)

Nlocal:    13 ave 203 max 0 min
Histogram: 36 0 2 0 0 0 0 0 0 2
Nghost:    6.575 ave 85 max 0 min
Histogram: 36 0 0 0 0 2 0 0 0 2
Neighs:    4.35 ave 76 max 0 min
Histogram: 36 0 2 0 0 0 0 1 0 1

Total # of neighbors = 174
Ave neighs/atom = 0.334615
Neighbor list builds = 6249
Dangerous builds = 1
Setting up run at Tue Jan  3 06:03:34 2023

Memory usage per processor = 958.989 Mbytes
    Step    Atoms         KinEng            CPU 
 1234562      520     0.14406366              0 
 1388882      517    0.096213614      1534.3091 
Loop time of 1534.31 on 40 procs for 154320 steps with 517 atoms, finish time Tue Jan  3 06:29:09 2023


Pair  time (%) = 0.356644 (0.0232446)
Neigh time (%) = 2.55514 (0.166533)
Comm  time (%) = 4.10263 (0.267393)
Outpt time (%) = 0.000470467 (3.06631e-05)
Other time (%) = 1527.29 (99.5428)

Nlocal:    12.925 ave 200 max 0 min
Histogram: 36 0 2 0 0 0 0 0 0 2
Nghost:    6.425 ave 84 max 0 min
Histogram: 36 0 0 0 0 2 0 0 1 1
Neighs:    4.275 ave 78 max 0 min
Histogram: 36 0 2 0 0 0 1 0 0 1

Total # of neighbors = 171
Ave neighs/atom = 0.330754
Neighbor list builds = 7867
Dangerous builds = 1
Setting up run at Tue Jan  3 06:29:09 2023

Memory usage per processor = 958.989 Mbytes
    Step    Atoms         KinEng            CPU 
 1388882      517    0.096213614              0 
 1543202      515    0.062163892      1550.4394 
Loop time of 1550.44 on 40 procs for 154320 steps with 515 atoms, finish time Tue Jan  3 06:54:59 2023


Pair  time (%) = 0.353375 (0.0227919)
Neigh time (%) = 2.47298 (0.159502)
Comm  time (%) = 3.79766 (0.244941)
Outpt time (%) = 0.0131523 (0.000848293)
Other time (%) = 1543.8 (99.5719)

Nlocal:    12.875 ave 196 max 0 min
Histogram: 36 0 1 1 0 0 0 0 0 2
Nghost:    6.275 ave 85 max 0 min
Histogram: 36 0 0 0 0 2 0 0 1 1
Neighs:    4.2 ave 74 max 0 min
Histogram: 36 0 2 0 0 0 0 1 0 1

Total # of neighbors = 168
Ave neighs/atom = 0.326214
Neighbor list builds = 7536
Dangerous builds = 25
Setting up run at Tue Jan  3 06:54:59 2023

Memory usage per processor = 958.989 Mbytes
    Step    Atoms         KinEng            CPU 
 1543202      515    0.062163892              0 
 1697522      514     0.15383744      1531.0174 
Loop time of 1531.02 on 40 procs for 154320 steps with 514 atoms, finish time Tue Jan  3 07:20:30 2023


Pair  time (%) = 0.351037 (0.0229283)
Neigh time (%) = 1.76015 (0.114966)
Comm  time (%) = 2.93466 (0.19168)
Outpt time (%) = 0.000551813 (3.60422e-05)
Other time (%) = 1525.97 (99.6704)

Nlocal:    12.85 ave 196 max 0 min
Histogram: 36 0 1 1 0 0 0 0 0 2
Nghost:    6.325 ave 85 max 0 min
Histogram: 36 0 0 0 0 2 0 0 1 1
Neighs:    4.175 ave 71 max 0 min
Histogram: 36 0 1 1 0 0 0 1 0 1

Total # of neighbors = 167
Ave neighs/atom = 0.324903
Neighbor list builds = 5387
Dangerous builds = 1
Setting up run at Tue Jan  3 07:20:31 2023

Memory usage per processor = 958.989 Mbytes
    Step    Atoms         KinEng            CPU 
 1697522      514     0.15383744              0 
 1851842      514     0.19777419       1546.611 
Loop time of 1546.61 on 40 procs for 154320 steps with 514 atoms, finish time Tue Jan  3 07:46:17 2023


Pair  time (%) = 0.352791 (0.0228106)
Neigh time (%) = 2.67664 (0.173065)
Comm  time (%) = 4.46348 (0.288597)
Outpt time (%) = 0.000609105 (3.93832e-05)
Other time (%) = 1539.12 (99.5155)

Nlocal:    12.85 ave 195 max 0 min
Histogram: 36 0 1 1 0 0 0 0 0 2
Nghost:    6.325 ave 87 max 0 min
Histogram: 36 0 0 0 0 2 0 0 1 1
Neighs:    4.05 ave 68 max 0 min
Histogram: 36 0 1 1 0 0 0 1 0 1

Total # of neighbors = 162
Ave neighs/atom = 0.315175
Neighbor list builds = 8156
Dangerous builds = 0
Setting up run at Tue Jan  3 07:46:17 2023

Memory usage per processor = 958.989 Mbytes
    Step    Atoms         KinEng            CPU 
 1851842      514     0.19777419              0 
 2006162      510     0.42526483      1544.8464 
Loop time of 1544.85 on 40 procs for 154320 steps with 510 atoms, finish time Tue Jan  3 08:12:02 2023


Pair  time (%) = 0.351684 (0.022765)
Neigh time (%) = 2.14483 (0.138838)
Comm  time (%) = 3.79694 (0.245781)
Outpt time (%) = 0.000620911 (4.01924e-05)
Other time (%) = 1538.55 (99.5926)

Nlocal:    12.75 ave 197 max 0 min
Histogram: 36 0 1 1 0 0 0 0 0 2
Nghost:    6.35 ave 84 max 0 min
Histogram: 36 0 0 0 0 2 0 0 1 1
Neighs:    4.2 ave 68 max 0 min
Histogram: 36 0 1 0 1 0 0 1 0 1

Total # of neighbors = 168
Ave neighs/atom = 0.329412
Neighbor list builds = 6525
Dangerous builds = 4
Setting up run at Tue Jan  3 08:12:02 2023

Memory usage per processor = 958.989 Mbytes
    Step    Atoms         KinEng            CPU 
 2006162      510     0.42526483              0 
 2160482      509      0.4287471      1553.0753 
Loop time of 1553.08 on 40 procs for 154320 steps with 509 atoms, finish time Tue Jan  3 08:37:55 2023


Pair  time (%) = 0.35749 (0.0230182)
Neigh time (%) = 3.12058 (0.200929)
Comm  time (%) = 6.25273 (0.402603)
Outpt time (%) = 0.000554985 (3.57346e-05)
Other time (%) = 1543.34 (99.3734)

Nlocal:    12.725 ave 194 max 0 min
Histogram: 36 0 1 1 0 0 0 0 0 2
Nghost:    6.575 ave 90 max 0 min
Histogram: 36 0 0 0 1 1 0 0 1 1
Neighs:    4.375 ave 75 max 0 min
Histogram: 36 0 1 1 0 0 0 1 0 1

Total # of neighbors = 175
Ave neighs/atom = 0.343811
Neighbor list builds = 9550
Dangerous builds = 0
Setting up run at Tue Jan  3 08:37:55 2023

Memory usage per processor = 958.989 Mbytes
    Step    Atoms         KinEng            CPU 
 2160482      509      0.4287471              0 
 2314802      507      1.0687109      1541.5777 
Loop time of 1541.58 on 40 procs for 154320 steps with 507 atoms, finish time Tue Jan  3 09:03:37 2023


Pair  time (%) = 0.353972 (0.0229617)
Neigh time (%) = 2.58858 (0.167918)
Comm  time (%) = 4.4037 (0.285662)
Outpt time (%) = 0.000564433 (3.6614e-05)
Other time (%) = 1534.23 (99.5234)

Nlocal:    12.675 ave 195 max 0 min
Histogram: 36 0 2 0 0 0 0 0 0 2
Nghost:    6.5 ave 83 max 0 min
Histogram: 36 0 0 0 1 0 1 0 0 2
Neighs:    4.1 ave 74 max 0 min
Histogram: 36 0 2 0 0 0 1 0 0 1

Total # of neighbors = 164
Ave neighs/atom = 0.323471
Neighbor list builds = 7946
Dangerous builds = 2
Setting up run at Tue Jan  3 09:03:37 2023

Memory usage per processor = 958.989 Mbytes
    Step    Atoms         KinEng            CPU 
 2314802      507      1.0687109              0 
 2469122      506     0.27588109      1608.0646 
Loop time of 1608.06 on 40 procs for 154320 steps with 506 atoms, finish time Tue Jan  3 09:30:25 2023


Pair  time (%) = 0.354528 (0.0220469)
Neigh time (%) = 2.66093 (0.165474)
Comm  time (%) = 4.72767 (0.293998)
Outpt time (%) = 0.000469007 (2.91659e-05)
Other time (%) = 1600.32 (99.5185)

Nlocal:    12.65 ave 195 max 0 min
Histogram: 36 0 2 0 0 0 0 0 0 2
Nghost:    6.6 ave 81 max 0 min
Histogram: 36 0 0 0 1 0 0 1 0 2
Neighs:    4.325 ave 73 max 0 min
Histogram: 36 0 1 1 0 0 0 1 0 1

Total # of neighbors = 173
Ave neighs/atom = 0.341897
Neighbor list builds = 8100
Dangerous builds = 1
Setting up run at Tue Jan  3 09:30:25 2023

Memory usage per processor = 958.989 Mbytes
    Step    Atoms         KinEng            CPU 
 2469122      506     0.27588109              0 
 2623442      504     0.29090315      1565.4019 
Loop time of 1565.4 on 40 procs for 154320 steps with 504 atoms, finish time Tue Jan  3 09:56:31 2023


Pair  time (%) = 0.346441 (0.0221311)
Neigh time (%) = 1.96208 (0.12534)
Comm  time (%) = 3.66148 (0.233901)
Outpt time (%) = 0.000581401 (3.71407e-05)
Other time (%) = 1559.43 (99.6186)

Nlocal:    12.6 ave 194 max 0 min
Histogram: 36 0 2 0 0 0 0 0 0 2
Nghost:    6.725 ave 82 max 0 min
Histogram: 36 0 0 0 0 1 0 1 0 2
Neighs:    4.25 ave 71 max 0 min
Histogram: 36 0 1 1 0 0 0 1 0 1

Total # of neighbors = 170
Ave neighs/atom = 0.337302
Neighbor list builds = 6067
Dangerous builds = 202
Setting up run at Tue Jan  3 09:56:31 2023

Memory usage per processor = 958.989 Mbytes
    Step    Atoms         KinEng            CPU 
 2623442      504     0.29090315              0 
 2777762      500      1.1743889      1555.1965 
Loop time of 1555.2 on 40 procs for 154320 steps with 500 atoms, finish time Tue Jan  3 10:22:26 2023


Pair  time (%) = 0.352405 (0.0226599)
Neigh time (%) = 2.87122 (0.184621)
Comm  time (%) = 5.00855 (0.322052)
Outpt time (%) = 0.000676731 (4.35142e-05)
Other time (%) = 1546.96 (99.4706)

Nlocal:    12.5 ave 183 max 0 min
Histogram: 36 0 1 1 0 0 0 0 0 2
Nghost:    5.875 ave 75 max 0 min
Histogram: 36 0 0 0 1 0 1 0 0 2
Neighs:    3.925 ave 62 max 0 min
Histogram: 36 0 1 0 1 0 0 0 1 1

Total # of neighbors = 157
Ave neighs/atom = 0.314
Neighbor list builds = 8805
Dangerous builds = 1
Setting up run at Tue Jan  3 10:22:26 2023

Memory usage per processor = 958.989 Mbytes
    Step    Atoms         KinEng            CPU 
 2777762      500      1.1743889              0 
 2932082      497     0.35232682      1552.8377 
Loop time of 1552.84 on 40 procs for 154320 steps with 497 atoms, finish time Tue Jan  3 10:48:19 2023


Pair  time (%) = 0.343056 (0.0220922)
Neigh time (%) = 2.51493 (0.161957)
Comm  time (%) = 5.51872 (0.355396)
Outpt time (%) = 0.000587254 (3.78181e-05)
Other time (%) = 1544.46 (99.4605)

Nlocal:    12.425 ave 182 max 0 min
Histogram: 36 0 1 1 0 0 0 0 1 1
Nghost:    5.85 ave 78 max 0 min
Histogram: 36 0 0 0 1 1 0 0 0 2
Neighs:    3.225 ave 53 max 0 min
Histogram: 36 0 1 1 0 0 0 0 1 1

Total # of neighbors = 129
Ave neighs/atom = 0.259557
Neighbor list builds = 7677
Dangerous builds = 2
Setting up run at Tue Jan  3 10:48:19 2023

Memory usage per processor = 958.989 Mbytes
    Step    Atoms         KinEng            CPU 
 2932082      497     0.35232682              0 
 3086402      489     0.61794727      1572.8002 
Loop time of 1572.8 on 40 procs for 154320 steps with 489 atoms, finish time Tue Jan  3 11:14:32 2023


Pair  time (%) = 0.349918 (0.022248)
Neigh time (%) = 3.58486 (0.227928)
Comm  time (%) = 6.85203 (0.435657)
Outpt time (%) = 0.000555709 (3.53323e-05)
Other time (%) = 1562.02 (99.3141)

Nlocal:    12.225 ave 179 max 0 min
Histogram: 36 0 1 1 0 0 0 0 1 1
Nghost:    5.6 ave 73 max 0 min
Histogram: 36 0 0 0 1 1 0 0 0 2
Neighs:    3.25 ave 52 max 0 min
Histogram: 36 0 1 1 0 0 0 0 0 2

Total # of neighbors = 130
Ave neighs/atom = 0.265849
Neighbor list builds = 11128
Dangerous builds = 769
Setting up run at Tue Jan  3 11:14:32 2023

Memory usage per processor = 958.989 Mbytes
    Step    Atoms         KinEng            CPU 
 3086402      489     0.61794727              0 
 3240722      481     0.27149043      1557.1234 
Loop time of 1557.12 on 40 procs for 154320 steps with 481 atoms, finish time Tue Jan  3 11:40:29 2023


Pair  time (%) = 0.345291 (0.0221749)
Neigh time (%) = 2.51858 (0.161746)
Comm  time (%) = 5.16258 (0.331546)
Outpt time (%) = 0.00051162 (3.28567e-05)
Other time (%) = 1549.1 (99.4845)

Nlocal:    12.025 ave 174 max 0 min
Histogram: 36 0 1 1 0 0 0 0 1 1
Nghost:    5.2 ave 68 max 0 min
Histogram: 36 0 0 0 1 1 0 0 0 2
Neighs:    3.4 ave 49 max 0 min
Histogram: 36 0 1 0 0 1 0 0 0 2

Total # of neighbors = 136
Ave neighs/atom = 0.282744
Neighbor list builds = 7791
Dangerous builds = 443
Setting up run at Tue Jan  3 11:40:29 2023

Memory usage per processor = 958.989 Mbytes
    Step    Atoms         KinEng            CPU 
 3240722      481     0.27149043              0 
 3395042      476      0.1790782      1526.8799 
Loop time of 1526.88 on 40 procs for 154320 steps with 476 atoms, finish time Tue Jan  3 12:05:56 2023


Pair  time (%) = 0.338243 (0.0221525)
Neigh time (%) = 1.4423 (0.0944606)
Comm  time (%) = 3.45164 (0.226058)
Outpt time (%) = 0.000534767 (3.50235e-05)
Other time (%) = 1521.65 (99.6573)

Nlocal:    11.9 ave 174 max 0 min
Histogram: 36 0 1 1 0 0 0 0 1 1
Nghost:    5.5 ave 76 max 0 min
Histogram: 36 0 0 0 1 1 0 0 1 1
Neighs:    3.05 ave 45 max 0 min
Histogram: 36 0 1 0 0 0 1 0 1 1

Total # of neighbors = 122
Ave neighs/atom = 0.256303
Neighbor list builds = 4408
Dangerous builds = 3
Setting up run at Tue Jan  3 12:05:56 2023

Memory usage per processor = 958.989 Mbytes
    Step    Atoms         KinEng            CPU 
 3395042      476      0.1790782              0 
 3549362      465     0.22035444      1555.8714 
Loop time of 1555.87 on 40 procs for 154320 steps with 465 atoms, finish time Tue Jan  3 12:31:52 2023


Pair  time (%) = 0.346266 (0.0222554)
Neigh time (%) = 2.81106 (0.180675)
Comm  time (%) = 6.32568 (0.406568)
Outpt time (%) = 0.000550875 (3.54062e-05)
Other time (%) = 1546.39 (99.3905)

Nlocal:    11.625 ave 177 max 0 min
Histogram: 36 0 0 2 0 0 0 1 0 1
Nghost:    5.375 ave 76 max 0 min
Histogram: 36 0 0 0 2 0 0 0 1 1
Neighs:    2.65 ave 40 max 0 min
Histogram: 36 0 0 1 0 1 0 0 1 1

Total # of neighbors = 106
Ave neighs/atom = 0.227957
Neighbor list builds = 9071
Dangerous builds = 1418
Setting up run at Tue Jan  3 12:31:52 2023

Memory usage per processor = 958.989 Mbytes
    Step    Atoms         KinEng            CPU 
 3549362      465     0.22035444              0 
 3703682      463     0.30661046      1536.4919 
Loop time of 1536.49 on 40 procs for 154320 steps with 463 atoms, finish time Tue Jan  3 12:57:28 2023


Pair  time (%) = 0.340476 (0.0221593)
Neigh time (%) = 1.93197 (0.125739)
Comm  time (%) = 4.26001 (0.277256)
Outpt time (%) = 0.000489093 (3.18318e-05)
Other time (%) = 1529.96 (99.5748)

Nlocal:    11.575 ave 180 max 0 min
Histogram: 35 1 2 0 0 0 0 1 0 1
Nghost:    5.275 ave 70 max 0 min
Histogram: 36 0 0 0 1 1 0 0 1 1
Neighs:    2.95 ave 53 max 0 min
Histogram: 36 0 0 2 0 1 0 0 0 1

Total # of neighbors = 118
Ave neighs/atom = 0.25486
Neighbor list builds = 5964
Dangerous builds = 61
Setting up run at Tue Jan  3 12:57:28 2023

Memory usage per processor = 958.989 Mbytes
    Step    Atoms         KinEng            CPU 
 3703682      463     0.30661046              0 
 3858002      457     0.75185088      1541.4305 
Loop time of 1541.43 on 40 procs for 154320 steps with 457 atoms, finish time Tue Jan  3 13:23:10 2023


Pair  time (%) = 0.338079 (0.0219328)
Neigh time (%) = 2.3426 (0.151976)
Comm  time (%) = 5.88717 (0.381929)
Outpt time (%) = 0.00055829 (3.6219e-05)
Other time (%) = 1532.86 (99.4441)

Nlocal:    11.425 ave 182 max 0 min
Histogram: 36 0 2 0 0 0 1 0 0 1
Nghost:    5.2 ave 70 max 0 min
Histogram: 36 0 0 0 1 1 0 0 1 1
Neighs:    2.5 ave 44 max 0 min
Histogram: 36 0 1 1 0 1 0 0 0 1

Total # of neighbors = 100
Ave neighs/atom = 0.218818
Neighbor list builds = 7248
Dangerous builds = 66
Setting up run at Tue Jan  3 13:23:10 2023

Memory usage per processor = 958.989 Mbytes
    Step    Atoms         KinEng            CPU 
 3858002      457     0.75185088              0 
 4012322      450     0.54694606      1542.6459 
Loop time of 1542.65 on 40 procs for 154320 steps with 450 atoms, finish time Tue Jan  3 13:48:53 2023


Pair  time (%) = 0.340279 (0.0220581)
Neigh time (%) = 2.71543 (0.176024)
Comm  time (%) = 6.68117 (0.433098)
Outpt time (%) = 0.000632888 (4.10261e-05)
Other time (%) = 1532.91 (99.3688)

Nlocal:    11.25 ave 182 max 0 min
Histogram: 36 0 2 0 0 0 1 0 0 1
Nghost:    5.25 ave 72 max 0 min
Histogram: 36 0 0 1 0 1 0 0 1 1
Neighs:    2 ave 34 max 0 min
Histogram: 36 0 1 0 0 1 1 0 0 1

Total # of neighbors = 80
Ave neighs/atom = 0.177778
Neighbor list builds = 8349
Dangerous builds = 313
Setting up run at Tue Jan  3 13:48:53 2023

Memory usage per processor = 958.989 Mbytes
    Step    Atoms         KinEng            CPU 
 4012322      450     0.54694606              0 
 4166642      437      1.0528943      1560.8203 
Loop time of 1560.82 on 40 procs for 154320 steps with 437 atoms, finish time Tue Jan  3 14:14:54 2023


Pair  time (%) = 0.343735 (0.0220227)
Neigh time (%) = 3.40117 (0.217909)
Comm  time (%) = 7.86289 (0.503766)
Outpt time (%) = 0.00050149 (3.21299e-05)
Other time (%) = 1549.21 (99.2563)

Nlocal:    10.925 ave 180 max 0 min
Histogram: 35 1 2 0 0 0 1 0 0 1
Nghost:    5 ave 68 max 0 min
Histogram: 36 0 0 1 0 1 0 0 1 1
Neighs:    1.95 ave 39 max 0 min
Histogram: 36 1 0 1 1 0 0 0 0 1

Total # of neighbors = 78
Ave neighs/atom = 0.17849
Neighbor list builds = 10583
Dangerous builds = 7
Setting up run at Tue Jan  3 14:14:54 2023

Memory usage per processor = 958.989 Mbytes
    Step    Atoms         KinEng            CPU 
 4166642      437      1.0528943              0 
 4320962      429     0.71650876      1520.1648 
Loop time of 1520.17 on 40 procs for 154320 steps with 429 atoms, finish time Tue Jan  3 14:40:14 2023


Pair  time (%) = 0.333206 (0.0219191)
Neigh time (%) = 2.33637 (0.153692)
Comm  time (%) = 6.18304 (0.406734)
Outpt time (%) = 0.00052086 (3.42634e-05)
Other time (%) = 1511.31 (99.4176)

Nlocal:    10.725 ave 179 max 0 min
Histogram: 35 2 1 0 0 1 0 0 0 1
Nghost:    5.05 ave 66 max 0 min
Histogram: 36 0 0 0 1 1 0 0 0 2
Neighs:    1.9 ave 37 max 0 min
Histogram: 36 1 0 0 2 0 0 0 0 1

Total # of neighbors = 76
Ave neighs/atom = 0.177156
Neighbor list builds = 7278
Dangerous builds = 351
Setting up run at Tue Jan  3 14:40:14 2023

Memory usage per processor = 958.989 Mbytes
    Step    Atoms         KinEng            CPU 
 4320962      429     0.71650876              0 
 4475282      424     0.78748997      1529.0627 
Loop time of 1529.06 on 40 procs for 154320 steps with 424 atoms, finish time Tue Jan  3 15:05:43 2023


Pair  time (%) = 0.329933 (0.0215775)
Neigh time (%) = 2.1315 (0.139399)
Comm  time (%) = 5.19383 (0.339674)
Outpt time (%) = 0.000569031 (3.72144e-05)
Other time (%) = 1521.41 (99.4993)

Nlocal:    10.6 ave 179 max 0 min
Histogram: 35 2 1 0 0 1 0 0 0 1
Nghost:    4.775 ave 64 max 0 min
Histogram: 36 0 0 1 0 0 1 0 1 1
Neighs:    1.875 ave 41 max 0 min
Histogram: 36 1 0 2 0 0 0 0 0 1

Total # of neighbors = 75
Ave neighs/atom = 0.176887
Neighbor list builds = 6478
Dangerous builds = 9
Setting up run at Tue Jan  3 15:05:43 2023

Memory usage per processor = 958.989 Mbytes
    Step    Atoms         KinEng            CPU 
 4475282      424     0.78748997              0 
 4629602      412     0.89024706       1544.248 
Loop time of 1544.25 on 40 procs for 154320 steps with 412 atoms, finish time Tue Jan  3 15:31:27 2023


Pair  time (%) = 0.332339 (0.021521)
Neigh time (%) = 2.77057 (0.179412)
Comm  time (%) = 7.44639 (0.482201)
Outpt time (%) = 0.000569319 (3.6867e-05)
Other time (%) = 1533.7 (99.3168)

Nlocal:    10.3 ave 178 max 0 min
Histogram: 36 1 1 0 0 1 0 0 0 1
Nghost:    4.8 ave 63 max 0 min
Histogram: 36 0 0 1 0 0 0 1 1 1
Neighs:    2.05 ave 47 max 0 min
Histogram: 36 1 1 1 0 0 0 0 0 1

Total # of neighbors = 82
Ave neighs/atom = 0.199029
Neighbor list builds = 8533
Dangerous builds = 7
Setting up run at Tue Jan  3 15:31:27 2023

Memory usage per processor = 958.989 Mbytes
    Step    Atoms         KinEng            CPU 
 4629602      412     0.89024706              0 
 4783922      408       2.446496       1537.017 
Loop time of 1537.02 on 40 procs for 154320 steps with 408 atoms, finish time Tue Jan  3 15:57:04 2023


Pair  time (%) = 0.331495 (0.0215674)
Neigh time (%) = 2.71238 (0.176471)
Comm  time (%) = 9.01837 (0.586745)
Outpt time (%) = 0.000611729 (3.97997e-05)
Other time (%) = 1524.95 (99.2152)

Nlocal:    10.2 ave 176 max 0 min
Histogram: 36 1 1 0 0 1 0 0 0 1
Nghost:    4.575 ave 60 max 0 min
Histogram: 36 0 0 1 0 0 0 1 1 1
Neighs:    1.85 ave 39 max 0 min
Histogram: 36 1 0 1 1 0 0 0 0 1

Total # of neighbors = 74
Ave neighs/atom = 0.181373
Neighbor list builds = 8225
Dangerous builds = 43
Setting up run at Tue Jan  3 15:57:04 2023

Memory usage per processor = 958.989 Mbytes
    Step    Atoms         KinEng            CPU 
 4783922      408       2.446496              0 
 4938242      398      1.0191042      1540.5041 
Loop time of 1540.5 on 40 procs for 154320 steps with 398 atoms, finish time Tue Jan  3 16:22:45 2023


Pair  time (%) = 0.327366 (0.0212506)
Neigh time (%) = 2.89972 (0.188232)
Comm  time (%) = 8.60027 (0.558276)
Outpt time (%) = 0.00322169 (0.000209132)
Other time (%) = 1528.67 (99.232)

Nlocal:    9.95 ave 171 max 0 min
Histogram: 36 1 0 1 0 1 0 0 0 1
Nghost:    4.375 ave 63 max 0 min
Histogram: 36 0 0 1 0 0 1 1 0 1
Neighs:    1.975 ave 41 max 0 min
Histogram: 36 1 1 0 1 0 0 0 0 1

Total # of neighbors = 79
Ave neighs/atom = 0.198492
Neighbor list builds = 9269
Dangerous builds = 1485
Setting up run at Tue Jan  3 16:22:45 2023

Memory usage per processor = 958.989 Mbytes
    Step    Atoms         KinEng            CPU 
 4938242      398      1.0191042              0 
 5092562      392      1.3846321      1545.8681 
Loop time of 1545.87 on 40 procs for 154320 steps with 392 atoms, finish time Tue Jan  3 16:48:31 2023


Pair  time (%) = 0.329387 (0.0213076)
Neigh time (%) = 3.18608 (0.206103)
Comm  time (%) = 8.2173 (0.531566)
Outpt time (%) = 0.000580952 (3.7581e-05)
Other time (%) = 1534.13 (99.241)

Nlocal:    9.8 ave 166 max 0 min
Histogram: 36 1 0 1 0 1 0 0 0 1
Nghost:    4.1 ave 63 max 0 min
Histogram: 36 0 1 0 0 1 1 0 0 1
Neighs:    1.6 ave 33 max 0 min
Histogram: 37 0 0 1 0 1 0 0 0 1

Total # of neighbors = 64
Ave neighs/atom = 0.163265
Neighbor list builds = 9822
Dangerous builds = 294
Setting up run at Tue Jan  3 16:48:31 2023

Memory usage per processor = 958.989 Mbytes
    Step    Atoms         KinEng            CPU 
 5092562      392      1.3846321              0 
 5246882      386      1.1765541       1553.122 
Loop time of 1553.12 on 40 procs for 154320 steps with 386 atoms, finish time Tue Jan  3 17:14:24 2023


Pair  time (%) = 0.329435 (0.0212112)
Neigh time (%) = 3.13507 (0.201856)
Comm  time (%) = 9.32923 (0.600676)
Outpt time (%) = 0.00315865 (0.000203374)
Other time (%) = 1540.33 (99.1761)

Nlocal:    9.65 ave 166 max 0 min
Histogram: 36 1 1 0 0 1 0 0 0 1
Nghost:    3.875 ave 55 max 0 min
Histogram: 36 0 1 0 0 0 2 0 0 1
Neighs:    1.6 ave 36 max 0 min
Histogram: 37 1 0 0 0 1 0 0 0 1

Total # of neighbors = 64
Ave neighs/atom = 0.165803
Neighbor list builds = 9582
Dangerous builds = 2
Setting up run at Tue Jan  3 17:14:24 2023

Memory usage per processor = 958.989 Mbytes
    Step    Atoms         KinEng            CPU 
 5246882      386      1.1765541              0 
 5401202      375      1.0576582      1544.1725 
Loop time of 1544.17 on 40 procs for 154320 steps with 375 atoms, finish time Tue Jan  3 17:40:08 2023


Pair  time (%) = 0.323955 (0.0209792)
Neigh time (%) = 3.18343 (0.206158)
Comm  time (%) = 8.20894 (0.531608)
Outpt time (%) = 0.00304866 (0.00019743)
Other time (%) = 1532.45 (99.2411)

Nlocal:    9.375 ave 165 max 0 min
Histogram: 36 1 1 0 0 1 0 0 0 1
Nghost:    3.675 ave 56 max 0 min
Histogram: 36 0 0 1 0 1 1 0 0 1
Neighs:    1.65 ave 42 max 0 min
Histogram: 37 1 0 0 1 0 0 0 0 1

Total # of neighbors = 66
Ave neighs/atom = 0.176
Neighbor list builds = 9672
Dangerous builds = 4
Setting up run at Tue Jan  3 17:40:08 2023

Memory usage per processor = 958.989 Mbytes
    Step    Atoms         KinEng            CPU 
 5401202      375      1.0576582              0 
 5555522      368     0.98126139      1542.6807 
Loop time of 1542.68 on 40 procs for 154320 steps with 368 atoms, finish time Tue Jan  3 18:05:51 2023


Pair  time (%) = 0.325148 (0.0210768)
Neigh time (%) = 2.67177 (0.17319)
Comm  time (%) = 6.1637 (0.399545)
Outpt time (%) = 0.000446819 (2.89638e-05)
Other time (%) = 1533.52 (99.4062)

Nlocal:    9.2 ave 167 max 0 min
Histogram: 36 1 1 0 0 1 0 0 0 1
Nghost:    3.625 ave 50 max 0 min
Histogram: 36 0 0 1 0 0 1 1 0 1
Neighs:    1.625 ave 44 max 0 min
Histogram: 37 1 0 1 0 0 0 0 0 1

Total # of neighbors = 65
Ave neighs/atom = 0.17663
Neighbor list builds = 8047
Dangerous builds = 144
Setting up run at Tue Jan  3 18:05:51 2023

Memory usage per processor = 958.989 Mbytes
    Step    Atoms         KinEng            CPU 
 5555522      368     0.98126139              0 
 5709842      365      1.0385459      1519.5967 
Loop time of 1519.6 on 40 procs for 154320 steps with 365 atoms, finish time Tue Jan  3 18:31:11 2023


Pair  time (%) = 0.320001 (0.0210583)
Neigh time (%) = 2.02891 (0.133517)
Comm  time (%) = 5.1114 (0.336366)
Outpt time (%) = 0.000522525 (3.43858e-05)
Other time (%) = 1512.14 (99.509)

Nlocal:    9.125 ave 163 max 0 min
Histogram: 36 1 1 0 0 1 0 0 0 1
Nghost:    3.6 ave 52 max 0 min
Histogram: 36 0 0 1 0 1 1 0 0 1
Neighs:    1.525 ave 44 max 0 min
Histogram: 37 1 1 0 0 0 0 0 0 1

Total # of neighbors = 61
Ave neighs/atom = 0.167123
Neighbor list builds = 6094
Dangerous builds = 0
Setting up run at Tue Jan  3 18:31:11 2023

Memory usage per processor = 958.989 Mbytes
    Step    Atoms         KinEng            CPU 
 5709842      365      1.0385459              0 
 5864162      359      2.6961203      1536.0215 
Loop time of 1536.02 on 40 procs for 154320 steps with 359 atoms, finish time Tue Jan  3 18:56:47 2023


Pair  time (%) = 0.314878 (0.0204996)
Neigh time (%) = 2.20746 (0.143713)
Comm  time (%) = 5.70594 (0.371475)
Outpt time (%) = 0.00056389 (3.67111e-05)
Other time (%) = 1527.79 (99.4643)

Nlocal:    8.975 ave 165 max 0 min
Histogram: 36 1 1 0 0 1 0 0 0 1
Nghost:    3.525 ave 49 max 0 min
Histogram: 36 0 0 1 0 0 1 1 0 1
Neighs:    1.7 ave 46 max 0 min
Histogram: 37 1 1 0 0 0 0 0 0 1

Total # of neighbors = 68
Ave neighs/atom = 0.189415
Neighbor list builds = 6612
Dangerous builds = 5
Setting up run at Tue Jan  3 18:56:47 2023

Memory usage per processor = 958.989 Mbytes
    Step    Atoms         KinEng            CPU 
 5864162      359      2.6961203              0 
 6018482      350      1.4359944      1556.5593 
Loop time of 1556.56 on 40 procs for 154320 steps with 350 atoms, finish time Tue Jan  3 19:22:44 2023


Pair  time (%) = 0.323114 (0.0207582)
Neigh time (%) = 3.394 (0.218045)
Comm  time (%) = 7.11238 (0.45693)
Outpt time (%) = 0.000633745 (4.07145e-05)
Other time (%) = 1545.73 (99.3042)

Nlocal:    8.75 ave 161 max 0 min
Histogram: 36 2 0 0 0 0 1 0 0 1
Nghost:    3.35 ave 45 max 0 min
Histogram: 36 0 0 0 1 0 0 2 0 1
Neighs:    1.525 ave 46 max 0 min
Histogram: 37 2 0 0 0 0 0 0 0 1

Total # of neighbors = 61
Ave neighs/atom = 0.174286
Neighbor list builds = 10489
Dangerous builds = 542
Setting up run at Tue Jan  3 19:22:44 2023

Memory usage per processor = 958.989 Mbytes
    Step    Atoms         KinEng            CPU 
 6018482      350      1.4359944              0 
 6172802      344      1.0115607      1541.0321 
Loop time of 1541.03 on 40 procs for 154320 steps with 344 atoms, finish time Tue Jan  3 19:48:25 2023


Pair  time (%) = 0.31697 (0.0205687)
Neigh time (%) = 2.60505 (0.169046)
Comm  time (%) = 4.5639 (0.296159)
Outpt time (%) = 0.00311176 (0.000201927)
Other time (%) = 1533.54 (99.514)

Nlocal:    8.6 ave 159 max 0 min
Histogram: 36 2 0 0 0 0 1 0 0 1
Nghost:    3.425 ave 44 max 0 min
Histogram: 36 0 0 0 1 0 0 2 0 1
Neighs:    1.575 ave 46 max 0 min
Histogram: 38 0 1 0 0 0 0 0 0 1

Total # of neighbors = 63
Ave neighs/atom = 0.18314
Neighbor list builds = 7880
Dangerous builds = 333
Setting up run at Tue Jan  3 19:48:25 2023

Memory usage per processor = 958.989 Mbytes
    Step    Atoms         KinEng            CPU 
 6172802      344      1.0115607              0 
 6327122      340     0.95981028      1525.3883 
Loop time of 1525.39 on 40 procs for 154320 steps with 340 atoms, finish time Tue Jan  3 20:13:50 2023


Pair  time (%) = 0.315398 (0.0206766)
Neigh time (%) = 2.49506 (0.163569)
Comm  time (%) = 4.32905 (0.2838)
Outpt time (%) = 0.000519676 (3.40684e-05)
Other time (%) = 1518.25 (99.5319)

Nlocal:    8.5 ave 158 max 0 min
Histogram: 36 2 0 0 0 0 1 0 0 1
Nghost:    3.3 ave 39 max 0 min
Histogram: 36 0 0 0 0 1 0 0 2 1
Neighs:    1.425 ave 41 max 0 min
Histogram: 38 0 1 0 0 0 0 0 0 1

Total # of neighbors = 57
Ave neighs/atom = 0.167647
Neighbor list builds = 7605
Dangerous builds = 497
Setting up run at Tue Jan  3 20:13:50 2023

Memory usage per processor = 958.989 Mbytes
    Step    Atoms         KinEng            CPU 
 6327122      340     0.95981028              0 
 6481442      335      1.2657909      1581.9607 
Loop time of 1581.96 on 40 procs for 154320 steps with 335 atoms, finish time Tue Jan  3 20:40:12 2023


Pair  time (%) = 0.317926 (0.020097)
Neigh time (%) = 2.31221 (0.146161)
Comm  time (%) = 4.69019 (0.29648)
Outpt time (%) = 0.000602215 (3.80676e-05)
Other time (%) = 1574.64 (99.5372)

Nlocal:    8.375 ave 157 max 0 min
Histogram: 36 2 0 0 0 0 1 0 0 1
Nghost:    3.125 ave 40 max 0 min
Histogram: 36 0 0 0 1 0 0 1 1 1
Neighs:    1.325 ave 35 max 0 min
Histogram: 38 0 0 0 1 0 0 0 0 1

Total # of neighbors = 53
Ave neighs/atom = 0.158209
Neighbor list builds = 6995
Dangerous builds = 63
Setting up run at Tue Jan  3 20:40:12 2023

Memory usage per processor = 958.989 Mbytes
    Step    Atoms         KinEng            CPU 
 6481442      335      1.2657909              0 
 6635762      334      1.6666158      1548.8844 
Loop time of 1548.88 on 40 procs for 154320 steps with 334 atoms, finish time Tue Jan  3 21:06:01 2023


Pair  time (%) = 0.323344 (0.0208759)
Neigh time (%) = 3.18701 (0.205761)
Comm  time (%) = 5.4479 (0.35173)
Outpt time (%) = 0.000560026 (3.61567e-05)
Other time (%) = 1539.93 (99.4216)

Nlocal:    8.35 ave 154 max 0 min
Histogram: 36 1 1 0 0 0 1 0 0 1
Nghost:    3.05 ave 40 max 0 min
Histogram: 36 0 0 0 0 1 1 0 1 1
Neighs:    1.3 ave 34 max 0 min
Histogram: 38 0 0 0 1 0 0 0 0 1

Total # of neighbors = 52
Ave neighs/atom = 0.155689
Neighbor list builds = 9635
Dangerous builds = 0
Setting up run at Tue Jan  3 21:06:01 2023

Memory usage per processor = 958.989 Mbytes
    Step    Atoms         KinEng            CPU 
 6635762      334      1.6666158              0 
 6790082      328      2.0655073      1556.5047 
Loop time of 1556.51 on 40 procs for 154320 steps with 328 atoms, finish time Tue Jan  3 21:31:58 2023


Pair  time (%) = 0.31806 (0.0204342)
Neigh time (%) = 3.1303 (0.201111)
Comm  time (%) = 5.64911 (0.362936)
Outpt time (%) = 0.000517879 (3.32719e-05)
Other time (%) = 1547.41 (99.4155)

Nlocal:    8.2 ave 152 max 0 min
Histogram: 36 2 0 0 0 0 1 0 0 1
Nghost:    3.125 ave 41 max 0 min
Histogram: 36 0 0 0 1 1 0 0 1 1
Neighs:    1.375 ave 41 max 0 min
Histogram: 38 0 1 0 0 0 0 0 0 1

Total # of neighbors = 55
Ave neighs/atom = 0.167683
Neighbor list builds = 9435
Dangerous builds = 2
Setting up run at Tue Jan  3 21:31:58 2023

Memory usage per processor = 958.989 Mbytes
    Step    Atoms         KinEng            CPU 
 6790082      328      2.0655073              0 
 6944402      327      1.9872533      1541.5583 
Loop time of 1541.56 on 40 procs for 154320 steps with 327 atoms, finish time Tue Jan  3 21:57:39 2023


Pair  time (%) = 0.31487 (0.0204255)
Neigh time (%) = 2.61783 (0.169817)
Comm  time (%) = 5.36647 (0.34812)
Outpt time (%) = 0.000545973 (3.5417e-05)
Other time (%) = 1533.26 (99.4616)

Nlocal:    8.175 ave 153 max 0 min
Histogram: 36 2 0 0 0 0 1 0 0 1
Nghost:    3.05 ave 38 max 0 min
Histogram: 36 0 0 0 0 1 0 1 1 1
Neighs:    1.275 ave 39 max 0 min
Histogram: 37 1 1 0 0 0 0 0 0 1

Total # of neighbors = 51
Ave neighs/atom = 0.155963
Neighbor list builds = 7875
Dangerous builds = 0
Setting up run at Tue Jan  3 21:57:39 2023

Memory usage per processor = 958.989 Mbytes
    Step    Atoms         KinEng            CPU 
 6944402      327      1.9872533              0 
 7098722      317      1.0816774      1530.2132 
Loop time of 1530.21 on 40 procs for 154320 steps with 317 atoms, finish time Tue Jan  3 22:23:10 2023


Pair  time (%) = 0.312565 (0.0204263)
Neigh time (%) = 2.34947 (0.153539)
Comm  time (%) = 4.29814 (0.280885)
Outpt time (%) = 0.000508495 (3.32303e-05)
Other time (%) = 1523.25 (99.5451)

Nlocal:    7.925 ave 146 max 0 min
Histogram: 36 2 0 0 0 0 1 0 0 1
Nghost:    2.8 ave 37 max 0 min
Histogram: 36 0 0 0 1 0 0 2 0 1
Neighs:    1.275 ave 36 max 0 min
Histogram: 37 1 1 0 0 0 0 0 0 1

Total # of neighbors = 51
Ave neighs/atom = 0.160883
Neighbor list builds = 7139
Dangerous builds = 162
Setting up run at Tue Jan  3 22:23:10 2023

Memory usage per processor = 958.989 Mbytes
    Step    Atoms         KinEng            CPU 
 7098722      317      1.0816774              0 
 7253042      311      0.9887282      1527.6367 
Loop time of 1527.64 on 40 procs for 154320 steps with 311 atoms, finish time Tue Jan  3 22:48:37 2023


Pair  time (%) = 0.314032 (0.0205567)
Neigh time (%) = 2.26647 (0.148364)
Comm  time (%) = 4.29566 (0.281197)
Outpt time (%) = 0.00060151 (3.93752e-05)
Other time (%) = 1520.76 (99.5498)

Nlocal:    7.775 ave 145 max 0 min
Histogram: 36 1 1 0 0 0 1 0 0 1
Nghost:    2.725 ave 36 max 0 min
Histogram: 36 0 0 0 0 1 0 1 1 1
Neighs:    1.05 ave 28 max 0 min
Histogram: 37 0 2 0 0 0 0 0 0 1

Total # of neighbors = 42
Ave neighs/atom = 0.135048
Neighbor list builds = 7035
Dangerous builds = 734
Setting up run at Tue Jan  3 22:48:37 2023

Memory usage per processor = 958.989 Mbytes
    Step    Atoms         KinEng            CPU 
 7253042      311      0.9887282              0 
 7407362      308     0.80541203      1531.1271 
Loop time of 1531.13 on 40 procs for 154320 steps with 308 atoms, finish time Tue Jan  3 23:14:09 2023


Pair  time (%) = 0.312681 (0.0204216)
Neigh time (%) = 2.23841 (0.146194)
Comm  time (%) = 3.54225 (0.231349)
Outpt time (%) = 0.000588219 (3.84174e-05)
Other time (%) = 1525.03 (99.602)

Nlocal:    7.7 ave 139 max 0 min
Histogram: 36 1 1 0 0 0 1 0 0 1
Nghost:    2.825 ave 41 max 0 min
Histogram: 36 0 0 0 1 1 1 0 0 1
Neighs:    1.125 ave 28 max 0 min
Histogram: 37 0 1 1 0 0 0 0 0 1

Total # of neighbors = 45
Ave neighs/atom = 0.146104
Neighbor list builds = 6713
Dangerous builds = 10
Setting up run at Tue Jan  3 23:14:09 2023

Memory usage per processor = 958.989 Mbytes
    Step    Atoms         KinEng            CPU 
 7407362      308     0.80541203              0 
 7561682      304     0.81254347      1532.1063 
Loop time of 1532.11 on 40 procs for 154320 steps with 304 atoms, finish time Tue Jan  3 23:39:41 2023


Pair  time (%) = 0.310178 (0.0202452)
Neigh time (%) = 2.12931 (0.138979)
Comm  time (%) = 3.64688 (0.238031)
Outpt time (%) = 0.000489891 (3.1975e-05)
Other time (%) = 1526.02 (99.6027)

Nlocal:    7.6 ave 138 max 0 min
Histogram: 36 1 1 0 0 0 1 0 0 1
Nghost:    2.925 ave 42 max 0 min
Histogram: 36 0 0 0 1 1 1 0 0 1
Neighs:    0.9 ave 22 max 0 min
Histogram: 37 0 1 1 0 0 0 0 0 1

Total # of neighbors = 36
Ave neighs/atom = 0.118421
Neighbor list builds = 6434
Dangerous builds = 2
Setting up run at Tue Jan  3 23:39:41 2023

Memory usage per processor = 958.989 Mbytes
    Step    Atoms         KinEng            CPU 
 7561682      304     0.81254347              0 
 7716002      301     0.67194379      1530.9351 
Loop time of 1530.94 on 40 procs for 154320 steps with 301 atoms, finish time Wed Jan  4 00:05:12 2023


Pair  time (%) = 0.300963 (0.0196588)
Neigh time (%) = 2.51476 (0.164263)
Comm  time (%) = 5.82883 (0.380737)
Outpt time (%) = 0.000518428 (3.38635e-05)
Other time (%) = 1522.29 (99.4353)

Nlocal:    7.525 ave 142 max 0 min
Histogram: 36 2 0 0 0 0 1 0 0 1
Nghost:    2.925 ave 39 max 0 min
Histogram: 36 0 0 0 1 0 1 1 0 1
Neighs:    0.925 ave 22 max 0 min
Histogram: 37 1 0 0 0 1 0 0 0 1

Total # of neighbors = 37
Ave neighs/atom = 0.122924
Neighbor list builds = 7635
Dangerous builds = 3
Setting up run at Wed Jan  4 00:05:12 2023

Memory usage per processor = 958.989 Mbytes
    Step    Atoms         KinEng            CPU 
 7716002      301     0.67194379              0 
 7870322      299     0.59641826      1522.0751 
Loop time of 1522.09 on 40 procs for 154320 steps with 299 atoms, finish time Wed Jan  4 00:30:34 2023


Pair  time (%) = 0.298169 (0.0195895)
Neigh time (%) = 2.04518 (0.134367)
Comm  time (%) = 3.58775 (0.235713)
Outpt time (%) = 0.000522067 (3.42994e-05)
Other time (%) = 1516.15 (99.6103)

Nlocal:    7.475 ave 140 max 0 min
Histogram: 36 1 1 0 0 0 1 0 0 1
Nghost:    2.875 ave 37 max 0 min
Histogram: 36 0 0 0 1 0 0 2 0 1
Neighs:    0.75 ave 16 max 0 min
Histogram: 37 0 1 0 0 0 1 0 0 1

Total # of neighbors = 30
Ave neighs/atom = 0.100334
Neighbor list builds = 6129
Dangerous builds = 0
Setting up run at Wed Jan  4 00:30:34 2023

Memory usage per processor = 958.989 Mbytes
    Step    Atoms         KinEng            CPU 
 7870322      299     0.59641826              0 
 8024642      298     0.49465997      1515.0395 
Loop time of 1515.04 on 40 procs for 154320 steps with 298 atoms, finish time Wed Jan  4 00:55:49 2023


Pair  time (%) = 0.293256 (0.0193564)
Neigh time (%) = 1.73374 (0.114436)
Comm  time (%) = 3.90596 (0.257813)
Outpt time (%) = 0.000511761 (3.37787e-05)
Other time (%) = 1509.11 (99.6084)

Nlocal:    7.45 ave 136 max 0 min
Histogram: 36 1 1 0 0 0 1 0 0 1
Nghost:    2.65 ave 36 max 0 min
Histogram: 36 0 0 0 1 0 1 1 0 1
Neighs:    0.725 ave 14 max 0 min
Histogram: 37 0 1 0 0 0 0 1 0 1

Total # of neighbors = 29
Ave neighs/atom = 0.0973154
Neighbor list builds = 5145
Dangerous builds = 1
Setting up run at Wed Jan  4 00:55:49 2023

Memory usage per processor = 958.989 Mbytes
    Step    Atoms         KinEng            CPU 
 8024642      298     0.49465997              0 
 8178962      296     0.48057135      1539.9078 
Loop time of 1539.91 on 40 procs for 154320 steps with 296 atoms, finish time Wed Jan  4 01:21:29 2023


Pair  time (%) = 0.298447 (0.0193809)
Neigh time (%) = 1.81952 (0.118158)
Comm  time (%) = 3.38869 (0.220058)
Outpt time (%) = 0.000597997 (3.88333e-05)
Other time (%) = 1534.4 (99.6424)

Nlocal:    7.4 ave 135 max 0 min
Histogram: 36 1 1 0 0 0 1 0 0 1
Nghost:    2.575 ave 34 max 0 min
Histogram: 36 0 0 0 0 1 1 1 0 1
Neighs:    0.7 ave 15 max 0 min
Histogram: 37 0 1 0 0 0 1 0 0 1

Total # of neighbors = 28
Ave neighs/atom = 0.0945946
Neighbor list builds = 5403
Dangerous builds = 1
Setting up run at Wed Jan  4 01:21:29 2023

Memory usage per processor = 958.989 Mbytes
    Step    Atoms         KinEng            CPU 
 8178962      296     0.48057135              0 
 8333282      291     0.42256816      1527.0904 
Loop time of 1527.09 on 40 procs for 154320 steps with 291 atoms, finish time Wed Jan  4 01:46:56 2023


Pair  time (%) = 0.296523 (0.0194175)
Neigh time (%) = 1.87418 (0.122729)
Comm  time (%) = 2.70489 (0.177127)
Outpt time (%) = 0.000540275 (3.53794e-05)
Other time (%) = 1522.21 (99.6807)

Nlocal:    7.275 ave 135 max 0 min
Histogram: 36 1 1 0 0 0 1 0 0 1
Nghost:    2.875 ave 38 max 0 min
Histogram: 36 0 0 0 1 0 1 1 0 1
Neighs:    0.525 ave 10 max 0 min
Histogram: 37 0 0 1 0 0 0 0 1 1

Total # of neighbors = 21
Ave neighs/atom = 0.0721649
Neighbor list builds = 5687
Dangerous builds = 432
Setting up run at Wed Jan  4 01:46:56 2023

Memory usage per processor = 958.989 Mbytes
    Step    Atoms         KinEng            CPU 
 8333282      291     0.42256816              0 
 8487602      289     0.49555844      1512.9525 
Loop time of 1512.95 on 40 procs for 154320 steps with 289 atoms, finish time Wed Jan  4 02:12:09 2023


Pair  time (%) = 0.296065 (0.0195687)
Neigh time (%) = 1.95072 (0.128934)
Comm  time (%) = 3.4537 (0.228276)
Outpt time (%) = 0.000589372 (3.89551e-05)
Other time (%) = 1507.25 (99.6232)

Nlocal:    7.225 ave 137 max 0 min
Histogram: 36 2 0 0 0 0 1 0 0 1
Nghost:    2.675 ave 33 max 0 min
Histogram: 36 0 0 0 1 0 0 1 0 2
Neighs:    0.5 ave 8 max 0 min
Histogram: 36 1 0 1 0 0 0 0 0 2

Total # of neighbors = 20
Ave neighs/atom = 0.0692042
Neighbor list builds = 5824
Dangerous builds = 49
Setting up run at Wed Jan  4 02:12:09 2023

Memory usage per processor = 958.989 Mbytes
    Step    Atoms         KinEng            CPU 
 8487602      289     0.49555844              0 
 8641922      285     0.64923535      1529.0516 
Loop time of 1529.05 on 40 procs for 154320 steps with 285 atoms, finish time Wed Jan  4 02:37:38 2023


Pair  time (%) = 0.299044 (0.0195575)
Neigh time (%) = 2.53574 (0.165837)
Comm  time (%) = 4.5098 (0.294941)
Outpt time (%) = 0.000558 (3.64932e-05)
Other time (%) = 1521.71 (99.5196)

Nlocal:    7.125 ave 136 max 0 min
Histogram: 36 2 0 0 0 1 0 0 0 1
Nghost:    2.625 ave 32 max 0 min
Histogram: 36 0 0 0 0 1 1 0 1 1
Neighs:    0.4 ave 8 max 0 min
Histogram: 36 1 1 0 0 0 1 0 0 1

Total # of neighbors = 16
Ave neighs/atom = 0.0561404
Neighbor list builds = 7676
Dangerous builds = 329
Setting up run at Wed Jan  4 02:37:38 2023

Memory usage per processor = 958.989 Mbytes
    Step    Atoms         KinEng            CPU 
 8641922      285     0.64923535              0 
 8796242      282     0.63607851       1514.438 
Loop time of 1514.44 on 40 procs for 154320 steps with 282 atoms, finish time Wed Jan  4 03:02:53 2023


Pair  time (%) = 0.29445 (0.0194429)
Neigh time (%) = 1.70388 (0.112509)
Comm  time (%) = 3.5555 (0.234773)
Outpt time (%) = 0.000597033 (3.94227e-05)
Other time (%) = 1508.88 (99.6332)

Nlocal:    7.05 ave 135 max 0 min
Histogram: 36 2 0 0 0 1 0 0 0 1
Nghost:    2.7 ave 35 max 0 min
Histogram: 36 0 0 0 1 0 1 0 1 1
Neighs:    0.35 ave 9 max 0 min
Histogram: 38 0 0 0 0 1 0 0 0 1

Total # of neighbors = 14
Ave neighs/atom = 0.0496454
Neighbor list builds = 5062
Dangerous builds = 1
Setting up run at Wed Jan  4 03:02:53 2023

Memory usage per processor = 958.989 Mbytes
    Step    Atoms         KinEng            CPU 
 8796242      282     0.63607851              0 
 8950562      282     0.57150751      1513.0817 
Loop time of 1513.08 on 40 procs for 154320 steps with 282 atoms, finish time Wed Jan  4 03:28:06 2023


Pair  time (%) = 0.295373 (0.0195213)
Neigh time (%) = 1.56823 (0.103645)
Comm  time (%) = 3.38285 (0.223573)
Outpt time (%) = 0.000554568 (3.66516e-05)
Other time (%) = 1507.83 (99.6532)

Nlocal:    7.05 ave 138 max 0 min
Histogram: 36 2 0 0 0 1 0 0 0 1
Nghost:    2.75 ave 40 max 0 min
Histogram: 36 0 0 0 1 1 0 1 0 1
Neighs:    0.475 ave 14 max 0 min
Histogram: 38 0 1 0 0 0 0 0 0 1

Total # of neighbors = 19
Ave neighs/atom = 0.0673759
Neighbor list builds = 4657
Dangerous builds = 0
Setting up run at Wed Jan  4 03:28:06 2023

Memory usage per processor = 958.989 Mbytes
    Step    Atoms         KinEng            CPU 
 8950562      282     0.57150751              0 
 9104882      280     0.52516792      1521.3271 
Loop time of 1521.33 on 40 procs for 154320 steps with 280 atoms, finish time Wed Jan  4 03:53:27 2023


Pair  time (%) = 0.302942 (0.019913)
Neigh time (%) = 1.86972 (0.122901)
Comm  time (%) = 4.6829 (0.307817)
Outpt time (%) = 0.000479072 (3.14904e-05)
Other time (%) = 1514.47 (99.5493)

Nlocal:    7 ave 137 max 0 min
Histogram: 36 1 1 0 0 1 0 0 0 1
Nghost:    2.75 ave 37 max 0 min
Histogram: 36 0 0 1 0 0 1 0 1 1
Neighs:    0.475 ave 11 max 0 min
Histogram: 38 0 0 0 0 1 0 0 0 1

Total # of neighbors = 19
Ave neighs/atom = 0.0678571
Neighbor list builds = 5705
Dangerous builds = 0
Setting up run at Wed Jan  4 03:53:28 2023

Memory usage per processor = 958.989 Mbytes
    Step    Atoms         KinEng            CPU 
 9104882      280     0.52516792              0 
 9259202      275     0.66554908      1528.8864 
Loop time of 1528.89 on 40 procs for 154320 steps with 275 atoms, finish time Wed Jan  4 04:18:56 2023


Pair  time (%) = 0.303333 (0.0198401)
Neigh time (%) = 2.26021 (0.147834)
Comm  time (%) = 4.37816 (0.286363)
Outpt time (%) = 0.000516785 (3.38014e-05)
Other time (%) = 1521.94 (99.5459)

Nlocal:    6.875 ave 134 max 0 min
Histogram: 36 2 0 0 0 1 0 0 0 1
Nghost:    2.7 ave 38 max 0 min
Histogram: 36 0 0 1 0 0 1 1 0 1
Neighs:    0.375 ave 10 max 0 min
Histogram: 36 2 0 1 0 0 0 0 0 1

Total # of neighbors = 15
Ave neighs/atom = 0.0545455
Neighbor list builds = 6887
Dangerous builds = 501
Setting up run at Wed Jan  4 04:18:57 2023

Memory usage per processor = 958.989 Mbytes
    Step    Atoms         KinEng            CPU 
 9259202      275     0.66554908              0 
 9413522      273      1.1720814      1533.2612 
Loop time of 1533.26 on 40 procs for 154320 steps with 273 atoms, finish time Wed Jan  4 04:44:30 2023


Pair  time (%) = 0.299708 (0.0195471)
Neigh time (%) = 2.07019 (0.135019)
Comm  time (%) = 3.05779 (0.19943)
Outpt time (%) = 0.000471533 (3.07536e-05)
Other time (%) = 1527.83 (99.646)

Nlocal:    6.825 ave 128 max 0 min
Histogram: 36 2 0 0 0 1 0 0 0 1
Nghost:    2.875 ave 43 max 0 min
Histogram: 36 0 1 0 0 1 0 1 0 1
Neighs:    0.325 ave 8 max 0 min
Histogram: 37 1 0 0 0 1 0 0 0 1

Total # of neighbors = 13
Ave neighs/atom = 0.047619
Neighbor list builds = 6210
Dangerous builds = 2
Setting up run at Wed Jan  4 04:44:30 2023

Memory usage per processor = 958.989 Mbytes
    Step    Atoms         KinEng            CPU 
 9413522      273      1.1720814              0 
 9567842      269     0.55005972      1525.7264 
Loop time of 1525.74 on 40 procs for 154320 steps with 269 atoms, finish time Wed Jan  4 05:09:56 2023


Pair  time (%) = 0.298332 (0.0195533)
Neigh time (%) = 1.98399 (0.130035)
Comm  time (%) = 3.43756 (0.225304)
Outpt time (%) = 0.000546588 (3.58245e-05)
Other time (%) = 1520.02 (99.6251)

Nlocal:    6.725 ave 120 max 0 min
Histogram: 36 2 0 0 0 0 1 0 0 1
Nghost:    2.725 ave 37 max 0 min
Histogram: 36 0 1 0 0 1 0 0 0 2
Neighs:    0.375 ave 11 max 0 min
Histogram: 38 0 1 0 0 0 0 0 0 1

Total # of neighbors = 15
Ave neighs/atom = 0.0557621
Neighbor list builds = 6007
Dangerous builds = 67
Setting up run at Wed Jan  4 05:09:56 2023

Memory usage per processor = 958.989 Mbytes
    Step    Atoms         KinEng            CPU 
 9567842      269     0.55005972              0 
 9722162      263     0.59097002      1546.7916 
Loop time of 1546.79 on 40 procs for 154320 steps with 263 atoms, finish time Wed Jan  4 05:35:43 2023


Pair  time (%) = 0.302979 (0.0195876)
Neigh time (%) = 2.8694 (0.185506)
Comm  time (%) = 5.43649 (0.351469)
Outpt time (%) = 0.000508094 (3.28482e-05)
Other time (%) = 1538.18 (99.4434)

Nlocal:    6.575 ave 115 max 0 min
Histogram: 36 2 0 0 0 0 0 1 0 1
Nghost:    2.7 ave 36 max 0 min
Histogram: 36 0 0 0 1 1 0 0 0 2
Neighs:    0.35 ave 9 max 0 min
Histogram: 37 1 0 0 1 0 0 0 0 1

Total # of neighbors = 14
Ave neighs/atom = 0.0532319
Neighbor list builds = 8972
Dangerous builds = 327
Setting up run at Wed Jan  4 05:35:43 2023

Memory usage per processor = 958.989 Mbytes
    Step    Atoms         KinEng            CPU 
 9722162      263     0.59097002              0 
 9876482      258     0.62144576      1552.3076 
Loop time of 1552.31 on 40 procs for 154320 steps with 258 atoms, finish time Wed Jan  4 06:01:35 2023


Pair  time (%) = 0.304262 (0.0196006)
Neigh time (%) = 2.94719 (0.189858)
Comm  time (%) = 5.33471 (0.343663)
Outpt time (%) = 0.000487493 (3.14044e-05)
Other time (%) = 1543.72 (99.4468)

Nlocal:    6.45 ave 114 max 0 min
Histogram: 36 2 0 0 0 0 0 1 0 1
Nghost:    2.825 ave 36 max 0 min
Histogram: 36 0 0 0 1 0 1 0 0 2
Neighs:    0.275 ave 6 max 0 min
Histogram: 38 0 0 0 0 0 0 0 1 1

Total # of neighbors = 11
Ave neighs/atom = 0.0426357
Neighbor list builds = 8949
Dangerous builds = 30
Setting up run at Wed Jan  4 06:01:35 2023

Memory usage per processor = 958.989 Mbytes
    Step    Atoms         KinEng            CPU 
 9876482      258     0.62144576              0 
10030802      256     0.38038753      1527.0565 
Loop time of 1527.06 on 40 procs for 154320 steps with 256 atoms, finish time Wed Jan  4 06:27:02 2023


Pair  time (%) = 0.298505 (0.0195478)
Neigh time (%) = 1.90223 (0.124569)
Comm  time (%) = 2.84489 (0.186299)
Outpt time (%) = 0.000471485 (3.08754e-05)
Other time (%) = 1522.01 (99.6696)

Nlocal:    6.4 ave 111 max 0 min
Histogram: 36 2 0 0 0 0 0 1 0 1
Nghost:    2.75 ave 38 max 0 min
Histogram: 36 0 0 1 0 0 1 0 1 1
Neighs:    0.35 ave 7 max 0 min
Histogram: 37 1 0 0 0 0 0 0 1 1

Total # of neighbors = 14
Ave neighs/atom = 0.0546875
Neighbor list builds = 5747
Dangerous builds = 1
Setting up run at Wed Jan  4 06:27:02 2023

Memory usage per processor = 958.989 Mbytes
    Step    Atoms         KinEng            CPU 
10030802      256     0.38038753              0 
10185122      253     0.54916247      1527.3062 
Loop time of 1527.31 on 40 procs for 154320 steps with 253 atoms, finish time Wed Jan  4 06:52:29 2023


Pair  time (%) = 0.296168 (0.0193915)
Neigh time (%) = 2.22238 (0.14551)
Comm  time (%) = 3.3831 (0.221507)
Outpt time (%) = 0.000629077 (4.11887e-05)
Other time (%) = 1521.4 (99.6136)

Nlocal:    6.325 ave 105 max 0 min
Histogram: 36 1 1 0 0 0 0 1 0 1
Nghost:    3 ave 42 max 0 min
Histogram: 36 0 0 1 0 1 0 0 1 1
Neighs:    0.325 ave 7 max 0 min
Histogram: 37 1 0 0 0 0 0 1 0 1

Total # of neighbors = 13
Ave neighs/atom = 0.0513834
Neighbor list builds = 6630
Dangerous builds = 1
Setting up run at Wed Jan  4 06:52:30 2023

Memory usage per processor = 958.989 Mbytes
    Step    Atoms         KinEng            CPU 
10185122      253     0.54916247              0 
10339442      251     0.36327656      1527.1366 
Loop time of 1527.14 on 40 procs for 154320 steps with 251 atoms, finish time Wed Jan  4 07:17:57 2023


Pair  time (%) = 0.295911 (0.0193769)
Neigh time (%) = 1.87675 (0.122893)
Comm  time (%) = 2.60019 (0.170266)
Outpt time (%) = 0.000296013 (1.93835e-05)
Other time (%) = 1522.36 (99.6874)

Nlocal:    6.275 ave 102 max 0 min
Histogram: 36 1 1 0 0 0 0 0 1 1
Nghost:    2.75 ave 41 max 0 min
Histogram: 36 0 0 1 0 1 0 1 0 1
Neighs:    0.25 ave 7 max 0 min
Histogram: 37 1 1 0 0 0 0 0 0 1

Total # of neighbors = 10
Ave neighs/atom = 0.0398406
Neighbor list builds = 5556
Dangerous builds = 2
Setting up run at Wed Jan  4 07:17:57 2023

Memory usage per processor = 958.989 Mbytes
    Step    Atoms         KinEng            CPU 
10339442      251     0.36327656              0 
10493762      245     0.21717959      1525.7647 
Loop time of 1525.76 on 40 procs for 154320 steps with 245 atoms, finish time Wed Jan  4 07:43:23 2023


Pair  time (%) = 0.296008 (0.0194006)
Neigh time (%) = 1.77735 (0.116489)
Comm  time (%) = 2.38636 (0.156404)
Outpt time (%) = 0.000763138 (5.00168e-05)
Other time (%) = 1521.3 (99.7077)

Nlocal:    6.125 ave 100 max 0 min
Histogram: 36 1 1 0 0 0 0 0 1 1
Nghost:    2.725 ave 38 max 0 min
Histogram: 36 0 0 1 0 1 0 0 0 2
Neighs:    0.275 ave 7 max 0 min
Histogram: 37 1 0 0 1 0 0 0 0 1

Total # of neighbors = 11
Ave neighs/atom = 0.044898
Neighbor list builds = 5308
Dangerous builds = 132
Setting up run at Wed Jan  4 07:43:23 2023

Memory usage per processor = 958.989 Mbytes
    Step    Atoms         KinEng            CPU 
10493762      245     0.21717959              0 
10648082      242     0.21652968      1520.2172 
Loop time of 1520.22 on 40 procs for 154320 steps with 242 atoms, finish time Wed Jan  4 08:08:43 2023


Pair  time (%) = 0.290511 (0.0191098)
Neigh time (%) = 1.47063 (0.0967382)
Comm  time (%) = 3.13042 (0.205919)
Outpt time (%) = 0.000299121 (1.96762e-05)
Other time (%) = 1515.33 (99.6782)

Nlocal:    6.05 ave 99 max 0 min
Histogram: 36 1 1 0 0 0 0 0 1 1
Nghost:    2.675 ave 36 max 0 min
Histogram: 36 0 0 1 0 1 0 0 0 2
Neighs:    0.25 ave 6 max 0 min
Histogram: 38 0 0 0 0 0 1 0 0 1

Total # of neighbors = 10
Ave neighs/atom = 0.0413223
Neighbor list builds = 4344
Dangerous builds = 3
Setting up run at Wed Jan  4 08:08:43 2023

Memory usage per processor = 958.989 Mbytes
    Step    Atoms         KinEng            CPU 
10648082      242     0.21652968              0 
10802402      241     0.28191112      1532.9157 
Loop time of 1532.92 on 40 procs for 154320 steps with 241 atoms, finish time Wed Jan  4 08:34:16 2023


Pair  time (%) = 0.293965 (0.0191769)
Neigh time (%) = 2.09081 (0.136395)
Comm  time (%) = 4.00208 (0.261076)
Outpt time (%) = 0.000278117 (1.8143e-05)
Other time (%) = 1526.53 (99.5833)

Nlocal:    6.025 ave 95 max 0 min
Histogram: 36 1 1 0 0 0 0 0 1 1
Nghost:    2.575 ave 38 max 0 min
Histogram: 36 0 0 1 1 0 0 0 1 1
Neighs:    0.35 ave 7 max 0 min
Histogram: 37 1 0 0 0 0 0 0 1 1

Total # of neighbors = 14
Ave neighs/atom = 0.0580913
Neighbor list builds = 6181
Dangerous builds = 1
Setting up run at Wed Jan  4 08:34:16 2023

Memory usage per processor = 958.989 Mbytes
    Step    Atoms         KinEng            CPU 
10802402      241     0.28191112              0 
10956722      239     0.14689871      1518.8634 
Loop time of 1518.86 on 40 procs for 154320 steps with 239 atoms, finish time Wed Jan  4 08:59:35 2023


Pair  time (%) = 0.292772 (0.0192758)
Neigh time (%) = 1.90115 (0.125169)
Comm  time (%) = 3.39078 (0.223244)
Outpt time (%) = 0.000535297 (3.52433e-05)
Other time (%) = 1513.28 (99.6323)

Nlocal:    5.975 ave 90 max 0 min
Histogram: 36 1 1 0 0 0 0 0 0 2
Nghost:    2.425 ave 36 max 0 min
Histogram: 36 0 0 0 2 0 0 1 0 1
Neighs:    0.525 ave 10 max 0 min
Histogram: 36 0 2 0 0 0 0 1 0 1

Total # of neighbors = 21
Ave neighs/atom = 0.0878661
Neighbor list builds = 5697
Dangerous builds = 229
Setting up run at Wed Jan  4 08:59:35 2023

Memory usage per processor = 958.989 Mbytes
    Step    Atoms         KinEng            CPU 
10956722      239     0.14689871              0 
11111042      231      0.1948838      1538.3039 
Loop time of 1538.3 on 40 procs for 154320 steps with 231 atoms, finish time Wed Jan  4 09:25:13 2023


Pair  time (%) = 0.294246 (0.0191279)
Neigh time (%) = 2.04262 (0.132784)
Comm  time (%) = 2.59283 (0.168551)
Outpt time (%) = 0.000282186 (1.83439e-05)
Other time (%) = 1533.37 (99.6795)

Nlocal:    5.775 ave 91 max 0 min
Histogram: 36 1 1 0 0 0 0 0 0 2
Nghost:    2.425 ave 31 max 0 min
Histogram: 36 0 0 0 1 1 0 0 0 2
Neighs:    0.375 ave 7 max 0 min
Histogram: 37 0 1 0 0 0 0 0 1 1

Total # of neighbors = 15
Ave neighs/atom = 0.0649351
Neighbor list builds = 6228
Dangerous builds = 610
Setting up run at Wed Jan  4 09:25:13 2023

Memory usage per processor = 958.989 Mbytes
    Step    Atoms         KinEng            CPU 
11111042      231      0.1948838              0 
11265362      227     0.09367728      1573.1021 
Loop time of 1573.1 on 40 procs for 154320 steps with 227 atoms, finish time Wed Jan  4 09:51:26 2023


Pair  time (%) = 0.293568 (0.0186617)
Neigh time (%) = 1.69149 (0.107526)
Comm  time (%) = 2.62577 (0.166917)
Outpt time (%) = 0.000578351 (3.6765e-05)
Other time (%) = 1568.49 (99.7069)

Nlocal:    5.675 ave 91 max 0 min
Histogram: 36 1 1 0 0 0 0 0 1 1
Nghost:    2.4 ave 34 max 0 min
Histogram: 36 0 0 1 0 1 0 0 0 2
Neighs:    0.35 ave 6 max 0 min
Histogram: 36 2 0 0 0 0 0 0 0 2

Total # of neighbors = 14
Ave neighs/atom = 0.061674
Neighbor list builds = 4985
Dangerous builds = 0
Setting up run at Wed Jan  4 09:51:26 2023

Memory usage per processor = 958.989 Mbytes
    Step    Atoms         KinEng            CPU 
11265362      227     0.09367728              0 
11419682      227     0.13162511      1598.7504 
Loop time of 1598.75 on 40 procs for 154320 steps with 227 atoms, finish time Wed Jan  4 10:18:05 2023


Pair  time (%) = 0.29424 (0.0184044)
Neigh time (%) = 2.46291 (0.154052)
Comm  time (%) = 3.80614 (0.23807)
Outpt time (%) = 0.000270802 (1.69383e-05)
Other time (%) = 1592.19 (99.5895)

Nlocal:    5.675 ave 91 max 0 min
Histogram: 36 1 1 0 0 0 0 0 1 1
Nghost:    2.325 ave 32 max 0 min
Histogram: 36 0 0 1 0 1 0 0 0 2
Neighs:    0.35 ave 6 max 0 min
Histogram: 37 0 0 1 0 0 0 0 0 2

Total # of neighbors = 14
Ave neighs/atom = 0.061674
Neighbor list builds = 7276
Dangerous builds = 0
Setting up run at Wed Jan  4 10:18:05 2023

Memory usage per processor = 958.989 Mbytes
    Step    Atoms         KinEng            CPU 
11419682      227     0.13162511              0 
11574002      226     0.24320379      1574.2765 
Loop time of 1574.28 on 40 procs for 154320 steps with 226 atoms, finish time Wed Jan  4 10:44:19 2023


Pair  time (%) = 0.290265 (0.018438)
Neigh time (%) = 2.11167 (0.134136)
Comm  time (%) = 5.16262 (0.327936)
Outpt time (%) = 0.000233727 (1.48467e-05)
Other time (%) = 1566.71 (99.5195)

Nlocal:    5.65 ave 91 max 0 min
Histogram: 36 1 1 0 0 0 0 0 1 1
Nghost:    2.325 ave 31 max 0 min
Histogram: 36 0 0 1 0 1 0 0 0 2
Neighs:    0.35 ave 7 max 0 min
Histogram: 37 1 0 0 0 0 0 0 1 1

Total # of neighbors = 14
Ave neighs/atom = 0.0619469
Neighbor list builds = 6340
Dangerous builds = 296
Setting up run at Wed Jan  4 10:44:19 2023

Memory usage per processor = 958.989 Mbytes
    Step    Atoms         KinEng            CPU 
11574002      226     0.24320379              0 
11728322      224     0.90193173      1569.6262 
Loop time of 1569.63 on 40 procs for 154320 steps with 224 atoms, finish time Wed Jan  4 11:10:29 2023


Pair  time (%) = 0.293123 (0.0186747)
Neigh time (%) = 2.17438 (0.138529)
Comm  time (%) = 4.91808 (0.313328)
Outpt time (%) = 0.000514501 (3.27786e-05)
Other time (%) = 1562.24 (99.5294)

Nlocal:    5.6 ave 93 max 0 min
Histogram: 36 1 1 0 0 0 0 0 1 1
Nghost:    2.175 ave 32 max 0 min
Histogram: 36 0 0 1 0 1 0 1 0 1
Neighs:    0.3 ave 8 max 0 min
Histogram: 37 1 0 1 0 0 0 0 0 1

Total # of neighbors = 12
Ave neighs/atom = 0.0535714
Neighbor list builds = 6517
Dangerous builds = 314
Setting up run at Wed Jan  4 11:10:29 2023

Memory usage per processor = 958.989 Mbytes
    Step    Atoms         KinEng            CPU 
11728322      224     0.90193173              0 
11882642      222      1.3210441      1535.7448 
Loop time of 1535.76 on 40 procs for 154320 steps with 222 atoms, finish time Wed Jan  4 11:36:05 2023


Pair  time (%) = 0.29409 (0.0191495)
Neigh time (%) = 1.6506 (0.107478)
Comm  time (%) = 3.64702 (0.237474)
Outpt time (%) = 0.000251017 (1.63448e-05)
Other time (%) = 1530.16 (99.6359)

Nlocal:    5.55 ave 87 max 0 min
Histogram: 36 1 1 0 0 0 0 0 0 2
Nghost:    2.3 ave 32 max 0 min
Histogram: 36 0 0 1 0 1 0 0 1 1
Neighs:    0.3 ave 5 max 0 min
Histogram: 36 0 2 0 0 0 0 0 0 2

Total # of neighbors = 12
Ave neighs/atom = 0.0540541
Neighbor list builds = 4866
Dangerous builds = 0
Setting up run at Wed Jan  4 11:36:05 2023

Memory usage per processor = 958.989 Mbytes
    Step    Atoms         KinEng            CPU 
11882642      222      1.3210441              0 
12036962      218     0.11007147      1570.0072 
Loop time of 1570.01 on 40 procs for 154320 steps with 218 atoms, finish time Wed Jan  4 12:02:15 2023


Pair  time (%) = 0.292059 (0.0186024)
Neigh time (%) = 1.73716 (0.110647)
Comm  time (%) = 2.95433 (0.188173)
Outpt time (%) = 0.000513387 (3.26997e-05)
Other time (%) = 1565.02 (99.6825)

Nlocal:    5.45 ave 85 max 0 min
Histogram: 36 0 2 0 0 0 0 0 0 2
Nghost:    2.35 ave 33 max 0 min
Histogram: 36 0 0 1 0 1 0 0 0 2
Neighs:    0.25 ave 6 max 0 min
Histogram: 37 1 0 0 0 1 0 0 0 1

Total # of neighbors = 10
Ave neighs/atom = 0.0458716
Neighbor list builds = 5244
Dangerous builds = 355
Setting up run at Wed Jan  4 12:02:15 2023

Memory usage per processor = 958.989 Mbytes
    Step    Atoms         KinEng            CPU 
12036962      218     0.11007147              0 
12191282      216     0.59995915      1601.5078 
Loop time of 1601.51 on 40 procs for 154320 steps with 216 atoms, finish time Wed Jan  4 12:28:57 2023


Pair  time (%) = 0.286056 (0.0178617)
Neigh time (%) = 1.13215 (0.0706926)
Comm  time (%) = 1.7855 (0.111489)
Outpt time (%) = 0.00273668 (0.000170881)
Other time (%) = 1598.3 (99.7998)

Nlocal:    5.4 ave 86 max 0 min
Histogram: 36 1 1 0 0 0 0 0 1 1
Nghost:    2.325 ave 39 max 0 min
Histogram: 36 0 0 1 1 1 0 0 0 1
Neighs:    0.275 ave 7 max 0 min
Histogram: 37 1 0 0 1 0 0 0 0 1

Total # of neighbors = 11
Ave neighs/atom = 0.0509259
Neighbor list builds = 3342
Dangerous builds = 2
Setting up run at Wed Jan  4 12:28:57 2023

Memory usage per processor = 958.989 Mbytes
    Step    Atoms         KinEng            CPU 
12191282      216     0.59995915              0 
12345602      212      0.2163811      1560.8212 
Loop time of 1560.82 on 40 procs for 154320 steps with 212 atoms, finish time Wed Jan  4 12:54:58 2023


Pair  time (%) = 0.292307 (0.0187278)
Neigh time (%) = 2.24996 (0.144153)
Comm  time (%) = 3.05832 (0.195943)
Outpt time (%) = 0.000268429 (1.71979e-05)
Other time (%) = 1555.22 (99.6412)

Nlocal:    5.3 ave 81 max 0 min
Histogram: 36 0 2 0 0 0 0 0 0 2
Nghost:    2.3 ave 32 max 0 min
Histogram: 36 0 0 1 0 1 0 0 1 1
Neighs:    0.2 ave 5 max 0 min
Histogram: 38 0 0 0 0 0 1 0 0 1

Total # of neighbors = 8
Ave neighs/atom = 0.0377358
Neighbor list builds = 6653
Dangerous builds = 47
Setting up run at Wed Jan  4 12:54:58 2023

Memory usage per processor = 958.989 Mbytes
    Step    Atoms         KinEng            CPU 
12345602      212      0.2163811              0 
12499922      208     0.22451749      1600.4076 
Loop time of 1600.41 on 40 procs for 154320 steps with 208 atoms, finish time Wed Jan  4 13:21:38 2023


Pair  time (%) = 0.290213 (0.0181337)
Neigh time (%) = 1.84465 (0.115261)
Comm  time (%) = 3.38536 (0.211531)
Outpt time (%) = 0.00051469 (3.216e-05)
Other time (%) = 1594.89 (99.655)

Nlocal:    5.2 ave 82 max 0 min
Histogram: 36 2 0 0 0 0 0 0 0 2
Nghost:    2.35 ave 35 max 0 min
Histogram: 36 0 0 1 0 0 1 1 0 1
Neighs:    0.175 ave 4 max 0 min
Histogram: 38 0 0 0 0 0 0 1 0 1

Total # of neighbors = 7
Ave neighs/atom = 0.0336538
Neighbor list builds = 5467
Dangerous builds = 3
Setting up run at Wed Jan  4 13:21:38 2023

Memory usage per processor = 958.989 Mbytes
    Step    Atoms         KinEng            CPU 
12499922      208     0.22451749              0 
12654242      206     0.20648903      1580.8017 
Loop time of 1580.8 on 40 procs for 154320 steps with 206 atoms, finish time Wed Jan  4 13:47:59 2023


Pair  time (%) = 0.287789 (0.0182053)
Neigh time (%) = 1.59513 (0.100906)
Comm  time (%) = 3.02564 (0.191399)
Outpt time (%) = 0.000185871 (1.1758e-05)
Other time (%) = 1575.89 (99.6895)

Nlocal:    5.15 ave 82 max 0 min
Histogram: 36 2 0 0 0 0 0 0 0 2
Nghost:    2.125 ave 27 max 0 min
Histogram: 36 0 0 1 0 0 0 0 2 1
Neighs:    0.175 ave 4 max 0 min
Histogram: 37 0 1 0 0 1 0 0 0 1

Total # of neighbors = 7
Ave neighs/atom = 0.0339806
Neighbor list builds = 4719
Dangerous builds = 26
Setting up run at Wed Jan  4 13:47:59 2023

Memory usage per processor = 958.989 Mbytes
    Step    Atoms         KinEng            CPU 
12654242      206     0.20648903              0 
12808562      206     0.30785342       1596.924 
Loop time of 1596.92 on 40 procs for 154320 steps with 206 atoms, finish time Wed Jan  4 14:14:36 2023


Pair  time (%) = 0.289806 (0.0181478)
Neigh time (%) = 1.75966 (0.11019)
Comm  time (%) = 2.25542 (0.141235)
Outpt time (%) = 0.000550612 (3.44795e-05)
Other time (%) = 1592.62 (99.7304)

Nlocal:    5.15 ave 81 max 0 min
Histogram: 36 1 1 0 0 0 0 0 0 2
Nghost:    1.9 ave 25 max 0 min
Histogram: 36 0 0 0 1 0 0 0 2 1
Neighs:    0.125 ave 4 max 0 min
Histogram: 38 0 1 0 0 0 0 0 0 1

Total # of neighbors = 5
Ave neighs/atom = 0.0242718
Neighbor list builds = 5178
Dangerous builds = 0
Setting up run at Wed Jan  4 14:14:36 2023

Memory usage per processor = 958.989 Mbytes
    Step    Atoms         KinEng            CPU 
12808562      206     0.30785342              0 
12962882      206     0.44051471       1562.673 
Loop time of 1562.67 on 40 procs for 154320 steps with 206 atoms, finish time Wed Jan  4 14:40:39 2023


Pair  time (%) = 0.291133 (0.0186304)
Neigh time (%) = 1.93807 (0.124023)
Comm  time (%) = 3.33872 (0.213654)
Outpt time (%) = 0.000251832 (1.61154e-05)
Other time (%) = 1557.11 (99.6437)

Nlocal:    5.15 ave 80 max 0 min
Histogram: 36 1 1 0 0 0 0 0 0 2
Nghost:    2 ave 23 max 0 min
Histogram: 36 0 0 0 1 0 0 0 1 2
Neighs:    0.125 ave 2 max 0 min
Histogram: 37 0 0 0 0 1 0 0 0 2

Total # of neighbors = 5
Ave neighs/atom = 0.0242718
Neighbor list builds = 5702
Dangerous builds = 0
Setting up run at Wed Jan  4 14:40:39 2023

Memory usage per processor = 958.989 Mbytes
    Step    Atoms         KinEng            CPU 
12962882      206     0.44051471              0 
13117202      204     0.47833912      1599.2249 
Loop time of 1599.22 on 40 procs for 154320 steps with 204 atoms, finish time Wed Jan  4 15:07:18 2023


Pair  time (%) = 0.29863 (0.0186734)
Neigh time (%) = 3.07695 (0.192403)
Comm  time (%) = 4.6626 (0.291554)
Outpt time (%) = 0.000168257 (1.05212e-05)
Other time (%) = 1591.19 (99.4974)

Nlocal:    5.1 ave 77 max 0 min
Histogram: 36 0 2 0 0 0 0 0 0 2
Nghost:    1.925 ave 22 max 0 min
Histogram: 36 0 0 0 0 1 0 0 0 3
Neighs:    0.15 ave 3 max 0 min
Histogram: 37 0 0 1 0 0 1 0 0 1

Total # of neighbors = 6
Ave neighs/atom = 0.0294118
Neighbor list builds = 9048
Dangerous builds = 1
Setting up run at Wed Jan  4 15:07:18 2023

Memory usage per processor = 958.989 Mbytes
    Step    Atoms         KinEng            CPU 
13117202      204     0.47833912              0 
13271522      202     0.40579565      1578.1332 
Loop time of 1578.13 on 40 procs for 154320 steps with 202 atoms, finish time Wed Jan  4 15:33:36 2023


Pair  time (%) = 0.295456 (0.0187219)
Neigh time (%) = 3.16585 (0.200607)
Comm  time (%) = 4.76156 (0.301721)
Outpt time (%) = 0.000491653 (3.11541e-05)
Other time (%) = 1569.91 (99.4789)

Nlocal:    5.05 ave 76 max 0 min
Histogram: 36 1 1 0 0 0 0 0 0 2
Nghost:    1.9 ave 24 max 0 min
Histogram: 36 0 0 0 1 0 0 1 1 1
Neighs:    0.1 ave 3 max 0 min
Histogram: 38 0 0 1 0 0 0 0 0 1

Total # of neighbors = 4
Ave neighs/atom = 0.019802
Neighbor list builds = 9527
Dangerous builds = 529
Setting up run at Wed Jan  4 15:33:36 2023

Memory usage per processor = 958.989 Mbytes
    Step    Atoms         KinEng            CPU 
13271522      202     0.40579565              0 
13425842      199     0.13861124      1597.3505 
Loop time of 1597.35 on 40 procs for 154320 steps with 199 atoms, finish time Wed Jan  4 16:00:14 2023


Pair  time (%) = 0.294281 (0.0184231)
Neigh time (%) = 2.39745 (0.150089)
Comm  time (%) = 3.02665 (0.189479)
Outpt time (%) = 0.0003006 (1.88186e-05)
Other time (%) = 1591.63 (99.642)

Nlocal:    4.975 ave 75 max 0 min
Histogram: 36 0 2 0 0 0 0 0 0 2
Nghost:    1.875 ave 26 max 0 min
Histogram: 36 0 0 0 1 0 1 1 0 1
Neighs:    0.1 ave 2 max 0 min
Histogram: 38 0 0 0 0 0 0 0 0 2

Total # of neighbors = 4
Ave neighs/atom = 0.0201005
Neighbor list builds = 7168
Dangerous builds = 4
Setting up run at Wed Jan  4 16:00:14 2023

Memory usage per processor = 958.989 Mbytes
    Step    Atoms         KinEng            CPU 
13425842      199     0.13861124              0 
13580162      196     0.17903924      1667.2324 
Loop time of 1667.23 on 40 procs for 154320 steps with 196 atoms, finish time Wed Jan  4 16:28:01 2023


Pair  time (%) = 0.290826 (0.0174437)
Neigh time (%) = 1.93655 (0.116154)
Comm  time (%) = 2.27476 (0.136439)
Outpt time (%) = 0.000548744 (3.29135e-05)
Other time (%) = 1662.73 (99.7299)

Nlocal:    4.9 ave 77 max 0 min
Histogram: 36 0 2 0 0 0 0 0 1 1
Nghost:    1.95 ave 23 max 0 min
Histogram: 36 0 0 0 0 1 0 1 0 2
Neighs:    0.1 ave 2 max 0 min
Histogram: 38 0 0 0 0 0 0 0 0 2

Total # of neighbors = 4
Ave neighs/atom = 0.0204082
Neighbor list builds = 5834
Dangerous builds = 285
Setting up run at Wed Jan  4 16:28:01 2023

Memory usage per processor = 958.989 Mbytes
    Step    Atoms         KinEng            CPU 
13580162      196     0.17903924              0 
13734482      194     0.17145878      1545.7812 
Loop time of 1545.79 on 40 procs for 154320 steps with 194 atoms, finish time Wed Jan  4 16:53:47 2023


Pair  time (%) = 0.290302 (0.0187801)
Neigh time (%) = 1.76977 (0.11449)
Comm  time (%) = 2.66882 (0.17265)
Outpt time (%) = 0.00981119 (0.000634703)
Other time (%) = 1541.05 (99.6934)

Nlocal:    4.85 ave 77 max 0 min
Histogram: 36 1 1 0 0 0 0 0 1 1
Nghost:    1.875 ave 23 max 0 min
Histogram: 36 0 0 0 0 1 0 1 0 2
Neighs:    0.125 ave 3 max 0 min
Histogram: 38 0 0 0 0 0 1 0 0 1

Total # of neighbors = 5
Ave neighs/atom = 0.0257732
Neighbor list builds = 5218
Dangerous builds = 1
Setting up run at Wed Jan  4 16:53:47 2023

Memory usage per processor = 958.989 Mbytes
    Step    Atoms         KinEng            CPU 
13734482      194     0.17145878              0 
13888802      193     0.33401298      1555.9796 
Loop time of 1555.98 on 40 procs for 154320 steps with 193 atoms, finish time Wed Jan  4 17:19:43 2023


Pair  time (%) = 0.289869 (0.0186294)
Neigh time (%) = 1.59557 (0.102545)
Comm  time (%) = 2.54786 (0.163746)
Outpt time (%) = 0.000219395 (1.41001e-05)
Other time (%) = 1551.55 (99.7151)

Nlocal:    4.825 ave 76 max 0 min
Histogram: 36 1 1 0 0 0 0 0 1 1
Nghost:    1.85 ave 22 max 0 min
Histogram: 36 0 0 0 0 1 0 1 0 2
Neighs:    0.125 ave 4 max 0 min
Histogram: 38 0 1 0 0 0 0 0 0 1

Total # of neighbors = 5
Ave neighs/atom = 0.0259067
Neighbor list builds = 4817
Dangerous builds = 448
Setting up run at Wed Jan  4 17:19:43 2023

Memory usage per processor = 958.989 Mbytes
    Step    Atoms         KinEng            CPU 
13888802      193     0.33401298              0 
14043122      193     0.31552148      1532.7871 
Loop time of 1532.79 on 40 procs for 154320 steps with 193 atoms, finish time Wed Jan  4 17:45:16 2023


Pair  time (%) = 0.293864 (0.0191719)
Neigh time (%) = 2.4435 (0.159415)
Comm  time (%) = 3.4671 (0.226196)
Outpt time (%) = 0.000523942 (3.41823e-05)
Other time (%) = 1526.58 (99.5952)

Nlocal:    4.825 ave 75 max 0 min
Histogram: 36 1 1 0 0 0 0 0 1 1
Nghost:    1.775 ave 21 max 0 min
Histogram: 36 0 0 0 0 0 2 0 0 2
Neighs:    0.1 ave 2 max 0 min
Histogram: 38 0 0 0 0 0 0 0 0 2

Total # of neighbors = 4
Ave neighs/atom = 0.0207254
Neighbor list builds = 7157
Dangerous builds = 0
Setting up run at Wed Jan  4 17:45:16 2023

Memory usage per processor = 958.989 Mbytes
[...]
Other time (%) = 1503.07 (99.7744)

Nlocal:    1.875 ave 33 max 0 min
Histogram: 36 1 1 0 0 0 0 1 0 1
Nghost:    0.7 ave 13 max 0 min
Histogram: 35 2 0 1 1 0 0 0 0 1
Neighs:    0 ave 0 max 0 min
Histogram: 40 0 0 0 0 0 0 0 0 0

Total # of neighbors = 0
Ave neighs/atom = 0
Neighbor list builds = 3251
Dangerous builds = 0
Setting up run at Fri Jan  6 06:27:39 2023

Memory usage per processor = 958.989 Mbytes
    Step    Atoms         KinEng            CPU 
27314739       75    0.099716556              0 
27469059       75    0.099628125         1505.4 
Loop time of 1505.4 on 40 procs for 154320 steps with 75 atoms, finish time Fri Jan  6 06:52:44 2023


Pair  time (%) = 0.276646 (0.0183769)
Neigh time (%) = 1.11351 (0.0739679)
Comm  time (%) = 1.39197 (0.0924649)
Outpt time (%) = 0.000261201 (1.73509e-05)
Other time (%) = 1502.62 (99.8152)

Nlocal:    1.875 ave 35 max 0 min
Histogram: 36 2 0 0 0 0 1 0 0 1
Nghost:    0.65 ave 12 max 0 min
Histogram: 37 0 0 0 0 2 0 0 0 1
Neighs:    0.025 ave 1 max 0 min
Histogram: 39 0 0 0 0 0 0 0 0 1

Total # of neighbors = 1
Ave neighs/atom = 0.0133333
Neighbor list builds = 3245
Dangerous builds = 0
Setting up run at Fri Jan  6 06:52:44 2023

Memory usage per processor = 958.989 Mbytes
    Step    Atoms         KinEng            CPU 
27469059       75    0.099628125              0 
27623379       75     0.11705999       1504.871 
Loop time of 1504.87 on 40 procs for 154320 steps with 75 atoms, finish time Fri Jan  6 07:17:49 2023


Pair  time (%) = 0.273687 (0.0181867)
Neigh time (%) = 1.11582 (0.0741473)
Comm  time (%) = 1.61385 (0.107242)
Outpt time (%) = 0.000491264 (3.26449e-05)
Other time (%) = 1501.87 (99.8004)

Nlocal:    1.875 ave 33 max 0 min
Histogram: 37 0 1 0 0 0 0 1 0 1
Nghost:    0.575 ave 9 max 0 min
Histogram: 34 3 0 0 1 0 0 1 0 1
Neighs:    0 ave 0 max 0 min
Histogram: 40 0 0 0 0 0 0 0 0 0

Total # of neighbors = 0
Ave neighs/atom = 0
Neighbor list builds = 3243
Dangerous builds = 0
Setting up run at Fri Jan  6 07:17:49 2023

Memory usage per processor = 958.989 Mbytes
    Step    Atoms         KinEng            CPU 
27623379       75     0.11705999              0 
27777699       75     0.11724142      1507.6921 
Loop time of 1507.69 on 40 procs for 154320 steps with 75 atoms, finish time Fri Jan  6 07:42:57 2023


Pair  time (%) = 0.276654 (0.0183495)
Neigh time (%) = 1.18575 (0.0786464)
Comm  time (%) = 1.34994 (0.0895369)
Outpt time (%) = 0.000236314 (1.56739e-05)
Other time (%) = 1504.88 (99.8135)

Nlocal:    1.875 ave 33 max 0 min
Histogram: 37 0 1 0 0 0 0 1 0 1
Nghost:    0.55 ave 8 max 0 min
Histogram: 35 1 1 1 0 0 0 0 0 2
Neighs:    0 ave 0 max 0 min
Histogram: 40 0 0 0 0 0 0 0 0 0

Total # of neighbors = 0
Ave neighs/atom = 0
Neighbor list builds = 3447
Dangerous builds = 0
Setting up run at Fri Jan  6 07:42:57 2023

Memory usage per processor = 958.989 Mbytes
    Step    Atoms         KinEng            CPU 
27777699       75     0.11724142              0 
27932019       74      0.0988838      1514.5093 
Loop time of 1514.51 on 40 procs for 154320 steps with 74 atoms, finish time Fri Jan  6 08:08:12 2023


Pair  time (%) = 0.277988 (0.018355)
Neigh time (%) = 1.29346 (0.0854044)
Comm  time (%) = 1.98977 (0.13138)
Outpt time (%) = 0.000546499 (3.60842e-05)
Other time (%) = 1510.95 (99.7648)

Nlocal:    1.85 ave 32 max 0 min
Histogram: 37 0 1 0 0 0 0 1 0 1
Nghost:    0.525 ave 8 max 0 min
Histogram: 34 3 0 1 0 0 0 0 1 1
Neighs:    0.025 ave 1 max 0 min
Histogram: 39 0 0 0 0 0 0 0 0 1

Total # of neighbors = 1
Ave neighs/atom = 0.0135135
Neighbor list builds = 3771
Dangerous builds = 1
Setting up run at Fri Jan  6 08:08:12 2023

Memory usage per processor = 958.989 Mbytes
    Step    Atoms         KinEng            CPU 
27932019       74      0.0988838              0 
28086339       74    0.099028626      1501.7623 
Loop time of 1501.76 on 40 procs for 154320 steps with 74 atoms, finish time Fri Jan  6 08:33:13 2023


Pair  time (%) = 0.275418 (0.0183396)
Neigh time (%) = 1.11243 (0.0740752)
Comm  time (%) = 2.23316 (0.148703)
Outpt time (%) = 0.000254779 (1.69653e-05)
Other time (%) = 1498.14 (99.7589)

Nlocal:    1.85 ave 31 max 0 min
Histogram: 36 2 0 0 0 0 0 0 1 1
Nghost:    0.625 ave 9 max 0 min
Histogram: 33 3 0 2 0 0 0 1 0 1
Neighs:    0.075 ave 3 max 0 min
Histogram: 39 0 0 0 0 0 0 0 0 1

Total # of neighbors = 3
Ave neighs/atom = 0.0405405
Neighbor list builds = 3238
Dangerous builds = 0
Setting up run at Fri Jan  6 08:33:13 2023

Memory usage per processor = 958.989 Mbytes
    Step    Atoms         KinEng            CPU 
28086339       74    0.099028626              0 
28240659       74     0.09877254      1503.7232 
Loop time of 1503.72 on 40 procs for 154320 steps with 74 atoms, finish time Fri Jan  6 08:58:17 2023


Pair  time (%) = 0.274357 (0.0182452)
Neigh time (%) = 1.11496 (0.0741464)
Comm  time (%) = 2.23117 (0.148376)
Outpt time (%) = 0.00018751 (1.24697e-05)
Other time (%) = 1500.1 (99.7592)

Nlocal:    1.85 ave 32 max 0 min
Histogram: 37 0 1 0 0 0 0 1 0 1
Nghost:    0.625 ave 10 max 0 min
Histogram: 35 1 1 1 0 0 0 0 0 2
Neighs:    0.05 ave 2 max 0 min
Histogram: 39 0 0 0 0 0 0 0 0 1

Total # of neighbors = 2
Ave neighs/atom = 0.027027
Neighbor list builds = 3238
Dangerous builds = 0
Setting up run at Fri Jan  6 08:58:17 2023

Memory usage per processor = 958.989 Mbytes
    Step    Atoms         KinEng            CPU 
28240659       74     0.09877254              0 
28394979       74    0.098454168      1507.6117 
Loop time of 1507.61 on 40 procs for 154320 steps with 74 atoms, finish time Fri Jan  6 09:23:25 2023


Pair  time (%) = 0.274845 (0.0182305)
Neigh time (%) = 1.11016 (0.0736368)
Comm  time (%) = 1.95621 (0.129755)
Outpt time (%) = 0.000554653 (3.67902e-05)
Other time (%) = 1504.27 (99.7783)

Nlocal:    1.85 ave 33 max 0 min
Histogram: 36 1 1 0 0 0 1 0 0 1
Nghost:    0.625 ave 12 max 0 min
Histogram: 37 0 1 0 0 0 1 0 0 1
Neighs:    0.025 ave 1 max 0 min
Histogram: 39 0 0 0 0 0 0 0 0 1

Total # of neighbors = 1
Ave neighs/atom = 0.0135135
Neighbor list builds = 3229
Dangerous builds = 0
Setting up run at Fri Jan  6 09:23:25 2023

Memory usage per processor = 958.989 Mbytes
    Step    Atoms         KinEng            CPU 
28394979       74    0.098454168              0 
28549299       74     0.09850752      1511.0447 
Loop time of 1511.05 on 40 procs for 154320 steps with 74 atoms, finish time Fri Jan  6 09:48:36 2023


Pair  time (%) = 0.275011 (0.0182001)
Neigh time (%) = 1.11066 (0.073503)
Comm  time (%) = 2.36354 (0.156417)
Outpt time (%) = 0.00026491 (1.75315e-05)
Other time (%) = 1507.3 (99.7519)

Nlocal:    1.85 ave 30 max 0 min
Histogram: 35 2 1 0 0 0 0 0 1 1
Nghost:    0.7 ave 10 max 0 min
Histogram: 32 5 0 1 0 0 0 0 0 2
Neighs:    0.05 ave 2 max 0 min
Histogram: 39 0 0 0 0 0 0 0 0 1

Total # of neighbors = 2
Ave neighs/atom = 0.027027
Neighbor list builds = 3231
Dangerous builds = 0
Setting up run at Fri Jan  6 09:48:36 2023

Memory usage per processor = 958.989 Mbytes
    Step    Atoms         KinEng            CPU 
28549299       74     0.09850752              0 
28703619       73    0.098845392      1497.4572 
Loop time of 1497.46 on 40 procs for 154320 steps with 73 atoms, finish time Fri Jan  6 10:13:34 2023


Pair  time (%) = 0.275701 (0.0184113)
Neigh time (%) = 1.11176 (0.0742432)
Comm  time (%) = 1.99451 (0.133193)
Outpt time (%) = 0.000246494 (1.64608e-05)
Other time (%) = 1494.08 (99.7741)

Nlocal:    1.825 ave 30 max 0 min
Histogram: 35 2 1 0 0 0 0 0 1 1
Nghost:    0.55 ave 9 max 0 min
Histogram: 35 2 0 1 0 0 0 0 1 1
Neighs:    0 ave 0 max 0 min
Histogram: 40 0 0 0 0 0 0 0 0 0

Total # of neighbors = 0
Ave neighs/atom = 0
Neighbor list builds = 3235
Dangerous builds = 1
Setting up run at Fri Jan  6 10:13:34 2023

Memory usage per processor = 958.989 Mbytes
    Step    Atoms         KinEng            CPU 
28703619       73    0.098845392              0 
28857939       73    0.098896692      1509.2277 
Loop time of 1509.23 on 40 procs for 154320 steps with 73 atoms, finish time Fri Jan  6 10:38:43 2023


Pair  time (%) = 0.273617 (0.0181296)
Neigh time (%) = 1.11179 (0.0736659)
Comm  time (%) = 1.94527 (0.128892)
Outpt time (%) = 0.000515042 (3.41262e-05)
Other time (%) = 1505.9 (99.7793)

Nlocal:    1.825 ave 31 max 0 min
Histogram: 36 1 1 0 0 0 0 1 0 1
Nghost:    0.575 ave 12 max 0 min
Histogram: 37 0 1 0 0 1 0 0 0 1
Neighs:    0 ave 0 max 0 min
Histogram: 40 0 0 0 0 0 0 0 0 0

Total # of neighbors = 0
Ave neighs/atom = 0
Neighbor list builds = 3229
Dangerous builds = 0
Setting up run at Fri Jan  6 10:38:43 2023

Memory usage per processor = 958.989 Mbytes
    Step    Atoms         KinEng            CPU 
28857939       73    0.098896692              0 
29012259       73     0.10639624      1505.4871 
Loop time of 1505.49 on 40 procs for 154320 steps with 73 atoms, finish time Fri Jan  6 11:03:48 2023


Pair  time (%) = 0.276071 (0.0183377)
Neigh time (%) = 1.10946 (0.0736941)
Comm  time (%) = 1.47149 (0.0977418)
Outpt time (%) = 0.000182142 (1.20985e-05)
Other time (%) = 1502.63 (99.8102)

Nlocal:    1.825 ave 31 max 0 min
Histogram: 36 1 1 0 0 0 0 1 0 1
Nghost:    0.6 ave 12 max 0 min
Histogram: 37 0 1 0 0 1 0 0 0 1
Neighs:    0.025 ave 1 max 0 min
Histogram: 39 0 0 0 0 0 0 0 0 1

Total # of neighbors = 1
Ave neighs/atom = 0.0136986
Neighbor list builds = 3226
Dangerous builds = 0
Setting up run at Fri Jan  6 11:03:48 2023

Memory usage per processor = 958.989 Mbytes
    Step    Atoms         KinEng            CPU 
29012259       73     0.10639624              0 
29166579       73     0.12330179       1502.937 
Loop time of 1502.94 on 40 procs for 154320 steps with 73 atoms, finish time Fri Jan  6 11:28:51 2023


Pair  time (%) = 0.275271 (0.0183155)
Neigh time (%) = 1.15654 (0.0769521)
Comm  time (%) = 1.4264 (0.0949074)
Outpt time (%) = 0.000439667 (2.92539e-05)
Other time (%) = 1500.08 (99.8098)

Nlocal:    1.825 ave 31 max 0 min
Histogram: 35 3 0 0 0 0 0 1 0 1
Nghost:    0.55 ave 12 max 0 min
Histogram: 37 0 1 0 0 1 0 0 0 1
Neighs:    0 ave 0 max 0 min
Histogram: 40 0 0 0 0 0 0 0 0 0

Total # of neighbors = 0
Ave neighs/atom = 0
Neighbor list builds = 3363
Dangerous builds = 0
Setting up run at Fri Jan  6 11:28:51 2023

Memory usage per processor = 958.989 Mbytes
    Step    Atoms         KinEng            CPU 
29166579       73     0.12330179              0 
29320899       73     0.10582672      1501.5452 
Loop time of 1501.55 on 40 procs for 154320 steps with 73 atoms, finish time Fri Jan  6 11:53:53 2023


Pair  time (%) = 0.274386 (0.0182735)
Neigh time (%) = 1.31614 (0.0876527)
Comm  time (%) = 1.30868 (0.0871554)
Outpt time (%) = 0.000213802 (1.42388e-05)
Other time (%) = 1498.65 (99.8069)

Nlocal:    1.825 ave 32 max 0 min
Histogram: 35 3 0 0 0 0 1 0 0 1
Nghost:    0.6 ave 14 max 0 min
Histogram: 37 0 1 0 1 0 0 0 0 1
Neighs:    0 ave 0 max 0 min
Histogram: 40 0 0 0 0 0 0 0 0 0

Total # of neighbors = 0
Ave neighs/atom = 0
Neighbor list builds = 3832
Dangerous builds = 0
Setting up run at Fri Jan  6 11:53:53 2023

Memory usage per processor = 958.989 Mbytes
    Step    Atoms         KinEng            CPU 
29320899       73     0.10582672              0 
29475219       73      0.1226638      1564.8267 
Loop time of 1564.83 on 40 procs for 154320 steps with 73 atoms, finish time Fri Jan  6 12:19:58 2023


Pair  time (%) = 0.274175 (0.0175211)
Neigh time (%) = 1.12894 (0.0721449)
Comm  time (%) = 1.50515 (0.0961863)
Outpt time (%) = 0.000197625 (1.26292e-05)
Other time (%) = 1561.92 (99.8141)

Nlocal:    1.825 ave 34 max 0 min
Histogram: 36 1 1 0 0 1 0 0 0 1
Nghost:    0.6 ave 13 max 0 min
Histogram: 37 0 1 1 0 0 0 0 0 1
Neighs:    0 ave 0 max 0 min
Histogram: 40 0 0 0 0 0 0 0 0 0

Total # of neighbors = 0
Ave neighs/atom = 0
Neighbor list builds = 3276
Dangerous builds = 0
Setting up run at Fri Jan  6 12:19:58 2023

Memory usage per processor = 958.989 Mbytes
    Step    Atoms         KinEng            CPU 
29475219       73      0.1226638              0 
29629539       72     0.10029971      1565.1436 
Loop time of 1565.14 on 40 procs for 154320 steps with 72 atoms, finish time Fri Jan  6 12:46:03 2023


Pair  time (%) = 0.279444 (0.0178542)
Neigh time (%) = 1.48769 (0.0950513)
Comm  time (%) = 1.53537 (0.0980974)
Outpt time (%) = 0.000463641 (2.96229e-05)
Other time (%) = 1561.84 (99.789)

Nlocal:    1.8 ave 33 max 0 min
Histogram: 36 1 1 0 0 0 1 0 0 1
Nghost:    0.575 ave 11 max 0 min
Histogram: 37 0 1 0 0 1 0 0 0 1
Neighs:    0 ave 0 max 0 min
Histogram: 40 0 0 0 0 0 0 0 0 0

Total # of neighbors = 0
Ave neighs/atom = 0
Neighbor list builds = 4346
Dangerous builds = 0
Setting up run at Fri Jan  6 12:46:03 2023

Memory usage per processor = 958.989 Mbytes
    Step    Atoms         KinEng            CPU 
29629539       72     0.10029971              0 
29783859       71    0.098385865      1593.0999 
Loop time of 1593.11 on 40 procs for 154320 steps with 71 atoms, finish time Fri Jan  6 13:12:36 2023


Pair  time (%) = 0.277432 (0.0174144)
Neigh time (%) = 1.32665 (0.0832742)
Comm  time (%) = 1.59291 (0.0999872)
Outpt time (%) = 0.000211951 (1.33042e-05)
Other time (%) = 1589.92 (99.7993)

Nlocal:    1.775 ave 33 max 0 min
Histogram: 36 1 1 0 0 0 1 0 0 1
Nghost:    0.5 ave 9 max 0 min
Histogram: 35 2 0 1 0 0 1 0 0 1
Neighs:    0 ave 0 max 0 min
Histogram: 40 0 0 0 0 0 0 0 0 0

Total # of neighbors = 0
Ave neighs/atom = 0
Neighbor list builds = 3854
Dangerous builds = 1
Setting up run at Fri Jan  6 13:12:36 2023

Memory usage per processor = 958.989 Mbytes
    Step    Atoms         KinEng            CPU 
29783859       71    0.098385865              0 
29938179       71    0.098478704       1635.145 
Loop time of 1635.15 on 40 procs for 154320 steps with 71 atoms, finish time Fri Jan  6 13:39:52 2023


Pair  time (%) = 0.275405 (0.0168429)
Neigh time (%) = 1.10711 (0.0677069)
Comm  time (%) = 1.54067 (0.0942222)
Outpt time (%) = 0.000509288 (3.11463e-05)
Other time (%) = 1632.22 (99.8212)

Nlocal:    1.775 ave 31 max 0 min
Histogram: 36 2 0 0 0 0 0 1 0 1
Nghost:    0.475 ave 8 max 0 min
Histogram: 35 2 0 1 0 0 0 1 0 1
Neighs:    0.025 ave 1 max 0 min
Histogram: 39 0 0 0 0 0 0 0 0 1

Total # of neighbors = 1
Ave neighs/atom = 0.0140845
Neighbor list builds = 3221
Dangerous builds = 0
Setting up run at Fri Jan  6 13:42:11 2023

Memory usage per processor = 958.989 Mbytes
    Step    Atoms         KinEng            CPU 
29938179       71    0.098478704              0 
30092499       71    0.098898159      1567.9721 
Loop time of 1567.98 on 40 procs for 154320 steps with 71 atoms, finish time Fri Jan  6 14:08:19 2023


Pair  time (%) = 0.272088 (0.0173528)
Neigh time (%) = 1.10565 (0.0705144)
Comm  time (%) = 1.47072 (0.0937974)
Outpt time (%) = 0.0131798 (0.000840562)
Other time (%) = 1565.12 (99.8175)

Nlocal:    1.775 ave 30 max 0 min
Histogram: 35 2 1 0 0 0 0 1 0 1
Nghost:    0.475 ave 8 max 0 min
Histogram: 35 2 1 0 0 0 0 0 1 1
Neighs:    0 ave 0 max 0 min
Histogram: 40 0 0 0 0 0 0 0 0 0

Total # of neighbors = 0
Ave neighs/atom = 0
Neighbor list builds = 3218
Dangerous builds = 0
Setting up run at Fri Jan  6 14:08:19 2023

Memory usage per processor = 958.989 Mbytes
    Step    Atoms         KinEng            CPU 
30092499       71    0.098898159              0 
30246819       71    0.099211848      1520.9413 
Loop time of 1520.94 on 40 procs for 154320 steps with 71 atoms, finish time Fri Jan  6 14:33:40 2023


Pair  time (%) = 0.27837 (0.0183024)
Neigh time (%) = 1.10766 (0.0728271)
Comm  time (%) = 1.23501 (0.0812005)
Outpt time (%) = 0.00020951 (1.3775e-05)
Other time (%) = 1518.32 (99.8277)

Nlocal:    1.775 ave 29 max 0 min
Histogram: 35 2 1 0 0 0 0 0 1 1
Nghost:    0.525 ave 8 max 0 min
Histogram: 34 3 1 0 0 0 0 0 0 2
Neighs:    0 ave 0 max 0 min
Histogram: 40 0 0 0 0 0 0 0 0 0

Total # of neighbors = 0
Ave neighs/atom = 0
Neighbor list builds = 3223
Dangerous builds = 0
Setting up run at Fri Jan  6 14:33:40 2023

Memory usage per processor = 958.989 Mbytes
    Step    Atoms         KinEng            CPU 
30246819       71    0.099211848              0 
30401139       71     0.11343723      1544.2549 
Loop time of 1544.25 on 40 procs for 154320 steps with 71 atoms, finish time Fri Jan  6 14:59:25 2023


Pair  time (%) = 0.275173 (0.0178192)
Neigh time (%) = 1.10548 (0.0715866)
Comm  time (%) = 1.74955 (0.113294)
Outpt time (%) = 0.000508019 (3.28973e-05)
Other time (%) = 1541.12 (99.7973)

Nlocal:    1.775 ave 30 max 0 min
Histogram: 35 2 1 0 0 0 0 1 0 1
Nghost:    0.525 ave 8 max 0 min
Histogram: 33 4 1 0 0 0 0 0 1 1
Neighs:    0 ave 0 max 0 min
Histogram: 40 0 0 0 0 0 0 0 0 0

Total # of neighbors = 0
Ave neighs/atom = 0
Neighbor list builds = 3218
Dangerous builds = 0
Setting up run at Fri Jan  6 14:59:25 2023

Memory usage per processor = 958.989 Mbytes
    Step    Atoms         KinEng            CPU 
30401139       71     0.11343723              0 
30555459       70    0.098780064      1505.3467 
Loop time of 1505.35 on 40 procs for 154320 steps with 70 atoms, finish time Fri Jan  6 15:24:30 2023


Pair  time (%) = 0.276151 (0.0183447)
Neigh time (%) = 1.10829 (0.0736236)
Comm  time (%) = 1.18705 (0.0788553)
Outpt time (%) = 0.000229917 (1.52734e-05)
Other time (%) = 1502.78 (99.8292)

Nlocal:    1.75 ave 29 max 0 min
Histogram: 35 2 1 0 0 0 0 1 0 1
Nghost:    0.475 ave 8 max 0 min
Histogram: 35 2 1 0 0 0 0 0 1 1
Neighs:    0 ave 0 max 0 min
Histogram: 40 0 0 0 0 0 0 0 0 0

Total # of neighbors = 0
Ave neighs/atom = 0
Neighbor list builds = 3221
Dangerous builds = 0
Setting up run at Fri Jan  6 15:24:30 2023

Memory usage per processor = 958.989 Mbytes
    Step    Atoms         KinEng            CPU 
30555459       70    0.098780064              0 
30709779       69    0.099018654      1529.2822 
Loop time of 1529.28 on 40 procs for 154320 steps with 69 atoms, finish time Fri Jan  6 15:49:59 2023


Pair  time (%) = 0.274674 (0.017961)
Neigh time (%) = 1.10577 (0.0723063)
Comm  time (%) = 1.59129 (0.104055)
Outpt time (%) = 0.000569472 (3.72379e-05)
Other time (%) = 1526.31 (99.8056)

Nlocal:    1.725 ave 29 max 0 min
Histogram: 35 2 1 0 0 0 0 1 0 1
Nghost:    0.575 ave 8 max 0 min
Histogram: 33 3 2 0 0 0 0 0 0 2
Neighs:    0 ave 0 max 0 min
Histogram: 40 0 0 0 0 0 0 0 0 0

Total # of neighbors = 0
Ave neighs/atom = 0
Neighbor list builds = 3218
Dangerous builds = 1
Setting up run at Fri Jan  6 15:49:59 2023

Memory usage per processor = 958.989 Mbytes
    Step    Atoms         KinEng            CPU 
30709779       69    0.099018654              0 
30864099       69    0.099311863      1539.0613 
Loop time of 1539.06 on 40 procs for 154320 steps with 69 atoms, finish time Fri Jan  6 16:15:39 2023


Pair  time (%) = 0.275029 (0.0178699)
Neigh time (%) = 1.12022 (0.0727858)
Comm  time (%) = 1.34714 (0.0875299)
Outpt time (%) = 0.000195634 (1.27113e-05)
Other time (%) = 1536.32 (99.8218)

Nlocal:    1.725 ave 29 max 0 min
Histogram: 35 2 1 0 0 0 0 1 0 1
Nghost:    0.55 ave 11 max 0 min
Histogram: 37 1 0 0 0 0 1 0 0 1
Neighs:    0 ave 0 max 0 min
Histogram: 40 0 0 0 0 0 0 0 0 0

Total # of neighbors = 0
Ave neighs/atom = 0
Neighbor list builds = 3261
Dangerous builds = 0
Setting up run at Fri Jan  6 16:15:39 2023

Memory usage per processor = 958.989 Mbytes
    Step    Atoms         KinEng            CPU 
30864099       69    0.099311863              0 
30864196       69    0.099318162      1.6073795 
Loop time of 1.60739 on 40 procs for 97 steps with 69 atoms, finish time Fri Jan  6 16:15:40 2023


Pair  time (%) = 0.000172438 (0.0107278)
Neigh time (%) = 0.000689198 (0.0428767)
Comm  time (%) = 0.00132068 (0.0821629)
Outpt time (%) = 0.000169569 (0.0105493)
Other time (%) = 1.60504 (99.8537)

Nlocal:    1.725 ave 29 max 0 min
Histogram: 35 2 1 0 0 0 0 1 0 1
Nghost:    0.55 ave 11 max 0 min
Histogram: 37 1 0 0 0 0 1 0 0 1
Neighs:    0 ave 0 max 0 min
Histogram: 40 0 0 0 0 0 0 0 0 0

Total # of neighbors = 0
Ave neighs/atom = 0
Neighbor list builds = 2
Dangerous builds = 0
