ITEM: TIMESTEP
23302419
ITEM: NUMBER OF ATOMS
85
ITEM: BOX BOUNDS ff ff ff
-0.15 0.15
-0.15 0.15
-0.15 0.15
ITEM: ATOMS id type x y z radius vx vy vz density 
456 1 -0.00863638 -0.0223071 -0.0682286 0.000233 -109.589 -1.87798 13.8697 2650 
359 1 -0.0406024 -0.0315926 -0.0549361 0.000847 -158.786 -0.885544 117.47 2650 
179 1 -0.0540829 -0.0399418 -0.0424879 0.000233 -69.5052 9.27813 88.4598 2650 
21 1 -0.0655175 -0.0504363 -0.0190043 0.000847 -25.7126 12.0404 88.6028 2650 
244 1 -0.00258862 -0.00124178 -0.00433556 0.000233 -0.000369136 -0.00802096 -0.0114293 2650 
99 1 -0.0158623 -0.000489265 -0.00188198 0.000847 0.0103648 -0.0139597 -0.0541647 2650 
172 1 -0.00112157 -0.00214487 0.00135413 0.001312 -0.00296917 -0.00585951 -0.00458906 2650 
268 1 -0.0661305 -0.0299117 0.0166931 0.000847 18.266 -13.2296 72.3256 2650 
112 1 -0.0188418 -0.00853525 0.0222541 0.000847 -2.35485 -11.771 14.94 2650 
302 1 -0.0513396 -0.0290926 0.0425016 0.001312 33.7503 3.56805 40.1425 2650 
151 1 -0.0498646 -0.0293532 0.0464709 0.000847 11.8048 -5.17765 12.657 2650 
484 1 -0.0347529 -0.0136546 0.0581332 0.001312 38.4566 1.62293 22.9703 2650 
328 1 -0.0253698 -0.0186808 0.0627876 0.001312 37.4313 -4.22351 15.1111 2650 
88 1 -0.00446206 0.0108641 -0.0160803 0.000233 0.0213634 0.00604441 -0.00961385 2650 
426 1 -6.04377e-05 0.0539839 -0.016616 0.000233 0.0351019 0.0348621 -0.00802442 2650 
2 1 -0.0018785 0.000138778 -0.0146266 0.001312 0.00863009 -0.00562463 -0.00842506 2650 
291 1 -0.00730756 0.0246954 -0.013786 0.000847 0.0105091 0.0124684 0.00686293 2650 
352 1 -0.011629 0.00777686 -0.0115042 0.000233 0.0218198 0.00720896 -0.0200677 2650 
89 1 -0.00455616 0.0145061 -0.0106439 0.000233 0.0122632 0.00434565 0.0107103 2650 
404 1 -0.0148604 0.0200776 -0.00747552 0.000233 0.00974147 0.00930961 -0.0378411 2650 
216 1 -0.00538963 0.0335579 -0.00546163 0.000847 -0.00272283 0.0173638 -0.0027105 2650 
225 1 -0.0100045 0.0148276 -0.00320542 0.001312 0.0075631 0.0069926 0.00384206 2650 
50 1 -0.00542369 0.0369864 -0.00433582 0.000233 0.0266774 0.0341677 -0.0124309 2650 
55 1 -0.0137998 0.0148116 -0.00198323 0.001312 0.00712927 0.00464767 -0.0116956 2650 
87 1 -0.0119446 0.0614715 -0.00168587 0.000847 -0.000765043 0.030515 -0.0195847 2650 
333 1 -0.0158316 0.0352093 -0.000466717 0.000847 -0.00857257 0.0287341 -0.0554682 2650 
145 1 -0.0057773 0.00111407 0.00162678 8.4e-05 0.00213544 -0.00244255 0.00609654 2650 
213 1 -0.00712048 0.0712449 0.00179625 0.000847 0.0140847 0.0348802 0.0100106 2650 
449 1 -0.000677792 0.00170073 0.00418415 0.000847 -0.000964505 -0.000188353 0.0162827 2650 
385 1 -0.013068 0.00183263 0.00520067 0.000847 -0.0137342 -0.00127379 -0.00303514 2650 
478 1 -0.00248093 0.00443492 0.00556205 0.000233 -9.88574e-06 0.00432759 0.0197026 2650 
502 1 -0.00347572 0.0172384 0.00482013 0.000847 -0.0233354 -0.00119667 -0.00884912 2650 
390 1 -0.00955835 0.0257786 0.0074137 0.000233 -0.0131224 0.0158917 0.0330867 2650 
215 1 -0.00113767 0.0152449 0.0103188 0.000847 -0.00273342 0.00886182 0.0143447 2650 
297 1 -0.0129098 0.0216003 0.0106015 0.000233 -0.139287 -0.00221545 -0.160204 2650 
267 1 -0.00304979 0.0289429 0.0107892 0.000847 -0.0171559 0.0203418 0.0440474 2650 
313 1 -0.00994421 0.00109337 0.0123092 0.000233 -0.0296455 0.000457592 -0.036994 2650 
293 1 -0.00511622 0.027086 0.0126564 0.000847 -0.0343157 0.00683299 0.048233 2650 
394 1 -0.00336875 0.043847 0.0141898 0.000847 0.0068761 0.0351623 -0.00419305 2650 
260 1 -0.00103254 0.0225476 0.016571 0.000233 0.099758 -0.00962699 0.00393268 2650 
15 1 -0.0355936 0.0764461 0.0579283 0.001312 -158.33 -1.96711 -97.235 2650 
105 1 0.00561168 -0.0228649 -0.0685376 0.000233 0.0351955 -0.40723 0.00293673 2650 
361 1 0.0216337 -0.0337798 -0.0652809 0.000233 -93.2457 3.30927 -30.8962 2650 
24 1 0.0464545 -0.057895 -0.0507126 0.000233 -67.3633 2.96914 -61.6972 2650 
283 1 0.00905407 -0.0020452 -0.0139435 0.000233 0.0289228 -0.00515294 0.014229 2650 
79 1 0.00272123 -0.00269949 -0.00811765 0.000233 0.0116224 -0.00870638 -0.00201173 2650 
175 1 0.000746455 -0.000878132 -0.00671554 0.000847 0.019543 -0.00935906 -0.00043616 2650 
510 1 0.028223 -0.0593548 -0.00533789 0.001312 -1.21904 -0.304883 -6.87908 2650 
475 1 0.00379479 -0.000444078 0.000127004 0.000847 0.0114005 -0.00760385 -0.00363741 2650 
168 1 0.0079435 -0.00173532 0.0127133 0.000233 -0.00295579 -0.001668 -0.0129425 2650 
406 1 0.0504131 -0.0613218 0.0453138 0.001312 51.057 -0.606122 -56.7448 2650 
163 1 0.0271174 -0.0437864 0.0625314 0.000847 25.6964 -1.8149 -11.1371 2650 
387 1 0.0134813 -0.0544319 0.0674363 0.000233 84.6377 -3.67233 -16.9174 2650 
78 1 0.0175351 -0.00630827 0.0664913 0.000233 23.9151 -6.14672 -6.15665 2650 
133 1 0.00457721 0.00450299 -0.0148818 0.001312 0.0633714 -0.0117368 0.0120866 2650 
98 1 0.00243768 0.0130305 -0.0157441 0.000847 0.0460559 0.0107859 0.00911229 2650 
178 1 0.00393828 0.0384063 -0.0125396 0.000847 -0.00711615 0.0173255 0.0161412 2650 
353 1 0.0126397 0.00419561 -0.0106623 8.4e-05 -0.00790224 0.00176539 0.00391071 2650 
504 1 0.00311667 0.0239721 -0.0107295 0.000233 -0.0178246 0.0163172 -0.0303274 2650 
503 1 0.00381586 0.000582889 -0.00633388 0.000233 -0.0146063 -0.0025701 -0.0144424 2650 
22 1 0.0118483 0.000844047 -0.00664501 0.000233 0.0269447 -0.00305952 -0.00514429 2650 
131 1 0.0157285 0.00429261 -0.005242 0.000233 -0.0121499 0.00170875 0.00625746 2650 
219 1 0.00136229 0.0369874 -0.00594654 0.000233 0.0220272 0.0316768 0.00280994 2650 
486 1 0.0149955 0.00417571 -0.00198826 0.000847 0.02706 0.003512 0.00147031 2650 
467 1 0.00247221 0.00705483 -0.00239549 0.000233 0.0125461 0.00432037 0.00106759 2650 
355 1 0.00259908 0.0474966 -0.00174102 0.000847 -0.0164708 0.0576299 0.0121255 2650 
252 1 0.0106897 0.012732 -0.000224052 0.000847 0.0099082 0.00757491 -0.00812694 2650 
310 1 0.0135189 0.0047392 0.000761626 0.000233 0.0251813 0.00258677 -0.00317422 2650 
421 1 0.00205748 0.0246792 0.00130174 0.000847 0.000409871 0.0122008 0.0215719 2650 
499 1 0.00942124 0.0509807 0.000834253 0.000847 0.0123291 0.0364092 0.00264871 2650 
517 1 0.0112479 0.0526367 0.00117683 0.000233 -0.00877497 0.0304557 -0.0141504 2650 
420 1 0.0116752 0.0136317 0.00186426 0.000847 0.00902894 0.00474567 -0.00576014 2650 
74 1 0.00291434 0.0197089 0.002138 0.000847 -0.00407336 0.00962058 0.0040593 2650 
407 1 0.015347 0.0345151 0.00227256 0.000847 -0.0125162 0.022602 0.00698137 2650 
485 1 0.00567525 0.0631766 0.00215722 0.000847 -0.00676914 0.0660666 -0.000317236 2650 
196 1 0.0116522 0.00036294 0.00852017 0.000233 0.012091 -0.0682791 0.0860337 2650 
152 1 0.00237054 0.00508901 0.0080918 0.000847 0.00302032 -0.000781436 0.000580048 2650 
321 1 0.0100796 0.0166084 0.0083747 0.000847 0.0158118 0.00426727 -0.00255584 2650 
312 1 0.00370076 0.00447616 0.0108864 0.000233 0.012811 0.00313636 0.0161372 2650 
45 1 0.00590047 0.0127781 0.00966864 0.000847 -0.017681 0.0110238 -0.0156326 2650 
479 1 0.0113768 0.0558821 0.0120622 0.000233 -0.115848 0.0281802 0.100667 2650 
35 1 0.00178403 0.0366799 0.0155431 0.000847 -0.00763877 0.0211791 -0.00433338 2650 
345 1 0.0198511 0.0817494 -0.0651979 0.000847 0.10957 -0.130195 0.0333614 2650 
363 1 0.0285767 0.0985131 -0.0625481 0.000233 0.17778 -0.338534 0.0812236 2650 
142 1 0.0146053 0.0814877 0.00795683 0.000233 0.0106789 0.0576264 0.00724071 2650 
