LIGGGHTS (Version LIGGGHTS-PUBLIC 3.8.0, compiled 2022-11-07-16:55:38 by serperd1, git commit 86544c3f1215bc9744d7929e3eacf53ba086af9e)
units si #
dimension 3 #
newton off #
boundary f f f #
atom_style sphere #
pair_style gran model hertz tangential history #
communicate single vel yes #
region outer_basket cylinder y 0 0 0.15 -0.15 0.15 #
create_box 3 outer_basket #
Created orthogonal box = (-0.15 -0.15 -0.15) to (0.15 0.15 0.15)
  2 by 4 by 5 MPI processor grid
variable my_omega equal 157.0796 #
fix cone_mesh all mesh/surface file cone.stl type 3 scale 1 #
fix rotating_wall_1 all move/mesh mesh cone_mesh rotate/variable origin 0 0 0 axis 0 1 0 omega v_my_omega #
fix filter_mesh_walls all wall/gran model hertz tangential history primitive type 2 ycylinder_filtermesh 0.069 0 0 2 9 -0.0628 0 0.024745 0.01613 0.062245 0.05363 shear x 10.8385 #

fix inlet_cyl_wall_mesh all mesh/surface file in_cyl.stl type 3 scale 1 #
fix top_cyl_wall_mesh all mesh/surface file top_cyl.stl type 3 scale 1 #
fix rotating_wall_4 all move/mesh mesh top_cyl_wall_mesh rotate/variable origin 0 0 0 axis 0 1 0 omega v_my_omega #
fix bot_cyl_wall_mesh all mesh/surface file bot_cyl.stl type 3 scale 1 #
fix rotating_wall_5 all move/mesh mesh bot_cyl_wall_mesh rotate/variable origin 0 0 0 axis 0 1 0 omega v_my_omega #
fix bot_disk_wall_mesh all mesh/surface file bottom_disk.stl type 3 scale 1 #
fix rotating_wall_6 all move/mesh mesh bot_disk_wall_mesh rotate/variable origin 0 0 0 axis 0 1 0 omega v_my_omega #
fix top_disk_wall_mesh all mesh/surface file top_disk.stl type 3 scale 1 #
fix rotating_wall_7 all move/mesh mesh top_disk_wall_mesh rotate/variable origin 0 0 0 axis 0 1 0 omega v_my_omega #
fix GMSH_mesh_walls all wall/gran model hertz tangential history mesh n_meshes 6 meshes cone_mesh top_cyl_wall_mesh bot_cyl_wall_mesh bot_disk_wall_mesh inlet_cyl_wall_mesh top_disk_wall_mesh #
fix Young_mod all property/global youngsModulus peratomtype 375000000 46000000 1000000000 #
fix Poisson_rat all property/global poissonsRatio peratomtype 0.32 0.42 0.29 #
fix Coeff_rest all property/global coefficientRestitution peratomtypepair 3 0.15 0.32 0.475 0.32 0.49 0.645 0.475 0.645 0.8 #
fix Coeff_fric all property/global coefficientFriction peratomtypepair 3 0.04 0.145 0.12 0.145 0.25 0.225 0.12 0.225 0.2 #

neighbor 0.00052488 bin #
neigh_modify delay 0 one 100000 page 5000000 #
fix r_0to10p all particletemplate/sphere 12345787 atom_type 1 density constant 2650 radius constant 8.4e-05 #
fix r_10to50p all particletemplate/sphere 15485863 atom_type 1 density constant 2650 radius constant 0.0002328 #
fix r_50to90p all particletemplate/sphere 15485867 atom_type 1 density constant 2650 radius constant 0.0008466 #
fix r_90to100p all particletemplate/sphere 32452843 atom_type 1 density constant 2650 radius constant 0.0013122 #
fix prob_par all particledistribution/discrete 32452867 4 r_0to10p 0.1 r_10to50p 0.4 r_50to90p 0.4 r_90to100p 0.1 #
pair_coeff * * #
timestep 6.48e-08 #

fix nve_group all nve/sphere #
fix grav_fix all gravity 6.1081 vector 0.017 -0.0033 0 -1 0 #
fix cent_fix all centrifugal 157.0796 0.017 -0.0033 0.069 #

variable step equal step #
variable mycount equal count(all) #
fix print_amount_of_atoms all print 25 "${step} ${mycount}" file numatoms.txt screen no #
run 0 #
Setting up run at Mon Jan  2 15:34:44 2023

Memory usage per processor = 954.637 Mbytes
    Step    Atoms         KinEng            CPU 
       0        0              0              0 
Loop time of 6.04249e-05 on 40 procs for 0 steps with 0 atoms, finish time Mon Jan  2 15:34:44 2023


Pair  time (%) = 0 (0)
Neigh time (%) = 0 (0)
Comm  time (%) = 0 (0)
Outpt time (%) = 0 (0)
Other time (%) = 6.04249e-05 (100)

Nlocal:    0 ave 0 max 0 min
Histogram: 40 0 0 0 0 0 0 0 0 0
Nghost:    0 ave 0 max 0 min
Histogram: 40 0 0 0 0 0 0 0 0 0
Neighs:    0 ave 0 max 0 min
Histogram: 40 0 0 0 0 0 0 0 0 0

Total # of neighbors = 0
Neighbor list builds = 0
Dangerous builds = 0
run 1 #
Setting up run at Mon Jan  2 15:34:44 2023

Memory usage per processor = 954.637 Mbytes
    Step    Atoms         KinEng            CPU 
       0        0              0              0 
       1        0              0    0.009578862 
Loop time of 0.00960809 on 40 procs for 1 steps with 0 atoms, finish time Mon Jan  2 15:34:44 2023


Pair  time (%) = 2.10315e-06 (0.0218894)
Neigh time (%) = 0 (0)
Comm  time (%) = 0.000192433 (2.00282)
Outpt time (%) = 0.000114811 (1.19494)
Other time (%) = 0.00929874 (96.7804)

Nlocal:    0 ave 0 max 0 min
Histogram: 40 0 0 0 0 0 0 0 0 0
Nghost:    0 ave 0 max 0 min
Histogram: 40 0 0 0 0 0 0 0 0 0
Neighs:    0 ave 0 max 0 min
Histogram: 40 0 0 0 0 0 0 0 0 0

Total # of neighbors = 0
Neighbor list builds = 0
Dangerous builds = 0
read_dump dump.atom_info_1 1 x y z radius vx vy vz box no add yes replace no #
  orthogonal box = (-0.15 -0.15 -0.15) to (0.15 0.15 0.15)
  0 atoms before read
  522 atoms in snapshot
  0 atoms purged
  0 atoms replaced
  0 atoms trimmed
  522 atoms added
  522 atoms after read
set atom * type 1 density 2650 vy -0.01175 #
  522 settings made for type
  522 settings made for density
  522 settings made for vy
run 1 #
Setting up run at Mon Jan  2 15:34:44 2023

Memory usage per processor = 958.989 Mbytes
    Step    Atoms         KinEng            CPU 
       1      522  2.0467238e-07              0 
       2      522  2.2321206e-07    0.009175818 
Loop time of 0.0091945 on 40 procs for 1 steps with 522 atoms, finish time Mon Jan  2 15:34:44 2023


Pair  time (%) = 2.3659e-06 (0.0257317)
Neigh time (%) = 0 (0)
Comm  time (%) = 5.86402e-06 (0.0637775)
Outpt time (%) = 0.00014443 (1.57083)
Other time (%) = 0.00904184 (98.3397)

Nlocal:    13.05 ave 230 max 0 min
Histogram: 36 2 0 0 0 0 0 0 1 1
Nghost:    6.9 ave 88 max 0 min
Histogram: 36 0 0 0 0 1 1 0 0 2
Neighs:    4.05 ave 71 max 0 min
Histogram: 36 2 0 0 0 0 0 0 0 2

Total # of neighbors = 162
Ave neighs/atom = 0.310345
Neighbor list builds = 0
Dangerous builds = 0
write_dump all custom dump.atom_info_ac_* id type x y z radius vx vy vz density #
run 154320
Setting up run at Mon Jan  2 15:34:44 2023

Memory usage per processor = 958.989 Mbytes
    Step    Atoms         KinEng            CPU 
       2      522  2.2321206e-07              0 
  154322      522  2.5096779e-05      1528.0443 
Loop time of 1528.04 on 40 procs for 154320 steps with 522 atoms, finish time Mon Jan  2 16:00:12 2023


Pair  time (%) = 0.332521 (0.0217612)
Neigh time (%) = 0.136261 (0.00891732)
Comm  time (%) = 0.667113 (0.0436579)
Outpt time (%) = 0.000356302 (2.33175e-05)
Other time (%) = 1526.91 (99.9256)

Nlocal:    13.05 ave 225 max 0 min
Histogram: 36 0 2 0 0 0 0 0 0 2
Nghost:    6.975 ave 93 max 0 min
Histogram: 36 0 0 0 1 1 0 0 0 2
Neighs:    4.4 ave 82 max 0 min
Histogram: 36 2 0 0 0 0 0 0 1 1

Total # of neighbors = 176
Ave neighs/atom = 0.337165
Neighbor list builds = 412
Dangerous builds = 0
write_dump all custom dump.atom_info_ac_* id type x y z radius vx vy vz density #
run 154320
Setting up run at Mon Jan  2 16:00:12 2023

Memory usage per processor = 958.989 Mbytes
    Step    Atoms         KinEng            CPU 
  154322      522  2.5096779e-05              0 
  308642      522  0.00014274771      1521.8964 
Loop time of 1521.9 on 40 procs for 154320 steps with 522 atoms, finish time Mon Jan  2 16:25:34 2023


Pair  time (%) = 0.334192 (0.0219589)
Neigh time (%) = 0.126442 (0.0083082)
Comm  time (%) = 0.74824 (0.049165)
Outpt time (%) = 0.000880447 (5.78519e-05)
Other time (%) = 1520.69 (99.9205)

Nlocal:    13.05 ave 215 max 0 min
Histogram: 36 0 2 0 0 0 0 0 0 2
Nghost:    7.05 ave 94 max 0 min
Histogram: 36 0 0 0 0 2 0 0 0 2
Neighs:    4.375 ave 75 max 0 min
Histogram: 36 1 1 0 0 0 0 0 0 2

Total # of neighbors = 175
Ave neighs/atom = 0.335249
Neighbor list builds = 412
Dangerous builds = 0
write_dump all custom dump.atom_info_ac_* id type x y z radius vx vy vz density #
run 154320
Setting up run at Mon Jan  2 16:25:34 2023

Memory usage per processor = 958.989 Mbytes
    Step    Atoms         KinEng            CPU 
  308642      522  0.00014274771              0 
  462962      522  0.00014423352      1527.9014 
Loop time of 1527.92 on 40 procs for 154320 steps with 522 atoms, finish time Mon Jan  2 16:51:02 2023


Pair  time (%) = 0.335993 (0.0219903)
Neigh time (%) = 0.120317 (0.0078746)
Comm  time (%) = 0.978378 (0.0640335)
Outpt time (%) = 0.000666855 (4.36448e-05)
Other time (%) = 1526.48 (99.9061)

Nlocal:    13.05 ave 210 max 0 min
Histogram: 36 0 2 0 0 0 0 0 0 2
Nghost:    6.9 ave 92 max 0 min
Histogram: 36 0 0 0 1 1 0 0 0 2
Neighs:    4.275 ave 72 max 0 min
Histogram: 36 0 2 0 0 0 0 0 0 2

Total # of neighbors = 171
Ave neighs/atom = 0.327586
Neighbor list builds = 412
Dangerous builds = 0
write_dump all custom dump.atom_info_ac_* id type x y z radius vx vy vz density #
run 154320
Setting up run at Mon Jan  2 16:51:02 2023

Memory usage per processor = 958.989 Mbytes
    Step    Atoms         KinEng            CPU 
  462962      522  0.00014423352              0 
  617282      522  7.6652719e-05      1526.2303 
Loop time of 1526.23 on 40 procs for 154320 steps with 522 atoms, finish time Mon Jan  2 17:16:28 2023


Pair  time (%) = 0.336915 (0.022075)
Neigh time (%) = 0.122229 (0.00800857)
Comm  time (%) = 0.877667 (0.0575055)
Outpt time (%) = 0.000699608 (4.58389e-05)
Other time (%) = 1524.89 (99.9124)

Nlocal:    13.05 ave 207 max 0 min
Histogram: 36 0 2 0 0 0 0 0 0 2
Nghost:    6.925 ave 90 max 0 min
Histogram: 36 0 0 0 0 1 1 0 0 2
Neighs:    4.1 ave 74 max 0 min
Histogram: 36 1 1 0 0 0 0 1 0 1

Total # of neighbors = 164
Ave neighs/atom = 0.314176
Neighbor list builds = 412
Dangerous builds = 0
write_dump all custom dump.atom_info_ac_* id type x y z radius vx vy vz density #
run 154320
Setting up run at Mon Jan  2 17:16:28 2023

Memory usage per processor = 958.989 Mbytes
    Step    Atoms         KinEng            CPU 
  617282      522  7.6652719e-05              0 
  771602      522   0.0003105504      1532.1145 
Loop time of 1532.11 on 40 procs for 154320 steps with 522 atoms, finish time Mon Jan  2 17:42:00 2023


Pair  time (%) = 0.33817 (0.0220721)
Neigh time (%) = 0.119581 (0.00780494)
Comm  time (%) = 0.97532 (0.0636584)
Outpt time (%) = 0.000634902 (4.14396e-05)
Other time (%) = 1530.68 (99.9064)

Nlocal:    13.05 ave 208 max 0 min
Histogram: 36 0 2 0 0 0 0 0 0 2
Nghost:    6.9 ave 91 max 0 min
Histogram: 36 0 0 0 0 1 1 0 1 1
Neighs:    4 ave 70 max 0 min
Histogram: 36 1 1 0 0 0 0 0 1 1

Total # of neighbors = 160
Ave neighs/atom = 0.306513
Neighbor list builds = 412
Dangerous builds = 0
write_dump all custom dump.atom_info_ac_* id type x y z radius vx vy vz density #
run 154320
Setting up run at Mon Jan  2 17:42:01 2023

Memory usage per processor = 958.989 Mbytes
    Step    Atoms         KinEng            CPU 
  771602      522   0.0003105504              0 
  925922      522   0.0034537071      1537.5858 
Loop time of 1537.6 on 40 procs for 154320 steps with 522 atoms, finish time Mon Jan  2 18:07:38 2023


Pair  time (%) = 0.339377 (0.0220719)
Neigh time (%) = 0.21141 (0.0137494)
Comm  time (%) = 0.987493 (0.0642231)
Outpt time (%) = 0.0134811 (0.000876761)
Other time (%) = 1536.05 (99.8991)

Nlocal:    13.05 ave 206 max 0 min
Histogram: 36 0 2 0 0 0 0 0 0 2
Nghost:    6.775 ave 86 max 0 min
Histogram: 36 0 0 0 0 1 1 0 1 1
Neighs:    3.975 ave 74 max 0 min
Histogram: 36 2 0 0 0 0 0 1 0 1

Total # of neighbors = 159
Ave neighs/atom = 0.304598
Neighbor list builds = 690
Dangerous builds = 0
write_dump all custom dump.atom_info_ac_* id type x y z radius vx vy vz density #
run 154320
Setting up run at Mon Jan  2 18:07:38 2023

Memory usage per processor = 958.989 Mbytes
    Step    Atoms         KinEng            CPU 
  925922      522   0.0034537071              0 
 1080242      522   0.0029953858      1542.1205 
Loop time of 1542.12 on 40 procs for 154320 steps with 522 atoms, finish time Mon Jan  2 18:33:21 2023


Pair  time (%) = 0.337168 (0.0218639)
Neigh time (%) = 0.421161 (0.0273105)
Comm  time (%) = 1.35422 (0.0878152)
Outpt time (%) = 0.000663305 (4.30125e-05)
Other time (%) = 1540.01 (99.863)

Nlocal:    13.05 ave 204 max 0 min
Histogram: 36 0 2 0 0 0 0 0 0 2
Nghost:    6.825 ave 84 max 0 min
Histogram: 36 0 0 0 0 0 2 0 0 2
Neighs:    4.05 ave 72 max 0 min
Histogram: 36 0 2 0 0 0 0 1 0 1

Total # of neighbors = 162
Ave neighs/atom = 0.310345
Neighbor list builds = 1318
Dangerous builds = 0
write_dump all custom dump.atom_info_ac_* id type x y z radius vx vy vz density #
run 154320
Setting up run at Mon Jan  2 18:33:21 2023

Memory usage per processor = 958.989 Mbytes
    Step    Atoms         KinEng            CPU 
 1080242      522   0.0029953858              0 
 1234562      522    0.089005844      1550.2636 
Loop time of 1550.26 on 40 procs for 154320 steps with 522 atoms, finish time Mon Jan  2 18:59:11 2023


Pair  time (%) = 0.340563 (0.0219681)
Neigh time (%) = 1.01841 (0.0656926)
Comm  time (%) = 2.32911 (0.15024)
Outpt time (%) = 0.00064072 (4.13297e-05)
Other time (%) = 1546.58 (99.7621)

Nlocal:    13.05 ave 203 max 0 min
Histogram: 36 0 2 0 0 0 0 0 0 2
Nghost:    6.575 ave 85 max 0 min
Histogram: 36 0 0 0 0 2 0 0 0 2
Neighs:    4.35 ave 76 max 0 min
Histogram: 36 0 2 0 0 0 0 1 0 1

Total # of neighbors = 174
Ave neighs/atom = 0.333333
Neighbor list builds = 3108
Dangerous builds = 0
write_dump all custom dump.atom_info_ac_* id type x y z radius vx vy vz density #
run 154320
Setting up run at Mon Jan  2 18:59:11 2023

Memory usage per processor = 958.989 Mbytes
    Step    Atoms         KinEng            CPU 
 1234562      522    0.089005844              0 
 1388882      519    0.095134812      1583.2237 
Loop time of 1583.22 on 40 procs for 154320 steps with 519 atoms, finish time Mon Jan  2 19:25:34 2023


Pair  time (%) = 0.340967 (0.0215363)
Neigh time (%) = 1.44633 (0.0913536)
Comm  time (%) = 2.64205 (0.166878)
Outpt time (%) = 0.000638846 (4.03509e-05)
Other time (%) = 1578.79 (99.7202)

Nlocal:    12.975 ave 200 max 0 min
Histogram: 36 0 2 0 0 0 0 0 0 2
Nghost:    6.425 ave 84 max 0 min
Histogram: 36 0 0 0 0 2 0 0 1 1
Neighs:    4.275 ave 78 max 0 min
Histogram: 36 0 2 0 0 0 1 0 0 1

Total # of neighbors = 171
Ave neighs/atom = 0.32948
Neighbor list builds = 4508
Dangerous builds = 357
write_dump all custom dump.atom_info_ac_* id type x y z radius vx vy vz density #
run 154320
Setting up run at Mon Jan  2 19:25:34 2023

Memory usage per processor = 958.989 Mbytes
    Step    Atoms         KinEng            CPU 
 1388882      519    0.095134812              0 
 1543202      516     0.14446691      1553.1185 
Loop time of 1553.12 on 40 procs for 154320 steps with 516 atoms, finish time Mon Jan  2 19:51:28 2023


Pair  time (%) = 0.341914 (0.0220146)
Neigh time (%) = 1.17013 (0.0753405)
Comm  time (%) = 2.30209 (0.148224)
Outpt time (%) = 0.000615242 (3.96133e-05)
Other time (%) = 1549.3 (99.7544)

Nlocal:    12.9 ave 196 max 0 min
Histogram: 36 0 1 1 0 0 0 0 0 2
Nghost:    6.275 ave 85 max 0 min
Histogram: 36 0 0 0 0 2 0 0 1 1
Neighs:    4.2 ave 74 max 0 min
Histogram: 36 0 2 0 0 0 0 1 0 1

Total # of neighbors = 168
Ave neighs/atom = 0.325581
Neighbor list builds = 3737
Dangerous builds = 519
write_dump all custom dump.atom_info_ac_* id type x y z radius vx vy vz density #
run 154320
Setting up run at Mon Jan  2 19:51:28 2023

Memory usage per processor = 958.989 Mbytes
    Step    Atoms         KinEng            CPU 
 1543202      516     0.14446691              0 
 1697522      515     0.13975353      1559.7551 
Loop time of 1559.76 on 40 procs for 154320 steps with 515 atoms, finish time Mon Jan  2 20:17:27 2023


Pair  time (%) = 0.338971 (0.0217323)
Neigh time (%) = 1.4325 (0.0918415)
Comm  time (%) = 2.40683 (0.154308)
Outpt time (%) = 0.000695382 (4.45827e-05)
Other time (%) = 1555.58 (99.7321)

Nlocal:    12.875 ave 196 max 0 min
Histogram: 36 0 1 1 0 0 0 0 0 2
Nghost:    6.375 ave 85 max 0 min
Histogram: 36 0 0 0 0 2 0 0 1 1
Neighs:    4.175 ave 71 max 0 min
Histogram: 36 0 1 1 0 0 0 1 0 1

Total # of neighbors = 167
Ave neighs/atom = 0.324272
Neighbor list builds = 4496
Dangerous builds = 358
write_dump all custom dump.atom_info_ac_* id type x y z radius vx vy vz density #
run 154320
Setting up run at Mon Jan  2 20:17:27 2023

Memory usage per processor = 958.989 Mbytes
    Step    Atoms         KinEng            CPU 
 1697522      515     0.13975353              0 
 1851842      515     0.15199737      1547.9491 
Loop time of 1547.95 on 40 procs for 154320 steps with 515 atoms, finish time Mon Jan  2 20:43:15 2023


Pair  time (%) = 0.336844 (0.0217607)
Neigh time (%) = 1.23353 (0.0796879)
Comm  time (%) = 2.82633 (0.182585)
Outpt time (%) = 0.00063912 (4.12882e-05)
Other time (%) = 1543.55 (99.7159)

Nlocal:    12.875 ave 195 max 0 min
Histogram: 36 0 1 1 0 0 0 0 0 2
Nghost:    6.4 ave 87 max 0 min
Histogram: 36 0 0 0 0 2 0 0 1 1
Neighs:    4.05 ave 68 max 0 min
Histogram: 36 0 1 1 0 0 0 1 0 1

Total # of neighbors = 162
Ave neighs/atom = 0.314563
Neighbor list builds = 3763
Dangerous builds = 0
write_dump all custom dump.atom_info_ac_* id type x y z radius vx vy vz density #
run 154320
Setting up run at Mon Jan  2 20:43:15 2023

Memory usage per processor = 958.989 Mbytes
    Step    Atoms         KinEng            CPU 
 1851842      515     0.15199737              0 
 2006162      514     0.26371093      1584.9007 
Loop time of 1584.9 on 40 procs for 154320 steps with 514 atoms, finish time Mon Jan  2 21:09:40 2023


Pair  time (%) = 0.345596 (0.0218055)
Neigh time (%) = 2.86723 (0.180909)
Comm  time (%) = 4.746 (0.299451)
Outpt time (%) = 0.00064774 (4.08694e-05)
Other time (%) = 1576.94 (99.4978)

Nlocal:    12.85 ave 197 max 0 min
Histogram: 36 0 1 1 0 0 0 0 0 2
Nghost:    6.375 ave 84 max 0 min
Histogram: 36 0 0 0 0 1 1 0 1 1
Neighs:    4.2 ave 68 max 0 min
Histogram: 36 0 1 0 1 0 0 1 0 1

Total # of neighbors = 168
Ave neighs/atom = 0.326848
Neighbor list builds = 8897
Dangerous builds = 497
write_dump all custom dump.atom_info_ac_* id type x y z radius vx vy vz density #
run 154320
Setting up run at Mon Jan  2 21:09:41 2023

Memory usage per processor = 958.989 Mbytes
    Step    Atoms         KinEng            CPU 
 2006162      514     0.26371093              0 
 2160482      514     0.18902031      1561.8159 
Loop time of 1561.82 on 40 procs for 154320 steps with 514 atoms, finish time Mon Jan  2 21:35:42 2023


Pair  time (%) = 0.340837 (0.0218231)
Neigh time (%) = 1.64878 (0.105568)
Comm  time (%) = 3.63529 (0.23276)
Outpt time (%) = 0.000681853 (4.36577e-05)
Other time (%) = 1556.19 (99.6398)

Nlocal:    12.85 ave 194 max 0 min
Histogram: 36 0 1 1 0 0 0 0 0 2
Nghost:    6.6 ave 90 max 0 min
Histogram: 36 0 0 0 1 1 0 0 1 1
Neighs:    4.375 ave 75 max 0 min
Histogram: 36 0 1 1 0 0 0 1 0 1

Total # of neighbors = 175
Ave neighs/atom = 0.340467
Neighbor list builds = 5025
Dangerous builds = 0
write_dump all custom dump.atom_info_ac_* id type x y z radius vx vy vz density #
run 154320
Setting up run at Mon Jan  2 21:35:42 2023

Memory usage per processor = 958.989 Mbytes
    Step    Atoms         KinEng            CPU 
 2160482      514     0.18902031              0 
 2314802      513     0.15414993      1602.2248 
Loop time of 1602.22 on 40 procs for 154320 steps with 513 atoms, finish time Mon Jan  2 22:02:25 2023


Pair  time (%) = 0.355243 (0.0221718)
Neigh time (%) = 4.24025 (0.264648)
Comm  time (%) = 6.08338 (0.379683)
Outpt time (%) = 0.00332299 (0.000207398)
Other time (%) = 1591.54 (99.3333)

Nlocal:    12.825 ave 195 max 0 min
Histogram: 36 0 2 0 0 0 0 0 0 2
Nghost:    6.475 ave 83 max 0 min
Histogram: 36 0 0 0 0 1 1 0 1 1
Neighs:    4.1 ave 74 max 0 min
Histogram: 36 0 2 0 0 0 1 0 0 1

Total # of neighbors = 164
Ave neighs/atom = 0.319688
Neighbor list builds = 13212
Dangerous builds = 453
write_dump all custom dump.atom_info_ac_* id type x y z radius vx vy vz density #
run 154320
Setting up run at Mon Jan  2 22:02:25 2023

Memory usage per processor = 958.989 Mbytes
    Step    Atoms         KinEng            CPU 
 2314802      513     0.15414993              0 
 2469122      513     0.63746187      1602.0472 
Loop time of 1602.06 on 40 procs for 154320 steps with 513 atoms, finish time Mon Jan  2 22:29:07 2023


Pair  time (%) = 0.354912 (0.0221535)
Neigh time (%) = 3.98947 (0.249021)
Comm  time (%) = 6.26975 (0.391356)
Outpt time (%) = 0.0103682 (0.000647177)
Other time (%) = 1591.43 (99.3368)

Nlocal:    12.825 ave 196 max 0 min
Histogram: 36 0 2 0 0 0 0 0 0 2
Nghost:    6.6 ave 81 max 0 min
Histogram: 36 0 0 0 1 0 0 1 0 2
Neighs:    4.275 ave 73 max 0 min
Histogram: 36 0 1 1 0 0 0 1 0 1

Total # of neighbors = 171
Ave neighs/atom = 0.333333
Neighbor list builds = 12175
Dangerous builds = 0
write_dump all custom dump.atom_info_ac_* id type x y z radius vx vy vz density #
run 154320
Setting up run at Mon Jan  2 22:29:07 2023

Memory usage per processor = 958.989 Mbytes
    Step    Atoms         KinEng            CPU 
 2469122      513     0.63746187              0 
 2623442      513     0.48113847      1562.8586 
Loop time of 1562.86 on 40 procs for 154320 steps with 513 atoms, finish time Mon Jan  2 22:55:10 2023


Pair  time (%) = 0.344558 (0.0220467)
Neigh time (%) = 2.3568 (0.150801)
Comm  time (%) = 4.27736 (0.273688)
Outpt time (%) = 0.000691676 (4.42571e-05)
Other time (%) = 1555.88 (99.5534)

Nlocal:    12.825 ave 196 max 0 min
Histogram: 36 0 2 0 0 0 0 0 1 1
Nghost:    6.675 ave 82 max 0 min
Histogram: 36 0 0 0 1 0 0 1 0 2
Neighs:    4.55 ave 71 max 0 min
Histogram: 36 0 1 1 0 0 0 0 0 2

Total # of neighbors = 182
Ave neighs/atom = 0.354776
Neighbor list builds = 7173
Dangerous builds = 0
write_dump all custom dump.atom_info_ac_* id type x y z radius vx vy vz density #
run 154320
Setting up run at Mon Jan  2 22:55:10 2023

Memory usage per processor = 958.989 Mbytes
    Step    Atoms         KinEng            CPU 
 2623442      513     0.48113847              0 
 2777762      510     0.32994531      1564.9744 
Loop time of 1564.98 on 40 procs for 154320 steps with 510 atoms, finish time Mon Jan  2 23:21:15 2023


Pair  time (%) = 0.343303 (0.0219367)
Neigh time (%) = 1.75582 (0.112194)
Comm  time (%) = 3.78883 (0.242101)
Outpt time (%) = 0.000768095 (4.90803e-05)
Other time (%) = 1559.09 (99.6237)

Nlocal:    12.75 ave 202 max 0 min
Histogram: 36 0 2 0 0 0 0 0 1 1
Nghost:    6.375 ave 82 max 0 min
Histogram: 36 0 0 0 1 0 1 0 1 1
Neighs:    4.15 ave 82 max 0 min
Histogram: 36 1 0 1 0 1 0 0 0 1

Total # of neighbors = 166
Ave neighs/atom = 0.32549
Neighbor list builds = 5440
Dangerous builds = 3
write_dump all custom dump.atom_info_ac_* id type x y z radius vx vy vz density #
run 154320
Setting up run at Mon Jan  2 23:21:15 2023

Memory usage per processor = 958.989 Mbytes
    Step    Atoms         KinEng            CPU 
 2777762      510     0.32994531              0 
 2932082      509      0.2778986      1553.0718 
Loop time of 1553.07 on 40 procs for 154320 steps with 509 atoms, finish time Mon Jan  2 23:47:08 2023


Pair  time (%) = 0.336312 (0.0216546)
Neigh time (%) = 1.51982 (0.0978587)
Comm  time (%) = 3.40509 (0.219249)
Outpt time (%) = 0.00072688 (4.68027e-05)
Other time (%) = 1547.81 (99.6612)

Nlocal:    12.725 ave 205 max 0 min
Histogram: 36 0 2 0 0 0 0 1 0 1
Nghost:    6.075 ave 81 max 0 min
Histogram: 36 0 0 0 1 0 1 1 0 1
Neighs:    3.625 ave 75 max 0 min
Histogram: 36 1 1 0 0 1 0 0 0 1

Total # of neighbors = 145
Ave neighs/atom = 0.284872
Neighbor list builds = 4684
Dangerous builds = 185
write_dump all custom dump.atom_info_ac_* id type x y z radius vx vy vz density #
run 154320
Setting up run at Mon Jan  2 23:47:08 2023

Memory usage per processor = 958.989 Mbytes
    Step    Atoms         KinEng            CPU 
 2932082      509      0.2778986              0 
 3086402      507     0.27693515      1561.0426 
Loop time of 1561.04 on 40 procs for 154320 steps with 507 atoms, finish time Tue Jan  3 00:13:09 2023


Pair  time (%) = 0.335143 (0.0214692)
Neigh time (%) = 1.57399 (0.100829)
Comm  time (%) = 3.4536 (0.221237)
Outpt time (%) = 0.000716581 (4.5904e-05)
Other time (%) = 1555.68 (99.6564)

Nlocal:    12.675 ave 203 max 0 min
Histogram: 36 0 2 0 0 0 0 1 0 1
Nghost:    6.025 ave 76 max 0 min
Histogram: 36 0 0 0 1 0 0 1 0 2
Neighs:    3.575 ave 78 max 0 min
Histogram: 36 2 0 0 0 1 0 0 0 1

Total # of neighbors = 143
Ave neighs/atom = 0.282051
Neighbor list builds = 4780
Dangerous builds = 0
write_dump all custom dump.atom_info_ac_* id type x y z radius vx vy vz density #
run 154320
Setting up run at Tue Jan  3 00:13:09 2023

Memory usage per processor = 958.989 Mbytes
    Step    Atoms         KinEng            CPU 
 3086402      507     0.27693515              0 
 3240722      504     0.56118035      1563.6074 
Loop time of 1563.61 on 40 procs for 154320 steps with 504 atoms, finish time Tue Jan  3 00:39:13 2023


Pair  time (%) = 0.332275 (0.0212505)
Neigh time (%) = 1.7056 (0.109081)
Comm  time (%) = 3.77445 (0.241393)
Outpt time (%) = 0.000689546 (4.40997e-05)
Other time (%) = 1557.8 (99.6282)

Nlocal:    12.6 ave 203 max 0 min
Histogram: 36 0 2 0 0 0 0 1 0 1
Nghost:    5.675 ave 72 max 0 min
Histogram: 36 0 0 0 1 0 1 0 0 2
Neighs:    3.55 ave 75 max 0 min
Histogram: 36 1 1 0 1 0 0 0 0 1

Total # of neighbors = 142
Ave neighs/atom = 0.281746
Neighbor list builds = 5282
Dangerous builds = 312
write_dump all custom dump.atom_info_ac_* id type x y z radius vx vy vz density #
run 154320
Setting up run at Tue Jan  3 00:39:13 2023

Memory usage per processor = 958.989 Mbytes
    Step    Atoms         KinEng            CPU 
 3240722      504     0.56118035              0 
 3395042      501     0.35225219      1569.6293 
Loop time of 1569.63 on 40 procs for 154320 steps with 501 atoms, finish time Tue Jan  3 01:05:23 2023


Pair  time (%) = 0.3359 (0.0214)
Neigh time (%) = 2.40357 (0.153129)
Comm  time (%) = 4.57278 (0.291329)
Outpt time (%) = 0.000750196 (4.77945e-05)
Other time (%) = 1562.32 (99.5341)

Nlocal:    12.525 ave 202 max 0 min
Histogram: 36 0 2 0 0 0 0 1 0 1
Nghost:    5.675 ave 74 max 0 min
Histogram: 36 0 0 0 1 0 1 0 1 1
Neighs:    3.525 ave 79 max 0 min
Histogram: 36 2 0 0 1 0 0 0 0 1

Total # of neighbors = 141
Ave neighs/atom = 0.281437
Neighbor list builds = 7398
Dangerous builds = 180
write_dump all custom dump.atom_info_ac_* id type x y z radius vx vy vz density #
run 154320
Setting up run at Tue Jan  3 01:05:23 2023

Memory usage per processor = 958.989 Mbytes
    Step    Atoms         KinEng            CPU 
 3395042      501     0.35225219              0 
 3549362      499     0.30490151      1577.9291 
Loop time of 1577.93 on 40 procs for 154320 steps with 499 atoms, finish time Tue Jan  3 01:31:41 2023


Pair  time (%) = 0.337084 (0.0213624)
Neigh time (%) = 2.88085 (0.182572)
Comm  time (%) = 6.45609 (0.409149)
Outpt time (%) = 0.000614963 (3.89728e-05)
Other time (%) = 1568.25 (99.3869)

Nlocal:    12.475 ave 202 max 0 min
Histogram: 36 0 2 0 0 0 0 1 0 1
Nghost:    5.7 ave 77 max 0 min
Histogram: 36 0 0 0 1 1 0 0 1 1
Neighs:    3.175 ave 72 max 0 min
Histogram: 36 2 0 0 1 0 0 0 0 1

Total # of neighbors = 127
Ave neighs/atom = 0.254509
Neighbor list builds = 8872
Dangerous builds = 3
write_dump all custom dump.atom_info_ac_* id type x y z radius vx vy vz density #
run 154320
Setting up run at Tue Jan  3 01:31:41 2023

Memory usage per processor = 958.989 Mbytes
    Step    Atoms         KinEng            CPU 
 3549362      499     0.30490151              0 
 3703682      498     0.48427227      1565.1003 
Loop time of 1565.1 on 40 procs for 154320 steps with 498 atoms, finish time Tue Jan  3 01:57:46 2023


Pair  time (%) = 0.334558 (0.0213761)
Neigh time (%) = 2.11355 (0.135042)
Comm  time (%) = 5.33364 (0.340786)
Outpt time (%) = 0.000727228 (4.64652e-05)
Other time (%) = 1557.32 (99.5027)

Nlocal:    12.45 ave 198 max 0 min
Histogram: 36 0 2 0 0 0 0 1 0 1
Nghost:    5.75 ave 76 max 0 min
Histogram: 36 0 0 0 0 2 0 0 1 1
Neighs:    3.15 ave 69 max 0 min
Histogram: 36 2 0 0 0 1 0 0 0 1

Total # of neighbors = 126
Ave neighs/atom = 0.253012
Neighbor list builds = 6540
Dangerous builds = 0
write_dump all custom dump.atom_info_ac_* id type x y z radius vx vy vz density #
run 154320
Setting up run at Tue Jan  3 01:57:46 2023

Memory usage per processor = 958.989 Mbytes
    Step    Atoms         KinEng            CPU 
 3703682      498     0.48427227              0 
 3858002      494      0.3412932      1585.7598 
Loop time of 1585.76 on 40 procs for 154320 steps with 494 atoms, finish time Tue Jan  3 02:24:12 2023


Pair  time (%) = 0.338948 (0.0213745)
Neigh time (%) = 2.86415 (0.180617)
Comm  time (%) = 6.77523 (0.427254)
Outpt time (%) = 0.000711639 (4.48769e-05)
Other time (%) = 1575.78 (99.3707)

Nlocal:    12.35 ave 190 max 0 min
Histogram: 36 0 2 0 0 0 0 0 1 1
Nghost:    5.675 ave 70 max 0 min
Histogram: 36 0 0 0 0 1 1 0 0 2
Neighs:    3.225 ave 71 max 0 min
Histogram: 37 1 0 0 0 1 0 0 0 1

Total # of neighbors = 129
Ave neighs/atom = 0.261134
Neighbor list builds = 9088
Dangerous builds = 855
write_dump all custom dump.atom_info_ac_* id type x y z radius vx vy vz density #
run 154320
Setting up run at Tue Jan  3 02:24:12 2023

Memory usage per processor = 958.989 Mbytes
    Step    Atoms         KinEng            CPU 
 3858002      494      0.3412932              0 
 4012322      489     0.44929401       1563.736 
Loop time of 1563.74 on 40 procs for 154320 steps with 489 atoms, finish time Tue Jan  3 02:50:15 2023


Pair  time (%) = 0.333412 (0.0213215)
Neigh time (%) = 1.92799 (0.123294)
Comm  time (%) = 4.88439 (0.312354)
Outpt time (%) = 0.000726287 (4.64456e-05)
Other time (%) = 1556.59 (99.543)

Nlocal:    12.225 ave 185 max 0 min
Histogram: 35 1 2 0 0 0 0 0 1 1
Nghost:    5.525 ave 66 max 0 min
Histogram: 36 0 0 0 0 1 0 1 0 2
Neighs:    3.025 ave 62 max 0 min
Histogram: 36 2 0 0 0 0 1 0 0 1

Total # of neighbors = 121
Ave neighs/atom = 0.247444
Neighbor list builds = 6115
Dangerous builds = 766
write_dump all custom dump.atom_info_ac_* id type x y z radius vx vy vz density #
run 154320
Setting up run at Tue Jan  3 02:50:15 2023

Memory usage per processor = 958.989 Mbytes
    Step    Atoms         KinEng            CPU 
 4012322      489     0.44929401              0 
 4166642      483     0.44306991      1567.3519 
Loop time of 1567.35 on 40 procs for 154320 steps with 483 atoms, finish time Tue Jan  3 03:16:23 2023


Pair  time (%) = 0.333181 (0.0212576)
Neigh time (%) = 2.2832 (0.145672)
Comm  time (%) = 5.43624 (0.346842)
Outpt time (%) = 0.000680895 (4.34424e-05)
Other time (%) = 1559.3 (99.4862)

Nlocal:    12.075 ave 177 max 0 min
Histogram: 36 0 2 0 0 0 0 0 1 1
Nghost:    5.5 ave 64 max 0 min
Histogram: 36 0 0 0 0 1 0 1 0 2
Neighs:    3.05 ave 63 max 0 min
Histogram: 36 2 0 0 0 0 1 0 0 1

Total # of neighbors = 122
Ave neighs/atom = 0.252588
Neighbor list builds = 7104
Dangerous builds = 9
write_dump all custom dump.atom_info_ac_* id type x y z radius vx vy vz density #
run 154320
Setting up run at Tue Jan  3 03:16:23 2023

Memory usage per processor = 958.989 Mbytes
    Step    Atoms         KinEng            CPU 
 4166642      483     0.44306991              0 
 4320962      483     0.64846627      1559.0593 
Loop time of 1559.06 on 40 procs for 154320 steps with 483 atoms, finish time Tue Jan  3 03:42:22 2023


Pair  time (%) = 0.33016 (0.0211769)
Neigh time (%) = 1.72151 (0.11042)
Comm  time (%) = 4.55522 (0.292177)
Outpt time (%) = 0.000703647 (4.51328e-05)
Other time (%) = 1552.45 (99.5762)

Nlocal:    12.075 ave 172 max 0 min
Histogram: 35 1 2 0 0 0 0 0 1 1
Nghost:    5.55 ave 66 max 0 min
Histogram: 36 0 0 0 0 1 0 1 0 2
Neighs:    2.95 ave 52 max 0 min
Histogram: 36 1 1 0 0 0 0 0 1 1

Total # of neighbors = 118
Ave neighs/atom = 0.244306
Neighbor list builds = 5229
Dangerous builds = 0
write_dump all custom dump.atom_info_ac_* id type x y z radius vx vy vz density #
run 154320
Setting up run at Tue Jan  3 03:42:22 2023

Memory usage per processor = 958.989 Mbytes
    Step    Atoms         KinEng            CPU 
 4320962      483     0.64846627              0 
 4475282      479     0.42701213      1572.2423 
Loop time of 1572.24 on 40 procs for 154320 steps with 479 atoms, finish time Tue Jan  3 04:08:34 2023


Pair  time (%) = 0.327549 (0.0208332)
Neigh time (%) = 2.01783 (0.128341)
Comm  time (%) = 5.33527 (0.339342)
Outpt time (%) = 0.00320835 (0.000204062)
Other time (%) = 1564.56 (99.5113)

Nlocal:    11.975 ave 166 max 0 min
Histogram: 36 0 1 1 0 0 0 0 0 2
Nghost:    5.35 ave 67 max 0 min
Histogram: 36 0 0 0 0 2 0 0 0 2
Neighs:    3.025 ave 54 max 0 min
Histogram: 36 1 1 0 0 0 0 0 1 1

Total # of neighbors = 121
Ave neighs/atom = 0.25261
Neighbor list builds = 6454
Dangerous builds = 934
write_dump all custom dump.atom_info_ac_* id type x y z radius vx vy vz density #
run 154320
Setting up run at Tue Jan  3 04:08:34 2023

Memory usage per processor = 958.989 Mbytes
    Step    Atoms         KinEng            CPU 
 4475282      479     0.42701213              0 
 4629602      475      0.7387891      1587.7343 
Loop time of 1587.73 on 40 procs for 154320 steps with 475 atoms, finish time Tue Jan  3 04:35:02 2023


Pair  time (%) = 0.335328 (0.0211199)
Neigh time (%) = 3.2732 (0.206156)
Comm  time (%) = 7.57433 (0.477053)
Outpt time (%) = 0.000658857 (4.14967e-05)
Other time (%) = 1576.55 (99.2956)

Nlocal:    11.875 ave 164 max 0 min
Histogram: 35 1 2 0 0 0 0 0 0 2
Nghost:    5.325 ave 63 max 0 min
Histogram: 36 0 0 0 0 0 2 0 0 2
Neighs:    3.075 ave 52 max 0 min
Histogram: 36 0 2 0 0 0 0 0 1 1

Total # of neighbors = 123
Ave neighs/atom = 0.258947
Neighbor list builds = 10144
Dangerous builds = 231
write_dump all custom dump.atom_info_ac_* id type x y z radius vx vy vz density #
run 154320
Setting up run at Tue Jan  3 04:35:02 2023

Memory usage per processor = 958.989 Mbytes
    Step    Atoms         KinEng            CPU 
 4629602      475      0.7387891              0 
 4783922      473     0.72966588      1578.5958 
Loop time of 1578.6 on 40 procs for 154320 steps with 473 atoms, finish time Tue Jan  3 05:01:21 2023


Pair  time (%) = 0.327041 (0.0207172)
Neigh time (%) = 2.83956 (0.179879)
Comm  time (%) = 8.01289 (0.507596)
Outpt time (%) = 0.000620887 (3.93316e-05)
Other time (%) = 1567.42 (99.2918)

Nlocal:    11.825 ave 160 max 0 min
Histogram: 35 1 1 1 0 0 0 0 0 2
Nghost:    5.175 ave 64 max 0 min
Histogram: 36 0 0 0 0 1 1 0 0 2
Neighs:    3.275 ave 60 max 0 min
Histogram: 36 1 1 0 0 0 0 0 1 1

Total # of neighbors = 131
Ave neighs/atom = 0.276956
Neighbor list builds = 8730
Dangerous builds = 1
write_dump all custom dump.atom_info_ac_* id type x y z radius vx vy vz density #
run 154320
Setting up run at Tue Jan  3 05:01:21 2023

Memory usage per processor = 958.989 Mbytes
    Step    Atoms         KinEng            CPU 
 4783922      473     0.72966588              0 
 4938242      471     0.45242459      1580.7454 
Loop time of 1580.75 on 40 procs for 154320 steps with 471 atoms, finish time Tue Jan  3 05:27:42 2023


Pair  time (%) = 0.329544 (0.0208474)
Neigh time (%) = 2.78251 (0.176025)
Comm  time (%) = 7.93466 (0.501957)
Outpt time (%) = 0.000749595 (4.74204e-05)
Other time (%) = 1569.7 (99.3011)

Nlocal:    11.775 ave 161 max 0 min
Histogram: 35 1 2 0 0 0 0 0 0 2
Nghost:    5.225 ave 61 max 0 min
Histogram: 36 0 0 0 0 1 0 1 0 2
Neighs:    3.125 ave 61 max 0 min
Histogram: 36 2 0 0 0 0 0 1 0 1

Total # of neighbors = 125
Ave neighs/atom = 0.265393
Neighbor list builds = 8997
Dangerous builds = 1788
write_dump all custom dump.atom_info_ac_* id type x y z radius vx vy vz density #
run 154320
Setting up run at Tue Jan  3 05:27:42 2023

Memory usage per processor = 958.989 Mbytes
    Step    Atoms         KinEng            CPU 
 4938242      471     0.45242459              0 
 5092562      469     0.44634849      1606.0467 
Loop time of 1606.05 on 40 procs for 154320 steps with 469 atoms, finish time Tue Jan  3 05:54:28 2023


Pair  time (%) = 0.333511 (0.0207659)
Neigh time (%) = 3.78572 (0.235717)
Comm  time (%) = 7.69489 (0.47912)
Outpt time (%) = 0.00065483 (4.07728e-05)
Other time (%) = 1594.23 (99.2644)

Nlocal:    11.725 ave 160 max 0 min
Histogram: 34 2 2 0 0 0 0 0 0 2
Nghost:    4.975 ave 54 max 0 min
Histogram: 36 0 0 0 0 0 1 0 1 2
Neighs:    3.25 ave 60 max 0 min
Histogram: 36 2 0 0 0 0 0 0 1 1

Total # of neighbors = 130
Ave neighs/atom = 0.277186
Neighbor list builds = 11636
Dangerous builds = 566
write_dump all custom dump.atom_info_ac_* id type x y z radius vx vy vz density #
run 154320
Setting up run at Tue Jan  3 05:54:28 2023

Memory usage per processor = 958.989 Mbytes
    Step    Atoms         KinEng            CPU 
 5092562      469     0.44634849              0 
 5246882      467     0.55206888      1585.7267 
Loop time of 1585.74 on 40 procs for 154320 steps with 467 atoms, finish time Tue Jan  3 06:20:54 2023


Pair  time (%) = 0.328054 (0.0206877)
Neigh time (%) = 2.65498 (0.167428)
Comm  time (%) = 6.00003 (0.378373)
Outpt time (%) = 0.000631629 (3.98317e-05)
Other time (%) = 1576.76 (99.4335)

Nlocal:    11.675 ave 163 max 0 min
Histogram: 35 1 2 0 0 0 0 0 0 2
Nghost:    4.975 ave 56 max 0 min
Histogram: 36 0 0 0 0 1 0 0 1 2
Neighs:    3.525 ave 63 max 0 min
Histogram: 36 2 0 0 0 0 0 0 0 2

Total # of neighbors = 141
Ave neighs/atom = 0.301927
Neighbor list builds = 8367
Dangerous builds = 1118
write_dump all custom dump.atom_info_ac_* id type x y z radius vx vy vz density #
run 154320
Setting up run at Tue Jan  3 06:20:54 2023

Memory usage per processor = 958.989 Mbytes
    Step    Atoms         KinEng            CPU 
 5246882      467     0.55206888              0 
 5401202      462     0.57835312      1574.8843 
Loop time of 1574.88 on 40 procs for 154320 steps with 462 atoms, finish time Tue Jan  3 06:47:09 2023


Pair  time (%) = 0.322414 (0.0204722)
Neigh time (%) = 2.35205 (0.149348)
Comm  time (%) = 5.61445 (0.356499)
Outpt time (%) = 0.00311188 (0.000197594)
Other time (%) = 1566.59 (99.4735)

Nlocal:    11.55 ave 161 max 0 min
Histogram: 35 1 2 0 0 0 0 0 0 2
Nghost:    4.85 ave 54 max 0 min
Histogram: 36 0 0 0 0 0 1 0 1 2
Neighs:    3.25 ave 55 max 0 min
Histogram: 36 2 0 0 0 0 0 0 0 2

Total # of neighbors = 130
Ave neighs/atom = 0.281385
Neighbor list builds = 7321
Dangerous builds = 443
write_dump all custom dump.atom_info_ac_* id type x y z radius vx vy vz density #
run 154320
Setting up run at Tue Jan  3 06:47:09 2023

Memory usage per processor = 958.989 Mbytes
    Step    Atoms         KinEng            CPU 
 5401202      462     0.57835312              0 
 5555522      457      0.4863512      1587.4123 
Loop time of 1587.41 on 40 procs for 154320 steps with 457 atoms, finish time Tue Jan  3 07:13:36 2023


Pair  time (%) = 0.323764 (0.0203957)
Neigh time (%) = 3.01908 (0.190189)
Comm  time (%) = 7.08375 (0.446245)
Outpt time (%) = 0.00227837 (0.000143527)
Other time (%) = 1576.98 (99.343)

Nlocal:    11.425 ave 160 max 0 min
Histogram: 35 1 1 1 0 0 0 0 0 2
Nghost:    4.525 ave 53 max 0 min
Histogram: 36 0 0 0 0 1 0 1 0 2
Neighs:    2.675 ave 49 max 0 min
Histogram: 37 1 0 0 0 0 0 0 0 2

Total # of neighbors = 107
Ave neighs/atom = 0.234136
Neighbor list builds = 9186
Dangerous builds = 308
write_dump all custom dump.atom_info_ac_* id type x y z radius vx vy vz density #
run 154320
Setting up run at Tue Jan  3 07:13:36 2023

Memory usage per processor = 958.989 Mbytes
    Step    Atoms         KinEng            CPU 
 5555522      457      0.4863512              0 
 5709842      450     0.40386017      1596.0164 
Loop time of 1596.02 on 40 procs for 154320 steps with 450 atoms, finish time Tue Jan  3 07:40:12 2023


Pair  time (%) = 0.325015 (0.0203641)
Neigh time (%) = 3.5091 (0.219866)
Comm  time (%) = 8.65886 (0.542529)
Outpt time (%) = 0.000741191 (4.64401e-05)
Other time (%) = 1583.52 (99.2172)

Nlocal:    11.25 ave 160 max 0 min
Histogram: 35 1 2 0 0 0 0 0 0 2
Nghost:    4.475 ave 51 max 0 min
Histogram: 36 0 0 0 0 0 1 1 0 2
Neighs:    2.4 ave 44 max 0 min
Histogram: 37 1 0 0 0 0 0 0 0 2

Total # of neighbors = 96
Ave neighs/atom = 0.213333
Neighbor list builds = 10935
Dangerous builds = 796
write_dump all custom dump.atom_info_ac_* id type x y z radius vx vy vz density #
run 154320
Setting up run at Tue Jan  3 07:40:12 2023

Memory usage per processor = 958.989 Mbytes
    Step    Atoms         KinEng            CPU 
 5709842      450     0.40386017              0 
 5864162      445     0.45436157      1587.5457 
Loop time of 1587.55 on 40 procs for 154320 steps with 445 atoms, finish time Tue Jan  3 08:06:40 2023


Pair  time (%) = 0.323684 (0.020389)
Neigh time (%) = 3.27831 (0.206502)
Comm  time (%) = 6.82492 (0.429904)
Outpt time (%) = 0.000678771 (4.2756e-05)
Other time (%) = 1577.12 (99.3432)

Nlocal:    11.125 ave 158 max 0 min
Histogram: 35 1 2 0 0 0 0 0 1 1
Nghost:    4.3 ave 52 max 0 min
Histogram: 36 0 0 0 0 1 1 0 0 2
Neighs:    2.25 ave 48 max 0 min
Histogram: 37 1 0 0 0 0 0 1 0 1

Total # of neighbors = 90
Ave neighs/atom = 0.202247
Neighbor list builds = 9861
Dangerous builds = 0
write_dump all custom dump.atom_info_ac_* id type x y z radius vx vy vz density #
run 154320
Setting up run at Tue Jan  3 08:06:40 2023

Memory usage per processor = 958.989 Mbytes
    Step    Atoms         KinEng            CPU 
 5864162      445     0.45436157              0 
 6018482      435     0.79695177      1595.7636 
Loop time of 1595.76 on 40 procs for 154320 steps with 435 atoms, finish time Tue Jan  3 08:33:16 2023


Pair  time (%) = 0.323213 (0.0202544)
Neigh time (%) = 3.54351 (0.222057)
Comm  time (%) = 8.57843 (0.537575)
Outpt time (%) = 0.00064376 (4.03418e-05)
Other time (%) = 1583.32 (99.2201)

Nlocal:    10.875 ave 149 max 0 min
Histogram: 35 1 1 1 0 0 0 0 0 2
Nghost:    4.45 ave 54 max 0 min
Histogram: 36 0 0 0 0 1 1 0 1 1
Neighs:    2.275 ave 42 max 0 min
Histogram: 37 1 0 0 0 0 0 0 0 2

Total # of neighbors = 91
Ave neighs/atom = 0.209195
Neighbor list builds = 11082
Dangerous builds = 842
write_dump all custom dump.atom_info_ac_* id type x y z radius vx vy vz density #
run 154320
Setting up run at Tue Jan  3 08:33:16 2023

Memory usage per processor = 958.989 Mbytes
    Step    Atoms         KinEng            CPU 
 6018482      435     0.79695177              0 
 6172802      429     0.49497184      1578.7631 
Loop time of 1578.76 on 40 procs for 154320 steps with 429 atoms, finish time Tue Jan  3 08:59:34 2023


Pair  time (%) = 0.318787 (0.0201922)
Neigh time (%) = 2.76567 (0.175179)
Comm  time (%) = 7.18647 (0.455196)
Outpt time (%) = 0.00308786 (0.000195588)
Other time (%) = 1568.49 (99.3492)

Nlocal:    10.725 ave 152 max 0 min
Histogram: 36 0 2 0 0 0 0 0 1 1
Nghost:    4.3 ave 54 max 0 min
Histogram: 36 0 0 0 0 1 1 0 1 1
Neighs:    2.475 ave 48 max 0 min
Histogram: 37 1 0 0 0 0 0 0 1 1

Total # of neighbors = 99
Ave neighs/atom = 0.230769
Neighbor list builds = 8444
Dangerous builds = 2
write_dump all custom dump.atom_info_ac_* id type x y z radius vx vy vz density #
run 154320
Setting up run at Tue Jan  3 08:59:35 2023

Memory usage per processor = 958.989 Mbytes
    Step    Atoms         KinEng            CPU 
 6172802      429     0.49497184              0 
 6327122      423     0.34901034      1616.9091 
Loop time of 1616.91 on 40 procs for 154320 steps with 423 atoms, finish time Tue Jan  3 09:26:31 2023


Pair  time (%) = 0.32705 (0.0202269)
Neigh time (%) = 4.19931 (0.259712)
Comm  time (%) = 9.83731 (0.608402)
Outpt time (%) = 0.00072438 (4.48003e-05)
Other time (%) = 1602.55 (99.1116)

Nlocal:    10.575 ave 166 max 0 min
Histogram: 35 2 1 0 0 0 1 0 0 1
Nghost:    4.5 ave 56 max 0 min
Histogram: 36 0 0 0 0 1 1 0 1 1
Neighs:    2.1 ave 48 max 0 min
Histogram: 37 1 0 0 0 1 0 0 0 1

Total # of neighbors = 84
Ave neighs/atom = 0.198582
Neighbor list builds = 13172
Dangerous builds = 415
write_dump all custom dump.atom_info_ac_* id type x y z radius vx vy vz density #
run 154320
Setting up run at Tue Jan  3 09:26:31 2023

Memory usage per processor = 958.989 Mbytes
    Step    Atoms         KinEng            CPU 
 6327122      423     0.34901034              0 
 6481442      408     0.65498172       1620.432 
Loop time of 1620.43 on 40 procs for 154320 steps with 408 atoms, finish time Tue Jan  3 09:53:32 2023


Pair  time (%) = 0.31646 (0.0195293)
Neigh time (%) = 2.94025 (0.181449)
Comm  time (%) = 6.8028 (0.419814)
Outpt time (%) = 0.000650084 (4.01179e-05)
Other time (%) = 1610.37 (99.3792)

Nlocal:    10.2 ave 163 max 0 min
Histogram: 35 2 1 0 0 0 0 1 0 1
Nghost:    4.125 ave 50 max 0 min
Histogram: 36 0 0 0 1 0 0 1 0 2
Neighs:    2.025 ave 47 max 0 min
Histogram: 37 1 0 0 0 1 0 0 0 1

Total # of neighbors = 81
Ave neighs/atom = 0.198529
Neighbor list builds = 9482
Dangerous builds = 1779
write_dump all custom dump.atom_info_ac_* id type x y z radius vx vy vz density #
run 154320
Setting up run at Tue Jan  3 09:53:32 2023

Memory usage per processor = 958.989 Mbytes
    Step    Atoms         KinEng            CPU 
 6481442      408     0.65498172              0 
 6635762      405     0.59712851      1601.8588 
Loop time of 1601.86 on 40 procs for 154320 steps with 405 atoms, finish time Tue Jan  3 10:20:14 2023


Pair  time (%) = 0.315552 (0.0196991)
Neigh time (%) = 3.06686 (0.191456)
Comm  time (%) = 7.42748 (0.463678)
Outpt time (%) = 0.00071532 (4.46556e-05)
Other time (%) = 1591.05 (99.3251)

Nlocal:    10.125 ave 153 max 0 min
Histogram: 35 1 2 0 0 0 0 1 0 1
Nghost:    4.4 ave 51 max 0 min
Histogram: 36 0 0 0 0 1 0 0 1 2
Neighs:    2.2 ave 45 max 0 min
Histogram: 36 2 0 0 0 0 1 0 0 1

Total # of neighbors = 88
Ave neighs/atom = 0.217284
Neighbor list builds = 9247
Dangerous builds = 7
write_dump all custom dump.atom_info_ac_* id type x y z radius vx vy vz density #
run 154320
Setting up run at Tue Jan  3 10:20:14 2023

Memory usage per processor = 958.989 Mbytes
    Step    Atoms         KinEng            CPU 
 6635762      405     0.59712851              0 
 6790082      401     0.57331113      1573.3446 
Loop time of 1573.34 on 40 procs for 154320 steps with 401 atoms, finish time Tue Jan  3 10:46:27 2023


Pair  time (%) = 0.309124 (0.0196476)
Neigh time (%) = 2.80028 (0.177983)
Comm  time (%) = 6.99164 (0.44438)
Outpt time (%) = 0.000722176 (4.59007e-05)
Other time (%) = 1563.24 (99.3579)

Nlocal:    10.025 ave 146 max 0 min
Histogram: 35 1 2 0 0 0 0 0 1 1
Nghost:    4.125 ave 53 max 0 min
Histogram: 36 0 0 0 0 1 1 1 0 1
Neighs:    1.7 ave 37 max 0 min
Histogram: 36 2 0 0 0 1 0 0 0 1

Total # of neighbors = 68
Ave neighs/atom = 0.169576
Neighbor list builds = 8335
Dangerous builds = 1
write_dump all custom dump.atom_info_ac_* id type x y z radius vx vy vz density #
run 154320
Setting up run at Tue Jan  3 10:46:27 2023

Memory usage per processor = 958.989 Mbytes
    Step    Atoms         KinEng            CPU 
 6790082      401     0.57331113              0 
 6944402      398     0.53027106      1582.0274 
Loop time of 1582.03 on 40 procs for 154320 steps with 398 atoms, finish time Tue Jan  3 11:12:49 2023


Pair  time (%) = 0.313733 (0.0198311)
Neigh time (%) = 2.86165 (0.180885)
Comm  time (%) = 5.50922 (0.348238)
Outpt time (%) = 0.000768171 (4.85561e-05)
Other time (%) = 1573.34 (99.451)

Nlocal:    9.95 ave 135 max 0 min
Histogram: 33 3 2 0 0 0 0 0 0 2
Nghost:    4.125 ave 51 max 0 min
Histogram: 36 0 0 0 0 1 1 1 0 1
Neighs:    1.625 ave 31 max 0 min
Histogram: 36 2 0 0 0 0 0 1 0 1

Total # of neighbors = 65
Ave neighs/atom = 0.163317
Neighbor list builds = 8502
Dangerous builds = 0
write_dump all custom dump.atom_info_ac_* id type x y z radius vx vy vz density #
run 154320
Setting up run at Tue Jan  3 11:12:49 2023

Memory usage per processor = 958.989 Mbytes
    Step    Atoms         KinEng            CPU 
 6944402      398     0.53027106              0 
 7098722      395     0.47735358      1586.5968 
Loop time of 1586.6 on 40 procs for 154320 steps with 395 atoms, finish time Tue Jan  3 11:39:16 2023


Pair  time (%) = 0.314346 (0.0198126)
Neigh time (%) = 2.94852 (0.185839)
Comm  time (%) = 6.4012 (0.403455)
Outpt time (%) = 0.000726019 (4.57595e-05)
Other time (%) = 1576.93 (99.3908)

Nlocal:    9.875 ave 139 max 0 min
Histogram: 33 3 2 0 0 0 0 0 1 1
Nghost:    3.825 ave 44 max 0 min
Histogram: 36 0 0 0 0 1 0 0 1 2
Neighs:    1.825 ave 35 max 0 min
Histogram: 36 1 1 0 0 0 1 0 0 1

Total # of neighbors = 73
Ave neighs/atom = 0.18481
Neighbor list builds = 8889
Dangerous builds = 1
write_dump all custom dump.atom_info_ac_* id type x y z radius vx vy vz density #
run 154320
Setting up run at Tue Jan  3 11:39:16 2023

Memory usage per processor = 958.989 Mbytes
    Step    Atoms         KinEng            CPU 
 7098722      395     0.47735358              0 
 7253042      389     0.52287461      1562.8153 
Loop time of 1562.82 on 40 procs for 154320 steps with 389 atoms, finish time Tue Jan  3 12:05:19 2023


Pair  time (%) = 0.314279 (0.0201098)
Neigh time (%) = 2.56419 (0.164075)
Comm  time (%) = 6.93535 (0.443773)
Outpt time (%) = 0.00081455 (5.21207e-05)
Other time (%) = 1553 (99.372)

Nlocal:    9.725 ave 134 max 0 min
Histogram: 33 3 2 0 0 0 0 0 1 1
Nghost:    4.125 ave 50 max 0 min
Histogram: 36 0 0 0 0 1 1 0 1 1
Neighs:    1.525 ave 27 max 0 min
Histogram: 36 1 0 0 1 0 1 0 0 1

Total # of neighbors = 61
Ave neighs/atom = 0.156812
Neighbor list builds = 7871
Dangerous builds = 148
write_dump all custom dump.atom_info_ac_* id type x y z radius vx vy vz density #
run 154320
Setting up run at Tue Jan  3 12:05:19 2023

Memory usage per processor = 958.989 Mbytes
    Step    Atoms         KinEng            CPU 
 7253042      389     0.52287461              0 
 7407362      385     0.48980592      1576.1542 
Loop time of 1576.15 on 40 procs for 154320 steps with 385 atoms, finish time Tue Jan  3 12:31:35 2023


Pair  time (%) = 0.313316 (0.0198785)
Neigh time (%) = 2.54548 (0.161499)
Comm  time (%) = 7.00941 (0.444716)
Outpt time (%) = 0.000757961 (4.80892e-05)
Other time (%) = 1566.29 (99.3739)

Nlocal:    9.625 ave 142 max 0 min
Histogram: 33 3 2 0 0 0 0 1 0 1
Nghost:    3.825 ave 45 max 0 min
Histogram: 36 0 0 0 0 1 0 1 1 1
Neighs:    1.725 ave 33 max 0 min
Histogram: 36 0 1 1 1 0 0 0 0 1

Total # of neighbors = 69
Ave neighs/atom = 0.179221
Neighbor list builds = 8017
Dangerous builds = 616
write_dump all custom dump.atom_info_ac_* id type x y z radius vx vy vz density #
run 154320
Setting up run at Tue Jan  3 12:31:35 2023

Memory usage per processor = 958.989 Mbytes
    Step    Atoms         KinEng            CPU 
 7407362      385     0.48980592              0 
 7561682      379     0.52585024      1585.1952 
Loop time of 1585.2 on 40 procs for 154320 steps with 379 atoms, finish time Tue Jan  3 12:58:00 2023


Pair  time (%) = 0.315469 (0.0199009)
Neigh time (%) = 3.46412 (0.218529)
Comm  time (%) = 8.08311 (0.509912)
Outpt time (%) = 0.000702016 (4.42858e-05)
Other time (%) = 1573.33 (99.2516)

Nlocal:    9.475 ave 146 max 0 min
Histogram: 33 3 2 0 0 0 1 0 0 1
Nghost:    3.7 ave 46 max 0 min
Histogram: 36 0 0 0 1 0 0 2 0 1
Neighs:    1.6 ave 29 max 0 min
Histogram: 36 1 0 0 0 2 0 0 0 1

Total # of neighbors = 64
Ave neighs/atom = 0.168865
Neighbor list builds = 10505
Dangerous builds = 74
write_dump all custom dump.atom_info_ac_* id type x y z radius vx vy vz density #
run 154320
Setting up run at Tue Jan  3 12:58:01 2023

Memory usage per processor = 958.989 Mbytes
    Step    Atoms         KinEng            CPU 
 7561682      379     0.52585024              0 
 7716002      377      1.0808409      1587.7019 
Loop time of 1587.7 on 40 procs for 154320 steps with 377 atoms, finish time Tue Jan  3 13:24:28 2023


Pair  time (%) = 0.311161 (0.0195982)
Neigh time (%) = 3.313 (0.208666)
Comm  time (%) = 8.71247 (0.548747)
Outpt time (%) = 0.000675606 (4.25524e-05)
Other time (%) = 1575.36 (99.2229)

Nlocal:    9.425 ave 142 max 0 min
Histogram: 33 3 2 0 0 0 1 0 0 1
Nghost:    3.825 ave 51 max 0 min
Histogram: 36 0 0 0 1 0 1 1 0 1
Neighs:    1.625 ave 28 max 0 min
Histogram: 36 1 0 0 0 2 0 0 0 1

Total # of neighbors = 65
Ave neighs/atom = 0.172414
Neighbor list builds = 10190
Dangerous builds = 487
write_dump all custom dump.atom_info_ac_* id type x y z radius vx vy vz density #
run 154320
Setting up run at Tue Jan  3 13:24:28 2023

Memory usage per processor = 958.989 Mbytes
    Step    Atoms         KinEng            CPU 
 7716002      377      1.0808409              0 
 7870322      368     0.49011849      1580.9494 
Loop time of 1580.95 on 40 procs for 154320 steps with 368 atoms, finish time Tue Jan  3 13:50:49 2023


Pair  time (%) = 0.309342 (0.0195668)
Neigh time (%) = 3.17655 (0.200927)
Comm  time (%) = 9.04279 (0.571985)
Outpt time (%) = 0.000596812 (3.77502e-05)
Other time (%) = 1568.42 (99.2075)

Nlocal:    9.2 ave 131 max 0 min
Histogram: 35 1 0 2 0 0 0 1 0 1
Nghost:    3.625 ave 47 max 0 min
Histogram: 36 0 0 0 1 0 1 0 1 1
Neighs:    1.475 ave 25 max 0 min
Histogram: 36 0 1 0 1 0 1 0 0 1

Total # of neighbors = 59
Ave neighs/atom = 0.160326
Neighbor list builds = 9892
Dangerous builds = 501
write_dump all custom dump.atom_info_ac_* id type x y z radius vx vy vz density #
run 154320
Setting up run at Tue Jan  3 13:50:49 2023

Memory usage per processor = 958.989 Mbytes
    Step    Atoms         KinEng            CPU 
 7870322      368     0.49011849              0 
 8024642      365     0.65254985      1596.5257 
Loop time of 1596.53 on 40 procs for 154320 steps with 365 atoms, finish time Tue Jan  3 14:17:26 2023


Pair  time (%) = 0.310637 (0.0194571)
Neigh time (%) = 3.75275 (0.235057)
Comm  time (%) = 10.3947 (0.651083)
Outpt time (%) = 0.000733958 (4.59722e-05)
Other time (%) = 1582.07 (99.0944)

Nlocal:    9.125 ave 124 max 0 min
Histogram: 34 2 1 1 0 0 0 0 1 1
Nghost:    3.675 ave 46 max 0 min
Histogram: 36 0 0 0 0 1 1 0 1 1
Neighs:    1.375 ave 24 max 0 min
Histogram: 36 0 1 1 0 0 1 0 0 1

Total # of neighbors = 55
Ave neighs/atom = 0.150685
Neighbor list builds = 11488
Dangerous builds = 181
write_dump all custom dump.atom_info_ac_* id type x y z radius vx vy vz density #
run 154320
Setting up run at Tue Jan  3 14:17:26 2023

Memory usage per processor = 958.989 Mbytes
    Step    Atoms         KinEng            CPU 
 8024642      365     0.65254985              0 
 8178962      357     0.51236908      1580.9229 
Loop time of 1580.92 on 40 procs for 154320 steps with 357 atoms, finish time Tue Jan  3 14:43:47 2023


Pair  time (%) = 0.30475 (0.0192767)
Neigh time (%) = 2.86659 (0.181324)
Comm  time (%) = 7.64062 (0.483301)
Outpt time (%) = 0.000630964 (3.99111e-05)
Other time (%) = 1570.11 (99.3161)

Nlocal:    8.925 ave 126 max 0 min
Histogram: 33 3 2 0 0 0 0 1 0 1
Nghost:    3.6 ave 46 max 0 min
Histogram: 36 0 0 0 1 0 1 0 1 1
Neighs:    1.425 ave 22 max 0 min
Histogram: 36 0 1 0 1 0 0 1 0 1

Total # of neighbors = 57
Ave neighs/atom = 0.159664
Neighbor list builds = 8737
Dangerous builds = 42
write_dump all custom dump.atom_info_ac_* id type x y z radius vx vy vz density #
run 154320
Setting up run at Tue Jan  3 14:43:47 2023

Memory usage per processor = 958.989 Mbytes
    Step    Atoms         KinEng            CPU 
 8178962      357     0.51236908              0 
 8333282      351     0.54875152      1576.1477 
Loop time of 1576.15 on 40 procs for 154320 steps with 351 atoms, finish time Tue Jan  3 15:10:03 2023


Pair  time (%) = 0.304788 (0.0193375)
Neigh time (%) = 2.86954 (0.18206)
Comm  time (%) = 8.86464 (0.562425)
Outpt time (%) = 0.000687653 (4.36287e-05)
Other time (%) = 1564.11 (99.2361)

Nlocal:    8.775 ave 126 max 0 min
Histogram: 34 2 1 1 0 0 0 1 0 1
Nghost:    3.4 ave 38 max 0 min
Histogram: 36 0 0 0 0 0 1 1 0 2
Neighs:    1.3 ave 26 max 0 min
Histogram: 36 0 1 2 0 0 0 0 0 1

Total # of neighbors = 52
Ave neighs/atom = 0.148148
Neighbor list builds = 8987
Dangerous builds = 158
write_dump all custom dump.atom_info_ac_* id type x y z radius vx vy vz density #
run 154320
Setting up run at Tue Jan  3 15:10:03 2023

Memory usage per processor = 958.989 Mbytes
    Step    Atoms         KinEng            CPU 
 8333282      351     0.54875152              0 
 8487602      346     0.40644525      1582.0204 
Loop time of 1582.02 on 40 procs for 154320 steps with 346 atoms, finish time Tue Jan  3 15:36:25 2023


Pair  time (%) = 0.302877 (0.0191449)
Neigh time (%) = 2.97828 (0.188258)
Comm  time (%) = 9.5644 (0.604569)
Outpt time (%) = 0.000798624 (5.04813e-05)
Other time (%) = 1569.17 (99.188)

Nlocal:    8.65 ave 127 max 0 min
Histogram: 33 3 1 1 0 0 1 0 0 1
Nghost:    3.275 ave 38 max 0 min
Histogram: 36 0 0 0 0 1 0 0 2 1
Neighs:    1.375 ave 24 max 0 min
Histogram: 36 0 0 1 2 0 0 0 0 1

Total # of neighbors = 55
Ave neighs/atom = 0.15896
Neighbor list builds = 9104
Dangerous builds = 25
write_dump all custom dump.atom_info_ac_* id type x y z radius vx vy vz density #
run 154320
Setting up run at Tue Jan  3 15:36:25 2023

Memory usage per processor = 958.989 Mbytes
    Step    Atoms         KinEng            CPU 
 8487602      346     0.40644525              0 
 8641922      345     0.44886554      1566.0728 
Loop time of 1566.07 on 40 procs for 154320 steps with 345 atoms, finish time Tue Jan  3 16:02:31 2023


Pair  time (%) = 0.296672 (0.0189437)
Neigh time (%) = 2.79817 (0.178675)
Comm  time (%) = 6.26146 (0.399819)
Outpt time (%) = 0.00065201 (4.16334e-05)
Other time (%) = 1556.72 (99.4025)

Nlocal:    8.625 ave 121 max 0 min
Histogram: 36 0 1 0 1 0 1 0 0 1
Nghost:    3.175 ave 38 max 0 min
Histogram: 36 0 0 0 0 1 1 0 1 1
Neighs:    1.275 ave 26 max 0 min
Histogram: 36 0 1 2 0 0 0 0 0 1

Total # of neighbors = 51
Ave neighs/atom = 0.147826
Neighbor list builds = 8270
Dangerous builds = 0
write_dump all custom dump.atom_info_ac_* id type x y z radius vx vy vz density #
run 154320
Setting up run at Tue Jan  3 16:02:32 2023

Memory usage per processor = 958.989 Mbytes
    Step    Atoms         KinEng            CPU 
 8641922      345     0.44886554              0 
 8796242      344     0.46501674      1545.2489 
Loop time of 1545.25 on 40 procs for 154320 steps with 344 atoms, finish time Tue Jan  3 16:28:17 2023


Pair  time (%) = 0.289722 (0.0187492)
Neigh time (%) = 1.921 (0.124317)
Comm  time (%) = 5.15574 (0.333651)
Outpt time (%) = 0.000554299 (3.58712e-05)
Other time (%) = 1537.88 (99.5232)

Nlocal:    8.6 ave 122 max 0 min
Histogram: 33 3 2 0 0 0 1 0 0 1
Nghost:    3.025 ave 36 max 0 min
Histogram: 36 0 0 0 0 1 1 0 0 2
Neighs:    1.15 ave 27 max 0 min
Histogram: 36 1 2 0 0 0 0 0 0 1

Total # of neighbors = 46
Ave neighs/atom = 0.133721
Neighbor list builds = 5843
Dangerous builds = 342
write_dump all custom dump.atom_info_ac_* id type x y z radius vx vy vz density #
run 154320
Setting up run at Tue Jan  3 16:28:17 2023

Memory usage per processor = 958.989 Mbytes
    Step    Atoms         KinEng            CPU 
 8796242      344     0.46501674              0 
 8950562      342     0.42603328      1547.2757 
Loop time of 1547.28 on 40 procs for 154320 steps with 342 atoms, finish time Tue Jan  3 16:54:04 2023


Pair  time (%) = 0.291667 (0.0188503)
Neigh time (%) = 1.81191 (0.117103)
Comm  time (%) = 5.66257 (0.36597)
Outpt time (%) = 0.000611119 (3.94965e-05)
Other time (%) = 1539.51 (99.498)

Nlocal:    8.55 ave 123 max 0 min
Histogram: 34 1 2 1 0 0 1 0 0 1
Nghost:    3.175 ave 35 max 0 min
Histogram: 36 0 0 0 0 0 2 0 0 2
Neighs:    1.075 ave 24 max 0 min
Histogram: 36 1 0 2 0 0 0 0 0 1

Total # of neighbors = 43
Ave neighs/atom = 0.125731
Neighbor list builds = 5401
Dangerous builds = 165
write_dump all custom dump.atom_info_ac_* id type x y z radius vx vy vz density #
run 154320
Setting up run at Tue Jan  3 16:54:04 2023

Memory usage per processor = 958.989 Mbytes
    Step    Atoms         KinEng            CPU 
 8950562      342     0.42603328              0 
 9104882      337     0.44260026      1555.2161 
Loop time of 1555.22 on 40 procs for 154320 steps with 337 atoms, finish time Tue Jan  3 17:19:59 2023


Pair  time (%) = 0.296553 (0.0190683)
Neigh time (%) = 2.56642 (0.16502)
Comm  time (%) = 7.30848 (0.469934)
Outpt time (%) = 0.000517815 (3.32953e-05)
Other time (%) = 1545.04 (99.3459)

Nlocal:    8.425 ave 121 max 0 min
Histogram: 34 1 3 0 0 0 1 0 0 1
Nghost:    2.7 ave 35 max 0 min
Histogram: 36 0 0 0 1 0 1 0 1 1
Neighs:    0.975 ave 21 max 0 min
Histogram: 37 0 0 2 0 0 0 0 0 1

Total # of neighbors = 39
Ave neighs/atom = 0.115727
Neighbor list builds = 7618
Dangerous builds = 34
write_dump all custom dump.atom_info_ac_* id type x y z radius vx vy vz density #
run 154320
Setting up run at Tue Jan  3 17:20:00 2023

Memory usage per processor = 958.989 Mbytes
    Step    Atoms         KinEng            CPU 
 9104882      337     0.44260026              0 
 9259202      336      1.2316291      1576.3597 
Loop time of 1576.36 on 40 procs for 154320 steps with 336 atoms, finish time Tue Jan  3 17:46:16 2023


Pair  time (%) = 0.298876 (0.0189599)
Neigh time (%) = 3.42487 (0.217264)
Comm  time (%) = 8.76717 (0.556165)
Outpt time (%) = 0.000653447 (4.14529e-05)
Other time (%) = 1563.87 (99.2076)

Nlocal:    8.4 ave 123 max 0 min
Histogram: 33 3 2 0 0 1 0 0 0 1
Nghost:    2.675 ave 34 max 0 min
Histogram: 36 0 0 1 0 0 1 0 0 2
Neighs:    1.075 ave 26 max 0 min
Histogram: 37 1 0 0 1 0 0 0 0 1

Total # of neighbors = 43
Ave neighs/atom = 0.127976
Neighbor list builds = 10126
Dangerous builds = 1
write_dump all custom dump.atom_info_ac_* id type x y z radius vx vy vz density #
run 154320
Setting up run at Tue Jan  3 17:46:16 2023

Memory usage per processor = 958.989 Mbytes
    Step    Atoms         KinEng            CPU 
 9259202      336      1.2316291              0 
 9413522      331      1.0706262      1563.4585 
Loop time of 1563.46 on 40 procs for 154320 steps with 331 atoms, finish time Tue Jan  3 18:12:20 2023


Pair  time (%) = 0.301013 (0.019253)
Neigh time (%) = 2.97984 (0.190593)
Comm  time (%) = 8.75077 (0.559706)
Outpt time (%) = 0.000620375 (3.96797e-05)
Other time (%) = 1551.43 (99.2304)

Nlocal:    8.275 ave 125 max 0 min
Histogram: 33 3 2 0 0 1 0 0 0 1
Nghost:    2.55 ave 31 max 0 min
Histogram: 36 0 0 1 0 0 1 0 0 2
Neighs:    1.125 ave 24 max 0 min
Histogram: 37 0 0 1 0 1 0 0 0 1

Total # of neighbors = 45
Ave neighs/atom = 0.135952
Neighbor list builds = 9180
Dangerous builds = 3
write_dump all custom dump.atom_info_ac_* id type x y z radius vx vy vz density #
run 154320
Setting up run at Tue Jan  3 18:12:20 2023

Memory usage per processor = 958.989 Mbytes
    Step    Atoms         KinEng            CPU 
 9413522      331      1.0706262              0 
 9567842      328     0.98045987       1567.177 
Loop time of 1567.19 on 40 procs for 154320 steps with 328 atoms, finish time Tue Jan  3 18:38:27 2023


Pair  time (%) = 0.298056 (0.0190185)
Neigh time (%) = 3.34478 (0.213425)
Comm  time (%) = 9.93032 (0.633638)
Outpt time (%) = 0.000527414 (3.36535e-05)
Other time (%) = 1553.62 (99.1339)

Nlocal:    8.2 ave 121 max 0 min
Histogram: 33 4 0 1 0 1 0 0 0 1
Nghost:    2.475 ave 32 max 0 min
Histogram: 36 0 0 1 0 0 1 0 1 1
Neighs:    0.8 ave 20 max 0 min
Histogram: 37 0 1 1 0 0 0 0 0 1

Total # of neighbors = 32
Ave neighs/atom = 0.097561
Neighbor list builds = 10036
Dangerous builds = 0
write_dump all custom dump.atom_info_ac_* id type x y z radius vx vy vz density #
run 154320
Setting up run at Tue Jan  3 18:38:27 2023

Memory usage per processor = 958.989 Mbytes
    Step    Atoms         KinEng            CPU 
 9567842      328     0.98045987              0 
 9722162      320     0.90576171      1596.7358 
Loop time of 1596.74 on 40 procs for 154320 steps with 320 atoms, finish time Tue Jan  3 19:05:04 2023


Pair  time (%) = 0.303529 (0.0190093)
Neigh time (%) = 4.68889 (0.293654)
Comm  time (%) = 9.55624 (0.598486)
Outpt time (%) = 0.000577745 (3.61829e-05)
Other time (%) = 1582.19 (99.0888)

Nlocal:    8 ave 120 max 0 min
Histogram: 33 4 0 1 0 1 0 0 0 1
Nghost:    2.55 ave 32 max 0 min
Histogram: 34 2 1 0 0 0 1 1 0 1
Neighs:    0.6 ave 18 max 0 min
Histogram: 37 2 0 0 0 0 0 0 0 1

Total # of neighbors = 24
Ave neighs/atom = 0.075
Neighbor list builds = 14091
Dangerous builds = 2
write_dump all custom dump.atom_info_ac_* id type x y z radius vx vy vz density #
run 154320
Setting up run at Tue Jan  3 19:05:04 2023

Memory usage per processor = 958.989 Mbytes
    Step    Atoms         KinEng            CPU 
 9722162      320     0.90576171              0 
 9876482      316     0.87615268      1580.8016 
Loop time of 1580.8 on 40 procs for 154320 steps with 316 atoms, finish time Tue Jan  3 19:31:25 2023


Pair  time (%) = 0.295299 (0.0186803)
Neigh time (%) = 4.27305 (0.270309)
Comm  time (%) = 11.6376 (0.736184)
Outpt time (%) = 0.000558891 (3.53549e-05)
Other time (%) = 1564.6 (98.9748)

Nlocal:    7.9 ave 114 max 0 min
Histogram: 33 4 1 0 0 0 1 0 0 1
Nghost:    2.275 ave 30 max 0 min
Histogram: 35 1 0 1 0 1 0 0 1 1
Neighs:    0.425 ave 13 max 0 min
Histogram: 38 1 0 0 0 0 0 0 0 1

Total # of neighbors = 17
Ave neighs/atom = 0.0537975
Neighbor list builds = 12691
Dangerous builds = 296
write_dump all custom dump.atom_info_ac_* id type x y z radius vx vy vz density #
run 154320
Setting up run at Tue Jan  3 19:31:25 2023

Memory usage per processor = 958.989 Mbytes
    Step    Atoms         KinEng            CPU 
 9876482      316     0.87615268              0 
10030802      313      1.2355801      1599.3463 
Loop time of 1599.35 on 40 procs for 154320 steps with 313 atoms, finish time Tue Jan  3 19:58:04 2023


Pair  time (%) = 0.303092 (0.018951)
Neigh time (%) = 4.97242 (0.310903)
Comm  time (%) = 11.8882 (0.743316)
Outpt time (%) = 0.000628241 (3.92811e-05)
Other time (%) = 1582.18 (98.9268)

Nlocal:    7.825 ave 110 max 0 min
Histogram: 33 2 3 0 0 0 1 0 0 1
Nghost:    2 ave 30 max 0 min
Histogram: 36 0 1 0 0 1 0 1 0 1
Neighs:    0.5 ave 11 max 0 min
Histogram: 37 1 0 0 1 0 0 0 0 1

Total # of neighbors = 20
Ave neighs/atom = 0.0638978
Neighbor list builds = 14973
Dangerous builds = 4
write_dump all custom dump.atom_info_ac_* id type x y z radius vx vy vz density #
run 154320
Setting up run at Tue Jan  3 19:58:04 2023

Memory usage per processor = 958.989 Mbytes
    Step    Atoms         KinEng            CPU 
10030802      313      1.2355801              0 
10185122      308     0.95755204      1612.5569 
Loop time of 1612.56 on 40 procs for 154320 steps with 308 atoms, finish time Tue Jan  3 20:24:57 2023


Pair  time (%) = 0.299249 (0.0185575)
Neigh time (%) = 3.42759 (0.212556)
Comm  time (%) = 7.53351 (0.467178)
Outpt time (%) = 0.00314167 (0.000194826)
Other time (%) = 1601.29 (99.3015)

Nlocal:    7.7 ave 107 max 0 min
Histogram: 33 3 2 0 0 0 1 0 0 1
Nghost:    2.175 ave 33 max 0 min
Histogram: 36 0 1 0 1 0 1 0 0 1
Neighs:    0.6 ave 12 max 0 min
Histogram: 36 1 1 0 1 0 0 0 0 1

Total # of neighbors = 24
Ave neighs/atom = 0.0779221
Neighbor list builds = 10519
Dangerous builds = 656
write_dump all custom dump.atom_info_ac_* id type x y z radius vx vy vz density #
run 154320
Setting up run at Tue Jan  3 20:24:57 2023

Memory usage per processor = 958.989 Mbytes
    Step    Atoms         KinEng            CPU 
10185122      308     0.95755204              0 
10339442      303     0.78023749      1604.5965 
Loop time of 1604.6 on 40 procs for 154320 steps with 303 atoms, finish time Tue Jan  3 20:51:41 2023


Pair  time (%) = 0.307796 (0.0191821)
Neigh time (%) = 5.18641 (0.323222)
Comm  time (%) = 11.8036 (0.735613)
Outpt time (%) = 0.000585417 (3.64838e-05)
Other time (%) = 1587.3 (98.9219)

Nlocal:    7.575 ave 108 max 0 min
Histogram: 35 2 0 0 1 0 1 0 0 1
Nghost:    2.175 ave 31 max 0 min
Histogram: 36 0 0 1 0 0 2 0 0 1
Neighs:    0.675 ave 15 max 0 min
Histogram: 36 1 2 0 0 0 0 0 0 1

Total # of neighbors = 27
Ave neighs/atom = 0.0891089
Neighbor list builds = 15469
Dangerous builds = 1
write_dump all custom dump.atom_info_ac_* id type x y z radius vx vy vz density #
run 154320
Setting up run at Tue Jan  3 20:51:41 2023

Memory usage per processor = 958.989 Mbytes
    Step    Atoms         KinEng            CPU 
10339442      303     0.78023749              0 
10493762      300     0.68525471      1579.5874 
Loop time of 1579.59 on 40 procs for 154320 steps with 300 atoms, finish time Tue Jan  3 21:18:01 2023


Pair  time (%) = 0.300057 (0.0189959)
Neigh time (%) = 3.95281 (0.250243)
Comm  time (%) = 8.45928 (0.535537)
Outpt time (%) = 0.000599009 (3.79219e-05)
Other time (%) = 1566.88 (99.1952)

Nlocal:    7.5 ave 105 max 0 min
Histogram: 32 4 2 0 0 0 1 0 0 1
Nghost:    2.05 ave 28 max 0 min
Histogram: 36 0 0 1 0 0 1 1 0 1
Neighs:    0.425 ave 12 max 0 min
Histogram: 38 0 1 0 0 0 0 0 0 1

Total # of neighbors = 17
Ave neighs/atom = 0.0566667
Neighbor list builds = 11755
Dangerous builds = 356
write_dump all custom dump.atom_info_ac_* id type x y z radius vx vy vz density #
run 154320
Setting up run at Tue Jan  3 21:18:01 2023

Memory usage per processor = 958.989 Mbytes
    Step    Atoms         KinEng            CPU 
10493762      300     0.68525471              0 
10648082      295     0.65568799      1573.7902 
Loop time of 1573.79 on 40 procs for 154320 steps with 295 atoms, finish time Tue Jan  3 21:44:15 2023


Pair  time (%) = 0.294209 (0.0186943)
Neigh time (%) = 3.17648 (0.201836)
Comm  time (%) = 7.28554 (0.462929)
Outpt time (%) = 0.000572648 (3.63865e-05)
Other time (%) = 1563.03 (99.3165)

Nlocal:    7.375 ave 106 max 0 min
Histogram: 33 3 1 1 0 1 0 0 0 1
Nghost:    2.075 ave 33 max 0 min
Histogram: 36 0 0 1 1 0 1 0 0 1
Neighs:    0.425 ave 10 max 0 min
Histogram: 36 1 1 0 1 0 0 0 0 1

Total # of neighbors = 17
Ave neighs/atom = 0.0576271
Neighbor list builds = 9627
Dangerous builds = 608
write_dump all custom dump.atom_info_ac_* id type x y z radius vx vy vz density #
run 154320
Setting up run at Tue Jan  3 21:44:15 2023

Memory usage per processor = 958.989 Mbytes
    Step    Atoms         KinEng            CPU 
10648082      295     0.65568799              0 
10802402      290     0.66067727      1577.1064 
Loop time of 1577.11 on 40 procs for 154320 steps with 290 atoms, finish time Tue Jan  3 22:10:32 2023


Pair  time (%) = 0.298515 (0.018928)
Neigh time (%) = 3.51392 (0.222808)
Comm  time (%) = 7.61391 (0.482777)
Outpt time (%) = 0.0129269 (0.000819662)
Other time (%) = 1565.67 (99.2747)

Nlocal:    7.25 ave 100 max 0 min
Histogram: 33 2 2 1 0 0 1 0 0 1
Nghost:    2.35 ave 34 max 0 min
Histogram: 35 1 1 0 1 0 1 0 0 1
Neighs:    0.5 ave 12 max 0 min
Histogram: 38 0 0 1 0 0 0 0 0 1

Total # of neighbors = 20
Ave neighs/atom = 0.0689655
Neighbor list builds = 10575
Dangerous builds = 286
write_dump all custom dump.atom_info_ac_* id type x y z radius vx vy vz density #
run 154320
Setting up run at Tue Jan  3 22:10:32 2023

Memory usage per processor = 958.989 Mbytes
    Step    Atoms         KinEng            CPU 
10802402      290     0.66067727              0 
10956722      286     0.91050227      1563.9387 
Loop time of 1563.94 on 40 procs for 154320 steps with 286 atoms, finish time Tue Jan  3 22:36:36 2023


Pair  time (%) = 0.294404 (0.0188246)
Neigh time (%) = 3.0219 (0.193223)
Comm  time (%) = 7.68573 (0.491434)
Outpt time (%) = 0.000548245 (3.50554e-05)
Other time (%) = 1552.94 (99.2965)

Nlocal:    7.15 ave 100 max 0 min
Histogram: 34 2 1 1 0 0 1 0 0 1
Nghost:    2.225 ave 30 max 0 min
Histogram: 36 0 0 1 1 0 0 0 0 2
Neighs:    0.45 ave 11 max 0 min
Histogram: 37 1 1 0 0 0 0 0 0 1

Total # of neighbors = 18
Ave neighs/atom = 0.0629371
Neighbor list builds = 9030
Dangerous builds = 1
write_dump all custom dump.atom_info_ac_* id type x y z radius vx vy vz density #
run 154320
Setting up run at Tue Jan  3 22:36:36 2023

Memory usage per processor = 958.989 Mbytes
    Step    Atoms         KinEng            CPU 
10956722      286     0.91050227              0 
11111042      284      1.2341255      1561.7433 
Loop time of 1561.74 on 40 procs for 154320 steps with 284 atoms, finish time Tue Jan  3 23:02:38 2023


Pair  time (%) = 0.293088 (0.0187667)
Neigh time (%) = 3.04746 (0.195132)
Comm  time (%) = 7.32478 (0.469013)
Outpt time (%) = 0.000522551 (3.34595e-05)
Other time (%) = 1551.08 (99.3171)

Nlocal:    7.1 ave 101 max 0 min
Histogram: 33 4 0 1 0 1 0 0 0 1
Nghost:    2.175 ave 27 max 0 min
Histogram: 36 0 0 0 1 1 0 0 1 1
Neighs:    0.45 ave 11 max 0 min
Histogram: 36 2 1 0 0 0 0 0 0 1

Total # of neighbors = 18
Ave neighs/atom = 0.0633803
Neighbor list builds = 8993
Dangerous builds = 0
write_dump all custom dump.atom_info_ac_* id type x y z radius vx vy vz density #
run 154320
Setting up run at Tue Jan  3 23:02:38 2023

Memory usage per processor = 958.989 Mbytes
    Step    Atoms         KinEng            CPU 
11111042      284      1.2341255              0 
11265362      278     0.84345443      1589.1118 
Loop time of 1589.11 on 40 procs for 154320 steps with 278 atoms, finish time Tue Jan  3 23:29:07 2023


Pair  time (%) = 0.301559 (0.0189766)
Neigh time (%) = 4.28538 (0.269671)
Comm  time (%) = 11.4881 (0.722929)
Outpt time (%) = 0.000606981 (3.81962e-05)
Other time (%) = 1573.04 (98.9884)

Nlocal:    6.95 ave 97 max 0 min
Histogram: 32 4 1 1 0 0 1 0 0 1
Nghost:    2.325 ave 27 max 0 min
Histogram: 34 2 0 0 1 0 1 0 0 2
Neighs:    0.35 ave 9 max 0 min
Histogram: 36 1 2 0 0 0 0 0 0 1

Total # of neighbors = 14
Ave neighs/atom = 0.0503597
Neighbor list builds = 13065
Dangerous builds = 578
write_dump all custom dump.atom_info_ac_* id type x y z radius vx vy vz density #
run 154320
Setting up run at Tue Jan  3 23:29:07 2023

Memory usage per processor = 958.989 Mbytes
    Step    Atoms         KinEng            CPU 
11265362      278     0.84345443              0 
11419682      276     0.79806696      1550.3531 
Loop time of 1550.35 on 40 procs for 154320 steps with 276 atoms, finish time Tue Jan  3 23:54:57 2023


Pair  time (%) = 0.286303 (0.0184669)
Neigh time (%) = 2.50592 (0.161635)
Comm  time (%) = 6.31631 (0.407411)
Outpt time (%) = 0.000533633 (3.44201e-05)
Other time (%) = 1541.24 (99.4125)

Nlocal:    6.9 ave 96 max 0 min
Histogram: 33 3 2 0 0 0 1 0 0 1
Nghost:    2.275 ave 27 max 0 min
Histogram: 36 0 0 0 0 1 1 0 0 2
Neighs:    0.4 ave 6 max 0 min
Histogram: 35 2 0 1 0 0 0 0 0 2

Total # of neighbors = 16
Ave neighs/atom = 0.057971
Neighbor list builds = 7371
Dangerous builds = 0
write_dump all custom dump.atom_info_ac_* id type x y z radius vx vy vz density #
run 154320
Setting up run at Tue Jan  3 23:54:58 2023

Memory usage per processor = 958.989 Mbytes
    Step    Atoms         KinEng            CPU 
11419682      276     0.79806696              0 
11574002      272      1.0132621      1560.1252 
Loop time of 1560.13 on 40 procs for 154320 steps with 272 atoms, finish time Wed Jan  4 00:20:58 2023


Pair  time (%) = 0.287046 (0.0183989)
Neigh time (%) = 2.66532 (0.17084)
Comm  time (%) = 5.73964 (0.367896)
Outpt time (%) = 0.000656251 (4.2064e-05)
Other time (%) = 1551.43 (99.4428)

Nlocal:    6.8 ave 88 max 0 min
Histogram: 32 4 2 0 0 0 0 1 0 1
Nghost:    2.475 ave 29 max 0 min
Histogram: 36 0 0 0 0 1 0 2 0 1
Neighs:    0.2 ave 5 max 0 min
Histogram: 37 0 1 0 1 0 0 0 0 1

Total # of neighbors = 8
Ave neighs/atom = 0.0294118
Neighbor list builds = 8003
Dangerous builds = 295
write_dump all custom dump.atom_info_ac_* id type x y z radius vx vy vz density #
run 154320
Setting up run at Wed Jan  4 00:20:58 2023

Memory usage per processor = 958.989 Mbytes
    Step    Atoms         KinEng            CPU 
11574002      272      1.0132621              0 
11728322      268     0.84046009      1600.8024 
Loop time of 1600.8 on 40 procs for 154320 steps with 268 atoms, finish time Wed Jan  4 00:47:39 2023


Pair  time (%) = 0.30162 (0.0188418)
Neigh time (%) = 5.1525 (0.32187)
Comm  time (%) = 10.6826 (0.667329)
Outpt time (%) = 0.00070304 (4.3918e-05)
Other time (%) = 1584.66 (98.9919)

Nlocal:    6.7 ave 88 max 0 min
Histogram: 32 4 2 0 0 0 0 1 0 1
Nghost:    2.275 ave 27 max 0 min
Histogram: 35 1 0 0 1 0 0 2 0 1
Neighs:    0.225 ave 4 max 0 min
Histogram: 37 0 1 0 0 0 0 0 0 2

Total # of neighbors = 9
Ave neighs/atom = 0.0335821
Neighbor list builds = 15282
Dangerous builds = 156
write_dump all custom dump.atom_info_ac_* id type x y z radius vx vy vz density #
run 154320
Setting up run at Wed Jan  4 00:47:39 2023

Memory usage per processor = 958.989 Mbytes
    Step    Atoms         KinEng            CPU 
11728322      268     0.84046009              0 
11882642      263     0.58573438      1591.5079 
Loop time of 1591.51 on 40 procs for 154320 steps with 263 atoms, finish time Wed Jan  4 01:14:10 2023


Pair  time (%) = 0.29026 (0.0182381)
Neigh time (%) = 3.07419 (0.193162)
Comm  time (%) = 6.61278 (0.415504)
Outpt time (%) = 0.000649979 (4.08405e-05)
Other time (%) = 1581.53 (99.3731)

Nlocal:    6.575 ave 84 max 0 min
Histogram: 32 4 1 1 0 0 0 0 1 1
Nghost:    2.25 ave 29 max 0 min
Histogram: 36 0 0 0 0 1 2 0 0 1
Neighs:    0.25 ave 4 max 0 min
Histogram: 36 0 1 0 0 1 0 1 0 1

Total # of neighbors = 10
Ave neighs/atom = 0.0380228
Neighbor list builds = 9437
Dangerous builds = 1027
write_dump all custom dump.atom_info_ac_* id type x y z radius vx vy vz density #
run 154320
Setting up run at Wed Jan  4 01:14:10 2023

Memory usage per processor = 958.989 Mbytes
    Step    Atoms         KinEng            CPU 
11882642      263     0.58573438              0 
12036962      258     0.70368021      1648.0465 
Loop time of 1648.05 on 40 procs for 154320 steps with 258 atoms, finish time Wed Jan  4 01:41:38 2023


Pair  time (%) = 0.297832 (0.0180718)
Neigh time (%) = 4.32776 (0.262599)
Comm  time (%) = 8.80416 (0.534218)
Outpt time (%) = 0.000601186 (3.64787e-05)
Other time (%) = 1634.62 (99.1851)

Nlocal:    6.45 ave 79 max 0 min
Histogram: 33 3 0 2 0 0 0 0 1 1
Nghost:    2.225 ave 31 max 0 min
Histogram: 36 0 0 0 0 3 0 0 0 1
Neighs:    0.225 ave 3 max 0 min
Histogram: 36 0 0 0 0 0 3 0 0 1

Total # of neighbors = 9
Ave neighs/atom = 0.0348837
Neighbor list builds = 13037
Dangerous builds = 259
write_dump all custom dump.atom_info_ac_* id type x y z radius vx vy vz density #
run 154320
Setting up run at Wed Jan  4 01:41:38 2023

Memory usage per processor = 958.989 Mbytes
    Step    Atoms         KinEng            CPU 
12036962      258     0.70368021              0 
12191282      255     0.54557541      1559.3231 
Loop time of 1559.32 on 40 procs for 154320 steps with 255 atoms, finish time Wed Jan  4 02:07:38 2023


Pair  time (%) = 0.286178 (0.0183527)
Neigh time (%) = 2.70694 (0.173597)
Comm  time (%) = 5.97785 (0.383362)
Outpt time (%) = 0.000597672 (3.83289e-05)
Other time (%) = 1550.35 (99.4247)

Nlocal:    6.375 ave 75 max 0 min
Histogram: 32 4 1 0 1 0 0 0 1 1
Nghost:    2.425 ave 30 max 0 min
Histogram: 36 0 0 0 0 1 1 1 0 1
Neighs:    0.2 ave 3 max 0 min
Histogram: 36 0 0 1 0 0 2 0 0 1

Total # of neighbors = 8
Ave neighs/atom = 0.0313725
Neighbor list builds = 7910
Dangerous builds = 0
write_dump all custom dump.atom_info_ac_* id type x y z radius vx vy vz density #
run 154320
Setting up run at Wed Jan  4 02:07:38 2023

Memory usage per processor = 958.989 Mbytes
    Step    Atoms         KinEng            CPU 
12191282      255     0.54557541              0 
12345602      251     0.51423398      1560.9197 
Loop time of 1560.92 on 40 procs for 154320 steps with 251 atoms, finish time Wed Jan  4 02:33:39 2023


Pair  time (%) = 0.290488 (0.0186101)
Neigh time (%) = 3.25746 (0.208688)
Comm  time (%) = 6.2689 (0.401616)
Outpt time (%) = 0.0131165 (0.000840304)
Other time (%) = 1551.09 (99.3702)

Nlocal:    6.275 ave 71 max 0 min
Histogram: 32 3 2 1 0 0 0 0 0 2
Nghost:    2.325 ave 31 max 0 min
Histogram: 36 0 0 0 0 2 1 0 0 1
Neighs:    0.225 ave 3 max 0 min
Histogram: 36 0 0 1 0 0 1 0 0 2

Total # of neighbors = 9
Ave neighs/atom = 0.0358566
Neighbor list builds = 9665
Dangerous builds = 0
write_dump all custom dump.atom_info_ac_* id type x y z radius vx vy vz density #
run 154320
Setting up run at Wed Jan  4 02:33:39 2023

[...]
27623379       72      0.4580527              0 
27777699       71     0.50489033      1562.9047 
Loop time of 1562.91 on 40 procs for 154320 steps with 71 atoms, finish time Thu Jan  5 22:23:13 2023


Pair  time (%) = 0.278398 (0.0178129)
Neigh time (%) = 3.14055 (0.200943)
Comm  time (%) = 4.13945 (0.264856)
Outpt time (%) = 0.000384497 (2.46014e-05)
Other time (%) = 1555.35 (99.5164)

Nlocal:    1.775 ave 26 max 0 min
Histogram: 35 2 1 0 0 0 0 0 1 1
Nghost:    0.725 ave 11 max 0 min
Histogram: 36 0 1 1 0 0 0 1 0 1
Neighs:    0 ave 0 max 0 min
Histogram: 40 0 0 0 0 0 0 0 0 0

Total # of neighbors = 0
Ave neighs/atom = 0
Neighbor list builds = 9123
Dangerous builds = 0
write_dump all custom dump.atom_info_ac_* id type x y z radius vx vy vz density #
run 154320
Setting up run at Thu Jan  5 22:23:13 2023

Memory usage per processor = 958.989 Mbytes
    Step    Atoms         KinEng            CPU 
27777699       71     0.50489033              0 
27932019       71     0.50789522      1570.2033 
Loop time of 1570.2 on 40 procs for 154320 steps with 71 atoms, finish time Thu Jan  5 22:49:23 2023


Pair  time (%) = 0.277474 (0.0176712)
Neigh time (%) = 3.08892 (0.196721)
Comm  time (%) = 3.85369 (0.245426)
Outpt time (%) = 0.00299684 (0.000190857)
Other time (%) = 1562.98 (99.54)

Nlocal:    1.775 ave 25 max 0 min
Histogram: 33 4 1 0 0 0 0 0 1 1
Nghost:    0.875 ave 10 max 0 min
Histogram: 31 3 1 1 2 0 0 0 0 2
Neighs:    0 ave 0 max 0 min
Histogram: 40 0 0 0 0 0 0 0 0 0

Total # of neighbors = 0
Ave neighs/atom = 0
Neighbor list builds = 8957
Dangerous builds = 0
write_dump all custom dump.atom_info_ac_* id type x y z radius vx vy vz density #
run 154320
Setting up run at Thu Jan  5 22:49:23 2023

Memory usage per processor = 958.989 Mbytes
    Step    Atoms         KinEng            CPU 
27932019       71     0.50789522              0 
28086339       70     0.48262585      1558.7542 
Loop time of 1558.75 on 40 procs for 154320 steps with 70 atoms, finish time Thu Jan  5 23:15:22 2023


Pair  time (%) = 0.272362 (0.017473)
Neigh time (%) = 2.06562 (0.132517)
Comm  time (%) = 2.50624 (0.160784)
Outpt time (%) = 0.000388519 (2.4925e-05)
Other time (%) = 1553.91 (99.6892)

Nlocal:    1.75 ave 25 max 0 min
Histogram: 36 1 0 0 1 0 0 0 1 1
Nghost:    0.65 ave 10 max 0 min
Histogram: 34 2 0 1 1 0 0 1 0 1
Neighs:    0 ave 0 max 0 min
Histogram: 40 0 0 0 0 0 0 0 0 0

Total # of neighbors = 0
Ave neighs/atom = 0
Neighbor list builds = 6005
Dangerous builds = 34
write_dump all custom dump.atom_info_ac_* id type x y z radius vx vy vz density #
run 154320
Setting up run at Thu Jan  5 23:15:22 2023

Memory usage per processor = 958.989 Mbytes
    Step    Atoms         KinEng            CPU 
28086339       70     0.48262585              0 
28240659       69     0.46031476      1550.8077 
Loop time of 1550.81 on 40 procs for 154320 steps with 69 atoms, finish time Thu Jan  5 23:41:13 2023


Pair  time (%) = 0.273323 (0.0176246)
Neigh time (%) = 2.08288 (0.13431)
Comm  time (%) = 2.8281 (0.182363)
Outpt time (%) = 0.000308292 (1.98794e-05)
Other time (%) = 1545.62 (99.6657)

Nlocal:    1.725 ave 26 max 0 min
Histogram: 34 3 1 0 0 0 0 1 0 1
Nghost:    0.65 ave 10 max 0 min
Histogram: 34 2 0 1 1 0 0 1 0 1
Neighs:    0 ave 0 max 0 min
Histogram: 40 0 0 0 0 0 0 0 0 0

Total # of neighbors = 0
Ave neighs/atom = 0
Neighbor list builds = 6048
Dangerous builds = 3
write_dump all custom dump.atom_info_ac_* id type x y z radius vx vy vz density #
run 154320
Setting up run at Thu Jan  5 23:41:13 2023

Memory usage per processor = 958.989 Mbytes
    Step    Atoms         KinEng            CPU 
28240659       69     0.46031476              0 
28394979       67     0.81035417       1549.549 
Loop time of 1549.55 on 40 procs for 154320 steps with 67 atoms, finish time Fri Jan  6 00:07:02 2023


Pair  time (%) = 0.274867 (0.0177385)
Neigh time (%) = 2.2239 (0.143519)
Comm  time (%) = 2.6328 (0.169907)
Outpt time (%) = 0.00059795 (3.85886e-05)
Other time (%) = 1544.42 (99.6688)

Nlocal:    1.675 ave 25 max 0 min
Histogram: 34 3 1 0 0 0 0 0 1 1
Nghost:    0.65 ave 7 max 0 min
Histogram: 32 4 0 0 1 0 0 1 0 2
Neighs:    0.025 ave 1 max 0 min
Histogram: 39 0 0 0 0 0 0 0 0 1

Total # of neighbors = 1
Ave neighs/atom = 0.0149254
Neighbor list builds = 6545
Dangerous builds = 266
write_dump all custom dump.atom_info_ac_* id type x y z radius vx vy vz density #
run 154320
Setting up run at Fri Jan  6 00:07:02 2023

Memory usage per processor = 958.989 Mbytes
    Step    Atoms         KinEng            CPU 
28394979       67     0.81035417              0 
28549299       66     0.52750449      1556.4745 
Loop time of 1556.49 on 40 procs for 154320 steps with 66 atoms, finish time Fri Jan  6 00:32:59 2023


Pair  time (%) = 0.276955 (0.0177936)
Neigh time (%) = 2.93199 (0.188373)
Comm  time (%) = 3.14372 (0.201976)
Outpt time (%) = 0.000153577 (9.86688e-06)
Other time (%) = 1550.13 (99.5918)

Nlocal:    1.65 ave 25 max 0 min
Histogram: 36 1 0 1 0 0 0 0 1 1
Nghost:    0.55 ave 8 max 0 min
Histogram: 35 1 0 1 0 1 0 1 0 1
Neighs:    0.025 ave 1 max 0 min
Histogram: 39 0 0 0 0 0 0 0 0 1

Total # of neighbors = 1
Ave neighs/atom = 0.0151515
Neighbor list builds = 8644
Dangerous builds = 0
write_dump all custom dump.atom_info_ac_* id type x y z radius vx vy vz density #
run 154320
Setting up run at Fri Jan  6 00:32:59 2023

Memory usage per processor = 958.989 Mbytes
    Step    Atoms         KinEng            CPU 
28549299       66     0.52750449              0 
28703619       66     0.50676405      1548.1709 
Loop time of 1548.17 on 40 procs for 154320 steps with 66 atoms, finish time Fri Jan  6 00:58:47 2023


Pair  time (%) = 0.275427 (0.0177905)
Neigh time (%) = 2.20451 (0.142395)
Comm  time (%) = 3.00024 (0.193792)
Outpt time (%) = 0.00300768 (0.000194273)
Other time (%) = 1542.69 (99.6458)

Nlocal:    1.65 ave 24 max 0 min
Histogram: 36 1 1 0 0 0 0 0 1 1
Nghost:    0.575 ave 8 max 0 min
Histogram: 34 2 0 1 0 1 0 1 0 1
Neighs:    0.05 ave 2 max 0 min
Histogram: 39 0 0 0 0 0 0 0 0 1

Total # of neighbors = 2
Ave neighs/atom = 0.030303
Neighbor list builds = 6406
Dangerous builds = 0
write_dump all custom dump.atom_info_ac_* id type x y z radius vx vy vz density #
run 154320
Setting up run at Fri Jan  6 00:58:47 2023

Memory usage per processor = 958.989 Mbytes
    Step    Atoms         KinEng            CPU 
28703619       66     0.50676405              0 
28857939       63     0.40494106      1555.7745 
Loop time of 1555.77 on 40 procs for 154320 steps with 63 atoms, finish time Fri Jan  6 01:24:43 2023


Pair  time (%) = 0.271351 (0.0174416)
Neigh time (%) = 2.18157 (0.140224)
Comm  time (%) = 3.17839 (0.204296)
Outpt time (%) = 0.000379336 (2.43824e-05)
Other time (%) = 1550.14 (99.638)

Nlocal:    1.575 ave 25 max 0 min
Histogram: 35 2 1 0 0 0 0 0 1 1
Nghost:    0.575 ave 8 max 0 min
Histogram: 34 2 0 1 0 1 0 1 0 1
Neighs:    0.025 ave 1 max 0 min
Histogram: 39 0 0 0 0 0 0 0 0 1

Total # of neighbors = 1
Ave neighs/atom = 0.015873
Neighbor list builds = 6331
Dangerous builds = 0
write_dump all custom dump.atom_info_ac_* id type x y z radius vx vy vz density #
run 154320
Setting up run at Fri Jan  6 01:24:43 2023

Memory usage per processor = 958.989 Mbytes
    Step    Atoms         KinEng            CPU 
28857939       63     0.40494106              0 
29012259       63     0.45962677      1544.4987 
Loop time of 1544.5 on 40 procs for 154320 steps with 63 atoms, finish time Fri Jan  6 01:50:28 2023


Pair  time (%) = 0.269836 (0.0174707)
Neigh time (%) = 2.09202 (0.13545)
Comm  time (%) = 4.05211 (0.262358)
Outpt time (%) = 0.000297735 (1.92771e-05)
Other time (%) = 1538.08 (99.5847)

Nlocal:    1.575 ave 23 max 0 min
Histogram: 36 1 0 1 0 0 0 0 0 2
Nghost:    0.65 ave 9 max 0 min
Histogram: 31 5 1 0 1 0 1 0 0 1
Neighs:    0.025 ave 1 max 0 min
Histogram: 39 0 0 0 0 0 0 0 0 1

Total # of neighbors = 1
Ave neighs/atom = 0.015873
Neighbor list builds = 6080
Dangerous builds = 0
write_dump all custom dump.atom_info_ac_* id type x y z radius vx vy vz density #
run 154320
Setting up run at Fri Jan  6 01:50:28 2023

Memory usage per processor = 958.989 Mbytes
    Step    Atoms         KinEng            CPU 
29012259       63     0.45962677              0 
29166579       63     0.38974144      1551.0094 
Loop time of 1551.01 on 40 procs for 154320 steps with 63 atoms, finish time Fri Jan  6 02:16:19 2023


Pair  time (%) = 0.269842 (0.0173979)
Neigh time (%) = 2.07714 (0.133922)
Comm  time (%) = 4.19872 (0.270709)
Outpt time (%) = 0.000682532 (4.40057e-05)
Other time (%) = 1544.46 (99.5779)

Nlocal:    1.575 ave 24 max 0 min
Histogram: 36 0 2 0 0 0 0 0 1 1
Nghost:    0.65 ave 8 max 0 min
Histogram: 31 5 1 0 0 1 0 0 1 1
Neighs:    0.025 ave 1 max 0 min
Histogram: 39 0 0 0 0 0 0 0 0 1

Total # of neighbors = 1
Ave neighs/atom = 0.015873
Neighbor list builds = 6023
Dangerous builds = 0
write_dump all custom dump.atom_info_ac_* id type x y z radius vx vy vz density #
run 154320
Setting up run at Fri Jan  6 02:16:19 2023

Memory usage per processor = 958.989 Mbytes
    Step    Atoms         KinEng            CPU 
29166579       63     0.38974144              0 
29320899       62     0.39375723      1545.8918 
Loop time of 1545.89 on 40 procs for 154320 steps with 62 atoms, finish time Fri Jan  6 02:42:05 2023


Pair  time (%) = 0.269903 (0.0174593)
Neigh time (%) = 2.0492 (0.132558)
Comm  time (%) = 3.90879 (0.25285)
Outpt time (%) = 0.000261552 (1.69192e-05)
Other time (%) = 1539.66 (99.5971)

Nlocal:    1.55 ave 25 max 0 min
Histogram: 36 1 1 0 0 0 0 0 1 1
Nghost:    0.6 ave 9 max 0 min
Histogram: 34 2 1 0 1 0 0 1 0 1
Neighs:    0.05 ave 2 max 0 min
Histogram: 39 0 0 0 0 0 0 0 0 1

Total # of neighbors = 2
Ave neighs/atom = 0.0322581
Neighbor list builds = 5944
Dangerous builds = 0
write_dump all custom dump.atom_info_ac_* id type x y z radius vx vy vz density #
run 154320
Setting up run at Fri Jan  6 02:42:05 2023

Memory usage per processor = 958.989 Mbytes
    Step    Atoms         KinEng            CPU 
29320899       62     0.39375723              0 
29475219       62     0.36901747      1547.7475 
Loop time of 1547.75 on 40 procs for 154320 steps with 62 atoms, finish time Fri Jan  6 03:07:52 2023


Pair  time (%) = 0.269574 (0.0174172)
Neigh time (%) = 2.01211 (0.130002)
Comm  time (%) = 3.85079 (0.2488)
Outpt time (%) = 0.000677612 (4.37805e-05)
Other time (%) = 1541.61 (99.6037)

Nlocal:    1.55 ave 24 max 0 min
Histogram: 36 1 0 1 0 0 0 0 1 1
Nghost:    0.65 ave 10 max 0 min
Histogram: 33 3 1 0 1 0 0 1 0 1
Neighs:    0.05 ave 2 max 0 min
Histogram: 39 0 0 0 0 0 0 0 0 1

Total # of neighbors = 2
Ave neighs/atom = 0.0322581
Neighbor list builds = 5840
Dangerous builds = 0
write_dump all custom dump.atom_info_ac_* id type x y z radius vx vy vz density #
run 154320
Setting up run at Fri Jan  6 03:07:53 2023

Memory usage per processor = 958.989 Mbytes
    Step    Atoms         KinEng            CPU 
29475219       62     0.36901747              0 
29629539       61     0.36050213      1561.8514 
Loop time of 1561.86 on 40 procs for 154320 steps with 61 atoms, finish time Fri Jan  6 03:33:54 2023


Pair  time (%) = 0.275891 (0.0176643)
Neigh time (%) = 3.06782 (0.196421)
Comm  time (%) = 5.66903 (0.362966)
Outpt time (%) = 0.00989287 (0.000633402)
Other time (%) = 1552.84 (99.4223)

Nlocal:    1.525 ave 24 max 0 min
Histogram: 35 3 0 0 0 0 0 0 1 1
Nghost:    0.65 ave 9 max 0 min
Histogram: 32 4 1 0 1 0 0 1 0 1
Neighs:    0.05 ave 2 max 0 min
Histogram: 39 0 0 0 0 0 0 0 0 1

Total # of neighbors = 2
Ave neighs/atom = 0.0327869
Neighbor list builds = 9068
Dangerous builds = 0
write_dump all custom dump.atom_info_ac_* id type x y z radius vx vy vz density #
run 154320
Setting up run at Fri Jan  6 03:33:55 2023

Memory usage per processor = 958.989 Mbytes
    Step    Atoms         KinEng            CPU 
29629539       61     0.36050213              0 
29783859       61     0.34702229      1549.6511 
Loop time of 1549.65 on 40 procs for 154320 steps with 61 atoms, finish time Fri Jan  6 03:59:44 2023


Pair  time (%) = 0.272739 (0.0176)
Neigh time (%) = 2.42631 (0.156571)
Comm  time (%) = 4.57476 (0.295212)
Outpt time (%) = 0.00271474 (0.000175184)
Other time (%) = 1542.37 (99.5304)

Nlocal:    1.525 ave 24 max 0 min
Histogram: 36 1 1 0 0 0 0 0 1 1
Nghost:    0.6 ave 9 max 0 min
Histogram: 34 3 0 0 0 1 0 1 0 1
Neighs:    0.025 ave 1 max 0 min
Histogram: 39 0 0 0 0 0 0 0 0 1

Total # of neighbors = 1
Ave neighs/atom = 0.0163934
Neighbor list builds = 7043
Dangerous builds = 0
write_dump all custom dump.atom_info_ac_* id type x y z radius vx vy vz density #
run 154320
Setting up run at Fri Jan  6 03:59:44 2023

Memory usage per processor = 958.989 Mbytes
    Step    Atoms         KinEng            CPU 
29783859       61     0.34702229              0 
29938179       61      0.6496598      1551.3122 
Loop time of 1551.31 on 40 procs for 154320 steps with 61 atoms, finish time Fri Jan  6 04:25:36 2023


Pair  time (%) = 0.270734 (0.017452)
Neigh time (%) = 2.08686 (0.134522)
Comm  time (%) = 3.94667 (0.254408)
Outpt time (%) = 0.000636637 (4.10386e-05)
Other time (%) = 1545.01 (99.5936)

Nlocal:    1.525 ave 24 max 0 min
Histogram: 36 1 1 0 0 0 0 0 1 1
Nghost:    0.55 ave 9 max 0 min
Histogram: 34 3 0 0 1 0 1 0 0 1
Neighs:    0.025 ave 1 max 0 min
Histogram: 39 0 0 0 0 0 0 0 0 1

Total # of neighbors = 1
Ave neighs/atom = 0.0163934
Neighbor list builds = 6063
Dangerous builds = 0
write_dump all custom dump.atom_info_ac_* id type x y z radius vx vy vz density #
run 154320
Setting up run at Fri Jan  6 04:25:36 2023

Memory usage per processor = 958.989 Mbytes
    Step    Atoms         KinEng            CPU 
29938179       61      0.6496598              0 
30092499       61     0.65101162      1544.8108 
Loop time of 1544.81 on 40 procs for 154320 steps with 61 atoms, finish time Fri Jan  6 04:51:20 2023


Pair  time (%) = 0.270027 (0.0174796)
Neigh time (%) = 2.04647 (0.132474)
Comm  time (%) = 3.78833 (0.24523)
Outpt time (%) = 0.000329818 (2.13501e-05)
Other time (%) = 1538.71 (99.6048)

Nlocal:    1.525 ave 24 max 0 min
Histogram: 35 2 1 0 0 0 0 0 1 1
Nghost:    0.625 ave 10 max 0 min
Histogram: 33 3 1 0 1 0 1 0 0 1
Neighs:    0.025 ave 1 max 0 min
Histogram: 39 0 0 0 0 0 0 0 0 1

Total # of neighbors = 1
Ave neighs/atom = 0.0163934
Neighbor list builds = 5942
Dangerous builds = 0
write_dump all custom dump.atom_info_ac_* id type x y z radius vx vy vz density #
run 154320
Setting up run at Fri Jan  6 04:51:21 2023

Memory usage per processor = 958.989 Mbytes
    Step    Atoms         KinEng            CPU 
30092499       61     0.65101162              0 
30246819       61     0.67655314      1546.8104 
Loop time of 1546.81 on 40 procs for 154320 steps with 61 atoms, finish time Fri Jan  6 05:17:07 2023


Pair  time (%) = 0.270576 (0.0174925)
Neigh time (%) = 1.9601 (0.126719)
Comm  time (%) = 3.96276 (0.256189)
Outpt time (%) = 0.000677406 (4.37938e-05)
Other time (%) = 1540.62 (99.5996)

Nlocal:    1.525 ave 25 max 0 min
Histogram: 35 2 1 0 0 0 0 1 0 1
Nghost:    0.625 ave 10 max 0 min
Histogram: 34 2 1 0 1 0 0 1 0 1
Neighs:    0.025 ave 1 max 0 min
Histogram: 39 0 0 0 0 0 0 0 0 1

Total # of neighbors = 1
Ave neighs/atom = 0.0163934
Neighbor list builds = 5695
Dangerous builds = 0
write_dump all custom dump.atom_info_ac_* id type x y z radius vx vy vz density #
run 154320
Setting up run at Fri Jan  6 05:17:07 2023

Memory usage per processor = 958.989 Mbytes
    Step    Atoms         KinEng            CPU 
30246819       61     0.67655314              0 
30401139       60     0.42983755      1553.5408 
Loop time of 1553.54 on 40 procs for 154320 steps with 60 atoms, finish time Fri Jan  6 05:43:01 2023


Pair  time (%) = 0.306964 (0.019759)
Neigh time (%) = 2.18773 (0.140822)
Comm  time (%) = 4.36606 (0.281039)
Outpt time (%) = 0.0419109 (0.00269777)
Other time (%) = 1546.64 (99.5557)

Nlocal:    1.5 ave 24 max 0 min
Histogram: 36 0 2 0 0 0 0 1 0 1
Nghost:    0.625 ave 10 max 0 min
Histogram: 34 2 1 1 0 0 0 0 1 1
Neighs:    0.05 ave 2 max 0 min
Histogram: 39 0 0 0 0 0 0 0 0 1

Total # of neighbors = 2
Ave neighs/atom = 0.0333333
Neighbor list builds = 6344
Dangerous builds = 0
write_dump all custom dump.atom_info_ac_* id type x y z radius vx vy vz density #
run 154320
Setting up run at Fri Jan  6 05:43:02 2023

Memory usage per processor = 958.989 Mbytes
    Step    Atoms         KinEng            CPU 
30401139       60     0.42983755              0 
30555459       60      0.4219632      1550.9382 
Loop time of 1550.94 on 40 procs for 154320 steps with 60 atoms, finish time Fri Jan  6 06:08:53 2023


Pair  time (%) = 0.264496 (0.0170539)
Neigh time (%) = 2.43995 (0.157321)
Comm  time (%) = 4.45715 (0.287384)
Outpt time (%) = 0.000308429 (1.98866e-05)
Other time (%) = 1543.78 (99.5382)

Nlocal:    1.5 ave 26 max 0 min
Histogram: 36 2 0 0 0 0 1 0 0 1
Nghost:    0.725 ave 10 max 0 min
Histogram: 33 2 2 0 1 0 0 0 0 2
Neighs:    0.05 ave 2 max 0 min
Histogram: 39 0 0 0 0 0 0 0 0 1

Total # of neighbors = 2
Ave neighs/atom = 0.0333333
Neighbor list builds = 7092
Dangerous builds = 0
write_dump all custom dump.atom_info_ac_* id type x y z radius vx vy vz density #
run 154320
Setting up run at Fri Jan  6 06:08:53 2023

Memory usage per processor = 958.989 Mbytes
    Step    Atoms         KinEng            CPU 
30555459       60      0.4219632              0 
30709779       60     0.41428467      1545.1426 
Loop time of 1545.14 on 40 procs for 154320 steps with 60 atoms, finish time Fri Jan  6 06:34:38 2023


Pair  time (%) = 0.264846 (0.0171406)
Neigh time (%) = 2.02442 (0.131018)
Comm  time (%) = 3.72287 (0.24094)
Outpt time (%) = 0.000608759 (3.93982e-05)
Other time (%) = 1539.13 (99.6109)

Nlocal:    1.5 ave 25 max 0 min
Histogram: 34 4 0 0 0 0 1 0 0 1
Nghost:    0.65 ave 10 max 0 min
Histogram: 33 4 0 1 0 0 0 0 0 2
Neighs:    0.05 ave 2 max 0 min
Histogram: 39 0 0 0 0 0 0 0 0 1

Total # of neighbors = 2
Ave neighs/atom = 0.0333333
Neighbor list builds = 5885
Dangerous builds = 0
write_dump all custom dump.atom_info_ac_* id type x y z radius vx vy vz density #
run 154320
Setting up run at Fri Jan  6 06:34:38 2023

Memory usage per processor = 958.989 Mbytes
    Step    Atoms         KinEng            CPU 
30709779       60     0.41428467              0 
30864099       59     0.56975423      1543.4487 
Loop time of 1543.45 on 40 procs for 154320 steps with 59 atoms, finish time Fri Jan  6 07:00:21 2023


Pair  time (%) = 0.26518 (0.017181)
Neigh time (%) = 1.97964 (0.128261)
Comm  time (%) = 2.33094 (0.151021)
Outpt time (%) = 0.000400603 (2.5955e-05)
Other time (%) = 1538.87 (99.7035)

Nlocal:    1.475 ave 27 max 0 min
Histogram: 35 3 0 0 0 1 0 0 0 1
Nghost:    0.625 ave 11 max 0 min
Histogram: 37 0 1 0 0 0 1 0 0 1
Neighs:    0.05 ave 2 max 0 min
Histogram: 39 0 0 0 0 0 0 0 0 1

Total # of neighbors = 2
Ave neighs/atom = 0.0338983
Neighbor list builds = 5752
Dangerous builds = 2
write_dump all custom dump.atom_info_ac_* id type x y z radius vx vy vz density #
run 97
Setting up run at Fri Jan  6 07:00:21 2023

Memory usage per processor = 958.989 Mbytes
    Step    Atoms         KinEng            CPU 
30864099       59     0.56975423              0 
30864196       59     0.56974456     0.93528953 
Loop time of 0.935304 on 40 procs for 97 steps with 59 atoms, finish time Fri Jan  6 07:00:22 2023


Pair  time (%) = 0.000160814 (0.0171938)
Neigh time (%) = 0.0010228 (0.109354)
Comm  time (%) = 0.00122227 (0.130682)
Outpt time (%) = 0.000279388 (0.0298714)
Other time (%) = 0.932619 (99.7129)

Nlocal:    1.475 ave 27 max 0 min
Histogram: 35 3 0 0 0 1 0 0 0 1
Nghost:    0.625 ave 11 max 0 min
Histogram: 37 0 1 0 0 0 1 0 0 1
Neighs:    0.05 ave 2 max 0 min
Histogram: 39 0 0 0 0 0 0 0 0 1

Total # of neighbors = 2
Ave neighs/atom = 0.0338983
Neighbor list builds = 3
Dangerous builds = 0
write_dump all custom dump.atom_info_ac_* id type x y z radius vx vy vz density #
