ITEM: TIMESTEP
22530819
ITEM: NUMBER OF ATOMS
336
ITEM: BOX BOUNDS ff ff ff
-0.15 0.15
-0.15 0.15
-0.15 0.15
ITEM: ATOMS id type x y z radius vx vy vz density 
392 1 -0.00894912 -0.0397084 -0.0683325 8.4e-05 -19.6376 -2.71687 2.57182 2650 
134 1 -0.00692828 -0.0510102 -0.0673348 0.001312 -18.7138 -0.491735 1.92467 2650 
20 1 -0.0142581 -0.0157083 -0.0666454 0.000847 -19.3831 -0.889121 4.1463 2650 
46 1 -0.0188321 -0.0563903 -0.0654995 0.000847 -11.2865 -1.47426 3.245 2650 
318 1 -0.0211757 -0.0225584 -0.0647812 0.000847 -20.7095 0.815884 6.76755 2650 
3 1 -0.0175253 -0.0188285 -0.0658626 0.000847 -22.1129 -0.430297 5.8823 2650 
301 1 -0.0196465 -8.39994e-05 -0.0660563 8.4e-05 -12.1732 9.7504e-07 3.62085 2650 
289 1 -0.0237142 -0.0435804 -0.0634039 0.001312 -18.8343 -0.488192 7.0388 2650 
499 1 -0.0252927 -0.0111033 -0.0632877 0.000847 -19.9522 -1.64719 7.97095 2650 
269 1 -0.0266825 -0.0158735 -0.0627143 0.000847 -18.8993 -0.234687 8.03808 2650 
369 1 -0.0278376 -0.0120488 -0.0622112 0.000847 -20.5957 1.45759 9.21162 2650 
305 1 -0.0312794 -0.028609 -0.0605541 0.000847 -19.0137 -3.45238 9.81648 2650 
294 1 -0.0345538 -0.0506639 -0.0587477 0.000847 -17.5856 -0.613656 10.3373 2650 
35 1 -0.0397222 -0.0383234 -0.0553867 0.000847 -17.0823 0.954849 12.2425 2650 
456 1 -0.0428962 -0.059531 -0.0535878 0.000233 -25.746 2.10753 18.8837 2650 
471 1 -0.0456535 -0.0110032 -0.0499928 0.001312 -12.5218 -1.2311 11.422 2650 
464 1 -0.0482199 -0.022872 -0.0490294 0.000233 -15.4533 -0.691387 15.1943 2650 
75 1 -0.0507411 -0.0329964 -0.0464157 0.000233 -11.5021 -3.4026 12.5706 2650 
432 1 -0.0503627 -0.0278052 -0.0452616 0.001312 -16.4261 -0.317115 18.2586 2650 
63 1 -0.0566756 -0.0180723 -0.0389505 0.000233 -13.4184 2.70479 19.5202 2650 
494 1 -0.0591993 -0.0415006 -0.0349965 0.000233 -9.18289 2.44957 15.53 2650 
64 1 -0.0592098 -0.0122911 -0.0349786 0.000233 -8.23654 0.279923 13.9391 2650 
80 1 -0.0605854 -0.00848487 -0.0328477 8.4e-05 -3.41217 -0.136057 6.29299 2650 
360 1 -0.0627554 -0.0605538 -0.0266252 0.000847 -7.1048 1.17015 16.7338 2650 
332 1 -0.041326 -0.00744185 -0.0272402 0.000847 -6.131 -0.366099 -4.04868 2650 
265 1 -0.0630524 -0.0213783 -0.0259132 0.000847 -6.27824 -0.65134 15.2651 2650 
341 1 -0.0636711 -0.0161756 -0.0230687 0.001312 -7.24986 0.80172 19.9893 2650 
287 1 -0.00337578 -0.00327296 -0.0158972 0.000233 0.00559768 -0.00730303 -0.00565696 2650 
209 1 -0.00615001 -0.00294668 -0.0122922 0.000233 -0.00423162 -0.00946533 -0.00125148 2650 
223 1 -0.0130856 -0.00318727 -0.010409 8.4e-05 0.00804378 -0.00777609 -0.0112531 2650 
315 1 -0.0675301 -0.053283 -0.00512168 0.001312 -1.4852 0.296092 19.5618 2650 
277 1 -0.0680152 -0.0356423 -0.00467362 0.000847 -1.62527 -0.621039 23.6361 2650 
95 1 -0.0124088 -0.00107429 -0.0058733 0.001312 -0.00543914 -0.00416386 0.00352121 2650 
451 1 -0.0681456 -0.026689 -0.00205144 0.000847 -0.772871 2.8924 25.6554 2650 
423 1 -0.00169542 -0.00167168 -0.00318838 0.000847 -0.0102803 -0.00282026 0.00942778 2650 
60 1 -0.00893381 -0.00279178 0.00194233 0.000847 0.00902878 -0.00459051 0.0108164 2650 
261 1 -0.0686184 -0.0351335 0.00459174 0.000233 1.23999 -3.19709 18.5264 2650 
505 1 -0.0145562 -0.00182026 0.00652312 0.000233 0.00472865 -0.00135733 0.00432382 2650 
381 1 -0.0670957 -0.0492283 0.0120805 0.000847 4.01462 -2.09847 22.2823 2650 
387 1 -0.067523 -0.0448148 0.013046 0.000233 3.95215 0.888488 20.4511 2650 
470 1 -0.0104941 -0.00118889 0.0117716 8.4e-05 0.0112554 -0.00482592 -0.00190467 2650 
503 1 -0.00694051 -8.97986e-05 0.0118246 0.000233 0.00179813 -0.00804141 -0.0119413 2650 
56 1 -0.0662878 -0.0310933 0.0138866 0.001312 4.97573 1.57798 23.7284 2650 
135 1 -0.00142674 -0.000590484 0.012871 0.000847 0.00900114 -0.000763851 0.00963581 2650 
445 1 -0.0655936 -0.0350747 0.0168616 0.001312 6.09826 -1.35862 23.707 2650 
366 1 -0.0667938 -0.0360508 0.016711 8.4e-05 4.99529 -5.78131 15.8612 2650 
424 1 -0.0641973 -0.0530258 0.0229404 0.000847 7.83713 -2.84018 21.9167 2650 
159 1 -0.0636099 -0.0287462 0.023245 0.001312 8.26962 -2.05079 22.6072 2650 
434 1 -0.0638044 -0.0432049 0.0240061 0.000847 6.69959 1.99804 17.7938 2650 
426 1 -0.0644339 -0.0274174 0.0240363 0.000233 7.09899 -1.03604 19.0261 2650 
382 1 -0.0630716 -0.0254336 0.0258729 0.000847 8.71475 -0.608955 21.2296 2650 
138 1 -0.0621424 -0.0380068 0.0280273 0.000847 8.3409 0.32602 18.4804 2650 
390 1 -0.0622813 -0.0603567 0.029162 0.000233 5.99881 3.01224 12.8088 2650 
187 1 -0.0602409 -0.049382 0.0319057 0.000847 8.56268 1.76404 16.1553 2650 
57 1 -0.0574303 -0.0306362 0.0367273 0.000847 13.9085 -1.60974 21.7337 2650 
43 1 -0.054297 -0.0166262 0.0404564 0.001312 11.7553 0.563222 15.7599 2650 
373 1 -0.0531371 -0.00853177 0.0426968 0.000847 13.8703 1.21646 17.2493 2650 
362 1 -0.0522095 -0.0479538 0.044758 0.000233 9.88776 -3.22872 11.5309 2650 
176 1 -0.0515774 -0.0203432 0.044566 0.000847 13.5383 -1.28216 15.6566 2650 
214 1 -0.0501545 -0.0278237 0.0461593 0.000847 13.0001 1.71756 14.1146 2650 
210 1 -0.049727 -0.00360822 0.0477146 8.4e-05 14.5454 -2.19572 15.1573 2650 
498 1 -0.0482557 -0.0391688 0.0481404 0.000847 14.5484 -0.116073 14.5723 2650 
65 1 -0.0438879 -0.0532536 0.0529435 0.000233 33.8546 2.07341 28.0583 2650 
61 1 -0.0372998 -0.0333333 0.0570466 0.000847 19.1928 1.88704 12.5406 2650 
342 1 -0.0373873 -0.0259153 0.0569878 0.000847 17.1735 1.17358 11.2592 2650 
206 1 -0.0340686 -0.0512826 0.0597347 0.000233 15.5399 2.81358 8.86289 2650 
347 1 -0.0262653 -0.0157456 0.0628907 0.000847 20.1452 -2.77534 8.40981 2650 
268 1 -0.0230669 -0.0589675 0.0641328 0.000847 21.4676 -7.09708 7.7184 2650 
266 1 -0.0244804 -0.0193307 0.0636047 0.000847 12.576 -1.58782 4.84006 2650 
473 1 -0.016298 -0.0503564 0.066176 0.000847 18.1961 0.318321 4.48093 2650 
228 1 -0.0170805 -0.04709 0.0659783 0.000847 17.5633 1.06269 4.54639 2650 
86 1 -0.0182699 -0.045637 0.065659 0.000847 17.6762 1.57843 4.91796 2650 
204 1 -0.0147329 -0.0497996 0.0665419 0.000847 18.3222 0.225032 4.05631 2650 
84 1 -0.00464423 -0.0403192 0.0679958 0.000847 24.122 2.60123 1.64722 2650 
256 1 -0.00442301 -0.0181328 0.0680106 0.000847 24.4236 0.289912 1.58801 2650 
42 1 -0.0138752 0.00131158 -0.0662506 0.001312 -3.24764 -2.62047e-05 0.680166 2650 
71 1 -0.0262718 0.0447612 -0.062887 0.000847 -18.0471 -2.53851 7.53717 2650 
235 1 -0.0030185 0.0224029 -0.0163665 0.000233 0.0771057 0.0455774 -0.0194474 2650 
9 1 -0.00360888 0.0504111 -0.0162259 0.000233 -0.035162 0.0342428 0.00405774 2650 
146 1 -0.00336096 0.00500928 -0.0149129 0.001312 -0.00237294 -0.000472249 -0.00400769 2650 
217 1 -0.00562802 0.00713775 -0.0148209 0.000847 -0.0169764 -0.0210234 0.0147101 2650 
108 1 -0.00478146 0.015835 -0.0148504 0.001312 -0.0417706 -0.020725 0.0178245 2650 
97 1 -0.00295609 0.0451497 -0.0155032 0.000847 -0.0549434 0.0179701 0.00216046 2650 
94 1 -0.00515609 0.009466 -0.013566 0.001312 -0.0301364 -0.00470128 -0.00339898 2650 
462 1 -0.00386794 0.0124249 -0.0142149 0.000847 -0.112968 0.024348 -0.0973033 2650 
211 1 -0.00439922 0.0326445 -0.0136166 0.001312 -0.00647975 0.0215829 0.00725476 2650 
212 1 -0.0058081 0.00704387 -0.0123149 0.001312 -0.014961 -0.0139841 0.0044654 2650 
404 1 -0.0120035 0.0251856 -0.0116436 0.000233 -0.00649817 0.0360205 0.0115305 2650 
199 1 -0.00833957 0.0273853 -0.0113581 0.001312 0.00174157 0.0164968 0.000362812 2650 
5 1 -0.0050485 0.01025 -0.0108864 0.000847 -0.0141574 0.00264983 0.0135008 2650 
15 1 -0.00123521 0.0172617 -0.0107564 0.001312 0.000383538 0.0097622 -0.00333507 2650 
405 1 -0.0104657 0.0202461 -0.0110156 8.4e-05 -0.00308835 0.0109991 0.00869789 2650 
202 1 -0.0120302 0.0247925 -0.0106004 0.000847 -0.00526864 0.0185914 0.00942492 2650 
408 1 -0.00839476 0.00060963 -0.00860451 0.000847 -0.0028572 -0.00329893 0.00648662 2650 
68 1 -0.0106689 0.00271955 -0.00883624 0.001312 -0.00322928 -0.00161197 0.00532516 2650 
2 1 -0.00965221 0.00523315 -0.00839288 0.001312 0.000596146 -0.000340558 -0.00205963 2650 
151 1 -0.00985027 0.0709164 -0.00794144 0.000847 -0.0129174 0.0570025 0.0129622 2650 
105 1 -0.0104212 0.00133485 -0.00750418 0.000233 -0.00602547 -0.0094725 0.00517211 2650 
438 1 -0.00894806 0.00870209 -0.00678091 0.000847 -0.0286276 0.013195 -0.0115405 2650 
121 1 -0.0141843 0.0265154 -0.00688425 0.001312 -0.00588926 0.0206484 0.00970723 2650 
421 1 -0.00626196 0.0281605 -0.00758226 0.000847 0.00191648 0.0181783 0.0127456 2650 
244 1 -0.00675087 0.0289129 -0.00678225 0.000233 -0.00319051 0.0276642 0.0100926 2650 
403 1 -0.0152114 0.0343101 -0.00673541 0.000233 -0.0328575 0.022957 0.0628689 2650 
186 1 -0.0126647 0.0535291 -0.00766954 0.001312 -0.00448085 0.0297096 0.011177 2650 
66 1 -0.0108321 0.0610748 -0.00639799 0.000233 0.00377936 0.0342087 0.00385618 2650 
246 1 -0.0156492 0.00146142 -0.00524711 0.000233 0.00358945 -0.00360505 -0.00789929 2650 
242 1 -0.00756602 0.00720543 -0.00476475 0.000847 0.00129703 0.00497959 -0.00581669 2650 
399 1 -0.00316127 0.00647295 -0.00604426 0.000847 0.00662952 -0.000885894 0.0126789 2650 
147 1 -0.0141642 0.0117917 -0.00569873 0.001312 -0.000767133 0.00190509 0.00696892 2650 
388 1 -0.0159586 0.0200539 -0.00494902 0.000233 0.0157637 0.00412457 -0.0884231 2650 
149 1 -0.014822 0.0205615 -0.00612513 0.000847 -0.00573128 0.0130183 0.00390553 2650 
370 1 -0.0128295 0.061889 -0.00486847 0.000847 -0.0088275 0.0632208 0.0318936 2650 
172 1 -0.00231822 0.0625903 -0.00590159 0.001312 0.0148852 0.0382336 0.00666398 2650 
512 1 -0.00829847 0.00135346 -0.00342739 0.000847 0.000405434 -0.00312093 0.0049103 2650 
440 1 -0.00879525 0.00259968 -0.00353178 0.000233 0.00637766 0.0032616 -0.0067895 2650 
447 1 -0.0151659 0.0162405 -0.00359258 0.000847 -0.0132173 0.0118429 0.016787 2650 
413 1 -0.00722208 0.0265122 -0.00385104 0.000233 -0.00459354 0.0175567 0.000506024 2650 
216 1 -0.00121568 0.0472363 -0.00383311 0.000847 -0.0314335 0.10103 -0.0360238 2650 
321 1 -0.0132196 0.00755024 -0.00270707 0.000847 0.00236895 0.0079155 -0.00199627 2650 
395 1 -0.000956022 0.00994824 -0.00285034 0.000847 0.00478061 0.00702116 0.0109016 2650 
450 1 -0.0158412 0.0410143 -0.00251198 0.000847 -0.019461 -0.00310965 0.0750797 2650 
467 1 -0.015288 0.00798336 -0.00102835 0.000233 -0.0100048 0.0082939 0.00134744 2650 
515 1 -0.0102243 0.015089 -0.00125274 0.000847 0.00857855 0.00819563 -0.0170642 2650 
343 1 -0.0129766 0.0244982 -0.000214072 0.000847 -0.00242637 0.0172445 0.0160061 2650 
501 1 -0.0158955 0.026696 -0.001422 0.000847 -0.000595894 0.0181728 0.0176808 2650 
87 1 -0.0119063 0.0599458 -0.000706648 0.000847 -0.000765043 0.030515 -0.0195847 2650 
8 1 -0.00727201 0.00927957 0.000681318 0.000233 0.0177695 -0.00052839 0.00344916 2650 
139 1 -0.0100201 0.012701 0.0011518 0.000847 -0.0143455 0.00436253 0.0104723 2650 
237 1 -0.0100233 3.53566e-05 0.00163081 0.001312 0.00794013 -0.00285066 0.00853558 2650 
76 1 -0.00920193 0.00306778 0.00281107 0.000233 -0.00400535 -0.00118408 0.016181 2650 
383 1 -0.00425352 0.0212262 0.0026663 0.000847 -0.0178103 0.00948738 0.00375842 2650 
126 1 -0.00879391 0.0561566 0.00251176 0.000847 -0.0117635 0.0320611 -0.0223495 2650 
511 1 -0.00790912 0.072045 0.0022344 0.000847 -0.00369014 0.0427978 0.0240509 2650 
168 1 -0.0111607 0.00793702 0.00466752 0.000233 -6.1116e-05 0.00638121 0.00638153 2650 
374 1 -0.00929557 0.00643424 0.00347982 0.000233 -0.00203714 0.00619648 0.000812705 2650 
129 1 -0.0160484 0.0150647 0.00430062 0.000233 0.00490825 0.010366 0.0265679 2650 
144 1 -0.00791836 0.020705 0.00453379 0.000233 -0.00755938 0.015293 0.0125537 2650 
312 1 -0.00379765 0.00304437 0.00565177 0.000233 0.00572427 4.16338e-05 0.00977713 2650 
345 1 -0.0102783 0.025818 0.00512741 0.000847 -0.00942566 0.0843974 -0.0129367 2650 
91 1 -0.0141652 0.0626676 0.00479366 0.000233 -0.00201407 0.0397236 -0.0270539 2650 
178 1 -0.00119747 0.0669689 0.00628841 0.000847 0.028924 0.0344822 0.00528006 2650 
160 1 -0.0116532 0.0053129 0.00642776 0.001312 -0.00646378 0.00595793 0.012227 2650 
482 1 -0.00853087 0.0734929 0.00746093 0.000233 0.000351426 0.0488467 0.0205314 2650 
418 1 -0.014691 0.0511229 0.00810222 8.4e-05 0.0510913 -0.0119956 0.117244 2650 
215 1 -0.0011044 0.0141216 0.0103243 0.000847 -0.00285515 0.00806101 0.0151955 2650 
276 1 -0.00910364 0.0206083 0.00948505 0.001312 -0.0158282 0.0140503 0.0219122 2650 
117 1 -0.0120178 0.0284765 0.0100015 0.000233 -0.00943193 -0.00656119 -0.018482 2650 
238 1 -0.00996912 0.0214148 0.0120199 0.001312 0.0290179 -0.00519811 0.0251735 2650 
476 1 -0.00360181 0.0360944 0.0122676 0.000847 -0.00299427 0.0238541 -0.00557422 2650 
174 1 -0.00256119 0.0384267 0.01173 0.000847 0.000488961 0.0253716 0.00893035 2650 
484 1 -0.0103205 0.0523402 0.0115371 0.001312 0.0908473 0.0401253 0.0789706 2650 
198 1 -0.00827766 0.0324896 0.0131954 0.001312 0.0287517 0.0191588 0.0148054 2650 
222 1 -0.00886201 0.0363516 0.0138918 0.000233 0.0283059 0.00307197 0.0189524 2650 
153 1 -0.00759051 0.00570645 0.0148128 0.000233 0.0150745 0.00785701 0.00833558 2650 
99 1 -0.00588299 0.0065968 0.0144525 0.000847 0.000255479 -0.0104287 0.00137276 2650 
226 1 -0.000946598 0.00942731 0.0150744 0.000847 0.0154757 0.0336761 0.0803862 2650 
394 1 -0.00512417 0.0150128 0.0144537 0.000847 0.0119749 0.0360867 -0.00673505 2650 
48 1 -0.00650276 0.0327818 0.0145748 0.000847 0.0201873 0.0177603 0.0108419 2650 
331 1 -0.00505194 0.036037 0.0147147 0.000847 0.00943175 0.022743 0.0201838 2650 
39 1 -0.00585099 0.0422916 0.0155501 0.000233 -0.0242385 0.0262187 -0.0105795 2650 
38 1 -0.00148567 0.0535539 0.0142905 0.000233 -0.017245 0.0350377 -0.00421086 2650 
85 1 -0.0539484 0.0220775 0.0416865 0.000847 26.4164 -7.7902 34.1662 2650 
150 1 -0.0052995 0.0672442 0.0679632 0.000847 49.5633 0.271174 3.86257 2650 
293 1 -0.0297846 0.10795 -0.0613087 0.000847 -28.0673 4.09684 13.6271 2650 
1 1 -0.0535103 0.0778856 -0.041521 0.001312 -23.1201 -3.19367 29.7692 2650 
225 1 -0.0653154 0.105002 -0.0179495 0.001312 -9.40038 -0.586943 34.175 2650 
320 1 -0.00728727 0.0779971 -0.00294325 0.000847 -0.00516447 0.0518598 0.0253791 2650 
6 1 -0.00782966 0.112179 0.00184311 0.000847 -0.0179648 0.0964856 0.023264 2650 
213 1 -0.0042107 0.0936364 0.0135735 0.000847 0.0100469 0.055921 0.0298514 2650 
279 1 -0.0637126 0.0769323 0.024277 0.000847 14.4557 -0.672732 37.9147 2650 
495 1 0.00360504 -0.016627 -0.0686724 0.000233 -19.4208 3.26591 -1.01952 2650 
82 1 0.0100802 -0.0614882 -0.0669332 0.001312 -5.697 -2.23673e-06 -0.857969 2650 
299 1 0.0159942 -0.0513684 -0.0668811 0.000233 -17.3196 1.83734 -4.14188 2650 
448 1 0.012566 -0.0423449 -0.0669848 0.000847 -17.0244 0.790524 -3.19352 2650 
112 1 0.0139731 -0.0408997 -0.0667061 0.000847 -21.2666 0.42963 -4.45395 2650 
334 1 0.0129503 -0.0261804 -0.0669117 0.000847 -18.983 -2.21622 -3.67366 2650 
120 1 0.0185091 -0.0360636 -0.0651132 0.001312 -19.6017 -0.277179 -5.56805 2650 
250 1 0.0233473 -0.0410893 -0.0635395 0.001312 -18.3985 1.19341 -6.75516 2650 
142 1 0.0242375 -0.0137305 -0.0643541 0.000233 -20.3736 -2.36544 -7.67324 2650 
290 1 0.0283449 -0.0592219 -0.0619797 0.000847 -14.7272 0.912339 -6.73388 2650 
111 1 0.0315631 -0.000846962 -0.0604039 0.000847 -10.1707 -3.30979e-07 -5.3141 2650 
98 1 0.0324777 -0.0399512 -0.0599199 0.000847 -17.911 0.633127 -9.7028 2650 
195 1 0.0330238 -0.0391091 -0.0603185 0.000233 -17.8914 0.576584 -9.79532 2650 
197 1 0.0344232 -0.0384286 -0.0597031 8.4e-05 -20.9313 5.51187 -12.0684 2650 
385 1 0.0349245 -0.0273342 -0.058578 0.000847 -70.1102 2.53576 -41.7656 2650 
122 1 0.0416552 -0.0613429 -0.0539736 0.000847 -41.7931 3.6875 -32.2713 2650 
420 1 0.0452745 -0.0610693 -0.0509769 0.000847 -28.4804 -4.62657 -26.3785 2650 
239 1 0.045266 -0.045507 -0.0509602 0.000847 -16.0519 0.0486292 -14.2477 2650 
497 1 0.0468181 -0.0570001 -0.0488157 0.001312 -14.6545 6.61369 -14.7963 2650 
338 1 0.047542 -0.00438611 -0.048953 0.000233 17.5649 -20.4952 -21.7314 2650 
307 1 0.048982 -0.0540425 -0.04741 0.000847 -22.0052 1.96757 -22.7197 2650 
487 1 0.0506324 -0.0481209 -0.0456357 0.000847 -13.4888 0.317893 -14.9545 2650 
136 1 0.0487071 -0.0289631 -0.047726 0.000847 -47.0434 0.798542 -47.9748 2650 
460 1 0.0522286 -0.0440539 -0.0438011 0.000847 -12.8131 1.84232 -15.267 2650 
101 1 0.054461 -0.0586425 -0.0419901 0.000233 -9.65979 1.72275 -12.5256 2650 
21 1 0.0545176 -0.0225513 -0.040914 0.000847 -6.66726 -2.38033 -8.87653 2650 
304 1 0.054187 -0.0138591 -0.0413541 0.000847 -10.6871 -0.323839 -13.9928 2650 
278 1 0.0552804 -0.0337913 -0.0398854 0.000847 -13.2567 -0.907457 -18.3603 2650 
44 1 0.0553485 -0.00925277 -0.0397843 0.000847 -7.35949 2.09167 -10.2307 2650 
296 1 0.0571258 -0.0173435 -0.0382871 0.000233 -9.63474 -1.24458 -14.372 2650 
281 1 0.0585144 -0.0373125 -0.0349699 0.000847 -9.73993 0.308559 -16.2857 2650 
17 1 0.0594967 -0.0437014 -0.0332725 0.000847 -9.28254 -1.2243 -16.5866 2650 
384 1 0.0593776 -0.0159366 -0.0334844 0.000847 -9.31359 0.387076 -16.5036 2650 
459 1 0.0533668 -0.0306006 -0.0261167 0.000847 -17.8724 0.0385387 4.00004 2650 
264 1 0.0622925 -0.0107939 -0.0276911 0.000847 -7.60446 -0.903737 -17.0943 2650 
7 1 0.0637339 -0.046636 -0.0241945 0.000847 -7.43231 -0.798058 -19.5647 2650 
411 1 0.0655022 -0.0107483 -0.0188902 0.000847 -4.83372 -1.68642 -16.7491 2650 
133 1 0.0655921 -0.0272191 -0.0168545 0.001312 -5.1208 -2.68938 -19.9081 2650 
37 1 0.048874 -0.0617652 -0.011699 0.000233 -14.7159 0.824115 24.4497 2650 
444 1 0.000432 -0.00324096 -0.014191 8.4e-05 0 -0.01175 0 2650 
328 1 0.00216828 -0.00211096 -0.0141838 0.001312 -0.0200118 -0.00142397 0.00528589 2650 
486 1 0.0671077 -0.058933 -0.0120306 0.000847 -5.23907 7.36772 -29.2025 2650 
400 1 0.0117485 -0.0026896 -0.0100011 0.000233 0.860639 0.181484 -0.908114 2650 
292 1 0.0122022 -0.00358928 -0.00936307 0.000847 1.60088 -0.0633193 -1.22583 2650 
317 1 0.0675023 -0.00359837 -0.00952397 0.000847 -1.16298 -0.275565 -8.23666 2650 
79 1 0.00214011 -0.00226418 -0.00801706 0.000233 0.0116224 -0.00870638 -0.00201173 2650 
513 1 0.0659757 -0.000799764 -0.00589319 0.000847 2.0058 -6.55311 -17.3536 2650 
285 1 0.0686891 -0.0257136 -0.00337506 0.000233 -0.999194 0.400007 -20.3314 2650 
59 1 0.0681486 -0.00627719 -0.00182492 0.000847 -0.425549 1.90532 -15.8806 2650 
29 1 0.0677247 -0.0467569 0.000128161 0.001312 0.0384462 -0.773025 -20.2702 2650 
189 1 0.0681727 -0.0255489 -0.00047424 0.000847 -0.138486 -0.790365 -19.8969 2650 
83 1 0.013158 -0.00249033 0.0021007 0.000847 -0.000379633 -0.00951986 -0.000817454 2650 
190 1 0.068134 -0.0419739 0.0023355 0.000847 0.654189 -1.39295 -19.0709 2650 
389 1 0.0580934 -0.0325072 0.000763382 0.000233 24.9204 -1.90471 -75.2996 2650 
367 1 0.0676626 -0.0230322 0.00288828 0.001312 0.839711 -0.975226 -19.6502 2650 
100 1 0.0676672 -0.0416137 0.00829139 0.000847 2.18378 0.184161 -17.8094 2650 
104 1 0.068241 -0.0236519 0.00852769 0.000233 2.1153 2.52967 -16.9237 2650 
34 1 0.0675502 -0.0161983 0.0091834 0.000847 1.58156 -0.87569 -11.6248 2650 
152 1 0.00806815 -0.00328937 0.0110837 0.000847 -0.00282676 -0.00598522 -0.00341027 2650 
220 1 0.0677609 -0.0210699 0.0117478 0.000233 3.43887 -4.60936 -19.8312 2650 
125 1 0.0673027 -0.0180878 0.0109436 0.000847 7.49109 8.81499 -46.0556 2650 
14 1 0.00410416 -0.000460308 0.012831 8.4e-05 -0.0171883 -0.00314839 0.00497719 2650 
161 1 0.0668006 -0.0546538 0.0136132 0.000847 4.12611 -3.5642 -20.2329 2650 
124 1 0.0666419 -0.0343128 0.014372 0.000847 4.65888 0.564002 -21.5879 2650 
148 1 0.0663619 -0.00703499 0.0156079 0.000847 4.29148 -0.96328 -18.2335 2650 
449 1 0.066019 -0.00123632 0.0169965 0.000847 4.17687 -0.223853 -16.2124 2650 
397 1 0.0638961 -0.0460112 0.023764 0.000847 7.72635 -1.96586 -20.7599 2650 
272 1 0.064893 -0.0194828 0.0227689 0.000233 9.53578 0.0512929 -27.172 2650 
352 1 0.0644083 -0.00461015 0.0241039 0.000233 2.66856 -2.54108 -7.12912 2650 
36 1 0.0637362 -0.0131007 0.0258288 0.000233 6.63443 -0.389294 -16.3678 2650 
282 1 0.0585959 -0.020265 0.0348357 0.000847 11.5825 2.24518 -19.4686 2650 
109 1 0.0580096 -0.0548543 0.0357996 0.000847 9.73668 -0.797425 -15.7655 2650 
173 1 0.0568097 -0.0529988 0.0368461 0.001312 10.0115 -0.426869 -15.4189 2650 
128 1 0.0582188 -0.0510873 0.0366042 0.000233 10.977 -1.75314 -17.4549 2650 
123 1 0.0577593 -0.0316835 0.036214 0.000847 17.3731 -6.78211 -27.6933 2650 
348 1 0.0580498 -0.0017137 0.0368714 0.000233 9.9849 -0.911357 -15.7164 2650 
33 1 0.0553012 -0.0377976 0.0398531 0.000847 10.8181 2.35683 -15.0001 2650 
241 1 0.0547693 -0.0561924 0.0405804 0.000847 10.8914 0.159884 -14.6884 2650 
185 1 0.0534799 -0.0206976 0.0415362 0.001312 15.164 2.53658 -19.5114 2650 
355 1 0.0527185 -0.0270742 0.0432138 0.000847 15.9448 -3.68289 -19.4472 2650 
96 1 0.0515447 -0.0503499 0.0446501 0.000847 45.7465 -18.8091 -52.7742 2650 
458 1 0.0481735 -0.0401369 0.047576 0.001312 14.0582 3.37017 -14.2193 2650 
330 1 0.0469774 -0.00384887 0.0493867 0.000847 14.2928 -0.838241 -13.5852 2650 
252 1 0.0453671 -0.0206995 0.0508716 0.000847 17.904 2.72132 -15.9553 2650 
489 1 0.0453185 -0.0160429 0.0509138 0.000847 16.9979 1.59849 -15.1158 2650 
485 1 0.0438687 -0.0162525 0.0521674 0.000847 16.9857 -0.618234 -14.2722 2650 
380 1 0.041249 -0.0209626 0.0537238 0.001312 35.9008 6.63539 -27.574 2650 
407 1 0.0414926 -0.0307002 0.0540903 0.000847 33.954 -5.77671 -26.0361 2650 
162 1 0.0292439 -0.0515867 0.0615619 0.000847 18.2374 0.00557621 -8.65981 2650 
410 1 0.0232778 -0.0399775 0.064055 0.000847 16.227 -0.109292 -5.89618 2650 
500 1 0.0180156 -0.0408195 0.0657305 0.000847 23.0139 0.118425 -6.3194 2650 
164 1 0.0190466 -0.0394961 0.0654391 0.000847 21.8368 1.14063 -6.33704 2650 
18 1 0.0214737 -0.028307 0.0646866 0.000847 27.7432 -7.48915 -9.20482 2650 
359 1 0.0221807 -0.018603 0.0644434 0.000847 18.5412 0.919895 -6.38036 2650 
393 1 0.0125854 -0.0437176 0.0665142 0.001312 22.864 2.4472 -4.3229 2650 
45 1 0.0150276 -0.0445476 0.0664759 0.000847 17.3007 -0.601056 -3.91073 2650 
478 1 0.0122209 -0.0326806 0.0676031 0.000233 16.6296 -4.55194 -2.62432 2650 
271 1 0.0146071 -0.0199652 0.0671977 0.000233 24.967 -5.03185 -5.42721 2650 
435 1 0.0109025 -0.0166592 0.0672775 0.000847 26.0085 -2.1998 -4.21321 2650 
371 1 0.0139746 -0.0126599 0.066705 0.000847 15.3682 -1.12269 -3.2195 2650 
306 1 0.00628468 -0.0466786 0.0678634 0.000847 22.0172 -1.49515 -2.03862 2650 
346 1 0.00437728 -0.0140625 0.0680128 0.000847 20.8765 3.20133 -1.34343 2650 
361 1 0.000327662 -0.0063894 0.0687662 0.000233 23.0853 -2.79412 -0.109999 2650 
156 1 0.0141275 0.0511247 -0.0673004 0.000233 -44.0328 -5.81167 -9.24278 2650 
419 1 0.0146464 0.00131164 -0.0660844 0.001312 -2.83585 -7.69604e-07 -0.628511 2650 
510 1 0.00445297 0.0156451 -0.01489 0.001312 -0.0157215 0.0084102 -0.0040262 2650 
254 1 0.00722293 0.018958 -0.0142502 0.000847 -0.0124087 -0.00333335 -0.0189732 2650 
475 1 0.00602623 0.0593751 -0.0147889 0.000847 -0.0288138 0.0377335 -0.0195322 2650 
372 1 0.00688154 0.0118419 -0.0140349 0.000847 -0.0164465 0.00478699 -0.006109 2650 
316 1 0.00813316 0.0277488 -0.0139074 0.000847 0.0329222 0.0127513 0.00493261 2650 
502 1 0.0084153 0.00439295 -0.0115091 0.000847 -0.00262011 -0.00589005 -0.000977098 2650 
143 1 0.012293 0.00887344 -0.0111994 0.000233 -0.0407354 -0.00247417 -0.0545146 2650 
224 1 0.00990402 0.0100081 -0.0111081 0.001312 0.00758957 0.00854359 -0.00153997 2650 
363 1 0.0109056 0.0183072 -0.0125925 0.000233 -0.00516116 0.0058541 -0.00751722 2650 
379 1 0.0124498 0.00823625 -0.0109965 8.4e-05 -0.0338502 0.0111889 0.0196835 2650 
391 1 0.0126019 0.00912432 -0.0101569 0.000233 -0.00289256 -0.0367979 0.00115327 2650 
50 1 0.000403549 0.0135796 -0.0108357 0.000233 -0.00985467 0.00835897 0.0104141 2650 
504 1 0.0137065 0.0220258 -0.00957058 0.000233 -0.019703 0.0111893 -0.0404183 2650 
30 1 0.000165079 0.0257503 -0.00816935 0.001312 -0.00353148 0.0092409 0.00816097 2650 
493 1 0.0144705 0.000395498 -0.00668293 0.000233 0.00641568 0.00202184 0.0124062 2650 
81 1 0.00922204 0.00978345 -0.0072722 0.001312 -0.000445867 0.00461828 0.00565011 2650 
107 1 0.00701834 0.0135523 -0.00747139 0.001312 -0.00825355 -0.00301175 -0.00168956 2650 
422 1 0.00105694 9.11345e-05 -0.00553314 0.000847 0.00115368 -0.00430155 0.00770051 2650 
234 1 0.0141116 0.000811382 -0.00528092 0.000233 0.000425273 -0.00114324 0.0138428 2650 
219 1 0.000113849 0.00855041 -0.00479167 0.000233 0.00828851 0.00938278 -0.00645943 2650 
251 1 0.0142198 0.0148992 -0.00593765 0.000847 0.0037192 0.000753037 0.012075 2650 
329 1 0.014278 0.0200422 -0.00626504 0.000847 0.00240939 0.00726232 0.00592291 2650 
365 1 0.0157674 0.0253054 -0.00545968 0.000233 -0.0258135 -0.00483676 -0.0627476 2650 
425 1 0.00161298 0.0367626 -0.00517472 0.000847 -0.00178317 0.0169229 0.0136358 2650 
72 1 0.000518253 0.0605997 -0.00508114 0.000847 0.0131193 0.0325042 0.0089407 2650 
472 1 0.0145256 0.00539643 -0.00408303 0.000847 0.00355261 0.00733776 -0.00789527 2650 
22 1 0.00813799 0.0468762 -0.0044744 0.000233 -0.00816718 0.029577 0.015796 2650 
430 1 0.0131902 0.0463055 -0.00400473 0.000233 -0.0101489 0.0298533 -0.0316409 2650 
157 1 0.0114078 0.0171265 -0.00260322 0.000233 -0.00252876 -5.74435e-05 0.00600991 2650 
191 1 0.00705846 0.0471419 -0.00308639 0.000847 0.0485615 0.113415 -0.0373411 2650 
375 1 0.0147253 0.00705858 -0.00143452 0.000233 -0.0089953 0.00160435 -0.00547036 2650 
474 1 0.0144991 0.0473085 -0.000906351 0.000847 -0.0107453 0.0295095 -0.00630889 2650 
227 1 0.00145849 0.0170735 0.00155792 0.000847 -0.0137908 0.00458495 0.00563828 2650 
255 1 0.00849088 0.0150577 0.00158217 0.000847 0.00392617 0.00903056 0.00898064 2650 
137 1 0.00360954 0.0426 0.00243738 0.000847 0.0202347 0.0234308 -0.000934137 2650 
517 1 0.0116867 0.0511139 0.00188435 0.000233 -0.00877497 0.0304557 -0.0141504 2650 
457 1 0.0141799 0.00350919 0.00448875 8.4e-05 0.00244839 -0.00723877 0.00984229 2650 
74 1 0.00293934 0.018605 0.00338865 0.000847 -0.00423609 0.00905328 0.00538328 2650 
103 1 0.00153556 0.00676786 0.00609331 0.000233 -0.0110492 -0.00251187 -0.00895235 2650 
377 1 0.0131035 0.0141061 0.00513086 0.000233 -0.0118347 0.00672759 0.0043411 2650 
437 1 0.0115528 0.00289096 0.00766737 0.000847 -0.00894417 -0.000602878 0.00253572 2650 
188 1 0.00984071 0.0382747 0.0073193 0.000847 -0.00999229 0.0117976 0.0282674 2650 
368 1 0.0146141 0.0370536 0.00632877 0.000847 0.00125698 0.0153677 0.0249687 2650 
69 1 0.0124173 0.0155813 0.00796897 0.001312 -0.0447175 0.0440695 -0.02592 2650 
58 1 0.0121193 0.0389781 0.00866702 0.000847 0.0140164 0.0148299 -0.0271584 2650 
303 1 0.00594648 0.00101459 0.0105676 0.000847 -0.00382143 -0.00385274 0.0103306 2650 
492 1 0.0124885 0.000917454 0.010168 0.000233 -0.00654699 -0.00267274 0.00234021 2650 
333 1 0.0116168 0.00427829 0.0107892 0.000847 -0.0030086 -0.00546092 -0.00200062 2650 
354 1 0.00417751 0.0314945 0.0117412 0.001312 -0.0140221 0.0126307 0.00535461 2650 
406 1 0.00710927 0.0358115 0.0123148 0.001312 0.00296445 0.0274345 -0.00282764 2650 
357 1 0.00482919 0.0180495 0.0134657 0.000847 0.00979877 -0.0100585 -0.00858489 2650 
351 1 0.00505423 0.0311172 0.0135612 0.000233 -0.0113653 0.0111179 -0.012501 2650 
196 1 0.00169014 0.0405417 0.0138376 0.000233 0.0126842 0.0305104 -0.000979182 2650 
16 1 0.0042995 0.0287155 0.0150273 0.001312 0.0134679 0.0232121 -0.00614564 2650 
506 1 0.00717142 0.0417274 0.0150651 0.000233 -0.0161136 0.0230147 0.00769061 2650 
165 1 0.00601035 0.0537745 0.0147725 0.000847 0.0352668 0.0326483 -0.0153926 2650 
325 1 0.00446849 0.00854449 0.0160813 0.000233 -0.0239064 0.00581978 0.00400197 2650 
309 1 0.00405779 0.0274044 0.01625 0.000233 0.0303346 0.00240498 -0.00692275 2650 
31 1 0.0602718 0.0668101 0.0318396 0.000847 0.0900665 -0.0894852 -0.170354 2650 
466 1 0.0108454 0.0874838 0.0122354 0.000233 0.0171536 0.0635024 -0.00654707 2650 
356 1 0.0233622 0.114044 0.0640292 0.000847 27.6088 0.235733 -10.068 2650 
