LIGGGHTS (Version LIGGGHTS-PUBLIC 3.8.0, compiled 2022-11-07-16:55:38 by serperd1, git commit 86544c3f1215bc9744d7929e3eacf53ba086af9e)
units si #
dimension 3 #
newton off #
boundary f f f #
atom_style sphere #
pair_style gran model hertz tangential history #
communicate single vel yes #
region outer_basket cylinder y 0 0 0.15 -0.15 0.15 #
create_box 3 outer_basket #
Created orthogonal box = (-0.15 -0.15 -0.15) to (0.15 0.15 0.15)
  2 by 4 by 5 MPI processor grid
variable my_omega equal 157.0796 #
fix cone_mesh all mesh/surface file cone.stl type 3 scale 1 #
fix rotating_wall_1 all move/mesh mesh cone_mesh rotate/variable origin 0 0 0 axis 0 1 0 omega v_my_omega #
fix filter_mesh_walls all wall/gran model hertz tangential history primitive type 2 ycylinder_filtermesh 0.069 0 0 2 9 -0.0628 0 0.026725 0.01742 0.027225 0.01792 shear x 10.8385 #

fix inlet_cyl_wall_mesh all mesh/surface file in_cyl.stl type 3 scale 1 #
fix top_cyl_wall_mesh all mesh/surface file top_cyl.stl type 3 scale 1 #
fix rotating_wall_4 all move/mesh mesh top_cyl_wall_mesh rotate/variable origin 0 0 0 axis 0 1 0 omega v_my_omega #
fix bot_cyl_wall_mesh all mesh/surface file bot_cyl.stl type 3 scale 1 #
fix rotating_wall_5 all move/mesh mesh bot_cyl_wall_mesh rotate/variable origin 0 0 0 axis 0 1 0 omega v_my_omega #
fix bot_disk_wall_mesh all mesh/surface file bottom_disk.stl type 3 scale 1 #
fix rotating_wall_6 all move/mesh mesh bot_disk_wall_mesh rotate/variable origin 0 0 0 axis 0 1 0 omega v_my_omega #
fix top_disk_wall_mesh all mesh/surface file top_disk.stl type 3 scale 1 #
fix rotating_wall_7 all move/mesh mesh top_disk_wall_mesh rotate/variable origin 0 0 0 axis 0 1 0 omega v_my_omega #
fix GMSH_mesh_walls all wall/gran model hertz tangential history mesh n_meshes 6 meshes cone_mesh top_cyl_wall_mesh bot_cyl_wall_mesh bot_disk_wall_mesh inlet_cyl_wall_mesh top_disk_wall_mesh #
fix Young_mod all property/global youngsModulus peratomtype 375000000 46000000 1000000000 #
fix Poisson_rat all property/global poissonsRatio peratomtype 0.32 0.42 0.29 #
fix Coeff_rest all property/global coefficientRestitution peratomtypepair 3 0.15 0.32 0.475 0.32 0.49 0.645 0.475 0.645 0.8 #
fix Coeff_fric all property/global coefficientFriction peratomtypepair 3 0.04 0.145 0.12 0.145 0.25 0.225 0.12 0.225 0.2 #

neighbor 0.00052488 bin #
neigh_modify delay 0 one 100000 page 5000000 #
fix r_0to10p all particletemplate/sphere 12345787 atom_type 1 density constant 2650 radius constant 8.4e-05 #
fix r_10to50p all particletemplate/sphere 15485863 atom_type 1 density constant 2650 radius constant 0.0002328 #
fix r_50to90p all particletemplate/sphere 15485867 atom_type 1 density constant 2650 radius constant 0.0008466 #
fix r_90to100p all particletemplate/sphere 32452843 atom_type 1 density constant 2650 radius constant 0.0013122 #
fix prob_par all particledistribution/discrete 32452867 4 r_0to10p 0.1 r_10to50p 0.4 r_50to90p 0.4 r_90to100p 0.1 #
pair_coeff * * #
timestep 6.48e-08 #

fix nve_group all nve/sphere #
fix grav_fix all gravity 6.1081 vector 0.017 -0.0033 0 -1 0 #
fix cent_fix all centrifugal 157.0796 0.017 -0.0033 0.069 #

variable step equal step #
variable mycount equal count(all) #
fix print_amount_of_atoms all print 25 "${step} ${mycount}" file numatoms.txt screen no #
run 0 #
Setting up run at Sun Dec 25 22:13:13 2022

Memory usage per processor = 954.637 Mbytes
    Step    Atoms         KinEng            CPU 
       0        0              0              0 
Loop time of 5.93632e-05 on 40 procs for 0 steps with 0 atoms, finish time Sun Dec 25 22:13:14 2022


Pair  time (%) = 0 (0)
Neigh time (%) = 0 (0)
Comm  time (%) = 0 (0)
Outpt time (%) = 0 (0)
Other time (%) = 5.93632e-05 (100)

Nlocal:    0 ave 0 max 0 min
Histogram: 40 0 0 0 0 0 0 0 0 0
Nghost:    0 ave 0 max 0 min
Histogram: 40 0 0 0 0 0 0 0 0 0
Neighs:    0 ave 0 max 0 min
Histogram: 40 0 0 0 0 0 0 0 0 0

Total # of neighbors = 0
Neighbor list builds = 0
Dangerous builds = 0
run 1 #
Setting up run at Sun Dec 25 22:13:14 2022

Memory usage per processor = 954.637 Mbytes
    Step    Atoms         KinEng            CPU 
       0        0              0              0 
       1        0              0    0.009722859 
Loop time of 0.00973415 on 40 procs for 1 steps with 0 atoms, finish time Sun Dec 25 22:13:14 2022


Pair  time (%) = 2.16868e-06 (0.022279)
Neigh time (%) = 0 (0)
Comm  time (%) = 0.000215587 (2.21475)
Outpt time (%) = 0.000108703 (1.11672)
Other time (%) = 0.00940769 (96.6462)

Nlocal:    0 ave 0 max 0 min
Histogram: 40 0 0 0 0 0 0 0 0 0
Nghost:    0 ave 0 max 0 min
Histogram: 40 0 0 0 0 0 0 0 0 0
Neighs:    0 ave 0 max 0 min
Histogram: 40 0 0 0 0 0 0 0 0 0

Total # of neighbors = 0
Neighbor list builds = 0
Dangerous builds = 0
read_dump dump.atom_info_1 1 x y z radius vx vy vz box no add yes replace no #
  orthogonal box = (-0.15 -0.15 -0.15) to (0.15 0.15 0.15)
  0 atoms before read
  522 atoms in snapshot
  0 atoms purged
  0 atoms replaced
  0 atoms trimmed
  522 atoms added
  522 atoms after read
set atom * type 1 density 2650 vy -0.01175 #
  522 settings made for type
  522 settings made for density
  522 settings made for vy
run 1 #
Setting up run at Sun Dec 25 22:13:14 2022

Memory usage per processor = 958.989 Mbytes
    Step    Atoms         KinEng            CPU 
       1      522  2.0467238e-07              0 
       2      522  2.2321206e-07    0.009216254 
Loop time of 0.00923401 on 40 procs for 1 steps with 522 atoms, finish time Sun Dec 25 22:13:14 2022


Pair  time (%) = 2.3522e-06 (0.0254732)
Neigh time (%) = 0 (0)
Comm  time (%) = 5.91165e-06 (0.0640204)
Outpt time (%) = 0.000161842 (1.75267)
Other time (%) = 0.00906391 (98.1578)

Nlocal:    13.05 ave 230 max 0 min
Histogram: 36 2 0 0 0 0 0 0 1 1
Nghost:    6.9 ave 88 max 0 min
Histogram: 36 0 0 0 0 1 1 0 0 2
Neighs:    4.05 ave 71 max 0 min
Histogram: 36 2 0 0 0 0 0 0 0 2

Total # of neighbors = 162
Ave neighs/atom = 0.310345
Neighbor list builds = 0
Dangerous builds = 0
write_dump all custom dump.atom_info_ac_* id type x y z radius vx vy vz density #
run 154320
Setting up run at Sun Dec 25 22:13:14 2022

Memory usage per processor = 958.989 Mbytes
    Step    Atoms         KinEng            CPU 
       2      522  2.2321206e-07              0 
  154322      522  2.5096779e-05      1479.7684 
Loop time of 1479.77 on 40 procs for 154320 steps with 522 atoms, finish time Sun Dec 25 22:37:54 2022


Pair  time (%) = 0.320937 (0.0216883)
Neigh time (%) = 0.136241 (0.00920689)
Comm  time (%) = 0.595852 (0.0402666)
Outpt time (%) = 0.000225885 (1.52649e-05)
Other time (%) = 1478.72 (99.9288)

Nlocal:    13.05 ave 225 max 0 min
Histogram: 36 0 2 0 0 0 0 0 0 2
Nghost:    6.975 ave 93 max 0 min
Histogram: 36 0 0 0 1 1 0 0 0 2
Neighs:    4.4 ave 82 max 0 min
Histogram: 36 2 0 0 0 0 0 0 1 1

Total # of neighbors = 176
Ave neighs/atom = 0.337165
Neighbor list builds = 412
Dangerous builds = 0
write_dump all custom dump.atom_info_ac_* id type x y z radius vx vy vz density #
run 154320
Setting up run at Sun Dec 25 22:37:54 2022

Memory usage per processor = 958.989 Mbytes
    Step    Atoms         KinEng            CPU 
  154322      522  2.5096779e-05              0 
  308642      522  0.00014274771      1490.3809 
Loop time of 1490.38 on 40 procs for 154320 steps with 522 atoms, finish time Sun Dec 25 23:02:44 2022


Pair  time (%) = 0.320889 (0.0215307)
Neigh time (%) = 0.136532 (0.0091609)
Comm  time (%) = 0.627569 (0.0421079)
Outpt time (%) = 0.000235328 (1.57898e-05)
Other time (%) = 1489.3 (99.9272)

Nlocal:    13.05 ave 215 max 0 min
Histogram: 36 0 2 0 0 0 0 0 0 2
Nghost:    7.05 ave 94 max 0 min
Histogram: 36 0 0 0 0 2 0 0 0 2
Neighs:    4.375 ave 75 max 0 min
Histogram: 36 1 1 0 0 0 0 0 0 2

Total # of neighbors = 175
Ave neighs/atom = 0.335249
Neighbor list builds = 412
Dangerous builds = 0
write_dump all custom dump.atom_info_ac_* id type x y z radius vx vy vz density #
run 154320
Setting up run at Sun Dec 25 23:02:44 2022

Memory usage per processor = 958.989 Mbytes
    Step    Atoms         KinEng            CPU 
  308642      522  0.00014274771              0 
  462962      522  0.00014423352      1473.5792 
Loop time of 1473.58 on 40 procs for 154320 steps with 522 atoms, finish time Sun Dec 25 23:27:18 2022


Pair  time (%) = 0.32263 (0.0218942)
Neigh time (%) = 0.136812 (0.00928431)
Comm  time (%) = 0.656504 (0.0445515)
Outpt time (%) = 0.000493959 (3.35209e-05)
Other time (%) = 1472.47 (99.9242)

Nlocal:    13.05 ave 210 max 0 min
Histogram: 36 0 2 0 0 0 0 0 0 2
Nghost:    6.9 ave 92 max 0 min
Histogram: 36 0 0 0 1 1 0 0 0 2
Neighs:    4.275 ave 72 max 0 min
Histogram: 36 0 2 0 0 0 0 0 0 2

Total # of neighbors = 171
Ave neighs/atom = 0.327586
Neighbor list builds = 412
Dangerous builds = 0
write_dump all custom dump.atom_info_ac_* id type x y z radius vx vy vz density #
run 154320
Setting up run at Sun Dec 25 23:27:18 2022

Memory usage per processor = 958.989 Mbytes
    Step    Atoms         KinEng            CPU 
  462962      522  0.00014423352              0 
  617282      522  7.6652719e-05      1485.8105 
Loop time of 1485.81 on 40 procs for 154320 steps with 522 atoms, finish time Sun Dec 25 23:52:04 2022


Pair  time (%) = 0.327749 (0.0220586)
Neigh time (%) = 0.136908 (0.00921438)
Comm  time (%) = 0.655188 (0.0440963)
Outpt time (%) = 0.000466501 (3.13971e-05)
Other time (%) = 1484.69 (99.9246)

Nlocal:    13.05 ave 207 max 0 min
Histogram: 36 0 2 0 0 0 0 0 0 2
Nghost:    6.925 ave 90 max 0 min
Histogram: 36 0 0 0 0 1 1 0 0 2
Neighs:    4.1 ave 74 max 0 min
Histogram: 36 1 1 0 0 0 0 1 0 1

Total # of neighbors = 164
Ave neighs/atom = 0.314176
Neighbor list builds = 412
Dangerous builds = 0
write_dump all custom dump.atom_info_ac_* id type x y z radius vx vy vz density #
run 154320
Setting up run at Sun Dec 25 23:52:04 2022

Memory usage per processor = 958.989 Mbytes
    Step    Atoms         KinEng            CPU 
  617282      522  7.6652719e-05              0 
  771602      522   0.0003105504      1480.7294 
Loop time of 1480.73 on 40 procs for 154320 steps with 522 atoms, finish time Mon Dec 26 00:16:44 2022


Pair  time (%) = 0.327781 (0.0221364)
Neigh time (%) = 0.137153 (0.00926254)
Comm  time (%) = 0.648057 (0.043766)
Outpt time (%) = 0.000268361 (1.81236e-05)
Other time (%) = 1479.62 (99.9248)

Nlocal:    13.05 ave 208 max 0 min
Histogram: 36 0 2 0 0 0 0 0 0 2
Nghost:    6.9 ave 91 max 0 min
Histogram: 36 0 0 0 0 1 1 0 1 1
Neighs:    4 ave 70 max 0 min
Histogram: 36 1 1 0 0 0 0 0 1 1

Total # of neighbors = 160
Ave neighs/atom = 0.306513
Neighbor list builds = 412
Dangerous builds = 0
write_dump all custom dump.atom_info_ac_* id type x y z radius vx vy vz density #
run 154320
Setting up run at Mon Dec 26 00:16:44 2022

Memory usage per processor = 958.989 Mbytes
    Step    Atoms         KinEng            CPU 
  771602      522   0.0003105504              0 
  925922      522   0.0020053579      1471.3206 
Loop time of 1471.32 on 40 procs for 154320 steps with 522 atoms, finish time Mon Dec 26 00:41:16 2022


Pair  time (%) = 0.330889 (0.0224893)
Neigh time (%) = 0.145735 (0.00990501)
Comm  time (%) = 0.631797 (0.0429408)
Outpt time (%) = 0.000197366 (1.34142e-05)
Other time (%) = 1470.21 (99.9247)

Nlocal:    13.05 ave 206 max 0 min
Histogram: 36 0 2 0 0 0 0 0 0 2
Nghost:    6.775 ave 86 max 0 min
Histogram: 36 0 0 0 0 1 1 0 1 1
Neighs:    3.975 ave 74 max 0 min
Histogram: 36 2 0 0 0 0 0 1 0 1

Total # of neighbors = 159
Ave neighs/atom = 0.304598
Neighbor list builds = 436
Dangerous builds = 0
write_dump all custom dump.atom_info_ac_* id type x y z radius vx vy vz density #
run 154320
Setting up run at Mon Dec 26 00:41:16 2022

Memory usage per processor = 958.989 Mbytes
    Step    Atoms         KinEng            CPU 
  925922      522   0.0020053579              0 
 1080242      522  0.00024007912      1487.7913 
Loop time of 1487.79 on 40 procs for 154320 steps with 522 atoms, finish time Mon Dec 26 01:06:04 2022


Pair  time (%) = 0.33267 (0.02236)
Neigh time (%) = 0.148894 (0.0100077)
Comm  time (%) = 0.764868 (0.0514097)
Outpt time (%) = 0.000568701 (3.82245e-05)
Other time (%) = 1486.54 (99.9162)

Nlocal:    13.05 ave 204 max 0 min
Histogram: 36 0 2 0 0 0 0 0 0 2
Nghost:    6.85 ave 84 max 0 min
Histogram: 36 0 0 0 0 0 2 0 0 2
Neighs:    4.05 ave 72 max 0 min
Histogram: 36 0 2 0 0 0 0 1 0 1

Total # of neighbors = 162
Ave neighs/atom = 0.310345
Neighbor list builds = 443
Dangerous builds = 0
write_dump all custom dump.atom_info_ac_* id type x y z radius vx vy vz density #
run 154320
Setting up run at Mon Dec 26 01:06:04 2022

Memory usage per processor = 958.989 Mbytes
    Step    Atoms         KinEng            CPU 
 1080242      522  0.00024007912              0 
 1234562      522  0.00041094969      1490.8081 
Loop time of 1490.81 on 40 procs for 154320 steps with 522 atoms, finish time Mon Dec 26 01:30:55 2022


Pair  time (%) = 0.33408 (0.0224093)
Neigh time (%) = 0.138035 (0.0092591)
Comm  time (%) = 0.701126 (0.0470299)
Outpt time (%) = 0.000322315 (2.16201e-05)
Other time (%) = 1489.63 (99.9213)

Nlocal:    13.05 ave 203 max 0 min
Histogram: 36 0 2 0 0 0 0 0 0 2
Nghost:    6.575 ave 85 max 0 min
Histogram: 36 0 0 0 0 2 0 0 0 2
Neighs:    4.35 ave 76 max 0 min
Histogram: 36 0 2 0 0 0 0 1 0 1

Total # of neighbors = 174
Ave neighs/atom = 0.333333
Neighbor list builds = 412
Dangerous builds = 0
write_dump all custom dump.atom_info_ac_* id type x y z radius vx vy vz density #
run 154320
Setting up run at Mon Dec 26 01:30:55 2022

Memory usage per processor = 958.989 Mbytes
    Step    Atoms         KinEng            CPU 
 1234562      522  0.00041094969              0 
 1388882      522  0.00052014136      1473.8257 
Loop time of 1473.83 on 40 procs for 154320 steps with 522 atoms, finish time Mon Dec 26 01:55:28 2022


Pair  time (%) = 0.334529 (0.022698)
Neigh time (%) = 0.137699 (0.00934294)
Comm  time (%) = 0.739373 (0.0501669)
Outpt time (%) = 0.000603481 (4.09466e-05)
Other time (%) = 1472.61 (99.9178)

Nlocal:    13.05 ave 200 max 0 min
Histogram: 36 0 2 0 0 0 0 0 0 2
Nghost:    6.425 ave 84 max 0 min
Histogram: 36 0 0 0 0 2 0 0 1 1
Neighs:    4.275 ave 78 max 0 min
Histogram: 36 0 2 0 0 0 1 0 0 1

Total # of neighbors = 171
Ave neighs/atom = 0.327586
Neighbor list builds = 412
Dangerous builds = 0
write_dump all custom dump.atom_info_ac_* id type x y z radius vx vy vz density #
run 154320
Setting up run at Mon Dec 26 01:55:29 2022

Memory usage per processor = 958.989 Mbytes
    Step    Atoms         KinEng            CPU 
 1388882      522  0.00052014136              0 
 1543202      519  0.00039442396      1480.8672 
Loop time of 1480.87 on 40 procs for 154320 steps with 519 atoms, finish time Mon Dec 26 02:20:09 2022


Pair  time (%) = 0.33276 (0.0224706)
Neigh time (%) = 0.202608 (0.0136817)
Comm  time (%) = 0.741171 (0.0500498)
Outpt time (%) = 0.000322375 (2.17693e-05)
Other time (%) = 1479.59 (99.9138)

Nlocal:    12.975 ave 196 max 0 min
Histogram: 36 0 1 1 0 0 0 0 0 2
Nghost:    6.325 ave 85 max 0 min
Histogram: 36 0 0 0 0 1 1 0 1 1
Neighs:    4.2 ave 74 max 0 min
Histogram: 36 0 2 0 0 0 0 1 0 1

Total # of neighbors = 168
Ave neighs/atom = 0.323699
Neighbor list builds = 696
Dangerous builds = 283
write_dump all custom dump.atom_info_ac_* id type x y z radius vx vy vz density #
run 154320
Setting up run at Mon Dec 26 02:20:09 2022

Memory usage per processor = 958.989 Mbytes
    Step    Atoms         KinEng            CPU 
 1543202      519  0.00039442396              0 
 1697522      519  0.00026510324      1487.1611 
Loop time of 1487.16 on 40 procs for 154320 steps with 519 atoms, finish time Mon Dec 26 02:44:57 2022


Pair  time (%) = 0.328154 (0.0220658)
Neigh time (%) = 0.137802 (0.00926612)
Comm  time (%) = 0.715522 (0.0481133)
Outpt time (%) = 0.000217252 (1.46085e-05)
Other time (%) = 1485.98 (99.9205)

Nlocal:    12.975 ave 196 max 0 min
Histogram: 36 0 1 1 0 0 0 0 0 2
Nghost:    6.375 ave 85 max 0 min
Histogram: 36 0 0 0 0 2 0 0 1 1
Neighs:    4.175 ave 71 max 0 min
Histogram: 36 0 1 1 0 0 0 1 0 1

Total # of neighbors = 167
Ave neighs/atom = 0.321773
Neighbor list builds = 412
Dangerous builds = 0
write_dump all custom dump.atom_info_ac_* id type x y z radius vx vy vz density #
run 154320
Setting up run at Mon Dec 26 02:44:57 2022

Memory usage per processor = 958.989 Mbytes
    Step    Atoms         KinEng            CPU 
 1697522      519  0.00026510324              0 
 1851842      519   0.0017722857      1496.1082 
Loop time of 1496.11 on 40 procs for 154320 steps with 519 atoms, finish time Mon Dec 26 03:09:53 2022


Pair  time (%) = 0.334303 (0.0223448)
Neigh time (%) = 0.855661 (0.0571925)
Comm  time (%) = 1.6253 (0.108635)
Outpt time (%) = 0.000523552 (3.49942e-05)
Other time (%) = 1493.29 (99.8118)

Nlocal:    12.975 ave 195 max 0 min
Histogram: 36 0 1 1 0 0 0 0 0 2
Nghost:    6.375 ave 87 max 0 min
Histogram: 36 0 0 0 0 2 0 0 1 1
Neighs:    4.05 ave 68 max 0 min
Histogram: 36 0 1 1 0 0 0 1 0 1

Total # of neighbors = 162
Ave neighs/atom = 0.312139
Neighbor list builds = 2568
Dangerous builds = 0
write_dump all custom dump.atom_info_ac_* id type x y z radius vx vy vz density #
run 154320
Setting up run at Mon Dec 26 03:09:53 2022

Memory usage per processor = 958.989 Mbytes
    Step    Atoms         KinEng            CPU 
 1851842      519   0.0017722857              0 
 2006162      518   0.0056321456      1503.8535 
Loop time of 1503.85 on 40 procs for 154320 steps with 518 atoms, finish time Mon Dec 26 03:34:57 2022


Pair  time (%) = 0.337616 (0.0224501)
Neigh time (%) = 1.09668 (0.0729244)
Comm  time (%) = 2.17147 (0.144394)
Outpt time (%) = 0.000329442 (2.19065e-05)
Other time (%) = 1500.25 (99.7602)

Nlocal:    12.95 ave 197 max 0 min
Histogram: 36 0 1 1 0 0 0 0 0 2
Nghost:    6.35 ave 84 max 0 min
Histogram: 36 0 0 0 0 2 0 0 1 1
Neighs:    4.2 ave 68 max 0 min
Histogram: 36 0 1 0 1 0 0 1 0 1

Total # of neighbors = 168
Ave neighs/atom = 0.324324
Neighbor list builds = 4064
Dangerous builds = 2309
write_dump all custom dump.atom_info_ac_* id type x y z radius vx vy vz density #
run 154320
Setting up run at Mon Dec 26 03:34:57 2022

Memory usage per processor = 958.989 Mbytes
    Step    Atoms         KinEng            CPU 
 2006162      518   0.0056321456              0 
 2160482      518     0.01653359      1491.2205 
Loop time of 1491.22 on 40 procs for 154320 steps with 518 atoms, finish time Mon Dec 26 03:59:48 2022


Pair  time (%) = 0.332184 (0.022276)
Neigh time (%) = 0.483627 (0.0324316)
Comm  time (%) = 1.27457 (0.0854715)
Outpt time (%) = 0.000261925 (1.75645e-05)
Other time (%) = 1489.13 (99.8598)

Nlocal:    12.95 ave 194 max 0 min
Histogram: 36 0 1 1 0 0 0 0 0 2
Nghost:    6.6 ave 90 max 0 min
Histogram: 36 0 0 0 1 1 0 0 1 1
Neighs:    4.375 ave 75 max 0 min
Histogram: 36 0 1 1 0 0 0 1 0 1

Total # of neighbors = 175
Ave neighs/atom = 0.337838
Neighbor list builds = 1452
Dangerous builds = 0
write_dump all custom dump.atom_info_ac_* id type x y z radius vx vy vz density #
run 154320
Setting up run at Mon Dec 26 03:59:48 2022

Memory usage per processor = 958.989 Mbytes
    Step    Atoms         KinEng            CPU 
 2160482      518     0.01653359              0 
 2314802      516    0.019636629      1537.6716 
Loop time of 1537.67 on 40 procs for 154320 steps with 516 atoms, finish time Mon Dec 26 04:25:26 2022


Pair  time (%) = 0.345202 (0.0224496)
Neigh time (%) = 2.27809 (0.148152)
Comm  time (%) = 3.27002 (0.212661)
Outpt time (%) = 0.00306426 (0.000199279)
Other time (%) = 1531.78 (99.6165)

Nlocal:    12.9 ave 195 max 0 min
Histogram: 36 0 2 0 0 0 0 0 0 2
Nghost:    6.5 ave 83 max 0 min
Histogram: 36 0 0 0 0 1 1 0 1 1
Neighs:    4.1 ave 74 max 0 min
Histogram: 36 0 2 0 0 0 1 0 0 1

Total # of neighbors = 164
Ave neighs/atom = 0.317829
Neighbor list builds = 7162
Dangerous builds = 362
write_dump all custom dump.atom_info_ac_* id type x y z radius vx vy vz density #
run 154320
Setting up run at Mon Dec 26 04:25:26 2022

Memory usage per processor = 958.989 Mbytes
    Step    Atoms         KinEng            CPU 
 2314802      516    0.019636629              0 
 2469122      516   0.0079729343      1530.8957 
Loop time of 1530.9 on 40 procs for 154320 steps with 516 atoms, finish time Mon Dec 26 04:50:57 2022


Pair  time (%) = 0.345728 (0.0225834)
Neigh time (%) = 2.34267 (0.153026)
Comm  time (%) = 4.4227 (0.288896)
Outpt time (%) = 0.000306124 (1.99964e-05)
Other time (%) = 1523.78 (99.5355)

Nlocal:    12.9 ave 195 max 0 min
Histogram: 36 0 1 1 0 0 0 0 0 2
Nghost:    6.7 ave 81 max 0 min
Histogram: 36 0 0 0 1 0 0 1 0 2
Neighs:    4.275 ave 73 max 0 min
Histogram: 36 0 1 1 0 0 0 1 0 1

Total # of neighbors = 171
Ave neighs/atom = 0.331395
Neighbor list builds = 7042
Dangerous builds = 0
write_dump all custom dump.atom_info_ac_* id type x y z radius vx vy vz density #
run 154320
Setting up run at Mon Dec 26 04:50:57 2022

Memory usage per processor = 958.989 Mbytes
    Step    Atoms         KinEng            CPU 
 2469122      516   0.0079729343              0 
 2623442      516     0.35753065      1518.5793 
Loop time of 1518.58 on 40 procs for 154320 steps with 516 atoms, finish time Mon Dec 26 05:16:15 2022


Pair  time (%) = 0.33641 (0.0221529)
Neigh time (%) = 1.57428 (0.103668)
Comm  time (%) = 3.45093 (0.227247)
Outpt time (%) = 0.000480802 (3.16613e-05)
Other time (%) = 1513.22 (99.6469)

Nlocal:    12.9 ave 194 max 0 min
Histogram: 36 0 2 0 0 0 0 0 0 2
Nghost:    6.75 ave 82 max 0 min
Histogram: 36 0 0 0 0 1 0 1 0 2
Neighs:    4.25 ave 71 max 0 min
Histogram: 36 0 1 1 0 0 0 1 0 1

Total # of neighbors = 170
Ave neighs/atom = 0.329457
Neighbor list builds = 4735
Dangerous builds = 0
write_dump all custom dump.atom_info_ac_* id type x y z radius vx vy vz density #
run 154320
Setting up run at Mon Dec 26 05:16:15 2022

Memory usage per processor = 958.989 Mbytes
    Step    Atoms         KinEng            CPU 
 2623442      516     0.35753065              0 
 2777762      516    0.085003702      1519.3287 
Loop time of 1519.33 on 40 procs for 154320 steps with 516 atoms, finish time Mon Dec 26 05:41:35 2022


Pair  time (%) = 0.336677 (0.0221596)
Neigh time (%) = 1.83629 (0.120862)
Comm  time (%) = 3.02491 (0.199095)
Outpt time (%) = 0.000299109 (1.96869e-05)
Other time (%) = 1514.13 (99.6579)

Nlocal:    12.9 ave 195 max 0 min
Histogram: 36 0 2 0 0 0 0 0 0 2
Nghost:    6.55 ave 80 max 0 min
Histogram: 36 0 0 0 0 1 0 1 0 2
Neighs:    4.3 ave 71 max 0 min
Histogram: 36 1 0 1 0 0 0 0 1 1

Total # of neighbors = 172
Ave neighs/atom = 0.333333
Neighbor list builds = 5518
Dangerous builds = 0
write_dump all custom dump.atom_info_ac_* id type x y z radius vx vy vz density #
run 154320
Setting up run at Mon Dec 26 05:41:35 2022

Memory usage per processor = 958.989 Mbytes
    Step    Atoms         KinEng            CPU 
 2777762      516    0.085003702              0 
 2932082      514     0.13735418      1510.4517 
Loop time of 1510.45 on 40 procs for 154320 steps with 514 atoms, finish time Mon Dec 26 06:06:45 2022


Pair  time (%) = 0.335174 (0.0221903)
Neigh time (%) = 1.3007 (0.0861133)
Comm  time (%) = 2.58366 (0.171052)
Outpt time (%) = 0.000294924 (1.95256e-05)
Other time (%) = 1506.23 (99.7206)

Nlocal:    12.85 ave 194 max 0 min
Histogram: 36 0 2 0 0 0 0 0 1 1
Nghost:    6.725 ave 85 max 0 min
Histogram: 36 0 0 0 1 0 0 1 1 1
Neighs:    4.2 ave 74 max 0 min
Histogram: 36 1 0 1 0 0 0 1 0 1

Total # of neighbors = 168
Ave neighs/atom = 0.326848
Neighbor list builds = 3910
Dangerous builds = 0
write_dump all custom dump.atom_info_ac_* id type x y z radius vx vy vz density #
run 154320
Setting up run at Mon Dec 26 06:06:45 2022

Memory usage per processor = 958.989 Mbytes
    Step    Atoms         KinEng            CPU 
 2932082      514     0.13735418              0 
 3086402      512     0.13910862      1513.7126 
Loop time of 1513.71 on 40 procs for 154320 steps with 512 atoms, finish time Mon Dec 26 06:31:59 2022


Pair  time (%) = 0.339709 (0.0224421)
Neigh time (%) = 1.4668 (0.0969011)
Comm  time (%) = 2.77339 (0.183217)
Outpt time (%) = 0.000564295 (3.72789e-05)
Other time (%) = 1509.13 (99.6974)

Nlocal:    12.8 ave 190 max 0 min
Histogram: 36 0 1 1 0 0 0 0 1 1
Nghost:    6.55 ave 81 max 0 min
Histogram: 36 0 0 0 1 0 0 1 0 2
Neighs:    4.375 ave 77 max 0 min
Histogram: 36 1 0 1 0 0 0 1 0 1

Total # of neighbors = 175
Ave neighs/atom = 0.341797
Neighbor list builds = 4414
Dangerous builds = 27
write_dump all custom dump.atom_info_ac_* id type x y z radius vx vy vz density #
run 154320
Setting up run at Mon Dec 26 06:31:59 2022

Memory usage per processor = 958.989 Mbytes
    Step    Atoms         KinEng            CPU 
 3086402      512     0.13910862              0 
 3240722      511    0.096920537      1512.7342 
Loop time of 1512.74 on 40 procs for 154320 steps with 511 atoms, finish time Mon Dec 26 06:57:12 2022


Pair  time (%) = 0.337576 (0.0223155)
Neigh time (%) = 1.4127 (0.0933867)
Comm  time (%) = 3.67161 (0.242712)
Outpt time (%) = 0.00273957 (0.000181099)
Other time (%) = 1507.32 (99.6414)

Nlocal:    12.775 ave 184 max 0 min
Histogram: 36 0 1 1 0 0 0 0 0 2
Nghost:    6.175 ave 75 max 0 min
Histogram: 36 0 0 0 0 1 0 1 0 2
Neighs:    4.1 ave 77 max 0 min
Histogram: 36 1 1 0 0 0 1 0 0 1

Total # of neighbors = 164
Ave neighs/atom = 0.320939
Neighbor list builds = 4404
Dangerous builds = 319
write_dump all custom dump.atom_info_ac_* id type x y z radius vx vy vz density #
run 154320
Setting up run at Mon Dec 26 06:57:12 2022

Memory usage per processor = 958.989 Mbytes
    Step    Atoms         KinEng            CPU 
 3240722      511    0.096920537              0 
 3395042      510       0.074213      1530.5922 
Loop time of 1530.59 on 40 procs for 154320 steps with 510 atoms, finish time Mon Dec 26 07:22:43 2022


Pair  time (%) = 0.342562 (0.022381)
Neigh time (%) = 2.50175 (0.16345)
Comm  time (%) = 4.82894 (0.315495)
Outpt time (%) = 0.0134614 (0.000879488)
Other time (%) = 1522.91 (99.4978)

Nlocal:    12.75 ave 187 max 0 min
Histogram: 36 0 1 1 0 0 0 0 1 1
Nghost:    6.2 ave 78 max 0 min
Histogram: 36 0 0 0 1 0 0 1 0 2
Neighs:    4.025 ave 78 max 0 min
Histogram: 36 1 1 0 0 0 0 1 0 1

Total # of neighbors = 161
Ave neighs/atom = 0.315686
Neighbor list builds = 7620
Dangerous builds = 0
write_dump all custom dump.atom_info_ac_* id type x y z radius vx vy vz density #
run 154320
Setting up run at Mon Dec 26 07:22:43 2022

Memory usage per processor = 958.989 Mbytes
    Step    Atoms         KinEng            CPU 
 3395042      510       0.074213              0 
 3549362      508     0.13354674      1518.9699 
Loop time of 1518.97 on 40 procs for 154320 steps with 508 atoms, finish time Mon Dec 26 07:48:02 2022


Pair  time (%) = 0.332498 (0.0218897)
Neigh time (%) = 1.54019 (0.101397)
Comm  time (%) = 3.83358 (0.25238)
Outpt time (%) = 0.000280251 (1.84501e-05)
Other time (%) = 1513.26 (99.6243)

Nlocal:    12.7 ave 182 max 0 min
Histogram: 36 0 1 1 0 0 0 0 0 2
Nghost:    6.2 ave 76 max 0 min
Histogram: 36 0 0 0 0 1 0 1 0 2
Neighs:    4.225 ave 89 max 0 min
Histogram: 36 1 1 0 0 1 0 0 0 1

Total # of neighbors = 169
Ave neighs/atom = 0.332677
Neighbor list builds = 4614
Dangerous builds = 39
write_dump all custom dump.atom_info_ac_* id type x y z radius vx vy vz density #
run 154320
Setting up run at Mon Dec 26 07:48:02 2022

Memory usage per processor = 958.989 Mbytes
    Step    Atoms         KinEng            CPU 
 3549362      508     0.13354674              0 
 3703682      508     0.11126075       1505.425 
Loop time of 1505.43 on 40 procs for 154320 steps with 508 atoms, finish time Mon Dec 26 08:13:07 2022


Pair  time (%) = 0.329235 (0.0218699)
Neigh time (%) = 0.940517 (0.0624751)
Comm  time (%) = 2.26238 (0.150282)
Outpt time (%) = 0.00025282 (1.67939e-05)
Other time (%) = 1501.89 (99.7654)

Nlocal:    12.7 ave 179 max 0 min
Histogram: 35 1 1 1 0 0 0 0 0 2
Nghost:    5.9 ave 76 max 0 min
Histogram: 36 0 0 0 0 1 1 0 1 1
Neighs:    3.975 ave 78 max 0 min
Histogram: 36 1 1 0 0 0 1 0 0 1

Total # of neighbors = 159
Ave neighs/atom = 0.312992
Neighbor list builds = 2817
Dangerous builds = 0
write_dump all custom dump.atom_info_ac_* id type x y z radius vx vy vz density #
run 154320
Setting up run at Mon Dec 26 08:13:07 2022

Memory usage per processor = 958.989 Mbytes
    Step    Atoms         KinEng            CPU 
 3703682      508     0.11126075              0 
 3858002      506    0.092538275      1519.7412 
Loop time of 1519.74 on 40 procs for 154320 steps with 506 atoms, finish time Mon Dec 26 08:38:27 2022


Pair  time (%) = 0.336399 (0.0221353)
Neigh time (%) = 1.73963 (0.114469)
Comm  time (%) = 3.87063 (0.25469)
Outpt time (%) = 0.000573476 (3.77351e-05)
Other time (%) = 1513.79 (99.6087)

Nlocal:    12.65 ave 173 max 0 min
Histogram: 35 1 0 2 0 0 0 0 0 2
Nghost:    5.975 ave 76 max 0 min
Histogram: 36 0 0 0 1 0 1 0 0 2
Neighs:    4.175 ave 77 max 0 min
Histogram: 36 1 0 1 0 0 1 0 0 1

Total # of neighbors = 167
Ave neighs/atom = 0.33004
Neighbor list builds = 5228
Dangerous builds = 34
write_dump all custom dump.atom_info_ac_* id type x y z radius vx vy vz density #
run 154320
Setting up run at Mon Dec 26 08:38:27 2022

Memory usage per processor = 958.989 Mbytes
    Step    Atoms         KinEng            CPU 
 3858002      506    0.092538275              0 
 4012322      506     0.19846788      1515.2807 
Loop time of 1515.28 on 40 procs for 154320 steps with 506 atoms, finish time Mon Dec 26 09:03:42 2022


Pair  time (%) = 0.331454 (0.0218741)
Neigh time (%) = 1.36217 (0.0898958)
Comm  time (%) = 3.28797 (0.216987)
Outpt time (%) = 0.000308504 (2.03595e-05)
Other time (%) = 1510.3 (99.6712)

Nlocal:    12.65 ave 172 max 0 min
Histogram: 35 1 2 0 0 0 0 0 0 2
Nghost:    5.775 ave 73 max 0 min
Histogram: 36 0 0 0 1 0 1 0 0 2
Neighs:    3.675 ave 58 max 0 min
Histogram: 36 0 1 1 0 0 0 0 0 2

Total # of neighbors = 147
Ave neighs/atom = 0.290514
Neighbor list builds = 4070
Dangerous builds = 0
write_dump all custom dump.atom_info_ac_* id type x y z radius vx vy vz density #
run 154320
Setting up run at Mon Dec 26 09:03:42 2022

Memory usage per processor = 958.989 Mbytes
    Step    Atoms         KinEng            CPU 
 4012322      506     0.19846788              0 
 4166642      505     0.13925144      1507.0049 
Loop time of 1507.01 on 40 procs for 154320 steps with 505 atoms, finish time Mon Dec 26 09:28:50 2022


Pair  time (%) = 0.329411 (0.0218587)
Neigh time (%) = 1.14565 (0.0760216)
Comm  time (%) = 2.82468 (0.187437)
Outpt time (%) = 0.000594674 (3.94607e-05)
Other time (%) = 1502.7 (99.7146)

Nlocal:    12.625 ave 173 max 0 min
Histogram: 36 0 0 2 0 0 0 0 0 2
Nghost:    5.75 ave 72 max 0 min
Histogram: 36 0 0 0 0 1 1 0 0 2
Neighs:    3.6 ave 57 max 0 min
Histogram: 36 0 1 1 0 0 0 0 0 2

Total # of neighbors = 144
Ave neighs/atom = 0.285149
Neighbor list builds = 3409
Dangerous builds = 0
write_dump all custom dump.atom_info_ac_* id type x y z radius vx vy vz density #
run 154320
Setting up run at Mon Dec 26 09:28:50 2022

Memory usage per processor = 958.989 Mbytes
    Step    Atoms         KinEng            CPU 
 4166642      505     0.13925144              0 
 4320962      504     0.10672041      1504.8025 
Loop time of 1504.8 on 40 procs for 154320 steps with 504 atoms, finish time Mon Dec 26 09:53:54 2022


Pair  time (%) = 0.327244 (0.0217466)
Neigh time (%) = 0.714064 (0.0474523)
Comm  time (%) = 1.9875 (0.132077)
Outpt time (%) = 0.000280704 (1.86539e-05)
Other time (%) = 1501.77 (99.7987)

Nlocal:    12.6 ave 173 max 0 min
Histogram: 34 2 1 1 0 0 0 0 0 2
Nghost:    5.825 ave 68 max 0 min
Histogram: 36 0 0 0 0 0 1 1 0 2
Neighs:    3.45 ave 57 max 0 min
Histogram: 36 0 1 1 0 0 0 0 1 1

Total # of neighbors = 138
Ave neighs/atom = 0.27381
Neighbor list builds = 2128
Dangerous builds = 0
write_dump all custom dump.atom_info_ac_* id type x y z radius vx vy vz density #
run 154320
Setting up run at Mon Dec 26 09:53:54 2022

Memory usage per processor = 958.989 Mbytes
    Step    Atoms         KinEng            CPU 
 4320962      504     0.10672041              0 
 4475282      504     0.11271662      1516.1823 
Loop time of 1516.18 on 40 procs for 154320 steps with 504 atoms, finish time Mon Dec 26 10:19:11 2022


Pair  time (%) = 0.324494 (0.021402)
Neigh time (%) = 0.965209 (0.0636605)
Comm  time (%) = 2.3822 (0.157118)
Outpt time (%) = 0.000259862 (1.71392e-05)
Other time (%) = 1512.51 (99.7578)

Nlocal:    12.6 ave 173 max 0 min
Histogram: 35 1 1 1 0 0 0 0 0 2
Nghost:    5.675 ave 67 max 0 min
Histogram: 36 0 0 0 0 0 1 1 1 1
Neighs:    3.525 ave 60 max 0 min
Histogram: 36 0 1 1 0 0 0 1 0 1

Total # of neighbors = 141
Ave neighs/atom = 0.279762
Neighbor list builds = 2867
Dangerous builds = 0
write_dump all custom dump.atom_info_ac_* id type x y z radius vx vy vz density #
run 154320
Setting up run at Mon Dec 26 10:19:11 2022

Memory usage per processor = 958.989 Mbytes
    Step    Atoms         KinEng            CPU 
 4475282      504     0.11271662              0 
 4629602      503     0.12850434      1566.3556 
Loop time of 1566.36 on 40 procs for 154320 steps with 503 atoms, finish time Mon Dec 26 10:45:17 2022


Pair  time (%) = 0.338213 (0.0215923)
Neigh time (%) = 3.91993 (0.250258)
Comm  time (%) = 8.97932 (0.573262)
Outpt time (%) = 0.000605081 (3.86298e-05)
Other time (%) = 1553.12 (99.1548)

Nlocal:    12.575 ave 175 max 0 min
Histogram: 35 1 1 1 0 0 0 0 1 1
Nghost:    5.9 ave 69 max 0 min
Histogram: 36 0 0 0 0 0 1 1 0 2
Neighs:    3.175 ave 56 max 0 min
Histogram: 36 0 2 0 0 0 0 1 0 1

Total # of neighbors = 127
Ave neighs/atom = 0.252485
Neighbor list builds = 11940
Dangerous builds = 330
write_dump all custom dump.atom_info_ac_* id type x y z radius vx vy vz density #
run 154320
Setting up run at Mon Dec 26 10:45:17 2022

Memory usage per processor = 958.989 Mbytes
    Step    Atoms         KinEng            CPU 
 4629602      503     0.12850434              0 
 4783922      501     0.11151624      1504.5055 
Loop time of 1504.51 on 40 procs for 154320 steps with 501 atoms, finish time Mon Dec 26 11:10:22 2022


Pair  time (%) = 0.324466 (0.0215663)
Neigh time (%) = 0.881478 (0.0585892)
Comm  time (%) = 2.97823 (0.197954)
Outpt time (%) = 0.00028513 (1.89517e-05)
Other time (%) = 1500.32 (99.7219)

Nlocal:    12.525 ave 176 max 0 min
Histogram: 35 1 1 1 0 0 0 0 1 1
Nghost:    5.725 ave 65 max 0 min
Histogram: 36 0 0 0 0 0 2 0 0 2
Neighs:    3.225 ave 62 max 0 min
Histogram: 36 0 2 0 0 1 0 0 0 1

Total # of neighbors = 129
Ave neighs/atom = 0.257485
Neighbor list builds = 2640
Dangerous builds = 5
write_dump all custom dump.atom_info_ac_* id type x y z radius vx vy vz density #
run 154320
Setting up run at Mon Dec 26 11:10:22 2022

Memory usage per processor = 958.989 Mbytes
    Step    Atoms         KinEng            CPU 
 4783922      501     0.11151624              0 
 4938242      499     0.10638367      1497.9999 
Loop time of 1498 on 40 procs for 154320 steps with 499 atoms, finish time Mon Dec 26 11:35:20 2022


Pair  time (%) = 0.322875 (0.0215537)
Neigh time (%) = 0.896116 (0.0598208)
Comm  time (%) = 2.55477 (0.170545)
Outpt time (%) = 0.000202671 (1.35294e-05)
Other time (%) = 1494.23 (99.7481)

Nlocal:    12.475 ave 176 max 0 min
Histogram: 34 2 1 1 0 0 0 0 1 1
Nghost:    5.65 ave 67 max 0 min
Histogram: 36 0 0 0 0 1 0 1 0 2
Neighs:    3.15 ave 65 max 0 min
Histogram: 36 2 0 0 0 0 1 0 0 1

Total # of neighbors = 126
Ave neighs/atom = 0.252505
Neighbor list builds = 2680
Dangerous builds = 11
write_dump all custom dump.atom_info_ac_* id type x y z radius vx vy vz density #
run 154320
Setting up run at Mon Dec 26 11:35:20 2022

Memory usage per processor = 958.989 Mbytes
    Step    Atoms         KinEng            CPU 
 4938242      499     0.10638367              0 
 5092562      497     0.10521896       1514.614 
Loop time of 1514.61 on 40 procs for 154320 steps with 497 atoms, finish time Mon Dec 26 12:00:34 2022


Pair  time (%) = 0.33208 (0.0219251)
Neigh time (%) = 1.87685 (0.123916)
Comm  time (%) = 4.79837 (0.316805)
Outpt time (%) = 0.0005624 (3.71316e-05)
Other time (%) = 1507.61 (99.5373)

Nlocal:    12.425 ave 177 max 0 min
Histogram: 34 2 2 0 0 0 0 0 1 1
Nghost:    5.575 ave 64 max 0 min
Histogram: 36 0 0 0 0 1 0 1 0 2
Neighs:    3.275 ave 70 max 0 min
Histogram: 36 2 0 0 0 1 0 0 0 1

Total # of neighbors = 131
Ave neighs/atom = 0.263581
Neighbor list builds = 5644
Dangerous builds = 0
write_dump all custom dump.atom_info_ac_* id type x y z radius vx vy vz density #
run 154320
Setting up run at Mon Dec 26 12:00:34 2022

Memory usage per processor = 958.989 Mbytes
    Step    Atoms         KinEng            CPU 
 5092562      497     0.10521896              0 
 5246882      496      0.2035529       1505.532 
Loop time of 1505.53 on 40 procs for 154320 steps with 496 atoms, finish time Mon Dec 26 12:25:40 2022


Pair  time (%) = 0.325286 (0.0216061)
Neigh time (%) = 1.51616 (0.100706)
Comm  time (%) = 4.41298 (0.293117)
Outpt time (%) = 0.000355154 (2.35899e-05)
Other time (%) = 1499.28 (99.5845)

Nlocal:    12.4 ave 175 max 0 min
Histogram: 33 3 2 0 0 0 0 1 0 1
Nghost:    5.425 ave 62 max 0 min
Histogram: 36 0 0 0 0 1 0 0 1 2
Neighs:    3.325 ave 67 max 0 min
Histogram: 36 2 0 0 0 0 1 0 0 1

Total # of neighbors = 133
Ave neighs/atom = 0.268145
Neighbor list builds = 4536
Dangerous builds = 0
write_dump all custom dump.atom_info_ac_* id type x y z radius vx vy vz density #
run 154320
Setting up run at Mon Dec 26 12:25:40 2022

Memory usage per processor = 958.989 Mbytes
    Step    Atoms         KinEng            CPU 
 5246882      496      0.2035529              0 
 5401202      496     0.11798783       1503.384 
Loop time of 1503.38 on 40 procs for 154320 steps with 496 atoms, finish time Mon Dec 26 12:50:44 2022


Pair  time (%) = 0.321246 (0.0213682)
Neigh time (%) = 1.06253 (0.0706756)
Comm  time (%) = 2.91508 (0.193901)
Outpt time (%) = 0.000536142 (3.56624e-05)
Other time (%) = 1499.08 (99.714)

Nlocal:    12.4 ave 175 max 0 min
Histogram: 33 3 2 0 0 0 0 1 0 1
Nghost:    5.125 ave 61 max 0 min
Histogram: 36 0 0 0 0 1 0 1 0 2
Neighs:    3.175 ave 65 max 0 min
Histogram: 37 1 0 0 0 0 1 0 0 1

Total # of neighbors = 127
Ave neighs/atom = 0.256048
Neighbor list builds = 3156
Dangerous builds = 0
write_dump all custom dump.atom_info_ac_* id type x y z radius vx vy vz density #
run 154320
Setting up run at Mon Dec 26 12:50:44 2022

Memory usage per processor = 958.989 Mbytes
    Step    Atoms         KinEng            CPU 
 5401202      496     0.11798783              0 
 5555522      494     0.17181131      1497.0049 
Loop time of 1497 on 40 procs for 154320 steps with 494 atoms, finish time Mon Dec 26 13:15:41 2022


Pair  time (%) = 0.325368 (0.0217346)
Neigh time (%) = 1.10421 (0.0737611)
Comm  time (%) = 3.13124 (0.209167)
Outpt time (%) = 0.000243502 (1.6266e-05)
Other time (%) = 1492.44 (99.6953)

Nlocal:    12.35 ave 178 max 0 min
Histogram: 34 3 1 0 0 0 0 1 0 1
Nghost:    5.075 ave 61 max 0 min
Histogram: 36 0 0 0 0 1 0 0 2 1
Neighs:    3.25 ave 72 max 0 min
Histogram: 37 1 0 0 0 1 0 0 0 1

Total # of neighbors = 130
Ave neighs/atom = 0.263158
Neighbor list builds = 3328
Dangerous builds = 102
write_dump all custom dump.atom_info_ac_* id type x y z radius vx vy vz density #
run 154320
Setting up run at Mon Dec 26 13:15:41 2022

Memory usage per processor = 958.989 Mbytes
    Step    Atoms         KinEng            CPU 
 5555522      494     0.17181131              0 
 5709842      493     0.13739205      1495.2725 
Loop time of 1495.27 on 40 procs for 154320 steps with 493 atoms, finish time Mon Dec 26 13:40:36 2022


Pair  time (%) = 0.321926 (0.0215295)
Neigh time (%) = 0.779002 (0.0520976)
Comm  time (%) = 2.29998 (0.153817)
Outpt time (%) = 0.000324781 (2.17205e-05)
Other time (%) = 1491.87 (99.7725)

Nlocal:    12.325 ave 182 max 0 min
Histogram: 35 1 1 1 0 0 0 1 0 1
Nghost:    4.725 ave 53 max 0 min
Histogram: 36 0 0 0 0 1 0 0 0 3
Neighs:    3.025 ave 69 max 0 min
Histogram: 37 1 0 0 0 1 0 0 0 1

Total # of neighbors = 121
Ave neighs/atom = 0.245436
Neighbor list builds = 2321
Dangerous builds = 2
write_dump all custom dump.atom_info_ac_* id type x y z radius vx vy vz density #
run 154320
Setting up run at Mon Dec 26 13:40:36 2022

Memory usage per processor = 958.989 Mbytes
    Step    Atoms         KinEng            CPU 
 5709842      493     0.13739205              0 
 5864162      492     0.16511823      1514.8142 
Loop time of 1514.81 on 40 procs for 154320 steps with 492 atoms, finish time Mon Dec 26 14:05:51 2022


Pair  time (%) = 0.324935 (0.0214505)
Neigh time (%) = 1.81402 (0.119752)
Comm  time (%) = 4.62718 (0.305462)
Outpt time (%) = 0.000581931 (3.8416e-05)
Other time (%) = 1508.05 (99.5533)

Nlocal:    12.3 ave 184 max 0 min
Histogram: 34 3 1 0 0 0 0 1 0 1
Nghost:    4.625 ave 51 max 0 min
Histogram: 36 0 0 0 1 0 0 0 0 3
Neighs:    2.75 ave 69 max 0 min
Histogram: 38 0 0 0 1 0 0 0 0 1

Total # of neighbors = 110
Ave neighs/atom = 0.223577
Neighbor list builds = 5590
Dangerous builds = 324
write_dump all custom dump.atom_info_ac_* id type x y z radius vx vy vz density #
run 154320
Setting up run at Mon Dec 26 14:05:51 2022

Memory usage per processor = 958.989 Mbytes
    Step    Atoms         KinEng            CPU 
 5864162      492     0.16511823              0 
 6018482      490     0.12611036      1497.5427 
Loop time of 1497.54 on 40 procs for 154320 steps with 490 atoms, finish time Mon Dec 26 14:30:49 2022


Pair  time (%) = 0.319338 (0.0213241)
Neigh time (%) = 0.864479 (0.0577265)
Comm  time (%) = 2.60474 (0.173934)
Outpt time (%) = 0.000312162 (2.0845e-05)
Other time (%) = 1493.75 (99.747)

Nlocal:    12.25 ave 183 max 0 min
Histogram: 34 2 2 0 0 0 0 1 0 1
Nghost:    4.6 ave 53 max 0 min
Histogram: 36 0 0 0 0 1 0 0 1 2
Neighs:    2.7 ave 69 max 0 min
Histogram: 37 1 0 1 0 0 0 0 0 1

Total # of neighbors = 108
Ave neighs/atom = 0.220408
Neighbor list builds = 2736
Dangerous builds = 556
write_dump all custom dump.atom_info_ac_* id type x y z radius vx vy vz density #
run 154320
Setting up run at Mon Dec 26 14:30:49 2022

Memory usage per processor = 958.989 Mbytes
    Step    Atoms         KinEng            CPU 
 6018482      490     0.12611036              0 
 6172802      488      0.1264911      1513.6355 
Loop time of 1513.64 on 40 procs for 154320 steps with 488 atoms, finish time Mon Dec 26 14:56:02 2022


Pair  time (%) = 0.329633 (0.0217776)
Neigh time (%) = 2.14675 (0.141827)
Comm  time (%) = 5.8725 (0.387973)
Outpt time (%) = 0.000564578 (3.72995e-05)
Other time (%) = 1505.29 (99.4484)

Nlocal:    12.2 ave 181 max 0 min
Histogram: 34 2 2 0 0 0 0 1 0 1
Nghost:    4.6 ave 52 max 0 min
Histogram: 36 0 0 0 0 1 0 0 0 3
Neighs:    2.675 ave 67 max 0 min
Histogram: 37 1 0 1 0 0 0 0 0 1

Total # of neighbors = 107
Ave neighs/atom = 0.219262
Neighbor list builds = 6823
Dangerous builds = 306
write_dump all custom dump.atom_info_ac_* id type x y z radius vx vy vz density #
run 154320
Setting up run at Mon Dec 26 14:56:02 2022

Memory usage per processor = 958.989 Mbytes
    Step    Atoms         KinEng            CPU 
 6172802      488      0.1264911              0 
 6327122      484      11.413459      1532.7964 
Loop time of 1532.8 on 40 procs for 154320 steps with 484 atoms, finish time Mon Dec 26 15:21:35 2022


Pair  time (%) = 0.33275 (0.0217087)
Neigh time (%) = 2.46011 (0.160498)
Comm  time (%) = 6.40708 (0.417999)
Outpt time (%) = 0.00271667 (0.000177236)
Other time (%) = 1523.59 (99.3996)

Nlocal:    12.1 ave 182 max 0 min
Histogram: 33 3 2 0 0 0 1 0 0 1
Nghost:    4.475 ave 51 max 0 min
Histogram: 36 0 0 0 1 0 0 0 0 3
Neighs:    2.65 ave 67 max 0 min
Histogram: 37 1 0 1 0 0 0 0 0 1

Total # of neighbors = 106
Ave neighs/atom = 0.219008
Neighbor list builds = 7566
Dangerous builds = 62
write_dump all custom dump.atom_info_ac_* id type x y z radius vx vy vz density #
run 154320
Setting up run at Mon Dec 26 15:21:35 2022

Memory usage per processor = 958.989 Mbytes
    Step    Atoms         KinEng            CPU 
 6327122      484      11.413459              0 
 6481442      482     0.32476295      1554.5149 
Loop time of 1554.52 on 40 procs for 154320 steps with 482 atoms, finish time Mon Dec 26 15:47:30 2022


Pair  time (%) = 0.338669 (0.0217862)
Neigh time (%) = 3.69449 (0.237662)
Comm  time (%) = 9.18133 (0.590623)
Outpt time (%) = 0.000322881 (2.07705e-05)
Other time (%) = 1541.3 (99.1499)

Nlocal:    12.05 ave 182 max 0 min
Histogram: 33 4 1 0 0 0 1 0 0 1
Nghost:    4.3 ave 50 max 0 min
Histogram: 36 0 0 0 1 0 0 0 1 2
Neighs:    2.525 ave 65 max 0 min
Histogram: 37 1 0 1 0 0 0 0 0 1

Total # of neighbors = 101
Ave neighs/atom = 0.209544
Neighbor list builds = 11081
Dangerous builds = 1
write_dump all custom dump.atom_info_ac_* id type x y z radius vx vy vz density #
run 154320
Setting up run at Mon Dec 26 15:47:30 2022

Memory usage per processor = 958.989 Mbytes
    Step    Atoms         KinEng            CPU 
 6481442      482     0.32476295              0 
 6635762      481     0.21776094      1549.4892 
Loop time of 1549.49 on 40 procs for 154320 steps with 481 atoms, finish time Mon Dec 26 16:13:19 2022


Pair  time (%) = 0.335098 (0.0216263)
Neigh time (%) = 3.74735 (0.241844)
Comm  time (%) = 8.24254 (0.531952)
Outpt time (%) = 0.000529385 (3.41651e-05)
Other time (%) = 1537.16 (99.2045)

Nlocal:    12.025 ave 178 max 0 min
Histogram: 34 2 2 0 0 0 1 0 0 1
Nghost:    4.3 ave 50 max 0 min
Histogram: 36 0 0 0 1 0 0 0 1 2
Neighs:    2.7 ave 70 max 0 min
Histogram: 37 1 1 0 0 0 0 0 0 1

Total # of neighbors = 108
Ave neighs/atom = 0.224532
Neighbor list builds = 11184
Dangerous builds = 0
write_dump all custom dump.atom_info_ac_* id type x y z radius vx vy vz density #
run 154320
Setting up run at Mon Dec 26 16:13:19 2022

Memory usage per processor = 958.989 Mbytes
    Step    Atoms         KinEng            CPU 
 6635762      481     0.21776094              0 
 6790082      479     0.23345188      1554.7071 
Loop time of 1554.71 on 40 procs for 154320 steps with 479 atoms, finish time Mon Dec 26 16:39:14 2022


Pair  time (%) = 0.33964 (0.0218459)
Neigh time (%) = 3.66867 (0.235971)
Comm  time (%) = 9.36793 (0.602553)
Outpt time (%) = 0.000252737 (1.62562e-05)
Other time (%) = 1541.33 (99.1396)

Nlocal:    11.975 ave 176 max 0 min
Histogram: 33 3 2 0 0 0 1 0 0 1
Nghost:    4.525 ave 53 max 0 min
Histogram: 36 0 0 0 1 0 0 1 0 2
Neighs:    2.575 ave 68 max 0 min
Histogram: 37 1 1 0 0 0 0 0 0 1

Total # of neighbors = 103
Ave neighs/atom = 0.215031
Neighbor list builds = 11051
Dangerous builds = 414
write_dump all custom dump.atom_info_ac_* id type x y z radius vx vy vz density #
run 154320
Setting up run at Mon Dec 26 16:39:14 2022

Memory usage per processor = 958.989 Mbytes
    Step    Atoms         KinEng            CPU 
 6790082      479     0.23345188              0 
 6944402      477     0.21641194      1547.7832 
Loop time of 1547.78 on 40 procs for 154320 steps with 477 atoms, finish time Mon Dec 26 17:05:02 2022


Pair  time (%) = 0.334928 (0.0216392)
Neigh time (%) = 3.64622 (0.235577)
Comm  time (%) = 9.52992 (0.615714)
Outpt time (%) = 0.000550521 (3.55683e-05)
Other time (%) = 1534.27 (99.127)

Nlocal:    11.925 ave 176 max 0 min
Histogram: 34 2 2 0 0 0 1 0 0 1
Nghost:    4.475 ave 50 max 0 min
Histogram: 36 0 0 0 1 0 0 0 0 3
Neighs:    2.525 ave 66 max 0 min
Histogram: 37 1 1 0 0 0 0 0 0 1

Total # of neighbors = 101
Ave neighs/atom = 0.21174
Neighbor list builds = 10910
Dangerous builds = 189
write_dump all custom dump.atom_info_ac_* id type x y z radius vx vy vz density #
run 154320
Setting up run at Mon Dec 26 17:05:02 2022

Memory usage per processor = 958.989 Mbytes
    Step    Atoms         KinEng            CPU 
 6944402      477     0.21641194              0 
 7098722      474     0.22687018      1547.0834 
Loop time of 1547.08 on 40 procs for 154320 steps with 474 atoms, finish time Mon Dec 26 17:30:49 2022


Pair  time (%) = 0.333865 (0.0215803)
Neigh time (%) = 3.64091 (0.23534)
Comm  time (%) = 10.4816 (0.67751)
Outpt time (%) = 0.000239925 (1.55082e-05)
Other time (%) = 1532.63 (99.0656)

Nlocal:    11.85 ave 173 max 0 min
Histogram: 34 2 1 1 0 0 0 1 0 1
Nghost:    4.4 ave 54 max 0 min
Histogram: 36 0 0 0 1 0 0 1 1 1
Neighs:    2.525 ave 62 max 0 min
Histogram: 37 0 1 1 0 0 0 0 0 1

Total # of neighbors = 101
Ave neighs/atom = 0.21308
Neighbor list builds = 11269
Dangerous builds = 844
write_dump all custom dump.atom_info_ac_* id type x y z radius vx vy vz density #
run 154320
Setting up run at Mon Dec 26 17:30:49 2022

Memory usage per processor = 958.989 Mbytes
    Step    Atoms         KinEng            CPU 
 7098722      474     0.22687018              0 
 7253042      473     0.39633768      1537.2954 
Loop time of 1537.3 on 40 procs for 154320 steps with 473 atoms, finish time Mon Dec 26 17:56:27 2022


Pair  time (%) = 0.329483 (0.0214326)
Neigh time (%) = 2.73975 (0.178219)
Comm  time (%) = 7.37504 (0.479741)
Outpt time (%) = 0.00289049 (0.000188024)
Other time (%) = 1526.85 (99.3204)

Nlocal:    11.825 ave 172 max 0 min
Histogram: 34 2 1 1 0 0 0 1 0 1
Nghost:    4.525 ave 53 max 0 min
Histogram: 36 0 0 0 1 0 0 0 1 2
Neighs:    2.325 ave 60 max 0 min
Histogram: 37 1 1 0 0 0 0 0 0 1

Total # of neighbors = 93
Ave neighs/atom = 0.196617
Neighbor list builds = 8166
Dangerous builds = 0
write_dump all custom dump.atom_info_ac_* id type x y z radius vx vy vz density #
run 154320
Setting up run at Mon Dec 26 17:56:27 2022

Memory usage per processor = 958.989 Mbytes
    Step    Atoms         KinEng            CPU 
 7253042      473     0.39633768              0 
 7407362      472     0.27700615      1501.0452 
Loop time of 1501.05 on 40 procs for 154320 steps with 472 atoms, finish time Mon Dec 26 18:21:28 2022


Pair  time (%) = 0.316941 (0.0211147)
Neigh time (%) = 1.10805 (0.0738186)
Comm  time (%) = 3.19162 (0.212627)
Outpt time (%) = 0.000548285 (3.65269e-05)
Other time (%) = 1496.43 (99.6924)

Nlocal:    11.8 ave 171 max 0 min
Histogram: 34 2 1 1 0 0 0 1 0 1
Nghost:    4.075 ave 53 max 0 min
Histogram: 36 0 0 1 0 0 0 1 1 1
Neighs:    2.25 ave 53 max 0 min
Histogram: 37 0 2 0 0 0 0 0 0 1

Total # of neighbors = 90
Ave neighs/atom = 0.190678
Neighbor list builds = 3297
Dangerous builds = 0
write_dump all custom dump.atom_info_ac_* id type x y z radius vx vy vz density #
run 154320
Setting up run at Mon Dec 26 18:21:28 2022

Memory usage per processor = 958.989 Mbytes
    Step    Atoms         KinEng            CPU 
 7407362      472     0.27700615              0 
 7561682      472     0.23937651       1507.667 
Loop time of 1507.67 on 40 procs for 154320 steps with 472 atoms, finish time Mon Dec 26 18:46:36 2022


Pair  time (%) = 0.319146 (0.0211682)
Neigh time (%) = 1.48813 (0.098704)
Comm  time (%) = 4.15386 (0.275516)
Outpt time (%) = 0.000281068 (1.86426e-05)
Other time (%) = 1501.71 (99.6046)

Nlocal:    11.8 ave 170 max 0 min
Histogram: 34 2 1 1 0 0 0 1 0 1
Nghost:    4.325 ave 50 max 0 min
Histogram: 36 0 0 0 0 1 0 1 0 2
Neighs:    2.175 ave 52 max 0 min
Histogram: 37 0 2 0 0 0 0 0 0 1

Total # of neighbors = 87
Ave neighs/atom = 0.184322
Neighbor list builds = 4439
Dangerous builds = 0
write_dump all custom dump.atom_info_ac_* id type x y z radius vx vy vz density #
run 154320
Setting up run at Mon Dec 26 18:46:36 2022

Memory usage per processor = 958.989 Mbytes
    Step    Atoms         KinEng            CPU 
 7561682      472     0.23937651              0 
 7716002      472     0.23174465      1503.5588 
Loop time of 1503.56 on 40 procs for 154320 steps with 472 atoms, finish time Mon Dec 26 19:11:39 2022


Pair  time (%) = 0.312876 (0.020809)
Neigh time (%) = 1.26779 (0.0843195)
Comm  time (%) = 4.22574 (0.281049)
Outpt time (%) = 0.000259377 (1.72508e-05)
Other time (%) = 1497.75 (99.6138)

Nlocal:    11.8 ave 169 max 0 min
Histogram: 34 2 1 1 0 0 0 1 0 1
Nghost:    4.05 ave 48 max 0 min
Histogram: 36 0 0 0 1 0 0 1 0 2
Neighs:    2.075 ave 52 max 0 min
Histogram: 37 0 2 0 0 0 0 0 0 1

Total # of neighbors = 83
Ave neighs/atom = 0.175847
Neighbor list builds = 3786
Dangerous builds = 0
write_dump all custom dump.atom_info_ac_* id type x y z radius vx vy vz density #
run 154320
Setting up run at Mon Dec 26 19:11:39 2022

Memory usage per processor = 958.989 Mbytes
    Step    Atoms         KinEng            CPU 
 7716002      472     0.23174465              0 
 7870322      470     0.39715865       1515.311 
Loop time of 1515.32 on 40 procs for 154320 steps with 470 atoms, finish time Mon Dec 26 19:36:55 2022


Pair  time (%) = 0.319898 (0.0211109)
Neigh time (%) = 2.04741 (0.135114)
Comm  time (%) = 5.53616 (0.365346)
Outpt time (%) = 0.00049934 (3.29528e-05)
Other time (%) = 1507.42 (99.4784)

Nlocal:    11.75 ave 165 max 0 min
Histogram: 33 3 1 1 0 0 0 1 0 1
Nghost:    4.15 ave 50 max 0 min
Histogram: 36 0 0 0 1 0 1 0 1 1
Neighs:    1.925 ave 46 max 0 min
Histogram: 37 0 1 1 0 0 0 0 0 1

Total # of neighbors = 77
Ave neighs/atom = 0.16383
Neighbor list builds = 6209
Dangerous builds = 226
write_dump all custom dump.atom_info_ac_* id type x y z radius vx vy vz density #
run 154320
Setting up run at Mon Dec 26 19:36:55 2022

Memory usage per processor = 958.989 Mbytes
    Step    Atoms         KinEng            CPU 
 7870322      470     0.39715865              0 
 8024642      469     0.23371817      1603.6254 
Loop time of 1603.63 on 40 procs for 154320 steps with 469 atoms, finish time Mon Dec 26 20:03:38 2022


Pair  time (%) = 0.344702 (0.0214952)
Neigh time (%) = 6.55423 (0.408713)
Comm  time (%) = 17.0092 (1.06067)
Outpt time (%) = 0.000311125 (1.94014e-05)
Other time (%) = 1579.72 (98.5091)

Nlocal:    11.725 ave 161 max 0 min
Histogram: 34 2 1 1 0 0 0 1 0 1
Nghost:    3.925 ave 50 max 0 min
Histogram: 36 0 0 0 1 0 0 2 0 1
Neighs:    1.9 ave 43 max 0 min
Histogram: 36 1 1 1 0 0 0 0 0 1

Total # of neighbors = 76
Ave neighs/atom = 0.162047
Neighbor list builds = 19634
Dangerous builds = 4
write_dump all custom dump.atom_info_ac_* id type x y z radius vx vy vz density #
run 154320
Setting up run at Mon Dec 26 20:03:38 2022

Memory usage per processor = 958.989 Mbytes
    Step    Atoms         KinEng            CPU 
 8024642      469     0.23371817              0 
 8178962      465     0.21573866      1537.7929 
Loop time of 1537.79 on 40 procs for 154320 steps with 465 atoms, finish time Mon Dec 26 20:29:16 2022


Pair  time (%) = 0.326569 (0.0212362)
Neigh time (%) = 3.43012 (0.223055)
Comm  time (%) = 7.64751 (0.497304)
Outpt time (%) = 0.000555714 (3.61371e-05)
Other time (%) = 1526.39 (99.2584)

Nlocal:    11.625 ave 160 max 0 min
Histogram: 34 0 3 1 0 0 0 1 0 1
Nghost:    3.7 ave 49 max 0 min
Histogram: 36 0 0 0 1 0 1 1 0 1
Neighs:    2.175 ave 48 max 0 min
Histogram: 36 1 1 1 0 0 0 0 0 1

Total # of neighbors = 87
Ave neighs/atom = 0.187097
Neighbor list builds = 10403
Dangerous builds = 654
write_dump all custom dump.atom_info_ac_* id type x y z radius vx vy vz density #
run 154320
Setting up run at Mon Dec 26 20:29:16 2022

Memory usage per processor = 958.989 Mbytes
    Step    Atoms         KinEng            CPU 
 8178962      465     0.21573866              0 
 8333282      463     0.26212765      1595.5181 
Loop time of 1595.52 on 40 procs for 154320 steps with 463 atoms, finish time Mon Dec 26 20:55:52 2022


Pair  time (%) = 0.342837 (0.0214875)
Neigh time (%) = 5.99823 (0.375942)
Comm  time (%) = 12.2474 (0.767615)
Outpt time (%) = 0.000163805 (1.02665e-05)
Other time (%) = 1576.93 (98.8349)

Nlocal:    11.575 ave 161 max 0 min
Histogram: 34 1 3 0 0 0 0 1 0 1
Nghost:    3.8 ave 49 max 0 min
Histogram: 36 0 0 0 1 0 1 1 0 1
Neighs:    2.4 ave 51 max 0 min
Histogram: 37 0 1 0 1 0 0 0 0 1

Total # of neighbors = 96
Ave neighs/atom = 0.207343
Neighbor list builds = 18052
Dangerous builds = 301
write_dump all custom dump.atom_info_ac_* id type x y z radius vx vy vz density #
run 154320
Setting up run at Mon Dec 26 20:55:52 2022

Memory usage per processor = 958.989 Mbytes
    Step    Atoms         KinEng            CPU 
 8333282      463     0.26212765              0 
 8487602      463     0.34500195      1571.5635 
Loop time of 1571.56 on 40 procs for 154320 steps with 463 atoms, finish time Mon Dec 26 21:22:03 2022


Pair  time (%) = 0.330119 (0.0210057)
Neigh time (%) = 4.72735 (0.300805)
Comm  time (%) = 10.9696 (0.698007)
Outpt time (%) = 0.000461963 (2.93951e-05)
Other time (%) = 1555.54 (98.9802)

Nlocal:    11.575 ave 160 max 0 min
Histogram: 34 1 2 1 0 0 0 1 0 1
Nghost:    3.7 ave 48 max 0 min
Histogram: 36 0 0 0 1 0 1 1 0 1
Neighs:    2.375 ave 53 max 0 min
Histogram: 37 0 1 0 1 0 0 0 0 1

Total # of neighbors = 95
Ave neighs/atom = 0.205184
Neighbor list builds = 14072
Dangerous builds = 0
write_dump all custom dump.atom_info_ac_* id type x y z radius vx vy vz density #
run 154320
Setting up run at Mon Dec 26 21:22:03 2022

Memory usage per processor = 958.989 Mbytes
    Step    Atoms         KinEng            CPU 
 8487602      463     0.34500195              0 
 8641922      463     0.31200141      1514.5923 
Loop time of 1514.59 on 40 procs for 154320 steps with 463 atoms, finish time Mon Dec 26 21:47:18 2022


Pair  time (%) = 0.316985 (0.0209287)
Neigh time (%) = 1.57327 (0.103874)
Comm  time (%) = 4.51338 (0.297993)
Outpt time (%) = 0.000261903 (1.7292e-05)
Other time (%) = 1508.19 (99.5772)

Nlocal:    11.575 ave 158 max 0 min
Histogram: 33 3 1 1 0 0 0 1 0 1
Nghost:    3.925 ave 50 max 0 min
Histogram: 36 0 0 0 0 2 0 0 1 1
Neighs:    2.45 ave 55 max 0 min
Histogram: 37 0 1 0 1 0 0 0 0 1

Total # of neighbors = 98
Ave neighs/atom = 0.211663
Neighbor list builds = 4663
Dangerous builds = 0
write_dump all custom dump.atom_info_ac_* id type x y z radius vx vy vz density #
run 154320
Setting up run at Mon Dec 26 21:47:18 2022

Memory usage per processor = 958.989 Mbytes
    Step    Atoms         KinEng            CPU 
 8641922      463     0.31200141              0 
 8796242      462     0.30077028      1498.7147 
Loop time of 1498.72 on 40 procs for 154320 steps with 462 atoms, finish time Mon Dec 26 22:12:17 2022


Pair  time (%) = 0.312302 (0.020838)
Neigh time (%) = 0.973212 (0.0649364)
Comm  time (%) = 2.91392 (0.194428)
Outpt time (%) = 0.000223647 (1.49226e-05)
Other time (%) = 1494.52 (99.7198)

Nlocal:    11.55 ave 156 max 0 min
Histogram: 33 3 1 1 0 0 0 1 0 1
Nghost:    3.95 ave 55 max 0 min
Histogram: 36 0 0 0 1 1 0 1 0 1
Neighs:    2.375 ave 51 max 0 min
Histogram: 37 0 1 0 1 0 0 0 0 1

Total # of neighbors = 95
Ave neighs/atom = 0.205628
Neighbor list builds = 2887
Dangerous builds = 7
write_dump all custom dump.atom_info_ac_* id type x y z radius vx vy vz density #
run 154320
Setting up run at Mon Dec 26 22:12:17 2022

Memory usage per processor = 958.989 Mbytes
    Step    Atoms         KinEng            CPU 
 8796242      462     0.30077028              0 
 8950562      461     0.29364556      1506.7522 
Loop time of 1506.75 on 40 procs for 154320 steps with 461 atoms, finish time Mon Dec 26 22:37:24 2022


Pair  time (%) = 0.316198 (0.0209854)
Neigh time (%) = 1.55584 (0.103258)
Comm  time (%) = 3.96077 (0.262868)
Outpt time (%) = 0.000493811 (3.27732e-05)
Other time (%) = 1500.92 (99.6129)

Nlocal:    11.525 ave 154 max 0 min
Histogram: 33 3 1 1 0 0 0 1 0 1
Nghost:    4.05 ave 56 max 0 min
Histogram: 36 0 0 0 1 0 1 1 0 1
Neighs:    2.325 ave 50 max 0 min
Histogram: 37 0 0 1 1 0 0 0 0 1

Total # of neighbors = 93
Ave neighs/atom = 0.201735
Neighbor list builds = 4630
Dangerous builds = 0
write_dump all custom dump.atom_info_ac_* id type x y z radius vx vy vz density #
run 154320
Setting up run at Mon Dec 26 22:37:24 2022

Memory usage per processor = 958.989 Mbytes
    Step    Atoms         KinEng            CPU 
 8950562      461     0.29364556              0 
 9104882      460     0.46452162      1501.0299 
Loop time of 1501.03 on 40 procs for 154320 steps with 460 atoms, finish time Mon Dec 26 23:02:25 2022


Pair  time (%) = 0.312356 (0.0208094)
Neigh time (%) = 1.14594 (0.0763437)
Comm  time (%) = 2.83049 (0.18857)
Outpt time (%) = 0.00029417 (1.95979e-05)
Other time (%) = 1496.74 (99.7143)

Nlocal:    11.5 ave 152 max 0 min
Histogram: 32 3 2 1 0 0 0 1 0 1
Nghost:    4.1 ave 59 max 0 min
Histogram: 36 0 0 1 0 1 1 0 0 1
Neighs:    2.075 ave 47 max 0 min
Histogram: 37 0 1 1 0 0 0 0 0 1

Total # of neighbors = 83
Ave neighs/atom = 0.180435
Neighbor list builds = 3461
Dangerous builds = 1
write_dump all custom dump.atom_info_ac_* id type x y z radius vx vy vz density #
run 154320
Setting up run at Mon Dec 26 23:02:25 2022

Memory usage per processor = 958.989 Mbytes
    Step    Atoms         KinEng            CPU 
 9104882      460     0.46452162              0 
 9259202      459     0.36310863      1517.4543 
Loop time of 1517.45 on 40 procs for 154320 steps with 459 atoms, finish time Mon Dec 26 23:27:42 2022


Pair  time (%) = 0.313912 (0.0206867)
Neigh time (%) = 1.73327 (0.114222)
Comm  time (%) = 4.33252 (0.285512)
Outpt time (%) = 0.000194652 (1.28276e-05)
Other time (%) = 1511.07 (99.5796)

Nlocal:    11.475 ave 149 max 0 min
Histogram: 32 3 2 1 0 0 0 0 1 1
Nghost:    4.225 ave 60 max 0 min
Histogram: 36 0 0 0 1 0 2 0 0 1
Neighs:    1.95 ave 45 max 0 min
Histogram: 37 0 1 1 0 0 0 0 0 1

Total # of neighbors = 78
Ave neighs/atom = 0.169935
Neighbor list builds = 5344
Dangerous builds = 336
write_dump all custom dump.atom_info_ac_* id type x y z radius vx vy vz density #
run 154320
Setting up run at Mon Dec 26 23:27:42 2022

Memory usage per processor = 958.989 Mbytes
    Step    Atoms         KinEng            CPU 
 9259202      459     0.36310863              0 
 9413522      457     0.42031802      1524.7428 
Loop time of 1524.74 on 40 procs for 154320 steps with 457 atoms, finish time Mon Dec 26 23:53:07 2022


Pair  time (%) = 0.315925 (0.0207199)
Neigh time (%) = 2.79186 (0.183104)
Comm  time (%) = 8.04607 (0.5277)
Outpt time (%) = 0.0232994 (0.00152809)
Other time (%) = 1513.57 (99.2669)

Nlocal:    11.425 ave 146 max 0 min
Histogram: 33 3 1 0 1 0 0 0 1 1
Nghost:    4.275 ave 59 max 0 min
Histogram: 36 0 0 0 1 1 1 0 0 1
Neighs:    2.05 ave 43 max 0 min
Histogram: 37 0 0 1 1 0 0 0 0 1

Total # of neighbors = 82
Ave neighs/atom = 0.179431
Neighbor list builds = 8466
Dangerous builds = 46
write_dump all custom dump.atom_info_ac_* id type x y z radius vx vy vz density #
run 154320
Setting up run at Mon Dec 26 23:53:07 2022

Memory usage per processor = 958.989 Mbytes
    Step    Atoms         KinEng            CPU 
 9413522      457     0.42031802              0 
 9567842      457     0.33226329      1513.1625 
Loop time of 1513.16 on 40 procs for 154320 steps with 457 atoms, finish time Tue Dec 27 00:18:20 2022


Pair  time (%) = 0.309072 (0.0204255)
Neigh time (%) = 1.79159 (0.1184)
Comm  time (%) = 5.10438 (0.337332)
Outpt time (%) = 0.000274641 (1.81502e-05)
Other time (%) = 1505.96 (99.5238)

Nlocal:    11.425 ave 147 max 0 min
Histogram: 33 2 2 1 0 0 0 0 1 1
Nghost:    4.175 ave 52 max 0 min
Histogram: 36 0 0 0 0 1 1 1 0 1
Neighs:    2 ave 41 max 0 min
Histogram: 36 1 1 1 0 0 0 0 0 1

Total # of neighbors = 80
Ave neighs/atom = 0.175055
Neighbor list builds = 5316
Dangerous builds = 0
write_dump all custom dump.atom_info_ac_* id type x y z radius vx vy vz density #
run 154320
Setting up run at Tue Dec 27 00:18:21 2022

Memory usage per processor = 958.989 Mbytes
    Step    Atoms         KinEng            CPU 
 9567842      457     0.33226329              0 
 9722162      456     0.31788666      1507.6823 
Loop time of 1507.68 on 40 procs for 154320 steps with 456 atoms, finish time Tue Dec 27 00:43:28 2022


Pair  time (%) = 0.307793 (0.020415)
Neigh time (%) = 1.63978 (0.108762)
Comm  time (%) = 4.30097 (0.28527)
Outpt time (%) = 0.000478156 (3.17146e-05)
Other time (%) = 1501.43 (99.5855)

Nlocal:    11.4 ave 146 max 0 min
Histogram: 32 4 1 0 1 0 0 0 1 1
Nghost:    4.025 ave 48 max 0 min
Histogram: 36 0 0 0 0 0 1 2 0 1
Neighs:    1.9 ave 41 max 0 min
Histogram: 37 0 1 0 1 0 0 0 0 1

Total # of neighbors = 76
Ave neighs/atom = 0.166667
Neighbor list builds = 5046
Dangerous builds = 522
write_dump all custom dump.atom_info_ac_* id type x y z radius vx vy vz density #
run 154320
Setting up run at Tue Dec 27 00:43:28 2022

Memory usage per processor = 958.989 Mbytes
    Step    Atoms         KinEng            CPU 
 9722162      456     0.31788666              0 
 9876482      455     0.30899504      1512.1589 
Loop time of 1512.16 on 40 procs for 154320 steps with 455 atoms, finish time Tue Dec 27 01:08:40 2022


Pair  time (%) = 0.307428 (0.0203304)
Neigh time (%) = 1.18488 (0.0783567)
Comm  time (%) = 3.35955 (0.222169)
Outpt time (%) = 0.000225994 (1.49451e-05)
Other time (%) = 1507.31 (99.6791)

Nlocal:    11.375 ave 143 max 0 min
Histogram: 32 3 2 1 0 0 0 0 1 1
Nghost:    4.3 ave 49 max 0 min
Histogram: 35 1 0 0 0 0 1 2 0 1
Neighs:    1.95 ave 38 max 0 min
Histogram: 37 0 0 1 0 1 0 0 0 1

Total # of neighbors = 78
Ave neighs/atom = 0.171429
Neighbor list builds = 3515
Dangerous builds = 0
write_dump all custom dump.atom_info_ac_* id type x y z radius vx vy vz density #
run 154320
Setting up run at Tue Dec 27 01:08:41 2022

Memory usage per processor = 958.989 Mbytes
    Step    Atoms         KinEng            CPU 
 9876482      455     0.30899504              0 
10030802      450     0.33300438      1574.7474 
Loop time of 1574.75 on 40 procs for 154320 steps with 450 atoms, finish time Tue Dec 27 01:34:55 2022


Pair  time (%) = 0.332015 (0.0210837)
Neigh time (%) = 4.64429 (0.294923)
Comm  time (%) = 11.9389 (0.758145)
Outpt time (%) = 0.000317952 (2.01907e-05)
Other time (%) = 1557.83 (98.9258)

Nlocal:    11.25 ave 142 max 0 min
Histogram: 32 3 2 1 0 0 0 0 1 1
Nghost:    4.1 ave 47 max 0 min
Histogram: 36 0 0 0 0 0 0 3 0 1
Neighs:    1.775 ave 33 max 0 min
Histogram: 37 0 0 1 0 0 1 0 0 1

Total # of neighbors = 71
Ave neighs/atom = 0.157778
Neighbor list builds = 15496
Dangerous builds = 746
write_dump all custom dump.atom_info_ac_* id type x y z radius vx vy vz density #
run 154320
Setting up run at Tue Dec 27 01:34:55 2022

Memory usage per processor = 958.989 Mbytes
    Step    Atoms         KinEng            CPU 
10030802      450     0.33300438              0 
10185122      449     0.30066031      1517.9488 
Loop time of 1517.95 on 40 procs for 154320 steps with 449 atoms, finish time Tue Dec 27 02:00:13 2022


Pair  time (%) = 0.310708 (0.0204689)
Neigh time (%) = 1.8784 (0.123746)
Comm  time (%) = 4.22184 (0.278128)
Outpt time (%) = 0.000592745 (3.90491e-05)
Other time (%) = 1511.54 (99.5776)

Nlocal:    11.225 ave 141 max 0 min
Histogram: 32 4 1 0 1 0 0 0 1 1
Nghost:    4.175 ave 47 max 0 min
Histogram: 36 0 0 0 0 0 1 2 0 1
Neighs:    2.05 ave 35 max 0 min
Histogram: 36 0 1 1 0 0 1 0 0 1

Total # of neighbors = 82
Ave neighs/atom = 0.182628
Neighbor list builds = 5564
Dangerous builds = 0
write_dump all custom dump.atom_info_ac_* id type x y z radius vx vy vz density #
run 154320
Setting up run at Tue Dec 27 02:00:13 2022

Memory usage per processor = 958.989 Mbytes
    Step    Atoms         KinEng            CPU 
10185122      449     0.30066031              0 
10339442      448     0.28882668       1508.303 
Loop time of 1508.3 on 40 procs for 154320 steps with 448 atoms, finish time Tue Dec 27 02:25:22 2022


Pair  time (%) = 0.30642 (0.0203156)
Neigh time (%) = 1.20894 (0.0801525)
Comm  time (%) = 3.59406 (0.238285)
Outpt time (%) = 0.000274725 (1.82142e-05)
Other time (%) = 1503.19 (99.6612)

Nlocal:    11.2 ave 140 max 0 min
Histogram: 32 4 1 1 0 0 0 0 1 1
Nghost:    4.325 ave 48 max 0 min
Histogram: 36 0 0 0 0 0 0 2 1 1
Neighs:    2.175 ave 36 max 0 min
Histogram: 36 0 1 0 1 0 1 0 0 1

Total # of neighbors = 87
Ave neighs/atom = 0.194196
Neighbor list builds = 3586
Dangerous builds = 20
write_dump all custom dump.atom_info_ac_* id type x y z radius vx vy vz density #
run 154320
Setting up run at Tue Dec 27 02:25:22 2022

Memory usage per processor = 958.989 Mbytes
    Step    Atoms         KinEng            CPU 
10339442      448     0.28882668              0 
10493762      448     0.25659192      1523.7293 
Loop time of 1523.73 on 40 procs for 154320 steps with 448 atoms, finish time Tue Dec 27 02:50:45 2022


Pair  time (%) = 0.307156 (0.0201581)
Neigh time (%) = 1.72672 (0.113322)
Comm  time (%) = 5.05979 (0.332066)
Outpt time (%) = 0.000550511 (3.61292e-05)
Other time (%) = 1516.64 (99.5344)

Nlocal:    11.2 ave 138 max 0 min
Histogram: 32 3 2 0 1 0 0 0 1 1
Nghost:    4.1 ave 48 max 0 min
Histogram: 36 0 0 0 0 0 1 1 1 1
Neighs:    2.025 ave 37 max 0 min
Histogram: 36 1 0 1 0 0 1 0 0 1

Total # of neighbors = 81
Ave neighs/atom = 0.180804
Neighbor list builds = 5098
Dangerous builds = 0
write_dump all custom dump.atom_info_ac_* id type x y z radius vx vy vz density #
run 154320
Setting up run at Tue Dec 27 02:50:46 2022

Memory usage per processor = 958.989 Mbytes
    Step    Atoms         KinEng            CPU 
10493762      448     0.25659192              0 
10648082      446     0.27163998      1524.0873 
Loop time of 1524.09 on 40 procs for 154320 steps with 446 atoms, finish time Tue Dec 27 03:16:10 2022


Pair  time (%) = 0.31005 (0.0203433)
Neigh time (%) = 2.00955 (0.131853)
Comm  time (%) = 5.10263 (0.334799)
Outpt time (%) = 0.00028 (1.83716e-05)
Other time (%) = 1516.66 (99.513)

Nlocal:    11.15 ave 136 max 0 min
Histogram: 32 3 1 2 0 0 0 0 1 1
Nghost:    4.075 ave 50 max 0 min
Histogram: 36 0 0 0 0 0 2 1 0 1
Neighs:    1.975 ave 34 max 0 min
Histogram: 35 1 2 0 0 1 0 0 0 1

Total # of neighbors = 79
Ave neighs/atom = 0.17713
Neighbor list builds = 6073
Dangerous builds = 121
write_dump all custom dump.atom_info_ac_* id type x y z radius vx vy vz density #
run 154320
Setting up run at Tue Dec 27 03:16:10 2022

Memory usage per processor = 958.989 Mbytes
    Step    Atoms         KinEng            CPU 
10648082      446     0.27163998              0 
10802402      445     0.27650585      1532.5991 
Loop time of 1532.6 on 40 procs for 154320 steps with 445 atoms, finish time Tue Dec 27 03:41:42 2022


Pair  time (%) = 0.31557 (0.0205905)
Neigh time (%) = 2.58974 (0.168977)
Comm  time (%) = 6.42849 (0.41945)
Outpt time (%) = 0.000249489 (1.62788e-05)
Other time (%) = 1523.27 (99.391)

Nlocal:    11.125 ave 133 max 0 min
Histogram: 32 4 1 0 1 0 0 0 1 1
Nghost:    4.2 ave 52 max 0 min
Histogram: 36 0 0 0 0 1 1 1 0 1
Neighs:    1.875 ave 31 max 0 min
Histogram: 35 2 0 1 0 0 1 0 0 1

Total # of neighbors = 75
Ave neighs/atom = 0.168539
Neighbor list builds = 7841
Dangerous builds = 450
write_dump all custom dump.atom_info_ac_* id type x y z radius vx vy vz density #
run 154320
Setting up run at Tue Dec 27 03:41:42 2022

Memory usage per processor = 958.989 Mbytes
    Step    Atoms         KinEng            CPU 
10802402      445     0.27650585              0 
10956722      445     0.22481076      1522.6242 
Loop time of 1522.62 on 40 procs for 154320 steps with 445 atoms, finish time Tue Dec 27 04:07:05 2022


Pair  time (%) = 0.30415 (0.0199754)
Neigh time (%) = 1.5727 (0.103289)
Comm  time (%) = 4.22734 (0.277635)
Outpt time (%) = 0.000521471 (3.42482e-05)
Other time (%) = 1516.52 (99.5991)

Nlocal:    11.125 ave 134 max 0 min
Histogram: 32 4 0 1 1 0 0 0 1 1
Nghost:    4.025 ave 48 max 0 min
Histogram: 36 0 0 0 0 0 0 3 0 1
Neighs:    1.875 ave 32 max 0 min
Histogram: 36 0 1 1 0 0 1 0 0 1

Total # of neighbors = 75
Ave neighs/atom = 0.168539
Neighbor list builds = 4652
Dangerous builds = 0
write_dump all custom dump.atom_info_ac_* id type x y z radius vx vy vz density #
run 154320
Setting up run at Tue Dec 27 04:07:05 2022

Memory usage per processor = 958.989 Mbytes
    Step    Atoms         KinEng            CPU 
10956722      445     0.22481076              0 
11111042      445     0.37310782      1537.1416 
Loop time of 1537.14 on 40 procs for 154320 steps with 445 atoms, finish time Tue Dec 27 04:32:42 2022


Pair  time (%) = 0.310059 (0.0201711)
Neigh time (%) = 1.98939 (0.129421)
Comm  time (%) = 4.86158 (0.316274)
Outpt time (%) = 0.000343672 (2.23579e-05)
Other time (%) = 1529.98 (99.5341)

Nlocal:    11.125 ave 133 max 0 min
Histogram: 32 3 2 0 0 1 0 0 1 1
Nghost:    3.85 ave 45 max 0 min
Histogram: 36 0 0 0 0 0 0 2 1 1
Neighs:    1.9 ave 34 max 0 min
Histogram: 35 2 0 1 0 1 0 0 0 1

Total # of neighbors = 76
Ave neighs/atom = 0.170787
Neighbor list builds = 5887
Dangerous builds = 0
write_dump all custom dump.atom_info_ac_* id type x y z radius vx vy vz density #
run 154320
Setting up run at Tue Dec 27 04:32:42 2022

Memory usage per processor = 958.989 Mbytes
    Step    Atoms         KinEng            CPU 
11111042      445     0.37310782              0 
11265362      445     0.23392724       1529.566 
Loop time of 1529.57 on 40 procs for 154320 steps with 445 atoms, finish time Tue Dec 27 04:58:12 2022


Pair  time (%) = 0.307826 (0.020125)
Neigh time (%) = 1.84317 (0.120503)
Comm  time (%) = 4.75604 (0.310941)
Outpt time (%) = 0.000530282 (3.46688e-05)
Other time (%) = 1522.66 (99.5484)

Nlocal:    11.125 ave 130 max 0 min
Histogram: 33 1 2 2 0 0 0 0 1 1
Nghost:    3.9 ave 46 max 0 min
Histogram: 36 0 0 0 0 0 2 0 1 1
Neighs:    1.85 ave 32 max 0 min
Histogram: 35 2 1 0 0 1 0 0 0 1

Total # of neighbors = 74
Ave neighs/atom = 0.166292
Neighbor list builds = 5462
Dangerous builds = 0
write_dump all custom dump.atom_info_ac_* id type x y z radius vx vy vz density #
run 154320
Setting up run at Tue Dec 27 04:58:12 2022

Memory usage per processor = 958.989 Mbytes
    Step    Atoms         KinEng            CPU 
11265362      445     0.23392724              0 
11419682      443      0.2161911      1527.0053 
Loop time of 1527.01 on 40 procs for 154320 steps with 443 atoms, finish time Tue Dec 27 05:23:39 2022


Pair  time (%) = 0.305476 (0.0200049)
Neigh time (%) = 1.6392 (0.107347)
Comm  time (%) = 4.33305 (0.283761)
Outpt time (%) = 0.000358822 (2.34984e-05)
Other time (%) = 1520.73 (99.5889)

Nlocal:    11.075 ave 129 max 0 min
Histogram: 33 1 2 2 0 0 0 0 1 1
Nghost:    4.075 ave 46 max 0 min
Histogram: 36 0 0 0 0 0 1 0 2 1
Neighs:    1.575 ave 32 max 0 min
Histogram: 36 1 1 0 1 0 0 0 0 1

Total # of neighbors = 63
Ave neighs/atom = 0.142212
Neighbor list builds = 4950
Dangerous builds = 290
write_dump all custom dump.atom_info_ac_* id type x y z radius vx vy vz density #
run 154320
Setting up run at Tue Dec 27 05:23:39 2022

Memory usage per processor = 958.989 Mbytes
    Step    Atoms         KinEng            CPU 
11419682      443      0.2161911              0 
11574002      439      0.2352543      1534.7162 
Loop time of 1534.72 on 40 procs for 154320 steps with 439 atoms, finish time Tue Dec 27 05:49:14 2022


Pair  time (%) = 0.30994 (0.0201952)
Neigh time (%) = 2.21057 (0.144038)
Comm  time (%) = 5.34164 (0.348053)
Outpt time (%) = 0.000228066 (1.48604e-05)
Other time (%) = 1526.85 (99.4877)

Nlocal:    10.975 ave 133 max 0 min
Histogram: 32 3 1 2 0 0 0 0 1 1
Nghost:    4.025 ave 41 max 0 min
Histogram: 36 0 0 0 0 0 0 1 0 3
Neighs:    1.525 ave 34 max 0 min
Histogram: 36 2 0 0 1 0 0 0 0 1

Total # of neighbors = 61
Ave neighs/atom = 0.138952
Neighbor list builds = 6748
Dangerous builds = 558
write_dump all custom dump.atom_info_ac_* id type x y z radius vx vy vz density #
run 154320
Setting up run at Tue Dec 27 05:49:14 2022

Memory usage per processor = 958.989 Mbytes
    Step    Atoms         KinEng            CPU 
11574002      439      0.2352543              0 
11728322      436     0.32230547      1534.2237 
Loop time of 1534.22 on 40 procs for 154320 steps with 436 atoms, finish time Tue Dec 27 06:14:48 2022


Pair  time (%) = 0.30956 (0.020177)
Neigh time (%) = 1.76633 (0.115129)
Comm  time (%) = 4.30612 (0.280671)
Outpt time (%) = 0.000489965 (3.19357e-05)
Other time (%) = 1527.84 (99.584)

Nlocal:    10.9 ave 133 max 0 min
Histogram: 32 2 3 1 0 0 0 1 0 1
Nghost:    3.95 ave 41 max 0 min
Histogram: 36 0 0 0 0 0 0 1 0 3
Neighs:    1.5 ave 36 max 0 min
Histogram: 37 1 1 0 0 0 0 0 0 1

Total # of neighbors = 60
Ave neighs/atom = 0.137615
Neighbor list builds = 5259
Dangerous builds = 67
write_dump all custom dump.atom_info_ac_* id type x y z radius vx vy vz density #
run 154320
Setting up run at Tue Dec 27 06:14:48 2022

Memory usage per processor = 958.989 Mbytes
    Step    Atoms         KinEng            CPU 
11728322      436     0.32230547              0 
11882642      435     0.25451028      1550.4263 
Loop time of 1550.43 on 40 procs for 154320 steps with 435 atoms, finish time Tue Dec 27 06:40:39 2022


Pair  time (%) = 0.312507 (0.0201562)
Neigh time (%) = 2.63706 (0.170086)
Comm  time (%) = 6.0437 (0.389809)
Outpt time (%) = 0.000283516 (1.82863e-05)
Other time (%) = 1541.43 (99.4199)

Nlocal:    10.875 ave 128 max 0 min
Histogram: 32 2 2 1 1 0 0 0 1 1
Nghost:    4.2 ave 44 max 0 min
Histogram: 36 0 0 0 0 0 1 0 1 2
Neighs:    1.85 ave 34 max 0 min
Histogram: 35 1 2 0 1 0 0 0 0 1

Total # of neighbors = 74
Ave neighs/atom = 0.170115
Neighbor list builds = 8059
Dangerous builds = 485
write_dump all custom dump.atom_info_ac_* id type x y z radius vx vy vz density #
run 154320
Setting up run at Tue Dec 27 06:40:39 2022

Memory usage per processor = 958.989 Mbytes
    Step    Atoms         KinEng            CPU 
11882642      435     0.25451028              0 
12036962      434     0.24174469       1531.046 
Loop time of 1531.05 on 40 procs for 154320 steps with 434 atoms, finish time Tue Dec 27 07:06:10 2022


Pair  time (%) = 0.305378 (0.0199457)
Neigh time (%) = 1.82733 (0.119351)
Comm  time (%) = 4.64778 (0.303569)
Outpt time (%) = 0.00054154 (3.53706e-05)
Other time (%) = 1524.27 (99.5571)

Nlocal:    10.85 ave 128 max 0 min
Histogram: 33 0 3 2 0 0 0 0 1 1
Nghost:    4.175 ave 45 max 0 min
Histogram: 36 0 0 0 0 0 0 1 1 2
Neighs:    1.825 ave 35 max 0 min
Histogram: 35 1 2 0 1 0 0 0 0 1

Total # of neighbors = 73
Ave neighs/atom = 0.168203
Neighbor list builds = 5406
Dangerous builds = 0
write_dump all custom dump.atom_info_ac_* id type x y z radius vx vy vz density #
run 154320
Setting up run at Tue Dec 27 07:06:10 2022

Memory usage per processor = 958.989 Mbytes
    Step    Atoms         KinEng            CPU 
12036962      434     0.24174469              0 
12191282      431     0.23222998      1528.3182 
Loop time of 1528.32 on 40 procs for 154320 steps with 431 atoms, finish time Tue Dec 27 07:31:38 2022


Pair  time (%) = 0.304267 (0.0199085)
Neigh time (%) = 1.50477 (0.0984591)
Comm  time (%) = 4.16273 (0.272372)
Outpt time (%) = 0.0110718 (0.000724442)
Other time (%) = 1522.34 (99.6085)

Nlocal:    10.775 ave 127 max 0 min
Histogram: 32 1 4 0 1 0 0 0 1 1
Nghost:    4.1 ave 43 max 0 min
Histogram: 36 0 0 0 0 0 0 1 1 2
Neighs:    1.95 ave 36 max 0 min
Histogram: 36 1 0 1 1 0 0 0 0 1

Total # of neighbors = 78
Ave neighs/atom = 0.180974
Neighbor list builds = 4510
Dangerous builds = 191
write_dump all custom dump.atom_info_ac_* id type x y z radius vx vy vz density #
run 154320
Setting up run at Tue Dec 27 07:31:38 2022

Memory usage per processor = 958.989 Mbytes
    Step    Atoms         KinEng            CPU 
12191282      431     0.23222998              0 
12345602      431     0.21475345      1556.1302 
Loop time of 1556.13 on 40 procs for 154320 steps with 431 atoms, finish time Tue Dec 27 07:57:34 2022


Pair  time (%) = 0.315023 (0.020244)
Neigh time (%) = 3.52478 (0.22651)
Comm  time (%) = 7.68791 (0.49404)
Outpt time (%) = 0.000323785 (2.0807e-05)
Other time (%) = 1544.6 (99.2592)

Nlocal:    10.775 ave 126 max 0 min
Histogram: 32 3 0 3 0 0 0 0 1 1
Nghost:    4.175 ave 43 max 0 min
Histogram: 35 1 0 0 0 0 0 0 1 3
Neighs:    1.6 ave 35 max 0 min
Histogram: 36 1 1 0 1 0 0 0 0 1

Total # of neighbors = 64
Ave neighs/atom = 0.148492
Neighbor list builds = 10456
Dangerous builds = 0
write_dump all custom dump.atom_info_ac_* id type x y z radius vx vy vz density #
run 154320
[...]


Pair  time (%) = 0.29001 (0.0192453)
Neigh time (%) = 0.798645 (0.0529987)
Comm  time (%) = 2.43651 (0.161689)
Outpt time (%) = 0.000314305 (2.08575e-05)
Other time (%) = 1503.39 (99.766)

Nlocal:    7.3 ave 73 max 0 min
Histogram: 32 0 1 4 1 0 0 1 0 1
Nghost:    1.8 ave 23 max 0 min
Histogram: 36 0 0 1 1 0 0 0 1 1
Neighs:    0.4 ave 5 max 0 min
Histogram: 35 0 1 0 1 0 1 0 0 2

Total # of neighbors = 16
Ave neighs/atom = 0.0547945
Neighbor list builds = 2334
Dangerous builds = 0
write_dump all custom dump.atom_info_ac_* id type x y z radius vx vy vz density #
run 154320
Setting up run at Thu Dec 29 02:37:32 2022

Memory usage per processor = 958.989 Mbytes
    Step    Atoms         KinEng            CPU 
27777699      292     0.44223013              0 
27932019      291     0.53873976      1518.4273 
Loop time of 1518.43 on 40 procs for 154320 steps with 291 atoms, finish time Thu Dec 29 03:02:51 2022


Pair  time (%) = 0.292783 (0.019282)
Neigh time (%) = 1.30072 (0.0856621)
Comm  time (%) = 3.68442 (0.242647)
Outpt time (%) = 0.000258936 (1.70529e-05)
Other time (%) = 1513.15 (99.6524)

Nlocal:    7.275 ave 73 max 0 min
Histogram: 32 0 2 3 0 1 0 1 0 1
Nghost:    1.75 ave 26 max 0 min
Histogram: 35 1 1 0 1 0 1 0 0 1
Neighs:    0.45 ave 5 max 0 min
Histogram: 34 0 2 0 0 0 2 0 0 2

Total # of neighbors = 18
Ave neighs/atom = 0.0618557
Neighbor list builds = 4067
Dangerous builds = 501
write_dump all custom dump.atom_info_ac_* id type x y z radius vx vy vz density #
run 154320
Setting up run at Thu Dec 29 03:02:51 2022

Memory usage per processor = 958.989 Mbytes
    Step    Atoms         KinEng            CPU 
27932019      291     0.53873976              0 
28086339      288     0.48108252      1537.5228 
Loop time of 1537.52 on 40 procs for 154320 steps with 288 atoms, finish time Thu Dec 29 03:28:28 2022


Pair  time (%) = 0.301691 (0.0196219)
Neigh time (%) = 2.16439 (0.140771)
Comm  time (%) = 5.76316 (0.374834)
Outpt time (%) = 0.000614061 (3.99383e-05)
Other time (%) = 1529.29 (99.4647)

Nlocal:    7.2 ave 73 max 0 min
Histogram: 32 2 0 2 2 0 0 1 0 1
Nghost:    1.7 ave 21 max 0 min
Histogram: 34 2 1 1 0 0 0 0 1 1
Neighs:    0.375 ave 5 max 0 min
Histogram: 35 0 1 0 1 0 1 0 1 1

Total # of neighbors = 15
Ave neighs/atom = 0.0520833
Neighbor list builds = 6448
Dangerous builds = 0
write_dump all custom dump.atom_info_ac_* id type x y z radius vx vy vz density #
run 154320
Setting up run at Thu Dec 29 03:28:28 2022

Memory usage per processor = 958.989 Mbytes
    Step    Atoms         KinEng            CPU 
28086339      288     0.48108252              0 
28240659      288     0.50037652       1512.376 
Loop time of 1512.38 on 40 procs for 154320 steps with 288 atoms, finish time Thu Dec 29 03:53:41 2022


Pair  time (%) = 0.291507 (0.0192747)
Neigh time (%) = 0.861769 (0.0569811)
Comm  time (%) = 3.00714 (0.198835)
Outpt time (%) = 0.00034715 (2.29539e-05)
Other time (%) = 1508.22 (99.7249)

Nlocal:    7.2 ave 72 max 0 min
Histogram: 32 1 1 2 2 0 0 1 0 1
Nghost:    1.7 ave 19 max 0 min
Histogram: 33 1 2 0 2 0 0 0 1 1
Neighs:    0.45 ave 4 max 0 min
Histogram: 34 0 0 0 0 1 0 4 0 1

Total # of neighbors = 18
Ave neighs/atom = 0.0625
Neighbor list builds = 2526
Dangerous builds = 0
write_dump all custom dump.atom_info_ac_* id type x y z radius vx vy vz density #
run 154320
Setting up run at Thu Dec 29 03:53:41 2022

Memory usage per processor = 958.989 Mbytes
    Step    Atoms         KinEng            CPU 
28240659      288     0.50037652              0 
28394979      288     0.45618391       1509.944 
Loop time of 1509.94 on 40 procs for 154320 steps with 288 atoms, finish time Thu Dec 29 04:18:51 2022


Pair  time (%) = 0.29587 (0.0195948)
Neigh time (%) = 0.883744 (0.0585283)
Comm  time (%) = 3.07667 (0.203761)
Outpt time (%) = 0.000558435 (3.69838e-05)
Other time (%) = 1505.69 (99.7181)

Nlocal:    7.2 ave 73 max 0 min
Histogram: 32 0 3 2 0 1 0 1 0 1
Nghost:    1.625 ave 20 max 0 min
Histogram: 34 2 0 0 1 1 0 0 1 1
Neighs:    0.65 ave 9 max 0 min
Histogram: 34 1 1 1 1 0 0 1 0 1

Total # of neighbors = 26
Ave neighs/atom = 0.0902778
Neighbor list builds = 2591
Dangerous builds = 0
write_dump all custom dump.atom_info_ac_* id type x y z radius vx vy vz density #
run 154320
Setting up run at Thu Dec 29 04:18:51 2022

Memory usage per processor = 958.989 Mbytes
    Step    Atoms         KinEng            CPU 
28394979      288     0.45618391              0 
28549299      285     0.44327452      1512.2891 
Loop time of 1512.29 on 40 procs for 154320 steps with 285 atoms, finish time Thu Dec 29 04:44:03 2022


Pair  time (%) = 0.296359 (0.0195967)
Neigh time (%) = 0.875874 (0.0579171)
Comm  time (%) = 2.69662 (0.178314)
Outpt time (%) = 0.000343682 (2.27259e-05)
Other time (%) = 1508.42 (99.7441)

Nlocal:    7.125 ave 71 max 0 min
Histogram: 32 1 0 4 1 0 0 1 0 1
Nghost:    1.625 ave 18 max 0 min
Histogram: 33 2 1 0 0 2 0 0 1 1
Neighs:    0.575 ave 5 max 0 min
Histogram: 33 0 0 0 2 0 2 0 2 1

Total # of neighbors = 23
Ave neighs/atom = 0.0807018
Neighbor list builds = 2564
Dangerous builds = 0
write_dump all custom dump.atom_info_ac_* id type x y z radius vx vy vz density #
run 154320
Setting up run at Thu Dec 29 04:44:03 2022

Memory usage per processor = 958.989 Mbytes
    Step    Atoms         KinEng            CPU 
28549299      285     0.44327452              0 
28703619      284     0.54527845      1532.4445 
Loop time of 1532.44 on 40 procs for 154320 steps with 284 atoms, finish time Thu Dec 29 05:09:36 2022


Pair  time (%) = 0.29828 (0.0194643)
Neigh time (%) = 1.74839 (0.114092)
Comm  time (%) = 5.76157 (0.375973)
Outpt time (%) = 0.000158559 (1.03468e-05)
Other time (%) = 1524.64 (99.4905)

Nlocal:    7.1 ave 71 max 0 min
Histogram: 32 2 1 1 1 0 1 1 0 1
Nghost:    1.525 ave 18 max 0 min
Histogram: 33 3 0 1 0 1 0 0 0 2
Neighs:    0.45 ave 5 max 0 min
Histogram: 33 0 3 0 1 0 0 0 2 1

Total # of neighbors = 18
Ave neighs/atom = 0.0633803
Neighbor list builds = 5178
Dangerous builds = 175
write_dump all custom dump.atom_info_ac_* id type x y z radius vx vy vz density #
run 154320
Setting up run at Thu Dec 29 05:09:36 2022

Memory usage per processor = 958.989 Mbytes
    Step    Atoms         KinEng            CPU 
28703619      284     0.54527845              0 
28857939      284     0.42944371      1530.8985 
Loop time of 1530.9 on 40 procs for 154320 steps with 284 atoms, finish time Thu Dec 29 05:35:07 2022


Pair  time (%) = 0.296989 (0.0193997)
Neigh time (%) = 2.0284 (0.132497)
Comm  time (%) = 5.51004 (0.359922)
Outpt time (%) = 0.000503395 (3.28823e-05)
Other time (%) = 1523.06 (99.4881)

Nlocal:    7.1 ave 69 max 0 min
Histogram: 32 0 2 2 1 1 0 1 0 1
Nghost:    1.625 ave 18 max 0 min
Histogram: 32 4 0 0 1 1 0 0 1 1
Neighs:    0.45 ave 6 max 0 min
Histogram: 34 2 0 1 0 0 2 0 0 1

Total # of neighbors = 18
Ave neighs/atom = 0.0633803
Neighbor list builds = 5943
Dangerous builds = 0
write_dump all custom dump.atom_info_ac_* id type x y z radius vx vy vz density #
run 154320
Setting up run at Thu Dec 29 05:35:07 2022

Memory usage per processor = 958.989 Mbytes
    Step    Atoms         KinEng            CPU 
28857939      284     0.42944371              0 
29012259      283     0.42051593      1508.3122 
Loop time of 1508.31 on 40 procs for 154320 steps with 283 atoms, finish time Thu Dec 29 06:00:15 2022


Pair  time (%) = 0.286613 (0.0190022)
Neigh time (%) = 0.763883 (0.0506449)
Comm  time (%) = 2.55766 (0.169571)
Outpt time (%) = 0.000311246 (2.06354e-05)
Other time (%) = 1504.7 (99.7608)

Nlocal:    7.075 ave 70 max 0 min
Histogram: 31 1 3 0 3 0 0 1 0 1
Nghost:    1.45 ave 19 max 0 min
Histogram: 35 1 0 1 1 0 0 0 1 1
Neighs:    0.75 ave 10 max 0 min
Histogram: 34 1 0 1 1 0 2 0 0 1

Total # of neighbors = 30
Ave neighs/atom = 0.106007
Neighbor list builds = 2235
Dangerous builds = 0
write_dump all custom dump.atom_info_ac_* id type x y z radius vx vy vz density #
run 154320
Setting up run at Thu Dec 29 06:00:15 2022

Memory usage per processor = 958.989 Mbytes
    Step    Atoms         KinEng            CPU 
29012259      283     0.42051593              0 
29166579      282     0.44187365      1513.0075 
Loop time of 1513.01 on 40 procs for 154320 steps with 282 atoms, finish time Thu Dec 29 06:25:28 2022


Pair  time (%) = 0.293954 (0.0194285)
Neigh time (%) = 0.94868 (0.0627016)
Comm  time (%) = 3.56635 (0.235712)
Outpt time (%) = 0.000593994 (3.92591e-05)
Other time (%) = 1508.2 (99.6821)

Nlocal:    7.05 ave 72 max 0 min
Histogram: 32 1 0 4 0 1 1 0 0 1
Nghost:    1.45 ave 15 max 0 min
Histogram: 32 4 0 0 1 1 0 0 0 2
Neighs:    0.575 ave 7 max 0 min
Histogram: 33 0 4 0 0 2 0 0 0 1

Total # of neighbors = 23
Ave neighs/atom = 0.0815603
Neighbor list builds = 2777
Dangerous builds = 0
write_dump all custom dump.atom_info_ac_* id type x y z radius vx vy vz density #
run 154320
Setting up run at Thu Dec 29 06:25:28 2022

Memory usage per processor = 958.989 Mbytes
    Step    Atoms         KinEng            CPU 
29166579      282     0.44187365              0 
29320899      281     0.41774098      1520.3161 
Loop time of 1520.32 on 40 procs for 154320 steps with 281 atoms, finish time Thu Dec 29 06:50:49 2022


Pair  time (%) = 0.293508 (0.0193057)
Neigh time (%) = 1.04314 (0.0686134)
Comm  time (%) = 3.32633 (0.218792)
Outpt time (%) = 0.000236073 (1.55279e-05)
Other time (%) = 1515.65 (99.6933)

Nlocal:    7.025 ave 69 max 0 min
Histogram: 32 0 3 1 1 1 0 1 0 1
Nghost:    1.45 ave 16 max 0 min
Histogram: 34 2 0 0 0 2 0 0 0 2
Neighs:    0.475 ave 5 max 0 min
Histogram: 34 0 2 0 0 0 1 0 1 2

Total # of neighbors = 19
Ave neighs/atom = 0.0676157
Neighbor list builds = 3055
Dangerous builds = 0
write_dump all custom dump.atom_info_ac_* id type x y z radius vx vy vz density #
run 154320
Setting up run at Thu Dec 29 06:50:49 2022

Memory usage per processor = 958.989 Mbytes
    Step    Atoms         KinEng            CPU 
29320899      281     0.41774098              0 
29475219      281     0.41332522      1521.1253 
Loop time of 1521.13 on 40 procs for 154320 steps with 281 atoms, finish time Thu Dec 29 07:16:10 2022


Pair  time (%) = 0.295461 (0.0194239)
Neigh time (%) = 1.38842 (0.0912759)
Comm  time (%) = 3.70647 (0.243667)
Outpt time (%) = 0.000285254 (1.87529e-05)
Other time (%) = 1515.73 (99.6456)

Nlocal:    7.025 ave 69 max 0 min
Histogram: 32 1 2 1 1 0 1 1 0 1
Nghost:    1.375 ave 17 max 0 min
Histogram: 34 2 0 0 2 0 0 0 1 1
Neighs:    0.4 ave 4 max 0 min
Histogram: 34 0 2 0 0 0 0 2 0 2

Total # of neighbors = 16
Ave neighs/atom = 0.0569395
Neighbor list builds = 4062
Dangerous builds = 0
write_dump all custom dump.atom_info_ac_* id type x y z radius vx vy vz density #
run 154320
Setting up run at Thu Dec 29 07:16:10 2022

Memory usage per processor = 958.989 Mbytes
    Step    Atoms         KinEng            CPU 
29475219      281     0.41332522              0 
29629539      281     0.41280998      1522.0561 
Loop time of 1522.06 on 40 procs for 154320 steps with 281 atoms, finish time Thu Dec 29 07:41:32 2022


Pair  time (%) = 0.293501 (0.0192832)
Neigh time (%) = 1.05936 (0.0696007)
Comm  time (%) = 3.15538 (0.207311)
Outpt time (%) = 0.000532853 (3.50087e-05)
Other time (%) = 1517.55 (99.7038)

Nlocal:    7.025 ave 68 max 0 min
Histogram: 32 0 1 3 2 0 0 1 0 1
Nghost:    1.325 ave 17 max 0 min
Histogram: 34 2 1 0 1 0 0 0 0 2
Neighs:    0.625 ave 5 max 0 min
Histogram: 32 0 1 0 2 0 1 0 3 1

Total # of neighbors = 25
Ave neighs/atom = 0.088968
Neighbor list builds = 3097
Dangerous builds = 0
write_dump all custom dump.atom_info_ac_* id type x y z radius vx vy vz density #
run 154320
Setting up run at Thu Dec 29 07:41:32 2022

Memory usage per processor = 958.989 Mbytes
    Step    Atoms         KinEng            CPU 
29629539      281     0.41280998              0 
29783859      280     0.47943579      1516.5935 
Loop time of 1516.59 on 40 procs for 154320 steps with 280 atoms, finish time Thu Dec 29 08:06:49 2022


Pair  time (%) = 0.302261 (0.0199302)
Neigh time (%) = 1.48921 (0.0981946)
Comm  time (%) = 4.22236 (0.278411)
Outpt time (%) = 0.000516376 (3.40484e-05)
Other time (%) = 1510.58 (99.6034)

Nlocal:    7 ave 69 max 0 min
Histogram: 32 0 2 1 2 1 0 1 0 1
Nghost:    1.225 ave 16 max 0 min
Histogram: 36 0 0 1 0 1 0 0 0 2
Neighs:    0.575 ave 5 max 0 min
Histogram: 32 0 2 0 1 0 2 0 2 1

Total # of neighbors = 23
Ave neighs/atom = 0.0821429
Neighbor list builds = 4531
Dangerous builds = 330
write_dump all custom dump.atom_info_ac_* id type x y z radius vx vy vz density #
run 154320
Setting up run at Thu Dec 29 08:06:49 2022

Memory usage per processor = 958.989 Mbytes
    Step    Atoms         KinEng            CPU 
29783859      280     0.47943579              0 
29938179      279     0.44044735      1518.3903 
Loop time of 1518.39 on 40 procs for 154320 steps with 279 atoms, finish time Thu Dec 29 08:32:07 2022


Pair  time (%) = 0.292977 (0.0192952)
Neigh time (%) = 1.24049 (0.0816977)
Comm  time (%) = 3.60321 (0.237304)
Outpt time (%) = 0.000507663 (3.34343e-05)
Other time (%) = 1513.25 (99.6617)

Nlocal:    6.975 ave 67 max 0 min
Histogram: 32 1 1 2 1 1 0 1 0 1
Nghost:    1.45 ave 16 max 0 min
Histogram: 32 3 0 2 1 0 0 0 0 2
Neighs:    0.45 ave 5 max 0 min
Histogram: 33 0 3 0 0 0 2 0 1 1

Total # of neighbors = 18
Ave neighs/atom = 0.0645161
Neighbor list builds = 3774
Dangerous builds = 412
write_dump all custom dump.atom_info_ac_* id type x y z radius vx vy vz density #
run 154320
Setting up run at Thu Dec 29 08:32:07 2022

Memory usage per processor = 958.989 Mbytes
    Step    Atoms         KinEng            CPU 
29938179      279     0.44044735              0 
30092499      279     0.44357978      1533.0251 
Loop time of 1533.03 on 40 procs for 154320 steps with 279 atoms, finish time Thu Dec 29 08:57:40 2022


Pair  time (%) = 0.295235 (0.0192583)
Neigh time (%) = 1.58711 (0.103528)
Comm  time (%) = 4.42997 (0.288969)
Outpt time (%) = 0.000535773 (3.49488e-05)
Other time (%) = 1526.71 (99.5882)

Nlocal:    6.975 ave 66 max 0 min
Histogram: 32 2 0 1 2 0 1 0 1 1
Nghost:    1.35 ave 18 max 0 min
Histogram: 33 3 0 2 0 0 0 1 0 1
Neighs:    0.675 ave 6 max 0 min
Histogram: 33 1 0 0 0 2 1 0 2 1

Total # of neighbors = 27
Ave neighs/atom = 0.0967742
Neighbor list builds = 4636
Dangerous builds = 0
write_dump all custom dump.atom_info_ac_* id type x y z radius vx vy vz density #
run 154320
Setting up run at Thu Dec 29 08:57:40 2022

Memory usage per processor = 958.989 Mbytes
    Step    Atoms         KinEng            CPU 
30092499      279     0.44357978              0 
30246819      275     0.42132463       1551.833 
Loop time of 1551.83 on 40 procs for 154320 steps with 275 atoms, finish time Thu Dec 29 09:23:32 2022


Pair  time (%) = 0.302881 (0.0195176)
Neigh time (%) = 2.88559 (0.185947)
Comm  time (%) = 6.87594 (0.443085)
Outpt time (%) = 0.00293518 (0.000189143)
Other time (%) = 1541.77 (99.3513)

Nlocal:    6.875 ave 65 max 0 min
Histogram: 32 0 3 1 1 0 1 0 1 1
Nghost:    1.475 ave 20 max 0 min
Histogram: 35 0 1 1 0 1 0 0 1 1
Neighs:    0.35 ave 6 max 0 min
Histogram: 36 1 0 0 0 1 1 0 0 1

Total # of neighbors = 14
Ave neighs/atom = 0.0509091
Neighbor list builds = 8644
Dangerous builds = 311
write_dump all custom dump.atom_info_ac_* id type x y z radius vx vy vz density #
run 154320
Setting up run at Thu Dec 29 09:23:32 2022

Memory usage per processor = 958.989 Mbytes
    Step    Atoms         KinEng            CPU 
30246819      275     0.42132463              0 
30401139      274     0.34564231      1534.3636 
Loop time of 1534.37 on 40 procs for 154320 steps with 274 atoms, finish time Thu Dec 29 09:49:06 2022


Pair  time (%) = 0.291985 (0.0190296)
Neigh time (%) = 1.7069 (0.111244)
Comm  time (%) = 4.19278 (0.273258)
Outpt time (%) = 0.00051535 (3.35871e-05)
Other time (%) = 1528.18 (99.5964)

Nlocal:    6.85 ave 65 max 0 min
Histogram: 32 0 1 3 1 1 0 0 1 1
Nghost:    1.425 ave 20 max 0 min
Histogram: 33 3 1 1 0 0 0 1 0 1
Neighs:    0.4 ave 5 max 0 min
Histogram: 35 0 0 0 2 0 1 0 1 1

Total # of neighbors = 16
Ave neighs/atom = 0.0583942
Neighbor list builds = 5006
Dangerous builds = 0
write_dump all custom dump.atom_info_ac_* id type x y z radius vx vy vz density #
run 154320
Setting up run at Thu Dec 29 09:49:06 2022

Memory usage per processor = 958.989 Mbytes
    Step    Atoms         KinEng            CPU 
30401139      274     0.34564231              0 
30555459      273     0.32574032      1519.8728 
Loop time of 1519.87 on 40 procs for 154320 steps with 273 atoms, finish time Thu Dec 29 10:14:26 2022


Pair  time (%) = 0.291897 (0.0192053)
Neigh time (%) = 1.45716 (0.0958737)
Comm  time (%) = 3.65787 (0.240669)
Outpt time (%) = 0.000534128 (3.51429e-05)
Other time (%) = 1514.47 (99.6442)

Nlocal:    6.825 ave 64 max 0 min
Histogram: 32 0 1 3 1 1 0 0 1 1
Nghost:    1.5 ave 19 max 0 min
Histogram: 34 2 0 1 1 0 0 0 1 1
Neighs:    0.475 ave 5 max 0 min
Histogram: 33 0 2 0 2 0 0 0 2 1

Total # of neighbors = 19
Ave neighs/atom = 0.0695971
Neighbor list builds = 4285
Dangerous builds = 1
write_dump all custom dump.atom_info_ac_* id type x y z radius vx vy vz density #
run 154320
Setting up run at Thu Dec 29 10:14:26 2022

Memory usage per processor = 958.989 Mbytes
    Step    Atoms         KinEng            CPU 
30555459      273     0.32574032              0 
30709779      272     0.41464203      1522.1308 
Loop time of 1522.13 on 40 procs for 154320 steps with 272 atoms, finish time Thu Dec 29 10:39:49 2022


Pair  time (%) = 0.292858 (0.01924)
Neigh time (%) = 1.43509 (0.0942814)
Comm  time (%) = 4.20533 (0.276279)
Outpt time (%) = 0.000498441 (3.27462e-05)
Other time (%) = 1516.2 (99.6102)

Nlocal:    6.8 ave 65 max 0 min
Histogram: 32 0 1 3 2 0 0 1 0 1
Nghost:    1.4 ave 18 max 0 min
Histogram: 33 2 2 0 1 0 0 1 0 1
Neighs:    0.45 ave 5 max 0 min
Histogram: 33 0 3 0 1 0 1 0 0 2

Total # of neighbors = 18
Ave neighs/atom = 0.0661765
Neighbor list builds = 4243
Dangerous builds = 0
write_dump all custom dump.atom_info_ac_* id type x y z radius vx vy vz density #
run 154320
Setting up run at Thu Dec 29 10:39:49 2022

Memory usage per processor = 958.989 Mbytes
    Step    Atoms         KinEng            CPU 
30709779      272     0.41464203              0 
30864099      272     0.33786627      1515.5609 
Loop time of 1515.56 on 40 procs for 154320 steps with 272 atoms, finish time Thu Dec 29 11:05:04 2022


Pair  time (%) = 0.287775 (0.018988)
Neigh time (%) = 0.745987 (0.0492219)
Comm  time (%) = 2.38099 (0.157103)
Outpt time (%) = 0.000542689 (3.58078e-05)
Other time (%) = 1512.15 (99.7747)

Nlocal:    6.8 ave 64 max 0 min
Histogram: 32 0 2 2 1 1 0 1 0 1
Nghost:    1.325 ave 18 max 0 min
Histogram: 34 2 0 1 1 0 0 1 0 1
Neighs:    0.6 ave 6 max 0 min
Histogram: 33 1 0 2 0 1 0 0 2 1

Total # of neighbors = 24
Ave neighs/atom = 0.0882353
Neighbor list builds = 2221
Dangerous builds = 0
write_dump all custom dump.atom_info_ac_* id type x y z radius vx vy vz density #
run 97
Setting up run at Thu Dec 29 11:05:04 2022

Memory usage per processor = 958.989 Mbytes
    Step    Atoms         KinEng            CPU 
30864099      272     0.33786627              0 
30864196      272     0.33786378     0.92238805 
Loop time of 0.922402 on 40 procs for 97 steps with 272 atoms, finish time Thu Dec 29 11:05:05 2022


Pair  time (%) = 0.000186458 (0.0202144)
Neigh time (%) = 0.000345093 (0.0374125)
Comm  time (%) = 0.000933482 (0.101201)
Outpt time (%) = 0.000296624 (0.0321578)
Other time (%) = 0.92064 (99.809)

Nlocal:    6.8 ave 64 max 0 min
Histogram: 32 0 2 2 1 1 0 1 0 1
Nghost:    1.325 ave 18 max 0 min
Histogram: 34 2 0 1 1 0 0 1 0 1
Neighs:    0.575 ave 6 max 0 min
Histogram: 33 1 0 2 0 1 1 0 1 1

Total # of neighbors = 23
Ave neighs/atom = 0.0845588
Neighbor list builds = 1
Dangerous builds = 0
write_dump all custom dump.atom_info_ac_* id type x y z radius vx vy vz density #
