ITEM: TIMESTEP
3209858
ITEM: NUMBER OF ATOMS
272
ITEM: BOX BOUNDS ff ff ff
-0.15 0.15
-0.15 0.15
-0.15 0.15
ITEM: ATOMS id type x y z radius vx vy vz density 
280 1 -0.00113377 -0.0102863 -0.0637129 0.001058 0.0315331 -0.419181 0.115312 2650 
229 1 -0.0299896 -0.00180548 -0.0605665 0.001058 -18.3093 0.257893 7.6711 2650 
26 1 -0.0385808 -0.0596345 -0.0559333 0.001058 -10.3716 1.35878 7.29215 2650 
167 1 -0.0490281 -0.0525111 -0.0481389 0.000291 -12.177 0.108587 12.398 2650 
107 1 -0.0498469 -0.00866276 -0.0461763 0.001058 -0.129083 -0.215438 0.139183 2650 
23 1 -0.0670652 -0.0219295 -0.0149642 0.000291 -0.028769 -0.421177 0.1289 2650 
241 1 -0.008593 -0.00307898 -0.012306 0.000291 0 -0.01175 0 2650 
189 1 -0.00620365 -0.00255566 -0.0133522 0.000291 -0.00186935 -0.0259579 0.0246951 2650 
163 1 -0.005911 -0.00123098 -0.010628 0.001058 0 -0.01175 0 2650 
93 1 -0.00948274 -0.00317498 -0.00958932 0.000291 0.0136725 -0.0107654 0.0189123 2650 
166 1 -0.0056096 -0.00179917 -0.00910538 0.000291 -0.00164998 -0.0141972 -0.00210607 2650 
218 1 -0.00471252 -0.000956809 -0.00847885 0.001058 0.00604892 -0.01598 -0.0063764 2650 
200 1 -0.012172 -0.000452981 -0.006974 0.000105 0 -0.01175 0 2650 
293 1 -0.009422 -0.00116598 -0.006923 0.001058 0 -0.01175 0 2650 
137 1 -0.001323 -0.00166298 -0.006126 0.00164 0 -0.01175 0 2650 
59 1 -0.0125818 -0.00187578 -0.0057893 0.001058 0.136069 0.0218759 0.13293 2650 
214 1 -0.008446 -0.000742981 -0.004092 0.000291 0 -0.01175 0 2650 
282 1 -0.001816 -0.00278298 -0.002164 0.000291 0 -0.01175 0 2650 
180 1 -0.0152486 -0.00186067 -0.00209036 0.001058 -0.00107758 -0.0150893 -0.00334409 2650 
116 1 -0.013496 -0.000642981 -0.003353 0.001058 0 -0.01175 0 2650 
140 1 -0.00753655 -0.00207942 -0.000405078 0.001058 0.00741961 -0.0270673 -9.92875e-05 2650 
43 1 -0.00470282 -0.00139639 -0.00139759 0.001058 0.0209055 -0.025075 0.0146763 2650 
135 1 -0.00380877 -0.000356062 -0.00191942 0.000291 0.0022501 0.000177671 -0.0146391 2650 
123 1 -0.0152375 -0.000290166 0.000148879 0.001058 0.00892981 -0.0125186 0.000828335 2650 
99 1 -0.011672 -0.00178098 9.8e-05 0.001058 0 -0.01175 0 2650 
122 1 -0.00170079 -0.000923449 0.000343806 0.001058 0.000526751 -0.0114806 -1.25778e-06 2650 
131 1 -0.0131199 -0.00283962 0.00323631 0.001058 0.00202072 -0.0362922 0.0172464 2650 
132 1 -0.0152139 -0.00103292 0.00397694 0.001058 0.00780184 -0.0108872 0.00266206 2650 
158 1 -0.007297 -0.00181998 0.003049 0.000291 0 -0.01175 0 2650 
149 1 -0.004792 -0.00186598 0.002724 0.000291 0 -0.01175 0 2650 
272 1 -0.001203 -0.000958981 0.002609 0.001058 0 -0.01175 0 2650 
206 1 -0.014203 -0.000706904 0.00533843 0.000291 -0.00580536 -0.026644 0.0247391 2650 
49 1 -0.00743585 -0.000663083 0.00491404 0.00164 0.000378183 -0.0113747 0.000627966 2650 
42 1 -0.008546 -0.00248598 0.006756 0.001058 0 -0.01175 0 2650 
97 1 -0.012882 -0.000858628 0.00704954 0.00164 -0.00569381 0.00409931 -0.0394341 2650 
302 1 -0.0101554 -9.84207e-05 0.00756382 0.000291 -0.0126668 -0.0407788 0.0458891 2650 
235 1 -0.001066 -0.00120298 0.007831 0.000291 0 -0.01175 0 2650 
64 1 -0.001837 -0.000777981 0.007035 0.000105 0 -0.01175 0 2650 
111 1 -0.009474 -0.00113298 0.008964 0.000291 0 -0.01175 0 2650 
182 1 -0.00596607 -1.08625e-05 0.0081135 0.000291 0.0423046 -0.0510149 0.030418 2650 
265 1 -0.011157 -0.00148638 0.0111218 0.001058 -0.156913 -0.1561 -0.119886 2650 
29 1 -0.00933034 -0.000131025 0.012789 0.000291 -0.00961217 -0.175831 -0.0563118 2650 
194 1 -0.00243806 -0.00034689 0.0126535 0.001058 -0.0931597 -0.115813 0.0214387 2650 
257 1 -0.0541613 -0.0309471 0.0410369 0.001058 -0.122053 -0.747121 -0.160911 2650 
90 1 -0.0170856 -0.0503263 0.064019 0.001058 20.1991 -10.9607 -0.0182004 2650 
32 1 -0.00395938 0.00234687 -0.0158514 0.000105 0.0175367 -0.0336815 0.0103322 2650 
85 1 -0.003548 0.00379702 -0.015444 0.000291 0 -0.01175 0 2650 
70 1 -0.002345 0.00559902 -0.015511 0.000291 0 -0.01175 0 2650 
130 1 -0.000216011 0.00459863 -0.0155208 0.001058 -0.00248281 -0.00861309 0.00165378 2650 
295 1 -0.006507 0.000314019 -0.01264 0.000291 0 -0.01175 0 2650 
17 1 -0.00560491 0.00303241 -0.0135486 0.00164 -0.0321397 0.00530894 0.00493352 2650 
115 1 -0.009032 0.00564602 -0.012506 0.001058 0 -0.01175 0 2650 
292 1 -0.00189553 0.00391748 -0.0106683 0.001058 -0.0111203 0.0150966 0.0502579 2650 
198 1 -0.01006 0.00494302 -0.011926 0.000291 0 -0.01175 0 2650 
234 1 -0.003052 0.00504002 -0.010232 0.000291 0 -0.01175 0 2650 
47 1 -0.011528 0.00624702 -0.010748 0.000291 0 -0.01175 0 2650 
157 1 -0.00996183 0.0141127 -0.0107243 0.000291 0.082228 0.155263 -0.194047 2650 
108 1 -0.007031 0.00100302 -0.009032 0.001058 0 -0.01175 0 2650 
273 1 -0.000993068 0.00591059 -0.00950479 0.001058 0.0109498 0.0387766 0.041219 2650 
175 1 -0.013247 0.00628702 -0.008751 0.000291 0 -0.01175 0 2650 
41 1 -0.00970578 0.00985262 -0.00953999 0.00164 0.01018 0.00862243 0.0210039 2650 
144 1 -0.011054 0.010845 -0.008779 0.000105 0 -0.01175 0 2650 
286 1 -0.0131301 0.031708 -0.00887851 0.001058 0.315361 0.134451 -0.422979 2650 
136 1 -0.0143088 0.0361744 -0.0085277 0.000105 0.0370802 0.101801 0.0201257 2650 
250 1 -0.013194 0.00194002 -0.006197 0.001058 0 -0.01175 0 2650 
203 1 -0.00508554 0.000812114 -0.00614418 0.001058 0.00527585 -0.013183 -0.00215468 2650 
220 1 -0.0125957 0.0148295 -0.0076053 0.000291 -0.0263519 0.00963826 0.00806637 2650 
54 1 -0.00768883 0.0192002 -0.00745236 0.000291 -0.105274 0.0408646 0.0464213 2650 
76 1 -0.00306156 0.00136848 -0.00569428 0.001058 0.00564796 -0.0105611 0.000695373 2650 
74 1 -0.0139728 0.0074155 -0.00597068 0.001058 0.0249392 -0.0170472 0.0044673 2650 
240 1 -0.010392 0.00688902 -0.005262 0.000291 0 -0.01175 0 2650 
159 1 -0.012707 0.010825 -0.00588 0.000291 0 -0.01175 0 2650 
256 1 -0.0123518 0.0109531 -0.00466511 0.000291 -0.0124574 -8.7345e-05 -0.00544798 2650 
187 1 -0.0114918 0.0119633 -0.00588766 0.001058 -0.0111972 -0.0033368 -0.00320404 2650 
270 1 -0.00320404 0.0011175 -0.00313394 0.000291 0.0222139 -0.00940451 0.00236984 2650 
211 1 -0.013621 0.00257102 -0.002856 0.001058 0 -0.01175 0 2650 
274 1 -0.016349 0.00469602 -0.002509 0.000291 0 -0.01175 0 2650 
114 1 -0.012867 0.00522702 -0.002401 0.001058 0 -0.01175 0 2650 
276 1 -0.0158022 0.00724045 -0.00319508 0.000291 -0.0292598 -0.0198696 0.0142423 2650 
13 1 -0.014201 0.00693102 -0.003882 0.000291 0 -0.01175 0 2650 
104 1 -0.014089 0.00761302 -0.003012 0.000105 0 -0.01175 0 2650 
7 1 -0.00795815 0.0140094 -0.00300199 0.000291 0.00379351 0.0136266 -0.000190797 2650 
91 1 -0.00595432 0.0412013 -0.0020076 0.001058 -0.0202685 0.131267 0.100492 2650 
127 1 -0.00961258 0.00502952 -0.00115664 0.000291 -0.0139243 0.0621367 -0.0512894 2650 
61 1 -0.016439 0.010543 -0.001038 0.000291 0 -0.01175 0 2650 
191 1 -0.0109729 0.0016426 0.00137192 0.000291 -0.00576519 -0.0560083 -0.00590397 2650 
14 1 -0.006378 0.00163802 0.001478 0.000291 0 -0.01175 0 2650 
296 1 -0.005879 0.00211602 0.000521 0.000291 0 -0.01175 0 2650 
209 1 -0.0113161 0.00404757 0.00117793 0.001058 -0.026682 -0.0183968 -0.0208797 2650 
168 1 -0.007536 0.00398102 0.001389 0.000105 0 -0.01175 0 2650 
120 1 -0.016055 0.00618302 0.000189 0.000105 0 -0.01175 0 2650 
80 1 -0.00968267 0.0174097 0.000183864 0.000105 0.109879 0.0992648 -0.00635109 2650 
57 1 -0.0146475 0.0451613 0.00163445 0.00164 0.0699346 0.324526 0.106005 2650 
124 1 -0.015475 0.0030414 0.00312594 0.001058 0.0163994 0.0135565 -0.0162859 2650 
18 1 -0.005138 0.00317502 0.00212 0.001058 0 -0.01175 0 2650 
176 1 -0.003983 0.00752002 0.002552 0.000105 0 -0.01175 0 2650 
268 1 -0.0149485 0.011656 0.00393375 0.000291 0.01445 0.0807893 -0.0273776 2650 
242 1 -0.00529638 0.00989346 0.0039849 0.000291 -0.0086111 0.00654042 0.00262129 2650 
106 1 -0.0137561 0.0024728 0.00507997 0.001058 -0.0231281 0.0241123 -0.0163446 2650 
52 1 -0.0116486 0.00303503 0.0041159 0.001058 0.00724987 -0.000384762 -0.00950543 2650 
75 1 -0.00910776 0.00564618 0.0046868 0.001058 0.00617698 0.0742402 0.0547171 2650 
53 1 -0.000389 0.00425802 0.004762 0.000291 0 -0.01175 0 2650 
164 1 -0.003894 0.00655602 0.005467 0.001058 0 -0.01175 0 2650 
291 1 -0.008194 0.01093 0.004767 0.000291 0 -0.01175 0 2650 
266 1 -0.0140652 0.00184358 0.00721855 0.001058 0.00110786 0.023496 -0.00310371 2650 
58 1 -0.0101221 0.000696814 0.00625552 0.001058 -0.00589457 -0.0550464 0.0209758 2650 
254 1 -0.00511865 0.00127154 0.00781187 0.000291 0.0479131 -0.0346233 0.0397782 2650 
170 1 -0.0105982 0.0038268 0.00632617 0.001058 0.0253146 -0.0512177 0.0195846 2650 
238 1 -0.00891489 0.00323573 0.00779188 0.001058 0.0146556 -0.0483455 0.0436078 2650 
195 1 -0.0064999 0.00263048 0.00770476 0.001058 0.035162 0.012298 0.0571677 2650 
98 1 -0.001703 0.00411902 0.00616 0.001058 0 -0.01175 0 2650 
77 1 -0.0151745 0.00984965 0.00655981 0.000291 0.0277953 0.00207908 -0.016867 2650 
11 1 -0.00796256 0.0386487 0.00722201 0.001058 0.0559064 0.127731 0.0121966 2650 
28 1 -0.0109105 0.00136584 0.00945716 0.001058 0.0815194 -0.0863693 0.0535802 2650 
44 1 -0.00722271 0.000942187 0.00888191 0.001058 -0.00412718 -0.0232599 0.0140303 2650 
51 1 -0.00219562 0.00102901 0.00965612 0.001058 -0.110544 -0.0693165 0.018834 2650 
33 1 -0.0119693 0.00529494 0.00857499 0.00164 0.0615431 -0.0461987 0.0815517 2650 
35 1 -0.00145878 0.00477019 0.00846832 0.001058 0.00568178 -0.0136393 -0.0193356 2650 
55 1 -0.012357 0.00986108 0.00951193 0.000291 -0.0342231 -0.0550134 -0.0437999 2650 
217 1 -0.0115415 0.0115934 0.00993026 0.001058 -0.0293536 -0.00546788 -0.0611489 2650 
4 1 -0.0118655 0.0166379 0.00996777 0.001058 -0.00962936 0.111838 -0.0419957 2650 
126 1 -0.0134824 0.0220661 0.00991367 0.000291 -0.181498 0.177006 -0.206385 2650 
233 1 -0.00268586 0.00136612 0.0113106 0.000291 -0.0761204 -0.0279091 0.0748141 2650 
129 1 -0.00750625 0.00426714 0.0100968 0.00164 -0.0204795 -0.0917591 0.0103728 2650 
202 1 -0.00370952 0.00551618 0.0104968 0.001058 -0.0369954 -0.0160763 -0.0283304 2650 
299 1 -0.0108267 0.00943064 0.0105367 0.001058 -0.0210753 -0.0135942 -0.0168879 2650 
68 1 -0.00495705 0.0132739 0.0105672 0.001058 -0.0154583 0.0466911 -0.0429213 2650 
145 1 -0.000690822 0.0121948 0.0114115 0.00164 -0.0568997 0.0311676 0.0314027 2650 
222 1 -0.0051205 0.0152187 0.0114579 0.001058 -0.0917895 0.0649605 -0.0631989 2650 
156 1 -0.00981526 0.0162527 0.0107201 0.001058 -0.008174 0.0875004 -0.0348937 2650 
245 1 -0.00625777 0.0278001 0.0117107 0.001058 -0.00867722 0.0643616 0.05297 2650 
79 1 -0.0100364 0.000989996 0.0131949 0.000291 -0.138151 -0.182634 -0.0850247 2650 
226 1 -0.009224 0.00252702 0.012787 0.000291 0 -0.01175 0 2650 
300 1 -0.00787071 0.00337457 0.0137268 0.001058 0.047407 -0.0761654 0.0197433 2650 
251 1 -0.00585382 0.00433117 0.0129203 0.001058 0.0370151 -0.0382387 0.0279511 2650 
10 1 -0.00848553 0.00610702 0.0125397 0.001058 0.0187564 -0.0145496 0.0217278 2650 
304 1 -0.0104635 0.009628 0.0126144 0.000291 0.0588582 -0.0224276 0.0407133 2650 
153 1 -0.0063542 0.00804476 0.012707 0.00164 -0.036624 -0.0123556 0.00709304 2650 
224 1 -0.00957686 0.0107695 0.0126409 0.001058 -0.084069 0.000444047 -0.00873368 2650 
249 1 -0.00967548 0.0127573 0.0132811 0.000291 -0.0980033 0.0614315 -0.0809001 2650 
9 1 -0.00777186 0.0131589 0.0131542 0.00164 -0.093057 0.0819254 -0.0650002 2650 
71 1 -0.0105762 0.015843 0.0128182 0.000291 -0.149203 0.0988981 -0.109479 2650 
65 1 -0.000302585 0.0225265 0.0125111 0.00164 0.217598 0.129022 0.114602 2650 
285 1 -0.00715484 0.00577148 0.0141587 0.001058 0.0322388 -0.0500915 0.00687821 2650 
100 1 -0.0027941 0.00636338 0.0153059 0.001058 -0.0578631 -0.00763451 0.0553776 2650 
301 1 -0.00059649 0.0096826 0.0156125 0.001058 -0.0408309 -0.0590863 -0.0252764 2650 
25 1 0.0366645 -0.0221822 -0.0565624 0.00164 -30.4145 9.6765 -19.6934 2650 
2 1 0.0437211 -0.026813 -0.0458605 0.001058 -19.3775 -8.20955 -20.287 2650 
62 1 0.0593899 -0.0113471 -0.0345578 0.000291 0.118427 -0.320772 0.203464 2650 
172 1 0.0567799 -0.052625 -0.0263346 0.001058 -17.1634 6.70536 -14.189 2650 
221 1 0.0638063 -0.0270708 -0.0255012 0.000291 0.0568957 -0.449745 0.142318 2650 
193 1 0.0631972 -0.0611431 -0.0233669 0.00164 -14.1365 8.58941 -35.1674 2650 
39 1 0.0131409 -0.00376092 -0.0145186 0.000291 1.54708 -0.088484 -1.89886 2650 
155 1 0.005921 -0.00154998 -0.01427 0.001058 0 -0.01175 0 2650 
138 1 0.0665168 -0.0399712 -0.0140553 0.001058 -9.03619 -0.372304 -42.7336 2650 
83 1 0.007342 -0.00241798 -0.011981 0.001058 0 -0.01175 0 2650 
141 1 0.004693 -0.00159498 -0.010381 0.000291 0 -0.01175 0 2650 
213 1 0.001757 -0.000757981 -0.008127 0.000291 0 -0.01175 0 2650 
40 1 0.002884 -0.00251198 -0.006462 0.000105 0 -0.01175 0 2650 
185 1 0.00697865 -0.00299718 -0.00710385 0.00164 -0.00977735 -0.00930346 -0.0230128 2650 
30 1 0.005625 -0.00107998 -0.00604 0.000291 0 -0.01175 0 2650 
16 1 0.006364 -0.00238398 -0.005251 0.000105 0 -0.01175 0 2650 
20 1 0.00846982 -0.00353403 -0.00484891 0.001058 0.565487 -0.0733043 -0.347348 2650 
197 1 0.007512 -0.000941981 -0.004043 0.000291 0 -0.01175 0 2650 
8 1 0.000989 -0.00265898 -0.00369 0.000105 0 -0.01175 0 2650 
173 1 0.002644 -0.00143498 -0.002982 0.000291 0 -0.01175 0 2650 
248 1 0.008036 -0.00278998 -0.000368 0.000291 0 -0.01175 0 2650 
6 1 0.004141 -0.000508981 -0.001643 0.000291 0 -0.01175 0 2650 
72 1 0.013289 -0.00175498 -0.000624 0.000105 0 -0.01175 0 2650 
288 1 0.0686972 -0.0279309 0.00155962 0.000291 0.00195527 -0.67742 -0.0861018 2650 
255 1 0.005303 -0.00248698 0.000727 0.000291 0 -0.01175 0 2650 
56 1 0.00459 -0.00172998 0.000864 0.000105 0 -0.01175 0 2650 
184 1 0.0163927 -0.000878297 0.00173923 0.000105 -0.00929623 -0.00734054 -0.110911 2650 
36 1 0.0679236 -0.0205192 0.00250883 0.001058 0.738844 -5.21756 -19.9855 2650 
121 1 0.0138563 -0.00309271 0.00325463 0.00164 0.00766877 -0.00859872 0.00323988 2650 
264 1 0.003305 -0.000524981 0.003449 0.001058 0 -0.01175 0 2650 
247 1 0.001401 -0.00263798 0.005706 0.000291 0 -0.01175 0 2650 
267 1 0.007574 -0.000303981 0.005778 0.000291 0 -0.01175 0 2650 
94 1 0.0682266 -0.00189213 0.00283484 0.000291 -37.8855 42.745 -77.7501 2650 
118 1 0.001179 -0.000138981 0.007467 0.000291 0 -0.01175 0 2650 
204 1 0.000670617 -0.00202422 0.00871044 0.001058 0.0214283 -0.00559661 -0.0189307 2650 
243 1 0.01084 -0.00206998 0.008454 0.001058 0 -0.01175 0 2650 
38 1 0.000363315 -4.68599e-05 0.00964816 0.000291 -0.00247737 0.000548689 -0.00646163 2650 
269 1 0.066554 -0.0237612 0.0170976 0.000291 6.32724 -6.09665 -24.6231 2650 
239 1 0.062951 -0.0225527 0.0256222 0.001058 7.51103 -3.86654 -18.4377 2650 
148 1 0.0593787 -0.0266911 0.0330498 0.001058 -0.833121 3.75272 1.50326 2650 
231 1 0.0585742 -0.0128537 0.0344574 0.001058 5.31846 -2.70438 -9.0323 2650 
181 1 0.0573754 -0.0140811 0.0378072 0.000291 0.131122 -0.391508 -0.198927 2650 
188 1 0.0550548 -0.0228912 0.0398757 0.001058 26.2136 -13.9865 -36.1655 2650 
15 1 0.0207717 -0.0340604 0.0446626 0.000291 -2.00678 -0.24765 6.14688 2650 
86 1 0.021316 -0.0620613 0.0653189 0.000291 -9.92307 0.113526 3.23826 2650 
303 1 0.001598 0.00221702 -0.015917 0.000291 0 -0.01175 0 2650 
160 1 0.004468 0.00334002 -0.014641 0.000105 0 -0.01175 0 2650 
37 1 0.006156 0.010243 -0.015157 0.000291 0 -0.01175 0 2650 
139 1 0.00389816 0.0146753 -0.0143929 0.001058 0.0124295 0.00846741 0.0230295 2650 
237 1 0.005321 0.000917019 -0.012467 0.001058 0 -0.01175 0 2650 
263 1 0.006877 0.00373702 -0.012319 0.000291 0 -0.01175 0 2650 
289 1 0.001465 0.00490402 -0.012477 0.000291 0 -0.01175 0 2650 
252 1 0.00245 0.00861402 -0.01336 0.001058 0 -0.01175 0 2650 
78 1 0.001258 0.010229 -0.012517 0.000291 0 -0.01175 0 2650 
196 1 0.002599 0.00221002 -0.011929 0.001058 0 -0.01175 0 2650 
105 1 0.003632 0.00889702 -0.010703 0.00164 0 -0.01175 0 2650 
275 1 0.012705 0.00797602 -0.010476 0.000291 0 -0.01175 0 2650 
110 1 0.010451 0.01052 -0.010748 0.000291 0 -0.01175 0 2650 
87 1 0.0054324 0.000261083 -0.00803995 0.000291 -0.229387 0.0928627 -0.124587 2650 
259 1 0.006357 0.000171019 -0.00938 0.001058 0 -0.01175 0 2650 
67 1 0.00887451 0.00178733 -0.00621011 0.001058 -0.0157836 0.0155294 -0.0241036 2650 
102 1 0.003423 0.00364202 -0.006065 0.000291 0 -0.01175 0 2650 
117 1 0.004754 0.00390402 -0.007063 0.000291 0 -0.01175 0 2650 
134 1 0.011983 0.00365602 -0.006239 0.000291 0 -0.01175 0 2650 
60 1 0.0075784 0.00654805 -0.00631956 0.001058 -0.000102723 -0.0112336 -0.00128825 2650 
45 1 0.010575 0.00646502 -0.007722 0.000291 0 -0.01175 0 2650 
271 1 0.001328 0.00836902 -0.00636 0.001058 0 -0.01175 0 2650 
178 1 0.0036201 0.000703667 -0.00552538 0.001058 -0.000649024 -0.0123819 0.00135439 2650 
92 1 0.00962957 0.000558597 -0.00452973 0.001058 0.00837122 0.0143101 0.0021081 2650 
260 1 0.0107152 0.00128614 -0.00494144 0.000291 0.00603912 -0.00492273 -0.00188891 2650 
246 1 0.001376 0.00314302 -0.005453 0.001058 0 -0.01175 0 2650 
279 1 0.011818 0.00559902 -0.00556 0.001058 0 -0.01175 0 2650 
142 1 0.00814073 0.00725802 -0.00465926 0.000291 0.0829221 0.179194 0.0629322 2650 
199 1 0.014464 0.00695602 -0.004562 0.000291 0 -0.01175 0 2650 
278 1 7.4e-05 0.00905602 -0.004448 0.001058 0 -0.01175 0 2650 
284 1 0.014191 0.00983602 -0.005949 0.000291 0 -0.01175 0 2650 
171 1 0.000459 5.90186e-05 -0.002783 0.001058 0 -0.01175 0 2650 
88 1 0.002864 0.00176902 -0.002457 0.000105 0 -0.01175 0 2650 
177 1 0.00734656 0.00162599 -0.003556 0.00164 -0.00906742 -0.0065107 0.00540465 2650 
205 1 0.005264 0.00213802 -0.002386 0.000291 0 -0.01175 0 2650 
253 1 0.014729 0.00531402 -0.002617 0.000291 0 -0.01175 0 2650 
227 1 0.00944 0.00714302 -0.002109 0.000291 0 -0.01175 0 2650 
161 1 0.0137749 0.00137714 -0.00162913 0.00164 0.00674689 -0.0113079 0.0431426 2650 
113 1 0.010337 0.00476902 -0.001708 0.00164 0 -0.01175 0 2650 
190 1 0.005899 0.00984502 -0.000534 0.000291 0 -0.01175 0 2650 
223 1 0.000162633 0.00164897 0.00147914 0.001058 0.0235385 -0.00904348 0.00881089 2650 
96 1 0.009869 0.00189902 0.000788 0.000105 0 -0.01175 0 2650 
183 1 0.01481 0.000132019 0.000242 0.000291 0 -0.01175 0 2650 
277 1 0.015014 0.000510019 0.001212 0.000291 0 -0.01175 0 2650 
81 1 0.007451 0.00326202 7.8e-05 0.00164 0 -0.01175 0 2650 
261 1 0.011218 0.00343802 0.000328 0.000291 0 -0.01175 0 2650 
48 1 0.009671 0.00773702 0.000233 0.000105 0 -0.01175 0 2650 
128 1 0.00361 0.00944402 0.000511 0.000105 0 -0.01175 0 2650 
154 1 0.00463113 0.0144407 0.00161565 0.001058 0.0337937 0.0924026 -0.0831052 2650 
225 1 0.00158947 0.000221532 0.00227334 0.001058 0.0181756 -0.0253644 0.00890992 2650 
143 1 0.013105 0.000599019 0.003332 0.000291 0 -0.01175 0 2650 
147 1 0.014904 0.00171209 0.0032396 0.001058 0.0504004 0.0169274 -0.0976022 2650 
210 1 0.010971 0.00259202 0.002357 0.001058 0 -0.01175 0 2650 
294 1 0.006997 0.00745102 0.003581 0.001058 0 -0.01175 0 2650 
101 1 0.004812 0.00816702 0.002517 0.000291 0 -0.01175 0 2650 
162 1 0.067672 0.0249999 0.00662377 0.001058 -5.24887 -4.91475 53.5911 2650 
50 1 0.006699 0.00167902 0.005883 0.001058 0 -0.01175 0 2650 
305 1 0.007934 0.000438019 0.005234 0.000105 0 -0.01175 0 2650 
150 1 0.010064 0.00178002 0.004311 0.000291 0 -0.01175 0 2650 
24 1 0.005464 0.00753302 0.005551 0.000105 0 -0.01175 0 2650 
212 1 0.001087 0.00796102 0.005915 0.000291 0 -0.01175 0 2650 
244 1 0.014869 0.00801902 0.00421 0.001058 0 -0.01175 0 2650 
174 1 0.002361 0.00143202 0.006466 0.000291 0 -0.01175 0 2650 
207 1 0.000324 0.00311802 0.006532 0.000291 0 -0.01175 0 2650 
232 1 0.003256 0.00243002 0.007333 0.001058 0 -0.01175 0 2650 
208 1 0.009461 0.00379402 0.007837 0.001058 0 -0.01175 0 2650 
112 1 0.013668 0.010769 0.007002 0.000105 0 -0.01175 0 2650 
1 1 0.00230622 0.000128196 0.0101316 0.00164 0.00475392 -0.0224913 0.00438655 2650 
228 1 0.010294 0.000941019 0.01009 0.000291 0 -0.01175 0 2650 
103 1 0.005979 0.00413602 0.01127 0.000291 0 -0.01175 0 2650 
258 1 0.009255 0.00522702 0.010506 0.001058 0 -0.01175 0 2650 
298 1 0.003487 0.00886802 0.011695 0.000105 0 -0.01175 0 2650 
287 1 0.0067104 0.00384938 0.0129649 0.001058 0.00547817 1.63692e-05 -0.00963523 2650 
95 1 0.006942 0.00558302 0.013027 0.000291 0 -0.01175 0 2650 
186 1 0.000400764 0.00815582 0.0127651 0.001058 0.0483083 -0.0350724 0.0460384 2650 
82 1 0.000755 0.00310502 0.014898 0.001058 0 -0.01175 0 2650 
3 1 0.0064846 0.00197653 0.0142316 0.001058 0.0175829 -0.0101849 -0.010048 2650 
66 1 0.00207146 0.00855495 0.0142059 0.001058 0.0472977 -0.000350387 0.0701712 2650 
12 1 0.0336637 0.148587 -0.0590159 0.001058 0.165191 0.220517 0.0942259 2650 
216 1 0.0678695 0.077394 0.00358868 0.001058 -0.00557339 -0.341574 0.105306 2650 
19 1 0.0526027 0.10402 0.0430319 0.001058 -15.9218 -0.86389 19.4466 2650 
