ITEM: TIMESTEP
5678978
ITEM: NUMBER OF ATOMS
216
ITEM: BOX BOUNDS ff ff ff
-0.15 0.15
-0.15 0.15
-0.15 0.15
ITEM: ATOMS id type x y z radius vx vy vz density 
83 1 -0.0340036 -0.0401286 -0.0589393 0.001058 -95.8655 7.7258 55.2784 2650 
149 1 -0.0397327 -0.0261366 -0.0560606 0.000291 -47.381 -5.02889 33.5736 2650 
206 1 -0.0460732 -0.032074 -0.0501915 0.000291 -24.3781 -10.9485 45.4985 2650 
42 1 -0.0549452 -0.0602017 -0.0395721 0.001058 -37.7268 4.80111 59.0963 2650 
254 1 -0.057056 -0.0380665 -0.0382959 0.000291 -36.198 -12.242 53.9187 2650 
137 1 -0.0300251 -0.0165849 -0.0346936 0.00164 -4.38307 -1.13372 -5.18057 2650 
129 1 -0.0322943 -0.0151241 -0.0327132 0.00164 5.47726 9.09148 -7.21047 2650 
183 1 -0.0458896 -0.0425391 -0.0292599 0.000291 -2.04987 -1.86152 -31.7569 2650 
293 1 -0.0575773 -0.0117464 -0.0197017 0.001058 -8.82845 -0.692653 -2.79668 2650 
295 1 -0.006507 -0.00203597 -0.01264 0.000291 0 -0.01175 0 2650 
108 1 -0.007031 -0.00134697 -0.009032 0.001058 0 -0.01175 0 2650 
203 1 -0.00374045 -0.00044518 -0.00820272 0.001058 0.0203236 0.0588939 -0.0871138 2650 
200 1 -0.012172 -0.00280297 -0.006974 0.000105 0 -0.01175 0 2650 
141 1 -0.00366421 -0.0028269 -0.00710118 0.000291 -0.0385515 -0.0350918 -0.00990959 2650 
214 1 -0.008446 -0.00309297 -0.004092 0.000291 0 -0.01175 0 2650 
135 1 -0.00335875 -0.000320528 -0.00484722 0.000291 0.0022501 0.000177671 -0.0146391 2650 
76 1 -0.00193197 -0.000743727 -0.0055552 0.001058 0.00564796 -0.0105611 0.000695373 2650 
122 1 -0.00159544 -0.00321956 0.000343555 0.001058 0.000526751 -0.0114806 -1.25778e-06 2650 
14 1 -0.006378 -0.000711966 0.001478 0.000291 0 -0.01175 0 2650 
296 1 -0.005879 -0.000233966 0.000521 0.000291 0 -0.01175 0 2650 
272 1 -0.00121165 -0.00331074 0.00262776 0.001058 -0.0227041 -0.0164108 0.0492393 2650 
49 1 -0.00745804 -0.0027868 0.00518521 0.00164 -0.000971666 -0.00928815 0.00263678 2650 
64 1 -0.001837 -0.00312797 0.007035 0.000105 0 -0.01175 0 2650 
158 1 -0.0669011 -0.0343867 0.0157061 0.000291 17.8512 0.221503 76.023 2650 
301 1 -0.00615859 -0.00142485 0.0109028 0.001058 -0.0226289 -0.0542897 -0.0228341 2650 
33 1 -0.00218053 -0.00252809 0.0151028 0.00164 0.0431564 -0.0363955 0.000690949 2650 
10 1 -0.000290066 -4.52581e-05 0.0157672 0.001058 0.0340672 -0.0331467 -0.00182025 2650 
188 1 -0.0619064 -0.0420602 0.0281215 0.001058 23.3376 13.4207 51.3415 2650 
233 1 -0.0567419 -0.045621 0.0387556 0.000291 23.863 1.08233 34.9292 2650 
300 1 -0.0473844 -0.0607284 0.0489073 0.001058 46.286 -3.53411 50.2904 2650 
166 1 -0.0261654 -0.0280144 0.0602153 0.000291 -4.03588 5.09747 -1.12402 2650 
90 1 -0.0150912 -0.0295802 0.0663039 0.001058 75.0301 -19.4388 17.0671 2650 
235 1 -0.00229566 -0.0148704 0.0642612 0.000291 0.0544637 -0.679138 0.291706 2650 
43 1 -0.00511601 -0.0244057 0.0677592 0.001058 33.0199 9.35888 2.49138 2650 
180 1 -0.00583693 0.0010419 -0.014631 0.001058 0.0668761 -0.00149 -0.0345362 2650 
85 1 -0.003548 0.00144703 -0.015444 0.000291 0 -0.01175 0 2650 
70 1 -0.002345 0.00324903 -0.015511 0.000291 0 -0.01175 0 2650 
130 1 -0.00071257 0.00287602 -0.01519 0.001058 -0.00248281 -0.00861309 0.00165378 2650 
155 1 -0.00350489 0.00541823 -0.0153574 0.001058 0.0798066 0.0564567 -0.0224336 2650 
71 1 -0.00769436 0.0314403 -0.0146975 0.000291 0.133829 0.0580181 -0.0703173 2650 
163 1 -0.00898431 0.00431911 -0.0122844 0.001058 0.148238 0.430061 0.0454896 2650 
234 1 -0.00681281 0.00575669 -0.0108637 0.000291 -0.0198056 0.0044 -0.0033269 2650 
127 1 -0.012249 0.0174359 -0.0112322 0.000291 0.0287766 0.0561217 0.00113528 2650 
198 1 -0.0132008 0.00156271 -0.00968718 0.000291 -0.0189321 -0.0185963 0.0322719 2650 
175 1 -0.0138032 0.0038861 -0.00855828 0.000291 -0.0438308 -0.0157631 0.0151882 2650 
211 1 -0.0098809 0.00199506 -0.00834694 0.001058 0.0504087 -0.0212473 -0.0400034 2650 
47 1 -0.0135519 0.00558758 -0.00954279 0.000291 -0.0269855 0.0866459 0.0559323 2650 
17 1 -0.0118964 0.00464899 -0.00897395 0.00164 -0.0175377 0.0176697 0.0125065 2650 
115 1 -0.0125245 0.00775976 -0.00959073 0.001058 -0.0235984 0.0256291 0.0268745 2650 
144 1 -0.0123793 0.00936021 -0.0081649 0.000105 -0.00695181 -0.00721164 0.00322132 2650 
132 1 -0.0139979 0.00513476 -0.0073265 0.001058 -0.0451219 0.0649443 -0.00788038 2650 
250 1 -0.00839309 0.00468318 -0.00725188 0.001058 0.0479693 0.0298473 -0.019358 2650 
187 1 -0.0137312 0.0112959 -0.00652847 0.001058 -0.0111972 -0.0033368 -0.00320404 2650 
249 1 -0.0151318 0.0245484 -0.00634251 0.000291 0.0425154 0.0549815 -0.0856767 2650 
123 1 -0.00512967 0.000422239 -0.0040307 0.001058 0.0718272 -0.00166516 -0.0285466 2650 
114 1 -0.0116261 0.00475074 -0.00581635 0.001058 0.0144175 0.00651183 -0.0371471 2650 
240 1 -0.00733878 0.00420637 -0.00462178 0.000291 0.0279874 -0.0147994 0.00586861 2650 
209 1 -0.0150119 0.00723974 -0.0044618 0.001058 0.0276331 0.0418507 -0.0209704 2650 
13 1 -0.0136389 0.00598839 -0.0057799 0.000291 0.0215382 0.0440121 -0.0297212 2650 
74 1 -0.008264 0.00606351 -0.00418847 0.001058 0.0384953 0.0199678 0.0206009 2650 
104 1 -0.0139705 0.00867054 -0.00551838 0.000105 0.002347 0.0557288 -0.0496339 2650 
159 1 -0.012707 0.00847503 -0.00588 0.000291 0 -0.01175 0 2650 
256 1 -0.0148433 0.0109356 -0.0057547 0.000291 -0.0124574 -8.7345e-05 -0.00544798 2650 
41 1 -0.00767239 0.0116142 -0.00533503 0.00164 0.0101493 0.00903205 0.0210511 2650 
220 1 -0.0146564 0.0165457 -0.00533975 0.000291 0.00621602 0.00749286 0.0146849 2650 
9 1 -0.0146167 0.0286784 -0.00454361 0.00164 0.0368877 0.0692771 -0.0890198 2650 
222 1 -0.0148196 0.0326037 -0.00531628 0.001058 0.0327705 0.0909016 -0.0820647 2650 
286 1 -0.0152001 0.0406996 -0.00441214 0.001058 0.0780614 0.0455206 -0.42231 2650 
136 1 -0.0068928 0.0565344 -0.0045026 0.000105 0.0370802 0.101801 0.0201257 2650 
274 1 -0.016349 0.00234603 -0.002509 0.000291 0 -0.01175 0 2650 
97 1 -0.0115822 0.00673526 -0.00293074 0.00164 0.0181326 0.0576019 -0.0539209 2650 
217 1 -0.0156064 0.010613 -0.0022259 0.001058 0.00394458 -0.00400824 -0.0600725 2650 
273 1 -0.00103091 0.013493 -0.0027878 0.001058 -0.00378567 0.0376334 0.0311204 2650 
7 1 -0.00719946 0.0167347 -0.00304015 0.000291 0.00379351 0.0136266 -0.000190797 2650 
54 1 -0.0097845 0.0259394 -0.00343585 0.000291 0.0633152 0.039201 -0.0571353 2650 
292 1 -0.00404132 0.00687298 -0.000603685 0.001058 -0.0107082 0.0147606 0.0503271 2650 
61 1 -0.016439 0.00819303 -0.001038 0.000291 0 -0.01175 0 2650 
124 1 -0.0144099 0.00897921 -0.000407196 0.001058 -0.00668442 0.054705 -0.0146414 2650 
268 1 -0.0101602 0.0261675 -0.000120696 0.000291 0.0498109 0.0501228 -0.000906466 2650 
168 1 -0.007536 0.00163103 0.001389 0.000105 0 -0.01175 0 2650 
120 1 -0.016055 0.00383303 0.000189 0.000105 0 -0.01175 0 2650 
276 1 -0.0155568 0.00457698 0.000366365 0.000291 -0.00912986 -0.00573623 0.0255567 2650 
68 1 -0.00804868 0.0226121 0.00198294 0.001058 -0.0154583 0.0466911 -0.0429213 2650 
4 1 -0.0137913 0.0390053 0.00156869 0.001058 -0.00962936 0.111838 -0.0419957 2650 
18 1 -0.005138 0.000825034 0.00212 0.001058 0 -0.01175 0 2650 
52 1 -0.0101987 0.00295808 0.00221483 0.001058 0.00724987 -0.000384762 -0.00950543 2650 
176 1 -0.003983 0.00517003 0.002552 0.000105 0 -0.01175 0 2650 
77 1 -0.0103926 0.00693889 0.0026491 0.000291 -0.0126232 -0.0488529 0.00955327 2650 
224 1 -0.0155657 0.0154058 0.00269966 0.001058 -0.0106306 0.0598007 -0.0435832 2650 
156 1 -0.0114501 0.0337527 0.00374145 0.001058 -0.008174 0.0875004 -0.0348937 2650 
98 1 -0.00186631 0.00123574 0.00435008 0.001058 -0.000888658 -0.0146521 -0.00984914 2650 
53 1 -0.000389 0.00190803 0.004762 0.000291 0 -0.01175 0 2650 
202 1 -0.0111086 0.00230094 0.00483075 0.001058 -0.0369954 -0.0160763 -0.0283304 2650 
164 1 -0.003894 0.00420603 0.005467 0.001058 0 -0.01175 0 2650 
87 1 -0.00932196 0.00861274 0.00404511 0.000291 0.0235263 0.0213444 0.0979754 2650 
291 1 -0.008194 0.00858003 0.004767 0.000291 0 -0.01175 0 2650 
106 1 -0.0147337 0.0115067 0.00485548 0.001058 0.00249309 0.0329203 -0.00428525 2650 
242 1 -0.00701859 0.0112015 0.00450915 0.000291 -0.0086111 0.00654042 0.00262129 2650 
304 1 -0.0156739 0.0129882 0.00525015 0.000291 -0.00374253 0.0452494 -0.0139006 2650 
55 1 -0.0130109 0.000589362 0.00625779 0.000291 0.0230109 -0.0394302 0.00300431 2650 
35 1 -0.000159121 0.00257564 0.00641113 0.001058 0.00657044 -0.0107373 -0.00948648 2650 
266 1 -0.0142685 0.00520282 0.00648228 0.001058 -0.00433909 -0.000706663 -0.0089318 2650 
299 1 -0.0141515 0.00770016 0.00710555 0.001058 -0.00803072 0.00940906 -0.0124318 2650 
38 1 -0.000132156 6.28773e-05 0.00835584 0.000291 -0.00247737 0.000548689 -0.00646163 2650 
302 1 -0.0127534 0.00622794 0.00865812 0.000291 -0.0235671 0.0639694 -0.0357998 2650 
100 1 -0.00490307 0.00687039 0.00959162 0.001058 0.0366526 -0.00644169 -0.00115397 2650 
99 1 -0.00621355 0.00983912 0.00868381 0.001058 0.0427358 0.0724069 0.0132656 2650 
111 1 -0.0120939 0.0146179 0.00808805 0.000291 -0.00975753 0.139584 -0.0476497 2650 
153 1 -0.00950662 0.00691043 0.0104983 0.00164 -0.0122543 -0.00478552 -0.0173407 2650 
75 1 -0.011832 0.0178634 0.0102769 0.001058 -0.016475 0.0363231 -0.0379354 2650 
145 1 -0.00757321 0.0183112 0.0117746 0.00164 -0.0118268 0.0326517 -0.0170016 2650 
173 1 0.04863 -0.00786978 -0.0485399 0.000291 0.155075 -0.18693 0.155301 2650 
72 1 0.0544995 -0.00683176 -0.0421481 0.000105 -21.6023 -1.75718 -27.9298 2650 
51 1 0.0649571 -0.0597018 -0.0200297 0.001058 -9.39906 -12.2243 -30.4581 2650 
30 1 0.016478 -0.00380362 -0.0176937 0.000291 2.43288 -0.0793117 -2.61237 2650 
184 1 0.00712451 -0.00217625 -0.0152131 0.000105 -0.0848092 -0.0054698 -0.04593 2650 
303 1 0.001598 -0.000132966 -0.015917 0.000291 0 -0.01175 0 2650 
237 1 0.005321 -0.00143297 -0.012467 0.001058 0 -0.01175 0 2650 
196 1 0.002599 -0.000139966 -0.011929 0.001058 0 -0.01175 0 2650 
213 1 0.001757 -0.00310797 -0.008127 0.000291 0 -0.01175 0 2650 
259 1 0.006357 -0.00217897 -0.00938 0.001058 0 -0.01175 0 2650 
197 1 0.007512 -0.00329197 -0.004043 0.000291 0 -0.01175 0 2650 
178 1 0.00353037 -0.00162478 -0.00493387 0.001058 -0.000289325 -0.0110543 0.00423217 2650 
171 1 0.000459 -0.00229097 -0.002783 0.001058 0 -0.01175 0 2650 
270 1 0.00123871 -0.000763393 -0.00265998 0.000291 0.0222139 -0.00940451 0.00236984 2650 
88 1 0.002864 -0.000580966 -0.002457 0.000105 0 -0.01175 0 2650 
6 1 0.004141 -0.00285897 -0.001643 0.000291 0 -0.01175 0 2650 
96 1 0.009869 -0.000450966 0.000788 0.000105 0 -0.01175 0 2650 
161 1 0.0120884 -0.00239966 0.00371154 0.00164 -0.0104033 -0.019858 0.0245194 2650 
277 1 0.0162325 -0.00255694 0.00244314 0.000291 0.00809503 -0.0165132 0.00817906 2650 
223 1 0.0048703 -0.000159718 0.00324131 0.001058 0.0235385 -0.00904348 0.00881089 2650 
267 1 0.007574 -0.00265397 0.005778 0.000291 0 -0.01175 0 2650 
305 1 0.00827997 -0.00245305 0.00513418 0.000105 0.0107864 -0.0286194 -0.0031121 2650 
143 1 0.0132623 -0.00208382 0.00599256 0.000291 0.00167219 -0.0152882 0.0282815 2650 
50 1 0.00798032 -0.00114428 0.00481569 0.001058 0.0196422 -0.0189992 -0.0163642 2650 
150 1 0.010064 -0.000569966 0.004311 0.000291 0 -0.01175 0 2650 
118 1 0.001179 -0.00248897 0.007467 0.000291 0 -0.01175 0 2650 
174 1 0.002361 -0.000917966 0.006466 0.000291 0 -0.01175 0 2650 
204 1 0.00479456 -0.00167413 0.00694933 0.001058 0.0123955 0.0167674 0.0186642 2650 
228 1 0.010294 -0.00140897 0.01009 0.000291 0 -0.01175 0 2650 
285 1 0.00244288 -0.00331983 0.0126731 0.001058 0.0996664 -0.0444723 0.106603 2650 
3 1 0.0100654 -0.000151859 0.0121856 0.001058 0.0282642 -0.0253899 -0.0161094 2650 
62 1 0.0642366 -0.0383937 0.0244005 0.000291 10.906 -2.07697 -28.7039 2650 
121 1 0.0624044 -0.0516557 0.0255616 0.00164 16.0164 1.33499 -39.0602 2650 
225 1 0.0521594 -0.0232949 0.0426099 0.001058 -2.06268 -1.39073 -2.00409 2650 
280 1 0.0528957 -0.0477083 0.0427223 0.001058 38.5571 -6.38071 -47.7079 2650 
264 1 0.0463904 -0.0477798 0.0496714 0.001058 25.762 8.74504 -24.0417 2650 
170 1 0.0483083 -0.0540734 0.0478742 0.001058 56.3101 5.76139 -56.7871 2650 
185 1 0.0194352 -0.0472768 0.0645347 0.00164 34.7903 1.21096 -10.4662 2650 
1 1 0.0151326 -0.0188866 0.0656383 0.00164 0.0532308 -0.438749 -0.0122719 2650 
251 1 0.0100062 -0.0105687 0.0669124 0.001058 0.610134 -0.405777 3.50319 2650 
282 1 0.0136346 -0.00153957 0.0669625 0.000291 4.95334 0.69701 -0.582254 2650 
160 1 0.004468 0.000990034 -0.014641 0.000105 0 -0.01175 0 2650 
37 1 0.006156 0.00789303 -0.015157 0.000291 0 -0.01175 0 2650 
263 1 0.006877 0.00138703 -0.012319 0.000291 0 -0.01175 0 2650 
289 1 0.001465 0.00255403 -0.012477 0.000291 0 -0.01175 0 2650 
78 1 0.001258 0.00787903 -0.012517 0.000291 0 -0.01175 0 2650 
252 1 0.00245 0.00626403 -0.01336 0.001058 0 -0.01175 0 2650 
154 1 0.00835725 0.0323992 -0.0123605 0.001058 -0.058615 0.0764991 -0.00251467 2650 
67 1 0.00572857 0.0048842 -0.0110314 0.001058 0.00256259 0.000195293 -0.0251349 2650 
275 1 0.012705 0.00562603 -0.010476 0.000291 0 -0.01175 0 2650 
105 1 0.00362911 0.00654945 -0.0107028 0.00164 -0.00492574 -0.00763298 0.000276873 2650 
110 1 0.010451 0.00817003 -0.010748 0.000291 0 -0.01175 0 2650 
126 1 0.0118878 0.0458171 -0.0115037 0.000291 0.154259 0.0650467 0.177888 2650 
139 1 0.00638403 0.0163687 -0.00978702 0.001058 0.0124295 0.00846741 0.0230295 2650 
65 1 0.0112333 0.035672 -0.00979576 0.00164 -0.100797 0.0205623 -0.106068 2650 
102 1 0.003423 0.00129203 -0.006065 0.000291 0 -0.01175 0 2650 
117 1 0.004754 0.00155403 -0.007063 0.000291 0 -0.01175 0 2650 
134 1 0.011983 0.00130603 -0.006239 0.000291 0 -0.01175 0 2650 
60 1 0.00755785 0.00430134 -0.00657721 0.001058 -0.000102723 -0.0112336 -0.00128825 2650 
45 1 0.010575 0.00411503 -0.007722 0.000291 0 -0.01175 0 2650 
116 1 0.00500841 0.00769876 -0.00786188 0.001058 0.159795 0.0851505 -0.0594394 2650 
157 1 0.0147666 0.0399657 -0.00673744 0.000291 0.0535282 0.110531 0.126232 2650 
246 1 0.001376 0.000793034 -0.005453 0.001058 0 -0.01175 0 2650 
260 1 0.0137609 0.00161279 -0.00591977 0.000291 0.0153212 0.00169932 -0.00492189 2650 
92 1 0.0109601 0.00266552 -0.00423309 0.001058 0.00266359 0.00215066 0.00142767 2650 
279 1 0.0121817 0.00376039 -0.00594837 0.001058 0.00634753 -0.00282471 -0.0067785 2650 
199 1 0.014464 0.00460603 -0.004562 0.000291 0 -0.01175 0 2650 
278 1 7.4e-05 0.00670603 -0.004448 0.001058 0 -0.01175 0 2650 
271 1 0.00380171 0.00623959 -0.00446997 0.001058 0.0289317 -0.00785113 0.0310685 2650 
284 1 0.014191 0.00748603 -0.005949 0.000291 0 -0.01175 0 2650 
147 1 0.0149822 0.00966953 -0.00474077 0.001058 -0.0148237 0.0422753 -0.0305854 2650 
177 1 0.0055261 0.000310256 -0.00251683 0.00164 -0.00939051 -0.00679468 0.0045217 2650 
253 1 0.014729 0.00296403 -0.002617 0.000291 0 -0.01175 0 2650 
227 1 0.00944 0.00479303 -0.002109 0.000291 0 -0.01175 0 2650 
205 1 0.00355281 0.000132481 -0.00145048 0.000291 -0.0110579 -0.00952415 0.00604549 2650 
113 1 0.0103214 0.00247715 -0.00156682 0.00164 -0.000223662 -0.0109187 0.00201958 2650 
190 1 0.005899 0.00749503 -0.000534 0.000291 0 -0.01175 0 2650 
80 1 0.0122931 0.0372626 -0.00108635 0.000105 0.109879 0.0992648 -0.00635109 2650 
81 1 0.00746756 0.000923713 0.000114528 0.00164 0.000384867 -0.0114785 0.000849182 2650 
261 1 0.011218 0.00108803 0.000328 0.000291 0 -0.01175 0 2650 
48 1 0.009671 0.00538703 0.000233 0.000105 0 -0.01175 0 2650 
128 1 0.00361 0.00709403 0.000511 0.000105 0 -0.01175 0 2650 
210 1 0.010971 0.000242034 0.002357 0.001058 0 -0.01175 0 2650 
101 1 0.004812 0.00581703 0.002517 0.000291 0 -0.01175 0 2650 
294 1 0.006997 0.00510103 0.003581 0.001058 0 -0.01175 0 2650 
212 1 0.001087 0.00561103 0.005915 0.000291 0 -0.01175 0 2650 
24 1 0.005464 0.00518303 0.005551 0.000105 0 -0.01175 0 2650 
244 1 0.014869 0.00566903 0.00421 0.001058 0 -0.01175 0 2650 
208 1 0.00955771 0.0015145 0.0078194 0.001058 0.015057 -0.000780944 -0.00273884 2650 
112 1 0.013668 0.00841903 0.007002 0.000105 0 -0.01175 0 2650 
232 1 0.00806057 4.15404e-05 0.00830699 0.001058 0.0295441 -0.0200452 0.0179526 2650 
66 1 0.00769658 0.00921189 0.00866699 0.001058 0.0275715 0.00535428 -0.0378804 2650 
142 1 0.0116668 0.0442124 0.00803435 0.000291 -0.0491927 0.190484 0.0640173 2650 
11 1 0.00321865 0.0641947 0.00966132 0.001058 0.0559064 0.127731 0.0121966 2650 
103 1 0.005979 0.00178603 0.01127 0.000291 0 -0.01175 0 2650 
258 1 0.00980396 0.00281609 0.0101505 0.001058 0.0104916 -0.0129815 -0.00676672 2650 
287 1 0.00783178 0.00418366 0.010689 0.001058 0.0068234 0.00722778 -0.0172449 2650 
298 1 0.003487 0.00651803 0.011695 0.000105 0 -0.01175 0 2650 
186 1 0.00894558 0.00154465 0.012882 0.001058 0.0179955 -0.0185124 -0.0307969 2650 
195 1 0.00364382 0.00216482 0.0135457 0.001058 0.051238 -0.00281662 0.0282714 2650 
59 1 0.0036446 0.00443988 0.0137025 0.001058 -0.0211857 0.0196927 -0.0488775 2650 
95 1 0.00699321 0.00465528 0.0134 0.000291 0.000317815 -0.00292264 0.00231518 2650 
207 1 0.00436808 0.00782981 0.0123925 0.000291 -0.0152658 -0.00287954 0.0338429 2650 
82 1 0.00140309 0.000833077 0.0146559 0.001058 0.02619 -0.00856153 -0.0098163 2650 
19 1 0.0664225 0.10318 -0.0144289 0.001058 5.37843 0.794629 24.7388 2650 
