ITEM: TIMESTEP
3086402
ITEM: NUMBER OF ATOMS
275
ITEM: BOX BOUNDS ff ff ff
-0.15 0.15
-0.15 0.15
-0.15 0.15
ITEM: ATOMS id type x y z radius vx vy vz density 
25 1 -0.0142048 -0.0288465 -0.0658866 0.00164 -37.5614 -9.42462 8.08957 2650 
269 1 -0.0404138 -0.0603048 -0.0555633 0.000291 -24.2084 10.6649 17.9599 2650 
107 1 -0.0466797 -0.00671925 -0.0457538 0.001058 -1.33551 -0.176692 -1.02806 2650 
138 1 -0.0578386 -0.00816856 -0.0356782 0.001058 -6.19717 -4.01608 10.0369 2650 
280 1 -0.000623616 -0.00605281 -0.0231924 0.001058 -0.0144877 -0.403257 -2.64013 2650 
36 1 -0.0646589 -0.0324394 -0.0209575 0.001058 -7.95416 6.38014 24.5202 2650 
239 1 -0.0647956 -0.0241876 -0.0205559 0.001058 -12.3482 11.0996 38.5879 2650 
23 1 -0.0667562 -0.0179335 -0.0162872 0.000291 -0.0331231 -0.37802 0.135725 2650 
241 1 -0.008593 -0.00296148 -0.012306 0.000291 0 -0.01175 0 2650 
189 1 -0.00618496 -0.00229608 -0.0135992 0.000291 -0.00186935 -0.0259579 0.0246951 2650 
163 1 -0.005911 -0.00111348 -0.010628 0.001058 0 -0.01175 0 2650 
93 1 -0.00961946 -0.00306733 -0.00977844 0.000291 0.0136725 -0.0107654 0.0189123 2650 
166 1 -0.0055931 -0.0016572 -0.00908432 0.000291 -0.00164998 -0.0141972 -0.00210607 2650 
218 1 -0.00477301 -0.00079701 -0.00841509 0.001058 0.00604892 -0.01598 -0.0063764 2650 
188 1 -0.0677748 -0.0423091 -0.00563613 0.001058 -5.61 -13.3318 67.6571 2650 
59 1 -0.0139425 -0.00209453 -0.00711859 0.001058 0.136069 0.0218759 0.13293 2650 
200 1 -0.012172 -0.000335482 -0.006974 0.000105 0 -0.01175 0 2650 
293 1 -0.009422 -0.00104848 -0.006923 0.001058 0 -0.01175 0 2650 
137 1 -0.001323 -0.00154548 -0.006126 0.00164 0 -0.01175 0 2650 
214 1 -0.008446 -0.000625482 -0.004092 0.000291 0 -0.01175 0 2650 
282 1 -0.001816 -0.00266548 -0.002164 0.000291 0 -0.01175 0 2650 
180 1 -0.0152378 -0.00170978 -0.00205692 0.001058 -0.00107758 -0.0150893 -0.00334409 2650 
116 1 -0.013496 -0.000525482 -0.003353 0.001058 0 -0.01175 0 2650 
140 1 -0.00761075 -0.00180875 -0.000404085 0.001058 0.00741961 -0.0270673 -9.92875e-05 2650 
43 1 -0.00491187 -0.00114564 -0.00154435 0.001058 0.0209055 -0.025075 0.0146763 2650 
135 1 -0.00383127 -0.000357839 -0.00177303 0.000291 0.0022501 0.000177671 -0.0146391 2650 
172 1 -0.0679579 -0.0108307 0.00101268 0.001058 0.122397 -0.0771872 8.20665 2650 
123 1 -0.0153268 -0.000164981 0.000140596 0.001058 0.00892981 -0.0125186 0.000828335 2650 
99 1 -0.011672 -0.00166348 9.8e-05 0.001058 0 -0.01175 0 2650 
122 1 -0.00170605 -0.000808644 0.000343819 0.001058 0.000526751 -0.0114806 -1.25778e-06 2650 
131 1 -0.0131401 -0.0024767 0.00306385 0.001058 0.00202072 -0.0362922 0.0172464 2650 
132 1 -0.0152919 -0.000924048 0.00395032 0.001058 0.00780184 -0.0108872 0.00266206 2650 
158 1 -0.007297 -0.00170248 0.003049 0.000291 0 -0.01175 0 2650 
149 1 -0.004792 -0.00174848 0.002724 0.000291 0 -0.01175 0 2650 
272 1 -0.001203 -0.000841482 0.002609 0.001058 0 -0.01175 0 2650 
206 1 -0.014145 -0.000440466 0.00509104 0.000291 -0.00580536 -0.026644 0.0247391 2650 
49 1 -0.00743963 -0.000549337 0.00490776 0.00164 0.000378183 -0.0113747 0.000627966 2650 
42 1 -0.008546 -0.00236848 0.006756 0.001058 0 -0.01175 0 2650 
97 1 -0.0128251 -0.000899621 0.00744388 0.00164 -0.00569381 0.00409931 -0.0394341 2650 
235 1 -0.001066 -0.00108548 0.007831 0.000291 0 -0.01175 0 2650 
64 1 -0.001837 -0.000660482 0.007035 0.000105 0 -0.01175 0 2650 
111 1 -0.009474 -0.00101548 0.008964 0.000291 0 -0.01175 0 2650 
193 1 -0.0635907 -0.0403129 0.0225501 0.00164 19.5953 3.91623 55.207 2650 
2 1 -0.0631904 -0.0122256 0.0250107 0.001058 -0.0465519 -0.423099 -0.1175 2650 
257 1 -0.0529073 -0.0236898 0.0426397 0.001058 -0.128695 -0.704307 -0.159507 2650 
90 1 -0.0333266 -0.057004 0.0592357 0.001058 37.2809 -4.3869 20.9595 2650 
179 1 -0.0190584 -0.0109693 0.0632886 0.001058 7.3721 -6.72877 4.10206 2650 
89 1 -0.0115294 -0.0206195 0.0663466 0.00164 8.18593 -0.907856 1.33582 2650 
231 1 -0.0107218 -0.016533 0.0669012 0.001058 6.47417 3.14621 1.36582 2650 
162 1 -0.054051 0.064743 -0.0380357 0.001058 -2.0857 -0.0695353 -0.450042 2650 
32 1 -0.00413475 0.00268368 -0.0159547 0.000105 0.0175367 -0.0336815 0.0103322 2650 
85 1 -0.003548 0.00391452 -0.015444 0.000291 0 -0.01175 0 2650 
70 1 -0.002345 0.00571652 -0.015511 0.000291 0 -0.01175 0 2650 
130 1 -0.000191183 0.00468476 -0.0155373 0.001058 -0.00248281 -0.00861309 0.00165378 2650 
295 1 -0.006507 0.000431518 -0.01264 0.000291 0 -0.01175 0 2650 
17 1 -0.00528351 0.00297932 -0.0135979 0.00164 -0.0321397 0.00530894 0.00493352 2650 
115 1 -0.009032 0.00576352 -0.012506 0.001058 0 -0.01175 0 2650 
292 1 -0.00178433 0.00376652 -0.0111709 0.001058 -0.0111203 0.0150966 0.0502579 2650 
198 1 -0.01006 0.00506052 -0.011926 0.000291 0 -0.01175 0 2650 
234 1 -0.003052 0.00515752 -0.010232 0.000291 0 -0.01175 0 2650 
47 1 -0.011528 0.00636452 -0.010748 0.000291 0 -0.01175 0 2650 
108 1 -0.007031 0.00112052 -0.009032 0.001058 0 -0.01175 0 2650 
273 1 -0.00110257 0.00552283 -0.00991697 0.001058 0.0109498 0.0387766 0.041219 2650 
175 1 -0.013247 0.00640452 -0.008751 0.000291 0 -0.01175 0 2650 
41 1 -0.00980758 0.0097664 -0.00975002 0.00164 0.01018 0.00862243 0.0210039 2650 
144 1 -0.011054 0.0109625 -0.008779 0.000105 0 -0.01175 0 2650 
157 1 -0.0107841 0.0125601 -0.00878383 0.000291 0.082228 0.155263 -0.194047 2650 
136 1 -0.0141383 0.0350624 -0.00839354 0.000105 -0.0724246 0.120818 -0.047731 2650 
203 1 -0.0051383 0.000943944 -0.00612263 0.001058 0.00527585 -0.013183 -0.00215468 2650 
250 1 -0.013194 0.00205752 -0.006197 0.001058 0 -0.01175 0 2650 
74 1 -0.0142222 0.00758597 -0.00601535 0.001058 0.0249392 -0.0170472 0.0044673 2650 
220 1 -0.0123322 0.0147331 -0.00768596 0.000291 -0.0263519 0.00963826 0.00806637 2650 
54 1 -0.00663609 0.0187916 -0.00791657 0.000291 -0.105274 0.0408646 0.0464213 2650 
76 1 -0.00311804 0.00147409 -0.00570123 0.001058 0.00564796 -0.0105611 0.000695373 2650 
240 1 -0.010392 0.00700652 -0.005262 0.000291 0 -0.01175 0 2650 
159 1 -0.012707 0.0109425 -0.00588 0.000291 0 -0.01175 0 2650 
256 1 -0.0122272 0.010954 -0.00461064 0.000291 -0.0124574 -8.7345e-05 -0.00544798 2650 
187 1 -0.0113798 0.0119966 -0.00585562 0.001058 -0.0111972 -0.0033368 -0.00320404 2650 
286 1 -0.0153188 0.0301998 -0.0040867 0.001058 0.0916405 0.170564 -0.527773 2650 
270 1 -0.00342617 0.00121154 -0.00315764 0.000291 0.0222139 -0.00940451 0.00236984 2650 
211 1 -0.013621 0.00268852 -0.002856 0.001058 0 -0.01175 0 2650 
274 1 -0.016349 0.00481352 -0.002509 0.000291 0 -0.01175 0 2650 
114 1 -0.012867 0.00534452 -0.002401 0.001058 0 -0.01175 0 2650 
13 1 -0.014201 0.00704852 -0.003882 0.000291 0 -0.01175 0 2650 
276 1 -0.0155096 0.00743914 -0.0033375 0.000291 -0.0292598 -0.0198696 0.0142423 2650 
104 1 -0.014089 0.00773052 -0.003012 0.000105 0 -0.01175 0 2650 
7 1 -0.00799609 0.0138731 -0.00300009 0.000291 0.00379351 0.0136266 -0.000190797 2650 
91 1 -0.00575164 0.0398886 -0.00301252 0.001058 -0.0202685 0.131267 0.100492 2650 
127 1 -0.00947334 0.00440816 -0.000643749 0.000291 -0.0139243 0.0621367 -0.0512894 2650 
61 1 -0.016439 0.0106605 -0.001038 0.000291 0 -0.01175 0 2650 
14 1 -0.006378 0.00175552 0.001478 0.000291 0 -0.01175 0 2650 
223 1 -0.000111031 0.00176806 0.00137227 0.001058 0.0417141 -0.0226578 0.0177208 2650 
191 1 -0.0109153 0.00220268 0.00143096 0.000291 -0.00576519 -0.0560083 -0.00590397 2650 
296 1 -0.005879 0.00223352 0.000521 0.000291 0 -0.01175 0 2650 
209 1 -0.0110493 0.00423154 0.00138673 0.001058 -0.026682 -0.0183968 -0.0208797 2650 
168 1 -0.007536 0.00409852 0.001389 0.000105 0 -0.01175 0 2650 
120 1 -0.016055 0.00630052 0.000189 0.000105 0 -0.01175 0 2650 
80 1 -0.0107815 0.0164171 0.000247374 0.000105 0.109879 0.0992648 -0.00635109 2650 
57 1 -0.0151786 0.0418926 0.000549745 0.00164 -0.107998 0.349313 0.13206 2650 
124 1 -0.0153962 0.00288643 0.00329008 0.001058 -0.0403128 0.0180857 -0.0165815 2650 
18 1 -0.005138 0.00329252 0.00212 0.001058 0 -0.01175 0 2650 
176 1 -0.003983 0.00763752 0.002552 0.000105 0 -0.01175 0 2650 
242 1 -0.00521027 0.00982805 0.00395869 0.000291 -0.0086111 0.00654042 0.00262129 2650 
106 1 -0.0135248 0.00223168 0.00524341 0.001058 -0.0231281 0.0241123 -0.0163446 2650 
52 1 -0.0117211 0.00303888 0.00421096 0.001058 0.00724987 -0.000384762 -0.00950543 2650 
75 1 -0.00916953 0.00490378 0.00413963 0.001058 0.00617698 0.0742402 0.0547171 2650 
53 1 -0.000389 0.00437552 0.004762 0.000291 0 -0.01175 0 2650 
164 1 -0.003894 0.00667352 0.005467 0.001058 0 -0.01175 0 2650 
268 1 -0.015093 0.0108481 0.00420752 0.000291 0.01445 0.0807893 -0.0273776 2650 
291 1 -0.008194 0.0110475 0.004767 0.000291 0 -0.01175 0 2650 
266 1 -0.0140763 0.00160862 0.00724959 0.001058 0.00110786 0.023496 -0.00310371 2650 
58 1 -0.0100632 0.00124728 0.00604577 0.001058 -0.00589457 -0.0550464 0.0209758 2650 
302 1 -0.0100288 0.000309364 0.00710493 0.000291 -0.0126668 -0.0407788 0.0458891 2650 
182 1 -0.00638911 0.000499283 0.00780932 0.000291 0.0423046 -0.0510149 0.030418 2650 
254 1 -0.00559778 0.00161777 0.00741409 0.000291 0.0479131 -0.0346233 0.0397782 2650 
238 1 -0.00906144 0.00371918 0.0073558 0.001058 0.0146556 -0.0483455 0.0436078 2650 
195 1 -0.00683623 0.00255458 0.00707972 0.001058 0.0313537 0.000566778 0.0704604 2650 
33 1 -0.0125847 0.00575693 0.00775947 0.00164 0.0615431 -0.0461987 0.0815517 2650 
170 1 -0.0108513 0.00433897 0.00613032 0.001058 0.0253146 -0.0512177 0.0195846 2650 
98 1 -0.001703 0.00423652 0.00616 0.001058 0 -0.01175 0 2650 
77 1 -0.0148876 0.0097961 0.00653776 0.000291 -0.0658098 0.00751565 0.0147372 2650 
11 1 -0.00852162 0.0373714 0.00710005 0.001058 0.0559064 0.127731 0.0121966 2650 
44 1 -0.00719672 0.00112771 0.00879497 0.001058 -0.000318907 -0.0115287 0.000737613 2650 
51 1 -0.00109019 0.00172217 0.00946778 0.001058 -0.110544 -0.0693165 0.018834 2650 
28 1 -0.0117257 0.00222953 0.00892137 0.001058 0.0815194 -0.0863693 0.0535802 2650 
129 1 -0.00730145 0.00518472 0.00999303 0.00164 -0.0204795 -0.0917591 0.0103728 2650 
35 1 -0.0015156 0.00490658 0.00866167 0.001058 0.00568178 -0.0136393 -0.0193356 2650 
55 1 -0.0120148 0.0104112 0.00994993 0.000291 -0.0342231 -0.0550134 -0.0437999 2650 
233 1 -0.00192466 0.00164521 0.0105625 0.000291 -0.0761204 -0.0279091 0.0748141 2650 
202 1 -0.00333957 0.00567694 0.0107801 0.001058 -0.0369954 -0.0160763 -0.0283304 2650 
10 1 -0.00889261 0.00628993 0.0119901 0.001058 0.0511516 -0.0200707 0.0707597 2650 
299 1 -0.010616 0.00956658 0.0107055 0.001058 -0.0210753 -0.0135942 -0.0168879 2650 
217 1 -0.011248 0.011648 0.0105417 0.001058 -0.0293536 -0.00546788 -0.0611489 2650 
68 1 -0.00481438 0.0127182 0.0109506 0.001058 -0.0136684 0.0600476 -0.0360434 2650 
145 1 -0.000121828 0.0118831 0.0110975 0.00164 -0.0568997 0.0311676 0.0314027 2650 
4 1 -0.0117692 0.0155196 0.0103877 0.001058 -0.00962936 0.111838 -0.0419957 2650 
156 1 -0.00973352 0.0153777 0.0110691 0.001058 -0.008174 0.0875004 -0.0348937 2650 
126 1 -0.0116228 0.0202885 0.0119376 0.000291 -0.225055 0.184308 -0.167507 2650 
65 1 -0.00247855 0.0212363 0.011365 0.00164 0.217598 0.129022 0.114602 2650 
245 1 -0.006171 0.0271565 0.011181 0.001058 -0.00867722 0.0643616 0.05297 2650 
265 1 -0.00958786 7.46149e-05 0.0123207 0.001058 -0.156913 -0.1561 -0.119886 2650 
29 1 -0.00923422 0.00162727 0.0133521 0.000291 -0.00961217 -0.175831 -0.0563118 2650 
194 1 -0.00150647 0.000811237 0.0124391 0.001058 -0.0931597 -0.115813 0.0214387 2650 
226 1 -0.009224 0.00264452 0.012787 0.000291 0 -0.01175 0 2650 
300 1 -0.00823186 0.00416478 0.0133138 0.001058 0.035193 -0.0792542 0.043065 2650 
251 1 -0.00622397 0.00471355 0.0126408 0.001058 0.0370151 -0.0382387 0.0279511 2650 
304 1 -0.011052 0.00985228 0.0122072 0.000291 0.0588582 -0.0224276 0.0407133 2650 
153 1 -0.00598797 0.00816831 0.0126361 0.00164 -0.036624 -0.0123556 0.00709304 2650 
186 1 -0.000252172 0.00848974 0.0121946 0.001058 0.101354 -0.029825 0.0804437 2650 
224 1 -0.00873618 0.0107651 0.0127282 0.001058 -0.084069 0.000444047 -0.00873368 2650 
249 1 -0.00873213 0.0120149 0.0137033 0.000291 -0.146746 0.0833365 0.0357138 2650 
9 1 -0.00676647 0.0123423 0.0137186 0.00164 -0.10515 0.0815029 -0.0511019 2650 
71 1 -0.00908422 0.0148541 0.013913 0.000291 -0.149203 0.0988981 -0.109479 2650 
222 1 -0.0041907 0.0146579 0.0121356 0.001058 -0.0935793 0.051604 -0.0700768 2650 
79 1 -0.00865486 0.00281633 0.0140451 0.000291 -0.138151 -0.182634 -0.0850247 2650 
285 1 -0.00714478 0.00626382 0.0142046 0.001058 -0.0163342 -0.0487004 -0.0109909 2650 
100 1 -0.00221547 0.00643972 0.0147522 0.001058 -0.0578631 -0.00763451 0.0553776 2650 
301 1 -0.000188184 0.0102735 0.0158652 0.001058 -0.0408309 -0.0590863 -0.0252764 2650 
19 1 -0.0676275 0.109803 -0.00684161 0.001058 2.54461 0.121748 -25.1328 2650 
221 1 0.063208 -0.0227886 -0.0269498 0.000291 0.0628447 -0.406689 0.147354 2650 
62 1 0.0443953 -0.00820992 -0.0276757 0.000291 6.90919 -0.352095 -4.2685 2650 
86 1 0.0662291 -0.0588941 -0.018313 0.000291 2.86343 -0.625417 10.3528 2650 
155 1 0.005921 -0.00143248 -0.01427 0.001058 0 -0.01175 0 2650 
83 1 0.007342 -0.00230048 -0.011981 0.001058 0 -0.01175 0 2650 
141 1 0.004693 -0.00147748 -0.010381 0.000291 0 -0.01175 0 2650 
15 1 0.0298506 -0.0318105 -0.00778566 0.000291 23.9134 -0.241279 20.2983 2650 
213 1 0.001757 -0.000640482 -0.008127 0.000291 0 -0.01175 0 2650 
167 1 0.0684086 -0.0568675 -0.00648175 0.000291 -1.24309 2.44302 -13.1164 2650 
40 1 0.002884 -0.00239448 -0.006462 0.000105 0 -0.01175 0 2650 
185 1 0.00703853 -0.00290022 -0.00693672 0.00164 0.00205601 -0.0105325 -0.00333262 2650 
39 1 0.00916822 -0.0031504 -0.00759281 0.000291 -0.133893 -0.0468911 -0.160837 2650 
30 1 0.005625 -0.000962482 -0.00604 0.000291 0 -0.01175 0 2650 
87 1 0.00772625 -0.000667538 -0.00679409 0.000291 -0.229387 0.0928627 -0.124587 2650 
16 1 0.006364 -0.00226648 -0.005251 0.000105 0 -0.01175 0 2650 
20 1 0.00894834 -0.00300332 -0.00453915 0.001058 -0.215355 -0.0455674 -0.00316612 2650 
197 1 0.007512 -0.000824482 -0.004043 0.000291 0 -0.01175 0 2650 
8 1 0.000989 -0.00254148 -0.00369 0.000105 0 -0.01175 0 2650 
173 1 0.002644 -0.00131748 -0.002982 0.000291 0 -0.01175 0 2650 
248 1 0.008036 -0.00267248 -0.000368 0.000291 0 -0.01175 0 2650 
6 1 0.004141 -0.000391482 -0.001643 0.000291 0 -0.01175 0 2650 
72 1 0.013289 -0.00163748 -0.000624 0.000105 0 -0.01175 0 2650 
255 1 0.005303 -0.00236948 0.000727 0.000291 0 -0.01175 0 2650 
56 1 0.00459 -0.00161248 0.000864 0.000105 0 -0.01175 0 2650 
148 1 0.0282503 -0.0462365 0.00330955 0.001058 7.14663 -0.209402 4.55144 2650 
288 1 0.0686712 -0.0213725 0.00244806 0.000291 0.00326778 -0.634257 -0.0916411 2650 
121 1 0.0137796 -0.00300672 0.00322223 0.00164 0.00766877 -0.00859872 0.00323988 2650 
264 1 0.003305 -0.000407482 0.003449 0.001058 0 -0.01175 0 2650 
184 1 0.0164856 -0.000804893 0.00284833 0.000105 -0.00929623 -0.00734054 -0.110911 2650 
247 1 0.001401 -0.00252048 0.005706 0.000291 0 -0.01175 0 2650 
267 1 0.007574 -0.000186482 0.005778 0.000291 0 -0.01175 0 2650 
118 1 0.001179 -2.14822e-05 0.007467 0.000291 0 -0.01175 0 2650 
38 1 0.000388088 -5.23467e-05 0.00971278 0.000291 -0.00247737 0.000548689 -0.00646163 2650 
204 1 0.000456336 -0.00196825 0.00889975 0.001058 0.0214283 -0.00559661 -0.0189307 2650 
243 1 0.01084 -0.00195248 0.008454 0.001058 0 -0.01175 0 2650 
229 1 0.0638568 -0.00497865 0.0232589 0.001058 1.17594 0.335954 -3.22538 2650 
181 1 0.0560141 -0.0103825 0.0397958 0.000291 0.141124 -0.348193 -0.198574 2650 
26 1 0.00857038 -0.0561603 0.0409839 0.001058 55.8981 -132.359 -138.301 2650 
192 1 0.0411539 -0.0335916 0.0552528 0.000105 0.990813 0.824081 -0.727337 2650 
94 1 0.0327963 -0.0117659 0.0603785 0.000291 39.7858 -4.93003 -21.6062 2650 
303 1 0.001598 0.00233452 -0.015917 0.000291 0 -0.01175 0 2650 
160 1 0.004468 0.00345752 -0.014641 0.000105 0 -0.01175 0 2650 
37 1 0.006156 0.0103605 -0.015157 0.000291 0 -0.01175 0 2650 
139 1 0.00377386 0.0145906 -0.0146232 0.001058 0.0124295 0.00846741 0.0230295 2650 
237 1 0.005321 0.00103452 -0.012467 0.001058 0 -0.01175 0 2650 
263 1 0.006877 0.00385452 -0.012319 0.000291 0 -0.01175 0 2650 
289 1 0.001465 0.00502152 -0.012477 0.000291 0 -0.01175 0 2650 
252 1 0.00245 0.00873152 -0.01336 0.001058 0 -0.01175 0 2650 
78 1 0.001258 0.0103465 -0.012517 0.000291 0 -0.01175 0 2650 
196 1 0.002599 0.00232752 -0.011929 0.001058 0 -0.01175 0 2650 
105 1 0.003632 0.00901452 -0.010703 0.00164 0 -0.01175 0 2650 
275 1 0.012705 0.00809352 -0.010476 0.000291 0 -0.01175 0 2650 
110 1 0.010451 0.0106375 -0.010748 0.000291 0 -0.01175 0 2650 
259 1 0.006357 0.000288518 -0.00938 0.001058 0 -0.01175 0 2650 
67 1 0.00898 0.00172252 -0.006049 0.001058 0 -0.01175 0 2650 
102 1 0.003423 0.00375952 -0.006065 0.000291 0 -0.01175 0 2650 
134 1 0.011983 0.00377352 -0.006239 0.000291 0 -0.01175 0 2650 
117 1 0.004754 0.00402152 -0.007063 0.000291 0 -0.01175 0 2650 
60 1 0.007579 0.00666252 -0.006312 0.001058 0 -0.01175 0 2650 
45 1 0.010575 0.00658252 -0.007722 0.000291 0 -0.01175 0 2650 
271 1 0.001328 0.00848652 -0.00636 0.001058 0 -0.01175 0 2650 
178 1 0.00362659 0.000827485 -0.00553892 0.001058 -0.000649024 -0.0123819 0.00135439 2650 
260 1 0.010685 0.00136952 -0.004932 0.000291 0 -0.01175 0 2650 
92 1 0.00994496 0.000122634 -0.00462351 0.001058 -0.0443381 0.0632379 -0.00573583 2650 
246 1 0.001376 0.00326052 -0.005453 0.001058 0 -0.01175 0 2650 
142 1 0.00733192 0.0053635 -0.00503266 0.000291 0.0779853 0.20401 0.00101983 2650 
279 1 0.011818 0.00571652 -0.00556 0.001058 0 -0.01175 0 2650 
199 1 0.014464 0.00707352 -0.004562 0.000291 0 -0.01175 0 2650 
278 1 7.4e-05 0.00917352 -0.004448 0.001058 0 -0.01175 0 2650 
284 1 0.014191 0.00995352 -0.005949 0.000291 0 -0.01175 0 2650 
171 1 0.000459 0.000176518 -0.002783 0.001058 0 -0.01175 0 2650 
88 1 0.002864 0.00188652 -0.002457 0.000105 0 -0.01175 0 2650 
177 1 0.00734397 0.00174525 -0.00356902 0.00164 0.000880441 -0.0122849 0.00102856 2650 
161 1 0.0137075 0.00149022 -0.00206056 0.00164 0.00674689 -0.0113079 0.0431426 2650 
205 1 0.005264 0.00225552 -0.002386 0.000291 0 -0.01175 0 2650 
253 1 0.014729 0.00543152 -0.002617 0.000291 0 -0.01175 0 2650 
227 1 0.00944 0.00726052 -0.002109 0.000291 0 -0.01175 0 2650 
113 1 0.010337 0.00488652 -0.001708 0.00164 0 -0.01175 0 2650 
190 1 0.005899 0.00996252 -0.000534 0.000291 0 -0.01175 0 2650 
183 1 0.01481 0.000249518 0.000242 0.000291 0 -0.01175 0 2650 
277 1 0.015014 0.000627518 0.001212 0.000291 0 -0.01175 0 2650 
81 1 0.007451 0.00337952 7.8e-05 0.00164 0 -0.01175 0 2650 
96 1 0.009869 0.00201652 0.000788 0.000105 0 -0.01175 0 2650 
261 1 0.011218 0.00355552 0.000328 0.000291 0 -0.01175 0 2650 
48 1 0.009671 0.00785452 0.000233 0.000105 0 -0.01175 0 2650 
128 1 0.00361 0.00956152 0.000511 0.000105 0 -0.01175 0 2650 
225 1 0.001446 0.000446518 0.002203 0.001058 0 -0.01175 0 2650 
143 1 0.013105 0.000716518 0.003332 0.000291 0 -0.01175 0 2650 
210 1 0.010971 0.00270952 0.002357 0.001058 0 -0.01175 0 2650 
294 1 0.006997 0.00756852 0.003581 0.001058 0 -0.01175 0 2650 
101 1 0.004812 0.00828452 0.002517 0.000291 0 -0.01175 0 2650 
154 1 0.0042932 0.0135167 0.0024467 0.001058 0.0337937 0.0924026 -0.0831052 2650 
50 1 0.006699 0.00179652 0.005883 0.001058 0 -0.01175 0 2650 
305 1 0.007934 0.000555518 0.005234 0.000105 0 -0.01175 0 2650 
150 1 0.010064 0.00189752 0.004311 0.000291 0 -0.01175 0 2650 
147 1 0.0144 0.00154282 0.00421561 0.001058 0.0504004 0.0169274 -0.0976022 2650 
24 1 0.005464 0.00765052 0.005551 0.000105 0 -0.01175 0 2650 
212 1 0.001087 0.00807852 0.005915 0.000291 0 -0.01175 0 2650 
244 1 0.014869 0.00813652 0.00421 0.001058 0 -0.01175 0 2650 
174 1 0.002361 0.00154952 0.006466 0.000291 0 -0.01175 0 2650 
207 1 0.000324 0.00323552 0.006532 0.000291 0 -0.01175 0 2650 
232 1 0.003256 0.00254752 0.007333 0.001058 0 -0.01175 0 2650 
208 1 0.009461 0.00391152 0.007837 0.001058 0 -0.01175 0 2650 
112 1 0.013668 0.0108865 0.007002 0.000105 0 -0.01175 0 2650 
1 1 0.00225868 0.000353107 0.0100877 0.00164 0.00475392 -0.0224913 0.00438655 2650 
228 1 0.010294 0.00105852 0.01009 0.000291 0 -0.01175 0 2650 
103 1 0.005979 0.00425352 0.01127 0.000291 0 -0.01175 0 2650 
258 1 0.009255 0.00534452 0.010506 0.001058 0 -0.01175 0 2650 
298 1 0.003487 0.00898552 0.011695 0.000105 0 -0.01175 0 2650 
287 1 0.00665562 0.00384921 0.0130613 0.001058 0.00547817 1.63692e-05 -0.00963523 2650 
95 1 0.006942 0.00570052 0.013027 0.000291 0 -0.01175 0 2650 
66 1 0.00176834 0.00857525 0.0136143 0.001058 -0.0057478 -0.00559775 0.0357659 2650 
82 1 0.000755 0.00322252 0.014898 0.001058 0 -0.01175 0 2650 
3 1 0.00630878 0.00207838 0.0143321 0.001058 0.0175829 -0.0101849 -0.010048 2650 
12 1 0.0320236 0.146166 -0.0599164 0.001058 0.180393 0.263512 0.0530531 2650 
216 1 0.0679183 0.0805972 0.00250157 0.001058 -0.00413608 -0.299074 0.112191 2650 
