ITEM: TIMESTEP
8271554
ITEM: NUMBER OF ATOMS
168
ITEM: BOX BOUNDS ff ff ff
-0.15 0.15
-0.15 0.15
-0.15 0.15
ITEM: ATOMS id type x y z radius vx vy vz density 
185 1 -0.0107796 -0.0594543 -0.0665888 0.00164 -63.6253 -2.10484 10.2907 2650 
270 1 -0.0459972 -0.0160974 -0.0510428 0.000291 -18.254 -1.42783 16.4448 2650 
50 1 -0.0548719 -0.0218072 -0.0400983 0.001058 -13.9064 -0.194788 19.0136 2650 
122 1 -0.0653895 -0.0203417 -0.0186301 0.001058 -14.1778 6.4154 49.7284 2650 
6 1 -0.0633525 -0.0191551 -0.0203188 0.000291 -8.28024 -5.49219 8.91495 2650 
184 1 -0.0114192 -0.00304369 -0.0123181 0.000105 -0.0606933 -0.00247323 0.0701386 2650 
10 1 -0.0680378 -0.0276388 0.000473553 0.001058 0.544931 22.4648 64.0219 2650 
198 1 -0.0163619 -0.00227293 -0.0027216 0.000291 -0.00877366 -0.0177289 0.0346228 2650 
274 1 -0.016349 -0.000121451 -0.002509 0.000291 0 -0.01175 0 2650 
202 1 -0.014721 -0.000807127 -0.00106301 0.001058 0.0128915 -0.0128605 -0.0276632 2650 
14 1 -0.006378 -0.00317945 0.001478 0.000291 0 -0.01175 0 2650 
296 1 -0.005879 -0.00270145 0.000521 0.000291 0 -0.01175 0 2650 
168 1 -0.007536 -0.000836451 0.001389 0.000105 0 -0.01175 0 2650 
237 1 -0.0677809 -0.0455679 0.00525024 0.001058 3.14956 -5.15534 40.6326 2650 
18 1 -0.005138 -0.00164245 0.00212 0.001058 0 -0.01175 0 2650 
98 1 -0.00205293 -0.00184117 0.00228178 0.001058 -0.000888658 -0.0146521 -0.00984914 2650 
77 1 -0.0130708 -0.00332067 0.00466505 0.000291 -0.14547 -0.0513729 0.0569564 2650 
53 1 -0.000389 -0.000559451 0.004762 0.000291 0 -0.01175 0 2650 
178 1 -0.0634175 -0.0350767 0.0244732 0.001058 12.3684 0.113323 32.0259 2650 
3 1 -0.0540309 -0.0181191 0.0412773 0.001058 36.6125 0.123949 47.8937 2650 
303 1 -0.0353799 -0.00659128 0.0589005 0.000291 27.453 1.1291 16.4875 2650 
249 1 -0.000917753 0.0349764 -0.0163915 0.000291 0.0817256 0.0448164 -0.0139765 2650 
70 1 -0.002345 0.000781549 -0.015511 0.000291 0 -0.01175 0 2650 
211 1 -0.00301498 0.000705119 -0.0121819 0.001058 0.0201712 0.013603 0.0454441 2650 
97 1 -0.00714804 0.0186834 -0.0131483 0.00164 0.0435484 0.0511451 -0.00779196 2650 
65 1 -0.00605897 0.043972 -0.0135176 0.00164 -0.0231071 0.0685766 0.0147085 2650 
234 1 -0.010972 0.00668069 -0.0115624 0.000291 -0.0198056 0.0044 -0.0033269 2650 
127 1 -0.0062059 0.0292213 -0.0109938 0.000291 0.0287766 0.0561217 0.00113528 2650 
9 1 -0.00755744 0.0376194 -0.0117916 0.00164 -0.00604597 0.00783937 0.0239152 2650 
104 1 -0.0119847 0.0191001 -0.00942914 0.000105 0.0177636 0.0547487 -0.00448366 2650 
154 1 -0.00477191 0.0364871 -0.00837312 0.001058 -0.00437168 -0.00203626 0.0515004 2650 
17 1 -0.0125047 0.00784621 -0.00643014 0.00164 -0.000178663 0.0148096 0.0131731 2650 
114 1 -0.00746822 0.00618087 -0.00627467 0.001058 0.0200879 0.00682621 -0.000307026 2650 
256 1 -0.0144456 0.00876024 -0.00705352 0.000291 0.00674681 -0.0150402 -0.00581329 2650 
115 1 -0.0139702 0.0114143 -0.00757135 0.001058 -0.00202241 0.0130609 0.00308619 2650 
159 1 -0.00849054 0.0108412 -0.00758176 0.000291 0.0241648 0.0135336 -0.0109323 2650 
13 1 -0.00709149 0.0117284 -0.00772974 0.000291 0.0317035 0.0222816 -0.00961934 2650 
187 1 -0.0131706 0.014811 -0.00757494 0.001058 0.00809501 0.0245143 -0.00410554 2650 
209 1 -0.00744167 0.0162541 -0.00731006 0.001058 0.0380233 0.0429062 -0.0121241 2650 
224 1 -0.0145531 0.0275057 -0.0063126 0.001058 0.0162735 0.0559518 -0.0398498 2650 
68 1 -0.0112949 0.0324171 -0.00703048 0.001058 -0.0154583 0.0466911 -0.0429213 2650 
4 1 -0.0137762 0.0621945 -0.00643987 0.001058 0.0217601 0.107267 -0.0295081 2650 
132 1 -0.010954 0.0105018 -0.00514237 0.001058 0.0159652 0.0179925 0.00929765 2650 
144 1 -0.00996616 0.0113967 -0.00501582 0.000105 0.0207311 0.0171907 0.0118979 2650 
217 1 -0.0146694 0.0139718 -0.00517611 0.001058 0.00266853 0.0202247 -0.00184538 2650 
240 1 -0.00146147 0.00109852 -0.00338937 0.000291 0.0279874 -0.0147994 0.00586861 2650 
47 1 -0.0162319 0.00860841 -0.00232222 0.000291 -0.00461067 -0.0109257 0.0251568 2650 
220 1 -0.013351 0.0181192 -0.00225595 0.000291 0.00621602 0.00749286 0.0146849 2650 
7 1 -0.00640283 0.0195963 -0.00308022 0.000291 0.00379351 0.0136266 -0.000190797 2650 
124 1 -0.0154502 0.0204155 -0.00343931 0.001058 0.00533268 0.0529957 -0.0132342 2650 
156 1 -0.0131666 0.0521276 -0.00358617 0.001058 -0.008174 0.0875004 -0.0348937 2650 
175 1 -0.0153109 0.0012426 -0.00170718 0.000291 -0.00499136 -0.0123986 0.0336656 2650 
61 1 -0.016439 0.00572555 -0.001038 0.000291 0 -0.01175 0 2650 
41 1 -0.00554105 0.0135109 -0.000914319 0.00164 0.0101493 0.00903205 0.0210511 2650 
111 1 -0.014143 0.0439304 -0.00191832 0.000291 -0.00975753 0.139584 -0.0476497 2650 
120 1 -0.016055 0.00136555 0.000189 0.000105 0 -0.01175 0 2650 
52 1 -0.00867619 0.00287728 0.000218703 0.001058 0.00724987 -0.000384762 -0.00950543 2650 
74 1 -0.000180038 0.0102567 0.000137678 0.001058 0.0384953 0.0199678 0.0206009 2650 
176 1 -0.003983 0.00270255 0.002552 0.000105 0 -0.01175 0 2650 
59 1 -0.00080676 0.0085709 0.00343975 0.001058 -0.0211994 0.0196674 -0.0488693 2650 
106 1 -0.0142102 0.01842 0.00395559 0.001058 0.00249309 0.0329203 -0.00428525 2650 
273 1 -0.0018259 0.021396 0.00374745 0.001058 -0.00378567 0.0376334 0.0311204 2650 
304 1 -0.0164598 0.0224905 0.00233103 0.000291 -0.00374253 0.0452494 -0.0139006 2650 
75 1 -0.0152918 0.0254912 0.00231053 0.001058 -0.016475 0.0363231 -0.0379354 2650 
164 1 -0.003894 0.00173855 0.005467 0.001058 0 -0.01175 0 2650 
276 1 -0.0154395 0.00334897 0.00520483 0.000291 0.00811483 -0.00593465 0.0210781 2650 
266 1 -0.0151484 0.00505876 0.00459764 0.001058 -0.00270824 -0.000480824 -0.00939838 2650 
291 1 -0.008194 0.00611255 0.004767 0.000291 0 -0.01175 0 2650 
299 1 -0.0149874 0.00961823 0.00420882 0.001058 -0.00304384 0.00906908 -0.0140676 2650 
242 1 -0.00882691 0.012575 0.00505962 0.000291 -0.0086111 0.00654042 0.00262129 2650 
302 1 -0.0137022 0.0192615 0.00519975 0.000291 -0.00172717 0.0617861 -0.0136364 2650 
38 1 -0.0006524 0.000178101 0.00699891 0.000291 -0.00247737 0.000548689 -0.00646163 2650 
153 1 -0.01208 0.00590547 0.0068568 0.00164 -0.0122543 -0.00478552 -0.0173407 2650 
292 1 -0.00629002 0.00997267 0.00996494 0.001058 -0.0107082 0.0147606 0.0503271 2650 
145 1 -0.0100568 0.025168 0.0082043 0.00164 -0.0118268 0.0326517 -0.0170016 2650 
286 1 -0.0116969 0.0357892 0.0107055 0.001058 -0.241742 -0.0451324 -0.276919 2650 
143 1 -0.00486551 0.0129712 0.0135295 0.000291 -0.175244 0.126069 0.160129 2650 
126 1 -0.00848218 0.0507791 0.0142256 0.000291 -0.175094 -0.00474576 -0.129887 2650 
19 1 -0.0483067 0.10284 0.0478001 0.001058 -17.8796 -0.756795 -18.0537 2650 
301 1 0.0159004 -0.0180891 -0.0660671 0.001058 -32.4685 -2.6373 -7.80858 2650 
108 1 0.021102 -0.0297106 -0.0646207 0.001058 -83.71 -3.48542 -26.9732 2650 
300 1 0.0388743 -0.0248567 -0.055796 0.001058 -68.8219 9.25767 -48.2125 2650 
180 1 0.00645493 -0.00326867 -0.0144112 0.001058 0.0518968 -0.02699 0.0223031 2650 
160 1 0.004468 -0.00147745 -0.014641 0.000105 0 -0.01175 0 2650 
76 1 0.00130961 -0.00123847 -0.0120958 0.001058 0.0221407 0.0109243 0.0472757 2650 
263 1 0.006877 -0.00108045 -0.012319 0.000291 0 -0.01175 0 2650 
196 1 0.00302576 -0.00282871 -0.0117077 0.001058 0.028136 -0.0263362 0.014592 2650 
102 1 0.003423 -0.00117545 -0.006065 0.000291 0 -0.01175 0 2650 
117 1 0.004754 -0.000913451 -0.007063 0.000291 0 -0.01175 0 2650 
134 1 0.011983 -0.00116145 -0.006239 0.000291 0 -0.01175 0 2650 
246 1 0.00227468 -0.00241125 -0.00524866 0.001058 0.00715 -0.017612 0.00162572 2650 
205 1 0.00123066 -0.00186758 -0.000180931 0.000291 -0.0110579 -0.00952415 0.00604549 2650 
177 1 0.00356514 -0.00110721 -0.00156504 0.00164 -0.00929569 -0.00671391 0.00454093 2650 
96 1 0.009869 -0.00291845 0.000788 0.000105 0 -0.01175 0 2650 
81 1 0.00754838 -0.00148675 0.000292855 0.00164 0.000384867 -0.0114785 0.000849182 2650 
261 1 0.011218 -0.00137945 0.000328 0.000291 0 -0.01175 0 2650 
210 1 0.010971 -0.00222545 0.002357 0.001058 0 -0.01175 0 2650 
223 1 0.00981018 -0.00205575 0.00509346 0.001058 0.0234053 -0.008914 0.00888968 2650 
150 1 0.0102164 -0.00318567 0.00422081 0.000291 0.00639996 -0.0179725 -0.00378652 2650 
186 1 0.0125314 -0.00162567 0.00849804 0.001058 0.0167436 -0.0131291 -0.0164475 2650 
174 1 0.00407647 -0.00354697 0.0111641 0.000291 0.521998 -0.0561704 1.42958 2650 
103 1 0.005979 -0.000681451 0.01127 0.000291 0 -0.01175 0 2650 
82 1 0.00690294 -0.000964832 0.0125945 0.001058 0.02619 -0.00856153 -0.0098163 2650 
228 1 0.0576681 -0.0356627 0.0198793 0.000291 9.05334 8.42803 -10.957 2650 
285 1 0.0581578 -0.0264946 0.0352361 0.001058 33.1947 1.71386 -54.7535 2650 
264 1 0.0388949 -0.0512581 0.0557681 0.001058 53.594 -5.32349 -37.3551 2650 
141 1 0.0369241 -0.0303296 0.0550394 0.000291 208.831 4.4828 -93.4906 2650 
232 1 0.0308155 -0.0505694 0.0605955 0.001058 51.3587 -0.0415016 -26.1011 2650 
130 1 0.000962349 0.00386794 -0.0143467 0.001058 0.00437987 0.00527411 0.000467902 2650 
37 1 0.00617399 0.00584141 -0.0153299 0.000291 0.000300355 -0.00480623 -0.00288641 2650 
54 1 0.00351162 0.0341716 -0.0154342 0.000291 0.0633152 0.039201 -0.0571353 2650 
289 1 0.001465 8.65494e-05 -0.012477 0.000291 0 -0.01175 0 2650 
85 1 0.00991363 0.00281292 -0.0132399 0.000291 0.0547239 0.00763354 0.0400801 2650 
78 1 0.001258 0.00541155 -0.012517 0.000291 0 -0.01175 0 2650 
252 1 0.00293928 0.00403276 -0.0131666 0.001058 0.00989855 -0.00786458 0.00112112 2650 
67 1 0.00558273 0.00497561 -0.0139884 0.001058 -0.00770852 0.00093704 0.00972389 2650 
275 1 0.012705 0.00315855 -0.010476 0.000291 0 -0.01175 0 2650 
105 1 0.0025968 0.00495676 -0.0106151 0.00164 -0.00482828 -0.00715568 0.00165945 2650 
110 1 0.010451 0.00570255 -0.010748 0.000291 0 -0.01175 0 2650 
203 1 0.00130403 0.00943296 -0.0118837 0.001058 0.0300988 0.0249682 0.0128177 2650 
250 1 0.00152713 0.0115558 -0.0105249 0.001058 0.0432285 0.0485484 0.00514244 2650 
155 1 0.0110471 0.0166402 -0.0114181 0.001058 0.0311046 0.0231818 0.0351495 2650 
147 1 0.0115333 0.0186603 -0.0107267 0.001058 -0.0128533 0.0704072 -0.00390639 2650 
123 1 0.00567866 0.00384537 -0.00840345 0.001058 0.0462188 0.0208066 -0.0202163 2650 
60 1 0.00753628 0.00194229 -0.00684774 0.001058 -0.000102723 -0.0112336 -0.00128825 2650 
45 1 0.010575 0.00164755 -0.007722 0.000291 0 -0.01175 0 2650 
279 1 0.0135146 0.0031672 -0.00737184 0.001058 0.00634753 -0.00282471 -0.0067785 2650 
260 1 0.0145794 0.00202445 -0.00607478 0.000291 -0.00695598 0.00220819 0.00323697 2650 
199 1 0.014464 0.00213855 -0.004562 0.000291 0 -0.01175 0 2650 
278 1 7.4e-05 0.00423855 -0.004448 0.001058 0 -0.01175 0 2650 
284 1 0.014191 0.00501855 -0.005949 0.000291 0 -0.01175 0 2650 
139 1 0.0089942 0.0181469 -0.00495086 0.001058 0.0124295 0.00846741 0.0230295 2650 
253 1 0.014729 0.000496549 -0.002617 0.000291 0 -0.01175 0 2650 
227 1 0.00944 0.00232555 -0.002109 0.000291 0 -0.01175 0 2650 
92 1 0.0115195 0.00311715 -0.00393328 0.001058 0.00266359 0.00215066 0.00142767 2650 
71 1 0.0161559 0.0394355 -0.00348319 0.000291 0.0348482 0.0194682 0.137365 2650 
113 1 0.0102744 0.000184245 -0.00114271 0.00164 -0.000223662 -0.0109187 0.00201958 2650 
190 1 0.005899 0.00502755 -0.000534 0.000291 0 -0.01175 0 2650 
268 1 0.00029999 0.0366932 -0.000311052 0.000291 0.0498109 0.0501228 -0.000906466 2650 
48 1 0.009671 0.00291955 0.000233 0.000105 0 -0.01175 0 2650 
128 1 0.00361 0.00462655 0.000511 0.000105 0 -0.01175 0 2650 
271 1 0.00937553 0.00524398 0.00125648 0.001058 0.0222356 0.00086416 0.0204212 2650 
66 1 0.0134866 0.0103363 0.000712156 0.001058 0.0275715 0.00535428 -0.0378804 2650 
80 1 0.00800933 0.0541099 0.000312253 0.000105 -0.0515466 0.0756738 0.00977082 2650 
101 1 0.004812 0.00334955 0.002517 0.000291 0 -0.01175 0 2650 
294 1 0.00699258 0.00245553 0.00372871 0.001058 -6.5616e-05 -0.0143941 0.00219396 2650 
116 1 0.00876318 0.0225482 0.00342659 0.001058 -0.0193078 0.0669284 0.0834163 2650 
35 1 0.00122066 0.00032083 0.00441898 0.001058 0.00657044 -0.0107373 -0.00948648 2650 
212 1 0.001087 0.00314355 0.005915 0.000291 0 -0.01175 0 2650 
24 1 0.005464 0.00271555 0.005551 0.000105 0 -0.01175 0 2650 
244 1 0.014869 0.00320155 0.00421 0.001058 0 -0.01175 0 2650 
208 1 0.0127031 0.00107109 0.00642291 0.001058 0.0149434 -0.00269948 -0.00837835 2650 
287 1 0.00926468 0.00570149 0.00706765 0.001058 0.0068234 0.00722778 -0.0172449 2650 
112 1 0.013668 0.00595155 0.007002 0.000105 0 -0.01175 0 2650 
258 1 0.0122702 0.00112723 0.0088234 0.001058 0.0122324 -0.00606004 -0.00592965 2650 
195 1 0.010642 0.00301151 0.00933659 0.001058 0.0288327 0.00574924 -0.0321598 2650 
100 1 0.00279392 0.00551764 0.00934929 0.001058 0.0366526 -0.00644169 -0.00115397 2650 
204 1 0.0073976 0.001847 0.0108688 0.001058 0.0123955 0.0167674 0.0186642 2650 
298 1 0.00593018 0.00856353 0.0102404 0.000105 0.0140018 0.0141138 -0.00833602 2650 
99 1 0.00276092 0.0250445 0.0114696 0.001058 0.0427358 0.0724069 0.0132656 2650 
95 1 0.00705995 0.00404153 0.0138862 0.000291 0.000317815 -0.00292264 0.00231518 2650 
87 1 0.000312163 0.0116944 0.0136544 0.000291 0.0728597 0.00662214 -0.0172791 2650 
207 1 0.000481842 0.00665943 0.0152668 0.000291 -0.0227427 -0.00909554 -0.0126678 2650 
157 1 0.00619078 0.0601968 0.0156999 0.000291 -0.0970724 0.0869749 0.0734059 2650 
142 1 0.0241013 0.0684466 0.0643432 0.000291 0.0579727 -0.176516 -0.0217881 2650 
163 1 0.0665476 0.0879478 -0.0137988 0.001058 0.0169022 0.135894 0.0814375 2650 
136 1 0.000894 0.0779124 -0.000276234 0.000105 0.0370802 0.101801 0.0201257 2650 
11 1 0.0546602 0.083628 0.0403706 0.001058 0.128264 -0.152706 -0.173475 2650 
