LIGGGHTS (Version LIGGGHTS-PUBLIC 3.8.0, compiled 2022-11-07-16:55:38 by serperd1, git commit 86544c3f1215bc9744d7929e3eacf53ba086af9e)
Created orthogonal box = (-0.15 -0.15 -0.15) to (0.15 0.15 0.15)
  2 by 4 by 5 MPI processor grid

Reading STL file 'cone.stl' (mesh processing step 1/3) 

Reading STL file 'in_cyl.stl' (mesh processing step 1/3) 

Reading STL file 'top_cyl.stl' (mesh processing step 1/3) 

Reading STL file 'bot_cyl.stl' (mesh processing step 1/3) 

Reading STL file 'bottom_disk.stl' (mesh processing step 1/3) 

Reading STL file 'top_disk.stl' (mesh processing step 1/3) 
Fix particledistribution/discrete (id prob_par): distribution based on mass%:
    r_0to10p: d=2.100000e-04 (max. bounding sphere) mass%=10.000000%
    r_10to50p: d=5.820000e-04 (max. bounding sphere) mass%=40.000000%
    r_50to90p: d=2.116400e-03 (max. bounding sphere) mass%=40.000000%
    r_90to100p: d=3.280400e-03 (max. bounding sphere) mass%=10.000000%
Fix particledistribution/discrete (id prob_par): distribution based on number%:
    r_0to10p: d=2.100000e-04 (max. bounding sphere) number%=83.887011%
    r_10to50p: d=5.820000e-04 (max. bounding sphere) number%=15.763173%
    r_50to90p: d=2.116400e-03 (max. bounding sphere) number%=0.327808%
    r_90to100p: d=3.280400e-03 (max. bounding sphere) number%=0.022008%
Setting up run at Fri Jan  6 07:50:17 2023

Import and parallelization of mesh cone_mesh containing 868 triangle(s) successful
Import and parallelization of mesh inlet_cyl_wall_mesh containing 1064 triangle(s) successful
Import and parallelization of mesh top_cyl_wall_mesh containing 682 triangle(s) successful
Import and parallelization of mesh bot_cyl_wall_mesh containing 1280 triangle(s) successful
Import and parallelization of mesh bot_disk_wall_mesh containing 1682 triangle(s) successful
Import and parallelization of mesh top_disk_wall_mesh containing 1144 triangle(s) successful
Memory usage per processor = 954.231 Mbytes
    Step    Atoms         KinEng            CPU 
       0        0              0              0 
Loop time of 8.17973e-05 on 40 procs for 0 steps with 0 atoms, finish time Fri Jan  6 07:50:17 2023


Pair  time (%) = 0 (0)
Neigh time (%) = 0 (0)
Comm  time (%) = 0 (0)
Outpt time (%) = 0 (0)
Other time (%) = 8.17973e-05 (100)

Nlocal:    0 ave 0 max 0 min
Histogram: 40 0 0 0 0 0 0 0 0 0
Nghost:    0 ave 0 max 0 min
Histogram: 40 0 0 0 0 0 0 0 0 0
Neighs:    0 ave 0 max 0 min
Histogram: 40 0 0 0 0 0 0 0 0 0

Total # of neighbors = 0
Neighbor list builds = 0
Dangerous builds = 0
Setting up run at Fri Jan  6 07:50:17 2023

Memory usage per processor = 954.231 Mbytes
    Step    Atoms         KinEng            CPU 
       0        0              0              0 
       1        0              0    0.009869188 
Loop time of 0.00987891 on 40 procs for 1 steps with 0 atoms, finish time Fri Jan  6 07:50:17 2023


Pair  time (%) = 2.7871e-06 (0.0282126)
Neigh time (%) = 0 (0)
Comm  time (%) = 0.000237501 (2.40412)
Outpt time (%) = 0.000159684 (1.61642)
Other time (%) = 0.00947893 (95.9512)

Nlocal:    0 ave 0 max 0 min
Histogram: 40 0 0 0 0 0 0 0 0 0
Nghost:    0 ave 0 max 0 min
Histogram: 40 0 0 0 0 0 0 0 0 0
Neighs:    0 ave 0 max 0 min
Histogram: 40 0 0 0 0 0 0 0 0 0

Total # of neighbors = 0
Neighbor list builds = 0
Dangerous builds = 0
Scanning dump file ...
Reading snapshot from dump file ...
  orthogonal box = (-0.15 -0.15 -0.15) to (0.15 0.15 0.15)
  0 atoms before read
  305 atoms in snapshot
  0 atoms purged
  0 atoms replaced
  0 atoms trimmed
  305 atoms added
  305 atoms after read
Setting atom values ...
  305 settings made for type
  305 settings made for density
  305 settings made for vy
Setting up run at Fri Jan  6 07:50:17 2023

Memory usage per processor = 958.583 Mbytes
    Step    Atoms         KinEng            CPU 
       1      305  2.0462467e-07              0 
       2      305  2.4125357e-07    0.009308575 
Loop time of 0.00932535 on 40 procs for 1 steps with 305 atoms, finish time Fri Jan  6 07:50:17 2023


Pair  time (%) = 2.0798e-06 (0.0223027)
Neigh time (%) = 0 (0)
Comm  time (%) = 6.03805e-06 (0.0647488)
Outpt time (%) = 0.000191785 (2.0566)
Other time (%) = 0.00912545 (97.8563)

Nlocal:    7.625 ave 134 max 0 min
Histogram: 36 2 0 0 0 0 0 0 0 2
Nghost:    5.125 ave 59 max 0 min
Histogram: 36 0 0 0 0 0 0 2 0 2
Neighs:    2.375 ave 54 max 0 min
Histogram: 37 1 0 0 0 1 0 0 0 1

Total # of neighbors = 95
Ave neighs/atom = 0.311475
Neighbor list builds = 0
Dangerous builds = 0
Setting up run at Fri Jan  6 07:50:17 2023

Memory usage per processor = 958.583 Mbytes
    Step    Atoms         KinEng            CPU 
       2      305  2.4125357e-07              0 
  123458      305  6.0816412e-05      1230.0306 
Loop time of 1230.03 on 40 procs for 123456 steps with 305 atoms, finish time Fri Jan  6 08:10:47 2023


Pair  time (%) = 0.243767 (0.0198179)
Neigh time (%) = 0.0577125 (0.00469196)
Comm  time (%) = 0.406589 (0.0330552)
Outpt time (%) = 0.000312777 (2.54284e-05)
Other time (%) = 1229.32 (99.9424)

Nlocal:    7.625 ave 136 max 0 min
Histogram: 36 2 0 0 0 0 0 0 1 1
Nghost:    5.15 ave 59 max 0 min
Histogram: 36 0 0 0 0 0 0 2 0 2
Neighs:    2.5 ave 57 max 0 min
Histogram: 36 2 0 0 1 0 0 0 0 1

Total # of neighbors = 100
Ave neighs/atom = 0.327869
Neighbor list builds = 330
Dangerous builds = 0
Setting up run at Fri Jan  6 08:10:47 2023

Memory usage per processor = 958.583 Mbytes
    Step    Atoms         KinEng            CPU 
  123458      305  6.0816412e-05              0 
  246914      305  4.3842796e-05      1228.1862 
Loop time of 1228.19 on 40 procs for 123456 steps with 305 atoms, finish time Fri Jan  6 08:31:15 2023


Pair  time (%) = 0.24482 (0.0199335)
Neigh time (%) = 0.0587086 (0.0047801)
Comm  time (%) = 0.402418 (0.0327652)
Outpt time (%) = 0.000284071 (2.31293e-05)
Other time (%) = 1227.48 (99.9425)

Nlocal:    7.625 ave 138 max 0 min
Histogram: 36 2 0 0 0 0 0 0 1 1
Nghost:    5.125 ave 56 max 0 min
Histogram: 36 0 0 0 0 0 0 0 2 2
Neighs:    2.475 ave 57 max 0 min
Histogram: 36 2 0 0 1 0 0 0 0 1

Total # of neighbors = 99
Ave neighs/atom = 0.32459
Neighbor list builds = 330
Dangerous builds = 0
Setting up run at Fri Jan  6 08:31:15 2023

Memory usage per processor = 958.583 Mbytes
    Step    Atoms         KinEng            CPU 
  246914      305  4.3842796e-05              0 
  370370      305  0.00038250452      1228.5216 
Loop time of 1228.52 on 40 procs for 123456 steps with 305 atoms, finish time Fri Jan  6 08:51:44 2023


Pair  time (%) = 0.244022 (0.019863)
Neigh time (%) = 0.0587609 (0.00478306)
Comm  time (%) = 0.428355 (0.0348675)
Outpt time (%) = 0.000330785 (2.69254e-05)
Other time (%) = 1227.79 (99.9405)

Nlocal:    7.625 ave 134 max 0 min
Histogram: 36 0 2 0 0 0 0 0 1 1
Nghost:    5.025 ave 61 max 0 min
Histogram: 36 0 0 0 0 0 0 2 1 1
Neighs:    2.475 ave 57 max 0 min
Histogram: 36 2 0 0 1 0 0 0 0 1

Total # of neighbors = 99
Ave neighs/atom = 0.32459
Neighbor list builds = 330
Dangerous builds = 0
Setting up run at Fri Jan  6 08:51:44 2023

Memory usage per processor = 958.583 Mbytes
    Step    Atoms         KinEng            CPU 
  370370      305  0.00038250452              0 
  493826      305   0.0002185812      1226.6149 
Loop time of 1226.62 on 40 procs for 123456 steps with 305 atoms, finish time Fri Jan  6 09:12:11 2023


Pair  time (%) = 0.244256 (0.019913)
Neigh time (%) = 0.0585798 (0.00477573)
Comm  time (%) = 0.445162 (0.0362919)
Outpt time (%) = 0.000590024 (4.81018e-05)
Other time (%) = 1225.87 (99.939)

Nlocal:    7.625 ave 134 max 0 min
Histogram: 36 0 2 0 0 0 0 0 1 1
Nghost:    5.025 ave 59 max 0 min
Histogram: 36 0 0 0 0 0 0 2 0 2
Neighs:    2.425 ave 54 max 0 min
Histogram: 36 1 1 0 1 0 0 0 0 1

Total # of neighbors = 97
Ave neighs/atom = 0.318033
Neighbor list builds = 330
Dangerous builds = 0
Setting up run at Fri Jan  6 09:12:11 2023

Memory usage per processor = 958.583 Mbytes
    Step    Atoms         KinEng            CPU 
  493826      305   0.0002185812              0 
  617282      305   0.0027880123      1228.4321 
Loop time of 1228.43 on 40 procs for 123456 steps with 305 atoms, finish time Fri Jan  6 09:32:39 2023


Pair  time (%) = 0.243528 (0.0198243)
Neigh time (%) = 0.176903 (0.0144007)
Comm  time (%) = 0.588426 (0.0479006)
Outpt time (%) = 0.000689505 (5.61289e-05)
Other time (%) = 1227.42 (99.9178)

Nlocal:    7.625 ave 134 max 0 min
Histogram: 36 0 2 0 0 0 0 1 0 1
Nghost:    4.95 ave 59 max 0 min
Histogram: 36 0 0 0 0 0 1 1 0 2
Neighs:    2.5 ave 55 max 0 min
Histogram: 36 1 1 0 1 0 0 0 0 1

Total # of neighbors = 100
Ave neighs/atom = 0.327869
Neighbor list builds = 991
Dangerous builds = 0
Setting up run at Fri Jan  6 09:32:39 2023

Memory usage per processor = 958.583 Mbytes
    Step    Atoms         KinEng            CPU 
  617282      305   0.0027880123              0 
  740738      304  0.00069191296      1226.5628 
Loop time of 1226.56 on 40 procs for 123456 steps with 304 atoms, finish time Fri Jan  6 09:53:06 2023


Pair  time (%) = 0.24336 (0.0198408)
Neigh time (%) = 0.0785504 (0.0064041)
Comm  time (%) = 0.453163 (0.0369458)
Outpt time (%) = 0.00028912 (2.35716e-05)
Other time (%) = 1225.79 (99.9368)

Nlocal:    7.6 ave 133 max 0 min
Histogram: 36 0 2 0 0 0 0 1 0 1
Nghost:    5 ave 58 max 0 min
Histogram: 36 0 0 0 0 0 1 1 0 2
Neighs:    2.4 ave 54 max 0 min
Histogram: 36 1 1 0 1 0 0 0 0 1

Total # of neighbors = 96
Ave neighs/atom = 0.315789
Neighbor list builds = 445
Dangerous builds = 9
Setting up run at Fri Jan  6 09:53:06 2023

Memory usage per processor = 958.583 Mbytes
    Step    Atoms         KinEng            CPU 
  740738      304  0.00069191296              0 
  864194      303    0.034389503      1229.5938 
Loop time of 1229.59 on 40 procs for 123456 steps with 303 atoms, finish time Fri Jan  6 10:13:35 2023


Pair  time (%) = 0.248447 (0.0202057)
Neigh time (%) = 0.375187 (0.0305131)
Comm  time (%) = 0.940353 (0.0764767)
Outpt time (%) = 0.000247526 (2.01307e-05)
Other time (%) = 1228.03 (99.8728)

Nlocal:    7.575 ave 131 max 0 min
Histogram: 36 0 2 0 0 0 0 1 0 1
Nghost:    5.2 ave 60 max 0 min
Histogram: 36 0 0 0 0 0 1 0 1 2
Neighs:    2.4 ave 54 max 0 min
Histogram: 36 1 1 1 0 0 0 0 0 1

Total # of neighbors = 96
Ave neighs/atom = 0.316832
Neighbor list builds = 2136
Dangerous builds = 1
Setting up run at Fri Jan  6 10:13:36 2023

Memory usage per processor = 958.583 Mbytes
    Step    Atoms         KinEng            CPU 
  864194      303    0.034389503              0 
  987650      302     0.11871726      1233.3673 
Loop time of 1233.37 on 40 procs for 123456 steps with 302 atoms, finish time Fri Jan  6 10:34:09 2023


Pair  time (%) = 0.248153 (0.02012)
Neigh time (%) = 0.30362 (0.0246171)
Comm  time (%) = 0.832966 (0.0675359)
Outpt time (%) = 0.0215005 (0.00174324)
Other time (%) = 1231.96 (99.886)

Nlocal:    7.55 ave 132 max 0 min
Histogram: 36 1 1 0 0 0 0 1 0 1
Nghost:    5.3 ave 61 max 0 min
Histogram: 36 0 0 0 0 0 1 0 1 2
Neighs:    2.375 ave 56 max 0 min
Histogram: 36 2 0 1 0 0 0 0 0 1

Total # of neighbors = 95
Ave neighs/atom = 0.31457
Neighbor list builds = 1718
Dangerous builds = 1
Setting up run at Fri Jan  6 10:34:09 2023

Memory usage per processor = 958.583 Mbytes
    Step    Atoms         KinEng            CPU 
  987650      302     0.11871726              0 
 1111106      300     0.11996152      1240.0973 
Loop time of 1240.1 on 40 procs for 123456 steps with 300 atoms, finish time Fri Jan  6 10:54:49 2023


Pair  time (%) = 0.248449 (0.0200347)
Neigh time (%) = 0.34438 (0.0277704)
Comm  time (%) = 0.836606 (0.0674629)
Outpt time (%) = 0.000304916 (2.45881e-05)
Other time (%) = 1238.67 (99.8847)

Nlocal:    7.5 ave 129 max 0 min
Histogram: 36 1 1 0 0 0 0 1 0 1
Nghost:    5.35 ave 59 max 0 min
Histogram: 36 0 0 0 0 0 0 1 0 3
Neighs:    2.4 ave 57 max 0 min
Histogram: 36 2 0 1 0 0 0 0 0 1

Total # of neighbors = 96
Ave neighs/atom = 0.32
Neighbor list builds = 1952
Dangerous builds = 3
Setting up run at Fri Jan  6 10:54:49 2023

Memory usage per processor = 958.583 Mbytes
    Step    Atoms         KinEng            CPU 
 1111106      300     0.11996152              0 
 1234562      299     0.15577455      1235.3215 
Loop time of 1235.32 on 40 procs for 123456 steps with 299 atoms, finish time Fri Jan  6 11:15:25 2023


Pair  time (%) = 0.248722 (0.0201342)
Neigh time (%) = 0.385805 (0.0312311)
Comm  time (%) = 1.38704 (0.112282)
Outpt time (%) = 0.000269624 (2.18263e-05)
Other time (%) = 1233.3 (99.8363)

Nlocal:    7.475 ave 128 max 0 min
Histogram: 36 1 1 0 0 0 0 0 1 1
Nghost:    5.375 ave 56 max 0 min
Histogram: 36 0 0 0 0 0 0 1 0 3
Neighs:    2.425 ave 58 max 0 min
Histogram: 36 2 0 1 0 0 0 0 0 1

Total # of neighbors = 97
Ave neighs/atom = 0.324415
Neighbor list builds = 2225
Dangerous builds = 1
Setting up run at Fri Jan  6 11:15:25 2023

Memory usage per processor = 958.583 Mbytes
    Step    Atoms         KinEng            CPU 
 1234562      299     0.15577455              0 
 1358018      299     0.14894501      1232.5503 
Loop time of 1232.55 on 40 procs for 123456 steps with 299 atoms, finish time Fri Jan  6 11:35:57 2023


Pair  time (%) = 0.246905 (0.020032)
Neigh time (%) = 0.36741 (0.0298089)
Comm  time (%) = 1.35971 (0.110317)
Outpt time (%) = 0.000625718 (5.07662e-05)
Other time (%) = 1230.58 (99.8398)

Nlocal:    7.475 ave 123 max 0 min
Histogram: 36 0 2 0 0 0 0 0 1 1
Nghost:    5.2 ave 59 max 0 min
Histogram: 36 0 0 0 0 0 0 1 2 1
Neighs:    2.5 ave 60 max 0 min
Histogram: 36 2 0 1 0 0 0 0 0 1

Total # of neighbors = 100
Ave neighs/atom = 0.334448
Neighbor list builds = 2087
Dangerous builds = 0
Setting up run at Fri Jan  6 11:35:57 2023

Memory usage per processor = 958.583 Mbytes
    Step    Atoms         KinEng            CPU 
 1358018      299     0.14894501              0 
 1481474      299     0.13523312      1231.8196 
Loop time of 1231.82 on 40 procs for 123456 steps with 299 atoms, finish time Fri Jan  6 11:56:29 2023


Pair  time (%) = 0.247211 (0.0200688)
Neigh time (%) = 0.34227 (0.0277857)
Comm  time (%) = 1.40446 (0.114015)
Outpt time (%) = 0.000329701 (2.67654e-05)
Other time (%) = 1229.83 (99.8381)

Nlocal:    7.475 ave 120 max 0 min
Histogram: 36 0 2 0 0 0 0 0 1 1
Nghost:    5.35 ave 61 max 0 min
Histogram: 36 0 0 0 0 0 0 1 1 2
Neighs:    2.6 ave 60 max 0 min
Histogram: 36 1 1 1 0 0 0 0 0 1

Total # of neighbors = 104
Ave neighs/atom = 0.347826
Neighbor list builds = 1949
Dangerous builds = 0
Setting up run at Fri Jan  6 11:56:29 2023

Memory usage per processor = 958.583 Mbytes
    Step    Atoms         KinEng            CPU 
 1481474      299     0.13523312              0 
 1604930      297      0.1202175      1274.7404 
Loop time of 1274.74 on 40 procs for 123456 steps with 297 atoms, finish time Fri Jan  6 12:17:44 2023


Pair  time (%) = 0.24673 (0.0193553)
Neigh time (%) = 0.417351 (0.0327401)
Comm  time (%) = 1.38921 (0.108979)
Outpt time (%) = 0.000350568 (2.75011e-05)
Other time (%) = 1272.69 (99.8389)

Nlocal:    7.425 ave 119 max 0 min
Histogram: 36 0 1 1 0 0 0 0 1 1
Nghost:    5.325 ave 62 max 0 min
Histogram: 36 0 0 0 0 0 1 0 1 2
Neighs:    2.65 ave 59 max 0 min
Histogram: 36 1 1 1 0 0 0 0 0 1

Total # of neighbors = 106
Ave neighs/atom = 0.356902
Neighbor list builds = 2389
Dangerous builds = 50
Setting up run at Fri Jan  6 12:17:44 2023

Memory usage per processor = 958.583 Mbytes
    Step    Atoms         KinEng            CPU 
 1604930      297      0.1202175              0 
 1728386      296     0.15903797      1352.1565 
Loop time of 1352.16 on 40 procs for 123456 steps with 296 atoms, finish time Fri Jan  6 12:40:16 2023


Pair  time (%) = 0.246671 (0.0182428)
Neigh time (%) = 0.453149 (0.0335131)
Comm  time (%) = 1.61035 (0.119095)
Outpt time (%) = 0.000684197 (5.06004e-05)
Other time (%) = 1349.85 (99.8291)

Nlocal:    7.4 ave 116 max 0 min
Histogram: 36 0 1 1 0 0 0 0 1 1
Nghost:    5.275 ave 62 max 0 min
Histogram: 36 0 0 0 0 0 1 1 0 2
Neighs:    2.725 ave 56 max 0 min
Histogram: 36 1 0 1 1 0 0 0 0 1

Total # of neighbors = 109
Ave neighs/atom = 0.368243
Neighbor list builds = 2642
Dangerous builds = 166
Setting up run at Fri Jan  6 12:40:16 2023

Memory usage per processor = 958.583 Mbytes
    Step    Atoms         KinEng            CPU 
 1728386      296     0.15903797              0 
 1851842      294    0.017862911      1272.4632 
Loop time of 1272.46 on 40 procs for 123456 steps with 294 atoms, finish time Fri Jan  6 13:01:29 2023


Pair  time (%) = 0.246473 (0.0193698)
Neigh time (%) = 0.54556 (0.0428743)
Comm  time (%) = 1.95081 (0.15331)
Outpt time (%) = 0.00029838 (2.3449e-05)
Other time (%) = 1269.72 (99.7844)

Nlocal:    7.35 ave 113 max 0 min
Histogram: 36 0 0 2 0 0 0 0 1 1
Nghost:    5.35 ave 66 max 0 min
Histogram: 36 0 0 0 0 0 2 0 1 1
Neighs:    2.6 ave 50 max 0 min
Histogram: 36 1 0 0 2 0 0 0 0 1

Total # of neighbors = 104
Ave neighs/atom = 0.353741
Neighbor list builds = 3231
Dangerous builds = 323
Setting up run at Fri Jan  6 13:01:29 2023

Memory usage per processor = 958.583 Mbytes
    Step    Atoms         KinEng            CPU 
 1851842      294    0.017862911              0 
 1975298      291    0.076436887      1262.2464 
Loop time of 1262.25 on 40 procs for 123456 steps with 291 atoms, finish time Fri Jan  6 13:22:31 2023


Pair  time (%) = 0.247279 (0.0195904)
Neigh time (%) = 0.56781 (0.044984)
Comm  time (%) = 1.93404 (0.153222)
Outpt time (%) = 0.000266577 (2.11192e-05)
Other time (%) = 1259.5 (99.7822)

Nlocal:    7.275 ave 110 max 0 min
Histogram: 36 0 0 2 0 0 0 0 1 1
Nghost:    5.05 ave 63 max 0 min
Histogram: 36 0 0 0 0 0 2 0 1 1
Neighs:    2.525 ave 51 max 0 min
Histogram: 36 1 0 0 2 0 0 0 0 1

Total # of neighbors = 101
Ave neighs/atom = 0.347079
Neighbor list builds = 3277
Dangerous builds = 3
Setting up run at Fri Jan  6 13:22:31 2023

Memory usage per processor = 958.583 Mbytes
    Step    Atoms         KinEng            CPU 
 1975298      291    0.076436887              0 
 2098754      287   0.0072273424      1518.6977 
Loop time of 1518.7 on 40 procs for 123456 steps with 287 atoms, finish time Fri Jan  6 13:47:50 2023


Pair  time (%) = 0.244835 (0.0161213)
Neigh time (%) = 0.330226 (0.021744)
Comm  time (%) = 1.1248 (0.0740638)
Outpt time (%) = 0.000584292 (3.84732e-05)
Other time (%) = 1517 (99.888)

Nlocal:    7.175 ave 109 max 0 min
Histogram: 36 0 0 2 0 0 0 0 1 1
Nghost:    5.025 ave 67 max 0 min
Histogram: 36 0 0 0 0 0 2 1 0 1
Neighs:    2.775 ave 54 max 0 min
Histogram: 36 1 0 1 0 1 0 0 0 1

Total # of neighbors = 111
Ave neighs/atom = 0.38676
Neighbor list builds = 1909
Dangerous builds = 106
Setting up run at Fri Jan  6 13:47:50 2023

Memory usage per processor = 958.583 Mbytes
    Step    Atoms         KinEng            CPU 
 2098754      287   0.0072273424              0 
 2222210      286   0.0026406459      1251.2941 
Loop time of 1251.29 on 40 procs for 123456 steps with 286 atoms, finish time Fri Jan  6 14:08:41 2023


Pair  time (%) = 0.240557 (0.0192247)
Neigh time (%) = 0.0819521 (0.00654938)
Comm  time (%) = 0.533494 (0.0426354)
Outpt time (%) = 0.000300061 (2.398e-05)
Other time (%) = 1250.44 (99.9316)

Nlocal:    7.15 ave 109 max 0 min
Histogram: 36 0 1 1 0 0 0 0 1 1
Nghost:    5.025 ave 66 max 0 min
Histogram: 36 0 0 0 0 0 2 1 0 1
Neighs:    2.675 ave 54 max 0 min
Histogram: 36 1 0 1 0 1 0 0 0 1

Total # of neighbors = 107
Ave neighs/atom = 0.374126
Neighbor list builds = 457
Dangerous builds = 0
Setting up run at Fri Jan  6 14:08:41 2023

Memory usage per processor = 958.583 Mbytes
    Step    Atoms         KinEng            CPU 
 2222210      286   0.0026406459              0 
 2345666      284   0.0072289626      1313.6221 
Loop time of 1313.62 on 40 procs for 123456 steps with 284 atoms, finish time Fri Jan  6 14:30:35 2023


Pair  time (%) = 0.241522 (0.0183859)
Neigh time (%) = 0.137247 (0.0104479)
Comm  time (%) = 0.664434 (0.0505803)
Outpt time (%) = 0.000353453 (2.69067e-05)
Other time (%) = 1312.58 (99.9206)

Nlocal:    7.1 ave 107 max 0 min
Histogram: 36 0 0 2 0 0 0 0 1 1
Nghost:    5.075 ave 67 max 0 min
Histogram: 36 0 0 0 0 0 2 1 0 1
Neighs:    2.525 ave 49 max 0 min
Histogram: 36 1 0 0 2 0 0 0 0 1

Total # of neighbors = 101
Ave neighs/atom = 0.355634
Neighbor list builds = 787
Dangerous builds = 43
Setting up run at Fri Jan  6 14:30:35 2023

Memory usage per processor = 958.583 Mbytes
    Step    Atoms         KinEng            CPU 
 2345666      284   0.0072289626              0 
 2469122      283     0.10683687      1273.6898 
Loop time of 1273.69 on 40 procs for 123456 steps with 283 atoms, finish time Fri Jan  6 14:51:49 2023


Pair  time (%) = 0.24516 (0.019248)
Neigh time (%) = 0.316903 (0.0248807)
Comm  time (%) = 1.17307 (0.0920998)
Outpt time (%) = 0.000725152 (5.69331e-05)
Other time (%) = 1271.95 (99.8637)

Nlocal:    7.075 ave 104 max 0 min
Histogram: 36 0 1 1 0 0 0 0 1 1
Nghost:    5.175 ave 68 max 0 min
Histogram: 36 0 0 0 0 1 1 1 0 1
Neighs:    2.475 ave 49 max 0 min
Histogram: 36 1 0 0 2 0 0 0 0 1

Total # of neighbors = 99
Ave neighs/atom = 0.349823
Neighbor list builds = 1776
Dangerous builds = 0
Setting up run at Fri Jan  6 14:51:49 2023

Memory usage per processor = 958.583 Mbytes
    Step    Atoms         KinEng            CPU 
 2469122      283     0.10683687              0 
 2592578      283     0.10377217      1238.6399 
Loop time of 1238.64 on 40 procs for 123456 steps with 283 atoms, finish time Fri Jan  6 15:12:27 2023


Pair  time (%) = 0.244962 (0.0197767)
Neigh time (%) = 0.399731 (0.0322718)
Comm  time (%) = 1.11831 (0.0902852)
Outpt time (%) = 0.000292113 (2.35834e-05)
Other time (%) = 1236.88 (99.8576)

Nlocal:    7.075 ave 105 max 0 min
Histogram: 36 0 1 0 1 0 0 0 1 1
Nghost:    5.1 ave 68 max 0 min
Histogram: 36 0 0 0 0 1 1 1 0 1
Neighs:    2.475 ave 51 max 0 min
Histogram: 36 1 0 1 1 0 0 0 0 1

Total # of neighbors = 99
Ave neighs/atom = 0.349823
Neighbor list builds = 2229
Dangerous builds = 0
Setting up run at Fri Jan  6 15:12:27 2023

Memory usage per processor = 958.583 Mbytes
    Step    Atoms         KinEng            CPU 
 2592578      283     0.10377217              0 
 2716034      282     0.59250794      1255.0001 
Loop time of 1255 on 40 procs for 123456 steps with 282 atoms, finish time Fri Jan  6 15:33:22 2023


Pair  time (%) = 0.25062 (0.0199697)
Neigh time (%) = 0.828507 (0.0660165)
Comm  time (%) = 2.26332 (0.180344)
Outpt time (%) = 0.00237553 (0.000189285)
Other time (%) = 1251.66 (99.7335)

Nlocal:    7.05 ave 107 max 0 min
Histogram: 36 0 1 1 0 0 0 1 0 1
Nghost:    4.95 ave 61 max 0 min
Histogram: 36 0 0 0 0 0 1 1 1 1
Neighs:    2.275 ave 50 max 0 min
Histogram: 36 1 0 2 0 0 0 0 0 1

Total # of neighbors = 91
Ave neighs/atom = 0.322695
Neighbor list builds = 4616
Dangerous builds = 1
Setting up run at Fri Jan  6 15:33:22 2023

Memory usage per processor = 958.583 Mbytes
    Step    Atoms         KinEng            CPU 
 2716034      282     0.59250794              0 
 2839490      279     0.34720387      1261.2436 
Loop time of 1261.24 on 40 procs for 123456 steps with 279 atoms, finish time Fri Jan  6 15:54:24 2023


Pair  time (%) = 0.249033 (0.0197451)
Neigh time (%) = 0.701708 (0.0556362)
Comm  time (%) = 1.68277 (0.133422)
Outpt time (%) = 0.000627406 (4.9745e-05)
Other time (%) = 1258.61 (99.7911)

Nlocal:    6.975 ave 107 max 0 min
Histogram: 36 0 0 2 0 0 0 1 0 1
Nghost:    4.95 ave 58 max 0 min
Histogram: 36 0 0 0 0 0 0 2 1 1
Neighs:    2.3 ave 51 max 0 min
Histogram: 36 1 1 1 0 0 0 0 0 1

Total # of neighbors = 92
Ave neighs/atom = 0.329749
Neighbor list builds = 4022
Dangerous builds = 280
Setting up run at Fri Jan  6 15:54:24 2023

Memory usage per processor = 958.583 Mbytes
    Step    Atoms         KinEng            CPU 
 2839490      279     0.34720387              0 
 2962946      276     0.32729174      1340.1258 
Loop time of 1340.13 on 40 procs for 123456 steps with 276 atoms, finish time Fri Jan  6 16:16:44 2023


Pair  time (%) = 0.250219 (0.0186713)
Neigh time (%) = 0.651211 (0.0485933)
Comm  time (%) = 1.98663 (0.148242)
Outpt time (%) = 0.000282528 (2.10822e-05)
Other time (%) = 1337.24 (99.7845)

Nlocal:    6.9 ave 106 max 0 min
Histogram: 36 0 0 2 0 0 0 1 0 1
Nghost:    4.875 ave 59 max 0 min
Histogram: 36 0 0 0 0 0 1 1 1 1
Neighs:    2.55 ave 57 max 0 min
Histogram: 36 0 2 1 0 0 0 0 0 1

Total # of neighbors = 102
Ave neighs/atom = 0.369565
Neighbor list builds = 3673
Dangerous builds = 2
Setting up run at Fri Jan  6 16:16:44 2023

Memory usage per processor = 958.583 Mbytes
    Step    Atoms         KinEng            CPU 
 2962946      276     0.32729174              0 
 3086402      275     0.45371763       1250.035 
Loop time of 1250.04 on 40 procs for 123456 steps with 275 atoms, finish time Fri Jan  6 16:37:34 2023


Pair  time (%) = 0.247769 (0.0198209)
Neigh time (%) = 0.490144 (0.0392104)
Comm  time (%) = 1.39774 (0.111816)
Outpt time (%) = 0.000290093 (2.32068e-05)
Other time (%) = 1247.9 (99.8291)

Nlocal:    6.875 ave 108 max 0 min
Histogram: 36 0 0 2 0 0 1 0 0 1
Nghost:    4.75 ave 53 max 0 min
Histogram: 36 0 0 0 0 0 0 0 2 2
Neighs:    2.2 ave 44 max 0 min
Histogram: 36 0 2 0 0 1 0 0 0 1

Total # of neighbors = 88
Ave neighs/atom = 0.32
Neighbor list builds = 2740
Dangerous builds = 1
Setting up run at Fri Jan  6 16:37:34 2023

Memory usage per processor = 958.583 Mbytes
    Step    Atoms         KinEng            CPU 
 3086402      275     0.45371763              0 
 3209858      272     0.14586996      1255.4624 
Loop time of 1255.46 on 40 procs for 123456 steps with 272 atoms, finish time Fri Jan  6 16:58:30 2023


Pair  time (%) = 0.250482 (0.0199514)
Neigh time (%) = 0.56398 (0.0449221)
Comm  time (%) = 1.70134 (0.135515)
Outpt time (%) = 0.000660265 (5.25914e-05)
Other time (%) = 1252.95 (99.7996)

Nlocal:    6.8 ave 101 max 0 min
Histogram: 36 0 0 2 0 0 0 1 0 1
Nghost:    4.75 ave 59 max 0 min
Histogram: 36 0 0 0 0 0 0 3 0 1
Neighs:    2.3 ave 44 max 0 min
Histogram: 36 1 0 1 0 1 0 0 0 1

Total # of neighbors = 92
Ave neighs/atom = 0.338235
Neighbor list builds = 3212
Dangerous builds = 187
Setting up run at Fri Jan  6 16:58:30 2023

Memory usage per processor = 958.583 Mbytes
    Step    Atoms         KinEng            CPU 
 3209858      272     0.14586996              0 
 3333314      266     0.24693232      1391.8705 
Loop time of 1391.87 on 40 procs for 123456 steps with 266 atoms, finish time Fri Jan  6 17:21:41 2023


Pair  time (%) = 0.251525 (0.018071)
Neigh time (%) = 0.809869 (0.0581856)
Comm  time (%) = 2.01527 (0.144789)
Outpt time (%) = 0.000290339 (2.08596e-05)
Other time (%) = 1388.79 (99.7789)

Nlocal:    6.65 ave 99 max 0 min
Histogram: 36 0 0 1 1 0 0 1 0 1
Nghost:    4.725 ave 59 max 0 min
Histogram: 36 0 0 0 0 0 2 1 0 1
Neighs:    1.975 ave 36 max 0 min
Histogram: 36 1 0 0 1 1 0 0 0 1

Total # of neighbors = 79
Ave neighs/atom = 0.296992
Neighbor list builds = 4512
Dangerous builds = 5
Setting up run at Fri Jan  6 17:21:42 2023

Memory usage per processor = 958.583 Mbytes
    Step    Atoms         KinEng            CPU 
 3333314      266     0.24693232              0 
 3456770      266     0.49198543      1293.2795 
Loop time of 1293.28 on 40 procs for 123456 steps with 266 atoms, finish time Fri Jan  6 17:43:15 2023


Pair  time (%) = 0.247865 (0.0191656)
Neigh time (%) = 0.677029 (0.0523498)
Comm  time (%) = 1.74504 (0.134932)
Outpt time (%) = 0.00030293 (2.34234e-05)
Other time (%) = 1290.61 (99.7935)

Nlocal:    6.65 ave 96 max 0 min
Histogram: 36 0 0 1 1 0 0 1 0 1
Nghost:    4.575 ave 60 max 0 min
Histogram: 36 0 0 0 0 0 2 1 0 1
Neighs:    2 ave 29 max 0 min
Histogram: 36 0 0 1 0 0 0 2 0 1

Total # of neighbors = 80
Ave neighs/atom = 0.300752
Neighbor list builds = 3749
Dangerous builds = 0
Setting up run at Fri Jan  6 17:43:15 2023

Memory usage per processor = 958.583 Mbytes
    Step    Atoms         KinEng            CPU 
 3456770      266     0.49198543              0 
 3580226      261     0.27051534      1236.5354 
Loop time of 1236.54 on 40 procs for 123456 steps with 261 atoms, finish time Fri Jan  6 18:03:51 2023


Pair  time (%) = 0.247568 (0.0200211)
Neigh time (%) = 0.65532 (0.0529964)
Comm  time (%) = 1.45208 (0.117431)
Outpt time (%) = 0.000557133 (4.5056e-05)
Other time (%) = 1234.18 (99.8095)

Nlocal:    6.525 ave 93 max 0 min
Histogram: 36 0 0 1 1 0 0 1 0 1
Nghost:    4.5 ave 61 max 0 min
Histogram: 36 0 0 0 0 1 2 0 0 1
Neighs:    2 ave 31 max 0 min
Histogram: 36 0 1 0 0 0 2 0 0 1

Total # of neighbors = 80
Ave neighs/atom = 0.306513
Neighbor list builds = 3664
Dangerous builds = 58
Setting up run at Fri Jan  6 18:03:54 2023

Memory usage per processor = 958.583 Mbytes
    Step    Atoms         KinEng            CPU 
 3580226      261     0.27051534              0 
 3703682      253     0.19388567       1315.323 
Loop time of 1315.32 on 40 procs for 123456 steps with 253 atoms, finish time Fri Jan  6 18:25:49 2023


Pair  time (%) = 0.249506 (0.0189692)
Neigh time (%) = 0.733363 (0.0557554)
Comm  time (%) = 1.66328 (0.126454)
Outpt time (%) = 0.000261669 (1.98939e-05)
Other time (%) = 1312.68 (99.7988)

Nlocal:    6.325 ave 91 max 0 min
Histogram: 36 0 0 1 1 0 0 1 0 1
Nghost:    4.4 ave 60 max 0 min
Histogram: 36 0 0 0 0 1 2 0 0 1
Neighs:    2.225 ave 37 max 0 min
Histogram: 36 0 1 0 0 2 0 0 0 1

Total # of neighbors = 89
Ave neighs/atom = 0.351779
Neighbor list builds = 4345
Dangerous builds = 363
Setting up run at Fri Jan  6 18:25:49 2023

Memory usage per processor = 958.583 Mbytes
    Step    Atoms         KinEng            CPU 
 3703682      253     0.19388567              0 
 3827138      252     0.17175899      1242.3608 
Loop time of 1242.36 on 40 procs for 123456 steps with 252 atoms, finish time Fri Jan  6 18:46:32 2023


Pair  time (%) = 0.248042 (0.0199653)
Neigh time (%) = 0.699423 (0.0562979)
Comm  time (%) = 1.46256 (0.117724)
Outpt time (%) = 0.000349471 (2.81296e-05)
Other time (%) = 1239.95 (99.806)

Nlocal:    6.3 ave 88 max 0 min
Histogram: 36 0 0 1 0 1 0 0 1 1
Nghost:    4.35 ave 62 max 0 min
Histogram: 36 0 0 0 0 2 1 0 0 1
Neighs:    2 ave 28 max 0 min
Histogram: 36 0 0 1 0 0 1 0 1 1

Total # of neighbors = 80
Ave neighs/atom = 0.31746
Neighbor list builds = 3913
Dangerous builds = 0
Setting up run at Fri Jan  6 18:46:32 2023

Memory usage per processor = 958.583 Mbytes
    Step    Atoms         KinEng            CPU 
 3827138      252     0.17175899              0 
 3950594      252     0.15254458      1238.3744 
Loop time of 1238.37 on 40 procs for 123456 steps with 252 atoms, finish time Fri Jan  6 19:07:10 2023


Pair  time (%) = 0.246363 (0.019894)
Neigh time (%) = 0.500101 (0.0403836)
Comm  time (%) = 1.1819 (0.09544)
Outpt time (%) = 0.00450729 (0.000363968)
Other time (%) = 1236.44 (99.8439)

Nlocal:    6.3 ave 88 max 0 min
Histogram: 36 0 0 0 1 1 0 1 0 1
Nghost:    4.475 ave 60 max 0 min
Histogram: 36 0 0 0 0 1 2 0 0 1
Neighs:    1.8 ave 26 max 0 min
Histogram: 36 0 0 1 0 1 0 0 1 1

Total # of neighbors = 72
Ave neighs/atom = 0.285714
Neighbor list builds = 2761
Dangerous builds = 0
Setting up run at Fri Jan  6 19:07:10 2023

Memory usage per processor = 958.583 Mbytes
    Step    Atoms         KinEng            CPU 
 3950594      252     0.15254458              0 
 4074050      251     0.25163453      1233.2263 
Loop time of 1233.23 on 40 procs for 123456 steps with 251 atoms, finish time Fri Jan  6 19:27:44 2023


Pair  time (%) = 0.247568 (0.0200748)
Neigh time (%) = 0.567356 (0.0460058)
Comm  time (%) = 1.30941 (0.106177)
Outpt time (%) = 9.73928e-05 (7.8974e-06)
Other time (%) = 1231.1 (99.8277)

Nlocal:    6.275 ave 90 max 0 min
Histogram: 36 0 0 1 1 0 0 1 0 1
Nghost:    4.4 ave 53 max 0 min
Histogram: 36 0 0 0 0 0 1 1 1 1
Neighs:    1.65 ave 25 max 0 min
Histogram: 36 0 1 0 0 0 1 1 0 1

Total # of neighbors = 66
Ave neighs/atom = 0.262948
Neighbor list builds = 3183
Dangerous builds = 1
Setting up run at Fri Jan  6 19:27:44 2023

Memory usage per processor = 958.583 Mbytes
    Step    Atoms         KinEng            CPU 
 4074050      251     0.25163453              0 
 4197506      250     0.21922767      1240.8437 
Loop time of 1240.84 on 40 procs for 123456 steps with 250 atoms, finish time Fri Jan  6 19:48:24 2023


Pair  time (%) = 0.250319 (0.0201733)
Neigh time (%) = 0.616674 (0.0496979)
Comm  time (%) = 1.39954 (0.112789)
Outpt time (%) = 0.000220268 (1.77515e-05)
Other time (%) = 1238.58 (99.8173)

Nlocal:    6.25 ave 89 max 0 min
Histogram: 36 0 0 1 1 0 0 1 0 1
Nghost:    4.45 ave 52 max 0 min
Histogram: 36 0 0 0 0 0 0 2 1 1
Neighs:    1.75 ave 31 max 0 min
Histogram: 36 0 1 0 1 1 0 0 0 1

Total # of neighbors = 70
Ave neighs/atom = 0.28
Neighbor list builds = 3421
Dangerous builds = 1
Setting up run at Fri Jan  6 19:48:25 2023

Memory usage per processor = 958.583 Mbytes
    Step    Atoms         KinEng            CPU 
 4197506      250     0.21922767              0 
 4320962      248     0.26430328      1241.4578 
Loop time of 1241.46 on 40 procs for 123456 steps with 248 atoms, finish time Fri Jan  6 20:09:06 2023


Pair  time (%) = 0.245566 (0.0197805)
Neigh time (%) = 0.605297 (0.0487569)
Comm  time (%) = 1.88702 (0.152001)
Outpt time (%) = 0.000605638 (4.87844e-05)
Other time (%) = 1238.72 (99.7794)

Nlocal:    6.2 ave 85 max 0 min
Histogram: 36 0 0 1 1 0 0 0 1 1
Nghost:    4.375 ave 53 max 0 min
Histogram: 36 0 0 0 0 0 1 1 1 1
Neighs:    1.85 ave 29 max 0 min
Histogram: 36 0 0 1 0 1 1 0 0 1

Total # of neighbors = 74
Ave neighs/atom = 0.298387
Neighbor list builds = 3436
Dangerous builds = 2
Setting up run at Fri Jan  6 20:09:06 2023

Memory usage per processor = 958.583 Mbytes
    Step    Atoms         KinEng            CPU 
 4320962      248     0.26430328              0 
 4444418      245     0.90003017      1256.7953 
Loop time of 1256.8 on 40 procs for 123456 steps with 245 atoms, finish time Fri Jan  6 20:30:03 2023


Pair  time (%) = 0.255168 (0.020303)
Neigh time (%) = 0.891026 (0.0708967)
Comm  time (%) = 2.02868 (0.161417)
Outpt time (%) = 0.00066126 (5.26148e-05)
Other time (%) = 1253.62 (99.7473)

Nlocal:    6.125 ave 85 max 0 min
Histogram: 36 0 0 1 1 0 0 0 1 1
Nghost:    4.2 ave 51 max 0 min
Histogram: 36 0 0 0 0 0 0 3 0 1
Neighs:    1.7 ave 29 max 0 min
Histogram: 36 0 1 0 1 0 1 0 0 1

Total # of neighbors = 68
Ave neighs/atom = 0.277551
Neighbor list builds = 4994
Dangerous builds = 2
Setting up run at Fri Jan  6 20:30:03 2023

Memory usage per processor = 958.583 Mbytes
    Step    Atoms         KinEng            CPU 
 4444418      245     0.90003017              0 
 4567874      242     0.48542166      1247.0098 
Loop time of 1247.01 on 40 procs for 123456 steps with 242 atoms, finish time Fri Jan  6 20:50:50 2023


Pair  time (%) = 0.253021 (0.0202902)
Neigh time (%) = 0.761583 (0.0610727)
Comm  time (%) = 1.85887 (0.149066)
Outpt time (%) = 0.000243668 (1.95402e-05)
Other time (%) = 1244.14 (99.7696)

Nlocal:    6.05 ave 85 max 0 min
Histogram: 35 1 0 2 0 0 0 0 1 1
Nghost:    4.075 ave 47 max 0 min
Histogram: 36 0 0 0 0 0 0 1 2 1
Neighs:    1.65 ave 32 max 0 min
Histogram: 36 0 1 1 0 1 0 0 0 1

Total # of neighbors = 66
Ave neighs/atom = 0.272727
Neighbor list builds = 4271
Dangerous builds = 4
Setting up run at Fri Jan  6 20:50:50 2023

Memory usage per processor = 958.583 Mbytes
    Step    Atoms         KinEng            CPU 
 4567874      242     0.48542166              0 
 4691330      240     0.48345263      1236.7737 
Loop time of 1236.77 on 40 procs for 123456 steps with 240 atoms, finish time Fri Jan  6 21:11:27 2023


Pair  time (%) = 0.249996 (0.0202136)
Neigh time (%) = 0.63748 (0.0515438)
Comm  time (%) = 1.62292 (0.131222)
Outpt time (%) = 0.000255488 (2.06576e-05)
Other time (%) = 1234.26 (99.797)

Nlocal:    6 ave 86 max 0 min
Histogram: 35 1 0 2 0 0 0 0 1 1
Nghost:    3.975 ave 41 max 0 min
Histogram: 36 0 0 0 0 0 0 0 0 4
Neighs:    1.55 ave 31 max 0 min
Histogram: 36 1 0 1 1 0 0 0 0 1

Total # of neighbors = 62
Ave neighs/atom = 0.258333
Neighbor list builds = 3539
Dangerous builds = 41
Setting up run at Fri Jan  6 21:11:27 2023

Memory usage per processor = 958.583 Mbytes
    Step    Atoms         KinEng            CPU 
 4691330      240     0.48345263              0 
 4814786      236     0.39120836      1269.0954 
Loop time of 1269.1 on 40 procs for 123456 steps with 236 atoms, finish time Fri Jan  6 21:32:36 2023


Pair  time (%) = 0.251955 (0.0198532)
Neigh time (%) = 0.627815 (0.0494695)
Comm  time (%) = 1.62408 (0.127971)
Outpt time (%) = 0.000550798 (4.34008e-05)
Other time (%) = 1266.59 (99.8027)

Nlocal:    5.9 ave 84 max 0 min
Histogram: 35 1 0 2 0 0 0 0 1 1
Nghost:    4.05 ave 44 max 0 min
Histogram: 36 0 0 0 0 0 0 0 2 2
Neighs:    1.575 ave 30 max 0 min
Histogram: 36 0 1 1 0 1 0 0 0 1

Total # of neighbors = 63
Ave neighs/atom = 0.266949
Neighbor list builds = 3504
Dangerous builds = 3
Setting up run at Fri Jan  6 21:32:36 2023

Memory usage per processor = 958.583 Mbytes
    Step    Atoms         KinEng            CPU 
 4814786      236     0.39120836              0 
 4938242      235     0.36346778       1273.172 
Loop time of 1273.17 on 40 procs for 123456 steps with 235 atoms, finish time Fri Jan  6 21:53:49 2023


Pair  time (%) = 0.249948 (0.0196319)
Neigh time (%) = 0.613811 (0.0482111)
Comm  time (%) = 1.61275 (0.126671)
Outpt time (%) = 0.000259788 (2.04048e-05)
Other time (%) = 1270.7 (99.8055)

Nlocal:    5.875 ave 83 max 0 min
Histogram: 36 0 0 2 0 0 0 0 1 1
Nghost:    4.05 ave 42 max 0 min
Histogram: 36 0 0 0 0 0 0 0 1 3
Neighs:    1.75 ave 34 max 0 min
Histogram: 36 0 1 1 1 0 0 0 0 1

Total # of neighbors = 70
Ave neighs/atom = 0.297872
Neighbor list builds = 3393
Dangerous builds = 1
Setting up run at Fri Jan  6 21:53:49 2023

Memory usage per processor = 958.583 Mbytes
    Step    Atoms         KinEng            CPU 
 4938242      235     0.36346778              0 
 5061698      231     0.58420502      1256.2999 
Loop time of 1256.3 on 40 procs for 123456 steps with 231 atoms, finish time Fri Jan  6 22:14:46 2023


Pair  time (%) = 0.24937 (0.0198495)
Neigh time (%) = 0.714255 (0.0568538)
Comm  time (%) = 1.77228 (0.141071)
Outpt time (%) = 0.000253705 (2.01946e-05)
Other time (%) = 1253.56 (99.7822)

Nlocal:    5.775 ave 82 max 0 min
Histogram: 36 0 0 2 0 0 0 0 1 1
Nghost:    3.95 ave 42 max 0 min
Histogram: 36 0 0 0 0 0 0 0 2 2
Neighs:    1.725 ave 31 max 0 min
Histogram: 36 0 0 2 0 1 0 0 0 1

Total # of neighbors = 69
Ave neighs/atom = 0.298701
Neighbor list builds = 4036
Dangerous builds = 228
Setting up run at Fri Jan  6 22:14:46 2023

Memory usage per processor = 958.583 Mbytes
    Step    Atoms         KinEng            CPU 
 5061698      231     0.58420502              0 
 5185154      230     0.47939251       1275.635 
Loop time of 1275.64 on 40 procs for 123456 steps with 230 atoms, finish time Fri Jan  6 22:36:01 2023


Pair  time (%) = 0.250905 (0.019669)
Neigh time (%) = 0.983641 (0.0771099)
Comm  time (%) = 2.06032 (0.161513)
Outpt time (%) = 0.000605635 (4.74772e-05)
Other time (%) = 1272.34 (99.7417)

Nlocal:    5.75 ave 82 max 0 min
Histogram: 36 0 0 2 0 0 0 0 1 1
Nghost:    3.725 ave 41 max 0 min
Histogram: 36 0 0 0 0 0 0 0 2 2
Neighs:    1.325 ave 21 max 0 min
Histogram: 36 0 0 0 2 0 1 0 0 1

Total # of neighbors = 53
Ave neighs/atom = 0.230435
Neighbor list builds = 5422
Dangerous builds = 1
Setting up run at Fri Jan  6 22:36:01 2023

Memory usage per processor = 958.583 Mbytes
    Step    Atoms         KinEng            CPU 
 5185154      230     0.47939251              0 
 5308610      222     0.85961139      1312.4104 
Loop time of 1312.41 on 40 procs for 123456 steps with 222 atoms, finish time Fri Jan  6 22:57:54 2023


Pair  time (%) = 0.246458 (0.018779)
Neigh time (%) = 0.855633 (0.0651954)
Comm  time (%) = 2.08581 (0.15893)
Outpt time (%) = 0.000324115 (2.46962e-05)
Other time (%) = 1309.22 (99.7571)

Nlocal:    5.55 ave 80 max 0 min
Histogram: 36 0 0 2 0 0 0 0 1 1
Nghost:    3.6 ave 39 max 0 min
Histogram: 36 0 0 0 0 0 0 1 1 2
Neighs:    1.15 ave 18 max 0 min
Histogram: 36 0 0 1 1 0 0 1 0 1

Total # of neighbors = 46
Ave neighs/atom = 0.207207
Neighbor list builds = 4740
Dangerous builds = 12
Setting up run at Fri Jan  6 22:57:54 2023

Memory usage per processor = 958.583 Mbytes
    Step    Atoms         KinEng            CPU 
 5308610      222     0.85961139              0 
 5432066      218     0.30177177      1252.7982 
Loop time of 1252.8 on 40 procs for 123456 steps with 218 atoms, finish time Fri Jan  6 23:18:47 2023


Pair  time (%) = 0.24461 (0.0195251)
Neigh time (%) = 0.699165 (0.0558083)
Comm  time (%) = 1.61007 (0.128518)
Outpt time (%) = 0.000289363 (2.30974e-05)
Other time (%) = 1250.24 (99.7961)

Nlocal:    5.45 ave 78 max 0 min
Histogram: 36 0 1 1 0 0 0 0 1 1
Nghost:    3.475 ave 37 max 0 min
Histogram: 36 0 0 0 0 0 0 0 2 2
Neighs:    1.25 ave 21 max 0 min
Histogram: 36 0 0 2 0 0 0 1 0 1

Total # of neighbors = 50
Ave neighs/atom = 0.229358
Neighbor list builds = 3892
Dangerous builds = 2
Setting up run at Fri Jan  6 23:18:47 2023

Memory usage per processor = 958.583 Mbytes
    Step    Atoms         KinEng            CPU 
 5432066      218     0.30177177              0 
 5555522      216     0.36303942       1246.545 
Loop time of 1246.54 on 40 procs for 123456 steps with 216 atoms, finish time Fri Jan  6 23:39:33 2023


Pair  time (%) = 0.247257 (0.0198354)
Neigh time (%) = 0.925864 (0.0742744)
Comm  time (%) = 2.20358 (0.176775)
Outpt time (%) = 0.000574334 (4.6074e-05)
Other time (%) = 1243.17 (99.7291)

Nlocal:    5.4 ave 77 max 0 min
Histogram: 35 1 1 0 1 0 0 0 1 1
Nghost:    3.275 ave 36 max 0 min
Histogram: 36 0 0 0 0 0 0 1 1 2
Neighs:    1.125 ave 17 max 0 min
Histogram: 36 0 0 2 0 0 0 0 0 2

Total # of neighbors = 45
Ave neighs/atom = 0.208333
Neighbor list builds = 5351
Dangerous builds = 519
Setting up run at Fri Jan  6 23:39:33 2023

Memory usage per processor = 958.583 Mbytes
    Step    Atoms         KinEng            CPU 
 5555522      216     0.36303942              0 
 5678978      216     0.38795734      1240.4969 
Loop time of 1240.5 on 40 procs for 123456 steps with 216 atoms, finish time Sat Jan  7 00:00:14 2023


Pair  time (%) = 0.243893 (0.0196609)
Neigh time (%) = 0.656094 (0.0528896)
Comm  time (%) = 1.62642 (0.13111)
Outpt time (%) = 0.000279179 (2.25054e-05)
Other time (%) = 1237.97 (99.7963)

Nlocal:    5.4 ave 77 max 0 min
Histogram: 35 1 1 0 1 0 0 0 1 1
Nghost:    3.2 ave 34 max 0 min
Histogram: 36 0 0 0 0 0 0 0 2 2
Neighs:    1.1 ave 16 max 0 min
Histogram: 36 0 0 1 1 0 0 0 0 2

Total # of neighbors = 44
Ave neighs/atom = 0.203704
Neighbor list builds = 3581
Dangerous builds = 0
Setting up run at Sat Jan  7 00:00:14 2023

Memory usage per processor = 958.583 Mbytes
    Step    Atoms         KinEng            CPU 
 5678978      216     0.38795734              0 
 5802434      215     0.30931013      1237.4267 
Loop time of 1237.43 on 40 procs for 123456 steps with 215 atoms, finish time Sat Jan  7 00:20:51 2023


Pair  time (%) = 0.243379 (0.0196681)
Neigh time (%) = 0.663043 (0.0535824)
Comm  time (%) = 1.60094 (0.129377)
Outpt time (%) = 0.0025462 (0.000205766)
Other time (%) = 1234.92 (99.7972)

Nlocal:    5.375 ave 78 max 0 min
Histogram: 36 0 1 0 1 0 0 1 0 1
Nghost:    2.925 ave 32 max 0 min
Histogram: 36 0 0 0 0 0 0 1 1 2
Neighs:    1.275 ave 20 max 0 min
Histogram: 36 0 1 0 1 0 0 0 1 1

Total # of neighbors = 51
Ave neighs/atom = 0.237209
Neighbor list builds = 3614
Dangerous builds = 6
Setting up run at Sat Jan  7 00:20:51 2023

Memory usage per processor = 958.583 Mbytes
    Step    Atoms         KinEng            CPU 
 5802434      215     0.30931013              0 
 5925890      210     0.65144864      1240.1335 
Loop time of 1240.13 on 40 procs for 123456 steps with 210 atoms, finish time Sat Jan  7 00:41:31 2023


Pair  time (%) = 0.246685 (0.0198918)
Neigh time (%) = 0.932304 (0.0751777)
Comm  time (%) = 2.09655 (0.169058)
Outpt time (%) = 0.000606533 (4.89087e-05)
Other time (%) = 1236.86 (99.7358)

Nlocal:    5.25 ave 77 max 0 min
Histogram: 36 0 1 1 0 0 0 1 0 1
Nghost:    2.975 ave 33 max 0 min
Histogram: 36 0 0 0 0 0 0 1 2 1
Neighs:    1.225 ave 17 max 0 min
Histogram: 36 0 1 0 0 1 0 0 0 2

Total # of neighbors = 49
Ave neighs/atom = 0.233333
Neighbor list builds = 5262
Dangerous builds = 249
Setting up run at Sat Jan  7 00:41:31 2023

Memory usage per processor = 958.583 Mbytes
    Step    Atoms         KinEng            CPU 
 5925890      210     0.65144864              0 
 6049346      208     0.33088966       1228.714 
Loop time of 1228.71 on 40 procs for 123456 steps with 208 atoms, finish time Sat Jan  7 01:02:00 2023


Pair  time (%) = 0.241187 (0.0196292)
Neigh time (%) = 0.585793 (0.0476753)
Comm  time (%) = 1.49429 (0.121614)
Outpt time (%) = 0.000289063 (2.35256e-05)
Other time (%) = 1226.39 (99.8111)

Nlocal:    5.2 ave 76 max 0 min
Histogram: 36 0 1 1 0 0 0 0 1 1
Nghost:    2.95 ave 34 max 0 min
Histogram: 36 0 0 0 0 0 0 2 0 2
Neighs:    1.35 ave 25 max 0 min
Histogram: 36 1 0 1 0 0 1 0 0 1

Total # of neighbors = 54
Ave neighs/atom = 0.259615
Neighbor list builds = 3254
Dangerous builds = 3
Setting up run at Sat Jan  7 01:02:00 2023

Memory usage per processor = 958.583 Mbytes
    Step    Atoms         KinEng            CPU 
 6049346      208     0.33088966              0 
 6172802      206     0.30240482      1265.1426 
Loop time of 1265.14 on 40 procs for 123456 steps with 206 atoms, finish time Sat Jan  7 01:23:05 2023


Pair  time (%) = 0.245597 (0.0194126)
Neigh time (%) = 0.862602 (0.0681822)
Comm  time (%) = 2.47403 (0.195554)
Outpt time (%) = 0.00020395 (1.61207e-05)
Other time (%) = 1261.56 (99.7168)

Nlocal:    5.15 ave 76 max 0 min
Histogram: 36 0 1 0 1 0 0 0 1 1
Nghost:    3.125 ave 36 max 0 min
Histogram: 36 0 0 0 0 0 1 1 1 1
Neighs:    1.4 ave 28 max 0 min
Histogram: 37 0 0 1 0 0 1 0 0 1

Total # of neighbors = 56
Ave neighs/atom = 0.271845
Neighbor list builds = 4924
Dangerous builds = 1
Setting up run at Sat Jan  7 01:23:06 2023

Memory usage per processor = 958.583 Mbytes
    Step    Atoms         KinEng            CPU 
 6172802      206     0.30240482              0 
 6296258      201     0.29551114      1250.2616 
Loop time of 1250.26 on 40 procs for 123456 steps with 201 atoms, finish time Sat Jan  7 01:43:56 2023


Pair  time (%) = 0.248555 (0.0198803)
Neigh time (%) = 1.19375 (0.0954803)
Comm  time (%) = 2.80547 (0.224391)
Outpt time (%) = 0.00055268 (4.42051e-05)
Other time (%) = 1246.01 (99.6602)

Nlocal:    5.025 ave 74 max 0 min
Histogram: 36 0 1 1 0 0 0 0 1 1
Nghost:    3.025 ave 36 max 0 min
Histogram: 36 0 0 0 0 0 0 2 1 1
Neighs:    1.425 ave 30 max 0 min
Histogram: 37 0 0 1 0 1 0 0 0 1

Total # of neighbors = 57
Ave neighs/atom = 0.283582
Neighbor list builds = 6759
Dangerous builds = 415
Setting up run at Sat Jan  7 01:43:56 2023

Memory usage per processor = 958.583 Mbytes
    Step    Atoms         KinEng            CPU 
 6296258      201     0.29551114              0 
 6419714      198     0.31816468      1242.0148 
Loop time of 1242.01 on 40 procs for 123456 steps with 198 atoms, finish time Sat Jan  7 02:04:38 2023


Pair  time (%) = 0.243003 (0.0195652)
Neigh time (%) = 0.750506 (0.0604265)
Comm  time (%) = 1.70391 (0.137189)
Outpt time (%) = 0.000205832 (1.65724e-05)
Other time (%) = 1239.32 (99.7828)

Nlocal:    4.95 ave 73 max 0 min
Histogram: 36 1 0 0 1 0 0 0 1 1
Nghost:    3.1 ave 35 max 0 min
Histogram: 36 0 0 0 0 0 0 1 2 1
Neighs:    1.4 ave 30 max 0 min
Histogram: 37 0 0 1 1 0 0 0 0 1

Total # of neighbors = 56
Ave neighs/atom = 0.282828
Neighbor list builds = 4200
Dangerous builds = 181
Setting up run at Sat Jan  7 02:04:38 2023

Memory usage per processor = 958.583 Mbytes
    Step    Atoms         KinEng            CPU 
 6419714      198     0.31816468              0 
 6543170      197     0.40436856      1225.9579 
Loop time of 1225.96 on 40 procs for 123456 steps with 197 atoms, finish time Sat Jan  7 02:25:04 2023


Pair  time (%) = 0.237585 (0.0193796)
Neigh time (%) = 0.509541 (0.0415627)
Comm  time (%) = 1.74824 (0.142602)
Outpt time (%) = 0.000230561 (1.88066e-05)
Other time (%) = 1223.46 (99.7964)

Nlocal:    4.925 ave 71 max 0 min
Histogram: 35 2 0 0 1 0 0 0 0 2
Nghost:    2.975 ave 34 max 0 min
Histogram: 36 0 0 0 0 0 0 2 1 1
Neighs:    1.375 ave 29 max 0 min
Histogram: 37 0 0 0 2 0 0 0 0 1

Total # of neighbors = 55
Ave neighs/atom = 0.279188
Neighbor list builds = 2866
Dangerous builds = 119
Setting up run at Sat Jan  7 02:25:04 2023

Memory usage per processor = 958.583 Mbytes
    Step    Atoms         KinEng            CPU 
 6543170      197     0.40436856              0 
 6666626      195     0.26670085      1227.7205 
Loop time of 1227.72 on 40 procs for 123456 steps with 195 atoms, finish time Sat Jan  7 02:45:32 2023


Pair  time (%) = 0.239356 (0.019496)
Neigh time (%) = 0.643754 (0.0524349)
Comm  time (%) = 1.97448 (0.160825)
Outpt time (%) = 0.000556729 (4.53465e-05)
Other time (%) = 1224.86 (99.7672)

Nlocal:    4.875 ave 70 max 0 min
Histogram: 36 1 0 0 1 0 0 0 0 2
Nghost:    2.825 ave 34 max 0 min
Histogram: 36 0 0 0 0 0 0 2 1 1
Neighs:    1.3 ave 23 max 0 min
Histogram: 37 0 0 0 0 1 1 0 0 1

Total # of neighbors = 52
Ave neighs/atom = 0.266667
Neighbor list builds = 3576
Dangerous builds = 1
Setting up run at Sat Jan  7 02:45:32 2023

Memory usage per processor = 958.583 Mbytes
    Step    Atoms         KinEng            CPU 
 6666626      195     0.26670085              0 
 6790082      193     0.20788137      1229.0222 
Loop time of 1229.02 on 40 procs for 123456 steps with 193 atoms, finish time Sat Jan  7 03:06:01 2023


Pair  time (%) = 0.239856 (0.019516)
Neigh time (%) = 0.621718 (0.0505864)
Comm  time (%) = 1.68858 (0.137392)
Outpt time (%) = 0.000186504 (1.5175e-05)
Other time (%) = 1226.47 (99.7925)

Nlocal:    4.825 ave 67 max 0 min
Histogram: 35 1 1 0 1 0 0 0 1 1
Nghost:    2.8 ave 37 max 0 min
Histogram: 36 0 0 0 0 1 1 1 0 1
Neighs:    1.1 ave 17 max 0 min
Histogram: 36 1 0 0 0 0 1 0 1 1

Total # of neighbors = 44
Ave neighs/atom = 0.227979
Neighbor list builds = 3450
Dangerous builds = 1
Setting up run at Sat Jan  7 03:06:01 2023

Memory usage per processor = 958.583 Mbytes
    Step    Atoms         KinEng            CPU 
 6790082      193     0.20788137              0 
 6913538      189     0.81190511      1232.2383 
Loop time of 1232.24 on 40 procs for 123456 steps with 189 atoms, finish time Sat Jan  7 03:26:33 2023


Pair  time (%) = 0.240717 (0.0195349)
Neigh time (%) = 0.704996 (0.0572126)
Comm  time (%) = 1.60981 (0.130641)
Outpt time (%) = 0.000224734 (1.82378e-05)
Other time (%) = 1229.68 (99.7926)

Nlocal:    4.725 ave 67 max 0 min
Histogram: 36 0 1 0 1 0 0 0 1 1
Nghost:    2.7 ave 38 max 0 min
Histogram: 36 0 0 0 0 1 2 0 0 1
Neighs:    1.05 ave 16 max 0 min
Histogram: 37 0 0 0 0 0 1 0 0 2

Total # of neighbors = 42
Ave neighs/atom = 0.222222
Neighbor list builds = 3981
Dangerous builds = 55
Setting up run at Sat Jan  7 03:26:33 2023

Memory usage per processor = 958.583 Mbytes
    Step    Atoms         KinEng            CPU 
 6913538      189     0.81190511              0 
 7036994      187      1.0813699      1243.6836 
Loop time of 1243.69 on 40 procs for 123456 steps with 187 atoms, finish time Sat Jan  7 03:47:17 2023


Pair  time (%) = 0.240894 (0.0193693)
Neigh time (%) = 0.866778 (0.0696943)
Comm  time (%) = 2.11669 (0.170195)
Outpt time (%) = 0.000556323 (4.47318e-05)
Other time (%) = 1240.46 (99.7407)

Nlocal:    4.675 ave 67 max 0 min
Histogram: 36 0 1 0 1 0 0 0 1 1
Nghost:    2.725 ave 39 max 0 min
Histogram: 36 0 0 0 0 2 1 0 0 1
Neighs:    0.95 ave 15 max 0 min
Histogram: 37 0 0 0 0 0 0 2 0 1

Total # of neighbors = 38
Ave neighs/atom = 0.203209
Neighbor list builds = 4799
Dangerous builds = 1
Setting up run at Sat Jan  7 03:47:17 2023

Memory usage per processor = 958.583 Mbytes
    Step    Atoms         KinEng            CPU 
 7036994      187      1.0813699              0 
 7160450      187      1.0515352      1232.3626 
Loop time of 1232.36 on 40 procs for 123456 steps with 187 atoms, finish time Sat Jan  7 04:07:49 2023


Pair  time (%) = 0.241902 (0.0196292)
Neigh time (%) = 0.847354 (0.0687585)
Comm  time (%) = 1.78312 (0.144691)
Outpt time (%) = 4.31535e-05 (3.50168e-06)
Other time (%) = 1229.49 (99.7669)

Nlocal:    4.675 ave 66 max 0 min
Histogram: 36 1 0 0 1 0 0 0 1 1
Nghost:    2.7 ave 38 max 0 min
Histogram: 36 0 0 0 0 2 1 0 0 1
Neighs:    0.85 ave 11 max 0 min
Histogram: 36 1 0 0 0 0 0 0 0 3

Total # of neighbors = 34
Ave neighs/atom = 0.181818
Neighbor list builds = 4629
Dangerous builds = 0
Setting up run at Sat Jan  7 04:07:49 2023

Memory usage per processor = 958.583 Mbytes
    Step    Atoms         KinEng            CPU 
 7160450      187      1.0515352              0 
 7283906      186     0.66008659      1234.6659 
Loop time of 1234.67 on 40 procs for 123456 steps with 186 atoms, finish time Sat Jan  7 04:28:24 2023


Pair  time (%) = 0.240874 (0.0195093)
Neigh time (%) = 0.685554 (0.0555255)
Comm  time (%) = 1.52323 (0.123372)
Outpt time (%) = 0.00031776 (2.57365e-05)
Other time (%) = 1232.22 (99.8016)

Nlocal:    4.65 ave 66 max 0 min
Histogram: 35 2 0 0 1 0 0 0 1 1
Nghost:    2.675 ave 37 max 0 min
Histogram: 36 0 0 0 0 1 2 0 0 1
Neighs:    0.925 ave 13 max 0 min
Histogram: 36 1 0 0 0 0 0 0 2 1

Total # of neighbors = 37
Ave neighs/atom = 0.198925
Neighbor list builds = 3820
Dangerous builds = 0
Setting up run at Sat Jan  7 04:28:24 2023

Memory usage per processor = 958.583 Mbytes
    Step    Atoms         KinEng            CPU 
 7283906      186     0.66008659              0 
 7407362      180     0.40210855      1242.9152 
Loop time of 1242.92 on 40 procs for 123456 steps with 180 atoms, finish time Sat Jan  7 04:49:07 2023


Pair  time (%) = 0.242079 (0.0194767)
Neigh time (%) = 0.90127 (0.0725126)
Comm  time (%) = 1.96784 (0.158325)
Outpt time (%) = 0.000542945 (4.36832e-05)
Other time (%) = 1239.8 (99.7496)

Nlocal:    4.5 ave 63 max 0 min
Histogram: 36 1 0 0 0 1 0 0 1 1
Nghost:    2.6 ave 34 max 0 min
Histogram: 36 0 0 0 0 1 1 1 0 1
Neighs:    0.75 ave 11 max 0 min
Histogram: 37 0 0 0 0 0 0 0 2 1

Total # of neighbors = 30
Ave neighs/atom = 0.166667
Neighbor list builds = 5143
Dangerous builds = 11
Setting up run at Sat Jan  7 04:49:07 2023

Memory usage per processor = 958.583 Mbytes
    Step    Atoms         KinEng            CPU 
 7407362      180     0.40210855              0 
 7530818      177      0.3112752      1236.7239 
Loop time of 1236.72 on 40 procs for 123456 steps with 177 atoms, finish time Sat Jan  7 05:09:44 2023


Pair  time (%) = 0.238198 (0.0192604)
Neigh time (%) = 0.556399 (0.0449898)
Comm  time (%) = 1.28102 (0.103582)
Outpt time (%) = 0.000243429 (1.96833e-05)
Other time (%) = 1234.65 (99.8321)

Nlocal:    4.425 ave 60 max 0 min
Histogram: 35 1 1 0 1 0 0 0 0 2
Nghost:    2.5 ave 32 max 0 min
Histogram: 36 0 0 0 0 1 1 0 1 1
Neighs:    0.8 ave 11 max 0 min
Histogram: 37 0 0 0 0 0 0 0 1 2

Total # of neighbors = 32
Ave neighs/atom = 0.180791
Neighbor list builds = 3149
Dangerous builds = 225
Setting up run at Sat Jan  7 05:09:44 2023

Memory usage per processor = 958.583 Mbytes
    Step    Atoms         KinEng            CPU 
 7530818      177      0.3112752              0 
 7654274      177     0.51017149      1235.7961 
Loop time of 1235.8 on 40 procs for 123456 steps with 177 atoms, finish time Sat Jan  7 05:30:20 2023


Pair  time (%) = 0.238199 (0.0192749)
Neigh time (%) = 0.609774 (0.0493425)
Comm  time (%) = 1.54793 (0.125257)
Outpt time (%) = 0.000227577 (1.84154e-05)
Other time (%) = 1233.4 (99.8061)

Nlocal:    4.425 ave 60 max 0 min
Histogram: 36 0 1 0 1 0 0 0 0 2
Nghost:    2.575 ave 31 max 0 min
Histogram: 36 0 0 0 0 1 0 1 1 1
Neighs:    0.75 ave 11 max 0 min
Histogram: 37 0 0 0 0 0 0 0 2 1

Total # of neighbors = 30
Ave neighs/atom = 0.169492
Neighbor list builds = 3343
Dangerous builds = 0
Setting up run at Sat Jan  7 05:30:20 2023

Memory usage per processor = 958.583 Mbytes
    Step    Atoms         KinEng            CPU 
 7654274      177     0.51017149              0 
 7777730      175     0.34816264      1235.7531 
Loop time of 1235.75 on 40 procs for 123456 steps with 175 atoms, finish time Sat Jan  7 05:50:56 2023


Pair  time (%) = 0.237263 (0.0191998)
Neigh time (%) = 0.611893 (0.0495158)
Comm  time (%) = 2.3269 (0.188298)
Outpt time (%) = 0.000535161 (4.33065e-05)
Other time (%) = 1232.58 (99.7429)

Nlocal:    4.375 ave 59 max 0 min
Histogram: 36 0 1 0 1 0 0 0 0 2
Nghost:    2.55 ave 31 max 0 min
Histogram: 36 0 0 0 1 0 0 1 0 2
Neighs:    0.7 ave 11 max 0 min
Histogram: 36 1 0 0 0 0 1 1 0 1

Total # of neighbors = 28
Ave neighs/atom = 0.16
Neighbor list builds = 3378
Dangerous builds = 1
Setting up run at Sat Jan  7 05:50:56 2023

Memory usage per processor = 958.583 Mbytes
    Step    Atoms         KinEng            CPU 
 7777730      175     0.34816264              0 
 7901186      175     0.34146397      1242.7483 
Loop time of 1242.75 on 40 procs for 123456 steps with 175 atoms, finish time Sat Jan  7 06:11:38 2023


Pair  time (%) = 0.237078 (0.019077)
Neigh time (%) = 0.605884 (0.0487536)
Comm  time (%) = 2.28509 (0.183874)
Outpt time (%) = 0.00028475 (2.29129e-05)
Other time (%) = 1239.62 (99.7483)

Nlocal:    4.375 ave 60 max 0 min
Histogram: 34 2 1 0 1 0 0 0 0 2
Nghost:    2.525 ave 31 max 0 min
Histogram: 36 0 0 0 0 1 0 1 0 2
Neighs:    0.6 ave 11 max 0 min
Histogram: 36 1 0 1 0 0 1 0 0 1

Total # of neighbors = 24
Ave neighs/atom = 0.137143
Neighbor list builds = 3340
Dangerous builds = 0
Setting up run at Sat Jan  7 06:11:38 2023

Memory usage per processor = 958.583 Mbytes
    Step    Atoms         KinEng            CPU 
 7901186      175     0.34146397              0 
 8024642      172     0.41463782       1232.953 
Loop time of 1232.95 on 40 procs for 123456 steps with 172 atoms, finish time Sat Jan  7 06:32:11 2023


Pair  time (%) = 0.235571 (0.0191062)
Neigh time (%) = 0.564539 (0.0457875)
Comm  time (%) = 1.36218 (0.110481)
Outpt time (%) = 0.000209106 (1.69598e-05)
Other time (%) = 1230.79 (99.8246)

Nlocal:    4.3 ave 60 max 0 min
Histogram: 35 1 1 1 0 0 0 0 0 2
Nghost:    2.5 ave 31 max 0 min
Histogram: 36 0 0 0 0 1 0 1 0 2
Neighs:    0.725 ave 13 max 0 min
Histogram: 36 1 0 1 0 0 1 0 0 1

Total # of neighbors = 29
Ave neighs/atom = 0.168605
Neighbor list builds = 3101
Dangerous builds = 10
Setting up run at Sat Jan  7 06:32:11 2023

Memory usage per processor = 958.583 Mbytes
    Step    Atoms         KinEng            CPU 
 8024642      172     0.41463782              0 
 8148098      168     0.30345773      1234.0229 
Loop time of 1234.02 on 40 procs for 123456 steps with 168 atoms, finish time Sat Jan  7 06:52:45 2023


Pair  time (%) = 0.238763 (0.0193484)
Neigh time (%) = 0.597117 (0.0483879)
Comm  time (%) = 1.31857 (0.106851)
Outpt time (%) = 0.000566856 (4.59356e-05)
Other time (%) = 1231.87 (99.8254)

Nlocal:    4.2 ave 59 max 0 min
Histogram: 35 1 1 1 0 0 0 0 0 2
Nghost:    2.575 ave 31 max 0 min
Histogram: 36 0 0 0 0 1 0 1 1 1
Neighs:    0.725 ave 14 max 0 min
Histogram: 36 1 0 1 0 1 0 0 0 1

Total # of neighbors = 29
Ave neighs/atom = 0.172619
Neighbor list builds = 3476
Dangerous builds = 246
Setting up run at Sat Jan  7 06:52:46 2023

Memory usage per processor = 958.583 Mbytes
    Step    Atoms         KinEng            CPU 
 8148098      168     0.30345773              0 
 8271554      168     0.39027768       1238.956 
Loop time of 1238.96 on 40 procs for 123456 steps with 168 atoms, finish time Sat Jan  7 07:13:24 2023


Pair  time (%) = 0.239997 (0.0193709)
Neigh time (%) = 0.673901 (0.0543927)
Comm  time (%) = 1.40396 (0.113318)
Outpt time (%) = 0.000540397 (4.36171e-05)
Other time (%) = 1236.64 (99.8129)

Nlocal:    4.2 ave 57 max 0 min
Histogram: 36 0 1 1 0 0 0 0 0 2
Nghost:    2.35 ave 28 max 0 min
Histogram: 36 0 0 0 0 1 0 0 1 2
Neighs:    0.675 ave 13 max 0 min
Histogram: 36 1 0 1 0 1 0 0 0 1

Total # of neighbors = 27
Ave neighs/atom = 0.160714
Neighbor list builds = 3690
Dangerous builds = 0
Setting up run at Sat Jan  7 07:13:25 2023

Memory usage per processor = 958.583 Mbytes
    Step    Atoms         KinEng            CPU 
 8271554      168     0.39027768              0 
 8395010      166     0.36843169      1237.3489 
Loop time of 1237.35 on 40 procs for 123456 steps with 166 atoms, finish time Sat Jan  7 07:34:02 2023


Pair  time (%) = 0.239984 (0.019395)
Neigh time (%) = 0.539527 (0.0436035)
Comm  time (%) = 1.18701 (0.0959315)
Outpt time (%) = 0.000287683 (2.325e-05)
Other time (%) = 1235.38 (99.841)

Nlocal:    4.15 ave 56 max 0 min
Histogram: 36 0 1 0 1 0 0 0 0 2
Nghost:    2.4 ave 28 max 0 min
Histogram: 36 0 0 0 0 1 0 0 1 2
Neighs:    0.625 ave 13 max 0 min
Histogram: 36 1 0 1 1 0 0 0 0 1

Total # of neighbors = 25
Ave neighs/atom = 0.150602
Neighbor list builds = 2992
Dangerous builds = 108
Setting up run at Sat Jan  7 07:34:02 2023

Memory usage per processor = 958.583 Mbytes
    Step    Atoms         KinEng            CPU 
 8395010      166     0.36843169              0 
 8518466      162     0.42815292      1244.9824 
Loop time of 1244.98 on 40 procs for 123456 steps with 162 atoms, finish time Sat Jan  7 07:54:47 2023


Pair  time (%) = 0.238337 (0.0191438)
Neigh time (%) = 0.676944 (0.0543737)
Comm  time (%) = 1.42399 (0.114379)
Outpt time (%) = 0.000311258 (2.5001e-05)
Other time (%) = 1242.64 (99.8121)

Nlocal:    4.05 ave 55 max 0 min
Histogram: 36 0 1 0 1 0 0 0 0 2
Nghost:    2.275 ave 26 max 0 min
Histogram: 36 0 0 0 0 1 0 0 1 2
Neighs:    0.45 ave 9 max 0 min
Histogram: 37 0 0 1 0 0 1 0 0 1

Total # of neighbors = 18
Ave neighs/atom = 0.111111
Neighbor list builds = 3979
Dangerous builds = 527
Setting up run at Sat Jan  7 07:54:47 2023

Memory usage per processor = 958.583 Mbytes
    Step    Atoms         KinEng            CPU 
 8518466      162     0.42815292              0 
 8641922      161      0.1733181      1238.5784 
Loop time of 1238.58 on 40 procs for 123456 steps with 161 atoms, finish time Sat Jan  7 08:15:26 2023


Pair  time (%) = 0.236783 (0.0191173)
Neigh time (%) = 0.524864 (0.0423764)
Comm  time (%) = 1.10149 (0.0889314)
Outpt time (%) = 0.000551502 (4.4527e-05)
Other time (%) = 1236.71 (99.8495)

Nlocal:    4.025 ave 56 max 0 min
Histogram: 36 0 1 0 1 0 0 0 0 2
Nghost:    2.4 ave 28 max 0 min
Histogram: 36 0 0 0 0 1 0 1 1 1
Neighs:    0.425 ave 8 max 0 min
Histogram: 37 0 0 1 0 0 0 1 0 1

Total # of neighbors = 17
Ave neighs/atom = 0.10559
Neighbor list builds = 2851
Dangerous builds = 0
Setting up run at Sat Jan  7 08:15:26 2023

Memory usage per processor = 958.583 Mbytes
    Step    Atoms         KinEng            CPU 
 8641922      161      0.1733181              0 
 8765378      161     0.17111515      1237.5422 
Loop time of 1237.54 on 40 procs for 123456 steps with 161 atoms, finish time Sat Jan  7 08:36:03 2023


Pair  time (%) = 0.234433 (0.0189434)
Neigh time (%) = 0.508449 (0.0410854)
Comm  time (%) = 1.09653 (0.0886053)
Outpt time (%) = 0.000289739 (2.34125e-05)
Other time (%) = 1235.7 (99.8513)

Nlocal:    4.025 ave 56 max 0 min
Histogram: 36 0 1 1 0 0 0 0 0 2
Nghost:    2.25 ave 28 max 0 min
Histogram: 36 0 0 0 0 1 0 1 1 1
Neighs:    0.35 ave 7 max 0 min
Histogram: 37 0 0 0 1 1 0 0 0 1

Total # of neighbors = 14
Ave neighs/atom = 0.0869565
Neighbor list builds = 2760
Dangerous builds = 0
Setting up run at Sat Jan  7 08:36:03 2023

Memory usage per processor = 958.583 Mbytes
    Step    Atoms         KinEng            CPU 
 8765378      161     0.17111515              0 
 8888834      158     0.21062868      1241.4134 
Loop time of 1241.41 on 40 procs for 123456 steps with 158 atoms, finish time Sat Jan  7 08:56:45 2023


Pair  time (%) = 0.233806 (0.0188338)
Neigh time (%) = 0.603749 (0.048634)
Comm  time (%) = 1.38317 (0.111419)
Outpt time (%) = 0.000274314 (2.20969e-05)
Other time (%) = 1239.19 (99.8211)

Nlocal:    3.95 ave 56 max 0 min
Histogram: 36 1 0 1 0 0 0 0 0 2
Nghost:    2.225 ave 30 max 0 min
Histogram: 36 0 0 0 0 1 1 0 1 1
Neighs:    0.425 ave 9 max 0 min
Histogram: 37 0 0 0 2 0 0 0 0 1

Total # of neighbors = 17
Ave neighs/atom = 0.107595
Neighbor list builds = 3274
Dangerous builds = 2
Setting up run at Sat Jan  7 08:56:45 2023

Memory usage per processor = 958.583 Mbytes
    Step    Atoms         KinEng            CPU 
 8888834      158     0.21062868              0 
 9012290      153      0.1764439       1243.271 
Loop time of 1243.27 on 40 procs for 123456 steps with 153 atoms, finish time Sat Jan  7 09:17:28 2023


Pair  time (%) = 0.234716 (0.0188789)
Neigh time (%) = 0.745811 (0.0599878)
Comm  time (%) = 1.33187 (0.107126)
Outpt time (%) = 0.000655876 (5.27541e-05)
Other time (%) = 1240.96 (99.814)

Nlocal:    3.825 ave 55 max 0 min
Histogram: 35 1 1 1 0 0 0 0 0 2
Nghost:    2.075 ave 27 max 0 min
Histogram: 36 0 0 0 0 1 0 1 1 1
Neighs:    0.425 ave 9 max 0 min
Histogram: 37 0 0 1 0 1 0 0 0 1

Total # of neighbors = 17
Ave neighs/atom = 0.111111
Neighbor list builds = 4053
Dangerous builds = 4
Setting up run at Sat Jan  7 09:17:28 2023

Memory usage per processor = 958.583 Mbytes
    Step    Atoms         KinEng            CPU 
 9012290      153      0.1764439              0 
 9135746      152      0.1699845      1234.8021 
Loop time of 1234.8 on 40 procs for 123456 steps with 152 atoms, finish time Sat Jan  7 09:38:03 2023


Pair  time (%) = 0.230857 (0.0186959)
Neigh time (%) = 0.492359 (0.0398735)
Comm  time (%) = 0.998269 (0.0808445)
Outpt time (%) = 0.000298901 (2.42064e-05)
Other time (%) = 1233.08 (99.8606)

Nlocal:    3.8 ave 54 max 0 min
Histogram: 36 0 1 0 1 0 0 0 0 2
Nghost:    2.125 ave 27 max 0 min
Histogram: 36 0 0 0 0 1 0 1 1 1
Neighs:    0.4 ave 10 max 0 min
Histogram: 37 0 0 2 0 0 0 0 0 1

Total # of neighbors = 16
Ave neighs/atom = 0.105263
Neighbor list builds = 2670
Dangerous builds = 1
Setting up run at Sat Jan  7 09:38:03 2023

Memory usage per processor = 958.583 Mbytes
    Step    Atoms         KinEng            CPU 
 9135746      152      0.1699845              0 
 9259202      151     0.40272868      1241.0412 
Loop time of 1241.04 on 40 procs for 123456 steps with 151 atoms, finish time Sat Jan  7 09:58:44 2023


Pair  time (%) = 0.23662 (0.0190662)
Neigh time (%) = 0.574293 (0.0462751)
Comm  time (%) = 1.15673 (0.0932067)
Outpt time (%) = 0.000237491 (1.91364e-05)
Other time (%) = 1239.07 (99.8414)

Nlocal:    3.775 ave 54 max 0 min
Histogram: 36 0 1 0 1 0 0 0 0 2
Nghost:    2.125 ave 27 max 0 min
Histogram: 36 0 0 0 0 1 1 0 1 1
Neighs:    0.45 ave 10 max 0 min
Histogram: 37 0 0 0 2 0 0 0 0 1

Total # of neighbors = 18
Ave neighs/atom = 0.119205
Neighbor list builds = 3223
Dangerous builds = 243
Setting up run at Sat Jan  7 09:58:44 2023

Memory usage per processor = 958.583 Mbytes
    Step    Atoms         KinEng            CPU 
 9259202      151     0.40272868              0 
 9382658      150     0.24576019      1238.6158 
Loop time of 1238.62 on 40 procs for 123456 steps with 150 atoms, finish time Sat Jan  7 10:19:23 2023


Pair  time (%) = 0.234937 (0.0189677)
Neigh time (%) = 0.616896 (0.0498053)
Comm  time (%) = 1.22043 (0.0985319)
Outpt time (%) = 0.000607956 (4.90835e-05)
Other time (%) = 1236.54 (99.8326)

Nlocal:    3.75 ave 54 max 0 min
Histogram: 36 0 1 0 1 0 0 0 0 2
Nghost:    2.1 ave 27 max 0 min
Histogram: 36 0 0 0 0 1 1 0 1 1
Neighs:    0.4 ave 10 max 0 min
Histogram: 37 0 1 0 1 0 0 0 0 1

Total # of neighbors = 16
Ave neighs/atom = 0.106667
Neighbor list builds = 3350
Dangerous builds = 1
Setting up run at Sat Jan  7 10:19:23 2023

Memory usage per processor = 958.583 Mbytes
    Step    Atoms         KinEng            CPU 
 9382658      150     0.24576019              0 
 9506114      148     0.17933557      1237.0471 
Loop time of 1237.05 on 40 procs for 123456 steps with 148 atoms, finish time Sat Jan  7 10:40:00 2023


Pair  time (%) = 0.234961 (0.0189937)
Neigh time (%) = 0.648557 (0.0524278)
Comm  time (%) = 1.66823 (0.134856)
Outpt time (%) = 0.000299502 (2.4211e-05)
Other time (%) = 1234.5 (99.7937)

Nlocal:    3.7 ave 56 max 0 min
Histogram: 36 0 1 1 0 0 0 0 0 2
Nghost:    1.925 ave 25 max 0 min
Histogram: 36 0 0 0 0 1 1 0 0 2
Neighs:    0.45 ave 12 max 0 min
Histogram: 38 0 0 0 1 0 0 0 0 1

Total # of neighbors = 18
Ave neighs/atom = 0.121622
Neighbor list builds = 3657
Dangerous builds = 1
Setting up run at Sat Jan  7 10:40:00 2023

Memory usage per processor = 958.583 Mbytes
    Step    Atoms         KinEng            CPU 
 9506114      148     0.17933557              0 
 9629570      146     0.21571149      1233.4175 
Loop time of 1233.42 on 40 procs for 123456 steps with 146 atoms, finish time Sat Jan  7 11:00:33 2023


Pair  time (%) = 0.235215 (0.0190702)
Neigh time (%) = 0.536847 (0.0435251)
Comm  time (%) = 1.47369 (0.11948)
Outpt time (%) = 0.000278001 (2.25391e-05)
Other time (%) = 1231.17 (99.8179)

Nlocal:    3.65 ave 53 max 0 min
Histogram: 36 0 1 0 1 0 0 0 0 2
Nghost:    2.075 ave 28 max 0 min
Histogram: 36 0 0 0 1 0 1 1 0 1
Neighs:    0.5 ave 12 max 0 min
Histogram: 37 1 0 0 1 0 0 0 0 1

Total # of neighbors = 20
Ave neighs/atom = 0.136986
Neighbor list builds = 2960
Dangerous builds = 1
Setting up run at Sat Jan  7 11:00:33 2023

Memory usage per processor = 958.583 Mbytes
    Step    Atoms         KinEng            CPU 
 9629570      146     0.21571149              0 
 9753026      145     0.29886512      1246.5612 
Loop time of 1246.56 on 40 procs for 123456 steps with 145 atoms, finish time Sat Jan  7 11:21:20 2023


Pair  time (%) = 0.235013 (0.0188529)
Neigh time (%) = 0.740001 (0.0593634)
Comm  time (%) = 1.99816 (0.160294)
Outpt time (%) = 0.000535259 (4.29388e-05)
Other time (%) = 1243.59 (99.7614)

Nlocal:    3.625 ave 53 max 0 min
Histogram: 36 0 1 1 0 0 0 0 0 2
Nghost:    1.95 ave 25 max 0 min
Histogram: 36 0 0 0 1 0 0 1 0 2
Neighs:    0.45 ave 11 max 0 min
Histogram: 38 0 0 0 1 0 0 0 0 1

Total # of neighbors = 18
Ave neighs/atom = 0.124138
Neighbor list builds = 4040
Dangerous builds = 0
Setting up run at Sat Jan  7 11:21:20 2023

Memory usage per processor = 958.583 Mbytes
    Step    Atoms         KinEng            CPU 
 9753026      145     0.29886512              0 
 9876482      143     0.68303955      1239.7634 
Loop time of 1239.76 on 40 procs for 123456 steps with 143 atoms, finish time Sat Jan  7 11:42:00 2023


Pair  time (%) = 0.235389 (0.0189866)
Neigh time (%) = 0.812309 (0.0655213)
Comm  time (%) = 1.61843 (0.130543)
Outpt time (%) = 0.000303076 (2.44463e-05)
Other time (%) = 1237.1 (99.7849)

Nlocal:    3.575 ave 55 max 0 min
Histogram: 36 0 1 1 0 0 0 0 1 1
Nghost:    1.85 ave 23 max 0 min
Histogram: 36 0 0 0 0 1 0 1 0 2
Neighs:    0.4 ave 10 max 0 min
Histogram: 37 1 0 0 0 1 0 0 0 1

Total # of neighbors = 16
Ave neighs/atom = 0.111888
Neighbor list builds = 4477
Dangerous builds = 122
Setting up run at Sat Jan  7 11:42:00 2023

Memory usage per processor = 958.583 Mbytes
    Step    Atoms         KinEng            CPU 
 9876482      143     0.68303955              0 
 9999938      141     0.26534634      1281.8685 
Loop time of 1281.87 on 40 procs for 123456 steps with 141 atoms, finish time Sat Jan  7 12:03:22 2023


Pair  time (%) = 0.235337 (0.0183589)
Neigh time (%) = 0.794921 (0.0620126)
Comm  time (%) = 1.65863 (0.129392)
Outpt time (%) = 0.000239137 (1.86554e-05)
Other time (%) = 1279.18 (99.7902)

Nlocal:    3.525 ave 56 max 0 min
Histogram: 36 1 0 1 0 0 0 1 0 1
Nghost:    1.825 ave 24 max 0 min
Histogram: 36 0 0 0 1 0 0 2 0 1
Neighs:    0.425 ave 12 max 0 min
Histogram: 38 0 0 1 0 0 0 0 0 1

Total # of neighbors = 17
Ave neighs/atom = 0.120567
Neighbor list builds = 4373
Dangerous builds = 2
Setting up run at Sat Jan  7 12:03:22 2023

Memory usage per processor = 958.583 Mbytes
    Step    Atoms         KinEng            CPU 
 9999938      141     0.26534634              0 
10123394      141     0.39989972      1353.6003 
Loop time of 1353.6 on 40 procs for 123456 steps with 141 atoms, finish time Sat Jan  7 12:25:55 2023


Pair  time (%) = 0.234221 (0.0173035)
Neigh time (%) = 0.542731 (0.0400954)
Comm  time (%) = 1.15063 (0.0850049)
Outpt time (%) = 0.000545049 (4.02666e-05)
Other time (%) = 1351.67 (99.8576)

Nlocal:    3.525 ave 55 max 0 min
Histogram: 36 0 2 0 0 0 0 1 0 1
Nghost:    1.85 ave 26 max 0 min
Histogram: 36 0 0 0 1 0 1 1 0 1
Neighs:    0.4 ave 10 max 0 min
Histogram: 36 2 0 0 1 0 0 0 0 1

Total # of neighbors = 16
Ave neighs/atom = 0.113475
Neighbor list builds = 2948
Dangerous builds = 0
Setting up run at Sat Jan  7 12:25:55 2023

Memory usage per processor = 958.583 Mbytes
    Step    Atoms         KinEng            CPU 
10123394      141     0.39989972              0 
10246850      139     0.38754863      1243.3661 
Loop time of 1243.37 on 40 procs for 123456 steps with 139 atoms, finish time Sat Jan  7 12:46:39 2023


Pair  time (%) = 0.232377 (0.0186892)
Neigh time (%) = 0.612767 (0.0492826)
Comm  time (%) = 1.16048 (0.0933335)
Outpt time (%) = 8.98823e-05 (7.2289e-06)
Other time (%) = 1241.37 (99.8387)

Nlocal:    3.475 ave 54 max 0 min
Histogram: 36 1 0 1 0 0 0 1 0 1
Nghost:    1.825 ave 23 max 0 min
Histogram: 36 0 0 0 0 1 1 0 1 1
Neighs:    0.425 ave 11 max 0 min
Histogram: 38 0 0 1 0 0 0 0 0 1

Total # of neighbors = 17
Ave neighs/atom = 0.122302
Neighbor list builds = 3328
Dangerous builds = 1
Setting up run at Sat Jan  7 12:46:39 2023

Memory usage per processor = 958.583 Mbytes
    Step    Atoms         KinEng            CPU 
10246850      139     0.38754863              0 
10370306      136     0.30784304      1342.5557 
Loop time of 1342.56 on 40 procs for 123456 steps with 136 atoms, finish time Sat Jan  7 13:09:01 2023


Pair  time (%) = 0.231036 (0.0172087)
Neigh time (%) = 0.710618 (0.0529302)
Comm  time (%) = 1.32577 (0.09875)
Outpt time (%) = 0.000588145 (4.38078e-05)
Other time (%) = 1340.29 (99.8311)

Nlocal:    3.4 ave 57 max 0 min
Histogram: 36 0 2 0 0 0 1 0 0 1
Nghost:    1.75 ave 23 max 0 min
Histogram: 36 0 0 0 0 1 0 2 0 1
Neighs:    0.3 ave 9 max 0 min
Histogram: 37 1 1 0 0 0 0 0 0 1

Total # of neighbors = 12
Ave neighs/atom = 0.0882353
Neighbor list builds = 3930
Dangerous builds = 57
Setting up run at Sat Jan  7 13:09:01 2023

Memory usage per processor = 958.583 Mbytes
    Step    Atoms         KinEng            CPU 
10370306      136     0.30784304              0 
10493762      132     0.27023058      1335.7807 
Loop time of 1335.78 on 40 procs for 123456 steps with 132 atoms, finish time Sat Jan  7 13:31:17 2023


Pair  time (%) = 0.231986 (0.017367)
Neigh time (%) = 0.805973 (0.0603372)
Comm  time (%) = 1.53485 (0.114903)
Outpt time (%) = 0.000270885 (2.02791e-05)
Other time (%) = 1333.21 (99.8074)

Nlocal:    3.3 ave 56 max 0 min
Histogram: 36 1 0 1 0 0 1 0 0 1
Nghost:    1.675 ave 20 max 0 min
Histogram: 36 0 0 0 0 0 1 1 0 2
Neighs:    0.35 ave 10 max 0 min
Histogram: 37 1 0 1 0 0 0 0 0 1

Total # of neighbors = 14
Ave neighs/atom = 0.106061
Neighbor list builds = 4616
Dangerous builds = 2
Setting up run at Sat Jan  7 13:31:17 2023

Memory usage per processor = 958.583 Mbytes
    Step    Atoms         KinEng            CPU 
10493762      132     0.27023058              0 
10617218      131     0.27473631      1235.3513 
Loop time of 1235.35 on 40 procs for 123456 steps with 131 atoms, finish time Sat Jan  7 13:51:53 2023


Pair  time (%) = 0.225691 (0.0182694)
Neigh time (%) = 0.52767 (0.0427142)
Comm  time (%) = 1.22907 (0.0994919)
Outpt time (%) = 0.000336277 (2.72212e-05)
Other time (%) = 1233.37 (99.8395)

Nlocal:    3.275 ave 55 max 0 min
Histogram: 35 2 0 1 0 0 1 0 0 1
Nghost:    1.75 ave 20 max 0 min
Histogram: 36 0 0 0 0 0 1 0 1 2
Neighs:    0.3 ave 7 max 0 min
Histogram: 36 2 0 0 1 0 0 0 0 1

Total # of neighbors = 12
Ave neighs/atom = 0.0916031
Neighbor list builds = 2856
Dangerous builds = 1
Setting up run at Sat Jan  7 13:51:53 2023

Memory usage per processor = 958.583 Mbytes
    Step    Atoms         KinEng            CPU 
10617218      131     0.27473631              0 
10740674      130     0.19636312      1238.1045 
Loop time of 1238.11 on 40 procs for 123456 steps with 130 atoms, finish time Sat Jan  7 14:12:31 2023


Pair  time (%) = 0.227634 (0.0183857)
Neigh time (%) = 0.606906 (0.0490189)
Comm  time (%) = 1.14334 (0.0923456)
Outpt time (%) = 0.000252746 (2.0414e-05)
Other time (%) = 1236.13 (99.8402)

Nlocal:    3.25 ave 54 max 0 min
Histogram: 36 1 1 0 0 0 1 0 0 1
Nghost:    1.825 ave 20 max 0 min
Histogram: 36 0 0 0 0 0 0 1 0 3
Neighs:    0.4 ave 12 max 0 min
Histogram: 38 0 1 0 0 0 0 0 0 1

Total # of neighbors = 16
Ave neighs/atom = 0.123077
Neighbor list builds = 3318
Dangerous builds = 0
Setting up run at Sat Jan  7 14:12:31 2023

Memory usage per processor = 958.583 Mbytes
    Step    Atoms         KinEng            CPU 
10740674      130     0.19636312              0 
10864130      126     0.20457666      1246.8193 
Loop time of 1246.82 on 40 procs for 123456 steps with 126 atoms, finish time Sat Jan  7 14:33:18 2023


Pair  time (%) = 0.227226 (0.0182245)
Neigh time (%) = 0.638519 (0.0512118)
Comm  time (%) = 1.18594 (0.0951175)
Outpt time (%) = 0.000583343 (4.67865e-05)
Other time (%) = 1244.77 (99.8354)

Nlocal:    3.15 ave 55 max 0 min
Histogram: 36 1 1 0 0 0 1 0 0 1
Nghost:    1.9 ave 23 max 0 min
Histogram: 36 0 0 0 0 0 1 1 1 1
Neighs:    0.35 ave 11 max 0 min
Histogram: 38 1 0 0 0 0 0 0 0 1

Total # of neighbors = 14
Ave neighs/atom = 0.111111
Neighbor list builds = 3464
Dangerous builds = 3
Setting up run at Sat Jan  7 14:33:18 2023

Memory usage per processor = 958.583 Mbytes
    Step    Atoms         KinEng            CPU 
10864130      126     0.20457666              0 
10987586      122     0.18209622      1324.7904 
Loop time of 1324.79 on 40 procs for 123456 steps with 122 atoms, finish time Sat Jan  7 14:55:22 2023


Pair  time (%) = 0.225559 (0.017026)
Neigh time (%) = 0.627692 (0.0473804)
Comm  time (%) = 1.3301 (0.100401)
Outpt time (%) = 0.000266466 (2.01138e-05)
Other time (%) = 1322.61 (99.8352)

Nlocal:    3.05 ave 54 max 0 min
Histogram: 36 1 1 0 0 0 1 0 0 1
Nghost:    1.8 ave 23 max 0 min
Histogram: 36 0 0 0 0 1 1 0 1 1
Neighs:    0.325 ave 10 max 0 min
Histogram: 37 1 1 0 0 0 0 0 0 1

Total # of neighbors = 13
Ave neighs/atom = 0.106557
Neighbor list builds = 3422
Dangerous builds = 1
Setting up run at Sat Jan  7 14:55:22 2023

Memory usage per processor = 958.583 Mbytes
    Step    Atoms         KinEng            CPU 
10987586      122     0.18209622              0 
11111042      119     0.15913215      1419.6504 
Loop time of 1419.65 on 40 procs for 123456 steps with 119 atoms, finish time Sat Jan  7 15:19:02 2023


Pair  time (%) = 0.226828 (0.0159777)
Neigh time (%) = 0.543861 (0.0383095)
Comm  time (%) = 1.02436 (0.0721556)
Outpt time (%) = 0.000554852 (3.90837e-05)
Other time (%) = 1417.86 (99.8735)

Nlocal:    2.975 ave 53 max 0 min
Histogram: 36 1 1 0 0 0 0 1 0 1
Nghost:    1.75 ave 22 max 0 min
Histogram: 36 0 0 0 0 1 1 0 0 2
Neighs:    0.3 ave 8 max 0 min
Histogram: 37 0 2 0 0 0 0 0 0 1

Total # of neighbors = 12
Ave neighs/atom = 0.10084
Neighbor list builds = 2951
Dangerous builds = 2
Setting up run at Sat Jan  7 15:19:02 2023

Memory usage per processor = 958.583 Mbytes
    Step    Atoms         KinEng            CPU 
11111042      119     0.15913215              0 
11234498      116     0.17954383      1235.2547 
Loop time of 1235.25 on 40 procs for 123456 steps with 116 atoms, finish time Sat Jan  7 15:39:37 2023


Pair  time (%) = 0.223497 (0.0180932)
Neigh time (%) = 0.379107 (0.0306906)
Comm  time (%) = 0.75946 (0.061482)
Outpt time (%) = 0.000270834 (2.19254e-05)
Other time (%) = 1233.89 (99.8897)

Nlocal:    2.9 ave 52 max 0 min
Histogram: 36 1 1 0 0 0 0 1 0 1
Nghost:    1.6 ave 19 max 0 min
Histogram: 36 0 0 0 0 0 1 1 0 2
Neighs:    0.275 ave 7 max 0 min
Histogram: 37 0 2 0 0 0 0 0 0 1

Total # of neighbors = 11
Ave neighs/atom = 0.0948276
Neighbor list builds = 2058
Dangerous builds = 14
Setting up run at Sat Jan  7 15:39:37 2023

[...]
Setting up run at Sun Jan  8 08:32:10 2023

Memory usage per processor = 958.583 Mbytes
    Step    Atoms         KinEng            CPU 
17283920       72    0.091124844              0 
17407376       70     0.34306355      1244.9646 
Loop time of 1244.96 on 40 procs for 123456 steps with 70 atoms, finish time Sun Jan  8 08:52:55 2023


Pair  time (%) = 0.227535 (0.0182764)
Neigh time (%) = 0.891063 (0.0715733)
Comm  time (%) = 1.89494 (0.152208)
Outpt time (%) = 0.000323124 (2.59544e-05)
Other time (%) = 1241.95 (99.7579)

Nlocal:    1.75 ave 27 max 0 min
Histogram: 36 2 0 0 0 0 0 0 0 2
Nghost:    0.7 ave 10 max 0 min
Histogram: 36 0 0 0 1 0 0 2 0 1
Neighs:    0.025 ave 1 max 0 min
Histogram: 39 0 0 0 0 0 0 0 0 1

Total # of neighbors = 1
Ave neighs/atom = 0.0142857
Neighbor list builds = 4824
Dangerous builds = 21
Setting up run at Sun Jan  8 08:52:55 2023

Memory usage per processor = 958.583 Mbytes
    Step    Atoms         KinEng            CPU 
17407376       70     0.34306355              0 
17530832       68     0.30289572      1255.3306 
Loop time of 1255.33 on 40 procs for 123456 steps with 68 atoms, finish time Sun Jan  8 09:13:50 2023


Pair  time (%) = 0.230883 (0.0183922)
Neigh time (%) = 1.1609 (0.0924773)
Comm  time (%) = 1.77081 (0.141063)
Outpt time (%) = 0.00237096 (0.000188871)
Other time (%) = 1252.17 (99.7479)

Nlocal:    1.7 ave 27 max 0 min
Histogram: 36 2 0 0 0 0 0 0 0 2
Nghost:    0.65 ave 7 max 0 min
Histogram: 35 0 1 0 0 1 0 0 1 2
Neighs:    0.025 ave 1 max 0 min
Histogram: 39 0 0 0 0 0 0 0 0 1

Total # of neighbors = 1
Ave neighs/atom = 0.0147059
Neighbor list builds = 6241
Dangerous builds = 35
Setting up run at Sun Jan  8 09:13:50 2023

Memory usage per processor = 958.583 Mbytes
    Step    Atoms         KinEng            CPU 
17530832       68     0.30289572              0 
17654288       68     0.34072593      1253.1756 
Loop time of 1253.18 on 40 procs for 123456 steps with 68 atoms, finish time Sun Jan  8 09:34:43 2023


Pair  time (%) = 0.227169 (0.0181275)
Neigh time (%) = 1.11521 (0.0889904)
Comm  time (%) = 2.69687 (0.215203)
Outpt time (%) = 0.000592525 (4.72819e-05)
Other time (%) = 1249.14 (99.6776)

Nlocal:    1.7 ave 27 max 0 min
Histogram: 35 3 0 0 0 0 0 0 0 2
Nghost:    0.675 ave 8 max 0 min
Histogram: 34 2 0 0 0 1 0 1 1 1
Neighs:    0.05 ave 2 max 0 min
Histogram: 39 0 0 0 0 0 0 0 0 1

Total # of neighbors = 2
Ave neighs/atom = 0.0294118
Neighbor list builds = 6002
Dangerous builds = 0
Setting up run at Sun Jan  8 09:34:43 2023

Memory usage per processor = 958.583 Mbytes
    Step    Atoms         KinEng            CPU 
17654288       68     0.34072593              0 
17777744       67     0.32516509      1252.7689 
Loop time of 1252.77 on 40 procs for 123456 steps with 67 atoms, finish time Sun Jan  8 09:55:36 2023


Pair  time (%) = 0.227463 (0.0181568)
Neigh time (%) = 1.11189 (0.0887546)
Comm  time (%) = 3.10023 (0.24747)
Outpt time (%) = 0.000274537 (2.19144e-05)
Other time (%) = 1248.33 (99.6456)

Nlocal:    1.675 ave 28 max 0 min
Histogram: 36 2 0 0 0 0 0 0 1 1
Nghost:    0.675 ave 7 max 0 min
Histogram: 33 3 0 0 1 0 0 0 0 3
Neighs:    0.025 ave 1 max 0 min
Histogram: 39 0 0 0 0 0 0 0 0 1

Total # of neighbors = 1
Ave neighs/atom = 0.0149254
Neighbor list builds = 6034
Dangerous builds = 1
Setting up run at Sun Jan  8 09:55:36 2023

Memory usage per processor = 958.583 Mbytes
    Step    Atoms         KinEng            CPU 
17777744       67     0.32516509              0 
17901200       66      0.3897325      1253.2047 
Loop time of 1253.2 on 40 procs for 123456 steps with 66 atoms, finish time Sun Jan  8 10:16:29 2023


Pair  time (%) = 0.228245 (0.0182129)
Neigh time (%) = 1.13244 (0.0903638)
Comm  time (%) = 3.26522 (0.26055)
Outpt time (%) = 2.6478e-05 (2.11283e-06)
Other time (%) = 1248.58 (99.6309)

Nlocal:    1.65 ave 27 max 0 min
Histogram: 36 2 0 0 0 0 0 0 0 2
Nghost:    0.675 ave 7 max 0 min
Histogram: 32 4 0 0 1 0 0 0 1 2
Neighs:    0.025 ave 1 max 0 min
Histogram: 39 0 0 0 0 0 0 0 0 1

Total # of neighbors = 1
Ave neighs/atom = 0.0151515
Neighbor list builds = 6091
Dangerous builds = 1
Setting up run at Sun Jan  8 10:16:30 2023

Memory usage per processor = 958.583 Mbytes
    Step    Atoms         KinEng            CPU 
17901200       66      0.3897325              0 
18024656       64     0.39056121      1249.5016 
Loop time of 1249.5 on 40 procs for 123456 steps with 64 atoms, finish time Sun Jan  8 10:37:19 2023


Pair  time (%) = 0.22672 (0.0181449)
Neigh time (%) = 1.09134 (0.0873423)
Comm  time (%) = 2.98261 (0.238704)
Outpt time (%) = 0.00185092 (0.000148133)
Other time (%) = 1245.2 (99.6557)

Nlocal:    1.6 ave 28 max 0 min
Histogram: 36 2 0 0 0 0 0 0 1 1
Nghost:    0.575 ave 7 max 0 min
Histogram: 34 2 0 0 0 2 0 0 1 1
Neighs:    0.05 ave 1 max 0 min
Histogram: 38 0 0 0 0 0 0 0 0 2

Total # of neighbors = 2
Ave neighs/atom = 0.03125
Neighbor list builds = 5880
Dangerous builds = 1
Setting up run at Sun Jan  8 10:37:19 2023

Memory usage per processor = 958.583 Mbytes
    Step    Atoms         KinEng            CPU 
18024656       64     0.39056121              0 
18148112       64     0.39166113      1256.3565 
Loop time of 1256.36 on 40 procs for 123456 steps with 64 atoms, finish time Sun Jan  8 10:58:15 2023


Pair  time (%) = 0.227589 (0.018115)
Neigh time (%) = 1.12066 (0.0891993)
Comm  time (%) = 3.0786 (0.245042)
Outpt time (%) = 0.000267739 (2.13108e-05)
Other time (%) = 1251.93 (99.6476)

Nlocal:    1.6 ave 27 max 0 min
Histogram: 36 2 0 0 0 0 0 0 0 2
Nghost:    0.575 ave 7 max 0 min
Histogram: 34 2 0 0 1 0 0 1 1 1
Neighs:    0.05 ave 1 max 0 min
Histogram: 38 0 0 0 0 0 0 0 0 2

Total # of neighbors = 2
Ave neighs/atom = 0.03125
Neighbor list builds = 6027
Dangerous builds = 0
Setting up run at Sun Jan  8 10:58:16 2023

Memory usage per processor = 958.583 Mbytes
    Step    Atoms         KinEng            CPU 
18148112       64     0.39166113              0 
18271568       63     0.51162084      1251.7757 
Loop time of 1251.78 on 40 procs for 123456 steps with 63 atoms, finish time Sun Jan  8 11:19:07 2023


Pair  time (%) = 0.228107 (0.0182227)
Neigh time (%) = 1.12982 (0.0902571)
Comm  time (%) = 1.71343 (0.13688)
Outpt time (%) = 0.000314889 (2.51554e-05)
Other time (%) = 1248.7 (99.7546)

Nlocal:    1.575 ave 28 max 0 min
Histogram: 35 3 0 0 0 0 0 1 0 1
Nghost:    0.575 ave 8 max 0 min
Histogram: 35 1 0 1 0 0 1 1 0 1
Neighs:    0.025 ave 1 max 0 min
Histogram: 39 0 0 0 0 0 0 0 0 1

Total # of neighbors = 1
Ave neighs/atom = 0.015873
Neighbor list builds = 6058
Dangerous builds = 0
Setting up run at Sun Jan  8 11:19:07 2023

Memory usage per processor = 958.583 Mbytes
    Step    Atoms         KinEng            CPU 
18271568       63     0.51162084              0 
18395024       63     0.51588856      1243.6911 
Loop time of 1243.69 on 40 procs for 123456 steps with 63 atoms, finish time Sun Jan  8 11:39:51 2023


Pair  time (%) = 0.228084 (0.0183393)
Neigh time (%) = 1.09565 (0.0880963)
Comm  time (%) = 2.39075 (0.19223)
Outpt time (%) = 0.000568339 (4.56978e-05)
Other time (%) = 1239.98 (99.7013)

Nlocal:    1.575 ave 28 max 0 min
Histogram: 36 2 0 0 0 0 0 1 0 1
Nghost:    0.625 ave 8 max 0 min
Histogram: 34 2 0 1 0 0 1 0 1 1
Neighs:    0.025 ave 1 max 0 min
Histogram: 39 0 0 0 0 0 0 0 0 1

Total # of neighbors = 1
Ave neighs/atom = 0.015873
Neighbor list builds = 5878
Dangerous builds = 0
Setting up run at Sun Jan  8 11:39:51 2023

Memory usage per processor = 958.583 Mbytes
    Step    Atoms         KinEng            CPU 
18395024       63     0.51588856              0 
18518480       63     0.48119768      1250.5474 
Loop time of 1250.55 on 40 procs for 123456 steps with 63 atoms, finish time Sun Jan  8 12:00:42 2023


Pair  time (%) = 0.226732 (0.0181306)
Neigh time (%) = 1.09438 (0.0875122)
Comm  time (%) = 2.9865 (0.238815)
Outpt time (%) = 0.000315549 (2.52329e-05)
Other time (%) = 1246.24 (99.6555)

Nlocal:    1.575 ave 29 max 0 min
Histogram: 37 1 0 0 0 0 0 1 0 1
Nghost:    0.7 ave 8 max 0 min
Histogram: 31 5 0 1 0 0 1 0 1 1
Neighs:    0.025 ave 1 max 0 min
Histogram: 39 0 0 0 0 0 0 0 0 1

Total # of neighbors = 1
Ave neighs/atom = 0.015873
Neighbor list builds = 5878
Dangerous builds = 0
Setting up run at Sun Jan  8 12:00:42 2023

Memory usage per processor = 958.583 Mbytes
    Step    Atoms         KinEng            CPU 
18518480       63     0.48119768              0 
18641936       62     0.46845425      1245.1279 
Loop time of 1245.13 on 40 procs for 123456 steps with 62 atoms, finish time Sun Jan  8 12:21:27 2023


Pair  time (%) = 0.225225 (0.0180885)
Neigh time (%) = 0.927328 (0.0744765)
Comm  time (%) = 2.51721 (0.202165)
Outpt time (%) = 0.000280283 (2.25103e-05)
Other time (%) = 1241.46 (99.7052)

Nlocal:    1.55 ave 30 max 0 min
Histogram: 37 1 0 0 0 0 0 1 0 1
Nghost:    0.675 ave 10 max 0 min
Histogram: 33 3 0 1 0 1 1 0 0 1
Neighs:    0.025 ave 1 max 0 min
Histogram: 39 0 0 0 0 0 0 0 0 1

Total # of neighbors = 1
Ave neighs/atom = 0.016129
Neighbor list builds = 4980
Dangerous builds = 1
Setting up run at Sun Jan  8 12:21:27 2023

Memory usage per processor = 958.583 Mbytes
    Step    Atoms         KinEng            CPU 
18641936       62     0.46845425              0 
18765392       61     0.35306166      1243.8254 
Loop time of 1243.83 on 40 procs for 123456 steps with 61 atoms, finish time Sun Jan  8 12:42:11 2023


Pair  time (%) = 0.225809 (0.0181544)
Neigh time (%) = 0.879253 (0.0706894)
Comm  time (%) = 2.3793 (0.191289)
Outpt time (%) = 0.000582432 (4.68259e-05)
Other time (%) = 1240.34 (99.7198)

Nlocal:    1.525 ave 30 max 0 min
Histogram: 37 1 0 0 0 0 1 0 0 1
Nghost:    0.55 ave 7 max 0 min
Histogram: 34 3 0 0 0 0 0 0 2 1
Neighs:    0.025 ave 1 max 0 min
Histogram: 39 0 0 0 0 0 0 0 0 1

Total # of neighbors = 1
Ave neighs/atom = 0.0163934
Neighbor list builds = 4727
Dangerous builds = 0
Setting up run at Sun Jan  8 12:42:11 2023

Memory usage per processor = 958.583 Mbytes
    Step    Atoms         KinEng            CPU 
18765392       61     0.35306166              0 
18888848       61      0.3390079       1241.748 
Loop time of 1241.75 on 40 procs for 123456 steps with 61 atoms, finish time Sun Jan  8 13:02:53 2023


Pair  time (%) = 0.225096 (0.0181274)
Neigh time (%) = 0.812327 (0.065418)
Comm  time (%) = 2.19613 (0.176858)
Outpt time (%) = 0.00025263 (2.03447e-05)
Other time (%) = 1238.51 (99.7396)

Nlocal:    1.525 ave 29 max 0 min
Histogram: 36 2 0 0 0 0 0 1 0 1
Nghost:    0.55 ave 8 max 0 min
Histogram: 34 2 1 1 0 0 0 0 1 1
Neighs:    0.025 ave 1 max 0 min
Histogram: 39 0 0 0 0 0 0 0 0 1

Total # of neighbors = 1
Ave neighs/atom = 0.0163934
Neighbor list builds = 4355
Dangerous builds = 0
Setting up run at Sun Jan  8 13:02:53 2023

Memory usage per processor = 958.583 Mbytes
    Step    Atoms         KinEng            CPU 
18888848       61      0.3390079              0 
19012304       60     0.30849538      1239.9082 
Loop time of 1239.91 on 40 procs for 123456 steps with 60 atoms, finish time Sun Jan  8 13:23:33 2023


Pair  time (%) = 0.222413 (0.0179378)
Neigh time (%) = 0.7734 (0.0623756)
Comm  time (%) = 2.09332 (0.168828)
Outpt time (%) = 0.000284548 (2.29491e-05)
Other time (%) = 1236.82 (99.7508)

Nlocal:    1.5 ave 29 max 0 min
Histogram: 38 0 0 0 0 0 0 1 0 1
Nghost:    0.525 ave 7 max 0 min
Histogram: 33 3 1 0 1 0 0 0 1 1
Neighs:    0.025 ave 1 max 0 min
Histogram: 39 0 0 0 0 0 0 0 0 1

Total # of neighbors = 1
Ave neighs/atom = 0.0166667
Neighbor list builds = 4149
Dangerous builds = 1
Setting up run at Sun Jan  8 13:23:33 2023

Memory usage per processor = 958.583 Mbytes
    Step    Atoms         KinEng            CPU 
19012304       60     0.30849538              0 
19135760       60     0.31364756      1240.6506 
Loop time of 1240.65 on 40 procs for 123456 steps with 60 atoms, finish time Sun Jan  8 13:44:13 2023


Pair  time (%) = 0.222614 (0.0179433)
Neigh time (%) = 0.744729 (0.0600273)
Comm  time (%) = 1.95095 (0.157252)
Outpt time (%) = 0.000330462 (2.66362e-05)
Other time (%) = 1237.73 (99.7648)

Nlocal:    1.5 ave 28 max 0 min
Histogram: 35 3 0 0 0 0 0 1 0 1
Nghost:    0.525 ave 8 max 0 min
Histogram: 34 2 1 0 0 1 1 0 0 1
Neighs:    0.05 ave 2 max 0 min
Histogram: 39 0 0 0 0 0 0 0 0 1

Total # of neighbors = 2
Ave neighs/atom = 0.0333333
Neighbor list builds = 3985
Dangerous builds = 0
Setting up run at Sun Jan  8 13:44:13 2023

Memory usage per processor = 958.583 Mbytes
    Step    Atoms         KinEng            CPU 
19135760       60     0.31364756              0 
19259216       59     0.31033658      1249.5053 
Loop time of 1249.51 on 40 procs for 123456 steps with 59 atoms, finish time Sun Jan  8 14:05:03 2023


Pair  time (%) = 0.223325 (0.017873)
Neigh time (%) = 0.744878 (0.0596138)
Comm  time (%) = 1.16354 (0.0931203)
Outpt time (%) = 0.000603891 (4.83304e-05)
Other time (%) = 1247.37 (99.8293)

Nlocal:    1.475 ave 27 max 0 min
Histogram: 38 0 0 0 0 0 0 0 1 1
Nghost:    0.5 ave 8 max 0 min
Histogram: 35 1 1 0 0 1 1 0 0 1
Neighs:    0.05 ave 2 max 0 min
Histogram: 39 0 0 0 0 0 0 0 0 1

Total # of neighbors = 2
Ave neighs/atom = 0.0338983
Neighbor list builds = 3983
Dangerous builds = 1
Setting up run at Sun Jan  8 14:05:03 2023

Memory usage per processor = 958.583 Mbytes
    Step    Atoms         KinEng            CPU 
19259216       59     0.31033658              0 
19382672       59      0.3017891      1240.3705 
Loop time of 1240.37 on 40 procs for 123456 steps with 59 atoms, finish time Sun Jan  8 14:25:43 2023


Pair  time (%) = 0.22345 (0.0180148)
Neigh time (%) = 0.744849 (0.0600506)
Comm  time (%) = 1.18531 (0.0955608)
Outpt time (%) = 0.000210683 (1.69855e-05)
Other time (%) = 1238.22 (99.8264)

Nlocal:    1.475 ave 28 max 0 min
Histogram: 37 1 0 0 0 0 0 1 0 1
Nghost:    0.55 ave 8 max 0 min
Histogram: 35 1 1 0 0 0 1 1 0 1
Neighs:    0.05 ave 2 max 0 min
Histogram: 39 0 0 0 0 0 0 0 0 1

Total # of neighbors = 2
Ave neighs/atom = 0.0338983
Neighbor list builds = 3982
Dangerous builds = 0
Setting up run at Sun Jan  8 14:25:43 2023

Memory usage per processor = 958.583 Mbytes
    Step    Atoms         KinEng            CPU 
19382672       59      0.3017891              0 
19506128       59     0.29996801      1239.3599 
Loop time of 1239.36 on 40 procs for 123456 steps with 59 atoms, finish time Sun Jan  8 14:46:23 2023


Pair  time (%) = 0.222772 (0.0179748)
Neigh time (%) = 0.743317 (0.0599759)
Comm  time (%) = 1.16427 (0.0939413)
Outpt time (%) = 0.000243164 (1.96201e-05)
Other time (%) = 1237.23 (99.8281)

Nlocal:    1.475 ave 27 max 0 min
Histogram: 37 1 0 0 0 0 0 0 1 1
Nghost:    0.55 ave 9 max 0 min
Histogram: 35 1 1 0 0 2 0 0 0 1
Neighs:    0.075 ave 3 max 0 min
Histogram: 39 0 0 0 0 0 0 0 0 1

Total # of neighbors = 3
Ave neighs/atom = 0.0508475
Neighbor list builds = 3982
Dangerous builds = 0
Setting up run at Sun Jan  8 14:46:23 2023

Memory usage per processor = 958.583 Mbytes
    Step    Atoms         KinEng            CPU 
19506128       59     0.29996801              0 
19629584       59     0.29453205      1240.4377 
Loop time of 1240.44 on 40 procs for 123456 steps with 59 atoms, finish time Sun Jan  8 15:07:03 2023


Pair  time (%) = 0.22333 (0.0180041)
Neigh time (%) = 0.742979 (0.0598965)
Comm  time (%) = 1.17582 (0.0947907)
Outpt time (%) = 0.000591071 (4.76502e-05)
Other time (%) = 1238.3 (99.8273)

Nlocal:    1.475 ave 27 max 0 min
Histogram: 38 0 0 0 0 0 0 0 1 1
Nghost:    0.55 ave 9 max 0 min
Histogram: 35 1 1 0 0 2 0 0 0 1
Neighs:    0.075 ave 3 max 0 min
Histogram: 39 0 0 0 0 0 0 0 0 1

Total # of neighbors = 3
Ave neighs/atom = 0.0508475
Neighbor list builds = 3982
Dangerous builds = 0
Setting up run at Sun Jan  8 15:07:03 2023

Memory usage per processor = 958.583 Mbytes
    Step    Atoms         KinEng            CPU 
19629584       59     0.29453205              0 
19753040       59     0.28282823      1241.6105 
Loop time of 1241.61 on 40 procs for 123456 steps with 59 atoms, finish time Sun Jan  8 15:27:45 2023


Pair  time (%) = 0.222705 (0.0179368)
Neigh time (%) = 0.742887 (0.0598325)
Comm  time (%) = 1.1598 (0.0934109)
Outpt time (%) = 0.000248241 (1.99934e-05)
Other time (%) = 1239.48 (99.8288)

Nlocal:    1.475 ave 27 max 0 min
Histogram: 36 2 0 0 0 0 0 1 0 1
Nghost:    0.575 ave 9 max 0 min
Histogram: 35 2 0 0 0 1 0 1 0 1
Neighs:    0.05 ave 2 max 0 min
Histogram: 39 0 0 0 0 0 0 0 0 1

Total # of neighbors = 2
Ave neighs/atom = 0.0338983
Neighbor list builds = 3982
Dangerous builds = 0
Setting up run at Sun Jan  8 15:27:45 2023

Memory usage per processor = 958.583 Mbytes
    Step    Atoms         KinEng            CPU 
19753040       59     0.28282823              0 
19876496       59     0.27991634       1241.319 
Loop time of 1241.32 on 40 procs for 123456 steps with 59 atoms, finish time Sun Jan  8 15:48:26 2023


Pair  time (%) = 0.22484 (0.018113)
Neigh time (%) = 0.743935 (0.059931)
Comm  time (%) = 1.19542 (0.0963025)
Outpt time (%) = 0.000245864 (1.98066e-05)
Other time (%) = 1239.15 (99.8256)

Nlocal:    1.475 ave 26 max 0 min
Histogram: 36 2 0 0 0 0 0 0 1 1
Nghost:    0.6 ave 8 max 0 min
Histogram: 35 2 0 0 0 0 0 0 2 1
Neighs:    0.05 ave 2 max 0 min
Histogram: 39 0 0 0 0 0 0 0 0 1

Total # of neighbors = 2
Ave neighs/atom = 0.0338983
Neighbor list builds = 3982
Dangerous builds = 0
Setting up run at Sun Jan  8 15:48:26 2023

Memory usage per processor = 958.583 Mbytes
    Step    Atoms         KinEng            CPU 
19876496       59     0.27991634              0 
19999952       59     0.27309185        1241.48 
Loop time of 1241.48 on 40 procs for 123456 steps with 59 atoms, finish time Sun Jan  8 16:09:08 2023


Pair  time (%) = 0.223827 (0.018029)
Neigh time (%) = 0.742195 (0.0597831)
Comm  time (%) = 1.14819 (0.0924854)
Outpt time (%) = 0.000589895 (4.75154e-05)
Other time (%) = 1239.37 (99.8297)

Nlocal:    1.475 ave 25 max 0 min
Histogram: 37 1 0 0 0 0 0 0 1 1
Nghost:    0.6 ave 7 max 0 min
Histogram: 34 3 0 0 0 0 0 0 0 3
Neighs:    0.05 ave 2 max 0 min
Histogram: 39 0 0 0 0 0 0 0 0 1

Total # of neighbors = 2
Ave neighs/atom = 0.0338983
Neighbor list builds = 3982
Dangerous builds = 0
Setting up run at Sun Jan  8 16:09:08 2023

Memory usage per processor = 958.583 Mbytes
    Step    Atoms         KinEng            CPU 
19999952       59     0.27309185              0 
20123408       59      0.2707223      1241.4525 
Loop time of 1241.45 on 40 procs for 123456 steps with 59 atoms, finish time Sun Jan  8 16:29:49 2023


Pair  time (%) = 0.224551 (0.0180877)
Neigh time (%) = 0.74369 (0.0599049)
Comm  time (%) = 1.19147 (0.0959742)
Outpt time (%) = 0.000254613 (2.05093e-05)
Other time (%) = 1239.29 (99.826)

Nlocal:    1.475 ave 24 max 0 min
Histogram: 37 1 0 0 0 0 0 0 0 2
Nghost:    0.525 ave 7 max 0 min
Histogram: 34 2 1 0 0 0 0 2 0 1
Neighs:    0.05 ave 2 max 0 min
Histogram: 39 0 0 0 0 0 0 0 0 1

Total # of neighbors = 2
Ave neighs/atom = 0.0338983
Neighbor list builds = 3982
Dangerous builds = 0
Setting up run at Sun Jan  8 16:29:50 2023

Memory usage per processor = 958.583 Mbytes
    Step    Atoms         KinEng            CPU 
20123408       59      0.2707223              0 
20246864       59      0.2683408      1239.1705 
Loop time of 1239.17 on 40 procs for 123456 steps with 59 atoms, finish time Sun Jan  8 16:50:29 2023


Pair  time (%) = 0.222997 (0.0179956)
Neigh time (%) = 0.742901 (0.0599515)
Comm  time (%) = 1.15471 (0.0931842)
Outpt time (%) = 0.000231564 (1.8687e-05)
Other time (%) = 1237.05 (99.8289)

Nlocal:    1.475 ave 25 max 0 min
Histogram: 37 1 0 0 0 0 0 0 1 1
Nghost:    0.55 ave 6 max 0 min
Histogram: 34 2 0 0 0 1 0 0 1 2
Neighs:    0.05 ave 2 max 0 min
Histogram: 39 0 0 0 0 0 0 0 0 1

Total # of neighbors = 2
srun: Job step aborted: Waiting up to 62 seconds for job step to finish.
slurmstepd: error: *** JOB 14814396 ON r02c32 CANCELLED AT 2023-01-08T17:15:03 ***
slurmstepd: error: *** STEP 14814396.0 ON r02c32 CANCELLED AT 2023-01-08T17:15:03 ***
