ITEM: TIMESTEP
30555459
ITEM: NUMBER OF ATOMS
72
ITEM: BOX BOUNDS ff ff ff
-0.15 0.15
-0.15 0.15
-0.15 0.15
ITEM: ATOMS id type x y z radius vx vy vz density 
189 1 -0.0127786 -0.00234806 0.00458522 0.000847 -0.00968648 -0.00317001 -0.00754494 2650 
482 1 -0.0101519 -0.0545671 0.0276003 0.000233 4.51021 6.37614e-08 1.65601 2650 
215 1 -0.0283944 -0.0368665 0.0621081 0.000847 164.405 1.5841 75.1344 2650 
511 1 -0.00485881 0.0604859 -0.0127904 0.000847 0.0181189 0.019025 -0.000268099 2650 
187 1 -0.0105153 0.0115657 -0.0105251 0.000847 -0.00960699 0.00725477 0.0121882 2650 
221 1 -0.0134491 0.0400447 -0.00988374 0.000233 -0.0938143 -0.0132956 0.107425 2650 
451 1 -0.0130412 0.0353523 -0.00832421 0.000847 -0.0185614 -0.00301275 0.0130725 2650 
80 1 -0.00155282 0.0036792 -0.00768704 8.4e-05 -0.00375848 -0.00193421 -0.0219012 2650 
79 1 -0.0159118 0.0137733 -0.00466906 0.000233 -0.0290724 -0.00512323 0.114375 2650 
115 1 -0.0156747 0.0151391 -0.0038488 0.000233 0.00900961 0.000791426 0.00519643 2650 
446 1 -0.0154348 0.0378984 -0.0041139 0.000847 -0.0365713 -0.00934782 0.143691 2650 
512 1 -0.0133846 0.000545002 -0.00280795 0.000847 0.00826946 0.00215095 0.00983037 2650 
212 1 -0.0151614 0.042131 -0.000683134 0.001312 0.0077655 0.0139998 0.00814915 2650 
199 1 -0.000483512 0.0229266 0.00099823 0.001312 -0.00949063 -0.00176372 -0.0149654 2650 
331 1 -0.0159968 0.046471 0.000415381 0.000847 -0.00553108 0.00799647 0.130641 2650 
441 1 -0.0163294 0.0354894 0.00287439 0.000233 0.00858043 0.00125641 0.048154 2650 
108 1 -0.0148871 0.0246573 0.00477642 0.001312 0.045207 0.00123361 0.109893 2650 
261 1 -0.00208566 0.0082837 0.00724018 0.000233 0.0234548 -0.0127766 0.0160535 2650 
372 1 -0.0118243 0.0419926 0.0108751 0.000847 0.0538987 -0.0387165 0.0729788 2650 
211 1 -0.0122005 0.0530353 0.00949917 0.001312 0.0432464 0.00404345 0.0575095 2650 
402 1 -0.0136008 0.054691 0.00960378 0.000233 -0.0228141 0.0820007 -0.04091 2650 
156 1 -0.0114368 0.00560871 0.0119933 0.000233 0.0679719 0.0191224 0.0591158 2650 
354 1 -0.00958034 0.0320183 0.0124769 0.001312 0.0626432 0.0307744 0.0273482 2650 
359 1 -0.00464001 0.00278019 0.0141528 0.000847 0.0109998 -0.0103966 0.0105703 2650 
238 1 -0.00926606 0.0227669 0.0126823 0.001312 0.078217 -0.0308413 0.0683158 2650 
305 1 -0.00339682 0.0342458 0.0141087 0.000847 0.0120444 0.00019966 0.006257 2650 
99 1 -0.00560305 0.0117913 0.0150367 0.000847 0.0387727 -0.00539754 0.0100258 2650 
55 1 -0.00195536 0.0145584 0.0154477 0.001312 0.0453468 -0.00468452 0.00185427 2650 
332 1 -0.00319601 0.0214235 0.0157629 0.000847 0.027493 0.0207048 0.0121153 2650 
316 1 -0.00768657 0.114368 0.00735288 0.000847 0.00214315 0.0623363 -0.00200959 2650 
209 1 0.00368555 0.0110492 -0.0160133 0.000233 -0.0317954 0.000986253 -0.00641761 2650 
439 1 7.10625e-05 0.016119 -0.016528 0.000233 -0.100287 -0.0458743 -0.0184608 2650 
45 1 0.00185563 0.0230019 -0.0159256 0.000847 -0.09064 -0.00272782 -0.00361204 2650 
35 1 0.00816906 0.0273721 -0.0138331 0.000847 -0.13633 0.0067139 -0.0716131 2650 
153 1 0.0120247 0.0425856 -0.0115284 0.000233 -0.0383663 0.0548446 -0.0343005 2650 
63 1 0.00855878 0.00505328 -0.0107391 0.000233 0.0111067 -0.000927991 -0.0229439 2650 
324 1 0.013425 0.0329312 -0.010027 0.000233 -0.0509586 0.0178839 -0.102648 2650 
66 1 0.0132165 0.036548 -0.00974898 0.000233 -0.0874459 -0.0136239 -0.109186 2650 
423 1 0.0127588 0.0385649 -0.00962702 0.000847 -0.0929369 0.0161232 -0.124106 2650 
353 1 0.00892567 0.00502534 -0.00882425 8.4e-05 -0.00790224 0.00176539 0.00391071 2650 
131 1 0.0138251 0.00483069 -0.00864173 0.000233 -0.0138686 -0.000638965 -0.0132767 2650 
69 1 0.0132142 0.0234066 -0.00834257 0.001312 -0.0874641 -0.0283136 -0.117646 2650 
73 1 0.0133403 0.0306268 -0.00894282 0.000847 -0.109402 0.00869211 -0.147139 2650 
235 1 0.0137411 0.038484 -0.00917345 0.000233 -0.0923282 0.0157772 -0.122195 2650 
363 1 0.015197 0.00523142 -0.00661585 0.000233 -0.0265382 -0.0264176 -0.0613121 2650 
351 1 0.00495732 0.01123 -0.00616975 0.000233 -0.0357035 -0.0175329 -0.0177692 2650 
242 1 0.0156773 0.00947491 -0.0030661 0.000847 -0.00352082 0.000648304 -0.0192699 2650 
282 1 0.00702468 0.044479 0.000492695 0.000847 0.0112574 0.0213557 -0.0149761 2650 
493 1 0.016305 0.0187019 0.00191153 0.000233 -0.00165019 0.00503892 -0.0253231 2650 
203 1 0.0157569 0.0475813 0.00227553 0.000847 -0.0026017 -0.00970768 -0.0743115 2650 
105 1 0.00681138 0.0657797 0.00189065 0.000233 0.0140604 0.0344037 -0.0128988 2650 
310 1 0.00266585 0.0118403 0.00410854 0.000233 -0.0184789 0.0074041 0.00864383 2650 
216 1 0.00978525 0.0368913 0.00450196 0.000847 -0.0104338 0.0231283 -0.0154735 2650 
72 1 0.0134541 0.0455813 0.00462329 0.000847 0.0130714 0.0118631 -0.0222098 2650 
109 1 0.0120224 0.0243812 0.00663582 0.000847 0.000132166 0.00945202 0.0131664 2650 
314 1 0.015017 0.0280906 0.00668547 8.4e-05 0.0381518 0.00243657 -0.0470157 2650 
286 1 0.00841405 0.0475524 0.0067394 0.000233 0.00658856 0.0278514 -0.0156071 2650 
75 1 0.00653709 0.052331 0.0067898 0.000233 0.00662372 0.0251891 0.00454205 2650 
484 1 0.0121836 0.003997 0.00957424 0.001312 0.0278875 0.00550112 -0.0320828 2650 
270 1 0.000948248 0.0170449 0.010549 0.000233 0.0152876 0.00368294 0.0214127 2650 
438 1 0.0116081 0.0195136 0.0106856 0.000847 0.0309132 -0.00478236 -0.0269456 2650 
251 1 0.010346 0.0238762 0.0123149 0.000847 0.00991085 0.00165913 -0.00479798 2650 
252 1 0.00867276 0.024434 0.0129576 0.000847 -0.000170916 0.00678522 -0.0107952 2650 
291 1 0.00643743 0.026872 0.0147024 0.000847 0.0518977 0.0157334 -0.0213626 2650 
38 1 0.00497852 0.0561633 0.0149683 0.000233 0.0226071 0.0133134 0.0253682 2650 
323 1 0.00143425 0.00656625 0.0165786 0.000233 0.0709466 -0.0139499 -0.0136879 2650 
495 1 0.000568852 0.00643935 0.0166354 0.000233 0.073497 -0.01345 0.00338431 2650 
58 1 0.000878276 0.0241849 0.0160311 0.000847 0.0424896 0.00636919 0.00167088 2650 
313 1 0.00493088 0.0391341 0.0159362 0.000233 0.0607556 -0.0019181 -0.0111821 2650 
186 1 0.0506631 0.133818 -0.0453753 0.001312 -128.95 0.364483 -143.905 2650 
343 1 0.00398908 0.0822299 0.000512919 0.000847 0.017873 0.0352261 0.0138851 2650 
87 1 0.00708196 0.0755641 0.0143721 0.000847 0.0144424 0.0303228 0.000452157 2650 
