LIGGGHTS (Version LIGGGHTS-PUBLIC 3.8.0, compiled 2022-11-07-16:55:38 by serperd1, git commit 86544c3f1215bc9744d7929e3eacf53ba086af9e)
units si #
dimension 3 #
newton off #
boundary f f f #
atom_style sphere #
pair_style gran model hertz tangential history #
communicate single vel yes #
region outer_basket cylinder y 0 0 0.15 -0.15 0.15 #
create_box 3 outer_basket #
Created orthogonal box = (-0.15 -0.15 -0.15) to (0.15 0.15 0.15)
  2 by 4 by 5 MPI processor grid
variable my_omega equal 157.0796 #
fix cone_mesh all mesh/surface file cone.stl type 3 scale 1 #
fix rotating_wall_1 all move/mesh mesh cone_mesh rotate/variable origin 0 0 0 axis 0 1 0 omega v_my_omega #
fix filter_mesh_walls all wall/gran model hertz tangential history primitive type 2 ycylinder_filtermesh 0.069 0 0 2 9 -0.0628 0 0.020064 0.013078 0.14506 0.13808 shear x 10.8385 #

fix inlet_cyl_wall_mesh all mesh/surface file in_cyl.stl type 3 scale 1 #
fix top_cyl_wall_mesh all mesh/surface file top_cyl.stl type 3 scale 1 #
fix rotating_wall_4 all move/mesh mesh top_cyl_wall_mesh rotate/variable origin 0 0 0 axis 0 1 0 omega v_my_omega #
fix bot_cyl_wall_mesh all mesh/surface file bot_cyl.stl type 3 scale 1 #
fix rotating_wall_5 all move/mesh mesh bot_cyl_wall_mesh rotate/variable origin 0 0 0 axis 0 1 0 omega v_my_omega #
fix bot_disk_wall_mesh all mesh/surface file bottom_disk.stl type 3 scale 1 #
fix rotating_wall_6 all move/mesh mesh bot_disk_wall_mesh rotate/variable origin 0 0 0 axis 0 1 0 omega v_my_omega #
fix top_disk_wall_mesh all mesh/surface file top_disk.stl type 3 scale 1 #
fix rotating_wall_7 all move/mesh mesh top_disk_wall_mesh rotate/variable origin 0 0 0 axis 0 1 0 omega v_my_omega #
fix GMSH_mesh_walls all wall/gran model hertz tangential history mesh n_meshes 6 meshes cone_mesh top_cyl_wall_mesh bot_cyl_wall_mesh bot_disk_wall_mesh inlet_cyl_wall_mesh top_disk_wall_mesh #
fix Young_mod all property/global youngsModulus peratomtype 375000000 46000000 1000000000 #
fix Poisson_rat all property/global poissonsRatio peratomtype 0.32 0.42 0.29 #
fix Coeff_rest all property/global coefficientRestitution peratomtypepair 3 0.15 0.32 0.475 0.32 0.49 0.645 0.475 0.645 0.8 #
fix Coeff_fric all property/global coefficientFriction peratomtypepair 3 0.04 0.145 0.12 0.145 0.25 0.225 0.12 0.225 0.2 #

neighbor 0.00052488 bin #
neigh_modify delay 0 one 100000 page 5000000 #
fix r_0to10p all particletemplate/sphere 12345787 atom_type 1 density constant 2650 radius constant 8.4e-05 #
fix r_10to50p all particletemplate/sphere 15485863 atom_type 1 density constant 2650 radius constant 0.0002328 #
fix r_50to90p all particletemplate/sphere 15485867 atom_type 1 density constant 2650 radius constant 0.0008466 #
fix r_90to100p all particletemplate/sphere 32452843 atom_type 1 density constant 2650 radius constant 0.0013122 #
fix prob_par all particledistribution/discrete 32452867 4 r_0to10p 0.1 r_10to50p 0.4 r_50to90p 0.4 r_90to100p 0.1 #
pair_coeff * * #
timestep 6.48e-08 #

fix nve_group all nve/sphere #
fix grav_fix all gravity 6.1081 vector 0.017 -0.0033 0 -1 0 #
fix cent_fix all centrifugal 157.0796 0.017 -0.0033 0.069 #

variable step equal step #
variable mycount equal count(all) #
fix print_amount_of_atoms all print 25 "${step} ${mycount}" file numatoms.txt screen no #
run 0 #
Setting up run at Tue Jan  3 06:01:03 2023

Memory usage per processor = 954.637 Mbytes
    Step    Atoms         KinEng            CPU 
       0        0              0              0 
Loop time of 5.77948e-05 on 40 procs for 0 steps with 0 atoms, finish time Tue Jan  3 06:01:03 2023


Pair  time (%) = 0 (0)
Neigh time (%) = 0 (0)
Comm  time (%) = 0 (0)
Outpt time (%) = 0 (0)
Other time (%) = 5.77948e-05 (100)

Nlocal:    0 ave 0 max 0 min
Histogram: 40 0 0 0 0 0 0 0 0 0
Nghost:    0 ave 0 max 0 min
Histogram: 40 0 0 0 0 0 0 0 0 0
Neighs:    0 ave 0 max 0 min
Histogram: 40 0 0 0 0 0 0 0 0 0

Total # of neighbors = 0
Neighbor list builds = 0
Dangerous builds = 0
run 1 #
Setting up run at Tue Jan  3 06:01:03 2023

Memory usage per processor = 954.637 Mbytes
    Step    Atoms         KinEng            CPU 
       0        0              0              0 
       1        0              0    0.009771543 
Loop time of 0.0097825 on 40 procs for 1 steps with 0 atoms, finish time Tue Jan  3 06:01:03 2023


Pair  time (%) = 2.3967e-06 (0.0244999)
Neigh time (%) = 0 (0)
Comm  time (%) = 0.000187517 (1.91686)
Outpt time (%) = 0.000124137 (1.26897)
Other time (%) = 0.00946845 (96.7897)

Nlocal:    0 ave 0 max 0 min
Histogram: 40 0 0 0 0 0 0 0 0 0
Nghost:    0 ave 0 max 0 min
Histogram: 40 0 0 0 0 0 0 0 0 0
Neighs:    0 ave 0 max 0 min
Histogram: 40 0 0 0 0 0 0 0 0 0

Total # of neighbors = 0
Neighbor list builds = 0
Dangerous builds = 0
read_dump dump.atom_info_1 1 x y z radius vx vy vz box no add yes replace no #
  orthogonal box = (-0.15 -0.15 -0.15) to (0.15 0.15 0.15)
  0 atoms before read
  522 atoms in snapshot
  0 atoms purged
  0 atoms replaced
  0 atoms trimmed
  522 atoms added
  522 atoms after read
set atom * type 1 density 2650 vy -0.01175 #
  522 settings made for type
  522 settings made for density
  522 settings made for vy
run 1 #
Setting up run at Tue Jan  3 06:01:04 2023

Memory usage per processor = 958.989 Mbytes
    Step    Atoms         KinEng            CPU 
       1      522  2.0467238e-07              0 
       2      522  2.2321206e-07    0.009216777 
Loop time of 0.00923386 on 40 procs for 1 steps with 522 atoms, finish time Tue Jan  3 06:01:04 2023


Pair  time (%) = 2.39572e-06 (0.025945)
Neigh time (%) = 0 (0)
Comm  time (%) = 5.62512e-06 (0.0609184)
Outpt time (%) = 0.000191946 (2.07872)
Other time (%) = 0.0090339 (97.8344)

Nlocal:    13.05 ave 230 max 0 min
Histogram: 36 2 0 0 0 0 0 0 1 1
Nghost:    6.9 ave 88 max 0 min
Histogram: 36 0 0 0 0 1 1 0 0 2
Neighs:    4.05 ave 71 max 0 min
Histogram: 36 2 0 0 0 0 0 0 0 2

Total # of neighbors = 162
Ave neighs/atom = 0.310345
Neighbor list builds = 0
Dangerous builds = 0
write_dump all custom dump.atom_info_ac_* id type x y z radius vx vy vz density #
run 154320
Setting up run at Tue Jan  3 06:01:04 2023

Memory usage per processor = 958.989 Mbytes
    Step    Atoms         KinEng            CPU 
       2      522  2.2321206e-07              0 
  154322      522  2.5096779e-05      1489.7762 
Loop time of 1489.78 on 40 procs for 154320 steps with 522 atoms, finish time Tue Jan  3 06:25:54 2023


Pair  time (%) = 0.330825 (0.0222064)
Neigh time (%) = 0.116672 (0.00783152)
Comm  time (%) = 0.826658 (0.0554888)
Outpt time (%) = 0.000515322 (3.45906e-05)
Other time (%) = 1488.5 (99.9144)

Nlocal:    13.05 ave 225 max 0 min
Histogram: 36 0 2 0 0 0 0 0 0 2
Nghost:    6.975 ave 93 max 0 min
Histogram: 36 0 0 0 1 1 0 0 0 2
Neighs:    4.4 ave 82 max 0 min
Histogram: 36 2 0 0 0 0 0 0 1 1

Total # of neighbors = 176
Ave neighs/atom = 0.337165
Neighbor list builds = 412
Dangerous builds = 0
write_dump all custom dump.atom_info_ac_* id type x y z radius vx vy vz density #
run 154320
Setting up run at Tue Jan  3 06:25:54 2023

Memory usage per processor = 958.989 Mbytes
    Step    Atoms         KinEng            CPU 
  154322      522  2.5096779e-05              0 
  308642      522  0.00014274771      1484.7373 
Loop time of 1484.74 on 40 procs for 154320 steps with 522 atoms, finish time Tue Jan  3 06:50:38 2023


Pair  time (%) = 0.330048 (0.0222294)
Neigh time (%) = 0.119505 (0.00804892)
Comm  time (%) = 0.885896 (0.0596668)
Outpt time (%) = 0.00061164 (4.11952e-05)
Other time (%) = 1483.4 (99.91)

Nlocal:    13.05 ave 215 max 0 min
Histogram: 36 0 2 0 0 0 0 0 0 2
Nghost:    7.05 ave 94 max 0 min
Histogram: 36 0 0 0 0 2 0 0 0 2
Neighs:    4.375 ave 75 max 0 min
Histogram: 36 1 1 0 0 0 0 0 0 2

Total # of neighbors = 175
Ave neighs/atom = 0.335249
Neighbor list builds = 412
Dangerous builds = 0
write_dump all custom dump.atom_info_ac_* id type x y z radius vx vy vz density #
run 154320
Setting up run at Tue Jan  3 06:50:39 2023

Memory usage per processor = 958.989 Mbytes
    Step    Atoms         KinEng            CPU 
  308642      522  0.00014274771              0 
  462962      522  0.00014423352      1475.9685 
Loop time of 1475.97 on 40 procs for 154320 steps with 522 atoms, finish time Tue Jan  3 07:15:15 2023


Pair  time (%) = 0.330877 (0.0224176)
Neigh time (%) = 0.117504 (0.00796116)
Comm  time (%) = 0.880408 (0.0596495)
Outpt time (%) = 0.000537662 (3.64277e-05)
Other time (%) = 1474.64 (99.9099)

Nlocal:    13.05 ave 210 max 0 min
Histogram: 36 0 2 0 0 0 0 0 0 2
Nghost:    6.9 ave 92 max 0 min
Histogram: 36 0 0 0 1 1 0 0 0 2
Neighs:    4.275 ave 72 max 0 min
Histogram: 36 0 2 0 0 0 0 0 0 2

Total # of neighbors = 171
Ave neighs/atom = 0.327586
Neighbor list builds = 412
Dangerous builds = 0
write_dump all custom dump.atom_info_ac_* id type x y z radius vx vy vz density #
run 154320
Setting up run at Tue Jan  3 07:15:15 2023

Memory usage per processor = 958.989 Mbytes
    Step    Atoms         KinEng            CPU 
  462962      522  0.00014423352              0 
  617282      522  7.6652719e-05      1480.2387 
Loop time of 1480.24 on 40 procs for 154320 steps with 522 atoms, finish time Tue Jan  3 07:39:55 2023


Pair  time (%) = 0.329843 (0.0222831)
Neigh time (%) = 0.125685 (0.00849087)
Comm  time (%) = 0.786502 (0.0531335)
Outpt time (%) = 0.000602495 (4.07025e-05)
Other time (%) = 1479 (99.9161)

Nlocal:    13.05 ave 207 max 0 min
Histogram: 36 0 2 0 0 0 0 0 0 2
Nghost:    6.925 ave 90 max 0 min
Histogram: 36 0 0 0 0 1 1 0 0 2
Neighs:    4.1 ave 74 max 0 min
Histogram: 36 1 1 0 0 0 0 1 0 1

Total # of neighbors = 164
Ave neighs/atom = 0.314176
Neighbor list builds = 412
Dangerous builds = 0
write_dump all custom dump.atom_info_ac_* id type x y z radius vx vy vz density #
run 154320
Setting up run at Tue Jan  3 07:39:55 2023

Memory usage per processor = 958.989 Mbytes
    Step    Atoms         KinEng            CPU 
  617282      522  7.6652719e-05              0 
  771602      522   0.0003105504      1483.7939 
Loop time of 1483.79 on 40 procs for 154320 steps with 522 atoms, finish time Tue Jan  3 08:04:39 2023


Pair  time (%) = 0.330729 (0.0222894)
Neigh time (%) = 0.119592 (0.00805991)
Comm  time (%) = 0.844602 (0.0569218)
Outpt time (%) = 0.000540338 (3.64159e-05)
Other time (%) = 1482.5 (99.9127)

Nlocal:    13.05 ave 208 max 0 min
Histogram: 36 0 2 0 0 0 0 0 0 2
Nghost:    6.9 ave 91 max 0 min
Histogram: 36 0 0 0 0 1 1 0 1 1
Neighs:    4 ave 70 max 0 min
Histogram: 36 1 1 0 0 0 0 0 1 1

Total # of neighbors = 160
Ave neighs/atom = 0.306513
Neighbor list builds = 412
Dangerous builds = 0
write_dump all custom dump.atom_info_ac_* id type x y z radius vx vy vz density #
run 154320
Setting up run at Tue Jan  3 08:04:39 2023

Memory usage per processor = 958.989 Mbytes
    Step    Atoms         KinEng            CPU 
  771602      522   0.0003105504              0 
  925922      521   0.0014221772      1468.1927 
Loop time of 1468.22 on 40 procs for 154320 steps with 521 atoms, finish time Tue Jan  3 08:29:07 2023


Pair  time (%) = 0.331655 (0.022589)
Neigh time (%) = 0.20659 (0.0140708)
Comm  time (%) = 0.939905 (0.0640167)
Outpt time (%) = 0.000492991 (3.35775e-05)
Other time (%) = 1466.74 (99.8993)

Nlocal:    13.025 ave 206 max 0 min
Histogram: 36 0 2 0 0 0 0 0 0 2
Nghost:    6.775 ave 86 max 0 min
Histogram: 36 0 0 0 0 1 1 0 1 1
Neighs:    3.975 ave 74 max 0 min
Histogram: 36 2 0 0 0 0 0 1 0 1

Total # of neighbors = 159
Ave neighs/atom = 0.305182
Neighbor list builds = 790
Dangerous builds = 309
write_dump all custom dump.atom_info_ac_* id type x y z radius vx vy vz density #
run 154320
Setting up run at Tue Jan  3 08:29:07 2023

Memory usage per processor = 958.989 Mbytes
    Step    Atoms         KinEng            CPU 
  925922      521   0.0014221772              0 
 1080242      520    0.022340627      1485.3473 
Loop time of 1485.35 on 40 procs for 154320 steps with 520 atoms, finish time Tue Jan  3 08:53:53 2023


Pair  time (%) = 0.333089 (0.022425)
Neigh time (%) = 0.467312 (0.0314615)
Comm  time (%) = 1.34503 (0.0905533)
Outpt time (%) = 0.000526813 (3.54673e-05)
Other time (%) = 1483.2 (99.8555)

Nlocal:    13 ave 204 max 0 min
Histogram: 36 0 2 0 0 0 0 0 0 2
Nghost:    6.825 ave 84 max 0 min
Histogram: 36 0 0 0 0 0 2 0 0 2
Neighs:    4.05 ave 72 max 0 min
Histogram: 36 0 2 0 0 0 0 1 0 1

Total # of neighbors = 162
Ave neighs/atom = 0.311538
Neighbor list builds = 1478
Dangerous builds = 1
write_dump all custom dump.atom_info_ac_* id type x y z radius vx vy vz density #
run 154320
Setting up run at Tue Jan  3 08:53:53 2023

Memory usage per processor = 958.989 Mbytes
    Step    Atoms         KinEng            CPU 
 1080242      520    0.022340627              0 
 1234562      520     0.27909411       1490.054 
Loop time of 1490.05 on 40 procs for 154320 steps with 520 atoms, finish time Tue Jan  3 09:18:43 2023


Pair  time (%) = 0.335076 (0.0224875)
Neigh time (%) = 0.750684 (0.0503796)
Comm  time (%) = 1.53423 (0.102964)
Outpt time (%) = 0.000544993 (3.65754e-05)
Other time (%) = 1487.43 (99.8241)

Nlocal:    13 ave 203 max 0 min
Histogram: 36 0 2 0 0 0 0 0 0 2
Nghost:    6.575 ave 85 max 0 min
Histogram: 36 0 0 0 0 2 0 0 0 2
Neighs:    4.35 ave 76 max 0 min
Histogram: 36 0 2 0 0 0 0 1 0 1

Total # of neighbors = 174
Ave neighs/atom = 0.334615
Neighbor list builds = 2333
Dangerous builds = 0
write_dump all custom dump.atom_info_ac_* id type x y z radius vx vy vz density #
run 154320
Setting up run at Tue Jan  3 09:18:43 2023

Memory usage per processor = 958.989 Mbytes
    Step    Atoms         KinEng            CPU 
 1234562      520     0.27909411              0 
 1388882      515    0.026525225      1477.2749 
Loop time of 1477.27 on 40 procs for 154320 steps with 515 atoms, finish time Tue Jan  3 09:43:20 2023


Pair  time (%) = 0.332455 (0.0225046)
Neigh time (%) = 0.615638 (0.0416739)
Comm  time (%) = 1.4598 (0.0988171)
Outpt time (%) = 0.000525369 (3.55634e-05)
Other time (%) = 1474.87 (99.837)

Nlocal:    12.875 ave 200 max 0 min
Histogram: 36 0 2 0 0 0 0 0 0 2
Nghost:    6.425 ave 84 max 0 min
Histogram: 36 0 0 0 0 2 0 0 1 1
Neighs:    4.275 ave 78 max 0 min
Histogram: 36 0 2 0 0 0 1 0 0 1

Total # of neighbors = 171
Ave neighs/atom = 0.332039
Neighbor list builds = 1950
Dangerous builds = 54
write_dump all custom dump.atom_info_ac_* id type x y z radius vx vy vz density #
run 154320
Setting up run at Tue Jan  3 09:43:20 2023

Memory usage per processor = 958.989 Mbytes
    Step    Atoms         KinEng            CPU 
 1388882      515    0.026525225              0 
 1543202      514      0.0721247      1495.6995 
Loop time of 1495.7 on 40 procs for 154320 steps with 514 atoms, finish time Tue Jan  3 10:08:16 2023


Pair  time (%) = 0.334512 (0.0223649)
Neigh time (%) = 0.88945 (0.0594671)
Comm  time (%) = 1.86849 (0.124924)
Outpt time (%) = 0.00056719 (3.79214e-05)
Other time (%) = 1492.61 (99.7932)

Nlocal:    12.85 ave 196 max 0 min
Histogram: 36 0 1 1 0 0 0 0 0 2
Nghost:    6.3 ave 85 max 0 min
Histogram: 36 0 0 0 0 1 1 0 1 1
Neighs:    4.2 ave 74 max 0 min
Histogram: 36 0 2 0 0 0 0 1 0 1

Total # of neighbors = 168
Ave neighs/atom = 0.326848
Neighbor list builds = 2751
Dangerous builds = 0
write_dump all custom dump.atom_info_ac_* id type x y z radius vx vy vz density #
run 154320
Setting up run at Tue Jan  3 10:08:16 2023

Memory usage per processor = 958.989 Mbytes
    Step    Atoms         KinEng            CPU 
 1543202      514      0.0721247              0 
 1697522      511     0.09378737      1492.6927 
Loop time of 1492.69 on 40 procs for 154320 steps with 511 atoms, finish time Tue Jan  3 10:33:09 2023


Pair  time (%) = 0.332321 (0.0222632)
Neigh time (%) = 1.05802 (0.0708799)
Comm  time (%) = 1.67231 (0.112033)
Outpt time (%) = 0.000605005 (4.05311e-05)
Other time (%) = 1489.63 (99.7948)

Nlocal:    12.775 ave 196 max 0 min
Histogram: 36 0 1 1 0 0 0 0 0 2
Nghost:    6.3 ave 85 max 0 min
Histogram: 36 0 0 0 0 2 0 0 1 1
Neighs:    4.175 ave 71 max 0 min
Histogram: 36 0 1 1 0 0 0 1 0 1

Total # of neighbors = 167
Ave neighs/atom = 0.32681
Neighbor list builds = 3238
Dangerous builds = 3
write_dump all custom dump.atom_info_ac_* id type x y z radius vx vy vz density #
run 154320
Setting up run at Tue Jan  3 10:33:09 2023

Memory usage per processor = 958.989 Mbytes
    Step    Atoms         KinEng            CPU 
 1697522      511     0.09378737              0 
 1851842      507    0.043868868      1526.1385 
Loop time of 1526.14 on 40 procs for 154320 steps with 507 atoms, finish time Tue Jan  3 10:58:35 2023


Pair  time (%) = 0.331229 (0.0217037)
Neigh time (%) = 1.05479 (0.0691152)
Comm  time (%) = 2.00599 (0.131442)
Outpt time (%) = 0.000668333 (4.37924e-05)
Other time (%) = 1522.75 (99.7777)

Nlocal:    12.675 ave 195 max 0 min
Histogram: 36 0 1 1 0 0 0 0 0 2
Nghost:    6.35 ave 87 max 0 min
Histogram: 36 0 0 0 0 2 0 0 1 1
Neighs:    4.05 ave 68 max 0 min
Histogram: 36 0 1 1 0 0 0 1 0 1

Total # of neighbors = 162
Ave neighs/atom = 0.319527
Neighbor list builds = 3207
Dangerous builds = 4
write_dump all custom dump.atom_info_ac_* id type x y z radius vx vy vz density #
run 154320
Setting up run at Tue Jan  3 10:58:35 2023

Memory usage per processor = 958.989 Mbytes
    Step    Atoms         KinEng            CPU 
 1851842      507    0.043868868              0 
 2006162      506    0.022142916      1487.2833 
Loop time of 1487.28 on 40 procs for 154320 steps with 506 atoms, finish time Tue Jan  3 11:23:22 2023


Pair  time (%) = 0.330286 (0.0222073)
Neigh time (%) = 1.16187 (0.07812)
Comm  time (%) = 1.94161 (0.130548)
Outpt time (%) = 0.000619136 (4.16287e-05)
Other time (%) = 1483.85 (99.7691)

Nlocal:    12.65 ave 197 max 0 min
Histogram: 36 0 1 1 0 0 0 0 0 2
Nghost:    6.375 ave 84 max 0 min
Histogram: 36 0 0 0 0 1 1 0 1 1
Neighs:    4.2 ave 68 max 0 min
Histogram: 36 0 1 0 1 0 0 1 0 1

Total # of neighbors = 168
Ave neighs/atom = 0.332016
Neighbor list builds = 3635
Dangerous builds = 311
write_dump all custom dump.atom_info_ac_* id type x y z radius vx vy vz density #
run 154320
Setting up run at Tue Jan  3 11:23:22 2023

Memory usage per processor = 958.989 Mbytes
    Step    Atoms         KinEng            CPU 
 2006162      506    0.022142916              0 
 2160482      503    0.010255235      1494.5987 
Loop time of 1494.6 on 40 procs for 154320 steps with 503 atoms, finish time Tue Jan  3 11:48:17 2023


Pair  time (%) = 0.332396 (0.0222398)
Neigh time (%) = 0.722078 (0.0483125)
Comm  time (%) = 1.97726 (0.132294)
Outpt time (%) = 0.000589625 (3.94504e-05)
Other time (%) = 1491.57 (99.7971)

Nlocal:    12.575 ave 194 max 0 min
Histogram: 36 0 1 1 0 0 0 0 0 2
Nghost:    6.55 ave 90 max 0 min
Histogram: 36 0 0 0 1 1 0 0 1 1
Neighs:    4.375 ave 75 max 0 min
Histogram: 36 0 1 1 0 0 0 1 0 1

Total # of neighbors = 175
Ave neighs/atom = 0.347913
Neighbor list builds = 2241
Dangerous builds = 7
write_dump all custom dump.atom_info_ac_* id type x y z radius vx vy vz density #
run 154320
Setting up run at Tue Jan  3 11:48:17 2023

Memory usage per processor = 958.989 Mbytes
    Step    Atoms         KinEng            CPU 
 2160482      503    0.010255235              0 
 2314802      502     0.56195281      1504.6778 
Loop time of 1504.68 on 40 procs for 154320 steps with 502 atoms, finish time Tue Jan  3 12:13:22 2023


Pair  time (%) = 0.340442 (0.0226256)
Neigh time (%) = 1.4393 (0.0956551)
Comm  time (%) = 2.72035 (0.180793)
Outpt time (%) = 0.000572319 (3.8036e-05)
Other time (%) = 1500.18 (99.7009)

Nlocal:    12.55 ave 200 max 0 min
Histogram: 36 0 2 0 0 0 0 0 0 2
Nghost:    6.05 ave 79 max 0 min
Histogram: 36 0 0 0 0 1 1 0 1 1
Neighs:    4.275 ave 85 max 0 min
Histogram: 36 1 1 0 0 0 1 0 0 1

Total # of neighbors = 171
Ave neighs/atom = 0.340637
Neighbor list builds = 4660
Dangerous builds = 410
write_dump all custom dump.atom_info_ac_* id type x y z radius vx vy vz density #
run 154320
Setting up run at Tue Jan  3 12:13:22 2023

Memory usage per processor = 958.989 Mbytes
    Step    Atoms         KinEng            CPU 
 2314802      502     0.56195281              0 
 2469122      498    0.072513641      1496.1435 
Loop time of 1496.14 on 40 procs for 154320 steps with 498 atoms, finish time Tue Jan  3 12:38:18 2023


Pair  time (%) = 0.340926 (0.022787)
Neigh time (%) = 1.43936 (0.0962047)
Comm  time (%) = 2.84838 (0.190382)
Outpt time (%) = 0.000529532 (3.53931e-05)
Other time (%) = 1491.51 (99.6906)

Nlocal:    12.45 ave 188 max 0 min
Histogram: 36 0 1 1 0 0 0 0 0 2
Nghost:    5.55 ave 78 max 0 min
Histogram: 36 0 0 0 1 0 1 1 0 1
Neighs:    4.325 ave 74 max 0 min
Histogram: 36 1 0 1 0 0 0 0 1 1

Total # of neighbors = 173
Ave neighs/atom = 0.34739
Neighbor list builds = 4406
Dangerous builds = 4
write_dump all custom dump.atom_info_ac_* id type x y z radius vx vy vz density #
run 154320
Setting up run at Tue Jan  3 12:38:18 2023

Memory usage per processor = 958.989 Mbytes
    Step    Atoms         KinEng            CPU 
 2469122      498    0.072513641              0 
 2623442      494    0.026223494      1499.9662 
Loop time of 1499.97 on 40 procs for 154320 steps with 494 atoms, finish time Tue Jan  3 13:03:18 2023


Pair  time (%) = 0.3364 (0.0224272)
Neigh time (%) = 1.18962 (0.07931)
Comm  time (%) = 2.66677 (0.177788)
Outpt time (%) = 0.000530651 (3.53775e-05)
Other time (%) = 1495.77 (99.7204)

Nlocal:    12.35 ave 193 max 0 min
Histogram: 36 1 0 1 0 0 0 0 1 1
Nghost:    5.95 ave 86 max 0 min
Histogram: 36 0 0 0 1 1 0 1 0 1
Neighs:    3.9 ave 75 max 0 min
Histogram: 36 1 1 0 0 0 0 1 0 1

Total # of neighbors = 156
Ave neighs/atom = 0.315789
Neighbor list builds = 3739
Dangerous builds = 217
write_dump all custom dump.atom_info_ac_* id type x y z radius vx vy vz density #
run 154320
Setting up run at Tue Jan  3 13:03:18 2023

Memory usage per processor = 958.989 Mbytes
    Step    Atoms         KinEng            CPU 
 2623442      494    0.026223494              0 
 2777762      490     0.17983869      1529.2331 
Loop time of 1529.23 on 40 procs for 154320 steps with 490 atoms, finish time Tue Jan  3 13:28:47 2023


Pair  time (%) = 0.343241 (0.0224453)
Neigh time (%) = 2.30081 (0.150455)
Comm  time (%) = 5.10146 (0.333596)
Outpt time (%) = 0.000623352 (4.07624e-05)
Other time (%) = 1521.49 (99.4935)

Nlocal:    12.25 ave 192 max 0 min
Histogram: 36 0 2 0 0 0 0 0 1 1
Nghost:    5.8 ave 75 max 0 min
Histogram: 36 0 0 0 1 1 0 0 0 2
Neighs:    3.55 ave 63 max 0 min
Histogram: 36 1 0 1 0 0 0 1 0 1

Total # of neighbors = 142
Ave neighs/atom = 0.289796
Neighbor list builds = 7091
Dangerous builds = 5
write_dump all custom dump.atom_info_ac_* id type x y z radius vx vy vz density #
run 154320
Setting up run at Tue Jan  3 13:28:47 2023

Memory usage per processor = 958.989 Mbytes
    Step    Atoms         KinEng            CPU 
 2777762      490     0.17983869              0 
 2932082      478     0.26731853       1521.832 
Loop time of 1521.83 on 40 procs for 154320 steps with 478 atoms, finish time Tue Jan  3 13:54:09 2023


Pair  time (%) = 0.342266 (0.0224904)
Neigh time (%) = 2.24455 (0.14749)
Comm  time (%) = 6.11409 (0.401758)
Outpt time (%) = 0.000514128 (3.37835e-05)
Other time (%) = 1513.13 (99.4282)

Nlocal:    11.95 ave 195 max 0 min
Histogram: 36 0 2 0 0 0 0 1 0 1
Nghost:    6.025 ave 77 max 0 min
Histogram: 36 0 0 0 0 1 1 0 1 1
Neighs:    3.45 ave 63 max 0 min
Histogram: 36 1 1 0 0 0 0 1 0 1

Total # of neighbors = 138
Ave neighs/atom = 0.288703
Neighbor list builds = 6982
Dangerous builds = 53
write_dump all custom dump.atom_info_ac_* id type x y z radius vx vy vz density #
run 154320
Setting up run at Tue Jan  3 13:54:09 2023

Memory usage per processor = 958.989 Mbytes
    Step    Atoms         KinEng            CPU 
 2932082      478     0.26731853              0 
 3086402      467     0.48018401      1517.2255 
Loop time of 1517.23 on 40 procs for 154320 steps with 467 atoms, finish time Tue Jan  3 14:19:26 2023


Pair  time (%) = 0.342206 (0.0225547)
Neigh time (%) = 2.12153 (0.13983)
Comm  time (%) = 5.12555 (0.337824)
Outpt time (%) = 0.000555953 (3.66427e-05)
Other time (%) = 1509.64 (99.4998)

Nlocal:    11.675 ave 197 max 0 min
Histogram: 36 0 2 0 0 0 0 1 0 1
Nghost:    5.625 ave 70 max 0 min
Histogram: 36 0 0 0 0 1 1 0 0 2
Neighs:    3.275 ave 69 max 0 min
Histogram: 36 2 0 0 0 1 0 0 0 1

Total # of neighbors = 131
Ave neighs/atom = 0.280514
Neighbor list builds = 6678
Dangerous builds = 370
write_dump all custom dump.atom_info_ac_* id type x y z radius vx vy vz density #
run 154320
Setting up run at Tue Jan  3 14:19:27 2023

Memory usage per processor = 958.989 Mbytes
    Step    Atoms         KinEng            CPU 
 3086402      467     0.48018401              0 
 3240722      458     0.18285617      1519.5149 
Loop time of 1519.52 on 40 procs for 154320 steps with 458 atoms, finish time Tue Jan  3 14:44:46 2023


Pair  time (%) = 0.341628 (0.0224827)
Neigh time (%) = 2.30048 (0.151396)
Comm  time (%) = 4.46367 (0.293756)
Outpt time (%) = 0.000551103 (3.62684e-05)
Other time (%) = 1512.41 (99.5323)

Nlocal:    11.45 ave 195 max 0 min
Histogram: 36 1 1 0 0 0 1 0 0 1
Nghost:    5.425 ave 67 max 0 min
Histogram: 36 0 0 0 0 2 0 0 0 2
Neighs:    2.975 ave 68 max 0 min
Histogram: 36 2 0 0 1 0 0 0 0 1

Total # of neighbors = 119
Ave neighs/atom = 0.259825
Neighbor list builds = 7090
Dangerous builds = 16
write_dump all custom dump.atom_info_ac_* id type x y z radius vx vy vz density #
run 154320
Setting up run at Tue Jan  3 14:44:46 2023

Memory usage per processor = 958.989 Mbytes
    Step    Atoms         KinEng            CPU 
 3240722      458     0.18285617              0 
 3395042      448     0.41968283      1517.5009 
Loop time of 1517.5 on 40 procs for 154320 steps with 448 atoms, finish time Tue Jan  3 15:10:04 2023


Pair  time (%) = 0.335158 (0.0220862)
Neigh time (%) = 1.93575 (0.127562)
Comm  time (%) = 4.27538 (0.281739)
Outpt time (%) = 0.000575481 (3.79229e-05)
Other time (%) = 1510.95 (99.5686)

Nlocal:    11.2 ave 196 max 0 min
Histogram: 36 1 1 0 0 0 1 0 0 1
Nghost:    5.275 ave 65 max 0 min
Histogram: 36 0 0 0 0 1 1 0 0 2
Neighs:    2.675 ave 65 max 0 min
Histogram: 36 2 0 1 0 0 0 0 0 1

Total # of neighbors = 107
Ave neighs/atom = 0.238839
Neighbor list builds = 5914
Dangerous builds = 7
write_dump all custom dump.atom_info_ac_* id type x y z radius vx vy vz density #
run 154320
Setting up run at Tue Jan  3 15:10:04 2023

Memory usage per processor = 958.989 Mbytes
    Step    Atoms         KinEng            CPU 
 3395042      448     0.41968283              0 
 3549362      438     0.30121714       1510.095 
Loop time of 1510.09 on 40 procs for 154320 steps with 438 atoms, finish time Tue Jan  3 15:35:14 2023


Pair  time (%) = 0.338468 (0.0224137)
Neigh time (%) = 2.35178 (0.155737)
Comm  time (%) = 5.37421 (0.355885)
Outpt time (%) = 0.000554347 (3.67094e-05)
Other time (%) = 1502.03 (99.4659)

Nlocal:    10.95 ave 197 max 0 min
Histogram: 36 1 1 0 0 0 1 0 0 1
Nghost:    4.825 ave 59 max 0 min
Histogram: 36 0 0 0 0 1 1 0 0 2
Neighs:    2.75 ave 67 max 0 min
Histogram: 36 2 0 1 0 0 0 0 0 1

Total # of neighbors = 110
Ave neighs/atom = 0.251142
Neighbor list builds = 7195
Dangerous builds = 7
write_dump all custom dump.atom_info_ac_* id type x y z radius vx vy vz density #
run 154320
Setting up run at Tue Jan  3 15:35:14 2023

Memory usage per processor = 958.989 Mbytes
    Step    Atoms         KinEng            CPU 
 3549362      438     0.30121714              0 
 3703682      430      0.3853174      1514.7116 
Loop time of 1514.71 on 40 procs for 154320 steps with 430 atoms, finish time Tue Jan  3 16:00:29 2023


Pair  time (%) = 0.331704 (0.0218988)
Neigh time (%) = 1.95457 (0.129039)
Comm  time (%) = 3.70111 (0.244344)
Outpt time (%) = 0.000694632 (4.5859e-05)
Other time (%) = 1508.72 (99.6047)

Nlocal:    10.75 ave 197 max 0 min
Histogram: 36 1 1 0 0 1 0 0 0 1
Nghost:    4.675 ave 59 max 0 min
Histogram: 36 0 0 0 0 1 1 0 1 1
Neighs:    2.475 ave 61 max 0 min
Histogram: 36 2 0 1 0 0 0 0 0 1

Total # of neighbors = 99
Ave neighs/atom = 0.230233
Neighbor list builds = 6086
Dangerous builds = 325
write_dump all custom dump.atom_info_ac_* id type x y z radius vx vy vz density #
run 154320
Setting up run at Tue Jan  3 16:00:29 2023

Memory usage per processor = 958.989 Mbytes
    Step    Atoms         KinEng            CPU 
 3703682      430      0.3853174              0 
 3858002      419     0.26105609      1525.1306 
Loop time of 1525.13 on 40 procs for 154320 steps with 419 atoms, finish time Tue Jan  3 16:25:54 2023


Pair  time (%) = 0.329211 (0.0215857)
Neigh time (%) = 2.73055 (0.179037)
Comm  time (%) = 5.59972 (0.367163)
Outpt time (%) = 0.000554357 (3.63482e-05)
Other time (%) = 1516.47 (99.4322)

Nlocal:    10.475 ave 202 max 0 min
Histogram: 36 1 1 0 0 1 0 0 0 1
Nghost:    4.175 ave 51 max 0 min
Histogram: 36 0 0 0 0 1 1 0 0 2
Neighs:    2.225 ave 56 max 0 min
Histogram: 36 2 0 1 0 0 0 0 0 1

Total # of neighbors = 89
Ave neighs/atom = 0.212411
Neighbor list builds = 8423
Dangerous builds = 131
write_dump all custom dump.atom_info_ac_* id type x y z radius vx vy vz density #
run 154320
Setting up run at Tue Jan  3 16:25:54 2023

Memory usage per processor = 958.989 Mbytes
    Step    Atoms         KinEng            CPU 
 3858002      419     0.26105609              0 
 4012322      405      0.4877356      1523.6854 
Loop time of 1523.69 on 40 procs for 154320 steps with 405 atoms, finish time Tue Jan  3 16:51:18 2023


Pair  time (%) = 0.32552 (0.021364)
Neigh time (%) = 2.66825 (0.175118)
Comm  time (%) = 5.07321 (0.332957)
Outpt time (%) = 0.00057974 (3.80485e-05)
Other time (%) = 1515.62 (99.4705)

Nlocal:    10.125 ave 199 max 0 min
Histogram: 36 1 1 0 0 1 0 0 0 1
Nghost:    4.275 ave 58 max 0 min
Histogram: 36 0 0 0 1 1 0 0 1 1
Neighs:    2.025 ave 56 max 0 min
Histogram: 36 2 1 0 0 0 0 0 0 1

Total # of neighbors = 81
Ave neighs/atom = 0.2
Neighbor list builds = 8193
Dangerous builds = 91
write_dump all custom dump.atom_info_ac_* id type x y z radius vx vy vz density #
run 154320
Setting up run at Tue Jan  3 16:51:18 2023

Memory usage per processor = 958.989 Mbytes
    Step    Atoms         KinEng            CPU 
 4012322      405      0.4877356              0 
 4166642      396     0.20497289      1506.9938 
Loop time of 1506.99 on 40 procs for 154320 steps with 396 atoms, finish time Tue Jan  3 17:16:25 2023


Pair  time (%) = 0.322797 (0.0214199)
Neigh time (%) = 1.88289 (0.124944)
Comm  time (%) = 3.40865 (0.226188)
Outpt time (%) = 0.000634905 (4.21306e-05)
Other time (%) = 1501.38 (99.6274)

Nlocal:    9.9 ave 198 max 0 min
Histogram: 36 2 0 0 0 1 0 0 0 1
Nghost:    4.025 ave 55 max 0 min
Histogram: 36 0 0 0 1 0 1 0 1 1
Neighs:    2.225 ave 63 max 0 min
Histogram: 38 0 1 0 0 0 0 0 0 1

Total # of neighbors = 89
Ave neighs/atom = 0.224747
Neighbor list builds = 5772
Dangerous builds = 194
write_dump all custom dump.atom_info_ac_* id type x y z radius vx vy vz density #
run 154320
Setting up run at Tue Jan  3 17:16:25 2023

Memory usage per processor = 958.989 Mbytes
    Step    Atoms         KinEng            CPU 
 4166642      396     0.20497289              0 
 4320962      387      0.1514528      1506.5972 
Loop time of 1506.6 on 40 procs for 154320 steps with 387 atoms, finish time Tue Jan  3 17:41:31 2023


Pair  time (%) = 0.318437 (0.0211362)
Neigh time (%) = 1.80687 (0.119931)
Comm  time (%) = 3.28218 (0.217854)
Outpt time (%) = 0.00322438 (0.000214017)
Other time (%) = 1501.19 (99.6409)

Nlocal:    9.675 ave 187 max 0 min
Histogram: 36 1 1 0 0 1 0 0 0 1
Nghost:    4.6 ave 65 max 0 min
Histogram: 36 0 0 0 1 1 0 0 1 1
Neighs:    1.8 ave 46 max 0 min
Histogram: 36 2 1 0 0 0 0 0 0 1

Total # of neighbors = 72
Ave neighs/atom = 0.186047
Neighbor list builds = 5452
Dangerous builds = 4
write_dump all custom dump.atom_info_ac_* id type x y z radius vx vy vz density #
run 154320
Setting up run at Tue Jan  3 17:41:31 2023

Memory usage per processor = 958.989 Mbytes
    Step    Atoms         KinEng            CPU 
 4320962      387      0.1514528              0 
 4475282      378     0.15958323      1512.9131 
Loop time of 1512.91 on 40 procs for 154320 steps with 378 atoms, finish time Tue Jan  3 18:06:44 2023


Pair  time (%) = 0.322165 (0.0212944)
Neigh time (%) = 1.68874 (0.111622)
Comm  time (%) = 3.07653 (0.203351)
Outpt time (%) = 0.000574919 (3.80008e-05)
Other time (%) = 1507.83 (99.6637)

Nlocal:    9.45 ave 161 max 0 min
Histogram: 36 0 1 1 0 0 1 0 0 1
Nghost:    4.3 ave 62 max 0 min
Histogram: 36 0 0 1 0 1 0 0 1 1
Neighs:    1.575 ave 34 max 0 min
Histogram: 36 1 0 2 0 0 0 0 0 1

Total # of neighbors = 63
Ave neighs/atom = 0.166667
Neighbor list builds = 5441
Dangerous builds = 866
write_dump all custom dump.atom_info_ac_* id type x y z radius vx vy vz density #
run 154320
Setting up run at Tue Jan  3 18:06:44 2023

Memory usage per processor = 958.989 Mbytes
    Step    Atoms         KinEng            CPU 
 4475282      378     0.15958323              0 
 4629602      370      1.0122002      1514.0311 
Loop time of 1514.03 on 40 procs for 154320 steps with 370 atoms, finish time Tue Jan  3 18:31:58 2023


Pair  time (%) = 0.320364 (0.0211597)
Neigh time (%) = 1.98739 (0.131265)
Comm  time (%) = 4.84516 (0.320017)
Outpt time (%) = 0.0237903 (0.00157132)
Other time (%) = 1506.85 (99.526)

Nlocal:    9.25 ave 153 max 0 min
Histogram: 36 0 2 0 0 0 0 1 0 1
Nghost:    4.175 ave 53 max 0 min
Histogram: 36 0 0 0 1 0 1 0 0 2
Neighs:    1.35 ave 22 max 0 min
Histogram: 36 0 0 1 1 0 1 0 0 1

Total # of neighbors = 54
Ave neighs/atom = 0.145946
Neighbor list builds = 6073
Dangerous builds = 5
write_dump all custom dump.atom_info_ac_* id type x y z radius vx vy vz density #
run 154320
Setting up run at Tue Jan  3 18:31:59 2023

Memory usage per processor = 958.989 Mbytes
    Step    Atoms         KinEng            CPU 
 4629602      370      1.0122002              0 
 4783922      362     0.11395204      1502.3364 
Loop time of 1502.34 on 40 procs for 154320 steps with 362 atoms, finish time Tue Jan  3 18:57:01 2023


Pair  time (%) = 0.311233 (0.0207166)
Neigh time (%) = 1.64281 (0.10935)
Comm  time (%) = 3.66122 (0.243702)
Outpt time (%) = 0.000667763 (4.44483e-05)
Other time (%) = 1496.72 (99.6262)

Nlocal:    9.05 ave 143 max 0 min
Histogram: 36 0 2 0 0 0 0 1 0 1
Nghost:    3.925 ave 54 max 0 min
Histogram: 36 0 0 1 0 1 0 0 0 2
Neighs:    1.325 ave 20 max 0 min
Histogram: 36 0 0 0 2 0 0 0 1 1

Total # of neighbors = 53
Ave neighs/atom = 0.146409
Neighbor list builds = 5104
Dangerous builds = 339
write_dump all custom dump.atom_info_ac_* id type x y z radius vx vy vz density #
run 154320
Setting up run at Tue Jan  3 18:57:01 2023

Memory usage per processor = 958.989 Mbytes
    Step    Atoms         KinEng            CPU 
 4783922      362     0.11395204              0 
 4938242      354     0.13755031      1505.5882 
Loop time of 1505.59 on 40 procs for 154320 steps with 354 atoms, finish time Tue Jan  3 19:22:07 2023


Pair  time (%) = 0.31114 (0.0206657)
Neigh time (%) = 1.70387 (0.113169)
Comm  time (%) = 4.39202 (0.291714)
Outpt time (%) = 0.000638748 (4.24252e-05)
Other time (%) = 1499.18 (99.5744)

Nlocal:    8.85 ave 137 max 0 min
Histogram: 36 0 2 0 0 0 0 1 0 1
Nghost:    3.55 ave 50 max 0 min
Histogram: 36 0 0 1 0 1 0 0 1 1
Neighs:    1.15 ave 21 max 0 min
Histogram: 36 0 1 1 0 1 0 0 0 1

Total # of neighbors = 46
Ave neighs/atom = 0.129944
Neighbor list builds = 5230
Dangerous builds = 128
write_dump all custom dump.atom_info_ac_* id type x y z radius vx vy vz density #
run 154320
Setting up run at Tue Jan  3 19:22:07 2023

Memory usage per processor = 958.989 Mbytes
    Step    Atoms         KinEng            CPU 
 4938242      354     0.13755031              0 
 5092562      342     0.10290357      1511.5065 
Loop time of 1511.51 on 40 procs for 154320 steps with 342 atoms, finish time Tue Jan  3 19:47:18 2023


Pair  time (%) = 0.310741 (0.0205584)
Neigh time (%) = 1.68337 (0.11137)
Comm  time (%) = 3.43503 (0.227259)
Outpt time (%) = 0.0030337 (0.000200707)
Other time (%) = 1506.07 (99.6406)

Nlocal:    8.55 ave 130 max 0 min
Histogram: 36 0 2 0 0 0 0 1 0 1
Nghost:    3.575 ave 50 max 0 min
Histogram: 36 0 0 1 0 1 0 0 1 1
Neighs:    1.2 ave 23 max 0 min
Histogram: 36 0 1 1 1 0 0 0 0 1

Total # of neighbors = 48
Ave neighs/atom = 0.140351
Neighbor list builds = 5168
Dangerous builds = 7
write_dump all custom dump.atom_info_ac_* id type x y z radius vx vy vz density #
run 154320
Setting up run at Tue Jan  3 19:47:18 2023

Memory usage per processor = 958.989 Mbytes
    Step    Atoms         KinEng            CPU 
 5092562      342     0.10290357              0 
 5246882      330     0.49850886      1531.4184 
Loop time of 1531.42 on 40 procs for 154320 steps with 330 atoms, finish time Tue Jan  3 20:12:50 2023


Pair  time (%) = 0.318096 (0.0207713)
Neigh time (%) = 3.03316 (0.198062)
Comm  time (%) = 5.81013 (0.379396)
Outpt time (%) = 0.000565298 (3.69133e-05)
Other time (%) = 1522.26 (99.4017)

Nlocal:    8.25 ave 128 max 0 min
Histogram: 36 0 1 1 0 0 0 1 0 1
Nghost:    3.7 ave 48 max 0 min
Histogram: 36 0 0 1 0 0 1 0 1 1
Neighs:    0.95 ave 19 max 0 min
Histogram: 36 1 0 1 0 1 0 0 0 1

Total # of neighbors = 38
Ave neighs/atom = 0.115152
Neighbor list builds = 9437
Dangerous builds = 157
write_dump all custom dump.atom_info_ac_* id type x y z radius vx vy vz density #
run 154320
Setting up run at Tue Jan  3 20:12:50 2023

Memory usage per processor = 958.989 Mbytes
    Step    Atoms         KinEng            CPU 
 5246882      330     0.49850886              0 
 5401202      321     0.67353076      1541.2027 
Loop time of 1541.2 on 40 procs for 154320 steps with 321 atoms, finish time Tue Jan  3 20:38:31 2023


Pair  time (%) = 0.317339 (0.0205903)
Neigh time (%) = 2.24785 (0.145851)
Comm  time (%) = 3.66877 (0.238046)
Outpt time (%) = 0.000570722 (3.70309e-05)
Other time (%) = 1534.97 (99.5955)

Nlocal:    8.025 ave 123 max 0 min
Histogram: 36 1 0 1 0 0 0 0 1 1
Nghost:    3.325 ave 49 max 0 min
Histogram: 36 0 0 1 0 1 0 1 0 1
Neighs:    1 ave 21 max 0 min
Histogram: 36 1 0 1 1 0 0 0 0 1

Total # of neighbors = 40
Ave neighs/atom = 0.124611
Neighbor list builds = 6810
Dangerous builds = 9
write_dump all custom dump.atom_info_ac_* id type x y z radius vx vy vz density #
run 154320
Setting up run at Tue Jan  3 20:38:31 2023

Memory usage per processor = 958.989 Mbytes
    Step    Atoms         KinEng            CPU 
 5401202      321     0.67353076              0 
 5555522      312     0.23971084      1527.7174 
Loop time of 1527.72 on 40 procs for 154320 steps with 312 atoms, finish time Tue Jan  3 21:03:59 2023


Pair  time (%) = 0.317373 (0.0207744)
Neigh time (%) = 2.46719 (0.161495)
Comm  time (%) = 4.71633 (0.308718)
Outpt time (%) = 0.000692986 (4.53609e-05)
Other time (%) = 1520.22 (99.509)

Nlocal:    7.8 ave 121 max 0 min
Histogram: 36 1 0 1 0 0 0 1 0 1
Nghost:    3.1 ave 44 max 0 min
Histogram: 36 0 0 1 0 1 0 0 1 1
Neighs:    0.8 ave 19 max 0 min
Histogram: 37 0 0 2 0 0 0 0 0 1

Total # of neighbors = 32
Ave neighs/atom = 0.102564
Neighbor list builds = 7612
Dangerous builds = 25
write_dump all custom dump.atom_info_ac_* id type x y z radius vx vy vz density #
run 154320
Setting up run at Tue Jan  3 21:03:59 2023

Memory usage per processor = 958.989 Mbytes
    Step    Atoms         KinEng            CPU 
 5555522      312     0.23971084              0 
 5709842      306     0.22925964      1505.2029 
Loop time of 1505.2 on 40 procs for 154320 steps with 306 atoms, finish time Tue Jan  3 21:29:04 2023


Pair  time (%) = 0.307241 (0.020412)
Neigh time (%) = 1.58466 (0.105279)
Comm  time (%) = 2.79053 (0.185392)
Outpt time (%) = 0.000588508 (3.90983e-05)
Other time (%) = 1500.52 (99.6889)

Nlocal:    7.65 ave 121 max 0 min
Histogram: 36 1 0 1 0 0 0 1 0 1
Nghost:    2.825 ave 36 max 0 min
Histogram: 36 0 0 1 0 0 1 0 0 2
Neighs:    0.55 ave 14 max 0 min
Histogram: 37 1 0 1 0 0 0 0 0 1

Total # of neighbors = 22
Ave neighs/atom = 0.0718954
Neighbor list builds = 4961
Dangerous builds = 453
write_dump all custom dump.atom_info_ac_* id type x y z radius vx vy vz density #
run 154320
Setting up run at Tue Jan  3 21:29:04 2023

Memory usage per processor = 958.989 Mbytes
    Step    Atoms         KinEng            CPU 
 5709842      306     0.22925964              0 
 5864162      296     0.20231634      1502.4168 
Loop time of 1502.42 on 40 procs for 154320 steps with 296 atoms, finish time Tue Jan  3 21:54:07 2023


Pair  time (%) = 0.309697 (0.0206132)
Neigh time (%) = 1.92147 (0.127892)
Comm  time (%) = 3.65091 (0.243002)
Outpt time (%) = 0.000498369 (3.31711e-05)
Other time (%) = 1496.53 (99.6085)

Nlocal:    7.4 ave 120 max 0 min
Histogram: 36 0 2 0 0 0 0 1 0 1
Nghost:    2.625 ave 35 max 0 min
Histogram: 36 0 0 1 0 0 1 0 1 1
Neighs:    0.725 ave 14 max 0 min
Histogram: 36 1 0 0 1 1 0 0 0 1

Total # of neighbors = 29
Ave neighs/atom = 0.097973
Neighbor list builds = 5971
Dangerous builds = 347
write_dump all custom dump.atom_info_ac_* id type x y z radius vx vy vz density #
run 154320
Setting up run at Tue Jan  3 21:54:07 2023

Memory usage per processor = 958.989 Mbytes
    Step    Atoms         KinEng            CPU 
 5864162      296     0.20231634              0 
 6018482      288     0.19577988      1524.5596 
Loop time of 1524.56 on 40 procs for 154320 steps with 288 atoms, finish time Tue Jan  3 22:19:31 2023


Pair  time (%) = 0.312696 (0.0205106)
Neigh time (%) = 2.30844 (0.151417)
Comm  time (%) = 4.45915 (0.292488)
Outpt time (%) = 0.00056967 (3.73662e-05)
Other time (%) = 1517.48 (99.5355)

Nlocal:    7.2 ave 115 max 0 min
Histogram: 36 0 2 0 0 0 0 1 0 1
Nghost:    2.65 ave 33 max 0 min
Histogram: 36 0 0 1 0 0 0 1 0 2
Neighs:    0.475 ave 10 max 0 min
Histogram: 36 1 0 1 0 1 0 0 0 1

Total # of neighbors = 19
Ave neighs/atom = 0.0659722
Neighbor list builds = 7121
Dangerous builds = 408
write_dump all custom dump.atom_info_ac_* id type x y z radius vx vy vz density #
run 154320
Setting up run at Tue Jan  3 22:19:31 2023

Memory usage per processor = 958.989 Mbytes
    Step    Atoms         KinEng            CPU 
 6018482      288     0.19577988              0 
 6172802      285     0.13120354      1518.0962 
Loop time of 1518.1 on 40 procs for 154320 steps with 285 atoms, finish time Tue Jan  3 22:44:50 2023


Pair  time (%) = 0.31062 (0.0204612)
Neigh time (%) = 1.92072 (0.126522)
Comm  time (%) = 3.37917 (0.222592)
Outpt time (%) = 0.000540356 (3.55943e-05)
Other time (%) = 1512.49 (99.6304)

Nlocal:    7.125 ave 109 max 0 min
Histogram: 36 1 0 1 0 0 0 0 1 1
Nghost:    2.85 ave 37 max 0 min
Histogram: 36 0 0 0 1 0 0 1 1 1
Neighs:    0.575 ave 11 max 0 min
Histogram: 36 0 1 1 1 0 0 0 0 1

Total # of neighbors = 23
Ave neighs/atom = 0.0807018
Neighbor list builds = 5842
Dangerous builds = 0
write_dump all custom dump.atom_info_ac_* id type x y z radius vx vy vz density #
run 154320
Setting up run at Tue Jan  3 22:44:50 2023

Memory usage per processor = 958.989 Mbytes
    Step    Atoms         KinEng            CPU 
 6172802      285     0.13120354              0 
 6327122      275    0.043853665      1500.9759 
Loop time of 1500.99 on 40 procs for 154320 steps with 275 atoms, finish time Tue Jan  3 23:09:51 2023


Pair  time (%) = 0.306812 (0.0204407)
Neigh time (%) = 1.59764 (0.10644)
Comm  time (%) = 3.42386 (0.228108)
Outpt time (%) = 0.0134431 (0.000895616)
Other time (%) = 1495.65 (99.6441)

Nlocal:    6.875 ave 103 max 0 min
Histogram: 36 1 0 1 0 0 0 0 1 1
Nghost:    2.775 ave 39 max 0 min
Histogram: 36 0 0 1 0 0 1 1 0 1
Neighs:    0.7 ave 11 max 0 min
Histogram: 36 1 0 0 0 0 1 1 0 1

Total # of neighbors = 28
Ave neighs/atom = 0.101818
Neighbor list builds = 4958
Dangerous builds = 6
write_dump all custom dump.atom_info_ac_* id type x y z radius vx vy vz density #
run 154320
Setting up run at Tue Jan  3 23:09:51 2023

Memory usage per processor = 958.989 Mbytes
    Step    Atoms         KinEng            CPU 
 6327122      275    0.043853665              0 
 6481442      268    0.038303712      1500.4073 
Loop time of 1500.41 on 40 procs for 154320 steps with 268 atoms, finish time Tue Jan  3 23:34:52 2023


Pair  time (%) = 0.307136 (0.0204702)
Neigh time (%) = 1.54075 (0.102689)
Comm  time (%) = 2.18843 (0.145856)
Outpt time (%) = 0.000531864 (3.5448e-05)
Other time (%) = 1496.37 (99.7309)

Nlocal:    6.7 ave 103 max 0 min
Histogram: 36 1 0 1 0 0 0 0 1 1
Nghost:    2.65 ave 35 max 0 min
Histogram: 36 0 0 0 1 0 1 0 1 1
Neighs:    0.55 ave 10 max 0 min
Histogram: 36 0 1 1 0 0 0 1 0 1

Total # of neighbors = 22
Ave neighs/atom = 0.0820896
Neighbor list builds = 4682
Dangerous builds = 4
write_dump all custom dump.atom_info_ac_* id type x y z radius vx vy vz density #
run 154320
Setting up run at Tue Jan  3 23:34:52 2023

Memory usage per processor = 958.989 Mbytes
    Step    Atoms         KinEng            CPU 
 6481442      268    0.038303712              0 
 6635762      264     0.02241598      1504.2269 
Loop time of 1504.23 on 40 procs for 154320 steps with 264 atoms, finish time Tue Jan  3 23:59:56 2023


Pair  time (%) = 0.298797 (0.0198638)
Neigh time (%) = 1.33549 (0.0887822)
Comm  time (%) = 2.17435 (0.144549)
Outpt time (%) = 0.000619816 (4.1205e-05)
Other time (%) = 1500.42 (99.7468)

Nlocal:    6.6 ave 100 max 0 min
Histogram: 36 1 0 1 0 0 0 0 0 2
Nghost:    2.725 ave 36 max 0 min
Histogram: 36 0 0 0 0 1 0 2 0 1
Neighs:    0.625 ave 12 max 0 min
Histogram: 37 0 0 1 0 0 1 0 0 1

Total # of neighbors = 25
Ave neighs/atom = 0.094697
Neighbor list builds = 4066
Dangerous builds = 148
write_dump all custom dump.atom_info_ac_* id type x y z radius vx vy vz density #
run 154320
Setting up run at Tue Jan  3 23:59:56 2023

Memory usage per processor = 958.989 Mbytes
    Step    Atoms         KinEng            CPU 
 6635762      264     0.02241598              0 
 6790082      263      0.1208952      1487.4767 
Loop time of 1487.48 on 40 procs for 154320 steps with 263 atoms, finish time Wed Jan  4 00:24:44 2023


Pair  time (%) = 0.297498 (0.0200002)
Neigh time (%) = 1.14384 (0.0768983)
Comm  time (%) = 1.65929 (0.111551)
Outpt time (%) = 0.00064054 (4.30622e-05)
Other time (%) = 1484.38 (99.7915)

Nlocal:    6.575 ave 98 max 0 min
Histogram: 36 1 0 1 0 0 0 0 0 2
Nghost:    2.6 ave 37 max 0 min
Histogram: 36 0 0 0 1 1 0 1 0 1
Neighs:    0.425 ave 8 max 0 min
Histogram: 36 1 1 0 0 0 0 1 0 1

Total # of neighbors = 17
Ave neighs/atom = 0.0646388
Neighbor list builds = 3436
Dangerous builds = 1
write_dump all custom dump.atom_info_ac_* id type x y z radius vx vy vz density #
run 154320
Setting up run at Wed Jan  4 00:24:44 2023

Memory usage per processor = 958.989 Mbytes
    Step    Atoms         KinEng            CPU 
 6790082      263      0.1208952              0 
 6944402      260     0.18825147      1509.4718 
Loop time of 1509.47 on 40 procs for 154320 steps with 260 atoms, finish time Wed Jan  4 00:49:53 2023


Pair  time (%) = 0.297535 (0.0197112)
Neigh time (%) = 1.33908 (0.0887117)
Comm  time (%) = 1.85225 (0.122709)
Outpt time (%) = 0.000533015 (3.53113e-05)
Other time (%) = 1505.98 (99.7688)

Nlocal:    6.5 ave 99 max 0 min
Histogram: 35 2 1 0 0 0 0 0 0 2
Nghost:    2.625 ave 35 max 0 min
Histogram: 36 0 0 0 1 0 1 0 1 1
Neighs:    0.625 ave 10 max 0 min
Histogram: 35 1 2 0 0 0 0 0 0 2

Total # of neighbors = 25
Ave neighs/atom = 0.0961538
Neighbor list builds = 4065
Dangerous builds = 1
write_dump all custom dump.atom_info_ac_* id type x y z radius vx vy vz density #
run 154320
Setting up run at Wed Jan  4 00:49:53 2023

Memory usage per processor = 958.989 Mbytes
    Step    Atoms         KinEng            CPU 
 6944402      260     0.18825147              0 
 7098722      256      0.2371128      1510.0764 
Loop time of 1510.08 on 40 procs for 154320 steps with 256 atoms, finish time Wed Jan  4 01:15:03 2023


Pair  time (%) = 0.299102 (0.0198071)
Neigh time (%) = 1.68447 (0.111548)
Comm  time (%) = 3.09256 (0.204795)
Outpt time (%) = 0.000656161 (4.34522e-05)
Other time (%) = 1505 (99.6638)

Nlocal:    6.4 ave 99 max 0 min
Histogram: 36 0 2 0 0 0 0 0 1 1
Nghost:    2.75 ave 34 max 0 min
Histogram: 36 0 0 0 1 0 1 0 0 2
Neighs:    0.45 ave 8 max 0 min
Histogram: 36 1 1 0 0 0 0 0 1 1

Total # of neighbors = 18
Ave neighs/atom = 0.0703125
Neighbor list builds = 5046
Dangerous builds = 3
write_dump all custom dump.atom_info_ac_* id type x y z radius vx vy vz density #
run 154320
Setting up run at Wed Jan  4 01:15:03 2023

Memory usage per processor = 958.989 Mbytes
    Step    Atoms         KinEng            CPU 
 7098722      256      0.2371128              0 
 7253042      250     0.30641802      1509.9837 
Loop time of 1509.98 on 40 procs for 154320 steps with 250 atoms, finish time Wed Jan  4 01:40:13 2023


Pair  time (%) = 0.297427 (0.0196974)
Neigh time (%) = 1.73473 (0.114884)
Comm  time (%) = 3.08731 (0.20446)
Outpt time (%) = 0.0206424 (0.00136706)
Other time (%) = 1504.84 (99.6596)

Nlocal:    6.25 ave 97 max 0 min
Histogram: 36 1 1 0 0 0 0 0 0 2
Nghost:    2.7 ave 33 max 0 min
Histogram: 36 0 0 0 0 1 1 0 0 2
Neighs:    0.525 ave 9 max 0 min
Histogram: 36 1 0 0 1 0 0 1 0 1

Total # of neighbors = 21
Ave neighs/atom = 0.084
Neighbor list builds = 5297
Dangerous builds = 4
write_dump all custom dump.atom_info_ac_* id type x y z radius vx vy vz density #
run 154320
Setting up run at Wed Jan  4 01:40:13 2023

Memory usage per processor = 958.989 Mbytes
    Step    Atoms         KinEng            CPU 
 7253042      250     0.30641802              0 
 7407362      239     0.03940708      1503.3219 
Loop time of 1503.32 on 40 procs for 154320 steps with 239 atoms, finish time Wed Jan  4 02:05:17 2023


Pair  time (%) = 0.300578 (0.0199943)
Neigh time (%) = 1.93446 (0.128679)
Comm  time (%) = 2.93957 (0.195538)
Outpt time (%) = 0.000561241 (3.73334e-05)
Other time (%) = 1498.15 (99.6558)

Nlocal:    5.975 ave 95 max 0 min
Histogram: 36 1 1 0 0 0 0 0 0 2
Nghost:    2.45 ave 32 max 0 min
Histogram: 36 0 0 0 1 0 1 0 1 1
Neighs:    0.325 ave 5 max 0 min
Histogram: 36 0 1 0 0 0 1 0 1 1

Total # of neighbors = 13
Ave neighs/atom = 0.0543933
Neighbor list builds = 6306
Dangerous builds = 1018
write_dump all custom dump.atom_info_ac_* id type x y z radius vx vy vz density #
run 154320
Setting up run at Wed Jan  4 02:05:17 2023

Memory usage per processor = 958.989 Mbytes
    Step    Atoms         KinEng            CPU 
 7407362      239     0.03940708              0 
 7561682      235     0.10190877      1492.6499 
Loop time of 1492.65 on 40 procs for 154320 steps with 235 atoms, finish time Wed Jan  4 02:30:10 2023


Pair  time (%) = 0.29498 (0.0197622)
Neigh time (%) = 1.15465 (0.0773555)
Comm  time (%) = 1.42177 (0.0952517)
Outpt time (%) = 0.000605801 (4.05856e-05)
Other time (%) = 1489.78 (99.8076)

Nlocal:    5.875 ave 93 max 0 min
Histogram: 36 0 2 0 0 0 0 0 0 2
Nghost:    2.475 ave 32 max 0 min
Histogram: 36 0 0 0 1 0 0 1 0 2
Neighs:    0.375 ave 5 max 0 min
Histogram: 36 0 0 0 1 0 0 0 2 1

Total # of neighbors = 15
Ave neighs/atom = 0.0638298
Neighbor list builds = 3463
Dangerous builds = 4
write_dump all custom dump.atom_info_ac_* id type x y z radius vx vy vz density #
run 154320
Setting up run at Wed Jan  4 02:30:10 2023

Memory usage per processor = 958.989 Mbytes
    Step    Atoms         KinEng            CPU 
 7561682      235     0.10190877              0 
 7716002      231     0.11792912       1504.636 
Loop time of 1504.64 on 40 procs for 154320 steps with 231 atoms, finish time Wed Jan  4 02:55:14 2023


Pair  time (%) = 0.298103 (0.0198123)
Neigh time (%) = 1.7027 (0.113164)
Comm  time (%) = 2.16869 (0.144134)
Outpt time (%) = 0.000637392 (4.23618e-05)
Other time (%) = 1500.47 (99.7228)

Nlocal:    5.775 ave 95 max 0 min
Histogram: 36 0 2 0 0 0 0 0 1 1
Nghost:    2.425 ave 31 max 0 min
Histogram: 36 0 0 0 1 0 0 1 0 2
Neighs:    0.45 ave 6 max 0 min
Histogram: 36 0 0 1 0 0 1 0 0 2

Total # of neighbors = 18
Ave neighs/atom = 0.0779221
Neighbor list builds = 5219
Dangerous builds = 333
write_dump all custom dump.atom_info_ac_* id type x y z radius vx vy vz density #
run 154320
Setting up run at Wed Jan  4 02:55:14 2023

Memory usage per processor = 958.989 Mbytes
    Step    Atoms         KinEng            CPU 
 7716002      231     0.11792912              0 
 7870322      229     0.15073604       1507.146 
Loop time of 1507.15 on 40 procs for 154320 steps with 229 atoms, finish time Wed Jan  4 03:20:22 2023


Pair  time (%) = 0.295778 (0.0196251)
Neigh time (%) = 1.64919 (0.109425)
Comm  time (%) = 1.93203 (0.128191)
Outpt time (%) = 0.000575015 (3.81526e-05)
Other time (%) = 1503.27 (99.7427)

Nlocal:    5.725 ave 94 max 0 min
Histogram: 36 0 2 0 0 0 0 0 1 1
Nghost:    2.525 ave 34 max 0 min
Histogram: 36 0 0 0 1 0 1 0 1 1
Neighs:    0.475 ave 7 max 0 min
Histogram: 36 0 1 0 0 0 0 2 0 1

Total # of neighbors = 19
Ave neighs/atom = 0.0829694
Neighbor list builds = 4940
Dangerous builds = 2
write_dump all custom dump.atom_info_ac_* id type x y z radius vx vy vz density #
run 154320
Setting up run at Wed Jan  4 03:20:22 2023

Memory usage per processor = 958.989 Mbytes
    Step    Atoms         KinEng            CPU 
 7870322      229     0.15073604              0 
 8024642      226     0.11686585      1492.3818 
Loop time of 1492.38 on 40 procs for 154320 steps with 226 atoms, finish time Wed Jan  4 03:45:14 2023


Pair  time (%) = 0.293602 (0.0196734)
Neigh time (%) = 1.60798 (0.107746)
Comm  time (%) = 2.1489 (0.143991)
Outpt time (%) = 0.000527051 (3.53161e-05)
Other time (%) = 1488.33 (99.7286)

Nlocal:    5.65 ave 90 max 0 min
Histogram: 36 1 1 0 0 0 0 0 0 2
Nghost:    2.35 ave 28 max 0 min
Histogram: 36 0 0 0 0 1 0 1 0 2
Neighs:    0.3 ave 6 max 0 min
Histogram: 37 0 0 0 0 2 0 0 0 1

Total # of neighbors = 12
Ave neighs/atom = 0.0530973
Neighbor list builds = 4823
Dangerous builds = 3
write_dump all custom dump.atom_info_ac_* id type x y z radius vx vy vz density #
run 154320
Setting up run at Wed Jan  4 03:45:14 2023

Memory usage per processor = 958.989 Mbytes
    Step    Atoms         KinEng            CPU 
 8024642      226     0.11686585              0 
 8178962      224      0.1777124      1494.4076 
Loop time of 1494.41 on 40 procs for 154320 steps with 224 atoms, finish time Wed Jan  4 04:10:08 2023


Pair  time (%) = 0.293639 (0.0196492)
Neigh time (%) = 1.48823 (0.0995866)
Comm  time (%) = 2.27671 (0.152349)
Outpt time (%) = 0.000592748 (3.96644e-05)
Other time (%) = 1490.35 (99.7284)

Nlocal:    5.6 ave 88 max 0 min
Histogram: 36 1 1 0 0 0 0 0 0 2
Nghost:    2.4 ave 28 max 0 min
Histogram: 36 0 0 0 0 0 2 0 0 2
Neighs:    0.375 ave 9 max 0 min
Histogram: 37 0 0 2 0 0 0 0 0 1

Total # of neighbors = 15
Ave neighs/atom = 0.0669643
Neighbor list builds = 4479
Dangerous builds = 2
write_dump all custom dump.atom_info_ac_* id type x y z radius vx vy vz density #
run 154320
Setting up run at Wed Jan  4 04:10:08 2023

Memory usage per processor = 958.989 Mbytes
    Step    Atoms         KinEng            CPU 
 8178962      224      0.1777124              0 
 8333282      218     0.36723357      1503.3478 
Loop time of 1503.35 on 40 procs for 154320 steps with 218 atoms, finish time Wed Jan  4 04:35:12 2023


Pair  time (%) = 0.291742 (0.0194062)
Neigh time (%) = 2.13581 (0.14207)
Comm  time (%) = 5.05241 (0.336077)
Outpt time (%) = 0.000546956 (3.63825e-05)
Other time (%) = 1495.87 (99.5024)

Nlocal:    5.45 ave 86 max 0 min
Histogram: 36 1 1 0 0 0 0 0 0 2
Nghost:    2.4 ave 30 max 0 min
Histogram: 36 0 0 0 0 1 1 0 1 1
Neighs:    0.325 ave 7 max 0 min
Histogram: 37 0 0 0 2 0 0 0 0 1

Total # of neighbors = 13
Ave neighs/atom = 0.059633
Neighbor list builds = 6570
Dangerous builds = 470
write_dump all custom dump.atom_info_ac_* id type x y z radius vx vy vz density #
run 154320
Setting up run at Wed Jan  4 04:35:12 2023

Memory usage per processor = 958.989 Mbytes
    Step    Atoms         KinEng            CPU 
 8333282      218     0.36723357              0 
 8487602      215     0.16806649      1484.1596 
Loop time of 1484.16 on 40 procs for 154320 steps with 215 atoms, finish time Wed Jan  4 04:59:56 2023


Pair  time (%) = 0.286765 (0.0193217)
Neigh time (%) = 1.39446 (0.0939559)
Comm  time (%) = 3.13205 (0.211031)
Outpt time (%) = 0.000492798 (3.32038e-05)
Other time (%) = 1479.35 (99.6757)

Nlocal:    5.375 ave 87 max 0 min
Histogram: 36 2 0 0 0 0 0 0 0 2
Nghost:    2.3 ave 29 max 0 min
Histogram: 36 0 0 0 0 1 1 0 1 1
Neighs:    0.25 ave 4 max 0 min
Histogram: 37 0 0 0 0 1 0 0 0 2

Total # of neighbors = 10
Ave neighs/atom = 0.0465116
Neighbor list builds = 4245
Dangerous builds = 127
write_dump all custom dump.atom_info_ac_* id type x y z radius vx vy vz density #
run 154320
Setting up run at Wed Jan  4 04:59:56 2023

Memory usage per processor = 958.989 Mbytes
    Step    Atoms         KinEng            CPU 
 8487602      215     0.16806649              0 
 8641922      213     0.32615656      1490.5761 
Loop time of 1490.58 on 40 procs for 154320 steps with 213 atoms, finish time Wed Jan  4 05:24:47 2023


Pair  time (%) = 0.286376 (0.0192125)
Neigh time (%) = 1.85502 (0.12445)
Comm  time (%) = 3.39598 (0.22783)
Outpt time (%) = 0.00058572 (3.92949e-05)
Other time (%) = 1485.04 (99.6285)

Nlocal:    5.325 ave 86 max 0 min
Histogram: 36 1 1 0 0 0 0 0 0 2
Nghost:    2.35 ave 28 max 0 min
Histogram: 36 0 0 0 0 0 1 1 1 1
Neighs:    0.225 ave 4 max 0 min
Histogram: 37 0 0 0 0 1 0 1 0 1

Total # of neighbors = 9
Ave neighs/atom = 0.0422535
Neighbor list builds = 5591
Dangerous builds = 2
write_dump all custom dump.atom_info_ac_* id type x y z radius vx vy vz density #
run 154320
Setting up run at Wed Jan  4 05:24:47 2023

Memory usage per processor = 958.989 Mbytes
    Step    Atoms         KinEng            CPU 
 8641922      213     0.32615656              0 
 8796242      208     0.30831425      1494.6791 
Loop time of 1494.68 on 40 procs for 154320 steps with 208 atoms, finish time Wed Jan  4 05:49:42 2023


Pair  time (%) = 0.29184 (0.0195253)
Neigh time (%) = 1.93604 (0.129529)
Comm  time (%) = 4.71279 (0.315305)
Outpt time (%) = 0.000452882 (3.02996e-05)
Other time (%) = 1487.74 (99.5356)

Nlocal:    5.2 ave 82 max 0 min
Histogram: 36 1 1 0 0 0 0 0 0 2
Nghost:    2.35 ave 29 max 0 min
Histogram: 36 0 0 0 0 1 1 0 1 1
Neighs:    0.3 ave 6 max 0 min
Histogram: 37 0 0 0 0 2 0 0 0 1

Total # of neighbors = 12
Ave neighs/atom = 0.0576923
Neighbor list builds = 5937
Dangerous builds = 91
write_dump all custom dump.atom_info_ac_* id type x y z radius vx vy vz density #
run 154320
Setting up run at Wed Jan  4 05:49:42 2023

Memory usage per processor = 958.989 Mbytes
    Step    Atoms         KinEng            CPU 
 8796242      208     0.30831425              0 
 8950562      205     0.18923534      1487.0567 
Loop time of 1487.06 on 40 procs for 154320 steps with 205 atoms, finish time Wed Jan  4 06:14:29 2023


Pair  time (%) = 0.285859 (0.0192231)
Neigh time (%) = 1.29597 (0.0871496)
Comm  time (%) = 4.0078 (0.269512)
Outpt time (%) = 0.000512223 (3.44454e-05)
Other time (%) = 1481.47 (99.6241)

Nlocal:    5.125 ave 83 max 0 min
Histogram: 36 1 1 0 0 0 0 0 1 1
Nghost:    2.15 ave 25 max 0 min
Histogram: 35 1 0 0 0 1 1 0 0 2
Neighs:    0.25 ave 4 max 0 min
Histogram: 36 0 1 0 0 1 0 1 0 1

Total # of neighbors = 10
Ave neighs/atom = 0.0487805
Neighbor list builds = 3952
Dangerous builds = 12
write_dump all custom dump.atom_info_ac_* id type x y z radius vx vy vz density #
run 154320
Setting up run at Wed Jan  4 06:14:29 2023

Memory usage per processor = 958.989 Mbytes
    Step    Atoms         KinEng            CPU 
 8950562      205     0.18923534              0 
 9104882      203     0.15172495      1477.2867 
Loop time of 1477.29 on 40 procs for 154320 steps with 203 atoms, finish time Wed Jan  4 06:39:06 2023


Pair  time (%) = 0.283757 (0.019208)
Neigh time (%) = 1.39992 (0.094763)
Comm  time (%) = 2.88606 (0.195362)
Outpt time (%) = 0.000503819 (3.41043e-05)
Other time (%) = 1472.72 (99.6906)

Nlocal:    5.075 ave 81 max 0 min
Histogram: 36 1 1 0 0 0 0 0 0 2
Nghost:    2 ave 23 max 0 min
Histogram: 36 0 0 0 0 0 1 1 0 2
Neighs:    0.175 ave 3 max 0 min
Histogram: 37 0 0 1 0 0 0 0 0 2

Total # of neighbors = 7
Ave neighs/atom = 0.0344828
Neighbor list builds = 4365
Dangerous builds = 372
write_dump all custom dump.atom_info_ac_* id type x y z radius vx vy vz density #
run 154320
Setting up run at Wed Jan  4 06:39:06 2023

Memory usage per processor = 958.989 Mbytes
    Step    Atoms         KinEng            CPU 
 9104882      203     0.15172495              0 
 9259202      199     0.23078549       1499.527 
Loop time of 1499.53 on 40 procs for 154320 steps with 199 atoms, finish time Wed Jan  4 07:04:06 2023


Pair  time (%) = 0.283088 (0.0188785)
Neigh time (%) = 1.94299 (0.129574)
Comm  time (%) = 2.48976 (0.166036)
Outpt time (%) = 0.000232227 (1.54867e-05)
Other time (%) = 1494.81 (99.6855)

Nlocal:    4.975 ave 78 max 0 min
Histogram: 36 1 1 0 0 0 0 0 1 1
Nghost:    2.075 ave 26 max 0 min
Histogram: 36 0 0 0 0 1 1 0 0 2
Neighs:    0.175 ave 3 max 0 min
Histogram: 37 0 0 1 0 0 0 0 0 2

Total # of neighbors = 7
Ave neighs/atom = 0.0351759
Neighbor list builds = 5839
Dangerous builds = 2
write_dump all custom dump.atom_info_ac_* id type x y z radius vx vy vz density #
run 154320
Setting up run at Wed Jan  4 07:04:06 2023

Memory usage per processor = 958.989 Mbytes
    Step    Atoms         KinEng            CPU 
 9259202      199     0.23078549              0 
 9413522      198     0.19163009      1485.2754 
Loop time of 1485.28 on 40 procs for 154320 steps with 198 atoms, finish time Wed Jan  4 07:28:51 2023


Pair  time (%) = 0.279163 (0.0187954)
Neigh time (%) = 1.48149 (0.0997449)
Comm  time (%) = 1.7935 (0.120752)
Outpt time (%) = 0.00016295 (1.0971e-05)
Other time (%) = 1481.72 (99.7607)

Nlocal:    4.95 ave 77 max 0 min
Histogram: 36 1 1 0 0 0 0 0 1 1
Nghost:    2.15 ave 28 max 0 min
Histogram: 36 0 0 0 1 1 0 0 0 2
Neighs:    0.175 ave 3 max 0 min
Histogram: 37 0 0 1 0 0 0 0 0 2

Total # of neighbors = 7
Ave neighs/atom = 0.0353535
Neighbor list builds = 4428
Dangerous builds = 1
write_dump all custom dump.atom_info_ac_* id type x y z radius vx vy vz density #
run 154320
Setting up run at Wed Jan  4 07:28:51 2023

Memory usage per processor = 958.989 Mbytes
    Step    Atoms         KinEng            CPU 
 9413522      198     0.19163009              0 
 9567842      195     0.11160557      1488.5237 
Loop time of 1488.52 on 40 procs for 154320 steps with 195 atoms, finish time Wed Jan  4 07:53:40 2023


Pair  time (%) = 0.278079 (0.0186815)
Neigh time (%) = 1.41617 (0.0951391)
Comm  time (%) = 1.72559 (0.115926)
Outpt time (%) = 0.000595141 (3.99819e-05)
Other time (%) = 1485.1 (99.7702)

Nlocal:    4.875 ave 74 max 0 min
Histogram: 36 0 2 0 0 0 0 0 0 2
Nghost:    1.975 ave 26 max 0 min
Histogram: 36 0 0 0 1 1 0 0 0 2
Neighs:    0.175 ave 4 max 0 min
Histogram: 37 0 1 0 0 1 0 0 0 1

Total # of neighbors = 7
Ave neighs/atom = 0.0358974
Neighbor list builds = 4221
Dangerous builds = 2
write_dump all custom dump.atom_info_ac_* id type x y z radius vx vy vz density #
run 154320
Setting up run at Wed Jan  4 07:53:40 2023

Memory usage per processor = 958.989 Mbytes
    Step    Atoms         KinEng            CPU 
 9567842      195     0.11160557              0 
 9722162      193    0.097080197       1478.835 
Loop time of 1478.84 on 40 procs for 154320 steps with 193 atoms, finish time Wed Jan  4 08:18:18 2023


Pair  time (%) = 0.27559 (0.0186356)
Neigh time (%) = 1.20263 (0.0813225)
Comm  time (%) = 1.42484 (0.0963488)
Outpt time (%) = 0.000175137 (1.18429e-05)
Other time (%) = 1475.93 (99.8037)

Nlocal:    4.825 ave 71 max 0 min
Histogram: 36 0 1 1 0 0 0 0 0 2
Nghost:    1.975 ave 26 max 0 min
Histogram: 36 0 0 0 1 1 0 0 0 2
Neighs:    0.175 ave 5 max 0 min
Histogram: 38 0 0 0 1 0 0 0 0 1

Total # of neighbors = 7
Ave neighs/atom = 0.0362694
Neighbor list builds = 3623
Dangerous builds = 2
write_dump all custom dump.atom_info_ac_* id type x y z radius vx vy vz density #
run 154320
Setting up run at Wed Jan  4 08:18:19 2023

Memory usage per processor = 958.989 Mbytes
    Step    Atoms         KinEng            CPU 
 9722162      193    0.097080197              0 
 9876482      192    0.049507223      1477.1108 
Loop time of 1477.11 on 40 procs for 154320 steps with 192 atoms, finish time Wed Jan  4 08:42:56 2023


Pair  time (%) = 0.275322 (0.0186392)
Neigh time (%) = 1.05614 (0.0715002)
Comm  time (%) = 1.3139 (0.0889504)
Outpt time (%) = 0.000214617 (1.45295e-05)
Other time (%) = 1474.47 (99.8209)

Nlocal:    4.8 ave 71 max 0 min
Histogram: 36 0 2 0 0 0 0 0 0 2
Nghost:    1.925 ave 30 max 0 min
Histogram: 36 0 0 1 1 0 0 1 0 1
Neighs:    0.175 ave 5 max 0 min
Histogram: 38 0 0 0 1 0 0 0 0 1

Total # of neighbors = 7
Ave neighs/atom = 0.0364583
Neighbor list builds = 3155
Dangerous builds = 1
write_dump all custom dump.atom_info_ac_* id type x y z radius vx vy vz density #
run 154320
Setting up run at Wed Jan  4 08:42:56 2023

Memory usage per processor = 958.989 Mbytes
    Step    Atoms         KinEng            CPU 
 9876482      192    0.049507223              0 
10030802      190    0.074078533      1466.5629 
Loop time of 1466.56 on 40 procs for 154320 steps with 190 atoms, finish time Wed Jan  4 09:07:22 2023


Pair  time (%) = 0.27265 (0.0185911)
Neigh time (%) = 0.899289 (0.0613195)
Comm  time (%) = 1.51854 (0.103544)
Outpt time (%) = 0.000535169 (3.64914e-05)
Other time (%) = 1463.87 (99.8165)

Nlocal:    4.75 ave 69 max 0 min
Histogram: 36 0 1 1 0 0 0 0 0 2
Nghost:    2.025 ave 31 max 0 min
Histogram: 36 0 0 1 1 0 0 1 0 1
Neighs:    0.075 ave 3 max 0 min
Histogram: 39 0 0 0 0 0 0 0 0 1

Total # of neighbors = 3
Ave neighs/atom = 0.0157895
Neighbor list builds = 2696
Dangerous builds = 22
write_dump all custom dump.atom_info_ac_* id type x y z radius vx vy vz density #
run 154320
Setting up run at Wed Jan  4 09:07:22 2023

Memory usage per processor = 958.989 Mbytes
    Step    Atoms         KinEng            CPU 
10030802      190    0.074078533              0 
10185122      189    0.030780024      1478.6497 
Loop time of 1478.65 on 40 procs for 154320 steps with 189 atoms, finish time Wed Jan  4 09:32:01 2023


Pair  time (%) = 0.276115 (0.0186734)
Neigh time (%) = 1.00696 (0.0681001)
Comm  time (%) = 1.524 (0.103067)
Outpt time (%) = 0.000249098 (1.68463e-05)
Other time (%) = 1475.84 (99.8101)

Nlocal:    4.725 ave 70 max 0 min
Histogram: 36 0 1 1 0 0 0 0 0 2
Nghost:    2.15 ave 31 max 0 min
Histogram: 36 0 0 1 1 0 0 0 1 1
Neighs:    0.2 ave 2 max 0 min
Histogram: 36 0 0 0 0 0 0 0 0 4

Total # of neighbors = 8
Ave neighs/atom = 0.042328
Neighbor list builds = 3005
Dangerous builds = 1
write_dump all custom dump.atom_info_ac_* id type x y z radius vx vy vz density #
run 154320
Setting up run at Wed Jan  4 09:32:01 2023

Memory usage per processor = 958.989 Mbytes
    Step    Atoms         KinEng            CPU 
10185122      189    0.030780024              0 
10339442      184      0.1441282      1538.3115 
Loop time of 1538.31 on 40 procs for 154320 steps with 184 atoms, finish time Wed Jan  4 09:57:39 2023


Pair  time (%) = 0.278956 (0.0181339)
Neigh time (%) = 1.96127 (0.127495)
Comm  time (%) = 3.61586 (0.235054)
Outpt time (%) = 0.00054855 (3.56592e-05)
Other time (%) = 1532.45 (99.6193)

Nlocal:    4.6 ave 70 max 0 min
Histogram: 36 0 2 0 0 0 0 0 1 1
Nghost:    2.225 ave 33 max 0 min
Histogram: 36 0 0 2 0 0 0 1 0 1
Neighs:    0.125 ave 2 max 0 min
Histogram: 36 0 0 0 0 3 0 0 0 1

Total # of neighbors = 5
Ave neighs/atom = 0.0271739
Neighbor list builds = 5893
Dangerous builds = 4
write_dump all custom dump.atom_info_ac_* id type x y z radius vx vy vz density #
run 154320
Setting up run at Wed Jan  4 09:57:39 2023

Memory usage per processor = 958.989 Mbytes
    Step    Atoms         KinEng            CPU 
10339442      184      0.1441282              0 
10493762      182     0.19732222      1540.1785 
Loop time of 1540.18 on 40 procs for 154320 steps with 182 atoms, finish time Wed Jan  4 10:23:20 2023


Pair  time (%) = 0.270306 (0.0175503)
Neigh time (%) = 1.24153 (0.0806093)
Comm  time (%) = 1.86371 (0.121006)
Outpt time (%) = 0.000206573 (1.34123e-05)
Other time (%) = 1536.8 (99.7808)

Nlocal:    4.55 ave 68 max 0 min
Histogram: 36 0 2 0 0 0 0 0 0 2
Nghost:    2.025 ave 30 max 0 min
Histogram: 36 0 0 1 1 0 0 0 1 1
Neighs:    0.075 ave 1 max 0 min
Histogram: 37 0 0 0 0 0 0 0 0 3

Total # of neighbors = 3
Ave neighs/atom = 0.0164835
Neighbor list builds = 3692
Dangerous builds = 1
write_dump all custom dump.atom_info_ac_* id type x y z radius vx vy vz density #
run 154320
Setting up run at Wed Jan  4 10:23:20 2023

Memory usage per processor = 958.989 Mbytes
    Step    Atoms         KinEng            CPU 
10493762      182     0.19732222              0 
10648082      180     0.10480943      1494.3725 
Loop time of 1494.37 on 40 procs for 154320 steps with 180 atoms, finish time Wed Jan  4 10:48:14 2023


Pair  time (%) = 0.270971 (0.0181328)
Neigh time (%) = 1.21702 (0.0814401)
Comm  time (%) = 1.55084 (0.103779)
Outpt time (%) = 0.000511357 (3.42189e-05)
Other time (%) = 1491.33 (99.7966)

Nlocal:    4.5 ave 67 max 0 min
Histogram: 36 0 1 1 0 0 0 0 0 2
Nghost:    2.05 ave 32 max 0 min
Histogram: 36 0 1 0 1 0 0 1 0 1
Neighs:    0.15 ave 3 max 0 min
Histogram: 37 0 0 1 0 0 1 0 0 1

Total # of neighbors = 6
Ave neighs/atom = 0.0333333
Neighbor list builds = 3634
Dangerous builds = 46
write_dump all custom dump.atom_info_ac_* id type x y z radius vx vy vz density #
run 154320
Setting up run at Wed Jan  4 10:48:14 2023

Memory usage per processor = 958.989 Mbytes
    Step    Atoms         KinEng            CPU 
10648082      180     0.10480943              0 
10802402      178    0.092206812      1494.5027 
Loop time of 1494.5 on 40 procs for 154320 steps with 178 atoms, finish time Wed Jan  4 11:13:09 2023


Pair  time (%) = 0.27204 (0.0182027)
Neigh time (%) = 1.53601 (0.102777)
Comm  time (%) = 1.82536 (0.122139)
Outpt time (%) = 0.000514354 (3.44164e-05)
Other time (%) = 1490.87 (99.7568)

Nlocal:    4.45 ave 67 max 0 min
Histogram: 36 0 2 0 0 0 0 0 1 1
Nghost:    1.875 ave 30 max 0 min
Histogram: 36 0 0 1 1 0 0 1 0 1
Neighs:    0.175 ave 3 max 0 min
Histogram: 36 0 0 2 0 0 1 0 0 1

Total # of neighbors = 7
Ave neighs/atom = 0.0393258
Neighbor list builds = 4572
Dangerous builds = 5
write_dump all custom dump.atom_info_ac_* id type x y z radius vx vy vz density #
run 154320
Setting up run at Wed Jan  4 11:13:09 2023

Memory usage per processor = 958.989 Mbytes
    Step    Atoms         KinEng            CPU 
10802402      178    0.092206812              0 
10956722      174     0.37796769      1526.1397 
Loop time of 1526.15 on 40 procs for 154320 steps with 174 atoms, finish time Wed Jan  4 11:38:35 2023


Pair  time (%) = 0.278246 (0.0182319)
Neigh time (%) = 2.11054 (0.138292)
Comm  time (%) = 2.11281 (0.138441)
Outpt time (%) = 0.000262622 (1.72081e-05)
Other time (%) = 1521.65 (99.705)

Nlocal:    4.35 ave 65 max 0 min
Histogram: 36 0 2 0 0 0 0 0 0 2
Nghost:    1.75 ave 27 max 0 min
Histogram: 36 0 1 0 1 0 0 0 1 1
Neighs:    0.075 ave 2 max 0 min
Histogram: 38 0 0 0 0 1 0 0 0 1

Total # of neighbors = 3
Ave neighs/atom = 0.0172414
Neighbor list builds = 6298
Dangerous builds = 3
write_dump all custom dump.atom_info_ac_* id type x y z radius vx vy vz density #
run 154320
Setting up run at Wed Jan  4 11:38:35 2023

Memory usage per processor = 958.989 Mbytes
    Step    Atoms         KinEng            CPU 
10956722      174     0.37796769              0 
11111042      170     0.39126955      1498.3672 
Loop time of 1498.37 on 40 procs for 154320 steps with 170 atoms, finish time Wed Jan  4 12:03:33 2023


Pair  time (%) = 0.277824 (0.0185418)
Neigh time (%) = 2.18986 (0.14615)
Comm  time (%) = 2.42376 (0.16176)
Outpt time (%) = 0.000472946 (3.15641e-05)
Other time (%) = 1493.48 (99.6735)

Nlocal:    4.25 ave 64 max 0 min
Histogram: 36 0 1 1 0 0 0 0 0 2
Nghost:    1.7 ave 26 max 0 min
Histogram: 36 0 0 1 1 0 0 0 1 1
Neighs:    0.05 ave 2 max 0 min
Histogram: 39 0 0 0 0 0 0 0 0 1

Total # of neighbors = 2
Ave neighs/atom = 0.0117647
Neighbor list builds = 6554
Dangerous builds = 128
write_dump all custom dump.atom_info_ac_* id type x y z radius vx vy vz density #
run 154320
Setting up run at Wed Jan  4 12:03:34 2023

Memory usage per processor = 958.989 Mbytes
    Step    Atoms         KinEng            CPU 
11111042      170     0.39126955              0 
11265362      166     0.36762595      1532.6749 
Loop time of 1532.68 on 40 procs for 154320 steps with 166 atoms, finish time Wed Jan  4 12:29:06 2023


Pair  time (%) = 0.28399 (0.018529)
Neigh time (%) = 3.0413 (0.198431)
Comm  time (%) = 4.27637 (0.279013)
Outpt time (%) = 0.00024955 (1.6282e-05)
Other time (%) = 1525.07 (99.504)

Nlocal:    4.15 ave 62 max 0 min
Histogram: 36 0 2 0 0 0 0 0 0 2
Nghost:    1.75 ave 25 max 0 min
Histogram: 36 0 0 0 2 0 0 0 1 1
Neighs:    0.125 ave 4 max 0 min
Histogram: 38 0 1 0 0 0 0 0 0 1

Total # of neighbors = 5
Ave neighs/atom = 0.0301205
Neighbor list builds = 9080
Dangerous builds = 3
write_dump all custom dump.atom_info_ac_* id type x y z radius vx vy vz density #
run 154320
Setting up run at Wed Jan  4 12:29:06 2023

Memory usage per processor = 958.989 Mbytes
    Step    Atoms         KinEng            CPU 
11265362      166     0.36762595              0 
11419682      163     0.36942606      1506.4934 
Loop time of 1506.49 on 40 procs for 154320 steps with 163 atoms, finish time Wed Jan  4 12:54:13 2023


Pair  time (%) = 0.275937 (0.0183165)
Neigh time (%) = 2.08303 (0.13827)
Comm  time (%) = 2.66259 (0.176741)
Outpt time (%) = 0.000227009 (1.50687e-05)
Other time (%) = 1501.47 (99.6667)

Nlocal:    4.075 ave 62 max 0 min
Histogram: 36 0 2 0 0 0 0 0 0 2
Nghost:    1.725 ave 26 max 0 min
Histogram: 36 0 0 1 1 0 0 1 0 1
Neighs:    0.2 ave 6 max 0 min
Histogram: 37 2 0 0 0 0 0 0 0 1

Total # of neighbors = 8
Ave neighs/atom = 0.0490798
Neighbor list builds = 6190
Dangerous builds = 3
write_dump all custom dump.atom_info_ac_* id type x y z radius vx vy vz density #
run 154320
Setting up run at Wed Jan  4 12:54:13 2023

Memory usage per processor = 958.989 Mbytes
    Step    Atoms         KinEng            CPU 
11419682      163     0.36942606              0 
11574002      161     0.35855412      1585.2462 
Loop time of 1585.25 on 40 procs for 154320 steps with 161 atoms, finish time Wed Jan  4 13:20:38 2023


Pair  time (%) = 0.278479 (0.0175669)
Neigh time (%) = 2.27232 (0.143342)
Comm  time (%) = 3.20112 (0.201932)
Outpt time (%) = 0.000536715 (3.38569e-05)
Other time (%) = 1579.49 (99.6371)

Nlocal:    4.025 ave 62 max 0 min
Histogram: 36 0 2 0 0 0 0 0 0 2
Nghost:    1.7 ave 26 max 0 min
Histogram: 36 0 0 2 0 0 0 0 1 1
Neighs:    0.15 ave 3 max 0 min
Histogram: 37 0 0 1 0 0 1 0 0 1

Total # of neighbors = 6
Ave neighs/atom = 0.0372671
Neighbor list builds = 6786
Dangerous builds = 3
write_dump all custom dump.atom_info_ac_* id type x y z radius vx vy vz density #
run 154320
Setting up run at Wed Jan  4 13:20:38 2023

Memory usage per processor = 958.989 Mbytes
    Step    Atoms         KinEng            CPU 
11574002      161     0.35855412              0 
11728322      157       0.357698      1531.7883 
Loop time of 1531.79 on 40 procs for 154320 steps with 157 atoms, finish time Wed Jan  4 13:46:10 2023


Pair  time (%) = 0.2792 (0.018227)
Neigh time (%) = 2.23855 (0.14614)
Comm  time (%) = 2.52538 (0.164865)
Outpt time (%) = 0.000254539 (1.66171e-05)
Other time (%) = 1526.75 (99.6708)

Nlocal:    3.925 ave 62 max 0 min
Histogram: 36 0 2 0 0 0 0 0 0 2
Nghost:    1.65 ave 26 max 0 min
Histogram: 36 0 0 0 2 0 1 0 0 1
Neighs:    0.125 ave 4 max 0 min
Histogram: 38 0 1 0 0 0 0 0 0 1

Total # of neighbors = 5
Ave neighs/atom = 0.0318471
Neighbor list builds = 6721
Dangerous builds = 187
write_dump all custom dump.atom_info_ac_* id type x y z radius vx vy vz density #
run 154320
Setting up run at Wed Jan  4 13:46:10 2023

Memory usage per processor = 958.989 Mbytes
    Step    Atoms         KinEng            CPU 
11728322      157       0.357698              0 
11882642      155     0.35527166      1596.2588 
Loop time of 1596.26 on 40 procs for 154320 steps with 155 atoms, finish time Wed Jan  4 14:12:46 2023


Pair  time (%) = 0.275775 (0.0172763)
Neigh time (%) = 2.08408 (0.13056)
Comm  time (%) = 2.05641 (0.128827)
Outpt time (%) = 0.00057201 (3.58344e-05)
Other time (%) = 1591.84 (99.7233)

Nlocal:    3.875 ave 61 max 0 min
Histogram: 36 0 2 0 0 0 0 0 0 2
Nghost:    1.625 ave 26 max 0 min
Histogram: 36 0 0 0 2 0 1 0 0 1
Neighs:    0.175 ave 4 max 0 min
Histogram: 38 0 0 0 0 0 0 1 0 1

Total # of neighbors = 7
Ave neighs/atom = 0.0451613
Neighbor list builds = 6175
Dangerous builds = 2
write_dump all custom dump.atom_info_ac_* id type x y z radius vx vy vz density #
run 154320
Setting up run at Wed Jan  4 14:12:47 2023

Memory usage per processor = 958.989 Mbytes
    Step    Atoms         KinEng            CPU 
11882642      155     0.35527166              0 
12036962      154     0.35547111      1541.1983 
Loop time of 1541.2 on 40 procs for 154320 steps with 154 atoms, finish time Wed Jan  4 14:38:28 2023


Pair  time (%) = 0.276451 (0.0179374)
Neigh time (%) = 2.08526 (0.135301)
Comm  time (%) = 2.1114 (0.136997)
Outpt time (%) = 0.000235141 (1.5257e-05)
Other time (%) = 1536.73 (99.7097)

Nlocal:    3.85 ave 60 max 0 min
Histogram: 36 0 2 0 0 0 0 0 0 2
Nghost:    1.525 ave 22 max 0 min
Histogram: 36 0 0 0 0 2 0 1 0 1
Neighs:    0.15 ave 5 max 0 min
Histogram: 38 0 1 0 0 0 0 0 0 1

Total # of neighbors = 6
Ave neighs/atom = 0.038961
Neighbor list builds = 6175
Dangerous builds = 3
write_dump all custom dump.atom_info_ac_* id type x y z radius vx vy vz density #
run 154320
Setting up run at Wed Jan  4 14:38:28 2023

Memory usage per processor = 958.989 Mbytes
    Step    Atoms         KinEng            CPU 
12036962      154     0.35547111              0 
12191282      154     0.38541062      1542.8643 
Loop time of 1542.86 on 40 procs for 154320 steps with 154 atoms, finish time Wed Jan  4 15:04:11 2023


Pair  time (%) = 0.274513 (0.0177924)
Neigh time (%) = 2.08323 (0.135023)
Comm  time (%) = 2.08014 (0.134823)
Outpt time (%) = 0.000184784 (1.19767e-05)
Other time (%) = 1538.43 (99.7123)

Nlocal:    3.85 ave 60 max 0 min
Histogram: 36 0 2 0 0 0 0 0 0 2
Nghost:    1.425 ave 20 max 0 min
Histogram: 36 0 0 0 0 2 0 1 0 1
Neighs:    0.2 ave 8 max 0 min
Histogram: 39 0 0 0 0 0 0 0 0 1

Total # of neighbors = 8
Ave neighs/atom = 0.0519481
Neighbor list builds = 6172
Dangerous builds = 0
write_dump all custom dump.atom_info_ac_* id type x y z radius vx vy vz density #
run 154320
Setting up run at Wed Jan  4 15:04:11 2023

Memory usage per processor = 958.989 Mbytes
    Step    Atoms         KinEng            CPU 
12191282      154     0.38541062              0 
12345602      153     0.35417613      1514.6511 
Loop time of 1514.65 on 40 procs for 154320 steps with 153 atoms, finish time Wed Jan  4 15:29:25 2023


Pair  time (%) = 0.277369 (0.0183124)
Neigh time (%) = 2.08556 (0.137692)
Comm  time (%) = 2.69533 (0.177951)
Outpt time (%) = 0.000479662 (3.16682e-05)
Other time (%) = 1509.59 (99.666)

Nlocal:    3.825 ave 59 max 0 min
Histogram: 36 0 2 0 0 0 0 0 0 2
Nghost:    1.475 ave 24 max 0 min
Histogram: 36 0 0 0 2 1 0 0 0 1
Neighs:    0.225 ave 8 max 0 min
Histogram: 38 1 0 0 0 0 0 0 0 1

Total # of neighbors = 9
Ave neighs/atom = 0.0588235
Neighbor list builds = 6174
Dangerous builds = 1
write_dump all custom dump.atom_info_ac_* id type x y z radius vx vy vz density #
run 154320
Setting up run at Wed Jan  4 15:29:25 2023

Memory usage per processor = 958.989 Mbytes
    Step    Atoms         KinEng            CPU 
12345602      153     0.35417613              0 
[...]
27777699       77      0.5806527      1496.1692 
Loop time of 1496.17 on 40 procs for 154320 steps with 77 atoms, finish time Fri Jan  6 09:38:38 2023


Pair  time (%) = 0.268238 (0.0179283)
Neigh time (%) = 2.4915 (0.166525)
Comm  time (%) = 2.97695 (0.198971)
Outpt time (%) = 0.000532869 (3.56156e-05)
Other time (%) = 1490.43 (99.6165)

Nlocal:    1.925 ave 42 max 0 min
Histogram: 38 0 0 0 0 0 1 0 0 1
Nghost:    0.35 ave 7 max 0 min
Histogram: 35 3 0 0 0 1 0 0 0 1
Neighs:    0 ave 0 max 0 min
Histogram: 40 0 0 0 0 0 0 0 0 0

Total # of neighbors = 0
Ave neighs/atom = 0
Neighbor list builds = 7348
Dangerous builds = 0
write_dump all custom dump.atom_info_ac_* id type x y z radius vx vy vz density #
run 154320
Setting up run at Fri Jan  6 09:38:38 2023

Memory usage per processor = 958.989 Mbytes
    Step    Atoms         KinEng            CPU 
27777699       77      0.5806527              0 
27932019       77     0.57993227       1497.822 
Loop time of 1497.82 on 40 procs for 154320 steps with 77 atoms, finish time Fri Jan  6 10:03:36 2023


Pair  time (%) = 0.269658 (0.0180033)
Neigh time (%) = 2.49484 (0.166565)
Comm  time (%) = 2.17548 (0.145243)
Outpt time (%) = 0.000192251 (1.28354e-05)
Other time (%) = 1492.88 (99.6702)

Nlocal:    1.925 ave 40 max 0 min
Histogram: 38 0 0 0 0 0 0 1 0 1
Nghost:    0.35 ave 5 max 0 min
Histogram: 34 0 4 0 0 0 0 0 0 2
Neighs:    0.025 ave 1 max 0 min
Histogram: 39 0 0 0 0 0 0 0 0 1

Total # of neighbors = 1
Ave neighs/atom = 0.012987
Neighbor list builds = 7348
Dangerous builds = 0
write_dump all custom dump.atom_info_ac_* id type x y z radius vx vy vz density #
run 154320
Setting up run at Fri Jan  6 10:03:36 2023

Memory usage per processor = 958.989 Mbytes
    Step    Atoms         KinEng            CPU 
27932019       77     0.57993227              0 
28086339       76     0.58055714      1503.2586 
Loop time of 1503.26 on 40 procs for 154320 steps with 76 atoms, finish time Fri Jan  6 10:28:39 2023


Pair  time (%) = 0.270617 (0.018002)
Neigh time (%) = 2.57692 (0.171423)
Comm  time (%) = 3.06555 (0.203927)
Outpt time (%) = 0.000184638 (1.22825e-05)
Other time (%) = 1497.35 (99.6066)

Nlocal:    1.9 ave 39 max 0 min
Histogram: 38 0 0 0 0 0 0 1 0 1
Nghost:    0.3 ave 5 max 0 min
Histogram: 35 0 3 0 0 0 0 0 1 1
Neighs:    0.025 ave 1 max 0 min
Histogram: 39 0 0 0 0 0 0 0 0 1

Total # of neighbors = 1
Ave neighs/atom = 0.0131579
Neighbor list builds = 7656
Dangerous builds = 2
write_dump all custom dump.atom_info_ac_* id type x y z radius vx vy vz density #
run 154320
Setting up run at Fri Jan  6 10:28:39 2023

Memory usage per processor = 958.989 Mbytes
    Step    Atoms         KinEng            CPU 
28086339       76     0.58055714              0 
28240659       76     0.58076905      1493.3497 
Loop time of 1493.35 on 40 procs for 154320 steps with 76 atoms, finish time Fri Jan  6 10:53:32 2023


Pair  time (%) = 0.266576 (0.0178508)
Neigh time (%) = 2.49814 (0.167284)
Comm  time (%) = 2.33703 (0.156496)
Outpt time (%) = 0.000511964 (3.42829e-05)
Other time (%) = 1488.25 (99.6583)

Nlocal:    1.9 ave 39 max 0 min
Histogram: 37 1 0 0 0 0 0 1 0 1
Nghost:    0.275 ave 5 max 0 min
Histogram: 36 0 2 0 0 0 0 0 1 1
Neighs:    0.025 ave 1 max 0 min
Histogram: 39 0 0 0 0 0 0 0 0 1

Total # of neighbors = 1
Ave neighs/atom = 0.0131579
Neighbor list builds = 7348
Dangerous builds = 0
write_dump all custom dump.atom_info_ac_* id type x y z radius vx vy vz density #
run 154320
Setting up run at Fri Jan  6 10:53:33 2023

Memory usage per processor = 958.989 Mbytes
    Step    Atoms         KinEng            CPU 
28240659       76     0.58076905              0 
28394979       76     0.58101434       1498.046 
Loop time of 1498.05 on 40 procs for 154320 steps with 76 atoms, finish time Fri Jan  6 11:18:31 2023


Pair  time (%) = 0.269961 (0.0180208)
Neigh time (%) = 2.51221 (0.167699)
Comm  time (%) = 2.52615 (0.16863)
Outpt time (%) = 0.000211117 (1.40928e-05)
Other time (%) = 1492.74 (99.6456)

Nlocal:    1.9 ave 39 max 0 min
Histogram: 38 0 0 0 0 0 0 1 0 1
Nghost:    0.3 ave 6 max 0 min
Histogram: 36 2 0 0 0 0 1 0 0 1
Neighs:    0.025 ave 1 max 0 min
Histogram: 39 0 0 0 0 0 0 0 0 1

Total # of neighbors = 1
Ave neighs/atom = 0.0131579
Neighbor list builds = 7399
Dangerous builds = 0
write_dump all custom dump.atom_info_ac_* id type x y z radius vx vy vz density #
run 154320
Setting up run at Fri Jan  6 11:18:31 2023

Memory usage per processor = 958.989 Mbytes
    Step    Atoms         KinEng            CPU 
28394979       76     0.58101434              0 
28549299       75      0.5821941      1503.2164 
Loop time of 1503.22 on 40 procs for 154320 steps with 75 atoms, finish time Fri Jan  6 11:43:34 2023


Pair  time (%) = 0.271076 (0.018033)
Neigh time (%) = 2.53917 (0.168916)
Comm  time (%) = 2.19895 (0.146283)
Outpt time (%) = 0.000497291 (3.30818e-05)
Other time (%) = 1498.21 (99.6667)

Nlocal:    1.875 ave 37 max 0 min
Histogram: 38 0 0 0 0 0 0 0 1 1
Nghost:    0.35 ave 6 max 0 min
Histogram: 35 2 0 1 0 0 1 0 0 1
Neighs:    0 ave 0 max 0 min
Histogram: 40 0 0 0 0 0 0 0 0 0

Total # of neighbors = 0
Ave neighs/atom = 0
Neighbor list builds = 7561
Dangerous builds = 223
write_dump all custom dump.atom_info_ac_* id type x y z radius vx vy vz density #
run 154320
Setting up run at Fri Jan  6 11:43:34 2023

Memory usage per processor = 958.989 Mbytes
    Step    Atoms         KinEng            CPU 
28549299       75      0.5821941              0 
28703619       75      0.5823992      1496.1825 
Loop time of 1496.18 on 40 procs for 154320 steps with 75 atoms, finish time Fri Jan  6 12:08:30 2023


Pair  time (%) = 0.267982 (0.0179111)
Neigh time (%) = 2.49437 (0.166715)
Comm  time (%) = 2.38041 (0.159099)
Outpt time (%) = 0.000162755 (1.0878e-05)
Other time (%) = 1491.04 (99.6563)

Nlocal:    1.875 ave 37 max 0 min
Histogram: 38 0 0 0 0 0 0 0 1 1
Nghost:    0.275 ave 4 max 0 min
Histogram: 35 0 2 0 0 1 0 1 0 1
Neighs:    0.025 ave 1 max 0 min
Histogram: 39 0 0 0 0 0 0 0 0 1

Total # of neighbors = 1
Ave neighs/atom = 0.0133333
Neighbor list builds = 7348
Dangerous builds = 0
write_dump all custom dump.atom_info_ac_* id type x y z radius vx vy vz density #
run 154320
Setting up run at Fri Jan  6 12:08:30 2023

Memory usage per processor = 958.989 Mbytes
    Step    Atoms         KinEng            CPU 
28703619       75      0.5823992              0 
28857939       75     0.58321419       1543.692 
Loop time of 1543.69 on 40 procs for 154320 steps with 75 atoms, finish time Fri Jan  6 12:34:14 2023


Pair  time (%) = 0.265466 (0.0171968)
Neigh time (%) = 2.49754 (0.16179)
Comm  time (%) = 2.28925 (0.148297)
Outpt time (%) = 0.000176663 (1.14442e-05)
Other time (%) = 1538.64 (99.6727)

Nlocal:    1.875 ave 38 max 0 min
Histogram: 38 0 0 0 0 0 0 1 0 1
Nghost:    0.325 ave 5 max 0 min
Histogram: 34 0 3 0 1 0 1 0 0 1
Neighs:    0.05 ave 2 max 0 min
Histogram: 39 0 0 0 0 0 0 0 0 1

Total # of neighbors = 2
Ave neighs/atom = 0.0266667
Neighbor list builds = 7348
Dangerous builds = 0
write_dump all custom dump.atom_info_ac_* id type x y z radius vx vy vz density #
run 154320
Setting up run at Fri Jan  6 12:34:14 2023

Memory usage per processor = 958.989 Mbytes
    Step    Atoms         KinEng            CPU 
28857939       75     0.58321419              0 
29012259       75     0.58204188       1535.069 
Loop time of 1535.07 on 40 procs for 154320 steps with 75 atoms, finish time Fri Jan  6 12:59:49 2023


Pair  time (%) = 0.269871 (0.0175804)
Neigh time (%) = 2.49716 (0.162674)
Comm  time (%) = 3.47661 (0.226479)
Outpt time (%) = 0.000567721 (3.69834e-05)
Other time (%) = 1528.82 (99.5932)

Nlocal:    1.875 ave 37 max 0 min
Histogram: 37 1 0 0 0 0 0 0 1 1
Nghost:    0.275 ave 4 max 0 min
Histogram: 35 0 3 0 0 0 0 0 0 2
Neighs:    0.025 ave 1 max 0 min
Histogram: 39 0 0 0 0 0 0 0 0 1

Total # of neighbors = 1
Ave neighs/atom = 0.0133333
Neighbor list builds = 7348
Dangerous builds = 0
write_dump all custom dump.atom_info_ac_* id type x y z radius vx vy vz density #
run 154320
Setting up run at Fri Jan  6 12:59:49 2023

Memory usage per processor = 958.989 Mbytes
    Step    Atoms         KinEng            CPU 
29012259       75     0.58204188              0 
29166579       75     0.58266766      1584.4332 
Loop time of 1584.43 on 40 procs for 154320 steps with 75 atoms, finish time Fri Jan  6 13:26:14 2023


Pair  time (%) = 0.267001 (0.0168515)
Neigh time (%) = 2.49681 (0.157584)
Comm  time (%) = 4.23446 (0.267254)
Outpt time (%) = 0.000156927 (9.90429e-06)
Other time (%) = 1577.44 (99.5583)

Nlocal:    1.875 ave 37 max 0 min
Histogram: 37 1 0 0 0 0 0 0 1 1
Nghost:    0.275 ave 3 max 0 min
Histogram: 33 0 0 5 0 0 0 0 0 2
Neighs:    0.05 ave 1 max 0 min
Histogram: 38 0 0 0 0 0 0 0 0 2

Total # of neighbors = 2
Ave neighs/atom = 0.0266667
Neighbor list builds = 7348
Dangerous builds = 0
write_dump all custom dump.atom_info_ac_* id type x y z radius vx vy vz density #
run 154320
Setting up run at Fri Jan  6 13:26:14 2023

Memory usage per processor = 958.989 Mbytes
    Step    Atoms         KinEng            CPU 
29166579       75     0.58266766              0 
29320899       75     0.58201518      1609.4421 
Loop time of 1609.44 on 40 procs for 154320 steps with 75 atoms, finish time Fri Jan  6 13:53:03 2023


Pair  time (%) = 0.265577 (0.0165012)
Neigh time (%) = 2.49485 (0.155013)
Comm  time (%) = 3.85604 (0.239588)
Outpt time (%) = 0.000573504 (3.56337e-05)
Other time (%) = 1602.83 (99.5889)

Nlocal:    1.875 ave 38 max 0 min
Histogram: 38 0 0 0 0 0 0 1 0 1
Nghost:    0.3 ave 4 max 0 min
Histogram: 35 0 1 0 0 2 0 1 0 1
Neighs:    0.05 ave 1 max 0 min
Histogram: 38 0 0 0 0 0 0 0 0 2

Total # of neighbors = 2
Ave neighs/atom = 0.0266667
Neighbor list builds = 7348
Dangerous builds = 0
write_dump all custom dump.atom_info_ac_* id type x y z radius vx vy vz density #
run 154320
Setting up run at Fri Jan  6 13:53:03 2023

Memory usage per processor = 958.989 Mbytes
    Step    Atoms         KinEng            CPU 
29320899       75     0.58201518              0 
29475219       75     0.58141308      1510.8568 
Loop time of 1510.86 on 40 procs for 154320 steps with 75 atoms, finish time Fri Jan  6 14:18:14 2023


Pair  time (%) = 0.267434 (0.0177008)
Neigh time (%) = 2.49346 (0.165036)
Comm  time (%) = 4.1381 (0.273891)
Outpt time (%) = 0.000183175 (1.21239e-05)
Other time (%) = 1503.96 (99.5434)

Nlocal:    1.875 ave 38 max 0 min
Histogram: 38 0 0 0 0 0 0 1 0 1
Nghost:    0.275 ave 4 max 0 min
Histogram: 36 0 0 0 0 2 0 1 0 1
Neighs:    0.05 ave 1 max 0 min
Histogram: 38 0 0 0 0 0 0 0 0 2

Total # of neighbors = 2
Ave neighs/atom = 0.0266667
Neighbor list builds = 7348
Dangerous builds = 0
write_dump all custom dump.atom_info_ac_* id type x y z radius vx vy vz density #
run 154320
Setting up run at Fri Jan  6 14:18:14 2023

Memory usage per processor = 958.989 Mbytes
    Step    Atoms         KinEng            CPU 
29475219       75     0.58141308              0 
29629539       75     0.58066273      1511.1523 
Loop time of 1511.15 on 40 procs for 154320 steps with 75 atoms, finish time Fri Jan  6 14:43:25 2023


Pair  time (%) = 0.270921 (0.0179281)
Neigh time (%) = 2.49203 (0.164909)
Comm  time (%) = 3.53235 (0.233752)
Outpt time (%) = 0.000294895 (1.95146e-05)
Other time (%) = 1504.86 (99.5834)

Nlocal:    1.875 ave 39 max 0 min
Histogram: 38 0 0 0 0 0 0 1 0 1
Nghost:    0.25 ave 4 max 0 min
Histogram: 35 0 2 0 0 2 0 0 0 1
Neighs:    0.05 ave 1 max 0 min
Histogram: 38 0 0 0 0 0 0 0 0 2

Total # of neighbors = 2
Ave neighs/atom = 0.0266667
Neighbor list builds = 7348
Dangerous builds = 0
write_dump all custom dump.atom_info_ac_* id type x y z radius vx vy vz density #
run 154320
Setting up run at Fri Jan  6 14:43:25 2023

Memory usage per processor = 958.989 Mbytes
    Step    Atoms         KinEng            CPU 
29629539       75     0.58066273              0 
29783859       75     0.57921665      1510.0116 
Loop time of 1510.01 on 40 procs for 154320 steps with 75 atoms, finish time Fri Jan  6 15:08:35 2023


Pair  time (%) = 0.267061 (0.017686)
Neigh time (%) = 2.49045 (0.164929)
Comm  time (%) = 4.42204 (0.292848)
Outpt time (%) = 0.000482032 (3.19224e-05)
Other time (%) = 1502.83 (99.5245)

Nlocal:    1.875 ave 37 max 0 min
Histogram: 38 0 0 0 0 0 0 1 0 1
Nghost:    0.25 ave 3 max 0 min
Histogram: 34 0 0 4 0 0 0 0 0 2
Neighs:    0.075 ave 2 max 0 min
Histogram: 38 0 0 0 0 1 0 0 0 1

Total # of neighbors = 3
Ave neighs/atom = 0.04
Neighbor list builds = 7348
Dangerous builds = 0
write_dump all custom dump.atom_info_ac_* id type x y z radius vx vy vz density #
run 154320
Setting up run at Fri Jan  6 15:11:43 2023

Memory usage per processor = 958.989 Mbytes
    Step    Atoms         KinEng            CPU 
29783859       75     0.57921665              0 
29938179       75     0.57933289      1498.4622 
Loop time of 1498.46 on 40 procs for 154320 steps with 75 atoms, finish time Fri Jan  6 15:36:42 2023


Pair  time (%) = 0.266689 (0.0177975)
Neigh time (%) = 2.49273 (0.166352)
Comm  time (%) = 3.62816 (0.242125)
Outpt time (%) = 0.000185594 (1.23856e-05)
Other time (%) = 1492.07 (99.5737)

Nlocal:    1.875 ave 37 max 0 min
Histogram: 38 0 0 0 0 0 0 1 0 1
Nghost:    0.225 ave 4 max 0 min
Histogram: 35 0 3 0 0 1 0 0 0 1
Neighs:    0.075 ave 2 max 0 min
Histogram: 38 0 0 0 0 1 0 0 0 1

Total # of neighbors = 3
Ave neighs/atom = 0.04
Neighbor list builds = 7348
Dangerous builds = 0
write_dump all custom dump.atom_info_ac_* id type x y z radius vx vy vz density #
run 154320
Setting up run at Fri Jan  6 15:36:42 2023

Memory usage per processor = 958.989 Mbytes
    Step    Atoms         KinEng            CPU 
29938179       75     0.57933289              0 
30092499       75     0.57835225      1536.2261 
Loop time of 1536.23 on 40 procs for 154320 steps with 75 atoms, finish time Fri Jan  6 16:02:18 2023


Pair  time (%) = 0.268746 (0.0174939)
Neigh time (%) = 2.48821 (0.161969)
Comm  time (%) = 3.43006 (0.223278)
Outpt time (%) = 0.000476898 (3.10435e-05)
Other time (%) = 1530.04 (99.5972)

Nlocal:    1.875 ave 37 max 0 min
Histogram: 38 0 0 0 0 0 0 1 0 1
Nghost:    0.225 ave 5 max 0 min
Histogram: 36 0 2 0 1 0 0 0 0 1
Neighs:    0.1 ave 3 max 0 min
Histogram: 38 0 0 1 0 0 0 0 0 1

Total # of neighbors = 4
Ave neighs/atom = 0.0533333
Neighbor list builds = 7348
Dangerous builds = 0
write_dump all custom dump.atom_info_ac_* id type x y z radius vx vy vz density #
run 154320
Setting up run at Fri Jan  6 16:02:18 2023

Memory usage per processor = 958.989 Mbytes
    Step    Atoms         KinEng            CPU 
30092499       75     0.57835225              0 
30246819       75     0.57897439      1499.7396 
Loop time of 1499.74 on 40 procs for 154320 steps with 75 atoms, finish time Fri Jan  6 16:27:18 2023


Pair  time (%) = 0.269687 (0.0179822)
Neigh time (%) = 2.48855 (0.165932)
Comm  time (%) = 3.00534 (0.200391)
Outpt time (%) = 0.000272117 (1.81443e-05)
Other time (%) = 1493.98 (99.6157)

Nlocal:    1.875 ave 38 max 0 min
Histogram: 38 0 0 0 0 0 0 1 0 1
Nghost:    0.275 ave 5 max 0 min
Histogram: 35 0 3 0 0 0 1 0 0 1
Neighs:    0.1 ave 3 max 0 min
Histogram: 38 0 0 1 0 0 0 0 0 1

Total # of neighbors = 4
Ave neighs/atom = 0.0533333
Neighbor list builds = 7348
Dangerous builds = 0
write_dump all custom dump.atom_info_ac_* id type x y z radius vx vy vz density #
run 154320
Setting up run at Fri Jan  6 16:27:18 2023

Memory usage per processor = 958.989 Mbytes
    Step    Atoms         KinEng            CPU 
30246819       75     0.57897439              0 
30401139       73     0.57808659      1519.2782 
Loop time of 1519.28 on 40 procs for 154320 steps with 73 atoms, finish time Fri Jan  6 16:52:37 2023


Pair  time (%) = 0.270762 (0.0178218)
Neigh time (%) = 2.4916 (0.163999)
Comm  time (%) = 2.65045 (0.174455)
Outpt time (%) = 0.000241809 (1.5916e-05)
Other time (%) = 1513.87 (99.6437)

Nlocal:    1.825 ave 38 max 0 min
Histogram: 38 0 0 0 0 0 0 1 0 1
Nghost:    0.275 ave 5 max 0 min
Histogram: 37 0 1 0 0 0 0 0 0 2
Neighs:    0.125 ave 3 max 0 min
Histogram: 38 0 0 0 0 0 1 0 0 1

Total # of neighbors = 5
Ave neighs/atom = 0.0684932
Neighbor list builds = 7352
Dangerous builds = 3
write_dump all custom dump.atom_info_ac_* id type x y z radius vx vy vz density #
run 154320
Setting up run at Fri Jan  6 16:52:37 2023

Memory usage per processor = 958.989 Mbytes
    Step    Atoms         KinEng            CPU 
30401139       73     0.57808659              0 
30555459       72     0.57820256      1602.2645 
Loop time of 1602.26 on 40 procs for 154320 steps with 72 atoms, finish time Fri Jan  6 17:19:19 2023


Pair  time (%) = 0.266979 (0.0166626)
Neigh time (%) = 2.48832 (0.1553)
Comm  time (%) = 2.04901 (0.127882)
Outpt time (%) = 0.000473271 (2.95376e-05)
Other time (%) = 1597.46 (99.7001)

Nlocal:    1.8 ave 39 max 0 min
Histogram: 38 0 0 0 0 0 1 0 0 1
Nghost:    0.3 ave 7 max 0 min
Histogram: 37 1 0 0 0 1 0 0 0 1
Neighs:    0.075 ave 3 max 0 min
Histogram: 39 0 0 0 0 0 0 0 0 1

Total # of neighbors = 3
Ave neighs/atom = 0.0416667
Neighbor list builds = 7348
Dangerous builds = 0
write_dump all custom dump.atom_info_ac_* id type x y z radius vx vy vz density #
run 154320
Setting up run at Fri Jan  6 17:21:58 2023

Memory usage per processor = 958.989 Mbytes
    Step    Atoms         KinEng            CPU 
30555459       72     0.57820256              0 
30709779       72      0.5792131      1594.1846 
Loop time of 1594.19 on 40 procs for 154320 steps with 72 atoms, finish time Fri Jan  6 17:48:32 2023


Pair  time (%) = 0.268954 (0.0168709)
Neigh time (%) = 2.48833 (0.156088)
Comm  time (%) = 2.54968 (0.159936)
Outpt time (%) = 0.000209716 (1.31551e-05)
Other time (%) = 1588.88 (99.6671)

Nlocal:    1.8 ave 38 max 0 min
Histogram: 38 0 0 0 0 0 0 1 0 1
Nghost:    0.325 ave 6 max 0 min
Histogram: 37 0 0 1 0 0 0 0 1 1
Neighs:    0.075 ave 3 max 0 min
Histogram: 39 0 0 0 0 0 0 0 0 1

Total # of neighbors = 3
Ave neighs/atom = 0.0416667
Neighbor list builds = 7348
Dangerous builds = 0
write_dump all custom dump.atom_info_ac_* id type x y z radius vx vy vz density #
run 154320
Setting up run at Fri Jan  6 17:48:32 2023

Memory usage per processor = 958.989 Mbytes
    Step    Atoms         KinEng            CPU 
30709779       72      0.5792131              0 
30864099       72     0.57940002       1515.565 
Loop time of 1515.57 on 40 procs for 154320 steps with 72 atoms, finish time Fri Jan  6 18:13:48 2023


Pair  time (%) = 0.271345 (0.0179039)
Neigh time (%) = 2.49253 (0.164462)
Comm  time (%) = 2.07463 (0.136888)
Outpt time (%) = 0.00046107 (3.04223e-05)
Other time (%) = 1510.73 (99.6807)

Nlocal:    1.8 ave 38 max 0 min
Histogram: 38 0 0 0 0 0 0 1 0 1
Nghost:    0.375 ave 7 max 0 min
Histogram: 36 1 1 0 0 0 0 1 0 1
Neighs:    0.075 ave 3 max 0 min
Histogram: 39 0 0 0 0 0 0 0 0 1

Total # of neighbors = 3
Ave neighs/atom = 0.0416667
Neighbor list builds = 7348
Dangerous builds = 0
write_dump all custom dump.atom_info_ac_* id type x y z radius vx vy vz density #
run 97
Setting up run at Fri Jan  6 18:13:48 2023

Memory usage per processor = 958.989 Mbytes
    Step    Atoms         KinEng            CPU 
30864099       72     0.57940002              0 
30864196       72     0.57946806     0.91477538 
Loop time of 0.91479 on 40 procs for 97 steps with 72 atoms, finish time Fri Jan  6 18:13:49 2023


Pair  time (%) = 0.000164667 (0.0180005)
Neigh time (%) = 0.00134565 (0.1471)
Comm  time (%) = 0.00136581 (0.149303)
Outpt time (%) = 0.000180205 (0.019699)
Other time (%) = 0.911733 (99.6659)

Nlocal:    1.8 ave 38 max 0 min
Histogram: 38 0 0 0 0 0 0 1 0 1
Nghost:    0.375 ave 7 max 0 min
Histogram: 36 1 1 0 0 0 0 1 0 1
Neighs:    0.075 ave 3 max 0 min
Histogram: 39 0 0 0 0 0 0 0 0 1

Total # of neighbors = 3
Ave neighs/atom = 0.0416667
Neighbor list builds = 4
Dangerous builds = 0
write_dump all custom dump.atom_info_ac_* id type x y z radius vx vy vz density #
