LIGGGHTS (Version LIGGGHTS-PUBLIC 3.8.0, compiled 2022-11-07-16:55:38 by serperd1, git commit 86544c3f1215bc9744d7929e3eacf53ba086af9e)
units si #
dimension 3 #
newton off #
boundary f f f #
atom_style sphere #
pair_style gran model hertz tangential history #
communicate single vel yes #
region outer_basket cylinder y 0 0 0.15 -0.15 0.15 #
create_box 3 outer_basket #
Created orthogonal box = (-0.15 -0.15 -0.15) to (0.15 0.15 0.15)
  2 by 4 by 5 MPI processor grid
variable my_omega equal 157.0796 #
fix cone_mesh all mesh/surface file cone.stl type 3 scale 1 #
fix rotating_wall_1 all move/mesh mesh cone_mesh rotate/variable origin 0 0 0 axis 0 1 0 omega v_my_omega #
fix filter_mesh_walls all wall/gran model hertz tangential history primitive type 2 ycylinder_filtermesh 0.069 0 0 3 18 -0.0628 0 0.019061 0.016566 0.044061 0.041566 shear x 10.8385 #

fix inlet_cyl_wall_mesh all mesh/surface file in_cyl.stl type 3 scale 1 #
fix top_cyl_wall_mesh all mesh/surface file top_cyl.stl type 3 scale 1 #
fix rotating_wall_4 all move/mesh mesh top_cyl_wall_mesh rotate/variable origin 0 0 0 axis 0 1 0 omega v_my_omega #
fix bot_cyl_wall_mesh all mesh/surface file bot_cyl.stl type 3 scale 1 #
fix rotating_wall_5 all move/mesh mesh bot_cyl_wall_mesh rotate/variable origin 0 0 0 axis 0 1 0 omega v_my_omega #
fix bot_disk_wall_mesh all mesh/surface file bottom_disk.stl type 3 scale 1 #
fix rotating_wall_6 all move/mesh mesh bot_disk_wall_mesh rotate/variable origin 0 0 0 axis 0 1 0 omega v_my_omega #
fix top_disk_wall_mesh all mesh/surface file top_disk.stl type 3 scale 1 #
fix rotating_wall_7 all move/mesh mesh top_disk_wall_mesh rotate/variable origin 0 0 0 axis 0 1 0 omega v_my_omega #
fix GMSH_mesh_walls all wall/gran model hertz tangential history mesh n_meshes 6 meshes cone_mesh top_cyl_wall_mesh bot_cyl_wall_mesh bot_disk_wall_mesh inlet_cyl_wall_mesh top_disk_wall_mesh #
fix Young_mod all property/global youngsModulus peratomtype 375000000 46000000 1000000000 #
fix Poisson_rat all property/global poissonsRatio peratomtype 0.32 0.42 0.29 #
fix Coeff_rest all property/global coefficientRestitution peratomtypepair 3 0.15 0.32 0.475 0.32 0.49 0.645 0.475 0.645 0.8 #
fix Coeff_fric all property/global coefficientFriction peratomtypepair 3 0.04 0.145 0.12 0.145 0.25 0.225 0.12 0.225 0.2 #

neighbor 0.00026244 bin #
neigh_modify delay 0 one 100000 page 5000000 #
fix r_0to10p all particletemplate/sphere 12345787 atom_type 1 density constant 2650 radius constant 4.2e-05 #
fix r_10to50p all particletemplate/sphere 15485863 atom_type 1 density constant 2650 radius constant 0.0001164 #
fix r_50to90p all particletemplate/sphere 15485867 atom_type 1 density constant 2650 radius constant 0.0004233 #
fix r_90to100p all particletemplate/sphere 32452843 atom_type 1 density constant 2650 radius constant 0.0006561 #
fix prob_par all particledistribution/discrete 32452867 4 r_0to10p 0.1 r_10to50p 0.4 r_50to90p 0.4 r_90to100p 0.1 #
pair_coeff * * #
timestep 3.24e-08 #

fix nve_group all nve/sphere #
fix grav_fix all gravity 6.1081 vector 0.017 -0.0033 0 -1 0 #
fix cent_fix all centrifugal 157.0796 0.017 -0.0033 0.069 #

variable step equal step #
variable mycount equal count(all) #
fix print_amount_of_atoms all print 25 "${step} ${mycount}" file numatoms.txt screen no #
run 0 #
Setting up run at Tue Dec 27 15:34:29 2022

Memory usage per processor = 960.256 Mbytes
    Step    Atoms         KinEng            CPU 
       0        0              0              0 
Loop time of 6.58677e-05 on 40 procs for 0 steps with 0 atoms, finish time Tue Dec 27 15:34:29 2022


Pair  time (%) = 0 (0)
Neigh time (%) = 0 (0)
Comm  time (%) = 0 (0)
Outpt time (%) = 0 (0)
Other time (%) = 6.58677e-05 (100)

Nlocal:    0 ave 0 max 0 min
Histogram: 40 0 0 0 0 0 0 0 0 0
Nghost:    0 ave 0 max 0 min
Histogram: 40 0 0 0 0 0 0 0 0 0
Neighs:    0 ave 0 max 0 min
Histogram: 40 0 0 0 0 0 0 0 0 0

Total # of neighbors = 0
Neighbor list builds = 0
Dangerous builds = 0
run 1 #
Setting up run at Tue Dec 27 15:34:29 2022

Memory usage per processor = 960.256 Mbytes
    Step    Atoms         KinEng            CPU 
       0        0              0              0 
       1        0              0    0.009693953 
Loop time of 0.0097135 on 40 procs for 1 steps with 0 atoms, finish time Tue Dec 27 15:34:29 2022


Pair  time (%) = 2.1167e-06 (0.0217913)
Neigh time (%) = 0 (0)
Comm  time (%) = 0.000185604 (1.91079)
Outpt time (%) = 0.000110248 (1.135)
Other time (%) = 0.00941553 (96.9324)

Nlocal:    0 ave 0 max 0 min
Histogram: 40 0 0 0 0 0 0 0 0 0
Nghost:    0 ave 0 max 0 min
Histogram: 40 0 0 0 0 0 0 0 0 0
Neighs:    0 ave 0 max 0 min
Histogram: 40 0 0 0 0 0 0 0 0 0

Total # of neighbors = 0
Neighbor list builds = 0
Dangerous builds = 0
read_dump dump.atom_info_1 1 x y z radius vx vy vz box no add yes replace no #
  orthogonal box = (-0.15 -0.15 -0.15) to (0.15 0.15 0.15)
  0 atoms before read
  4382 atoms in snapshot
  0 atoms purged
  0 atoms replaced
  0 atoms trimmed
  4382 atoms added
  4382 atoms after read
set atom * type 1 density 2650 vy -0.01175 #
  4382 settings made for type
  4382 settings made for density
  4382 settings made for vy
run 1 #
Setting up run at Tue Dec 27 15:34:29 2022

Memory usage per processor = 964.609 Mbytes
    Step    Atoms         KinEng            CPU 
       1     4382  2.0405663e-07              0 
       2     4382  2.5286639e-06    0.009325869 
Loop time of 0.00933586 on 40 procs for 1 steps with 4382 atoms, finish time Tue Dec 27 15:34:29 2022


Pair  time (%) = 4.27807e-06 (0.0458241)
Neigh time (%) = 0 (0)
Comm  time (%) = 8.7844e-06 (0.0940931)
Outpt time (%) = 0.000247886 (2.6552)
Other time (%) = 0.00907491 (97.2049)

Nlocal:    109.55 ave 1816 max 0 min
Histogram: 36 0 2 0 0 0 0 0 0 2
Nghost:    27.3 ave 345 max 0 min
Histogram: 36 0 0 0 0 1 1 0 0 2
Neighs:    35.525 ave 600 max 0 min
Histogram: 36 0 2 0 0 0 0 0 0 2

Total # of neighbors = 1421
Ave neighs/atom = 0.324281
Neighbor list builds = 0
Dangerous builds = 0
write_dump all custom dump.atom_info_ac_* id type x y z radius vx vy vz density #
run 308641
Setting up run at Tue Dec 27 15:34:29 2022

Memory usage per processor = 964.609 Mbytes
    Step    Atoms         KinEng            CPU 
       2     4382  2.5286639e-06              0 
  308643     4382  0.00030849076      3124.0057 
Loop time of 3124.01 on 40 procs for 308641 steps with 4382 atoms, finish time Tue Dec 27 16:26:33 2022


Pair  time (%) = 1.23779 (0.0396219)
Neigh time (%) = 4.21927 (0.13506)
Comm  time (%) = 4.06851 (0.130234)
Outpt time (%) = 0.000770757 (2.46721e-05)
Other time (%) = 3114.48 (99.6951)

Nlocal:    109.55 ave 1780 max 0 min
Histogram: 36 0 2 0 0 0 0 0 0 2
Nghost:    28.15 ave 360 max 0 min
Histogram: 36 0 0 0 0 1 1 0 0 2
Neighs:    39.35 ave 668 max 0 min
Histogram: 36 0 2 0 0 0 0 0 0 2

Total # of neighbors = 1574
Ave neighs/atom = 0.359197
Neighbor list builds = 1630
Dangerous builds = 0
write_dump all custom dump.atom_info_ac_* id type x y z radius vx vy vz density #
run 308641
Setting up run at Tue Dec 27 16:26:33 2022

Memory usage per processor = 964.609 Mbytes
    Step    Atoms         KinEng            CPU 
  308643     4382  0.00030849076              0 
  617284     4380  0.00035966374      3089.8926 
Loop time of 3089.89 on 40 procs for 308641 steps with 4380 atoms, finish time Tue Dec 27 17:18:03 2022


Pair  time (%) = 1.26544 (0.0409542)
Neigh time (%) = 3.31127 (0.107165)
Comm  time (%) = 4.22971 (0.136889)
Outpt time (%) = 0.000500861 (1.62097e-05)
Other time (%) = 3081.09 (99.715)

Nlocal:    109.5 ave 1746 max 0 min
Histogram: 36 0 2 0 0 0 0 0 0 2
Nghost:    26.625 ave 327 max 0 min
Histogram: 36 0 0 0 0 0 2 0 0 2
Neighs:    41.125 ave 672 max 0 min
Histogram: 36 0 2 0 0 0 0 0 0 2

Total # of neighbors = 1645
Ave neighs/atom = 0.375571
Neighbor list builds = 1282
Dangerous builds = 0
write_dump all custom dump.atom_info_ac_* id type x y z radius vx vy vz density #
run 308641
Setting up run at Tue Dec 27 17:18:03 2022

Memory usage per processor = 964.609 Mbytes
    Step    Atoms         KinEng            CPU 
  617284     4380  0.00035966374              0 
  925925     4374   0.0012243346      3185.3401 
Loop time of 3185.34 on 40 procs for 308641 steps with 4374 atoms, finish time Tue Dec 27 18:11:09 2022


Pair  time (%) = 1.27847 (0.0401362)
Neigh time (%) = 23.5619 (0.739696)
Comm  time (%) = 11.9093 (0.373879)
Outpt time (%) = 0.000752931 (2.36374e-05)
Other time (%) = 3148.59 (98.8463)

Nlocal:    109.35 ave 1729 max 0 min
Histogram: 36 0 2 0 0 0 0 0 0 2
Nghost:    24.525 ave 304 max 0 min
Histogram: 36 0 0 0 0 1 1 0 0 2
Neighs:    40.525 ave 658 max 0 min
Histogram: 36 0 2 0 0 0 0 0 0 2

Total # of neighbors = 1621
Ave neighs/atom = 0.370599
Neighbor list builds = 8777
Dangerous builds = 572
write_dump all custom dump.atom_info_ac_* id type x y z radius vx vy vz density #
run 308641
Setting up run at Tue Dec 27 18:11:09 2022

Memory usage per processor = 964.609 Mbytes
    Step    Atoms         KinEng            CPU 
  925925     4374   0.0012243346              0 
 1234566     4367   0.0076604507      3249.1497 
Loop time of 3249.15 on 40 procs for 308641 steps with 4367 atoms, finish time Tue Dec 27 19:05:18 2022


Pair  time (%) = 1.26178 (0.038834)
Neigh time (%) = 37.1137 (1.14226)
Comm  time (%) = 18.1272 (0.557904)
Outpt time (%) = 0.000707571 (2.17771e-05)
Other time (%) = 3192.65 (98.261)

Nlocal:    109.175 ave 1704 max 0 min
Histogram: 36 0 2 0 0 0 0 0 0 2
Nghost:    23.725 ave 294 max 0 min
Histogram: 36 0 0 0 0 1 1 0 0 2
Neighs:    37.925 ave 630 max 0 min
Histogram: 36 1 1 0 0 0 0 0 0 2

Total # of neighbors = 1517
Ave neighs/atom = 0.347378
Neighbor list builds = 13780
Dangerous builds = 1124
write_dump all custom dump.atom_info_ac_* id type x y z radius vx vy vz density #
run 308641
Setting up run at Tue Dec 27 19:05:18 2022

Memory usage per processor = 964.609 Mbytes
    Step    Atoms         KinEng            CPU 
 1234566     4367   0.0076604507              0 
 1543207     4354    0.047328892      3353.9236 
Loop time of 3353.92 on 40 procs for 308641 steps with 4354 atoms, finish time Tue Dec 27 20:01:12 2022


Pair  time (%) = 1.2657 (0.0377378)
Neigh time (%) = 59.5063 (1.77423)
Comm  time (%) = 26.6546 (0.794729)
Outpt time (%) = 0.000795859 (2.37292e-05)
Other time (%) = 3266.5 (97.3933)

Nlocal:    108.85 ave 1666 max 0 min
Histogram: 36 0 2 0 0 0 0 0 0 2
Nghost:    23.125 ave 299 max 0 min
Histogram: 36 0 0 0 0 2 0 0 0 2
Neighs:    38.675 ave 638 max 0 min
Histogram: 36 0 2 0 0 0 0 0 0 2

Total # of neighbors = 1547
Ave neighs/atom = 0.355305
Neighbor list builds = 22067
Dangerous builds = 1924
write_dump all custom dump.atom_info_ac_* id type x y z radius vx vy vz density #
run 308641
Setting up run at Tue Dec 27 20:01:12 2022

Memory usage per processor = 964.609 Mbytes
    Step    Atoms         KinEng            CPU 
 1543207     4354    0.047328892              0 
 1851848     4348     0.11666481      3689.0097 
Loop time of 3689.03 on 40 procs for 308641 steps with 4348 atoms, finish time Tue Dec 27 21:02:41 2022


Pair  time (%) = 1.33424 (0.0361679)
Neigh time (%) = 127.862 (3.46601)
Comm  time (%) = 65.5538 (1.77699)
Outpt time (%) = 0.00646612 (0.00017528)
Other time (%) = 3494.27 (94.7207)

Nlocal:    108.7 ave 1652 max 0 min
Histogram: 36 0 2 0 0 0 0 0 0 2
Nghost:    22.85 ave 292 max 0 min
Histogram: 36 0 0 0 0 2 0 0 0 2
Neighs:    38.6 ave 630 max 0 min
Histogram: 36 1 1 0 0 0 0 0 0 2

Total # of neighbors = 1544
Ave neighs/atom = 0.355106
Neighbor list builds = 47436
Dangerous builds = 1718
write_dump all custom dump.atom_info_ac_* id type x y z radius vx vy vz density #
run 308641
Setting up run at Tue Dec 27 21:02:41 2022

Memory usage per processor = 964.609 Mbytes
    Step    Atoms         KinEng            CPU 
 1851848     4348     0.11666481              0 
 2160489     4332    0.076702036       3876.288 
Loop time of 3876.29 on 40 procs for 308641 steps with 4332 atoms, finish time Tue Dec 27 22:07:17 2022


Pair  time (%) = 1.35234 (0.0348876)
Neigh time (%) = 168.689 (4.35182)
Comm  time (%) = 108.562 (2.80066)
Outpt time (%) = 0.000705953 (1.82121e-05)
Other time (%) = 3597.68 (92.8126)

Nlocal:    108.3 ave 1649 max 0 min
Histogram: 36 0 2 0 0 0 0 0 0 2
Nghost:    22.1 ave 272 max 0 min
Histogram: 36 0 0 0 0 1 1 0 0 2
Neighs:    36.55 ave 628 max 0 min
Histogram: 36 0 2 0 0 0 0 0 0 2

Total # of neighbors = 1462
Ave neighs/atom = 0.337488
Neighbor list builds = 62492
Dangerous builds = 586
write_dump all custom dump.atom_info_ac_* id type x y z radius vx vy vz density #
run 308641
Setting up run at Tue Dec 27 22:07:17 2022

Memory usage per processor = 964.609 Mbytes
    Step    Atoms         KinEng            CPU 
 2160489     4332    0.076702036              0 
 2469130     4314    0.055557722      3681.4855 
Loop time of 3681.49 on 40 procs for 308641 steps with 4314 atoms, finish time Tue Dec 27 23:08:39 2022


Pair  time (%) = 1.30368 (0.0354119)
Neigh time (%) = 128.202 (3.48235)
Comm  time (%) = 94.3768 (2.56355)
Outpt time (%) = 0.000706723 (1.91967e-05)
Other time (%) = 3457.6 (93.9187)

Nlocal:    107.85 ave 1639 max 0 min
Histogram: 36 0 2 0 0 0 0 0 0 2
Nghost:    21.425 ave 262 max 0 min
Histogram: 36 0 0 0 0 1 1 0 0 2
Neighs:    37.225 ave 655 max 0 min
Histogram: 36 1 1 0 0 0 0 0 1 1

Total # of neighbors = 1489
Ave neighs/atom = 0.345155
Neighbor list builds = 47410
Dangerous builds = 3499
write_dump all custom dump.atom_info_ac_* id type x y z radius vx vy vz density #
run 308641
Setting up run at Tue Dec 27 23:08:39 2022

Memory usage per processor = 964.609 Mbytes
    Step    Atoms         KinEng            CPU 
 2469130     4314    0.055557722              0 
 2777771     4293     0.10857129      3609.5083 
Loop time of 3609.51 on 40 procs for 308641 steps with 4293 atoms, finish time Wed Dec 28 00:08:49 2022


Pair  time (%) = 1.28932 (0.0357202)
Neigh time (%) = 113.629 (3.14805)
Comm  time (%) = 83.5485 (2.31468)
Outpt time (%) = 0.000784143 (2.17244e-05)
Other time (%) = 3411.04 (94.5015)

Nlocal:    107.325 ave 1622 max 0 min
Histogram: 36 0 2 0 0 0 0 0 0 2
Nghost:    20.75 ave 244 max 0 min
Histogram: 36 0 0 0 0 0 2 0 0 2
Neighs:    36.525 ave 641 max 0 min
Histogram: 36 1 1 0 0 0 0 0 1 1

Total # of neighbors = 1461
Ave neighs/atom = 0.340321
Neighbor list builds = 41944
Dangerous builds = 3493
write_dump all custom dump.atom_info_ac_* id type x y z radius vx vy vz density #
run 308641
Setting up run at Wed Dec 28 00:08:49 2022

Memory usage per processor = 964.609 Mbytes
    Step    Atoms         KinEng            CPU 
 2777771     4293     0.10857129              0 
 3086412     4258      1.6632628      3737.7674 
Loop time of 3737.77 on 40 procs for 308641 steps with 4258 atoms, finish time Wed Dec 28 01:11:06 2022


Pair  time (%) = 1.29563 (0.0346631)
Neigh time (%) = 141.069 (3.77415)
Comm  time (%) = 115.268 (3.08388)
Outpt time (%) = 0.0065745 (0.000175894)
Other time (%) = 3480.13 (93.1071)

Nlocal:    106.45 ave 1604 max 0 min
Histogram: 36 0 2 0 0 0 0 0 0 2
Nghost:    20.7 ave 256 max 0 min
Histogram: 36 0 0 0 0 0 2 0 0 2
Neighs:    36.35 ave 627 max 0 min
Histogram: 36 1 1 0 0 0 0 0 0 2

Total # of neighbors = 1454
Ave neighs/atom = 0.341475
Neighbor list builds = 52114
Dangerous builds = 7925
write_dump all custom dump.atom_info_ac_* id type x y z radius vx vy vz density #
run 308641
Setting up run at Wed Dec 28 01:11:07 2022

Memory usage per processor = 964.609 Mbytes
    Step    Atoms         KinEng            CPU 
 3086412     4258      1.6632628              0 
 3395053     4222     0.42698779      3649.0119 
Loop time of 3649.01 on 40 procs for 308641 steps with 4222 atoms, finish time Wed Dec 28 02:11:56 2022


Pair  time (%) = 1.2483 (0.0342092)
Neigh time (%) = 121.947 (3.34192)
Comm  time (%) = 109.368 (2.99719)
Outpt time (%) = 0.00652664 (0.000178861)
Other time (%) = 3416.44 (93.6265)

Nlocal:    105.55 ave 1597 max 0 min
Histogram: 36 0 2 0 0 0 0 0 0 2
Nghost:    20.15 ave 258 max 0 min
Histogram: 36 0 0 0 0 1 1 0 1 1
Neighs:    34.475 ave 577 max 0 min
Histogram: 36 0 2 0 0 0 0 0 0 2

Total # of neighbors = 1379
Ave neighs/atom = 0.326622
Neighbor list builds = 45064
Dangerous builds = 6599
write_dump all custom dump.atom_info_ac_* id type x y z radius vx vy vz density #
run 308641
Setting up run at Wed Dec 28 02:11:56 2022

Memory usage per processor = 964.609 Mbytes
    Step    Atoms         KinEng            CPU 
 3395053     4222     0.42698779              0 
 3703694     4192     0.22533809      3858.9452 
Loop time of 3858.95 on 40 procs for 308641 steps with 4192 atoms, finish time Wed Dec 28 03:16:15 2022


Pair  time (%) = 1.28576 (0.033319)
Neigh time (%) = 168.552 (4.36782)
Comm  time (%) = 152.496 (3.95175)
Outpt time (%) = 0.000787848 (2.04161e-05)
Other time (%) = 3536.61 (91.6471)

Nlocal:    104.8 ave 1595 max 0 min
Histogram: 36 0 2 0 0 0 0 0 0 2
Nghost:    19.425 ave 250 max 0 min
Histogram: 36 0 0 0 0 2 0 0 1 1
Neighs:    32.725 ave 562 max 0 min
Histogram: 36 1 1 0 0 0 0 0 0 2

Total # of neighbors = 1309
Ave neighs/atom = 0.312261
Neighbor list builds = 62389
Dangerous builds = 11592
write_dump all custom dump.atom_info_ac_* id type x y z radius vx vy vz density #
run 308641
Setting up run at Wed Dec 28 03:16:15 2022

Memory usage per processor = 964.609 Mbytes
    Step    Atoms         KinEng            CPU 
 3703694     4192     0.22533809              0 
 4012335     4155      29.669793      3697.2965 
Loop time of 3697.3 on 40 procs for 308641 steps with 4155 atoms, finish time Wed Dec 28 04:17:52 2022


Pair  time (%) = 1.24509 (0.0336756)
Neigh time (%) = 133.035 (3.59818)
Comm  time (%) = 109.525 (2.9623)
Outpt time (%) = 0.00653496 (0.00017675)
Other time (%) = 3453.48 (93.4057)

Nlocal:    103.875 ave 1567 max 0 min
Histogram: 36 0 2 0 0 0 0 0 0 2
Nghost:    19.425 ave 252 max 0 min
Histogram: 36 0 0 0 0 1 1 0 1 1
Neighs:    32.325 ave 570 max 0 min
Histogram: 36 2 0 0 0 0 0 0 0 2

Total # of neighbors = 1293
Ave neighs/atom = 0.311191
Neighbor list builds = 49175
Dangerous builds = 4877
write_dump all custom dump.atom_info_ac_* id type x y z radius vx vy vz density #
run 308641
Setting up run at Wed Dec 28 04:17:52 2022

Memory usage per processor = 964.609 Mbytes
    Step    Atoms         KinEng            CPU 
 4012335     4155      29.669793              0 
 4320976     4125     0.47185173      3748.7405 
Loop time of 3748.74 on 40 procs for 308641 steps with 4125 atoms, finish time Wed Dec 28 05:20:21 2022


Pair  time (%) = 1.24303 (0.0331586)
Neigh time (%) = 145.311 (3.87627)
Comm  time (%) = 123.011 (3.2814)
Outpt time (%) = 0.000791013 (2.11008e-05)
Other time (%) = 3479.17 (92.8091)

Nlocal:    103.125 ave 1533 max 0 min
Histogram: 36 0 2 0 0 0 0 0 0 2
Nghost:    18.3 ave 233 max 0 min
Histogram: 36 0 0 0 0 1 1 0 1 1
Neighs:    30.175 ave 516 max 0 min
Histogram: 36 2 0 0 0 0 0 0 0 2

Total # of neighbors = 1207
Ave neighs/atom = 0.292606
Neighbor list builds = 53725
Dangerous builds = 2743
write_dump all custom dump.atom_info_ac_* id type x y z radius vx vy vz density #
run 308641
Setting up run at Wed Dec 28 05:20:21 2022

Memory usage per processor = 964.609 Mbytes
    Step    Atoms         KinEng            CPU 
 4320976     4125     0.47185173              0 
 4629617     4082     0.43148658      4254.7267 
Loop time of 4254.73 on 40 procs for 308641 steps with 4082 atoms, finish time Wed Dec 28 06:31:16 2022


Pair  time (%) = 1.33352 (0.031342)
Neigh time (%) = 252.005 (5.92293)
Comm  time (%) = 214.826 (5.0491)
Outpt time (%) = 0.0064521 (0.000151646)
Other time (%) = 3786.56 (88.9965)

Nlocal:    102.05 ave 1506 max 0 min
Histogram: 36 0 2 0 0 0 0 0 0 2
Nghost:    17.775 ave 220 max 0 min
Histogram: 36 0 0 0 0 1 1 0 0 2
Neighs:    29.525 ave 505 max 0 min
Histogram: 36 2 0 0 0 0 0 0 0 2

Total # of neighbors = 1181
Ave neighs/atom = 0.289319
Neighbor list builds = 93345
Dangerous builds = 6740
write_dump all custom dump.atom_info_ac_* id type x y z radius vx vy vz density #
run 308641
Setting up run at Wed Dec 28 06:31:16 2022

Memory usage per processor = 964.609 Mbytes
    Step    Atoms         KinEng            CPU 
 4629617     4082     0.43148658              0 
 4938258     4036      1.0446603      4095.2665 
Loop time of 4095.27 on 40 procs for 308641 steps with 4036 atoms, finish time Wed Dec 28 07:39:31 2022


Pair  time (%) = 1.28449 (0.0313651)
Neigh time (%) = 218.432 (5.33377)
Comm  time (%) = 192.361 (4.69717)
Outpt time (%) = 0.000683018 (1.66782e-05)
Other time (%) = 3683.19 (89.9377)

Nlocal:    100.9 ave 1510 max 0 min
Histogram: 36 0 2 0 0 0 0 0 0 2
Nghost:    18.05 ave 229 max 0 min
Histogram: 36 0 0 0 0 2 0 0 0 2
Neighs:    27.525 ave 514 max 0 min
Histogram: 36 2 0 0 0 0 0 0 1 1

Total # of neighbors = 1101
Ave neighs/atom = 0.272795
Neighbor list builds = 80820
Dangerous builds = 1902
write_dump all custom dump.atom_info_ac_* id type x y z radius vx vy vz density #
run 308641
Setting up run at Wed Dec 28 07:39:31 2022

Memory usage per processor = 964.609 Mbytes
    Step    Atoms         KinEng            CPU 
 4938258     4036      1.0446603              0 
 5246899     4004     0.48388042      3792.6052 
Loop time of 3792.61 on 40 procs for 308641 steps with 4004 atoms, finish time Wed Dec 28 08:42:44 2022


Pair  time (%) = 1.20404 (0.0317471)
Neigh time (%) = 154.695 (4.07887)
Comm  time (%) = 143.795 (3.79145)
Outpt time (%) = 0.000432317 (1.1399e-05)
Other time (%) = 3492.91 (92.0979)

Nlocal:    100.1 ave 1546 max 0 min
Histogram: 36 1 1 0 0 0 0 0 1 1
Nghost:    17.875 ave 218 max 0 min
Histogram: 36 0 0 0 0 1 1 0 0 2
Neighs:    23.575 ave 486 max 0 min
Histogram: 36 2 0 0 0 0 1 0 0 1

Total # of neighbors = 943
Ave neighs/atom = 0.235514
Neighbor list builds = 57177
Dangerous builds = 5408
write_dump all custom dump.atom_info_ac_* id type x y z radius vx vy vz density #
run 308641
Setting up run at Wed Dec 28 08:42:44 2022

Memory usage per processor = 964.609 Mbytes
    Step    Atoms         KinEng            CPU 
 5246899     4004     0.48388042              0 
 5555540     3964      1.2478984      3791.3899 
Loop time of 3791.39 on 40 procs for 308641 steps with 3964 atoms, finish time Wed Dec 28 09:45:55 2022


Pair  time (%) = 1.17286 (0.0309348)
Neigh time (%) = 155.191 (4.09324)
Comm  time (%) = 155.568 (4.10319)
Outpt time (%) = 0.000693571 (1.82933e-05)
Other time (%) = 3479.46 (91.7726)

Nlocal:    99.1 ave 1602 max 0 min
Histogram: 36 0 2 0 0 0 0 1 0 1
Nghost:    18 ave 223 max 0 min
Histogram: 36 0 0 0 1 1 0 0 0 2
Neighs:    20.75 ave 466 max 0 min
Histogram: 36 2 0 0 1 0 0 0 0 1

Total # of neighbors = 830
Ave neighs/atom = 0.209384
Neighbor list builds = 57491
Dangerous builds = 4662
write_dump all custom dump.atom_info_ac_* id type x y z radius vx vy vz density #
run 308641
Setting up run at Wed Dec 28 09:45:55 2022

Memory usage per processor = 964.609 Mbytes
    Step    Atoms         KinEng            CPU 
 5555540     3964      1.2478984              0 
 5864181     3909     0.96637537      3789.3521 
Loop time of 3789.35 on 40 procs for 308641 steps with 3909 atoms, finish time Wed Dec 28 10:49:05 2022


Pair  time (%) = 1.14171 (0.0301294)
Neigh time (%) = 156.185 (4.12168)
Comm  time (%) = 171.757 (4.53263)
Outpt time (%) = 0.000597165 (1.5759e-05)
Other time (%) = 3460.27 (91.3155)

Nlocal:    97.725 ave 1613 max 0 min
Histogram: 36 0 2 0 0 0 1 0 0 1
Nghost:    17.425 ave 229 max 0 min
Histogram: 36 0 0 0 1 1 0 0 0 2
Neighs:    18.75 ave 484 max 0 min
Histogram: 37 1 0 1 0 0 0 0 0 1

Total # of neighbors = 750
Ave neighs/atom = 0.191865
Neighbor list builds = 57868
Dangerous builds = 5437
write_dump all custom dump.atom_info_ac_* id type x y z radius vx vy vz density #
run 308641
Setting up run at Wed Dec 28 10:49:05 2022

Memory usage per processor = 964.609 Mbytes
    Step    Atoms         KinEng            CPU 
 5864181     3909     0.96637537              0 
 6172822     3847     0.62219626      4029.7588 
Loop time of 4029.76 on 40 procs for 308641 steps with 3847 atoms, finish time Wed Dec 28 11:56:15 2022


Pair  time (%) = 1.14609 (0.0284405)
Neigh time (%) = 208.809 (5.18168)
Comm  time (%) = 230.751 (5.72616)
Outpt time (%) = 0.00068716 (1.70521e-05)
Other time (%) = 3589.05 (89.0637)

Nlocal:    96.175 ave 1558 max 0 min
Histogram: 36 1 1 0 0 0 1 0 0 1
Nghost:    16.475 ave 214 max 0 min
Histogram: 36 0 0 0 1 1 0 0 0 2
Neighs:    17.675 ave 463 max 0 min
Histogram: 37 1 1 0 0 0 0 0 0 1

Total # of neighbors = 707
Ave neighs/atom = 0.18378
Neighbor list builds = 77314
Dangerous builds = 10722
write_dump all custom dump.atom_info_ac_* id type x y z radius vx vy vz density #
run 308641
Setting up run at Wed Dec 28 11:56:15 2022

Memory usage per processor = 964.609 Mbytes
    Step    Atoms         KinEng            CPU 
 6172822     3847     0.62219626              0 
 6481463     3779     0.56818567      4007.8434 
Loop time of 4007.84 on 40 procs for 308641 steps with 3779 atoms, finish time Wed Dec 28 13:03:03 2022


Pair  time (%) = 1.12025 (0.0279515)
Neigh time (%) = 205.721 (5.13296)
Comm  time (%) = 234.038 (5.8395)
Outpt time (%) = 0.000744598 (1.85785e-05)
Other time (%) = 3566.96 (88.9996)

Nlocal:    94.475 ave 1483 max 0 min
Histogram: 36 0 2 0 0 0 1 0 0 1
Nghost:    15.65 ave 187 max 0 min
Histogram: 36 0 0 0 1 0 1 0 0 2
Neighs:    14.625 ave 391 max 0 min
Histogram: 37 1 1 0 0 0 0 0 0 1

Total # of neighbors = 585
Ave neighs/atom = 0.154803
Neighbor list builds = 75914
Dangerous builds = 10990
write_dump all custom dump.atom_info_ac_* id type x y z radius vx vy vz density #
run 308641
Setting up run at Wed Dec 28 13:03:03 2022

Memory usage per processor = 964.609 Mbytes
    Step    Atoms         KinEng            CPU 
 6481463     3779     0.56818567              0 
 6790104     3710     0.59942254      3966.3399 
Loop time of 3966.34 on 40 procs for 308641 steps with 3710 atoms, finish time Wed Dec 28 14:09:10 2022


Pair  time (%) = 1.05644 (0.026635)
Neigh time (%) = 171.14 (4.31482)
Comm  time (%) = 221.415 (5.58235)
Outpt time (%) = 0.000702997 (1.77241e-05)
Other time (%) = 3572.73 (90.0762)

Nlocal:    92.75 ave 1419 max 0 min
Histogram: 33 3 2 0 0 0 1 0 0 1
Nghost:    14.25 ave 177 max 0 min
Histogram: 36 0 0 0 1 1 0 0 0 2
Neighs:    12 ave 286 max 0 min
Histogram: 37 0 1 1 0 0 0 0 0 1

Total # of neighbors = 480
Ave neighs/atom = 0.12938
Neighbor list builds = 63022
Dangerous builds = 6241
write_dump all custom dump.atom_info_ac_* id type x y z radius vx vy vz density #
run 308641
Setting up run at Wed Dec 28 14:09:10 2022

Memory usage per processor = 964.609 Mbytes
    Step    Atoms         KinEng            CPU 
 6790104     3710     0.59942254              0 
 7098745     3618     0.67935966      4145.7339 
Loop time of 4145.73 on 40 procs for 308641 steps with 3618 atoms, finish time Wed Dec 28 15:18:16 2022


Pair  time (%) = 1.06944 (0.0257962)
Neigh time (%) = 234.798 (5.6636)
Comm  time (%) = 274.727 (6.62674)
Outpt time (%) = 0.000692363 (1.67006e-05)
Other time (%) = 3635.14 (87.6838)

Nlocal:    90.45 ave 1260 max 0 min
Histogram: 33 3 2 0 0 0 0 1 0 1
Nghost:    14.3 ave 167 max 0 min
Histogram: 36 0 0 0 1 0 1 0 0 2
Neighs:    9.075 ave 195 max 0 min
Histogram: 37 0 1 0 1 0 0 0 0 1

Total # of neighbors = 363
Ave neighs/atom = 0.100332
Neighbor list builds = 86263
Dangerous builds = 8567
write_dump all custom dump.atom_info_ac_* id type x y z radius vx vy vz density #
run 308641
Setting up run at Wed Dec 28 15:18:16 2022

Memory usage per processor = 964.609 Mbytes
    Step    Atoms         KinEng            CPU 
 7098745     3618     0.67935966              0 
 7407386     3524     0.70239265      3937.7038 
Loop time of 3937.71 on 40 procs for 308641 steps with 3524 atoms, finish time Wed Dec 28 16:23:54 2022


Pair  time (%) = 1.01883 (0.0258736)
Neigh time (%) = 186.45 (4.73497)
Comm  time (%) = 227.324 (5.77298)
Outpt time (%) = 0.0256563 (0.000651553)
Other time (%) = 3522.9 (89.4655)

Nlocal:    88.1 ave 1206 max 0 min
Histogram: 32 4 2 0 0 0 0 1 0 1
Nghost:    14.4 ave 168 max 0 min
Histogram: 36 0 0 1 0 0 0 1 0 2
Neighs:    8.175 ave 156 max 0 min
Histogram: 37 0 0 1 0 1 0 0 0 1

Total # of neighbors = 327
Ave neighs/atom = 0.0927923
Neighbor list builds = 68334
Dangerous builds = 11955
write_dump all custom dump.atom_info_ac_* id type x y z radius vx vy vz density #
run 308641
Setting up run at Wed Dec 28 16:23:54 2022

Memory usage per processor = 964.609 Mbytes
    Step    Atoms         KinEng            CPU 
 7407386     3524     0.70239265              0 
 7716027     3422     0.85273643      3908.5681 
Loop time of 3908.57 on 40 procs for 308641 steps with 3422 atoms, finish time Wed Dec 28 17:29:03 2022


Pair  time (%) = 0.981948 (0.0251229)
Neigh time (%) = 193.019 (4.93835)
Comm  time (%) = 237.413 (6.07417)
Outpt time (%) = 0.000604683 (1.54707e-05)
Other time (%) = 3477.15 (88.9623)

Nlocal:    85.55 ave 1120 max 0 min
Histogram: 33 3 2 0 0 0 0 1 0 1
Nghost:    13.475 ave 160 max 0 min
Histogram: 36 0 0 0 1 0 1 0 0 2
Neighs:    6.975 ave 119 max 0 min
Histogram: 36 1 0 0 1 1 0 0 0 1

Total # of neighbors = 279
Ave neighs/atom = 0.0815313
Neighbor list builds = 70743
Dangerous builds = 9647
write_dump all custom dump.atom_info_ac_* id type x y z radius vx vy vz density #
run 308641
Setting up run at Wed Dec 28 17:29:03 2022

Memory usage per processor = 964.609 Mbytes
    Step    Atoms         KinEng            CPU 
 7716027     3422     0.85273643              0 
 8024668     3317     0.83756555      3964.1573 
Loop time of 3964.16 on 40 procs for 308641 steps with 3317 atoms, finish time Wed Dec 28 18:35:07 2022


Pair  time (%) = 0.964511 (0.0243308)
Neigh time (%) = 202.595 (5.11066)
Comm  time (%) = 240.806 (6.07458)
Outpt time (%) = 0.000628065 (1.58436e-05)
Other time (%) = 3519.79 (88.7904)

Nlocal:    82.925 ave 1033 max 0 min
Histogram: 32 4 1 1 0 0 0 0 1 1
Nghost:    11.975 ave 151 max 0 min
Histogram: 36 0 0 0 1 1 0 1 0 1
Neighs:    6.35 ave 118 max 0 min
Histogram: 36 1 0 0 2 0 0 0 0 1

Total # of neighbors = 254
Ave neighs/atom = 0.0765752
Neighbor list builds = 74142
Dangerous builds = 9510
write_dump all custom dump.atom_info_ac_* id type x y z radius vx vy vz density #
run 308641
Setting up run at Wed Dec 28 18:35:07 2022

Memory usage per processor = 964.609 Mbytes
    Step    Atoms         KinEng            CPU 
 8024668     3317     0.83756555              0 
 8333309     3222     0.95792956      3844.4548 
Loop time of 3844.46 on 40 procs for 308641 steps with 3222 atoms, finish time Wed Dec 28 19:39:12 2022


Pair  time (%) = 0.93089 (0.0242138)
Neigh time (%) = 180.237 (4.68823)
Comm  time (%) = 217.761 (5.66428)
Outpt time (%) = 0.000641108 (1.66762e-05)
Other time (%) = 3445.53 (89.6233)

Nlocal:    80.55 ave 940 max 0 min
Histogram: 32 3 2 1 0 0 0 0 1 1
Nghost:    10.725 ave 135 max 0 min
Histogram: 36 0 0 0 1 0 2 0 0 1
Neighs:    4.8 ave 70 max 0 min
Histogram: 35 2 0 0 0 1 0 1 0 1

Total # of neighbors = 192
Ave neighs/atom = 0.0595903
Neighbor list builds = 65789
Dangerous builds = 9721
write_dump all custom dump.atom_info_ac_* id type x y z radius vx vy vz density #
run 308641
Setting up run at Wed Dec 28 19:39:12 2022

Memory usage per processor = 964.609 Mbytes
    Step    Atoms         KinEng            CPU 
 8333309     3222     0.95792956              0 
 8641950     3122      1.3340231      3848.7177 
Loop time of 3848.72 on 40 procs for 308641 steps with 3122 atoms, finish time Wed Dec 28 20:43:20 2022


Pair  time (%) = 0.911133 (0.0236737)
Neigh time (%) = 182.024 (4.72947)
Comm  time (%) = 211.584 (5.49751)
Outpt time (%) = 0.000690465 (1.79401e-05)
Other time (%) = 3454.2 (89.7493)

Nlocal:    78.05 ave 848 max 0 min
Histogram: 32 3 1 2 0 0 0 0 0 2
Nghost:    10.3 ave 118 max 0 min
Histogram: 36 0 0 0 0 2 0 0 0 2
Neighs:    3.725 ave 49 max 0 min
Histogram: 34 2 1 0 0 1 0 1 0 1

Total # of neighbors = 149
Ave neighs/atom = 0.0477258
Neighbor list builds = 66203
Dangerous builds = 8827
write_dump all custom dump.atom_info_ac_* id type x y z radius vx vy vz density #
run 308641
Setting up run at Wed Dec 28 20:43:20 2022

Memory usage per processor = 964.609 Mbytes
    Step    Atoms         KinEng            CPU 
 8641950     3122      1.3340231              0 
 8950591     3024      1.0749042      4072.4453 
Loop time of 4072.45 on 40 procs for 308641 steps with 3024 atoms, finish time Wed Dec 28 21:51:13 2022


Pair  time (%) = 0.905139 (0.0222259)
Neigh time (%) = 219.828 (5.39794)
Comm  time (%) = 262.278 (6.44031)
Outpt time (%) = 0.000619149 (1.52034e-05)
Other time (%) = 3589.43 (88.1395)

Nlocal:    75.6 ave 803 max 0 min
Histogram: 32 0 4 2 0 0 0 0 1 1
Nghost:    9.75 ave 106 max 0 min
Histogram: 35 1 0 0 0 2 0 0 0 2
Neighs:    2.95 ave 41 max 0 min
Histogram: 33 1 4 0 0 0 1 0 0 1

Total # of neighbors = 118
Ave neighs/atom = 0.0390212
Neighbor list builds = 79783
Dangerous builds = 10511
write_dump all custom dump.atom_info_ac_* id type x y z radius vx vy vz density #
run 308641
Setting up run at Wed Dec 28 21:51:13 2022

Memory usage per processor = 964.609 Mbytes
    Step    Atoms         KinEng            CPU 
 8950591     3024      1.0749042              0 
 9259232     2901      1.1647881      3931.9848 
Loop time of 3931.99 on 40 procs for 308641 steps with 2901 atoms, finish time Wed Dec 28 22:56:45 2022


Pair  time (%) = 0.883259 (0.0224634)
Neigh time (%) = 201.879 (5.13428)
Comm  time (%) = 234.8 (5.97154)
Outpt time (%) = 0.00591965 (0.000150551)
Other time (%) = 3494.42 (88.8716)

Nlocal:    72.525 ave 742 max 0 min
Histogram: 32 1 3 2 0 0 0 0 1 1
Nghost:    8.325 ave 101 max 0 min
Histogram: 36 0 0 1 1 0 0 0 1 1
Neighs:    2.825 ave 39 max 0 min
Histogram: 32 3 2 1 0 1 0 0 0 1

Total # of neighbors = 113
Ave neighs/atom = 0.0389521
Neighbor list builds = 73235
Dangerous builds = 13185
write_dump all custom dump.atom_info_ac_* id type x y z radius vx vy vz density #
run 308641
Setting up run at Wed Dec 28 22:56:45 2022

Memory usage per processor = 964.609 Mbytes
    Step    Atoms         KinEng            CPU 
 9259232     2901      1.1647881              0 
 9567873     2808      1.0157523      4006.8177 
Loop time of 4006.82 on 40 procs for 308641 steps with 2808 atoms, finish time Thu Dec 29 00:03:32 2022


Pair  time (%) = 0.882733 (0.0220308)
Neigh time (%) = 216.924 (5.41388)
Comm  time (%) = 258.854 (6.46033)
Outpt time (%) = 0.00567949 (0.000141746)
Other time (%) = 3530.15 (88.1036)

Nlocal:    70.2 ave 691 max 0 min
Histogram: 32 0 4 1 1 0 0 0 0 2
Nghost:    8.75 ave 102 max 0 min
Histogram: 35 1 0 0 2 0 0 0 1 1
Neighs:    2.625 ave 24 max 0 min
Histogram: 32 0 2 0 1 2 2 0 0 1

Total # of neighbors = 105
Ave neighs/atom = 0.0373932
Neighbor list builds = 78718
Dangerous builds = 18455
write_dump all custom dump.atom_info_ac_* id type x y z radius vx vy vz density #
run 308641
Setting up run at Thu Dec 29 00:03:32 2022

Memory usage per processor = 964.609 Mbytes
    Step    Atoms         KinEng            CPU 
 9567873     2808      1.0157523              0 
 9876514     2691      1.0390566      4054.6238 
Loop time of 4054.62 on 40 procs for 308641 steps with 2691 atoms, finish time Thu Dec 29 01:11:07 2022


Pair  time (%) = 0.884139 (0.0218057)
Neigh time (%) = 232.774 (5.74094)
Comm  time (%) = 276.226 (6.81263)
Outpt time (%) = 0.00597647 (0.000147399)
Other time (%) = 3544.73 (87.4245)

Nlocal:    67.275 ave 658 max 0 min
Histogram: 32 0 3 3 0 0 0 0 0 2
Nghost:    8.3 ave 85 max 0 min
Histogram: 35 1 0 0 0 1 1 0 0 2
Neighs:    2.15 ave 26 max 0 min
Histogram: 33 0 2 1 2 1 0 0 0 1

Total # of neighbors = 86
Ave neighs/atom = 0.0319584
Neighbor list builds = 84500
Dangerous builds = 15468
write_dump all custom dump.atom_info_ac_* id type x y z radius vx vy vz density #
run 308641
Setting up run at Thu Dec 29 01:11:07 2022

Memory usage per processor = 964.609 Mbytes
    Step    Atoms         KinEng            CPU 
 9876514     2691      1.0390566              0 
10185155     2609        1.15025      4078.6197 
Loop time of 4078.64 on 40 procs for 308641 steps with 2609 atoms, finish time Thu Dec 29 02:19:06 2022


Pair  time (%) = 0.882435 (0.0216355)
Neigh time (%) = 239.893 (5.8817)
Comm  time (%) = 276.059 (6.76842)
Outpt time (%) = 0.00578745 (0.000141897)
Other time (%) = 3561.8 (87.3281)

Nlocal:    65.225 ave 619 max 0 min
Histogram: 31 1 2 4 0 0 0 0 1 1
Nghost:    7.025 ave 83 max 0 min
Histogram: 34 2 0 1 1 0 0 1 0 1
Neighs:    2.175 ave 34 max 0 min
Histogram: 33 2 3 1 0 0 0 0 0 1

Total # of neighbors = 87
Ave neighs/atom = 0.0333461
Neighbor list builds = 87075
Dangerous builds = 8575
write_dump all custom dump.atom_info_ac_* id type x y z radius vx vy vz density #
run 308641
Setting up run at Thu Dec 29 02:19:06 2022

Memory usage per processor = 964.609 Mbytes
    Step    Atoms         KinEng            CPU 
10185155     2609        1.15025              0 
10493796     2499      1.7601648      4171.9887 
Loop time of 4171.99 on 40 procs for 308641 steps with 2499 atoms, finish time Thu Dec 29 03:28:38 2022


Pair  time (%) = 0.899061 (0.0215499)
Neigh time (%) = 262.625 (6.29496)
Comm  time (%) = 295.971 (7.09423)
Outpt time (%) = 0.000618639 (1.48284e-05)
Other time (%) = 3612.49 (86.5892)

Nlocal:    62.475 ave 568 max 0 min
Histogram: 32 0 2 2 2 0 0 0 0 2
Nghost:    6.3 ave 65 max 0 min
Histogram: 31 5 0 0 1 1 0 0 0 2
Neighs:    2.45 ave 22 max 0 min
Histogram: 32 1 1 1 1 1 0 0 1 2

Total # of neighbors = 98
Ave neighs/atom = 0.0392157
Neighbor list builds = 95443
Dangerous builds = 14923
write_dump all custom dump.atom_info_ac_* id type x y z radius vx vy vz density #
run 308641
Setting up run at Thu Dec 29 03:28:38 2022

Memory usage per processor = 964.609 Mbytes
    Step    Atoms         KinEng            CPU 
10493796     2499      1.7601648              0 
10802437     2390      1.1702584      4282.6432 
Loop time of 4282.64 on 40 procs for 308641 steps with 2390 atoms, finish time Thu Dec 29 04:40:00 2022


Pair  time (%) = 0.898362 (0.0209768)
Neigh time (%) = 290.236 (6.77703)
Comm  time (%) = 328.378 (7.66766)
Outpt time (%) = 0.000566015 (1.32165e-05)
Other time (%) = 3663.13 (85.5343)

Nlocal:    59.75 ave 535 max 0 min
Histogram: 31 1 2 3 1 0 0 0 0 2
Nghost:    6.925 ave 72 max 0 min
Histogram: 32 4 0 0 1 1 0 0 1 1
Neighs:    2.075 ave 19 max 0 min
Histogram: 32 0 1 3 0 1 0 2 0 1

Total # of neighbors = 83
Ave neighs/atom = 0.034728
Neighbor list builds = 105560
Dangerous builds = 11170
write_dump all custom dump.atom_info_ac_* id type x y z radius vx vy vz density #
run 308641
Setting up run at Thu Dec 29 04:40:01 2022

Memory usage per processor = 964.609 Mbytes
    Step    Atoms         KinEng            CPU 
10802437     2390      1.1702584              0 
11111078     2302      1.9396143      4138.4565 
Loop time of 4138.46 on 40 procs for 308641 steps with 2302 atoms, finish time Thu Dec 29 05:48:59 2022


Pair  time (%) = 0.853868 (0.0206325)
Neigh time (%) = 253.705 (6.13042)
Comm  time (%) = 295.531 (7.14108)
Outpt time (%) = 0.00608686 (0.00014708)
Other time (%) = 3588.36 (86.7077)

Nlocal:    57.55 ave 514 max 0 min
Histogram: 30 2 2 4 0 0 0 0 0 2
Nghost:    5.7 ave 59 max 0 min
Histogram: 30 6 0 1 1 0 0 0 0 2
Neighs:    1.75 ave 13 max 0 min
Histogram: 32 0 1 1 0 1 1 1 1 2

Total # of neighbors = 70
Ave neighs/atom = 0.0304083
Neighbor list builds = 92135
Dangerous builds = 12731
write_dump all custom dump.atom_info_ac_* id type x y z radius vx vy vz density #
run 308641
Setting up run at Thu Dec 29 05:48:59 2022

Memory usage per processor = 964.609 Mbytes
    Step    Atoms         KinEng            CPU 
11111078     2302      1.9396143              0 
11419719     2197      1.1353167      3849.9054 
Loop time of 3849.91 on 40 procs for 308641 steps with 2197 atoms, finish time Thu Dec 29 06:53:09 2022


Pair  time (%) = 0.811437 (0.0210768)
Neigh time (%) = 188.981 (4.90872)
Comm  time (%) = 216.221 (5.61626)
Outpt time (%) = 0.00065946 (1.71293e-05)
Other time (%) = 3443.89 (89.4539)

Nlocal:    54.925 ave 498 max 0 min
Histogram: 30 2 2 3 1 0 0 0 1 1
Nghost:    5.625 ave 53 max 0 min
Histogram: 29 7 0 0 2 0 0 0 0 2
Neighs:    1.4 ave 14 max 0 min
Histogram: 32 1 1 1 3 0 0 0 0 2

Total # of neighbors = 56
Ave neighs/atom = 0.0254893
Neighbor list builds = 68589
Dangerous builds = 10526
write_dump all custom dump.atom_info_ac_* id type x y z radius vx vy vz density #
run 308641
Setting up run at Thu Dec 29 06:53:09 2022

Memory usage per processor = 964.609 Mbytes
    Step    Atoms         KinEng            CPU 
11419719     2197      1.1353167              0 
11728360     2108      1.1311989      3777.7863 
Loop time of 3777.79 on 40 procs for 308641 steps with 2108 atoms, finish time Thu Dec 29 07:56:07 2022


Pair  time (%) = 0.797798 (0.0211181)
Neigh time (%) = 173.247 (4.58593)
Comm  time (%) = 189.503 (5.01624)
Outpt time (%) = 0.000580744 (1.53726e-05)
Other time (%) = 3414.24 (90.3767)

Nlocal:    52.7 ave 456 max 0 min
Histogram: 30 2 1 2 3 0 0 0 0 2
Nghost:    5.125 ave 57 max 0 min
Histogram: 32 4 0 0 1 1 0 1 0 1
Neighs:    1.925 ave 16 max 0 min
Histogram: 32 1 1 1 0 0 1 1 2 1

Total # of neighbors = 77
Ave neighs/atom = 0.0365275
Neighbor list builds = 62824
Dangerous builds = 10515
write_dump all custom dump.atom_info_ac_* id type x y z radius vx vy vz density #
run 308641
Setting up run at Thu Dec 29 07:56:07 2022

Memory usage per processor = 964.609 Mbytes
    Step    Atoms         KinEng            CPU 
11728360     2108      1.1311989              0 
12037001     2003      1.0778158      3762.4468 
Loop time of 3762.45 on 40 procs for 308641 steps with 2003 atoms, finish time Thu Dec 29 08:58:50 2022


Pair  time (%) = 0.787572 (0.0209324)
Neigh time (%) = 170.428 (4.52971)
Comm  time (%) = 190.005 (5.05004)
Outpt time (%) = 0.000603108 (1.60297e-05)
Other time (%) = 3401.23 (90.3993)

Nlocal:    50.075 ave 425 max 0 min
Histogram: 30 2 2 1 2 1 0 0 0 2
Nghost:    5 ave 53 max 0 min
Histogram: 34 2 0 0 1 1 0 0 1 1
Neighs:    1.4 ave 15 max 0 min
Histogram: 33 0 1 2 0 1 1 1 0 1

Total # of neighbors = 56
Ave neighs/atom = 0.0279581
Neighbor list builds = 61846
Dangerous builds = 11003
write_dump all custom dump.atom_info_ac_* id type x y z radius vx vy vz density #
run 308641
Setting up run at Thu Dec 29 08:58:50 2022

Memory usage per processor = 964.609 Mbytes
    Step    Atoms         KinEng            CPU 
12037001     2003      1.0778158              0 
12345642     1922      1.1362691      3932.0287 
Loop time of 3932.03 on 40 procs for 308641 steps with 1922 atoms, finish time Thu Dec 29 10:04:22 2022


Pair  time (%) = 0.793025 (0.0201683)
Neigh time (%) = 208.145 (5.29358)
Comm  time (%) = 235.878 (5.99888)
Outpt time (%) = 0.000629321 (1.6005e-05)
Other time (%) = 3487.21 (88.6873)

Nlocal:    48.05 ave 402 max 0 min
Histogram: 30 2 0 4 2 0 0 0 0 2
Nghost:    4.325 ave 45 max 0 min
Histogram: 33 3 0 0 1 0 1 0 0 2
Neighs:    1.5 ave 11 max 0 min
Histogram: 32 1 0 0 0 1 2 1 1 2

Total # of neighbors = 60
Ave neighs/atom = 0.0312175
Neighbor list builds = 75658
Dangerous builds = 11096
write_dump all custom dump.atom_info_ac_* id type x y z radius vx vy vz density #
run 308641
Setting up run at Thu Dec 29 10:04:22 2022

Memory usage per processor = 964.609 Mbytes
    Step    Atoms         KinEng            CPU 
12345642     1922      1.1362691              0 
12654283     1832       1.191131      3862.5431 
Loop time of 3862.54 on 40 procs for 308641 steps with 1832 atoms, finish time Thu Dec 29 11:08:44 2022


Pair  time (%) = 0.791616 (0.0204947)
Neigh time (%) = 192.033 (4.97167)
Comm  time (%) = 200.13 (5.18129)
Outpt time (%) = 0.000507536 (1.31399e-05)
Other time (%) = 3469.59 (89.8265)

Nlocal:    45.8 ave 381 max 0 min
Histogram: 30 2 1 2 2 1 0 0 0 2
Nghost:    4.325 ave 49 max 0 min
Histogram: 33 3 0 0 1 1 0 1 0 1
Neighs:    1.35 ave 12 max 0 min
Histogram: 32 0 1 3 1 0 0 0 1 2

Total # of neighbors = 54
Ave neighs/atom = 0.029476
Neighbor list builds = 69870
Dangerous builds = 11626
write_dump all custom dump.atom_info_ac_* id type x y z radius vx vy vz density #
run 308641
Setting up run at Thu Dec 29 11:08:45 2022

Memory usage per processor = 964.609 Mbytes
    Step    Atoms         KinEng            CPU 
12654283     1832       1.191131              0 
12962924     1763      1.2066943      3796.7375 
Loop time of 3796.74 on 40 procs for 308641 steps with 1763 atoms, finish time Thu Dec 29 12:12:01 2022


Pair  time (%) = 0.760776 (0.0200376)
Neigh time (%) = 176.995 (4.66177)
Comm  time (%) = 186.146 (4.90278)
Outpt time (%) = 0.00064381 (1.69569e-05)
Other time (%) = 3432.84 (90.4154)

Nlocal:    44.075 ave 359 max 0 min
Histogram: 30 2 1 3 0 2 0 0 0 2
Nghost:    4.1 ave 52 max 0 min
Histogram: 34 2 1 0 0 1 0 1 0 1
Neighs:    1.3 ave 9 max 0 min
Histogram: 32 0 0 1 1 0 1 2 2 1

Total # of neighbors = 52
Ave neighs/atom = 0.0294952
Neighbor list builds = 64355
Dangerous builds = 5297
write_dump all custom dump.atom_info_ac_* id type x y z radius vx vy vz density #
run 308641
Setting up run at Thu Dec 29 12:12:01 2022

Memory usage per processor = 964.609 Mbytes
    Step    Atoms         KinEng            CPU 
12962924     1763      1.2066943              0 
13271565     1691      1.1267436      3726.9753 
Loop time of 3726.98 on 40 procs for 308641 steps with 1691 atoms, finish time Thu Dec 29 13:14:08 2022


Pair  time (%) = 0.749889 (0.0201206)
Neigh time (%) = 161.906 (4.34417)
Comm  time (%) = 170.369 (4.57124)
Outpt time (%) = 0.000522348 (1.40153e-05)
Other time (%) = 3393.95 (91.0645)

Nlocal:    42.275 ave 341 max 0 min
Histogram: 30 2 0 2 3 1 0 0 0 2
Nghost:    4.25 ave 37 max 0 min
Histogram: 30 6 0 0 0 0 1 0 2 1
Neighs:    0.975 ave 16 max 0 min
Histogram: 32 4 2 1 0 0 0 0 0 1

Total # of neighbors = 39
Ave neighs/atom = 0.0230633
Neighbor list builds = 58905
Dangerous builds = 6958
write_dump all custom dump.atom_info_ac_* id type x y z radius vx vy vz density #
run 308641
Setting up run at Thu Dec 29 13:14:08 2022

Memory usage per processor = 964.609 Mbytes
    Step    Atoms         KinEng            CPU 
13271565     1691      1.1267436              0 
13580206     1630     0.95863549      4111.2205 
Loop time of 4111.22 on 40 procs for 308641 steps with 1630 atoms, finish time Thu Dec 29 14:22:40 2022


Pair  time (%) = 0.813442 (0.0197859)
Neigh time (%) = 254.479 (6.18987)
Comm  time (%) = 269.198 (6.54789)
Outpt time (%) = 0.000667276 (1.62306e-05)
Other time (%) = 3586.73 (87.2424)

Nlocal:    40.75 ave 316 max 0 min
Histogram: 30 2 0 3 1 1 1 0 0 2
Nghost:    3.625 ave 40 max 0 min
Histogram: 34 2 0 0 1 1 0 1 0 1
Neighs:    0.975 ave 9 max 0 min
Histogram: 32 0 1 3 0 1 1 0 1 1

Total # of neighbors = 39
Ave neighs/atom = 0.0239264
Neighbor list builds = 92668
Dangerous builds = 46738
write_dump all custom dump.atom_info_ac_* id type x y z radius vx vy vz density #
run 308641
Setting up run at Thu Dec 29 14:22:40 2022

Memory usage per processor = 964.609 Mbytes
    Step    Atoms         KinEng            CPU 
13580206     1630     0.95863549              0 
13888847     1559      1.0263417       3709.171 
Loop time of 3709.17 on 40 procs for 308641 steps with 1559 atoms, finish time Thu Dec 29 15:24:29 2022


Pair  time (%) = 0.731181 (0.0197128)
Neigh time (%) = 155.381 (4.1891)
Comm  time (%) = 156.955 (4.23154)
Outpt time (%) = 0.00580954 (0.000156626)
Other time (%) = 3396.1 (91.5595)

Nlocal:    38.975 ave 311 max 0 min
Histogram: 30 2 1 2 0 3 0 0 0 2
Nghost:    3.45 ave 35 max 0 min
Histogram: 33 2 1 0 0 1 0 1 1 1
Neighs:    0.8 ave 9 max 0 min
Histogram: 32 2 0 2 2 0 0 1 0 1

Total # of neighbors = 32
Ave neighs/atom = 0.020526
Neighbor list builds = 56511
Dangerous builds = 8550
write_dump all custom dump.atom_info_ac_* id type x y z radius vx vy vz density #
run 308641
Setting up run at Thu Dec 29 15:24:29 2022

Memory usage per processor = 964.609 Mbytes
    Step    Atoms         KinEng            CPU 
13888847     1559      1.0263417              0 
14197488     1510      1.1392091      3684.8249 
Loop time of 3684.83 on 40 procs for 308641 steps with 1510 atoms, finish time Thu Dec 29 16:25:54 2022


Pair  time (%) = 0.724489 (0.0196614)
Neigh time (%) = 152.513 (4.13894)
Comm  time (%) = 153.82 (4.17441)
Outpt time (%) = 0.000622967 (1.69063e-05)
Other time (%) = 3377.77 (91.667)

Nlocal:    37.75 ave 288 max 0 min
Histogram: 30 2 0 1 5 0 0 0 0 2
Nghost:    4.1 ave 43 max 0 min
Histogram: 33 2 1 0 1 0 1 1 0 1
Neighs:    0.9 ave 9 max 0 min
Histogram: 32 0 1 1 3 2 0 0 0 1

Total # of neighbors = 36
Ave neighs/atom = 0.0238411
Neighbor list builds = 55515
Dangerous builds = 5270
write_dump all custom dump.atom_info_ac_* id type x y z radius vx vy vz density #
run 308641
Setting up run at Thu Dec 29 16:25:54 2022

Memory usage per processor = 964.609 Mbytes
    Step    Atoms         KinEng            CPU 
14197488     1510      1.1392091              0 
14506129     1461      1.0542729      3476.1259 
Loop time of 3476.13 on 40 procs for 308641 steps with 1461 atoms, finish time Thu Dec 29 17:23:50 2022


Pair  time (%) = 0.685406 (0.0197175)
Neigh time (%) = 105.203 (3.02644)
Comm  time (%) = 107.667 (3.09733)
Outpt time (%) = 0.00575575 (0.00016558)
Other time (%) = 3262.56 (93.8563)

Nlocal:    36.525 ave 282 max 0 min
Histogram: 30 2 0 1 4 0 1 0 0 2
Nghost:    3.475 ave 34 max 0 min
Histogram: 31 5 0 0 0 1 0 1 1 1
Neighs:    0.675 ave 6 max 0 min
Histogram: 32 1 0 1 0 3 1 0 1 1

Total # of neighbors = 27
Ave neighs/atom = 0.0184805
Neighbor list builds = 38222
Dangerous builds = 213
write_dump all custom dump.atom_info_ac_* id type x y z radius vx vy vz density #
run 308641
Setting up run at Thu Dec 29 17:23:50 2022

Memory usage per processor = 964.609 Mbytes
    Step    Atoms         KinEng            CPU 
14506129     1461      1.0542729              0 
14814770     1403      0.9977462      3665.3005 
Loop time of 3665.31 on 40 procs for 308641 steps with 1403 atoms, finish time Thu Dec 29 18:24:56 2022


Pair  time (%) = 0.706425 (0.0192732)
Neigh time (%) = 144.185 (3.93376)
Comm  time (%) = 143.478 (3.91448)
Outpt time (%) = 0.00986487 (0.000269141)
Other time (%) = 3376.93 (92.1322)

Nlocal:    35.075 ave 269 max 0 min
Histogram: 30 2 0 1 4 1 0 0 0 2
Nghost:    3.225 ave 26 max 0 min
Histogram: 31 2 1 2 0 1 0 1 0 2
Neighs:    0.95 ave 9 max 0 min
Histogram: 32 0 1 2 1 1 2 0 0 1

Total # of neighbors = 38
Ave neighs/atom = 0.0270848
Neighbor list builds = 52501
Dangerous builds = 4849
write_dump all custom dump.atom_info_ac_* id type x y z radius vx vy vz density #
run 308641
Setting up run at Thu Dec 29 18:24:56 2022

Memory usage per processor = 964.609 Mbytes
    Step    Atoms         KinEng            CPU 
14814770     1403      0.9977462              0 
15123411     1343     0.99221676      3937.0251 
Loop time of 3937.03 on 40 procs for 308641 steps with 1343 atoms, finish time Thu Dec 29 19:30:33 2022


Pair  time (%) = 0.737508 (0.0187326)
Neigh time (%) = 202.197 (5.13578)
Comm  time (%) = 204.663 (5.19841)
Outpt time (%) = 0.000647734 (1.64524e-05)
Other time (%) = 3529.43 (89.6471)

Nlocal:    33.575 ave 263 max 0 min
Histogram: 30 2 0 2 2 2 0 0 1 1
Nghost:    2.8 ave 25 max 0 min
Histogram: 30 4 1 1 0 0 1 2 0 1
Neighs:    0.675 ave 6 max 0 min
Histogram: 32 1 0 2 0 1 2 0 1 1

Total # of neighbors = 27
Ave neighs/atom = 0.0201042
Neighbor list builds = 73740
Dangerous builds = 8546
write_dump all custom dump.atom_info_ac_* id type x y z radius vx vy vz density #
run 308641
Setting up run at Thu Dec 29 19:30:33 2022

Memory usage per processor = 964.609 Mbytes
    Step    Atoms         KinEng            CPU 
15123411     1343     0.99221676              0 
15432052     1292      0.9111904      3693.2792 
Loop time of 3693.28 on 40 procs for 308641 steps with 1292 atoms, finish time Thu Dec 29 20:32:07 2022


Pair  time (%) = 0.688559 (0.0186436)
Neigh time (%) = 143.898 (3.8962)
Comm  time (%) = 137.643 (3.72684)
Outpt time (%) = 0.000713434 (1.93171e-05)
Other time (%) = 3411.05 (92.3583)

Nlocal:    32.3 ave 250 max 0 min
Histogram: 30 2 0 1 2 3 0 0 1 1
Nghost:    2.45 ave 27 max 0 min
Histogram: 32 4 0 0 0 1 2 0 0 1
Neighs:    0.7 ave 11 max 0 min
Histogram: 35 0 1 2 1 0 0 0 0 1

Total # of neighbors = 28
Ave neighs/atom = 0.0216718
Neighbor list builds = 52386
Dangerous builds = 2314
write_dump all custom dump.atom_info_ac_* id type x y z radius vx vy vz density #
run 308641
Setting up run at Thu Dec 29 20:32:07 2022

Memory usage per processor = 964.609 Mbytes
    Step    Atoms         KinEng            CPU 
15432052     1292      0.9111904              0 
15740693     1234     0.86125736      3745.6001 
Loop time of 3745.6 on 40 procs for 308641 steps with 1234 atoms, finish time Thu Dec 29 21:34:32 2022


Pair  time (%) = 0.702293 (0.0187498)
Neigh time (%) = 160.403 (4.28244)
Comm  time (%) = 140.892 (3.76154)
Outpt time (%) = 0.00587566 (0.000156868)
Other time (%) = 3443.6 (91.9371)

Nlocal:    30.85 ave 239 max 0 min
Histogram: 30 2 0 1 4 0 1 0 0 2
Nghost:    3.6 ave 33 max 0 min
Histogram: 32 1 2 1 0 1 1 1 0 1
Neighs:    0.65 ave 5 max 0 min
Histogram: 32 0 1 0 2 0 1 0 2 2

Total # of neighbors = 26
Ave neighs/atom = 0.0210697
Neighbor list builds = 58442
Dangerous builds = 4934
write_dump all custom dump.atom_info_ac_* id type x y z radius vx vy vz density #
run 308641
Setting up run at Thu Dec 29 21:34:32 2022

Memory usage per processor = 964.609 Mbytes
    Step    Atoms         KinEng            CPU 
15740693     1234     0.86125736              0 
16049334     1200     0.94016524      3695.2202 
Loop time of 3695.22 on 40 procs for 308641 steps with 1200 atoms, finish time Thu Dec 29 22:36:08 2022


Pair  time (%) = 0.691509 (0.0187136)
Neigh time (%) = 155.815 (4.21665)
Comm  time (%) = 143.78 (3.89097)
Outpt time (%) = 0.00061772 (1.67167e-05)
Other time (%) = 3394.93 (91.8737)

Nlocal:    30 ave 219 max 0 min
Histogram: 30 2 0 0 4 1 1 0 0 2
Nghost:    2.9 ave 27 max 0 min
Histogram: 29 5 2 0 1 1 0 0 0 2
Neighs:    0.425 ave 5 max 0 min
Histogram: 32 0 4 0 1 0 2 0 0 1

Total # of neighbors = 17
Ave neighs/atom = 0.0141667
Neighbor list builds = 56788
Dangerous builds = 4442
write_dump all custom dump.atom_info_ac_* id type x y z radius vx vy vz density #
run 308641
Setting up run at Thu Dec 29 22:36:08 2022

Memory usage per processor = 964.609 Mbytes
    Step    Atoms         KinEng            CPU 
16049334     1200     0.94016524              0 
16357975     1160      1.0025676      3767.0332 
Loop time of 3767.03 on 40 procs for 308641 steps with 1160 atoms, finish time Thu Dec 29 23:38:55 2022


Pair  time (%) = 0.692152 (0.0183739)
Neigh time (%) = 149.491 (3.96841)
Comm  time (%) = 144.802 (3.84393)
Outpt time (%) = 0.000706375 (1.87515e-05)
Other time (%) = 3472.05 (92.1693)

Nlocal:    29 ave 212 max 0 min
Histogram: 31 1 0 1 2 2 1 0 0 2
Nghost:    2.725 ave 27 max 0 min
Histogram: 30 4 2 0 0 2 1 0 0 1
Neighs:    0.675 ave 7 max 0 min
Histogram: 32 1 3 0 1 1 0 0 1 1

Total # of neighbors = 27
Ave neighs/atom = 0.0232759
Neighbor list builds = 54511
Dangerous builds = 6210
write_dump all custom dump.atom_info_ac_* id type x y z radius vx vy vz density #
run 308641
Setting up run at Thu Dec 29 23:38:55 2022

Memory usage per processor = 964.609 Mbytes
    Step    Atoms         KinEng            CPU 
16357975     1160      1.0025676              0 
16666616     1121     0.88627055      3582.7629 
Loop time of 3582.76 on 40 procs for 308641 steps with 1121 atoms, finish time Fri Dec 30 00:38:38 2022


Pair  time (%) = 0.671322 (0.0187376)
Neigh time (%) = 127.565 (3.56053)
Comm  time (%) = 122.621 (3.42253)
Outpt time (%) = 0.000542798 (1.51503e-05)
Other time (%) = 3331.91 (92.9982)

Nlocal:    28.025 ave 202 max 0 min
Histogram: 30 2 0 1 1 3 1 0 0 2
Nghost:    3 ave 31 max 0 min
Histogram: 32 4 0 0 0 2 1 0 0 1
Neighs:    0.575 ave 5 max 0 min
Histogram: 32 0 2 0 2 0 0 0 3 1

Total # of neighbors = 23
Ave neighs/atom = 0.0205174
Neighbor list builds = 46500
Dangerous builds = 2683
write_dump all custom dump.atom_info_ac_* id type x y z radius vx vy vz density #
run 308641
Setting up run at Fri Dec 30 00:38:38 2022

Memory usage per processor = 964.609 Mbytes
    Step    Atoms         KinEng            CPU 
16666616     1121     0.88627055              0 
16975257     1087     0.98518116      3580.2861 
Loop time of 3580.29 on 40 procs for 308641 steps with 1087 atoms, finish time Fri Dec 30 01:38:18 2022


Pair  time (%) = 0.679624 (0.0189824)
Neigh time (%) = 132.802 (3.70927)
Comm  time (%) = 116.266 (3.24739)
Outpt time (%) = 0.000607206 (1.69597e-05)
Other time (%) = 3330.54 (93.0243)

Nlocal:    27.175 ave 202 max 0 min
Histogram: 30 2 0 0 4 2 0 0 1 1
Nghost:    2.65 ave 26 max 0 min
Histogram: 31 3 0 3 0 1 0 1 0 1
Neighs:    0.475 ave 5 max 0 min
Histogram: 33 0 2 0 1 0 2 0 1 1

Total # of neighbors = 19
Ave neighs/atom = 0.0174793
Neighbor list builds = 48449
Dangerous builds = 4894
write_dump all custom dump.atom_info_ac_* id type x y z radius vx vy vz density #
run 308641
Setting up run at Fri Dec 30 01:38:18 2022

Memory usage per processor = 964.609 Mbytes
    Step    Atoms         KinEng            CPU 
16975257     1087     0.98518116              0 
17283898     1046      0.9525795      3611.9479 
Loop time of 3611.95 on 40 procs for 308641 steps with 1046 atoms, finish time Fri Dec 30 02:38:30 2022


Pair  time (%) = 0.674484 (0.0186737)
Neigh time (%) = 137.811 (3.81543)
Comm  time (%) = 120.238 (3.32889)
Outpt time (%) = 0.000613602 (1.69881e-05)
Other time (%) = 3353.22 (92.837)

Nlocal:    26.15 ave 195 max 0 min
Histogram: 30 2 0 1 3 0 2 0 0 2
Nghost:    2.75 ave 26 max 0 min
Histogram: 31 3 1 1 1 1 0 0 1 1
Neighs:    0.1 ave 3 max 0 min
Histogram: 38 0 0 1 0 0 0 0 0 1

Total # of neighbors = 4
Ave neighs/atom = 0.00382409
Neighbor list builds = 50320
Dangerous builds = 5079
write_dump all custom dump.atom_info_ac_* id type x y z radius vx vy vz density #
run 308641
Setting up run at Fri Dec 30 02:38:30 2022

Memory usage per processor = 964.609 Mbytes
    Step    Atoms         KinEng            CPU 
17283898     1046      0.9525795              0 
17592539     1011     0.87400165      3551.2021 
Loop time of 3551.2 on 40 procs for 308641 steps with 1011 atoms, finish time Fri Dec 30 03:37:41 2022


Pair  time (%) = 0.660342 (0.0185949)
Neigh time (%) = 125.476 (3.53334)
Comm  time (%) = 99.2837 (2.79578)
Outpt time (%) = 0.000676644 (1.90539e-05)
Other time (%) = 3325.78 (93.6523)

Nlocal:    25.275 ave 191 max 0 min
Histogram: 31 1 0 1 1 4 0 0 1 1
Nghost:    2.65 ave 25 max 0 min
Histogram: 32 1 3 0 0 1 0 1 1 1
Neighs:    0.475 ave 9 max 0 min
Histogram: 33 3 2 1 0 0 0 0 0 1

Total # of neighbors = 19
Ave neighs/atom = 0.0187933
Neighbor list builds = 45799
Dangerous builds = 2911
write_dump all custom dump.atom_info_ac_* id type x y z radius vx vy vz density #
run 308641
Setting up run at Fri Dec 30 03:37:42 2022

Memory usage per processor = 964.609 Mbytes
    Step    Atoms         KinEng            CPU 
17592539     1011     0.87400165              0 
17901180      973      0.8166797      3511.4955 
Loop time of 3511.5 on 40 procs for 308641 steps with 973 atoms, finish time Fri Dec 30 04:36:13 2022


Pair  time (%) = 0.664468 (0.0189227)
Neigh time (%) = 116.476 (3.31699)
Comm  time (%) = 86.145 (2.45323)
Outpt time (%) = 0.000729079 (2.07626e-05)
Other time (%) = 3308.21 (94.2108)

Nlocal:    24.325 ave 181 max 0 min
Histogram: 31 1 0 2 1 2 0 1 0 2
Nghost:    2.575 ave 20 max 0 min
Histogram: 29 4 2 1 0 0 0 1 0 3
Neighs:    0.525 ave 8 max 0 min
Histogram: 33 2 3 0 0 0 1 0 0 1

Total # of neighbors = 21
Ave neighs/atom = 0.0215827
Neighbor list builds = 42520
Dangerous builds = 2722
write_dump all custom dump.atom_info_ac_* id type x y z radius vx vy vz density #
run 308641
Setting up run at Fri Dec 30 04:36:13 2022

Memory usage per processor = 964.609 Mbytes
    Step    Atoms         KinEng            CPU 
17901180      973      0.8166797              0 
18209821      943     0.71738653      3532.7912 
Loop time of 3532.79 on 40 procs for 308641 steps with 943 atoms, finish time Fri Dec 30 05:35:06 2022


Pair  time (%) = 0.658524 (0.0186403)
Neigh time (%) = 120.505 (3.41105)
Comm  time (%) = 116.137 (3.28739)
Outpt time (%) = 0.00063759 (1.80478e-05)
Other time (%) = 3295.49 (93.2829)

Nlocal:    23.575 ave 179 max 0 min
Histogram: 32 0 0 0 4 2 0 0 1 1
Nghost:    2 ave 18 max 0 min
Histogram: 30 6 0 0 0 1 0 0 1 2
Neighs:    0.475 ave 5 max 0 min
Histogram: 32 0 2 0 3 0 2 0 0 1

Total # of neighbors = 19
Ave neighs/atom = 0.0201485
Neighbor list builds = 44042
Dangerous builds = 8187
write_dump all custom dump.atom_info_ac_* id type x y z radius vx vy vz density #
run 308641
Setting up run at Fri Dec 30 05:35:06 2022

Memory usage per processor = 964.609 Mbytes
    Step    Atoms         KinEng            CPU 
18209821      943     0.71738653              0 
18518462      918     0.81264577      3526.2829 
Loop time of 3526.28 on 40 procs for 308641 steps with 918 atoms, finish time Fri Dec 30 06:33:52 2022


Pair  time (%) = 0.664931 (0.0188564)
Neigh time (%) = 120.743 (3.4241)
Comm  time (%) = 96.7714 (2.74429)
Outpt time (%) = 0.000704983 (1.99922e-05)
Other time (%) = 3308.1 (93.8127)

Nlocal:    22.95 ave 184 max 0 min
Histogram: 32 0 0 0 5 0 1 1 0 1
Nghost:    2.15 ave 21 max 0 min
Histogram: 31 5 0 0 0 0 3 0 0 1
Neighs:    0.325 ave 3 max 0 min
Histogram: 33 0 0 4 0 0 0 0 0 3

Total # of neighbors = 13
Ave neighs/atom = 0.0141612
Neighbor list builds = 44122
Dangerous builds = 3716
write_dump all custom dump.atom_info_ac_* id type x y z radius vx vy vz density #
run 308641
Setting up run at Fri Dec 30 06:33:52 2022

Memory usage per processor = 964.609 Mbytes
    Step    Atoms         KinEng            CPU 
18518462      918     0.81264577              0 
18827103      884     0.68042028      3631.5752 
Loop time of 3631.58 on 40 procs for 308641 steps with 884 atoms, finish time Fri Dec 30 07:34:24 2022


Pair  time (%) = 0.663648 (0.0182744)
Neigh time (%) = 143.821 (3.96029)
Comm  time (%) = 133.942 (3.68826)
Outpt time (%) = 0.000582192 (1.60314e-05)
Other time (%) = 3353.15 (92.3332)

Nlocal:    22.1 ave 170 max 0 min
Histogram: 31 1 0 1 2 3 0 0 0 2
Nghost:    2.575 ave 21 max 0 min
Histogram: 32 2 2 0 0 0 0 2 0 2
Neighs:    0.325 ave 3 max 0 min
Histogram: 32 0 0 4 0 0 3 0 0 1

Total # of neighbors = 13
Ave neighs/atom = 0.0147059
Neighbor list builds = 52556
Dangerous builds = 4845
write_dump all custom dump.atom_info_ac_* id type x y z radius vx vy vz density #
run 308641
Setting up run at Fri Dec 30 07:34:24 2022

Memory usage per processor = 964.609 Mbytes
    Step    Atoms         KinEng            CPU 
18827103      884     0.68042028              0 
19135744      858     0.84986801      3533.2275 
Loop time of 3533.23 on 40 procs for 308641 steps with 858 atoms, finish time Fri Dec 30 08:33:17 2022


Pair  time (%) = 0.651871 (0.0184497)
Neigh time (%) = 119.93 (3.39435)
Comm  time (%) = 105.894 (2.9971)
Outpt time (%) = 0.000346559 (9.80858e-06)
Other time (%) = 3306.75 (93.5901)

Nlocal:    21.45 ave 162 max 0 min
Histogram: 31 1 0 1 2 3 0 0 0 2
Nghost:    2.425 ave 22 max 0 min
Histogram: 33 2 1 0 1 0 0 1 0 2
Neighs:    0.3 ave 3 max 0 min
Histogram: 34 0 0 1 0 0 4 0 0 1

Total # of neighbors = 12
Ave neighs/atom = 0.013986
Neighbor list builds = 43820
Dangerous builds = 840
write_dump all custom dump.atom_info_ac_* id type x y z radius vx vy vz density #
run 308641
Setting up run at Fri Dec 30 08:33:17 2022

Memory usage per processor = 964.609 Mbytes
    Step    Atoms         KinEng            CPU 
19135744      858     0.84986801              0 
19444385      834     0.68646101      3560.2548 
Loop time of 3560.26 on 40 procs for 308641 steps with 834 atoms, finish time Fri Dec 30 09:32:38 2022


Pair  time (%) = 0.654406 (0.0183809)
Neigh time (%) = 120.22 (3.37672)
Comm  time (%) = 92.4932 (2.59794)
Outpt time (%) = 0.000645325 (1.81258e-05)
Other time (%) = 3346.89 (94.0069)

Nlocal:    20.85 ave 153 max 0 min
Histogram: 31 1 0 0 2 4 0 0 0 2
Nghost:    2.1 ave 23 max 0 min
Histogram: 33 3 0 0 1 0 1 1 0 1
Neighs:    0.2 ave 3 max 0 min
Histogram: 35 0 0 3 0 0 1 0 0 1

Total # of neighbors = 8
Ave neighs/atom = 0.00959233
Neighbor list builds = 43913
Dangerous builds = 2505
write_dump all custom dump.atom_info_ac_* id type x y z radius vx vy vz density #
run 308641
Setting up run at Fri Dec 30 09:32:38 2022

Memory usage per processor = 964.609 Mbytes
    Step    Atoms         KinEng            CPU 
19444385      834     0.68646101              0 
19753026      817     0.53841041      3532.1456 
Loop time of 3532.15 on 40 procs for 308641 steps with 817 atoms, finish time Fri Dec 30 10:31:30 2022


Pair  time (%) = 0.660272 (0.0186932)
Neigh time (%) = 121.039 (3.42677)
Comm  time (%) = 87.136 (2.46694)
Outpt time (%) = 0.000630586 (1.78528e-05)
Other time (%) = 3323.31 (94.0876)

Nlocal:    20.425 ave 157 max 0 min
Histogram: 31 1 0 2 1 3 0 0 1 1
Nghost:    2.25 ave 16 max 0 min
Histogram: 28 6 0 0 1 1 0 0 2 2
Neighs:    0.475 ave 5 max 0 min
Histogram: 33 0 1 0 4 0 0 0 0 2

Total # of neighbors = 19
Ave neighs/atom = 0.0232558
Neighbor list builds = 44247
Dangerous builds = 2854
write_dump all custom dump.atom_info_ac_* id type x y z radius vx vy vz density #
run 308641
Setting up run at Fri Dec 30 10:31:30 2022

Memory usage per processor = 964.609 Mbytes
    Step    Atoms         KinEng            CPU 
19753026      817     0.53841041              0 
20061667      792     0.51625503       3546.126 
Loop time of 3546.13 on 40 procs for 308641 steps with 792 atoms, finish time Fri Dec 30 11:30:36 2022


Pair  time (%) = 0.665619 (0.0187703)
Neigh time (%) = 119.236 (3.36243)
Comm  time (%) = 92.0938 (2.59703)
Outpt time (%) = 0.000617159 (1.74037e-05)
Other time (%) = 3334.13 (94.0218)

Nlocal:    19.8 ave 148 max 0 min
Histogram: 31 1 0 2 2 1 0 1 0 2
Nghost:    1.825 ave 17 max 0 min
Histogram: 29 5 2 0 1 0 0 2 0 1
Neighs:    0.45 ave 6 max 0 min
Histogram: 33 4 0 1 0 0 0 0 0 2

Total # of neighbors = 18
Ave neighs/atom = 0.0227273
Neighbor list builds = 43579
Dangerous builds = 4154
write_dump all custom dump.atom_info_ac_* id type x y z radius vx vy vz density #
run 308641
Setting up run at Fri Dec 30 11:30:36 2022

Memory usage per processor = 964.609 Mbytes
    Step    Atoms         KinEng            CPU 
20061667      792     0.51625503              0 
20370308      771     0.76036798      3600.7187 
Loop time of 3600.72 on 40 procs for 308641 steps with 771 atoms, finish time Fri Dec 30 12:30:37 2022


Pair  time (%) = 0.660479 (0.018343)
Neigh time (%) = 137.066 (3.80662)
Comm  time (%) = 112.822 (3.13332)
Outpt time (%) = 0.00578482 (0.000160657)
Other time (%) = 3350.16 (93.0416)

Nlocal:    19.275 ave 156 max 0 min
Histogram: 31 1 0 2 3 0 1 0 1 1
Nghost:    1.9 ave 18 max 0 min
Histogram: 28 6 1 1 0 2 1 0 0 1
Neighs:    0.25 ave 3 max 0 min
Histogram: 35 0 0 1 0 0 3 0 0 1

Total # of neighbors = 10
Ave neighs/atom = 0.0129702
Neighbor list builds = 50124
Dangerous builds = 1886
write_dump all custom dump.atom_info_ac_* id type x y z radius vx vy vz density #
run 308641
Setting up run at Fri Dec 30 12:30:37 2022

Memory usage per processor = 964.609 Mbytes
    Step    Atoms         KinEng            CPU 
20370308      771     0.76036798              0 
20678949      741     0.54015843      3697.1591 
Loop time of 3697.16 on 40 procs for 308641 steps with 741 atoms, finish time Fri Dec 30 13:32:14 2022


Pair  time (%) = 0.659497 (0.0178379)
Neigh time (%) = 161.477 (4.3676)
Comm  time (%) = 140.222 (3.79269)
Outpt time (%) = 0.00595251 (0.000161002)
Other time (%) = 3394.8 (91.8217)

Nlocal:    18.525 ave 144 max 0 min
Histogram: 31 1 0 2 0 4 0 0 0 2
Nghost:    1.55 ave 13 max 0 min
Histogram: 30 3 1 2 0 0 2 0 1 1
Neighs:    0.3 ave 4 max 0 min
Histogram: 34 0 2 0 0 3 0 0 0 1

Total # of neighbors = 12
Ave neighs/atom = 0.0161943
Neighbor list builds = 59065
Dangerous builds = 3877
write_dump all custom dump.atom_info_ac_* id type x y z radius vx vy vz density #
run 308641
Setting up run at Fri Dec 30 13:32:14 2022

Memory usage per processor = 964.609 Mbytes
    Step    Atoms         KinEng            CPU 
20678949      741     0.54015843              0 
20987590      721     0.71739747      5884.6166 
Loop time of 5884.67 on 40 procs for 308641 steps with 721 atoms, finish time Fri Dec 30 15:10:19 2022


Pair  time (%) = 0.65668 (0.0111592)
Neigh time (%) = 159.535 (2.71103)
Comm  time (%) = 131.396 (2.23284)
Outpt time (%) = 0.000629935 (1.07047e-05)
Other time (%) = 5593.08 (95.045)

Nlocal:    18.025 ave 133 max 0 min
Histogram: 30 2 0 1 3 0 2 0 0 2
Nghost:    1.375 ave 12 max 0 min
Histogram: 32 1 3 0 0 0 1 1 0 2
Neighs:    0.2 ave 2 max 0 min
Histogram: 36 0 0 0 0 0 0 0 0 4

Total # of neighbors = 8
Ave neighs/atom = 0.0110957
Neighbor list builds = 58392
Dangerous builds = 4307
write_dump all custom dump.atom_info_ac_* id type x y z radius vx vy vz density #
run 308641
Setting up run at Fri Dec 30 15:10:19 2022

Memory usage per processor = 964.609 Mbytes
    Step    Atoms         KinEng            CPU 
20987590      721     0.71739747              0 
21296231      702     0.51422712      3607.7102 
Loop time of 3607.71 on 40 procs for 308641 steps with 702 atoms, finish time Fri Dec 30 16:10:27 2022


Pair  time (%) = 0.645442 (0.0178906)
Neigh time (%) = 138.603 (3.84185)
Comm  time (%) = 86.2249 (2.39002)
Outpt time (%) = 0.00069431 (1.92452e-05)
Other time (%) = 3382.24 (93.7502)

Nlocal:    17.55 ave 133 max 0 min
Histogram: 30 2 1 1 0 3 1 0 0 2
Nghost:    1.375 ave 15 max 0 min
Histogram: 32 3 1 0 1 1 0 1 0 1
Neighs:    0.15 ave 3 max 0 min
Histogram: 37 0 0 1 0 0 1 0 0 1

Total # of neighbors = 6
Ave neighs/atom = 0.00854701
Neighbor list builds = 50689
Dangerous builds = 4058
write_dump all custom dump.atom_info_ac_* id type x y z radius vx vy vz density #
run 308641
Setting up run at Fri Dec 30 16:10:27 2022

Memory usage per processor = 964.609 Mbytes
    Step    Atoms         KinEng            CPU 
21296231      702     0.51422712              0 
21604872      679     0.41947198      3545.1528 
Loop time of 3545.15 on 40 procs for 308641 steps with 679 atoms, finish time Fri Dec 30 17:09:32 2022


Pair  time (%) = 0.634606 (0.0179007)
Neigh time (%) = 124.586 (3.51425)
Comm  time (%) = 81.6444 (2.30299)
Outpt time (%) = 0.000550427 (1.55262e-05)
Other time (%) = 3338.29 (94.1648)

Nlocal:    16.975 ave 135 max 0 min
Histogram: 31 1 0 0 5 1 0 0 1 1
Nghost:    1.425 ave 13 max 0 min
Histogram: 32 1 1 2 0 0 1 2 0 1
Neighs:    0.175 ave 2 max 0 min
Histogram: 35 0 0 0 0 3 0 0 0 2

Total # of neighbors = 7
Ave neighs/atom = 0.0103093
Neighbor list builds = 45566
Dangerous builds = 1394
write_dump all custom dump.atom_info_ac_* id type x y z radius vx vy vz density #
run 308641
Setting up run at Fri Dec 30 17:09:32 2022

Memory usage per processor = 964.609 Mbytes
    Step    Atoms         KinEng            CPU 
21604872      679     0.41947198              0 
21913513      658     0.39638487      3569.2302 
Loop time of 3569.23 on 40 procs for 308641 steps with 658 atoms, finish time Fri Dec 30 18:09:01 2022


Pair  time (%) = 0.635227 (0.0177973)
Neigh time (%) = 132.013 (3.69865)
Comm  time (%) = 88.8654 (2.48976)
Outpt time (%) = 0.000620971 (1.73979e-05)
Other time (%) = 3347.72 (93.7938)

Nlocal:    16.45 ave 125 max 0 min
Histogram: 31 1 0 2 2 1 1 0 0 2
Nghost:    1.3 ave 13 max 0 min
Histogram: 34 1 1 0 0 0 2 1 0 1
Neighs:    0.15 ave 2 max 0 min
Histogram: 36 0 0 0 0 2 0 0 0 2

Total # of neighbors = 6
Ave neighs/atom = 0.00911854
Neighbor list builds = 48311
Dangerous builds = 5532
write_dump all custom dump.atom_info_ac_* id type x y z radius vx vy vz density #
run 308641
Setting up run at Fri Dec 30 18:09:01 2022

Memory usage per processor = 964.609 Mbytes
    Step    Atoms         KinEng            CPU 
21913513      658     0.39638487              0 
22222154      641     0.52069454      3538.4871 
Loop time of 3538.49 on 40 procs for 308641 steps with 641 atoms, finish time Fri Dec 30 19:08:00 2022


Pair  time (%) = 0.624994 (0.0176628)
Neigh time (%) = 123.37 (3.48652)
Comm  time (%) = 90.1708 (2.54829)
Outpt time (%) = 0.000606994 (1.7154e-05)
Other time (%) = 3324.32 (93.9475)

Nlocal:    16.025 ave 123 max 0 min
Histogram: 31 1 0 1 3 1 1 0 0 2
Nghost:    1.4 ave 15 max 0 min
Histogram: 32 3 1 0 1 1 0 0 1 1
Neighs:    0.175 ave 2 max 0 min
Histogram: 35 0 0 0 0 3 0 0 0 2

Total # of neighbors = 7
Ave neighs/atom = 0.0109204
Neighbor list builds = 45188
Dangerous builds = 3744
write_dump all custom dump.atom_info_ac_* id type x y z radius vx vy vz density #
run 308641
Setting up run at Fri Dec 30 19:08:00 2022

Memory usage per processor = 964.609 Mbytes
    Step    Atoms         KinEng            CPU 
22222154      641     0.52069454              0 
22530795      622      0.5658812      3507.3663 
Loop time of 3507.37 on 40 procs for 308641 steps with 622 atoms, finish time Fri Dec 30 20:06:27 2022


Pair  time (%) = 0.617815 (0.0176148)
Neigh time (%) = 118.951 (3.39145)
Comm  time (%) = 85.5891 (2.44027)
Outpt time (%) = 0.000601318 (1.71444e-05)
Other time (%) = 3302.21 (94.1506)

Nlocal:    15.55 ave 122 max 0 min
Histogram: 31 1 0 1 3 1 1 0 1 1
Nghost:    1.75 ave 17 max 0 min
Histogram: 29 5 2 0 0 2 0 1 0 1
Neighs:    0.075 ave 1 max 0 min
Histogram: 37 0 0 0 0 0 0 0 0 3

Total # of neighbors = 3
Ave neighs/atom = 0.00482315
Neighbor list builds = 43527
Dangerous builds = 1030
write_dump all custom dump.atom_info_ac_* id type x y z radius vx vy vz density #
run 308641
Setting up run at Fri Dec 30 20:06:28 2022

Memory usage per processor = 964.609 Mbytes
    Step    Atoms         KinEng            CPU 
22530795      622      0.5658812              0 
22839436      604     0.42774348      3746.7428 
Loop time of 3746.74 on 40 procs for 308641 steps with 604 atoms, finish time Fri Dec 30 21:08:54 2022


Pair  time (%) = 0.62764 (0.0167516)
Neigh time (%) = 125.276 (3.34361)
Comm  time (%) = 91.8764 (2.45217)
Outpt time (%) = 0.0133955 (0.000357523)
Other time (%) = 3528.95 (94.1871)

Nlocal:    15.1 ave 118 max 0 min
Histogram: 30 2 0 2 2 1 1 0 1 1
Nghost:    1.325 ave 15 max 0 min
Histogram: 33 3 0 0 0 2 1 0 0 1
Neighs:    0.175 ave 2 max 0 min
Histogram: 35 0 0 0 0 3 0 0 0 2

Total # of neighbors = 7
Ave neighs/atom = 0.0115894
Neighbor list builds = 45879
Dangerous builds = 3168
write_dump all custom dump.atom_info_ac_* id type x y z radius vx vy vz density #
run 308641
Setting up run at Fri Dec 30 21:08:54 2022

Memory usage per processor = 964.609 Mbytes
    Step    Atoms         KinEng            CPU 
22839436      604     0.42774348              0 
23148077      582     0.38022866      3651.3753 
Loop time of 3651.38 on 40 procs for 308641 steps with 582 atoms, finish time Fri Dec 30 22:09:46 2022


Pair  time (%) = 0.630903 (0.0172785)
Neigh time (%) = 150.706 (4.12738)
Comm  time (%) = 104.462 (2.86088)
Outpt time (%) = 0.000640981 (1.75545e-05)
Other time (%) = 3395.58 (92.9944)

Nlocal:    14.55 ave 123 max 0 min
Histogram: 31 1 1 1 3 1 0 1 0 1
Nghost:    1.425 ave 15 max 0 min
Histogram: 32 2 2 0 0 1 1 1 0 1
Neighs:    0.25 ave 3 max 0 min
Histogram: 34 0 0 3 0 0 2 0 0 1

Total # of neighbors = 10
Ave neighs/atom = 0.0171821
Neighbor list builds = 55158
Dangerous builds = 2401
write_dump all custom dump.atom_info_ac_* id type x y z radius vx vy vz density #
run 308641
Setting up run at Fri Dec 30 22:09:46 2022

Memory usage per processor = 964.609 Mbytes
    Step    Atoms         KinEng            CPU 
23148077      582     0.38022866              0 
23456718      566     0.35309263       3516.007 
Loop time of 3516.01 on 40 procs for 308641 steps with 566 atoms, finish time Fri Dec 30 23:08:22 2022


Pair  time (%) = 0.616775 (0.0175419)
Neigh time (%) = 117.184 (3.33286)
Comm  time (%) = 75.6289 (2.15099)
Outpt time (%) = 0.00591903 (0.000168345)
Other time (%) = 3322.57 (94.4984)

Nlocal:    14.15 ave 121 max 0 min
Histogram: 31 1 1 2 3 0 0 0 1 1
Nghost:    1.375 ave 12 max 0 min
Histogram: 30 4 0 1 2 0 1 1 0 1
Neighs:    0.125 ave 2 max 0 min
Histogram: 37 0 0 0 0 1 0 0 0 2

Total # of neighbors = 5
Ave neighs/atom = 0.00883392
Neighbor list builds = 42868
Dangerous builds = 2063
write_dump all custom dump.atom_info_ac_* id type x y z radius vx vy vz density #
run 308641
Setting up run at Fri Dec 30 23:08:22 2022

Memory usage per processor = 964.609 Mbytes
    Step    Atoms         KinEng            CPU 
23456718      566     0.35309263              0 
23765359      550     0.36237495      3454.8454 
Loop time of 3454.85 on 40 procs for 308641 steps with 550 atoms, finish time Sat Dec 31 00:05:57 2022


Pair  time (%) = 0.614577 (0.0177888)
Neigh time (%) = 102.812 (2.97589)
Comm  time (%) = 58.0934 (1.68151)
Outpt time (%) = 0.000425061 (1.23033e-05)
Other time (%) = 3293.32 (95.3248)

Nlocal:    13.75 ave 116 max 0 min
Histogram: 31 1 0 2 3 1 0 1 0 1
Nghost:    1.15 ave 14 max 0 min
Histogram: 32 4 0 1 1 1 0 0 0 1
Neighs:    0.15 ave 3 max 0 min
Histogram: 37 0 0 1 0 0 1 0 0 1

Total # of neighbors = 6
Ave neighs/atom = 0.0109091
Neighbor list builds = 37638
Dangerous builds = 1863
write_dump all custom dump.atom_info_ac_* id type x y z radius vx vy vz density #
run 308641
Setting up run at Sat Dec 31 00:05:57 2022

Memory usage per processor = 964.609 Mbytes
    Step    Atoms         KinEng            CPU 
23765359      550     0.36237495              0 
24074000      529     0.37624825      3420.7757 
Loop time of 3420.78 on 40 procs for 308641 steps with 529 atoms, finish time Sat Dec 31 01:02:58 2022


Pair  time (%) = 0.611213 (0.0178677)
Neigh time (%) = 97.1179 (2.83906)
Comm  time (%) = 57.2011 (1.67217)
Outpt time (%) = 0.000713545 (2.08592e-05)
Other time (%) = 3265.85 (95.4709)

Nlocal:    13.225 ave 114 max 0 min
Histogram: 31 1 0 2 4 0 0 0 1 1
Nghost:    1.25 ave 10 max 0 min
Histogram: 27 2 4 1 1 3 0 0 1 1
Neighs:    0.05 ave 2 max 0 min
Histogram: 39 0 0 0 0 0 0 0 0 1

Total # of neighbors = 2
Ave neighs/atom = 0.00378072
Neighbor list builds = 35549
Dangerous builds = 2845
write_dump all custom dump.atom_info_ac_* id type x y z radius vx vy vz density #
run 308641
Setting up run at Sat Dec 31 01:02:58 2022

Memory usage per processor = 964.609 Mbytes
    Step    Atoms         KinEng            CPU 
24074000      529     0.37624825              0 
24382641      516     0.35916109      3618.3762 
Loop time of 3618.38 on 40 procs for 308641 steps with 516 atoms, finish time Sat Dec 31 02:03:16 2022


Pair  time (%) = 0.622065 (0.0171918)
Neigh time (%) = 141.26 (3.90396)
Comm  time (%) = 94.9889 (2.62518)
Outpt time (%) = 0.000659403 (1.82237e-05)
Other time (%) = 3381.5 (93.4536)

Nlocal:    12.9 ave 111 max 0 min
Histogram: 31 1 1 1 2 2 0 0 1 1
Nghost:    1.225 ave 13 max 0 min
Histogram: 29 5 4 0 0 0 0 0 0 2
Neighs:    0.225 ave 2 max 0 min
Histogram: 34 0 0 0 0 3 0 0 0 3

Total # of neighbors = 9
Ave neighs/atom = 0.0174419
Neighbor list builds = 51750
Dangerous builds = 2089
write_dump all custom dump.atom_info_ac_* id type x y z radius vx vy vz density #
run 308641
Setting up run at Sat Dec 31 02:03:16 2022

Memory usage per processor = 964.609 Mbytes
    Step    Atoms         KinEng            CPU 
24382641      516     0.35916109              0 
24691282      503     0.34005186      3424.5885 
Loop time of 3424.59 on 40 procs for 308641 steps with 503 atoms, finish time Sat Dec 31 03:00:21 2022


Pair  time (%) = 0.602447 (0.0175918)
Neigh time (%) = 96.3353 (2.81305)
Comm  time (%) = 66.8437 (1.95188)
Outpt time (%) = 0.000660803 (1.92958e-05)
Other time (%) = 3260.81 (95.2175)

Nlocal:    12.575 ave 105 max 0 min
Histogram: 31 1 1 1 4 0 0 0 1 1
Nghost:    1.075 ave 10 max 0 min
Histogram: 29 2 2 3 1 1 0 0 0 2
Neighs:    0.05 ave 1 max 0 min
[...]
    Step    Atoms         KinEng            CPU 
36419736      220     0.25004343              0 
36728377      218     0.20306675       3523.095 
Loop time of 3523.1 on 40 procs for 308641 steps with 218 atoms, finish time Sun Jan  1 19:58:54 2023


Pair  time (%) = 0.586778 (0.0166552)
Neigh time (%) = 118.05 (3.35074)
Comm  time (%) = 45.0643 (1.27911)
Outpt time (%) = 0.000503994 (1.43054e-05)
Other time (%) = 3359.39 (95.3535)

Nlocal:    5.45 ave 69 max 0 min
Histogram: 34 2 1 1 0 0 0 0 1 1
Nghost:    0.85 ave 11 max 0 min
Histogram: 34 2 1 0 1 0 0 0 1 1
Neighs:    0.05 ave 2 max 0 min
Histogram: 39 0 0 0 0 0 0 0 0 1

Total # of neighbors = 2
Ave neighs/atom = 0.00917431
Neighbor list builds = 43367
Dangerous builds = 165
write_dump all custom dump.atom_info_ac_* id type x y z radius vx vy vz density #
run 308641
Setting up run at Sun Jan  1 19:58:54 2023

Memory usage per processor = 964.609 Mbytes
    Step    Atoms         KinEng            CPU 
36728377      218     0.20306675              0 
37037018      216      0.1959784      3487.3668 
Loop time of 3487.37 on 40 procs for 308641 steps with 216 atoms, finish time Sun Jan  1 20:57:01 2023


Pair  time (%) = 0.586981 (0.0168316)
Neigh time (%) = 110.615 (3.17188)
Comm  time (%) = 32.9763 (0.945594)
Outpt time (%) = 0.00585136 (0.000167787)
Other time (%) = 3343.18 (95.8655)

Nlocal:    5.4 ave 71 max 0 min
Histogram: 35 1 1 1 0 0 0 1 0 1
Nghost:    0.625 ave 6 max 0 min
Histogram: 31 4 0 1 0 1 1 0 0 2
Neighs:    0.1 ave 2 max 0 min
Histogram: 37 0 0 0 0 2 0 0 0 1

Total # of neighbors = 4
Ave neighs/atom = 0.0185185
Neighbor list builds = 40651
Dangerous builds = 341
write_dump all custom dump.atom_info_ac_* id type x y z radius vx vy vz density #
run 308641
Setting up run at Sun Jan  1 20:57:02 2023

Memory usage per processor = 964.609 Mbytes
    Step    Atoms         KinEng            CPU 
37037018      216      0.1959784              0 
37345659      214     0.19717366      3454.7849 
Loop time of 3454.79 on 40 procs for 308641 steps with 214 atoms, finish time Sun Jan  1 21:54:36 2023


Pair  time (%) = 0.578676 (0.01675)
Neigh time (%) = 105.077 (3.0415)
Comm  time (%) = 35.8303 (1.03712)
Outpt time (%) = 0.000654764 (1.89524e-05)
Other time (%) = 3313.3 (95.9046)

Nlocal:    5.35 ave 68 max 0 min
Histogram: 34 2 1 1 0 0 0 0 1 1
Nghost:    0.6 ave 7 max 0 min
Histogram: 31 5 0 0 1 1 0 1 0 1
Neighs:    0.025 ave 1 max 0 min
Histogram: 39 0 0 0 0 0 0 0 0 1

Total # of neighbors = 1
Ave neighs/atom = 0.0046729
Neighbor list builds = 38585
Dangerous builds = 5
write_dump all custom dump.atom_info_ac_* id type x y z radius vx vy vz density #
run 308641
Setting up run at Sun Jan  1 21:54:36 2023

Memory usage per processor = 964.609 Mbytes
    Step    Atoms         KinEng            CPU 
37345659      214     0.19717366              0 
37654300      211     0.23398873      3469.6646 
Loop time of 3469.66 on 40 procs for 308641 steps with 211 atoms, finish time Sun Jan  1 22:52:26 2023


Pair  time (%) = 0.577341 (0.0166397)
Neigh time (%) = 105.24 (3.03315)
Comm  time (%) = 32.7223 (0.943097)
Outpt time (%) = 0.000683965 (1.97127e-05)
Other time (%) = 3331.12 (96.0071)

Nlocal:    5.275 ave 68 max 0 min
Histogram: 35 1 0 2 0 0 0 1 0 1
Nghost:    0.425 ave 6 max 0 min
Histogram: 35 2 0 0 0 1 0 0 0 2
Neighs:    0 ave 0 max 0 min
Histogram: 40 0 0 0 0 0 0 0 0 0

Total # of neighbors = 0
Ave neighs/atom = 0
Neighbor list builds = 38646
Dangerous builds = 75
write_dump all custom dump.atom_info_ac_* id type x y z radius vx vy vz density #
run 308641
Setting up run at Sun Jan  1 22:52:26 2023

Memory usage per processor = 964.609 Mbytes
    Step    Atoms         KinEng            CPU 
37654300      211     0.23398873              0 
37962941      210     0.22352036      3486.2866 
Loop time of 3486.29 on 40 procs for 308641 steps with 210 atoms, finish time Sun Jan  1 23:50:32 2023


Pair  time (%) = 0.581147 (0.0166695)
Neigh time (%) = 111.876 (3.20902)
Comm  time (%) = 37.8142 (1.08465)
Outpt time (%) = 0.000322392 (9.24743e-06)
Other time (%) = 3336.02 (95.6896)

Nlocal:    5.25 ave 66 max 0 min
Histogram: 35 1 1 0 1 0 0 0 1 1
Nghost:    0.5 ave 9 max 0 min
Histogram: 34 2 2 0 0 1 0 0 0 1
Neighs:    0.025 ave 1 max 0 min
Histogram: 39 0 0 0 0 0 0 0 0 1

Total # of neighbors = 1
Ave neighs/atom = 0.0047619
Neighbor list builds = 41087
Dangerous builds = 0
write_dump all custom dump.atom_info_ac_* id type x y z radius vx vy vz density #
run 308641
Setting up run at Sun Jan  1 23:50:33 2023

Memory usage per processor = 964.609 Mbytes
    Step    Atoms         KinEng            CPU 
37962941      210     0.22352036              0 
38271582      209     0.21719892      3433.6706 
Loop time of 3433.67 on 40 procs for 308641 steps with 209 atoms, finish time Mon Jan  2 00:47:46 2023


Pair  time (%) = 0.603925 (0.0175883)
Neigh time (%) = 99.8116 (2.90685)
Comm  time (%) = 30.8111 (0.897323)
Outpt time (%) = 0.0373782 (0.00108858)
Other time (%) = 3302.41 (96.1772)

Nlocal:    5.225 ave 63 max 0 min
Histogram: 35 1 1 0 1 0 0 0 0 2
Nghost:    0.475 ave 9 max 0 min
Histogram: 34 4 0 0 0 0 1 0 0 1
Neighs:    0.05 ave 1 max 0 min
Histogram: 38 0 0 0 0 0 0 0 0 2

Total # of neighbors = 2
Ave neighs/atom = 0.00956938
Neighbor list builds = 36661
Dangerous builds = 715
write_dump all custom dump.atom_info_ac_* id type x y z radius vx vy vz density #
run 308641
Setting up run at Mon Jan  2 00:47:47 2023

Memory usage per processor = 964.609 Mbytes
    Step    Atoms         KinEng            CPU 
38271582      209     0.21719892              0 
38580223      208     0.19509039      3423.0483 
Loop time of 3423.05 on 40 procs for 308641 steps with 208 atoms, finish time Mon Jan  2 01:44:50 2023


Pair  time (%) = 0.570505 (0.0166666)
Neigh time (%) = 94.028 (2.74691)
Comm  time (%) = 32.9187 (0.961678)
Outpt time (%) = 0.00071935 (2.10149e-05)
Other time (%) = 3295.53 (96.2747)

Nlocal:    5.2 ave 64 max 0 min
Histogram: 35 1 0 2 0 0 0 0 0 2
Nghost:    0.625 ave 8 max 0 min
Histogram: 31 3 2 2 0 1 0 0 0 1
Neighs:    0 ave 0 max 0 min
Histogram: 40 0 0 0 0 0 0 0 0 0

Total # of neighbors = 0
Ave neighs/atom = 0
Neighbor list builds = 34532
Dangerous builds = 0
write_dump all custom dump.atom_info_ac_* id type x y z radius vx vy vz density #
run 308641
Setting up run at Mon Jan  2 01:44:50 2023

Memory usage per processor = 964.609 Mbytes
    Step    Atoms         KinEng            CPU 
38580223      208     0.19509039              0 
38888864      203     0.17981066      3406.9097 
Loop time of 3406.91 on 40 procs for 308641 steps with 203 atoms, finish time Mon Jan  2 02:41:37 2023


Pair  time (%) = 0.57447 (0.0168619)
Neigh time (%) = 93.7283 (2.75112)
Comm  time (%) = 27.6265 (0.810897)
Outpt time (%) = 0.000691134 (2.02862e-05)
Other time (%) = 3284.98 (96.4211)

Nlocal:    5.075 ave 62 max 0 min
Histogram: 36 0 0 1 1 0 0 0 0 2
Nghost:    0.575 ave 8 max 0 min
Histogram: 33 2 1 1 0 2 0 0 0 1
Neighs:    0.025 ave 1 max 0 min
Histogram: 39 0 0 0 0 0 0 0 0 1

Total # of neighbors = 1
Ave neighs/atom = 0.00492611
Neighbor list builds = 34441
Dangerous builds = 2
write_dump all custom dump.atom_info_ac_* id type x y z radius vx vy vz density #
run 308641
Setting up run at Mon Jan  2 02:41:37 2023

Memory usage per processor = 964.609 Mbytes
    Step    Atoms         KinEng            CPU 
38888864      203     0.17981066              0 
39197505      201     0.17255974      3413.6228 
Loop time of 3413.62 on 40 procs for 308641 steps with 201 atoms, finish time Mon Jan  2 03:38:31 2023


Pair  time (%) = 0.572293 (0.016765)
Neigh time (%) = 93.3276 (2.73397)
Comm  time (%) = 35.9733 (1.05382)
Outpt time (%) = 0.000635746 (1.86238e-05)
Other time (%) = 3283.75 (96.1954)

Nlocal:    5.025 ave 64 max 0 min
Histogram: 35 1 1 0 1 0 0 0 1 1
Nghost:    0.4 ave 4 max 0 min
Histogram: 33 0 2 0 0 3 0 0 0 2
Neighs:    0.025 ave 1 max 0 min
Histogram: 39 0 0 0 0 0 0 0 0 1

Total # of neighbors = 1
Ave neighs/atom = 0.00497512
Neighbor list builds = 34294
Dangerous builds = 1
write_dump all custom dump.atom_info_ac_* id type x y z radius vx vy vz density #
run 308641
Setting up run at Mon Jan  2 03:38:31 2023

Memory usage per processor = 964.609 Mbytes
    Step    Atoms         KinEng            CPU 
39197505      201     0.17255974              0 
39506146      198     0.17627631      3408.6812 
Loop time of 3408.68 on 40 procs for 308641 steps with 198 atoms, finish time Mon Jan  2 04:35:20 2023


Pair  time (%) = 0.57374 (0.0168317)
Neigh time (%) = 93.3325 (2.73808)
Comm  time (%) = 28.2227 (0.827964)
Outpt time (%) = 0.00062349 (1.82912e-05)
Other time (%) = 3286.55 (96.4171)

Nlocal:    4.95 ave 63 max 0 min
Histogram: 36 0 0 2 0 0 0 0 1 1
Nghost:    0.45 ave 5 max 0 min
Histogram: 32 0 5 0 0 0 1 0 0 2
Neighs:    0.025 ave 1 max 0 min
Histogram: 39 0 0 0 0 0 0 0 0 1

Total # of neighbors = 1
Ave neighs/atom = 0.00505051
Neighbor list builds = 34293
Dangerous builds = 0
write_dump all custom dump.atom_info_ac_* id type x y z radius vx vy vz density #
run 308641
Setting up run at Mon Jan  2 04:35:20 2023

Memory usage per processor = 964.609 Mbytes
    Step    Atoms         KinEng            CPU 
39506146      198     0.17627631              0 
39814787      195     0.17708268      3490.7375 
Loop time of 3490.74 on 40 procs for 308641 steps with 195 atoms, finish time Mon Jan  2 05:33:30 2023


Pair  time (%) = 0.579919 (0.0166131)
Neigh time (%) = 111.915 (3.20604)
Comm  time (%) = 41.2884 (1.1828)
Outpt time (%) = 0.000523412 (1.49943e-05)
Other time (%) = 3336.95 (95.5945)

Nlocal:    4.875 ave 60 max 0 min
Histogram: 34 2 0 2 0 0 0 0 0 2
Nghost:    0.525 ave 5 max 0 min
Histogram: 32 0 2 0 3 0 1 0 0 2
Neighs:    0.05 ave 2 max 0 min
Histogram: 39 0 0 0 0 0 0 0 0 1

Total # of neighbors = 2
Ave neighs/atom = 0.0102564
Neighbor list builds = 41152
Dangerous builds = 667
write_dump all custom dump.atom_info_ac_* id type x y z radius vx vy vz density #
run 308641
Setting up run at Mon Jan  2 05:33:31 2023

Memory usage per processor = 964.609 Mbytes
    Step    Atoms         KinEng            CPU 
39814787      195     0.17708268              0 
40123428      193     0.16611805      3679.7431 
Loop time of 3679.74 on 40 procs for 308641 steps with 193 atoms, finish time Mon Jan  2 06:34:50 2023


Pair  time (%) = 0.60119 (0.0163378)
Neigh time (%) = 158.06 (4.2954)
Comm  time (%) = 50.5831 (1.37464)
Outpt time (%) = 0.000666189 (1.81042e-05)
Other time (%) = 3470.5 (94.3136)

Nlocal:    4.825 ave 62 max 0 min
Histogram: 36 0 2 0 0 0 0 0 0 2
Nghost:    0.475 ave 4 max 0 min
Histogram: 30 0 4 0 0 4 0 1 0 1
Neighs:    0.025 ave 1 max 0 min
Histogram: 39 0 0 0 0 0 0 0 0 1

Total # of neighbors = 1
Ave neighs/atom = 0.00518135
Neighbor list builds = 58070
Dangerous builds = 185
write_dump all custom dump.atom_info_ac_* id type x y z radius vx vy vz density #
run 308641
Setting up run at Mon Jan  2 06:34:50 2023

Memory usage per processor = 964.609 Mbytes
    Step    Atoms         KinEng            CPU 
40123428      193     0.16611805              0 
40432069      190     0.15377572      3453.6101 
Loop time of 3453.61 on 40 procs for 308641 steps with 190 atoms, finish time Mon Jan  2 07:32:24 2023


Pair  time (%) = 0.574052 (0.0166218)
Neigh time (%) = 101.846 (2.94896)
Comm  time (%) = 33.8211 (0.979298)
Outpt time (%) = 0.000565126 (1.63633e-05)
Other time (%) = 3317.37 (96.0551)

Nlocal:    4.75 ave 61 max 0 min
Histogram: 36 0 1 1 0 0 0 0 0 2
Nghost:    0.325 ave 6 max 0 min
Histogram: 34 3 0 2 0 0 0 0 0 1
Neighs:    0 ave 0 max 0 min
Histogram: 40 0 0 0 0 0 0 0 0 0

Total # of neighbors = 0
Ave neighs/atom = 0
Neighbor list builds = 37395
Dangerous builds = 563
write_dump all custom dump.atom_info_ac_* id type x y z radius vx vy vz density #
run 308641
Setting up run at Mon Jan  2 07:32:24 2023

Memory usage per processor = 964.609 Mbytes
    Step    Atoms         KinEng            CPU 
40432069      190     0.15377572              0 
40740710      187      0.1558527       3682.993 
Loop time of 3682.99 on 40 procs for 308641 steps with 187 atoms, finish time Mon Jan  2 08:33:47 2023


Pair  time (%) = 0.614479 (0.0166842)
Neigh time (%) = 160.882 (4.36824)
Comm  time (%) = 51.245 (1.3914)
Outpt time (%) = 0.000313314 (8.50706e-06)
Other time (%) = 3470.25 (94.2237)

Nlocal:    4.675 ave 61 max 0 min
Histogram: 36 0 1 1 0 0 0 0 0 2
Nghost:    0.7 ave 7 max 0 min
Histogram: 29 5 3 0 0 0 0 2 0 1
Neighs:    0 ave 0 max 0 min
Histogram: 40 0 0 0 0 0 0 0 0 0

Total # of neighbors = 0
Ave neighs/atom = 0
Neighbor list builds = 59189
Dangerous builds = 1550
write_dump all custom dump.atom_info_ac_* id type x y z radius vx vy vz density #
run 308641
Setting up run at Mon Jan  2 08:33:47 2023

Memory usage per processor = 964.609 Mbytes
    Step    Atoms         KinEng            CPU 
40740710      187      0.1558527              0 
41049351      186      0.1437115      3654.5742 
Loop time of 3654.57 on 40 procs for 308641 steps with 186 atoms, finish time Mon Jan  2 09:34:42 2023


Pair  time (%) = 0.65216 (0.017845)
Neigh time (%) = 153.712 (4.20601)
Comm  time (%) = 52.3011 (1.43111)
Outpt time (%) = 0.0494118 (0.00135205)
Other time (%) = 3447.86 (94.3437)

Nlocal:    4.65 ave 65 max 0 min
Histogram: 35 1 0 2 0 0 0 0 1 1
Nghost:    0.475 ave 6 max 0 min
Histogram: 31 4 0 3 0 1 0 0 0 1
Neighs:    0 ave 0 max 0 min
Histogram: 40 0 0 0 0 0 0 0 0 0

Total # of neighbors = 0
Ave neighs/atom = 0
Neighbor list builds = 56472
Dangerous builds = 128
write_dump all custom dump.atom_info_ac_* id type x y z radius vx vy vz density #
run 308641
Setting up run at Mon Jan  2 09:34:43 2023

Memory usage per processor = 964.609 Mbytes
    Step    Atoms         KinEng            CPU 
41049351      186      0.1437115              0 
41357992      180     0.12956614      3573.1179 
Loop time of 3573.12 on 40 procs for 308641 steps with 180 atoms, finish time Mon Jan  2 10:34:16 2023


Pair  time (%) = 0.592868 (0.0165925)
Neigh time (%) = 132.194 (3.69969)
Comm  time (%) = 46.4358 (1.29959)
Outpt time (%) = 0.000698398 (1.95459e-05)
Other time (%) = 3393.89 (94.9841)

Nlocal:    4.5 ave 65 max 0 min
Histogram: 36 0 2 0 0 0 0 0 1 1
Nghost:    0.35 ave 6 max 0 min
Histogram: 33 4 0 2 0 0 0 0 0 1
Neighs:    0 ave 0 max 0 min
Histogram: 40 0 0 0 0 0 0 0 0 0

Total # of neighbors = 0
Ave neighs/atom = 0
Neighbor list builds = 48559
Dangerous builds = 731
write_dump all custom dump.atom_info_ac_* id type x y z radius vx vy vz density #
run 308641
Setting up run at Mon Jan  2 10:34:16 2023

Memory usage per processor = 964.609 Mbytes
    Step    Atoms         KinEng            CPU 
41357992      180     0.12956614              0 
41666633      180     0.11641829      3515.2941 
Loop time of 3515.29 on 40 procs for 308641 steps with 180 atoms, finish time Mon Jan  2 11:32:51 2023


Pair  time (%) = 0.584413 (0.0166249)
Neigh time (%) = 120.503 (3.42796)
Comm  time (%) = 41.7466 (1.18757)
Outpt time (%) = 0.000711986 (2.02539e-05)
Other time (%) = 3352.46 (95.3678)

Nlocal:    4.5 ave 63 max 0 min
Histogram: 36 0 1 1 0 0 0 0 1 1
Nghost:    0.375 ave 6 max 0 min
Histogram: 33 4 0 1 0 1 0 0 0 1
Neighs:    0.025 ave 1 max 0 min
Histogram: 39 0 0 0 0 0 0 0 0 1

Total # of neighbors = 1
Ave neighs/atom = 0.00555556
Neighbor list builds = 44280
Dangerous builds = 0
write_dump all custom dump.atom_info_ac_* id type x y z radius vx vy vz density #
run 308641
Setting up run at Mon Jan  2 11:32:52 2023

Memory usage per processor = 964.609 Mbytes
    Step    Atoms         KinEng            CPU 
41666633      180     0.11641829              0 
41975274      179     0.10689644      3479.1109 
Loop time of 3479.11 on 40 procs for 308641 steps with 179 atoms, finish time Mon Jan  2 12:30:51 2023


Pair  time (%) = 0.579476 (0.0166559)
Neigh time (%) = 111.185 (3.19578)
Comm  time (%) = 42.6539 (1.226)
Outpt time (%) = 0.000584865 (1.68108e-05)
Other time (%) = 3324.69 (95.5616)

Nlocal:    4.475 ave 60 max 0 min
Histogram: 35 1 1 1 0 0 0 0 0 2
Nghost:    0.475 ave 6 max 0 min
Histogram: 32 4 0 2 0 0 0 0 1 1
Neighs:    0 ave 0 max 0 min
Histogram: 40 0 0 0 0 0 0 0 0 0

Total # of neighbors = 0
Ave neighs/atom = 0
Neighbor list builds = 40853
Dangerous builds = 356
write_dump all custom dump.atom_info_ac_* id type x y z radius vx vy vz density #
run 308641
Setting up run at Mon Jan  2 12:30:51 2023

Memory usage per processor = 964.609 Mbytes
    Step    Atoms         KinEng            CPU 
41975274      179     0.10689644              0 
42283915      178     0.10194042       3415.908 
Loop time of 3415.91 on 40 procs for 308641 steps with 178 atoms, finish time Mon Jan  2 13:27:47 2023


Pair  time (%) = 0.57102 (0.0167165)
Neigh time (%) = 94.0035 (2.75193)
Comm  time (%) = 26.8414 (0.785775)
Outpt time (%) = 0.000588918 (1.72405e-05)
Other time (%) = 3294.49 (96.4456)

Nlocal:    4.45 ave 59 max 0 min
Histogram: 35 1 1 1 0 0 0 0 0 2
Nghost:    0.5 ave 6 max 0 min
Histogram: 33 1 0 3 0 1 1 0 0 1
Neighs:    0.025 ave 1 max 0 min
Histogram: 39 0 0 0 0 0 0 0 0 1

Total # of neighbors = 1
Ave neighs/atom = 0.00561798
Neighbor list builds = 34539
Dangerous builds = 204
write_dump all custom dump.atom_info_ac_* id type x y z radius vx vy vz density #
run 308641
Setting up run at Mon Jan  2 13:27:47 2023

Memory usage per processor = 964.609 Mbytes
    Step    Atoms         KinEng            CPU 
42283915      178     0.10194042              0 
42592556      173     0.14077826      3427.2284 
Loop time of 3427.23 on 40 procs for 308641 steps with 173 atoms, finish time Mon Jan  2 14:24:54 2023


Pair  time (%) = 0.708126 (0.0206618)
Neigh time (%) = 95.4804 (2.78594)
Comm  time (%) = 31.6801 (0.924364)
Outpt time (%) = 0.0748901 (0.00218515)
Other time (%) = 3299.28 (96.2669)

Nlocal:    4.325 ave 61 max 0 min
Histogram: 35 1 2 0 0 0 0 0 0 2
Nghost:    0.45 ave 5 max 0 min
Histogram: 33 0 2 0 3 0 0 0 0 2
Neighs:    0 ave 0 max 0 min
Histogram: 40 0 0 0 0 0 0 0 0 0

Total # of neighbors = 0
Ave neighs/atom = 0
Neighbor list builds = 35062
Dangerous builds = 201
write_dump all custom dump.atom_info_ac_* id type x y z radius vx vy vz density #
run 308641
Setting up run at Mon Jan  2 14:24:56 2023

Memory usage per processor = 964.609 Mbytes
    Step    Atoms         KinEng            CPU 
42592556      173     0.14077826              0 
42901197      170     0.14203461      3428.7324 
Loop time of 3428.73 on 40 procs for 308641 steps with 170 atoms, finish time Mon Jan  2 15:22:04 2023


Pair  time (%) = 0.56527 (0.0164863)
Neigh time (%) = 96.7885 (2.82287)
Comm  time (%) = 32.3641 (0.94391)
Outpt time (%) = 0.000640226 (1.86724e-05)
Other time (%) = 3299.01 (96.2167)

Nlocal:    4.25 ave 61 max 0 min
Histogram: 36 0 2 0 0 0 0 0 0 2
Nghost:    0.325 ave 6 max 0 min
Histogram: 36 2 0 0 0 0 0 0 1 1
Neighs:    0 ave 0 max 0 min
Histogram: 40 0 0 0 0 0 0 0 0 0

Total # of neighbors = 0
Ave neighs/atom = 0
Neighbor list builds = 35562
Dangerous builds = 812
write_dump all custom dump.atom_info_ac_* id type x y z radius vx vy vz density #
run 308641
Setting up run at Mon Jan  2 15:22:04 2023

Memory usage per processor = 964.609 Mbytes
    Step    Atoms         KinEng            CPU 
42901197      170     0.14203461              0 
WARNING: Forced restart written (../output.cpp:427)
42968927      169     0.14017678      745.18311 
Loop time of 745.186 on 40 procs for 308641 steps with 169 atoms, finish time Mon Jan  2 15:34:30 2023


Pair  time (%) = 0.12441 (0.0166952)
Neigh time (%) = 20.4737 (2.74746)
Comm  time (%) = 5.2883 (0.709662)
Outpt time (%) = 0.333814 (0.0447961)
Other time (%) = 718.965 (96.4814)

Nlocal:    4.225 ave 60 max 0 min
Histogram: 35 2 0 1 0 0 0 0 0 2
Nghost:    0.55 ave 7 max 0 min
Histogram: 32 3 3 0 0 0 0 0 1 1
Neighs:    0.025 ave 1 max 0 min
Histogram: 39 0 0 0 0 0 0 0 0 1

Total # of neighbors = 1
Ave neighs/atom = 0.00591716
Neighbor list builds = 7526
Dangerous builds = 0
