ITEM: TIMESTEP
18024656
ITEM: NUMBER OF ATOMS
55
ITEM: BOX BOUNDS ff ff ff
-0.15 0.15
-0.15 0.15
-0.15 0.15
ITEM: ATOMS id type x y z radius vx vy vz density 
110 1 -0.00738828 -0.000504379 -0.0148126 0.000291 -0.0216545 -0.00709264 0.00653652 2650 
135 1 -0.00122056 -0.000244541 -0.0151896 0.000291 0.00169601 -0.000325767 0.00663364 2650 
94 1 -0.0123761 -0.00385465 -0.0127562 0.000291 -0.672084 -0.189139 -0.707043 2650 
61 1 -0.0686556 -0.00768711 -0.00285311 0.000291 -0.00158047 -0.252899 0.0380215 2650 
278 1 -0.00471087 -0.00275644 0.00314424 0.001058 -0.00422146 -0.00973183 0.00669825 2650 
66 1 -0.00777259 0.0258742 -0.0138441 0.001058 -0.0184097 0.0220542 0.014153 2650 
184 1 -0.0140574 0.00265715 -0.00890324 0.000105 -0.00529342 -0.141879 0.0118226 2650 
47 1 -0.0146764 0.00350949 -0.00418282 0.000291 -0.00116017 0.000499626 0.00624202 2650 
256 1 -0.009509 0.0118766 -0.00470666 0.000291 0.00631325 0.000997536 0.00140548 2650 
259 1 -0.0145085 0.0231626 -0.00514658 0.001058 -0.0161252 0.036638 0.0421255 2650 
227 1 -0.00787059 0.0236389 -0.00443631 0.000291 -0.00583406 0.0231799 -0.0375374 2650 
260 1 -0.00947608 0.0509612 -0.00492521 0.000291 0.00153684 0.0518001 -0.0362863 2650 
57 1 -0.00841604 0.00810705 -0.0025914 0.00164 -0.0434178 -0.0174338 0.0236103 2650 
105 1 -0.0136316 0.0203838 -0.00271585 0.00164 -0.00621692 0.0161745 0.0404299 2650 
7 1 -0.00340595 0.0303613 -0.00323095 0.000291 0.00379351 0.0136266 -0.000190797 2650 
161 1 -0.0078361 0.0263516 -0.000942385 0.00164 0.00183761 0.0230365 -0.0310939 2650 
76 1 -0.0145941 0.0292213 0.0038858 0.001058 0.000303736 0.00784859 0.0442234 2650 
223 1 -0.00207063 0.0454983 0.0035059 0.001058 -0.0124478 0.0517165 0.00051577 2650 
59 1 -0.0149209 0.0173759 0.005374 0.001058 0.0369176 -0.0582353 0.087664 2650 
266 1 -0.0135433 0.0247896 0.00476396 0.001058 0.0333146 -0.026291 0.0110804 2650 
115 1 -0.0137103 0.012318 0.00794539 0.001058 0.0104956 0.00512418 0.0139849 2650 
246 1 -0.00408862 0.0186105 0.00668502 0.001058 0.0139049 0.0108142 -0.00742869 2650 
60 1 -0.0105342 0.0329347 0.00788052 0.001058 0.0134543 0.0235863 0.0123422 2650 
45 1 -0.0146218 0.0398763 0.00788553 0.000291 0.011517 0.046347 0.043248 2650 
292 1 -0.00804419 0.0198911 0.0106182 0.001058 -0.00564585 0.0110376 -0.0135102 2650 
195 1 -0.00805613 0.00375315 0.0135916 0.001058 -0.0596932 -0.0193693 -0.0450123 2650 
163 1 -0.00734463 0.0205321 0.0127583 0.001058 -0.0401153 0.0423096 0.0159107 2650 
220 1 -0.00834164 0.0254888 0.0137414 0.000291 0.00640109 0.010212 0.0229274 2650 
208 1 -0.00936725 0.0341811 0.0129155 0.001058 0.119067 0.0284918 0.0627539 2650 
19 1 -0.00721325 0.0367678 0.014083 0.001058 0.10475 0.0560582 0.0791609 2650 
275 1 0.00346229 -0.000791753 -0.0161673 0.000291 -0.0106073 -0.00599286 -0.00289011 2650 
17 1 0.046103 -0.0127292 0.0491671 0.00164 22.0374 0.224878 -20.64 2650 
128 1 0.0372614 -0.00245099 0.0579492 0.000105 0.125261 0.247196 -0.0805431 2650 
293 1 0.000877848 0.00994651 -0.0157348 0.001058 -0.0660818 -0.00610407 -0.00278112 2650 
54 1 0.0109452 0.0327094 -0.0126026 0.000291 -0.0306405 -0.00128986 -0.0366903 2650 
123 1 0.0128042 0.0283854 -0.009333 0.001058 -0.103178 -0.0436723 -0.139466 2650 
176 1 0.00867533 0.00784659 -0.00730489 0.000105 -0.035977 0.0168479 0.0167701 2650 
77 1 0.011999 0.012129 -0.00756154 0.000291 -0.00528679 0.000925745 0.0158841 2650 
273 1 0.00278743 0.0638833 -0.00595553 0.001058 0.00321875 0.0482271 0.00329301 2650 
291 1 0.0110481 0.030279 -0.000825158 0.000291 -0.00702108 0.0156679 -0.0185607 2650 
298 1 0.0011691 0.0186339 0.00379308 0.000105 0.0240274 0.00422781 0.0149468 2650 
190 1 0.000641052 0.0190254 0.00262937 0.000291 0.0330722 0.017508 -0.00902836 2650 
299 1 0.0147631 0.0549542 0.00572688 0.001058 0.0394583 0.00247014 -0.145678 2650 
65 1 0.0108033 0.0452231 0.00757109 0.00164 0.0281321 0.0366204 0.0111831 2650 
186 1 0.00854112 0.00802922 0.0108289 0.001058 0.0173039 0.014243 0.0129603 2650 
252 1 0.0110029 0.0512267 0.0108363 0.001058 0.0760299 0.00903564 -0.0662307 2650 
37 1 0.00982318 0.00536823 0.0132309 0.000291 0.0696386 0.00275632 -0.0518651 2650 
295 1 0.00144869 0.0133876 0.0137293 0.000291 0.023278 0.00635196 0.00540017 2650 
41 1 0.007668 0.0198896 0.0130417 0.00164 0.0557821 0.00233902 -0.00345463 2650 
18 1 0.00810214 0.0331379 0.0136842 0.001058 0.100159 0.0287205 -0.0747078 2650 
33 1 0.0044102 0.00839302 0.0146107 0.00164 0.0256147 -0.0080214 -0.0110457 2650 
50 1 0.000601194 0.0198109 0.0155914 0.001058 -0.00570761 0.0214766 -0.00452514 2650 
9 1 0.00513292 0.0232885 0.0143003 0.00164 0.0537709 0.0303578 -0.022982 2650 
277 1 0.00245898 0.0364653 0.0150213 0.000291 -0.0294353 0.0140543 -0.00156982 2650 
242 1 0.00374291 0.0124137 0.0162425 0.000291 0.0683219 -0.00851307 -0.00667782 2650 
