ITEM: TIMESTEP
11111042
ITEM: NUMBER OF ATOMS
91
ITEM: BOX BOUNDS ff ff ff
-0.15 0.15
-0.15 0.15
-0.15 0.15
ITEM: ATOMS id type x y z radius vx vy vz density 
113 1 -0.0284826 -0.0162035 -0.0611525 0.00164 -58.5179 2.39607 27.2309 2650 
191 1 -0.00941165 -0.0118515 -0.0301755 0.000291 -0.151277 3.53961 2.56028 2650 
70 1 -0.002345 -0.00192093 -0.015511 0.000291 0 -0.01175 0 2650 
231 1 -0.000209599 -0.00204426 -0.012241 0.001058 -0.0128488 -0.00869434 -0.0217783 2650 
135 1 -0.00236871 -0.000242353 -0.0112884 0.000291 0.0022501 0.000177671 -0.0146391 2650 
175 1 -0.0145778 -0.00256625 -0.0067799 0.000291 -0.0483249 -0.0709256 0.0327645 2650 
153 1 -0.013598 -0.000621413 -0.00671855 0.00164 -0.0586749 -0.017975 0.110627 2650 
274 1 -0.016349 -0.00282393 -0.002509 0.000291 0 -0.01175 0 2650 
120 1 -0.016055 -0.00133693 0.000189 0.000105 0 -0.01175 0 2650 
177 1 -0.00193796 -0.00216302 0.00225092 0.00164 -0.145507 0.00668533 0.133547 2650 
251 1 -0.00621509 -0.00253434 0.0125614 0.001058 0.0331062 -0.0418443 0.050038 2650 
17 1 -0.0537321 -0.0166195 0.0407007 0.00164 17.6232 -1.42715 23.2384 2650 
79 1 -0.000558777 0.0292742 -0.0166414 0.000291 -0.0322483 0.0228358 0.00803201 2650 
45 1 -0.00367262 0.0129837 -0.0144686 0.000291 -0.0195157 0.00747936 -0.00924113 2650 
19 1 -0.00587225 0.0142582 -0.0144128 0.001058 -0.0547618 0.042192 0.0295878 2650 
59 1 -0.00219314 0.0173885 -0.0156436 0.001058 -0.0323353 0.052043 0.00517262 2650 
76 1 -0.00147865 0.0222926 -0.0147424 0.001058 -0.0191601 0.0802153 -0.00506608 2650 
37 1 -0.0108158 0.00389897 -0.0125218 0.000291 -0.0785827 -0.00131271 0.058387 2650 
105 1 -0.00171763 0.00831226 -0.0122595 0.00164 -0.0287986 0.0232051 0.00970683 2650 
99 1 -0.0027404 0.0610479 -0.0134231 0.001058 -0.0645236 0.0859374 0.0117872 2650 
94 1 -0.0115518 0.0032097 -0.0118508 0.000291 8.54657e-05 -0.0117335 8.54657e-05 2650 
78 1 -0.000809033 0.00240489 -0.0118775 0.000291 -0.0110108 -0.0151313 0.00526005 2650 
252 1 -0.0113413 0.0303498 -0.00953647 0.001058 -0.0351635 0.0657894 0.0175138 2650 
47 1 -0.0140267 0.0032297 -0.00767837 0.000291 -0.00116017 0.000499626 0.00624202 2650 
33 1 -0.0139735 0.00524471 -0.00432861 0.00164 -0.0812349 0.0198249 0.0687661 2650 
256 1 -0.0130444 0.011318 -0.00549373 0.000291 0.00631325 0.000997536 0.00140548 2650 
298 1 -0.0122863 0.0162663 -0.00457718 0.000105 0.0240274 0.00422781 0.0149468 2650 
271 1 -0.00230512 0.000539452 -0.00387795 0.001058 -0.00599571 -0.0123375 0.00397335 2650 
115 1 -0.015627 0.00909786 -0.00220309 0.001058 -0.00109926 0.00611254 0.0195305 2650 
7 1 -0.00553032 0.0227304 -0.0031241 0.000291 0.00379351 0.0136266 -0.000190797 2650 
61 1 -0.016439 0.00302307 -0.001038 0.000291 0 -0.01175 0 2650 
278 1 -0.00234685 0.00269341 -0.000606803 0.001058 -0.00422146 -0.00973183 0.00669825 2650 
60 1 -0.01125 0.0188963 -0.000285349 0.001058 -0.0236546 0.0281525 0.0193152 2650 
268 1 -0.011054 0.00188507 0.000789 0.000291 0 -0.01175 0 2650 
292 1 -0.0122575 0.00773838 0.0015195 0.001058 -0.0150343 0.00864302 0.00848144 2650 
220 1 -0.0119213 0.0198425 0.00112155 0.000291 0.00621602 0.00749286 0.0146849 2650 
65 1 -0.00495074 0.0247156 0.00130854 0.00164 0.0281321 0.0366204 0.0111831 2650 
129 1 -0.00885379 0.00130847 0.0030225 0.00164 -0.000567965 -0.0132688 0.0044317 2650 
176 1 -0.003983 6.67283e-08 0.002552 0.000105 0 -0.01175 0 2650 
186 1 -0.00114876 5.43248e-05 0.00357194 0.001058 0.00924973 -0.0141373 -0.00546911 2650 
41 1 -0.00322459 0.0155708 0.00399038 0.00164 0.0100989 0.00909472 0.0212118 2650 
190 1 -0.00960514 0.00915357 0.00496944 0.000291 -0.0683026 0.0183326 0.0242451 2650 
242 1 -0.0108074 0.0140793 0.00566252 0.000291 -0.0086111 0.00654042 0.00262129 2650 
161 1 -0.00293761 0.0121038 0.00784855 0.00164 -0.0466088 0.0340485 0.0393723 2650 
295 1 -0.011587 0.00983049 0.0107052 0.000291 0.023278 0.00635196 0.00540017 2650 
246 1 -0.0114837 0.0125357 0.0103657 0.001058 -0.016097 0.0122544 0.0292978 2650 
260 1 -0.00712751 0.0213235 0.0107025 0.000291 -0.0541496 0.0627242 0.0451424 2650 
50 1 -0.00900213 0.0156942 0.0129874 0.001058 -0.232808 -0.0442863 -0.173921 2650 
227 1 -0.00392825 0.0106058 0.0149718 0.000291 -0.0463398 0.0263206 0.059209 2650 
299 1 -0.00432471 0.0475369 0.0151351 0.001058 0.411987 -0.111038 0.110735 2650 
38 1 -0.00689895 0.0984335 -0.0235165 0.000291 -0.826933 0.286614 -2.64804 2650 
263 1 0.0345504 -0.0240612 -0.0593902 0.000291 0.140508 -0.610498 0.0815493 2650 
85 1 0.0219749 -0.00479923 -0.056268 0.000291 3.02008 -6.3852 6.32798 2650 
117 1 0.039988 -0.00544176 -0.0558738 0.000291 0.168744 -0.124617 0.120712 2650 
130 1 1.4e-05 -0.00321193 -0.015674 0.001058 0 -0.01175 0 2650 
269 1 0.002277 -0.00303893 -0.015181 0.000291 0 -0.01175 0 2650 
258 1 0.0127057 -0.00179364 0.00912265 0.001058 0.000575798 -0.0105578 -0.00393769 2650 
164 1 0.00556306 -0.00334564 0.0137737 0.001058 0.330718 -0.025856 0.795531 2650 
95 1 0.006942 -0.00193693 0.013027 0.000291 0 -0.01175 0 2650 
52 1 0.0563753 -0.0278431 0.037958 0.001058 52.0216 13.6412 -78.3372 2650 
234 1 0.0015641 0.00186509 -0.0163959 0.000291 -0.0638396 -0.0352677 -0.0147261 2650 
110 1 0.00562017 0.00374674 -0.0147553 0.000291 -0.0245805 -0.00801908 -0.00579878 2650 
9 1 0.00499177 0.0105681 -0.0143354 0.00164 -0.143699 0.0288597 -0.0364416 2650 
66 1 0.00639978 0.0136388 -0.0144973 0.001058 -0.0269655 0.0218227 -0.0042522 2650 
275 1 0.00923354 0.00261172 -0.013758 0.000291 -0.0100785 -0.00614145 -0.00536609 2650 
18 1 0.00747521 0.0103609 -0.0127231 0.001058 -0.148251 0.0339289 -0.0122473 2650 
266 1 0.000556513 0.0336383 -0.0136695 0.001058 0.017298 0.043313 -0.0322074 2650 
127 1 0.000412687 0.0421293 -0.0107326 0.000291 0.0287766 0.0561217 0.00113528 2650 
244 1 0.0125888 0.000922606 -0.00914339 0.001058 -0.00561812 -0.0110513 -0.0139882 2650 
273 1 0.000984918 0.036876 -0.00779963 0.001058 0.00321875 0.0482271 0.00329301 2650 
209 1 0.014522 0.0365533 -0.00623854 0.001058 -0.0456716 0.0377787 -0.108539 2650 
284 1 0.014191 0.00231607 -0.005949 0.000291 0 -0.01175 0 2650 
77 1 0.00261434 0.0111803 -0.00423497 0.000291 0.0277953 0.00207908 -0.016867 2650 
123 1 0.0155258 0.0286928 -0.00269574 0.001058 -0.0362996 0.0581581 -0.207257 2650 
184 1 0.016401 0.0328162 -0.00319324 0.000105 -0.0233663 -0.0229519 -0.131084 2650 
208 1 0.0157403 0.0313342 -0.00153049 0.001058 -0.0694182 -0.00351048 -0.394656 2650 
128 1 0.00361 0.00192407 0.000511 0.000105 0 -0.01175 0 2650 
48 1 0.009671 0.000217067 0.000233 0.000105 0 -0.01175 0 2650 
195 1 0.0154053 0.00601735 0.000415517 0.001058 -0.0127467 0.00851768 -0.0346344 2650 
101 1 0.004812 0.000647067 0.002517 0.000291 0 -0.01175 0 2650 
223 1 0.00490018 0.0165369 0.00321707 0.001058 -0.0124478 0.0517165 0.00051577 2650 
57 1 0.00680007 0.0192203 0.00235097 0.00164 0.0165718 -0.0263383 -0.0961621 2650 
163 1 0.012287 0.0122902 0.00450767 0.001058 -0.0131464 0.0116812 0.0450427 2650 
277 1 0.0153169 0.0172767 0.00635012 0.000291 -0.0125275 0.0433268 0.0295234 2650 
291 1 0.0120753 0.0212247 0.00793355 0.000291 0.0359096 0.0198109 0.00560993 2650 
259 1 0.0108804 0.0147402 0.0104133 0.001058 0.190566 0.0103822 -0.0162084 2650 
54 1 0.00940824 0.0316754 0.0107588 0.000291 0.0527092 0.00944275 -0.0227616 2650 
304 1 0.00198529 0.0471608 0.0104293 0.000291 0.0093205 0.0549334 0.0198118 2650 
293 1 0.00977211 0.00764068 0.0124856 0.001058 0.0580675 0.0140019 -0.040883 2650 
199 1 0.0507856 0.0727353 0.0462808 0.000291 0.213917 0.0315535 -0.234652 2650 
136 1 0.0094224 0.101326 0.00435264 0.000105 0.0370802 0.101801 0.0201257 2650 
