ITEM: TIMESTEP
8148098
ITEM: NUMBER OF ATOMS
118
ITEM: BOX BOUNDS ff ff ff
-0.15 0.15
-0.15 0.15
-0.15 0.15
ITEM: ATOMS id type x y z radius vx vy vz density 
294 1 -0.030198 -0.0102295 -0.0573374 0.001058 -0.837065 -0.402548 -1.22611 2650 
81 1 -0.00786372 -0.0262123 -0.0449987 0.00164 4.93422 -0.333336 6.77986 2650 
272 1 -0.0562374 -0.0116035 -0.0381555 0.001058 -10.7412 3.38958 15.8044 2650 
80 1 -0.0571793 -0.00891417 -0.0384361 0.000105 -44.6325 0.195702 66.3918 2650 
108 1 -0.058087 -0.0177386 -0.0352815 0.001058 -10.8165 -5.28757 17.7877 2650 
25 1 -0.0612723 -0.0392485 -0.0282914 0.00164 -28.624 7.40524 61.9369 2650 
85 1 -0.003548 -0.000902951 -0.015444 0.000291 0 -0.01175 0 2650 
198 1 -0.0130401 -0.00168564 -0.0102481 0.000291 -0.00854132 -0.0172778 0.00480902 2650 
289 1 -0.00220438 -0.000742522 -0.0110153 0.000291 -0.0282756 -0.0190441 0.0112638 2650 
135 1 -0.00290873 -0.000284994 -0.00777501 0.000291 0.0022501 0.000177671 -0.0146391 2650 
240 1 -0.0662564 -0.0112905 -0.00255831 0.000291 0.187308 -0.489229 0.0456629 2650 
274 1 -0.016349 -3.95132e-06 -0.002509 0.000291 0 -0.01175 0 2650 
191 1 -0.0108 -0.00172995 0.001549 0.000291 0 -0.01175 0 2650 
70 1 -0.002345 0.000899049 -0.015511 0.000291 0 -0.01175 0 2650 
123 1 -0.00753943 0.0302856 -0.01402 0.001058 -0.343961 -0.0290739 0.141902 2650 
33 1 -0.00376418 0.0040424 -0.0129939 0.00164 0.000403534 -0.0114316 -0.000138424 2650 
52 1 -0.00428974 0.0123782 -0.0131171 0.001058 0.0285355 0.0270684 -0.0424848 2650 
252 1 -0.00290211 0.0145604 -0.0137398 0.001058 -0.0351635 0.0657894 0.0175138 2650 
76 1 -3.21808e-05 0.00554864 -0.0102373 0.001058 0.0117156 0.0556513 -0.0372869 2650 
94 1 -0.0115723 0.00602573 -0.0118713 0.000291 8.54657e-05 -0.0117335 8.54657e-05 2650 
234 1 -0.0107739 0.00663669 -0.0115291 0.000291 -0.0198056 0.0044 -0.0033269 2650 
127 1 -0.00649366 0.0286601 -0.0110051 0.000291 0.0287766 0.0561217 0.00113528 2650 
175 1 -0.0139394 0.00133254 -0.00866247 0.000291 -0.0107677 -0.0157078 0.00137668 2650 
47 1 -0.0137482 0.00310979 -0.00917645 0.000291 -0.00116017 0.000499626 0.00624202 2650 
50 1 -0.0125301 0.00611821 -0.0093454 0.001058 0.205181 0.138593 -0.256628 2650 
17 1 -0.0120894 0.00287535 -0.00789938 0.00164 0.0200641 -0.0343052 0.0100474 2650 
115 1 -0.0136707 0.00751392 -0.00666949 0.001058 -0.0112517 0.00681282 0.0181205 2650 
271 1 -0.000866163 0.00350043 -0.00483155 0.001058 -0.00599571 -0.0123375 0.00397335 2650 
256 1 -0.0145596 0.0110786 -0.00583105 0.000291 0.00631325 0.000997536 0.00140548 2650 
60 1 -0.00557297 0.0121397 -0.00492098 0.001058 -0.0236546 0.0281525 0.0193152 2650 
298 1 -0.00954884 0.0147845 -0.00524711 0.000105 -0.0569641 0.00867691 -0.0128371 2650 
266 1 -0.00359497 0.0232433 -0.00593976 0.001058 0.017298 0.043313 -0.0322074 2650 
278 1 -0.0013337 0.00502904 -0.00221437 0.001058 -0.00422146 -0.00973183 0.00669825 2650 
259 1 -0.0111441 0.0133385 -0.00370097 0.001058 -0.0868982 0.0659986 0.0657003 2650 
220 1 -0.0134132 0.0180442 -0.00240279 0.000291 0.00621602 0.00749286 0.0146849 2650 
7 1 -0.00644076 0.01946 -0.00307831 0.000291 0.00379351 0.0136266 -0.000190797 2650 
61 1 -0.016439 0.00584305 -0.001038 0.000291 0 -0.01175 0 2650 
292 1 -0.0086493 0.00566407 -0.000516027 0.001058 -0.0150343 0.00864302 0.00848144 2650 
77 1 -0.00405649 0.0106813 -0.000186928 0.000291 0.0277953 0.00207908 -0.016867 2650 
41 1 -0.00564832 0.0133881 -0.00110043 0.00164 0.0100989 0.00909472 0.0212118 2650 
65 1 -0.0107806 0.0166474 -0.00114781 0.00164 -0.00350053 0.0118922 0.00337463 2650 
120 1 -0.016055 0.00148305 0.000189 0.000105 0 -0.01175 0 2650 
222 1 -0.0142006 0.00130254 0.000197089 0.001058 0.0541981 -0.0328455 0.0840213 2650 
268 1 -0.011054 0.00470505 0.000789 0.000291 0 -0.01175 0 2650 
129 1 -0.00871748 0.00449297 0.00195889 0.00164 -0.000567965 -0.0132688 0.0044317 2650 
251 1 -0.0141605 0.00750823 0.000552338 0.001058 0.0331062 -0.0418443 0.050038 2650 
176 1 -0.003983 0.00282005 0.002552 0.000105 0 -0.01175 0 2650 
295 1 -0.0100455 0.00766638 0.00359499 0.000291 -0.017513 0.0100123 0.0386717 2650 
246 1 -0.00762043 0.00959469 0.00333429 0.001058 -0.016097 0.0122544 0.0292978 2650 
186 1 -0.00336868 0.00344725 0.00488452 0.001058 0.00924973 -0.0141373 -0.00546911 2650 
242 1 -0.0087408 0.0125096 0.00503341 0.000291 -0.0086111 0.00654042 0.00262129 2650 
304 1 -0.000251617 0.0339769 0.00567446 0.000291 0.0093205 0.0549334 0.0198118 2650 
299 1 -0.0144623 0.0427727 0.00633024 0.001058 0.204033 0.123473 0.481588 2650 
293 1 -0.0071054 0.00333432 0.01337 0.001058 0.0739038 0.0215134 0.0385729 2650 
54 1 -0.00324188 0.0294092 0.0162215 0.000291 0.0527092 0.00944275 -0.0227616 2650 
184 1 -0.00312937 0.0342293 0.0164554 0.000105 0.136466 0.0149171 0.0343672 2650 
58 1 0.0476563 -0.0495658 -0.048343 0.001058 1.05663 7.74849 -1.08761 2650 
303 1 0.001598 -0.00248295 -0.015917 0.000291 0 -0.01175 0 2650 
130 1 1.4e-05 -0.000391951 -0.015674 0.001058 0 -0.01175 0 2650 
269 1 0.002277 -0.000218951 -0.015181 0.000291 0 -0.01175 0 2650 
263 1 0.006877 -0.000962951 -0.012319 0.000291 0 -0.01175 0 2650 
201 1 0.00729715 -0.00234311 -0.00932542 0.00164 -0.00357514 -0.0149576 0.00238577 2650 
199 1 0.0131213 -0.00212807 -0.00888861 0.000291 -0.010193 -0.0230522 -0.00743053 2650 
142 1 0.00105696 -0.00253049 -0.00754284 0.000291 -0.00732277 -0.0336747 0.0394034 2650 
67 1 0.00896512 -0.00309391 -0.00605157 0.001058 -4.88983e-05 -0.0117466 -8.45023e-06 2650 
117 1 0.004754 -0.000795951 -0.007063 0.000291 0 -0.01175 0 2650 
205 1 0.00441476 -0.00220444 -0.00474491 0.000291 -0.00365805 -0.0106456 -0.00616453 2650 
177 1 0.00708537 -0.00194143 -0.0044619 0.00164 0.000245185 -0.00935443 -0.00350041 2650 
270 1 0.00568145 -0.00264428 -0.00218601 0.000291 0.0222139 -0.00940451 0.00236984 2650 
51 1 0.0109719 -0.00216966 -0.00238873 0.001058 -0.00657689 -0.0124477 0.00141804 2650 
113 1 0.00609449 -0.00122644 -0.000217295 0.00164 -0.0153032 -0.0164075 -0.0135682 2650 
153 1 0.0149075 -0.00134148 -0.000891943 0.00164 -0.00819712 0.0367454 -0.248878 2650 
96 1 0.009869 -0.00280095 0.000788 0.000105 0 -0.01175 0 2650 
210 1 0.0117536 -0.00206621 0.00167682 0.001058 0.00723422 -0.0113641 -0.00628751 2650 
261 1 0.011218 -0.00126195 0.000328 0.000291 0 -0.01175 0 2650 
174 1 0.002361 -0.00326795 0.006466 0.000291 0 -0.01175 0 2650 
103 1 0.00319149 -0.00146144 0.00687005 0.000291 0.0143938 -0.0238602 -0.023952 2650 
164 1 0.002658 -0.000230417 0.0127304 0.001058 0.0207476 -0.0164155 0.0249809 2650 
122 1 0.0183306 -0.0406427 0.065468 0.001058 62.2862 5.4753 -17.4288 2650 
37 1 0.006156 0.00554305 -0.015157 0.000291 0 -0.01175 0 2650 
79 1 0.00738357 0.0234441 -0.0149102 0.000291 -0.0293301 0.023719 -0.0201519 2650 
78 1 0.000934425 0.00560383 -0.0125457 0.000291 -0.00269015 -0.0111283 -0.000238718 2650 
105 1 0.00295348 0.00556801 -0.0132328 0.00164 -0.00164615 -0.00829113 -0.00624191 2650 
45 1 0.00101111 0.0111886 -0.0122507 0.000291 -0.0195157 0.00747936 -0.00924113 2650 
208 1 0.000105505 0.0188714 -0.0126471 0.001058 -0.0186393 0.0297884 -0.0319434 2650 
19 1 0.01047 0.00283138 -0.0112028 0.001058 -0.0128266 -0.0130061 -0.0120232 2650 
275 1 0.0113987 0.00411738 -0.0119219 0.000291 -0.00893136 -0.00628492 -0.0078459 2650 
110 1 0.0103785 0.00583169 -0.0109024 0.000291 -0.0137212 -0.00954555 -0.0292232 2650 
66 1 0.0121068 0.00841035 -0.010018 0.001058 -0.0139083 0.0191578 -0.0319275 2650 
59 1 0.00430379 0.00679832 -0.00806724 0.001058 -0.0165679 0.0305009 -0.0803715 2650 
9 1 0.0112326 0.00599801 -0.00914156 0.00164 -0.015789 0.0188422 -0.0221878 2650 
273 1 0.000212422 0.0253016 -0.00858994 0.001058 0.00321875 0.0482271 0.00329301 2650 
231 1 0.00287409 4.23645e-05 -0.00701426 0.001058 -0.0128488 -0.00869434 -0.0217783 2650 
102 1 0.000882102 0.000778619 -0.00507301 0.000291 -0.0502304 -0.045059 -0.0281414 2650 
244 1 0.0139371 0.0035749 -0.00578624 0.001058 -0.00561812 -0.0110513 -0.0139882 2650 
284 1 0.014191 0.00513605 -0.005949 0.000291 0 -0.01175 0 2650 
163 1 0.0130204 0.00918357 -0.0056154 0.001058 0.0684487 0.0218954 0.0218915 2650 
99 1 0.00888266 0.0387156 -0.00535699 0.001058 -0.030305 0.100944 -0.0831985 2650 
18 1 0.0154465 0.0166563 -0.00319426 0.001058 -0.316841 -0.219957 -1.7785 2650 
161 1 0.00825341 0.00392998 -0.00160251 0.00164 -0.0469904 0.0342166 0.0395078 2650 
190 1 0.005899 0.00514505 -0.000534 0.000291 0 -0.01175 0 2650 
260 1 0.00586831 0.00626979 -0.000131624 0.000291 -0.0541496 0.0627242 0.0451424 2650 
277 1 0.0160286 0.00669068 -0.00145754 0.000291 0.0218688 0.0459263 0.0333433 2650 
48 1 0.009671 0.00303705 0.000233 0.000105 0 -0.01175 0 2650 
128 1 0.00361 0.00474405 0.000511 0.000105 0 -0.01175 0 2650 
227 1 0.00719324 0.00428887 0.000761717 0.000291 -0.0463398 0.0263206 0.059209 2650 
101 1 0.004812 0.00346705 0.002517 0.000291 0 -0.01175 0 2650 
223 1 0.00788764 0.00412505 0.00309329 0.001058 -0.0124478 0.0517165 0.00051577 2650 
38 1 0.00879047 0.0204312 0.00268083 0.000291 0.0522532 0.347705 -0.255862 2650 
195 1 0.00768648 0.00451772 0.00733707 0.001058 0.0383321 0.00593628 -0.0280437 2650 
291 1 0.00345703 0.0164701 0.00658717 0.000291 0.0359096 0.0198109 0.00560993 2650 
258 1 0.0120422 0.000814992 0.00977421 0.001058 0.00518671 -0.0112142 -0.00136178 2650 
57 1 0.003885 0.0207954 0.0116415 0.00164 0.0206968 0.0145892 0.0444377 2650 
95 1 0.006942 0.000883049 0.013027 0.000291 0 -0.01175 0 2650 
209 1 0.00284653 0.0301412 0.0154997 0.001058 0.119142 0.0119503 -0.0209648 2650 
75 1 0.00111765 0.0507033 0.0155579 0.001058 0.0776418 0.102053 -0.0142447 2650 
136 1 0.0005232 0.0768944 -0.000477489 0.000105 0.0370802 0.101801 0.0201257 2650 
11 1 0.053339 0.0849323 0.0420989 0.001058 0.13592 -0.108146 -0.172019 2650 
