LIGGGHTS (Version LIGGGHTS-PUBLIC 3.8.0, compiled 2022-11-07-16:55:38 by serperd1, git commit 86544c3f1215bc9744d7929e3eacf53ba086af9e)
Created orthogonal box = (-0.15 -0.15 -0.15) to (0.15 0.15 0.15)
  2 by 4 by 5 MPI processor grid

Reading STL file 'cone.stl' (mesh processing step 1/3) 

Reading STL file 'in_cyl.stl' (mesh processing step 1/3) 

Reading STL file 'top_cyl.stl' (mesh processing step 1/3) 

Reading STL file 'bot_cyl.stl' (mesh processing step 1/3) 

Reading STL file 'bottom_disk.stl' (mesh processing step 1/3) 

Reading STL file 'top_disk.stl' (mesh processing step 1/3) 
Fix particledistribution/discrete (id prob_par): distribution based on mass%:
    r_0to10p: d=2.100000e-04 (max. bounding sphere) mass%=10.000000%
    r_10to50p: d=5.820000e-04 (max. bounding sphere) mass%=40.000000%
    r_50to90p: d=2.116400e-03 (max. bounding sphere) mass%=40.000000%
    r_90to100p: d=3.280400e-03 (max. bounding sphere) mass%=10.000000%
Fix particledistribution/discrete (id prob_par): distribution based on number%:
    r_0to10p: d=2.100000e-04 (max. bounding sphere) number%=83.887011%
    r_10to50p: d=5.820000e-04 (max. bounding sphere) number%=15.763173%
    r_50to90p: d=2.116400e-03 (max. bounding sphere) number%=0.327808%
    r_90to100p: d=3.280400e-03 (max. bounding sphere) number%=0.022008%
Setting up run at Fri Jan  6 11:53:13 2023

Import and parallelization of mesh cone_mesh containing 868 triangle(s) successful
Import and parallelization of mesh inlet_cyl_wall_mesh containing 1064 triangle(s) successful
Import and parallelization of mesh top_cyl_wall_mesh containing 682 triangle(s) successful
Import and parallelization of mesh bot_cyl_wall_mesh containing 1280 triangle(s) successful
Import and parallelization of mesh bot_disk_wall_mesh containing 1682 triangle(s) successful
Import and parallelization of mesh top_disk_wall_mesh containing 1144 triangle(s) successful
Memory usage per processor = 954.231 Mbytes
    Step    Atoms         KinEng            CPU 
       0        0              0              0 
Loop time of 6.77338e-05 on 40 procs for 0 steps with 0 atoms, finish time Fri Jan  6 11:53:14 2023


Pair  time (%) = 0 (0)
Neigh time (%) = 0 (0)
Comm  time (%) = 0 (0)
Outpt time (%) = 0 (0)
Other time (%) = 6.77338e-05 (100)

Nlocal:    0 ave 0 max 0 min
Histogram: 40 0 0 0 0 0 0 0 0 0
Nghost:    0 ave 0 max 0 min
Histogram: 40 0 0 0 0 0 0 0 0 0
Neighs:    0 ave 0 max 0 min
Histogram: 40 0 0 0 0 0 0 0 0 0

Total # of neighbors = 0
Neighbor list builds = 0
Dangerous builds = 0
Setting up run at Fri Jan  6 11:53:14 2023

Memory usage per processor = 954.231 Mbytes
    Step    Atoms         KinEng            CPU 
       0        0              0              0 
       1        0              0    0.009740576 
Loop time of 0.00975193 on 40 procs for 1 steps with 0 atoms, finish time Fri Jan  6 11:53:14 2023


Pair  time (%) = 2.86637e-06 (0.0293929)
Neigh time (%) = 0 (0)
Comm  time (%) = 0.000231631 (2.37523)
Outpt time (%) = 0.000107985 (1.10732)
Other time (%) = 0.00940945 (96.4881)

Nlocal:    0 ave 0 max 0 min
Histogram: 40 0 0 0 0 0 0 0 0 0
Nghost:    0 ave 0 max 0 min
Histogram: 40 0 0 0 0 0 0 0 0 0
Neighs:    0 ave 0 max 0 min
Histogram: 40 0 0 0 0 0 0 0 0 0

Total # of neighbors = 0
Neighbor list builds = 0
Dangerous builds = 0
Scanning dump file ...
Reading snapshot from dump file ...
  orthogonal box = (-0.15 -0.15 -0.15) to (0.15 0.15 0.15)
  0 atoms before read
  305 atoms in snapshot
  0 atoms purged
  0 atoms replaced
  0 atoms trimmed
  305 atoms added
  305 atoms after read
Setting atom values ...
  305 settings made for type
  305 settings made for density
  305 settings made for vy
Setting up run at Fri Jan  6 11:53:14 2023

Memory usage per processor = 958.583 Mbytes
    Step    Atoms         KinEng            CPU 
       1      305  2.0462467e-07              0 
       2      305  2.4125357e-07    0.009186237 
Loop time of 0.00919813 on 40 procs for 1 steps with 305 atoms, finish time Fri Jan  6 11:53:14 2023


Pair  time (%) = 2.3996e-06 (0.0260879)
Neigh time (%) = 0 (0)
Comm  time (%) = 4.7868e-06 (0.052041)
Outpt time (%) = 0.000139952 (1.52152)
Other time (%) = 0.00905099 (98.4003)

Nlocal:    7.625 ave 134 max 0 min
Histogram: 36 2 0 0 0 0 0 0 0 2
Nghost:    5.125 ave 59 max 0 min
Histogram: 36 0 0 0 0 0 0 2 0 2
Neighs:    2.375 ave 54 max 0 min
Histogram: 37 1 0 0 0 1 0 0 0 1

Total # of neighbors = 95
Ave neighs/atom = 0.311475
Neighbor list builds = 0
Dangerous builds = 0
Setting up run at Fri Jan  6 11:53:14 2023

Memory usage per processor = 958.583 Mbytes
    Step    Atoms         KinEng            CPU 
       2      305  2.4125357e-07              0 
  123458      305  6.0816412e-05      1208.5579 
Loop time of 1208.56 on 40 procs for 123456 steps with 305 atoms, finish time Fri Jan  6 12:13:22 2023


Pair  time (%) = 0.246321 (0.0203814)
Neigh time (%) = 0.0577911 (0.00478182)
Comm  time (%) = 0.432214 (0.0357628)
Outpt time (%) = 0.000218391 (1.80704e-05)
Other time (%) = 1207.82 (99.9391)

Nlocal:    7.625 ave 136 max 0 min
Histogram: 36 2 0 0 0 0 0 0 1 1
Nghost:    5.15 ave 59 max 0 min
Histogram: 36 0 0 0 0 0 0 2 0 2
Neighs:    2.5 ave 57 max 0 min
Histogram: 36 2 0 0 1 0 0 0 0 1

Total # of neighbors = 100
Ave neighs/atom = 0.327869
Neighbor list builds = 330
Dangerous builds = 0
Setting up run at Fri Jan  6 12:13:22 2023

Memory usage per processor = 958.583 Mbytes
    Step    Atoms         KinEng            CPU 
  123458      305  6.0816412e-05              0 
  246914      305  4.3842796e-05      1212.2904 
Loop time of 1212.29 on 40 procs for 123456 steps with 305 atoms, finish time Fri Jan  6 12:33:35 2023


Pair  time (%) = 0.251356 (0.020734)
Neigh time (%) = 0.0583881 (0.00481634)
Comm  time (%) = 0.465083 (0.038364)
Outpt time (%) = 0.000234629 (1.93542e-05)
Other time (%) = 1211.52 (99.9361)

Nlocal:    7.625 ave 138 max 0 min
Histogram: 36 2 0 0 0 0 0 0 1 1
Nghost:    5.125 ave 56 max 0 min
Histogram: 36 0 0 0 0 0 0 0 2 2
Neighs:    2.475 ave 57 max 0 min
Histogram: 36 2 0 0 1 0 0 0 0 1

Total # of neighbors = 99
Ave neighs/atom = 0.32459
Neighbor list builds = 330
Dangerous builds = 0
Setting up run at Fri Jan  6 12:33:35 2023

Memory usage per processor = 958.583 Mbytes
    Step    Atoms         KinEng            CPU 
  246914      305  4.3842796e-05              0 
  370370      305  0.00038250452      1211.4072 
Loop time of 1211.41 on 40 procs for 123456 steps with 305 atoms, finish time Fri Jan  6 12:53:46 2023


Pair  time (%) = 0.248137 (0.0204834)
Neigh time (%) = 0.0584494 (0.00482492)
Comm  time (%) = 0.42568 (0.0351393)
Outpt time (%) = 0.000201842 (1.66618e-05)
Other time (%) = 1210.67 (99.9395)

Nlocal:    7.625 ave 134 max 0 min
Histogram: 36 0 2 0 0 0 0 0 1 1
Nghost:    5.025 ave 61 max 0 min
Histogram: 36 0 0 0 0 0 0 2 1 1
Neighs:    2.475 ave 57 max 0 min
Histogram: 36 2 0 0 1 0 0 0 0 1

Total # of neighbors = 99
Ave neighs/atom = 0.32459
Neighbor list builds = 330
Dangerous builds = 0
Setting up run at Fri Jan  6 12:53:46 2023

Memory usage per processor = 958.583 Mbytes
    Step    Atoms         KinEng            CPU 
  370370      305  0.00038250452              0 
  493826      305   0.0002185812      1234.3519 
Loop time of 1234.35 on 40 procs for 123456 steps with 305 atoms, finish time Fri Jan  6 13:14:21 2023


Pair  time (%) = 0.246194 (0.0199452)
Neigh time (%) = 0.0581197 (0.00470852)
Comm  time (%) = 0.444923 (0.036045)
Outpt time (%) = 0.0154874 (0.0012547)
Other time (%) = 1233.59 (99.938)

Nlocal:    7.625 ave 134 max 0 min
Histogram: 36 0 2 0 0 0 0 0 1 1
Nghost:    5.025 ave 59 max 0 min
Histogram: 36 0 0 0 0 0 0 2 0 2
Neighs:    2.425 ave 54 max 0 min
Histogram: 36 1 1 0 1 0 0 0 0 1

Total # of neighbors = 97
Ave neighs/atom = 0.318033
Neighbor list builds = 330
Dangerous builds = 0
Setting up run at Fri Jan  6 13:14:21 2023

Memory usage per processor = 958.583 Mbytes
    Step    Atoms         KinEng            CPU 
  493826      305   0.0002185812              0 
  617282      305   0.0022753774      1246.5249 
Loop time of 1246.52 on 40 procs for 123456 steps with 305 atoms, finish time Fri Jan  6 13:35:07 2023


Pair  time (%) = 0.249331 (0.0200021)
Neigh time (%) = 0.06609 (0.00530194)
Comm  time (%) = 0.505745 (0.0405724)
Outpt time (%) = 0.000597123 (4.7903e-05)
Other time (%) = 1245.7 (99.9341)

Nlocal:    7.625 ave 134 max 0 min
Histogram: 36 0 2 0 0 0 0 1 0 1
Nghost:    4.95 ave 59 max 0 min
Histogram: 36 0 0 0 0 0 1 1 0 2
Neighs:    2.5 ave 55 max 0 min
Histogram: 36 1 1 0 1 0 0 0 0 1

Total # of neighbors = 100
Ave neighs/atom = 0.327869
Neighbor list builds = 371
Dangerous builds = 0
Setting up run at Fri Jan  6 13:35:07 2023

Memory usage per processor = 958.583 Mbytes
    Step    Atoms         KinEng            CPU 
  617282      305   0.0022753774              0 
  740738      304   0.0010040148      1284.1104 
Loop time of 1284.11 on 40 procs for 123456 steps with 304 atoms, finish time Fri Jan  6 13:56:31 2023


Pair  time (%) = 0.247396 (0.0192659)
Neigh time (%) = 0.0777357 (0.00605366)
Comm  time (%) = 0.485018 (0.0377707)
Outpt time (%) = 0.000315327 (2.4556e-05)
Other time (%) = 1283.3 (99.9369)

Nlocal:    7.6 ave 133 max 0 min
Histogram: 36 0 2 0 0 0 0 1 0 1
Nghost:    4.975 ave 58 max 0 min
Histogram: 36 0 0 0 0 0 1 1 0 2
Neighs:    2.4 ave 54 max 0 min
Histogram: 36 1 1 0 1 0 0 0 0 1

Total # of neighbors = 96
Ave neighs/atom = 0.315789
Neighbor list builds = 442
Dangerous builds = 5
Setting up run at Fri Jan  6 13:56:31 2023

Memory usage per processor = 958.583 Mbytes
    Step    Atoms         KinEng            CPU 
  740738      304   0.0010040148              0 
  864194      302   0.0069718369      1493.8336 
Loop time of 1493.83 on 40 procs for 123456 steps with 302 atoms, finish time Fri Jan  6 14:21:25 2023


Pair  time (%) = 0.246667 (0.0165124)
Neigh time (%) = 0.305739 (0.0204667)
Comm  time (%) = 0.85431 (0.0571891)
Outpt time (%) = 0.000548809 (3.67383e-05)
Other time (%) = 1492.43 (99.9058)

Nlocal:    7.55 ave 131 max 0 min
Histogram: 36 0 2 0 0 0 0 1 0 1
Nghost:    5.15 ave 60 max 0 min
Histogram: 36 0 0 0 0 0 1 1 0 2
Neighs:    2.325 ave 51 max 0 min
Histogram: 36 1 1 0 1 0 0 0 0 1

Total # of neighbors = 93
Ave neighs/atom = 0.307947
Neighbor list builds = 1729
Dangerous builds = 2
Setting up run at Fri Jan  6 14:21:25 2023

Memory usage per processor = 958.583 Mbytes
    Step    Atoms         KinEng            CPU 
  864194      302   0.0069718369              0 
  987650      299    0.020434821      1451.1265 
Loop time of 1451.13 on 40 procs for 123456 steps with 299 atoms, finish time Fri Jan  6 14:45:36 2023


Pair  time (%) = 0.246823 (0.017009)
Neigh time (%) = 0.208738 (0.0143845)
Comm  time (%) = 0.722646 (0.049799)
Outpt time (%) = 0.000682591 (4.70387e-05)
Other time (%) = 1449.95 (99.9188)

Nlocal:    7.475 ave 120 max 0 min
Histogram: 36 0 2 0 0 0 0 0 0 2
Nghost:    5.475 ave 69 max 0 min
Histogram: 36 0 0 0 0 0 1 1 1 1
Neighs:    2.475 ave 53 max 0 min
Histogram: 36 1 1 0 1 0 0 0 0 1

Total # of neighbors = 99
Ave neighs/atom = 0.331104
Neighbor list builds = 1192
Dangerous builds = 0
Setting up run at Fri Jan  6 14:45:37 2023

Memory usage per processor = 958.583 Mbytes
    Step    Atoms         KinEng            CPU 
  987650      299    0.020434821              0 
 1111106      297    0.023111896      1268.7825 
Loop time of 1268.78 on 40 procs for 123456 steps with 297 atoms, finish time Fri Jan  6 15:06:45 2023


Pair  time (%) = 0.243657 (0.019204)
Neigh time (%) = 0.0954474 (0.00752276)
Comm  time (%) = 0.505733 (0.0398597)
Outpt time (%) = 0.000263959 (2.08041e-05)
Other time (%) = 1267.94 (99.9334)

Nlocal:    7.425 ave 118 max 0 min
Histogram: 36 0 2 0 0 0 0 0 1 1
Nghost:    5.6 ave 65 max 0 min
Histogram: 36 0 0 0 0 0 1 0 1 2
Neighs:    2.5 ave 41 max 0 min
Histogram: 36 0 1 1 0 0 0 0 1 1

Total # of neighbors = 100
Ave neighs/atom = 0.3367
Neighbor list builds = 542
Dangerous builds = 0
Setting up run at Fri Jan  6 15:06:45 2023

Memory usage per processor = 958.583 Mbytes
    Step    Atoms         KinEng            CPU 
 1111106      297    0.023111896              0 
 1234562      295   0.0059205699      1218.6358 
Loop time of 1218.64 on 40 procs for 123456 steps with 295 atoms, finish time Fri Jan  6 15:27:04 2023


Pair  time (%) = 0.25105 (0.0206008)
Neigh time (%) = 0.235805 (0.0193498)
Comm  time (%) = 1.10545 (0.090712)
Outpt time (%) = 0.000268704 (2.20495e-05)
Other time (%) = 1217.05 (99.8693)

Nlocal:    7.375 ave 120 max 0 min
Histogram: 36 0 1 1 0 0 0 0 1 1
Nghost:    5.25 ave 58 max 0 min
Histogram: 36 0 0 0 0 0 0 1 1 2
Neighs:    2.55 ave 42 max 0 min
Histogram: 36 0 1 1 0 0 0 1 0 1

Total # of neighbors = 102
Ave neighs/atom = 0.345763
Neighbor list builds = 1341
Dangerous builds = 1
Setting up run at Fri Jan  6 15:27:04 2023

Memory usage per processor = 958.583 Mbytes
    Step    Atoms         KinEng            CPU 
 1234562      295   0.0059205699              0 
 1358018      294     0.01862608      1214.8223 
Loop time of 1214.82 on 40 procs for 123456 steps with 294 atoms, finish time Fri Jan  6 15:47:19 2023


Pair  time (%) = 0.24808 (0.0204211)
Neigh time (%) = 0.302834 (0.0249282)
Comm  time (%) = 1.18025 (0.0971543)
Outpt time (%) = 0.000540078 (4.44574e-05)
Other time (%) = 1213.09 (99.8575)

Nlocal:    7.35 ave 119 max 0 min
Histogram: 36 0 2 0 0 0 0 1 0 1
Nghost:    5.05 ave 58 max 0 min
Histogram: 36 0 0 0 0 0 0 2 1 1
Neighs:    2.375 ave 39 max 0 min
Histogram: 36 0 1 1 0 0 0 0 1 1

Total # of neighbors = 95
Ave neighs/atom = 0.323129
Neighbor list builds = 1712
Dangerous builds = 6
Setting up run at Fri Jan  6 15:47:19 2023

Memory usage per processor = 958.583 Mbytes
    Step    Atoms         KinEng            CPU 
 1358018      294     0.01862608              0 
 1481474      292      1.8488355      1253.1212 
Loop time of 1253.12 on 40 procs for 123456 steps with 292 atoms, finish time Fri Jan  6 16:08:12 2023


Pair  time (%) = 0.249157 (0.0198829)
Neigh time (%) = 0.314862 (0.0251262)
Comm  time (%) = 1.3051 (0.104148)
Outpt time (%) = 0.000348708 (2.78272e-05)
Other time (%) = 1251.25 (99.8508)

Nlocal:    7.3 ave 113 max 0 min
Histogram: 36 0 1 1 0 0 0 1 0 1
Nghost:    4.975 ave 56 max 0 min
Histogram: 36 0 0 0 0 0 0 1 1 2
Neighs:    2.475 ave 38 max 0 min
Histogram: 36 0 1 1 0 0 0 0 0 2

Total # of neighbors = 99
Ave neighs/atom = 0.339041
Neighbor list builds = 1780
Dangerous builds = 2
Setting up run at Fri Jan  6 16:08:12 2023

Memory usage per processor = 958.583 Mbytes
    Step    Atoms         KinEng            CPU 
 1481474      292      1.8488355              0 
 1604930      289    0.010340512      1309.9747 
Loop time of 1309.98 on 40 procs for 123456 steps with 289 atoms, finish time Fri Jan  6 16:30:02 2023


Pair  time (%) = 0.25251 (0.0192759)
Neigh time (%) = 0.340219 (0.0259714)
Comm  time (%) = 1.36502 (0.104202)
Outpt time (%) = 0.0002179 (1.66339e-05)
Other time (%) = 1308.02 (99.8505)

Nlocal:    7.225 ave 111 max 0 min
Histogram: 36 0 1 1 0 0 0 1 0 1
Nghost:    4.875 ave 54 max 0 min
Histogram: 36 0 0 0 0 0 0 2 0 2
Neighs:    2.375 ave 38 max 0 min
Histogram: 36 0 1 1 0 0 0 0 1 1

Total # of neighbors = 95
Ave neighs/atom = 0.32872
Neighbor list builds = 1927
Dangerous builds = 30
Setting up run at Fri Jan  6 16:30:02 2023

Memory usage per processor = 958.583 Mbytes
    Step    Atoms         KinEng            CPU 
 1604930      289    0.010340512              0 
 1728386      282     0.30060578      1259.4378 
Loop time of 1259.44 on 40 procs for 123456 steps with 282 atoms, finish time Fri Jan  6 16:51:02 2023


Pair  time (%) = 0.252759 (0.0200692)
Neigh time (%) = 0.502412 (0.0398917)
Comm  time (%) = 2.12211 (0.168497)
Outpt time (%) = 0.00056582 (4.49264e-05)
Other time (%) = 1256.56 (99.7715)

Nlocal:    7.05 ave 109 max 0 min
Histogram: 36 0 1 1 0 0 0 1 0 1
Nghost:    4.925 ave 55 max 0 min
Histogram: 36 0 0 0 0 0 0 2 0 2
Neighs:    2.3 ave 33 max 0 min
Histogram: 36 0 1 0 1 0 0 0 0 2

Total # of neighbors = 92
Ave neighs/atom = 0.326241
Neighbor list builds = 2961
Dangerous builds = 55
Setting up run at Fri Jan  6 16:51:02 2023

Memory usage per processor = 958.583 Mbytes
    Step    Atoms         KinEng            CPU 
 1728386      282     0.30060578              0 
 1851842      280     0.40703634      1288.4448 
Loop time of 1288.44 on 40 procs for 123456 steps with 280 atoms, finish time Fri Jan  6 17:12:30 2023


Pair  time (%) = 0.254008 (0.0197143)
Neigh time (%) = 0.655022 (0.0508382)
Comm  time (%) = 2.75574 (0.213881)
Outpt time (%) = 0.00244046 (0.000189411)
Other time (%) = 1284.78 (99.7154)

Nlocal:    7 ave 107 max 0 min
Histogram: 35 1 1 1 0 0 0 1 0 1
Nghost:    4.8 ave 57 max 0 min
Histogram: 36 0 0 0 0 0 1 1 1 1
Neighs:    2.125 ave 31 max 0 min
Histogram: 36 0 1 0 0 1 0 0 0 2

Total # of neighbors = 85
Ave neighs/atom = 0.303571
Neighbor list builds = 3696
Dangerous builds = 0
Setting up run at Fri Jan  6 17:12:30 2023

Memory usage per processor = 958.583 Mbytes
    Step    Atoms         KinEng            CPU 
 1851842      280     0.40703634              0 
 1975298      274     0.52525437      1280.6528 
Loop time of 1280.65 on 40 procs for 123456 steps with 274 atoms, finish time Fri Jan  6 17:33:51 2023


Pair  time (%) = 0.250308 (0.0195454)
Neigh time (%) = 0.667042 (0.0520861)
Comm  time (%) = 2.67341 (0.208753)
Outpt time (%) = 0.000285677 (2.23072e-05)
Other time (%) = 1277.06 (99.7196)

Nlocal:    6.85 ave 105 max 0 min
Histogram: 36 0 0 2 0 0 0 1 0 1
Nghost:    4.6 ave 59 max 0 min
Histogram: 36 0 0 0 0 1 1 0 1 1
Neighs:    1.95 ave 28 max 0 min
Histogram: 36 0 1 0 0 1 0 0 0 2

Total # of neighbors = 78
Ave neighs/atom = 0.284672
Neighbor list builds = 3767
Dangerous builds = 8
Setting up run at Fri Jan  6 17:33:51 2023

Memory usage per processor = 958.583 Mbytes
    Step    Atoms         KinEng            CPU 
 1975298      274     0.52525437              0 
 2098754      270     0.44051445       1260.038 
Loop time of 1260.04 on 40 procs for 123456 steps with 270 atoms, finish time Fri Jan  6 17:54:51 2023


Pair  time (%) = 0.257051 (0.0204003)
Neigh time (%) = 0.696607 (0.0552846)
Comm  time (%) = 1.92653 (0.152895)
Outpt time (%) = 0.000618059 (4.90508e-05)
Other time (%) = 1257.16 (99.7714)

Nlocal:    6.75 ave 103 max 0 min
Histogram: 36 0 0 2 0 0 1 0 0 1
Nghost:    4.7 ave 62 max 0 min
Histogram: 36 0 0 0 0 1 1 1 0 1
Neighs:    2.025 ave 28 max 0 min
Histogram: 36 0 1 0 0 0 0 1 1 1

Total # of neighbors = 81
Ave neighs/atom = 0.3
Neighbor list builds = 3917
Dangerous builds = 4
Setting up run at Fri Jan  6 17:54:51 2023

Memory usage per processor = 958.583 Mbytes
    Step    Atoms         KinEng            CPU 
 2098754      270     0.44051445              0 
 2222210      262     0.49755714      1364.5549 
Loop time of 1364.55 on 40 procs for 123456 steps with 262 atoms, finish time Fri Jan  6 18:17:36 2023


Pair  time (%) = 0.260537 (0.0190932)
Neigh time (%) = 0.812078 (0.0595123)
Comm  time (%) = 2.42417 (0.177653)
Outpt time (%) = 0.000326046 (2.38939e-05)
Other time (%) = 1361.06 (99.7437)

Nlocal:    6.55 ave 98 max 0 min
Histogram: 36 0 0 2 0 0 0 1 0 1
Nghost:    4.675 ave 62 max 0 min
Histogram: 36 0 0 0 0 1 1 1 0 1
Neighs:    2.075 ave 30 max 0 min
Histogram: 36 0 1 0 0 0 1 0 1 1

Total # of neighbors = 83
Ave neighs/atom = 0.316794
Neighbor list builds = 4672
Dangerous builds = 94
Setting up run at Fri Jan  6 18:17:36 2023

Memory usage per processor = 958.583 Mbytes
    Step    Atoms         KinEng            CPU 
 2222210      262     0.49755714              0 
 2345666      257     0.28794288      1243.9808 
Loop time of 1243.98 on 40 procs for 123456 steps with 257 atoms, finish time Fri Jan  6 18:38:20 2023


Pair  time (%) = 0.255446 (0.0205345)
Neigh time (%) = 0.774958 (0.0622966)
Comm  time (%) = 2.60408 (0.209334)
Outpt time (%) = 0.000325914 (2.61993e-05)
Other time (%) = 1240.35 (99.7078)

Nlocal:    6.425 ave 93 max 0 min
Histogram: 36 0 0 0 2 0 0 1 0 1
Nghost:    4.575 ave 59 max 0 min
Histogram: 36 0 0 0 0 1 1 0 1 1
Neighs:    2 ave 28 max 0 min
Histogram: 36 0 0 1 0 0 1 0 1 1

Total # of neighbors = 80
Ave neighs/atom = 0.311284
Neighbor list builds = 4546
Dangerous builds = 317
Setting up run at Fri Jan  6 18:38:20 2023

Memory usage per processor = 958.583 Mbytes
    Step    Atoms         KinEng            CPU 
 2345666      257     0.28794288              0 
 2469122      252     0.39902301      1221.9774 
Loop time of 1221.98 on 40 procs for 123456 steps with 252 atoms, finish time Fri Jan  6 18:58:42 2023


Pair  time (%) = 0.253279 (0.0207269)
Neigh time (%) = 0.709914 (0.0580955)
Comm  time (%) = 2.7936 (0.228613)
Outpt time (%) = 0.0005883 (4.81433e-05)
Other time (%) = 1218.22 (99.6925)

Nlocal:    6.3 ave 92 max 0 min
Histogram: 36 0 0 1 1 0 0 1 0 1
Nghost:    4.45 ave 57 max 0 min
Histogram: 36 0 0 0 0 1 1 0 1 1
Neighs:    1.8 ave 22 max 0 min
Histogram: 36 0 0 0 0 1 0 0 1 2

Total # of neighbors = 72
Ave neighs/atom = 0.285714
Neighbor list builds = 4088
Dangerous builds = 168
Setting up run at Fri Jan  6 18:58:42 2023

Memory usage per processor = 958.583 Mbytes
    Step    Atoms         KinEng            CPU 
 2469122      252     0.39902301              0 
 2592578      251     0.35156655      1216.9297 
Loop time of 1216.93 on 40 procs for 123456 steps with 251 atoms, finish time Fri Jan  6 19:18:59 2023


Pair  time (%) = 0.25047 (0.0205821)
Neigh time (%) = 0.621505 (0.0510716)
Comm  time (%) = 1.71134 (0.140627)
Outpt time (%) = 0.000275741 (2.26587e-05)
Other time (%) = 1214.35 (99.7877)

Nlocal:    6.275 ave 89 max 0 min
Histogram: 36 0 0 1 1 0 0 1 0 1
Nghost:    4.2 ave 56 max 0 min
Histogram: 36 0 0 0 0 2 0 0 1 1
Neighs:    1.675 ave 22 max 0 min
Histogram: 36 0 0 0 0 1 0 2 0 1

Total # of neighbors = 67
Ave neighs/atom = 0.266932
Neighbor list builds = 3420
Dangerous builds = 1
Setting up run at Fri Jan  6 19:18:59 2023

Memory usage per processor = 958.583 Mbytes
    Step    Atoms         KinEng            CPU 
 2592578      251     0.35156655              0 
 2716034      246     0.51175406      1221.8248 
Loop time of 1221.83 on 40 procs for 123456 steps with 246 atoms, finish time Fri Jan  6 19:39:21 2023


Pair  time (%) = 0.252587 (0.020673)
Neigh time (%) = 0.749746 (0.0613628)
Comm  time (%) = 2.03512 (0.166564)
Outpt time (%) = 0.000340498 (2.7868e-05)
Other time (%) = 1218.79 (99.7514)

Nlocal:    6.15 ave 84 max 0 min
Histogram: 36 0 0 0 2 0 0 1 0 1
Nghost:    4.075 ave 50 max 0 min
Histogram: 36 0 0 0 0 0 2 0 0 2
Neighs:    1.65 ave 20 max 0 min
Histogram: 36 0 0 0 0 0 0 2 1 1

Total # of neighbors = 66
Ave neighs/atom = 0.268293
Neighbor list builds = 4185
Dangerous builds = 4
Setting up run at Fri Jan  6 19:39:21 2023

Memory usage per processor = 958.583 Mbytes
    Step    Atoms         KinEng            CPU 
 2716034      246     0.51175406              0 
 2839490      241     0.53107593      1214.0991 
Loop time of 1214.1 on 40 procs for 123456 steps with 241 atoms, finish time Fri Jan  6 19:59:35 2023


Pair  time (%) = 0.249931 (0.0205857)
Neigh time (%) = 0.731483 (0.060249)
Comm  time (%) = 1.90022 (0.156513)
Outpt time (%) = 0.000565992 (4.66183e-05)
Other time (%) = 1211.22 (99.7626)

Nlocal:    6.025 ave 79 max 0 min
Histogram: 36 0 0 0 1 1 0 0 1 1
Nghost:    3.925 ave 51 max 0 min
Histogram: 36 0 0 0 0 2 0 0 0 2
Neighs:    1.425 ave 17 max 0 min
Histogram: 36 0 0 0 0 1 0 1 0 2

Total # of neighbors = 57
Ave neighs/atom = 0.236515
Neighbor list builds = 3999
Dangerous builds = 2
Setting up run at Fri Jan  6 19:59:35 2023

Memory usage per processor = 958.583 Mbytes
    Step    Atoms         KinEng            CPU 
 2839490      241     0.53107593              0 
 2962946      237      1.3027948       1226.304 
Loop time of 1226.3 on 40 procs for 123456 steps with 237 atoms, finish time Fri Jan  6 20:20:01 2023


Pair  time (%) = 0.25362 (0.0206816)
Neigh time (%) = 0.921444 (0.0751399)
Comm  time (%) = 2.12894 (0.173606)
Outpt time (%) = 0.000271356 (2.21279e-05)
Other time (%) = 1223 (99.7305)

Nlocal:    5.925 ave 79 max 0 min
Histogram: 36 0 0 1 1 0 0 0 1 1
Nghost:    3.85 ave 48 max 0 min
Histogram: 36 0 0 0 0 1 1 0 0 2
Neighs:    1.2 ave 18 max 0 min
Histogram: 36 0 0 0 1 1 0 1 0 1

Total # of neighbors = 48
Ave neighs/atom = 0.202532
Neighbor list builds = 5059
Dangerous builds = 44
Setting up run at Fri Jan  6 20:20:01 2023

Memory usage per processor = 958.583 Mbytes
    Step    Atoms         KinEng            CPU 
 2962946      237      1.3027948              0 
 3086402      233     0.89411648      1223.4638 
Loop time of 1223.46 on 40 procs for 123456 steps with 233 atoms, finish time Fri Jan  6 20:40:25 2023


Pair  time (%) = 0.251931 (0.0205916)
Neigh time (%) = 0.997158 (0.0815029)
Comm  time (%) = 2.42677 (0.198352)
Outpt time (%) = 0.000275934 (2.25535e-05)
Other time (%) = 1219.79 (99.6995)

Nlocal:    5.825 ave 79 max 0 min
Histogram: 36 0 0 0 1 1 0 0 1 1
Nghost:    3.875 ave 50 max 0 min
Histogram: 36 0 0 0 0 2 0 0 1 1
Neighs:    1.2 ave 22 max 0 min
Histogram: 36 0 0 1 2 0 0 0 0 1

Total # of neighbors = 48
Ave neighs/atom = 0.206009
Neighbor list builds = 5599
Dangerous builds = 192
Setting up run at Fri Jan  6 20:40:25 2023

Memory usage per processor = 958.583 Mbytes
    Step    Atoms         KinEng            CPU 
 3086402      233     0.89411648              0 
 3209858      232     0.76451805      1225.8662 
Loop time of 1225.87 on 40 procs for 123456 steps with 232 atoms, finish time Fri Jan  6 21:00:51 2023


Pair  time (%) = 0.246921 (0.0201425)
Neigh time (%) = 0.742817 (0.0605952)
Comm  time (%) = 1.73414 (0.141463)
Outpt time (%) = 0.000600955 (4.90229e-05)
Other time (%) = 1223.14 (99.7778)

Nlocal:    5.8 ave 80 max 0 min
Histogram: 36 0 0 0 2 0 0 0 1 1
Nghost:    3.625 ave 43 max 0 min
Histogram: 36 0 0 0 0 0 2 0 0 2
Neighs:    1.15 ave 23 max 0 min
Histogram: 36 0 1 1 1 0 0 0 0 1

Total # of neighbors = 46
Ave neighs/atom = 0.198276
Neighbor list builds = 4046
Dangerous builds = 0
Setting up run at Fri Jan  6 21:00:51 2023

Memory usage per processor = 958.583 Mbytes
    Step    Atoms         KinEng            CPU 
 3209858      232     0.76451805              0 
 3333314      228     0.68222495      1274.2897 
Loop time of 1274.29 on 40 procs for 123456 steps with 228 atoms, finish time Fri Jan  6 21:22:05 2023


Pair  time (%) = 0.243591 (0.0191158)
Neigh time (%) = 0.649456 (0.0509661)
Comm  time (%) = 1.61072 (0.126401)
Outpt time (%) = 0.000289744 (2.27377e-05)
Other time (%) = 1271.79 (99.8035)

Nlocal:    5.7 ave 79 max 0 min
Histogram: 36 0 0 1 1 0 0 0 1 1
Nghost:    3.45 ave 43 max 0 min
Histogram: 36 0 0 0 0 0 2 0 0 2
Neighs:    1.15 ave 21 max 0 min
Histogram: 36 0 1 1 0 1 0 0 0 1

Total # of neighbors = 46
Ave neighs/atom = 0.201754
Neighbor list builds = 3567
Dangerous builds = 29
Setting up run at Fri Jan  6 21:22:05 2023

Memory usage per processor = 958.583 Mbytes
    Step    Atoms         KinEng            CPU 
 3333314      228     0.68222495              0 
 3456770      222     0.58904677      1405.8281 
Loop time of 1405.83 on 40 procs for 123456 steps with 222 atoms, finish time Fri Jan  6 21:45:31 2023


Pair  time (%) = 0.246839 (0.0175583)
Neigh time (%) = 0.878419 (0.0624841)
Comm  time (%) = 2.12699 (0.151298)
Outpt time (%) = 0.000307039 (2.18404e-05)
Other time (%) = 1402.58 (99.7686)

Nlocal:    5.55 ave 77 max 0 min
Histogram: 36 0 0 0 2 0 0 0 1 1
Nghost:    3.375 ave 44 max 0 min
Histogram: 36 0 0 0 0 1 1 0 1 1
Neighs:    1.175 ave 24 max 0 min
Histogram: 36 0 1 1 1 0 0 0 0 1

Total # of neighbors = 47
Ave neighs/atom = 0.211712
Neighbor list builds = 4939
Dangerous builds = 153
Setting up run at Fri Jan  6 21:45:31 2023

Memory usage per processor = 958.583 Mbytes
    Step    Atoms         KinEng            CPU 
 3456770      222     0.58904677              0 
 3580226      219     0.38291992      1241.7517 
Loop time of 1241.75 on 40 procs for 123456 steps with 219 atoms, finish time Fri Jan  6 22:06:13 2023


Pair  time (%) = 0.242407 (0.0195214)
Neigh time (%) = 0.747368 (0.0601866)
Comm  time (%) = 1.72701 (0.139079)
Outpt time (%) = 0.000597445 (4.81131e-05)
Other time (%) = 1239.03 (99.7812)

Nlocal:    5.475 ave 75 max 0 min
Histogram: 36 0 0 1 1 0 0 0 1 1
Nghost:    3.475 ave 44 max 0 min
Histogram: 36 0 0 0 0 1 1 0 1 1
Neighs:    1.125 ave 25 max 0 min
Histogram: 36 1 1 1 0 0 0 0 0 1

Total # of neighbors = 45
Ave neighs/atom = 0.205479
Neighbor list builds = 4144
Dangerous builds = 111
Setting up run at Fri Jan  6 22:06:13 2023

Memory usage per processor = 958.583 Mbytes
    Step    Atoms         KinEng            CPU 
 3580226      219     0.38291992              0 
 3703682      218     0.47290667      1287.6364 
Loop time of 1287.64 on 40 procs for 123456 steps with 218 atoms, finish time Fri Jan  6 22:27:41 2023


Pair  time (%) = 0.240818 (0.0187023)
Neigh time (%) = 0.628426 (0.0488046)
Comm  time (%) = 1.5357 (0.119265)
Outpt time (%) = 0.000327686 (2.54487e-05)
Other time (%) = 1285.23 (99.8132)

Nlocal:    5.45 ave 74 max 0 min
Histogram: 36 0 0 1 0 1 0 0 1 1
Nghost:    3.725 ave 49 max 0 min
Histogram: 36 0 0 0 0 1 1 0 1 1
Neighs:    1.35 ave 30 max 0 min
Histogram: 36 0 2 1 0 0 0 0 0 1

Total # of neighbors = 54
Ave neighs/atom = 0.247706
Neighbor list builds = 3483
Dangerous builds = 1
Setting up run at Fri Jan  6 22:27:41 2023

Memory usage per processor = 958.583 Mbytes
    Step    Atoms         KinEng            CPU 
 3703682      218     0.47290667              0 
 3827138      214     0.34639599      1273.9062 
Loop time of 1273.91 on 40 procs for 123456 steps with 214 atoms, finish time Fri Jan  6 22:48:55 2023


Pair  time (%) = 0.243753 (0.0191343)
Neigh time (%) = 0.755738 (0.0593244)
Comm  time (%) = 1.95954 (0.153821)
Outpt time (%) = 0.00241735 (0.000189759)
Other time (%) = 1270.95 (99.7675)

Nlocal:    5.35 ave 71 max 0 min
Histogram: 35 1 0 0 2 0 0 0 0 2
Nghost:    3.65 ave 47 max 0 min
Histogram: 36 0 0 0 0 1 1 0 1 1
Neighs:    1.3 ave 27 max 0 min
Histogram: 36 0 1 2 0 0 0 0 0 1

Total # of neighbors = 52
Ave neighs/atom = 0.242991
Neighbor list builds = 4493
Dangerous builds = 716
Setting up run at Fri Jan  6 22:48:55 2023

Memory usage per processor = 958.583 Mbytes
    Step    Atoms         KinEng            CPU 
 3827138      214     0.34639599              0 
 3950594      210     0.63932437      1223.8346 
Loop time of 1223.83 on 40 procs for 123456 steps with 210 atoms, finish time Fri Jan  6 23:09:19 2023


Pair  time (%) = 0.245027 (0.0200213)
Neigh time (%) = 0.759585 (0.062066)
Comm  time (%) = 1.69418 (0.138432)
Outpt time (%) = 0.00065247 (5.33136e-05)
Other time (%) = 1221.14 (99.7794)

Nlocal:    5.25 ave 68 max 0 min
Histogram: 36 0 0 0 2 0 0 0 0 2
Nghost:    3.45 ave 44 max 0 min
Histogram: 36 0 0 0 0 1 1 0 1 1
Neighs:    1.225 ave 26 max 0 min
Histogram: 36 0 2 1 0 0 0 0 0 1

Total # of neighbors = 49
Ave neighs/atom = 0.233333
Neighbor list builds = 4286
Dangerous builds = 269
Setting up run at Fri Jan  6 23:09:19 2023

Memory usage per processor = 958.583 Mbytes
    Step    Atoms         KinEng            CPU 
 3950594      210     0.63932437              0 
 4074050      208     0.59371428      1215.2722 
Loop time of 1215.27 on 40 procs for 123456 steps with 208 atoms, finish time Fri Jan  6 23:29:34 2023


Pair  time (%) = 0.243249 (0.020016)
Neigh time (%) = 0.600665 (0.0494264)
Comm  time (%) = 1.46131 (0.120246)
Outpt time (%) = 3.74474e-05 (3.0814e-06)
Other time (%) = 1212.97 (99.8103)

Nlocal:    5.2 ave 68 max 0 min
Histogram: 36 0 0 1 1 0 0 0 0 2
Nghost:    3.5 ave 41 max 0 min
Histogram: 36 0 0 0 0 1 0 0 1 2
Neighs:    1.325 ave 25 max 0 min
Histogram: 36 0 0 2 1 0 0 0 0 1

Total # of neighbors = 53
Ave neighs/atom = 0.254808
Neighbor list builds = 3291
Dangerous builds = 2
Setting up run at Fri Jan  6 23:29:34 2023

Memory usage per processor = 958.583 Mbytes
    Step    Atoms         KinEng            CPU 
 4074050      208     0.59371428              0 
 4197506      207     0.65386599      1212.6053 
Loop time of 1212.61 on 40 procs for 123456 steps with 207 atoms, finish time Fri Jan  6 23:49:47 2023


Pair  time (%) = 0.241979 (0.0199553)
Neigh time (%) = 0.692731 (0.0571275)
Comm  time (%) = 1.5929 (0.131362)
Outpt time (%) = 0.00025947 (2.13977e-05)
Other time (%) = 1210.08 (99.7915)

Nlocal:    5.175 ave 65 max 0 min
Histogram: 35 1 0 0 1 1 0 0 0 2
Nghost:    3.275 ave 39 max 0 min
Histogram: 36 0 0 0 0 1 0 1 0 2
Neighs:    1.375 ave 23 max 0 min
Histogram: 36 0 0 0 2 1 0 0 0 1

Total # of neighbors = 55
Ave neighs/atom = 0.2657
Neighbor list builds = 3796
Dangerous builds = 1
Setting up run at Fri Jan  6 23:49:47 2023

Memory usage per processor = 958.583 Mbytes
    Step    Atoms         KinEng            CPU 
 4197506      207     0.65386599              0 
 4320962      205     0.54075613      1217.6259 
Loop time of 1217.63 on 40 procs for 123456 steps with 205 atoms, finish time Sat Jan  7 00:10:04 2023


Pair  time (%) = 0.240595 (0.0197593)
Neigh time (%) = 0.629058 (0.0516626)
Comm  time (%) = 1.78403 (0.146517)
Outpt time (%) = 0.000563421 (4.62721e-05)
Other time (%) = 1214.97 (99.782)

Nlocal:    5.125 ave 65 max 0 min
Histogram: 35 1 0 0 2 0 0 0 0 2
Nghost:    3.275 ave 38 max 0 min
Histogram: 36 0 0 0 0 1 0 0 1 2
Neighs:    1.225 ave 23 max 0 min
Histogram: 36 0 1 0 2 0 0 0 0 1

Total # of neighbors = 49
Ave neighs/atom = 0.239024
Neighbor list builds = 3467
Dangerous builds = 2
Setting up run at Sat Jan  7 00:10:04 2023

Memory usage per processor = 958.583 Mbytes
    Step    Atoms         KinEng            CPU 
 4320962      205     0.54075613              0 
 4444418      204     0.77523872      1227.9739 
Loop time of 1227.97 on 40 procs for 123456 steps with 204 atoms, finish time Sat Jan  7 00:30:32 2023


Pair  time (%) = 0.243421 (0.019823)
Neigh time (%) = 0.735828 (0.0599221)
Comm  time (%) = 1.81076 (0.147459)
Outpt time (%) = 0.000264243 (2.15186e-05)
Other time (%) = 1225.18 (99.7728)

Nlocal:    5.1 ave 64 max 0 min
Histogram: 34 2 0 1 1 0 0 0 0 2
Nghost:    3.225 ave 38 max 0 min
Histogram: 36 0 0 0 0 1 0 0 1 2
Neighs:    1.275 ave 21 max 0 min
Histogram: 36 0 1 0 0 2 0 0 0 1

Total # of neighbors = 51
Ave neighs/atom = 0.25
Neighbor list builds = 4012
Dangerous builds = 1
Setting up run at Sat Jan  7 00:30:32 2023

Memory usage per processor = 958.583 Mbytes
    Step    Atoms         KinEng            CPU 
 4444418      204     0.77523872              0 
 4567874      196       0.671568      1232.7511 
Loop time of 1232.75 on 40 procs for 123456 steps with 196 atoms, finish time Sat Jan  7 00:51:05 2023


Pair  time (%) = 0.247471 (0.0200747)
Neigh time (%) = 0.87138 (0.0706858)
Comm  time (%) = 2.04474 (0.165868)
Outpt time (%) = 0.000294624 (2.38997e-05)
Other time (%) = 1229.59 (99.7433)

Nlocal:    4.9 ave 66 max 0 min
Histogram: 36 0 0 1 1 0 0 0 0 2
Nghost:    3.275 ave 39 max 0 min
Histogram: 36 0 0 0 0 1 0 1 0 2
Neighs:    1.1 ave 19 max 0 min
Histogram: 36 0 1 0 0 2 0 0 0 1

Total # of neighbors = 44
Ave neighs/atom = 0.22449
Neighbor list builds = 4891
Dangerous builds = 132
Setting up run at Sat Jan  7 00:51:05 2023

Memory usage per processor = 958.583 Mbytes
    Step    Atoms         KinEng            CPU 
 4567874      196       0.671568              0 
 4691330      192      1.9130235      1213.1831 
Loop time of 1213.18 on 40 procs for 123456 steps with 192 atoms, finish time Sat Jan  7 01:11:18 2023


Pair  time (%) = 0.239813 (0.0197673)
Neigh time (%) = 0.670339 (0.0552546)
Comm  time (%) = 1.75181 (0.144398)
Outpt time (%) = 0.000598643 (4.93448e-05)
Other time (%) = 1210.52 (99.7805)

Nlocal:    4.8 ave 65 max 0 min
Histogram: 36 0 0 1 1 0 0 0 0 2
Nghost:    3.175 ave 38 max 0 min
Histogram: 36 0 0 0 0 1 0 1 0 2
Neighs:    1.1 ave 20 max 0 min
Histogram: 36 0 1 0 1 1 0 0 0 1

Total # of neighbors = 44
Ave neighs/atom = 0.229167
Neighbor list builds = 3694
Dangerous builds = 4
Setting up run at Sat Jan  7 01:11:18 2023

Memory usage per processor = 958.583 Mbytes
    Step    Atoms         KinEng            CPU 
 4691330      192      1.9130235              0 
 4814786      190     0.60501052      1219.4559 
Loop time of 1219.46 on 40 procs for 123456 steps with 190 atoms, finish time Sat Jan  7 01:31:38 2023


Pair  time (%) = 0.240165 (0.0196945)
Neigh time (%) = 0.659655 (0.0540942)
Comm  time (%) = 1.70025 (0.139427)
Outpt time (%) = 0.000373007 (3.0588e-05)
Other time (%) = 1216.86 (99.7868)

Nlocal:    4.75 ave 64 max 0 min
Histogram: 35 1 0 1 1 0 0 0 1 1
Nghost:    3.2 ave 39 max 0 min
Histogram: 36 0 0 0 0 1 0 1 1 1
Neighs:    0.975 ave 19 max 0 min
Histogram: 36 0 1 0 2 0 0 0 0 1

Total # of neighbors = 39
Ave neighs/atom = 0.205263
Neighbor list builds = 3766
Dangerous builds = 317
Setting up run at Sat Jan  7 01:31:38 2023

Memory usage per processor = 958.583 Mbytes
    Step    Atoms         KinEng            CPU 
 4814786      190     0.60501052              0 
 4938242      185     0.65612271      1214.3868 
Loop time of 1214.39 on 40 procs for 123456 steps with 185 atoms, finish time Sat Jan  7 01:51:52 2023


Pair  time (%) = 0.239343 (0.0197089)
Neigh time (%) = 0.575072 (0.0473549)
Comm  time (%) = 1.73113 (0.142552)
Outpt time (%) = 0.000339278 (2.79382e-05)
Other time (%) = 1211.84 (99.7904)

Nlocal:    4.625 ave 61 max 0 min
Histogram: 36 0 0 1 1 0 0 0 0 2
Nghost:    3.1 ave 36 max 0 min
Histogram: 36 0 0 0 0 1 0 0 1 2
Neighs:    0.975 ave 17 max 0 min
Histogram: 36 0 1 0 1 1 0 0 0 1

Total # of neighbors = 39
Ave neighs/atom = 0.210811
Neighbor list builds = 3255
Dangerous builds = 195
Setting up run at Sat Jan  7 01:51:52 2023

Memory usage per processor = 958.583 Mbytes
    Step    Atoms         KinEng            CPU 
 4938242      185     0.65612271              0 
 5061698      184     0.54627079      1218.2888 
Loop time of 1218.29 on 40 procs for 123456 steps with 184 atoms, finish time Sat Jan  7 02:12:11 2023


Pair  time (%) = 0.239273 (0.0196401)
Neigh time (%) = 0.549021 (0.0450649)
Comm  time (%) = 1.57667 (0.129417)
Outpt time (%) = 0.000289649 (2.37751e-05)
Other time (%) = 1215.92 (99.8059)

Nlocal:    4.6 ave 60 max 0 min
Histogram: 36 0 0 1 0 1 0 0 0 2
Nghost:    2.85 ave 34 max 0 min
Histogram: 36 0 0 0 0 0 1 1 0 2
Neighs:    0.8 ave 14 max 0 min
Histogram: 36 0 1 0 0 2 0 0 0 1

Total # of neighbors = 32
Ave neighs/atom = 0.173913
Neighbor list builds = 3013
Dangerous builds = 1
Setting up run at Sat Jan  7 02:12:11 2023

Memory usage per processor = 958.583 Mbytes
    Step    Atoms         KinEng            CPU 
 5061698      184     0.54627079              0 
 5185154      178     0.43036061      1228.4078 
Loop time of 1228.41 on 40 procs for 123456 steps with 178 atoms, finish time Sat Jan  7 02:32:39 2023


Pair  time (%) = 0.240186 (0.0195526)
Neigh time (%) = 0.70166 (0.0571194)
Comm  time (%) = 1.77056 (0.144134)
Outpt time (%) = 0.000685627 (5.58143e-05)
Other time (%) = 1225.69 (99.7791)

Nlocal:    4.45 ave 61 max 0 min
Histogram: 36 0 0 1 1 0 0 0 1 1
Nghost:    2.85 ave 33 max 0 min
Histogram: 36 0 0 0 0 0 1 1 0 2
Neighs:    0.775 ave 13 max 0 min
Histogram: 36 0 0 1 1 0 1 0 0 1

Total # of neighbors = 31
Ave neighs/atom = 0.174157
Neighbor list builds = 3929
Dangerous builds = 4
Setting up run at Sat Jan  7 02:32:39 2023

Memory usage per processor = 958.583 Mbytes
    Step    Atoms         KinEng            CPU 
 5185154      178     0.43036061              0 
 5308610      177      1.3963057       1220.493 
Loop time of 1220.49 on 40 procs for 123456 steps with 177 atoms, finish time Sat Jan  7 02:53:00 2023


Pair  time (%) = 0.238245 (0.0195204)
Neigh time (%) = 0.634927 (0.0520222)
Comm  time (%) = 1.64005 (0.134376)
Outpt time (%) = 0.000346703 (2.84068e-05)
Other time (%) = 1217.98 (99.7941)

Nlocal:    4.425 ave 62 max 0 min
Histogram: 36 0 0 2 0 0 0 0 1 1
Nghost:    3 ave 33 max 0 min
Histogram: 36 0 0 0 0 0 0 1 1 2
Neighs:    0.75 ave 12 max 0 min
Histogram: 36 0 0 1 0 1 1 0 0 1

Total # of neighbors = 30
Ave neighs/atom = 0.169492
Neighbor list builds = 3493
Dangerous builds = 1
Setting up run at Sat Jan  7 02:53:00 2023

Memory usage per processor = 958.583 Mbytes
    Step    Atoms         KinEng            CPU 
 5308610      177      1.3963057              0 
 5432066      174     0.26044047      1218.3107 
Loop time of 1218.31 on 40 procs for 123456 steps with 174 atoms, finish time Sat Jan  7 03:13:18 2023


Pair  time (%) = 0.238107 (0.019544)
Neigh time (%) = 0.560308 (0.0459906)
Comm  time (%) = 1.50099 (0.123203)
Outpt time (%) = 0.000283253 (2.32496e-05)
Other time (%) = 1216.01 (99.8112)

Nlocal:    4.35 ave 61 max 0 min
Histogram: 36 0 1 1 0 0 0 0 1 1
Nghost:    2.825 ave 34 max 0 min
Histogram: 36 0 0 0 0 0 1 1 1 1
Neighs:    0.75 ave 12 max 0 min
Histogram: 36 0 0 1 0 2 0 0 0 1

Total # of neighbors = 30
Ave neighs/atom = 0.172414
Neighbor list builds = 3290
Dangerous builds = 482
Setting up run at Sat Jan  7 03:13:18 2023

Memory usage per processor = 958.583 Mbytes
    Step    Atoms         KinEng            CPU 
 5432066      174     0.26044047              0 
 5555522      167     0.33899226      1220.4478 
Loop time of 1220.45 on 40 procs for 123456 steps with 167 atoms, finish time Sat Jan  7 03:33:39 2023


Pair  time (%) = 0.237817 (0.019486)
Neigh time (%) = 0.858082 (0.0703088)
Comm  time (%) = 2.0909 (0.171322)
Outpt time (%) = 0.000567928 (4.65344e-05)
Other time (%) = 1217.26 (99.7388)

Nlocal:    4.175 ave 61 max 0 min
Histogram: 36 0 1 0 1 0 0 1 0 1
Nghost:    2.925 ave 36 max 0 min
Histogram: 36 0 0 0 0 0 1 1 1 1
Neighs:    0.95 ave 13 max 0 min
Histogram: 36 0 0 0 1 0 1 0 1 1

Total # of neighbors = 38
Ave neighs/atom = 0.227545
Neighbor list builds = 4805
Dangerous builds = 41
Setting up run at Sat Jan  7 03:33:39 2023

Memory usage per processor = 958.583 Mbytes
    Step    Atoms         KinEng            CPU 
 5555522      167     0.33899226              0 
 5678978      165     0.28095177      1222.1944 
Loop time of 1222.19 on 40 procs for 123456 steps with 165 atoms, finish time Sat Jan  7 03:54:01 2023


Pair  time (%) = 0.237121 (0.0194013)
Neigh time (%) = 0.683654 (0.0559366)
Comm  time (%) = 2.13165 (0.174411)
Outpt time (%) = 0.000329967 (2.69979e-05)
Other time (%) = 1219.14 (99.7502)

Nlocal:    4.125 ave 60 max 0 min
Histogram: 36 0 0 1 1 0 0 1 0 1
Nghost:    3 ave 37 max 0 min
Histogram: 36 0 0 0 0 0 1 1 1 1
Neighs:    0.875 ave 11 max 0 min
Histogram: 36 0 0 0 1 0 0 0 1 2

Total # of neighbors = 35
Ave neighs/atom = 0.212121
Neighbor list builds = 3914
Dangerous builds = 218
Setting up run at Sat Jan  7 03:54:01 2023

Memory usage per processor = 958.583 Mbytes
    Step    Atoms         KinEng            CPU 
 5678978      165     0.28095177              0 
 5802434      163     0.26150667      1219.1993 
Loop time of 1219.2 on 40 procs for 123456 steps with 163 atoms, finish time Sat Jan  7 04:14:20 2023


Pair  time (%) = 0.234802 (0.0192587)
Neigh time (%) = 0.60999 (0.050032)
Comm  time (%) = 1.60396 (0.131558)
Outpt time (%) = 0.000300957 (2.46848e-05)
Other time (%) = 1216.75 (99.7991)

Nlocal:    4.075 ave 59 max 0 min
Histogram: 36 0 1 1 0 0 0 1 0 1
Nghost:    2.7 ave 33 max 0 min
Histogram: 36 0 0 0 0 0 1 1 1 1
Neighs:    0.875 ave 12 max 0 min
Histogram: 36 0 0 1 0 0 0 1 1 1

Total # of neighbors = 35
Ave neighs/atom = 0.214724
Neighbor list builds = 3341
Dangerous builds = 1
Setting up run at Sat Jan  7 04:14:20 2023

Memory usage per processor = 958.583 Mbytes
    Step    Atoms         KinEng            CPU 
 5802434      163     0.26150667              0 
 5925890      158     0.23558609      1219.3018 
Loop time of 1219.3 on 40 procs for 123456 steps with 158 atoms, finish time Sat Jan  7 04:34:40 2023


Pair  time (%) = 0.234336 (0.0192189)
Neigh time (%) = 0.590892 (0.0484615)
Comm  time (%) = 1.3875 (0.113795)
Outpt time (%) = 0.000601945 (4.9368e-05)
Other time (%) = 1217.09 (99.8185)

Nlocal:    3.95 ave 57 max 0 min
Histogram: 36 0 0 1 1 0 0 0 1 1
Nghost:    2.65 ave 29 max 0 min
Histogram: 36 0 0 0 0 0 0 2 0 2
Neighs:    0.925 ave 14 max 0 min
Histogram: 36 0 1 0 0 1 0 1 0 1

Total # of neighbors = 37
Ave neighs/atom = 0.234177
Neighbor list builds = 3233
Dangerous builds = 4
Setting up run at Sat Jan  7 04:34:40 2023

Memory usage per processor = 958.583 Mbytes
    Step    Atoms         KinEng            CPU 
 5925890      158     0.23558609              0 
 6049346      157     0.26274992      1212.6066 
Loop time of 1212.61 on 40 procs for 123456 steps with 157 atoms, finish time Sat Jan  7 04:54:52 2023


Pair  time (%) = 0.231586 (0.0190982)
Neigh time (%) = 0.426399 (0.0351638)
Comm  time (%) = 1.09304 (0.0901401)
Outpt time (%) = 0.000354933 (2.92702e-05)
Other time (%) = 1210.86 (99.8556)

Nlocal:    3.925 ave 55 max 0 min
Histogram: 35 1 1 0 1 0 0 0 1 1
Nghost:    2.6 ave 32 max 0 min
Histogram: 36 0 0 0 0 0 2 0 0 2
Neighs:    0.725 ave 13 max 0 min
Histogram: 36 0 1 1 0 0 1 0 0 1

Total # of neighbors = 29
Ave neighs/atom = 0.184713
Neighbor list builds = 2359
Dangerous builds = 72
Setting up run at Sat Jan  7 04:54:52 2023

Memory usage per processor = 958.583 Mbytes
    Step    Atoms         KinEng            CPU 
 6049346      157     0.26274992              0 
 6172802      151     0.25649823      1213.8714 
Loop time of 1213.87 on 40 procs for 123456 steps with 151 atoms, finish time Sat Jan  7 05:15:06 2023


Pair  time (%) = 0.230228 (0.0189664)
Neigh time (%) = 0.430753 (0.0354859)
Comm  time (%) = 1.13274 (0.0933165)
Outpt time (%) = 0.000268036 (2.2081e-05)
Other time (%) = 1212.08 (99.8522)

Nlocal:    3.775 ave 55 max 0 min
Histogram: 36 0 0 2 0 0 0 0 1 1
Nghost:    2.6 ave 32 max 0 min
Histogram: 36 0 0 0 0 0 2 0 0 2
Neighs:    0.675 ave 11 max 0 min
Histogram: 36 0 1 0 1 0 0 1 0 1

Total # of neighbors = 27
Ave neighs/atom = 0.178808
Neighbor list builds = 2355
Dangerous builds = 5
Setting up run at Sat Jan  7 05:15:06 2023

Memory usage per processor = 958.583 Mbytes
    Step    Atoms         KinEng            CPU 
 6172802      151     0.25649823              0 
 6296258      150     0.27577109      1216.3087 
Loop time of 1216.31 on 40 procs for 123456 steps with 150 atoms, finish time Sat Jan  7 05:35:23 2023


Pair  time (%) = 0.231079 (0.0189984)
Neigh time (%) = 0.480528 (0.0395071)
Comm  time (%) = 1.32711 (0.10911)
Outpt time (%) = 0.000589943 (4.85027e-05)
Other time (%) = 1214.27 (99.8323)

Nlocal:    3.75 ave 56 max 0 min
Histogram: 36 0 0 2 0 0 0 1 0 1
Nghost:    2.65 ave 35 max 0 min
Histogram: 36 0 0 0 0 1 1 0 1 1
Neighs:    0.55 ave 9 max 0 min
Histogram: 36 0 0 2 0 0 0 1 0 1

Total # of neighbors = 22
Ave neighs/atom = 0.146667
Neighbor list builds = 2640
Dangerous builds = 2
Setting up run at Sat Jan  7 05:35:23 2023

Memory usage per processor = 958.583 Mbytes
    Step    Atoms         KinEng            CPU 
 6296258      150     0.27577109              0 
 6419714      148      0.3723605      1222.8917 
Loop time of 1222.89 on 40 procs for 123456 steps with 148 atoms, finish time Sat Jan  7 05:55:46 2023


Pair  time (%) = 0.232525 (0.0190143)
Neigh time (%) = 0.737209 (0.0602841)
Comm  time (%) = 1.56097 (0.127646)
Outpt time (%) = 0.000298288 (2.4392e-05)
Other time (%) = 1220.36 (99.793)

Nlocal:    3.7 ave 53 max 0 min
Histogram: 36 0 0 2 0 0 0 0 1 1
Nghost:    2.75 ave 33 max 0 min
Histogram: 36 0 0 0 0 0 1 1 1 1
Neighs:    0.675 ave 10 max 0 min
Histogram: 36 0 0 0 0 2 0 1 0 1

Total # of neighbors = 27
Ave neighs/atom = 0.182432
Neighbor list builds = 4043
Dangerous builds = 2
Setting up run at Sat Jan  7 05:55:46 2023

Memory usage per processor = 958.583 Mbytes
    Step    Atoms         KinEng            CPU 
 6419714      148      0.3723605              0 
 6543170      144     0.30135004      1221.8752 
Loop time of 1221.88 on 40 procs for 123456 steps with 144 atoms, finish time Sat Jan  7 06:16:08 2023


Pair  time (%) = 0.230223 (0.0188418)
Neigh time (%) = 0.700145 (0.0573009)
Comm  time (%) = 2.09138 (0.171162)
Outpt time (%) = 0.000168643 (1.3802e-05)
Other time (%) = 1218.85 (99.7527)

Nlocal:    3.6 ave 51 max 0 min
Histogram: 36 0 0 2 0 0 0 0 1 1
Nghost:    2.6 ave 32 max 0 min
Histogram: 36 0 0 0 0 0 2 0 1 1
Neighs:    0.675 ave 10 max 0 min
Histogram: 36 0 0 0 1 0 1 1 0 1

Total # of neighbors = 27
Ave neighs/atom = 0.1875
Neighbor list builds = 3843
Dangerous builds = 1
Setting up run at Sat Jan  7 06:16:08 2023

Memory usage per processor = 958.583 Mbytes
    Step    Atoms         KinEng            CPU 
 6543170      144     0.30135004              0 
 6666626      141     0.60539534       1221.506 
Loop time of 1221.51 on 40 procs for 123456 steps with 141 atoms, finish time Sat Jan  7 06:36:29 2023


Pair  time (%) = 0.228483 (0.018705)
Neigh time (%) = 0.615601 (0.0503969)
Comm  time (%) = 1.68135 (0.137645)
Outpt time (%) = 0.000583704 (4.77856e-05)
Other time (%) = 1218.98 (99.7932)

Nlocal:    3.525 ave 50 max 0 min
Histogram: 36 0 1 0 1 0 0 0 0 2
Nghost:    2.2 ave 28 max 0 min
Histogram: 36 0 0 0 0 0 1 2 0 1
Neighs:    0.575 ave 9 max 0 min
Histogram: 36 0 1 0 0 1 0 1 0 1

Total # of neighbors = 23
Ave neighs/atom = 0.163121
Neighbor list builds = 3369
Dangerous builds = 3
Setting up run at Sat Jan  7 06:36:29 2023

Memory usage per processor = 958.583 Mbytes
    Step    Atoms         KinEng            CPU 
 6666626      141     0.60539534              0 
 6790082      134     0.32871411      1213.6577 
Loop time of 1213.66 on 40 procs for 123456 steps with 134 atoms, finish time Sat Jan  7 06:56:43 2023


Pair  time (%) = 0.227302 (0.0187287)
Neigh time (%) = 0.553208 (0.0455819)
Comm  time (%) = 1.51282 (0.124649)
Outpt time (%) = 0.000308106 (2.53866e-05)
Other time (%) = 1211.36 (99.811)

Nlocal:    3.35 ave 49 max 0 min
Histogram: 36 0 1 1 0 0 0 0 1 1
Nghost:    2.225 ave 29 max 0 min
Histogram: 36 0 0 0 0 1 1 1 0 1
Neighs:    0.5 ave 8 max 0 min
Histogram: 36 1 0 0 0 0 1 1 0 1

Total # of neighbors = 20
Ave neighs/atom = 0.149254
Neighbor list builds = 3053
Dangerous builds = 64
Setting up run at Sat Jan  7 06:56:43 2023

Memory usage per processor = 958.583 Mbytes
    Step    Atoms         KinEng            CPU 
 6790082      134     0.32871411              0 
 6913538      133     0.27505126      1212.3152 
Loop time of 1212.32 on 40 procs for 123456 steps with 133 atoms, finish time Sat Jan  7 07:16:55 2023


Pair  time (%) = 0.230344 (0.0190004)
Neigh time (%) = 0.531871 (0.0438724)
Comm  time (%) = 1.14726 (0.094634)
Outpt time (%) = 0.00026295 (2.16899e-05)
Other time (%) = 1210.41 (99.8425)

Nlocal:    3.325 ave 47 max 0 min
Histogram: 36 1 0 0 1 0 0 0 0 2
Nghost:    2.2 ave 29 max 0 min
Histogram: 36 0 0 0 0 1 1 1 0 1
Neighs:    0.425 ave 7 max 0 min
Histogram: 36 1 0 0 0 1 0 1 0 1

Total # of neighbors = 17
Ave neighs/atom = 0.12782
Neighbor list builds = 2898
Dangerous builds = 1
Setting up run at Sat Jan  7 07:16:55 2023

Memory usage per processor = 958.583 Mbytes
    Step    Atoms         KinEng            CPU 
 6913538      133     0.27505126              0 
 7036994      130     0.24207707      1216.4648 
Loop time of 1216.47 on 40 procs for 123456 steps with 130 atoms, finish time Sat Jan  7 07:37:12 2023


Pair  time (%) = 0.229763 (0.0188878)
Neigh time (%) = 0.557926 (0.0458645)
Comm  time (%) = 1.18088 (0.0970748)
Outpt time (%) = 0.000558061 (4.58756e-05)
Other time (%) = 1214.5 (99.8381)

Nlocal:    3.25 ave 46 max 0 min
Histogram: 36 1 0 0 1 0 0 0 0 2
Nghost:    2.125 ave 27 max 0 min
Histogram: 36 0 0 0 0 0 2 0 1 1
Neighs:    0.375 ave 8 max 0 min
Histogram: 37 0 0 1 0 1 0 0 0 1

Total # of neighbors = 15
Ave neighs/atom = 0.115385
Neighbor list builds = 3063
Dangerous builds = 3
Setting up run at Sat Jan  7 07:37:12 2023

Memory usage per processor = 958.583 Mbytes
    Step    Atoms         KinEng            CPU 
 7036994      130     0.24207707              0 
 7160450      125     0.56650596       1213.695 
Loop time of 1213.7 on 40 procs for 123456 steps with 125 atoms, finish time Sat Jan  7 07:57:26 2023


Pair  time (%) = 0.228123 (0.0187957)
Neigh time (%) = 0.702393 (0.0578723)
Comm  time (%) = 1.31819 (0.10861)
Outpt time (%) = 4.36623e-05 (3.59747e-06)
Other time (%) = 1211.45 (99.8147)

Nlocal:    3.125 ave 48 max 0 min
Histogram: 36 1 0 0 1 0 0 0 1 1
Nghost:    2.075 ave 27 max 0 min
Histogram: 36 0 0 0 0 1 1 0 1 1
Neighs:    0.5 ave 9 max 0 min
Histogram: 37 0 0 0 1 0 0 1 0 1

Total # of neighbors = 20
Ave neighs/atom = 0.16
Neighbor list builds = 3856
Dangerous builds = 78
Setting up run at Sat Jan  7 07:57:26 2023

Memory usage per processor = 958.583 Mbytes
    Step    Atoms         KinEng            CPU 
 7160450      125     0.56650596              0 
 7283906      125     0.53926188      1218.7683 
Loop time of 1218.77 on 40 procs for 123456 steps with 125 atoms, finish time Sat Jan  7 08:17:44 2023


Pair  time (%) = 0.228412 (0.0187412)
Neigh time (%) = 0.677528 (0.0555912)
Comm  time (%) = 1.29138 (0.105957)
Outpt time (%) = 0.000236463 (1.94018e-05)
Other time (%) = 1216.57 (99.8197)

Nlocal:    3.125 ave 49 max 0 min
Histogram: 36 1 0 0 1 0 0 1 0 1
Nghost:    2.15 ave 31 max 0 min
Histogram: 36 0 0 0 1 1 1 0 0 1
Neighs:    0.5 ave 9 max 0 min
Histogram: 37 0 0 0 0 1 1 0 0 1

Total # of neighbors = 20
Ave neighs/atom = 0.16
Neighbor list builds = 3686
Dangerous builds = 0
Setting up run at Sat Jan  7 08:17:44 2023

Memory usage per processor = 958.583 Mbytes
    Step    Atoms         KinEng            CPU 
 7283906      125     0.53926188              0 
 7407362      124     0.45269797      1215.9555 
Loop time of 1215.96 on 40 procs for 123456 steps with 124 atoms, finish time Sat Jan  7 08:38:00 2023


Pair  time (%) = 0.228477 (0.0187899)
Neigh time (%) = 0.593268 (0.0487903)
Comm  time (%) = 1.43967 (0.118398)
Outpt time (%) = 0.000265277 (2.18163e-05)
Other time (%) = 1213.69 (99.814)

Nlocal:    3.1 ave 47 max 0 min
Histogram: 36 1 0 0 1 0 0 0 1 1
Nghost:    2.025 ave 28 max 0 min
Histogram: 36 0 0 0 1 0 1 1 0 1
Neighs:    0.475 ave 9 max 0 min
Histogram: 37 0 0 0 0 2 0 0 0 1

Total # of neighbors = 19
Ave neighs/atom = 0.153226
Neighbor list builds = 3245
Dangerous builds = 1
Setting up run at Sat Jan  7 08:38:01 2023

Memory usage per processor = 958.583 Mbytes
    Step    Atoms         KinEng            CPU 
 7407362      124     0.45269797              0 
 7530818      123     0.37314079      1218.8709 
Loop time of 1218.87 on 40 procs for 123456 steps with 123 atoms, finish time Sat Jan  7 08:58:19 2023


Pair  time (%) = 0.227086 (0.0186309)
Neigh time (%) = 0.617503 (0.0506619)
Comm  time (%) = 1.42524 (0.116931)
Outpt time (%) = 0.000589379 (4.83545e-05)
Other time (%) = 1216.6 (99.8137)

Nlocal:    3.075 ave 48 max 0 min
Histogram: 36 1 0 0 1 0 0 0 1 1
Nghost:    1.95 ave 29 max 0 min
Histogram: 36 0 0 1 0 0 2 0 0 1
Neighs:    0.4 ave 8 max 0 min
Histogram: 37 0 0 0 0 2 0 0 0 1

Total # of neighbors = 16
Ave neighs/atom = 0.130081
Neighbor list builds = 3390
Dangerous builds = 1
Setting up run at Sat Jan  7 08:58:19 2023

Memory usage per processor = 958.583 Mbytes
    Step    Atoms         KinEng            CPU 
 7530818      123     0.37314079              0 
 7654274      122     0.37196818      1218.6949 
Loop time of 1218.69 on 40 procs for 123456 steps with 122 atoms, finish time Sat Jan  7 09:18:38 2023


Pair  time (%) = 0.228755 (0.0187705)
Neigh time (%) = 0.499658 (0.0409994)
Comm  time (%) = 1.29928 (0.106612)
Outpt time (%) = 0.000207307 (1.70106e-05)
Other time (%) = 1216.67 (99.8336)

Nlocal:    3.05 ave 48 max 0 min
Histogram: 36 1 0 0 1 0 0 1 0 1
Nghost:    2 ave 29 max 0 min
Histogram: 36 0 0 0 1 1 1 0 0 1
Neighs:    0.35 ave 7 max 0 min
Histogram: 37 0 0 0 1 1 0 0 0 1

Total # of neighbors = 14
Ave neighs/atom = 0.114754
Neighbor list builds = 2710
Dangerous builds = 1
Setting up run at Sat Jan  7 09:18:38 2023

Memory usage per processor = 958.583 Mbytes
    Step    Atoms         KinEng            CPU 
 7654274      122     0.37196818              0 
 7777730      120     0.30933748      1210.6676 
Loop time of 1210.67 on 40 procs for 123456 steps with 120 atoms, finish time Sat Jan  7 09:38:49 2023


Pair  time (%) = 0.226571 (0.0187146)
Neigh time (%) = 0.446594 (0.0368882)
Comm  time (%) = 1.57933 (0.130451)
Outpt time (%) = 0.000324955 (2.68409e-05)
Other time (%) = 1208.42 (99.8139)

Nlocal:    3 ave 47 max 0 min
Histogram: 36 1 0 0 1 0 0 1 0 1
Nghost:    1.95 ave 28 max 0 min
Histogram: 36 0 0 0 1 1 0 1 0 1
Neighs:    0.325 ave 6 max 0 min
Histogram: 37 0 0 0 0 1 1 0 0 1

Total # of neighbors = 13
Ave neighs/atom = 0.108333
Neighbor list builds = 2436
Dangerous builds = 2
Setting up run at Sat Jan  7 09:38:49 2023

Memory usage per processor = 958.583 Mbytes
    Step    Atoms         KinEng            CPU 
 7777730      120     0.30933748              0 
 7901186      119     0.26047888      1209.3763 
Loop time of 1209.38 on 40 procs for 123456 steps with 119 atoms, finish time Sat Jan  7 09:58:58 2023


Pair  time (%) = 0.229186 (0.0189507)
Neigh time (%) = 0.473478 (0.0391506)
Comm  time (%) = 1.61109 (0.133216)
Outpt time (%) = 0.000613813 (5.07545e-05)
Other time (%) = 1207.06 (99.8086)

Nlocal:    2.975 ave 47 max 0 min
Histogram: 36 0 1 0 1 0 0 1 0 1
Nghost:    1.925 ave 28 max 0 min
Histogram: 36 0 0 0 1 1 1 0 0 1
Neighs:    0.35 ave 8 max 0 min
Histogram: 37 0 0 2 0 0 0 0 0 1

Total # of neighbors = 14
Ave neighs/atom = 0.117647
Neighbor list builds = 2586
Dangerous builds = 1
Setting up run at Sat Jan  7 09:58:58 2023

Memory usage per processor = 958.583 Mbytes
    Step    Atoms         KinEng            CPU 
 7901186      119     0.26047888              0 
 8024642      118     0.25288929      1213.0441 
Loop time of 1213.04 on 40 procs for 123456 steps with 118 atoms, finish time Sat Jan  7 10:19:12 2023


Pair  time (%) = 0.22973 (0.0189383)
Neigh time (%) = 0.46095 (0.0379994)
Comm  time (%) = 1.17087 (0.0965236)
Outpt time (%) = 0.000274479 (2.26273e-05)
Other time (%) = 1211.18 (99.8465)

Nlocal:    2.95 ave 44 max 0 min
Histogram: 36 0 1 0 1 0 0 0 1 1
Nghost:    1.825 ave 28 max 0 min
Histogram: 36 0 1 0 0 1 0 1 0 1
Neighs:    0.45 ave 8 max 0 min
Histogram: 37 0 0 0 0 1 0 1 0 1

Total # of neighbors = 18
Ave neighs/atom = 0.152542
Neighbor list builds = 2503
Dangerous builds = 1
Setting up run at Sat Jan  7 10:19:12 2023

Memory usage per processor = 958.583 Mbytes
    Step    Atoms         KinEng            CPU 
 8024642      118     0.25288929              0 
 8148098      118     0.15073727      1212.1556 
Loop time of 1212.16 on 40 procs for 123456 steps with 118 atoms, finish time Sat Jan  7 10:39:24 2023


Pair  time (%) = 0.228998 (0.0188918)
Neigh time (%) = 0.479469 (0.0395551)
Comm  time (%) = 0.959759 (0.0791778)
Outpt time (%) = 0.000272079 (2.24459e-05)
Other time (%) = 1210.49 (99.8624)

Nlocal:    2.95 ave 43 max 0 min
Histogram: 35 2 0 0 1 0 0 0 1 1
Nghost:    1.825 ave 27 max 0 min
Histogram: 36 0 1 0 0 1 0 0 1 1
Neighs:    0.35 ave 6 max 0 min
Histogram: 37 0 0 0 0 1 0 0 1 1

Total # of neighbors = 14
Ave neighs/atom = 0.118644
Neighbor list builds = 2600
Dangerous builds = 0
Setting up run at Sat Jan  7 10:39:24 2023

Memory usage per processor = 958.583 Mbytes
    Step    Atoms         KinEng            CPU 
 8148098      118     0.15073727              0 
 8271554      118      0.1271476      1211.5556 
Loop time of 1211.56 on 40 procs for 123456 steps with 118 atoms, finish time Sat Jan  7 10:59:35 2023


Pair  time (%) = 0.22959 (0.01895)
Neigh time (%) = 0.438873 (0.0362239)
Comm  time (%) = 1.02436 (0.084549)
Outpt time (%) = 0.000530132 (4.37563e-05)
Other time (%) = 1209.86 (99.8602)

Nlocal:    2.95 ave 43 max 0 min
Histogram: 36 1 0 0 0 1 0 0 1 1
Nghost:    1.775 ave 27 max 0 min
Histogram: 36 0 0 1 0 1 1 0 0 1
Neighs:    0.35 ave 6 max 0 min
Histogram: 37 0 0 0 0 1 0 0 1 1

Total # of neighbors = 14
Ave neighs/atom = 0.118644
Neighbor list builds = 2384
Dangerous builds = 0
Setting up run at Sat Jan  7 10:59:35 2023

Memory usage per processor = 958.583 Mbytes
    Step    Atoms         KinEng            CPU 
 8271554      118      0.1271476              0 
 8395010      117     0.29410287       1212.882 
Loop time of 1212.88 on 40 procs for 123456 steps with 117 atoms, finish time Sat Jan  7 11:19:48 2023


Pair  time (%) = 0.227667 (0.0187707)
Neigh time (%) = 0.494272 (0.0407518)
Comm  time (%) = 0.974317 (0.0803307)
Outpt time (%) = 0.000340479 (2.80719e-05)
Other time (%) = 1211.19 (99.8601)

Nlocal:    2.925 ave 44 max 0 min
Histogram: 36 1 0 0 0 1 0 1 0 1
Nghost:    1.7 ave 27 max 0 min
Histogram: 36 0 0 1 0 1 1 0 0 1
Neighs:    0.275 ave 7 max 0 min
Histogram: 37 0 2 0 0 0 0 0 0 1

Total # of neighbors = 11
Ave neighs/atom = 0.0940171
Neighbor list builds = 2677
Dangerous builds = 0
Setting up run at Sat Jan  7 11:19:48 2023

Memory usage per processor = 958.583 Mbytes
    Step    Atoms         KinEng            CPU 
 8395010      117     0.29410287              0 
 8518466      114     0.15771037      1243.6934 
Loop time of 1243.69 on 40 procs for 123456 steps with 114 atoms, finish time Sat Jan  7 11:40:32 2023


Pair  time (%) = 0.227151 (0.0182642)
Neigh time (%) = 0.471988 (0.0379505)
Comm  time (%) = 0.941366 (0.0756911)
Outpt time (%) = 0.00028974 (2.32967e-05)
Other time (%) = 1242.05 (99.8681)

Nlocal:    2.85 ave 42 max 0 min
Histogram: 36 1 0 0 0 1 0 0 1 1
Nghost:    1.75 ave 25 max 0 min
Histogram: 36 0 0 0 1 1 0 1 0 1
Neighs:    0.275 ave 7 max 0 min
Histogram: 37 0 2 0 0 0 0 0 0 1

Total # of neighbors = 11
Ave neighs/atom = 0.0964912
Neighbor list builds = 2584
Dangerous builds = 50
Setting up run at Sat Jan  7 11:40:32 2023

Memory usage per processor = 958.583 Mbytes
    Step    Atoms         KinEng            CPU 
 8518466      114     0.15771037              0 
 8641922      114     0.32502813      1232.5202 
Loop time of 1232.52 on 40 procs for 123456 steps with 114 atoms, finish time Sat Jan  7 12:01:05 2023


Pair  time (%) = 0.22852 (0.0185409)
Neigh time (%) = 0.485402 (0.0393828)
Comm  time (%) = 1.04893 (0.0851042)
Outpt time (%) = 0.000611823 (4.964e-05)
Other time (%) = 1230.76 (99.8569)

Nlocal:    2.85 ave 40 max 0 min
Histogram: 36 0 1 0 1 0 0 0 0 2
Nghost:    1.65 ave 24 max 0 min
Histogram: 36 0 0 0 1 1 0 1 0 1
Neighs:    0.25 ave 7 max 0 min
Histogram: 37 1 1 0 0 0 0 0 0 1

Total # of neighbors = 10
Ave neighs/atom = 0.0877193
Neighbor list builds = 2619
Dangerous builds = 0
Setting up run at Sat Jan  7 12:01:05 2023

Memory usage per processor = 958.583 Mbytes
    Step    Atoms         KinEng            CPU 
 8641922      114     0.32502813              0 
 8765378      114     0.30282894      1211.2047 
Loop time of 1211.2 on 40 procs for 123456 steps with 114 atoms, finish time Sat Jan  7 12:21:16 2023


Pair  time (%) = 0.225714 (0.0186355)
Neigh time (%) = 0.521869 (0.0430868)
Comm  time (%) = 1.05917 (0.0874476)
Outpt time (%) = 0.000318257 (2.6276e-05)
Other time (%) = 1209.4 (99.8508)

Nlocal:    2.85 ave 41 max 0 min
Histogram: 36 1 0 0 1 0 0 0 0 2
Nghost:    1.65 ave 22 max 0 min
Histogram: 36 0 0 0 1 1 0 0 1 1
Neighs:    0.25 ave 7 max 0 min
Histogram: 37 1 1 0 0 0 0 0 0 1

Total # of neighbors = 10
Ave neighs/atom = 0.0877193
Neighbor list builds = 2825
Dangerous builds = 0
Setting up run at Sat Jan  7 12:21:16 2023

Memory usage per processor = 958.583 Mbytes
    Step    Atoms         KinEng            CPU 
 8765378      114     0.30282894              0 
 8888834      112     0.24845482      1255.5789 
Loop time of 1255.58 on 40 procs for 123456 steps with 112 atoms, finish time Sat Jan  7 12:42:12 2023


Pair  time (%) = 0.224279 (0.0178626)
Neigh time (%) = 0.486073 (0.0387131)
Comm  time (%) = 1.1018 (0.0877521)
Outpt time (%) = 0.000289175 (2.30312e-05)
Other time (%) = 1253.77 (99.8556)

Nlocal:    2.8 ave 40 max 0 min
Histogram: 36 0 1 0 1 0 0 0 0 2
Nghost:    1.625 ave 25 max 0 min
Histogram: 36 0 0 0 1 1 1 0 0 1
Neighs:    0.175 ave 5 max 0 min
Histogram: 38 0 0 0 1 0 0 0 0 1

Total # of neighbors = 7
Ave neighs/atom = 0.0625
Neighbor list builds = 2638
Dangerous builds = 4
Setting up run at Sat Jan  7 12:42:12 2023

Memory usage per processor = 958.583 Mbytes
    Step    Atoms         KinEng            CPU 
 8888834      112     0.24845482              0 
 9012290      111     0.23492473      1301.9408 
Loop time of 1301.94 on 40 procs for 123456 steps with 111 atoms, finish time Sat Jan  7 13:03:54 2023


Pair  time (%) = 0.22552 (0.0173218)
Neigh time (%) = 0.557179 (0.042796)
Comm  time (%) = 1.05559 (0.081078)
Outpt time (%) = 0.000635934 (4.88451e-05)
Other time (%) = 1300.1 (99.8588)

Nlocal:    2.775 ave 41 max 0 min
Histogram: 36 0 1 1 0 0 0 0 0 2
Nghost:    1.6 ave 23 max 0 min
Histogram: 36 0 0 1 0 1 0 0 1 1
Neighs:    0.2 ave 6 max 0 min
Histogram: 38 0 0 1 0 0 0 0 0 1

Total # of neighbors = 8
Ave neighs/atom = 0.0720721
Neighbor list builds = 3069
Dangerous builds = 1
Setting up run at Sat Jan  7 13:03:54 2023

Memory usage per processor = 958.583 Mbytes
    Step    Atoms         KinEng            CPU 
 9012290      111     0.23492473              0 
 9135746      109     0.17765745       1461.367 
Loop time of 1461.37 on 40 procs for 123456 steps with 109 atoms, finish time Sat Jan  7 13:28:15 2023


Pair  time (%) = 0.226626 (0.0155078)
Neigh time (%) = 0.637691 (0.0436366)
Comm  time (%) = 1.22139 (0.0835786)
Outpt time (%) = 0.000236524 (1.61851e-05)
Other time (%) = 1459.28 (99.8573)

Nlocal:    2.725 ave 39 max 0 min
Histogram: 36 0 1 0 1 0 0 0 0 2
Nghost:    1.55 ave 23 max 0 min
Histogram: 36 0 0 1 0 1 0 1 0 1
Neighs:    0.225 ave 8 max 0 min
Histogram: 38 1 0 0 0 0 0 0 0 1

Total # of neighbors = 9
Ave neighs/atom = 0.0825688
Neighbor list builds = 3497
Dangerous builds = 2
Setting up run at Sat Jan  7 13:28:15 2023

Memory usage per processor = 958.583 Mbytes
    Step    Atoms         KinEng            CPU 
 9135746      109     0.17765745              0 
 9259202      107     0.14339323      1257.5189 
Loop time of 1257.52 on 40 procs for 123456 steps with 107 atoms, finish time Sat Jan  7 13:49:13 2023


Pair  time (%) = 0.226799 (0.0180355)
Neigh time (%) = 0.669881 (0.05327)
Comm  time (%) = 1.27685 (0.101538)
Outpt time (%) = 0.000648948 (5.16054e-05)
Other time (%) = 1255.34 (99.8271)

Nlocal:    2.675 ave 38 max 0 min
Histogram: 36 0 1 0 1 0 0 0 0 2
Nghost:    1.6 ave 22 max 0 min
Histogram: 36 0 0 1 0 1 0 0 0 2
Neighs:    0.175 ave 6 max 0 min
Histogram: 38 1 0 0 0 0 0 0 0 1

Total # of neighbors = 7
Ave neighs/atom = 0.0654206
Neighbor list builds = 3721
Dangerous builds = 1
Setting up run at Sat Jan  7 13:49:13 2023

Memory usage per processor = 958.583 Mbytes
    Step    Atoms         KinEng            CPU 
 9259202      107     0.14339323              0 
 9382658      105     0.13059335      1254.0655 
Loop time of 1254.07 on 40 procs for 123456 steps with 105 atoms, finish time Sat Jan  7 14:10:07 2023


Pair  time (%) = 0.225907 (0.018014)
Neigh time (%) = 0.584524 (0.0466103)
Comm  time (%) = 1.19548 (0.0953279)
Outpt time (%) = 0.000286769 (2.28671e-05)
Other time (%) = 1252.06 (99.84)

Nlocal:    2.625 ave 38 max 0 min
Histogram: 36 0 0 2 0 0 0 0 0 2
Nghost:    1.65 ave 24 max 0 min
Histogram: 36 0 0 1 1 0 0 0 0 2
Neighs:    0.175 ave 6 max 0 min
Histogram: 38 1 0 0 0 0 0 0 0 1

Total # of neighbors = 7
Ave neighs/atom = 0.0666667
Neighbor list builds = 3179
Dangerous builds = 2
Setting up run at Sat Jan  7 14:10:07 2023

Memory usage per processor = 958.583 Mbytes
    Step    Atoms         KinEng            CPU 
 9382658      105     0.13059335              0 
 9506114      104      0.2503998      1265.8574 
Loop time of 1265.86 on 40 procs for 123456 steps with 104 atoms, finish time Sat Jan  7 14:31:13 2023


Pair  time (%) = 0.222238 (0.0175563)
Neigh time (%) = 0.514315 (0.0406298)
Comm  time (%) = 1.01198 (0.0799442)
Outpt time (%) = 0.000256209 (2.024e-05)
Other time (%) = 1264.11 (99.8618)

Nlocal:    2.6 ave 37 max 0 min
Histogram: 36 0 1 0 1 0 0 0 0 2
Nghost:    1.65 ave 24 max 0 min
Histogram: 36 0 0 1 1 0 0 0 0 2
Neighs:    0.175 ave 5 max 0 min
Histogram: 37 0 2 0 0 0 0 0 0 1

Total # of neighbors = 7
Ave neighs/atom = 0.0673077
Neighbor list builds = 2798
Dangerous builds = 1
Setting up run at Sat Jan  7 14:31:13 2023

Memory usage per processor = 958.583 Mbytes
    Step    Atoms         KinEng            CPU 
 9506114      104      0.2503998              0 
 9629570      103     0.25263722      1223.4051 
Loop time of 1223.41 on 40 procs for 123456 steps with 103 atoms, finish time Sat Jan  7 14:51:36 2023


Pair  time (%) = 0.222062 (0.0181511)
Neigh time (%) = 0.586826 (0.0479666)
Comm  time (%) = 1.12201 (0.0917122)
Outpt time (%) = 0.000285565 (2.33418e-05)
Other time (%) = 1221.47 (99.8421)

Nlocal:    2.575 ave 36 max 0 min
Histogram: 36 0 1 1 0 0 0 0 0 2
Nghost:    1.5 ave 22 max 0 min
Histogram: 36 0 0 1 0 1 0 0 0 2
Neighs:    0.175 ave 4 max 0 min
Histogram: 37 0 1 0 0 1 0 0 0 1

Total # of neighbors = 7
Ave neighs/atom = 0.0679612
Neighbor list builds = 3182
Dangerous builds = 1
Setting up run at Sat Jan  7 14:51:36 2023

Memory usage per processor = 958.583 Mbytes
    Step    Atoms         KinEng            CPU 
 9629570      103     0.25263722              0 
 9753026      103     0.17379312      1246.5309 
Loop time of 1246.53 on 40 procs for 123456 steps with 103 atoms, finish time Sat Jan  7 15:12:23 2023


Pair  time (%) = 0.219283 (0.0175914)
Neigh time (%) = 0.510093 (0.040921)
Comm  time (%) = 0.937391 (0.0752)
Outpt time (%) = 0.000613649 (4.92285e-05)
Other time (%) = 1244.86 (99.8662)

Nlocal:    2.575 ave 36 max 0 min
Histogram: 36 0 0 2 0 0 0 0 0 2
Nghost:    1.475 ave 21 max 0 min
Histogram: 36 0 0 1 1 0 0 0 0 2
Neighs:    0.25 ave 6 max 0 min
Histogram: 36 2 0 1 0 0 0 0 0 1

Total # of neighbors = 10
Ave neighs/atom = 0.0970874
Neighbor list builds = 2771
Dangerous builds = 0
Setting up run at Sat Jan  7 15:12:23 2023

Memory usage per processor = 958.583 Mbytes
    Step    Atoms         KinEng            CPU 
 9753026      103     0.17379312              0 
 9876482      102     0.13670415      1211.2955 
Loop time of 1211.31 on 40 procs for 123456 steps with 102 atoms, finish time Sat Jan  7 15:32:34 2023


Pair  time (%) = 0.220844 (0.0182319)
Neigh time (%) = 0.430817 (0.0355663)
Comm  time (%) = 0.852361 (0.0703672)
Outpt time (%) = 0.00231567 (0.000191172)
Other time (%) = 1209.8 (99.8756)

Nlocal:    2.55 ave 38 max 0 min
Histogram: 36 0 1 1 0 0 0 0 1 1
Nghost:    1.425 ave 21 max 0 min
Histogram: 36 0 1 0 1 0 0 0 0 2
Neighs:    0.175 ave 6 max 0 min
Histogram: 38 1 0 0 0 0 0 0 0 1

Total # of neighbors = 7
Ave neighs/atom = 0.0686275
Neighbor list builds = 2336
Dangerous builds = 0
Setting up run at Sat Jan  7 15:32:34 2023

Memory usage per processor = 958.583 Mbytes
    Step    Atoms         KinEng            CPU 
 9876482      102     0.13670415              0 
 9999938      101   0.0012569444      1248.7438 
Loop time of 1248.74 on 40 procs for 123456 steps with 101 atoms, finish time Sat Jan  7 15:53:23 2023


Pair  time (%) = 0.217805 (0.0174419)
Neigh time (%) = 0.265091 (0.0212286)
Comm  time (%) = 0.611741 (0.0489885)
Outpt time (%) = 0.000271174 (2.17158e-05)
Other time (%) = 1247.65 (99.9123)

Nlocal:    2.525 ave 37 max 0 min
Histogram: 36 0 1 1 0 0 0 0 0 2
Nghost:    1.4 ave 21 max 0 min
Histogram: 36 0 0 1 1 0 0 0 1 1
Neighs:    0.1 ave 3 max 0 min
Histogram: 38 0 0 1 0 0 0 0 0 1

Total # of neighbors = 4
Ave neighs/atom = 0.039604
Neighbor list builds = 1439
Dangerous builds = 0
Setting up run at Sat Jan  7 15:53:23 2023

Memory usage per processor = 958.583 Mbytes
    Step    Atoms         KinEng            CPU 
 9999938      101   0.0012569444              0 
10123394      101    0.057096676      1195.2211 
Loop time of 1195.22 on 40 procs for 123456 steps with 101 atoms, finish time Sat Jan  7 16:13:18 2023


Pair  time (%) = 0.214709 (0.0179639)
Neigh time (%) = 0.176198 (0.0147418)
Comm  time (%) = 0.57873 (0.0484203)
Outpt time (%) = 0.000570047 (4.76938e-05)
Other time (%) = 1194.25 (99.9188)

Nlocal:    2.525 ave 37 max 0 min
Histogram: 36 0 1 1 0 0 0 0 0 2
Nghost:    1.45 ave 21 max 0 min
Histogram: 36 0 0 1 1 0 0 0 1 1
Neighs:    0.025 ave 1 max 0 min
Histogram: 39 0 0 0 0 0 0 0 0 1

Total # of neighbors = 1
Ave neighs/atom = 0.00990099
Neighbor list builds = 957
Dangerous builds = 0
Setting up run at Sat Jan  7 16:13:18 2023

Memory usage per processor = 958.583 Mbytes
    Step    Atoms         KinEng            CPU 
10123394      101    0.057096676              0 
10246850      100   0.0094994484      1201.2316 
Loop time of 1201.23 on 40 procs for 123456 steps with 100 atoms, finish time Sat Jan  7 16:33:20 2023


Pair  time (%) = 0.215096 (0.0179063)
Neigh time (%) = 0.205144 (0.0170778)
Comm  time (%) = 0.866398 (0.0721258)
Outpt time (%) = 9.45116e-05 (7.86789e-06)
Other time (%) = 1199.94 (99.8929)

Nlocal:    2.5 ave 38 max 0 min
Histogram: 36 0 1 1 0 0 0 0 1 1
Nghost:    1.55 ave 23 max 0 min
Histogram: 36 0 0 1 1 0 0 0 1 1
Neighs:    0.025 ave 1 max 0 min
Histogram: 39 0 0 0 0 0 0 0 0 1

Total # of neighbors = 1
Ave neighs/atom = 0.01
Neighbor list builds = 1112
Dangerous builds = 6
Setting up run at Sat Jan  7 16:33:20 2023

Memory usage per processor = 958.583 Mbytes
    Step    Atoms         KinEng            CPU 
10246850      100   0.0094994484              0 
10370306       98   0.0078821108      1418.3039 
Loop time of 1418.3 on 40 procs for 123456 steps with 98 atoms, finish time Sat Jan  7 16:56:58 2023


Pair  time (%) = 0.213608 (0.0150608)
Neigh time (%) = 0.20045 (0.0141331)
Comm  time (%) = 0.561474 (0.0395877)
Outpt time (%) = 0.000350364 (2.4703e-05)
Other time (%) = 1417.33 (99.9312)

Nlocal:    2.45 ave 38 max 0 min
Histogram: 36 0 2 0 0 0 0 0 1 1
Nghost:    1.475 ave 23 max 0 min
Histogram: 36 0 0 2 0 0 0 1 0 1
Neighs:    0.075 ave 1 max 0 min
Histogram: 37 0 0 0 0 0 0 0 0 3

Total # of neighbors = 3
Ave neighs/atom = 0.0306122
Neighbor list builds = 1083
Dangerous builds = 2
Setting up run at Sat Jan  7 16:56:58 2023

Memory usage per processor = 958.583 Mbytes
    Step    Atoms         KinEng            CPU 
10370306       98   0.0078821108              0 
10493762       96      0.1203164      1210.8896 
Loop time of 1210.89 on 40 procs for 123456 steps with 96 atoms, finish time Sat Jan  7 17:17:09 2023


Pair  time (%) = 0.217584 (0.0179689)
Neigh time (%) = 0.460098 (0.0379967)
Comm  time (%) = 1.02134 (0.0843463)
Outpt time (%) = 0.000564989 (4.6659e-05)
Other time (%) = 1209.19 (99.8596)

Nlocal:    2.4 ave 38 max 0 min
Histogram: 36 0 2 0 0 0 0 0 1 1
Nghost:    1.4 ave 22 max 0 min
Histogram: 36 0 0 1 1 0 1 0 0 1
Neighs:    0.075 ave 1 max 0 min
Histogram: 37 0 0 0 0 0 0 0 0 3

Total # of neighbors = 3
Ave neighs/atom = 0.03125
Neighbor list builds = 2545
Dangerous builds = 112
Setting up run at Sat Jan  7 17:17:09 2023

Memory usage per processor = 958.583 Mbytes
    Step    Atoms         KinEng            CPU 
10493762       96      0.1203164              0 
10617218       96      0.1365911      1204.1545 
Loop time of 1204.15 on 40 procs for 123456 steps with 96 atoms, finish time Sat Jan  7 17:37:13 2023


Pair  time (%) = 0.216505 (0.0179798)
Neigh time (%) = 0.40356 (0.0335139)
Comm  time (%) = 0.846938 (0.0703347)
Outpt time (%) = 0.000291874 (2.42389e-05)
Other time (%) = 1202.69 (99.8781)

Nlocal:    2.4 ave 39 max 0 min
Histogram: 36 0 2 0 0 0 0 1 0 1
Nghost:    1.5 ave 22 max 0 min
Histogram: 36 0 0 0 1 1 0 1 0 1
Neighs:    0.05 ave 1 max 0 min
Histogram: 38 0 0 0 0 0 0 0 0 2

Total # of neighbors = 2
Ave neighs/atom = 0.0208333
Neighbor list builds = 2184
Dangerous builds = 0
Setting up run at Sat Jan  7 17:37:13 2023

Memory usage per processor = 958.583 Mbytes
    Step    Atoms         KinEng            CPU 
10617218       96      0.1365911              0 
10740674       95     0.19120301      1209.3493 
Loop time of 1209.35 on 40 procs for 123456 steps with 95 atoms, finish time Sat Jan  7 17:57:22 2023


Pair  time (%) = 0.215762 (0.0178412)
Neigh time (%) = 0.395892 (0.0327359)
Comm  time (%) = 0.922378 (0.0762706)
Outpt time (%) = 0.000298046 (2.46452e-05)
Other time (%) = 1207.82 (99.8731)

Nlocal:    2.375 ave 39 max 0 min
Histogram: 36 0 1 1 0 0 0 1 0 1
Nghost:    1.4 ave 21 max 0 min
Histogram: 36 0 0 0 2 0 0 1 0 1
Neighs:    0.05 ave 1 max 0 min
Histogram: 38 0 0 0 0 0 0 0 0 2

Total # of neighbors = 2
Ave neighs/atom = 0.0210526
Neighbor list builds = 2256
Dangerous builds = 236
Setting up run at Sat Jan  7 17:57:23 2023

Memory usage per processor = 958.583 Mbytes
    Step    Atoms         KinEng            CPU 
10740674       95     0.19120301              0 
10864130       92     0.11509576      1208.8231 
Loop time of 1208.82 on 40 procs for 123456 steps with 92 atoms, finish time Sat Jan  7 18:17:31 2023


Pair  time (%) = 0.216768 (0.0179322)
Neigh time (%) = 0.400639 (0.0331429)
Comm  time (%) = 0.970901 (0.0803178)
Outpt time (%) = 0.000544635 (4.50549e-05)
Other time (%) = 1207.23 (99.8686)

Nlocal:    2.3 ave 38 max 0 min
Histogram: 36 0 2 0 0 0 0 1 0 1
Nghost:    1.4 ave 19 max 0 min
Histogram: 36 0 0 0 0 2 0 1 0 1
Neighs:    0.025 ave 1 max 0 min
Histogram: 39 0 0 0 0 0 0 0 0 1

Total # of neighbors = 1
Ave neighs/atom = 0.0108696
Neighbor list builds = 2168
Dangerous builds = 4
Setting up run at Sat Jan  7 18:17:31 2023

Memory usage per processor = 958.583 Mbytes
    Step    Atoms         KinEng            CPU 
10864130       92     0.11509576              0 
10987586       92     0.13964543      1205.3973 
Loop time of 1205.4 on 40 procs for 123456 steps with 92 atoms, finish time Sat Jan  7 18:37:37 2023


Pair  time (%) = 0.217382 (0.0180339)
Neigh time (%) = 0.506089 (0.041985)
Comm  time (%) = 0.934545 (0.0775296)
Outpt time (%) = 0.000314223 (2.60679e-05)
Other time (%) = 1203.75 (99.8624)

Nlocal:    2.3 ave 38 max 0 min
Histogram: 36 1 1 0 0 0 0 1 0 1
Nghost:    1.45 ave 19 max 0 min
Histogram: 36 0 0 0 0 1 0 2 0 1
Neighs:    0.075 ave 2 max 0 min
Histogram: 38 0 0 0 0 1 0 0 0 1

Total # of neighbors = 3
Ave neighs/atom = 0.0326087
Neighbor list builds = 2743
Dangerous builds = 0
Setting up run at Sat Jan  7 18:37:37 2023

Memory usage per processor = 958.583 Mbytes
    Step    Atoms         KinEng            CPU 
10987586       92     0.13964543              0 
11111042       91     0.18237592      1335.9464 
Loop time of 1335.95 on 40 procs for 123456 steps with 91 atoms, finish time Sat Jan  7 18:59:53 2023


Pair  time (%) = 0.218833 (0.0163803)
Neigh time (%) = 0.581287 (0.0435113)
Comm  time (%) = 1.16412 (0.0871382)
Outpt time (%) = 0.000259631 (1.94342e-05)
Other time (%) = 1333.98 (99.853)

Nlocal:    2.275 ave 38 max 0 min
Histogram: 36 1 1 0 0 0 0 1 0 1
Nghost:    1.475 ave 19 max 0 min
Histogram: 36 0 0 0 0 1 0 2 0 1
Neighs:    0.15 ave 3 max 0 min
Histogram: 37 0 0 1 0 0 1 0 0 1

Total # of neighbors = 6
Ave neighs/atom = 0.0659341
Neighbor list builds = 3197
Dangerous builds = 2
Setting up run at Sat Jan  7 18:59:53 2023

Memory usage per processor = 958.583 Mbytes
    Step    Atoms         KinEng            CPU 
11111042       91     0.18237592              0 
11234498       90     0.19879659      1271.3394 
Loop time of 1271.34 on 40 procs for 123456 steps with 90 atoms, finish time Sat Jan  7 19:21:04 2023


Pair  time (%) = 0.21756 (0.0171127)
Neigh time (%) = 0.545545 (0.0429111)
Comm  time (%) = 1.13748 (0.0894712)
Outpt time (%) = 0.000586263 (4.61138e-05)
Other time (%) = 1269.44 (99.8505)

Nlocal:    2.25 ave 37 max 0 min
Histogram: 36 1 0 1 0 0 0 1 0 1
Nghost:    1.425 ave 17 max 0 min
Histogram: 36 0 0 0 1 0 0 0 1 2
Neighs:    0.15 ave 3 max 0 min
Histogram: 37 0 0 1 0 0 1 0 0 1

Total # of neighbors = 6
Ave neighs/atom = 0.0666667
Neighbor list builds = 2948
Dangerous builds = 0
Setting up run at Sat Jan  7 19:21:04 2023

[...]
16049360       66   0.0062896463              0 
16172816       66    0.026342537      1202.6788 
Loop time of 1202.68 on 40 procs for 123456 steps with 66 atoms, finish time Sun Jan  8 08:44:47 2023


Pair  time (%) = 0.21392 (0.0177869)
Neigh time (%) = 0.204222 (0.0169806)
Comm  time (%) = 0.564359 (0.0469252)
Outpt time (%) = 0.000583907 (4.85505e-05)
Other time (%) = 1201.7 (99.9183)

Nlocal:    1.65 ave 34 max 0 min
Histogram: 36 1 1 0 0 1 0 0 0 1
Nghost:    0.475 ave 9 max 0 min
Histogram: 35 2 1 0 0 0 1 0 0 1
Neighs:    0.05 ave 2 max 0 min
Histogram: 39 0 0 0 0 0 0 0 0 1

Total # of neighbors = 2
Ave neighs/atom = 0.030303
Neighbor list builds = 1093
Dangerous builds = 0
Setting up run at Sun Jan  8 08:44:47 2023

Memory usage per processor = 958.583 Mbytes
    Step    Atoms         KinEng            CPU 
16172816       66    0.026342537              0 
16296272       66     0.11282547      1209.7608 
Loop time of 1209.76 on 40 procs for 123456 steps with 66 atoms, finish time Sun Jan  8 09:04:57 2023


Pair  time (%) = 0.216696 (0.0179123)
Neigh time (%) = 0.429067 (0.0354671)
Comm  time (%) = 0.882317 (0.0729332)
Outpt time (%) = 0.000320444 (2.64882e-05)
Other time (%) = 1208.23 (99.8737)

Nlocal:    1.65 ave 34 max 0 min
Histogram: 37 1 0 0 0 1 0 0 0 1
Nghost:    0.625 ave 10 max 0 min
Histogram: 36 1 0 0 1 0 0 0 0 2
Neighs:    0.025 ave 1 max 0 min
Histogram: 39 0 0 0 0 0 0 0 0 1

Total # of neighbors = 1
Ave neighs/atom = 0.0151515
Neighbor list builds = 2311
Dangerous builds = 0
Setting up run at Sun Jan  8 09:04:57 2023

Memory usage per processor = 958.583 Mbytes
    Step    Atoms         KinEng            CPU 
16296272       66     0.11282547              0 
16419728       64    0.025159158       1208.435 
Loop time of 1208.44 on 40 procs for 123456 steps with 64 atoms, finish time Sun Jan  8 09:25:06 2023


Pair  time (%) = 0.21293 (0.0176203)
Neigh time (%) = 0.373187 (0.0308819)
Comm  time (%) = 0.713282 (0.0590252)
Outpt time (%) = 0.000295865 (2.44833e-05)
Other time (%) = 1207.14 (99.8924)

Nlocal:    1.6 ave 34 max 0 min
Histogram: 36 2 0 0 1 0 0 0 0 1
Nghost:    0.6 ave 11 max 0 min
Histogram: 37 1 0 0 0 0 0 0 0 2
Neighs:    0.05 ave 2 max 0 min
Histogram: 39 0 0 0 0 0 0 0 0 1

Total # of neighbors = 2
Ave neighs/atom = 0.03125
Neighbor list builds = 2081
Dangerous builds = 0
Setting up run at Sun Jan  8 09:25:06 2023

Memory usage per processor = 958.583 Mbytes
    Step    Atoms         KinEng            CPU 
16419728       64    0.025159158              0 
16543184       64      0.2955826      1205.2865 
Loop time of 1205.29 on 40 procs for 123456 steps with 64 atoms, finish time Sun Jan  8 09:45:11 2023


Pair  time (%) = 0.215121 (0.0178481)
Neigh time (%) = 0.274954 (0.0228123)
Comm  time (%) = 0.632694 (0.0524933)
Outpt time (%) = 0.000608959 (5.0524e-05)
Other time (%) = 1204.16 (99.9068)

Nlocal:    1.6 ave 32 max 0 min
Histogram: 36 2 0 0 0 1 0 0 0 1
Nghost:    0.575 ave 11 max 0 min
Histogram: 38 0 0 0 0 0 0 0 1 1
Neighs:    0.15 ave 4 max 0 min
Histogram: 38 0 0 0 0 1 0 0 0 1

Total # of neighbors = 6
Ave neighs/atom = 0.09375
Neighbor list builds = 1476
Dangerous builds = 0
Setting up run at Sun Jan  8 09:45:11 2023

Memory usage per processor = 958.583 Mbytes
    Step    Atoms         KinEng            CPU 
16543184       64      0.2955826              0 
16666640       64      0.2215396      1224.5232 
Loop time of 1224.52 on 40 procs for 123456 steps with 64 atoms, finish time Sun Jan  8 10:05:36 2023


Pair  time (%) = 0.220778 (0.0180297)
Neigh time (%) = 0.962353 (0.07859)
Comm  time (%) = 1.61891 (0.132207)
Outpt time (%) = 0.000344994 (2.81738e-05)
Other time (%) = 1221.72 (99.7711)

Nlocal:    1.6 ave 31 max 0 min
Histogram: 37 1 0 0 0 1 0 0 0 1
Nghost:    0.575 ave 12 max 0 min
Histogram: 37 1 0 0 0 0 1 0 0 1
Neighs:    0.175 ave 4 max 0 min
Histogram: 38 0 0 0 0 0 0 1 0 1

Total # of neighbors = 7
Ave neighs/atom = 0.109375
Neighbor list builds = 5161
Dangerous builds = 0
Setting up run at Sun Jan  8 10:05:36 2023

Memory usage per processor = 958.583 Mbytes
    Step    Atoms         KinEng            CPU 
16666640       64      0.2215396              0 
16790096       63      0.1135044      1215.0388 
Loop time of 1215.04 on 40 procs for 123456 steps with 63 atoms, finish time Sun Jan  8 10:25:51 2023


Pair  time (%) = 0.217384 (0.0178911)
Neigh time (%) = 0.595017 (0.048971)
Comm  time (%) = 1.05845 (0.0871123)
Outpt time (%) = 0.000304364 (2.50497e-05)
Other time (%) = 1213.17 (99.846)

Nlocal:    1.575 ave 32 max 0 min
Histogram: 36 2 0 0 0 1 0 0 0 1
Nghost:    0.525 ave 10 max 0 min
Histogram: 35 3 0 0 0 0 0 0 1 1
Neighs:    0.1 ave 3 max 0 min
Histogram: 38 0 0 1 0 0 0 0 0 1

Total # of neighbors = 4
Ave neighs/atom = 0.0634921
Neighbor list builds = 3196
Dangerous builds = 1
Setting up run at Sun Jan  8 10:25:51 2023

Memory usage per processor = 958.583 Mbytes
    Step    Atoms         KinEng            CPU 
16790096       63      0.1135044              0 
16913552       63    0.070341055      1212.8398 
Loop time of 1212.84 on 40 procs for 123456 steps with 63 atoms, finish time Sun Jan  8 10:46:04 2023


Pair  time (%) = 0.215876 (0.0177992)
Neigh time (%) = 0.527208 (0.0434689)
Comm  time (%) = 1.03042 (0.0849592)
Outpt time (%) = 0.0005582 (4.60242e-05)
Other time (%) = 1211.07 (99.8537)

Nlocal:    1.575 ave 31 max 0 min
Histogram: 37 0 1 0 0 1 0 0 0 1
Nghost:    0.575 ave 10 max 0 min
Histogram: 35 3 0 0 0 0 0 0 0 2
Neighs:    0.05 ave 1 max 0 min
Histogram: 38 0 0 0 0 0 0 0 0 2

Total # of neighbors = 2
Ave neighs/atom = 0.031746
Neighbor list builds = 2829
Dangerous builds = 0
Setting up run at Sun Jan  8 10:46:04 2023

Memory usage per processor = 958.583 Mbytes
    Step    Atoms         KinEng            CPU 
16913552       63    0.070341055              0 
17037008       62    0.050747413      1204.3033 
Loop time of 1204.3 on 40 procs for 123456 steps with 62 atoms, finish time Sun Jan  8 11:06:08 2023


Pair  time (%) = 0.213036 (0.0176896)
Neigh time (%) = 0.234703 (0.0194887)
Comm  time (%) = 0.596964 (0.0495692)
Outpt time (%) = 0.000297416 (2.46961e-05)
Other time (%) = 1203.26 (99.9132)

Nlocal:    1.55 ave 31 max 0 min
Histogram: 37 1 0 0 0 1 0 0 0 1
Nghost:    0.55 ave 10 max 0 min
Histogram: 35 2 1 0 0 0 0 0 1 1
Neighs:    0.075 ave 2 max 0 min
Histogram: 38 0 0 0 0 1 0 0 0 1

Total # of neighbors = 3
Ave neighs/atom = 0.0483871
Neighbor list builds = 1263
Dangerous builds = 1
Setting up run at Sun Jan  8 11:06:08 2023

Memory usage per processor = 958.583 Mbytes
    Step    Atoms         KinEng            CPU 
17037008       62    0.050747413              0 
17160464       62    0.038147609      1197.8415 
Loop time of 1197.84 on 40 procs for 123456 steps with 62 atoms, finish time Sun Jan  8 11:26:06 2023


Pair  time (%) = 0.213067 (0.0177875)
Neigh time (%) = 0.184164 (0.0153746)
Comm  time (%) = 0.481407 (0.0401895)
Outpt time (%) = 0.000278026 (2.32106e-05)
Other time (%) = 1196.96 (99.9266)

Nlocal:    1.55 ave 30 max 0 min
Histogram: 36 1 1 0 0 1 0 0 0 1
Nghost:    0.525 ave 10 max 0 min
Histogram: 36 2 0 0 0 0 0 0 0 2
Neighs:    0.1 ave 2 max 0 min
Histogram: 38 0 0 0 0 0 0 0 0 2

Total # of neighbors = 4
Ave neighs/atom = 0.0645161
Neighbor list builds = 983
Dangerous builds = 0
Setting up run at Sun Jan  8 11:26:06 2023

Memory usage per processor = 958.583 Mbytes
    Step    Atoms         KinEng            CPU 
17160464       62    0.038147609              0 
17283920       62      0.1185309      1207.6923 
Loop time of 1207.69 on 40 procs for 123456 steps with 62 atoms, finish time Sun Jan  8 11:46:14 2023


Pair  time (%) = 0.215495 (0.0178435)
Neigh time (%) = 0.379812 (0.0314494)
Comm  time (%) = 0.812778 (0.0673001)
Outpt time (%) = 0.000614767 (5.09043e-05)
Other time (%) = 1206.28 (99.8834)

Nlocal:    1.55 ave 28 max 0 min
Histogram: 36 1 1 0 0 0 1 0 0 1
Nghost:    0.5 ave 9 max 0 min
Histogram: 33 5 0 0 0 0 1 0 0 1
Neighs:    0.1 ave 2 max 0 min
Histogram: 38 0 0 0 0 0 0 0 0 2

Total # of neighbors = 4
Ave neighs/atom = 0.0645161
Neighbor list builds = 2026
Dangerous builds = 0
Setting up run at Sun Jan  8 11:46:14 2023

Memory usage per processor = 958.583 Mbytes
    Step    Atoms         KinEng            CPU 
17283920       62      0.1185309              0 
17407376       58     0.12169284      1211.0418 
Loop time of 1211.04 on 40 procs for 123456 steps with 58 atoms, finish time Sun Jan  8 12:06:25 2023


Pair  time (%) = 0.214545 (0.0177157)
Neigh time (%) = 0.423371 (0.0349593)
Comm  time (%) = 0.804185 (0.0664044)
Outpt time (%) = 0.000298614 (2.46576e-05)
Other time (%) = 1209.6 (99.8809)

Nlocal:    1.45 ave 27 max 0 min
Histogram: 36 2 0 0 0 0 0 1 0 1
Nghost:    0.425 ave 10 max 0 min
Histogram: 36 2 0 0 0 1 0 0 0 1
Neighs:    0.1 ave 3 max 0 min
Histogram: 38 0 0 1 0 0 0 0 0 1

Total # of neighbors = 4
Ave neighs/atom = 0.0689655
Neighbor list builds = 2269
Dangerous builds = 4
Setting up run at Sun Jan  8 12:06:25 2023

Memory usage per processor = 958.583 Mbytes
    Step    Atoms         KinEng            CPU 
17407376       58     0.12169284              0 
17530832       58      0.1203247       1201.531 
Loop time of 1201.53 on 40 procs for 123456 steps with 58 atoms, finish time Sun Jan  8 12:26:27 2023


Pair  time (%) = 0.214236 (0.0178302)
Neigh time (%) = 0.338281 (0.0281542)
Comm  time (%) = 0.630592 (0.0524824)
Outpt time (%) = 0.000284772 (2.37008e-05)
Other time (%) = 1200.35 (99.9015)

Nlocal:    1.45 ave 26 max 0 min
Histogram: 36 2 0 0 0 0 0 0 1 1
Nghost:    0.425 ave 10 max 0 min
Histogram: 36 2 0 0 0 1 0 0 0 1
Neighs:    0.15 ave 4 max 0 min
Histogram: 38 0 0 0 0 1 0 0 0 1

Total # of neighbors = 6
Ave neighs/atom = 0.103448
Neighbor list builds = 1811
Dangerous builds = 0
Setting up run at Sun Jan  8 12:26:27 2023

Memory usage per processor = 958.583 Mbytes
    Step    Atoms         KinEng            CPU 
17530832       58      0.1203247              0 
17654288       58    0.066481774      1207.3889 
Loop time of 1207.39 on 40 procs for 123456 steps with 58 atoms, finish time Sun Jan  8 12:46:34 2023


Pair  time (%) = 0.213224 (0.0176599)
Neigh time (%) = 0.345583 (0.0286223)
Comm  time (%) = 0.722238 (0.0598181)
Outpt time (%) = 0.000597024 (4.94475e-05)
Other time (%) = 1206.11 (99.8939)

Nlocal:    1.45 ave 26 max 0 min
Histogram: 36 2 0 0 0 0 0 0 1 1
Nghost:    0.45 ave 11 max 0 min
Histogram: 38 0 0 1 0 0 0 0 0 1
Neighs:    0.075 ave 2 max 0 min
Histogram: 38 0 0 0 0 1 0 0 0 1

Total # of neighbors = 3
Ave neighs/atom = 0.0517241
Neighbor list builds = 1843
Dangerous builds = 0
Setting up run at Sun Jan  8 12:46:34 2023

Memory usage per processor = 958.583 Mbytes
    Step    Atoms         KinEng            CPU 
17654288       58    0.066481774              0 
17777744       57    0.022112876      1206.9341 
Loop time of 1206.93 on 40 procs for 123456 steps with 57 atoms, finish time Sun Jan  8 13:06:41 2023


Pair  time (%) = 0.212244 (0.0175854)
Neigh time (%) = 0.302136 (0.0250333)
Comm  time (%) = 0.607707 (0.0503513)
Outpt time (%) = 0.000371438 (3.07754e-05)
Other time (%) = 1205.81 (99.907)

Nlocal:    1.425 ave 26 max 0 min
Histogram: 37 0 1 0 0 0 0 0 1 1
Nghost:    0.4 ave 10 max 0 min
Histogram: 36 2 0 0 1 0 0 0 0 1
Neighs:    0.075 ave 2 max 0 min
Histogram: 38 0 0 0 0 1 0 0 0 1

Total # of neighbors = 3
Ave neighs/atom = 0.0526316
Neighbor list builds = 1620
Dangerous builds = 0
Setting up run at Sun Jan  8 13:06:41 2023

Memory usage per processor = 958.583 Mbytes
    Step    Atoms         KinEng            CPU 
17777744       57    0.022112876              0 
17901200       56     0.02177171      1203.0658 
Loop time of 1203.07 on 40 procs for 123456 steps with 56 atoms, finish time Sun Jan  8 13:26:44 2023


Pair  time (%) = 0.211611 (0.0175893)
Neigh time (%) = 0.171818 (0.0142817)
Comm  time (%) = 0.456083 (0.0379101)
Outpt time (%) = 4.60742e-05 (3.82973e-06)
Other time (%) = 1202.23 (99.9302)

Nlocal:    1.4 ave 25 max 0 min
Histogram: 37 0 1 0 0 0 0 0 1 1
Nghost:    0.325 ave 9 max 0 min
Histogram: 37 1 0 1 0 0 0 0 0 1
Neighs:    0.025 ave 1 max 0 min
Histogram: 39 0 0 0 0 0 0 0 0 1

Total # of neighbors = 1
Ave neighs/atom = 0.0178571
Neighbor list builds = 932
Dangerous builds = 23
Setting up run at Sun Jan  8 13:26:44 2023

Memory usage per processor = 958.583 Mbytes
    Step    Atoms         KinEng            CPU 
17901200       56     0.02177171              0 
18024656       55    0.022321489      1203.1209 
Loop time of 1203.12 on 40 procs for 123456 steps with 55 atoms, finish time Sun Jan  8 13:46:47 2023


Pair  time (%) = 0.211526 (0.0175814)
Neigh time (%) = 0.194547 (0.0161702)
Comm  time (%) = 0.456093 (0.0379092)
Outpt time (%) = 0.000605726 (5.03462e-05)
Other time (%) = 1202.26 (99.9283)

Nlocal:    1.375 ave 25 max 0 min
Histogram: 37 0 1 0 0 0 0 0 1 1
Nghost:    0.35 ave 10 max 0 min
Histogram: 37 1 0 1 0 0 0 0 0 1
Neighs:    0.025 ave 1 max 0 min
Histogram: 39 0 0 0 0 0 0 0 0 1

Total # of neighbors = 1
Ave neighs/atom = 0.0181818
Neighbor list builds = 1171
Dangerous builds = 262
Setting up run at Sun Jan  8 13:46:47 2023

Memory usage per processor = 958.583 Mbytes
    Step    Atoms         KinEng            CPU 
18024656       55    0.022321489              0 
18148112       54    0.021668275      1205.1753 
Loop time of 1205.18 on 40 procs for 123456 steps with 54 atoms, finish time Sun Jan  8 14:06:53 2023


Pair  time (%) = 0.211534 (0.0175521)
Neigh time (%) = 0.168511 (0.0139822)
Comm  time (%) = 0.436948 (0.036256)
Outpt time (%) = 0.00027508 (2.28249e-05)
Other time (%) = 1204.36 (99.9322)

Nlocal:    1.35 ave 25 max 0 min
Histogram: 37 1 0 0 0 0 0 0 1 1
Nghost:    0.425 ave 11 max 0 min
Histogram: 37 1 1 0 0 0 0 0 0 1
Neighs:    0.025 ave 1 max 0 min
Histogram: 39 0 0 0 0 0 0 0 0 1

Total # of neighbors = 1
Ave neighs/atom = 0.0185185
Neighbor list builds = 909
Dangerous builds = 0
Setting up run at Sun Jan  8 14:06:53 2023

Memory usage per processor = 958.583 Mbytes
    Step    Atoms         KinEng            CPU 
18148112       54    0.021668275              0 
18271568       53    0.022152393      1204.0392 
Loop time of 1204.04 on 40 procs for 123456 steps with 53 atoms, finish time Sun Jan  8 14:26:57 2023


Pair  time (%) = 0.209923 (0.0174349)
Neigh time (%) = 0.170768 (0.0141829)
Comm  time (%) = 0.432832 (0.0359483)
Outpt time (%) = 0.000310302 (2.57718e-05)
Other time (%) = 1203.23 (99.9324)

Nlocal:    1.325 ave 25 max 0 min
Histogram: 37 1 0 0 0 0 0 0 1 1
Nghost:    0.375 ave 10 max 0 min
Histogram: 37 1 0 0 1 0 0 0 0 1
Neighs:    0 ave 0 max 0 min
Histogram: 40 0 0 0 0 0 0 0 0 0

Total # of neighbors = 0
Ave neighs/atom = 0
Neighbor list builds = 923
Dangerous builds = 15
Setting up run at Sun Jan  8 14:26:57 2023

Memory usage per processor = 958.583 Mbytes
    Step    Atoms         KinEng            CPU 
18271568       53    0.022152393              0 
18395024       53    0.021886945       1204.149 
Loop time of 1204.15 on 40 procs for 123456 steps with 53 atoms, finish time Sun Jan  8 14:47:01 2023


Pair  time (%) = 0.212102 (0.0176143)
Neigh time (%) = 0.16954 (0.0140797)
Comm  time (%) = 0.454522 (0.0377463)
Outpt time (%) = 0.000535777 (4.44942e-05)
Other time (%) = 1203.31 (99.9305)

Nlocal:    1.325 ave 25 max 0 min
Histogram: 37 1 0 0 0 0 0 0 1 1
Nghost:    0.4 ave 10 max 0 min
Histogram: 36 2 0 0 1 0 0 0 0 1
Neighs:    0 ave 0 max 0 min
Histogram: 40 0 0 0 0 0 0 0 0 0

Total # of neighbors = 0
Ave neighs/atom = 0
Neighbor list builds = 910
Dangerous builds = 0
Setting up run at Sun Jan  8 14:47:01 2023

Memory usage per processor = 958.583 Mbytes
    Step    Atoms         KinEng            CPU 
18395024       53    0.021886945              0 
18518480       53    0.021812709      1203.8627 
Loop time of 1203.86 on 40 procs for 123456 steps with 53 atoms, finish time Sun Jan  8 15:07:05 2023


Pair  time (%) = 0.21164 (0.0175801)
Neigh time (%) = 0.168856 (0.0140262)
Comm  time (%) = 0.435278 (0.0361568)
Outpt time (%) = 0.000298355 (2.47832e-05)
Other time (%) = 1203.05 (99.9322)

Nlocal:    1.325 ave 25 max 0 min
Histogram: 37 1 0 0 0 0 0 0 1 1
Nghost:    0.4 ave 9 max 0 min
Histogram: 36 2 0 0 0 1 0 0 0 1
Neighs:    0.025 ave 1 max 0 min
Histogram: 39 0 0 0 0 0 0 0 0 1

Total # of neighbors = 1
Ave neighs/atom = 0.0188679
Neighbor list builds = 907
Dangerous builds = 0
Setting up run at Sun Jan  8 15:07:05 2023

Memory usage per processor = 958.583 Mbytes
    Step    Atoms         KinEng            CPU 
18518480       53    0.021812709              0 
18641936       53    0.022188198      1202.3065 
Loop time of 1202.31 on 40 procs for 123456 steps with 53 atoms, finish time Sun Jan  8 15:27:07 2023


Pair  time (%) = 0.212053 (0.0176372)
Neigh time (%) = 0.169302 (0.0140814)
Comm  time (%) = 0.437719 (0.0364066)
Outpt time (%) = 0.000308567 (2.56646e-05)
Other time (%) = 1201.49 (99.9318)

Nlocal:    1.325 ave 25 max 0 min
Histogram: 37 1 0 0 0 0 0 0 1 1
Nghost:    0.4 ave 8 max 0 min
Histogram: 36 2 0 0 0 0 0 1 0 1
Neighs:    0.025 ave 1 max 0 min
Histogram: 39 0 0 0 0 0 0 0 0 1

Total # of neighbors = 1
Ave neighs/atom = 0.0188679
Neighbor list builds = 909
Dangerous builds = 0
Setting up run at Sun Jan  8 15:27:07 2023

Memory usage per processor = 958.583 Mbytes
    Step    Atoms         KinEng            CPU 
18641936       53    0.022188198              0 
18765392       53    0.021602788       1203.152 
Loop time of 1203.15 on 40 procs for 123456 steps with 53 atoms, finish time Sun Jan  8 15:47:10 2023


Pair  time (%) = 0.210451 (0.0174916)
Neigh time (%) = 0.169127 (0.014057)
Comm  time (%) = 0.44193 (0.036731)
Outpt time (%) = 0.000302816 (2.51685e-05)
Other time (%) = 1202.33 (99.9317)

Nlocal:    1.325 ave 25 max 0 min
Histogram: 37 1 0 0 0 0 0 0 1 1
Nghost:    0.35 ave 7 max 0 min
Histogram: 36 2 0 0 0 0 0 1 0 1
Neighs:    0.025 ave 1 max 0 min
Histogram: 39 0 0 0 0 0 0 0 0 1

Total # of neighbors = 1
Ave neighs/atom = 0.0188679
Neighbor list builds = 908
Dangerous builds = 0
Setting up run at Sun Jan  8 15:47:10 2023

Memory usage per processor = 958.583 Mbytes
    Step    Atoms         KinEng            CPU 
18765392       53    0.021602788              0 
18888848       53    0.022220032      1203.0018 
Loop time of 1203 on 40 procs for 123456 steps with 53 atoms, finish time Sun Jan  8 16:07:13 2023


Pair  time (%) = 0.211452 (0.0175771)
Neigh time (%) = 0.169061 (0.0140533)
Comm  time (%) = 0.456494 (0.0379462)
Outpt time (%) = 0.000619285 (5.14783e-05)
Other time (%) = 1202.16 (99.9304)

Nlocal:    1.325 ave 24 max 0 min
Histogram: 37 1 0 0 0 0 0 0 0 2
Nghost:    0.375 ave 7 max 0 min
Histogram: 36 1 1 0 0 0 0 1 0 1
Neighs:    0.075 ave 2 max 0 min
Histogram: 38 0 0 0 0 1 0 0 0 1

Total # of neighbors = 3
Ave neighs/atom = 0.0566038
Neighbor list builds = 908
Dangerous builds = 0
Setting up run at Sun Jan  8 16:07:13 2023

Memory usage per processor = 958.583 Mbytes
    Step    Atoms         KinEng            CPU 
18888848       53    0.022220032              0 
19012304       52    0.022192394      1204.4159 
Loop time of 1204.42 on 40 procs for 123456 steps with 52 atoms, finish time Sun Jan  8 16:27:18 2023


Pair  time (%) = 0.211042 (0.0175223)
Neigh time (%) = 0.215141 (0.0178627)
Comm  time (%) = 0.526572 (0.0437201)
Outpt time (%) = 0.000324357 (2.69306e-05)
Other time (%) = 1203.46 (99.9209)

Nlocal:    1.3 ave 23 max 0 min
Histogram: 37 1 0 0 0 0 0 0 0 2
Nghost:    0.375 ave 8 max 0 min
Histogram: 36 1 1 0 0 1 0 0 0 1
Neighs:    0.025 ave 1 max 0 min
Histogram: 39 0 0 0 0 0 0 0 0 1

Total # of neighbors = 1
Ave neighs/atom = 0.0192308
Neighbor list builds = 1154
Dangerous builds = 1
Setting up run at Sun Jan  8 16:27:18 2023

srun: Job step aborted: Waiting up to 62 seconds for job step to finish.
slurmstepd: error: *** JOB 14814400 ON r02c33 CANCELLED AT 2023-01-08T17:15:03 ***
slurmstepd: error: *** STEP 14814400.0 ON r02c33 CANCELLED AT 2023-01-08T17:15:03 ***
