LIGGGHTS (Version LIGGGHTS-PUBLIC 3.8.0, compiled 2022-11-07-16:55:38 by serperd1, git commit 86544c3f1215bc9744d7929e3eacf53ba086af9e)
units si #
dimension 3 #
newton off #
boundary f f f #
atom_style sphere #
pair_style gran model hertz tangential history #
communicate single vel yes #
region outer_basket cylinder y 0 0 0.15 -0.15 0.15 #
create_box 3 outer_basket #
Created orthogonal box = (-0.15 -0.15 -0.15) to (0.15 0.15 0.15)
  2 by 4 by 5 MPI processor grid
variable my_omega equal 157.0796 #
fix cone_mesh all mesh/surface file cone.stl type 3 scale 1 #
fix rotating_wall_1 all move/mesh mesh cone_mesh rotate/variable origin 0 0 0 axis 0 1 0 omega v_my_omega #
fix filter_mesh_walls all wall/gran model hertz tangential history primitive type 2 ycylinder_filtermesh 0.069 0 0 2 12 -0.0628 0 0.017054 0.014822 0.092054 0.089822 shear x 10.8385 #

fix inlet_cyl_wall_mesh all mesh/surface file in_cyl.stl type 3 scale 1 #
fix top_cyl_wall_mesh all mesh/surface file top_cyl.stl type 3 scale 1 #
fix rotating_wall_4 all move/mesh mesh top_cyl_wall_mesh rotate/variable origin 0 0 0 axis 0 1 0 omega v_my_omega #
fix bot_cyl_wall_mesh all mesh/surface file bot_cyl.stl type 3 scale 1 #
fix rotating_wall_5 all move/mesh mesh bot_cyl_wall_mesh rotate/variable origin 0 0 0 axis 0 1 0 omega v_my_omega #
fix bot_disk_wall_mesh all mesh/surface file bottom_disk.stl type 3 scale 1 #
fix rotating_wall_6 all move/mesh mesh bot_disk_wall_mesh rotate/variable origin 0 0 0 axis 0 1 0 omega v_my_omega #
fix top_disk_wall_mesh all mesh/surface file top_disk.stl type 3 scale 1 #
fix rotating_wall_7 all move/mesh mesh top_disk_wall_mesh rotate/variable origin 0 0 0 axis 0 1 0 omega v_my_omega #
fix GMSH_mesh_walls all wall/gran model hertz tangential history mesh n_meshes 6 meshes cone_mesh top_cyl_wall_mesh bot_cyl_wall_mesh bot_disk_wall_mesh inlet_cyl_wall_mesh top_disk_wall_mesh #
fix Young_mod all property/global youngsModulus peratomtype 375000000 46000000 1000000000 #
fix Poisson_rat all property/global poissonsRatio peratomtype 0.32 0.42 0.29 #
fix Coeff_rest all property/global coefficientRestitution peratomtypepair 3 0.15 0.32 0.475 0.32 0.49 0.645 0.475 0.645 0.8 #
fix Coeff_fric all property/global coefficientFriction peratomtypepair 3 0.04 0.145 0.12 0.145 0.25 0.225 0.12 0.225 0.2 #

neighbor 0.00039366 bin #
neigh_modify delay 0 one 100000 page 5000000 #
fix r_0to10p all particletemplate/sphere 12345787 atom_type 1 density constant 2650 radius constant 6.3e-05 #
fix r_10to50p all particletemplate/sphere 15485863 atom_type 1 density constant 2650 radius constant 0.0001746 #
fix r_50to90p all particletemplate/sphere 15485867 atom_type 1 density constant 2650 radius constant 0.00063495 #
fix r_90to100p all particletemplate/sphere 32452843 atom_type 1 density constant 2650 radius constant 0.00098415 #
fix prob_par all particledistribution/discrete 32452867 4 r_0to10p 0.1 r_10to50p 0.4 r_50to90p 0.4 r_90to100p 0.1 #
pair_coeff * * #
timestep 4.86e-08 #

fix nve_group all nve/sphere #
fix grav_fix all gravity 6.1081 vector 0.017 -0.0033 0 -1 0 #
fix cent_fix all centrifugal 157.0796 0.017 -0.0033 0.069 #

variable step equal step #
variable mycount equal count(all) #
fix print_amount_of_atoms all print 25 "${step} ${mycount}" file numatoms.txt screen no #
run 0 #
Setting up run at Mon Jan  2 13:01:27 2023

Memory usage per processor = 955.842 Mbytes
    Step    Atoms         KinEng            CPU 
       0        0              0              0 
Loop time of 5.80626e-05 on 40 procs for 0 steps with 0 atoms, finish time Mon Jan  2 13:01:28 2023


Pair  time (%) = 0 (0)
Neigh time (%) = 0 (0)
Comm  time (%) = 0 (0)
Outpt time (%) = 0 (0)
Other time (%) = 5.80626e-05 (100)

Nlocal:    0 ave 0 max 0 min
Histogram: 40 0 0 0 0 0 0 0 0 0
Nghost:    0 ave 0 max 0 min
Histogram: 40 0 0 0 0 0 0 0 0 0
Neighs:    0 ave 0 max 0 min
Histogram: 40 0 0 0 0 0 0 0 0 0

Total # of neighbors = 0
Neighbor list builds = 0
Dangerous builds = 0
run 1 #
Setting up run at Mon Jan  2 13:01:28 2023

Memory usage per processor = 955.842 Mbytes
    Step    Atoms         KinEng            CPU 
       0        0              0              0 
       1        0              0     0.00984494 
Loop time of 0.00985987 on 40 procs for 1 steps with 0 atoms, finish time Mon Jan  2 13:01:28 2023


Pair  time (%) = 2.51808e-06 (0.0255386)
Neigh time (%) = 0 (0)
Comm  time (%) = 0.000228222 (2.31465)
Outpt time (%) = 0.000162882 (1.65197)
Other time (%) = 0.00946625 (96.0078)

Nlocal:    0 ave 0 max 0 min
Histogram: 40 0 0 0 0 0 0 0 0 0
Nghost:    0 ave 0 max 0 min
Histogram: 40 0 0 0 0 0 0 0 0 0
Neighs:    0 ave 0 max 0 min
Histogram: 40 0 0 0 0 0 0 0 0 0

Total # of neighbors = 0
Neighbor list builds = 0
Dangerous builds = 0
read_dump dump.atom_info_1 1 x y z radius vx vy vz box no add yes replace no #
  orthogonal box = (-0.15 -0.15 -0.15) to (0.15 0.15 0.15)
  0 atoms before read
  1331 atoms in snapshot
  0 atoms purged
  0 atoms replaced
  0 atoms trimmed
  1331 atoms added
  1331 atoms after read
set atom * type 1 density 2650 vy -0.01175 #
  1331 settings made for type
  1331 settings made for density
  1331 settings made for vy
run 1 #
Setting up run at Mon Jan  2 13:01:28 2023

Memory usage per processor = 960.195 Mbytes
    Step    Atoms         KinEng            CPU 
       1     1331    2.04396e-07              0 
       2     1331  2.5455856e-07    0.009343356 
Loop time of 0.00935212 on 40 procs for 1 steps with 1331 atoms, finish time Mon Jan  2 13:01:28 2023


Pair  time (%) = 2.5642e-06 (0.0274184)
Neigh time (%) = 0 (0)
Comm  time (%) = 5.8271e-06 (0.0623078)
Outpt time (%) = 0.000263054 (2.81277)
Other time (%) = 0.00908068 (97.0975)

Nlocal:    33.275 ave 555 max 0 min
Histogram: 36 0 2 0 0 0 0 0 0 2
Nghost:    13.575 ave 173 max 0 min
Histogram: 36 0 0 0 0 1 1 0 0 2
Neighs:    10.175 ave 168 max 0 min
Histogram: 36 0 2 0 0 0 0 0 0 2

Total # of neighbors = 407
Ave neighs/atom = 0.305785
Neighbor list builds = 0
Dangerous builds = 0
write_dump all custom dump.atom_info_ac_* id type x y z radius vx vy vz density #
run 205761
Setting up run at Mon Jan  2 13:01:28 2023

Memory usage per processor = 960.195 Mbytes
    Step    Atoms         KinEng            CPU 
       2     1331  2.5455856e-07              0 
  205763     1331  6.9273694e-05      2040.5713 
Loop time of 2040.59 on 40 procs for 205761 steps with 1331 atoms, finish time Mon Jan  2 13:35:28 2023


Pair  time (%) = 0.48577 (0.0238053)
Neigh time (%) = 0.422848 (0.0207218)
Comm  time (%) = 1.22734 (0.0601465)
Outpt time (%) = 0.000279509 (1.36974e-05)
Other time (%) = 2038.46 (99.8953)

Nlocal:    33.275 ave 551 max 0 min
Histogram: 36 0 2 0 0 0 0 0 0 2
Nghost:    13.8 ave 171 max 0 min
Histogram: 36 0 0 0 0 1 1 0 0 2
Neighs:    11.175 ave 191 max 0 min
Histogram: 36 1 1 0 0 0 0 0 1 1

Total # of neighbors = 447
Ave neighs/atom = 0.335838
Neighbor list builds = 550
Dangerous builds = 0
write_dump all custom dump.atom_info_ac_* id type x y z radius vx vy vz density #
run 205761
Setting up run at Mon Jan  2 13:35:28 2023

Memory usage per processor = 960.195 Mbytes
    Step    Atoms         KinEng            CPU 
  205763     1331  6.9273694e-05              0 
  411524     1331  0.00040217614      2043.4478 
Loop time of 2043.45 on 40 procs for 205761 steps with 1331 atoms, finish time Mon Jan  2 14:09:32 2023


Pair  time (%) = 0.488186 (0.0238903)
Neigh time (%) = 0.421896 (0.0206463)
Comm  time (%) = 1.19333 (0.0583981)
Outpt time (%) = 0.000640294 (3.1334e-05)
Other time (%) = 2041.34 (99.897)

Nlocal:    33.275 ave 538 max 0 min
Histogram: 36 0 2 0 0 0 0 0 0 2
Nghost:    13.625 ave 169 max 0 min
Histogram: 36 0 0 0 0 1 1 0 0 2
Neighs:    11.725 ave 197 max 0 min
Histogram: 36 1 1 0 0 0 0 0 0 2

Total # of neighbors = 469
Ave neighs/atom = 0.352367
Neighbor list builds = 550
Dangerous builds = 0
write_dump all custom dump.atom_info_ac_* id type x y z radius vx vy vz density #
run 205761
Setting up run at Mon Jan  2 14:09:32 2023

Memory usage per processor = 960.195 Mbytes
    Step    Atoms         KinEng            CPU 
  411524     1331  0.00040217614              0 
  617285     1331  0.00067128357      2029.4645 
Loop time of 2029.46 on 40 procs for 205761 steps with 1331 atoms, finish time Mon Jan  2 14:43:21 2023


Pair  time (%) = 0.492837 (0.0242841)
Neigh time (%) = 0.423158 (0.0208507)
Comm  time (%) = 1.37684 (0.0678423)
Outpt time (%) = 0.000663117 (3.26745e-05)
Other time (%) = 2027.17 (99.887)

Nlocal:    33.275 ave 522 max 0 min
Histogram: 36 0 2 0 0 0 0 0 0 2
Nghost:    13.05 ave 158 max 0 min
Histogram: 36 0 0 0 0 0 1 1 0 2
Neighs:    11.9 ave 190 max 0 min
Histogram: 36 0 2 0 0 0 0 0 0 2

Total # of neighbors = 476
Ave neighs/atom = 0.357626
Neighbor list builds = 550
Dangerous builds = 0
write_dump all custom dump.atom_info_ac_* id type x y z radius vx vy vz density #
run 205761
Setting up run at Mon Jan  2 14:43:21 2023

Memory usage per processor = 960.195 Mbytes
    Step    Atoms         KinEng            CPU 
  617285     1331  0.00067128357              0 
  823046     1330   0.0010775495       2031.457 
Loop time of 2031.5 on 40 procs for 205761 steps with 1330 atoms, finish time Mon Jan  2 15:17:13 2023


Pair  time (%) = 0.491663 (0.024202)
Neigh time (%) = 0.779394 (0.0383654)
Comm  time (%) = 1.68787 (0.0830849)
Outpt time (%) = 0.000684257 (3.36823e-05)
Other time (%) = 2028.54 (99.8543)

Nlocal:    33.25 ave 512 max 0 min
Histogram: 36 0 1 1 0 0 0 0 0 2
Nghost:    12.875 ave 160 max 0 min
Histogram: 36 0 0 0 0 1 1 0 0 2
Neighs:    12.525 ave 202 max 0 min
Histogram: 36 0 2 0 0 0 0 0 0 2

Total # of neighbors = 501
Ave neighs/atom = 0.376692
Neighbor list builds = 986
Dangerous builds = 1
write_dump all custom dump.atom_info_ac_* id type x y z radius vx vy vz density #
run 205761
Setting up run at Mon Jan  2 15:17:13 2023

Memory usage per processor = 960.195 Mbytes
    Step    Atoms         KinEng            CPU 
  823046     1330   0.0010775495              0 
 1028807     1328   0.0005689965      2027.3702 
Loop time of 2027.37 on 40 procs for 205761 steps with 1328 atoms, finish time Mon Jan  2 15:51:00 2023


Pair  time (%) = 0.483956 (0.0238711)
Neigh time (%) = 0.499998 (0.0246624)
Comm  time (%) = 1.49876 (0.0739262)
Outpt time (%) = 0.000618246 (3.0495e-05)
Other time (%) = 2024.89 (99.8775)

Nlocal:    33.2 ave 498 max 0 min
Histogram: 36 0 1 1 0 0 0 0 0 2
Nghost:    12.25 ave 159 max 0 min
Histogram: 36 0 0 0 0 1 1 0 0 2
Neighs:    12.675 ave 194 max 0 min
Histogram: 36 0 1 1 0 0 0 0 0 2

Total # of neighbors = 507
Ave neighs/atom = 0.381777
Neighbor list builds = 646
Dangerous builds = 96
write_dump all custom dump.atom_info_ac_* id type x y z radius vx vy vz density #
run 205761
Setting up run at Mon Jan  2 15:51:00 2023

Memory usage per processor = 960.195 Mbytes
    Step    Atoms         KinEng            CPU 
 1028807     1328   0.0005689965              0 
 1234568     1327  0.00064990308      2029.9871 
Loop time of 2029.99 on 40 procs for 205761 steps with 1327 atoms, finish time Mon Jan  2 16:24:50 2023


Pair  time (%) = 0.485628 (0.0239227)
Neigh time (%) = 0.785706 (0.038705)
Comm  time (%) = 1.78128 (0.0877483)
Outpt time (%) = 0.000640281 (3.15411e-05)
Other time (%) = 2026.93 (99.8496)

Nlocal:    33.175 ave 496 max 0 min
Histogram: 36 0 1 1 0 0 0 0 0 2
Nghost:    11.675 ave 155 max 0 min
Histogram: 36 0 0 0 0 2 0 0 1 1
Neighs:    11.9 ave 183 max 0 min
Histogram: 36 0 1 1 0 0 0 0 0 2

Total # of neighbors = 476
Ave neighs/atom = 0.358704
Neighbor list builds = 1001
Dangerous builds = 1
write_dump all custom dump.atom_info_ac_* id type x y z radius vx vy vz density #
run 205761
Setting up run at Mon Jan  2 16:24:51 2023

Memory usage per processor = 960.195 Mbytes
    Step    Atoms         KinEng            CPU 
 1234568     1327  0.00064990308              0 
 1440329     1323     0.05666823       2085.206 
Loop time of 2085.21 on 40 procs for 205761 steps with 1323 atoms, finish time Mon Jan  2 16:59:36 2023


Pair  time (%) = 0.51569 (0.0247309)
Neigh time (%) = 6.14633 (0.294759)
Comm  time (%) = 5.43154 (0.26048)
Outpt time (%) = 0.000556348 (2.66807e-05)
Other time (%) = 2073.11 (99.42)

Nlocal:    33.075 ave 490 max 0 min
Histogram: 36 0 1 1 0 0 0 0 0 2
Nghost:    11 ave 140 max 0 min
Histogram: 36 0 0 0 0 1 1 0 0 2
Neighs:    11.925 ave 180 max 0 min
Histogram: 36 0 0 1 1 0 0 0 0 2

Total # of neighbors = 477
Ave neighs/atom = 0.360544
Neighbor list builds = 7583
Dangerous builds = 88
write_dump all custom dump.atom_info_ac_* id type x y z radius vx vy vz density #
run 205761
Setting up run at Mon Jan  2 16:59:36 2023

Memory usage per processor = 960.195 Mbytes
    Step    Atoms         KinEng            CPU 
 1440329     1323     0.05666823              0 
 1646090     1321    0.039796019      2078.9333 
Loop time of 2078.93 on 40 procs for 205761 steps with 1321 atoms, finish time Mon Jan  2 17:34:15 2023


Pair  time (%) = 0.500823 (0.0240904)
Neigh time (%) = 3.2818 (0.15786)
Comm  time (%) = 3.44672 (0.165793)
Outpt time (%) = 0.000542186 (2.608e-05)
Other time (%) = 2071.7 (99.6522)

Nlocal:    33.025 ave 487 max 0 min
Histogram: 36 0 1 1 0 0 0 0 0 2
Nghost:    10.675 ave 135 max 0 min
Histogram: 36 0 0 0 0 1 1 0 0 2
Neighs:    11.725 ave 178 max 0 min
Histogram: 36 0 0 2 0 0 0 0 0 2

Total # of neighbors = 469
Ave neighs/atom = 0.355034
Neighbor list builds = 4051
Dangerous builds = 3
write_dump all custom dump.atom_info_ac_* id type x y z radius vx vy vz density #
run 205761
Setting up run at Mon Jan  2 17:34:15 2023

Memory usage per processor = 960.195 Mbytes
    Step    Atoms         KinEng            CPU 
 1646090     1321    0.039796019              0 
 1851851     1315     0.16091843      2162.8417 
Loop time of 2162.84 on 40 procs for 205761 steps with 1315 atoms, finish time Mon Jan  2 18:10:18 2023


Pair  time (%) = 0.507884 (0.0234822)
Neigh time (%) = 4.7754 (0.220793)
Comm  time (%) = 4.98421 (0.230447)
Outpt time (%) = 0.000634433 (2.93333e-05)
Other time (%) = 2152.57 (99.5252)

Nlocal:    32.875 ave 485 max 0 min
Histogram: 36 0 1 1 0 0 0 0 0 2
Nghost:    10.375 ave 139 max 0 min
Histogram: 36 0 0 0 0 2 0 0 1 1
Neighs:    11.675 ave 178 max 0 min
Histogram: 36 0 0 2 0 0 0 0 0 2

Total # of neighbors = 467
Ave neighs/atom = 0.355133
Neighbor list builds = 5874
Dangerous builds = 382
write_dump all custom dump.atom_info_ac_* id type x y z radius vx vy vz density #
run 205761
Setting up run at Mon Jan  2 18:10:18 2023

Memory usage per processor = 960.195 Mbytes
    Step    Atoms         KinEng            CPU 
 1851851     1315     0.16091843              0 
 2057612     1309      0.1217303      2114.0782 
Loop time of 2114.08 on 40 procs for 205761 steps with 1309 atoms, finish time Mon Jan  2 18:45:32 2023


Pair  time (%) = 0.507289 (0.0239958)
Neigh time (%) = 6.18479 (0.292553)
Comm  time (%) = 6.67446 (0.315715)
Outpt time (%) = 0.000603957 (2.85684e-05)
Other time (%) = 2100.71 (99.3677)

Nlocal:    32.725 ave 480 max 0 min
Histogram: 36 0 2 0 0 0 0 0 0 2
Nghost:    10.15 ave 135 max 0 min
Histogram: 36 0 0 0 0 1 1 0 1 1
Neighs:    11.25 ave 176 max 0 min
Histogram: 36 0 0 2 0 0 0 0 0 2

Total # of neighbors = 450
Ave neighs/atom = 0.343774
Neighbor list builds = 7583
Dangerous builds = 60
write_dump all custom dump.atom_info_ac_* id type x y z radius vx vy vz density #
run 205761
Setting up run at Mon Jan  2 18:45:32 2023

Memory usage per processor = 960.195 Mbytes
    Step    Atoms         KinEng            CPU 
 2057612     1309      0.1217303              0 
 2263373     1299     0.16153387      2140.8126 
Loop time of 2140.81 on 40 procs for 205761 steps with 1299 atoms, finish time Mon Jan  2 19:21:13 2023


Pair  time (%) = 0.508076 (0.0237329)
Neigh time (%) = 6.82531 (0.318819)
Comm  time (%) = 7.67203 (0.35837)
Outpt time (%) = 0.0210098 (0.000981394)
Other time (%) = 2125.79 (99.2981)

Nlocal:    32.475 ave 477 max 0 min
Histogram: 36 0 2 0 0 0 0 0 0 2
Nghost:    10.05 ave 125 max 0 min
Histogram: 36 0 0 0 0 1 1 0 0 2
Neighs:    10.675 ave 170 max 0 min
Histogram: 36 0 1 1 0 0 0 0 0 2

Total # of neighbors = 427
Ave neighs/atom = 0.328714
Neighbor list builds = 8367
Dangerous builds = 241
write_dump all custom dump.atom_info_ac_* id type x y z radius vx vy vz density #
run 205761
Setting up run at Mon Jan  2 19:21:13 2023

Memory usage per processor = 960.195 Mbytes
    Step    Atoms         KinEng            CPU 
 2263373     1299     0.16153387              0 
 2469134     1282     0.19723386      2120.5218 
Loop time of 2120.52 on 40 procs for 205761 steps with 1282 atoms, finish time Mon Jan  2 19:56:34 2023


Pair  time (%) = 0.509712 (0.0240371)
Neigh time (%) = 9.19588 (0.433661)
Comm  time (%) = 11.5231 (0.54341)
Outpt time (%) = 0.00061015 (2.87736e-05)
Other time (%) = 2099.29 (98.9989)

Nlocal:    32.05 ave 480 max 0 min
Histogram: 36 0 2 0 0 0 0 0 0 2
Nghost:    9.525 ave 123 max 0 min
Histogram: 36 0 0 0 0 1 1 0 1 1
Neighs:    10.75 ave 176 max 0 min
Histogram: 36 1 1 0 0 0 0 0 0 2

Total # of neighbors = 430
Ave neighs/atom = 0.335413
Neighbor list builds = 11347
Dangerous builds = 940
write_dump all custom dump.atom_info_ac_* id type x y z radius vx vy vz density #
run 205761
Setting up run at Mon Jan  2 19:56:34 2023

Memory usage per processor = 960.195 Mbytes
    Step    Atoms         KinEng            CPU 
 2469134     1282     0.19723386              0 
 2674895     1266     0.25885149      2105.0111 
Loop time of 2105.01 on 40 procs for 205761 steps with 1266 atoms, finish time Mon Jan  2 20:31:39 2023


Pair  time (%) = 0.507222 (0.0240959)
Neigh time (%) = 8.32836 (0.395644)
Comm  time (%) = 8.25074 (0.391957)
Outpt time (%) = 0.000662227 (3.14595e-05)
Other time (%) = 2087.92 (99.1883)

Nlocal:    31.65 ave 481 max 0 min
Histogram: 36 0 2 0 0 0 0 0 0 2
Nghost:    9.35 ave 115 max 0 min
Histogram: 36 0 0 0 0 0 2 0 1 1
Neighs:    10.575 ave 179 max 0 min
Histogram: 36 1 1 0 0 0 0 0 1 1

Total # of neighbors = 423
Ave neighs/atom = 0.334123
Neighbor list builds = 10225
Dangerous builds = 884
write_dump all custom dump.atom_info_ac_* id type x y z radius vx vy vz density #
run 205761
Setting up run at Mon Jan  2 20:31:39 2023

Memory usage per processor = 960.195 Mbytes
    Step    Atoms         KinEng            CPU 
 2674895     1266     0.25885149              0 
 2880656     1253     0.22136202       2103.877 
Loop time of 2103.89 on 40 procs for 205761 steps with 1253 atoms, finish time Mon Jan  2 21:06:43 2023


Pair  time (%) = 0.498925 (0.0237144)
Neigh time (%) = 7.76022 (0.368851)
Comm  time (%) = 8.95236 (0.425515)
Outpt time (%) = 0.000587921 (2.79444e-05)
Other time (%) = 2086.68 (99.1819)

Nlocal:    31.325 ave 480 max 0 min
Histogram: 36 0 2 0 0 0 0 0 0 2
Nghost:    9.425 ave 116 max 0 min
Histogram: 36 0 0 0 0 0 1 1 1 1
Neighs:    10.125 ave 169 max 0 min
Histogram: 36 1 1 0 0 0 0 0 0 2

Total # of neighbors = 405
Ave neighs/atom = 0.323224
Neighbor list builds = 9519
Dangerous builds = 730
write_dump all custom dump.atom_info_ac_* id type x y z radius vx vy vz density #
run 205761
Setting up run at Mon Jan  2 21:06:43 2023

Memory usage per processor = 960.195 Mbytes
    Step    Atoms         KinEng            CPU 
 2880656     1253     0.22136202              0 
 3086417     1237     0.39987565      2132.8313 
Loop time of 2132.83 on 40 procs for 205761 steps with 1237 atoms, finish time Mon Jan  2 21:42:16 2023


Pair  time (%) = 0.509571 (0.0238918)
Neigh time (%) = 10.8908 (0.510624)
Comm  time (%) = 13.9441 (0.653782)
Outpt time (%) = 0.000711983 (3.33821e-05)
Other time (%) = 2107.49 (98.8117)

Nlocal:    30.925 ave 485 max 0 min
Histogram: 36 0 2 0 0 0 0 0 0 2
Nghost:    9.175 ave 123 max 0 min
Histogram: 36 0 0 0 0 1 1 1 0 1
Neighs:    9.325 ave 161 max 0 min
Histogram: 36 1 1 0 0 0 0 0 0 2

Total # of neighbors = 373
Ave neighs/atom = 0.301536
Neighbor list builds = 13408
Dangerous builds = 1369
write_dump all custom dump.atom_info_ac_* id type x y z radius vx vy vz density #
run 205761
Setting up run at Mon Jan  2 21:42:16 2023

Memory usage per processor = 960.195 Mbytes
    Step    Atoms         KinEng            CPU 
 3086417     1237     0.39987565              0 
 3292178     1222     0.44943278      2104.2421 
Loop time of 2104.24 on 40 procs for 205761 steps with 1222 atoms, finish time Mon Jan  2 22:17:20 2023


Pair  time (%) = 0.502571 (0.0238837)
Neigh time (%) = 7.94426 (0.377536)
Comm  time (%) = 9.71791 (0.461824)
Outpt time (%) = 0.000641286 (3.04759e-05)
Other time (%) = 2086.08 (99.1367)

Nlocal:    30.55 ave 475 max 0 min
Histogram: 36 0 2 0 0 0 0 0 0 2
Nghost:    9 ave 120 max 0 min
Histogram: 36 0 0 0 0 1 1 1 0 1
Neighs:    9.65 ave 168 max 0 min
Histogram: 37 0 1 0 0 0 0 0 0 2

Total # of neighbors = 386
Ave neighs/atom = 0.315876
Neighbor list builds = 9736
Dangerous builds = 243
write_dump all custom dump.atom_info_ac_* id type x y z radius vx vy vz density #
run 205761
Setting up run at Mon Jan  2 22:17:20 2023

Memory usage per processor = 960.195 Mbytes
    Step    Atoms         KinEng            CPU 
 3292178     1222     0.44943278              0 
 3497939     1206      1.3153522      2105.4991 
Loop time of 2105.5 on 40 procs for 205761 steps with 1206 atoms, finish time Mon Jan  2 22:52:26 2023


Pair  time (%) = 0.494949 (0.0235074)
Neigh time (%) = 8.68612 (0.412543)
Comm  time (%) = 10.6904 (0.507735)
Outpt time (%) = 0.000596653 (2.83378e-05)
Other time (%) = 2085.63 (99.0562)

Nlocal:    30.15 ave 486 max 0 min
Histogram: 36 1 1 0 0 0 0 0 0 2
Nghost:    8.675 ave 109 max 0 min
Histogram: 36 0 0 0 0 0 2 0 1 1
Neighs:    9.1 ave 181 max 0 min
Histogram: 37 1 0 0 0 0 0 1 0 1

Total # of neighbors = 364
Ave neighs/atom = 0.301824
Neighbor list builds = 10665
Dangerous builds = 492
write_dump all custom dump.atom_info_ac_* id type x y z radius vx vy vz density #
run 205761
Setting up run at Mon Jan  2 22:52:26 2023

Memory usage per processor = 960.195 Mbytes
    Step    Atoms         KinEng            CPU 
 3497939     1206      1.3153522              0 
 3703700     1188     0.20584676      2119.6839 
Loop time of 2119.68 on 40 procs for 205761 steps with 1188 atoms, finish time Mon Jan  2 23:27:45 2023


Pair  time (%) = 0.493769 (0.0232944)
Neigh time (%) = 9.70974 (0.458075)
Comm  time (%) = 12.4688 (0.588238)
Outpt time (%) = 0.000723878 (3.41503e-05)
Other time (%) = 2097.01 (98.9304)

Nlocal:    29.7 ave 482 max 0 min
Histogram: 36 1 1 0 0 0 0 0 1 1
Nghost:    8.25 ave 103 max 0 min
Histogram: 36 0 0 0 0 0 2 0 1 1
Neighs:    8.85 ave 169 max 0 min
Histogram: 36 2 0 0 0 0 0 0 1 1

Total # of neighbors = 354
Ave neighs/atom = 0.29798
Neighbor list builds = 11879
Dangerous builds = 755
write_dump all custom dump.atom_info_ac_* id type x y z radius vx vy vz density #
run 205761
Setting up run at Mon Jan  2 23:27:45 2023

Memory usage per processor = 960.195 Mbytes
    Step    Atoms         KinEng            CPU 
 3703700     1188     0.20584676              0 
 3909461     1173     0.29659818      2131.1024 
Loop time of 2131.1 on 40 procs for 205761 steps with 1173 atoms, finish time Tue Jan  3 00:03:17 2023


Pair  time (%) = 0.492721 (0.0231205)
Neigh time (%) = 10.5386 (0.494512)
Comm  time (%) = 13.3948 (0.628537)
Outpt time (%) = 0.000689041 (3.23326e-05)
Other time (%) = 2106.68 (98.8538)

Nlocal:    29.325 ave 481 max 0 min
Histogram: 36 1 1 0 0 0 0 0 1 1
Nghost:    8.35 ave 106 max 0 min
Histogram: 36 0 0 0 0 0 2 1 0 1
Neighs:    8.75 ave 160 max 0 min
Histogram: 36 2 0 0 0 0 0 0 1 1

Total # of neighbors = 350
Ave neighs/atom = 0.29838
Neighbor list builds = 12867
Dangerous builds = 193
write_dump all custom dump.atom_info_ac_* id type x y z radius vx vy vz density #
run 205761
Setting up run at Tue Jan  3 00:03:17 2023

Memory usage per processor = 960.195 Mbytes
    Step    Atoms         KinEng            CPU 
 3909461     1173     0.29659818              0 
 4115222     1163     0.39496367       2208.401 
Loop time of 2208.4 on 40 procs for 205761 steps with 1163 atoms, finish time Tue Jan  3 00:40:05 2023


Pair  time (%) = 0.519681 (0.023532)
Neigh time (%) = 18.666 (0.845227)
Comm  time (%) = 20.8614 (0.94464)
Outpt time (%) = 0.000612254 (2.77238e-05)
Other time (%) = 2168.35 (98.1866)

Nlocal:    29.075 ave 473 max 0 min
Histogram: 36 1 1 0 0 0 0 0 1 1
Nghost:    8.125 ave 104 max 0 min
Histogram: 36 0 0 0 0 0 1 2 0 1
Neighs:    7.825 ave 154 max 0 min
Histogram: 36 2 0 0 0 0 0 1 0 1

Total # of neighbors = 313
Ave neighs/atom = 0.269132
Neighbor list builds = 23163
Dangerous builds = 8763
write_dump all custom dump.atom_info_ac_* id type x y z radius vx vy vz density #
run 205761
Setting up run at Tue Jan  3 00:40:05 2023

Memory usage per processor = 960.195 Mbytes
    Step    Atoms         KinEng            CPU 
 4115222     1163     0.39496367              0 
 4320983     1150     0.26925219      2119.1169 
Loop time of 2119.12 on 40 procs for 205761 steps with 1150 atoms, finish time Tue Jan  3 01:15:24 2023


Pair  time (%) = 0.485605 (0.0229154)
Neigh time (%) = 9.20704 (0.434475)
Comm  time (%) = 9.58355 (0.452243)
Outpt time (%) = 0.000631231 (2.97874e-05)
Other time (%) = 2099.84 (99.0903)

Nlocal:    28.75 ave 463 max 0 min
Histogram: 36 1 1 0 0 0 0 0 1 1
Nghost:    7.85 ave 96 max 0 min
Histogram: 36 0 0 0 0 0 1 2 0 1
Neighs:    7.975 ave 163 max 0 min
Histogram: 36 2 0 0 0 0 1 0 0 1

Total # of neighbors = 319
Ave neighs/atom = 0.277391
Neighbor list builds = 11218
Dangerous builds = 19
write_dump all custom dump.atom_info_ac_* id type x y z radius vx vy vz density #
run 205761
Setting up run at Tue Jan  3 01:15:24 2023

Memory usage per processor = 960.195 Mbytes
    Step    Atoms         KinEng            CPU 
 4320983     1150     0.26925219              0 
 4526744     1135     0.34585366      2100.5571 
Loop time of 2100.56 on 40 procs for 205761 steps with 1135 atoms, finish time Tue Jan  3 01:50:25 2023


Pair  time (%) = 0.478648 (0.0227867)
Neigh time (%) = 7.86991 (0.374658)
Comm  time (%) = 11.0692 (0.526964)
Outpt time (%) = 0.0197007 (0.000937881)
Other time (%) = 2081.12 (99.0747)

Nlocal:    28.375 ave 455 max 0 min
Histogram: 36 1 1 0 0 0 0 0 0 2
Nghost:    8.075 ave 99 max 0 min
Histogram: 36 0 0 0 0 0 1 2 0 1
Neighs:    7.5 ave 153 max 0 min
Histogram: 36 2 0 0 0 0 0 1 0 1

Total # of neighbors = 300
Ave neighs/atom = 0.264317
Neighbor list builds = 9624
Dangerous builds = 192
write_dump all custom dump.atom_info_ac_* id type x y z radius vx vy vz density #
run 205761
Setting up run at Tue Jan  3 01:50:25 2023

Memory usage per processor = 960.195 Mbytes
    Step    Atoms         KinEng            CPU 
 4526744     1135     0.34585366              0 
 4732505     1124     0.23011778      2111.7771 
Loop time of 2111.78 on 40 procs for 205761 steps with 1124 atoms, finish time Tue Jan  3 02:25:37 2023


Pair  time (%) = 0.47812 (0.0226406)
Neigh time (%) = 8.57832 (0.406213)
Comm  time (%) = 10.2427 (0.485026)
Outpt time (%) = 0.000649831 (3.07717e-05)
Other time (%) = 2092.48 (99.0861)

Nlocal:    28.1 ave 442 max 0 min
Histogram: 36 1 1 0 0 0 0 0 0 2
Nghost:    7.625 ave 98 max 0 min
Histogram: 36 0 0 0 0 0 2 1 0 1
Neighs:    7.175 ave 142 max 0 min
Histogram: 36 2 0 0 0 0 0 1 0 1

Total # of neighbors = 287
Ave neighs/atom = 0.255338
Neighbor list builds = 10446
Dangerous builds = 11
write_dump all custom dump.atom_info_ac_* id type x y z radius vx vy vz density #
run 205761
Setting up run at Tue Jan  3 02:25:37 2023

Memory usage per processor = 960.195 Mbytes
    Step    Atoms         KinEng            CPU 
 4732505     1124     0.23011778              0 
 4938266     1114     0.48238136      2106.1363 
Loop time of 2106.14 on 40 procs for 205761 steps with 1114 atoms, finish time Tue Jan  3 03:00:43 2023


Pair  time (%) = 0.477454 (0.0226697)
Neigh time (%) = 8.69279 (0.412736)
Comm  time (%) = 9.42642 (0.447569)
Outpt time (%) = 0.000658387 (3.12604e-05)
Other time (%) = 2087.54 (99.117)

Nlocal:    27.85 ave 437 max 0 min
Histogram: 36 1 1 0 0 0 0 0 0 2
Nghost:    7.475 ave 91 max 0 min
Histogram: 36 0 0 0 0 0 1 2 0 1
Neighs:    6.925 ave 138 max 0 min
Histogram: 36 1 1 0 0 0 1 0 0 1

Total # of neighbors = 277
Ave neighs/atom = 0.248654
Neighbor list builds = 10565
Dangerous builds = 5
write_dump all custom dump.atom_info_ac_* id type x y z radius vx vy vz density #
run 205761
Setting up run at Tue Jan  3 03:00:43 2023

Memory usage per processor = 960.195 Mbytes
    Step    Atoms         KinEng            CPU 
 4938266     1114     0.48238136              0 
 5144027     1098      0.3209441      2123.3926 
Loop time of 2123.39 on 40 procs for 205761 steps with 1098 atoms, finish time Tue Jan  3 03:36:07 2023


Pair  time (%) = 0.483051 (0.022749)
Neigh time (%) = 10.9248 (0.514496)
Comm  time (%) = 11.3089 (0.532584)
Outpt time (%) = 0.000640198 (3.01498e-05)
Other time (%) = 2100.68 (98.9301)

Nlocal:    27.45 ave 434 max 0 min
Histogram: 36 1 1 0 0 0 0 0 0 2
Nghost:    7.25 ave 82 max 0 min
Histogram: 36 0 0 0 0 0 0 1 2 1
Neighs:    6.175 ave 132 max 0 min
Histogram: 37 1 0 0 0 0 1 0 0 1

Total # of neighbors = 247
Ave neighs/atom = 0.224954
Neighbor list builds = 13375
Dangerous builds = 824
write_dump all custom dump.atom_info_ac_* id type x y z radius vx vy vz density #
run 205761
Setting up run at Tue Jan  3 03:36:07 2023

Memory usage per processor = 960.195 Mbytes
    Step    Atoms         KinEng            CPU 
 5144027     1098      0.3209441              0 
 5349788     1089     0.28284778      2108.5059 
Loop time of 2108.51 on 40 procs for 205761 steps with 1089 atoms, finish time Tue Jan  3 04:11:15 2023


Pair  time (%) = 0.472624 (0.0224151)
Neigh time (%) = 8.02812 (0.380749)
Comm  time (%) = 11.0685 (0.524946)
Outpt time (%) = 0.00415583 (0.000197098)
Other time (%) = 2088.93 (99.0717)

Nlocal:    27.225 ave 428 max 0 min
Histogram: 36 1 1 0 0 0 0 0 0 2
Nghost:    6.875 ave 79 max 0 min
Histogram: 36 0 0 0 0 0 1 1 1 1
Neighs:    6.775 ave 140 max 0 min
Histogram: 36 2 0 0 0 0 0 1 0 1

Total # of neighbors = 271
Ave neighs/atom = 0.248852
Neighbor list builds = 9855
Dangerous builds = 1279
write_dump all custom dump.atom_info_ac_* id type x y z radius vx vy vz density #
run 205761
Setting up run at Tue Jan  3 04:11:15 2023

Memory usage per processor = 960.195 Mbytes
    Step    Atoms         KinEng            CPU 
 5349788     1089     0.28284778              0 
 5555549     1076     0.30899648      2093.9605 
Loop time of 2093.97 on 40 procs for 205761 steps with 1076 atoms, finish time Tue Jan  3 04:46:09 2023


Pair  time (%) = 0.469379 (0.0224157)
Neigh time (%) = 8.02604 (0.383292)
Comm  time (%) = 12.2096 (0.583083)
Outpt time (%) = 0.000547021 (2.61236e-05)
Other time (%) = 2073.27 (99.0112)

Nlocal:    26.9 ave 420 max 0 min
Histogram: 36 1 1 0 0 0 0 0 0 2
Nghost:    6.875 ave 80 max 0 min
Histogram: 36 0 0 0 0 0 1 1 0 2
Neighs:    6.45 ave 132 max 0 min
Histogram: 36 2 0 0 0 0 1 0 0 1

Total # of neighbors = 258
Ave neighs/atom = 0.239777
Neighbor list builds = 9828
Dangerous builds = 527
write_dump all custom dump.atom_info_ac_* id type x y z radius vx vy vz density #
run 205761
Setting up run at Tue Jan  3 04:46:09 2023

Memory usage per processor = 960.195 Mbytes
    Step    Atoms         KinEng            CPU 
 5555549     1076     0.30899648              0 
 5761310     1068     0.35284792      2097.0909 
Loop time of 2097.09 on 40 procs for 205761 steps with 1068 atoms, finish time Tue Jan  3 05:21:07 2023


Pair  time (%) = 0.470536 (0.0224376)
Neigh time (%) = 8.26511 (0.394123)
Comm  time (%) = 10.4334 (0.497515)
Outpt time (%) = 0.000548112 (2.61367e-05)
Other time (%) = 2077.92 (99.0859)

Nlocal:    26.7 ave 412 max 0 min
Histogram: 36 1 1 0 0 0 0 0 0 2
Nghost:    6.65 ave 80 max 0 min
Histogram: 36 0 0 0 0 0 1 1 0 2
Neighs:    5.85 ave 127 max 0 min
Histogram: 36 2 0 0 0 1 0 0 0 1

Total # of neighbors = 234
Ave neighs/atom = 0.219101
Neighbor list builds = 10118
Dangerous builds = 313
write_dump all custom dump.atom_info_ac_* id type x y z radius vx vy vz density #
run 205761
Setting up run at Tue Jan  3 05:21:07 2023

Memory usage per processor = 960.195 Mbytes
    Step    Atoms         KinEng            CPU 
 5761310     1068     0.35284792              0 
 5967071     1054     0.32056835      2094.5192 
Loop time of 2094.52 on 40 procs for 205761 steps with 1054 atoms, finish time Tue Jan  3 05:56:01 2023


Pair  time (%) = 0.466543 (0.0222745)
Neigh time (%) = 9.0695 (0.433011)
Comm  time (%) = 10.7672 (0.514066)
Outpt time (%) = 0.000529156 (2.52638e-05)
Other time (%) = 2074.22 (99.0306)

Nlocal:    26.35 ave 400 max 0 min
Histogram: 36 0 2 0 0 0 0 0 0 2
Nghost:    6.675 ave 89 max 0 min
Histogram: 36 0 0 0 0 1 1 0 1 1
Neighs:    5.7 ave 123 max 0 min
Histogram: 36 2 0 0 0 1 0 0 0 1

Total # of neighbors = 228
Ave neighs/atom = 0.216319
Neighbor list builds = 11114
Dangerous builds = 171
write_dump all custom dump.atom_info_ac_* id type x y z radius vx vy vz density #
run 205761
Setting up run at Tue Jan  3 05:56:01 2023

Memory usage per processor = 960.195 Mbytes
    Step    Atoms         KinEng            CPU 
 5967071     1054     0.32056835              0 
 6172832     1042     0.28086408      2076.2571 
Loop time of 2076.26 on 40 procs for 205761 steps with 1042 atoms, finish time Tue Jan  3 06:30:37 2023


Pair  time (%) = 0.470294 (0.022651)
Neigh time (%) = 8.64728 (0.416484)
Comm  time (%) = 10.0018 (0.481723)
Outpt time (%) = 0.000446372 (2.14989e-05)
Other time (%) = 2057.14 (99.0791)

Nlocal:    26.05 ave 396 max 0 min
Histogram: 36 0 2 0 0 0 0 0 0 2
Nghost:    6.525 ave 84 max 0 min
Histogram: 36 0 0 0 0 1 1 1 0 1
Neighs:    6.25 ave 132 max 0 min
Histogram: 36 2 0 0 0 1 0 0 0 1

Total # of neighbors = 250
Ave neighs/atom = 0.239923
Neighbor list builds = 10579
Dangerous builds = 8
write_dump all custom dump.atom_info_ac_* id type x y z radius vx vy vz density #
run 205761
Setting up run at Tue Jan  3 06:30:38 2023

Memory usage per processor = 960.195 Mbytes
    Step    Atoms         KinEng            CPU 
 6172832     1042     0.28086408              0 
 6378593     1027     0.31515868      2071.9592 
Loop time of 2071.96 on 40 procs for 205761 steps with 1027 atoms, finish time Tue Jan  3 07:05:10 2023


Pair  time (%) = 0.464832 (0.0224344)
Neigh time (%) = 8.5761 (0.413913)
Comm  time (%) = 9.59128 (0.462909)
Outpt time (%) = 0.000530811 (2.56188e-05)
Other time (%) = 2053.33 (99.1007)

Nlocal:    25.675 ave 398 max 0 min
Histogram: 36 0 2 0 0 0 0 0 0 2
Nghost:    6.575 ave 81 max 0 min
Histogram: 36 0 0 0 0 1 0 1 1 1
Neighs:    6.225 ave 129 max 0 min
Histogram: 36 2 0 0 0 0 1 0 0 1

Total # of neighbors = 249
Ave neighs/atom = 0.242454
Neighbor list builds = 10525
Dangerous builds = 480
write_dump all custom dump.atom_info_ac_* id type x y z radius vx vy vz density #
run 205761
Setting up run at Tue Jan  3 07:05:10 2023

Memory usage per processor = 960.195 Mbytes
    Step    Atoms         KinEng            CPU 
 6378593     1027     0.31515868              0 
 6584354     1013     0.33260499       2067.574 
Loop time of 2067.57 on 40 procs for 205761 steps with 1013 atoms, finish time Tue Jan  3 07:39:37 2023


Pair  time (%) = 0.461839 (0.0223372)
Neigh time (%) = 8.46795 (0.40956)
Comm  time (%) = 9.34843 (0.452145)
Outpt time (%) = 0.000528338 (2.55535e-05)
Other time (%) = 2049.3 (99.1159)

Nlocal:    25.325 ave 394 max 0 min
Histogram: 36 1 1 0 0 0 0 0 0 2
Nghost:    6.375 ave 79 max 0 min
Histogram: 36 0 0 0 0 0 2 0 1 1
Neighs:    5.65 ave 121 max 0 min
Histogram: 36 2 0 0 0 1 0 0 0 1

Total # of neighbors = 226
Ave neighs/atom = 0.2231
Neighbor list builds = 10362
Dangerous builds = 238
write_dump all custom dump.atom_info_ac_* id type x y z radius vx vy vz density #
run 205761
Setting up run at Tue Jan  3 07:39:37 2023

Memory usage per processor = 960.195 Mbytes
    Step    Atoms         KinEng            CPU 
 6584354     1013     0.33260499              0 
 6790115      997     0.33654196      2100.0686 
Loop time of 2100.08 on 40 procs for 205761 steps with 997 atoms, finish time Tue Jan  3 08:14:37 2023


Pair  time (%) = 0.46568 (0.0221743)
Neigh time (%) = 11.9308 (0.568113)
Comm  time (%) = 14.0136 (0.667289)
Outpt time (%) = 0.000522594 (2.48844e-05)
Other time (%) = 2073.67 (98.7424)

Nlocal:    24.925 ave 398 max 0 min
Histogram: 36 1 1 0 0 0 0 0 0 2
Nghost:    6.575 ave 78 max 0 min
Histogram: 36 0 0 0 0 1 0 1 0 2
Neighs:    5.725 ave 121 max 0 min
Histogram: 36 2 0 0 0 1 0 0 0 1

Total # of neighbors = 229
Ave neighs/atom = 0.229689
Neighbor list builds = 14608
Dangerous builds = 7
write_dump all custom dump.atom_info_ac_* id type x y z radius vx vy vz density #
run 205761
Setting up run at Tue Jan  3 08:14:37 2023

Memory usage per processor = 960.195 Mbytes
    Step    Atoms         KinEng            CPU 
 6790115      997     0.33654196              0 
 6995876      981     0.29992409      2085.8199 
Loop time of 2085.82 on 40 procs for 205761 steps with 981 atoms, finish time Tue Jan  3 08:49:23 2023


Pair  time (%) = 0.459774 (0.0220429)
Neigh time (%) = 10.1177 (0.485073)
Comm  time (%) = 12.2755 (0.588524)
Outpt time (%) = 0.000556482 (2.66793e-05)
Other time (%) = 2062.97 (98.9043)

Nlocal:    24.525 ave 394 max 0 min
Histogram: 36 0 2 0 0 0 0 0 1 1
Nghost:    6.4 ave 76 max 0 min
Histogram: 36 0 0 0 0 1 0 1 0 2
Neighs:    5.45 ave 120 max 0 min
Histogram: 36 2 0 0 0 1 0 0 0 1

Total # of neighbors = 218
Ave neighs/atom = 0.222222
Neighbor list builds = 12428
Dangerous builds = 871
write_dump all custom dump.atom_info_ac_* id type x y z radius vx vy vz density #
run 205761
Setting up run at Tue Jan  3 08:49:23 2023

Memory usage per processor = 960.195 Mbytes
    Step    Atoms         KinEng            CPU 
 6995876      981     0.29992409              0 
 7201637      972     0.41618619       2066.572 
Loop time of 2066.57 on 40 procs for 205761 steps with 972 atoms, finish time Tue Jan  3 09:23:50 2023


Pair  time (%) = 0.450767 (0.0218123)
Neigh time (%) = 8.18036 (0.395842)
Comm  time (%) = 10.8391 (0.524495)
Outpt time (%) = 0.00051017 (2.46868e-05)
Other time (%) = 2047.1 (99.0578)

Nlocal:    24.3 ave 391 max 0 min
Histogram: 36 1 1 0 0 0 0 0 0 2
Nghost:    6.15 ave 71 max 0 min
Histogram: 36 0 0 0 0 1 0 1 0 2
Neighs:    5.25 ave 111 max 0 min
Histogram: 36 2 0 0 0 1 0 0 0 1

Total # of neighbors = 210
Ave neighs/atom = 0.216049
Neighbor list builds = 10043
Dangerous builds = 108
write_dump all custom dump.atom_info_ac_* id type x y z radius vx vy vz density #
run 205761
Setting up run at Tue Jan  3 09:23:50 2023

Memory usage per processor = 960.195 Mbytes
    Step    Atoms         KinEng            CPU 
 7201637      972     0.41618619              0 
 7407398      964     0.31648375      2076.8467 
Loop time of 2076.85 on 40 procs for 205761 steps with 964 atoms, finish time Tue Jan  3 09:58:27 2023


Pair  time (%) = 0.451817 (0.0217549)
Neigh time (%) = 8.78875 (0.423177)
Comm  time (%) = 12.069 (0.581123)
Outpt time (%) = 0.000474738 (2.28586e-05)
Other time (%) = 2055.54 (98.9739)

Nlocal:    24.1 ave 391 max 0 min
Histogram: 36 1 1 0 0 0 0 0 1 1
Nghost:    6.375 ave 75 max 0 min
Histogram: 36 0 0 0 0 1 0 1 0 2
Neighs:    5.1 ave 108 max 0 min
Histogram: 36 2 0 0 0 1 0 0 0 1

Total # of neighbors = 204
Ave neighs/atom = 0.211618
Neighbor list builds = 10757
Dangerous builds = 13
write_dump all custom dump.atom_info_ac_* id type x y z radius vx vy vz density #
run 205761
Setting up run at Tue Jan  3 09:58:27 2023

Memory usage per processor = 960.195 Mbytes
    Step    Atoms         KinEng            CPU 
 7407398      964     0.31648375              0 
 7613159      954     0.25390011      2053.6286 
Loop time of 2053.63 on 40 procs for 205761 steps with 954 atoms, finish time Tue Jan  3 10:32:41 2023


Pair  time (%) = 0.442519 (0.0215482)
Neigh time (%) = 8.00628 (0.38986)
Comm  time (%) = 11.1346 (0.542194)
Outpt time (%) = 0.000579292 (2.82082e-05)
Other time (%) = 2034.04 (99.0464)

Nlocal:    23.85 ave 385 max 0 min
Histogram: 36 1 1 0 0 0 0 0 1 1
Nghost:    6.075 ave 74 max 0 min
Histogram: 36 0 0 0 0 1 1 0 0 2
Neighs:    5 ave 105 max 0 min
Histogram: 36 2 0 0 0 1 0 0 0 1

Total # of neighbors = 200
Ave neighs/atom = 0.209644
Neighbor list builds = 9820
Dangerous builds = 18
write_dump all custom dump.atom_info_ac_* id type x y z radius vx vy vz density #
run 205761
Setting up run at Tue Jan  3 10:32:41 2023

Memory usage per processor = 960.195 Mbytes
    Step    Atoms         KinEng            CPU 
 7613159      954     0.25390011              0 
 7818920      938     0.27082788      2131.9913 
Loop time of 2131.99 on 40 procs for 205761 steps with 938 atoms, finish time Tue Jan  3 11:08:13 2023


Pair  time (%) = 0.440449 (0.020659)
Neigh time (%) = 8.01616 (0.375994)
Comm  time (%) = 8.98775 (0.421566)
Outpt time (%) = 0.000511053 (2.39707e-05)
Other time (%) = 2114.55 (99.1818)

Nlocal:    23.45 ave 379 max 0 min
Histogram: 36 1 1 0 0 0 0 0 0 2
Nghost:    5.9 ave 71 max 0 min
Histogram: 36 0 0 0 0 1 0 1 0 2
Neighs:    5 ave 100 max 0 min
Histogram: 36 1 1 0 0 0 1 0 0 1

Total # of neighbors = 200
Ave neighs/atom = 0.21322
Neighbor list builds = 9770
Dangerous builds = 25
write_dump all custom dump.atom_info_ac_* id type x y z radius vx vy vz density #
run 205761
Setting up run at Tue Jan  3 11:08:14 2023

Memory usage per processor = 960.195 Mbytes
    Step    Atoms         KinEng            CPU 
 7818920      938     0.27082788              0 
 8024681      920      1.6541317       2068.078 
Loop time of 2068.08 on 40 procs for 205761 steps with 920 atoms, finish time Tue Jan  3 11:42:42 2023


Pair  time (%) = 0.448406 (0.0216822)
Neigh time (%) = 9.25112 (0.44733)
Comm  time (%) = 10.4074 (0.503242)
Outpt time (%) = 0.000468483 (2.2653e-05)
Other time (%) = 2047.97 (99.0277)

Nlocal:    23 ave 366 max 0 min
Histogram: 36 2 0 0 0 0 0 0 0 2
Nghost:    5.85 ave 81 max 0 min
Histogram: 36 0 0 0 0 2 0 1 0 1
Neighs:    4.925 ave 99 max 0 min
Histogram: 36 1 1 0 0 0 1 0 0 1

Total # of neighbors = 197
Ave neighs/atom = 0.21413
Neighbor list builds = 11334
Dangerous builds = 230
write_dump all custom dump.atom_info_ac_* id type x y z radius vx vy vz density #
run 205761
Setting up run at Tue Jan  3 11:42:43 2023

Memory usage per processor = 960.195 Mbytes
    Step    Atoms         KinEng            CPU 
 8024681      920      1.6541317              0 
 8230442      912     0.26074919      2048.0119 
Loop time of 2048.01 on 40 procs for 205761 steps with 912 atoms, finish time Tue Jan  3 12:16:51 2023


Pair  time (%) = 0.439766 (0.0214728)
Neigh time (%) = 6.7293 (0.328577)
Comm  time (%) = 7.62299 (0.372214)
Outpt time (%) = 0.000568232 (2.77455e-05)
Other time (%) = 2033.22 (99.2777)

Nlocal:    22.8 ave 368 max 0 min
Histogram: 36 1 1 0 0 0 0 0 0 2
Nghost:    5.525 ave 66 max 0 min
Histogram: 36 0 0 0 0 0 2 0 0 2
Neighs:    4.625 ave 91 max 0 min
Histogram: 36 1 1 0 0 0 1 0 0 1

Total # of neighbors = 185
Ave neighs/atom = 0.202851
Neighbor list builds = 8254
Dangerous builds = 158
write_dump all custom dump.atom_info_ac_* id type x y z radius vx vy vz density #
run 205761
Setting up run at Tue Jan  3 12:16:51 2023

Memory usage per processor = 960.195 Mbytes
    Step    Atoms         KinEng            CPU 
 8230442      912     0.26074919              0 
 8436203      905      0.2318918      2065.3313 
Loop time of 2065.33 on 40 procs for 205761 steps with 905 atoms, finish time Tue Jan  3 12:51:16 2023


Pair  time (%) = 0.437203 (0.0211686)
Neigh time (%) = 7.88547 (0.381802)
Comm  time (%) = 10.1548 (0.491678)
Outpt time (%) = 0.000655062 (3.1717e-05)
Other time (%) = 2046.85 (99.1053)

Nlocal:    22.625 ave 367 max 0 min
Histogram: 36 1 1 0 0 0 0 0 0 2
Nghost:    5.725 ave 66 max 0 min
Histogram: 36 0 0 0 0 0 1 1 0 2
Neighs:    4.2 ave 91 max 0 min
Histogram: 36 2 0 0 0 1 0 0 0 1

Total # of neighbors = 168
Ave neighs/atom = 0.185635
Neighbor list builds = 9688
Dangerous builds = 450
write_dump all custom dump.atom_info_ac_* id type x y z radius vx vy vz density #
run 205761
Setting up run at Tue Jan  3 12:51:16 2023

Memory usage per processor = 960.195 Mbytes
    Step    Atoms         KinEng            CPU 
 8436203      905      0.2318918              0 
 8641964      896      0.2793421      2065.3184 
Loop time of 2065.32 on 40 procs for 205761 steps with 896 atoms, finish time Tue Jan  3 13:25:41 2023


Pair  time (%) = 0.432196 (0.0209264)
Neigh time (%) = 7.16545 (0.346941)
Comm  time (%) = 8.71722 (0.422076)
Outpt time (%) = 0.000729834 (3.53376e-05)
Other time (%) = 2049 (99.21)

Nlocal:    22.4 ave 366 max 0 min
Histogram: 36 1 1 0 0 0 0 0 1 1
Nghost:    5.6 ave 63 max 0 min
Histogram: 36 0 0 0 0 0 0 1 1 2
Neighs:    3.875 ave 86 max 0 min
Histogram: 36 2 0 0 0 1 0 0 0 1

Total # of neighbors = 155
Ave neighs/atom = 0.172991
Neighbor list builds = 8788
Dangerous builds = 468
write_dump all custom dump.atom_info_ac_* id type x y z radius vx vy vz density #
run 205761
Setting up run at Tue Jan  3 13:25:41 2023

Memory usage per processor = 960.195 Mbytes
    Step    Atoms         KinEng            CPU 
 8641964      896      0.2793421              0 
 8847725      888     0.40263067      2095.0973 
Loop time of 2095.1 on 40 procs for 205761 steps with 888 atoms, finish time Tue Jan  3 14:00:37 2023


Pair  time (%) = 0.44145 (0.0210706)
Neigh time (%) = 10.273 (0.490336)
Comm  time (%) = 13.4087 (0.640004)
Outpt time (%) = 0.000692534 (3.3055e-05)
Other time (%) = 2070.97 (98.8486)

Nlocal:    22.2 ave 363 max 0 min
Histogram: 36 2 0 0 0 0 0 0 1 1
Nghost:    5.475 ave 68 max 0 min
Histogram: 36 0 0 0 0 0 1 2 0 1
Neighs:    4.075 ave 91 max 0 min
Histogram: 36 2 0 0 1 0 0 0 0 1

Total # of neighbors = 163
Ave neighs/atom = 0.183559
Neighbor list builds = 12565
Dangerous builds = 124
write_dump all custom dump.atom_info_ac_* id type x y z radius vx vy vz density #
run 205761
Setting up run at Tue Jan  3 14:00:37 2023

Memory usage per processor = 960.195 Mbytes
    Step    Atoms         KinEng            CPU 
 8847725      888     0.40263067              0 
 9053486      877     0.40813139      2076.4785 
Loop time of 2076.48 on 40 procs for 205761 steps with 877 atoms, finish time Tue Jan  3 14:35:13 2023


Pair  time (%) = 0.434794 (0.020939)
Neigh time (%) = 8.67325 (0.41769)
Comm  time (%) = 10.6249 (0.511677)
Outpt time (%) = 0.000562121 (2.70709e-05)
Other time (%) = 2056.75 (99.0497)

Nlocal:    21.925 ave 355 max 0 min
Histogram: 36 1 1 0 0 0 0 0 0 2
Nghost:    5.75 ave 73 max 0 min
Histogram: 36 0 0 0 0 0 2 1 0 1
Neighs:    3.95 ave 81 max 0 min
Histogram: 36 1 1 0 0 1 0 0 0 1

Total # of neighbors = 158
Ave neighs/atom = 0.18016
Neighbor list builds = 10641
Dangerous builds = 27
write_dump all custom dump.atom_info_ac_* id type x y z radius vx vy vz density #
run 205761
Setting up run at Tue Jan  3 14:35:13 2023

Memory usage per processor = 960.195 Mbytes
    Step    Atoms         KinEng            CPU 
 9053486      877     0.40813139              0 
 9259247      859      0.4056447      2101.7175 
Loop time of 2101.72 on 40 procs for 205761 steps with 859 atoms, finish time Tue Jan  3 15:10:15 2023


Pair  time (%) = 0.444152 (0.0211328)
Neigh time (%) = 11.383 (0.541603)
Comm  time (%) = 10.4691 (0.498123)
Outpt time (%) = 0.000520931 (2.4786e-05)
Other time (%) = 2079.42 (98.9391)

Nlocal:    21.475 ave 355 max 0 min
Histogram: 36 1 1 0 0 0 0 0 1 1
Nghost:    5.325 ave 70 max 0 min
Histogram: 36 0 0 0 0 1 0 2 0 1
Neighs:    3.925 ave 81 max 0 min
Histogram: 37 0 1 0 0 1 0 0 0 1

Total # of neighbors = 157
Ave neighs/atom = 0.182771
Neighbor list builds = 13981
Dangerous builds = 561
write_dump all custom dump.atom_info_ac_* id type x y z radius vx vy vz density #
run 205761
Setting up run at Tue Jan  3 15:10:15 2023

Memory usage per processor = 960.195 Mbytes
    Step    Atoms         KinEng            CPU 
 9259247      859      0.4056447              0 
 9465008      850     0.42263496      2055.0632 
Loop time of 2055.06 on 40 procs for 205761 steps with 850 atoms, finish time Tue Jan  3 15:44:30 2023


Pair  time (%) = 0.428189 (0.0208358)
Neigh time (%) = 7.05435 (0.343267)
Comm  time (%) = 8.91368 (0.433742)
Outpt time (%) = 0.000624084 (3.03681e-05)
Other time (%) = 2038.67 (99.2021)

Nlocal:    21.25 ave 363 max 0 min
Histogram: 36 1 1 0 0 0 0 0 1 1
Nghost:    5.225 ave 66 max 0 min
Histogram: 36 0 0 0 0 1 0 2 0 1
Neighs:    4.225 ave 85 max 0 min
Histogram: 37 0 1 0 0 0 1 0 0 1

Total # of neighbors = 169
Ave neighs/atom = 0.198824
Neighbor list builds = 8661
Dangerous builds = 578
write_dump all custom dump.atom_info_ac_* id type x y z radius vx vy vz density #
run 205761
Setting up run at Tue Jan  3 15:44:30 2023

Memory usage per processor = 960.195 Mbytes
    Step    Atoms         KinEng            CPU 
 9465008      850     0.42263496              0 
 9670769      838     0.21699324      2055.5754 
Loop time of 2055.58 on 40 procs for 205761 steps with 838 atoms, finish time Tue Jan  3 16:18:46 2023


Pair  time (%) = 0.423611 (0.0206079)
Neigh time (%) = 7.3311 (0.356645)
Comm  time (%) = 7.82915 (0.380874)
Outpt time (%) = 0.000472933 (2.30073e-05)
Other time (%) = 2039.99 (99.2419)

Nlocal:    20.95 ave 354 max 0 min
Histogram: 36 1 1 0 0 0 0 0 1 1
Nghost:    5.05 ave 72 max 0 min
Histogram: 36 0 0 0 1 0 2 0 0 1
Neighs:    3.625 ave 75 max 0 min
Histogram: 36 1 1 0 0 0 1 0 0 1

Total # of neighbors = 145
Ave neighs/atom = 0.173031
Neighbor list builds = 8943
Dangerous builds = 24
write_dump all custom dump.atom_info_ac_* id type x y z radius vx vy vz density #
run 205761
Setting up run at Tue Jan  3 16:18:46 2023

Memory usage per processor = 960.195 Mbytes
    Step    Atoms         KinEng            CPU 
 9670769      838     0.21699324              0 
 9876530      825     0.12272949      2091.1027 
Loop time of 2091.1 on 40 procs for 205761 steps with 825 atoms, finish time Tue Jan  3 16:53:37 2023


Pair  time (%) = 0.431743 (0.0206466)
Neigh time (%) = 10.3471 (0.494815)
Comm  time (%) = 9.62534 (0.4603)
Outpt time (%) = 0.000628023 (3.00331e-05)
Other time (%) = 2070.7 (99.0242)

Nlocal:    20.625 ave 353 max 0 min
Histogram: 36 1 1 0 0 0 0 0 1 1
Nghost:    5.15 ave 70 max 0 min
Histogram: 36 0 0 0 1 0 2 0 0 1
Neighs:    3.625 ave 76 max 0 min
Histogram: 37 0 1 0 0 1 0 0 0 1

Total # of neighbors = 145
Ave neighs/atom = 0.175758
Neighbor list builds = 12587
Dangerous builds = 420
write_dump all custom dump.atom_info_ac_* id type x y z radius vx vy vz density #
run 205761
Setting up run at Tue Jan  3 16:53:37 2023

Memory usage per processor = 960.195 Mbytes
    Step    Atoms         KinEng            CPU 
 9876530      825     0.12272949              0 
10082291      819     0.16419519      2055.8563 
Loop time of 2055.86 on 40 procs for 205761 steps with 819 atoms, finish time Tue Jan  3 17:27:53 2023


Pair  time (%) = 0.418005 (0.0203324)
Neigh time (%) = 6.92986 (0.337079)
Comm  time (%) = 8.26202 (0.401877)
Outpt time (%) = 0.000597391 (2.9058e-05)
Other time (%) = 2040.25 (99.2407)

Nlocal:    20.475 ave 354 max 0 min
Histogram: 36 1 1 0 0 0 0 1 0 1
Nghost:    4.975 ave 67 max 0 min
Histogram: 36 0 0 0 0 1 1 1 0 1
Neighs:    3.45 ave 77 max 0 min
Histogram: 37 0 1 0 1 0 0 0 0 1

Total # of neighbors = 138
Ave neighs/atom = 0.168498
Neighbor list builds = 8440
Dangerous builds = 234
write_dump all custom dump.atom_info_ac_* id type x y z radius vx vy vz density #
run 205761
Setting up run at Tue Jan  3 17:27:53 2023

Memory usage per processor = 960.195 Mbytes
    Step    Atoms         KinEng            CPU 
10082291      819     0.16419519              0 
10288052      813     0.35898899       2083.494 
Loop time of 2083.49 on 40 procs for 205761 steps with 813 atoms, finish time Tue Jan  3 18:02:37 2023


Pair  time (%) = 0.424402 (0.0203697)
Neigh time (%) = 9.73017 (0.467012)
Comm  time (%) = 11.0372 (0.529747)
Outpt time (%) = 0.000602088 (2.8898e-05)
Other time (%) = 2062.3 (98.9828)

Nlocal:    20.325 ave 352 max 0 min
Histogram: 36 1 1 0 0 0 0 1 0 1
Nghost:    5.225 ave 69 max 0 min
Histogram: 36 0 0 0 0 1 1 1 0 1
Neighs:    3.125 ave 70 max 0 min
Histogram: 37 0 1 0 1 0 0 0 0 1

Total # of neighbors = 125
Ave neighs/atom = 0.153752
Neighbor list builds = 11872
Dangerous builds = 250
write_dump all custom dump.atom_info_ac_* id type x y z radius vx vy vz density #
run 205761
Setting up run at Tue Jan  3 18:02:37 2023

Memory usage per processor = 960.195 Mbytes
    Step    Atoms         KinEng            CPU 
10288052      813     0.35898899              0 
10493813      802      1.1531367      2074.6374 
Loop time of 2074.64 on 40 procs for 205761 steps with 802 atoms, finish time Tue Jan  3 18:37:11 2023


Pair  time (%) = 0.422088 (0.0203451)
Neigh time (%) = 7.75952 (0.374018)
Comm  time (%) = 8.41473 (0.4056)
Outpt time (%) = 0.000586389 (2.82647e-05)
Other time (%) = 2058.04 (99.2)

Nlocal:    20.05 ave 349 max 0 min
Histogram: 36 1 1 0 0 0 0 1 0 1
Nghost:    5.05 ave 68 max 0 min
Histogram: 36 0 0 0 1 0 1 0 1 1
Neighs:    2.95 ave 62 max 0 min
Histogram: 37 0 0 1 0 1 0 0 0 1

Total # of neighbors = 118
Ave neighs/atom = 0.147132
Neighbor list builds = 9487
Dangerous builds = 207
write_dump all custom dump.atom_info_ac_* id type x y z radius vx vy vz density #
run 205761
Setting up run at Tue Jan  3 18:37:12 2023

Memory usage per processor = 960.195 Mbytes
    Step    Atoms         KinEng            CPU 
10493813      802      1.1531367              0 
10699574      796     0.31762441       2055.195 
Loop time of 2055.19 on 40 procs for 205761 steps with 796 atoms, finish time Tue Jan  3 19:11:27 2023


Pair  time (%) = 0.41376 (0.0201324)
Neigh time (%) = 6.50311 (0.316423)
Comm  time (%) = 7.35226 (0.35774)
Outpt time (%) = 0.00053593 (2.60768e-05)
Other time (%) = 2040.93 (99.3057)

Nlocal:    19.9 ave 343 max 0 min
Histogram: 36 1 1 0 0 0 0 1 0 1
Nghost:    5.05 ave 72 max 0 min
Histogram: 36 0 0 0 1 0 2 0 0 1
Neighs:    2.875 ave 63 max 0 min
Histogram: 37 0 0 2 0 0 0 0 0 1

Total # of neighbors = 115
Ave neighs/atom = 0.144472
Neighbor list builds = 7918
Dangerous builds = 20
write_dump all custom dump.atom_info_ac_* id type x y z radius vx vy vz density #
run 205761
Setting up run at Tue Jan  3 19:11:27 2023

Memory usage per processor = 960.195 Mbytes
    Step    Atoms         KinEng            CPU 
10699574      796     0.31762441              0 
10905335      790     0.36051467      2062.7638 
Loop time of 2062.78 on 40 procs for 205761 steps with 790 atoms, finish time Tue Jan  3 19:45:50 2023


Pair  time (%) = 0.412616 (0.0200029)
Neigh time (%) = 6.91848 (0.335395)
Comm  time (%) = 8.34941 (0.404765)
Outpt time (%) = 0.000528854 (2.56379e-05)
Other time (%) = 2047.1 (99.2398)

Nlocal:    19.75 ave 341 max 0 min
Histogram: 36 1 1 0 0 0 0 1 0 1
Nghost:    5.075 ave 71 max 0 min
Histogram: 36 0 0 0 1 1 0 1 0 1
Neighs:    2.275 ave 42 max 0 min
Histogram: 36 1 0 0 1 1 0 0 0 1

Total # of neighbors = 91
Ave neighs/atom = 0.11519
Neighbor list builds = 8434
Dangerous builds = 22
write_dump all custom dump.atom_info_ac_* id type x y z radius vx vy vz density #
run 205761
Setting up run at Tue Jan  3 19:45:50 2023

Memory usage per processor = 960.195 Mbytes
    Step    Atoms         KinEng            CPU 
10905335      790     0.36051467              0 
11111096      785     0.37929199      2108.5217 
Loop time of 2108.52 on 40 procs for 205761 steps with 785 atoms, finish time Tue Jan  3 20:20:58 2023


Pair  time (%) = 0.409387 (0.0194158)
Neigh time (%) = 7.81241 (0.370516)
Comm  time (%) = 12.2301 (0.580034)
Outpt time (%) = 0.00055139 (2.61506e-05)
Other time (%) = 2088.07 (99.03)

Nlocal:    19.625 ave 334 max 0 min
Histogram: 36 1 1 0 0 0 0 1 0 1
Nghost:    4.975 ave 74 max 0 min
Histogram: 36 0 0 1 0 1 1 0 0 1
Neighs:    2.425 ave 50 max 0 min
Histogram: 36 1 0 1 0 1 0 0 0 1

Total # of neighbors = 97
Ave neighs/atom = 0.123567
Neighbor list builds = 9548
Dangerous builds = 6
write_dump all custom dump.atom_info_ac_* id type x y z radius vx vy vz density #
run 205761
Setting up run at Tue Jan  3 20:20:58 2023

Memory usage per processor = 960.195 Mbytes
    Step    Atoms         KinEng            CPU 
11111096      785     0.37929199              0 
11316857      771      0.3166693      2090.3471 
Loop time of 2090.35 on 40 procs for 205761 steps with 771 atoms, finish time Tue Jan  3 20:55:49 2023


Pair  time (%) = 0.418184 (0.0200055)
Neigh time (%) = 9.89121 (0.473185)
Comm  time (%) = 14.3556 (0.686757)
Outpt time (%) = 0.000561824 (2.6877e-05)
Other time (%) = 2065.68 (98.82)

Nlocal:    19.275 ave 330 max 0 min
Histogram: 36 2 0 0 0 0 0 1 0 1
Nghost:    4.65 ave 66 max 0 min
Histogram: 36 0 0 0 1 1 1 0 0 1
Neighs:    2.4 ave 51 max 0 min
Histogram: 36 1 1 0 0 1 0 0 0 1

Total # of neighbors = 96
Ave neighs/atom = 0.124514
Neighbor list builds = 12113
Dangerous builds = 833
write_dump all custom dump.atom_info_ac_* id type x y z radius vx vy vz density #
run 205761
Setting up run at Tue Jan  3 20:55:49 2023

Memory usage per processor = 960.195 Mbytes
    Step    Atoms         KinEng            CPU 
11316857      771      0.3166693              0 
11522618      762     0.34406446      2073.3104 
Loop time of 2073.31 on 40 procs for 205761 steps with 762 atoms, finish time Tue Jan  3 21:30:22 2023


Pair  time (%) = 0.413569 (0.0199473)
Neigh time (%) = 7.82289 (0.377314)
Comm  time (%) = 11.0066 (0.53087)
Outpt time (%) = 0.000545116 (2.62921e-05)
Other time (%) = 2054.07 (99.0718)

Nlocal:    19.05 ave 323 max 0 min
Histogram: 36 1 1 0 0 0 0 0 1 1
Nghost:    4.575 ave 70 max 0 min
Histogram: 36 0 0 1 1 0 1 0 0 1
Neighs:    2.475 ave 47 max 0 min
Histogram: 36 1 0 1 0 0 1 0 0 1

Total # of neighbors = 99
Ave neighs/atom = 0.129921
Neighbor list builds = 9532
Dangerous builds = 6
write_dump all custom dump.atom_info_ac_* id type x y z radius vx vy vz density #
run 205761
Setting up run at Tue Jan  3 21:30:22 2023

Memory usage per processor = 960.195 Mbytes
    Step    Atoms         KinEng            CPU 
11522618      762     0.34406446              0 
11728379      756     0.32389625        2081.21 
Loop time of 2081.21 on 40 procs for 205761 steps with 756 atoms, finish time Tue Jan  3 22:05:04 2023


Pair  time (%) = 0.422937 (0.0203217)
Neigh time (%) = 9.07655 (0.436119)
Comm  time (%) = 9.11954 (0.438184)
Outpt time (%) = 0.000547653 (2.63142e-05)
Other time (%) = 2062.59 (99.1053)

Nlocal:    18.9 ave 322 max 0 min
Histogram: 36 1 1 0 0 0 0 1 0 1
Nghost:    4.4 ave 66 max 0 min
Histogram: 36 0 0 1 0 1 0 1 0 1
Neighs:    2.325 ave 39 max 0 min
Histogram: 36 1 0 1 0 0 0 0 1 1

Total # of neighbors = 93
Ave neighs/atom = 0.123016
Neighbor list builds = 11043
Dangerous builds = 123
write_dump all custom dump.atom_info_ac_* id type x y z radius vx vy vz density #
run 205761
Setting up run at Tue Jan  3 22:05:04 2023

Memory usage per processor = 960.195 Mbytes
    Step    Atoms         KinEng            CPU 
11728379      756     0.32389625              0 
11934140      748     0.24560539      2087.1256 
Loop time of 2087.13 on 40 procs for 205761 steps with 748 atoms, finish time Tue Jan  3 22:39:51 2023


Pair  time (%) = 0.41337 (0.0198057)
Neigh time (%) = 9.24597 (0.443)
Comm  time (%) = 13.9351 (0.667668)
Outpt time (%) = 0.000458298 (2.19583e-05)
Other time (%) = 2063.53 (98.8695)

Nlocal:    18.7 ave 322 max 0 min
Histogram: 36 1 1 0 0 0 0 1 0 1
Nghost:    4.55 ave 64 max 0 min
Histogram: 36 0 0 1 0 1 0 1 0 1
Neighs:    1.825 ave 33 max 0 min
Histogram: 36 1 1 0 0 0 0 1 0 1

Total # of neighbors = 73
Ave neighs/atom = 0.0975936
Neighbor list builds = 11304
Dangerous builds = 7
write_dump all custom dump.atom_info_ac_* id type x y z radius vx vy vz density #
run 205761
Setting up run at Tue Jan  3 22:39:51 2023

Memory usage per processor = 960.195 Mbytes
    Step    Atoms         KinEng            CPU 
11934140      748     0.24560539              0 
12139901      740     0.34260705      2072.9416 
Loop time of 2072.94 on 40 procs for 205761 steps with 740 atoms, finish time Tue Jan  3 23:14:24 2023


Pair  time (%) = 0.414561 (0.0199987)
Neigh time (%) = 8.16598 (0.393932)
Comm  time (%) = 11.0576 (0.533425)
Outpt time (%) = 0.00048371 (2.33345e-05)
Other time (%) = 2053.3 (99.0526)

Nlocal:    18.5 ave 325 max 0 min
Histogram: 36 2 0 0 0 0 0 1 0 1
Nghost:    4.525 ave 57 max 0 min
Histogram: 36 0 0 1 0 0 1 0 0 2
Neighs:    1.475 ave 34 max 0 min
Histogram: 36 2 0 0 1 0 0 0 0 1

Total # of neighbors = 59
Ave neighs/atom = 0.0797297
Neighbor list builds = 10023
Dangerous builds = 876
write_dump all custom dump.atom_info_ac_* id type x y z radius vx vy vz density #
run 205761
Setting up run at Tue Jan  3 23:14:24 2023

Memory usage per processor = 960.195 Mbytes
    Step    Atoms         KinEng            CPU 
12139901      740     0.34260705              0 
12345662      734     0.27536677      2075.4006 
Loop time of 2075.4 on 40 procs for 205761 steps with 734 atoms, finish time Tue Jan  3 23:48:59 2023


Pair  time (%) = 0.412045 (0.0198538)
Neigh time (%) = 8.28826 (0.399357)
Comm  time (%) = 11.2506 (0.542094)
Outpt time (%) = 0.000547648 (2.63876e-05)
Other time (%) = 2055.45 (99.0387)

Nlocal:    18.35 ave 320 max 0 min
Histogram: 36 2 0 0 0 0 0 1 0 1
Nghost:    4.475 ave 56 max 0 min
Histogram: 36 0 0 1 0 0 0 1 0 2
Neighs:    1.6 ave 39 max 0 min
Histogram: 36 2 0 1 0 0 0 0 0 1

Total # of neighbors = 64
Ave neighs/atom = 0.0871935
Neighbor list builds = 10148
Dangerous builds = 490
write_dump all custom dump.atom_info_ac_* id type x y z radius vx vy vz density #
run 205761
Setting up run at Tue Jan  3 23:48:59 2023

Memory usage per processor = 960.195 Mbytes
    Step    Atoms         KinEng            CPU 
12345662      734     0.27536677              0 
12551423      724      5.1364523      2064.8167 
Loop time of 2064.82 on 40 procs for 205761 steps with 724 atoms, finish time Wed Jan  4 00:23:24 2023


Pair  time (%) = 0.407903 (0.0197549)
Neigh time (%) = 7.17729 (0.347599)
Comm  time (%) = 6.38286 (0.309125)
Outpt time (%) = 0.0005676 (2.74891e-05)
Other time (%) = 2050.85 (99.3235)

Nlocal:    18.1 ave 317 max 0 min
Histogram: 36 2 0 0 0 0 0 1 0 1
Nghost:    4.35 ave 55 max 0 min
Histogram: 36 0 0 1 0 0 0 1 0 2
Neighs:    1.575 ave 39 max 0 min
Histogram: 37 1 0 1 0 0 0 0 0 1

Total # of neighbors = 63
Ave neighs/atom = 0.0870166
Neighbor list builds = 8742
Dangerous builds = 8
write_dump all custom dump.atom_info_ac_* id type x y z radius vx vy vz density #
run 205761
Setting up run at Wed Jan  4 00:23:24 2023

Memory usage per processor = 960.195 Mbytes
    Step    Atoms         KinEng            CPU 
12551423      724      5.1364523              0 
12757184      713     0.20310162      2053.9236 
Loop time of 2053.92 on 40 procs for 205761 steps with 713 atoms, finish time Wed Jan  4 00:57:38 2023


Pair  time (%) = 0.401152 (0.019531)
Neigh time (%) = 6.1048 (0.297226)
Comm  time (%) = 7.65519 (0.372711)
Outpt time (%) = 0.000589324 (2.86926e-05)
Other time (%) = 2039.76 (99.3105)

Nlocal:    17.825 ave 315 max 0 min
Histogram: 36 2 0 0 0 0 0 1 0 1
Nghost:    4.3 ave 57 max 0 min
Histogram: 36 0 0 1 0 0 1 0 0 2
Neighs:    1.725 ave 39 max 0 min
Histogram: 36 1 1 0 1 0 0 0 0 1

Total # of neighbors = 69
Ave neighs/atom = 0.0967742
Neighbor list builds = 7445
Dangerous builds = 118
write_dump all custom dump.atom_info_ac_* id type x y z radius vx vy vz density #
run 205761
Setting up run at Wed Jan  4 00:57:38 2023

Memory usage per processor = 960.195 Mbytes
    Step    Atoms         KinEng            CPU 
12757184      713     0.20310162              0 
12962945      703      0.1908656      2053.8427 
Loop time of 2053.84 on 40 procs for 205761 steps with 703 atoms, finish time Wed Jan  4 01:31:52 2023


Pair  time (%) = 0.400721 (0.0195108)
Neigh time (%) = 6.34561 (0.308963)
Comm  time (%) = 8.60005 (0.418729)
Outpt time (%) = 0.00053488 (2.60429e-05)
Other time (%) = 2038.5 (99.2528)

Nlocal:    17.575 ave 312 max 0 min
Histogram: 36 2 0 0 0 0 0 1 0 1
Nghost:    4.375 ave 57 max 0 min
Histogram: 36 0 0 1 0 1 0 0 1 1
Neighs:    1.825 ave 50 max 0 min
Histogram: 37 1 1 0 0 0 0 0 0 1

Total # of neighbors = 73
Ave neighs/atom = 0.103841
Neighbor list builds = 7730
Dangerous builds = 3
write_dump all custom dump.atom_info_ac_* id type x y z radius vx vy vz density #
run 205761
Setting up run at Wed Jan  4 01:31:52 2023

Memory usage per processor = 960.195 Mbytes
    Step    Atoms         KinEng            CPU 
12962945      703      0.1908656              0 
13168706      692     0.33575035      2211.6955 
Loop time of 2211.7 on 40 procs for 205761 steps with 692 atoms, finish time Wed Jan  4 02:08:44 2023


Pair  time (%) = 0.405167 (0.0183193)
Neigh time (%) = 9.23893 (0.417731)
Comm  time (%) = 13.1863 (0.596208)
Outpt time (%) = 0.000534467 (2.41655e-05)
Other time (%) = 2188.86 (98.9677)

Nlocal:    17.3 ave 306 max 0 min
Histogram: 37 1 0 0 0 0 0 1 0 1
Nghost:    4.225 ave 58 max 0 min
Histogram: 36 0 0 1 0 1 0 0 1 1
Neighs:    1.6 ave 45 max 0 min
Histogram: 37 1 1 0 0 0 0 0 0 1

Total # of neighbors = 64
Ave neighs/atom = 0.0924855
Neighbor list builds = 11290
Dangerous builds = 458
write_dump all custom dump.atom_info_ac_* id type x y z radius vx vy vz density #
run 205761
Setting up run at Wed Jan  4 02:08:44 2023

Memory usage per processor = 960.195 Mbytes
    Step    Atoms         KinEng            CPU 
13168706      692     0.33575035              0 
13374467      687     0.49380217      2127.3467 
Loop time of 2127.35 on 40 procs for 205761 steps with 687 atoms, finish time Wed Jan  4 02:44:11 2023


Pair  time (%) = 0.414262 (0.0194732)
Neigh time (%) = 13.9731 (0.656831)
Comm  time (%) = 17.8355 (0.838394)
Outpt time (%) = 0.00395667 (0.000185991)
Other time (%) = 2095.12 (98.4851)

Nlocal:    17.175 ave 300 max 0 min
Histogram: 36 2 0 0 0 0 0 0 1 1
Nghost:    3.775 ave 46 max 0 min
Histogram: 36 0 0 0 1 0 1 0 0 2
Neighs:    1.625 ave 44 max 0 min
Histogram: 37 1 1 0 0 0 0 0 0 1

Total # of neighbors = 65
Ave neighs/atom = 0.0946143
Neighbor list builds = 16991
Dangerous builds = 648
write_dump all custom dump.atom_info_ac_* id type x y z radius vx vy vz density #
run 205761
Setting up run at Wed Jan  4 02:44:12 2023

Memory usage per processor = 960.195 Mbytes
    Step    Atoms         KinEng            CPU 
13374467      687     0.49380217              0 
13580228      677     0.27609483      2117.6057 
Loop time of 2117.61 on 40 procs for 205761 steps with 677 atoms, finish time Wed Jan  4 03:19:29 2023


Pair  time (%) = 0.414946 (0.0195951)
Neigh time (%) = 13.225 (0.624527)
Comm  time (%) = 14.7859 (0.698236)
Outpt time (%) = 0.0005114 (2.41499e-05)
Other time (%) = 2089.18 (98.6576)

Nlocal:    16.925 ave 294 max 0 min
Histogram: 36 2 0 0 0 0 0 0 1 1
Nghost:    4.025 ave 51 max 0 min
Histogram: 36 0 0 0 1 1 0 0 0 2
Neighs:    1.525 ave 41 max 0 min
Histogram: 37 1 1 0 0 0 0 0 0 1

Total # of neighbors = 61
Ave neighs/atom = 0.0901034
Neighbor list builds = 16097
Dangerous builds = 469
write_dump all custom dump.atom_info_ac_* id type x y z radius vx vy vz density #
run 205761
Setting up run at Wed Jan  4 03:19:29 2023

Memory usage per processor = 960.195 Mbytes
    Step    Atoms         KinEng            CPU 
13580228      677     0.27609483              0 
13785989      670     0.42276921      2076.8239 
Loop time of 2076.82 on 40 procs for 205761 steps with 670 atoms, finish time Wed Jan  4 03:54:06 2023


Pair  time (%) = 0.406718 (0.0195837)
Neigh time (%) = 8.62564 (0.415328)
Comm  time (%) = 10.1836 (0.490343)
Outpt time (%) = 0.00395889 (0.000190622)
Other time (%) = 2057.6 (99.0746)

Nlocal:    16.75 ave 288 max 0 min
Histogram: 36 2 0 0 0 0 0 0 1 1
Nghost:    3.825 ave 51 max 0 min
Histogram: 36 0 0 1 0 1 0 0 1 1
Neighs:    1.675 ave 40 max 0 min
Histogram: 37 1 0 0 1 0 0 0 0 1

Total # of neighbors = 67
Ave neighs/atom = 0.1
Neighbor list builds = 10514
Dangerous builds = 7
write_dump all custom dump.atom_info_ac_* id type x y z radius vx vy vz density #
run 205761
Setting up run at Wed Jan  4 03:54:06 2023

Memory usage per processor = 960.195 Mbytes
    Step    Atoms         KinEng            CPU 
13785989      670     0.42276921              0 
13991750      665     0.32519226      2058.7999 
Loop time of 2058.81 on 40 procs for 205761 steps with 665 atoms, finish time Wed Jan  4 04:28:25 2023


Pair  time (%) = 0.398995 (0.0193798)
Neigh time (%) = 6.99584 (0.3398)
Comm  time (%) = 6.57011 (0.319121)
Outpt time (%) = 0.0133645 (0.000649135)
Other time (%) = 2044.83 (99.3211)

Nlocal:    16.625 ave 289 max 0 min
Histogram: 37 1 0 0 0 0 0 0 1 1
Nghost:    3.75 ave 48 max 0 min
Histogram: 36 0 0 1 0 1 0 0 0 2
Neighs:    1.425 ave 30 max 0 min
Histogram: 37 0 1 0 0 0 1 0 0 1

Total # of neighbors = 57
Ave neighs/atom = 0.0857143
Neighbor list builds = 8511
Dangerous builds = 23
write_dump all custom dump.atom_info_ac_* id type x y z radius vx vy vz density #
run 205761
Setting up run at Wed Jan  4 04:28:25 2023

Memory usage per processor = 960.195 Mbytes
    Step    Atoms         KinEng            CPU 
13991750      665     0.32519226              0 
14197511      663     0.29298055      2059.1686 
Loop time of 2059.17 on 40 procs for 205761 steps with 663 atoms, finish time Wed Jan  4 05:02:44 2023


Pair  time (%) = 0.396377 (0.0192493)
Neigh time (%) = 7.05736 (0.342729)
Comm  time (%) = 8.52276 (0.413893)
Outpt time (%) = 0.000552224 (2.68178e-05)
Other time (%) = 2043.19 (99.2241)

Nlocal:    16.575 ave 286 max 0 min
Histogram: 36 2 0 0 0 0 0 0 1 1
Nghost:    3.65 ave 49 max 0 min
Histogram: 36 0 0 1 0 1 0 0 0 2
Neighs:    1.375 ave 29 max 0 min
Histogram: 37 0 1 0 0 0 1 0 0 1

Total # of neighbors = 55
Ave neighs/atom = 0.0829563
Neighbor list builds = 8567
Dangerous builds = 0
write_dump all custom dump.atom_info_ac_* id type x y z radius vx vy vz density #
run 205761
Setting up run at Wed Jan  4 05:02:44 2023

Memory usage per processor = 960.195 Mbytes
    Step    Atoms         KinEng            CPU 
14197511      663     0.29298055              0 
14403272      658     0.28318035      2063.4865 
Loop time of 2063.49 on 40 procs for 205761 steps with 658 atoms, finish time Wed Jan  4 05:37:08 2023


Pair  time (%) = 0.398314 (0.0193029)
Neigh time (%) = 7.08519 (0.34336)
Comm  time (%) = 8.17624 (0.396234)
Outpt time (%) = 0.00057757 (2.799e-05)
Other time (%) = 2047.83 (99.2411)

Nlocal:    16.45 ave 280 max 0 min
Histogram: 36 2 0 0 0 0 0 0 1 1
Nghost:    3.6 ave 50 max 0 min
Histogram: 36 0 0 1 0 1 0 0 0 2
Neighs:    1.575 ave 37 max 0 min
Histogram: 37 1 0 0 1 0 0 0 0 1

Total # of neighbors = 63
Ave neighs/atom = 0.0957447
Neighbor list builds = 8620
Dangerous builds = 124
write_dump all custom dump.atom_info_ac_* id type x y z radius vx vy vz density #
run 205761
Setting up run at Wed Jan  4 05:37:08 2023

Memory usage per processor = 960.195 Mbytes
    Step    Atoms         KinEng            CPU 
14403272      658     0.28318035              0 
14609033      650      0.3432443      2070.6907 
Loop time of 2070.69 on 40 procs for 205761 steps with 650 atoms, finish time Wed Jan  4 06:11:39 2023


Pair  time (%) = 0.410912 (0.0198442)
Neigh time (%) = 8.67857 (0.419115)
Comm  time (%) = 7.10884 (0.343307)
Outpt time (%) = 0.000540272 (2.60914e-05)
Other time (%) = 2054.49 (99.2177)

Nlocal:    16.25 ave 277 max 0 min
Histogram: 36 2 0 0 0 0 0 0 1 1
Nghost:    3.275 ave 46 max 0 min
Histogram: 36 0 1 0 0 1 0 0 0 2
Neighs:    1.275 ave 31 max 0 min
Histogram: 37 0 1 1 0 0 0 0 0 1

Total # of neighbors = 51
Ave neighs/atom = 0.0784615
Neighbor list builds = 10602
Dangerous builds = 591
write_dump all custom dump.atom_info_ac_* id type x y z radius vx vy vz density #
run 205761
Setting up run at Wed Jan  4 06:11:39 2023

Memory usage per processor = 960.195 Mbytes
    Step    Atoms         KinEng            CPU 
14609033      650      0.3432443              0 
14814794      634     0.24749906      2092.4467 
Loop time of 2092.45 on 40 procs for 205761 steps with 634 atoms, finish time Wed Jan  4 06:46:31 2023


Pair  time (%) = 0.413271 (0.0197506)
Neigh time (%) = 10.011 (0.478436)
Comm  time (%) = 7.53282 (0.36)
Outpt time (%) = 0.000580701 (2.77523e-05)
Other time (%) = 2074.49 (99.1418)

Nlocal:    15.85 ave 271 max 0 min
Histogram: 36 2 0 0 0 0 0 0 1 1
Nghost:    3.125 ave 46 max 0 min
Histogram: 36 0 1 0 1 0 0 0 0 2
Neighs:    1.55 ave 36 max 0 min
Histogram: 37 1 0 0 0 1 0 0 0 1

Total # of neighbors = 62
Ave neighs/atom = 0.0977918
Neighbor list builds = 12227
Dangerous builds = 8
write_dump all custom dump.atom_info_ac_* id type x y z radius vx vy vz density #
run 205761
Setting up run at Wed Jan  4 06:46:31 2023

Memory usage per processor = 960.195 Mbytes
    Step    Atoms         KinEng            CPU 
14814794      634     0.24749906              0 
15020555      625     0.24116693      2068.3706 
Loop time of 2068.37 on 40 procs for 205761 steps with 625 atoms, finish time Wed Jan  4 07:21:00 2023


Pair  time (%) = 0.404368 (0.0195501)
Neigh time (%) = 7.92794 (0.383294)
Comm  time (%) = 5.32285 (0.257345)
Outpt time (%) = 0.000220184 (1.06453e-05)
Other time (%) = 2054.72 (99.3398)

Nlocal:    15.625 ave 260 max 0 min
Histogram: 36 2 0 0 0 0 0 0 0 2
Nghost:    3.125 ave 48 max 0 min
Histogram: 36 0 1 0 1 0 0 0 1 1
Neighs:    1.525 ave 38 max 0 min
Histogram: 37 1 0 0 1 0 0 0 0 1

Total # of neighbors = 61
Ave neighs/atom = 0.0976
Neighbor list builds = 9626
Dangerous builds = 30
write_dump all custom dump.atom_info_ac_* id type x y z radius vx vy vz density #
run 205761
Setting up run at Wed Jan  4 07:21:00 2023

Memory usage per processor = 960.195 Mbytes
    Step    Atoms         KinEng            CPU 
15020555      625     0.24116693              0 
15226316      615     0.16001804      2066.1095 
Loop time of 2066.11 on 40 procs for 205761 steps with 615 atoms, finish time Wed Jan  4 07:55:26 2023


Pair  time (%) = 0.397079 (0.0192187)
Neigh time (%) = 7.50191 (0.363093)
Comm  time (%) = 7.59107 (0.367409)
Outpt time (%) = 0.00057303 (2.77347e-05)
Other time (%) = 2050.62 (99.2503)

Nlocal:    15.375 ave 257 max 0 min
Histogram: 36 2 0 0 0 0 0 0 0 2
Nghost:    3.175 ave 46 max 0 min
Histogram: 36 0 1 0 1 0 0 0 0 2
Neighs:    1.45 ave 28 max 0 min
Histogram: 37 1 0 0 0 0 0 0 1 1

Total # of neighbors = 58
Ave neighs/atom = 0.0943089
Neighbor list builds = 9090
Dangerous builds = 11
write_dump all custom dump.atom_info_ac_* id type x y z radius vx vy vz density #
run 205761
Setting up run at Wed Jan  4 07:55:26 2023

Memory usage per processor = 960.195 Mbytes
    Step    Atoms         KinEng            CPU 
15226316      615     0.16001804              0 
15432077      608     0.13200874      2060.0614 
Loop time of 2060.06 on 40 procs for 205761 steps with 608 atoms, finish time Wed Jan  4 08:29:46 2023


Pair  time (%) = 0.395178 (0.0191828)
Neigh time (%) = 7.32615 (0.355628)
Comm  time (%) = 7.85691 (0.381392)
Outpt time (%) = 0.000285621 (1.38647e-05)
Other time (%) = 2044.48 (99.2438)

Nlocal:    15.2 ave 256 max 0 min
Histogram: 36 2 0 0 0 0 0 0 0 2
Nghost:    2.925 ave 42 max 0 min
Histogram: 36 0 1 0 0 1 0 0 0 2
Neighs:    1.65 ave 34 max 0 min
Histogram: 38 0 0 0 0 0 0 1 0 1

Total # of neighbors = 66
Ave neighs/atom = 0.108553
Neighbor list builds = 8938
Dangerous builds = 871
write_dump all custom dump.atom_info_ac_* id type x y z radius vx vy vz density #
run 205761
Setting up run at Wed Jan  4 08:29:46 2023

Memory usage per processor = 960.195 Mbytes
    Step    Atoms         KinEng            CPU 
15432077      608     0.13200874              0 
15637838      602     0.17145164      2067.8367 
Loop time of 2067.84 on 40 procs for 205761 steps with 602 atoms, finish time Wed Jan  4 09:04:14 2023


Pair  time (%) = 0.399555 (0.0193224)
Neigh time (%) = 7.84388 (0.379328)
Comm  time (%) = 8.05678 (0.389624)
Outpt time (%) = 0.000587218 (2.83977e-05)
Other time (%) = 2051.54 (99.2117)

Nlocal:    15.05 ave 252 max 0 min
Histogram: 36 2 0 0 0 0 0 0 0 2
Nghost:    3.15 ave 44 max 0 min
Histogram: 36 0 1 0 0 1 0 0 0 2
Neighs:    1.65 ave 31 max 0 min
Histogram: 36 2 0 0 0 0 0 0 1 1

Total # of neighbors = 66
Ave neighs/atom = 0.109635
Neighbor list builds = 9562
Dangerous builds = 444
write_dump all custom dump.atom_info_ac_* id type x y z radius vx vy vz density #
run 205761
Setting up run at Wed Jan  4 09:04:14 2023

Memory usage per processor = 960.195 Mbytes
    Step    Atoms         KinEng            CPU 
15637838      602     0.17145164              0 
15843599      595     0.15810492      2090.2338 
Loop time of 2090.23 on 40 procs for 205761 steps with 595 atoms, finish time Wed Jan  4 09:39:04 2023


Pair  time (%) = 0.400957 (0.0191824)
Neigh time (%) = 9.28055 (0.443996)
Comm  time (%) = 9.84535 (0.471017)
Outpt time (%) = 0.000308367 (1.47527e-05)
Other time (%) = 2070.71 (99.0658)

Nlocal:    14.875 ave 250 max 0 min
Histogram: 36 2 0 0 0 0 0 0 0 2
Nghost:    3.15 ave 43 max 0 min
Histogram: 36 0 1 0 0 1 0 0 1 1
Neighs:    1.525 ave 29 max 0 min
Histogram: 37 1 0 0 0 0 0 0 1 1

Total # of neighbors = 61
Ave neighs/atom = 0.102521
Neighbor list builds = 11262
Dangerous builds = 3
write_dump all custom dump.atom_info_ac_* id type x y z radius vx vy vz density #
run 205761
Setting up run at Wed Jan  4 09:39:04 2023

Memory usage per processor = 960.195 Mbytes
    Step    Atoms         KinEng            CPU 
15843599      595     0.15810492              0 
16049360      592      0.2868972       2090.076 
Loop time of 2090.08 on 40 procs for 205761 steps with 592 atoms, finish time Wed Jan  4 10:13:54 2023


Pair  time (%) = 0.407408 (0.0194925)
Neigh time (%) = 10.5964 (0.506987)
Comm  time (%) = 6.87349 (0.328863)
Outpt time (%) = 0.000724465 (3.46621e-05)
Other time (%) = 2072.2 (99.1446)

Nlocal:    14.8 ave 243 max 0 min
Histogram: 36 2 0 0 0 0 0 0 0 2
Nghost:    3.05 ave 46 max 0 min
Histogram: 36 1 0 0 0 1 0 0 1 1
Neighs:    1.375 ave 26 max 0 min
Histogram: 36 2 0 0 0 0 0 0 1 1

Total # of neighbors = 55
Ave neighs/atom = 0.0929054
Neighbor list builds = 12858
Dangerous builds = 2
write_dump all custom dump.atom_info_ac_* id type x y z radius vx vy vz density #
run 205761
Setting up run at Wed Jan  4 10:13:54 2023

Memory usage per processor = 960.195 Mbytes
    Step    Atoms         KinEng            CPU 
16049360      592      0.2868972              0 
16255121      586     0.27079906      2109.7601 
Loop time of 2109.76 on 40 procs for 205761 steps with 586 atoms, finish time Wed Jan  4 10:49:04 2023


Pair  time (%) = 0.404203 (0.0191587)
Neigh time (%) = 9.95579 (0.471892)
Comm  time (%) = 9.5026 (0.450411)
Outpt time (%) = 0.000322838 (1.53021e-05)
Other time (%) = 2089.9 (99.0585)

Nlocal:    14.65 ave 240 max 0 min
Histogram: 36 2 0 0 0 0 0 0 0 2
Nghost:    3.375 ave 49 max 0 min
Histogram: 36 0 1 0 1 0 0 0 1 1
Neighs:    1.25 ave 24 max 0 min
Histogram: 38 0 0 0 0 0 0 0 0 2

Total # of neighbors = 50
Ave neighs/atom = 0.0853242
Neighbor list builds = 12075
Dangerous builds = 14
write_dump all custom dump.atom_info_ac_* id type x y z radius vx vy vz density #
run 205761
Setting up run at Wed Jan  4 10:49:04 2023

Memory usage per processor = 960.195 Mbytes
    Step    Atoms         KinEng            CPU 
16255121      586     0.27079906              0 
16460882      582     0.21052764      2054.7903 
Loop time of 2054.79 on 40 procs for 205761 steps with 582 atoms, finish time Wed Jan  4 11:23:19 2023


Pair  time (%) = 0.391231 (0.01904)
Neigh time (%) = 6.99664 (0.340504)
Comm  time (%) = 8.31082 (0.404461)
Outpt time (%) = 0.000571278 (2.78023e-05)
Other time (%) = 2039.09 (99.236)

Nlocal:    14.55 ave 241 max 0 min
Histogram: 36 2 0 0 0 0 0 0 0 2
Nghost:    3.325 ave 47 max 0 min
Histogram: 36 0 1 0 0 1 0 0 0 2
Neighs:    1.375 ave 26 max 0 min
Histogram: 37 1 0 0 0 0 0 0 0 2

Total # of neighbors = 55
[...]
Loop time of 2046.43 on 40 procs for 205761 steps with 376 atoms, finish time Fri Jan  6 01:30:24 2023


Pair  time (%) = 0.378273 (0.0184845)
Neigh time (%) = 5.82388 (0.284587)
Comm  time (%) = 6.03573 (0.294939)
Outpt time (%) = 0.000300165 (1.46677e-05)
Other time (%) = 2034.19 (99.402)

Nlocal:    9.4 ave 172 max 0 min
Histogram: 38 0 0 0 0 0 0 1 0 1
Nghost:    2.125 ave 33 max 0 min
Histogram: 35 1 1 0 1 0 1 0 0 1
Neighs:    0.45 ave 13 max 0 min
Histogram: 38 0 0 1 0 0 0 0 0 1

Total # of neighbors = 18
Ave neighs/atom = 0.0478723
Neighbor list builds = 7047
Dangerous builds = 148
write_dump all custom dump.atom_info_ac_* id type x y z radius vx vy vz density #
run 205761
Setting up run at Fri Jan  6 01:30:24 2023

Memory usage per processor = 960.195 Mbytes
    Step    Atoms         KinEng            CPU 
30041138      376    0.029849394              0 
30246899      373    0.048571643      2054.4677 
Loop time of 2054.47 on 40 procs for 205761 steps with 373 atoms, finish time Fri Jan  6 02:04:39 2023


Pair  time (%) = 0.375806 (0.0182921)
Neigh time (%) = 6.14002 (0.298862)
Comm  time (%) = 7.83592 (0.381409)
Outpt time (%) = 0.000540094 (2.62888e-05)
Other time (%) = 2040.12 (99.3014)

Nlocal:    9.325 ave 168 max 0 min
Histogram: 37 1 0 0 0 0 0 1 0 1
Nghost:    2.1 ave 36 max 0 min
Histogram: 34 3 0 1 0 1 0 0 0 1
Neighs:    0.45 ave 13 max 0 min
Histogram: 37 1 1 0 0 0 0 0 0 1

Total # of neighbors = 18
Ave neighs/atom = 0.0482574
Neighbor list builds = 7421
Dangerous builds = 4
write_dump all custom dump.atom_info_ac_* id type x y z radius vx vy vz density #
run 205761
Setting up run at Fri Jan  6 02:04:39 2023

Memory usage per processor = 960.195 Mbytes
    Step    Atoms         KinEng            CPU 
30246899      373    0.048571643              0 
30452660      370    0.053929237      2045.5998 
Loop time of 2045.6 on 40 procs for 205761 steps with 370 atoms, finish time Fri Jan  6 02:38:44 2023


Pair  time (%) = 0.378484 (0.0185024)
Neigh time (%) = 5.71744 (0.2795)
Comm  time (%) = 5.78747 (0.282923)
Outpt time (%) = 0.000325105 (1.58929e-05)
Other time (%) = 2033.72 (99.4191)

Nlocal:    9.25 ave 168 max 0 min
Histogram: 37 1 0 0 0 0 0 1 0 1
Nghost:    1.975 ave 30 max 0 min
Histogram: 34 3 0 0 1 0 1 0 0 1
Neighs:    0.5 ave 16 max 0 min
Histogram: 37 2 0 0 0 0 0 0 0 1

Total # of neighbors = 20
Ave neighs/atom = 0.0540541
Neighbor list builds = 6902
Dangerous builds = 2
write_dump all custom dump.atom_info_ac_* id type x y z radius vx vy vz density #
run 205761
Setting up run at Fri Jan  6 02:38:45 2023

Memory usage per processor = 960.195 Mbytes
    Step    Atoms         KinEng            CPU 
30452660      370    0.053929237              0 
30658421      365    0.053524418      2035.8312 
Loop time of 2035.83 on 40 procs for 205761 steps with 365 atoms, finish time Fri Jan  6 03:12:40 2023


Pair  time (%) = 0.372705 (0.0183072)
Neigh time (%) = 4.75658 (0.233643)
Comm  time (%) = 5.26455 (0.258595)
Outpt time (%) = 0.000579855 (2.84825e-05)
Other time (%) = 2025.44 (99.4894)

Nlocal:    9.125 ave 166 max 0 min
Histogram: 37 1 0 0 0 0 0 1 0 1
Nghost:    1.975 ave 33 max 0 min
Histogram: 34 3 0 1 0 0 1 0 0 1
Neighs:    0.55 ave 18 max 0 min
Histogram: 38 1 0 0 0 0 0 0 0 1

Total # of neighbors = 22
Ave neighs/atom = 0.060274
Neighbor list builds = 5754
Dangerous builds = 72
write_dump all custom dump.atom_info_ac_* id type x y z radius vx vy vz density #
run 205761
Setting up run at Fri Jan  6 03:12:40 2023

Memory usage per processor = 960.195 Mbytes
    Step    Atoms         KinEng            CPU 
30658421      365    0.053524418              0 
30864182      364    0.018689125      2038.0497 
Loop time of 2038.05 on 40 procs for 205761 steps with 364 atoms, finish time Fri Jan  6 03:46:39 2023


Pair  time (%) = 0.372843 (0.0182941)
Neigh time (%) = 4.2247 (0.207291)
Comm  time (%) = 4.42045 (0.216896)
Outpt time (%) = 0.000256591 (1.259e-05)
Other time (%) = 2029.03 (99.5575)

Nlocal:    9.1 ave 165 max 0 min
Histogram: 37 1 0 0 0 0 0 1 0 1
Nghost:    1.85 ave 29 max 0 min
Histogram: 34 3 0 0 1 1 0 0 0 1
Neighs:    0.575 ave 19 max 0 min
Histogram: 38 1 0 0 0 0 0 0 0 1

Total # of neighbors = 23
Ave neighs/atom = 0.0631868
Neighbor list builds = 5109
Dangerous builds = 1
write_dump all custom dump.atom_info_ac_* id type x y z radius vx vy vz density #
run 205761
Setting up run at Fri Jan  6 03:46:39 2023

Memory usage per processor = 960.195 Mbytes
    Step    Atoms         KinEng            CPU 
30864182      364    0.018689125              0 
31069943      364    0.069661528      2067.5102 
Loop time of 2067.53 on 40 procs for 205761 steps with 364 atoms, finish time Fri Jan  6 04:21:06 2023


Pair  time (%) = 0.377621 (0.0182644)
Neigh time (%) = 7.3646 (0.356203)
Comm  time (%) = 8.8607 (0.428565)
Outpt time (%) = 0.00053207 (2.57346e-05)
Other time (%) = 2050.93 (99.1969)

Nlocal:    9.1 ave 162 max 0 min
Histogram: 36 2 0 0 0 0 0 0 1 1
Nghost:    1.825 ave 31 max 0 min
Histogram: 35 2 0 1 0 1 0 0 0 1
Neighs:    0.475 ave 15 max 0 min
Histogram: 38 0 1 0 0 0 0 0 0 1

Total # of neighbors = 19
Ave neighs/atom = 0.0521978
Neighbor list builds = 8898
Dangerous builds = 0
write_dump all custom dump.atom_info_ac_* id type x y z radius vx vy vz density #
run 205761
Setting up run at Fri Jan  6 04:21:06 2023

Memory usage per processor = 960.195 Mbytes
    Step    Atoms         KinEng            CPU 
31069943      364    0.069661528              0 
31275704      358    0.032620801      2054.7311 
Loop time of 2054.73 on 40 procs for 205761 steps with 358 atoms, finish time Fri Jan  6 04:55:21 2023


Pair  time (%) = 0.375949 (0.0182967)
Neigh time (%) = 6.39443 (0.311205)
Comm  time (%) = 7.82326 (0.380743)
Outpt time (%) = 0.000228111 (1.11017e-05)
Other time (%) = 2040.14 (99.2897)

Nlocal:    8.95 ave 164 max 0 min
Histogram: 37 1 0 0 0 0 0 1 0 1
Nghost:    1.825 ave 29 max 0 min
Histogram: 34 3 0 1 0 0 0 1 0 1
Neighs:    0.45 ave 14 max 0 min
Histogram: 38 0 1 0 0 0 0 0 0 1

Total # of neighbors = 18
Ave neighs/atom = 0.0502793
Neighbor list builds = 7741
Dangerous builds = 154
write_dump all custom dump.atom_info_ac_* id type x y z radius vx vy vz density #
run 205761
Setting up run at Fri Jan  6 04:55:21 2023

Memory usage per processor = 960.195 Mbytes
    Step    Atoms         KinEng            CPU 
31275704      358    0.032620801              0 
31481465      356    0.036484386      2039.1456 
Loop time of 2039.17 on 40 procs for 205761 steps with 356 atoms, finish time Fri Jan  6 05:29:20 2023


Pair  time (%) = 0.372518 (0.0182681)
Neigh time (%) = 4.98578 (0.244501)
Comm  time (%) = 5.1186 (0.251014)
Outpt time (%) = 0.00413774 (0.000202913)
Other time (%) = 2028.69 (99.486)

Nlocal:    8.9 ave 163 max 0 min
Histogram: 37 1 0 0 0 0 0 1 0 1
Nghost:    1.65 ave 28 max 0 min
Histogram: 35 2 0 1 0 1 0 0 0 1
Neighs:    0.35 ave 13 max 0 min
Histogram: 39 0 0 0 0 0 0 0 0 1

Total # of neighbors = 14
Ave neighs/atom = 0.0393258
Neighbor list builds = 6029
Dangerous builds = 1
write_dump all custom dump.atom_info_ac_* id type x y z radius vx vy vz density #
run 205761
Setting up run at Fri Jan  6 05:29:20 2023

Memory usage per processor = 960.195 Mbytes
    Step    Atoms         KinEng            CPU 
31481465      356    0.036484386              0 
31687226      354   0.0080617787      2041.0442 
Loop time of 2041.04 on 40 procs for 205761 steps with 354 atoms, finish time Fri Jan  6 06:03:21 2023


Pair  time (%) = 0.373542 (0.0183015)
Neigh time (%) = 4.67991 (0.22929)
Comm  time (%) = 3.32469 (0.162891)
Outpt time (%) = 0.000280921 (1.37636e-05)
Other time (%) = 2032.67 (99.5895)

Nlocal:    8.85 ave 163 max 0 min
Histogram: 37 1 0 0 0 0 0 1 0 1
Nghost:    1.575 ave 24 max 0 min
Histogram: 34 1 2 0 1 1 0 0 0 1
Neighs:    0.35 ave 13 max 0 min
Histogram: 39 0 0 0 0 0 0 0 0 1

Total # of neighbors = 14
Ave neighs/atom = 0.039548
Neighbor list builds = 5648
Dangerous builds = 0
write_dump all custom dump.atom_info_ac_* id type x y z radius vx vy vz density #
run 205761
Setting up run at Fri Jan  6 06:03:21 2023

Memory usage per processor = 960.195 Mbytes
    Step    Atoms         KinEng            CPU 
31687226      354   0.0080617787              0 
31892987      353    0.016188746         2020.7 
Loop time of 2020.7 on 40 procs for 205761 steps with 353 atoms, finish time Fri Jan  6 06:37:02 2023


Pair  time (%) = 0.368078 (0.0182154)
Neigh time (%) = 3.0906 (0.152947)
Comm  time (%) = 3.4219 (0.169342)
Outpt time (%) = 0.000546113 (2.70259e-05)
Other time (%) = 2013.82 (99.6595)

Nlocal:    8.825 ave 163 max 0 min
Histogram: 37 1 0 0 0 0 0 1 0 1
Nghost:    1.55 ave 25 max 0 min
Histogram: 35 0 2 0 1 1 0 0 0 1
Neighs:    0.25 ave 9 max 0 min
Histogram: 38 1 0 0 0 0 0 0 0 1

Total # of neighbors = 10
Ave neighs/atom = 0.0283286
Neighbor list builds = 3748
Dangerous builds = 1
write_dump all custom dump.atom_info_ac_* id type x y z radius vx vy vz density #
run 205761
Setting up run at Fri Jan  6 06:37:02 2023

Memory usage per processor = 960.195 Mbytes
    Step    Atoms         KinEng            CPU 
31892987      353    0.016188746              0 
32098748      352   0.0083292258      2016.2779 
Loop time of 2016.28 on 40 procs for 205761 steps with 352 atoms, finish time Fri Jan  6 07:10:38 2023


Pair  time (%) = 0.366491 (0.0181766)
Neigh time (%) = 3.09779 (0.153639)
Comm  time (%) = 3.43123 (0.170176)
Outpt time (%) = 0.00031328 (1.55375e-05)
Other time (%) = 2009.38 (99.658)

Nlocal:    8.8 ave 161 max 0 min
Histogram: 37 1 0 0 0 0 0 1 0 1
Nghost:    1.65 ave 27 max 0 min
Histogram: 34 1 2 0 2 0 0 0 0 1
Neighs:    0.325 ave 10 max 0 min
Histogram: 38 0 0 1 0 0 0 0 0 1

Total # of neighbors = 13
Ave neighs/atom = 0.0369318
Neighbor list builds = 3759
Dangerous builds = 15
write_dump all custom dump.atom_info_ac_* id type x y z radius vx vy vz density #
run 205761
Setting up run at Fri Jan  6 07:10:39 2023

Memory usage per processor = 960.195 Mbytes
    Step    Atoms         KinEng            CPU 
32098748      352   0.0083292258              0 
32304509      351    0.068158215      2058.3874 
Loop time of 2058.39 on 40 procs for 205761 steps with 351 atoms, finish time Fri Jan  6 07:44:57 2023


Pair  time (%) = 0.381395 (0.0185288)
Neigh time (%) = 7.7608 (0.377033)
Comm  time (%) = 6.93439 (0.336884)
Outpt time (%) = 0.000556869 (2.70536e-05)
Other time (%) = 2043.31 (99.2675)

Nlocal:    8.775 ave 160 max 0 min
Histogram: 37 1 0 0 0 0 0 1 0 1
Nghost:    1.575 ave 27 max 0 min
Histogram: 35 1 1 0 2 0 0 0 0 1
Neighs:    0.325 ave 10 max 0 min
Histogram: 38 0 0 1 0 0 0 0 0 1

Total # of neighbors = 13
Ave neighs/atom = 0.037037
Neighbor list builds = 9379
Dangerous builds = 18
write_dump all custom dump.atom_info_ac_* id type x y z radius vx vy vz density #
run 205761
Setting up run at Fri Jan  6 07:44:57 2023

Memory usage per processor = 960.195 Mbytes
    Step    Atoms         KinEng            CPU 
32304509      351    0.068158215              0 
32510270      350    0.042255388      2061.7827 
Loop time of 2061.78 on 40 procs for 205761 steps with 350 atoms, finish time Fri Jan  6 08:19:19 2023


Pair  time (%) = 0.378904 (0.0183775)
Neigh time (%) = 7.47467 (0.362534)
Comm  time (%) = 7.0605 (0.342446)
Outpt time (%) = 0.000222415 (1.07875e-05)
Other time (%) = 2046.87 (99.2766)

Nlocal:    8.75 ave 160 max 0 min
Histogram: 36 2 0 0 0 0 0 1 0 1
Nghost:    1.6 ave 26 max 0 min
Histogram: 35 0 2 0 2 0 0 0 0 1
Neighs:    0.275 ave 8 max 0 min
Histogram: 38 0 0 1 0 0 0 0 0 1

Total # of neighbors = 11
Ave neighs/atom = 0.0314286
Neighbor list builds = 9033
Dangerous builds = 57
write_dump all custom dump.atom_info_ac_* id type x y z radius vx vy vz density #
run 205761
Setting up run at Fri Jan  6 08:19:19 2023

Memory usage per processor = 960.195 Mbytes
    Step    Atoms         KinEng            CPU 
32510270      350    0.042255388              0 
32716031      349     0.35544949      2048.7493 
Loop time of 2048.75 on 40 procs for 205761 steps with 349 atoms, finish time Fri Jan  6 08:53:28 2023


Pair  time (%) = 0.372534 (0.0181835)
Neigh time (%) = 5.9273 (0.289313)
Comm  time (%) = 6.7892 (0.331383)
Outpt time (%) = 0.000585231 (2.85653e-05)
Other time (%) = 2035.66 (99.3611)

Nlocal:    8.725 ave 162 max 0 min
Histogram: 38 0 0 0 0 0 0 1 0 1
Nghost:    1.625 ave 23 max 0 min
Histogram: 35 0 1 1 0 2 0 0 0 1
Neighs:    0.35 ave 11 max 0 min
Histogram: 38 0 1 0 0 0 0 0 0 1

Total # of neighbors = 14
Ave neighs/atom = 0.0401146
Neighbor list builds = 7161
Dangerous builds = 1
write_dump all custom dump.atom_info_ac_* id type x y z radius vx vy vz density #
run 205761
Setting up run at Fri Jan  6 08:53:28 2023

Memory usage per processor = 960.195 Mbytes
    Step    Atoms         KinEng            CPU 
32716031      349     0.35544949              0 
32921792      345    0.021352514      2029.3575 
Loop time of 2029.36 on 40 procs for 205761 steps with 345 atoms, finish time Fri Jan  6 09:27:17 2023


Pair  time (%) = 0.372573 (0.0183592)
Neigh time (%) = 4.38873 (0.216262)
Comm  time (%) = 3.8318 (0.188818)
Outpt time (%) = 0.000288486 (1.42156e-05)
Other time (%) = 2020.76 (99.5765)

Nlocal:    8.625 ave 161 max 0 min
Histogram: 38 0 0 0 0 0 0 1 0 1
Nghost:    1.6 ave 26 max 0 min
Histogram: 35 1 1 0 1 1 0 0 0 1
Neighs:    0.325 ave 10 max 0 min
Histogram: 38 0 0 1 0 0 0 0 0 1

Total # of neighbors = 13
Ave neighs/atom = 0.0376812
Neighbor list builds = 5313
Dangerous builds = 40
write_dump all custom dump.atom_info_ac_* id type x y z radius vx vy vz density #
run 205761
Setting up run at Fri Jan  6 09:27:17 2023

Memory usage per processor = 960.195 Mbytes
    Step    Atoms         KinEng            CPU 
32921792      345    0.021352514              0 
33127553      344    0.023033461      2031.0373 
Loop time of 2031.05 on 40 procs for 205761 steps with 344 atoms, finish time Fri Jan  6 10:01:08 2023


Pair  time (%) = 0.375156 (0.018471)
Neigh time (%) = 4.39722 (0.2165)
Comm  time (%) = 2.66716 (0.131319)
Outpt time (%) = 0.0238494 (0.00117424)
Other time (%) = 2023.59 (99.6325)

Nlocal:    8.6 ave 160 max 0 min
Histogram: 37 1 0 0 0 0 0 1 0 1
Nghost:    1.55 ave 26 max 0 min
Histogram: 35 1 0 1 1 1 0 0 0 1
Neighs:    0.325 ave 10 max 0 min
Histogram: 37 1 1 0 0 0 0 0 0 1

Total # of neighbors = 13
Ave neighs/atom = 0.0377907
Neighbor list builds = 5325
Dangerous builds = 1
write_dump all custom dump.atom_info_ac_* id type x y z radius vx vy vz density #
run 205761
Setting up run at Fri Jan  6 10:01:08 2023

Memory usage per processor = 960.195 Mbytes
    Step    Atoms         KinEng            CPU 
33127553      344    0.023033461              0 
33333314      342   0.0077958708      2028.0864 
Loop time of 2028.09 on 40 procs for 205761 steps with 342 atoms, finish time Fri Jan  6 10:34:57 2023


Pair  time (%) = 0.371533 (0.0183194)
Neigh time (%) = 3.63281 (0.179125)
Comm  time (%) = 2.35945 (0.116339)
Outpt time (%) = 0.000330205 (1.62816e-05)
Other time (%) = 2021.72 (99.6862)

Nlocal:    8.55 ave 160 max 0 min
Histogram: 37 1 0 0 0 0 0 1 0 1
Nghost:    1.625 ave 26 max 0 min
Histogram: 35 1 0 2 0 0 1 0 0 1
Neighs:    0.375 ave 12 max 0 min
Histogram: 38 1 0 0 0 0 0 0 0 1

Total # of neighbors = 15
Ave neighs/atom = 0.0438596
Neighbor list builds = 4398
Dangerous builds = 3
write_dump all custom dump.atom_info_ac_* id type x y z radius vx vy vz density #
run 205761
Setting up run at Fri Jan  6 10:34:57 2023

Memory usage per processor = 960.195 Mbytes
    Step    Atoms         KinEng            CPU 
33333314      342   0.0077958708              0 
33539075      340    0.007902386      2017.3396 
Loop time of 2017.34 on 40 procs for 205761 steps with 340 atoms, finish time Fri Jan  6 11:08:34 2023


Pair  time (%) = 0.371381 (0.0184095)
Neigh time (%) = 3.29185 (0.163178)
Comm  time (%) = 2.11538 (0.10486)
Outpt time (%) = 0.000844208 (4.18476e-05)
Other time (%) = 2011.56 (99.7135)

Nlocal:    8.5 ave 160 max 0 min
Histogram: 37 1 0 0 0 0 0 1 0 1
Nghost:    1.6 ave 28 max 0 min
Histogram: 35 1 1 1 1 0 0 0 0 1
Neighs:    0.3 ave 10 max 0 min
Histogram: 38 0 1 0 0 0 0 0 0 1

Total # of neighbors = 12
Ave neighs/atom = 0.0352941
Neighbor list builds = 3989
Dangerous builds = 0
write_dump all custom dump.atom_info_ac_* id type x y z radius vx vy vz density #
run 205761
Setting up run at Fri Jan  6 11:08:34 2023

Memory usage per processor = 960.195 Mbytes
    Step    Atoms         KinEng            CPU 
33539075      340    0.007902386              0 
33744836      337   0.0078424755      2050.1884 
Loop time of 2050.19 on 40 procs for 205761 steps with 337 atoms, finish time Fri Jan  6 11:42:44 2023


Pair  time (%) = 0.365296 (0.0178177)
Neigh time (%) = 3.35416 (0.163603)
Comm  time (%) = 2.43687 (0.118861)
Outpt time (%) = 0.000600372 (2.92837e-05)
Other time (%) = 2044.03 (99.6997)

Nlocal:    8.425 ave 160 max 0 min
Histogram: 37 1 0 0 0 0 0 1 0 1
Nghost:    1.6 ave 28 max 0 min
Histogram: 35 1 1 1 0 1 0 0 0 1
Neighs:    0.25 ave 8 max 0 min
Histogram: 38 0 1 0 0 0 0 0 0 1

Total # of neighbors = 10
Ave neighs/atom = 0.0296736
Neighbor list builds = 4073
Dangerous builds = 1
write_dump all custom dump.atom_info_ac_* id type x y z radius vx vy vz density #
run 205761
Setting up run at Fri Jan  6 11:42:44 2023

Memory usage per processor = 960.195 Mbytes
    Step    Atoms         KinEng            CPU 
33744836      337   0.0078424755              0 
33950597      336   0.0077814487      2035.7705 
Loop time of 2035.77 on 40 procs for 205761 steps with 336 atoms, finish time Fri Jan  6 12:16:40 2023


Pair  time (%) = 0.366836 (0.0180195)
Neigh time (%) = 3.44979 (0.169459)
Comm  time (%) = 3.48582 (0.171228)
Outpt time (%) = 0.000250186 (1.22895e-05)
Other time (%) = 2028.47 (99.6413)

Nlocal:    8.4 ave 159 max 0 min
Histogram: 37 1 0 0 0 0 0 1 0 1
Nghost:    1.525 ave 27 max 0 min
Histogram: 36 0 1 1 0 1 0 0 0 1
Neighs:    0.25 ave 8 max 0 min
Histogram: 38 0 1 0 0 0 0 0 0 1

Total # of neighbors = 10
Ave neighs/atom = 0.0297619
Neighbor list builds = 4182
Dangerous builds = 1
write_dump all custom dump.atom_info_ac_* id type x y z radius vx vy vz density #
run 205761
Setting up run at Fri Jan  6 12:16:40 2023

Memory usage per processor = 960.195 Mbytes
    Step    Atoms         KinEng            CPU 
33950597      336   0.0077814487              0 
34156358      335   0.0094900952      2052.8541 
Loop time of 2052.85 on 40 procs for 205761 steps with 335 atoms, finish time Fri Jan  6 12:50:53 2023


Pair  time (%) = 0.367715 (0.0179124)
Neigh time (%) = 3.49428 (0.170216)
Comm  time (%) = 3.39732 (0.165493)
Outpt time (%) = 0.00060995 (2.97123e-05)
Other time (%) = 2045.59 (99.6463)

Nlocal:    8.375 ave 160 max 0 min
Histogram: 37 1 0 0 0 0 0 1 0 1
Nghost:    1.5 ave 26 max 0 min
Histogram: 36 0 1 1 0 0 1 0 0 1
Neighs:    0.3 ave 8 max 0 min
Histogram: 37 1 0 1 0 0 0 0 0 1

Total # of neighbors = 12
Ave neighs/atom = 0.0358209
Neighbor list builds = 4231
Dangerous builds = 8
write_dump all custom dump.atom_info_ac_* id type x y z radius vx vy vz density #
run 205761
Setting up run at Fri Jan  6 12:50:53 2023

Memory usage per processor = 960.195 Mbytes
    Step    Atoms         KinEng            CPU 
34156358      335   0.0094900952              0 
WARNING: Forced restart written (../output.cpp:427)
34221833      335   0.0084279231      656.93901 
Loop time of 656.939 on 40 procs for 205761 steps with 335 atoms, finish time Fri Jan  6 13:01:50 2023


Pair  time (%) = 0.120579 (0.0183547)
Neigh time (%) = 2.09377 (0.318715)
Comm  time (%) = 1.55672 (0.236966)
Outpt time (%) = 0.716312 (0.109038)
Other time (%) = 652.452 (99.3169)

Nlocal:    8.375 ave 162 max 0 min
Histogram: 37 1 0 0 0 0 0 1 0 1
Nghost:    1.5 ave 24 max 0 min
Histogram: 35 1 1 1 0 0 0 1 0 1
Neighs:    0.35 ave 10 max 0 min
Histogram: 37 1 0 1 0 0 0 0 0 1

Total # of neighbors = 14
Ave neighs/atom = 0.041791
Neighbor list builds = 2524
Dangerous builds = 0
