LIGGGHTS (Version LIGGGHTS-PUBLIC 3.8.0, compiled 2022-11-07-16:55:38 by serperd1, git commit 86544c3f1215bc9744d7929e3eacf53ba086af9e)
units si #
dimension 3 #
newton off #
boundary f f f #
atom_style sphere #
pair_style gran model hertz tangential history #
communicate single vel yes #
region outer_basket cylinder y 0 0 0.15 -0.15 0.15 #
create_box 3 outer_basket #
Created orthogonal box = (-0.15 -0.15 -0.15) to (0.15 0.15 0.15)
  2 by 4 by 5 MPI processor grid
variable my_omega equal 157.0796 #
fix cone_mesh all mesh/surface file cone.stl type 3 scale 1 #
fix rotating_wall_1 all move/mesh mesh cone_mesh rotate/variable origin 0 0 0 axis 0 1 0 omega v_my_omega #
fix filter_mesh_walls all wall/gran model hertz tangential history primitive type 2 ycylinder_filtermesh 0.069 0 0 2 12 -0.0628 0 0.019061 0.016566 0.044061 0.041566 shear x 10.8385 #

fix inlet_cyl_wall_mesh all mesh/surface file in_cyl.stl type 3 scale 1 #
fix top_cyl_wall_mesh all mesh/surface file top_cyl.stl type 3 scale 1 #
fix rotating_wall_4 all move/mesh mesh top_cyl_wall_mesh rotate/variable origin 0 0 0 axis 0 1 0 omega v_my_omega #
fix bot_cyl_wall_mesh all mesh/surface file bot_cyl.stl type 3 scale 1 #
fix rotating_wall_5 all move/mesh mesh bot_cyl_wall_mesh rotate/variable origin 0 0 0 axis 0 1 0 omega v_my_omega #
fix bot_disk_wall_mesh all mesh/surface file bottom_disk.stl type 3 scale 1 #
fix rotating_wall_6 all move/mesh mesh bot_disk_wall_mesh rotate/variable origin 0 0 0 axis 0 1 0 omega v_my_omega #
fix top_disk_wall_mesh all mesh/surface file top_disk.stl type 3 scale 1 #
fix rotating_wall_7 all move/mesh mesh top_disk_wall_mesh rotate/variable origin 0 0 0 axis 0 1 0 omega v_my_omega #
fix GMSH_mesh_walls all wall/gran model hertz tangential history mesh n_meshes 6 meshes cone_mesh top_cyl_wall_mesh bot_cyl_wall_mesh bot_disk_wall_mesh inlet_cyl_wall_mesh top_disk_wall_mesh #
fix Young_mod all property/global youngsModulus peratomtype 375000000 46000000 1000000000 #
fix Poisson_rat all property/global poissonsRatio peratomtype 0.32 0.42 0.29 #
fix Coeff_rest all property/global coefficientRestitution peratomtypepair 3 0.15 0.32 0.475 0.32 0.49 0.645 0.475 0.645 0.8 #
fix Coeff_fric all property/global coefficientFriction peratomtypepair 3 0.04 0.145 0.12 0.145 0.25 0.225 0.12 0.225 0.2 #

neighbor 0.00039366 bin #
neigh_modify delay 0 one 100000 page 5000000 #
fix r_0to10p all particletemplate/sphere 12345787 atom_type 1 density constant 2650 radius constant 6.3e-05 #
fix r_10to50p all particletemplate/sphere 15485863 atom_type 1 density constant 2650 radius constant 0.0001746 #
fix r_50to90p all particletemplate/sphere 15485867 atom_type 1 density constant 2650 radius constant 0.00063495 #
fix r_90to100p all particletemplate/sphere 32452843 atom_type 1 density constant 2650 radius constant 0.00098415 #
fix prob_par all particledistribution/discrete 32452867 4 r_0to10p 0.1 r_10to50p 0.4 r_50to90p 0.4 r_90to100p 0.1 #
pair_coeff * * #
timestep 4.86e-08 #

fix nve_group all nve/sphere #
fix grav_fix all gravity 6.1081 vector 0.017 -0.0033 0 -1 0 #
fix cent_fix all centrifugal 157.0796 0.017 -0.0033 0.069 #

variable step equal step #
variable mycount equal count(all) #
fix print_amount_of_atoms all print 25 "${step} ${mycount}" file numatoms.txt screen no #
run 0 #
Setting up run at Fri Dec 30 14:49:26 2022

Memory usage per processor = 955.842 Mbytes
    Step    Atoms         KinEng            CPU 
       0        0              0              0 
Loop time of 4.56821e-05 on 40 procs for 0 steps with 0 atoms, finish time Fri Dec 30 14:49:26 2022


Pair  time (%) = 0 (0)
Neigh time (%) = 0 (0)
Comm  time (%) = 0 (0)
Outpt time (%) = 0 (0)
Other time (%) = 4.56821e-05 (100)

Nlocal:    0 ave 0 max 0 min
Histogram: 40 0 0 0 0 0 0 0 0 0
Nghost:    0 ave 0 max 0 min
Histogram: 40 0 0 0 0 0 0 0 0 0
Neighs:    0 ave 0 max 0 min
Histogram: 40 0 0 0 0 0 0 0 0 0

Total # of neighbors = 0
Neighbor list builds = 0
Dangerous builds = 0
run 1 #
Setting up run at Fri Dec 30 14:49:26 2022

Memory usage per processor = 955.842 Mbytes
    Step    Atoms         KinEng            CPU 
       0        0              0              0 
       1        0              0     0.00968625 
Loop time of 0.00970987 on 40 procs for 1 steps with 0 atoms, finish time Fri Dec 30 14:49:26 2022


Pair  time (%) = 2.17045e-06 (0.022353)
Neigh time (%) = 0 (0)
Comm  time (%) = 0.000217283 (2.23775)
Outpt time (%) = 8.63515e-05 (0.889317)
Other time (%) = 0.00940407 (96.8506)

Nlocal:    0 ave 0 max 0 min
Histogram: 40 0 0 0 0 0 0 0 0 0
Nghost:    0 ave 0 max 0 min
Histogram: 40 0 0 0 0 0 0 0 0 0
Neighs:    0 ave 0 max 0 min
Histogram: 40 0 0 0 0 0 0 0 0 0

Total # of neighbors = 0
Neighbor list builds = 0
Dangerous builds = 0
read_dump dump.atom_info_1 1 x y z radius vx vy vz box no add yes replace no #
  orthogonal box = (-0.15 -0.15 -0.15) to (0.15 0.15 0.15)
  0 atoms before read
  1331 atoms in snapshot
  0 atoms purged
  0 atoms replaced
  0 atoms trimmed
  1331 atoms added
  1331 atoms after read
set atom * type 1 density 2650 vy -0.01175 #
  1331 settings made for type
  1331 settings made for density
  1331 settings made for vy
run 1 #
Setting up run at Fri Dec 30 14:49:26 2022

Memory usage per processor = 960.195 Mbytes
    Step    Atoms         KinEng            CPU 
       1     1331    2.04396e-07              0 
       2     1331  2.5455856e-07    0.009214309 
Loop time of 0.00923027 on 40 procs for 1 steps with 1331 atoms, finish time Fri Dec 30 14:49:26 2022


Pair  time (%) = 2.5255e-06 (0.027361)
Neigh time (%) = 0 (0)
Comm  time (%) = 6.1232e-06 (0.0663382)
Outpt time (%) = 0.000123594 (1.339)
Other time (%) = 0.00909803 (98.5673)

Nlocal:    33.275 ave 555 max 0 min
Histogram: 36 0 2 0 0 0 0 0 0 2
Nghost:    13.575 ave 173 max 0 min
Histogram: 36 0 0 0 0 1 1 0 0 2
Neighs:    10.175 ave 168 max 0 min
Histogram: 36 0 2 0 0 0 0 0 0 2

Total # of neighbors = 407
Ave neighs/atom = 0.305785
Neighbor list builds = 0
Dangerous builds = 0
write_dump all custom dump.atom_info_ac_* id type x y z radius vx vy vz density #
run 205761
Setting up run at Fri Dec 30 14:49:26 2022

Memory usage per processor = 960.195 Mbytes
    Step    Atoms         KinEng            CPU 
       2     1331  2.5455856e-07              0 
  205763     1331  6.9273694e-05      2046.4404 
Loop time of 2046.44 on 40 procs for 205761 steps with 1331 atoms, finish time Fri Dec 30 15:23:33 2022


Pair  time (%) = 0.514997 (0.0251655)
Neigh time (%) = 0.41665 (0.0203598)
Comm  time (%) = 1.14758 (0.056077)
Outpt time (%) = 0.000271653 (1.32744e-05)
Other time (%) = 2044.36 (99.8984)

Nlocal:    33.275 ave 551 max 0 min
Histogram: 36 0 2 0 0 0 0 0 0 2
Nghost:    13.8 ave 171 max 0 min
Histogram: 36 0 0 0 0 1 1 0 0 2
Neighs:    11.175 ave 191 max 0 min
Histogram: 36 1 1 0 0 0 0 0 1 1

Total # of neighbors = 447
Ave neighs/atom = 0.335838
Neighbor list builds = 550
Dangerous builds = 0
write_dump all custom dump.atom_info_ac_* id type x y z radius vx vy vz density #
run 205761
Setting up run at Fri Dec 30 15:23:33 2022

Memory usage per processor = 960.195 Mbytes
    Step    Atoms         KinEng            CPU 
  205763     1331  6.9273694e-05              0 
  411524     1331  0.00040217614      2049.1247 
Loop time of 2049.12 on 40 procs for 205761 steps with 1331 atoms, finish time Fri Dec 30 15:57:42 2022


Pair  time (%) = 0.518669 (0.0253117)
Neigh time (%) = 0.417115 (0.0203558)
Comm  time (%) = 1.17516 (0.0573494)
Outpt time (%) = 0.000622576 (3.03825e-05)
Other time (%) = 2047.01 (99.897)

Nlocal:    33.275 ave 538 max 0 min
Histogram: 36 0 2 0 0 0 0 0 0 2
Nghost:    13.625 ave 169 max 0 min
Histogram: 36 0 0 0 0 1 1 0 0 2
Neighs:    11.725 ave 197 max 0 min
Histogram: 36 1 1 0 0 0 0 0 0 2

Total # of neighbors = 469
Ave neighs/atom = 0.352367
Neighbor list builds = 550
Dangerous builds = 0
write_dump all custom dump.atom_info_ac_* id type x y z radius vx vy vz density #
run 205761
Setting up run at Fri Dec 30 15:57:42 2022

Memory usage per processor = 960.195 Mbytes
    Step    Atoms         KinEng            CPU 
  411524     1331  0.00040217614              0 
  617285     1331  0.00067128357      2043.3734 
Loop time of 2043.37 on 40 procs for 205761 steps with 1331 atoms, finish time Fri Dec 30 16:31:46 2022


Pair  time (%) = 0.51806 (0.0253532)
Neigh time (%) = 0.417996 (0.0204562)
Comm  time (%) = 1.21323 (0.0593739)
Outpt time (%) = 0.000535774 (2.62201e-05)
Other time (%) = 2041.22 (99.8948)

Nlocal:    33.275 ave 522 max 0 min
Histogram: 36 0 2 0 0 0 0 0 0 2
Nghost:    13.05 ave 158 max 0 min
Histogram: 36 0 0 0 0 0 1 1 0 2
Neighs:    11.9 ave 190 max 0 min
Histogram: 36 0 2 0 0 0 0 0 0 2

Total # of neighbors = 476
Ave neighs/atom = 0.357626
Neighbor list builds = 550
Dangerous builds = 0
write_dump all custom dump.atom_info_ac_* id type x y z radius vx vy vz density #
run 205761
Setting up run at Fri Dec 30 16:31:46 2022

Memory usage per processor = 960.195 Mbytes
    Step    Atoms         KinEng            CPU 
  617285     1331  0.00067128357              0 
  823046     1331     0.12207246      2067.9972 
Loop time of 2068.01 on 40 procs for 205761 steps with 1331 atoms, finish time Fri Dec 30 17:06:14 2022


Pair  time (%) = 0.527701 (0.0255173)
Neigh time (%) = 2.87618 (0.139079)
Comm  time (%) = 3.14391 (0.152026)
Outpt time (%) = 0.000336424 (1.6268e-05)
Other time (%) = 2061.46 (99.6834)

Nlocal:    33.275 ave 512 max 0 min
Histogram: 36 0 1 1 0 0 0 0 0 2
Nghost:    12.95 ave 161 max 0 min
Histogram: 36 0 0 0 0 1 1 0 0 2
Neighs:    12.575 ave 203 max 0 min
Histogram: 36 0 2 0 0 0 0 0 0 2

Total # of neighbors = 503
Ave neighs/atom = 0.377911
Neighbor list builds = 3561
Dangerous builds = 0
write_dump all custom dump.atom_info_ac_* id type x y z radius vx vy vz density #
run 205761
Setting up run at Fri Dec 30 17:06:14 2022

Memory usage per processor = 960.195 Mbytes
    Step    Atoms         KinEng            CPU 
  823046     1331     0.12207246              0 
 1028807     1331    0.037846525      2099.1074 
Loop time of 2099.11 on 40 procs for 205761 steps with 1331 atoms, finish time Fri Dec 30 17:41:13 2022


Pair  time (%) = 0.535354 (0.0255039)
Neigh time (%) = 5.37307 (0.25597)
Comm  time (%) = 4.9465 (0.235648)
Outpt time (%) = 0.000575386 (2.7411e-05)
Other time (%) = 2088.25 (99.4829)

Nlocal:    33.275 ave 498 max 0 min
Histogram: 36 0 1 1 0 0 0 0 0 2
Nghost:    12.275 ave 159 max 0 min
Histogram: 36 0 0 0 0 1 1 0 0 2
Neighs:    12.65 ave 194 max 0 min
Histogram: 36 0 1 1 0 0 0 0 0 2

Total # of neighbors = 506
Ave neighs/atom = 0.380165
Neighbor list builds = 6608
Dangerous builds = 0
write_dump all custom dump.atom_info_ac_* id type x y z radius vx vy vz density #
run 205761
Setting up run at Fri Dec 30 17:41:13 2022

Memory usage per processor = 960.195 Mbytes
    Step    Atoms         KinEng            CPU 
 1028807     1331    0.037846525              0 
 1234568     1331    0.040422925      2073.4169 
Loop time of 2073.43 on 40 procs for 205761 steps with 1331 atoms, finish time Fri Dec 30 18:15:47 2022


Pair  time (%) = 0.529657 (0.0255449)
Neigh time (%) = 3.55546 (0.171477)
Comm  time (%) = 4.17216 (0.20122)
Outpt time (%) = 0.000321284 (1.54953e-05)
Other time (%) = 2065.18 (99.6017)

Nlocal:    33.275 ave 496 max 0 min
Histogram: 36 0 1 1 0 0 0 0 0 2
Nghost:    11.725 ave 156 max 0 min
Histogram: 36 0 0 0 0 2 0 0 1 1
Neighs:    11.875 ave 183 max 0 min
Histogram: 36 0 1 1 0 0 0 0 0 2

Total # of neighbors = 475
Ave neighs/atom = 0.356875
Neighbor list builds = 4345
Dangerous builds = 0
write_dump all custom dump.atom_info_ac_* id type x y z radius vx vy vz density #
run 205761
Setting up run at Fri Dec 30 18:15:47 2022

Memory usage per processor = 960.195 Mbytes
    Step    Atoms         KinEng            CPU 
 1234568     1331    0.040422925              0 
 1440329     1329      0.2688221      2104.8765 
Loop time of 2104.88 on 40 procs for 205761 steps with 1329 atoms, finish time Fri Dec 30 18:50:52 2022


Pair  time (%) = 0.534652 (0.0254006)
Neigh time (%) = 6.09877 (0.289745)
Comm  time (%) = 6.62913 (0.314942)
Outpt time (%) = 0.000548251 (2.60467e-05)
Other time (%) = 2091.61 (99.3699)

Nlocal:    33.225 ave 490 max 0 min
Histogram: 36 0 1 1 0 0 0 0 0 2
Nghost:    11.05 ave 140 max 0 min
Histogram: 36 0 0 0 0 1 1 0 0 2
Neighs:    11.925 ave 180 max 0 min
Histogram: 36 0 0 1 1 0 0 0 0 2

Total # of neighbors = 477
Ave neighs/atom = 0.358916
Neighbor list builds = 7439
Dangerous builds = 3
write_dump all custom dump.atom_info_ac_* id type x y z radius vx vy vz density #
run 205761
Setting up run at Fri Dec 30 18:50:52 2022

Memory usage per processor = 960.195 Mbytes
    Step    Atoms         KinEng            CPU 
 1440329     1329      0.2688221              0 
 1646090     1328     0.25014218      2119.8805 
Loop time of 2119.88 on 40 procs for 205761 steps with 1328 atoms, finish time Fri Dec 30 19:26:12 2022


Pair  time (%) = 0.540611 (0.0255019)
Neigh time (%) = 8.4453 (0.398386)
Comm  time (%) = 6.60933 (0.311778)
Outpt time (%) = 0.000308963 (1.45746e-05)
Other time (%) = 2104.29 (99.2643)

Nlocal:    33.2 ave 487 max 0 min
Histogram: 36 0 1 1 0 0 0 0 0 2
Nghost:    10.675 ave 135 max 0 min
Histogram: 36 0 0 0 0 2 0 0 0 2
Neighs:    11.7 ave 178 max 0 min
Histogram: 36 0 0 2 0 0 0 0 0 2

Total # of neighbors = 468
Ave neighs/atom = 0.35241
Neighbor list builds = 10254
Dangerous builds = 1
write_dump all custom dump.atom_info_ac_* id type x y z radius vx vy vz density #
run 205761
Setting up run at Fri Dec 30 19:26:12 2022

Memory usage per processor = 960.195 Mbytes
    Step    Atoms         KinEng            CPU 
 1646090     1328     0.25014218              0 
 1851851     1324     0.16264444       2125.026 
Loop time of 2125.03 on 40 procs for 205761 steps with 1324 atoms, finish time Fri Dec 30 20:01:37 2022


Pair  time (%) = 0.538084 (0.0253213)
Neigh time (%) = 8.29535 (0.390365)
Comm  time (%) = 7.34295 (0.345546)
Outpt time (%) = 0.00065894 (3.10086e-05)
Other time (%) = 2108.85 (99.2387)

Nlocal:    33.1 ave 485 max 0 min
Histogram: 36 0 1 1 0 0 0 0 0 2
Nghost:    10.5 ave 139 max 0 min
Histogram: 36 0 0 0 0 2 0 0 1 1
Neighs:    11.675 ave 178 max 0 min
Histogram: 36 0 0 2 0 0 0 0 0 2

Total # of neighbors = 467
Ave neighs/atom = 0.352719
Neighbor list builds = 10052
Dangerous builds = 13
write_dump all custom dump.atom_info_ac_* id type x y z radius vx vy vz density #
run 205761
Setting up run at Fri Dec 30 20:01:37 2022

Memory usage per processor = 960.195 Mbytes
    Step    Atoms         KinEng            CPU 
 1851851     1324     0.16264444              0 
 2057612     1321       0.124433      2278.0861 
Loop time of 2278.09 on 40 procs for 205761 steps with 1321 atoms, finish time Fri Dec 30 20:39:35 2022


Pair  time (%) = 0.528234 (0.0231876)
Neigh time (%) = 6.11818 (0.268567)
Comm  time (%) = 7.51742 (0.329988)
Outpt time (%) = 0.000184042 (8.07878e-06)
Other time (%) = 2263.92 (99.3782)

Nlocal:    33.025 ave 480 max 0 min
Histogram: 36 0 2 0 0 0 0 0 0 2
Nghost:    10.35 ave 137 max 0 min
Histogram: 36 0 0 0 0 1 1 0 1 1
Neighs:    11.225 ave 176 max 0 min
Histogram: 36 0 0 2 0 0 0 0 0 2

Total # of neighbors = 449
Ave neighs/atom = 0.339894
Neighbor list builds = 7414
Dangerous builds = 278
write_dump all custom dump.atom_info_ac_* id type x y z radius vx vy vz density #
run 205761
Setting up run at Fri Dec 30 20:39:35 2022

Memory usage per processor = 960.195 Mbytes
    Step    Atoms         KinEng            CPU 
 2057612     1321       0.124433              0 
 2263373     1313    0.095672817      2109.2106 
Loop time of 2109.21 on 40 procs for 205761 steps with 1313 atoms, finish time Fri Dec 30 21:14:44 2022


Pair  time (%) = 0.531722 (0.0252095)
Neigh time (%) = 6.87415 (0.325911)
Comm  time (%) = 8.95579 (0.424604)
Outpt time (%) = 0.000598875 (2.83933e-05)
Other time (%) = 2092.85 (99.2242)

Nlocal:    32.825 ave 477 max 0 min
Histogram: 36 0 2 0 0 0 0 0 0 2
Nghost:    10.025 ave 125 max 0 min
Histogram: 36 0 0 0 0 0 2 0 0 2
Neighs:    10.7 ave 170 max 0 min
Histogram: 36 0 1 1 0 0 0 0 0 2

Total # of neighbors = 428
Ave neighs/atom = 0.325971
Neighbor list builds = 8357
Dangerous builds = 479
write_dump all custom dump.atom_info_ac_* id type x y z radius vx vy vz density #
run 205761
Setting up run at Fri Dec 30 21:14:44 2022

Memory usage per processor = 960.195 Mbytes
    Step    Atoms         KinEng            CPU 
 2263373     1313    0.095672817              0 
 2469134     1308     0.13509254       2136.029 
Loop time of 2136.03 on 40 procs for 205761 steps with 1308 atoms, finish time Fri Dec 30 21:50:20 2022


Pair  time (%) = 0.53282 (0.0249444)
Neigh time (%) = 9.11816 (0.426874)
Comm  time (%) = 12.6093 (0.590317)
Outpt time (%) = 0.000355822 (1.66581e-05)
Other time (%) = 2113.77 (98.9578)

Nlocal:    32.7 ave 480 max 0 min
Histogram: 36 0 2 0 0 0 0 0 0 2
Nghost:    9.6 ave 123 max 0 min
Histogram: 36 0 0 0 0 1 1 0 1 1
Neighs:    10.85 ave 176 max 0 min
Histogram: 36 0 2 0 0 0 0 0 0 2

Total # of neighbors = 434
Ave neighs/atom = 0.331804
Neighbor list builds = 11091
Dangerous builds = 117
write_dump all custom dump.atom_info_ac_* id type x y z radius vx vy vz density #
run 205761
Setting up run at Fri Dec 30 21:50:20 2022

Memory usage per processor = 960.195 Mbytes
    Step    Atoms         KinEng            CPU 
 2469134     1308     0.13509254              0 
 2674895     1296     0.18063106      2126.8719 
Loop time of 2126.87 on 40 procs for 205761 steps with 1296 atoms, finish time Fri Dec 30 22:25:47 2022


Pair  time (%) = 0.533347 (0.0250766)
Neigh time (%) = 9.25438 (0.435117)
Comm  time (%) = 11.1171 (0.522698)
Outpt time (%) = 0.000579081 (2.72269e-05)
Other time (%) = 2105.97 (99.0171)

Nlocal:    32.4 ave 481 max 0 min
Histogram: 36 0 2 0 0 0 0 0 0 2
Nghost:    9.4 ave 115 max 0 min
Histogram: 36 0 0 0 0 0 2 0 1 1
Neighs:    10.7 ave 179 max 0 min
Histogram: 36 1 1 0 0 0 0 0 1 1

Total # of neighbors = 428
Ave neighs/atom = 0.330247
Neighbor list builds = 11278
Dangerous builds = 1003
write_dump all custom dump.atom_info_ac_* id type x y z radius vx vy vz density #
run 205761
Setting up run at Fri Dec 30 22:25:47 2022

Memory usage per processor = 960.195 Mbytes
    Step    Atoms         KinEng            CPU 
 2674895     1296     0.18063106              0 
 2880656     1290     0.18641219      2107.3311 
Loop time of 2107.33 on 40 procs for 205761 steps with 1290 atoms, finish time Fri Dec 30 23:00:55 2022


Pair  time (%) = 0.514163 (0.0243988)
Neigh time (%) = 6.35086 (0.30137)
Comm  time (%) = 8.09516 (0.384143)
Outpt time (%) = 0.000647573 (3.07295e-05)
Other time (%) = 2092.37 (99.2901)

Nlocal:    32.25 ave 481 max 0 min
Histogram: 36 0 2 0 0 0 0 0 0 2
Nghost:    9.325 ave 118 max 0 min
Histogram: 36 0 0 0 0 0 2 0 1 1
Neighs:    10.125 ave 169 max 0 min
Histogram: 36 1 1 0 0 0 0 0 0 2

Total # of neighbors = 405
Ave neighs/atom = 0.313953
Neighbor list builds = 7695
Dangerous builds = 420
write_dump all custom dump.atom_info_ac_* id type x y z radius vx vy vz density #
run 205761
Setting up run at Fri Dec 30 23:00:55 2022

Memory usage per processor = 960.195 Mbytes
    Step    Atoms         KinEng            CPU 
 2880656     1290     0.18641219              0 
 3086417     1287     0.14022248      2132.5217 
Loop time of 2132.52 on 40 procs for 205761 steps with 1287 atoms, finish time Fri Dec 30 23:36:27 2022


Pair  time (%) = 0.522057 (0.0244807)
Neigh time (%) = 9.04546 (0.424167)
Comm  time (%) = 13.1469 (0.616494)
Outpt time (%) = 0.000542962 (2.5461e-05)
Other time (%) = 2109.81 (98.9348)

Nlocal:    32.175 ave 483 max 0 min
Histogram: 36 0 2 0 0 0 0 0 0 2
Nghost:    9.475 ave 122 max 0 min
Histogram: 36 0 0 0 0 1 1 1 0 1
Neighs:    9.45 ave 164 max 0 min
Histogram: 36 1 1 0 0 0 0 0 0 2

Total # of neighbors = 378
Ave neighs/atom = 0.293706
Neighbor list builds = 11086
Dangerous builds = 3479
write_dump all custom dump.atom_info_ac_* id type x y z radius vx vy vz density #
run 205761
Setting up run at Fri Dec 30 23:36:27 2022

Memory usage per processor = 960.195 Mbytes
    Step    Atoms         KinEng            CPU 
 3086417     1287     0.14022248              0 
 3292178     1280     0.23763409      2142.8779 
Loop time of 2142.88 on 40 procs for 205761 steps with 1280 atoms, finish time Sat Dec 31 00:12:10 2022


Pair  time (%) = 0.533334 (0.0248887)
Neigh time (%) = 10.0711 (0.469979)
Comm  time (%) = 12.3224 (0.57504)
Outpt time (%) = 0.000584513 (2.7277e-05)
Other time (%) = 2119.95 (98.9301)

Nlocal:    32 ave 484 max 0 min
Histogram: 36 0 2 0 0 0 0 0 0 2
Nghost:    9.025 ave 118 max 0 min
Histogram: 36 0 0 0 0 0 2 1 0 1
Neighs:    9.75 ave 166 max 0 min
Histogram: 37 0 1 0 0 0 0 0 0 2

Total # of neighbors = 390
Ave neighs/atom = 0.304688
Neighbor list builds = 12229
Dangerous builds = 1448
write_dump all custom dump.atom_info_ac_* id type x y z radius vx vy vz density #
run 205761
Setting up run at Sat Dec 31 00:12:10 2022

Memory usage per processor = 960.195 Mbytes
    Step    Atoms         KinEng            CPU 
 3292178     1280     0.23763409              0 
 3497939     1268     0.40269411      2131.1658 
Loop time of 2131.17 on 40 procs for 205761 steps with 1268 atoms, finish time Sat Dec 31 00:47:41 2022


Pair  time (%) = 0.517333 (0.0242746)
Neigh time (%) = 9.25146 (0.434103)
Comm  time (%) = 12.5799 (0.59028)
Outpt time (%) = 0.000293246 (1.37599e-05)
Other time (%) = 2108.82 (98.9513)

Nlocal:    31.7 ave 473 max 0 min
Histogram: 36 0 2 0 0 0 0 0 0 2
Nghost:    8.875 ave 111 max 0 min
Histogram: 36 0 0 0 0 0 2 0 1 1
Neighs:    9.125 ave 162 max 0 min
Histogram: 37 1 0 0 0 0 0 0 0 2

Total # of neighbors = 365
Ave neighs/atom = 0.287855
Neighbor list builds = 11177
Dangerous builds = 247
write_dump all custom dump.atom_info_ac_* id type x y z radius vx vy vz density #
run 205761
Setting up run at Sat Dec 31 00:47:42 2022

Memory usage per processor = 960.195 Mbytes
    Step    Atoms         KinEng            CPU 
 3497939     1268     0.40269411              0 
 3703700     1264     0.33739704      2115.1847 
Loop time of 2115.18 on 40 procs for 205761 steps with 1264 atoms, finish time Sat Dec 31 01:22:57 2022


Pair  time (%) = 0.515225 (0.0243584)
Neigh time (%) = 8.0295 (0.379612)
Comm  time (%) = 10.6594 (0.503946)
Outpt time (%) = 0.000788895 (3.72968e-05)
Other time (%) = 2095.98 (99.092)

Nlocal:    31.6 ave 465 max 0 min
Histogram: 36 0 2 0 0 0 0 0 0 2
Nghost:    8.45 ave 109 max 0 min
Histogram: 36 0 0 0 0 1 1 0 1 1
Neighs:    9.05 ave 157 max 0 min
Histogram: 36 2 0 0 0 0 0 0 0 2

Total # of neighbors = 362
Ave neighs/atom = 0.286392
Neighbor list builds = 9704
Dangerous builds = 438
write_dump all custom dump.atom_info_ac_* id type x y z radius vx vy vz density #
run 205761
Setting up run at Sat Dec 31 01:22:57 2022

Memory usage per processor = 960.195 Mbytes
    Step    Atoms         KinEng            CPU 
 3703700     1264     0.33739704              0 
 3909461     1259     0.28851809      2125.8038 
Loop time of 2125.8 on 40 procs for 205761 steps with 1259 atoms, finish time Sat Dec 31 01:58:23 2022


Pair  time (%) = 0.517934 (0.0243641)
Neigh time (%) = 9.22528 (0.433966)
Comm  time (%) = 13.5237 (0.636168)
Outpt time (%) = 0.000269629 (1.26836e-05)
Other time (%) = 2102.54 (98.9055)

Nlocal:    31.475 ave 463 max 0 min
Histogram: 36 0 2 0 0 0 0 0 0 2
Nghost:    8.275 ave 105 max 0 min
Histogram: 36 0 0 0 0 0 2 1 0 1
Neighs:    9.025 ave 155 max 0 min
Histogram: 36 2 0 0 0 0 0 0 0 2

Total # of neighbors = 361
Ave neighs/atom = 0.286736
Neighbor list builds = 11186
Dangerous builds = 725
write_dump all custom dump.atom_info_ac_* id type x y z radius vx vy vz density #
run 205761
Setting up run at Sat Dec 31 01:58:23 2022

Memory usage per processor = 960.195 Mbytes
    Step    Atoms         KinEng            CPU 
 3909461     1259     0.28851809              0 
 4115222     1250     0.38415377      2136.7465 
Loop time of 2136.75 on 40 procs for 205761 steps with 1250 atoms, finish time Sat Dec 31 02:33:59 2022


Pair  time (%) = 0.515068 (0.0241052)
Neigh time (%) = 9.34621 (0.437404)
Comm  time (%) = 12.7457 (0.596499)
Outpt time (%) = 0.000580239 (2.71553e-05)
Other time (%) = 2114.14 (98.942)

Nlocal:    31.25 ave 463 max 0 min
Histogram: 36 1 1 0 0 0 0 0 0 2
Nghost:    8.275 ave 108 max 0 min
Histogram: 36 0 0 0 0 0 3 0 0 1
Neighs:    8.375 ave 149 max 0 min
Histogram: 36 2 0 0 0 0 0 0 0 2

Total # of neighbors = 335
Ave neighs/atom = 0.268
Neighbor list builds = 11275
Dangerous builds = 282
write_dump all custom dump.atom_info_ac_* id type x y z radius vx vy vz density #
run 205761
Setting up run at Sat Dec 31 02:34:00 2022

Memory usage per processor = 960.195 Mbytes
    Step    Atoms         KinEng            CPU 
 4115222     1250     0.38415377              0 
 4320983     1242     0.43566352      2131.7347 
Loop time of 2131.74 on 40 procs for 205761 steps with 1242 atoms, finish time Sat Dec 31 03:09:31 2022


Pair  time (%) = 0.50519 (0.0236985)
Neigh time (%) = 9.47476 (0.444462)
Comm  time (%) = 12.2025 (0.572419)
Outpt time (%) = 0.000296437 (1.39059e-05)
Other time (%) = 2109.55 (98.9594)

Nlocal:    31.05 ave 463 max 0 min
Histogram: 36 0 2 0 0 0 0 0 0 2
Nghost:    8.1 ave 99 max 0 min
Histogram: 36 0 0 0 0 0 2 0 1 1
Neighs:    8.225 ave 157 max 0 min
Histogram: 36 2 0 0 0 0 0 0 1 1

Total # of neighbors = 329
Ave neighs/atom = 0.264895
Neighbor list builds = 11394
Dangerous builds = 341
write_dump all custom dump.atom_info_ac_* id type x y z radius vx vy vz density #
run 205761
Setting up run at Sat Dec 31 03:09:31 2022

Memory usage per processor = 960.195 Mbytes
    Step    Atoms         KinEng            CPU 
 4320983     1242     0.43566352              0 
 4526744     1235      0.2900922      2121.4745 
Loop time of 2121.47 on 40 procs for 205761 steps with 1235 atoms, finish time Sat Dec 31 03:44:53 2022


Pair  time (%) = 0.49632 (0.0233951)
Neigh time (%) = 9.58321 (0.451724)
Comm  time (%) = 15.8231 (0.745854)
Outpt time (%) = 0.000505641 (2.38344e-05)
Other time (%) = 2095.57 (98.779)

Nlocal:    30.875 ave 463 max 0 min
Histogram: 36 0 2 0 0 0 0 0 0 2
Nghost:    7.85 ave 95 max 0 min
Histogram: 36 0 0 0 0 0 2 0 0 2
Neighs:    8.025 ave 154 max 0 min
Histogram: 37 1 0 0 0 0 0 0 1 1

Total # of neighbors = 321
Ave neighs/atom = 0.259919
Neighbor list builds = 11555
Dangerous builds = 878
write_dump all custom dump.atom_info_ac_* id type x y z radius vx vy vz density #
run 205761
Setting up run at Sat Dec 31 03:44:53 2022

Memory usage per processor = 960.195 Mbytes
    Step    Atoms         KinEng            CPU 
 4526744     1235      0.2900922              0 
 4732505     1225     0.41084692      2121.4583 
Loop time of 2121.46 on 40 procs for 205761 steps with 1225 atoms, finish time Sat Dec 31 04:20:14 2022


Pair  time (%) = 0.499043 (0.0235236)
Neigh time (%) = 9.39925 (0.443056)
Comm  time (%) = 14.7614 (0.695814)
Outpt time (%) = 0.000300526 (1.4166e-05)
Other time (%) = 2096.8 (98.8376)

Nlocal:    30.625 ave 485 max 0 min
Histogram: 36 0 2 0 0 0 0 0 1 1
Nghost:    7.975 ave 94 max 0 min
Histogram: 36 0 0 0 0 0 2 0 0 2
Neighs:    8.275 ave 185 max 0 min
Histogram: 37 1 0 0 0 0 1 0 0 1

Total # of neighbors = 331
Ave neighs/atom = 0.270204
Neighbor list builds = 11334
Dangerous builds = 94
write_dump all custom dump.atom_info_ac_* id type x y z radius vx vy vz density #
run 205761
Setting up run at Sat Dec 31 04:20:14 2022

Memory usage per processor = 960.195 Mbytes
    Step    Atoms         KinEng            CPU 
 4732505     1225     0.41084692              0 
 4938266     1216     0.43966036      2129.9102 
Loop time of 2129.95 on 40 procs for 205761 steps with 1216 atoms, finish time Sat Dec 31 04:55:44 2022


Pair  time (%) = 0.499712 (0.0234613)
Neigh time (%) = 9.04047 (0.424446)
Comm  time (%) = 13.9022 (0.6527)
Outpt time (%) = 0.000490499 (2.30287e-05)
Other time (%) = 2106.5 (98.8994)

Nlocal:    30.4 ave 440 max 0 min
Histogram: 36 0 2 0 0 0 0 0 0 2
Nghost:    8.4 ave 103 max 0 min
Histogram: 36 0 0 0 0 1 1 0 1 1
Neighs:    7.85 ave 173 max 0 min
Histogram: 37 1 0 0 0 1 0 0 0 1

Total # of neighbors = 314
Ave neighs/atom = 0.258224
Neighbor list builds = 10931
Dangerous builds = 790
write_dump all custom dump.atom_info_ac_* id type x y z radius vx vy vz density #
run 205761
Setting up run at Sat Dec 31 04:55:45 2022

Memory usage per processor = 960.195 Mbytes
    Step    Atoms         KinEng            CPU 
 4938266     1216     0.43966036              0 
 5144027     1205     0.53797623      2159.4502 
Loop time of 2159.45 on 40 procs for 205761 steps with 1205 atoms, finish time Sat Dec 31 05:31:44 2022


Pair  time (%) = 0.507577 (0.0235049)
Neigh time (%) = 13.1221 (0.607661)
Comm  time (%) = 16.6223 (0.769747)
Outpt time (%) = 0.000561866 (2.60189e-05)
Other time (%) = 2129.2 (98.5991)

Nlocal:    30.125 ave 420 max 0 min
Histogram: 36 0 1 1 0 0 0 0 0 2
Nghost:    7.7 ave 92 max 0 min
Histogram: 36 0 0 0 0 1 0 1 0 2
Neighs:    7.475 ave 123 max 0 min
Histogram: 36 0 2 0 0 0 0 0 0 2

Total # of neighbors = 299
Ave neighs/atom = 0.248133
Neighbor list builds = 15807
Dangerous builds = 61
write_dump all custom dump.atom_info_ac_* id type x y z radius vx vy vz density #
run 205761
Setting up run at Sat Dec 31 05:31:44 2022

Memory usage per processor = 960.195 Mbytes
    Step    Atoms         KinEng            CPU 
 5144027     1205     0.53797623              0 
 5349788     1193     0.60496473       2152.757 
Loop time of 2152.76 on 40 procs for 205761 steps with 1193 atoms, finish time Sat Dec 31 06:07:37 2022


Pair  time (%) = 0.499239 (0.0231907)
Neigh time (%) = 12.8708 (0.597875)
Comm  time (%) = 21.9605 (1.02011)
Outpt time (%) = 0.0040809 (0.000189566)
Other time (%) = 2117.42 (98.3586)

Nlocal:    29.825 ave 410 max 0 min
Histogram: 36 0 1 1 0 0 0 0 0 2
Nghost:    8.05 ave 94 max 0 min
Histogram: 36 0 0 0 0 0 2 0 0 2
Neighs:    6.175 ave 112 max 0 min
Histogram: 37 1 0 0 0 0 0 0 0 2

Total # of neighbors = 247
Ave neighs/atom = 0.207041
Neighbor list builds = 15540
Dangerous builds = 796
write_dump all custom dump.atom_info_ac_* id type x y z radius vx vy vz density #
run 205761
Setting up run at Sat Dec 31 06:07:37 2022

Memory usage per processor = 960.195 Mbytes
    Step    Atoms         KinEng            CPU 
 5349788     1193     0.60496473              0 
 5555549     1182     0.65379711      2156.1378 
Loop time of 2156.14 on 40 procs for 205761 steps with 1182 atoms, finish time Sat Dec 31 06:43:33 2022


Pair  time (%) = 0.485323 (0.0225089)
Neigh time (%) = 11.8834 (0.551144)
Comm  time (%) = 18.3479 (0.850964)
Outpt time (%) = 0.000558599 (2.59074e-05)
Other time (%) = 2125.42 (98.5754)

Nlocal:    29.55 ave 402 max 0 min
Histogram: 35 1 1 1 0 0 0 0 0 2
Nghost:    7.5 ave 93 max 0 min
Histogram: 36 0 0 0 0 1 1 0 0 2
Neighs:    6.1 ave 97 max 0 min
Histogram: 36 1 1 0 0 0 0 0 0 2

Total # of neighbors = 244
Ave neighs/atom = 0.20643
Neighbor list builds = 14355
Dangerous builds = 631
write_dump all custom dump.atom_info_ac_* id type x y z radius vx vy vz density #
run 205761
Setting up run at Sat Dec 31 06:43:33 2022

Memory usage per processor = 960.195 Mbytes
    Step    Atoms         KinEng            CPU 
 5555549     1182     0.65379711              0 
 5761310     1173     0.27293271      2130.8719 
Loop time of 2130.87 on 40 procs for 205761 steps with 1173 atoms, finish time Sat Dec 31 07:19:04 2022


Pair  time (%) = 0.482674 (0.0226515)
Neigh time (%) = 11.9154 (0.55918)
Comm  time (%) = 20.1885 (0.94743)
Outpt time (%) = 0.000252981 (1.18722e-05)
Other time (%) = 2098.29 (98.4707)

Nlocal:    29.325 ave 395 max 0 min
Histogram: 34 2 1 1 0 0 0 0 0 2
Nghost:    7.2 ave 98 max 0 min
Histogram: 36 0 0 0 2 0 0 0 1 1
Neighs:    6.05 ave 98 max 0 min
Histogram: 36 0 2 0 0 0 0 0 0 2

Total # of neighbors = 242
Ave neighs/atom = 0.206309
Neighbor list builds = 14384
Dangerous builds = 964
write_dump all custom dump.atom_info_ac_* id type x y z radius vx vy vz density #
run 205761
Setting up run at Sat Dec 31 07:19:04 2022

Memory usage per processor = 960.195 Mbytes
    Step    Atoms         KinEng            CPU 
 5761310     1173     0.27293271              0 
 5967071     1160     0.32543736      2118.5625 
Loop time of 2118.56 on 40 procs for 205761 steps with 1160 atoms, finish time Sat Dec 31 07:54:23 2022


Pair  time (%) = 0.475686 (0.0224533)
Neigh time (%) = 10.1608 (0.479609)
Comm  time (%) = 19.1315 (0.90304)
Outpt time (%) = 0.00452723 (0.000213693)
Other time (%) = 2088.79 (98.5947)

Nlocal:    29 ave 383 max 0 min
Histogram: 34 2 1 1 0 0 0 0 0 2
Nghost:    7.65 ave 101 max 0 min
Histogram: 36 0 0 1 0 1 0 0 0 2
Neighs:    5.575 ave 102 max 0 min
Histogram: 36 1 1 0 0 0 0 1 0 1

Total # of neighbors = 223
Ave neighs/atom = 0.192241
Neighbor list builds = 12288
Dangerous builds = 1101
write_dump all custom dump.atom_info_ac_* id type x y z radius vx vy vz density #
run 205761
Setting up run at Sat Dec 31 07:54:23 2022

Memory usage per processor = 960.195 Mbytes
    Step    Atoms         KinEng            CPU 
 5967071     1160     0.32543736              0 
 6172832     1142     0.49141868      2139.0028 
Loop time of 2139 on 40 procs for 205761 steps with 1142 atoms, finish time Sat Dec 31 08:30:02 2022


Pair  time (%) = 0.479044 (0.0223957)
Neigh time (%) = 12.4203 (0.580657)
Comm  time (%) = 20.58 (0.962131)
Outpt time (%) = 0.000254573 (1.19015e-05)
Other time (%) = 2105.52 (98.4348)

Nlocal:    28.55 ave 382 max 0 min
Histogram: 34 2 2 0 0 0 0 0 0 2
Nghost:    7.45 ave 93 max 0 min
Histogram: 36 0 0 0 0 2 0 0 0 2
Neighs:    5.1 ave 85 max 0 min
Histogram: 36 0 2 0 0 0 0 0 1 1

Total # of neighbors = 204
Ave neighs/atom = 0.178634
Neighbor list builds = 15073
Dangerous builds = 1365
write_dump all custom dump.atom_info_ac_* id type x y z radius vx vy vz density #
run 205761
Setting up run at Sat Dec 31 08:30:02 2022

Memory usage per processor = 960.195 Mbytes
    Step    Atoms         KinEng            CPU 
 6172832     1142     0.49141868              0 
 6378593     1133     0.42165329      2114.0056 
Loop time of 2114.01 on 40 procs for 205761 steps with 1133 atoms, finish time Sat Dec 31 09:05:16 2022


Pair  time (%) = 0.470709 (0.0222662)
Neigh time (%) = 9.6024 (0.454228)
Comm  time (%) = 15.8388 (0.749231)
Outpt time (%) = 0.000565688 (2.67591e-05)
Other time (%) = 2088.09 (98.7742)

Nlocal:    28.325 ave 382 max 0 min
Histogram: 34 2 1 1 0 0 0 0 0 2
Nghost:    7.575 ave 91 max 0 min
Histogram: 36 0 0 0 0 1 1 0 0 2
Neighs:    4.475 ave 75 max 0 min
Histogram: 36 1 1 0 0 0 0 0 0 2

Total # of neighbors = 179
Ave neighs/atom = 0.157988
Neighbor list builds = 11583
Dangerous builds = 255
write_dump all custom dump.atom_info_ac_* id type x y z radius vx vy vz density #
run 205761
Setting up run at Sat Dec 31 09:05:16 2022

Memory usage per processor = 960.195 Mbytes
    Step    Atoms         KinEng            CPU 
 6378593     1133     0.42165329              0 
 6584354     1117     0.45963231       2124.071 
Loop time of 2124.07 on 40 procs for 205761 steps with 1117 atoms, finish time Sat Dec 31 09:40:40 2022


Pair  time (%) = 0.471015 (0.0221751)
Neigh time (%) = 10.7795 (0.507493)
Comm  time (%) = 20.8371 (0.980998)
Outpt time (%) = 0.000310169 (1.46026e-05)
Other time (%) = 2091.98 (98.4893)

Nlocal:    27.925 ave 376 max 0 min
Histogram: 33 3 2 0 0 0 0 0 0 2
Nghost:    6.925 ave 82 max 0 min
Histogram: 36 0 0 0 0 0 2 0 0 2
Neighs:    4.225 ave 68 max 0 min
Histogram: 36 1 0 1 0 0 0 0 0 2

Total # of neighbors = 169
Ave neighs/atom = 0.151298
Neighbor list builds = 13063
Dangerous builds = 1182
write_dump all custom dump.atom_info_ac_* id type x y z radius vx vy vz density #
run 205761
Setting up run at Sat Dec 31 09:40:40 2022

Memory usage per processor = 960.195 Mbytes
    Step    Atoms         KinEng            CPU 
 6584354     1117     0.45963231              0 
 6790115     1103      0.4078239      2123.4087 
Loop time of 2123.41 on 40 procs for 205761 steps with 1103 atoms, finish time Sat Dec 31 10:16:03 2022


Pair  time (%) = 0.469911 (0.02213)
Neigh time (%) = 9.77167 (0.460188)
Comm  time (%) = 16.043 (0.755533)
Outpt time (%) = 0.000573407 (2.70041e-05)
Other time (%) = 2097.12 (98.7621)

Nlocal:    27.575 ave 378 max 0 min
Histogram: 33 3 1 1 0 0 0 0 1 1
Nghost:    6.775 ave 89 max 0 min
Histogram: 36 0 0 0 0 2 0 0 1 1
Neighs:    3.8 ave 60 max 0 min
Histogram: 36 0 1 1 0 0 0 0 0 2

Total # of neighbors = 152
Ave neighs/atom = 0.137806
Neighbor list builds = 11784
Dangerous builds = 919
write_dump all custom dump.atom_info_ac_* id type x y z radius vx vy vz density #
run 205761
Setting up run at Sat Dec 31 10:16:03 2022

Memory usage per processor = 960.195 Mbytes
    Step    Atoms         KinEng            CPU 
 6790115     1103      0.4078239              0 
 6995876     1087     0.43276938       2139.076 
Loop time of 2139.08 on 40 procs for 205761 steps with 1087 atoms, finish time Sat Dec 31 10:51:43 2022


Pair  time (%) = 0.462311 (0.0216126)
Neigh time (%) = 11.982 (0.560148)
Comm  time (%) = 23.3227 (1.09032)
Outpt time (%) = 0.00032751 (1.53108e-05)
Other time (%) = 2103.31 (98.3279)

Nlocal:    27.175 ave 368 max 0 min
Histogram: 33 3 2 0 0 0 0 0 1 1
Nghost:    6.5 ave 83 max 0 min
Histogram: 36 0 0 0 0 2 0 1 0 1
Neighs:    3.35 ave 58 max 0 min
Histogram: 36 1 1 0 0 0 0 0 0 2

Total # of neighbors = 134
Ave neighs/atom = 0.123275
Neighbor list builds = 14483
Dangerous builds = 1462
write_dump all custom dump.atom_info_ac_* id type x y z radius vx vy vz density #
run 205761
Setting up run at Sat Dec 31 10:51:43 2022

Memory usage per processor = 960.195 Mbytes
    Step    Atoms         KinEng            CPU 
 6995876     1087     0.43276938              0 
 7201637     1073      0.5991997      2133.2876 
Loop time of 2133.29 on 40 procs for 205761 steps with 1073 atoms, finish time Sat Dec 31 11:27:16 2022


Pair  time (%) = 0.464353 (0.021767)
Neigh time (%) = 11.8377 (0.554905)
Comm  time (%) = 20.7823 (0.974193)
Outpt time (%) = 0.000522795 (2.45065e-05)
Other time (%) = 2100.2 (98.4491)

Nlocal:    26.825 ave 360 max 0 min
Histogram: 32 3 3 0 0 0 0 0 0 2
Nghost:    5.925 ave 77 max 0 min
Histogram: 36 0 0 0 0 2 0 0 1 1
Neighs:    3.5 ave 60 max 0 min
Histogram: 36 2 0 0 0 0 0 0 0 2

Total # of neighbors = 140
Ave neighs/atom = 0.130475
Neighbor list builds = 14269
Dangerous builds = 554
write_dump all custom dump.atom_info_ac_* id type x y z radius vx vy vz density #
run 205761
Setting up run at Sat Dec 31 11:27:16 2022

Memory usage per processor = 960.195 Mbytes
    Step    Atoms         KinEng            CPU 
 7201637     1073      0.5991997              0 
 7407398     1062      2.9778125      2170.4726 
Loop time of 2170.47 on 40 procs for 205761 steps with 1062 atoms, finish time Sat Dec 31 12:03:27 2022


Pair  time (%) = 0.465461 (0.0214451)
Neigh time (%) = 15.4941 (0.713856)
Comm  time (%) = 28.3519 (1.30626)
Outpt time (%) = 0.00048514 (2.23518e-05)
Other time (%) = 2126.16 (97.9584)

Nlocal:    26.55 ave 358 max 0 min
Histogram: 33 3 2 0 0 0 0 0 1 1
Nghost:    6.1 ave 82 max 0 min
Histogram: 36 0 0 0 2 0 0 0 1 1
Neighs:    3.5 ave 60 max 0 min
Histogram: 36 1 1 0 0 0 0 0 0 2

Total # of neighbors = 140
Ave neighs/atom = 0.131827
Neighbor list builds = 18698
Dangerous builds = 833
write_dump all custom dump.atom_info_ac_* id type x y z radius vx vy vz density #
run 205761
Setting up run at Sat Dec 31 12:03:27 2022

Memory usage per processor = 960.195 Mbytes
    Step    Atoms         KinEng            CPU 
 7407398     1062      2.9778125              0 
 7613159     1051     0.64339087      2166.4054 
Loop time of 2166.41 on 40 procs for 205761 steps with 1051 atoms, finish time Sat Dec 31 12:39:33 2022


Pair  time (%) = 0.464739 (0.0214521)
Neigh time (%) = 15.4712 (0.714142)
Comm  time (%) = 28.1041 (1.29727)
Outpt time (%) = 0.000278993 (1.28781e-05)
Other time (%) = 2122.37 (97.9671)

Nlocal:    26.275 ave 358 max 0 min
Histogram: 32 4 2 0 0 0 0 0 1 1
Nghost:    5.75 ave 72 max 0 min
Histogram: 36 0 0 0 1 1 0 0 0 2
Neighs:    3.675 ave 66 max 0 min
Histogram: 36 2 0 0 0 0 0 0 1 1

Total # of neighbors = 147
Ave neighs/atom = 0.139867
Neighbor list builds = 18652
Dangerous builds = 1114
write_dump all custom dump.atom_info_ac_* id type x y z radius vx vy vz density #
run 205761
Setting up run at Sat Dec 31 12:39:33 2022

Memory usage per processor = 960.195 Mbytes
    Step    Atoms         KinEng            CPU 
 7613159     1051     0.64339087              0 
 7818920     1040     0.72103649       2159.875 
Loop time of 2159.88 on 40 procs for 205761 steps with 1040 atoms, finish time Sat Dec 31 13:15:33 2022


Pair  time (%) = 0.465042 (0.021531)
Neigh time (%) = 14.3583 (0.664774)
Comm  time (%) = 24.7118 (1.14413)
Outpt time (%) = 0.000544815 (2.52244e-05)
Other time (%) = 2120.34 (98.1695)

Nlocal:    26 ave 351 max 0 min
Histogram: 32 4 2 0 0 0 0 0 1 1
Nghost:    5.8 ave 74 max 0 min
Histogram: 36 0 0 0 2 0 0 0 0 2
Neighs:    3.4 ave 60 max 0 min
Histogram: 36 2 0 0 0 0 0 0 0 2

Total # of neighbors = 136
Ave neighs/atom = 0.130769
Neighbor list builds = 17281
Dangerous builds = 741
write_dump all custom dump.atom_info_ac_* id type x y z radius vx vy vz density #
run 205761
Setting up run at Sat Dec 31 13:15:33 2022

Memory usage per processor = 960.195 Mbytes
    Step    Atoms         KinEng            CPU 
 7818920     1040     0.72103649              0 
 8024681     1023     0.76946791      2191.9396 
Loop time of 2191.94 on 40 procs for 205761 steps with 1023 atoms, finish time Sat Dec 31 13:52:05 2022


Pair  time (%) = 0.457167 (0.0208567)
Neigh time (%) = 16.9536 (0.773454)
Comm  time (%) = 33.9127 (1.54715)
Outpt time (%) = 0.000191664 (8.74404e-06)
Other time (%) = 2140.62 (97.6585)

Nlocal:    25.575 ave 343 max 0 min
Histogram: 32 4 2 0 0 0 0 0 1 1
Nghost:    6.025 ave 71 max 0 min
Histogram: 36 0 0 0 1 1 0 0 0 2
Neighs:    3.275 ave 60 max 0 min
Histogram: 37 0 1 0 0 0 0 1 0 1

Total # of neighbors = 131
Ave neighs/atom = 0.128055
Neighbor list builds = 20415
Dangerous builds = 1230
write_dump all custom dump.atom_info_ac_* id type x y z radius vx vy vz density #
run 205761
Setting up run at Sat Dec 31 13:52:05 2022

Memory usage per processor = 960.195 Mbytes
    Step    Atoms         KinEng            CPU 
 8024681     1023     0.76946791              0 
 8230442     1009      1.0450575        2172.43 
Loop time of 2172.43 on 40 procs for 205761 steps with 1009 atoms, finish time Sat Dec 31 14:28:18 2022


Pair  time (%) = 0.460469 (0.021196)
Neigh time (%) = 16.0498 (0.738793)
Comm  time (%) = 30.6696 (1.41176)
Outpt time (%) = 0.000498045 (2.29257e-05)
Other time (%) = 2125.25 (97.8282)

Nlocal:    25.225 ave 341 max 0 min
Histogram: 32 4 2 0 0 0 0 0 1 1
Nghost:    5.475 ave 69 max 0 min
Histogram: 36 0 0 0 1 1 0 0 0 2
Neighs:    3.275 ave 60 max 0 min
Histogram: 36 1 1 0 0 0 0 1 0 1

Total # of neighbors = 131
Ave neighs/atom = 0.129832
Neighbor list builds = 19298
Dangerous builds = 773
write_dump all custom dump.atom_info_ac_* id type x y z radius vx vy vz density #
run 205761
Setting up run at Sat Dec 31 14:28:18 2022

Memory usage per processor = 960.195 Mbytes
    Step    Atoms         KinEng            CPU 
 8230442     1009      1.0450575              0 
 8436203      994     0.84392079      2148.7256 
Loop time of 2148.73 on 40 procs for 205761 steps with 994 atoms, finish time Sat Dec 31 15:04:06 2022


Pair  time (%) = 0.454026 (0.02113)
Neigh time (%) = 12.2952 (0.572209)
Comm  time (%) = 22.3465 (1.03999)
Outpt time (%) = 0.00032088 (1.49335e-05)
Other time (%) = 2113.63 (98.3667)

Nlocal:    24.85 ave 337 max 0 min
Histogram: 32 4 2 0 0 0 0 0 1 1
Nghost:    5.2 ave 63 max 0 min
Histogram: 36 0 0 0 1 1 0 0 1 1
Neighs:    2.625 ave 44 max 0 min
Histogram: 37 0 1 0 0 0 0 0 0 2

Total # of neighbors = 105
Ave neighs/atom = 0.105634
Neighbor list builds = 14770
Dangerous builds = 1243
write_dump all custom dump.atom_info_ac_* id type x y z radius vx vy vz density #
run 205761
Setting up run at Sat Dec 31 15:04:06 2022

Memory usage per processor = 960.195 Mbytes
    Step    Atoms         KinEng            CPU 
 8436203      994     0.84392079              0 
 8641964      986     0.80313333      2130.5307 
Loop time of 2130.53 on 40 procs for 205761 steps with 986 atoms, finish time Sat Dec 31 15:39:37 2022


Pair  time (%) = 0.453776 (0.0212987)
Neigh time (%) = 12.1151 (0.568644)
Comm  time (%) = 21.0186 (0.986541)
Outpt time (%) = 0.00057164 (2.68309e-05)
Other time (%) = 2096.94 (98.4235)

Nlocal:    24.65 ave 326 max 0 min
Histogram: 32 4 2 0 0 0 0 0 0 2
Nghost:    4.975 ave 70 max 0 min
Histogram: 36 0 0 1 0 1 0 1 0 1
Neighs:    2.575 ave 50 max 0 min
Histogram: 37 1 0 0 0 0 0 1 0 1

Total # of neighbors = 103
Ave neighs/atom = 0.104462
Neighbor list builds = 14542
Dangerous builds = 711
write_dump all custom dump.atom_info_ac_* id type x y z radius vx vy vz density #
run 205761
Setting up run at Sat Dec 31 15:39:37 2022

Memory usage per processor = 960.195 Mbytes
    Step    Atoms         KinEng            CPU 
 8641964      986     0.80313333              0 
 8847725      977     0.86212903       2113.862 
Loop time of 2113.86 on 40 procs for 205761 steps with 977 atoms, finish time Sat Dec 31 16:14:51 2022


Pair  time (%) = 0.443475 (0.0209794)
Neigh time (%) = 9.74784 (0.461139)
Comm  time (%) = 17.6267 (0.833864)
Outpt time (%) = 0.000417223 (1.97375e-05)
Other time (%) = 2086.04 (98.684)

Nlocal:    24.425 ave 327 max 0 min
Histogram: 33 2 3 0 0 0 0 0 1 1
Nghost:    4.6 ave 55 max 0 min
Histogram: 35 1 0 1 0 0 0 1 0 2
Neighs:    2.325 ave 44 max 0 min
Histogram: 36 1 1 0 0 0 1 0 0 1

Total # of neighbors = 93
Ave neighs/atom = 0.0951894
Neighbor list builds = 11623
Dangerous builds = 237
write_dump all custom dump.atom_info_ac_* id type x y z radius vx vy vz density #
run 205761
Setting up run at Sat Dec 31 16:14:51 2022

Memory usage per processor = 960.195 Mbytes
    Step    Atoms         KinEng            CPU 
 8847725      977     0.86212903              0 
 9053486      961      1.0208774      2187.3936 
Loop time of 2187.39 on 40 procs for 205761 steps with 961 atoms, finish time Sat Dec 31 16:51:18 2022


Pair  time (%) = 0.452075 (0.0206673)
Neigh time (%) = 17.9642 (0.821259)
Comm  time (%) = 31.5955 (1.44443)
Outpt time (%) = 0.000496447 (2.26958e-05)
Other time (%) = 2137.38 (97.7136)

Nlocal:    24.025 ave 330 max 0 min
Histogram: 32 4 2 0 0 0 0 0 1 1
Nghost:    4.875 ave 59 max 0 min
Histogram: 36 0 0 1 0 0 0 1 1 1
Neighs:    2.45 ave 44 max 0 min
Histogram: 35 3 0 0 0 0 0 1 0 1

Total # of neighbors = 98
Ave neighs/atom = 0.101977
Neighbor list builds = 21534
Dangerous builds = 1168
write_dump all custom dump.atom_info_ac_* id type x y z radius vx vy vz density #
run 205761
Setting up run at Sat Dec 31 16:51:19 2022

Memory usage per processor = 960.195 Mbytes
    Step    Atoms         KinEng            CPU 
 9053486      961      1.0208774              0 
 9259247      946     0.95496411      2157.3983 
Loop time of 2157.41 on 40 procs for 205761 steps with 946 atoms, finish time Sat Dec 31 17:27:16 2022


Pair  time (%) = 0.445877 (0.0206672)
Neigh time (%) = 14.6422 (0.678694)
Comm  time (%) = 27.7714 (1.28725)
Outpt time (%) = 0.000496069 (2.29937e-05)
Other time (%) = 2114.55 (98.0134)

Nlocal:    23.65 ave 333 max 0 min
Histogram: 32 4 2 0 0 0 0 0 1 1
Nghost:    4.85 ave 54 max 0 min
Histogram: 36 0 0 0 1 0 0 0 1 2
Neighs:    2.225 ave 46 max 0 min
Histogram: 37 1 0 0 0 0 1 0 0 1

Total # of neighbors = 89
Ave neighs/atom = 0.0940803
Neighbor list builds = 17558
Dangerous builds = 1054
write_dump all custom dump.atom_info_ac_* id type x y z radius vx vy vz density #
run 205761
Setting up run at Sat Dec 31 17:27:16 2022

Memory usage per processor = 960.195 Mbytes
    Step    Atoms         KinEng            CPU 
 9259247      946     0.95496411              0 
 9465008      931      1.0810106       2122.407 
Loop time of 2122.41 on 40 procs for 205761 steps with 931 atoms, finish time Sat Dec 31 18:02:39 2022


Pair  time (%) = 0.439858 (0.0207245)
Neigh time (%) = 11.3931 (0.536799)
Comm  time (%) = 19.0805 (0.899001)
Outpt time (%) = 0.0149303 (0.000703461)
Other time (%) = 2091.48 (98.5428)

Nlocal:    23.275 ave 325 max 0 min
Histogram: 33 3 2 0 0 0 0 0 1 1
Nghost:    4.775 ave 57 max 0 min
Histogram: 36 0 0 0 1 0 0 2 0 1
Neighs:    2.4 ave 52 max 0 min
Histogram: 38 0 0 0 0 0 1 0 0 1

Total # of neighbors = 96
Ave neighs/atom = 0.103115
Neighbor list builds = 13638
Dangerous builds = 578
write_dump all custom dump.atom_info_ac_* id type x y z radius vx vy vz density #
run 205761
Setting up run at Sat Dec 31 18:02:39 2022

Memory usage per processor = 960.195 Mbytes
    Step    Atoms         KinEng            CPU 
 9465008      931      1.0810106              0 
 9670769      918     0.94987794      2132.5807 
Loop time of 2132.58 on 40 procs for 205761 steps with 918 atoms, finish time Sat Dec 31 18:38:11 2022


Pair  time (%) = 0.441441 (0.0206998)
Neigh time (%) = 11.3175 (0.530693)
Comm  time (%) = 18.1087 (0.849144)
Outpt time (%) = 0.000512187 (2.40173e-05)
Other time (%) = 2102.71 (98.5994)

Nlocal:    22.95 ave 315 max 0 min
Histogram: 33 3 2 0 0 0 0 0 1 1
Nghost:    4.65 ave 55 max 0 min
Histogram: 36 0 0 0 1 0 1 0 0 2
Neighs:    2.375 ave 50 max 0 min
Histogram: 37 1 0 0 0 0 1 0 0 1

Total # of neighbors = 95
Ave neighs/atom = 0.103486
Neighbor list builds = 13535
Dangerous builds = 1039
write_dump all custom dump.atom_info_ac_* id type x y z radius vx vy vz density #
run 205761
Setting up run at Sat Dec 31 18:38:11 2022

Memory usage per processor = 960.195 Mbytes
    Step    Atoms         KinEng            CPU 
 9670769      918     0.94987794              0 
 9876530      899     0.87217332       2136.311 
Loop time of 2136.31 on 40 procs for 205761 steps with 899 atoms, finish time Sat Dec 31 19:13:48 2022


Pair  time (%) = 0.440673 (0.0206277)
Neigh time (%) = 12.7391 (0.596315)
Comm  time (%) = 21.4764 (1.0053)
Outpt time (%) = 0.000276698 (1.29521e-05)
Other time (%) = 2101.65 (98.3777)

Nlocal:    22.475 ave 304 max 0 min
Histogram: 33 3 2 0 0 0 0 0 1 1
Nghost:    4.575 ave 57 max 0 min
Histogram: 36 0 0 1 0 0 1 0 1 1
Neighs:    2.15 ave 44 max 0 min
Histogram: 37 1 0 0 0 0 1 0 0 1

Total # of neighbors = 86
Ave neighs/atom = 0.0956618
Neighbor list builds = 15262
Dangerous builds = 1413
write_dump all custom dump.atom_info_ac_* id type x y z radius vx vy vz density #
run 205761
Setting up run at Sat Dec 31 19:13:48 2022

Memory usage per processor = 960.195 Mbytes
    Step    Atoms         KinEng            CPU 
 9876530      899     0.87217332              0 
10082291      884     0.91143689      2130.7569 
Loop time of 2130.76 on 40 procs for 205761 steps with 884 atoms, finish time Sat Dec 31 19:49:19 2022


Pair  time (%) = 0.43888 (0.0205974)
Neigh time (%) = 11.4366 (0.536741)
Comm  time (%) = 19.0178 (0.892538)
Outpt time (%) = 0.000553134 (2.59595e-05)
Other time (%) = 2099.86 (98.5501)

Nlocal:    22.1 ave 290 max 0 min
Histogram: 32 5 1 0 0 0 0 0 0 2
Nghost:    4.425 ave 67 max 0 min
Histogram: 36 0 0 1 0 1 1 0 0 1
Neighs:    2.05 ave 34 max 0 min
Histogram: 37 0 0 0 1 0 0 1 0 1

Total # of neighbors = 82
Ave neighs/atom = 0.0927602
Neighbor list builds = 13665
Dangerous builds = 589
write_dump all custom dump.atom_info_ac_* id type x y z radius vx vy vz density #
run 205761
Setting up run at Sat Dec 31 19:49:19 2022

Memory usage per processor = 960.195 Mbytes
    Step    Atoms         KinEng            CPU 
10082291      884     0.91143689              0 
10288052      874     0.83031693      2132.9078 
Loop time of 2132.91 on 40 procs for 205761 steps with 874 atoms, finish time Sat Dec 31 20:24:52 2022


Pair  time (%) = 0.435565 (0.0204212)
Neigh time (%) = 11.6591 (0.546629)
Comm  time (%) = 20.4539 (0.958967)
Outpt time (%) = 0.000265817 (1.24626e-05)
Other time (%) = 2100.36 (98.474)

Nlocal:    21.85 ave 283 max 0 min
Histogram: 32 4 2 0 0 0 0 0 0 2
Nghost:    4.775 ave 63 max 0 min
Histogram: 35 1 0 1 1 0 0 1 0 1
Neighs:    2.2 ave 36 max 0 min
Histogram: 36 1 0 1 0 0 0 0 1 1

Total # of neighbors = 88
Ave neighs/atom = 0.100686
Neighbor list builds = 13886
Dangerous builds = 1
write_dump all custom dump.atom_info_ac_* id type x y z radius vx vy vz density #
run 205761
Setting up run at Sat Dec 31 20:24:52 2022

Memory usage per processor = 960.195 Mbytes
    Step    Atoms         KinEng            CPU 
10288052      874     0.83031693              0 
10493813      859      1.0163792      2146.2688 
Loop time of 2146.27 on 40 procs for 205761 steps with 859 atoms, finish time Sat Dec 31 21:00:38 2022


Pair  time (%) = 0.43754 (0.0203861)
Neigh time (%) = 13.592 (0.633286)
Comm  time (%) = 25.7977 (1.20198)
Outpt time (%) = 0.000573301 (2.67115e-05)
Other time (%) = 2106.44 (98.1443)

Nlocal:    21.475 ave 272 max 0 min
Histogram: 32 4 2 0 0 0 0 0 0 2
Nghost:    4.325 ave 60 max 0 min
Histogram: 36 0 0 1 0 1 1 0 0 1
Neighs:    2.05 ave 36 max 0 min
Histogram: 37 0 0 1 0 0 1 0 0 1

Total # of neighbors = 82
Ave neighs/atom = 0.0954598
Neighbor list builds = 16286
Dangerous builds = 3366
write_dump all custom dump.atom_info_ac_* id type x y z radius vx vy vz density #
run 205761
Setting up run at Sat Dec 31 21:00:38 2022

Memory usage per processor = 960.195 Mbytes
    Step    Atoms         KinEng            CPU 
10493813      859      1.0163792              0 
10699574      849      0.7342083      2132.2849 
Loop time of 2132.29 on 40 procs for 205761 steps with 849 atoms, finish time Sat Dec 31 21:36:10 2022


Pair  time (%) = 0.436226 (0.0204582)
Neigh time (%) = 11.7747 (0.552212)
Comm  time (%) = 17.7935 (0.834481)
Outpt time (%) = 0.000222549 (1.04371e-05)
Other time (%) = 2102.28 (98.5928)

Nlocal:    21.225 ave 267 max 0 min
Histogram: 32 4 1 1 0 0 0 0 0 2
Nghost:    4.3 ave 61 max 0 min
Histogram: 36 0 0 1 1 0 0 1 0 1
Neighs:    1.875 ave 37 max 0 min
Histogram: 37 0 1 0 0 0 1 0 0 1

Total # of neighbors = 75
Ave neighs/atom = 0.0883392
Neighbor list builds = 14066
Dangerous builds = 1290
write_dump all custom dump.atom_info_ac_* id type x y z radius vx vy vz density #
run 205761
Setting up run at Sat Dec 31 21:36:10 2022

Memory usage per processor = 960.195 Mbytes
    Step    Atoms         KinEng            CPU 
10699574      849      0.7342083              0 
10905335      843     0.67010035      2134.9288 
Loop time of 2134.93 on 40 procs for 205761 steps with 843 atoms, finish time Sat Dec 31 22:11:45 2022


Pair  time (%) = 0.429092 (0.0200987)
Neigh time (%) = 11.6192 (0.544243)
Comm  time (%) = 21.9087 (1.0262)
Outpt time (%) = 0.00141843 (6.64391e-05)
Other time (%) = 2100.97 (98.4094)

Nlocal:    21.075 ave 263 max 0 min
Histogram: 33 3 2 0 0 0 0 0 0 2
Nghost:    4 ave 52 max 0 min
Histogram: 36 0 0 0 1 1 1 0 0 1
Neighs:    2 ave 30 max 0 min
Histogram: 34 3 0 1 0 0 0 0 0 2

Total # of neighbors = 80
Ave neighs/atom = 0.0948992
Neighbor list builds = 13842
Dangerous builds = 477
write_dump all custom dump.atom_info_ac_* id type x y z radius vx vy vz density #
run 205761
Setting up run at Sat Dec 31 22:11:45 2022

Memory usage per processor = 960.195 Mbytes
    Step    Atoms         KinEng            CPU 
10905335      843     0.67010035              0 
11111096      829     0.63104498      2140.8025 
Loop time of 2140.8 on 40 procs for 205761 steps with 829 atoms, finish time Sat Dec 31 22:47:26 2022


Pair  time (%) = 0.432074 (0.0201828)
Neigh time (%) = 12.6857 (0.592569)
Comm  time (%) = 23.808 (1.11211)
Outpt time (%) = 0.000330275 (1.54276e-05)
Other time (%) = 2103.88 (98.2751)

Nlocal:    20.725 ave 255 max 0 min
Histogram: 32 4 2 0 0 0 0 0 0 2
Nghost:    4.4 ave 59 max 0 min
Histogram: 36 0 0 0 2 0 1 0 0 1
Neighs:    2.175 ave 37 max 0 min
Histogram: 37 0 0 1 0 0 0 0 1 1

Total # of neighbors = 87
Ave neighs/atom = 0.104946
Neighbor list builds = 15109
Dangerous builds = 365
write_dump all custom dump.atom_info_ac_* id type x y z radius vx vy vz density #
run 205761
Setting up run at Sat Dec 31 22:47:26 2022

Memory usage per processor = 960.195 Mbytes
    Step    Atoms         KinEng            CPU 
11111096      829     0.63104498              0 
11316857      819     0.63472643      2113.1528 
Loop time of 2113.15 on 40 procs for 205761 steps with 819 atoms, finish time Sat Dec 31 23:22:40 2022


Pair  time (%) = 0.430374 (0.0203664)
Neigh time (%) = 10.4527 (0.49465)
Comm  time (%) = 19.8799 (0.940769)
Outpt time (%) = 0.000594628 (2.81394e-05)
Other time (%) = 2082.39 (98.5442)

Nlocal:    20.475 ave 258 max 0 min
Histogram: 32 4 2 0 0 0 0 0 0 2
Nghost:    4.125 ave 58 max 0 min
Histogram: 36 0 0 1 0 1 1 0 0 1
Neighs:    1.725 ave 38 max 0 min
Histogram: 37 0 1 0 1 0 0 0 0 1

Total # of neighbors = 69
Ave neighs/atom = 0.0842491
Neighbor list builds = 12466
Dangerous builds = 1226
write_dump all custom dump.atom_info_ac_* id type x y z radius vx vy vz density #
run 205761
Setting up run at Sat Dec 31 23:22:40 2022

Memory usage per processor = 960.195 Mbytes
    Step    Atoms         KinEng            CPU 
11316857      819     0.63472643              0 
11522618      807     0.66395514      2131.8643 
Loop time of 2131.86 on 40 procs for 205761 steps with 807 atoms, finish time Sat Dec 31 23:58:11 2022


Pair  time (%) = 0.432152 (0.0202711)
Neigh time (%) = 12.2692 (0.575514)
Comm  time (%) = 25.1784 (1.18105)
Outpt time (%) = 0.00052465 (2.46099e-05)
Other time (%) = 2093.98 (98.2231)

Nlocal:    20.175 ave 267 max 0 min
Histogram: 32 4 2 0 0 0 0 0 1 1
Nghost:    4.1 ave 59 max 0 min
Histogram: 36 0 0 1 0 1 0 1 0 1
Neighs:    2.25 ave 46 max 0 min
Histogram: 37 0 1 0 1 0 0 0 0 1

Total # of neighbors = 90
Ave neighs/atom = 0.111524
Neighbor list builds = 14618
Dangerous builds = 148
write_dump all custom dump.atom_info_ac_* id type x y z radius vx vy vz density #
run 205761
Setting up run at Sat Dec 31 23:58:12 2022

Memory usage per processor = 960.195 Mbytes
    Step    Atoms         KinEng            CPU 
11522618      807     0.66395514              0 
11728379      801     0.89730872      2118.6082 
Loop time of 2118.61 on 40 procs for 205761 steps with 801 atoms, finish time Sun Jan  1 00:33:30 2023


Pair  time (%) = 0.436001 (0.0205796)
Neigh time (%) = 10.4087 (0.491299)
Comm  time (%) = 15.7349 (0.7427)
Outpt time (%) = 0.000234654 (1.10758e-05)
Other time (%) = 2092.03 (98.7454)

Nlocal:    20.025 ave 273 max 0 min
Histogram: 33 3 2 0 0 0 0 0 1 1
Nghost:    3.925 ave 52 max 0 min
Histogram: 36 0 0 1 0 1 0 0 1 1
Neighs:    2.05 ave 45 max 0 min
Histogram: 36 1 1 1 0 0 0 0 0 1

Total # of neighbors = 82
Ave neighs/atom = 0.102372
Neighbor list builds = 12413
Dangerous builds = 915
write_dump all custom dump.atom_info_ac_* id type x y z radius vx vy vz density #
run 205761
Setting up run at Sun Jan  1 00:33:30 2023

Memory usage per processor = 960.195 Mbytes
    Step    Atoms         KinEng            CPU 
11728379      801     0.89730872              0 
11934140      785     0.65940062      2137.6892 
Loop time of 2137.69 on 40 procs for 205761 steps with 785 atoms, finish time Sun Jan  1 01:09:08 2023


Pair  time (%) = 0.436514 (0.0204199)
Neigh time (%) = 13.5742 (0.634996)
Comm  time (%) = 24.599 (1.15073)
Outpt time (%) = 0.000487335 (2.27973e-05)
Other time (%) = 2099.08 (98.1938)

Nlocal:    19.625 ave 266 max 0 min
Histogram: 33 4 1 0 0 0 0 0 1 1
Nghost:    4.05 ave 47 max 0 min
Histogram: 35 1 0 0 1 1 0 0 0 2
Neighs:    2.075 ave 47 max 0 min
Histogram: 37 0 1 1 0 0 0 0 0 1

Total # of neighbors = 83
Ave neighs/atom = 0.105732
Neighbor list builds = 16225
Dangerous builds = 573
write_dump all custom dump.atom_info_ac_* id type x y z radius vx vy vz density #
run 205761
Setting up run at Sun Jan  1 01:09:08 2023

Memory usage per processor = 960.195 Mbytes
    Step    Atoms         KinEng            CPU 
11934140      785     0.65940062              0 
12139901      776      1.5618463      2114.5998 
Loop time of 2114.6 on 40 procs for 205761 steps with 776 atoms, finish time Sun Jan  1 01:44:23 2023


Pair  time (%) = 0.42873 (0.0202748)
Neigh time (%) = 8.90489 (0.421114)
Comm  time (%) = 15.6464 (0.739924)
Outpt time (%) = 0.000552226 (2.61149e-05)
Other time (%) = 2089.62 (98.8187)

Nlocal:    19.4 ave 266 max 0 min
Histogram: 32 4 2 0 0 0 0 0 1 1
Nghost:    4.05 ave 44 max 0 min
Histogram: 35 1 0 0 1 0 1 0 0 2
Neighs:    1.9 ave 37 max 0 min
Histogram: 36 1 0 1 1 0 0 0 0 1

Total # of neighbors = 76
Ave neighs/atom = 0.0979381
Neighbor list builds = 10578
Dangerous builds = 3
write_dump all custom dump.atom_info_ac_* id type x y z radius vx vy vz density #
run 205761
Setting up run at Sun Jan  1 01:44:23 2023

Memory usage per processor = 960.195 Mbytes
    Step    Atoms         KinEng            CPU 
12139901      776      1.5618463              0 
12345662      761     0.58341872      2248.1935 
Loop time of 2248.19 on 40 procs for 205761 steps with 761 atoms, finish time Sun Jan  1 02:21:51 2023


Pair  time (%) = 0.457957 (0.02037)
Neigh time (%) = 24.7363 (1.10028)
Comm  time (%) = 40.6314 (1.80729)
Outpt time (%) = 0.000551033 (2.451e-05)
Other time (%) = 2182.37 (97.072)

Nlocal:    19.025 ave 263 max 0 min
Histogram: 33 4 1 0 0 0 0 1 0 1
Nghost:    3.725 ave 48 max 0 min
Histogram: 35 1 0 0 1 1 0 0 1 1
Neighs:    1.925 ave 37 max 0 min
Histogram: 37 0 0 0 2 0 0 0 0 1

Total # of neighbors = 77
Ave neighs/atom = 0.101183
Neighbor list builds = 30137
Dangerous builds = 17599
write_dump all custom dump.atom_info_ac_* id type x y z radius vx vy vz density #
run 205761
Setting up run at Sun Jan  1 02:21:51 2023

Memory usage per processor = 960.195 Mbytes
    Step    Atoms         KinEng            CPU 
12345662      761     0.58341872              0 
12551423      755      1.1267284      2115.3833 
Loop time of 2115.38 on 40 procs for 205761 steps with 755 atoms, finish time Sun Jan  1 02:57:06 2023


Pair  time (%) = 0.424858 (0.0200842)
Neigh time (%) = 9.72656 (0.459801)
Comm  time (%) = 13.1223 (0.620325)
Outpt time (%) = 0.000230799 (1.09105e-05)
Other time (%) = 2092.11 (98.8998)

Nlocal:    18.875 ave 262 max 0 min
Histogram: 33 4 0 1 0 0 0 1 0 1
Nghost:    3.85 ave 45 max 0 min
Histogram: 36 0 0 0 0 1 1 0 0 2
Neighs:    2.125 ave 44 max 0 min
Histogram: 37 0 0 1 1 0 0 0 0 1

Total # of neighbors = 85
Ave neighs/atom = 0.112583
Neighbor list builds = 11563
Dangerous builds = 518
write_dump all custom dump.atom_info_ac_* id type x y z radius vx vy vz density #
run 205761
Setting up run at Sun Jan  1 02:57:06 2023

Memory usage per processor = 960.195 Mbytes
    Step    Atoms         KinEng            CPU 
12551423      755      1.1267284              0 
12757184      750      1.1274608      2136.6262 
Loop time of 2136.63 on 40 procs for 205761 steps with 750 atoms, finish time Sun Jan  1 03:32:43 2023


Pair  time (%) = 0.43107 (0.0201753)
Neigh time (%) = 12.7693 (0.597638)
Comm  time (%) = 18.4546 (0.863725)
Outpt time (%) = 0.000489217 (2.28967e-05)
Other time (%) = 2104.97 (98.5184)

Nlocal:    18.75 ave 260 max 0 min
Histogram: 33 4 0 1 0 0 0 1 0 1
Nghost:    3.825 ave 47 max 0 min
Histogram: 35 1 0 0 0 2 0 0 1 1
Neighs:    2.2 ave 47 max 0 min
Histogram: 37 0 1 1 0 0 0 0 0 1

Total # of neighbors = 88
Ave neighs/atom = 0.117333
Neighbor list builds = 15162
Dangerous builds = 294
write_dump all custom dump.atom_info_ac_* id type x y z radius vx vy vz density #
run 205761
Setting up run at Sun Jan  1 03:32:43 2023

Memory usage per processor = 960.195 Mbytes
    Step    Atoms         KinEng            CPU 
12757184      750      1.1274608              0 
12962945      740     0.63862151      2145.3095 
Loop time of 2145.31 on 40 procs for 205761 steps with 740 atoms, finish time Sun Jan  1 04:08:28 2023


Pair  time (%) = 0.430289 (0.0200572)
Neigh time (%) = 12.7631 (0.59493)
Comm  time (%) = 18.752 (0.874095)
Outpt time (%) = 0.000331089 (1.54331e-05)
Other time (%) = 2113.36 (98.5109)

Nlocal:    18.5 ave 259 max 0 min
Histogram: 33 4 1 0 0 0 0 1 0 1
Nghost:    3.9 ave 42 max 0 min
Histogram: 35 1 0 0 0 1 0 1 1 1
Neighs:    2.175 ave 54 max 0 min
Histogram: 37 0 2 0 0 0 0 0 0 1

Total # of neighbors = 87
Ave neighs/atom = 0.117568
Neighbor list builds = 15171
Dangerous builds = 321
write_dump all custom dump.atom_info_ac_* id type x y z radius vx vy vz density #
run 205761
Setting up run at Sun Jan  1 04:08:28 2023

Memory usage per processor = 960.195 Mbytes
    Step    Atoms         KinEng            CPU 
12962945      740     0.63862151              0 
13168706      730     0.65683946      2138.1668 
Loop time of 2138.17 on 40 procs for 205761 steps with 730 atoms, finish time Sun Jan  1 04:44:07 2023


Pair  time (%) = 0.427333 (0.019986)
Neigh time (%) = 12.5817 (0.588432)
Comm  time (%) = 22.353 (1.04543)
Outpt time (%) = 0.000577891 (2.70274e-05)
Other time (%) = 2102.8 (98.3461)

Nlocal:    18.25 ave 252 max 0 min
Histogram: 33 3 2 0 0 0 0 0 1 1
Nghost:    3.675 ave 43 max 0 min
Histogram: 36 0 0 0 0 1 1 1 0 1
Neighs:    2.15 ave 47 max 0 min
Histogram: 37 0 1 0 0 1 0 0 0 1

Total # of neighbors = 86
Ave neighs/atom = 0.117808
Neighbor list builds = 14968
Dangerous builds = 1220
write_dump all custom dump.atom_info_ac_* id type x y z radius vx vy vz density #
run 205761
Setting up run at Sun Jan  1 04:44:07 2023

Memory usage per processor = 960.195 Mbytes
    Step    Atoms         KinEng            CPU 
13168706      730     0.65683946              0 
13374467      724     0.56325021      2129.6637 
Loop time of 2129.66 on 40 procs for 205761 steps with 724 atoms, finish time Sun Jan  1 05:19:36 2023


Pair  time (%) = 0.426474 (0.0200254)
Neigh time (%) = 11.0896 (0.52072)
Comm  time (%) = 18.8096 (0.883218)
Outpt time (%) = 0.000292582 (1.37384e-05)
Other time (%) = 2099.34 (98.576)

Nlocal:    18.1 ave 244 max 0 min
Histogram: 32 4 2 0 0 0 0 0 1 1
Nghost:    3.725 ave 39 max 0 min
Histogram: 35 1 0 0 0 0 1 0 2 1
Neighs:    2.1 ave 43 max 0 min
Histogram: 37 0 1 0 0 1 0 0 0 1

Total # of neighbors = 84
Ave neighs/atom = 0.116022
Neighbor list builds = 13178
Dangerous builds = 279
write_dump all custom dump.atom_info_ac_* id type x y z radius vx vy vz density #
run 205761
Setting up run at Sun Jan  1 05:19:36 2023

Memory usage per processor = 960.195 Mbytes
    Step    Atoms         KinEng            CPU 
13374467      724     0.56325021              0 
13580228      717     0.55791365      2150.1637 
Loop time of 2150.16 on 40 procs for 205761 steps with 717 atoms, finish time Sun Jan  1 05:55:27 2023


Pair  time (%) = 0.424959 (0.019764)
Neigh time (%) = 12.7011 (0.590706)
Comm  time (%) = 21.9077 (1.01888)
Outpt time (%) = 0.000602468 (2.80196e-05)
Other time (%) = 2115.13 (98.3706)

Nlocal:    17.925 ave 241 max 0 min
Histogram: 33 4 1 0 0 0 0 0 1 1
Nghost:    3.6 ave 34 max 0 min
Histogram: 35 1 0 0 0 0 0 1 0 3
Neighs:    1.9 ave 35 max 0 min
Histogram: 36 1 0 1 0 0 1 0 0 1

Total # of neighbors = 76
Ave neighs/atom = 0.105997
Neighbor list builds = 15077
Dangerous builds = 822
write_dump all custom dump.atom_info_ac_* id type x y z radius vx vy vz density #
run 205761
Setting up run at Sun Jan  1 05:55:27 2023

Memory usage per processor = 960.195 Mbytes
    Step    Atoms         KinEng            CPU 
13580228      717     0.55791365              0 
13785989      712     0.71377835      2126.0079 
Loop time of 2126.01 on 40 procs for 205761 steps with 712 atoms, finish time Sun Jan  1 06:30:53 2023


Pair  time (%) = 0.418268 (0.0196738)
Neigh time (%) = 11.4772 (0.539849)
Comm  time (%) = 20.6612 (0.97183)
Outpt time (%) = 0.00419137 (0.000197147)
Other time (%) = 2093.45 (98.4685)

Nlocal:    17.8 ave 235 max 0 min
Histogram: 32 4 2 0 0 0 0 0 1 1
Nghost:    3.55 ave 38 max 0 min
Histogram: 35 1 0 0 0 0 1 1 1 1
Neighs:    1.8 ave 32 max 0 min
Histogram: 37 0 0 0 1 0 0 1 0 1

Total # of neighbors = 72
Ave neighs/atom = 0.101124
Neighbor list builds = 13626
Dangerous builds = 1025
write_dump all custom dump.atom_info_ac_* id type x y z radius vx vy vz density #
run 205761
Setting up run at Sun Jan  1 06:30:53 2023

Memory usage per processor = 960.195 Mbytes
    Step    Atoms         KinEng            CPU 
13785989      712     0.71377835              0 
13991750      709       0.553095      2127.5527 
Loop time of 2127.55 on 40 procs for 205761 steps with 709 atoms, finish time Sun Jan  1 07:06:20 2023


Pair  time (%) = 0.421336 (0.0198038)
Neigh time (%) = 12.0148 (0.564725)
Comm  time (%) = 20.1858 (0.948782)
Outpt time (%) = 0.000103458 (4.86277e-06)
Other time (%) = 2094.93 (98.4667)

Nlocal:    17.725 ave 227 max 0 min
Histogram: 32 5 1 0 0 0 0 0 0 2
Nghost:    3.275 ave 37 max 0 min
Histogram: 35 1 0 0 0 1 0 0 2 1
Neighs:    1.8 ave 32 max 0 min
Histogram: 37 0 0 0 1 0 1 0 0 1

Total # of neighbors = 72
Ave neighs/atom = 0.101551
Neighbor list builds = 14220
Dangerous builds = 0
write_dump all custom dump.atom_info_ac_* id type x y z radius vx vy vz density #
run 205761
Setting up run at Sun Jan  1 07:06:20 2023

Memory usage per processor = 960.195 Mbytes
    Step    Atoms         KinEng            CPU 
13991750      709       0.553095              0 
14197511      700     0.62665642      2144.7622 
Loop time of 2144.76 on 40 procs for 205761 steps with 700 atoms, finish time Sun Jan  1 07:42:05 2023


Pair  time (%) = 0.420449 (0.0196035)
Neigh time (%) = 12.9943 (0.605862)
Comm  time (%) = 21.2831 (0.99233)
Outpt time (%) = 0.000562713 (2.62366e-05)
Other time (%) = 2110.07 (98.3822)

Nlocal:    17.5 ave 219 max 0 min
Histogram: 33 2 3 0 0 0 0 0 0 2
Nghost:    3.725 ave 39 max 0 min
Histogram: 35 1 0 0 0 0 1 0 2 1
Neighs:    1.55 ave 29 max 0 min
Histogram: 36 1 0 0 1 1 0 0 0 1

Total # of neighbors = 62
Ave neighs/atom = 0.0885714
Neighbor list builds = 15399
Dangerous builds = 255
write_dump all custom dump.atom_info_ac_* id type x y z radius vx vy vz density #
run 205761
Setting up run at Sun Jan  1 07:42:05 2023

Memory usage per processor = 960.195 Mbytes
    Step    Atoms         KinEng            CPU 
14197511      700     0.62665642              0 
14403272      688     0.64710724      2140.3536 
Loop time of 2140.35 on 40 procs for 205761 steps with 688 atoms, finish time Sun Jan  1 08:17:46 2023


Pair  time (%) = 0.419845 (0.0196157)
Neigh time (%) = 13.1403 (0.613929)
Comm  time (%) = 22.6416 (1.05784)
Outpt time (%) = 0.000282509 (1.31992e-05)
Other time (%) = 2104.15 (98.3086)

Nlocal:    17.2 ave 218 max 0 min
Histogram: 33 2 3 0 0 0 0 0 0 2
Nghost:    3.475 ave 42 max 0 min
Histogram: 36 0 0 0 1 0 0 1 1 1
Neighs:    1.4 ave 22 max 0 min
Histogram: 37 0 0 0 1 0 0 0 1 1

Total # of neighbors = 56
Ave neighs/atom = 0.0813953
Neighbor list builds = 15616
Dangerous builds = 703
write_dump all custom dump.atom_info_ac_* id type x y z radius vx vy vz density #
run 205761
Setting up run at Sun Jan  1 08:17:46 2023

Memory usage per processor = 960.195 Mbytes
    Step    Atoms         KinEng            CPU 
14403272      688     0.64710724              0 
14609033      679      0.4962238      2143.4344 
Loop time of 2143.43 on 40 procs for 205761 steps with 679 atoms, finish time Sun Jan  1 08:53:29 2023


Pair  time (%) = 0.420323 (0.0196098)
Neigh time (%) = 13.2453 (0.617946)
Comm  time (%) = 22.1572 (1.03372)
Outpt time (%) = 0.000569582 (2.65734e-05)
Other time (%) = 2107.61 (98.3287)

Nlocal:    16.975 ave 216 max 0 min
Histogram: 32 4 1 1 0 0 0 0 0 2
Nghost:    3.325 ave 41 max 0 min
Histogram: 36 0 0 0 0 1 1 0 1 1
Neighs:    1.475 ave 26 max 0 min
Histogram: 37 0 1 0 0 0 0 0 1 1

Total # of neighbors = 59
Ave neighs/atom = 0.0868925
Neighbor list builds = 15752
Dangerous builds = 1123
write_dump all custom dump.atom_info_ac_* id type x y z radius vx vy vz density #
run 205761
Setting up run at Sun Jan  1 08:53:29 2023

Memory usage per processor = 960.195 Mbytes
    Step    Atoms         KinEng            CPU 
14609033      679      0.4962238              0 
14814794      661     0.41704732       2139.937 
Loop time of 2139.94 on 40 procs for 205761 steps with 661 atoms, finish time Sun Jan  1 09:29:09 2023


Pair  time (%) = 0.415472 (0.0194151)
Neigh time (%) = 12.0424 (0.562744)
Comm  time (%) = 20.7035 (0.967482)
Outpt time (%) = 0.000246484 (1.15183e-05)
Other time (%) = 2106.78 (98.4503)

Nlocal:    16.525 ave 212 max 0 min
Histogram: 33 3 2 0 0 0 0 0 0 2
Nghost:    3.55 ave 41 max 0 min
Histogram: 36 0 0 0 1 0 0 1 1 1
Neighs:    1.15 ave 21 max 0 min
Histogram: 37 1 0 0 0 0 0 0 0 2

Total # of neighbors = 46
Ave neighs/atom = 0.0695915
Neighbor list builds = 14347
Dangerous builds = 534
write_dump all custom dump.atom_info_ac_* id type x y z radius vx vy vz density #
run 205761
Setting up run at Sun Jan  1 09:29:09 2023

Memory usage per processor = 960.195 Mbytes
    Step    Atoms         KinEng            CPU 
14814794      661     0.41704732              0 
15020555      649     0.36794422      2158.5274 
Loop time of 2158.53 on 40 procs for 205761 steps with 649 atoms, finish time Sun Jan  1 10:05:08 2023


Pair  time (%) = 0.423204 (0.0196061)
Neigh time (%) = 14.2149 (0.658546)
Comm  time (%) = 19.1163 (0.885619)
Outpt time (%) = 0.000582307 (2.6977e-05)
Other time (%) = 2124.77 (98.4362)

Nlocal:    16.225 ave 211 max 0 min
Histogram: 32 4 2 0 0 0 0 0 0 2
Nghost:    3.525 ave 40 max 0 min
Histogram: 35 1 0 0 0 1 1 0 0 2
Neighs:    1 ave 18 max 0 min
Histogram: 36 2 0 0 0 0 0 0 1 1

Total # of neighbors = 40
Ave neighs/atom = 0.0616333
Neighbor list builds = 17012
Dangerous builds = 775
write_dump all custom dump.atom_info_ac_* id type x y z radius vx vy vz density #
run 205761
Setting up run at Sun Jan  1 10:05:08 2023

Memory usage per processor = 960.195 Mbytes
    Step    Atoms         KinEng            CPU 
15020555      649     0.36794422              0 
15226316      645     0.59686852      2118.9028 
Loop time of 2118.9 on 40 procs for 205761 steps with 645 atoms, finish time Sun Jan  1 10:40:27 2023


Pair  time (%) = 0.40983 (0.0193416)
Neigh time (%) = 10.5446 (0.497646)
Comm  time (%) = 18.36 (0.866487)
Outpt time (%) = 0.000311332 (1.46931e-05)
Other time (%) = 2089.59 (98.6165)

Nlocal:    16.125 ave 213 max 0 min
Histogram: 32 5 1 0 0 0 0 0 0 2
Nghost:    3.45 ave 38 max 0 min
Histogram: 36 0 0 0 0 0 0 2 0 2
Neighs:    0.8 ave 16 max 0 min
Histogram: 37 1 0 0 0 0 1 0 0 1

Total # of neighbors = 32
Ave neighs/atom = 0.0496124
Neighbor list builds = 12537
Dangerous builds = 2
write_dump all custom dump.atom_info_ac_* id type x y z radius vx vy vz density #
run 205761
Setting up run at Sun Jan  1 10:40:27 2023

Memory usage per processor = 960.195 Mbytes
    Step    Atoms         KinEng            CPU 
15226316      645     0.59686852              0 
15432077      639     0.51549896       2124.175 
Loop time of 2124.17 on 40 procs for 205761 steps with 639 atoms, finish time Sun Jan  1 11:15:51 2023


Pair  time (%) = 0.407013 (0.019161)
Neigh time (%) = 10.5689 (0.497553)
Comm  time (%) = 18.4106 (0.866715)
Outpt time (%) = 0.000564764 (2.65875e-05)
Other time (%) = 2094.79 (98.6165)

Nlocal:    15.975 ave 215 max 0 min
Histogram: 32 6 0 0 0 0 0 0 1 1
Nghost:    3.45 ave 38 max 0 min
Histogram: 36 0 0 0 0 0 0 2 1 1
Neighs:    0.95 ave 17 max 0 min
Histogram: 36 2 0 0 0 0 0 0 1 1

Total # of neighbors = 38
Ave neighs/atom = 0.0594679
Neighbor list builds = 12559
Dangerous builds = 242
write_dump all custom dump.atom_info_ac_* id type x y z radius vx vy vz density #
run 205761
Setting up run at Sun Jan  1 11:15:51 2023

Memory usage per processor = 960.195 Mbytes
    Step    Atoms         KinEng            CPU 
15432077      639     0.51549896              0 
15637838      629     0.42444892      2145.9255 
Loop time of 2145.93 on 40 procs for 205761 steps with 629 atoms, finish time Sun Jan  1 11:51:37 2023


Pair  time (%) = 0.418771 (0.0195147)
Neigh time (%) = 13.8638 (0.646054)
Comm  time (%) = 21.3295 (0.993954)
Outpt time (%) = 0.000178059 (8.29753e-06)
Other time (%) = 2110.31 (98.3405)

Nlocal:    15.725 ave 212 max 0 min
Histogram: 33 3 2 0 0 0 0 0 1 1
Nghost:    3.45 ave 38 max 0 min
Histogram: 35 1 0 0 0 0 1 1 0 2
Neighs:    0.875 ave 18 max 0 min
Histogram: 36 2 0 0 0 1 0 0 0 1

Total # of neighbors = 35
Ave neighs/atom = 0.0556439
Neighbor list builds = 16615
Dangerous builds = 2846
write_dump all custom dump.atom_info_ac_* id type x y z radius vx vy vz density #
run 205761
Setting up run at Sun Jan  1 11:51:37 2023

Memory usage per processor = 960.195 Mbytes
    Step    Atoms         KinEng            CPU 
15637838      629     0.42444892              0 
15843599      618     0.45622847      2139.5525 
Loop time of 2139.55 on 40 procs for 205761 steps with 618 atoms, finish time Sun Jan  1 12:27:17 2023


Pair  time (%) = 0.418171 (0.0195448)
Neigh time (%) = 12.3987 (0.579502)
Comm  time (%) = 14.7465 (0.689233)
Outpt time (%) = 0.000583374 (2.72662e-05)
Other time (%) = 2111.99 (98.7117)

Nlocal:    15.45 ave 210 max 0 min
Histogram: 32 4 2 0 0 0 0 0 1 1
Nghost:    3.425 ave 40 max 0 min
Histogram: 36 0 0 0 0 0 1 1 0 2
Neighs:    1.225 ave 21 max 0 min
Histogram: 36 2 0 0 0 0 0 0 0 2

Total # of neighbors = 49
Ave neighs/atom = 0.079288
Neighbor list builds = 14748
Dangerous builds = 159
write_dump all custom dump.atom_info_ac_* id type x y z radius vx vy vz density #
run 205761
Setting up run at Sun Jan  1 12:27:17 2023

Memory usage per processor = 960.195 Mbytes
    Step    Atoms         KinEng            CPU 
15843599      618     0.45622847              0 
16049360      612     0.37968959      2128.9048 
Loop time of 2128.9 on 40 procs for 205761 steps with 612 atoms, finish time Sun Jan  1 13:02:46 2023


Pair  time (%) = 0.419233 (0.0196924)
Neigh time (%) = 11.6999 (0.549572)
Comm  time (%) = 15.9318 (0.748357)
Outpt time (%) = 0.000560506 (2.63284e-05)
Other time (%) = 2100.85 (98.6824)

Nlocal:    15.3 ave 209 max 0 min
Histogram: 32 5 1 0 0 0 0 0 1 1
Nghost:    3.05 ave 34 max 0 min
Histogram: 35 1 0 0 0 0 0 3 0 1
Neighs:    1.1 ave 19 max 0 min
Histogram: 35 3 0 0 0 0 0 0 1 1

Total # of neighbors = 44
Ave neighs/atom = 0.0718954
Neighbor list builds = 13931
Dangerous builds = 169
write_dump all custom dump.atom_info_ac_* id type x y z radius vx vy vz density #
run 205761
Setting up run at Sun Jan  1 13:02:46 2023

Memory usage per processor = 960.195 Mbytes
    Step    Atoms         KinEng            CPU 
16049360      612     0.37968959              0 
16255121      605     0.41549962       2109.331 
Loop time of 2109.33 on 40 procs for 205761 steps with 605 atoms, finish time Sun Jan  1 13:37:55 2023


Pair  time (%) = 0.415477 (0.0196971)
Neigh time (%) = 10.0557 (0.476726)
Comm  time (%) = 14.21 (0.673673)
Outpt time (%) = 0.000234333 (1.11094e-05)
Other time (%) = 2084.65 (98.8299)

Nlocal:    15.125 ave 203 max 0 min
Histogram: 33 3 2 0 0 0 0 0 1 1
Nghost:    3.075 ave 30 max 0 min
Histogram: 34 2 0 0 0 0 0 0 2 2
Neighs:    0.95 ave 17 max 0 min
Histogram: 35 3 0 0 0 0 0 0 1 1

Total # of neighbors = 38
Ave neighs/atom = 0.0628099
Neighbor list builds = 11946
Dangerous builds = 114
write_dump all custom dump.atom_info_ac_* id type x y z radius vx vy vz density #
run 205761
Setting up run at Sun Jan  1 13:37:55 2023

Memory usage per processor = 960.195 Mbytes
    Step    Atoms         KinEng            CPU 
16255121      605     0.41549962              0 
16460882      598     0.38814479      2121.6303 
Loop time of 2121.63 on 40 procs for 205761 steps with 598 atoms, finish time Sun Jan  1 14:13:17 2023


Pair  time (%) = 0.418433 (0.0197222)
Neigh time (%) = 10.8342 (0.510655)
Comm  time (%) = 17.2495 (0.81303)
Outpt time (%) = 0.000524377 (2.47158e-05)
Other time (%) = 2093.13 (98.6566)

Nlocal:    14.95 ave 204 max 0 min
Histogram: 32 4 2 0 0 0 0 0 1 1
Nghost:    3.075 ave 37 max 0 min
Histogram: 36 0 0 0 0 0 2 1 0 1
Neighs:    1.175 ave 24 max 0 min
Histogram: 37 1 0 0 0 0 1 0 0 1

[...]
29218094      220      0.5227594      2117.6883 
Loop time of 2117.7 on 40 procs for 205761 steps with 220 atoms, finish time Tue Jan  3 02:56:35 2023


Pair  time (%) = 0.403378 (0.0190479)
Neigh time (%) = 10.0868 (0.47631)
Comm  time (%) = 9.37668 (0.442777)
Outpt time (%) = 0.0242789 (0.00114648)
Other time (%) = 2097.81 (99.0607)

Nlocal:    5.5 ave 68 max 0 min
Histogram: 32 3 3 0 0 0 0 1 0 1
Nghost:    0.875 ave 11 max 0 min
Histogram: 36 0 1 0 0 0 1 0 0 2
Neighs:    0.075 ave 3 max 0 min
Histogram: 39 0 0 0 0 0 0 0 0 1

Total # of neighbors = 3
Ave neighs/atom = 0.0136364
Neighbor list builds = 11969
Dangerous builds = 0
write_dump all custom dump.atom_info_ac_* id type x y z radius vx vy vz density #
run 205761
Setting up run at Tue Jan  3 02:56:35 2023

Memory usage per processor = 960.195 Mbytes
    Step    Atoms         KinEng            CPU 
29218094      220      0.5227594              0 
29423855      217     0.43028151      2125.1151 
Loop time of 2125.12 on 40 procs for 205761 steps with 217 atoms, finish time Tue Jan  3 03:32:00 2023


Pair  time (%) = 0.405872 (0.0190988)
Neigh time (%) = 11.3412 (0.533674)
Comm  time (%) = 10.8583 (0.510953)
Outpt time (%) = 0.000548988 (2.58333e-05)
Other time (%) = 2102.51 (98.9362)

Nlocal:    5.425 ave 67 max 0 min
Histogram: 33 2 3 0 0 0 0 1 0 1
Nghost:    0.95 ave 14 max 0 min
Histogram: 34 3 0 0 0 1 1 0 0 1
Neighs:    0.1 ave 2 max 0 min
Histogram: 37 0 0 0 0 2 0 0 0 1

Total # of neighbors = 4
Ave neighs/atom = 0.0184332
Neighbor list builds = 13481
Dangerous builds = 1
write_dump all custom dump.atom_info_ac_* id type x y z radius vx vy vz density #
run 205761
Setting up run at Tue Jan  3 03:32:01 2023

Memory usage per processor = 960.195 Mbytes
    Step    Atoms         KinEng            CPU 
29423855      217     0.43028151              0 
29629616      213     0.30768319      2126.3777 
Loop time of 2126.38 on 40 procs for 205761 steps with 213 atoms, finish time Tue Jan  3 04:07:27 2023


Pair  time (%) = 0.406846 (0.0191333)
Neigh time (%) = 11.0578 (0.52003)
Comm  time (%) = 11.2999 (0.531416)
Outpt time (%) = 0.000605907 (2.84948e-05)
Other time (%) = 2103.61 (98.9294)

Nlocal:    5.325 ave 65 max 0 min
Histogram: 32 2 4 0 0 0 0 0 1 1
Nghost:    0.775 ave 9 max 0 min
Histogram: 31 4 1 1 0 0 1 1 0 1
Neighs:    0.075 ave 3 max 0 min
Histogram: 39 0 0 0 0 0 0 0 0 1

Total # of neighbors = 3
Ave neighs/atom = 0.0140845
Neighbor list builds = 13139
Dangerous builds = 0
write_dump all custom dump.atom_info_ac_* id type x y z radius vx vy vz density #
run 205761
Setting up run at Tue Jan  3 04:07:27 2023

Memory usage per processor = 960.195 Mbytes
    Step    Atoms         KinEng            CPU 
29629616      213     0.30768319              0 
29835377      211     0.27301193      2118.1457 
Loop time of 2118.15 on 40 procs for 205761 steps with 211 atoms, finish time Tue Jan  3 04:42:45 2023


Pair  time (%) = 0.402295 (0.0189928)
Neigh time (%) = 10.6679 (0.503645)
Comm  time (%) = 10.9685 (0.517834)
Outpt time (%) = 0.000544587 (2.57106e-05)
Other time (%) = 2096.11 (98.9595)

Nlocal:    5.275 ave 67 max 0 min
Histogram: 33 2 3 0 0 0 0 1 0 1
Nghost:    0.825 ave 9 max 0 min
Histogram: 30 4 2 0 0 2 1 0 0 1
Neighs:    0.175 ave 4 max 0 min
Histogram: 36 0 3 0 0 0 0 0 0 1

Total # of neighbors = 7
Ave neighs/atom = 0.0331754
Neighbor list builds = 12670
Dangerous builds = 0
write_dump all custom dump.atom_info_ac_* id type x y z radius vx vy vz density #
run 205761
Setting up run at Tue Jan  3 04:42:45 2023

Memory usage per processor = 960.195 Mbytes
    Step    Atoms         KinEng            CPU 
29835377      211     0.27301193              0 
30041138      208     0.32240507      2136.0224 
Loop time of 2136.02 on 40 procs for 205761 steps with 208 atoms, finish time Tue Jan  3 05:18:21 2023


Pair  time (%) = 0.404986 (0.0189598)
Neigh time (%) = 11.545 (0.540491)
Comm  time (%) = 12.6861 (0.593913)
Outpt time (%) = 0.00053501 (2.5047e-05)
Other time (%) = 2111.39 (98.8466)

Nlocal:    5.2 ave 65 max 0 min
Histogram: 33 2 3 0 0 0 0 1 0 1
Nghost:    0.675 ave 9 max 0 min
Histogram: 33 2 2 0 1 0 0 0 1 1
Neighs:    0.125 ave 3 max 0 min
Histogram: 37 0 0 2 0 0 0 0 0 1

Total # of neighbors = 5
Ave neighs/atom = 0.0240385
Neighbor list builds = 13734
Dangerous builds = 24
write_dump all custom dump.atom_info_ac_* id type x y z radius vx vy vz density #
run 205761
Setting up run at Tue Jan  3 05:18:21 2023

Memory usage per processor = 960.195 Mbytes
    Step    Atoms         KinEng            CPU 
30041138      208     0.32240507              0 
30246899      205     0.33986487      2117.9942 
Loop time of 2117.99 on 40 procs for 205761 steps with 205 atoms, finish time Tue Jan  3 05:53:39 2023


Pair  time (%) = 0.403785 (0.0190645)
Neigh time (%) = 11.0505 (0.521742)
Comm  time (%) = 11.8725 (0.560552)
Outpt time (%) = 0.000609018 (2.87545e-05)
Other time (%) = 2094.67 (98.8986)

Nlocal:    5.125 ave 63 max 0 min
Histogram: 33 2 2 1 0 0 0 0 1 1
Nghost:    0.95 ave 10 max 0 min
Histogram: 29 3 3 2 0 0 1 1 0 1
Neighs:    0.175 ave 3 max 0 min
Histogram: 36 0 0 2 0 0 1 0 0 1

Total # of neighbors = 7
Ave neighs/atom = 0.0341463
Neighbor list builds = 13154
Dangerous builds = 329
write_dump all custom dump.atom_info_ac_* id type x y z radius vx vy vz density #
run 205761
Setting up run at Tue Jan  3 05:53:39 2023

Memory usage per processor = 960.195 Mbytes
    Step    Atoms         KinEng            CPU 
30246899      205     0.33986487              0 
30452660      201     0.27404547      2110.5797 
Loop time of 2110.58 on 40 procs for 205761 steps with 201 atoms, finish time Tue Jan  3 06:28:50 2023


Pair  time (%) = 0.400039 (0.018954)
Neigh time (%) = 9.32912 (0.442017)
Comm  time (%) = 10.743 (0.509005)
Outpt time (%) = 0.000493824 (2.33975e-05)
Other time (%) = 2090.11 (99.03)

Nlocal:    5.025 ave 66 max 0 min
Histogram: 34 2 2 0 0 0 0 1 0 1
Nghost:    0.825 ave 12 max 0 min
Histogram: 34 2 1 1 0 0 1 0 0 1
Neighs:    0.1 ave 2 max 0 min
Histogram: 38 0 0 0 0 0 0 0 0 2

Total # of neighbors = 4
Ave neighs/atom = 0.0199005
Neighbor list builds = 11109
Dangerous builds = 384
write_dump all custom dump.atom_info_ac_* id type x y z radius vx vy vz density #
run 205761
Setting up run at Tue Jan  3 06:28:50 2023

Memory usage per processor = 960.195 Mbytes
    Step    Atoms         KinEng            CPU 
30452660      201     0.27404547              0 
30658421      200     0.67853526      2111.0655 
Loop time of 2111.07 on 40 procs for 205761 steps with 200 atoms, finish time Tue Jan  3 07:04:01 2023


Pair  time (%) = 0.398418 (0.0188728)
Neigh time (%) = 8.8134 (0.417486)
Comm  time (%) = 9.54395 (0.452091)
Outpt time (%) = 0.000542969 (2.57201e-05)
Other time (%) = 2092.31 (99.1115)

Nlocal:    5 ave 65 max 0 min
Histogram: 33 2 3 0 0 0 1 0 0 1
Nghost:    0.775 ave 9 max 0 min
Histogram: 29 6 1 1 0 1 1 0 0 1
Neighs:    0.075 ave 2 max 0 min
Histogram: 38 0 0 0 0 1 0 0 0 1

Total # of neighbors = 3
Ave neighs/atom = 0.015
Neighbor list builds = 10464
Dangerous builds = 1
write_dump all custom dump.atom_info_ac_* id type x y z radius vx vy vz density #
run 205761
Setting up run at Tue Jan  3 07:04:01 2023

Memory usage per processor = 960.195 Mbytes
    Step    Atoms         KinEng            CPU 
30658421      200     0.67853526              0 
30864182      196     0.25045825       2117.384 
Loop time of 2117.38 on 40 procs for 205761 steps with 196 atoms, finish time Tue Jan  3 07:39:19 2023


Pair  time (%) = 0.403621 (0.0190622)
Neigh time (%) = 9.96997 (0.470863)
Comm  time (%) = 8.11127 (0.38308)
Outpt time (%) = 0.000596611 (2.81768e-05)
Other time (%) = 2098.9 (99.127)

Nlocal:    4.9 ave 63 max 0 min
Histogram: 33 2 3 0 0 0 0 1 0 1
Nghost:    0.825 ave 8 max 0 min
Histogram: 30 4 2 0 0 1 1 0 0 2
Neighs:    0.125 ave 3 max 0 min
Histogram: 37 0 0 2 0 0 0 0 0 1

Total # of neighbors = 5
Ave neighs/atom = 0.0255102
Neighbor list builds = 11843
Dangerous builds = 64
write_dump all custom dump.atom_info_ac_* id type x y z radius vx vy vz density #
run 205761
Setting up run at Tue Jan  3 07:39:19 2023

Memory usage per processor = 960.195 Mbytes
    Step    Atoms         KinEng            CPU 
30864182      196     0.25045825              0 
31069943      191     0.22301157      2119.2786 
Loop time of 2119.28 on 40 procs for 205761 steps with 191 atoms, finish time Tue Jan  3 08:14:38 2023


Pair  time (%) = 0.412942 (0.019485)
Neigh time (%) = 10.5785 (0.499155)
Comm  time (%) = 13.7631 (0.649425)
Outpt time (%) = 0.000570801 (2.69337e-05)
Other time (%) = 2094.52 (98.8319)

Nlocal:    4.775 ave 60 max 0 min
Histogram: 32 3 3 0 0 0 0 1 0 1
Nghost:    1.075 ave 11 max 0 min
Histogram: 31 4 1 1 1 0 0 0 1 1
Neighs:    0.15 ave 3 max 0 min
Histogram: 37 0 0 1 0 0 1 0 0 1

Total # of neighbors = 6
Ave neighs/atom = 0.0314136
Neighbor list builds = 12598
Dangerous builds = 2
write_dump all custom dump.atom_info_ac_* id type x y z radius vx vy vz density #
run 205761
Setting up run at Tue Jan  3 08:14:38 2023

Memory usage per processor = 960.195 Mbytes
    Step    Atoms         KinEng            CPU 
31069943      191     0.22301157              0 
31275704      188     0.19788498      2134.1378 
Loop time of 2134.14 on 40 procs for 205761 steps with 188 atoms, finish time Tue Jan  3 08:50:12 2023


Pair  time (%) = 0.401512 (0.0188138)
Neigh time (%) = 11.8364 (0.554622)
Comm  time (%) = 9.75579 (0.45713)
Outpt time (%) = 0.000467407 (2.19014e-05)
Other time (%) = 2112.14 (98.9694)

Nlocal:    4.7 ave 62 max 0 min
Histogram: 32 5 1 0 0 0 0 1 0 1
Nghost:    0.8 ave 10 max 0 min
Histogram: 32 4 0 1 0 0 0 1 1 1
Neighs:    0.05 ave 1 max 0 min
Histogram: 38 0 0 0 0 0 0 0 0 2

Total # of neighbors = 2
Ave neighs/atom = 0.0106383
Neighbor list builds = 14103
Dangerous builds = 0
write_dump all custom dump.atom_info_ac_* id type x y z radius vx vy vz density #
run 205761
Setting up run at Tue Jan  3 08:50:12 2023

Memory usage per processor = 960.195 Mbytes
    Step    Atoms         KinEng            CPU 
31275704      188     0.19788498              0 
31481465      181     0.25765013       2149.346 
Loop time of 2149.35 on 40 procs for 205761 steps with 181 atoms, finish time Tue Jan  3 09:26:02 2023


Pair  time (%) = 0.397781 (0.0185071)
Neigh time (%) = 9.37284 (0.436078)
Comm  time (%) = 10.7286 (0.499156)
Outpt time (%) = 0.000478412 (2.22585e-05)
Other time (%) = 2128.85 (99.0462)

Nlocal:    4.525 ave 62 max 0 min
Histogram: 33 4 1 0 0 0 1 0 0 1
Nghost:    0.85 ave 9 max 0 min
Histogram: 28 7 1 0 1 1 0 1 0 1
Neighs:    0.05 ave 1 max 0 min
Histogram: 38 0 0 0 0 0 0 0 0 2

Total # of neighbors = 2
Ave neighs/atom = 0.0110497
Neighbor list builds = 11172
Dangerous builds = 97
write_dump all custom dump.atom_info_ac_* id type x y z radius vx vy vz density #
run 205761
Setting up run at Tue Jan  3 09:26:02 2023

Memory usage per processor = 960.195 Mbytes
    Step    Atoms         KinEng            CPU 
31481465      181     0.25765013              0 
31687226      178     0.29033734      2121.0707 
Loop time of 2121.07 on 40 procs for 205761 steps with 178 atoms, finish time Tue Jan  3 10:01:23 2023


Pair  time (%) = 0.398476 (0.0187866)
Neigh time (%) = 10.8919 (0.513509)
Comm  time (%) = 11.6327 (0.548433)
Outpt time (%) = 0.000621544 (2.93033e-05)
Other time (%) = 2098.15 (98.9192)

Nlocal:    4.45 ave 56 max 0 min
Histogram: 31 4 3 0 0 0 0 1 0 1
Nghost:    0.675 ave 7 max 0 min
Histogram: 32 4 0 0 0 1 0 1 0 2
Neighs:    0.05 ave 1 max 0 min
Histogram: 38 0 0 0 0 0 0 0 0 2

Total # of neighbors = 2
Ave neighs/atom = 0.011236
Neighbor list builds = 12955
Dangerous builds = 5
write_dump all custom dump.atom_info_ac_* id type x y z radius vx vy vz density #
run 205761
Setting up run at Tue Jan  3 10:01:23 2023

Memory usage per processor = 960.195 Mbytes
    Step    Atoms         KinEng            CPU 
31687226      178     0.29033734              0 
31892987      175     0.34437247      2167.8825 
Loop time of 2167.88 on 40 procs for 205761 steps with 175 atoms, finish time Tue Jan  3 10:37:31 2023


Pair  time (%) = 0.400062 (0.018454)
Neigh time (%) = 11.633 (0.536604)
Comm  time (%) = 9.12582 (0.420955)
Outpt time (%) = 0.000494828 (2.28254e-05)
Other time (%) = 2146.72 (99.024)

Nlocal:    4.375 ave 54 max 0 min
Histogram: 31 4 3 0 0 0 0 1 0 1
Nghost:    0.675 ave 7 max 0 min
Histogram: 32 4 0 0 0 1 0 0 2 1
Neighs:    0.05 ave 1 max 0 min
Histogram: 38 0 0 0 0 0 0 0 0 2

Total # of neighbors = 2
Ave neighs/atom = 0.0114286
Neighbor list builds = 13807
Dangerous builds = 13
write_dump all custom dump.atom_info_ac_* id type x y z radius vx vy vz density #
run 205761
Setting up run at Tue Jan  3 10:37:31 2023

Memory usage per processor = 960.195 Mbytes
    Step    Atoms         KinEng            CPU 
31892987      175     0.34437247              0 
32098748      164     0.29236623      2114.7138 
Loop time of 2114.71 on 40 procs for 205761 steps with 164 atoms, finish time Tue Jan  3 11:12:46 2023


Pair  time (%) = 0.393451 (0.0186054)
Neigh time (%) = 10.2217 (0.483362)
Comm  time (%) = 7.85196 (0.371301)
Outpt time (%) = 0.000500534 (2.36691e-05)
Other time (%) = 2096.25 (99.1267)

Nlocal:    4.1 ave 49 max 0 min
Histogram: 32 2 4 0 0 0 0 0 1 1
Nghost:    0.575 ave 7 max 0 min
Histogram: 31 5 0 0 1 2 0 0 0 1
Neighs:    0.05 ave 2 max 0 min
Histogram: 39 0 0 0 0 0 0 0 0 1

Total # of neighbors = 2
Ave neighs/atom = 0.0121951
Neighbor list builds = 12144
Dangerous builds = 606
write_dump all custom dump.atom_info_ac_* id type x y z radius vx vy vz density #
run 205761
Setting up run at Tue Jan  3 11:12:46 2023

Memory usage per processor = 960.195 Mbytes
    Step    Atoms         KinEng            CPU 
32098748      164     0.29236623              0 
32304509      160     0.19695598      2090.3435 
Loop time of 2090.34 on 40 procs for 205761 steps with 160 atoms, finish time Tue Jan  3 11:47:36 2023


Pair  time (%) = 0.391439 (0.018726)
Neigh time (%) = 7.47292 (0.357497)
Comm  time (%) = 6.20523 (0.296852)
Outpt time (%) = 0.00389209 (0.000186194)
Other time (%) = 2076.27 (99.3267)

Nlocal:    4 ave 46 max 0 min
Histogram: 31 3 3 1 0 0 0 0 0 2
Nghost:    0.6 ave 8 max 0 min
Histogram: 35 1 0 0 0 1 1 1 0 1
Neighs:    0.025 ave 1 max 0 min
Histogram: 39 0 0 0 0 0 0 0 0 1

Total # of neighbors = 1
Ave neighs/atom = 0.00625
Neighbor list builds = 8905
Dangerous builds = 500
write_dump all custom dump.atom_info_ac_* id type x y z radius vx vy vz density #
run 205761
Setting up run at Tue Jan  3 11:47:36 2023

Memory usage per processor = 960.195 Mbytes
    Step    Atoms         KinEng            CPU 
32304509      160     0.19695598              0 
32510270      160      0.2734857       2092.883 
Loop time of 2092.88 on 40 procs for 205761 steps with 160 atoms, finish time Tue Jan  3 12:22:29 2023


Pair  time (%) = 0.394303 (0.0188402)
Neigh time (%) = 8.52895 (0.407522)
Comm  time (%) = 7.40718 (0.353922)
Outpt time (%) = 0.000540879 (2.58437e-05)
Other time (%) = 2076.55 (99.2197)

Nlocal:    4 ave 46 max 0 min
Histogram: 33 1 3 0 1 0 0 0 1 1
Nghost:    0.575 ave 6 max 0 min
Histogram: 32 3 0 1 0 0 3 0 0 1
Neighs:    0.025 ave 1 max 0 min
Histogram: 39 0 0 0 0 0 0 0 0 1

Total # of neighbors = 1
Ave neighs/atom = 0.00625
Neighbor list builds = 10153
Dangerous builds = 0
write_dump all custom dump.atom_info_ac_* id type x y z radius vx vy vz density #
run 205761
Setting up run at Tue Jan  3 12:22:29 2023

Memory usage per processor = 960.195 Mbytes
    Step    Atoms         KinEng            CPU 
32510270      160      0.2734857              0 
32716031      157     0.53106746      2110.8669 
Loop time of 2110.87 on 40 procs for 205761 steps with 157 atoms, finish time Tue Jan  3 12:57:40 2023


Pair  time (%) = 0.398568 (0.0188817)
Neigh time (%) = 9.58751 (0.454198)
Comm  time (%) = 9.66393 (0.457818)
Outpt time (%) = 0.000499464 (2.36616e-05)
Other time (%) = 2091.22 (99.0691)

Nlocal:    3.925 ave 43 max 0 min
Histogram: 33 1 3 1 0 0 0 0 0 2
Nghost:    0.625 ave 7 max 0 min
Histogram: 31 5 0 0 0 2 0 1 0 1
Neighs:    0.075 ave 3 max 0 min
Histogram: 39 0 0 0 0 0 0 0 0 1

Total # of neighbors = 3
Ave neighs/atom = 0.0191083
Neighbor list builds = 11405
Dangerous builds = 195
write_dump all custom dump.atom_info_ac_* id type x y z radius vx vy vz density #
run 205761
Setting up run at Tue Jan  3 12:57:40 2023

Memory usage per processor = 960.195 Mbytes
    Step    Atoms         KinEng            CPU 
32716031      157     0.53106746              0 
32921792      151     0.23733283      2108.7129 
Loop time of 2108.71 on 40 procs for 205761 steps with 151 atoms, finish time Tue Jan  3 13:32:49 2023


Pair  time (%) = 0.399043 (0.0189235)
Neigh time (%) = 10 (0.474224)
Comm  time (%) = 8.96704 (0.425238)
Outpt time (%) = 0.00402768 (0.000191002)
Other time (%) = 2089.34 (99.0814)

Nlocal:    3.775 ave 48 max 0 min
Histogram: 32 4 2 0 0 0 0 1 0 1
Nghost:    0.55 ave 6 max 0 min
Histogram: 32 4 0 0 0 1 1 0 1 1
Neighs:    0.075 ave 3 max 0 min
Histogram: 39 0 0 0 0 0 0 0 0 1

Total # of neighbors = 3
Ave neighs/atom = 0.0198675
Neighbor list builds = 11894
Dangerous builds = 0
write_dump all custom dump.atom_info_ac_* id type x y z radius vx vy vz density #
run 205761
Setting up run at Tue Jan  3 13:32:49 2023

Memory usage per processor = 960.195 Mbytes
    Step    Atoms         KinEng            CPU 
32921792      151     0.23733283              0 
33127553      148     0.25648201      2112.3129 
Loop time of 2112.31 on 40 procs for 205761 steps with 148 atoms, finish time Tue Jan  3 14:08:01 2023


Pair  time (%) = 0.398039 (0.0188438)
Neigh time (%) = 9.53736 (0.451513)
Comm  time (%) = 9.24565 (0.437703)
Outpt time (%) = 0.000593262 (2.80859e-05)
Other time (%) = 2093.13 (99.0919)

Nlocal:    3.7 ave 47 max 0 min
Histogram: 31 4 3 0 0 0 0 1 0 1
Nghost:    0.65 ave 7 max 0 min
Histogram: 32 3 1 0 0 1 0 2 0 1
Neighs:    0.05 ave 2 max 0 min
Histogram: 39 0 0 0 0 0 0 0 0 1

Total # of neighbors = 2
Ave neighs/atom = 0.0135135
Neighbor list builds = 11360
Dangerous builds = 4
write_dump all custom dump.atom_info_ac_* id type x y z radius vx vy vz density #
run 205761
Setting up run at Tue Jan  3 14:08:01 2023

Memory usage per processor = 960.195 Mbytes
    Step    Atoms         KinEng            CPU 
33127553      148     0.25648201              0 
33333314      145      0.2533403       2211.714 
Loop time of 2211.71 on 40 procs for 205761 steps with 145 atoms, finish time Tue Jan  3 14:44:53 2023


Pair  time (%) = 0.399797 (0.0180764)
Neigh time (%) = 12.1245 (0.548195)
Comm  time (%) = 9.60399 (0.434233)
Outpt time (%) = 0.000616628 (2.78801e-05)
Other time (%) = 2189.59 (98.9995)

Nlocal:    3.625 ave 44 max 0 min
Histogram: 32 3 3 0 0 0 0 1 0 1
Nghost:    0.625 ave 9 max 0 min
Histogram: 34 2 0 1 1 0 0 1 0 1
Neighs:    0.05 ave 1 max 0 min
Histogram: 38 0 0 0 0 0 0 0 0 2

Total # of neighbors = 2
Ave neighs/atom = 0.0137931
Neighbor list builds = 14464
Dangerous builds = 362
write_dump all custom dump.atom_info_ac_* id type x y z radius vx vy vz density #
run 205761
Setting up run at Tue Jan  3 14:44:53 2023

Memory usage per processor = 960.195 Mbytes
    Step    Atoms         KinEng            CPU 
33333314      145      0.2533403              0 
WARNING: Forced restart written (../output.cpp:427)
33359786      145     0.34730637      281.86022 
Loop time of 281.86 on 40 procs for 205761 steps with 145 atoms, finish time Tue Jan  3 14:49:35 2023


Pair  time (%) = 0.0510685 (0.0181184)
Neigh time (%) = 1.70055 (0.603331)
Comm  time (%) = 1.25923 (0.446756)
Outpt time (%) = 0.586047 (0.207921)
Other time (%) = 278.263 (98.7239)

Nlocal:    3.625 ave 45 max 0 min
Histogram: 33 3 2 0 0 0 0 1 0 1
Nghost:    0.6 ave 9 max 0 min
Histogram: 33 2 1 1 2 0 0 0 0 1
Neighs:    0.025 ave 1 max 0 min
Histogram: 39 0 0 0 0 0 0 0 0 1

Total # of neighbors = 1
Ave neighs/atom = 0.00689655
Neighbor list builds = 2019
Dangerous builds = 0
