ITEM: TIMESTEP
16913552
ITEM: NUMBER OF ATOMS
105
ITEM: BOX BOUNDS ff ff ff
-0.15 0.15
-0.15 0.15
-0.15 0.15
ITEM: ATOMS id type x y z radius vx vy vz density 
83 1 -0.0170299 -0.0339523 -0.0657846 0.001058 -31.8269 8.66782 8.2333 2650 
278 1 -0.0158784 -0.00808407 -0.066062 0.001058 -19.1205 -2.07329 4.59426 2650 
126 1 -0.012581 -0.0344374 -0.0626205 0.000291 -10.6252 -7.67468 9.84271 2650 
87 1 -0.0321664 -0.0526819 -0.0607156 0.000291 -34.9496 6.95309 18.5125 2650 
251 1 -0.0300045 -0.0303885 -0.0609732 0.001058 -29.0272 4.20763 14.2733 2650 
53 1 -0.0361934 -0.056672 -0.0584043 0.000291 -28.2213 2.40026 17.4856 2650 
159 1 -0.0374837 -0.0473235 -0.0575868 0.000291 -39.9535 8.57111 26.0002 2650 
211 1 -0.0465672 -0.0558645 -0.0495263 0.001058 -37.4329 7.31504 35.1724 2650 
170 1 -0.0507399 -0.0498146 -0.0452148 0.001058 -19.0513 -5.06265 21.3617 2650 
23 1 -0.0642372 -0.0357842 -0.0244 0.000291 -12.7161 -9.59002 33.469 2650 
33 1 -0.00258706 -4.00616e-05 -0.00753873 0.00164 0.00139121 -0.00702858 0.00589607 2650 
291 1 -0.008194 -0.00211247 0.004767 0.000291 0 -0.01175 0 2650 
81 1 -0.0654114 -0.011086 0.0162946 0.00164 5.63165 0.303868 22.5811 2650 
121 1 -0.0649314 -0.00711691 0.0181399 0.00164 7.76424 -0.802823 27.76 2650 
44 1 -0.0614564 -0.0517794 0.0201955 0.001058 5.61303 -16.0589 22.6123 2650 
97 1 -0.0619882 -0.0406699 0.0265266 0.00164 14.0383 -2.36163 32.7694 2650 
227 1 -0.0628068 -0.0025674 0.0278748 0.000291 13.2105 0.952237 29.758 2650 
177 1 -0.0564728 -0.0334322 0.0367771 0.00164 9.22547 2.76303 14.1471 2650 
224 1 -0.0443292 -0.020109 0.0515151 0.001058 24.4875 8.44117 21.055 2650 
294 1 -0.0426721 -0.00228713 0.0528933 0.001058 24.0648 12.2329 19.3989 2650 
134 1 -0.000240528 0.00656622 -0.0125033 0.000291 -0.0118829 0.00375813 -0.00608975 2650 
78 1 -0.00257403 0.00594786 -0.0117006 0.000291 0.000438945 0.0320901 0.0170675 2650 
41 1 -0.00987878 0.0155931 -0.0116028 0.00164 -0.345283 -0.00929027 0.257777 2650 
71 1 -0.00276842 0.00299856 -0.00846161 0.000291 -0.00101545 -0.00618567 -0.020495 2650 
80 1 -0.00610759 0.00434569 -0.00946956 0.000105 0.0101478 -0.00197038 -0.0113343 2650 
38 1 -0.00741145 0.00474242 -0.00701549 0.000291 -0.00750743 0.00682636 -0.0181611 2650 
266 1 -0.0130343 0.0228339 -0.00532218 0.001058 0.000458042 0.0522216 -0.00154359 2650 
104 1 -0.0162243 0.0358015 -0.00429021 0.000105 0.0297045 0.0146219 -0.0243567 2650 
67 1 -0.000195104 0.000630564 -0.00278563 0.001058 -0.0060064 -0.00367415 0.00641471 2650 
7 1 -0.00374736 0.0291349 -0.00321378 0.000291 0.00379351 0.0136266 -0.000190797 2650 
233 1 -0.0165631 0.016086 -0.00115905 0.000291 0.00311982 0.0225116 -0.0231225 2650 
276 1 -0.00169745 0.00526467 0.000680178 0.000291 0.0140957 0.000399388 0.00506155 2650 
209 1 -0.00154909 0.0112633 0.000454364 0.001058 0.0131036 0.00683383 0.00483425 2650 
263 1 -0.00268092 0.0236359 0.00283008 0.000291 -0.0605328 0.0365446 -0.00179287 2650 
210 1 -0.000726986 0.0248591 0.00332629 0.001058 0.029377 0.0308699 0.0439564 2650 
147 1 -0.0151937 0.0523978 0.00426969 0.001058 0.00834171 0.0422677 0.0437559 2650 
187 1 -0.00752456 0.0544421 0.00848249 0.001058 0.0209674 0.113444 -0.00790569 2650 
292 1 -0.00646864 0.0579057 0.00846612 0.001058 0.0272291 0.136271 -0.010028 2650 
273 1 -0.00341459 0.045649 0.0107527 0.001058 -0.000465026 0.0310927 -0.0151219 2650 
68 1 -0.00591091 0.00440362 0.0133382 0.001058 -0.000721608 -0.0063854 -0.0100306 2650 
279 1 -0.000138375 0.0351909 0.0132236 0.001058 0.00241361 0.0355104 0.0200405 2650 
52 1 -0.00427694 0.0076239 0.0150908 0.001058 0.0920501 -0.0155725 0.0685614 2650 
144 1 -0.0049681 0.0228698 0.0158201 0.000105 0.00862261 0.0155448 0.0270904 2650 
1 1 -0.0129453 0.0798622 -0.0133349 0.00164 -0.916869 0.414084 -0.759347 2650 
79 1 0.0489348 -0.051029 -0.0482359 0.000291 -23.9919 -2.92423 -24.333 2650 
18 1 0.0588242 -0.0222937 -0.034036 0.001058 -8.77111 -0.460678 -15.1454 2650 
99 1 0.0644034 -0.0481155 -0.0217016 0.001058 -1.33061 -4.41798 -3.94496 2650 
37 1 0.006156 -0.00279947 -0.015157 0.000291 0 -0.01175 0 2650 
220 1 0.0099678 -0.00117304 -0.0131918 0.000291 -0.483037 0.00315266 -0.418387 2650 
169 1 0.0664654 -0.0595585 -0.0111896 0.00164 -2.20806 0.0945561 -13.0984 2650 
202 1 0.00239299 -0.0024204 -0.00919692 0.001058 0.00162452 -0.00787741 -0.0205046 2650 
271 1 0.0675796 -0.046493 -0.00721865 0.001058 0.0585272 2.25974 0.547407 2650 
114 1 0.0678829 -0.0346467 0.00361027 0.001058 1.81756 1.51365 -34.1478 2650 
61 1 0.0686307 -0.017765 0.0034305 0.000291 1.89378 0.868387 -37.8779 2650 
82 1 0.0675535 -0.00775527 0.00751744 0.001058 2.4062 1.32851 -21.6043 2650 
264 1 0.0673587 -0.0264204 0.00915779 0.001058 4.60585 -3.6938 -33.8513 2650 
253 1 0.00172006 -0.000419384 0.01355 0.000291 -0.020244 -0.00223379 0.021319 2650 
285 1 0.066637 -0.0285792 0.0134463 0.001058 7.34493 8.6989 -36.3723 2650 
101 1 0.065026 -0.0497282 0.0222092 0.000291 3.76776 -3.63794 -11.0286 2650 
223 1 0.0581796 -0.0445967 0.0351608 0.001058 22.1737 -2.51258 -36.6636 2650 
45 1 0.0593768 -0.00929622 0.0345878 0.000291 29.3389 -4.86448 -50.3547 2650 
289 1 0.0501449 -0.016279 0.0386712 0.000291 14.2996 3.39022 10.0521 2650 
186 1 0.0318276 -0.00275741 0.0445133 0.001058 9.02434 -8.45764 -20.5161 2650 
115 1 0.0477374 -0.0141774 0.0483736 0.001058 21.6479 -1.57637 -21.346 2650 
252 1 0.0440614 -0.0203317 0.0505098 0.001058 22.246 -8.85106 0.000838158 2650 
237 1 0.0412801 -0.0524552 0.0539887 0.001058 27.0984 -0.201476 -20.7035 2650 
19 1 0.0280691 -0.0270854 0.0619035 0.001058 43.4875 1.18088 -19.7064 2650 
113 1 0.00230181 -0.0318651 0.0672396 0.00164 0.587567 -2.11119 0.341795 2650 
231 1 0.00810735 -0.0257318 0.0674688 0.001058 35.5095 -6.00884 -4.32857 2650 
161 1 0.00800281 -0.0230202 0.0669225 0.00164 38.4726 -5.63036 -4.62495 2650 
179 1 0.0115817 -0.0201461 0.0669646 0.001058 39.2213 -1.03633 -6.77808 2650 
94 1 0.00226111 0.0497614 -0.01642 0.000291 -0.365051 0.0569969 -0.0143918 2650 
10 1 0.00297662 0.0324576 -0.0144557 0.001058 0.0233197 0.0302728 -0.0136997 2650 
238 1 0.00926488 0.0252326 -0.0129739 0.001058 -0.195519 -0.00680192 -0.0858775 2650 
4 1 0.00753021 0.0347763 -0.013973 0.001058 -0.185312 0.0742563 -0.098341 2650 
17 1 0.011801 0.00521588 -0.00951245 0.00164 -0.351241 0.156671 -0.473606 2650 
77 1 0.0119002 0.0146534 -0.00995061 0.000291 -0.00630158 0.00608212 0.0138888 2650 
54 1 0.0137028 0.0328255 -0.00930048 0.000291 -0.0306405 -0.00128986 -0.0366903 2650 
217 1 0.0125632 0.0386669 -0.00968362 0.001058 0.0385899 0.0111853 0.044381 2650 
301 1 0.00937887 0.0423856 -0.00835241 0.001058 -0.0269693 0.00790733 0.0148462 2650 
139 1 0.013058 0.0560854 -0.00874683 0.001058 -0.128245 0.13624 -0.175145 2650 
128 1 0.00767078 0.00201742 -0.0060024 0.000105 0.00857782 0.000112783 -0.0137586 2650 
116 1 0.0143912 0.0431956 -0.00634876 0.001058 0.0504775 0.00351245 0.0953315 2650 
195 1 0.0136287 0.011939 -0.00560394 0.001058 -0.0135239 0.00889222 -0.0182334 2650 
212 1 0.000274462 0.00317101 -0.00241691 0.000291 -0.00279483 0.00694035 0.00202574 2650 
135 1 0.016066 0.0174455 -0.000854079 0.000291 0.0142535 0.0877177 0.117503 2650 
249 1 0.00415385 0.0321136 -0.000941932 0.000291 0.00967839 0.0183331 -0.0129307 2650 
244 1 0.0154847 0.0352314 -0.000281771 0.001058 -0.00355139 -0.16162 -0.0431717 2650 
74 1 0.00128244 0.00934432 0.00176153 0.001058 0.0108532 0.00526961 0.0100669 2650 
51 1 0.0120908 0.00563936 0.00355601 0.001058 -0.0421769 -0.100184 -0.107459 2650 
124 1 0.0153901 0.0109161 0.00339148 0.001058 -0.0291046 0.0697609 0.156605 2650 
35 1 0.00342068 0.0216881 0.00281746 0.001058 0.00880849 0.0264743 0.0234009 2650 
250 1 0.00385162 0.0561209 0.00343519 0.001058 -0.0207209 0.0499207 0.0196622 2650 
129 1 0.00520205 0.0129294 0.00485629 0.00164 0.0162915 0.00858227 0.00363384 2650 
299 1 0.0141767 0.0155494 0.00598685 0.001058 0.064711 0.0117837 -0.155157 2650 
242 1 0.0144917 0.00573867 0.00787573 0.000291 0.338454 -0.103142 -0.630131 2650 
204 1 0.00614195 0.0109257 0.00756428 0.001058 -0.00471297 0.0121882 -0.00953172 2650 
298 1 0.0125132 0.00360345 0.00821938 0.000105 0.00384822 -0.00429062 -0.00813409 2650 
203 1 0.00888629 0.0384193 0.00819344 0.001058 -0.0259184 0.0342383 0.00359995 2650 
9 1 0.00993074 0.0529453 0.0114377 0.00164 -0.229664 -0.00799761 0.198906 2650 
123 1 0.00726104 0.0442404 0.0122457 0.001058 -0.0292051 0.0351327 0.018198 2650 
240 1 0.00963733 0.0534877 0.0133763 0.000291 -0.0461681 0.0412787 0.0396354 2650 
106 1 0.000447234 0.0618976 0.0153605 0.001058 0.0152911 0.0533264 -0.00314274 2650 
105 1 0.0298069 0.0526971 0.0604895 0.00164 47.2527 -1.8263 -23.2618 2650 
245 1 0.00728849 0.0877405 -0.00894867 0.001058 0.0132501 0.0534812 -0.0221989 2650 
