ITEM: TIMESTEP
10740674
ITEM: NUMBER OF ATOMS
173
ITEM: BOX BOUNDS ff ff ff
-0.15 0.15
-0.15 0.15
-0.15 0.15
ITEM: ATOMS id type x y z radius vx vy vz density 
207 1 -0.0122521 -0.0546217 -0.0676078 0.000291 -28.85 0.60256 5.22825 2650 
243 1 -0.0196424 -0.0119962 -0.0650567 0.001058 -35.3136 0.590368 10.6545 2650 
267 1 -0.030519 -0.0523535 -0.0615607 0.000291 -40.4474 8.44716 20.048 2650 
260 1 -0.00784407 -0.0240988 -0.0593703 0.000291 -49.4951 -27.9632 -30.6784 2650 
247 1 -0.0511731 -0.0169368 -0.0458575 0.000291 -33.6792 8.92422 37.5742 2650 
169 1 -0.0518863 -0.0263308 -0.0431159 0.00164 -38.1309 1.84686 45.8443 2650 
126 1 -0.0582827 -0.0209592 -0.0363957 0.000291 -15.3675 -1.2089 24.6024 2650 
84 1 -0.0600973 -0.00860743 -0.031789 0.001058 -23.5575 -7.023 44.5049 2650 
88 1 -0.0588953 -0.0347091 -0.0309941 0.000105 -1.27149 0.751625 4.05585 2650 
114 1 -0.00625575 -0.00161847 -0.0133019 0.001058 0.0318549 -0.0103582 -0.0142664 2650 
30 1 -0.0681307 -0.0534643 -0.00895677 0.000291 -6.06483 -3.52016 46.1222 2650 
143 1 -0.0681293 -0.0510013 -0.00895532 0.000291 -3.16512 1.97268 24.0731 2650 
135 1 -0.00243621 -0.000247683 -0.0108492 0.000291 0.0022501 0.000177671 -0.0146391 2650 
97 1 -0.0118369 -0.00253812 -0.00915358 0.00164 0.0217503 -0.0384258 -0.0378784 2650 
224 1 -0.067945 -0.0216676 -0.00226474 0.001058 -1.3058 10.2763 39.1446 2650 
18 1 -0.010249 -0.000614827 -0.00535758 0.001058 0.00576299 -0.00628087 -0.0106097 2650 
274 1 -0.016349 -0.00247144 -0.002509 0.000291 0 -0.01175 0 2650 
305 1 -0.0684519 -0.0626858 0.00765839 0.000105 10.6016 0.0137064 147.431 2650 
168 1 -0.007536 -0.00318644 0.001389 0.000105 0 -0.01175 0 2650 
120 1 -0.016055 -0.000984436 0.000189 0.000105 0 -0.01175 0 2650 
251 1 -0.0677394 -0.0182382 0.00565927 0.001058 2.44078 -0.452252 29.1929 2650 
1 1 -0.0143752 -0.00215594 0.00436265 0.00164 -0.0260563 -0.00172639 -0.022154 2650 
164 1 -0.00410602 -0.000480346 0.00535051 0.001058 -0.000670219 -0.0113356 -0.000368244 2650 
285 1 -0.0113594 -0.00161743 0.0107309 0.001058 -0.00567287 -0.013081 -0.00684475 2650 
82 1 -0.0636019 -0.0303423 0.0141298 0.001058 -4.47543 10.2691 25.5036 2650 
300 1 -0.0645477 -0.0418073 0.0213109 0.001058 9.96157 3.66064 30.1488 2650 
179 1 -0.0622359 -0.0153061 0.0273004 0.001058 3.36592 -0.541531 7.66578 2650 
277 1 -0.0606819 -0.0490747 0.0322377 0.000291 11.8415 3.90696 22.2836 2650 
2 1 -0.0414245 -0.0175658 0.0538759 0.001058 24.9906 -6.34388 19.1996 2650 
23 1 -0.0418264 -0.0057791 0.0545137 0.000291 29.4288 4.10523 22.574 2650 
49 1 -0.0331743 -0.0547154 0.058665 0.00164 27.3708 1.93494 15.4602 2650 
225 1 -0.0355657 -0.0327498 0.0579064 0.001058 22.1435 -0.148387 13.4323 2650 
205 1 -0.039414 -0.00980087 0.0562802 0.000291 -0.169114 -0.218513 -0.118433 2650 
42 1 -0.0336322 -0.00504243 0.0590511 0.001058 27.5775 -3.25951 15.6943 2650 
194 1 -0.00827616 -0.0196877 0.0674441 0.001058 30.255 7.64245 3.71015 2650 
215 1 -0.000239902 -0.0195915 0.0679575 0.001058 39.4991 10.2622 0.139323 2650 
259 1 -0.0121078 -0.00526901 0.0668576 0.001058 23.0377 -2.72368 4.16946 2650 
264 1 -0.0144987 -0.00112552 0.066381 0.001058 23.7957 0.0853437 5.19517 2650 
101 1 -0.000671424 -0.00756016 0.0685924 0.000291 -0.0189461 -0.241163 -1.44719 2650 
66 1 -0.0631305 0.0501264 -0.0253364 0.001058 -31.6524 6.30739 78.8221 2650 
154 1 -0.0631407 0.0640527 -0.0252816 0.001058 -28.0474 2.22375 70.0111 2650 
94 1 -0.0014501 0.00821072 -0.0165154 0.000291 0.0386291 0.00458583 -0.0016811 2650 
256 1 -0.000528603 0.0406205 -0.0165521 0.000291 0.0576099 0.0862409 -0.00246837 2650 
147 1 -0.00651443 0.029249 -0.0143552 0.001058 -0.0416813 0.0510909 0.01745 2650 
78 1 -0.000213559 0.00316286 -0.0134269 0.000291 -0.00755008 -0.0113296 -0.00465551 2650 
211 1 -0.00852262 0.0050905 -0.0132885 0.001058 0.150885 0.0520724 -0.0817811 2650 
33 1 -0.00328267 0.00347425 -0.0104868 0.00164 0.00139121 -0.00702858 0.00589607 2650 
127 1 -0.000450607 0.0404456 -0.0107667 0.000291 0.0287766 0.0561217 0.00113528 2650 
234 1 -0.0118475 0.00736719 -0.00986068 0.000291 -0.000530972 0.00319134 0.0114593 2650 
35 1 -0.000983595 0.00845083 -0.00888306 0.001058 0.00880849 0.0264743 0.0234009 2650 
217 1 -0.0136681 0.0292686 -0.00818049 0.001058 0.0276508 0.0256822 -0.06508 2650 
75 1 -0.00747727 0.0465624 -0.00902143 0.001058 0.0171891 0.064434 -0.0211867 2650 
10 1 -0.00868984 0.0173301 -0.00761491 0.001058 0.0234032 0.0301564 -0.0135831 2650 
159 1 -0.012707 0.00365756 -0.00588 0.000291 0 -0.01175 0 2650 
17 1 -0.0137305 0.0121933 -0.00456369 0.00164 0.00125492 0.022418 0.000218412 2650 
80 1 -0.0111815 0.00533089 -0.00380237 0.000105 0.0101478 -0.00197038 -0.0113343 2650 
74 1 -0.00440137 0.00682851 -0.00311788 0.001058 0.0190215 0.00148924 0.00517249 2650 
7 1 -0.00564413 0.0223216 -0.00311838 0.000291 0.00379351 0.0136266 -0.000190797 2650 
261 1 -0.0141273 0.0335538 -0.00293613 0.000291 0.0603224 0.385106 0.05642 2650 
61 1 -0.016439 0.00337556 -0.001038 0.000291 0 -0.01175 0 2650 
276 1 -0.00874535 0.00506497 -0.00185061 0.000291 0.0140957 0.000399388 0.00506155 2650 
209 1 -0.00810094 0.00784632 -0.00196277 0.001058 0.0131036 0.00683383 0.00483425 2650 
52 1 -0.0136518 0.00856089 -0.000748414 0.001058 0.00691299 0.00709535 -0.0138958 2650 
65 1 -0.0115086 0.0191409 -0.00043803 0.00164 -0.00343699 0.0118581 0.00338465 2650 
99 1 -0.0104273 0.00216229 0.00126527 0.001058 0.0183242 -0.0106373 0.00984415 2650 
299 1 -0.00979715 0.00574655 0.000939985 0.001058 -0.00783061 0.0220214 -0.0343027 2650 
71 1 -0.00226069 0.00609141 0.00178595 0.000291 -0.00101545 -0.00618567 -0.020495 2650 
4 1 -0.0156366 0.00863796 0.00180789 0.001058 0.000261528 0.00416185 -0.0115262 2650 
266 1 -0.0135746 0.0094312 0.00149145 0.001058 0.00135178 0.00881106 -0.0260339 2650 
220 1 -0.0133688 0.0202961 0.00048217 0.000291 -0.00515653 0.0136107 0.0128916 2650 
176 1 -0.003983 0.000352564 0.002552 0.000105 0 -0.01175 0 2650 
38 1 -0.00365771 0.00132922 0.00206511 0.000291 -0.00750743 0.00682636 -0.0181611 2650 
129 1 -0.00294374 0.00863819 0.00303936 0.00164 0.0162915 0.00858227 0.00363384 2650 
144 1 -0.00927943 0.0150973 0.00227481 0.000105 0.00862261 0.0155448 0.0270904 2650 
41 1 -0.00412358 0.0152698 0.00328911 0.00164 0.000682203 0.00829841 0.0209465 2650 
279 1 -0.00134519 0.0174356 0.00320326 0.001058 0.00241361 0.0355104 0.0200405 2650 
291 1 -0.008194 0.00376256 0.004767 0.000291 0 -0.01175 0 2650 
242 1 -0.0105491 0.0138831 0.00558388 0.000291 -0.0086111 0.00654042 0.00262129 2650 
249 1 -0.000685378 0.022947 0.00552345 0.000291 0.00967839 0.0183331 -0.0129307 2650 
186 1 -0.006177 0.00170456 0.006545 0.001058 0 -0.01175 0 2650 
48 1 -0.00726866 0.0117751 0.00742274 0.000105 0.0109632 0.0915206 -0.195973 2650 
68 1 -0.0027296 0.00859051 0.00962286 0.001058 0.0027366 -0.00341554 -0.0016946 2650 
273 1 -0.00258303 0.0289226 0.00997149 0.001058 -0.00378567 0.0376334 0.0311204 2650 
233 1 -0.0121255 0.00407258 0.0103335 0.000291 -0.0103179 0.0242082 -0.0229465 2650 
292 1 -0.00749454 0.0273252 0.0107213 0.001058 -0.0174643 0.0536041 0.0178891 2650 
106 1 -0.00662876 0.0344459 0.0113838 0.001058 0.0137575 0.0554487 0.0117951 2650 
156 1 -0.00122196 0.0495493 0.0135186 0.001058 -0.0126276 0.0990378 -0.00960094 2650 
157 1 -0.00488734 0.0635122 0.0134181 0.000291 0.0200522 0.0842483 0.026686 2650 
124 1 -0.00233943 0.0138256 0.0156199 0.001058 -0.109285 -0.0684205 -0.0178775 2650 
104 1 -0.000873088 0.024539 0.0156628 0.000105 -0.0476011 0.0287875 0.0798225 2650 
265 1 -0.00485904 0.0305902 0.0151161 0.001058 -0.0437943 0.118681 -0.018369 2650 
116 1 -0.00507446 0.0348895 0.014803 0.001058 -0.129904 0.0449612 -0.0755118 2650 
244 1 -0.00238529 0.0365404 0.0155525 0.001058 -0.163681 0.0715753 -0.0297217 2650 
9 1 -0.00131709 0.0524468 0.0151867 0.00164 -0.420303 -0.0104159 -0.0792563 2650 
295 1 0.00149379 -0.00980316 -0.0686965 0.000291 -73.3915 11.771 -1.59711 2650 
246 1 0.00369008 -0.0502911 -0.0678567 0.001058 -38.3842 -0.900997 -2.08587 2650 
81 1 0.00140285 -0.0377122 -0.0673618 0.00164 -26.2175 -1.6744 -0.545417 2650 
121 1 0.0186945 -0.0317181 -0.0647927 0.00164 -52.4962 1.52334 -15.1319 2650 
146 1 0.0215096 -0.00760078 -0.0644674 0.001058 -38.0877 0.253568 -12.6988 2650 
178 1 0.0403481 -0.0351613 -0.0546897 0.001058 -28.032 6.72857 -20.665 2650 
102 1 0.0298335 -0.00892847 -0.04984 0.000291 4.60702 -0.519118 -7.65721 2650 
174 1 0.0655827 -0.0318575 -0.0205182 0.000291 -17.2485 -12.4699 -55.1197 2650 
289 1 0.001465 -0.00226344 -0.012477 0.000291 0 -0.01175 0 2650 
263 1 0.00577574 -0.000405666 -0.0124566 0.000291 -0.269293 0.218492 0.280647 2650 
117 1 0.004754 -0.00326344 -0.007063 0.000291 0 -0.01175 0 2650 
60 1 0.007579 -0.000622436 -0.006312 0.001058 0 -0.01175 0 2650 
45 1 0.010575 -0.000702436 -0.007722 0.000291 0 -0.01175 0 2650 
83 1 0.0676134 -0.0445242 -0.00714002 0.001058 -4.96696 -1.18661 -47.0036 2650 
92 1 0.00383856 -0.00252398 -0.00208813 0.001058 -0.0170112 -0.0145976 0.00501068 2650 
227 1 0.00944 -2.44355e-05 -0.002109 0.000291 0 -0.01175 0 2650 
177 1 0.0013726 -0.00204294 -0.00101767 0.00164 -0.00972365 -0.00599557 0.0042022 2650 
87 1 0.0687153 -0.0466525 0.000469402 0.000291 0.299141 -1.42911 -43.7792 2650 
113 1 0.00723141 -0.000102663 0.00544138 0.00164 -0.0100018 -0.004718 0.0209306 2650 
231 1 0.0678423 -0.00445436 0.00435157 0.001058 2.20685 -7.16019 -33.6984 2650 
24 1 0.00571794 -0.000644639 0.00648137 0.000105 -0.0152842 -0.0167586 0.0185625 2650 
108 1 0.0673888 -0.0243092 0.00894863 0.001058 4.8348 -0.647703 -36.3814 2650 
191 1 0.0665179 -0.00644827 0.0172413 0.000291 10.0034 7.43471 -38.5847 2650 
236 1 0.0629381 -0.0164047 0.02568 0.001058 13.1047 -7.26235 -32.0932 2650 
47 1 0.0629303 -0.0430543 0.0275977 0.000291 18.4384 8.90673 -42.0346 2650 
150 1 0.0597675 -0.00188772 0.0339042 0.000291 17.8672 1.85279 -31.4891 2650 
14 1 0.0585386 -0.0563273 0.0359815 0.000291 9.9605 -7.27175 -16.2009 2650 
13 1 0.0593911 -0.0563853 0.0345582 0.000291 15.6065 -3.14948 -26.8136 2650 
237 1 0.0152579 -0.0438452 0.0402303 0.001058 13.4399 -13.6281 -1.25825 2650 
44 1 0.0524965 -0.0530083 0.0431831 0.001058 27.1581 -7.52638 -32.9913 2650 
138 1 0.0499396 -0.0290544 0.0461108 0.001058 27.3001 0.417217 -29.545 2650 
161 1 0.0425811 -0.0418719 0.0522517 0.00164 26.2445 6.74114 -21.3633 2650 
226 1 0.0424572 -0.0239081 0.0540229 0.000291 23.5511 -3.78083 -18.5043 2650 
196 1 0.0212433 -0.0215021 0.0645559 0.001058 38.697 -0.869303 -12.7249 2650 
19 1 0.0145692 -0.0329271 0.0663692 0.001058 28.4552 10.452 -6.23969 2650 
53 1 0.0137839 -0.0289184 0.0673123 0.000291 35.6636 -2.80487 -7.30274 2650 
293 1 0.0113579 -0.0276414 0.066998 0.001058 34.164 -0.807247 -5.78759 2650 
223 1 0.00718969 -0.00580387 0.0675726 0.001058 34.9922 -0.652658 -3.72055 2650 
252 1 0.00183295 0.00124876 -0.0147904 0.001058 -0.00169919 -0.0122947 -0.00393889 2650 
37 1 0.006156 0.00307556 -0.015157 0.000291 0 -0.01175 0 2650 
240 1 0.00851983 0.028984 -0.014232 0.000291 0.084197 0.0675078 -0.0216258 2650 
55 1 0.006067 0.0536897 -0.0153653 0.000291 0.218243 0.212254 0.095231 2650 
105 1 0.000893654 0.00688274 -0.0118365 0.00164 0.000769148 0.00741358 -0.0081624 2650 
268 1 0.0100783 0.0601624 -0.0117597 0.000291 0.0486165 0.143758 0.0597315 2650 
134 1 0.00570095 0.00468714 -0.00945843 0.000291 -0.0118829 0.00375813 -0.00608975 2650 
67 1 0.00270938 0.00275699 -0.00621792 0.001058 -0.00558703 -0.00493479 0.00721537 2650 
250 1 0.0142121 0.0311604 -0.00639597 0.001058 -0.0207209 0.0499207 0.0196622 2650 
58 1 0.0129908 0.0468903 -0.00771884 0.001058 0.036025 0.115641 0.0721718 2650 
278 1 7.4e-05 0.00188856 -0.004448 0.001058 0 -0.01175 0 2650 
170 1 0.0147206 0.0480367 -0.00416641 0.001058 0.0156773 0.106367 0.0856638 2650 
115 1 0.0155038 0.00338472 -0.00297395 0.001058 0.0254167 -0.0176145 0.0943795 2650 
153 1 0.00422276 0.00919096 -0.0023544 0.00164 0.0126939 0.00305775 -0.0265106 2650 
77 1 0.00178049 0.0111179 -0.00372897 0.000291 0.0277953 0.00207908 -0.016867 2650 
203 1 0.00643828 0.018604 -0.00363806 0.001058 0.0258377 0.0432949 0.0372977 2650 
123 1 0.0109468 0.0247154 -0.00389229 0.001058 0.00917159 0.0420176 0.0429422 2650 
193 1 0.0150808 0.0443813 -0.00234505 0.00164 0.0130959 0.14139 0.350005 2650 
210 1 0.00368018 0.00624859 -0.00146927 0.001058 -0.0913322 0.0509424 -0.0646605 2650 
139 1 0.0114801 0.0198404 -0.000344988 0.001058 0.0124295 0.00846741 0.0230295 2650 
301 1 0.0107446 0.0313633 -0.000849607 0.001058 0.0113125 0.0256345 -0.0254985 2650 
212 1 0.000915602 0.00331652 0.00168185 0.000291 -0.000536105 -0.00385845 -0.0132408 2650 
128 1 0.00361 0.00227656 0.000511 0.000105 0 -0.01175 0 2650 
202 1 0.00326553 0.00155733 0.0020145 0.001058 -0.00570365 -0.00814726 -0.0246761 2650 
253 1 0.0118421 0.000697519 0.00289043 0.000291 -0.020244 -0.00223379 0.021319 2650 
187 1 0.0153414 0.0229078 0.0037589 0.001058 -0.0190012 0.0332934 0.107729 2650 
245 1 0.000663369 0.0609997 0.00215084 0.001058 0.0132501 0.0534812 -0.0221989 2650 
79 1 0.014214 0.00327856 0.005058 0.000291 0 -0.01175 0 2650 
195 1 0.00794311 0.00806302 0.00504212 0.001058 0.0216865 0.00727933 -0.0225594 2650 
294 1 0.00280269 0.00135208 0.00629182 0.001058 -0.0394633 -0.0128274 0.0226741 2650 
112 1 0.013668 0.00360156 0.007002 0.000105 0 -0.01175 0 2650 
51 1 0.00240434 0.00651178 0.00660629 0.001058 -0.0748188 0.049951 0.0238643 2650 
190 1 0.00725875 0.0108227 0.0072131 0.000291 0.00420752 0.013454 0.0239722 2650 
57 1 0.000559428 0.0251692 0.0109788 0.00164 -0.0489325 0.0299365 -0.0227674 2650 
54 1 0.00782698 0.0313921 0.0114416 0.000291 0.0527092 0.00944275 -0.0227616 2650 
204 1 0.00849845 0.00483158 0.0123302 0.001058 -0.00471297 0.0121882 -0.00953172 2650 
298 1 0.010589 0.00574877 0.0122864 0.000105 0.00384822 -0.00429062 -0.00813409 2650 
238 1 0.000500232 0.0227691 0.0132126 0.001058 0.00368672 0.0059602 0.00774738 2650 
271 1 0.00298389 0.000557244 0.0153713 0.001058 -0.0136549 -0.00894653 -0.0235524 2650 
28 1 0.0374918 0.056164 0.0568156 0.001058 108.24 7.52135 -71.391 2650 
136 1 0.00831 0.0982724 0.00374887 0.000105 0.0370802 0.101801 0.0201257 2650 
