ITEM: TIMESTEP
8888834
ITEM: NUMBER OF ATOMS
203
ITEM: BOX BOUNDS ff ff ff
-0.15 0.15
-0.15 0.15
-0.15 0.15
ITEM: ATOMS id type x y z radius vx vy vz density 
247 1 -0.00379563 -0.0600214 -0.0686042 0.000291 -35.2811 2.0827 1.9519 2650 
237 1 -0.00594537 -0.0493482 -0.0677002 0.001058 -42.0707 -0.698169 3.69207 2650 
138 1 -0.00712766 -0.0364141 -0.0675754 0.001058 -30.7681 0.672951 3.24314 2650 
161 1 -0.030441 -0.05153 -0.060122 0.00164 -26.1736 -2.17417 13.2371 2650 
14 1 -0.0333918 -0.0394004 -0.0600495 0.000291 -25.0582 0.194499 13.933 2650 
49 1 -0.0388991 -0.0540467 -0.0550439 0.00164 -27.3488 -2.5398 19.3055 2650 
42 1 -0.0431233 -0.0482711 -0.0525375 0.001058 -31.7847 -5.3611 26.07 2650 
224 1 -0.0439072 -0.054364 -0.0518739 0.001058 -24.2591 -1.49384 20.5171 2650 
259 1 -0.0537541 -0.0216037 -0.0416129 0.001058 -28.0141 0.756021 36.1618 2650 
88 1 -0.0602567 -0.0335652 -0.0314633 0.000105 4.45885 5.76316 -0.107964 2650 
231 1 -0.0625274 -0.0254933 -0.0266639 0.001058 -13.673 4.09928 32.0387 2650 
236 1 -0.0632679 -0.0263574 -0.0248581 0.001058 -12.89 4.6701 32.782 2650 
76 1 -0.00196861 -0.0122004 -0.022475 0.001058 -0.20002 -1.2522 -2.52861 2650 
194 1 -0.0652639 -0.0318907 -0.0190079 0.001058 -9.08686 -4.56083 31.1755 2650 
13 1 -0.00150975 -0.00220317 -0.0164782 0.000291 0.177437 -0.0671756 -0.00685411 2650 
183 1 -0.0674409 -0.0296954 -0.0131756 0.000291 -6.57562 -5.24157 33.6499 2650 
47 1 -0.00367906 -0.00136187 -0.0157733 0.000291 0.0654964 -0.0632743 -0.0347672 2650 
114 1 -0.011034 -6.4757e-05 -0.011162 0.001058 0.0318549 -0.0103582 -0.0142664 2650 
135 1 -0.00277373 -0.000274334 -0.00865335 0.000291 0.0022501 0.000177671 -0.0146391 2650 
30 1 -0.0685757 -0.00893288 -0.00439478 0.000291 -2.4697 7.00353 38.5276 2650 
274 1 -0.016349 -0.000708947 -0.002509 0.000291 0 -0.01175 0 2650 
175 1 -0.0148991 -0.00303214 -0.00157117 0.000291 0.010197 -0.0347854 0.02141 2650 
191 1 -0.0108 -0.00243495 0.001549 0.000291 0 -0.01175 0 2650 
296 1 -0.005879 -0.00328895 0.000521 0.000291 0 -0.01175 0 2650 
168 1 -0.007536 -0.00142395 0.001389 0.000105 0 -0.01175 0 2650 
225 1 -0.0677997 -0.029895 0.00490374 0.001058 2.26364 -5.05183 31.2739 2650 
179 1 -0.0676102 -0.0388299 0.00705768 0.001058 3.3826 -7.81492 32.3798 2650 
255 1 -0.06829 -0.0250237 0.00764057 0.000291 3.92448 -6.75145 35.0679 2650 
1 1 -0.00978229 -0.00170547 0.00736263 0.00164 -0.047861 -0.00766816 -0.0119538 2650 
300 1 -0.0131789 -0.0018551 0.00853864 0.001058 -0.00829653 -0.0279921 -0.0162248 2650 
251 1 -0.00520129 -0.00316742 0.0131553 0.001058 0.0271527 -0.00617442 -0.00786306 2650 
264 1 -0.0635772 -0.0574147 0.0240761 0.001058 15.3342 -0.0229935 40.4639 2650 
215 1 -0.0622845 -0.0598731 0.0272158 0.001058 11.5562 -9.66976 26.428 2650 
169 1 -0.0622293 -0.0044298 0.0258918 0.00164 7.11805 -1.13923 17.0858 2650 
84 1 -0.0621323 -0.0483163 0.0275556 0.001058 10.3377 -1.1523 23.2878 2650 
126 1 -0.0627566 -0.0116534 -0.027989 0.000291 -16.1769 3.44607 36.2628 2650 
174 1 -0.0609179 -0.0283965 0.0317892 0.000291 9.99017 -4.05931 19.139 2650 
243 1 -0.0566115 -0.0274192 0.0376038 0.001058 12.421 -6.08605 18.6832 2650 
3 1 -0.0526449 -0.0255632 0.0429772 0.001058 14.1116 -3.22288 17.2708 2650 
44 1 -0.0153773 -0.0555338 0.0464082 0.001058 32.309 15.7859 23.5327 2650 
100 1 -0.0347543 -0.0439571 0.0584096 0.001058 36.3726 0.634872 21.6264 2650 
2 1 -0.0268326 -0.0504971 0.0624456 0.001058 40.5944 -0.366122 17.4308 2650 
19 1 -0.0171725 -0.0305657 0.0657611 0.001058 44.7616 9.38265 11.6806 2650 
184 1 -0.0158201 -0.0567868 0.0670541 0.000105 3.11686 -2.51351 0.733992 2650 
228 1 -0.0136928 -0.0507265 0.0673311 0.000291 39.476 -0.202864 8.02755 2650 
160 1 -0.0154598 -0.011118 0.067138 0.000105 22.6065 4.35503 5.2056 2650 
95 1 -0.0288153 0.0640044 -0.0623747 0.000291 -0.0493029 -0.130582 0.0227765 2650 
130 1 -0.0375565 0.0585316 -0.0566185 0.001058 -2.78977 0.591131 1.85033 2650 
94 1 -0.00722996 0.00746398 -0.0149309 0.000291 0.0366285 0.00532014 -0.0205298 2650 
256 1 -0.00886084 0.0274001 -0.0141147 0.000291 0.0526352 0.0897412 -0.0275419 2650 
268 1 -0.00155736 0.0376215 -0.0146011 0.000291 0.092586 0.153652 -0.00220769 2650 
33 1 -0.00349135 0.00452853 -0.0113712 0.00164 0.00139121 -0.00702858 0.00589607 2650 
234 1 -0.0117678 0.00688849 -0.0115796 0.000291 -0.000530972 0.00319134 0.0114593 2650 
240 1 -0.00410963 0.0188579 -0.0109882 0.000291 0.084197 0.0675078 -0.0216258 2650 
127 1 -0.00476708 0.0320274 -0.010937 0.000291 0.0287766 0.0561217 0.00113528 2650 
35 1 -0.00837689 0.00552539 -0.00865865 0.001058 0.0712596 0.015719 -0.0150086 2650 
260 1 -0.0147201 0.0250036 -0.00787075 0.000291 0.986831 0.344489 -2.40487 2650 
97 1 -0.0133974 0.000883762 -0.0052353 0.00164 0.0118417 -0.0149296 -0.0134137 2650 
159 1 -0.012707 0.00542005 -0.00588 0.000291 0 -0.01175 0 2650 
17 1 -0.0140841 0.00875356 -0.00462931 0.00164 0.00298115 0.0232228 0.000561492 2650 
10 1 -0.0122003 0.0128067 -0.00557746 0.001058 0.0234032 0.0301564 -0.0135831 2650 
75 1 -0.0100556 0.0368974 -0.00584344 0.001058 0.0171891 0.064434 -0.0211867 2650 
154 1 -0.0091065 0.0409662 -0.00551731 0.001058 -0.0457969 0.0551383 0.0326121 2650 
9 1 -0.0145927 0.0552405 -0.00446769 0.00164 0.124093 -0.00880216 -0.470204 2650 
18 1 -0.0105326 0.00018788 -0.00341806 0.001058 -0.0329176 0.00300323 -0.0337928 2650 
80 1 -0.0127037 0.00562644 -0.00210224 0.000105 0.0101478 -0.00197038 -0.0113343 2650 
276 1 -0.0108597 0.00500507 -0.00260984 0.000291 0.0140957 0.000399388 0.00506155 2650 
209 1 -0.0100665 0.00682125 -0.00268791 0.001058 0.0131036 0.00683383 0.00483425 2650 
74 1 -0.00731389 0.00650075 -0.00393233 0.001058 0.0197531 0.00277685 0.00564839 2650 
7 1 -0.00621315 0.0202776 -0.00308976 0.000291 0.00379351 0.0136266 -0.000190797 2650 
99 1 -0.0131759 0.00375787 -0.000211342 0.001058 0.0183242 -0.0106373 0.00984415 2650 
61 1 -0.016439 0.00513805 -0.001038 0.000291 0 -0.01175 0 2650 
77 1 -0.00238878 0.010806 -0.00119894 0.000291 0.0277953 0.00207908 -0.016867 2650 
144 1 -0.0105728 0.0127656 -0.00178873 0.000105 0.00862261 0.0155448 0.0270904 2650 
65 1 -0.0109906 0.0173609 -0.000945333 0.00164 -0.00350053 0.0118922 0.00337463 2650 
220 1 -0.0130402 0.0184938 -0.00152171 0.000291 0.00621602 0.00749286 0.0146849 2650 
120 1 -0.016055 0.000778053 0.000189 0.000105 0 -0.01175 0 2650 
52 1 -0.0146887 0.00749659 0.00133594 0.001058 0.00691299 0.00709535 -0.0138958 2650 
41 1 -0.00503359 0.0139625 0.00013823 0.00164 0.0101493 0.00903205 0.0210511 2650 
176 1 -0.003983 0.00211505 0.002552 0.000105 0 -0.01175 0 2650 
4 1 -0.0150781 0.00783697 0.00342048 0.001058 -0.00771878 0.00638509 -0.0100973 2650 
129 1 -0.00538744 0.00735086 0.00249429 0.00164 0.0162915 0.00858227 0.00363384 2650 
55 1 -0.0162387 0.0196861 0.00233747 0.000291 -0.0141962 0.0746019 -0.0630433 2650 
217 1 -0.0154512 0.0254314 0.00246039 0.001058 -0.0248668 0.025106 -0.0769209 2650 
145 1 -0.0145719 0.0383546 0.00340642 0.00164 -0.00701605 0.121243 -0.0848312 2650 
164 1 -0.00400549 0.00121999 0.00540574 0.001058 -0.000670219 -0.0113356 -0.000368244 2650 
38 1 -0.00253161 0.000305275 0.00478926 0.000291 -0.00750743 0.00682636 -0.0181611 2650 
291 1 -0.008194 0.00552505 0.004767 0.000291 0 -0.01175 0 2650 
71 1 -0.00210837 0.00701926 0.00486018 0.000291 -0.00101545 -0.00618567 -0.020495 2650 
266 1 -0.0132435 0.00825303 0.00554226 0.001058 -0.00526086 0.00703409 -0.0278391 2650 
242 1 -0.00925746 0.012902 0.00519069 0.000291 -0.0086111 0.00654042 0.00262129 2650 
104 1 -0.00529039 0.0153183 0.00568218 0.000105 0.0599188 0.0743968 0.0612846 2650 
273 1 -0.00201518 0.0232776 0.00530346 0.001058 -0.00378567 0.0376334 0.0311204 2650 
245 1 -0.00132414 0.0529776 0.00548065 0.001058 0.0132501 0.0534812 -0.0221989 2650 
299 1 -0.00862257 0.00244336 0.00608535 0.001058 -0.00783061 0.0220214 -0.0343027 2650 
186 1 -0.006177 0.00346705 0.006545 0.001058 0 -0.01175 0 2650 
193 1 -0.0134279 0.0184488 0.00684928 0.00164 -0.149923 0.126015 -0.334758 2650 
249 1 -0.00213713 0.0201971 0.00746304 0.000291 0.00967839 0.0183331 -0.0129307 2650 
68 1 -0.00314009 0.00910284 0.00987705 0.001058 0.0027366 -0.00341554 -0.0016946 2650 
292 1 -0.00487492 0.0192846 0.00803795 0.001058 -0.0174643 0.0536041 0.0178891 2650 
106 1 -0.00869237 0.0261287 0.00961452 0.001058 0.0137575 0.0554487 0.0117951 2650 
157 1 -0.00789515 0.0508751 0.0094152 0.000291 0.0200522 0.0842483 0.026686 2650 
285 1 -0.0105085 0.000344698 0.0117577 0.001058 -0.00567287 -0.013081 -0.00684475 2650 
233 1 -0.00904734 0.000205347 0.0124773 0.000291 -0.0314384 0.0274652 -0.00503183 2650 
238 1 -0.00215972 0.0195401 0.0138192 0.001058 0.0206406 0.0247492 -0.00648467 2650 
211 1 -0.00708713 0.00323952 0.0140959 0.001058 -0.230531 -0.00553897 -0.0998802 2650 
54 1 -7.93523e-05 0.0299757 0.0148558 0.000291 0.0527092 0.00944275 -0.0227616 2650 
133 1 -0.0523848 0.0026536 0.0430812 0.000291 -19.4901 7.4438 -10.1956 2650 
142 1 -0.068539 0.0855354 0.00504506 0.000291 8.06107 47.3752 109.5 2650 
226 1 0.00717748 -0.0591645 -0.0683331 0.000291 -29.4841 -7.96583 -3.09761 2650 
305 1 0.00213288 -0.062039 -0.0674199 0.000105 -17.3878 -0.357931 0.560187 2650 
146 1 0.000659677 -0.0574654 -0.0679576 0.001058 -42.4515 4.08788 -0.411767 2650 
178 1 0.0135728 -0.0218517 -0.0665951 0.001058 -24.5238 -7.54067 -4.63366 2650 
53 1 0.0121235 -0.0141063 -0.067631 0.000291 -28.7663 -5.04499 -5.1566 2650 
198 1 0.0199457 -0.0392904 -0.0657503 0.000291 -29.1989 -8.0853 -8.85747 2650 
82 1 0.0176844 -0.0289356 -0.0656106 0.001058 -30.0034 -7.46222 -8.07773 2650 
150 1 0.0221037 -0.0295137 -0.0644271 0.000291 -18.0317 -5.75722 -5.54584 2650 
108 1 0.015113 -0.0202477 -0.0662266 0.001058 -26.4882 1.34271 -5.92729 2650 
110 1 0.000684483 -0.010847 -0.0548441 0.000291 0.0416134 -0.649637 -8.22038 2650 
277 1 0.0464693 -0.0351152 -0.0506151 0.000291 -26.4175 -2.17087 -24.2474 2650 
222 1 0.0564753 -0.0576509 -0.0378118 0.001058 -14.3181 -3.39741 -21.3674 2650 
267 1 0.065007 -0.0446864 -0.0222677 0.000291 -10.1983 6.28796 -29.7649 2650 
83 1 0.0638441 -0.00384769 -0.0233364 0.001058 -11.4742 -1.23849 -31.3673 2650 
98 1 0.0663544 -0.0409913 -0.0147724 0.001058 -7.73775 3.08908 -34.7303 2650 
289 1 0.001465 -0.000500947 -0.012477 0.000291 0 -0.01175 0 2650 
263 1 0.006877 -0.00166795 -0.012319 0.000291 0 -0.01175 0 2650 
196 1 0.002599 -0.00319495 -0.011929 0.001058 0 -0.01175 0 2650 
102 1 0.003423 -0.00176295 -0.006065 0.000291 0 -0.01175 0 2650 
117 1 0.004754 -0.00150095 -0.007063 0.000291 0 -0.01175 0 2650 
246 1 0.001376 -0.00226195 -0.005453 0.001058 0 -0.01175 0 2650 
92 1 0.00639022 -0.000334346 -0.00283973 0.001058 -0.0170112 -0.0145976 0.00501068 2650 
177 1 0.00283114 -0.00114361 -0.00164799 0.00164 -0.00972365 -0.00599557 0.0042022 2650 
205 1 0.000655991 -0.0023393 0.000190638 0.000291 -0.0110845 -0.00951857 0.00619805 2650 
81 1 0.00613126 -0.00281697 0.00035781 0.00164 -0.0122586 -0.0180107 0.00259914 2650 
210 1 0.00956657 -0.00212873 0.00191152 0.001058 -0.0106222 -0.00657497 -0.00336931 2650 
261 1 0.0115031 -0.00241811 0.00065289 0.000291 0.00222479 -0.0152704 0.00253511 2650 
87 1 0.0160922 -0.00302013 0.00367859 0.000291 -0.0297716 -0.105881 0.156641 2650 
96 1 0.06691 -0.00441755 0.00531466 0.000105 -1.58195 -0.0854364 -0.161378 2650 
223 1 0.0109804 -0.00250145 0.00553794 0.001058 0.0234053 -0.008914 0.00888968 2650 
207 1 0.000866495 -0.00221208 0.00776289 0.000291 -0.0197991 -0.0328905 -0.0312262 2650 
303 1 0.0670623 -0.0322552 0.0149803 0.000291 5.13455 -6.04541 -22.9799 2650 
232 1 0.0654187 -0.0171351 0.0184561 0.001058 7.5354 -2.72931 -26.688 2650 
23 1 0.065789 -0.0512313 0.0198418 0.000291 12.0873 -0.128137 -40.068 2650 
295 1 0.0650695 -0.0335294 0.0220862 0.000291 12.4797 -4.41588 -36.759 2650 
121 1 0.0627084 -0.0364971 0.0247787 0.00164 13.4092 -9.50267 -33.8826 2650 
239 1 0.0431244 -0.00863653 0.0241393 0.001058 45.1999 28.6447 -53.9425 2650 
293 1 0.0594483 -0.0477183 0.0329548 0.001058 15.8489 -4.20877 -28.5679 2650 
140 1 0.0578171 -0.00791147 0.0357441 0.001058 19.5942 2.38278 -31.6702 2650 
143 1 0.0548152 -0.01112 0.0414329 0.000291 16.2681 -5.1572 -21.5165 2650 
257 1 0.019861 -0.035461 0.0647182 0.001058 43.4551 -18.9909 -13.0489 2650 
252 1 0.00208782 0.00309295 -0.0141996 0.001058 -0.00169919 -0.0122947 -0.00393889 2650 
37 1 0.006156 0.00483805 -0.015157 0.000291 0 -0.01175 0 2650 
115 1 0.00583403 0.00612051 -0.0146336 0.001058 0.105511 -0.0185658 0.045853 2650 
147 1 5.58945e-06 0.0214004 -0.0156112 0.001058 -0.0449026 0.0535099 -0.000455526 2650 
66 1 0.00531819 0.0558571 -0.0146426 0.001058 0.706833 0.909599 0.376136 2650 
78 1 0.000918945 0.0048623 -0.0127286 0.000291 -0.00755008 -0.0113296 -0.00465551 2650 
58 1 0.00151244 0.028712 -0.0136176 0.001058 0.0954092 0.123776 0.0240068 2650 
105 1 0.00240855 0.00548996 -0.0116148 0.00164 -0.0159983 0.0103012 0.00215009 2650 
155 1 0.0114175 0.0152824 -0.0108421 0.001058 0.0567299 0.000161493 0.0604672 2650 
187 1 0.0105156 0.016923 -0.0118553 0.001058 0.101493 0.0487835 0.0718779 2650 
123 1 0.00957107 0.0184129 -0.0103336 0.001058 0.00917159 0.0420176 0.0429422 2650 
170 1 0.00266458 0.0304334 -0.0112986 0.001058 0.100959 0.120853 0.0354214 2650 
28 1 0.0117837 0.0527236 -0.0104715 0.001058 0.118272 0.16046 0.134571 2650 
134 1 0.00748337 0.00412343 -0.00854497 0.000291 -0.0118829 0.00375813 -0.00608975 2650 
203 1 0.00256265 0.0121098 -0.00923268 0.001058 0.0258377 0.0432949 0.0372977 2650 
60 1 0.007579 0.00114005 -0.006312 0.001058 0 -0.01175 0 2650 
45 1 0.010575 0.00106005 -0.007722 0.000291 0 -0.01175 0 2650 
67 1 0.00354743 0.00349721 -0.00730022 0.001058 -0.00558703 -0.00493479 0.00721537 2650 
250 1 0.00689258 0.0222366 -0.00654906 0.001058 0.056604 0.0605666 -0.00107285 2650 
244 1 0.0147066 0.0264964 -0.00606146 0.001058 0.119284 0.0621265 0.226477 2650 
278 1 7.4e-05 0.00365105 -0.004448 0.001058 0 -0.01175 0 2650 
227 1 0.00944 0.00173805 -0.002109 0.000291 0 -0.01175 0 2650 
139 1 0.00961567 0.0185703 -0.00379939 0.001058 0.0124295 0.00846741 0.0230295 2650 
253 1 0.0148787 0.00103259 -0.000307394 0.000291 -0.020244 -0.00223379 0.021319 2650 
48 1 0.009671 0.00233205 0.000233 0.000105 0 -0.01175 0 2650 
128 1 0.00361 0.00403905 0.000511 0.000105 0 -0.01175 0 2650 
153 1 0.0023187 0.0087323 0.00162215 0.00164 0.0126939 0.00305775 -0.0265106 2650 
279 1 0.00130105 0.0123422 0.00023043 0.001058 -0.0328471 0.0327779 0.0196511 2650 
113 1 0.00873227 0.00060503 0.0023013 0.00164 -0.010007 -0.00471798 0.020935 2650 
212 1 0.000996018 0.00389529 0.00366796 0.000291 -0.000536105 -0.00385845 -0.0132408 2650 
294 1 0.00691546 0.00211075 0.00365138 0.001058 -0.0165119 0.00135047 0.0142488 2650 
190 1 0.00662762 0.00880466 0.00361729 0.000291 0.00420752 0.013454 0.0239722 2650 
301 1 0.00904778 0.0275181 0.00297514 0.001058 0.0113125 0.0256345 -0.0254985 2650 
24 1 0.00569806 0.00187801 0.00563692 0.000105 0.00476031 -0.0168355 0.00174755 2650 
202 1 0.00279452 0.00269467 0.0047537 0.001058 0.00927578 -0.00719028 -0.0138109 2650 
51 1 0.009662 0.00320105 0.004577 0.001058 0 -0.01175 0 2650 
79 1 0.014214 0.00504105 0.005058 0.000291 0 -0.01175 0 2650 
124 1 0.015144 0.0212526 0.00479311 0.001058 -0.0935237 0.00507243 0.226503 2650 
206 1 0.0157742 0.028878 0.00529135 0.000291 -0.285801 0.0354065 0.694573 2650 
271 1 0.00426807 0.00278512 0.00799436 0.001058 -0.00823696 -0.0152299 0.0538169 2650 
112 1 0.013668 0.00536405 0.007002 0.000105 0 -0.01175 0 2650 
116 1 0.0077978 0.0258946 0.00759738 0.001058 -0.0193078 0.0669284 0.0834163 2650 
101 1 0.00267342 0.000545578 0.0091394 0.000291 -0.0172929 -0.0296728 0.0535501 2650 
195 1 0.00469015 0.00697113 0.00842601 0.001058 0.0216865 0.00727933 -0.0225594 2650 
204 1 0.00801738 0.00268537 0.011802 0.001058 0.0123955 0.0167674 0.0186642 2650 
298 1 0.0100118 0.00639236 0.0135066 0.000105 0.00384822 -0.00429062 -0.00813409 2650 
57 1 0.00625444 0.0220268 0.0138569 0.00164 0.0229902 0.0153792 0.043586 2650 
265 1 0.00238485 0.0124707 0.0155889 0.001058 -0.0485527 0.123072 0.0143846 2650 
156 1 0.000672168 0.0346937 0.0149587 0.001058 -0.0126276 0.0990378 -0.00960094 2650 
11 1 0.0659483 0.0707065 0.0149097 0.001058 4.654 -0.314384 -3.24623 2650 
163 1 0.0671863 0.0893002 -0.0102504 0.001058 0.00935341 -0.0817527 0.0612494 2650 
136 1 0.002748 0.0830024 0.000730043 0.000105 0.0370802 0.101801 0.0201257 2650 
73 1 0.00148401 0.12948 0.0637257 0.00164 1.90791 3.64198 -1.38241 2650 
