ITEM: TIMESTEP
25771539
ITEM: NUMBER OF ATOMS
171
ITEM: BOX BOUNDS ff ff ff
-0.15 0.15
-0.15 0.15
-0.15 0.15
ITEM: ATOMS id type x y z radius vx vy vz density 
423 1 -0.00566438 -0.000385042 -0.0149426 0.000847 -0.0349874 0.00328578 0.0153302 2650 
2 1 -0.0119113 -0.00194458 -0.00863597 0.001312 -0.00361104 -0.00692627 -0.000576475 2650 
355 1 -0.00678345 -0.00100675 -0.00945073 0.000847 0.00812849 0.000495116 -0.0296216 2650 
374 1 -0.011312 -0.00231291 0.00183784 0.000233 -0.00450428 -0.00788516 -0.00181456 2650 
68 1 -0.0129996 -0.00325797 0.00642413 0.001312 0.0096315 -0.00442025 0.0185747 2650 
503 1 -0.0101321 -0.000388533 0.00805101 0.000233 -0.000781141 -0.00696205 -0.0128351 2650 
43 1 -0.0114802 -0.00297091 0.0105125 0.001312 0.000889156 -0.0107141 0.00181628 2650 
518 1 -0.00147442 -0.00272954 0.0114587 0.000233 0.0149695 -0.0019956 -0.000638671 2650 
366 1 -0.0055695 0.0166545 -0.0158814 8.4e-05 -0.011523 0.00643076 0.00269654 2650 
328 1 -0.00194919 0.000730003 -0.0153753 0.001312 -0.0337502 0.0013118 0.00651552 2650 
375 1 -0.00432803 0.00402132 -0.0152626 0.000233 -0.0182452 -0.00353034 -0.0189375 2650 
104 1 -0.00527616 0.00620669 -0.0155007 0.000233 -0.0744305 0.00181201 0.017055 2650 
284 1 -0.00461922 0.00524945 -0.0157162 0.000233 -0.0707351 -0.0153833 0.0186491 2650 
420 1 -0.0021978 0.0333634 -0.0156292 0.000847 -0.0152937 0.0173242 0.00448544 2650 
281 1 -0.00120914 0.0429965 -0.0147019 0.000847 -0.00414262 0.0267855 0.0100895 2650 
403 1 -0.00758613 0.0477824 -0.0147056 0.000233 -0.0288311 0.0322116 0.0127866 2650 
211 1 -0.00489864 0.0309405 -0.0111772 0.001312 -0.00474861 0.00962786 0.00898843 2650 
444 1 -0.00568464 0.0738212 -0.0121028 8.4e-05 -0.00448298 0.0465385 0.0015305 2650 
139 1 -0.00216744 0.00822267 -0.00990844 0.000847 -0.00167824 0.00184567 0.00665881 2650 
214 1 -0.0114818 0.0189328 -0.0090975 0.000847 -0.00501594 0.0100446 0.00868742 2650 
437 1 -0.00085877 0.0378296 -0.00839118 0.000847 -0.014337 0.0251968 -0.00604695 2650 
48 1 -0.00947692 0.0687399 -0.00946921 0.000847 0.00590374 0.0457709 -0.00192401 2650 
512 1 -0.00671883 0.010229 -0.00760061 0.000847 0.0104204 0.00313181 -0.00061906 2650 
471 1 -0.00152838 0.0245232 -0.00770985 0.001312 -0.0276315 0.0386841 -0.0305047 2650 
252 1 -0.0019721 0.00286828 -0.00598841 0.000847 -0.00541591 0.00339242 -0.0066024 2650 
440 1 -0.00745595 0.00328461 -0.00495756 0.000233 0.00637766 0.0032616 -0.0067895 2650 
168 1 -0.0110666 0.0147658 -0.00513739 0.000233 0.00370912 0.0155159 -0.0117628 2650 
58 1 -0.00844615 0.0263257 -0.00475958 0.000847 -0.0145899 0.0148736 0.00524947 2650 
87 1 -0.012067 0.0663539 -0.0048194 0.000847 -0.000765043 0.030515 -0.0195847 2650 
66 1 -0.0100384 0.0682586 -0.0055882 0.000233 0.00377936 0.0342087 0.00385618 2650 
147 1 -0.00728125 0.0115326 -0.00393743 0.001312 -0.000885497 0.00566179 0.0120366 2650 
309 1 -0.00316353 0.0217665 -0.00440283 0.000233 0.00310286 0.0297105 0.0175232 2650 
277 1 -0.0140471 0.039777 -0.00438383 0.000847 0.0209296 0.0108378 -0.00330456 2650 
187 1 -0.00112709 0.00596827 -0.00227438 0.000847 -0.0115529 0.00257543 0.00246599 2650 
299 1 -0.00276017 0.0303884 -0.00261359 0.000233 -0.0289465 0.0505762 -0.0161606 2650 
191 1 -0.00883447 0.0670344 -0.00295602 0.000847 0.0105229 0.0597122 -0.0271159 2650 
407 1 -0.0054827 0.00436713 -0.00113281 0.000847 -0.000815118 0.000180325 0.0066404 2650 
95 1 -0.00625791 0.00728173 -0.00113777 0.001312 -0.000178871 0.0029055 0.00870871 2650 
103 1 -0.0147414 0.0167155 -0.00143315 0.000233 -0.0297697 0.0115388 -0.0165262 2650 
97 1 -0.0159472 0.0292768 -0.00139684 0.000847 -0.0025016 -0.00194756 0.0618899 2650 
285 1 -0.016429 0.0312856 -0.000587101 0.000233 -0.011546 0.0664007 0.0545957 2650 
55 1 -0.0141009 0.0495838 -0.000788021 0.001312 0.0206748 0.0322901 -0.00959045 2650 
27 1 -0.00592628 0.00360617 0.000348357 8.4e-05 -0.00879444 -0.00375525 0.0129666 2650 
8 1 -0.00354044 0.00916861 0.00140564 0.000233 0.0177695 -0.00052839 0.00344916 2650 
225 1 -0.0124833 0.0235204 0.00294894 0.001312 0.00299268 0.0113863 0.0105203 2650 
16 1 -0.0147227 0.0595797 0.00229079 0.001312 0.00451414 0.0353492 0.0125984 2650 
324 1 -0.0128276 0.00930678 0.00337731 0.000233 0.00544172 0.00678105 0.0136482 2650 
515 1 -0.00375953 0.0110694 0.00344904 0.000847 0.0176296 0.00832046 0.00194231 2650 
383 1 -0.00799367 0.0232186 0.00345557 0.000847 -0.0178103 0.00948738 0.00375842 2650 
18 1 -0.00864652 0.0263574 0.00428818 0.000847 -0.031847 0.0312638 -0.0102686 2650 
6 1 -0.0153607 0.0421048 0.00460027 0.000847 0.00603586 0.0116182 0.032468 2650 
331 1 -0.000862934 0.0604829 0.00451217 0.000847 0.0114133 0.0413502 0.0102172 2650 
254 1 -0.00544074 0.0260225 0.00558759 0.000847 -0.0245293 0.03375 -0.00494013 2650 
304 1 -0.014277 0.00264028 0.00695838 0.000847 0.0145663 -0.00212691 0.0274902 2650 
69 1 -0.0121809 0.00247955 0.00763006 0.001312 0.0216732 0.00532562 0.0171327 2650 
112 1 -0.00717795 0.00436465 0.00661785 0.000847 0.0127225 -6.89131e-05 0.00873898 2650 
60 1 -0.0044078 0.000426451 0.00912351 0.000847 0.00503256 -0.000830406 0.00698364 2650 
273 1 -0.00260312 0.0163032 0.00844977 0.000233 0.018405 0.00527553 -0.00012885 2650 
405 1 -0.0114527 0.0198048 0.00939004 8.4e-05 -0.00438524 0.0237381 0.00391022 2650 
204 1 -0.00756741 0.0231803 0.00859884 0.000847 -0.00185748 0.0188036 0.0116654 2650 
133 1 -0.0120278 0.000811987 0.00978103 0.001312 0.0109199 -0.00243975 0.0168264 2650 
386 1 -0.0110938 0.0181679 0.0103922 0.000847 -0.00733536 0.0139036 0.0151664 2650 
449 1 -0.00723641 0.0360788 0.0111983 0.000847 0.0115914 0.0237476 -0.0082524 2650 
348 1 -0.00636094 0.000658448 0.0132913 0.000233 0.0267289 -0.00185737 0.016134 2650 
291 1 -0.00748858 0.0430449 0.0129396 0.000847 0.00815126 0.0415911 0.0282129 2650 
175 1 -0.00182533 0.000752525 0.0144825 0.000847 0.0138692 -0.000708107 0.0168749 2650 
121 1 -0.00270809 0.00403575 0.0149594 0.001312 0.0266353 0.00233874 0.00355966 2650 
464 1 -0.00549523 0.00984124 0.0157 0.000233 0.0129107 0.0177822 0.0125979 2650 
351 1 -0.000265917 0.0248556 0.0143358 0.000233 -0.0154134 -0.00320047 -0.00707598 2650 
222 1 -0.00237627 0.0367387 0.0162229 0.000233 0.0324399 0.00110276 0.00636521 2650 
295 1 -0.00470916 0.0857992 -0.0159178 0.000847 -0.0277685 0.084332 -0.0116984 2650 
482 1 -0.00845707 0.0837506 0.0117725 0.000233 0.000351426 0.0488467 0.0205314 2650 
12 1 0.0151886 -0.00297691 -0.00695733 0.000233 0.0023085 -0.00734628 0.00940381 2650 
438 1 0.00737305 -0.00173126 0.00162803 0.000847 -0.00354313 -0.00458154 -0.00114762 2650 
54 1 0.0108587 -0.00174974 0.00177952 8.4e-05 -0.0077108 -0.00574558 -0.00683215 2650 
475 1 0.015441 -5.30284e-06 0.00391152 0.000847 -0.00487336 -0.00855658 0.0117147 2650 
89 1 0.00659202 -4.40256e-05 0.0065487 0.000233 0.00404946 -0.00420942 -0.00784504 2650 
329 1 0.00145786 -0.00188532 0.0113274 0.000847 0.00279019 0.00227168 0.00835785 2650 
292 1 0.0088686 -0.00131853 0.0133109 0.000847 0.000789497 -0.00762925 0.0146941 2650 
462 1 0.0658079 -0.0317626 0.0110876 0.000847 19.5555 0.491724 -107.01 2650 
265 1 0.00443711 -0.00255185 0.0143548 0.000847 -0.0025628 -0.00601176 -0.00212624 2650 
135 1 0.000463491 -0.000750892 0.0148945 0.000847 0.00900114 -0.000763851 0.00963581 2650 
450 1 0.0639583 0.0566667 -0.0235828 0.000847 0.0191884 -0.0937436 0.0519995 2650 
210 1 0.0013432 0.00777016 -0.0162202 8.4e-05 -0.00722799 0.00367103 -0.00178987 2650 
413 1 7.05874e-05 0.0214359 -0.0165892 0.000233 0.0135088 0.0105104 -0.0051725 2650 
107 1 0.00374099 0.00722562 -0.0149976 0.001312 -0.0639859 0.00430588 -0.0121109 2650 
223 1 0.00625611 0.00916286 -0.0155301 8.4e-05 0.186861 0.0205847 0.0796716 2650 
198 1 0.00572647 0.0275882 -0.014282 0.001312 0.0127861 0.0195116 0.00624649 2650 
63 1 0.00763125 0.0288139 -0.0149582 0.000233 0.0131838 0.0243897 0.0107253 2650 
209 1 0.00792841 0.0290918 -0.0143692 0.000233 0.0142047 0.0218385 0.00890494 2650 
174 1 0.00374968 0.0656309 -0.0155706 0.000847 0.00404523 0.0418625 -0.0134125 2650 
282 1 0.00598362 0.007715 -0.013741 0.000847 -0.0158226 0.0468191 -0.0351873 2650 
504 1 0.0097695 0.0186197 -0.0135133 0.000233 -0.0279406 -0.0024299 -0.0240523 2650 
363 1 0.00825959 0.0344137 -0.0136644 0.000233 -0.0137029 0.0827688 -0.00458695 2650 
165 1 0.0106336 0.00356386 -0.0119089 0.000847 -0.0148513 -0.00176832 -0.0186476 2650 
126 1 0.00696126 0.0217458 -0.0118884 0.000847 0.0535661 0.00249396 0.0132272 2650 
234 1 0.00816055 0.00162004 -0.00985423 0.000233 -0.0222098 -0.00680135 -0.00844219 2650 
212 1 0.00407865 0.00935781 -0.0110116 0.001312 -0.000765087 0.0018825 0.00556343 2650 
421 1 0.00294818 0.0123183 -0.00968099 0.000847 -0.00701942 0.000966987 0.00731369 2650 
520 1 0.00728915 0.0182349 -0.00979702 0.000233 0.0276435 0.0106542 0.000872001 2650 
425 1 0.000182828 0.0503371 -0.0103654 0.000847 -0.00296495 0.0281405 0.00461968 2650 
136 1 0.0047468 0.0012343 -0.00916443 0.000847 0.0065673 0.000110857 -0.00223369 2650 
219 1 0.00212738 0.00724222 -0.00925862 0.000233 0.00888838 0.00217768 -0.0132951 2650 
476 1 0.00926292 0.0163909 -0.0082732 0.000847 -0.00851723 0.00655317 -0.0133887 2650 
5 1 0.0131324 0.0161754 -0.00863689 0.000847 -0.000793733 0.00540171 0.00496389 2650 
199 1 0.0123705 0.0191791 -0.00862362 0.001312 0.0123935 0.00718814 0.0119949 2650 
81 1 0.00535651 0.0233398 -0.00929538 0.001312 -0.00733521 0.0116818 -0.000769902 2650 
70 1 0.0120407 0.0286482 -0.00852588 0.000847 0.0344663 0.015102 0.0172407 2650 
495 1 0.0123028 0.0373931 -0.00897514 0.000233 0.0311467 0.0628793 0.0377256 2650 
207 1 0.00647756 0.00529166 -0.00664557 0.000233 -0.0010599 0.0004343 0.00669728 2650 
395 1 0.0141654 0.000680812 -0.00559827 0.000847 -0.00347951 -0.0152866 -0.00400767 2650 
412 1 0.0137894 0.00438453 -0.00599458 0.000847 -0.0036812 -0.00599704 -0.000979386 2650 
433 1 0.00798979 0.00629293 -0.00477364 0.000847 -0.0283884 0.0269823 0.00559659 2650 
80 1 0.0135667 0.00797428 -0.00527588 8.4e-05 -0.00111457 0.00969882 -0.00400268 2650 
146 1 0.0107454 0.0190057 -0.00626047 0.001312 0.00630754 0.00966419 0.0123849 2650 
470 1 0.00353003 0.0249007 -0.00579096 8.4e-05 0.0109759 0.0135617 0.0110289 2650 
149 1 0.0117706 0.0343291 -0.00499028 0.000847 0.0112778 0.0244278 0.0288747 2650 
143 1 0.0162641 0.00932369 -0.00329599 0.000233 0.00752673 -0.0025542 0.0285537 2650 
493 1 0.00218347 0.0157624 -0.00403453 0.000233 -0.0118703 0.00376708 0.00232476 2650 
343 1 0.010982 0.0241559 -0.00420922 0.000847 0.0213226 0.0162875 -0.025997 2650 
215 1 0.00562969 0.0296543 -0.00218803 0.000847 0.003733 0.0204181 0.00643478 2650 
73 1 0.0158759 0.0474925 -0.00170319 0.000847 -0.00444773 0.0286391 -0.0231833 2650 
238 1 0.0117923 0.0147565 -1.17586e-05 0.001312 0.00393038 0.00465132 -0.0110608 2650 
251 1 0.0144049 0.0346973 -0.0010769 0.000847 -0.0025871 0.0176623 0.0182706 2650 
30 1 0.00166072 0.0522 -0.000670069 0.001312 -0.00135063 0.0321699 0.014038 2650 
132 1 0.0138413 0.00204281 0.00143867 8.4e-05 -0.00182294 -0.00656713 0.000849122 2650 
484 1 0.015559 0.0421294 3.4832e-05 0.001312 0.00311348 0.0236738 -0.0174853 2650 
224 1 0.0154648 0.00185105 0.00160754 0.001312 -0.00142282 -0.00391329 0.0101214 2650 
510 1 0.0148294 0.00418801 0.00268528 0.001312 -0.000846781 -0.000960023 0.0070208 2650 
398 1 0.0109598 0.0122655 0.00189728 0.000847 -0.00445363 0.00222326 0.00366866 2650 
325 1 0.0162135 0.0119566 0.0024074 0.000233 0.000669409 0.00881148 0.0163456 2650 
216 1 0.00281652 0.046314 0.0015925 0.000847 0.00347878 0.0283419 0.0066285 2650 
137 1 0.00785879 0.0475205 0.00224121 0.000847 0.0202347 0.0234308 -0.000934137 2650 
472 1 0.0128077 0.000251132 0.0040188 0.000847 -0.00276271 -0.00139857 0.005954 2650 
65 1 0.0159379 0.00771094 0.00465295 0.000233 -0.00260626 0.00780866 0.00565945 2650 
74 1 0.00204977 0.0205062 0.00451914 0.000847 -0.00423609 0.00905328 0.00538328 2650 
94 1 0.0121942 0.0253732 0.00439805 0.001312 0.00398614 0.0107687 0.0147883 2650 
108 1 0.0145797 0.024084 0.00423754 0.001312 -0.00121388 0.00923475 0.00795163 2650 
474 1 0.0106265 0.0444614 0.00457508 0.000847 -0.00441382 0.0190776 0.000418652 2650 
227 1 0.0146001 0.00399325 0.00574929 0.000847 -0.00376736 0.00204756 0.00605898 2650 
109 1 0.013889 0.00559996 0.00662702 0.000847 0.00763584 0.00190854 0.0174081 2650 
435 1 0.0018355 0.0480875 0.00726808 0.000847 0.000867591 0.0405585 -0.0228282 2650 
144 1 0.00637468 0.0483865 0.00746349 0.000233 0.0155529 0.0559435 0.0751309 2650 
38 1 0.00509848 0.0607102 0.00746373 0.000233 -0.0108563 0.0381487 0.00282041 2650 
77 1 0.014794 0.0637617 0.00695534 0.000233 0.0214475 0.0454594 -0.0171357 2650 
45 1 0.000665763 0.000453231 0.00794147 0.000847 0.00163238 -0.00231519 0.000146362 2650 
260 1 0.0123735 0.000480761 0.00820339 0.000233 -0.00699417 -0.00982098 0.00980998 2650 
381 1 0.0124049 0.00250397 0.00855006 0.000847 0.00456873 -0.00113554 -0.00529203 2650 
514 1 0.0122548 0.0134721 0.0080625 0.000847 0.0058423 0.00402624 -0.00550066 2650 
368 1 0.00548696 0.0479955 0.00819273 0.000847 -0.0171767 0.0287922 0.0155752 2650 
188 1 0.00643988 0.0616585 0.00813115 0.000847 0.00797073 0.0304807 0.00488408 2650 
263 1 0.000339393 0.00204941 0.00954783 0.001312 -0.00371433 -0.000137622 -0.00527791 2650 
457 1 0.0123321 0.0550504 0.00958618 8.4e-05 -0.0111483 0.0319351 0.00432043 2650 
388 1 0.0108093 0.00309123 0.0126193 0.000233 -0.00948878 -0.00241297 0.00687088 2650 
333 1 0.00953163 0.00539273 0.0123342 0.000847 -0.00515752 -0.00257666 0.000572351 2650 
217 1 0.000478445 0.0241425 0.0119906 0.000847 -0.00371392 0.0145111 -0.0123122 2650 
427 1 0.00942188 0.037343 0.0118555 0.000233 -0.0064393 0.0307872 0.00793576 2650 
406 1 0.00785874 0.00389826 0.0133117 0.001312 0.0021518 0.000416082 -0.00123565 2650 
99 1 0.000306363 0.0121407 0.0127259 0.000847 -0.0106992 0.00731454 0.0102374 2650 
1 1 0.00425034 0.0159182 0.0132554 0.001312 -0.00294948 0.00865571 -0.00178769 2650 
196 1 0.010035 0.0431153 0.0131783 0.000233 0.219196 0.024334 -0.163949 2650 
311 1 0.00793366 0.0120299 0.0146657 0.000233 0.0315433 0.00884026 -0.0157958 2650 
228 1 0.00135494 0.0383584 0.0155898 0.000847 0.0302394 0.0174452 -0.00131005 2650 
356 1 0.00434528 0.0387733 0.0153744 0.000847 -0.0228226 0.0200621 0.00577605 2650 
446 1 0.00555015 0.0472224 0.0149825 0.000847 0.151528 -0.00306156 -0.0655124 2650 
418 1 0.0079707 0.0465717 0.0147715 8.4e-05 0.112297 -0.0268467 -0.0483939 2650 
39 1 0.00306828 0.012548 0.0159559 0.000233 -0.007475 0.00316197 0.00139995 2650 
506 1 0.00361349 0.0464817 0.0161734 0.000233 -0.0171725 0.0225356 0.00460837 2650 
321 1 0.0154267 0.106936 -0.00674249 0.000847 0.00588201 0.074253 -0.0242794 2650 
517 1 0.0150276 0.0797647 0.00568869 0.000233 0.0181759 0.0321577 -0.00941046 2650 
180 1 0.00548124 0.110026 0.013962 0.000233 0.00860892 0.0812149 0.00119763 2650 
