ITEM: TIMESTEP
30555459
ITEM: NUMBER OF ATOMS
151
ITEM: BOX BOUNDS ff ff ff
-0.15 0.15
-0.15 0.15
-0.15 0.15
ITEM: ATOMS id type x y z radius vx vy vz density 
355 1 -0.00336642 -0.00301618 -0.0151551 0.000847 0.0180708 -0.00946932 0.00189589 2650 
503 1 -0.0103743 -0.00254675 0.00407217 0.000233 -0.000781141 -0.00696205 -0.0128351 2650 
366 1 -0.00871519 0.0186056 -0.014339 8.4e-05 -0.0088036 0.00616583 0.00669619 2650 
282 1 -0.00307608 0.0207517 -0.0142866 0.000847 -0.0311903 0.0413553 0.00314149 2650 
210 1 -0.00941486 0.0132465 -0.0139761 8.4e-05 -0.0346229 0.0186329 0.0161307 2650 
375 1 -0.00681723 0.00287382 -0.0119277 0.000233 -0.00676162 -0.00372288 0.0144442 2650 
471 1 -0.00676522 0.035575 -0.0121019 0.001312 0.00457644 0.0297647 0.0180643 2650 
281 1 -0.00249334 0.0513 -0.0115742 0.000847 -0.00414262 0.0267855 0.0100895 2650 
328 1 -0.0106977 0.00155003 -0.0110447 0.001312 -0.0239028 0.00343192 0.0191896 2650 
420 1 -0.00709569 0.0376201 -0.0106754 0.000847 -0.0161619 0.0111604 0.0242065 2650 
437 1 -0.0053032 0.0456405 -0.0102657 0.000847 -0.014337 0.0251968 -0.00604695 2650 
252 1 -0.00365102 0.00391993 -0.00803515 0.000847 -0.00541591 0.00339242 -0.0066024 2650 
107 1 -0.0129698 0.00845113 -0.00828885 0.001312 -0.0220516 0.00443592 0.0507403 2650 
168 1 -0.0099168 0.0195757 -0.00878384 0.000233 0.00370912 0.0155159 -0.0117628 2650 
211 1 -0.0063707 0.0339251 -0.00839081 0.001312 -0.00474861 0.00962786 0.00898843 2650 
425 1 -0.000736302 0.0590606 -0.00893327 0.000847 -0.00296495 0.0281405 0.00461968 2650 
423 1 -0.0141002 0.000720828 -0.00743092 0.000847 -0.0173785 0.00348694 0.0324921 2650 
440 1 -0.00547889 0.0042957 -0.00706229 0.000233 0.00637766 0.0032616 -0.0067895 2650 
139 1 -0.00268769 0.00879483 -0.00784422 0.000847 -0.00167824 0.00184567 0.00665881 2650 
512 1 -0.00348851 0.0111998 -0.00779251 0.000847 0.0104204 0.00313181 -0.00061906 2650 
214 1 -0.0130368 0.0220466 -0.00640442 0.000847 -0.00501594 0.0100446 0.00868742 2650 
299 1 -0.0117335 0.0460669 -0.00762333 0.000233 -0.0289465 0.0505762 -0.0161606 2650 
418 1 -0.0153992 0.0546597 -0.00659768 8.4e-05 -0.424118 0.444655 0.795974 2650 
277 1 -0.00755891 0.0431367 -0.00540823 0.000847 0.0209296 0.0108378 -0.00330456 2650 
493 1 -0.00149631 0.0169302 -0.00331386 0.000233 -0.0118703 0.00376708 0.00232476 2650 
103 1 -0.0125421 0.0197879 -0.00444307 0.000233 0.0158047 0.00952637 -0.00809888 2650 
222 1 -0.0160659 0.0279567 -0.0041756 0.000233 -0.166472 0.0445004 0.673771 2650 
55 1 -0.00769174 0.0595937 -0.00376104 0.001312 0.0206748 0.0322901 -0.00959045 2650 
433 1 -0.000810554 0.0146574 -0.00303871 0.000847 -0.0283884 0.0269823 0.00559659 2650 
58 1 -0.012969 0.0309365 -0.00313225 0.000847 -0.0145899 0.0148736 0.00524947 2650 
104 1 -0.016446 0.0068162 -0.000411902 0.000233 -0.00133612 0.001903 0.0578905 2650 
187 1 -0.00470845 0.00676665 -0.00150993 0.000847 -0.0115529 0.00257543 0.00246599 2650 
147 1 -0.00755575 0.0132877 -0.000206122 0.001312 -0.000885497 0.00566179 0.0120366 2650 
407 1 -0.00573539 0.00442303 0.000925699 0.000847 -0.000815118 0.000180325 0.0066404 2650 
95 1 -0.00631336 0.00818243 0.00156191 0.001312 -0.000178871 0.0029055 0.00870871 2650 
309 1 -0.00220165 0.0309767 0.00102932 0.000233 0.00310286 0.0297105 0.0175232 2650 
18 1 -0.0149176 0.0355951 0.000441493 0.000847 0.0126917 0.0256486 -0.0184733 2650 
284 1 -0.016182 0.00131662 0.00202457 0.000233 0.00269224 -0.00953999 0.0748941 2650 
27 1 -0.00865254 0.00244205 0.00436798 8.4e-05 -0.00879444 -0.00375525 0.0129666 2650 
383 1 -0.0102897 0.025573 0.0043221 0.000847 -0.00118361 0.00646342 0.00221925 2650 
254 1 -0.0130448 0.0364849 0.00405615 0.000847 -0.0245293 0.03375 -0.00494013 2650 
225 1 -0.0124234 0.0272079 0.00629056 0.001312 -0.0014809 0.0121999 0.0109345 2650 
16 1 -0.0133233 0.0705379 0.00619628 0.001312 0.00451414 0.0353492 0.0125984 2650 
324 1 -0.0111407 0.0114089 0.00760824 0.000233 0.00544172 0.00678105 0.0136482 2650 
196 1 -0.0148969 0.0417533 0.00732238 0.000233 0.563672 -0.0575679 1.3246 2650 
263 1 -0.000812043 0.00200675 0.00791169 0.001312 -0.00371433 -0.000137622 -0.00527791 2650 
112 1 -0.003234 0.00434328 0.00932692 0.000847 0.0127225 -6.89131e-05 0.00873898 2650 
217 1 -0.000672862 0.0286409 0.0081738 0.000847 -0.00371392 0.0145111 -0.0123122 2650 
449 1 -0.0036431 0.0434405 0.00864006 0.000847 0.0115914 0.0237476 -0.0082524 2650 
386 1 -0.0096026 0.0218665 0.010579 0.000847 0.00768159 0.0114645 -0.00284038 2650 
405 1 -0.0128121 0.0271635 0.0106022 8.4e-05 -0.00438524 0.0237381 0.00391022 2650 
60 1 -0.00284771 0.000169027 0.0112884 0.000847 0.00503256 -0.000830406 0.00698364 2650 
351 1 -0.00504403 0.0238635 0.0121422 0.000233 -0.0154134 -0.00320047 -0.00707598 2650 
204 1 -0.00814323 0.0290094 0.0122151 0.000847 -0.00185748 0.0188036 0.0116654 2650 
144 1 -0.000578306 0.0627182 0.0115692 0.000233 -0.0395835 0.0418452 -0.0147063 2650 
133 1 -0.00752587 0.000140898 0.0136409 0.001312 0.0166369 -0.00247335 0.00929843 2650 
304 1 -0.00783125 0.00247231 0.0139595 0.000847 0.0270952 0.00312027 0.0145833 2650 
69 1 -0.00546227 0.00413048 0.0129412 0.001312 0.0216732 0.00532562 0.0171327 2650 
97 1 -0.00746159 0.0285456 0.0142025 0.000847 0.0530932 -0.00269717 0.0278964 2650 
99 1 -0.0030011 0.0143921 0.0157832 0.000847 -0.00937212 0.00501404 -0.00644016 2650 
464 1 -0.000651312 0.0149965 0.0162953 0.000233 0.0156698 0.0166111 0.00174641 2650 
506 1 -0.00180077 0.053313 0.0165122 0.000233 -0.0171717 0.0214229 -0.00324567 2650 
450 1 -0.0550261 0.0262841 0.0402758 0.000847 36.8405 0.986127 50.3059 2650 
191 1 -0.00557238 0.0855451 -0.0113619 0.000847 0.0105229 0.0597122 -0.0271159 2650 
444 1 -0.00707435 0.088248 -0.0116283 8.4e-05 -0.00448298 0.0465385 0.0015305 2650 
87 1 -0.0123041 0.0758135 -0.0108906 0.000847 -0.000765043 0.030515 -0.0195847 2650 
48 1 -0.00764677 0.0829288 -0.0100657 0.000847 0.00590374 0.0457709 -0.00192401 2650 
66 1 -0.00886682 0.0788633 -0.00439279 0.000233 0.00377936 0.0342087 0.00385618 2650 
2 1 0.000343925 -0.0391633 -0.067813 0.001312 -101.149 -4.46655 -0.512358 2650 
395 1 0.0640964 -0.0222188 -0.0232052 0.000847 0.0567322 -0.505049 0.15658 2650 
234 1 0.00127557 -0.000488365 -0.0124713 0.000233 -0.0222098 -0.00680135 -0.00844219 2650 
54 1 0.0689134 -0.00730568 -0.000766503 8.4e-05 3.58345e-05 -0.179451 0.0032215 2650 
438 1 0.00627469 -0.00315153 0.00127227 0.000847 -0.00354313 -0.00458154 -0.00114762 2650 
89 1 0.00784735 -0.00134894 0.00411675 0.000233 0.00404946 -0.00420942 -0.00784504 2650 
472 1 0.0119513 -0.000182421 0.00586453 0.000847 -0.00276271 -0.00139857 0.005954 2650 
475 1 0.0139302 -0.00265783 0.00754304 0.000847 -0.00487336 -0.00855658 0.0117147 2650 
45 1 0.0011718 -0.000264474 0.00798684 0.000847 0.00163238 -0.00231519 0.000146362 2650 
260 1 0.0102053 -0.00256372 0.0112445 0.000233 -0.00699417 -0.00982098 0.00980998 2650 
292 1 0.00647771 -0.0030834 0.0126749 0.000847 -0.00780424 -0.00567225 -0.00223223 2650 
329 1 0.00233864 -0.00126467 0.0135028 0.000847 0.00309774 0.00064758 0.000282908 2650 
135 1 0.00249455 -0.00097338 0.0152787 0.000847 0.00492656 0.000509319 0.00241716 2650 
518 1 0.0131368 -0.0219033 0.0663177 0.000233 0.649705 -0.978177 3.10446 2650 
165 1 0.0047077 0.00305088 -0.0153107 0.000847 -0.0205391 -0.00178888 -0.00562782 2650 
363 1 0.00401171 0.0600719 -0.0150864 0.000233 -0.0137029 0.0827688 -0.00458695 2650 
219 1 0.00488276 0.0079173 -0.0133801 0.000233 0.00888838 0.00217768 -0.0132951 2650 
476 1 0.0066226 0.0184223 -0.0124237 0.000847 -0.00851723 0.00655317 -0.0133887 2650 
285 1 0.00938455 0.0216472 -0.0122021 0.000233 -0.0604809 -0.462167 0.0265477 2650 
198 1 0.00923829 0.0336966 -0.0122956 0.001312 -0.00570333 0.0219622 0.00829582 2650 
209 1 0.012123 0.0358217 -0.0114193 0.000233 0.00990456 0.0210161 0.0128044 2650 
63 1 0.0117182 0.0363747 -0.0116333 0.000233 0.0131838 0.0243897 0.0107253 2650 
136 1 0.00678265 0.00126867 -0.00985687 0.000847 0.0065673 0.000110857 -0.00223369 2650 
81 1 0.00308261 0.0269611 -0.00953405 0.001312 -0.00733521 0.0116818 -0.000769902 2650 
212 1 0.00384148 0.00994138 -0.00928691 0.001312 -0.000765087 0.0018825 0.00556343 2650 
520 1 0.0137072 0.0219129 -0.00814661 0.000233 -0.000735374 0.0156031 0.019077 2650 
343 1 0.0109884 0.0280896 -0.00819037 0.000847 -0.0186586 0.00953387 -0.00130757 2650 
80 1 0.0132212 0.0109809 -0.0065167 8.4e-05 -0.00111457 0.00969882 -0.00400268 2650 
421 1 0.000772179 0.0126181 -0.00741376 0.000847 -0.00701942 0.000966987 0.00731369 2650 
5 1 0.0128863 0.0178499 -0.00709809 0.000847 -0.000793733 0.00540171 0.00496389 2650 
412 1 0.0126483 0.00252546 -0.00629819 0.000847 -0.0036812 -0.00599704 -0.000979386 2650 
207 1 0.006149 0.00542629 -0.00456942 0.000233 -0.0010599 0.0004343 0.00669728 2650 
238 1 0.0130107 0.0161984 -0.00344057 0.001312 0.00393038 0.00465132 -0.0110608 2650 
199 1 0.0142424 0.0226355 -0.00385038 0.001312 0.00458239 0.0121606 0.0166994 2650 
126 1 0.0153567 0.0252329 -0.00430839 0.000847 0.00730997 0.0192459 0.0279423 2650 
146 1 0.0123012 0.0219574 -0.00193524 0.001312 0.00287468 0.00928499 0.0165607 2650 
470 1 0.00693255 0.0291048 -0.00237203 8.4e-05 0.0109759 0.0135617 0.0110289 2650 
215 1 0.00678692 0.0359839 -0.000193257 0.000847 0.003733 0.0204181 0.00643478 2650 
70 1 0.0159386 0.0322455 0.00107129 0.000847 0.000666771 0.00984403 0.0358955 2650 
435 1 0.00210445 0.0606605 0.000191391 0.000847 0.000867591 0.0405585 -0.0228282 2650 
132 1 0.0132762 7.01051e-06 0.0017019 8.4e-05 -0.00182294 -0.00656713 0.000849122 2650 
8 1 0.00196806 0.00900481 0.00247487 0.000233 0.0177695 -0.00052839 0.00344916 2650 
398 1 0.00957919 0.0129547 0.00303456 0.000847 -0.00445363 0.00222326 0.00366866 2650 
137 1 0.0141315 0.054784 0.00195163 0.000847 0.0202347 0.0234308 -0.000934137 2650 
224 1 0.0147678 0.000652484 0.00469106 0.001312 -0.00436967 -0.00374585 0.00949859 2650 
515 1 0.00170561 0.0136488 0.00405115 0.000847 0.0176296 0.00832046 0.00194231 2650 
251 1 0.0136029 0.0401726 0.00458694 0.000847 -0.0025871 0.0176623 0.0182706 2650 
149 1 0.0152667 0.0419017 0.00396081 0.000847 0.0112778 0.0244278 0.0288747 2650 
474 1 0.00925822 0.0503754 0.00470486 0.000847 -0.00441382 0.0190776 0.000418652 2650 
216 1 0.00389494 0.0551 0.00364732 0.000847 0.00347878 0.0283419 0.0066285 2650 
30 1 0.00124203 0.0621726 0.00368167 0.001312 -0.00135063 0.0321699 0.014038 2650 
510 1 0.0145669 0.00389041 0.00486171 0.001312 -0.000846781 -0.000960023 0.0070208 2650 
143 1 0.0156359 0.00851151 0.00561678 0.000233 -0.0114116 -0.00259684 0.0266485 2650 
74 1 0.000736593 0.0233127 0.00618794 0.000847 -0.00423609 0.00905328 0.00538328 2650 
381 1 0.0138212 0.00215195 0.00690954 0.000847 0.00456873 -0.00113554 -0.00529203 2650 
227 1 0.0134322 0.00462799 0.00762756 0.000847 -0.00376736 0.00204756 0.00605898 2650 
65 1 0.0151299 0.0101316 0.00640737 0.000233 -0.00260626 0.00780866 0.00565945 2650 
514 1 0.0140405 0.0147176 0.0063659 0.000847 0.00540494 0.00398208 -0.00535228 2650 
325 1 0.0152537 0.0154626 0.00686286 0.000233 -0.00712454 0.012119 0.00197192 2650 
311 1 0.0149743 0.0147992 0.00737478 0.000233 0.0151185 0.0088207 -0.0278488 2650 
108 1 0.0141776 0.0266884 0.00650035 0.001312 -0.00340511 0.00803804 0.006349 2650 
331 1 0.00267517 0.0733014 0.00767949 0.000847 0.0114133 0.0413502 0.0102172 2650 
109 1 0.0115659 0.00602756 0.0080371 0.000847 -0.0102573 0.00128271 0.00220009 2650 
273 1 0.00310239 0.0179386 0.00840982 0.000233 0.018405 0.00527553 -0.00012885 2650 
94 1 0.0128718 0.0288962 0.00887276 0.001312 -0.00918211 0.0101286 0.00554012 2650 
38 1 0.00173306 0.0725363 0.00833805 0.000233 -0.0108563 0.0381487 0.00282041 2650 
457 1 0.00887611 0.0649502 0.0109255 8.4e-05 -0.0111483 0.0319351 0.00432043 2650 
188 1 0.0089108 0.0711074 0.00964521 0.000847 0.00797073 0.0304807 0.00488408 2650 
333 1 0.0091658 0.00564744 0.0116841 0.000847 -0.000614924 0.00130451 -0.00247639 2650 
406 1 0.00819404 0.0037438 0.0131513 0.001312 0.000929567 -0.000628183 -0.000415354 2650 
1 1 0.00333601 0.0186015 0.0127012 0.001312 -0.00294948 0.00865571 -0.00178769 2650 
368 1 0.000162229 0.0569211 0.013021 0.000847 -0.0171767 0.0287922 0.0155752 2650 
175 1 0.00236462 0.000733854 0.0148589 0.000847 0.0133593 0.000227318 -0.00573589 2650 
388 1 0.00784779 0.00234253 0.0147048 0.000233 -0.00993296 -0.00242822 0.00588482 2650 
121 1 0.00539238 0.00480305 0.0145858 0.001312 0.0256187 0.00261349 -0.0060398 2650 
228 1 0.00283948 0.0414903 0.0151296 0.000847 0.00248119 0.00943705 -0.0015004 2650 
356 1 0.00391663 0.0470586 0.0146673 0.000847 0.000173794 0.0272657 -0.00380707 2650 
427 1 0.00742571 0.0468869 0.0143156 0.000233 -0.0064393 0.0307872 0.00793576 2650 
348 1 0.00187151 6.69395e-05 0.0163575 0.000233 0.026194 -0.00201477 -0.00323283 2650 
223 1 0.000262903 0.00445023 0.0166883 8.4e-05 -0.116704 -0.0372264 -0.00075764 2650 
39 1 0.000751046 0.0135282 0.0163899 0.000233 -0.007475 0.00316197 0.00139995 2650 
413 1 0.00137339 0.0445511 0.0165938 0.000233 0.791199 -0.194459 -0.147267 2650 
180 1 0.00814999 0.135202 0.0143332 0.000233 0.00860892 0.0812149 0.00119763 2650 
