ITEM: TIMESTEP
19135779
ITEM: NUMBER OF ATOMS
227
ITEM: BOX BOUNDS ff ff ff
-0.15 0.15
-0.15 0.15
-0.15 0.15
ITEM: ATOMS id type x y z radius vx vy vz density 
301 1 -0.0149315 -0.0249032 -0.067279 8.4e-05 -0.089674 -0.42761 0.0205797 2650 
392 1 -0.0274102 -0.0049102 -0.0631622 8.4e-05 -0.695386 -0.108728 -1.1993 2650 
13 1 -0.0597885 -0.0237136 -0.0342767 8.4e-05 -0.101326 -0.433851 0.176726 2650 
79 1 -0.000416801 -0.000348785 -0.00757449 0.000233 0.0116224 -0.00870638 -0.00201173 2650 
271 1 -0.0151287 -0.00187074 -0.00557089 0.000233 -0.00329303 -0.0111893 0.0107881 2650 
237 1 -0.00174694 -0.00266021 -0.00457196 0.001312 1.98014e-05 -0.00473074 0.000260966 2650 
68 1 -0.0148135 -0.00035168 -0.00432982 0.001312 -0.00911084 -0.00919814 0.0340585 2650 
245 1 -0.015895 -0.00271398 -0.001607 0.000233 0 -0.01175 0 2650 
505 1 -0.00931003 -0.000587499 -0.00219314 0.000233 0.0431155 -0.0343111 -0.0371125 2650 
75 1 -0.004976 -0.00317998 -0.001105 0.000233 0 -0.01175 0 2650 
332 1 -0.0158183 -0.00109512 -0.00139768 0.000847 -0.000475748 -0.0100897 0.029753 2650 
296 1 -0.002285 -0.00200098 0.004233 0.000233 0 -0.01175 0 2650 
355 1 -0.0102787 -0.00121965 0.00328649 0.000847 0.00812849 0.000495116 -0.0296216 2650 
469 1 -0.0127661 -0.003301 0.00512944 0.000233 -0.0262986 -0.01226 0.0105668 2650 
462 1 -0.014405 -0.00179603 0.00628107 0.000847 -0.00428607 -0.00509752 -0.0118145 2650 
90 1 -0.009269 -0.00305798 0.005356 0.000233 0 -0.01175 0 2650 
244 1 -0.002251 -0.00147998 0.006118 0.000233 0 -0.01175 0 2650 
467 1 -0.0137451 -0.00388775 0.00868314 0.000233 -2.05668 -0.0857037 1.3048 2650 
361 1 -0.00738564 -0.00280657 0.00794607 0.000233 0.0184276 -0.0162071 0.0104967 2650 
135 1 -0.00340698 -0.000422438 0.0107511 0.000847 0.00900114 -0.000763851 0.00963581 2650 
518 1 -0.00791127 -0.00187144 0.0117333 0.000233 0.0149695 -0.0019956 -0.000638671 2650 
313 1 -0.004641 -0.00126198 0.011299 0.000233 0 -0.01175 0 2650 
399 1 -0.0456507 -0.0291977 0.0170514 0.000847 29.9657 -0.468716 63.2676 2650 
390 1 -0.00726458 -0.00184856 0.0139255 0.000233 -0.0234562 -0.00844062 -0.0182329 2650 
43 1 -0.0060923 -0.000578233 0.0141727 0.001312 -0.0282818 -0.00182098 -0.0125412 2650 
376 1 -0.0622744 -0.00638627 0.0291763 0.000233 -0.0719889 -0.151575 -0.153619 2650 
192 1 -0.0482745 -0.0192528 0.0489747 0.000233 -0.165223 -0.385717 -0.162807 2650 
50 1 -0.0296045 -0.0313946 0.0618768 0.000233 -9.43547 -2.21971 1.72732 2650 
366 1 -0.000472967 0.0138653 -0.0164589 8.4e-05 -0.0125884 0.00661102 -0.00168045 2650 
413 1 -0.00573815 0.0169165 -0.0143651 0.000233 0.0135088 0.0105104 -0.0051725 2650 
198 1 -0.000473902 0.0189713 -0.0153902 0.001312 0.0154242 0.0203742 0.000594969 2650 
70 1 -0.00273313 0.0221235 -0.0156855 0.000847 0.022788 0.0228372 -0.0464211 2650 
211 1 -0.00285675 0.0268005 -0.0150422 0.001312 -0.00474861 0.00962786 0.00898843 2650 
418 1 -0.00589386 0.0511493 -0.0156551 8.4e-05 -0.12265 0.0130395 0.0534071 2650 
156 1 -0.00529307 0.0538827 -0.0157566 0.000233 -0.0686597 0.0301541 0.0297648 2650 
139 1 -0.0014458 0.00742904 -0.0127717 0.000847 -0.00167824 0.00184567 0.00665881 2650 
214 1 -0.009325 0.0146136 -0.0128331 0.000847 -0.00501594 0.0100446 0.00868742 2650 
444 1 -0.00375697 0.0538098 -0.0127609 8.4e-05 -0.00448298 0.0465385 0.0015305 2650 
309 1 -0.00449775 0.00899104 -0.0119377 0.000233 0.00310286 0.0297105 0.0175232 2650 
450 1 -0.0103073 0.0437155 -0.011745 0.000847 -0.237568 0.151861 0.210221 2650 
520 1 -0.00459749 0.0136537 -0.010172 0.000233 0.0276435 0.0106542 0.000872001 2650 
470 1 -0.00118959 0.0190692 -0.0105333 8.4e-05 0.0109759 0.0135617 0.0110289 2650 
177 1 -0.0118378 0.0445163 -0.0107968 0.000847 -0.0132337 0.0409888 0.015741 2650 
2 1 -0.0103585 0.00103369 -0.00838809 0.001312 -0.00361104 -0.00692627 -0.000576475 2650 
147 1 -0.00690049 0.00909802 -0.00911312 0.001312 -0.000885497 0.00566179 0.0120366 2650 
6 1 -0.0131146 0.0363902 -0.00907075 0.000847 -0.0225131 0.0160582 0.0257856 2650 
48 1 -0.0120155 0.0490585 -0.0086419 0.000847 0.00590374 0.0457709 -0.00192401 2650 
512 1 -0.0111996 0.00888228 -0.00733441 0.000847 0.0104204 0.00313181 -0.00061906 2650 
58 1 -0.00217254 0.0199301 -0.00701683 0.000847 -0.0145899 0.0148736 0.00524947 2650 
235 1 -0.00578696 0.0482097 -0.00695819 0.000233 0.028196 0.132575 -0.0448954 2650 
66 1 -0.0116635 0.053549 -0.00724634 0.000233 0.00377936 0.0342087 0.00385618 2650 
95 1 -0.006181 0.00603237 -0.00488249 0.001312 -0.000178871 0.0029055 0.00870871 2650 
495 1 -0.00894704 0.00761394 -0.00537259 0.000233 0.0609727 0.0732857 -0.0375319 2650 
407 1 -0.00513456 0.00429076 -0.00399093 0.000847 -0.000807508 0.000176556 0.00664934 2650 
219 1 -0.0016946 0.00630583 -0.00354174 0.000233 0.00888838 0.00217768 -0.0132951 2650 
440 1 -0.0101983 0.00188213 -0.0020381 0.000233 0.00637766 0.0032616 -0.0067895 2650 
285 1 -0.00678043 0.00401739 -0.0021779 0.000233 -0.026406 0.0636812 8.01954e-05 2650 
324 1 -0.0151675 0.00639095 -0.0024914 0.000233 0.00544172 0.00678105 0.0136482 2650 
16 1 -0.0125129 0.043911 -0.00301403 0.001312 -0.0139168 0.0374299 0.012099 2650 
69 1 -0.0148276 0.00142633 -0.00152708 0.001312 -0.00904797 0.000929707 0.0277036 2650 
168 1 -0.0126615 0.008094 -7.94167e-05 0.000233 0.00370912 0.0155159 -0.0117628 2650 
8 1 -0.0111813 0.00939581 -7.74927e-05 0.000233 0.0177695 -0.00052839 0.00344916 2650 
225 1 -0.0137702 0.0186243 -0.00157477 0.001312 0.00299268 0.0113863 0.0105203 2650 
126 1 -0.010138 0.0213945 -0.00106292 0.000847 0.0226085 -0.00126818 -0.0729211 2650 
144 1 -0.00309707 0.0208071 -0.000169079 0.000233 0.0409933 0.0881446 -0.150334 2650 
133 1 -0.015492 0.000774617 0.000956491 0.001312 0.00639867 -0.00288717 0.0335903 2650 
291 1 -0.0109936 0.0251608 0.000808145 0.000847 0.00815126 0.0415911 0.0282129 2650 
331 1 -0.00577063 0.0427024 0.000118786 0.000847 0.0114133 0.0413502 0.0102172 2650 
186 1 -0.0126213 0.0560988 0.00138833 0.001312 0.00533885 0.0826733 0.0344604 2650 
348 1 -0.0134361 0.0014157 0.00259168 0.000233 -0.00669956 -0.00154404 0.0445976 2650 
374 1 -0.00937521 0.00107769 0.00261809 0.000233 -0.00450428 -0.00788516 -0.00181456 2650 
112 1 -0.0126486 0.00439428 0.00286012 0.000847 0.0127225 -6.89131e-05 0.00873898 2650 
515 1 -0.0113402 0.00749165 0.00261385 0.000847 0.0176296 0.00832046 0.00194231 2650 
383 1 -0.000335276 0.019139 0.00183946 0.000847 -0.0178103 0.00948738 0.00375842 2650 
137 1 -0.000842052 0.0374453 0.00264289 0.000847 0.0202347 0.0234308 -0.000934137 2650 
152 1 -0.0161238 0.0628684 0.00165707 0.000847 -0.006701 0.0421985 0.0388181 2650 
482 1 -0.00860818 0.0627467 0.00294406 0.000233 0.000351426 0.0488467 0.0205314 2650 
386 1 -0.00793368 0.0121842 0.00386929 0.000847 -0.00735337 0.0139193 0.0151707 2650 
204 1 -0.0067687 0.0150948 0.00358275 0.000847 -0.00185748 0.0188036 0.0116654 2650 
87 1 -0.011738 0.0532325 0.00360195 0.000847 -0.000765043 0.030515 -0.0195847 2650 
60 1 -0.0064431 0.000756625 0.00597881 0.000847 -0.0009898 0.000428572 0.0136178 2650 
103 1 -0.00194047 0.0117538 0.00567307 0.000233 -0.0297697 0.0115388 -0.0165262 2650 
277 1 -0.00531713 0.0322941 0.00539298 0.000847 -0.00315953 0.0284613 -0.0237172 2650 
55 1 -0.0013952 0.032783 0.00529463 0.001312 -0.0472243 0.0379197 -0.0159296 2650 
175 1 -0.00791774 0.00108391 0.00736807 0.000847 0.0198916 -0.00196708 0.0102407 2650 
45 1 -3.61571e-05 0.00144876 0.00787853 0.000847 0.00163238 -0.00231519 0.000146362 2650 
405 1 -0.0123976 0.014486 0.00694191 8.4e-05 -0.0173842 0.0117352 0.0210276 2650 
449 1 -0.0078356 0.0246349 0.00715945 0.000847 -0.0087478 0.0294643 0.0269399 2650 
121 1 -0.0123943 0.00351004 0.00810863 0.001312 0.0212472 0.000927226 0.0198955 2650 
273 1 -0.0105172 0.0140348 0.00850517 0.000233 0.018405 0.00527553 -0.00012885 2650 
222 1 -0.0133616 0.0353013 0.00791589 0.000233 0.0141743 0.00613486 0.0337281 2650 
191 1 -0.0133593 0.0413583 0.00870375 0.000847 0.0105229 0.0597122 -0.0271159 2650 
311 1 -0.00697013 0.00893091 0.0104122 0.000233 0.0270208 0.00377426 0.0551656 2650 
196 1 -0.0134674 0.0350909 0.00973903 0.000233 0.205695 0.148588 0.273638 2650 
91 1 -0.0118785 0.0536414 0.00960565 0.000233 -0.0363941 0.045077 -0.00579716 2650 
464 1 -0.00986738 0.00452828 0.0123115 0.000233 -0.0138944 -0.0011629 0.028037 2650 
228 1 -0.0107705 0.0301896 0.0116825 0.000847 0.0209995 0.0214908 0.0243139 2650 
503 1 -0.00966919 0.00257952 0.0133986 0.000233 -0.0201065 -0.00306569 0.0132487 2650 
71 1 -0.00718831 0.0659521 0.0146087 0.000847 -0.0146025 0.0443271 0.015827 2650 
213 1 -0.00642101 0.0813339 0.00700627 0.000847 0.0100469 0.055921 0.0298514 2650 
160 1 0.0421087 -0.0227064 -0.0529978 0.001312 0.238871 -0.386431 0.189609 2650 
423 1 0.0110251 -0.000990761 -0.0113907 0.000847 -0.0352023 6.93536e-05 -0.02906 2650 
328 1 0.0119342 -0.000342909 -0.00882891 0.001312 -0.0227498 0.00363481 -0.0359716 2650 
377 1 0.002656 -0.000854981 -0.00627 0.000233 0 -0.01175 0 2650 
400 1 0.0119177 -0.0019608 -0.00447903 0.000233 0.00887388 -0.0151289 0.00624634 2650 
17 1 0.00383665 -0.00326359 -0.00230918 0.000847 -0.000232265 -0.01105 -0.00146143 2650 
426 1 0.0122469 -0.0034268 0.00252219 0.000233 1.23302 -0.0410144 0.252742 2650 
83 1 0.0132415 -0.000395974 0.00228053 0.000847 -0.000379633 -0.00951986 -0.000817454 2650 
456 1 0.0147783 -0.00114085 0.00359244 0.000233 -0.00672303 -0.00588889 -0.00741775 2650 
261 1 0.000382 -0.00160498 0.006142 0.000233 0 -0.01175 0 2650 
14 1 0.0139252 -0.0014544 0.00739507 8.4e-05 0.00372036 -0.00952606 0.0111418 2650 
329 1 0.000459683 -0.00165939 0.00853768 0.000847 0.00144285 -0.00576685 0.00298329 2650 
352 1 0.009336 -0.000980981 0.009757 0.000233 0 -0.01175 0 2650 
200 1 0.00834 -0.00233698 0.011213 0.000847 0 -0.01175 0 2650 
499 1 0.00509371 -0.0052162 0.0149996 0.000847 0.198448 -0.473968 0.630894 2650 
303 1 0.0622464 -0.019289 0.0277854 0.000847 0.0718351 -0.412835 -0.1608 2650 
210 1 0.00445122 0.00619162 -0.0154506 8.4e-05 -0.00722799 0.00367103 -0.00178987 2650 
63 1 0.00593759 0.0179586 -0.0155101 0.000233 -0.00730266 0.0255607 -0.0020841 2650 
209 1 0.00462 0.0214989 -0.0153238 0.000233 -0.0135657 0.00621161 0.000152445 2650 
420 1 0.00463133 0.025501 -0.014671 0.000847 -0.0160599 0.0185755 -0.0042617 2650 
97 1 0.0037623 0.0295561 -0.015591 0.000847 -0.0640502 0.000634654 -0.0161058 2650 
403 1 0.00607592 0.0333563 -0.0155786 0.000233 -0.0318963 0.0353879 -0.013915 2650 
104 1 0.00809906 0.00586846 -0.0140238 0.000233 -0.0127088 -0.00137457 -0.0290747 2650 
212 1 0.00440764 0.00854834 -0.0134038 0.001312 -0.000765087 0.0018825 0.00556343 2650 
143 1 0.00918301 0.0104335 -0.0138377 0.000233 0.0255262 -0.00279866 0.0191301 2650 
421 1 0.00596651 0.0119025 -0.0128259 0.000847 -0.00701942 0.000966987 0.00731369 2650 
199 1 0.00224749 0.0161797 -0.0122123 0.001312 0.032545 0.00753187 0.00235865 2650 
149 1 0.00239997 0.0234197 -0.0119152 0.000847 0.0481307 0.0277329 -0.0158838 2650 
425 1 0.00145775 0.0382367 -0.0123518 0.000847 -0.00296495 0.0281405 0.00461968 2650 
72 1 0.00776904 0.0575787 -0.0115855 0.000847 0.0507021 0.0458098 0.0254129 2650 
12 1 0.0127628 0.000312077 -0.0105991 0.000233 0.0059761 -0.00767935 0.00834907 2650 
207 1 0.00693332 0.00510491 -0.00952538 0.000233 -0.0010599 0.0004343 0.00669728 2650 
363 1 0.0120411 0.0170193 -0.0109388 0.000233 -0.00516116 0.0058541 -0.00751722 2650 
304 1 0.0125843 0.0186376 -0.009956 0.000847 -0.0921399 -0.0509839 -0.122587 2650 
281 1 0.00139911 0.0302429 -0.0103469 0.000847 -0.00695836 0.0309939 -0.0195121 2650 
174 1 0.00201024 0.0476301 -0.00980325 0.000847 0.00404523 0.0418625 -0.0134125 2650 
295 1 0.00723123 0.0495367 -0.0108875 0.000847 -0.0277685 0.084332 -0.0116984 2650 
136 1 0.00192288 0.00118663 -0.00820395 0.000847 0.0065673 0.000110857 -0.00223369 2650 
234 1 0.0139681 0.00100391 -0.00863215 0.000233 0.0118023 0.0145683 -0.00458095 2650 
146 1 0.00670825 0.0142295 -0.0083208 0.001312 0.0100841 0.0114333 0.00307778 2650 
5 1 0.0105935 0.0134751 -0.00923614 0.000847 0.00843832 0.00661203 4.30064e-05 2650 
223 1 0.0145385 0.0175272 -0.00836893 8.4e-05 0.111156 -0.00115989 0.209077 2650 
81 1 0.00851063 0.0183166 -0.00896432 0.001312 -0.00733521 0.0116818 -0.000769902 2650 
446 1 0.013682 0.0281839 -0.00824205 0.000847 -0.107353 0.0547997 -0.124853 2650 
391 1 0.0131338 0.0288502 -0.00900682 0.000233 0.00139547 0.0217574 0.0103177 2650 
511 1 0.00914789 0.0565861 -0.00860319 0.000847 0.00778157 0.0479483 0.0987332 2650 
375 1 0.00351735 0.00553935 -0.00711959 0.000233 -0.0182452 -0.00353034 -0.0189375 2650 
412 1 0.0141251 0.00625463 -0.0075221 0.000847 0.00691771 0.00502854 0.0127051 2650 
251 1 0.0112841 0.02646 -0.00753412 0.000847 0.0216114 0.0213356 0.010273 2650 
30 1 0.00224148 0.0383671 -0.00670635 0.001312 -0.00135063 0.0321699 0.014038 2650 
224 1 0.0143959 0.00234417 -0.00495086 0.001312 0.00625837 -0.00040398 0.0174239 2650 
80 1 0.0143893 0.00394751 -0.00484394 8.4e-05 -0.00471511 0.0081918 0.00951795 2650 
493 1 0.00728767 0.0141426 -0.00503417 0.000233 -0.0118703 0.00376708 0.00232476 2650 
215 1 0.00402452 0.0208746 -0.00495497 0.000847 0.003733 0.0204181 0.00643478 2650 
437 1 0.00530609 0.0269951 -0.00579101 0.000847 -0.014337 0.0251968 -0.00604695 2650 
165 1 0.0157413 0.00386844 -0.0035162 0.000847 -0.00175813 0.0125332 -0.0110998 2650 
187 1 0.00384061 0.00486085 -0.00333475 0.000847 -0.0115529 0.00257543 0.00246599 2650 
325 1 0.0159257 0.0081677 -0.00462114 0.000233 0.000669409 0.00881148 0.0163456 2650 
233 1 0.00610722 0.0341107 -0.00356083 0.000233 0.0447872 0.145199 0.0551368 2650 
252 1 0.000356726 0.00140955 -0.0031494 0.000847 -0.00541591 0.00339242 -0.0066024 2650 
27 1 0.0002688 0.00402552 -0.00238961 8.4e-05 -0.0165967 0.000109191 0.00379322 2650 
433 1 0.0143948 0.0041836 -0.00225454 0.000847 -0.000988078 0.0105018 -0.00923923 2650 
476 1 0.0129253 0.013573 -0.00251611 0.000847 -0.00851723 0.00655317 -0.0133887 2650 
94 1 0.0104802 0.0207427 -0.00196085 0.001312 0.00398614 0.0107687 0.0147883 2650 
282 1 0.0111525 0.000391568 -0.000908116 0.000847 0.0170859 -0.00513214 0.014573 2650 
109 1 0.0106056 0.00477929 -0.000858425 0.000847 0.00763584 0.00190854 0.0174081 2650 
395 1 0.0159699 0.00727248 -0.00127961 0.000847 -0.00572629 -0.0369847 -0.0343033 2650 
107 1 0.0149278 0.0100734 -0.000617658 0.001312 -0.00782113 -0.0127337 -0.0500355 2650 
216 1 0.00132066 0.0341271 -0.00125774 0.000847 0.00347878 0.0283419 0.0066285 2650 
132 1 0.0142474 0.00318066 0.0012419 8.4e-05 0.00188117 0.0099681 -0.000801985 2650 
510 1 0.0148342 0.00596653 0.000492337 0.001312 3.74456e-05 -0.004327 0.00498675 2650 
398 1 0.0128749 0.0113095 0.000319763 0.000847 -0.00445363 0.00222326 0.00366866 2650 
504 1 0.0167274 0.0189151 0.000222365 0.000233 0.0165561 -0.00209423 -0.0341261 2650 
108 1 0.0151017 0.0201131 0.000818358 0.001312 -0.00121388 0.00923475 0.00795163 2650 
368 1 0.011865 0.0360535 0.000507224 0.000847 -0.00898354 0.0252278 0.0236083 2650 
438 1 0.00889659 0.000238785 0.0021215 0.000847 -0.00354313 -0.00458154 -0.00114762 2650 
472 1 0.0146288 0.0014822 0.00278684 0.000847 -0.00837566 -0.0055128 -0.0049818 2650 
227 1 0.01566 0.00323602 0.00278624 0.000847 -0.00347498 0.0006611 0.00713056 2650 
65 1 0.0165223 0.00427623 0.00204176 0.000233 -0.000819325 0.00806527 0.00625139 2650 
255 1 0.0135865 0.00605201 0.00252007 0.000847 -0.0238351 -0.0402099 0.0138349 2650 
74 1 0.00387128 0.0166133 0.00220434 0.000847 -0.00423609 0.00905328 0.00538328 2650 
359 1 0.00997031 9.42291e-05 0.00442112 0.000847 0.00101428 -0.00555207 0.00102407 2650 
54 1 0.0141744 0.000720846 0.00471732 8.4e-05 -0.0077108 -0.00574558 -0.00683215 2650 
475 1 0.0131238 0.00310456 0.00318377 0.000847 0.00944674 -0.00392351 -0.00509573 2650 
260 1 0.0153809 0.00470376 0.00398512 0.000233 -0.00699417 -0.00982098 0.00980998 2650 
299 1 0.00866176 0.0107074 0.00364571 0.000233 -0.0067092 0.00573937 -0.00119716 2650 
471 1 0.0103588 0.00787757 0.00541097 0.001312 -0.027756 0.0389353 -0.0305886 2650 
238 1 0.0101023 0.0127565 0.00474434 0.001312 0.00393038 0.00465132 -0.0110608 2650 
474 1 0.0135323 0.0358195 0.00538327 0.000847 -0.0126069 0.022642 -0.00761444 2650 
457 1 0.0122342 0.0406086 0.0050673 8.4e-05 0.00801527 0.0347161 0.0147456 2650 
38 1 0.00976665 0.0443064 0.00625097 0.000233 -0.0108563 0.0381487 0.00282041 2650 
28 1 0.0150414 0.0457709 0.00581727 8.4e-05 -0.00639653 0.0422867 0.0198075 2650 
188 1 0.00301249 0.0485519 0.00603101 0.000847 0.00797073 0.0304807 0.00488408 2650 
292 1 0.00852912 0.00196202 0.00699246 0.000847 0.000789497 -0.00762925 0.0146941 2650 
388 1 0.013509 0.00411926 0.00784189 0.000233 -0.00599918 -0.00238884 0.011479 2650 
254 1 0.0078205 0.00968888 0.00743645 0.000847 -0.0392975 0.0436611 -0.00344152 2650 
343 1 0.0018133 0.0171523 0.00696942 0.000847 0.0213226 0.0162875 -0.025997 2650 
484 1 0.0135039 0.0318397 0.00732801 0.001312 0.0105208 0.0248114 -0.0151538 2650 
99 1 0.00490698 0.00899542 0.00832387 0.000847 -0.0106992 0.00731454 0.0102374 2650 
18 1 0.00233394 0.0147353 0.00897905 0.000847 -0.0170789 0.0213527 -0.0117673 2650 
427 1 0.0121908 0.0241046 0.0084432 0.000233 -0.0064393 0.0307872 0.00793576 2650 
73 1 0.0138825 0.0346105 0.00817013 0.000847 0.0111958 0.0309622 -0.0212626 2650 
89 1 0.00485077 0.00176602 0.00992204 0.000233 0.00404946 -0.00420942 -0.00784504 2650 
381 1 0.0104403 0.00299225 0.0108256 0.000847 0.00456873 -0.00113554 -0.00529203 2650 
333 1 0.0100184 0.00616217 0.0101802 0.000847 0.00160109 -0.00125494 0.00802197 2650 
514 1 0.00974261 0.0117408 0.0104278 0.000847 0.0058423 0.00402624 -0.00550066 2650 
356 1 0.0128088 0.0296828 0.00962026 0.000847 -0.0152264 0.022144 0.0202756 2650 
517 1 0.00721199 0.065937 0.00973516 0.000233 0.0181759 0.0321577 -0.00941046 2650 
263 1 0.00193655 0.00210859 0.0118173 0.001312 -0.00371433 -0.000137622 -0.00527791 2650 
351 1 0.00483511 0.0254709 0.0120787 0.000233 -0.00546303 0.00175931 0.0274656 2650 
506 1 0.0102111 0.0365228 0.0125775 0.000233 -0.0128936 0.0239161 0.0127615 2650 
406 1 0.00693347 0.00371935 0.013843 0.001312 0.0021518 0.000416082 -0.00123565 2650 
1 1 0.00551861 0.0121963 0.0140241 0.001312 -0.00294948 0.00865571 -0.00178769 2650 
217 1 0.00195412 0.0179397 0.0130769 0.000847 -0.00257813 0.0141642 0.0271072 2650 
435 1 0.00100513 0.0301721 0.0137548 0.000847 0.0103995 0.0504661 0.0465677 2650 
31 1 0.00812539 0.0561824 0.013025 0.000847 0.0282009 0.0594548 -0.0186647 2650 
265 1 0.00530811 0.000121879 0.0146716 0.000847 0.000650391 -0.00724541 0.00618481 2650 
39 1 0.00628251 0.0111884 0.0153539 0.000233 -0.007475 0.00316197 0.00139995 2650 
77 1 0.00557168 0.0442143 0.0143237 0.000233 0.0214475 0.0454594 -0.0171357 2650 
284 1 0.00329067 0.010118 0.0163738 0.000233 0.142563 -0.000580535 -0.000499311 2650 
354 1 0.00873826 0.0659536 0.0671967 0.001312 71.533 -0.921683 -8.19359 2650 
443 1 0.00346587 0.0879253 -0.0686796 0.000233 0.0161513 -0.119312 0.000760154 2650 
276 1 0.0313439 0.0901667 -0.0599936 0.001312 0.193736 0.034943 0.101215 2650 
3 1 0.051942 0.0871556 -0.0441964 0.000847 -49.7235 3.3982 -58.4087 2650 
321 1 0.0128974 0.0750078 0.00369757 0.000847 0.00588201 0.074253 -0.0242794 2650 
229 1 0.0146147 0.109414 0.00744077 0.000847 0.0348795 0.116202 -0.0181492 2650 
180 1 0.00177943 0.0751033 0.013447 0.000233 0.00860892 0.0812149 0.00119763 2650 
