ITEM: TIMESTEP
22376499
ITEM: NUMBER OF ATOMS
196
ITEM: BOX BOUNDS ff ff ff
-0.15 0.15
-0.15 0.15
-0.15 0.15
ITEM: ATOMS id type x y z radius vx vy vz density 
261 1 -0.0637509 -0.0330317 -0.0257927 0.000233 6.61744 -0.569398 -16.3526 2650 
200 1 -0.0600607 -0.0460132 -0.0142455 0.000847 2.57844 -14.6908 -37.3916 2650 
271 1 -0.0681674 -0.0263568 -0.00909542 0.000233 -0.0111279 -0.455746 0.0833823 2650 
2 1 -0.0111169 -0.000420814 -0.00850915 0.001312 -0.00361104 -0.00692627 -0.000576475 2650 
355 1 -0.00857171 -0.00111568 -0.00293402 0.000847 0.00812849 0.000495116 -0.0296216 2650 
68 1 -0.0151185 -0.00228552 0.00233772 0.001312 0.0096315 -0.00442025 0.0185747 2650 
374 1 -0.0103211 -0.000578184 0.00223704 0.000233 -0.00450428 -0.00788516 -0.00181456 2650 
462 1 -0.0146043 -0.00288219 0.00551299 0.000847 0.00792199 -0.0053336 0.0177738 2650 
332 1 -0.0406643 -0.00697177 0.00828107 0.000847 -5.88381 -0.356928 1.16069 2650 
43 1 -0.0112494 -0.000833869 0.0106238 0.001312 -0.0191429 -0.00037569 -0.0221799 2650 
518 1 -0.00476769 -0.00229051 0.0115992 0.000233 0.0149695 -0.0019956 -0.000638671 2650 
135 1 -0.00151675 -0.000582846 0.0127746 0.000847 0.00900114 -0.000763851 0.00963581 2650 
390 1 -0.0542247 -0.0124225 0.0422943 0.000233 -0.143161 -0.318015 -0.183494 2650 
244 1 -0.0289096 -0.0107559 0.062395 0.000233 -0.151266 -0.247557 -0.0701529 2650 
366 1 -0.00303446 0.0152397 -0.0164746 8.4e-05 -0.011523 0.00643076 0.00269654 2650 
403 1 -0.000864187 0.0405663 -0.016524 0.000233 -0.0331381 0.0339175 -0.000787928 2650 
413 1 -0.00290132 0.0191237 -0.0154513 0.000233 0.0135088 0.0105104 -0.0051725 2650 
126 1 -0.00482321 0.0211972 -0.0147984 0.000847 0.0535661 0.00249396 0.0132272 2650 
281 1 -6.21321e-05 0.0367515 -0.0144444 0.000847 -0.00695836 0.0309939 -0.0195121 2650 
97 1 -0.00927124 0.0295536 -0.0131054 0.000847 -0.0517115 -0.00066227 0.0384228 2650 
211 1 -0.00385395 0.0288223 -0.0131546 0.001312 -0.00474861 0.00962786 0.00898843 2650 
391 1 -0.00778028 0.0528141 -0.0141045 0.000233 -0.0969486 0.10822 0.0342748 2650 
375 1 -0.000314114 0.00479799 -0.0110964 0.000233 -0.0182452 -0.00353034 -0.0189375 2650 
139 1 -0.00179823 0.00781663 -0.0113734 0.000847 -0.00167824 0.00184567 0.00665881 2650 
444 1 -0.00469839 0.0635828 -0.0124395 8.4e-05 -0.00448298 0.0465385 0.0015305 2650 
304 1 -0.0115713 0.00882987 -0.0110494 0.000847 -0.0736878 -0.040879 0.0850702 2650 
214 1 -0.0103783 0.016723 -0.0110087 0.000847 -0.00501594 0.0100446 0.00868742 2650 
309 1 -0.00384616 0.0152302 -0.0082579 0.000233 0.00310286 0.0297105 0.0175232 2650 
48 1 -0.0107757 0.0586704 -0.00904594 0.000847 0.00590374 0.0457709 -0.00192401 2650 
512 1 -0.00901131 0.00953996 -0.00746441 0.000847 0.0104204 0.00313181 -0.00061906 2650 
147 1 -0.00708644 0.010287 -0.00658546 0.001312 -0.000885497 0.00566179 0.0120366 2650 
446 1 -0.0147532 0.0412705 -0.00648656 0.000847 -0.0831339 0.0590102 0.154332 2650 
66 1 -0.0108699 0.0607328 -0.00643655 0.000233 0.00377936 0.0342087 0.00385618 2650 
58 1 -0.0052364 0.0230536 -0.00591445 0.000847 -0.0145899 0.0148736 0.00524947 2650 
440 1 -0.00885903 0.00256706 -0.00346388 0.000233 0.00637766 0.0032616 -0.0067895 2650 
252 1 -0.000780607 0.00212196 -0.00453589 0.000847 -0.00541591 0.00339242 -0.0066024 2650 
407 1 -0.00530414 0.00432784 -0.00259458 0.000847 -0.000807508 0.000176556 0.00664934 2650 
27 1 -0.00321648 0.00404845 -0.00159304 8.4e-05 -0.0165967 0.000109191 0.00379322 2650 
95 1 -0.00621856 0.00664252 -0.00305368 0.001312 -0.000178871 0.0029055 0.00870871 2650 
168 1 -0.0118826 0.0113523 -0.00254959 0.000233 0.00370912 0.0155159 -0.0117628 2650 
285 1 -0.0123256 0.0173904 -0.00216106 0.000233 -0.026406 0.0636812 8.01954e-05 2650 
6 1 -0.0157758 0.0394157 -0.00261546 0.000847 -0.00831891 0.0137102 0.0325264 2650 
277 1 -0.0108079 0.0364363 -0.000152287 0.000847 -0.032417 0.017342 -0.0271397 2650 
16 1 -0.0154354 0.0517713 -0.00047325 0.001312 -0.0139168 0.0374299 0.012099 2650 
87 1 -0.0118987 0.0596406 -0.000510803 0.000847 -0.000765043 0.030515 -0.0195847 2650 
324 1 -0.0140248 0.00781496 0.000374717 0.000233 0.00544172 0.00678105 0.0136482 2650 
8 1 -0.0074497 0.00928485 0.000646827 0.000233 0.0177695 -0.00052839 0.00344916 2650 
225 1 -0.0131417 0.0210154 0.000634484 0.001312 0.00299268 0.0113863 0.0105203 2650 
515 1 -0.00763802 0.00923893 0.00302173 0.000847 0.0176296 0.00832046 0.00194231 2650 
103 1 -0.00819208 0.014177 0.00220259 0.000233 -0.0297697 0.0115388 -0.0165262 2650 
383 1 -0.00407542 0.0211313 0.00262872 0.000847 -0.0178103 0.00948738 0.00375842 2650 
55 1 -0.0100134 0.0412397 0.00210137 0.001312 -0.0393523 0.0409115 -0.0150087 2650 
331 1 -0.00337385 0.0513859 0.00226439 0.000847 0.0114133 0.0413502 0.0102172 2650 
191 1 -0.0111495 0.0538978 0.00300945 0.000847 0.0105229 0.0597122 -0.0271159 2650 
69 1 -0.014528 0.00164381 0.00371671 0.001312 0.00842717 0.00110644 0.023144 2650 
112 1 -0.00997689 0.00437981 0.00469529 0.000847 0.0127225 -6.89131e-05 0.00873898 2650 
204 1 -0.00715877 0.0190436 0.00603247 0.000847 -0.00185748 0.0188036 0.0116654 2650 
133 1 -0.0135355 0.000193197 0.00768222 0.001312 0.0187706 -0.00236059 0.0253778 2650 
60 1 -0.00551495 0.000609139 0.00758712 0.000847 0.00503256 -0.000830406 0.00698364 2650 
386 1 -0.00947788 0.0151073 0.00705512 0.000847 -0.00735337 0.0139193 0.0151707 2650 
254 1 -4.43128e-05 0.0185975 0.00667441 0.000847 -0.0245293 0.03375 -0.00494013 2650 
18 1 -0.00164022 0.0194794 0.00654727 0.000847 -0.031847 0.0312638 -0.0102686 2650 
291 1 -0.00928184 0.0338949 0.00673281 0.000847 0.00815126 0.0415911 0.0282129 2650 
418 1 -0.0152019 0.0512429 0.00692979 8.4e-05 0.0510913 -0.0119956 0.117244 2650 
482 1 -0.00853438 0.0730044 0.00725562 0.000233 0.000351426 0.0488467 0.0205314 2650 
273 1 -0.00665219 0.0151426 0.00847811 0.000233 0.018405 0.00527553 -0.00012885 2650 
405 1 -0.0126949 0.0165103 0.00906036 8.4e-05 0.0140828 0.00760553 -0.00052959 2650 
186 1 -0.0115002 0.0734601 0.00862496 0.001312 0.00533885 0.0826733 0.0344604 2650 
348 1 -0.0122413 0.00106707 0.00974183 0.000233 0.0267289 -0.00185737 0.016134 2650 
503 1 -0.00996027 0.00114311 0.0108747 0.000233 -0.000781141 -0.00696205 -0.0128351 2650 
175 1 -0.00487654 0.000908307 0.01077 0.000847 0.0138692 -0.000708107 0.0168749 2650 
121 1 -0.0079338 0.00369772 0.0122766 0.001312 0.0212283 0.000833251 0.0197608 2650 
223 1 -0.0115285 0.0107531 0.0122454 8.4e-05 -0.176483 -0.0366065 -0.132261 2650 
91 1 -0.00474104 0.0669242 0.0115383 0.000233 0.107905 0.09412 0.0486195 2650 
464 1 -0.00833556 0.00592918 0.0129285 0.000233 0.0129107 0.0177822 0.0125979 2650 
449 1 -0.00967263 0.0308223 0.0128168 0.000847 -0.0087478 0.0294643 0.0269399 2650 
222 1 -0.00914507 0.0363209 0.0137023 0.000233 0.0283059 0.00307197 0.0189524 2650 
228 1 -0.0051904 0.0343889 0.0149715 0.000847 0.028604 0.0194519 0.0125071 2650 
311 1 -0.000129174 0.0101902 0.0159198 0.000233 0.0381397 0.00822278 -0.00275438 2650 
450 1 -0.00272249 0.0543043 0.0158124 0.000847 0.165721 0.0272268 0.04572 2650 
213 1 -0.00431117 0.0930772 0.013275 0.000847 0.0100469 0.055921 0.0298514 2650 
423 1 0.00299837 -0.00087022 -0.015634 0.000847 -0.0410518 0.00111835 -0.0108931 2650 
79 1 0.00202389 -0.00217711 -0.00799695 0.000233 0.0116224 -0.00870638 -0.00201173 2650 
12 1 0.0140178 -0.00130058 -0.00884579 0.000233 0.0059761 -0.00767935 0.00834907 2650 
377 1 0.00277669 -0.00333363 -0.0065549 0.000233 0.127191 -0.0234284 -0.300258 2650 
282 1 0.0142846 -0.00132097 0.00109194 0.000847 0.0121048 -0.0120676 0.00298918 2650 
456 1 0.0141935 -0.00267191 0.0026838 0.000233 0.00154868 -0.00883315 -0.000926358 2650 
83 1 0.0131446 -0.002389 0.00209536 0.000847 -0.000551825 -0.00945857 -0.000952586 2650 
438 1 0.00815254 -0.000723332 0.00188051 0.000847 -0.00354313 -0.00458154 -0.00114762 2650 
54 1 0.0125551 -0.000485718 0.00328258 8.4e-05 -0.0077108 -0.00574558 -0.00683215 2650 
359 1 0.0100113 -0.00250763 0.00481625 0.000847 -0.00123555 -0.024334 0.0033795 2650 
255 1 0.00835008 -0.000300222 0.00530039 0.000847 -0.0240066 -0.0174881 0.0118104 2650 
14 1 0.0141112 -0.00351911 0.00926678 8.4e-05 0.269224 -0.151916 0.19635 2650 
329 1 0.000844027 -0.00238509 0.00948866 0.000847 0.00279019 0.00227168 0.00835785 2650 
265 1 0.00500092 -0.00122927 0.0148226 0.000847 -0.0025628 -0.00601176 -0.00212624 2650 
352 1 0.0203398 -0.0100256 0.0217445 0.000233 2.64147 -0.819094 2.84919 2650 
104 1 0.00301576 0.00596909 -0.0159694 0.000233 -0.0258533 0.000744666 -0.00642726 2650 
210 1 0.00293335 0.00696253 -0.0158264 8.4e-05 -0.00722799 0.00367103 -0.00178987 2650 
63 1 0.00440404 0.0233263 -0.0159478 0.000233 -0.00730266 0.0255607 -0.0020841 2650 
196 1 0.00041607 0.0455575 -0.0165733 0.000233 -0.30471 -0.0401583 -0.0130032 2650 
328 1 0.00586702 0.000310538 -0.0144197 0.001312 -0.0339061 0.00268221 -0.0189368 2650 
198 1 0.00275019 0.0232421 -0.015264 0.001312 0.0152408 0.0202791 0.000609688 2650 
209 1 0.00444403 0.0241894 -0.0155063 0.000233 0.0191801 0.0231938 -0.00247537 2650 
420 1 0.00125878 0.0294018 -0.0155659 0.000847 -0.0160599 0.0185755 -0.0042617 2650 
495 1 0.00385714 0.0230038 -0.0132542 0.000233 0.0609727 0.0732857 -0.0375319 2650 
295 1 0.00139988 0.0672463 -0.0133441 0.000847 -0.0277685 0.084332 -0.0116984 2650 
212 1 0.00424697 0.00894367 -0.0122355 0.001312 -0.000765087 0.0018825 0.00556343 2650 
421 1 0.00449245 0.0121056 -0.01129 0.000847 -0.00701942 0.000966987 0.00731369 2650 
199 1 0.00908189 0.0177614 -0.011717 0.001312 0.032545 0.00753187 0.00235865 2650 
363 1 0.0109572 0.0182487 -0.0125174 0.000233 -0.00516116 0.0058541 -0.00751722 2650 
70 1 0.00445817 0.0253258 -0.0123188 0.000847 0.0344663 0.015102 0.0172407 2650 
149 1 0.00928953 0.028955 -0.0113427 0.000847 0.0112778 0.0244278 0.0288747 2650 
425 1 0.000835114 0.0441462 -0.0113817 0.000847 -0.00296495 0.0281405 0.00461968 2650 
174 1 0.00285973 0.0564212 -0.0126198 0.000847 0.00404523 0.0418625 -0.0134125 2650 
107 1 0.0115728 0.0081318 -0.00966797 0.001312 -0.0298954 -0.00542241 -0.0313395 2650 
520 1 0.00120762 0.015891 -0.00998885 0.000233 0.0276435 0.0106542 0.000872001 2650 
136 1 0.003302 0.00120991 -0.00867302 0.000847 0.0065673 0.000110857 -0.00223369 2650 
234 1 0.0130467 0.00311633 -0.00799696 0.000233 -0.0222098 -0.00680135 -0.00844219 2650 
207 1 0.00671074 0.00519611 -0.00811896 0.000233 -0.0010599 0.0004343 0.00669728 2650 
143 1 0.0138299 0.00987704 -0.00929502 0.000233 0.0139951 -0.002483 0.0262042 2650 
5 1 0.0123655 0.0148636 -0.00922711 0.000847 0.00843832 0.00661203 4.30064e-05 2650 
470 1 0.00111534 0.0219172 -0.0082173 8.4e-05 0.0109759 0.0135617 0.0110289 2650 
81 1 0.00697025 0.0207698 -0.009126 0.001312 -0.00733521 0.0116818 -0.000769902 2650 
144 1 0.00295307 0.0360791 -0.00906521 0.000233 0.0155529 0.0559435 0.0751309 2650 
165 1 0.0139008 0.00395289 -0.00780647 0.000847 -0.0148513 -0.00176832 -0.0186476 2650 
219 1 0.000171952 0.00676314 -0.00633371 0.000233 0.00888838 0.00217768 -0.0132951 2650 
146 1 0.0088259 0.0166304 -0.00767447 0.001312 0.0100841 0.0114333 0.00307778 2650 
504 1 0.014838 0.0189652 -0.00730178 0.000233 -0.0150798 -0.000219134 -0.0341902 2650 
437 1 0.00229534 0.0322863 -0.00706086 0.000847 -0.014337 0.0251968 -0.00604695 2650 
412 1 0.0145993 0.00570387 -0.00577911 0.000847 -0.0036812 -0.00599704 -0.000979386 2650 
284 1 0.0154727 0.00844254 -0.00601018 0.000233 -0.0529943 -0.0123429 -0.123887 2650 
476 1 0.0111367 0.0149492 -0.00532771 0.000847 -0.00851723 0.00655317 -0.0133887 2650 
251 1 0.014974 0.0308116 -0.00509641 0.000847 -0.0025871 0.0176623 0.0182706 2650 
433 1 0.0120347 0.0045572 -0.00395876 0.000847 -0.013968 -0.000543254 -0.00781215 2650 
395 1 0.0149309 0.00404385 -0.00471659 0.000847 -0.00347951 -0.0152866 -0.00400767 2650 
80 1 0.0138119 0.00584056 -0.00439529 8.4e-05 -0.00111457 0.00969882 -0.00400268 2650 
493 1 0.00479492 0.0149337 -0.00454597 0.000233 -0.0118703 0.00376708 0.00232476 2650 
215 1 0.00480844 0.0251624 -0.00360367 0.000847 0.003733 0.0204181 0.00643478 2650 
30 1 0.00195785 0.0451227 -0.0037584 0.001312 -0.00135063 0.0321699 0.014038 2650 
187 1 0.00141453 0.00540168 -0.00281689 0.000847 -0.0115529 0.00257543 0.00246599 2650 
224 1 0.0154847 0.00208447 -0.00127752 0.001312 0.000200089 -0.00136224 0.0174747 2650 
325 1 0.0160662 0.0100181 -0.00118859 0.000233 0.000669409 0.00881148 0.0163456 2650 
471 1 0.0045505 0.0160128 -0.000998847 0.001312 -0.0276315 0.0386841 -0.0305047 2650 
132 1 0.0142423 0.00348757 0.00125187 8.4e-05 -0.00182294 -0.00656713 0.000849122 2650 
510 1 0.0148422 0.00505833 0.0015395 0.001312 3.84177e-05 -0.00432266 0.00498631 2650 
398 1 0.0119396 0.0117764 0.00109018 0.000847 -0.00445363 0.00222326 0.00366866 2650 
299 1 0.00360801 0.0192617 0.000941706 0.000233 -0.0289465 0.0505762 -0.0161606 2650 
343 1 0.00629102 0.0205727 0.00151008 0.000847 0.0213226 0.0162875 -0.025997 2650 
94 1 0.0113173 0.0230041 0.00114466 0.001312 0.00398614 0.0107687 0.0147883 2650 
216 1 0.0020512 0.0400788 0.000134237 0.000847 0.00347878 0.0283419 0.0066285 2650 
472 1 0.0134155 0.000558815 0.00270893 0.000847 -0.00276271 -0.00139857 0.005954 2650 
475 1 0.0148773 0.00185902 0.00199465 0.000847 0.00723402 -0.00626589 -0.00592644 2650 
109 1 0.0122091 0.00518008 0.00279726 0.000847 0.00763584 0.00190854 0.0174081 2650 
238 1 0.0109276 0.0137333 0.00242159 0.001312 0.00393038 0.00465132 -0.0110608 2650 
108 1 0.0148468 0.0220524 0.00248819 0.001312 -0.00121388 0.00923475 0.00795163 2650 
137 1 0.0034072 0.0423657 0.00244672 0.000847 0.0202347 0.0234308 -0.000934137 2650 
227 1 0.0154289 0.00354279 0.00441632 0.000847 -0.00376736 0.00204756 0.00605898 2650 
65 1 0.0163503 0.00596993 0.00335455 0.000233 -0.000819325 0.00806527 0.00625139 2650 
74 1 0.0029817 0.0185145 0.00333482 0.000847 -0.00423609 0.00905328 0.00538328 2650 
484 1 0.014874 0.0369212 0.00388157 0.001312 0.00311348 0.0236738 -0.0174853 2650 
474 1 0.0115975 0.0402643 0.00448298 0.000847 -0.00441382 0.0190776 0.000418652 2650 
73 1 0.015536 0.0410027 0.00345915 0.000847 0.00567631 0.0300939 -0.0232079 2650 
260 1 0.0139122 0.00264136 0.0060452 0.000233 -0.00699417 -0.00982098 0.00980998 2650 
368 1 0.0092658 0.0416613 0.0047662 0.000847 -0.0171767 0.0287922 0.0155752 2650 
38 1 0.00748685 0.0523176 0.00684325 0.000233 -0.0108563 0.0381487 0.00282041 2650 
188 1 0.00468633 0.0549528 0.00705666 0.000847 0.00797073 0.0304807 0.00488408 2650 
517 1 0.0110289 0.0726901 0.00775898 0.000233 0.0181759 0.0321577 -0.00941046 2650 
45 1 0.000306641 0.00096257 0.00790927 0.000847 0.00163238 -0.00231519 0.000146362 2650 
89 1 0.00570115 0.000882042 0.00827459 0.000233 0.00404946 -0.00420942 -0.00784504 2650 
514 1 0.0109695 0.0125863 0.00927264 0.000847 0.0058423 0.00402624 -0.00550066 2650 
457 1 0.0139174 0.0478989 0.00816387 8.4e-05 0.00801527 0.0347161 0.0147456 2650 
31 1 0.0140475 0.0686679 0.00910546 0.000847 0.0282009 0.0594548 -0.0186647 2650 
292 1 0.00869491 0.00035989 0.0100782 0.000847 0.000789497 -0.00762925 0.0146941 2650 
263 1 0.00115654 0.00207969 0.010709 0.001312 -0.00371433 -0.000137622 -0.00527791 2650 
381 1 0.0113998 0.00275379 0.0097143 0.000847 0.00456873 -0.00113554 -0.00529203 2650 
388 1 0.0122492 0.00361761 0.0102525 0.000233 -0.00599918 -0.00238884 0.011479 2650 
99 1 0.00266016 0.0105315 0.0104737 0.000847 -0.0106992 0.00731454 0.0102374 2650 
427 1 0.0108385 0.0305698 0.0101097 0.000233 -0.0064393 0.0307872 0.00793576 2650 
77 1 0.0100756 0.0537607 0.0107252 0.000233 0.0214475 0.0454594 -0.0171357 2650 
28 1 0.0135548 0.0546301 0.00988743 8.4e-05 -0.0125946 0.0413829 0.0159435 2650 
333 1 0.0103546 0.00589864 0.0118648 0.000847 0.00160109 -0.00125494 0.00802197 2650 
435 1 0.00164463 0.0391647 0.0122902 0.000847 0.000867591 0.0405585 -0.0228282 2650 
511 1 0.010782 0.0666552 0.0121307 0.000847 0.00778157 0.0479483 0.0987332 2650 
406 1 0.00738534 0.00380672 0.0135835 0.001312 0.0021518 0.000416082 -0.00123565 2650 
1 1 0.00489922 0.014014 0.0136486 0.001312 -0.00294948 0.00865571 -0.00178769 2650 
356 1 0.00913799 0.0342456 0.0132903 0.000847 -0.0213112 0.0208175 0.011163 2650 
233 1 0.0261026 0.0644477 0.0133844 0.000233 3.3343 0.101739 1.7287 2650 
39 1 0.00471277 0.0118524 0.0156479 0.000233 -0.007475 0.00316197 0.00139995 2650 
217 1 0.0012955 0.02095 0.0146992 0.000847 -0.00371392 0.0145111 -0.0123122 2650 
506 1 0.00733256 0.0414973 0.0149882 0.000233 -0.0161136 0.0230147 0.00769061 2650 
351 1 0.003125 0.0255597 0.0158925 0.000233 -0.0154134 -0.00320047 -0.00707598 2650 
3 1 0.0569367 0.0733095 0.0375405 0.000847 39.94 1.66019 -60.5451 2650 
235 1 0.000134152 0.0760502 -0.0163862 0.000233 0.028196 0.132575 -0.0448954 2650 
321 1 0.0141326 0.0906009 -0.00140107 0.000847 0.00588201 0.074253 -0.0242794 2650 
180 1 0.00358729 0.0921583 0.0136985 0.000233 0.00860892 0.0812149 0.00119763 2650 
177 1 0.00146395 0.075462 0.0681842 0.000847 88.265 5.5608 -1.8926 2650 
