ITEM: TIMESTEP
28189289
ITEM: NUMBER OF ATOMS
171
ITEM: BOX BOUNDS ff ff ff
-0.15 0.15
-0.15 0.15
-0.15 0.15
ITEM: ATOMS id type x y z radius vx vy vz density 
1222 1 -0.0452925 -0.0050997 -0.0518215 0.000175 -0.163862 -0.113897 0.143216 2650 
1033 1 -0.0601758 -0.0251478 -0.0336346 6.3e-05 -0.0861211 -0.501682 0.15407 2650 
101 1 -0.0588494 -0.0103215 -0.0303647 6.3e-05 0.416444 -0.460211 0.444442 2650 
571 1 -0.008585 -0.00325749 -0.010244 6.3e-05 0 -0.01175 0 2650 
261 1 -0.000427 -0.00280749 -0.006302 0.000175 0 -0.01175 0 2650 
665 1 -0.011804 -0.00299049 -0.002448 0.000175 0 -0.01175 0 2650 
558 1 -0.0124821 -0.00336595 0.00089486 0.000175 -0.887225 -0.0307203 0.0636066 2650 
1123 1 -0.0664033 -0.0303568 0.0181089 0.000175 -4.80487 -0.22502 -17.6161 2650 
1217 1 -0.0500334 -0.00494704 0.0455777 0.000175 -2.1959 -0.110965 1.69582 2650 
789 1 -0.00495279 0.0295948 -0.0160281 0.000175 -0.159834 -0.0134962 0.0281152 2650 
204 1 -0.00464604 0.0499747 -0.0157746 6.3e-05 -0.249872 -0.00931562 0.0668256 2650 
1257 1 -0.00681279 0.0158766 -0.0152283 0.000175 -0.159977 -0.0291007 0.0675129 2650 
1118 1 -0.00827633 0.0213094 -0.0146557 0.000175 -0.214415 -0.0544129 0.0888174 2650 
822 1 -0.00766492 0.0403523 -0.0148494 0.000175 -0.138445 0.0418374 0.0589077 2650 
1116 1 -0.00540604 0.0413228 -0.0153103 0.000635 -0.211914 0.0348064 0.0899949 2650 
679 1 -0.00381231 0.0473129 -0.0154628 0.000635 -0.0681573 0.067782 0.0175638 2650 
48 1 -0.00569318 0.0342237 -0.0140366 0.000635 -0.0504142 0.0288596 -0.00269972 2650 
1068 1 -0.00850647 0.0352295 -0.0134647 0.000984 -0.134202 -0.00211393 0.0998959 2650 
1221 1 -0.00917584 0.0592263 -0.0142318 0.000175 -0.033855 0.0389275 0.0143555 2650 
929 1 -0.0113455 0.0171565 -0.0123507 0.000175 -0.144787 0.0156215 0.107358 2650 
481 1 -2.42355e-05 0.0404244 -0.0125968 0.000635 -0.0389986 0.0246728 0.00946836 2650 
706 1 -0.0100146 0.072138 -0.0123031 0.000984 0.00434197 0.0549911 -0.0297133 2650 
897 1 -0.012158 0.0206378 -0.0111301 0.000175 -0.0240121 0.0251232 0.0322026 2650 
94 1 -0.0136167 0.0159695 -0.00985154 0.000175 -0.0942235 -0.0384184 0.155767 2650 
480 1 -0.0128747 0.0163288 -0.0099378 0.000635 -0.103851 -0.00171625 0.123931 2650 
380 1 -0.00914457 0.0258705 -0.010133 0.000635 -0.0217036 0.0269452 0.0538371 2650 
76 1 -0.0137167 0.0263941 -0.00888594 0.000635 -0.0578494 0.0587053 0.110278 2650 
344 1 -0.012794 0.0350421 -0.0095668 0.000984 -0.125213 -0.0409598 0.143202 2650 
719 1 -0.0138339 0.0225014 -0.00812173 0.000635 -0.0384585 0.00434631 0.090236 2650 
1186 1 -0.0152278 0.0291575 -0.00731295 0.000175 -0.0487672 0.0134438 0.0803111 2650 
1308 1 -0.014917 0.00367263 -0.00635811 0.000635 -0.0504722 0.00420912 0.094469 2650 
125 1 -0.0154437 0.00509686 -0.00634842 0.000175 -0.0927742 -0.000575737 0.172542 2650 
475 1 -0.0142902 0.0131833 -0.00688981 0.000984 -0.0791941 -0.00356938 0.148258 2650 
396 1 -0.0110968 0.0189856 -0.00636312 0.000175 -0.00499332 0.00687778 0.00838541 2650 
519 1 -0.01514 0.0293012 -0.00601594 0.000635 -0.0258323 0.0201813 0.106568 2650 
1289 1 -0.0155084 0.00412681 -0.00578178 0.000175 -0.0659817 -0.00608532 0.108287 2650 
945 1 -0.0133409 0.00473163 -0.00568572 0.000635 -0.0151567 -0.02623 0.0189773 2650 
176 1 -0.0155243 0.0219509 -0.00485935 0.000635 -0.0214877 0.0138978 0.081861 2650 
596 1 -0.00550593 0.0220805 -0.00499816 0.000175 0.0280648 -0.00406877 0.0283714 2650 
751 1 -0.00957661 0.0489672 -0.00547868 0.000635 -0.00774345 0.0357527 0.0110587 2650 
334 1 -0.0162111 0.010647 -0.00377593 0.000175 -0.0305932 -0.0389245 0.119712 2650 
1080 1 -0.0156045 0.0325048 -0.00436191 0.000635 -0.0415206 0.0255459 0.167189 2650 
1129 1 -0.0161469 0.00312664 -0.00292635 0.000175 0.00571832 -0.00159507 -0.000133852 2650 
610 1 -0.0157784 0.0215992 -0.00347336 0.000635 -0.0205146 0.00282485 0.0886402 2650 
162 1 -0.0156033 0.0277633 -0.00266189 0.000175 0.0224416 0.00576694 0.00323341 2650 
1232 1 -0.0167281 0.0221715 -0.00128875 6.3e-05 -0.0113759 -0.0338816 0.289201 2650 
1055 1 -0.0164992 0.0278466 -0.00173926 0.000175 -0.0286867 0.0136934 -0.00999794 2650 
947 1 -0.00689244 0.0416265 -0.00196209 0.000635 0.0141316 0.0234135 -0.00488716 2650 
495 1 -0.0072547 0.0430742 -0.0023937 0.000175 -0.0170681 0.0235121 0.0138596 2650 
772 1 -0.0158342 0.0151594 -0.000593489 0.000984 -0.00620954 -0.00823123 0.151023 2650 
254 1 -0.0161698 0.0360058 -0.000925892 0.000635 -0.00756123 0.00675122 0.184075 2650 
515 1 -0.0161489 0.0462161 -0.00102552 0.000635 -0.00699041 -0.0273146 0.164876 2650 
586 1 -0.00710012 0.0570798 -0.000951231 0.000635 0.00707695 0.0428764 -0.0065503 2650 
1026 1 -0.00553308 0.0426674 0.000147195 0.000175 0.0103473 0.0191405 -0.00360065 2650 
878 1 -0.0160495 0.0228338 0.00220021 0.000635 0.0323902 0.00367628 0.184253 2650 
937 1 -0.010327 0.0628906 0.0020138 0.000984 0.0199816 0.060124 -0.0122692 2650 
814 1 -0.0142038 0.0203184 0.00285018 0.000635 -0.0109392 0.0087546 -0.0146486 2650 
1110 1 -0.0122727 0.0561148 0.0026057 0.000635 0.013599 0.0155844 -0.024916 2650 
521 1 -0.0155082 0.0480267 0.00465085 0.000635 0.00233273 0.00997969 0.0500497 2650 
674 1 -0.00622271 0.0377009 0.00497429 0.000984 -0.0253574 0.0406966 -0.00310493 2650 
459 1 -0.0139487 0.0419767 0.00669368 0.000175 -0.00793476 0.0200022 -0.0296088 2650 
1059 1 -0.0149045 0.00611355 0.0073732 0.000175 0.0328165 -0.0352999 0.121065 2650 
372 1 -0.0144316 0.0103035 0.00789138 6.3e-05 -0.0106514 0.00351897 0.00342164 2650 
471 1 -0.00170105 0.0179595 0.00759861 6.3e-05 -0.0103771 0.015617 0.00514545 2650 
1256 1 -0.013191 0.0162833 0.010193 0.000175 0.116385 0.0124458 0.156184 2650 
924 1 -0.00470701 0.0175277 0.0105475 0.000175 0.0062608 0.0127381 0.0177113 2650 
516 1 -0.0079596 0.0235012 0.0106684 0.000635 0.0264587 0.00793558 0.0230126 2650 
777 1 -0.00574831 0.0468344 0.0110809 0.000635 -0.0273671 0.0317133 -0.0192385 2650 
805 1 -0.00817915 0.00897265 0.0135723 0.000984 0.231761 0.0483771 0.124724 2650 
1283 1 -0.00805254 0.0136817 0.0145854 0.000175 0.0717209 -0.0233675 0.0380842 2650 
969 1 -0.00348567 0.0221935 0.0145128 0.000984 0.0113305 -0.0254827 -0.00677848 2650 
494 1 -0.0077588 0.0405637 0.0147328 0.000175 0.316032 -0.0327749 0.169055 2650 
795 1 -0.00361781 0.045328 0.0155822 0.000175 -0.00736691 0.0315723 -0.0153288 2650 
1027 1 -0.00485237 0.0147802 0.0159379 0.000175 0.101307 0.0224367 0.0263603 2650 
107 1 -0.00457089 0.0225296 0.0156762 0.000635 0.0859849 0.0481232 0.0219706 2650 
67 1 -0.00399983 0.0852043 -0.00298702 6.3e-05 0.0157363 0.0601452 0.0103984 2650 
530 1 -0.00573437 0.0845444 -0.00159322 0.000175 0.00829209 0.0663841 -0.00884312 2650 
987 1 -0.0644383 0.0864922 -0.000269068 0.000175 -9.76339 -0.0211611 -0.0421253 2650 
1263 1 0.0610589 -0.0112799 -0.0320036 6.3e-05 0.0847091 -0.250566 0.161604 2650 
605 1 0.0659392 -0.0108696 -0.0201119 6.3e-05 0.0361175 -0.248472 0.118408 2650 
979 1 0.0683918 -0.00548696 -0.00145811 0.000635 3.51013 -7.75664 95.886 2650 
68 1 0.005451 -0.00224949 -0.001535 6.3e-05 0 -0.01175 0 2650 
27 1 0.012286 -0.00240049 0.001673 0.000175 0 -0.01175 0 2650 
863 1 0.0685523 -0.0427228 0.00615938 0.000175 0.659763 0.131224 -7.34182 2650 
579 1 0.00133289 -0.0018416 0.00682981 0.000635 -0.0277582 -0.00985479 0.000501318 2650 
1095 1 0.00766562 -0.00332251 0.00735318 0.000175 0.261267 -0.0203236 0.250618 2650 
225 1 0.0680794 -0.0160322 0.0101261 0.000175 0.0095402 -0.32697 -0.0641301 2650 
397 1 0.00298288 -0.00259862 0.0109753 0.000175 0.00753042 -0.00229356 -0.00954736 2650 
160 1 0.007407 -0.00258349 0.011422 0.000175 0 -0.01175 0 2650 
792 1 0.006737 -0.00294849 0.012733 0.000175 0 -0.01175 0 2650 
1223 1 0.0494297 -0.051622 0.0478921 0.000175 -5.62141 -0.465012 5.80051 2650 
568 1 0.0472891 -0.00615929 0.0500063 0.000175 0.159287 -0.149331 -0.150617 2650 
138 1 0.0435666 -0.0325798 0.0520898 0.000984 -58.7357 0.213414 65.0179 2650 
939 1 0.0130193 0.0573388 -0.0671808 0.000635 -150.747 1.94884 -29.2051 2650 
256 1 0.0588172 0.0641143 -0.0282142 0.000175 -6.57448 -0.164737 7.21497 2650 
511 1 0.00160779 0.0228391 -0.0161488 0.000635 -0.156836 -0.00674245 -0.00619201 2650 
222 1 0.003615 0.0235027 -0.0162599 0.000175 -0.158727 -0.00563265 -0.0391967 2650 
567 1 0.00555052 0.0301733 -0.0157818 0.000175 -0.204813 0.00144796 -0.050857 2650 
1073 1 0.00158827 0.0333768 -0.0161365 0.000635 -0.10039 0.0132447 -0.00384199 2650 
92 1 0.00584525 0.0471045 -0.0156345 0.000175 -0.0632418 0.0602352 -0.0166527 2650 
1269 1 0.00466077 0.00743164 -0.0147864 0.000635 0.0327283 0.000436978 0.0176373 2650 
278 1 0.00501978 0.0244339 -0.0154432 0.000635 -0.153772 -0.025327 -0.0378981 2650 
884 1 0.00674296 0.0287638 -0.0149236 0.000635 -0.0889719 0.040419 -0.0210014 2650 
472 1 0.00525048 0.0736827 -0.015473 6.3e-05 0.00995699 0.0515943 -0.0100183 2650 
399 1 0.00672636 0.00524129 -0.0139606 0.000175 -0.00635556 0.00148121 0.0147829 2650 
592 1 0.0100898 0.0161389 -0.0133462 0.000175 -0.0360143 0.0914598 -0.0324303 2650 
831 1 0.00753606 0.0263861 -0.0138957 0.000175 -0.00968171 0.0111781 0.0148078 2650 
1163 1 0.00302452 0.0580914 -0.0135417 0.000175 -0.0290529 0.0424267 -0.00349108 2650 
513 1 0.0108168 0.0262198 -0.0122091 0.000635 -0.123806 0.0029504 -0.1076 2650 
379 1 0.0101027 0.0439155 -0.0126838 0.000635 -0.222644 0.0492308 -0.193733 2650 
550 1 0.0113065 0.000292377 -0.0111105 0.000635 -0.0474232 -0.00206612 -0.0548644 2650 
55 1 0.0129841 0.0274328 -0.0105549 0.000175 -0.0860245 0.00602273 -0.11585 2650 
310 1 0.0064333 0.0146269 -0.0089888 0.000984 0.0422903 -0.00163485 0.0284854 2650 
622 1 0.00314114 0.00147854 -0.00767382 0.000635 0.0294614 0.000119388 0.00996033 2650 
507 1 0.00489595 0.0308401 -0.00734297 0.000984 -0.0269583 0.00968632 0.00784169 2650 
714 1 0.0144052 0.0390405 -0.00770233 0.000635 -0.0601464 -0.0159863 -0.0696552 2650 
1148 1 0.0091943 0.0233908 -0.00705597 0.000635 0.0286306 0.0112555 0.0215475 2650 
1072 1 0.0152289 0.0149692 -0.00485548 0.000635 -0.0213609 0.0206403 -0.0847395 2650 
701 1 0.00564977 0.0349564 -0.00495625 0.000175 -0.0189588 0.0238521 0.0209798 2650 
258 1 0.0158975 0.0518181 -0.0050337 0.000175 -0.0388043 0.0421972 -0.0885396 2650 
443 1 0.00807525 0.0579803 -0.00575562 0.000984 -0.00586939 0.0424349 0.0228489 2650 
337 1 0.000599172 0.0324435 -0.00321997 6.3e-05 -0.0195105 0.0228984 -0.0196122 2650 
565 1 0.001349 0.0655168 -0.00342954 0.000175 0.0290033 0.0352208 0.0224822 2650 
973 1 0.0160646 0.000679334 -0.00204408 0.000635 -0.0504262 0.0583124 -0.267204 2650 
320 1 0.00811473 0.00236535 -0.0016486 0.000635 0.00959752 -0.00295297 -0.0137221 2650 
517 1 0.014203 0.0108564 -0.00169591 0.000635 -0.0304234 -0.0371163 -0.0126771 2650 
781 1 0.0160939 0.0167733 -0.00194135 0.000635 -0.0236538 0.00196446 -0.132593 2650 
490 1 0.0161038 0.00232127 -0.00051255 0.000635 7.69892e-05 -0.00122471 0.0566045 2650 
715 1 0.00541815 0.00248675 -0.000995602 0.000635 0.0105001 -0.00342913 -0.0167707 2650 
980 1 0.0112503 0.0396569 -0.000947588 0.000635 0.0346606 0.02808 0.0123262 2650 
1065 1 0.0167573 0.00698189 5.72887e-05 6.3e-05 0.00775819 0.00272205 -0.182702 2650 
1193 1 0.0166349 0.00616317 0.00036197 0.000175 0.0113078 0.0506388 -0.266803 2650 
395 1 0.0163371 0.0512848 0.000234136 0.000175 -0.00370127 0.0549835 -0.103868 2650 
134 1 0.0166741 0.00527494 0.0020334 6.3e-05 0.00258892 -0.00134298 -0.0610575 2650 
760 1 0.0130219 0.0407077 0.00156244 0.000175 -0.0306518 0.0158822 0.0219356 2650 
1297 1 0.00660781 0.0361155 0.00287873 6.3e-05 -0.00864716 0.0425214 0.0211336 2650 
703 1 0.0163113 0.0411002 0.00402893 6.3e-05 0.0184258 0.0320407 -0.113341 2650 
615 1 0.0081664 0.0110249 0.00565028 0.000635 -0.00430015 -0.0289618 -0.00718513 2650 
577 1 0.00655698 0.0208169 0.0059983 0.000635 0.038358 -0.0148708 -0.00568463 2650 
1316 1 0.00688384 0.0250278 0.00497833 0.000175 -0.00915498 0.0232049 -0.00234329 2650 
333 1 0.0134086 0.0476219 0.00719188 0.000175 -0.0092147 0.0329588 0.0219324 2650 
700 1 0.0133951 0.0487021 0.00686121 0.000175 -0.00560715 0.0309823 -0.014591 2650 
698 1 0.0133323 0.0297387 0.00808885 0.000175 0.0389635 0.036641 -0.00942928 2650 
549 1 0.0136093 0.0126172 0.00868374 0.000635 0.0538581 0.0159965 -0.11962 2650 
52 1 0.00208604 0.0183085 0.00891665 0.000175 0.0251893 0.00487505 0.00431669 2650 
803 1 0.01437 0.0603385 0.00843103 6.3e-05 0.0249446 0.0301214 -0.0326828 2650 
373 1 0.01316 0.0337447 0.0105554 6.3e-05 0.143242 -0.025748 -0.164289 2650 
1164 1 0.0136507 0.0418364 0.00966619 6.3e-05 0.0677502 0.0334416 -0.0799143 2650 
808 1 0.0124223 0.0447101 0.0104141 0.000635 0.125993 0.0615016 -0.144542 2650 
440 1 0.0124156 0.0117607 0.0109287 6.3e-05 -0.0394271 -0.0151754 0.00220941 2650 
285 1 0.00278237 0.0306393 0.0109863 0.000635 0.025088 0.0264236 0.0249134 2650 
288 1 0.0118892 0.0308773 0.0109531 0.000635 0.0534224 -0.0682986 -0.0635033 2650 
336 1 0.010546 0.0179141 0.0126109 0.000175 0.0779487 0.036101 -0.0670962 2650 
1100 1 0.0107575 0.0507416 0.0127868 6.3e-05 0.0501245 0.0353832 -0.0376751 2650 
292 1 0.00894316 0.0140931 0.0141566 0.000175 -0.0138832 0.00472967 -0.0217579 2650 
1182 1 0.00442958 0.0442425 0.0141882 0.000635 0.0256157 0.0304217 0.0338843 2650 
505 1 0.00820751 0.0443808 0.0132973 6.3e-05 -0.0229035 0.0249654 0.00926785 2650 
232 1 0.0100656 0.0515094 0.0132508 0.000175 -0.0444199 0.0263612 0.0386016 2650 
316 1 0.00607304 0.0333317 0.0150691 0.000635 0.176064 -0.0240279 -0.0730406 2650 
685 1 0.00712021 0.0342242 0.0144906 0.000635 0.0925522 -0.0264311 -0.0401836 2650 
1187 1 0.0115438 0.0775015 -0.00472568 0.000175 -0.00560861 0.0717383 -0.0310336 2650 
1159 1 0.00550493 0.0883697 -0.00278766 0.000175 -0.0046315 0.0536518 -0.0283348 2650 
498 1 0.00103695 0.10495 -0.00321903 0.000175 0.00581767 0.0802475 -0.0300599 2650 
1097 1 0.00356151 0.0914202 0.00179955 0.000175 0.0029674 0.0682429 0.00574002 2650 
752 1 0.0160196 0.14608 0.0033069 0.000635 0.0360481 0.11806 0.0192317 2650 
773 1 0.00225125 0.0942314 0.0047713 0.000984 0.0146184 0.0524811 -0.0110739 2650 
268 1 0.00856107 0.0891056 0.00495016 0.000175 0.0277996 0.0486986 0.0135912 2650 
411 1 0.000735921 0.0753035 0.00762958 0.000984 8.93953e-05 0.0588757 0.0350071 2650 
280 1 0.00976848 0.101569 0.0103801 0.000635 0.0436904 0.185781 -0.00727459 2650 
572 1 0.000575629 0.110652 0.0103263 6.3e-05 0.00506827 0.0682336 0.0295527 2650 
273 1 0.00633875 0.104703 0.0216733 0.000984 0.652392 0.0573624 2.24211 2650 
