LIGGGHTS (Version LIGGGHTS-PUBLIC 3.8.0, compiled 2022-11-07-16:55:38 by serperd1, git commit 86544c3f1215bc9744d7929e3eacf53ba086af9e)
units si #
dimension 3 #
newton off #
boundary f f f #
atom_style sphere #
pair_style gran model hertz tangential history #
communicate single vel yes #
region outer_basket cylinder y 0 0 0.15 -0.15 0.15 #
create_box 3 outer_basket #
Created orthogonal box = (-0.15 -0.15 -0.15) to (0.15 0.15 0.15)
  2 by 4 by 5 MPI processor grid
variable my_omega equal 157.0796 #
fix cone_mesh all mesh/surface file cone.stl type 3 scale 1 #
fix rotating_wall_1 all move/mesh mesh cone_mesh rotate/variable origin 0 0 0 axis 0 1 0 omega v_my_omega #
fix filter_mesh_walls all wall/gran model hertz tangential history primitive type 2 ycylinder_filtermesh 0.069 0 0 2 12 -0.0628 0 0.016051 0.01395 0.11605 0.11395 shear x 10.8385 #

fix inlet_cyl_wall_mesh all mesh/surface file in_cyl.stl type 3 scale 1 #
fix top_cyl_wall_mesh all mesh/surface file top_cyl.stl type 3 scale 1 #
fix rotating_wall_4 all move/mesh mesh top_cyl_wall_mesh rotate/variable origin 0 0 0 axis 0 1 0 omega v_my_omega #
fix bot_cyl_wall_mesh all mesh/surface file bot_cyl.stl type 3 scale 1 #
fix rotating_wall_5 all move/mesh mesh bot_cyl_wall_mesh rotate/variable origin 0 0 0 axis 0 1 0 omega v_my_omega #
fix bot_disk_wall_mesh all mesh/surface file bottom_disk.stl type 3 scale 1 #
fix rotating_wall_6 all move/mesh mesh bot_disk_wall_mesh rotate/variable origin 0 0 0 axis 0 1 0 omega v_my_omega #
fix top_disk_wall_mesh all mesh/surface file top_disk.stl type 3 scale 1 #
fix rotating_wall_7 all move/mesh mesh top_disk_wall_mesh rotate/variable origin 0 0 0 axis 0 1 0 omega v_my_omega #
fix GMSH_mesh_walls all wall/gran model hertz tangential history mesh n_meshes 6 meshes cone_mesh top_cyl_wall_mesh bot_cyl_wall_mesh bot_disk_wall_mesh inlet_cyl_wall_mesh top_disk_wall_mesh #
fix Young_mod all property/global youngsModulus peratomtype 375000000 46000000 1000000000 #
fix Poisson_rat all property/global poissonsRatio peratomtype 0.32 0.42 0.29 #
fix Coeff_rest all property/global coefficientRestitution peratomtypepair 3 0.15 0.32 0.475 0.32 0.49 0.645 0.475 0.645 0.8 #
fix Coeff_fric all property/global coefficientFriction peratomtypepair 3 0.04 0.145 0.12 0.145 0.25 0.225 0.12 0.225 0.2 #

neighbor 0.00039366 bin #
neigh_modify delay 0 one 100000 page 5000000 #
fix r_0to10p all particletemplate/sphere 12345787 atom_type 1 density constant 2650 radius constant 6.3e-05 #
fix r_10to50p all particletemplate/sphere 15485863 atom_type 1 density constant 2650 radius constant 0.0001746 #
fix r_50to90p all particletemplate/sphere 15485867 atom_type 1 density constant 2650 radius constant 0.00063495 #
fix r_90to100p all particletemplate/sphere 32452843 atom_type 1 density constant 2650 radius constant 0.00098415 #
fix prob_par all particledistribution/discrete 32452867 4 r_0to10p 0.1 r_10to50p 0.4 r_50to90p 0.4 r_90to100p 0.1 #
pair_coeff * * #
timestep 4.86e-08 #

fix nve_group all nve/sphere #
fix grav_fix all gravity 6.1081 vector 0.017 -0.0033 0 -1 0 #
fix cent_fix all centrifugal 157.0796 0.017 -0.0033 0.069 #

variable step equal step #
variable mycount equal count(all) #
fix print_amount_of_atoms all print 25 "${step} ${mycount}" file numatoms.txt screen no #
run 0 #
Setting up run at Mon Jan  2 13:02:24 2023

Memory usage per processor = 955.842 Mbytes
    Step    Atoms         KinEng            CPU 
       0        0              0              0 
Loop time of 4.75631e-05 on 40 procs for 0 steps with 0 atoms, finish time Mon Jan  2 13:02:25 2023


Pair  time (%) = 0 (0)
Neigh time (%) = 0 (0)
Comm  time (%) = 0 (0)
Outpt time (%) = 0 (0)
Other time (%) = 4.75631e-05 (100)

Nlocal:    0 ave 0 max 0 min
Histogram: 40 0 0 0 0 0 0 0 0 0
Nghost:    0 ave 0 max 0 min
Histogram: 40 0 0 0 0 0 0 0 0 0
Neighs:    0 ave 0 max 0 min
Histogram: 40 0 0 0 0 0 0 0 0 0

Total # of neighbors = 0
Neighbor list builds = 0
Dangerous builds = 0
run 1 #
Setting up run at Mon Jan  2 13:02:25 2023

Memory usage per processor = 955.842 Mbytes
    Step    Atoms         KinEng            CPU 
       0        0              0              0 
       1        0              0    0.009692708 
Loop time of 0.00971119 on 40 procs for 1 steps with 0 atoms, finish time Mon Jan  2 13:02:25 2023


Pair  time (%) = 2.41095e-06 (0.0248265)
Neigh time (%) = 0 (0)
Comm  time (%) = 0.00026604 (2.73952)
Outpt time (%) = 0.000105475 (1.08612)
Other time (%) = 0.00933726 (96.1495)

Nlocal:    0 ave 0 max 0 min
Histogram: 40 0 0 0 0 0 0 0 0 0
Nghost:    0 ave 0 max 0 min
Histogram: 40 0 0 0 0 0 0 0 0 0
Neighs:    0 ave 0 max 0 min
Histogram: 40 0 0 0 0 0 0 0 0 0

Total # of neighbors = 0
Neighbor list builds = 0
Dangerous builds = 0
read_dump dump.atom_info_1 1 x y z radius vx vy vz box no add yes replace no #
  orthogonal box = (-0.15 -0.15 -0.15) to (0.15 0.15 0.15)
  0 atoms before read
  1331 atoms in snapshot
  0 atoms purged
  0 atoms replaced
  0 atoms trimmed
  1331 atoms added
  1331 atoms after read
set atom * type 1 density 2650 vy -0.01175 #
  1331 settings made for type
  1331 settings made for density
  1331 settings made for vy
run 1 #
Setting up run at Mon Jan  2 13:02:25 2023

Memory usage per processor = 960.195 Mbytes
    Step    Atoms         KinEng            CPU 
       1     1331    2.04396e-07              0 
       2     1331  2.5455856e-07    0.009191747 
Loop time of 0.0092037 on 40 procs for 1 steps with 1331 atoms, finish time Mon Jan  2 13:02:25 2023


Pair  time (%) = 2.62422e-06 (0.0285127)
Neigh time (%) = 0 (0)
Comm  time (%) = 6.2325e-06 (0.0677174)
Outpt time (%) = 0.00016878 (1.83383)
Other time (%) = 0.00902606 (98.0699)

Nlocal:    33.275 ave 555 max 0 min
Histogram: 36 0 2 0 0 0 0 0 0 2
Nghost:    13.575 ave 173 max 0 min
Histogram: 36 0 0 0 0 1 1 0 0 2
Neighs:    10.175 ave 168 max 0 min
Histogram: 36 0 2 0 0 0 0 0 0 2

Total # of neighbors = 407
Ave neighs/atom = 0.305785
Neighbor list builds = 0
Dangerous builds = 0
write_dump all custom dump.atom_info_ac_* id type x y z radius vx vy vz density #
run 205761
Setting up run at Mon Jan  2 13:02:25 2023

Memory usage per processor = 960.195 Mbytes
    Step    Atoms         KinEng            CPU 
       2     1331  2.5455856e-07              0 
  205763     1331  6.9273694e-05      2044.1086 
Loop time of 2044.11 on 40 procs for 205761 steps with 1331 atoms, finish time Mon Jan  2 13:36:29 2023


Pair  time (%) = 0.489942 (0.0239685)
Neigh time (%) = 0.415652 (0.0203342)
Comm  time (%) = 1.16511 (0.0569983)
Outpt time (%) = 0.000323163 (1.58095e-05)
Other time (%) = 2042.04 (99.8987)

Nlocal:    33.275 ave 551 max 0 min
Histogram: 36 0 2 0 0 0 0 0 0 2
Nghost:    13.8 ave 171 max 0 min
Histogram: 36 0 0 0 0 1 1 0 0 2
Neighs:    11.175 ave 191 max 0 min
Histogram: 36 1 1 0 0 0 0 0 1 1

Total # of neighbors = 447
Ave neighs/atom = 0.335838
Neighbor list builds = 550
Dangerous builds = 0
write_dump all custom dump.atom_info_ac_* id type x y z radius vx vy vz density #
run 205761
Setting up run at Mon Jan  2 13:36:29 2023

Memory usage per processor = 960.195 Mbytes
    Step    Atoms         KinEng            CPU 
  205763     1331  6.9273694e-05              0 
  411524     1331  0.00040217614      2053.5408 
Loop time of 2053.54 on 40 procs for 205761 steps with 1331 atoms, finish time Mon Jan  2 14:10:42 2023


Pair  time (%) = 0.494002 (0.0240561)
Neigh time (%) = 0.41475 (0.0201968)
Comm  time (%) = 1.20179 (0.0585228)
Outpt time (%) = 0.000702572 (3.42127e-05)
Other time (%) = 2051.43 (99.8972)

Nlocal:    33.275 ave 538 max 0 min
Histogram: 36 0 2 0 0 0 0 0 0 2
Nghost:    13.625 ave 169 max 0 min
Histogram: 36 0 0 0 0 1 1 0 0 2
Neighs:    11.725 ave 197 max 0 min
Histogram: 36 1 1 0 0 0 0 0 0 2

Total # of neighbors = 469
Ave neighs/atom = 0.352367
Neighbor list builds = 550
Dangerous builds = 0
write_dump all custom dump.atom_info_ac_* id type x y z radius vx vy vz density #
run 205761
Setting up run at Mon Jan  2 14:10:43 2023

Memory usage per processor = 960.195 Mbytes
    Step    Atoms         KinEng            CPU 
  411524     1331  0.00040217614              0 
  617285     1331  0.00067128357      2042.1675 
Loop time of 2042.17 on 40 procs for 205761 steps with 1331 atoms, finish time Mon Jan  2 14:44:45 2023


Pair  time (%) = 0.499283 (0.0244487)
Neigh time (%) = 0.416918 (0.0204155)
Comm  time (%) = 1.22141 (0.0598095)
Outpt time (%) = 0.000359405 (1.75992e-05)
Other time (%) = 2040.03 (99.8953)

Nlocal:    33.275 ave 522 max 0 min
Histogram: 36 0 2 0 0 0 0 0 0 2
Nghost:    13.05 ave 158 max 0 min
Histogram: 36 0 0 0 0 0 1 1 0 2
Neighs:    11.9 ave 190 max 0 min
Histogram: 36 0 2 0 0 0 0 0 0 2

Total # of neighbors = 476
Ave neighs/atom = 0.357626
Neighbor list builds = 550
Dangerous builds = 0
write_dump all custom dump.atom_info_ac_* id type x y z radius vx vy vz density #
run 205761
Setting up run at Mon Jan  2 14:44:45 2023

Memory usage per processor = 960.195 Mbytes
    Step    Atoms         KinEng            CPU 
  617285     1331  0.00067128357              0 
  823046     1331   0.0026852334      2051.5125 
Loop time of 2051.55 on 40 procs for 205761 steps with 1331 atoms, finish time Mon Jan  2 15:18:57 2023


Pair  time (%) = 0.503009 (0.0245185)
Neigh time (%) = 0.87582 (0.0426908)
Comm  time (%) = 1.81281 (0.0883631)
Outpt time (%) = 0.000689246 (3.35964e-05)
Other time (%) = 2048.35 (99.8444)

Nlocal:    33.275 ave 512 max 0 min
Histogram: 36 0 1 1 0 0 0 0 0 2
Nghost:    12.925 ave 161 max 0 min
Histogram: 36 0 0 0 0 1 1 0 0 2
Neighs:    12.525 ave 202 max 0 min
Histogram: 36 0 2 0 0 0 0 0 0 2

Total # of neighbors = 501
Ave neighs/atom = 0.376409
Neighbor list builds = 1110
Dangerous builds = 0
write_dump all custom dump.atom_info_ac_* id type x y z radius vx vy vz density #
run 205761
Setting up run at Mon Jan  2 15:18:57 2023

Memory usage per processor = 960.195 Mbytes
    Step    Atoms         KinEng            CPU 
  823046     1331   0.0026852334              0 
 1028807     1329  0.00095830445       2042.031 
Loop time of 2042.03 on 40 procs for 205761 steps with 1329 atoms, finish time Mon Jan  2 15:52:59 2023


Pair  time (%) = 0.498999 (0.0244364)
Neigh time (%) = 0.533767 (0.026139)
Comm  time (%) = 1.44644 (0.0708335)
Outpt time (%) = 0.000352831 (1.72784e-05)
Other time (%) = 2039.55 (99.8786)

Nlocal:    33.225 ave 498 max 0 min
Histogram: 36 0 1 1 0 0 0 0 0 2
Nghost:    12.25 ave 159 max 0 min
Histogram: 36 0 0 0 0 1 1 0 0 2
Neighs:    12.675 ave 194 max 0 min
Histogram: 36 0 1 1 0 0 0 0 0 2

Total # of neighbors = 507
Ave neighs/atom = 0.38149
Neighbor list builds = 694
Dangerous builds = 81
write_dump all custom dump.atom_info_ac_* id type x y z radius vx vy vz density #
run 205761
Setting up run at Mon Jan  2 15:52:59 2023

Memory usage per processor = 960.195 Mbytes
    Step    Atoms         KinEng            CPU 
 1028807     1329  0.00095830445              0 
 1234568     1327  0.00098320626       2055.949 
Loop time of 2055.95 on 40 procs for 205761 steps with 1327 atoms, finish time Mon Jan  2 16:27:15 2023


Pair  time (%) = 0.510945 (0.024852)
Neigh time (%) = 2.01363 (0.0979414)
Comm  time (%) = 2.62206 (0.127535)
Outpt time (%) = 0.000664768 (3.23339e-05)
Other time (%) = 2050.8 (99.7496)

Nlocal:    33.175 ave 496 max 0 min
Histogram: 36 0 1 1 0 0 0 0 0 2
Nghost:    11.7 ave 155 max 0 min
Histogram: 36 0 0 0 0 2 0 0 1 1
Neighs:    11.875 ave 183 max 0 min
Histogram: 36 0 1 1 0 0 0 0 0 2

Total # of neighbors = 475
Ave neighs/atom = 0.35795
Neighbor list builds = 2523
Dangerous builds = 3
write_dump all custom dump.atom_info_ac_* id type x y z radius vx vy vz density #
run 205761
Setting up run at Mon Jan  2 16:27:15 2023

Memory usage per processor = 960.195 Mbytes
    Step    Atoms         KinEng            CPU 
 1234568     1327  0.00098320626              0 
 1440329     1324    0.032798704       2067.652 
Loop time of 2067.68 on 40 procs for 205761 steps with 1324 atoms, finish time Mon Jan  2 17:01:42 2023


Pair  time (%) = 0.517626 (0.0250341)
Neigh time (%) = 3.15553 (0.152612)
Comm  time (%) = 3.71252 (0.17955)
Outpt time (%) = 0.000670507 (3.24279e-05)
Other time (%) = 2060.3 (99.6428)

Nlocal:    33.1 ave 490 max 0 min
Histogram: 36 0 1 1 0 0 0 0 0 2
Nghost:    11.075 ave 140 max 0 min
Histogram: 36 0 0 0 0 1 1 0 0 2
Neighs:    11.925 ave 180 max 0 min
Histogram: 36 0 0 1 1 0 0 0 0 2

Total # of neighbors = 477
Ave neighs/atom = 0.360272
Neighbor list builds = 3924
Dangerous builds = 83
write_dump all custom dump.atom_info_ac_* id type x y z radius vx vy vz density #
run 205761
Setting up run at Mon Jan  2 17:01:43 2023

Memory usage per processor = 960.195 Mbytes
    Step    Atoms         KinEng            CPU 
 1440329     1324    0.032798704              0 
 1646090     1319    0.046794357      2086.2537 
Loop time of 2086.25 on 40 procs for 205761 steps with 1319 atoms, finish time Mon Jan  2 17:36:29 2023


Pair  time (%) = 0.516537 (0.0247591)
Neigh time (%) = 3.80268 (0.182273)
Comm  time (%) = 3.65284 (0.175091)
Outpt time (%) = 0.00068362 (3.27678e-05)
Other time (%) = 2078.28 (99.6178)

Nlocal:    32.975 ave 487 max 0 min
Histogram: 36 0 1 1 0 0 0 0 0 2
Nghost:    10.65 ave 135 max 0 min
Histogram: 36 0 0 0 0 1 1 0 0 2
Neighs:    11.7 ave 178 max 0 min
Histogram: 36 0 0 2 0 0 0 0 0 2

Total # of neighbors = 468
Ave neighs/atom = 0.354814
Neighbor list builds = 4688
Dangerous builds = 134
write_dump all custom dump.atom_info_ac_* id type x y z radius vx vy vz density #
run 205761
Setting up run at Mon Jan  2 17:36:29 2023

Memory usage per processor = 960.195 Mbytes
    Step    Atoms         KinEng            CPU 
 1646090     1319    0.046794357              0 
 1851851     1312    0.031553622      2159.9332 
Loop time of 2159.93 on 40 procs for 205761 steps with 1312 atoms, finish time Mon Jan  2 18:12:29 2023


Pair  time (%) = 0.516221 (0.0238999)
Neigh time (%) = 4.6646 (0.21596)
Comm  time (%) = 4.66294 (0.215883)
Outpt time (%) = 0.000641721 (2.97102e-05)
Other time (%) = 2150.09 (99.5442)

Nlocal:    32.8 ave 485 max 0 min
Histogram: 36 0 2 0 0 0 0 0 0 2
Nghost:    10.4 ave 139 max 0 min
Histogram: 36 0 0 0 0 2 0 0 1 1
Neighs:    11.625 ave 178 max 0 min
Histogram: 36 0 0 2 0 0 0 0 0 2

Total # of neighbors = 465
Ave neighs/atom = 0.354421
Neighbor list builds = 5762
Dangerous builds = 509
write_dump all custom dump.atom_info_ac_* id type x y z radius vx vy vz density #
run 205761
Setting up run at Mon Jan  2 18:12:29 2023

Memory usage per processor = 960.195 Mbytes
    Step    Atoms         KinEng            CPU 
 1851851     1312    0.031553622              0 
 2057612     1300    0.055643398      2107.9129 
Loop time of 2107.91 on 40 procs for 205761 steps with 1300 atoms, finish time Mon Jan  2 18:47:37 2023


Pair  time (%) = 0.508772 (0.0241363)
Neigh time (%) = 4.45712 (0.211447)
Comm  time (%) = 6.35699 (0.301577)
Outpt time (%) = 0.000542847 (2.57528e-05)
Other time (%) = 2096.59 (99.4628)

Nlocal:    32.5 ave 480 max 0 min
Histogram: 36 0 2 0 0 0 0 0 0 2
Nghost:    10.375 ave 136 max 0 min
Histogram: 36 0 0 0 0 1 1 0 1 1
Neighs:    11.2 ave 176 max 0 min
Histogram: 36 0 0 2 0 0 0 0 0 2

Total # of neighbors = 448
Ave neighs/atom = 0.344615
Neighbor list builds = 5533
Dangerous builds = 893
write_dump all custom dump.atom_info_ac_* id type x y z radius vx vy vz density #
run 205761
Setting up run at Mon Jan  2 18:47:37 2023

Memory usage per processor = 960.195 Mbytes
    Step    Atoms         KinEng            CPU 
 2057612     1300    0.055643398              0 
 2263373     1287     0.13051131      2148.7775 
Loop time of 2148.78 on 40 procs for 205761 steps with 1287 atoms, finish time Mon Jan  2 19:23:26 2023


Pair  time (%) = 0.505646 (0.0235318)
Neigh time (%) = 6.8404 (0.318339)
Comm  time (%) = 7.36747 (0.342868)
Outpt time (%) = 0.000650021 (3.02507e-05)
Other time (%) = 2134.06 (99.3152)

Nlocal:    32.175 ave 477 max 0 min
Histogram: 36 0 2 0 0 0 0 0 0 2
Nghost:    10.1 ave 126 max 0 min
Histogram: 36 0 0 0 0 1 1 0 0 2
Neighs:    10.65 ave 170 max 0 min
Histogram: 36 0 1 1 0 0 0 0 0 2

Total # of neighbors = 426
Ave neighs/atom = 0.331002
Neighbor list builds = 8385
Dangerous builds = 208
write_dump all custom dump.atom_info_ac_* id type x y z radius vx vy vz density #
run 205761
Setting up run at Mon Jan  2 19:23:26 2023

Memory usage per processor = 960.195 Mbytes
    Step    Atoms         KinEng            CPU 
 2263373     1287     0.13051131              0 
 2469134     1268    0.085445197      2101.4464 
Loop time of 2101.45 on 40 procs for 205761 steps with 1268 atoms, finish time Mon Jan  2 19:58:27 2023


Pair  time (%) = 0.506656 (0.0241098)
Neigh time (%) = 7.22497 (0.343809)
Comm  time (%) = 9.75392 (0.464152)
Outpt time (%) = 0.00410853 (0.00019551)
Other time (%) = 2083.96 (99.1677)

Nlocal:    31.7 ave 480 max 0 min
Histogram: 36 0 2 0 0 0 0 0 0 2
Nghost:    9.6 ave 124 max 0 min
Histogram: 36 0 0 0 0 0 2 1 0 1
Neighs:    10.8 ave 176 max 0 min
Histogram: 36 1 1 0 0 0 0 0 0 2

Total # of neighbors = 432
Ave neighs/atom = 0.340694
Neighbor list builds = 8904
Dangerous builds = 1376
write_dump all custom dump.atom_info_ac_* id type x y z radius vx vy vz density #
run 205761
Setting up run at Mon Jan  2 19:58:27 2023

Memory usage per processor = 960.195 Mbytes
    Step    Atoms         KinEng            CPU 
 2469134     1268    0.085445197              0 
 2674895     1253     0.15337023      2101.1394 
Loop time of 2101.14 on 40 procs for 205761 steps with 1253 atoms, finish time Mon Jan  2 20:33:29 2023


Pair  time (%) = 0.5079 (0.0241726)
Neigh time (%) = 7.10522 (0.33816)
Comm  time (%) = 8.12793 (0.386835)
Outpt time (%) = 0.000677495 (3.22442e-05)
Other time (%) = 2085.4 (99.2508)

Nlocal:    31.325 ave 481 max 0 min
Histogram: 36 0 2 0 0 0 0 0 0 2
Nghost:    9.325 ave 114 max 0 min
Histogram: 36 0 0 0 0 0 2 0 1 1
Neighs:    10.5 ave 180 max 0 min
Histogram: 36 1 1 0 0 0 0 0 1 1

Total # of neighbors = 420
Ave neighs/atom = 0.335196
Neighbor list builds = 8725
Dangerous builds = 710
write_dump all custom dump.atom_info_ac_* id type x y z radius vx vy vz density #
run 205761
Setting up run at Mon Jan  2 20:33:29 2023

Memory usage per processor = 960.195 Mbytes
    Step    Atoms         KinEng            CPU 
 2674895     1253     0.15337023              0 
 2880656     1233    0.069919868      2116.6134 
Loop time of 2116.61 on 40 procs for 205761 steps with 1233 atoms, finish time Mon Jan  2 21:08:45 2023


Pair  time (%) = 0.512778 (0.0242263)
Neigh time (%) = 8.73322 (0.412603)
Comm  time (%) = 8.5025 (0.401703)
Outpt time (%) = 0.000609836 (2.88119e-05)
Other time (%) = 2098.86 (99.1614)

Nlocal:    30.825 ave 486 max 0 min
Histogram: 36 0 2 0 0 0 0 0 0 2
Nghost:    9.025 ave 112 max 0 min
Histogram: 36 0 0 0 0 0 1 1 1 1
Neighs:    10.425 ave 182 max 0 min
Histogram: 36 1 1 0 0 0 0 0 1 1

Total # of neighbors = 417
Ave neighs/atom = 0.3382
Neighbor list builds = 10754
Dangerous builds = 1853
write_dump all custom dump.atom_info_ac_* id type x y z radius vx vy vz density #
run 205761
Setting up run at Mon Jan  2 21:08:45 2023

Memory usage per processor = 960.195 Mbytes
    Step    Atoms         KinEng            CPU 
 2880656     1233    0.069919868              0 
 3086417     1220     0.13433644      2094.1014 
Loop time of 2094.1 on 40 procs for 205761 steps with 1220 atoms, finish time Mon Jan  2 21:43:39 2023


Pair  time (%) = 0.506264 (0.0241757)
Neigh time (%) = 7.18638 (0.343172)
Comm  time (%) = 9.09516 (0.434323)
Outpt time (%) = 0.000586093 (2.79878e-05)
Other time (%) = 2077.31 (99.1983)

Nlocal:    30.5 ave 492 max 0 min
Histogram: 36 0 2 0 0 0 0 0 1 1
Nghost:    9.125 ave 116 max 0 min
Histogram: 36 0 0 0 0 0 2 0 1 1
Neighs:    9.75 ave 172 max 0 min
Histogram: 36 1 1 0 0 0 0 0 0 2

Total # of neighbors = 390
Ave neighs/atom = 0.319672
Neighbor list builds = 8812
Dangerous builds = 577
write_dump all custom dump.atom_info_ac_* id type x y z radius vx vy vz density #
run 205761
Setting up run at Mon Jan  2 21:43:39 2023

Memory usage per processor = 960.195 Mbytes
    Step    Atoms         KinEng            CPU 
 3086417     1220     0.13433644              0 
 3292178     1207     0.15097633      2118.1767 
Loop time of 2118.18 on 40 procs for 205761 steps with 1207 atoms, finish time Mon Jan  2 22:18:58 2023


Pair  time (%) = 0.51066 (0.0241085)
Neigh time (%) = 9.00361 (0.425064)
Comm  time (%) = 12.07 (0.569831)
Outpt time (%) = 0.000690743 (3.26103e-05)
Other time (%) = 2096.59 (98.981)

Nlocal:    30.175 ave 489 max 0 min
Histogram: 36 0 2 0 0 0 0 0 1 1
Nghost:    9.125 ave 115 max 0 min
Histogram: 36 0 0 0 0 0 2 1 0 1
Neighs:    9.375 ave 159 max 0 min
Histogram: 36 1 1 0 0 0 0 0 0 2

Total # of neighbors = 375
Ave neighs/atom = 0.310688
Neighbor list builds = 10996
Dangerous builds = 120
write_dump all custom dump.atom_info_ac_* id type x y z radius vx vy vz density #
run 205761
Setting up run at Mon Jan  2 22:18:58 2023

Memory usage per processor = 960.195 Mbytes
    Step    Atoms         KinEng            CPU 
 3292178     1207     0.15097633              0 
 3497939     1194     0.11580093       2120.197 
Loop time of 2120.2 on 40 procs for 205761 steps with 1194 atoms, finish time Mon Jan  2 22:54:18 2023


Pair  time (%) = 0.5069 (0.0239081)
Neigh time (%) = 9.23529 (0.435586)
Comm  time (%) = 11.7747 (0.555358)
Outpt time (%) = 0.00064383 (3.03665e-05)
Other time (%) = 2098.68 (98.9851)

Nlocal:    29.85 ave 479 max 0 min
Histogram: 36 0 2 0 0 0 0 0 0 2
Nghost:    8.8 ave 107 max 0 min
Histogram: 36 0 0 0 0 0 1 1 1 1
Neighs:    9.8 ave 180 max 0 min
Histogram: 36 2 0 0 0 0 0 0 1 1

Total # of neighbors = 392
Ave neighs/atom = 0.328308
Neighbor list builds = 11288
Dangerous builds = 739
write_dump all custom dump.atom_info_ac_* id type x y z radius vx vy vz density #
run 205761
Setting up run at Mon Jan  2 22:54:18 2023

Memory usage per processor = 960.195 Mbytes
    Step    Atoms         KinEng            CPU 
 3497939     1194     0.11580093              0 
 3703700     1172    0.087969964      2099.4929 
Loop time of 2099.49 on 40 procs for 205761 steps with 1172 atoms, finish time Mon Jan  2 23:29:18 2023


Pair  time (%) = 0.497719 (0.0237066)
Neigh time (%) = 7.48622 (0.356573)
Comm  time (%) = 8.65681 (0.412329)
Outpt time (%) = 0.000723967 (3.44829e-05)
Other time (%) = 2082.85 (99.2074)

Nlocal:    29.3 ave 464 max 0 min
Histogram: 36 0 2 0 0 0 0 0 0 2
Nghost:    8.55 ave 99 max 0 min
Histogram: 36 0 0 0 0 0 1 1 0 2
Neighs:    9.35 ave 173 max 0 min
Histogram: 36 2 0 0 0 0 0 0 1 1

Total # of neighbors = 374
Ave neighs/atom = 0.319113
Neighbor list builds = 9141
Dangerous builds = 445
write_dump all custom dump.atom_info_ac_* id type x y z radius vx vy vz density #
run 205761
Setting up run at Mon Jan  2 23:29:18 2023

Memory usage per processor = 960.195 Mbytes
    Step    Atoms         KinEng            CPU 
 3703700     1172    0.087969964              0 
 3909461     1162     0.13738827      2111.9135 
Loop time of 2111.93 on 40 procs for 205761 steps with 1162 atoms, finish time Tue Jan  3 00:04:30 2023


Pair  time (%) = 0.494565 (0.0234177)
Neigh time (%) = 7.82413 (0.370472)
Comm  time (%) = 9.14961 (0.433234)
Outpt time (%) = 0.000650507 (3.08015e-05)
Other time (%) = 2094.46 (99.1728)

Nlocal:    29.05 ave 458 max 0 min
Histogram: 36 0 2 0 0 0 0 0 0 2
Nghost:    8.375 ave 102 max 0 min
Histogram: 36 0 0 0 0 0 2 0 1 1
Neighs:    8.525 ave 161 max 0 min
Histogram: 36 1 1 0 0 0 0 1 0 1

Total # of neighbors = 341
Ave neighs/atom = 0.29346
Neighbor list builds = 9519
Dangerous builds = 56
write_dump all custom dump.atom_info_ac_* id type x y z radius vx vy vz density #
run 205761
Setting up run at Tue Jan  3 00:04:30 2023

Memory usage per processor = 960.195 Mbytes
    Step    Atoms         KinEng            CPU 
 3909461     1162     0.13738827              0 
 4115222     1151     0.11547559      2093.0515 
Loop time of 2093.05 on 40 procs for 205761 steps with 1151 atoms, finish time Tue Jan  3 00:39:23 2023


Pair  time (%) = 0.486556 (0.0232462)
Neigh time (%) = 5.84792 (0.279397)
Comm  time (%) = 7.71479 (0.368591)
Outpt time (%) = 0.000666462 (3.18417e-05)
Other time (%) = 2079 (99.3287)

Nlocal:    28.775 ave 448 max 0 min
Histogram: 36 0 2 0 0 0 0 0 0 2
Nghost:    8.475 ave 100 max 0 min
Histogram: 36 0 0 0 0 0 2 0 1 1
Neighs:    6.975 ave 135 max 0 min
Histogram: 36 1 1 0 0 0 1 0 0 1

Total # of neighbors = 279
Ave neighs/atom = 0.242398
Neighbor list builds = 7157
Dangerous builds = 138
write_dump all custom dump.atom_info_ac_* id type x y z radius vx vy vz density #
run 205761
Setting up run at Tue Jan  3 00:39:23 2023

Memory usage per processor = 960.195 Mbytes
    Step    Atoms         KinEng            CPU 
 4115222     1151     0.11547559              0 
 4320983     1140     0.22298807      2099.5114 
Loop time of 2099.51 on 40 procs for 205761 steps with 1140 atoms, finish time Tue Jan  3 01:14:22 2023


Pair  time (%) = 0.483321 (0.0230206)
Neigh time (%) = 7.35907 (0.350513)
Comm  time (%) = 8.46648 (0.403259)
Outpt time (%) = 0.000565686 (2.69437e-05)
Other time (%) = 2083.2 (99.2232)

Nlocal:    28.5 ave 448 max 0 min
Histogram: 36 0 2 0 0 0 0 0 0 2
Nghost:    7.975 ave 100 max 0 min
Histogram: 36 0 0 0 0 0 2 0 1 1
Neighs:    7.4 ave 144 max 0 min
Histogram: 36 2 0 0 0 0 0 1 0 1

Total # of neighbors = 296
Ave neighs/atom = 0.259649
Neighbor list builds = 8994
Dangerous builds = 153
write_dump all custom dump.atom_info_ac_* id type x y z radius vx vy vz density #
run 205761
Setting up run at Tue Jan  3 01:14:22 2023

Memory usage per processor = 960.195 Mbytes
    Step    Atoms         KinEng            CPU 
 4320983     1140     0.22298807              0 
 4526744     1123    0.075703621       2098.007 
Loop time of 2098.01 on 40 procs for 205761 steps with 1123 atoms, finish time Tue Jan  3 01:49:20 2023


Pair  time (%) = 0.483463 (0.0230439)
Neigh time (%) = 7.54297 (0.35953)
Comm  time (%) = 10.7304 (0.511457)
Outpt time (%) = 0.000710768 (3.38783e-05)
Other time (%) = 2079.25 (99.1059)

Nlocal:    28.075 ave 439 max 0 min
Histogram: 36 0 2 0 0 0 0 0 0 2
Nghost:    7.875 ave 94 max 0 min
Histogram: 36 0 0 0 0 1 1 0 0 2
Neighs:    7.025 ave 132 max 0 min
Histogram: 36 1 1 0 0 0 0 1 0 1

Total # of neighbors = 281
Ave neighs/atom = 0.250223
Neighbor list builds = 9271
Dangerous builds = 1375
write_dump all custom dump.atom_info_ac_* id type x y z radius vx vy vz density #
run 205761
Setting up run at Tue Jan  3 01:49:20 2023

Memory usage per processor = 960.195 Mbytes
    Step    Atoms         KinEng            CPU 
 4526744     1123    0.075703621              0 
 4732505     1105     0.17987976      2107.2093 
Loop time of 2107.21 on 40 procs for 205761 steps with 1105 atoms, finish time Tue Jan  3 02:24:28 2023


Pair  time (%) = 0.479458 (0.0227532)
Neigh time (%) = 7.03327 (0.333771)
Comm  time (%) = 9.19586 (0.4364)
Outpt time (%) = 0.000726833 (3.44927e-05)
Other time (%) = 2090.5 (99.207)

Nlocal:    27.625 ave 415 max 0 min
Histogram: 36 0 2 0 0 0 0 0 0 2
Nghost:    7.35 ave 94 max 0 min
Histogram: 36 0 0 0 0 1 1 0 0 2
Neighs:    6.45 ave 125 max 0 min
Histogram: 37 0 1 0 0 0 0 1 0 1

Total # of neighbors = 258
Ave neighs/atom = 0.233484
Neighbor list builds = 8611
Dangerous builds = 586
write_dump all custom dump.atom_info_ac_* id type x y z radius vx vy vz density #
run 205761
Setting up run at Tue Jan  3 02:24:28 2023

Memory usage per processor = 960.195 Mbytes
    Step    Atoms         KinEng            CPU 
 4732505     1105     0.17987976              0 
 4938266     1086     0.17113137       2092.923 
Loop time of 2092.92 on 40 procs for 205761 steps with 1086 atoms, finish time Tue Jan  3 02:59:21 2023


Pair  time (%) = 0.476993 (0.0227907)
Neigh time (%) = 6.6702 (0.318703)
Comm  time (%) = 9.82105 (0.46925)
Outpt time (%) = 0.000699711 (3.34322e-05)
Other time (%) = 2075.95 (99.1892)

Nlocal:    27.15 ave 405 max 0 min
Histogram: 36 0 2 0 0 0 0 0 0 2
Nghost:    6.9 ave 84 max 0 min
Histogram: 36 0 0 0 0 1 1 0 0 2
Neighs:    5.175 ave 111 max 0 min
Histogram: 36 2 0 0 0 0 1 0 0 1

Total # of neighbors = 207
Ave neighs/atom = 0.190608
Neighbor list builds = 8151
Dangerous builds = 16
write_dump all custom dump.atom_info_ac_* id type x y z radius vx vy vz density #
run 205761
Setting up run at Tue Jan  3 02:59:21 2023

Memory usage per processor = 960.195 Mbytes
    Step    Atoms         KinEng            CPU 
 4938266     1086     0.17113137              0 
 5144027     1070      1.4529853      2114.2316 
Loop time of 2114.24 on 40 procs for 205761 steps with 1070 atoms, finish time Tue Jan  3 03:34:35 2023


Pair  time (%) = 0.46583 (0.0220329)
Neigh time (%) = 8.79712 (0.416089)
Comm  time (%) = 14.4817 (0.68496)
Outpt time (%) = 0.02279 (0.00107793)
Other time (%) = 2090.48 (98.8758)

Nlocal:    26.75 ave 410 max 0 min
Histogram: 36 0 2 0 0 0 0 0 1 1
Nghost:    6.75 ave 84 max 0 min
Histogram: 36 0 0 0 0 2 0 0 1 1
Neighs:    4.825 ave 106 max 0 min
Histogram: 37 1 0 0 0 0 1 0 0 1

Total # of neighbors = 193
Ave neighs/atom = 0.180374
Neighbor list builds = 10751
Dangerous builds = 9
write_dump all custom dump.atom_info_ac_* id type x y z radius vx vy vz density #
run 205761
Setting up run at Tue Jan  3 03:34:35 2023

Memory usage per processor = 960.195 Mbytes
    Step    Atoms         KinEng            CPU 
 5144027     1070      1.4529853              0 
 5349788     1042     0.30470521      2113.2452 
Loop time of 2113.25 on 40 procs for 205761 steps with 1042 atoms, finish time Tue Jan  3 04:09:49 2023


Pair  time (%) = 0.462361 (0.0218792)
Neigh time (%) = 9.34618 (0.442267)
Comm  time (%) = 18.84 (0.891519)
Outpt time (%) = 0.000545751 (2.58253e-05)
Other time (%) = 2084.6 (98.6443)

Nlocal:    26.05 ave 400 max 0 min
Histogram: 36 0 2 0 0 0 0 0 1 1
Nghost:    6.05 ave 74 max 0 min
Histogram: 36 0 0 0 0 2 0 0 0 2
Neighs:    4.825 ave 95 max 0 min
Histogram: 37 0 1 0 0 0 0 1 0 1

Total # of neighbors = 193
Ave neighs/atom = 0.185221
Neighbor list builds = 11390
Dangerous builds = 915
write_dump all custom dump.atom_info_ac_* id type x y z radius vx vy vz density #
run 205761
Setting up run at Tue Jan  3 04:09:49 2023

Memory usage per processor = 960.195 Mbytes
    Step    Atoms         KinEng            CPU 
 5349788     1042     0.30470521              0 
 5555549     1019     0.23808186      2106.2832 
Loop time of 2106.28 on 40 procs for 205761 steps with 1019 atoms, finish time Tue Jan  3 04:44:55 2023


Pair  time (%) = 0.453738 (0.0215421)
Neigh time (%) = 7.65591 (0.36348)
Comm  time (%) = 13.121 (0.622947)
Outpt time (%) = 0.000752561 (3.57293e-05)
Other time (%) = 2085.05 (98.992)

Nlocal:    25.475 ave 377 max 0 min
Histogram: 36 0 2 0 0 0 0 0 0 2
Nghost:    6.25 ave 86 max 0 min
Histogram: 36 0 0 0 2 0 0 0 1 1
Neighs:    4.15 ave 80 max 0 min
Histogram: 37 1 0 0 0 0 0 0 1 1

Total # of neighbors = 166
Ave neighs/atom = 0.162905
Neighbor list builds = 9321
Dangerous builds = 368
write_dump all custom dump.atom_info_ac_* id type x y z radius vx vy vz density #
run 205761
Setting up run at Tue Jan  3 04:44:55 2023

Memory usage per processor = 960.195 Mbytes
    Step    Atoms         KinEng            CPU 
 5555549     1019     0.23808186              0 
 5761310      994     0.23122553      2104.4756 
Loop time of 2104.48 on 40 procs for 205761 steps with 994 atoms, finish time Tue Jan  3 05:20:00 2023


Pair  time (%) = 0.453029 (0.0215269)
Neigh time (%) = 8.51572 (0.404648)
Comm  time (%) = 14.7337 (0.700114)
Outpt time (%) = 0.000660616 (3.1391e-05)
Other time (%) = 2080.77 (98.8737)

Nlocal:    24.85 ave 369 max 0 min
Histogram: 36 0 2 0 0 0 0 0 1 1
Nghost:    5.775 ave 78 max 0 min
Histogram: 36 0 0 1 1 0 0 0 1 1
Neighs:    3.825 ave 70 max 0 min
Histogram: 36 2 0 0 0 0 0 0 1 1

Total # of neighbors = 153
Ave neighs/atom = 0.153924
Neighbor list builds = 10306
Dangerous builds = 408
write_dump all custom dump.atom_info_ac_* id type x y z radius vx vy vz density #
run 205761
Setting up run at Tue Jan  3 05:20:00 2023

Memory usage per processor = 960.195 Mbytes
    Step    Atoms         KinEng            CPU 
 5761310      994     0.23122553              0 
 5967071      960      0.2000943      2124.8654 
Loop time of 2124.87 on 40 procs for 205761 steps with 960 atoms, finish time Tue Jan  3 05:55:25 2023


Pair  time (%) = 0.451758 (0.0212606)
Neigh time (%) = 10.8649 (0.511321)
Comm  time (%) = 17.6727 (0.831711)
Outpt time (%) = 0.000586274 (2.75911e-05)
Other time (%) = 2095.88 (98.6357)

Nlocal:    24 ave 356 max 0 min
Histogram: 36 0 2 0 0 0 0 0 0 2
Nghost:    5.65 ave 79 max 0 min
Histogram: 36 0 0 1 1 0 0 0 0 2
Neighs:    3.3 ave 55 max 0 min
Histogram: 36 1 1 0 0 0 0 0 0 2

Total # of neighbors = 132
Ave neighs/atom = 0.1375
Neighbor list builds = 13231
Dangerous builds = 1232
write_dump all custom dump.atom_info_ac_* id type x y z radius vx vy vz density #
run 205761
Setting up run at Tue Jan  3 05:55:25 2023

Memory usage per processor = 960.195 Mbytes
    Step    Atoms         KinEng            CPU 
 5967071      960      0.2000943              0 
 6172832      932      0.2532203      2128.5832 
Loop time of 2128.58 on 40 procs for 205761 steps with 932 atoms, finish time Tue Jan  3 06:30:53 2023


Pair  time (%) = 0.448408 (0.021066)
Neigh time (%) = 9.75607 (0.458336)
Comm  time (%) = 15.8893 (0.746471)
Outpt time (%) = 0.000692944 (3.25542e-05)
Other time (%) = 2102.49 (98.7741)

Nlocal:    23.3 ave 350 max 0 min
Histogram: 36 1 1 0 0 0 0 0 0 2
Nghost:    5.725 ave 82 max 0 min
Histogram: 36 0 0 2 0 0 0 0 0 2
Neighs:    2.95 ave 55 max 0 min
Histogram: 36 1 1 0 0 0 0 1 0 1

Total # of neighbors = 118
Ave neighs/atom = 0.126609
Neighbor list builds = 11832
Dangerous builds = 881
write_dump all custom dump.atom_info_ac_* id type x y z radius vx vy vz density #
run 205761
Setting up run at Tue Jan  3 06:30:53 2023

Memory usage per processor = 960.195 Mbytes
    Step    Atoms         KinEng            CPU 
 6172832      932      0.2532203              0 
 6378593      911     0.52487306      2119.5898 
Loop time of 2119.59 on 40 procs for 205761 steps with 911 atoms, finish time Tue Jan  3 07:06:13 2023


Pair  time (%) = 0.446208 (0.0210516)
Neigh time (%) = 10.1992 (0.481185)
Comm  time (%) = 16.0567 (0.757539)
Outpt time (%) = 0.000656528 (3.09743e-05)
Other time (%) = 2092.89 (98.7402)

Nlocal:    22.775 ave 347 max 0 min
Histogram: 36 1 1 0 0 0 0 0 1 1
Nghost:    5.5 ave 86 max 0 min
Histogram: 36 0 1 1 0 0 0 0 1 1
Neighs:    2.5 ave 47 max 0 min
Histogram: 36 1 1 0 0 0 0 1 0 1

Total # of neighbors = 100
Ave neighs/atom = 0.109769
Neighbor list builds = 12483
Dangerous builds = 2438
write_dump all custom dump.atom_info_ac_* id type x y z radius vx vy vz density #
run 205761
Setting up run at Tue Jan  3 07:06:13 2023

Memory usage per processor = 960.195 Mbytes
    Step    Atoms         KinEng            CPU 
 6378593      911     0.52487306              0 
 6584354      892     0.43545468      2117.8092 
Loop time of 2117.81 on 40 procs for 205761 steps with 892 atoms, finish time Tue Jan  3 07:41:31 2023


Pair  time (%) = 0.445602 (0.0210407)
Neigh time (%) = 9.55019 (0.450946)
Comm  time (%) = 13.4627 (0.635692)
Outpt time (%) = 0.000699768 (3.3042e-05)
Other time (%) = 2094.35 (98.8923)

Nlocal:    22.3 ave 340 max 0 min
Histogram: 36 1 1 0 0 0 0 0 1 1
Nghost:    5.275 ave 79 max 0 min
Histogram: 36 0 0 2 0 0 0 0 0 2
Neighs:    2.55 ave 53 max 0 min
Histogram: 37 0 1 0 0 0 1 0 0 1

Total # of neighbors = 102
Ave neighs/atom = 0.11435
Neighbor list builds = 11594
Dangerous builds = 639
write_dump all custom dump.atom_info_ac_* id type x y z radius vx vy vz density #
run 205761
Setting up run at Tue Jan  3 07:41:31 2023

Memory usage per processor = 960.195 Mbytes
    Step    Atoms         KinEng            CPU 
 6584354      892     0.43545468              0 
 6790115      865     0.51465687      2132.4329 
Loop time of 2132.43 on 40 procs for 205761 steps with 865 atoms, finish time Tue Jan  3 08:17:03 2023


Pair  time (%) = 0.448714 (0.0210423)
Neigh time (%) = 11.8741 (0.556833)
Comm  time (%) = 13.8016 (0.647221)
Outpt time (%) = 0.000722618 (3.3887e-05)
Other time (%) = 2106.31 (98.7749)

Nlocal:    21.625 ave 339 max 0 min
Histogram: 36 1 1 0 0 0 0 0 1 1
Nghost:    5.375 ave 74 max 0 min
Histogram: 36 0 0 1 1 0 0 0 0 2
Neighs:    2.275 ave 52 max 0 min
Histogram: 37 1 0 0 0 1 0 0 0 1

Total # of neighbors = 91
Ave neighs/atom = 0.105202
Neighbor list builds = 14431
Dangerous builds = 657
write_dump all custom dump.atom_info_ac_* id type x y z radius vx vy vz density #
run 205761
Setting up run at Tue Jan  3 08:17:03 2023

Memory usage per processor = 960.195 Mbytes
    Step    Atoms         KinEng            CPU 
 6790115      865     0.51465687              0 
 6995876      843      0.3192409      2129.5902 
Loop time of 2129.59 on 40 procs for 205761 steps with 843 atoms, finish time Tue Jan  3 08:52:33 2023


Pair  time (%) = 0.440348 (0.0206776)
Neigh time (%) = 10.3922 (0.487991)
Comm  time (%) = 16.6494 (0.781811)
Outpt time (%) = 0.000637084 (2.99158e-05)
Other time (%) = 2102.11 (98.7095)

Nlocal:    21.075 ave 332 max 0 min
Histogram: 36 1 1 0 0 0 0 0 1 1
Nghost:    4.725 ave 75 max 0 min
Histogram: 36 0 1 1 0 0 0 1 0 1
Neighs:    2.45 ave 54 max 0 min
Histogram: 37 0 1 0 1 0 0 0 0 1

Total # of neighbors = 98
Ave neighs/atom = 0.116251
Neighbor list builds = 12619
Dangerous builds = 1225
write_dump all custom dump.atom_info_ac_* id type x y z radius vx vy vz density #
run 205761
Setting up run at Tue Jan  3 08:52:33 2023

Memory usage per processor = 960.195 Mbytes
    Step    Atoms         KinEng            CPU 
 6995876      843      0.3192409              0 
 7201637      820     0.19744059      2181.1773 
Loop time of 2181.18 on 40 procs for 205761 steps with 820 atoms, finish time Tue Jan  3 09:28:54 2023


Pair  time (%) = 0.431238 (0.0197709)
Neigh time (%) = 8.43301 (0.386626)
Comm  time (%) = 15.0803 (0.691384)
Outpt time (%) = 0.000683246 (3.13246e-05)
Other time (%) = 2157.23 (98.9022)

Nlocal:    20.5 ave 335 max 0 min
Histogram: 36 1 1 0 0 0 0 1 0 1
Nghost:    4.65 ave 65 max 0 min
Histogram: 36 0 1 1 0 0 0 0 0 2
Neighs:    1.95 ave 43 max 0 min
Histogram: 37 1 0 0 0 1 0 0 0 1

Total # of neighbors = 78
Ave neighs/atom = 0.095122
Neighbor list builds = 10265
Dangerous builds = 441
write_dump all custom dump.atom_info_ac_* id type x y z radius vx vy vz density #
run 205761
Setting up run at Tue Jan  3 09:28:54 2023

Memory usage per processor = 960.195 Mbytes
    Step    Atoms         KinEng            CPU 
 7201637      820     0.19744059              0 
 7407398      803     0.24227681      2192.3417 
Loop time of 2192.34 on 40 procs for 205761 steps with 803 atoms, finish time Tue Jan  3 10:05:27 2023


Pair  time (%) = 0.43011 (0.0196188)
Neigh time (%) = 8.0157 (0.365622)
Comm  time (%) = 13.2543 (0.604571)
Outpt time (%) = 0.000650683 (2.96798e-05)
Other time (%) = 2170.64 (99.0102)

Nlocal:    20.075 ave 326 max 0 min
Histogram: 36 1 1 0 0 0 0 1 0 1
Nghost:    4.55 ave 66 max 0 min
Histogram: 36 0 1 1 0 0 0 0 1 1
Neighs:    1.6 ave 38 max 0 min
Histogram: 37 0 1 1 0 0 0 0 0 1

Total # of neighbors = 64
Ave neighs/atom = 0.0797011
Neighbor list builds = 9749
Dangerous builds = 383
write_dump all custom dump.atom_info_ac_* id type x y z radius vx vy vz density #
run 205761
Setting up run at Tue Jan  3 10:05:27 2023

Memory usage per processor = 960.195 Mbytes
    Step    Atoms         KinEng            CPU 
 7407398      803     0.24227681              0 
 7613159      782     0.27917854      2111.5755 
Loop time of 2111.58 on 40 procs for 205761 steps with 782 atoms, finish time Tue Jan  3 10:40:38 2023


Pair  time (%) = 0.421143 (0.0199445)
Neigh time (%) = 8.29353 (0.392765)
Comm  time (%) = 13.3818 (0.633735)
Outpt time (%) = 0.000577556 (2.73519e-05)
Other time (%) = 2089.48 (98.9535)

Nlocal:    19.55 ave 316 max 0 min
Histogram: 36 2 0 0 0 0 0 0 1 1
Nghost:    4.275 ave 58 max 0 min
Histogram: 36 0 0 2 0 0 0 0 0 2
Neighs:    1.4 ave 37 max 0 min
Histogram: 37 1 0 1 0 0 0 0 0 1

Total # of neighbors = 56
Ave neighs/atom = 0.0716113
Neighbor list builds = 10108
Dangerous builds = 961
write_dump all custom dump.atom_info_ac_* id type x y z radius vx vy vz density #
run 205761
Setting up run at Tue Jan  3 10:40:38 2023

Memory usage per processor = 960.195 Mbytes
    Step    Atoms         KinEng            CPU 
 7613159      782     0.27917854              0 
 7818920      764     0.56044961      2115.7115 
Loop time of 2115.71 on 40 procs for 205761 steps with 764 atoms, finish time Tue Jan  3 11:15:54 2023


Pair  time (%) = 0.410144 (0.0193856)
Neigh time (%) = 9.44875 (0.446599)
Comm  time (%) = 16.6846 (0.788604)
Outpt time (%) = 0.000666873 (3.152e-05)
Other time (%) = 2089.17 (98.7454)

Nlocal:    19.1 ave 308 max 0 min
Histogram: 36 2 0 0 0 0 0 0 1 1
Nghost:    3.875 ave 51 max 0 min
Histogram: 36 0 0 1 1 0 0 0 0 2
Neighs:    1.375 ave 37 max 0 min
Histogram: 37 1 0 1 0 0 0 0 0 1

Total # of neighbors = 55
Ave neighs/atom = 0.0719895
Neighbor list builds = 11431
Dangerous builds = 545
write_dump all custom dump.atom_info_ac_* id type x y z radius vx vy vz density #
run 205761
Setting up run at Tue Jan  3 11:15:54 2023

Memory usage per processor = 960.195 Mbytes
    Step    Atoms         KinEng            CPU 
 7818920      764     0.56044961              0 
 8024681      747     0.32477393      2119.8224 
Loop time of 2119.82 on 40 procs for 205761 steps with 747 atoms, finish time Tue Jan  3 11:51:14 2023


Pair  time (%) = 0.418406 (0.0197378)
Neigh time (%) = 9.61792 (0.453713)
Comm  time (%) = 15.9062 (0.750355)
Outpt time (%) = 0.000619799 (2.92383e-05)
Other time (%) = 2093.88 (98.7762)

Nlocal:    18.675 ave 299 max 0 min
Histogram: 36 2 0 0 0 0 0 0 1 1
Nghost:    4.2 ave 59 max 0 min
Histogram: 34 2 0 2 0 0 0 1 0 1
Neighs:    1.425 ave 35 max 0 min
Histogram: 37 1 0 0 1 0 0 0 0 1

Total # of neighbors = 57
Ave neighs/atom = 0.0763052
Neighbor list builds = 11703
Dangerous builds = 30
write_dump all custom dump.atom_info_ac_* id type x y z radius vx vy vz density #
run 205761
Setting up run at Tue Jan  3 11:51:14 2023

Memory usage per processor = 960.195 Mbytes
    Step    Atoms         KinEng            CPU 
 8024681      747     0.32477393              0 
 8230442      732      5.1311366       2117.889 
Loop time of 2117.89 on 40 procs for 205761 steps with 732 atoms, finish time Tue Jan  3 12:26:32 2023


Pair  time (%) = 0.420918 (0.0198744)
Neigh time (%) = 9.65386 (0.455824)
Comm  time (%) = 13.9236 (0.657429)
Outpt time (%) = 0.000494391 (2.33436e-05)
Other time (%) = 2093.89 (98.8668)

Nlocal:    18.3 ave 295 max 0 min
Histogram: 36 2 0 0 0 0 0 0 1 1
Nghost:    3.95 ave 51 max 0 min
Histogram: 36 0 0 0 2 0 0 0 0 2
Neighs:    1.35 ave 30 max 0 min
Histogram: 37 1 0 0 0 0 1 0 0 1

Total # of neighbors = 54
Ave neighs/atom = 0.0737705
Neighbor list builds = 11770
Dangerous builds = 1356
write_dump all custom dump.atom_info_ac_* id type x y z radius vx vy vz density #
run 205761
Setting up run at Tue Jan  3 12:26:32 2023

Memory usage per processor = 960.195 Mbytes
    Step    Atoms         KinEng            CPU 
 8230442      732      5.1311366              0 
 8436203      710     0.25605325       2096.627 
Loop time of 2096.63 on 40 procs for 205761 steps with 710 atoms, finish time Tue Jan  3 13:01:29 2023


Pair  time (%) = 0.413282 (0.0197117)
Neigh time (%) = 7.87231 (0.375475)
Comm  time (%) = 11.9508 (0.57)
Outpt time (%) = 0.000676163 (3.225e-05)
Other time (%) = 2076.39 (99.0348)

Nlocal:    17.75 ave 284 max 0 min
Histogram: 36 2 0 0 0 0 0 0 1 1
Nghost:    3.65 ave 45 max 0 min
Histogram: 35 1 0 0 2 0 0 0 0 2
Neighs:    1.075 ave 26 max 0 min
Histogram: 37 1 0 0 0 1 0 0 0 1

Total # of neighbors = 43
Ave neighs/atom = 0.0605634
Neighbor list builds = 9597
Dangerous builds = 704
write_dump all custom dump.atom_info_ac_* id type x y z radius vx vy vz density #
run 205761
Setting up run at Tue Jan  3 13:01:29 2023

Memory usage per processor = 960.195 Mbytes
    Step    Atoms         KinEng            CPU 
 8436203      710     0.25605325              0 
 8641964      694     0.31428551      2101.4944 
Loop time of 2101.49 on 40 procs for 205761 steps with 694 atoms, finish time Tue Jan  3 13:36:30 2023


Pair  time (%) = 0.410063 (0.0195129)
Neigh time (%) = 7.91461 (0.376618)
Comm  time (%) = 12.094 (0.575496)
Outpt time (%) = 0.000608535 (2.89572e-05)
Other time (%) = 2081.08 (99.0283)

Nlocal:    17.35 ave 267 max 0 min
Histogram: 36 2 0 0 0 0 0 0 1 1
Nghost:    3.45 ave 45 max 0 min
Histogram: 36 0 0 1 1 0 0 0 1 1
Neighs:    0.975 ave 26 max 0 min
Histogram: 37 1 0 1 0 0 0 0 0 1

Total # of neighbors = 39
Ave neighs/atom = 0.056196
Neighbor list builds = 9628
Dangerous builds = 518
write_dump all custom dump.atom_info_ac_* id type x y z radius vx vy vz density #
run 205761
Setting up run at Tue Jan  3 13:36:31 2023

Memory usage per processor = 960.195 Mbytes
    Step    Atoms         KinEng            CPU 
 8641964      694     0.31428551              0 
 8847725      678     0.38627777      2097.8802 
Loop time of 2097.89 on 40 procs for 205761 steps with 678 atoms, finish time Tue Jan  3 14:11:28 2023


Pair  time (%) = 0.407749 (0.0194362)
Neigh time (%) = 8.1247 (0.38728)
Comm  time (%) = 14.938 (0.71205)
Outpt time (%) = 0.000714057 (3.40369e-05)
Other time (%) = 2074.42 (98.8812)

Nlocal:    16.95 ave 262 max 0 min
Histogram: 36 2 0 0 0 0 0 0 1 1
Nghost:    3.125 ave 43 max 0 min
Histogram: 36 0 0 2 0 0 0 0 0 2
Neighs:    1.025 ave 27 max 0 min
Histogram: 37 1 0 1 0 0 0 0 0 1

Total # of neighbors = 41
Ave neighs/atom = 0.060472
Neighbor list builds = 9901
Dangerous builds = 10
write_dump all custom dump.atom_info_ac_* id type x y z radius vx vy vz density #
run 205761
Setting up run at Tue Jan  3 14:11:29 2023

Memory usage per processor = 960.195 Mbytes
    Step    Atoms         KinEng            CPU 
 8847725      678     0.38627777              0 
 9053486      651     0.36677369      2131.9385 
Loop time of 2131.94 on 40 procs for 205761 steps with 651 atoms, finish time Tue Jan  3 14:47:01 2023


Pair  time (%) = 0.414726 (0.019453)
Neigh time (%) = 11.2721 (0.528725)
Comm  time (%) = 17.1001 (0.802092)
Outpt time (%) = 0.000692824 (3.24974e-05)
Other time (%) = 2103.15 (98.6497)

Nlocal:    16.275 ave 260 max 0 min
Histogram: 36 2 0 0 0 0 0 0 1 1
Nghost:    3.175 ave 41 max 0 min
Histogram: 35 1 0 1 1 0 0 0 0 2
Neighs:    0.65 ave 15 max 0 min
Histogram: 36 1 1 0 1 0 0 0 0 1

Total # of neighbors = 26
Ave neighs/atom = 0.0399386
Neighbor list builds = 13739
Dangerous builds = 477
write_dump all custom dump.atom_info_ac_* id type x y z radius vx vy vz density #
run 205761
Setting up run at Tue Jan  3 14:47:01 2023

Memory usage per processor = 960.195 Mbytes
    Step    Atoms         KinEng            CPU 
 9053486      651     0.36677369              0 
 9259247      638      0.2801932      2122.3242 
Loop time of 2122.32 on 40 procs for 205761 steps with 638 atoms, finish time Tue Jan  3 15:22:23 2023


Pair  time (%) = 0.40975 (0.0193067)
Neigh time (%) = 10.1446 (0.477994)
Comm  time (%) = 13.7878 (0.649655)
Outpt time (%) = 0.000676784 (3.18888e-05)
Other time (%) = 2097.98 (98.853)

Nlocal:    15.95 ave 248 max 0 min
Histogram: 35 3 0 0 0 0 0 0 1 1
Nghost:    3.175 ave 48 max 0 min
Histogram: 36 0 1 1 0 0 0 1 0 1
Neighs:    0.925 ave 21 max 0 min
Histogram: 36 2 0 0 1 0 0 0 0 1

Total # of neighbors = 37
Ave neighs/atom = 0.0579937
Neighbor list builds = 12357
Dangerous builds = 869
write_dump all custom dump.atom_info_ac_* id type x y z radius vx vy vz density #
run 205761
Setting up run at Tue Jan  3 15:22:23 2023

Memory usage per processor = 960.195 Mbytes
    Step    Atoms         KinEng            CPU 
 9259247      638      0.2801932              0 
 9465008      616      0.2430601      2105.2444 
Loop time of 2105.24 on 40 procs for 205761 steps with 616 atoms, finish time Tue Jan  3 15:57:28 2023


Pair  time (%) = 0.404244 (0.0192017)
Neigh time (%) = 8.59713 (0.408367)
Comm  time (%) = 12.4456 (0.591173)
Outpt time (%) = 0.000710972 (3.37715e-05)
Other time (%) = 2083.8 (98.9812)

Nlocal:    15.4 ave 234 max 0 min
Histogram: 36 2 0 0 0 0 0 0 1 1
Nghost:    3.075 ave 42 max 0 min
Histogram: 36 0 0 1 1 0 0 0 0 2
Neighs:    0.65 ave 11 max 0 min
Histogram: 36 0 2 0 0 0 0 0 1 1

Total # of neighbors = 26
Ave neighs/atom = 0.0422078
Neighbor list builds = 10447
Dangerous builds = 575
write_dump all custom dump.atom_info_ac_* id type x y z radius vx vy vz density #
run 205761
Setting up run at Tue Jan  3 15:57:28 2023

Memory usage per processor = 960.195 Mbytes
    Step    Atoms         KinEng            CPU 
 9465008      616      0.2430601              0 
 9670769      596     0.21637588      2103.8578 
Loop time of 2103.86 on 40 procs for 205761 steps with 596 atoms, finish time Tue Jan  3 16:32:32 2023


Pair  time (%) = 0.395659 (0.0188063)
Neigh time (%) = 8.31506 (0.395229)
Comm  time (%) = 11.2485 (0.53466)
Outpt time (%) = 0.000658954 (3.13212e-05)
Other time (%) = 2083.9 (99.0513)

Nlocal:    14.9 ave 221 max 0 min
Histogram: 35 3 0 0 0 0 0 0 1 1
Nghost:    2.875 ave 40 max 0 min
Histogram: 35 1 0 2 0 0 0 0 0 2
Neighs:    0.8 ave 18 max 0 min
Histogram: 37 1 0 0 0 1 0 0 0 1

Total # of neighbors = 32
Ave neighs/atom = 0.0536913
Neighbor list builds = 10070
Dangerous builds = 9
write_dump all custom dump.atom_info_ac_* id type x y z radius vx vy vz density #
run 205761
Setting up run at Tue Jan  3 16:32:32 2023

Memory usage per processor = 960.195 Mbytes
    Step    Atoms         KinEng            CPU 
 9670769      596     0.21637588              0 
 9876530      579     0.14622979      2088.6091 
Loop time of 2088.61 on 40 procs for 205761 steps with 579 atoms, finish time Tue Jan  3 17:07:21 2023


Pair  time (%) = 0.399846 (0.0191441)
Neigh time (%) = 7.33524 (0.351202)
Comm  time (%) = 9.20743 (0.44084)
Outpt time (%) = 0.000645717 (3.09161e-05)
Other time (%) = 2071.67 (99.1888)

Nlocal:    14.475 ave 204 max 0 min
Histogram: 35 3 0 0 0 0 0 0 0 2
Nghost:    2.825 ave 37 max 0 min
Histogram: 36 0 0 1 0 1 0 0 0 2
Neighs:    0.9 ave 18 max 0 min
Histogram: 38 0 0 0 0 0 0 0 0 2

Total # of neighbors = 36
Ave neighs/atom = 0.0621762
Neighbor list builds = 8921
Dangerous builds = 6
write_dump all custom dump.atom_info_ac_* id type x y z radius vx vy vz density #
run 205761
Setting up run at Tue Jan  3 17:07:21 2023

Memory usage per processor = 960.195 Mbytes
    Step    Atoms         KinEng            CPU 
 9876530      579     0.14622979              0 
10082291      568     0.20665507      2086.5952 
Loop time of 2086.6 on 40 procs for 205761 steps with 568 atoms, finish time Tue Jan  3 17:42:08 2023


Pair  time (%) = 0.397219 (0.0190367)
Neigh time (%) = 7.24127 (0.347037)
Comm  time (%) = 9.28025 (0.444755)
Outpt time (%) = 0.000650056 (3.11539e-05)
Other time (%) = 2069.68 (99.1891)

Nlocal:    14.2 ave 200 max 0 min
Histogram: 36 2 0 0 0 0 0 0 0 2
Nghost:    2.35 ave 37 max 0 min
Histogram: 36 0 1 0 1 0 1 0 0 1
Neighs:    0.525 ave 11 max 0 min
Histogram: 38 0 0 0 0 0 0 0 1 1

Total # of neighbors = 21
Ave neighs/atom = 0.0369718
Neighbor list builds = 8782
Dangerous builds = 539
write_dump all custom dump.atom_info_ac_* id type x y z radius vx vy vz density #
run 205761
Setting up run at Tue Jan  3 17:42:08 2023

Memory usage per processor = 960.195 Mbytes
    Step    Atoms         KinEng            CPU 
10082291      568     0.20665507              0 
10288052      551     0.35014356      2102.3762 
Loop time of 2102.38 on 40 procs for 205761 steps with 551 atoms, finish time Tue Jan  3 18:17:10 2023


Pair  time (%) = 0.40212 (0.0191269)
Neigh time (%) = 8.4494 (0.401898)
Comm  time (%) = 12.427 (0.591092)
Outpt time (%) = 0.000653107 (3.10652e-05)
Other time (%) = 2081.1 (98.9879)

Nlocal:    13.775 ave 200 max 0 min
Histogram: 36 2 0 0 0 0 0 0 0 2
Nghost:    2.15 ave 27 max 0 min
Histogram: 36 0 0 1 0 1 0 0 0 2
Neighs:    0.475 ave 10 max 0 min
Histogram: 37 1 0 0 0 0 0 0 1 1

Total # of neighbors = 19
Ave neighs/atom = 0.0344828
Neighbor list builds = 10239
Dangerous builds = 11
write_dump all custom dump.atom_info_ac_* id type x y z radius vx vy vz density #
run 205761
Setting up run at Tue Jan  3 18:17:10 2023

Memory usage per processor = 960.195 Mbytes
    Step    Atoms         KinEng            CPU 
10288052      551     0.35014356              0 
10493813      539     0.28709181      2096.9381 
Loop time of 2096.94 on 40 procs for 205761 steps with 539 atoms, finish time Tue Jan  3 18:52:07 2023


Pair  time (%) = 0.393011 (0.0187421)
Neigh time (%) = 8.5254 (0.406564)
Comm  time (%) = 11.6468 (0.555417)
Outpt time (%) = 0.000655269 (3.12489e-05)
Other time (%) = 2076.37 (99.0192)

Nlocal:    13.475 ave 194 max 0 min
Histogram: 36 2 0 0 0 0 0 0 0 2
Nghost:    2.225 ave 29 max 0 min
Histogram: 36 0 1 0 0 0 1 0 0 2
Neighs:    0.375 ave 8 max 0 min
Histogram: 37 1 0 0 0 0 0 1 0 1

Total # of neighbors = 15
Ave neighs/atom = 0.0278293
Neighbor list builds = 10305
Dangerous builds = 442
write_dump all custom dump.atom_info_ac_* id type x y z radius vx vy vz density #
run 205761
Setting up run at Tue Jan  3 18:52:07 2023

Memory usage per processor = 960.195 Mbytes
    Step    Atoms         KinEng            CPU 
10493813      539     0.28709181              0 
10699574      518     0.34731866       2132.085 
Loop time of 2132.09 on 40 procs for 205761 steps with 518 atoms, finish time Tue Jan  3 19:27:39 2023


Pair  time (%) = 0.39598 (0.0185724)
Neigh time (%) = 11.4666 (0.537812)
Comm  time (%) = 12.6948 (0.595417)
Outpt time (%) = 0.000694677 (3.2582e-05)
Other time (%) = 2107.53 (98.8482)

Nlocal:    12.95 ave 186 max 0 min
Histogram: 35 3 0 0 0 0 0 0 0 2
Nghost:    2.15 ave 30 max 0 min
Histogram: 36 0 1 0 1 0 0 1 0 1
Neighs:    0.575 ave 11 max 0 min
Histogram: 38 0 0 0 0 0 0 0 1 1

Total # of neighbors = 23
Ave neighs/atom = 0.0444015
Neighbor list builds = 13827
Dangerous builds = 141
write_dump all custom dump.atom_info_ac_* id type x y z radius vx vy vz density #
run 205761
Setting up run at Tue Jan  3 19:27:39 2023

Memory usage per processor = 960.195 Mbytes
    Step    Atoms         KinEng            CPU 
10699574      518     0.34731866              0 
10905335      506     0.56699566      2082.2217 
Loop time of 2082.22 on 40 procs for 205761 steps with 506 atoms, finish time Tue Jan  3 20:02:22 2023


Pair  time (%) = 0.383852 (0.0184347)
Neigh time (%) = 6.68951 (0.321268)
Comm  time (%) = 9.46168 (0.454403)
Outpt time (%) = 0.000668493 (3.21048e-05)
Other time (%) = 2065.69 (99.2059)

Nlocal:    12.65 ave 185 max 0 min
Histogram: 36 2 0 0 0 0 0 0 0 2
Nghost:    2.325 ave 31 max 0 min
Histogram: 36 0 1 1 0 0 0 0 0 2
Neighs:    0.5 ave 11 max 0 min
Histogram: 37 1 0 0 0 1 0 0 0 1

Total # of neighbors = 20
Ave neighs/atom = 0.0395257
Neighbor list builds = 8069
Dangerous builds = 32
write_dump all custom dump.atom_info_ac_* id type x y z radius vx vy vz density #
run 205761
Setting up run at Tue Jan  3 20:02:22 2023

Memory usage per processor = 960.195 Mbytes
    Step    Atoms         KinEng            CPU 
10905335      506     0.56699566              0 
11111096      492     0.21375758      2091.6492 
Loop time of 2091.65 on 40 procs for 205761 steps with 492 atoms, finish time Tue Jan  3 20:37:13 2023


Pair  time (%) = 0.388636 (0.0185804)
Neigh time (%) = 7.23107 (0.345712)
Comm  time (%) = 11.9535 (0.571487)
Outpt time (%) = 0.000657427 (3.1431e-05)
Other time (%) = 2072.08 (99.0642)

Nlocal:    12.3 ave 180 max 0 min
Histogram: 36 2 0 0 0 0 0 0 0 2
Nghost:    2.3 ave 31 max 0 min
Histogram: 35 1 0 2 0 0 0 0 1 1
Neighs:    0.35 ave 7 max 0 min
Histogram: 37 1 0 0 0 0 0 0 1 1

Total # of neighbors = 14
Ave neighs/atom = 0.0284553
Neighbor list builds = 8771
Dangerous builds = 388
write_dump all custom dump.atom_info_ac_* id type x y z radius vx vy vz density #
run 205761
Setting up run at Tue Jan  3 20:37:13 2023

Memory usage per processor = 960.195 Mbytes
    Step    Atoms         KinEng            CPU 
11111096      492     0.21375758              0 
11316857      480     0.30128136      2077.4655 
Loop time of 2077.47 on 40 procs for 205761 steps with 480 atoms, finish time Tue Jan  3 21:11:51 2023


Pair  time (%) = 0.388314 (0.0186917)
Neigh time (%) = 6.235 (0.300125)
Comm  time (%) = 8.59594 (0.41377)
Outpt time (%) = 0.00410638 (0.000197663)
Other time (%) = 2062.24 (99.2672)

Nlocal:    12 ave 175 max 0 min
Histogram: 36 2 0 0 0 0 0 0 0 2
Nghost:    2.45 ave 29 max 0 min
Histogram: 34 1 1 1 1 0 0 0 0 2
Neighs:    0.35 ave 7 max 0 min
Histogram: 35 3 0 0 0 1 0 0 0 1

Total # of neighbors = 14
Ave neighs/atom = 0.0291667
Neighbor list builds = 7596
Dangerous builds = 434
write_dump all custom dump.atom_info_ac_* id type x y z radius vx vy vz density #
run 205761
Setting up run at Tue Jan  3 21:11:51 2023

Memory usage per processor = 960.195 Mbytes
    Step    Atoms         KinEng            CPU 
11316857      480     0.30128136              0 
11522618      465     0.31851343       2098.828 
Loop time of 2098.83 on 40 procs for 205761 steps with 465 atoms, finish time Tue Jan  3 21:46:50 2023


Pair  time (%) = 0.389915 (0.0185777)
Neigh time (%) = 8.8578 (0.422035)
Comm  time (%) = 13.9045 (0.662488)
Outpt time (%) = 0.000576524 (2.74689e-05)
Other time (%) = 2075.68 (98.8969)

Nlocal:    11.625 ave 171 max 0 min
Histogram: 36 2 0 0 0 0 0 0 0 2
Nghost:    2.2 ave 27 max 0 min
Histogram: 35 1 0 0 1 1 0 0 0 2
Neighs:    0.275 ave 5 max 0 min
Histogram: 37 0 1 0 0 0 0 0 0 2

Total # of neighbors = 11
Ave neighs/atom = 0.0236559
Neighbor list builds = 10840
Dangerous builds = 1597
write_dump all custom dump.atom_info_ac_* id type x y z radius vx vy vz density #
run 205761
Setting up run at Tue Jan  3 21:46:50 2023

Memory usage per processor = 960.195 Mbytes
    Step    Atoms         KinEng            CPU 
11522618      465     0.31851343              0 
11728379      450     0.28736869       2086.267 
Loop time of 2086.27 on 40 procs for 205761 steps with 450 atoms, finish time Tue Jan  3 22:21:36 2023


Pair  time (%) = 0.387368 (0.0185675)
Neigh time (%) = 6.43898 (0.308636)
Comm  time (%) = 8.0453 (0.385631)
Outpt time (%) = 0.000659863 (3.16289e-05)
Other time (%) = 2071.39 (99.2871)

Nlocal:    11.25 ave 167 max 0 min
Histogram: 36 2 0 0 0 0 0 0 0 2
Nghost:    2.3 ave 29 max 0 min
Histogram: 35 1 0 1 1 0 0 0 1 1
Neighs:    0.25 ave 5 max 0 min
Histogram: 38 0 0 0 0 0 0 0 0 2

Total # of neighbors = 10
Ave neighs/atom = 0.0222222
Neighbor list builds = 7846
Dangerous builds = 176
write_dump all custom dump.atom_info_ac_* id type x y z radius vx vy vz density #
run 205761
Setting up run at Tue Jan  3 22:21:36 2023

Memory usage per processor = 960.195 Mbytes
    Step    Atoms         KinEng            CPU 
11728379      450     0.28736869              0 
11934140      441     0.28667786      2081.1352 
Loop time of 2081.14 on 40 procs for 205761 steps with 441 atoms, finish time Tue Jan  3 22:56:17 2023


Pair  time (%) = 0.384977 (0.0184984)
Neigh time (%) = 6.51078 (0.312847)
Comm  time (%) = 9.52008 (0.457446)
Outpt time (%) = 0.000645201 (3.10024e-05)
Other time (%) = 2064.72 (99.2112)

Nlocal:    11.025 ave 166 max 0 min
Histogram: 36 2 0 0 0 0 0 0 0 2
Nghost:    2.6 ave 32 max 0 min
Histogram: 35 0 1 1 1 0 0 0 0 2
Neighs:    0.225 ave 5 max 0 min
Histogram: 38 0 0 0 0 0 0 0 1 1

Total # of neighbors = 9
Ave neighs/atom = 0.0204082
Neighbor list builds = 7944
Dangerous builds = 20
write_dump all custom dump.atom_info_ac_* id type x y z radius vx vy vz density #
run 205761
Setting up run at Tue Jan  3 22:56:17 2023

Memory usage per processor = 960.195 Mbytes
    Step    Atoms         KinEng            CPU 
11934140      441     0.28667786              0 
12139901      431      0.1919298      2091.9125 
Loop time of 2091.91 on 40 procs for 205761 steps with 431 atoms, finish time Tue Jan  3 23:31:09 2023


Pair  time (%) = 0.386016 (0.0184528)
Neigh time (%) = 6.39484 (0.305694)
Comm  time (%) = 9.44877 (0.451681)
Outpt time (%) = 0.000684281 (3.27108e-05)
Other time (%) = 2075.68 (99.2241)

Nlocal:    10.775 ave 168 max 0 min
Histogram: 36 2 0 0 0 0 0 0 0 2
Nghost:    2.525 ave 34 max 0 min
Histogram: 34 2 0 2 0 0 0 1 0 1
Neighs:    0.175 ave 5 max 0 min
Histogram: 37 0 2 0 0 0 0 0 0 1

Total # of neighbors = 7
Ave neighs/atom = 0.0162413
Neighbor list builds = 7793
Dangerous builds = 218
write_dump all custom dump.atom_info_ac_* id type x y z radius vx vy vz density #
run 205761
Setting up run at Tue Jan  3 23:31:09 2023

Memory usage per processor = 960.195 Mbytes
    Step    Atoms         KinEng            CPU 
12139901      431      0.1919298              0 
12345662      419     0.18523491      2081.0033 
Loop time of 2081 on 40 procs for 205761 steps with 419 atoms, finish time Wed Jan  4 00:05:50 2023


Pair  time (%) = 0.379702 (0.0182461)
Neigh time (%) = 6.66874 (0.320458)
Comm  time (%) = 8.05874 (0.387252)
Outpt time (%) = 0.000692281 (3.32667e-05)
Other time (%) = 2065.9 (99.274)

Nlocal:    10.475 ave 162 max 0 min
Histogram: 36 2 0 0 0 0 0 0 0 2
Nghost:    2.375 ave 29 max 0 min
Histogram: 34 1 1 0 2 0 0 0 0 2
Neighs:    0.275 ave 6 max 0 min
Histogram: 37 0 0 1 0 1 0 0 0 1

Total # of neighbors = 11
Ave neighs/atom = 0.026253
Neighbor list builds = 8083
Dangerous builds = 217
write_dump all custom dump.atom_info_ac_* id type x y z radius vx vy vz density #
run 205761
Setting up run at Wed Jan  4 00:05:51 2023

Memory usage per processor = 960.195 Mbytes
    Step    Atoms         KinEng            CPU 
12345662      419     0.18523491              0 
12551423      409     0.22485222      2084.1865 
Loop time of 2084.19 on 40 procs for 205761 steps with 409 atoms, finish time Wed Jan  4 00:40:35 2023


Pair  time (%) = 0.383633 (0.0184069)
Neigh time (%) = 6.19491 (0.297234)
Comm  time (%) = 4.99518 (0.239671)
Outpt time (%) = 0.00065054 (3.12131e-05)
Other time (%) = 2072.61 (99.4447)

Nlocal:    10.225 ave 157 max 0 min
Histogram: 36 2 0 0 0 0 0 0 0 2
Nghost:    2.3 ave 33 max 0 min
Histogram: 36 0 0 2 0 0 0 0 1 1
Neighs:    0.15 ave 4 max 0 min
Histogram: 37 0 2 0 0 0 0 0 0 1

Total # of neighbors = 6
Ave neighs/atom = 0.0146699
Neighbor list builds = 7518
Dangerous builds = 432
write_dump all custom dump.atom_info_ac_* id type x y z radius vx vy vz density #
run 205761
Setting up run at Wed Jan  4 00:40:35 2023

Memory usage per processor = 960.195 Mbytes
    Step    Atoms         KinEng            CPU 
12551423      409     0.22485222              0 
12757184      403     0.27954575      2080.3397 
Loop time of 2080.36 on 40 procs for 205761 steps with 403 atoms, finish time Wed Jan  4 01:15:15 2023


Pair  time (%) = 0.381656 (0.0183457)
Neigh time (%) = 5.86796 (0.282065)
Comm  time (%) = 6.0877 (0.292627)
Outpt time (%) = 0.000668097 (3.21145e-05)
Other time (%) = 2068.02 (99.4069)

Nlocal:    10.075 ave 160 max 0 min
Histogram: 36 2 0 0 0 0 0 0 0 2
Nghost:    2.5 ave 37 max 0 min
Histogram: 34 2 1 1 0 0 0 1 0 1
Neighs:    0.3 ave 6 max 0 min
Histogram: 37 1 0 0 0 0 0 0 1 1

Total # of neighbors = 12
Ave neighs/atom = 0.0297767
Neighbor list builds = 7118
Dangerous builds = 45
write_dump all custom dump.atom_info_ac_* id type x y z radius vx vy vz density #
run 205761
Setting up run at Wed Jan  4 01:15:15 2023

Memory usage per processor = 960.195 Mbytes
    Step    Atoms         KinEng            CPU 
12757184      403     0.27954575              0 
12962945      398     0.25377957      2211.7108 
Loop time of 2211.71 on 40 procs for 205761 steps with 398 atoms, finish time Wed Jan  4 01:52:07 2023


Pair  time (%) = 0.37869 (0.017122)
Neigh time (%) = 6.21588 (0.281044)
Comm  time (%) = 7.28468 (0.329369)
Outpt time (%) = 0.000719468 (3.25299e-05)
Other time (%) = 2197.83 (99.3724)

Nlocal:    9.95 ave 156 max 0 min
Histogram: 36 2 0 0 0 0 0 0 0 2
Nghost:    2.225 ave 29 max 0 min
Histogram: 35 1 0 0 2 0 0 0 1 1
Neighs:    0.4 ave 8 max 0 min
Histogram: 37 0 1 0 0 0 0 1 0 1

Total # of neighbors = 16
Ave neighs/atom = 0.040201
Neighbor list builds = 7542
Dangerous builds = 98
write_dump all custom dump.atom_info_ac_* id type x y z radius vx vy vz density #
run 205761
Setting up run at Wed Jan  4 01:52:07 2023

Memory usage per processor = 960.195 Mbytes
    Step    Atoms         KinEng            CPU 
12962945      398     0.25377957              0 
13168706      389     0.23184954      2084.6309 
Loop time of 2084.63 on 40 procs for 205761 steps with 389 atoms, finish time Wed Jan  4 02:26:52 2023


Pair  time (%) = 0.380622 (0.0182585)
Neigh time (%) = 6.42347 (0.308135)
Comm  time (%) = 6.94824 (0.333308)
Outpt time (%) = 0.00409604 (0.000196488)
Other time (%) = 2070.87 (99.3401)

Nlocal:    9.725 ave 150 max 0 min
Histogram: 36 2 0 0 0 0 0 0 0 2
Nghost:    1.975 ave 24 max 0 min
Histogram: 35 1 0 0 1 1 0 0 0 2
Neighs:    0.125 ave 2 max 0 min
Histogram: 37 0 0 0 0 1 0 0 0 2

Total # of neighbors = 5
Ave neighs/atom = 0.0128535
Neighbor list builds = 7768
Dangerous builds = 5
write_dump all custom dump.atom_info_ac_* id type x y z radius vx vy vz density #
run 205761
Setting up run at Wed Jan  4 02:26:52 2023

Memory usage per processor = 960.195 Mbytes
    Step    Atoms         KinEng            CPU 
13168706      389     0.23184954              0 
13374467      385     0.21718903      2091.6264 
Loop time of 2091.63 on 40 procs for 205761 steps with 385 atoms, finish time Wed Jan  4 03:01:43 2023


Pair  time (%) = 0.380155 (0.0181751)
Neigh time (%) = 8.10795 (0.387639)
Comm  time (%) = 9.8907 (0.472871)
Outpt time (%) = 0.000504407 (2.41155e-05)
Other time (%) = 2073.25 (99.1213)

Nlocal:    9.625 ave 149 max 0 min
Histogram: 37 1 0 0 0 0 0 0 0 2
Nghost:    1.7 ave 23 max 0 min
Histogram: 35 1 0 1 0 1 1 0 0 1
Neighs:    0.125 ave 4 max 0 min
Histogram: 38 0 1 0 0 0 0 0 0 1

Total # of neighbors = 5
Ave neighs/atom = 0.012987
Neighbor list builds = 9825
Dangerous builds = 377
write_dump all custom dump.atom_info_ac_* id type x y z radius vx vy vz density #
run 205761
Setting up run at Wed Jan  4 03:01:44 2023

Memory usage per processor = 960.195 Mbytes
    Step    Atoms         KinEng            CPU 
13374467      385     0.21718903              0 
13580228      378     0.22744405      2079.1553 
Loop time of 2079.16 on 40 procs for 205761 steps with 378 atoms, finish time Wed Jan  4 03:36:23 2023


Pair  time (%) = 0.379018 (0.0182294)
Neigh time (%) = 6.45144 (0.310291)
Comm  time (%) = 6.98863 (0.336128)
Outpt time (%) = 0.000717785 (3.45229e-05)
Other time (%) = 2065.34 (99.3353)

Nlocal:    9.45 ave 150 max 0 min
Histogram: 36 2 0 0 0 0 0 0 0 2
Nghost:    1.95 ave 31 max 0 min
Histogram: 36 0 1 1 0 1 0 0 0 1
Neighs:    0.1 ave 3 max 0 min
Histogram: 38 0 0 1 0 0 0 0 0 1

Total # of neighbors = 4
Ave neighs/atom = 0.010582
Neighbor list builds = 7815
Dangerous builds = 462
write_dump all custom dump.atom_info_ac_* id type x y z radius vx vy vz density #
run 205761
Setting up run at Wed Jan  4 03:36:23 2023

Memory usage per processor = 960.195 Mbytes
    Step    Atoms         KinEng            CPU 
13580228      378     0.22744405              0 
13785989      369     0.10598325      2082.2097 
Loop time of 2082.21 on 40 procs for 205761 steps with 369 atoms, finish time Wed Jan  4 04:11:05 2023


Pair  time (%) = 0.380834 (0.0182899)
Neigh time (%) = 6.39522 (0.307136)
Comm  time (%) = 5.63986 (0.270859)
Outpt time (%) = 0.000724982 (3.48179e-05)
Other time (%) = 2069.79 (99.4037)

Nlocal:    9.225 ave 143 max 0 min
Histogram: 37 1 0 0 0 0 0 0 0 2
Nghost:    1.7 ave 23 max 0 min
Histogram: 36 0 0 0 2 0 0 0 1 1
Neighs:    0.2 ave 6 max 0 min
Histogram: 37 2 0 0 0 0 0 0 0 1

Total # of neighbors = 8
Ave neighs/atom = 0.0216802
Neighbor list builds = 7812
Dangerous builds = 868
write_dump all custom dump.atom_info_ac_* id type x y z radius vx vy vz density #
run 205761
Setting up run at Wed Jan  4 04:11:05 2023

Memory usage per processor = 960.195 Mbytes
    Step    Atoms         KinEng            CPU 
13785989      369     0.10598325              0 
13991750      360     0.16866666       2092.943 
Loop time of 2092.94 on 40 procs for 205761 steps with 360 atoms, finish time Wed Jan  4 04:45:58 2023


Pair  time (%) = 0.381271 (0.018217)
Neigh time (%) = 7.81533 (0.373414)
Comm  time (%) = 5.03545 (0.240592)
Outpt time (%) = 0.000766 (3.65992e-05)
Other time (%) = 2079.71 (99.3677)

Nlocal:    9 ave 145 max 0 min
Histogram: 37 1 0 0 0 0 0 0 0 2
Nghost:    1.75 ave 28 max 0 min
Histogram: 36 0 0 2 0 0 1 0 0 1
Neighs:    0.15 ave 5 max 0 min
Histogram: 38 0 1 0 0 0 0 0 0 1

Total # of neighbors = 6
Ave neighs/atom = 0.0166667
Neighbor list builds = 9481
Dangerous builds = 946
write_dump all custom dump.atom_info_ac_* id type x y z radius vx vy vz density #
run 205761
Setting up run at Wed Jan  4 04:45:58 2023

Memory usage per processor = 960.195 Mbytes
    Step    Atoms         KinEng            CPU 
13991750      360     0.16866666              0 
14197511      351      0.1380464      2099.5798 
Loop time of 2099.58 on 40 procs for 205761 steps with 351 atoms, finish time Wed Jan  4 05:20:58 2023


Pair  time (%) = 0.375479 (0.0178835)
Neigh time (%) = 7.89976 (0.376254)
Comm  time (%) = 8.44349 (0.402151)
Outpt time (%) = 0.000656257 (3.12566e-05)
Other time (%) = 2082.86 (99.2037)

Nlocal:    8.775 ave 141 max 0 min
Histogram: 36 2 0 0 0 0 0 0 0 2
Nghost:    1.925 ave 23 max 0 min
Histogram: 35 1 0 0 1 1 0 0 0 2
Neighs:    0.2 ave 7 max 0 min
Histogram: 38 1 0 0 0 0 0 0 0 1

Total # of neighbors = 8
Ave neighs/atom = 0.022792
Neighbor list builds = 9609
Dangerous builds = 782
write_dump all custom dump.atom_info_ac_* id type x y z radius vx vy vz density #
run 205761
Setting up run at Wed Jan  4 05:20:58 2023

Memory usage per processor = 960.195 Mbytes
    Step    Atoms         KinEng            CPU 
14197511      351      0.1380464              0 
14403272      345     0.17505363      2095.2615 
Loop time of 2095.26 on 40 procs for 205761 steps with 345 atoms, finish time Wed Jan  4 05:55:53 2023


Pair  time (%) = 0.378985 (0.0180877)
Neigh time (%) = 7.66807 (0.365972)
Comm  time (%) = 8.803 (0.420138)
Outpt time (%) = 0.000609008 (2.9066e-05)
Other time (%) = 2078.41 (99.1958)

Nlocal:    8.625 ave 138 max 0 min
Histogram: 37 1 0 0 0 0 0 0 0 2
Nghost:    1.75 ave 22 max 0 min
Histogram: 35 1 0 0 1 1 0 0 0 2
Neighs:    0.125 ave 4 max 0 min
Histogram: 38 0 1 0 0 0 0 0 0 1

Total # of neighbors = 5
Ave neighs/atom = 0.0144928
Neighbor list builds = 9316
Dangerous builds = 9
write_dump all custom dump.atom_info_ac_* id type x y z radius vx vy vz density #
run 205761
Setting up run at Wed Jan  4 05:55:53 2023

Memory usage per processor = 960.195 Mbytes
    Step    Atoms         KinEng            CPU 
14403272      345     0.17505363              0 
14609033      343      0.1009391      2103.8516 
Loop time of 2103.85 on 40 procs for 205761 steps with 343 atoms, finish time Wed Jan  4 06:30:57 2023


Pair  time (%) = 0.384244 (0.0182638)
Neigh time (%) = 9.36249 (0.445017)
Comm  time (%) = 10.8408 (0.515285)
Outpt time (%) = 0.00410437 (0.000195088)
Other time (%) = 2083.26 (99.0212)

Nlocal:    8.575 ave 139 max 0 min
Histogram: 37 1 0 0 0 0 0 0 0 2
Nghost:    1.825 ave 23 max 0 min
Histogram: 34 1 1 1 1 0 1 0 0 1
Neighs:    0.075 ave 2 max 0 min
Histogram: 38 0 0 0 0 1 0 0 0 1

Total # of neighbors = 3
Ave neighs/atom = 0.00874636
Neighbor list builds = 11365
Dangerous builds = 1
write_dump all custom dump.atom_info_ac_* id type x y z radius vx vy vz density #
run 205761
Setting up run at Wed Jan  4 06:30:57 2023

Memory usage per processor = 960.195 Mbytes
    Step    Atoms         KinEng            CPU 
14609033      343      0.1009391              0 
14814794      337     0.12507673      2097.6383 
Loop time of 2097.64 on 40 procs for 205761 steps with 337 atoms, finish time Wed Jan  4 07:05:55 2023


Pair  time (%) = 0.374232 (0.0178406)
Neigh time (%) = 8.09812 (0.386059)
Comm  time (%) = 10.552 (0.503044)
Outpt time (%) = 0.000700257 (3.33831e-05)
Other time (%) = 2078.61 (99.093)

Nlocal:    8.425 ave 135 max 0 min
Histogram: 36 2 0 0 0 0 0 0 0 2
Nghost:    1.8 ave 24 max 0 min
Histogram: 34 2 0 2 0 0 0 0 1 1
Neighs:    0.1 ave 2 max 0 min
Histogram: 38 0 0 0 0 0 0 0 0 2

Total # of neighbors = 4
Ave neighs/atom = 0.0118694
Neighbor list builds = 9791
Dangerous builds = 280
write_dump all custom dump.atom_info_ac_* id type x y z radius vx vy vz density #
run 205761
Setting up run at Wed Jan  4 07:05:55 2023

Memory usage per processor = 960.195 Mbytes
    Step    Atoms         KinEng            CPU 
14814794      337     0.12507673              0 
15020555      332    0.070119192        2091.53 
Loop time of 2091.53 on 40 procs for 205761 steps with 332 atoms, finish time Wed Jan  4 07:40:46 2023


Pair  time (%) = 0.372069 (0.0177893)
Neigh time (%) = 7.28838 (0.348471)
Comm  time (%) = 9.88959 (0.47284)
Outpt time (%) = 0.000680918 (3.2556e-05)
Other time (%) = 2073.98 (99.1609)

Nlocal:    8.3 ave 132 max 0 min
Histogram: 35 3 0 0 0 0 0 0 0 2
Nghost:    1.75 ave 21 max 0 min
Histogram: 35 0 1 2 0 0 0 0 0 2
Neighs:    0.15 ave 3 max 0 min
Histogram: 38 0 0 0 0 0 0 0 0 2

Total # of neighbors = 6
Ave neighs/atom = 0.0180723
Neighbor list builds = 8809
Dangerous builds = 5
write_dump all custom dump.atom_info_ac_* id type x y z radius vx vy vz density #
run 205761
Setting up run at Wed Jan  4 07:40:47 2023

Memory usage per processor = 960.195 Mbytes
    Step    Atoms         KinEng            CPU 
15020555      332    0.070119192              0 
15226316      329     0.13773541      2083.0789 
Loop time of 2083.08 on 40 procs for 205761 steps with 329 atoms, finish time Wed Jan  4 08:15:30 2023


Pair  time (%) = 0.376906 (0.0180937)
Neigh time (%) = 6.29093 (0.302002)
Comm  time (%) = 6.29763 (0.302323)
Outpt time (%) = 0.000411761 (1.97669e-05)
Other time (%) = 2070.11 (99.3776)

Nlocal:    8.225 ave 129 max 0 min
Histogram: 35 3 0 0 0 0 0 0 0 2
Nghost:    1.575 ave 19 max 0 min
Histogram: 34 1 0 2 1 0 0 0 0 2
Neighs:    0.1 ave 3 max 0 min
Histogram: 38 0 0 1 0 0 0 0 0 1

Total # of neighbors = 4
Ave neighs/atom = 0.0121581
Neighbor list builds = 7616
Dangerous builds = 4
write_dump all custom dump.atom_info_ac_* id type x y z radius vx vy vz density #
run 205761
Setting up run at Wed Jan  4 08:15:30 2023

Memory usage per processor = 960.195 Mbytes
    Step    Atoms         KinEng            CPU 
15226316      329     0.13773541              0 
15432077      328     0.25803626      2072.5985 
Loop time of 2072.6 on 40 procs for 205761 steps with 328 atoms, finish time Wed Jan  4 08:50:02 2023


Pair  time (%) = 0.373194 (0.0180061)
Neigh time (%) = 5.44886 (0.2629)
Comm  time (%) = 5.07475 (0.24485)
Outpt time (%) = 0.000636097 (3.06908e-05)
Other time (%) = 2061.7 (99.4742)

Nlocal:    8.2 ave 128 max 0 min
Histogram: 36 2 0 0 0 0 0 0 0 2
Nghost:    1.525 ave 19 max 0 min
Histogram: 35 0 0 2 1 0 0 0 0 2
Neighs:    0.125 ave 4 max 0 min
Histogram: 38 0 1 0 0 0 0 0 0 1

Total # of neighbors = 5
Ave neighs/atom = 0.0152439
Neighbor list builds = 6591
Dangerous builds = 1
write_dump all custom dump.atom_info_ac_* id type x y z radius vx vy vz density #
run 205761
Setting up run at Wed Jan  4 08:50:02 2023

Memory usage per processor = 960.195 Mbytes
    Step    Atoms         KinEng            CPU 
15432077      328     0.25803626              0 
15637838      322     0.21252114      2081.1246 
Loop time of 2081.12 on 40 procs for 205761 steps with 322 atoms, finish time Wed Jan  4 09:24:43 2023


Pair  time (%) = 0.374491 (0.0179946)
Neigh time (%) = 5.62122 (0.270105)
Comm  time (%) = 6.13971 (0.295019)
Outpt time (%) = 0.000408493 (1.96285e-05)
Other time (%) = 2068.99 (99.4169)

Nlocal:    8.05 ave 125 max 0 min
Histogram: 35 3 0 0 0 0 0 0 0 2
Nghost:    1.425 ave 18 max 0 min
Histogram: 34 1 2 0 0 1 0 0 1 1
Neighs:    0.1 ave 2 max 0 min
Histogram: 38 0 0 0 0 0 0 0 0 2

Total # of neighbors = 4
Ave neighs/atom = 0.0124224
Neighbor list builds = 6791
Dangerous builds = 7
write_dump all custom dump.atom_info_ac_* id type x y z radius vx vy vz density #
run 205761
Setting up run at Wed Jan  4 09:24:44 2023

Memory usage per processor = 960.195 Mbytes
    Step    Atoms         KinEng            CPU 
15637838      322     0.21252114              0 
15843599      319     0.11683399      2070.3246 
Loop time of 2070.32 on 40 procs for 205761 steps with 319 atoms, finish time Wed Jan  4 09:59:14 2023


Pair  time (%) = 0.375266 (0.0181259)
Neigh time (%) = 6.07739 (0.293548)
Comm  time (%) = 7.38669 (0.356789)
Outpt time (%) = 0.000689786 (3.33178e-05)
Other time (%) = 2056.48 (99.3315)

Nlocal:    7.975 ave 127 max 0 min
Histogram: 37 1 0 0 0 0 0 0 0 2
Nghost:    1.575 ave 19 max 0 min
Histogram: 35 0 1 0 1 1 0 0 1 1
Neighs:    0.2 ave 4 max 0 min
Histogram: 38 0 0 0 0 0 0 0 0 2

Total # of neighbors = 8
Ave neighs/atom = 0.0250784
Neighbor list builds = 7339
Dangerous builds = 3
write_dump all custom dump.atom_info_ac_* id type x y z radius vx vy vz density #
run 205761
Setting up run at Wed Jan  4 09:59:14 2023

Memory usage per processor = 960.195 Mbytes
    Step    Atoms         KinEng            CPU 
15843599      319     0.11683399              0 
16049360      314     0.15449513      2091.1941 
Loop time of 2091.19 on 40 procs for 205761 steps with 314 atoms, finish time Wed Jan  4 10:34:05 2023


Pair  time (%) = 0.375158 (0.0179399)
Neigh time (%) = 6.59414 (0.315329)
Comm  time (%) = 7.71178 (0.368774)
Outpt time (%) = 0.00379557 (0.000181502)
Other time (%) = 2076.51 (99.2978)

Nlocal:    7.85 ave 118 max 0 min
Histogram: 35 3 0 0 0 0 0 0 0 2
Nghost:    1.65 ave 22 max 0 min
Histogram: 35 0 1 2 0 0 0 0 0 2
Neighs:    0.2 ave 4 max 0 min
Histogram: 37 0 0 0 0 2 0 0 0 1

Total # of neighbors = 8
Ave neighs/atom = 0.0254777
Neighbor list builds = 7963
Dangerous builds = 111
write_dump all custom dump.atom_info_ac_* id type x y z radius vx vy vz density #
run 205761
Setting up run at Wed Jan  4 10:34:05 2023

Memory usage per processor = 960.195 Mbytes
    Step    Atoms         KinEng            CPU 
16049360      314     0.15449513              0 
16255121      305     0.11303465      2102.5613 
Loop time of 2102.56 on 40 procs for 205761 steps with 305 atoms, finish time Wed Jan  4 11:09:08 2023


Pair  time (%) = 0.378784 (0.0180153)
Neigh time (%) = 8.34326 (0.396814)
Comm  time (%) = 6.48495 (0.308431)
Outpt time (%) = 0.000721678 (3.43237e-05)
Other time (%) = 2087.35 (99.2767)

Nlocal:    7.625 ave 118 max 0 min
Histogram: 35 3 0 0 0 0 0 0 0 2
Nghost:    1.425 ave 18 max 0 min
Histogram: 35 1 0 0 1 1 0 0 0 2
Neighs:    0.15 ave 3 max 0 min
Histogram: 37 0 0 1 0 0 1 0 0 1

Total # of neighbors = 6
Ave neighs/atom = 0.0196721
Neighbor list builds = 10076
Dangerous builds = 11
write_dump all custom dump.atom_info_ac_* id type x y z radius vx vy vz density #
run 205761
Setting up run at Wed Jan  4 11:09:08 2023

Memory usage per processor = 960.195 Mbytes
    Step    Atoms         KinEng            CPU 
16255121      305     0.11303465              0 
16460882      301     0.12442243      2127.3416 
Loop time of 2127.34 on 40 procs for 205761 steps with 301 atoms, finish time Wed Jan  4 11:44:35 2023


Pair  time (%) = 0.383608 (0.0180323)
Neigh time (%) = 9.31983 (0.438097)
Comm  time (%) = 5.73035 (0.269367)
Outpt time (%) = 0.000428043 (2.0121e-05)
Other time (%) = 2111.91 (99.2745)

Nlocal:    7.525 ave 121 max 0 min
Histogram: 36 2 0 0 0 0 0 0 0 2
Nghost:    1.575 ave 18 max 0 min
Histogram: 33 2 1 0 1 1 0 0 1 1
Neighs:    0.175 ave 3 max 0 min
Histogram: 37 0 0 1 0 0 0 0 0 2

Total # of neighbors = 7
Ave neighs/atom = 0.0232558
Neighbor list builds = 11245
Dangerous builds = 14
[...]
29629616      156    0.032750403      2082.5856 
Loop time of 2082.59 on 40 procs for 205761 steps with 156 atoms, finish time Fri Jan  6 01:22:01 2023


Pair  time (%) = 0.369173 (0.0177267)
Neigh time (%) = 6.63651 (0.318667)
Comm  time (%) = 1.37841 (0.0661874)
Outpt time (%) = 0.000716596 (3.4409e-05)
Other time (%) = 2074.2 (99.5974)

Nlocal:    3.9 ave 68 max 0 min
Histogram: 37 1 0 0 0 0 0 0 1 1
Nghost:    0.375 ave 5 max 0 min
Histogram: 34 0 3 0 0 0 1 0 1 1
Neighs:    0.15 ave 4 max 0 min
Histogram: 38 0 0 0 0 1 0 0 0 1

Total # of neighbors = 6
Ave neighs/atom = 0.0384615
Neighbor list builds = 8025
Dangerous builds = 231
write_dump all custom dump.atom_info_ac_* id type x y z radius vx vy vz density #
run 205761
Setting up run at Fri Jan  6 01:22:01 2023

Memory usage per processor = 960.195 Mbytes
    Step    Atoms         KinEng            CPU 
29629616      156    0.032750403              0 
29835377      155    0.032567002      2073.4334 
Loop time of 2073.43 on 40 procs for 205761 steps with 155 atoms, finish time Fri Jan  6 01:56:34 2023


Pair  time (%) = 0.36796 (0.0177464)
Neigh time (%) = 6.15819 (0.297004)
Comm  time (%) = 1.52673 (0.0736327)
Outpt time (%) = 0.000398775 (1.92326e-05)
Other time (%) = 2065.38 (99.6116)

Nlocal:    3.875 ave 69 max 0 min
Histogram: 37 1 0 0 0 0 0 0 1 1
Nghost:    0.4 ave 4 max 0 min
Histogram: 33 0 3 0 0 0 0 3 0 1
Neighs:    0.075 ave 2 max 0 min
Histogram: 38 0 0 0 0 1 0 0 0 1

Total # of neighbors = 3
Ave neighs/atom = 0.0193548
Neighbor list builds = 7427
Dangerous builds = 2
write_dump all custom dump.atom_info_ac_* id type x y z radius vx vy vz density #
run 205761
Setting up run at Fri Jan  6 01:56:35 2023

Memory usage per processor = 960.195 Mbytes
    Step    Atoms         KinEng            CPU 
29835377      155    0.032567002              0 
30041138      153    0.032586976      2076.6472 
Loop time of 2076.65 on 40 procs for 205761 steps with 153 atoms, finish time Fri Jan  6 02:31:11 2023


Pair  time (%) = 0.365869 (0.0176182)
Neigh time (%) = 6.4276 (0.309518)
Comm  time (%) = 1.31435 (0.0632921)
Outpt time (%) = 0.00065705 (3.16399e-05)
Other time (%) = 2068.54 (99.6095)

Nlocal:    3.825 ave 70 max 0 min
Histogram: 37 1 0 0 0 0 0 0 1 1
Nghost:    0.375 ave 5 max 0 min
Histogram: 33 0 3 0 2 0 1 0 0 1
Neighs:    0.05 ave 1 max 0 min
Histogram: 38 0 0 0 0 0 0 0 0 2

Total # of neighbors = 2
Ave neighs/atom = 0.0130719
Neighbor list builds = 7762
Dangerous builds = 2
write_dump all custom dump.atom_info_ac_* id type x y z radius vx vy vz density #
run 205761
Setting up run at Fri Jan  6 02:31:11 2023

Memory usage per processor = 960.195 Mbytes
    Step    Atoms         KinEng            CPU 
30041138      153    0.032586976              0 
30246899      152    0.032546567      2080.4857 
Loop time of 2080.49 on 40 procs for 205761 steps with 152 atoms, finish time Fri Jan  6 03:05:52 2023


Pair  time (%) = 0.365952 (0.0175897)
Neigh time (%) = 6.18163 (0.297124)
Comm  time (%) = 1.2813 (0.0615867)
Outpt time (%) = 0.000591208 (2.84168e-05)
Other time (%) = 2072.66 (99.6237)

Nlocal:    3.8 ave 69 max 0 min
Histogram: 37 1 0 0 0 0 0 0 1 1
Nghost:    0.375 ave 5 max 0 min
Histogram: 35 0 1 0 1 0 1 0 1 1
Neighs:    0.075 ave 2 max 0 min
Histogram: 38 0 0 0 0 1 0 0 0 1

Total # of neighbors = 3
Ave neighs/atom = 0.0197368
Neighbor list builds = 7461
Dangerous builds = 48
write_dump all custom dump.atom_info_ac_* id type x y z radius vx vy vz density #
run 205761
Setting up run at Fri Jan  6 03:05:52 2023

Memory usage per processor = 960.195 Mbytes
    Step    Atoms         KinEng            CPU 
30246899      152    0.032546567              0 
30452660      149     0.03204815      2082.2046 
Loop time of 2082.2 on 40 procs for 205761 steps with 149 atoms, finish time Fri Jan  6 03:40:34 2023


Pair  time (%) = 0.366483 (0.0176007)
Neigh time (%) = 6.84314 (0.328649)
Comm  time (%) = 1.1044 (0.05304)
Outpt time (%) = 0.000351533 (1.68827e-05)
Other time (%) = 2073.89 (99.6007)

Nlocal:    3.725 ave 71 max 0 min
Histogram: 37 1 0 0 0 0 0 1 0 1
Nghost:    0.325 ave 4 max 0 min
Histogram: 35 0 0 0 0 3 0 1 0 1
Neighs:    0.075 ave 2 max 0 min
Histogram: 38 0 0 0 0 1 0 0 0 1

Total # of neighbors = 3
Ave neighs/atom = 0.0201342
Neighbor list builds = 8272
Dangerous builds = 315
write_dump all custom dump.atom_info_ac_* id type x y z radius vx vy vz density #
run 205761
Setting up run at Fri Jan  6 03:40:34 2023

Memory usage per processor = 960.195 Mbytes
    Step    Atoms         KinEng            CPU 
30452660      149     0.03204815              0 
30658421      148    0.031989356      2081.1211 
Loop time of 2081.12 on 40 procs for 205761 steps with 148 atoms, finish time Fri Jan  6 04:15:15 2023


Pair  time (%) = 0.365576 (0.0175663)
Neigh time (%) = 6.13409 (0.294749)
Comm  time (%) = 0.98633 (0.0473942)
Outpt time (%) = 0.000671324 (3.22578e-05)
Other time (%) = 2073.63 (99.6403)

Nlocal:    3.7 ave 71 max 0 min
Histogram: 37 1 0 0 0 0 0 1 0 1
Nghost:    0.325 ave 4 max 0 min
Histogram: 35 0 0 0 0 3 0 1 0 1
Neighs:    0.125 ave 3 max 0 min
Histogram: 37 0 0 2 0 0 0 0 0 1

Total # of neighbors = 5
Ave neighs/atom = 0.0337838
Neighbor list builds = 7402
Dangerous builds = 1
write_dump all custom dump.atom_info_ac_* id type x y z radius vx vy vz density #
run 205761
Setting up run at Fri Jan  6 04:15:15 2023

Memory usage per processor = 960.195 Mbytes
    Step    Atoms         KinEng            CPU 
30658421      148    0.031989356              0 
30864182      147    0.041557659      2080.7091 
Loop time of 2080.71 on 40 procs for 205761 steps with 147 atoms, finish time Fri Jan  6 04:49:56 2023


Pair  time (%) = 0.365674 (0.0175745)
Neigh time (%) = 6.12349 (0.294298)
Comm  time (%) = 1.64382 (0.079003)
Outpt time (%) = 0.000358154 (1.72131e-05)
Other time (%) = 2072.58 (99.6091)

Nlocal:    3.675 ave 69 max 0 min
Histogram: 37 1 0 0 0 0 0 0 1 1
Nghost:    0.275 ave 3 max 0 min
Histogram: 35 0 0 1 0 0 2 0 0 2
Neighs:    0.175 ave 4 max 0 min
Histogram: 37 0 1 0 0 1 0 0 0 1

Total # of neighbors = 7
Ave neighs/atom = 0.047619
Neighbor list builds = 7396
Dangerous builds = 2
write_dump all custom dump.atom_info_ac_* id type x y z radius vx vy vz density #
run 205761
Setting up run at Fri Jan  6 04:49:56 2023

Memory usage per processor = 960.195 Mbytes
    Step    Atoms         KinEng            CPU 
30864182      147    0.041557659              0 
31069943      147    0.055313014      2077.5993 
Loop time of 2077.6 on 40 procs for 205761 steps with 147 atoms, finish time Fri Jan  6 05:24:34 2023


Pair  time (%) = 0.367306 (0.0176793)
Neigh time (%) = 6.14031 (0.295548)
Comm  time (%) = 3.24375 (0.15613)
Outpt time (%) = 0.000702468 (3.38115e-05)
Other time (%) = 2067.85 (99.5306)

Nlocal:    3.675 ave 69 max 0 min
Histogram: 37 1 0 0 0 0 0 0 1 1
Nghost:    0.35 ave 4 max 0 min
Histogram: 34 0 2 0 0 1 0 2 0 1
Neighs:    0.175 ave 5 max 0 min
Histogram: 37 0 2 0 0 0 0 0 0 1

Total # of neighbors = 7
Ave neighs/atom = 0.047619
Neighbor list builds = 7414
Dangerous builds = 0
write_dump all custom dump.atom_info_ac_* id type x y z radius vx vy vz density #
run 205761
Setting up run at Fri Jan  6 05:24:34 2023

Memory usage per processor = 960.195 Mbytes
    Step    Atoms         KinEng            CPU 
31069943      147    0.055313014              0 
31275704      144    0.031911958      2078.1161 
Loop time of 2078.12 on 40 procs for 205761 steps with 144 atoms, finish time Fri Jan  6 05:59:12 2023


Pair  time (%) = 0.365736 (0.0175994)
Neigh time (%) = 6.14487 (0.295694)
Comm  time (%) = 3.02877 (0.145746)
Outpt time (%) = 0.000348782 (1.67836e-05)
Other time (%) = 2068.58 (99.5409)

Nlocal:    3.6 ave 69 max 0 min
Histogram: 37 1 0 0 0 0 0 0 1 1
Nghost:    0.375 ave 5 max 0 min
Histogram: 35 0 1 0 1 0 1 0 1 1
Neighs:    0.175 ave 5 max 0 min
Histogram: 37 0 2 0 0 0 0 0 0 1

Total # of neighbors = 7
Ave neighs/atom = 0.0486111
Neighbor list builds = 7425
Dangerous builds = 2
write_dump all custom dump.atom_info_ac_* id type x y z radius vx vy vz density #
run 205761
Setting up run at Fri Jan  6 05:59:12 2023

Memory usage per processor = 960.195 Mbytes
    Step    Atoms         KinEng            CPU 
31275704      144    0.031911958              0 
31481465      142  6.0158934e-06       2073.301 
Loop time of 2073.3 on 40 procs for 205761 steps with 142 atoms, finish time Fri Jan  6 06:33:45 2023


Pair  time (%) = 0.365657 (0.0176365)
Neigh time (%) = 5.74544 (0.277115)
Comm  time (%) = 3.13329 (0.151126)
Outpt time (%) = 0.0007325 (3.53301e-05)
Other time (%) = 2064.06 (99.5541)

Nlocal:    3.55 ave 68 max 0 min
Histogram: 37 1 0 0 0 0 0 0 1 1
Nghost:    0.45 ave 5 max 0 min
Histogram: 34 0 1 0 2 0 0 0 2 1
Neighs:    0.15 ave 4 max 0 min
Histogram: 37 0 2 0 0 0 0 0 0 1

Total # of neighbors = 6
Ave neighs/atom = 0.0422535
Neighbor list builds = 6948
Dangerous builds = 1
write_dump all custom dump.atom_info_ac_* id type x y z radius vx vy vz density #
run 205761
Setting up run at Fri Jan  6 06:33:45 2023

Memory usage per processor = 960.195 Mbytes
    Step    Atoms         KinEng            CPU 
31481465      142  6.0158934e-06              0 
31687226      142  0.00011706885      2035.1866 
Loop time of 2035.19 on 40 procs for 205761 steps with 142 atoms, finish time Fri Jan  6 07:07:41 2023


Pair  time (%) = 0.349871 (0.0171911)
Neigh time (%) = 0.436695 (0.0214572)
Comm  time (%) = 0.951082 (0.0467319)
Outpt time (%) = 0.000319637 (1.57055e-05)
Other time (%) = 2033.45 (99.9146)

Nlocal:    3.55 ave 67 max 0 min
Histogram: 37 1 0 0 0 0 0 0 1 1
Nghost:    0.525 ave 5 max 0 min
Histogram: 34 0 0 0 2 0 1 0 1 2
Neighs:    0.1 ave 3 max 0 min
Histogram: 38 0 0 1 0 0 0 0 0 1

Total # of neighbors = 4
Ave neighs/atom = 0.028169
Neighbor list builds = 550
Dangerous builds = 0
write_dump all custom dump.atom_info_ac_* id type x y z radius vx vy vz density #
run 205761
Setting up run at Fri Jan  6 07:07:41 2023

Memory usage per processor = 960.195 Mbytes
    Step    Atoms         KinEng            CPU 
31687226      142  0.00011706885              0 
31892987      142   0.0022462234       2033.565 
Loop time of 2033.56 on 40 procs for 205761 steps with 142 atoms, finish time Fri Jan  6 07:41:34 2023


Pair  time (%) = 0.348371 (0.017131)
Neigh time (%) = 0.51183 (0.0251691)
Comm  time (%) = 0.961459 (0.0472795)
Outpt time (%) = 0.000711682 (3.49968e-05)
Other time (%) = 2031.74 (99.9104)

Nlocal:    3.55 ave 65 max 0 min
Histogram: 37 1 0 0 0 0 0 0 0 2
Nghost:    0.625 ave 9 max 0 min
Histogram: 32 3 2 0 1 1 0 0 0 1
Neighs:    0.15 ave 4 max 0 min
Histogram: 37 0 2 0 0 0 0 0 0 1

Total # of neighbors = 6
Ave neighs/atom = 0.0422535
Neighbor list builds = 642
Dangerous builds = 0
write_dump all custom dump.atom_info_ac_* id type x y z radius vx vy vz density #
run 205761
Setting up run at Fri Jan  6 07:41:34 2023

Memory usage per processor = 960.195 Mbytes
    Step    Atoms         KinEng            CPU 
31892987      142   0.0022462234              0 
32098748      141  0.00056158882      2039.9902 
Loop time of 2039.99 on 40 procs for 205761 steps with 141 atoms, finish time Fri Jan  6 08:15:34 2023


Pair  time (%) = 0.350397 (0.0171764)
Neigh time (%) = 0.999681 (0.0490042)
Comm  time (%) = 1.60866 (0.0788563)
Outpt time (%) = 0.00039607 (1.94153e-05)
Other time (%) = 2037.03 (99.8549)

Nlocal:    3.525 ave 68 max 0 min
Histogram: 37 1 0 0 0 0 0 0 1 1
Nghost:    0.6 ave 7 max 0 min
Histogram: 34 2 1 0 0 0 0 0 1 2
Neighs:    0.125 ave 4 max 0 min
Histogram: 38 0 1 0 0 0 0 0 0 1

Total # of neighbors = 5
Ave neighs/atom = 0.035461
Neighbor list builds = 1231
Dangerous builds = 37
write_dump all custom dump.atom_info_ac_* id type x y z radius vx vy vz density #
run 205761
Setting up run at Fri Jan  6 08:15:34 2023

Memory usage per processor = 960.195 Mbytes
    Step    Atoms         KinEng            CPU 
32098748      141  0.00056158882              0 
32304509      140  2.7101274e-06      2039.2502 
Loop time of 2039.25 on 40 procs for 205761 steps with 140 atoms, finish time Fri Jan  6 08:49:34 2023


Pair  time (%) = 0.352182 (0.0172702)
Neigh time (%) = 1.68899 (0.0828239)
Comm  time (%) = 2.09901 (0.10293)
Outpt time (%) = 0.000736646 (3.61234e-05)
Other time (%) = 2035.11 (99.7969)

Nlocal:    3.5 ave 67 max 0 min
Histogram: 37 1 0 0 0 0 0 0 1 1
Nghost:    0.65 ave 9 max 0 min
Histogram: 34 2 1 0 0 0 1 1 0 1
Neighs:    0.15 ave 4 max 0 min
Histogram: 38 0 0 0 0 1 0 0 0 1

Total # of neighbors = 6
Ave neighs/atom = 0.0428571
Neighbor list builds = 2062
Dangerous builds = 0
write_dump all custom dump.atom_info_ac_* id type x y z radius vx vy vz density #
run 205761
Setting up run at Fri Jan  6 08:49:34 2023

Memory usage per processor = 960.195 Mbytes
    Step    Atoms         KinEng            CPU 
32304509      140  2.7101274e-06              0 
32510270      139  6.7169675e-05      2040.0981 
Loop time of 2040.1 on 40 procs for 205761 steps with 139 atoms, finish time Fri Jan  6 09:23:34 2023


Pair  time (%) = 0.349055 (0.0171097)
Neigh time (%) = 0.668163 (0.0327515)
Comm  time (%) = 0.995698 (0.0488064)
Outpt time (%) = 0.000346042 (1.6962e-05)
Other time (%) = 2038.09 (99.9013)

Nlocal:    3.475 ave 64 max 0 min
Histogram: 37 1 0 0 0 0 0 0 1 1
Nghost:    0.525 ave 6 max 0 min
Histogram: 34 3 0 0 0 0 0 0 0 3
Neighs:    0.225 ave 5 max 0 min
Histogram: 38 0 0 0 0 0 0 0 1 1

Total # of neighbors = 9
Ave neighs/atom = 0.0647482
Neighbor list builds = 832
Dangerous builds = 1
write_dump all custom dump.atom_info_ac_* id type x y z radius vx vy vz density #
run 205761
Setting up run at Fri Jan  6 09:23:34 2023

Memory usage per processor = 960.195 Mbytes
    Step    Atoms         KinEng            CPU 
32510270      139  6.7169675e-05              0 
32716031      139   0.0003196072      2031.7419 
Loop time of 2031.74 on 40 procs for 205761 steps with 139 atoms, finish time Fri Jan  6 09:57:26 2023


Pair  time (%) = 0.350074 (0.0172302)
Neigh time (%) = 0.629498 (0.0309832)
Comm  time (%) = 0.869208 (0.0427814)
Outpt time (%) = 0.000669316 (3.2943e-05)
Other time (%) = 2029.89 (99.909)

Nlocal:    3.475 ave 64 max 0 min
Histogram: 37 1 0 0 0 0 0 0 1 1
Nghost:    0.5 ave 8 max 0 min
Histogram: 34 3 0 0 0 1 1 0 0 1
Neighs:    0.175 ave 5 max 0 min
Histogram: 38 0 0 0 1 0 0 0 0 1

Total # of neighbors = 7
Ave neighs/atom = 0.0503597
Neighbor list builds = 783
Dangerous builds = 0
write_dump all custom dump.atom_info_ac_* id type x y z radius vx vy vz density #
run 205761
Setting up run at Fri Jan  6 09:57:26 2023

Memory usage per processor = 960.195 Mbytes
    Step    Atoms         KinEng            CPU 
32716031      139   0.0003196072              0 
32921792      139  0.00013406731      2028.7048 
Loop time of 2028.71 on 40 procs for 205761 steps with 139 atoms, finish time Fri Jan  6 10:31:15 2023


Pair  time (%) = 0.352132 (0.0173575)
Neigh time (%) = 0.445397 (0.0219547)
Comm  time (%) = 0.936181 (0.0461467)
Outpt time (%) = 0.000344509 (1.69817e-05)
Other time (%) = 2026.97 (99.9145)

Nlocal:    3.475 ave 61 max 0 min
Histogram: 37 1 0 0 0 0 0 0 0 2
Nghost:    0.6 ave 7 max 0 min
Histogram: 33 3 1 0 0 0 0 1 0 2
Neighs:    0.125 ave 3 max 0 min
Histogram: 38 0 0 0 0 0 1 0 0 1

Total # of neighbors = 5
Ave neighs/atom = 0.0359712
Neighbor list builds = 562
Dangerous builds = 0
write_dump all custom dump.atom_info_ac_* id type x y z radius vx vy vz density #
run 205761
Setting up run at Fri Jan  6 10:31:15 2023

Memory usage per processor = 960.195 Mbytes
    Step    Atoms         KinEng            CPU 
32921792      139  0.00013406731              0 
33127553      138   0.0091315002      2047.6722 
Loop time of 2047.67 on 40 procs for 205761 steps with 138 atoms, finish time Fri Jan  6 11:05:22 2023


Pair  time (%) = 0.35922 (0.0175428)
Neigh time (%) = 2.71904 (0.132787)
Comm  time (%) = 2.84388 (0.138883)
Outpt time (%) = 0.000666167 (3.25329e-05)
Other time (%) = 2041.75 (99.7108)

Nlocal:    3.45 ave 61 max 0 min
Histogram: 37 1 0 0 0 0 0 0 0 2
Nghost:    0.5 ave 6 max 0 min
Histogram: 34 2 0 1 0 0 0 0 2 1
Neighs:    0.1 ave 3 max 0 min
Histogram: 38 0 0 1 0 0 0 0 0 1

Total # of neighbors = 4
Ave neighs/atom = 0.0289855
Neighbor list builds = 3305
Dangerous builds = 1
write_dump all custom dump.atom_info_ac_* id type x y z radius vx vy vz density #
run 205761
Setting up run at Fri Jan  6 11:05:22 2023

Memory usage per processor = 960.195 Mbytes
    Step    Atoms         KinEng            CPU 
33127553      138   0.0091315002              0 
33333314      135  1.8059919e-06       2051.213 
Loop time of 2051.21 on 40 procs for 205761 steps with 135 atoms, finish time Fri Jan  6 11:39:34 2023


Pair  time (%) = 0.354794 (0.0172968)
Neigh time (%) = 1.89304 (0.0922889)
Comm  time (%) = 2.20691 (0.107591)
Outpt time (%) = 0.00031311 (1.52646e-05)
Other time (%) = 2046.76 (99.7828)

Nlocal:    3.375 ave 61 max 0 min
Histogram: 38 0 0 0 0 0 0 0 0 2
Nghost:    0.425 ave 5 max 0 min
Histogram: 34 0 2 0 0 0 2 0 1 1
Neighs:    0.1 ave 2 max 0 min
Histogram: 38 0 0 0 0 0 0 0 0 2

Total # of neighbors = 4
Ave neighs/atom = 0.0296296
Neighbor list builds = 2306
Dangerous builds = 1
write_dump all custom dump.atom_info_ac_* id type x y z radius vx vy vz density #
run 205761
Setting up run at Fri Jan  6 11:39:34 2023

Memory usage per processor = 960.195 Mbytes
    Step    Atoms         KinEng            CPU 
33333314      135  1.8059919e-06              0 
33539075      135  1.7962135e-06      2030.0126 
Loop time of 2030.01 on 40 procs for 205761 steps with 135 atoms, finish time Fri Jan  6 12:13:24 2023


Pair  time (%) = 0.35309 (0.0173935)
Neigh time (%) = 0.436306 (0.0214928)
Comm  time (%) = 1.00531 (0.0495225)
Outpt time (%) = 0.000719724 (3.54542e-05)
Other time (%) = 2028.22 (99.9116)

Nlocal:    3.375 ave 61 max 0 min
Histogram: 37 1 0 0 0 0 0 0 0 2
Nghost:    0.45 ave 5 max 0 min
Histogram: 33 0 3 0 1 0 1 0 0 2
Neighs:    0.1 ave 2 max 0 min
Histogram: 38 0 0 0 0 0 0 0 0 2

Total # of neighbors = 4
Ave neighs/atom = 0.0296296
Neighbor list builds = 550
Dangerous builds = 0
write_dump all custom dump.atom_info_ac_* id type x y z radius vx vy vz density #
run 205761
Setting up run at Fri Jan  6 12:13:24 2023

Memory usage per processor = 960.195 Mbytes
    Step    Atoms         KinEng            CPU 
33539075      135  1.7962135e-06              0 
33744836      135  1.0132282e-05       2096.341 
Loop time of 2096.34 on 40 procs for 205761 steps with 135 atoms, finish time Fri Jan  6 12:48:20 2023


Pair  time (%) = 0.352478 (0.0168139)
Neigh time (%) = 0.436281 (0.0208115)
Comm  time (%) = 0.944991 (0.0450781)
Outpt time (%) = 0.000370261 (1.76622e-05)
Other time (%) = 2094.61 (99.9173)

Nlocal:    3.375 ave 63 max 0 min
Histogram: 37 1 0 0 0 0 0 0 1 1
Nghost:    0.525 ave 8 max 0 min
Histogram: 35 1 1 0 0 0 2 0 0 1
Neighs:    0.075 ave 2 max 0 min
Histogram: 38 0 0 0 0 1 0 0 0 1

Total # of neighbors = 3
Ave neighs/atom = 0.0222222
Neighbor list builds = 550
Dangerous builds = 0
write_dump all custom dump.atom_info_ac_* id type x y z radius vx vy vz density #
run 205761
Setting up run at Fri Jan  6 12:48:20 2023

Memory usage per processor = 960.195 Mbytes
    Step    Atoms         KinEng            CPU 
33744836      135  1.0132282e-05              0 
WARNING: Forced restart written (../output.cpp:427)
33827656      135  6.6876726e-05      839.19289 
Loop time of 839.193 on 40 procs for 205761 steps with 135 atoms, finish time Fri Jan  6 13:02:19 2023


Pair  time (%) = 0.141824 (0.0169)
Neigh time (%) = 0.175834 (0.0209527)
Comm  time (%) = 0.264573 (0.031527)
Outpt time (%) = 0.0420557 (0.00501145)
Other time (%) = 838.569 (99.9256)

Nlocal:    3.375 ave 63 max 0 min
Histogram: 37 1 0 0 0 0 0 0 1 1
Nghost:    0.575 ave 7 max 0 min
Histogram: 33 3 1 0 0 0 0 1 1 1
Neighs:    0.1 ave 3 max 0 min
Histogram: 38 0 0 1 0 0 0 0 0 1

Total # of neighbors = 4
Ave neighs/atom = 0.0296296
Neighbor list builds = 222
Dangerous builds = 0
