ITEM: TIMESTEP
8024642
ITEM: NUMBER OF ATOMS
221
ITEM: BOX BOUNDS ff ff ff
-0.15 0.15
-0.15 0.15
-0.15 0.15
ITEM: ATOMS id type x y z radius vx vy vz density 
215 1 -0.00290606 -0.0188514 -0.0678905 0.001058 -33.8689 1.94706 1.44883 2650 
44 1 -0.0100588 -0.0100339 -0.0671975 0.001058 -25.1378 6.31115 3.76022 2650 
121 1 -0.00435804 -0.0072474 -0.0671588 0.00164 -19.291 -5.20319 1.32378 2650 
146 1 -0.004437 -0.00385703 -0.0677563 0.001058 -33.8126 7.23447 2.98678 2650 
88 1 -0.023571 -0.0117068 -0.0647374 0.000105 -17.5205 -2.45558 6.37926 2650 
19 1 -0.023337 -0.00984284 -0.0638265 0.001058 -35.5665 8.73333 12.9989 2650 
148 1 -0.03127 -0.0559748 -0.0603419 0.001058 -35.058 -2.00142 18.1543 2650 
26 1 -0.0339266 -0.0518009 -0.0588712 0.001058 -17.2078 1.76899 9.90898 2650 
98 1 -0.0486725 -0.0151326 -0.0474328 0.001058 -20.8595 1.31599 21.3872 2650 
50 1 -0.0529953 -0.0412477 -0.0426074 0.001058 -41.6619 -11.15 51.7869 2650 
237 1 -0.0532098 -0.0373809 -0.0423317 0.001058 -38.4913 -9.7601 48.3634 2650 
108 1 -0.0457924 -0.0105315 -0.0457687 0.001058 -0.650845 -0.384179 -0.221637 2650 
111 1 -0.0554676 -0.0438285 -0.0405549 0.000291 -12.0124 0.296659 16.4248 2650 
236 1 -0.0396196 -0.030196 -0.0406689 0.001058 3.88812 0.835857 -1.06735 2650 
73 1 -0.0563777 -0.0266094 -0.0371201 0.00164 -41.4352 -0.165939 62.8791 2650 
194 1 -0.0589234 -0.0351142 -0.0339571 0.001058 -35.6717 -3.67637 61.8824 2650 
82 1 -0.0585353 -0.00444096 -0.0345649 0.001058 -21.5474 -4.26637 36.46 2650 
243 1 -0.0651841 -0.00531351 -0.0192561 0.001058 -6.33888 -1.48553 21.4396 2650 
184 1 -0.00999149 -0.00305313 -0.0134982 0.000105 -0.0954614 -0.021951 0.0355962 2650 
224 1 -0.00863494 -0.0027646 -0.0132048 0.001058 0.0722726 -0.114797 -0.0584452 2650 
264 1 -0.0673864 -0.0258122 -0.00891142 0.001058 -3.46826 -2.94298 26.2047 2650 
135 1 -0.00293123 -0.00028677 -0.00762862 0.000291 0.0022501 0.000177671 -0.0146391 2650 
257 1 -0.0679358 -0.0422123 -0.00283395 0.001058 -2.22056 -16.0856 53.1931 2650 
140 1 -0.0674146 -0.0346068 -0.00563749 0.001058 -0.211618 -6.07276 1.03284 2650 
76 1 -0.00085887 -0.00275032 -0.00542308 0.001058 0.00564796 -0.0105611 0.000695373 2650 
295 1 -0.0659617 -0.0249055 -0.0024375 0.000291 4.31111 9.51425 3.91262 2650 
175 1 -0.0156128 -0.000597182 -0.00306986 0.000291 0.010197 -0.0347854 0.02141 2650 
201 1 -0.0673955 -0.0291339 -0.000393569 0.00164 -0.0250852 -4.97568 4.39936 2650 
18 1 -0.00822841 -2.23441e-05 -0.00105258 0.001058 -0.0329176 0.00300323 -0.0337928 2650 
14 1 -0.006378 -0.00294445 0.001478 0.000291 0 -0.01175 0 2650 
296 1 -0.005879 -0.00246645 0.000521 0.000291 0 -0.01175 0 2650 
191 1 -0.0108 -0.00161245 0.001549 0.000291 0 -0.01175 0 2650 
168 1 -0.007536 -0.000601452 0.001389 0.000105 0 -0.01175 0 2650 
84 1 -0.0678389 -0.0181289 0.00432834 0.001058 2.00081 -3.80328 31.3357 2650 
267 1 -0.0682699 -0.00858376 0.00781224 0.000291 2.78174 2.32674 24.3031 2650 
38 1 -0.00200609 -0.000172567 0.00606053 0.000291 -0.00750743 0.00682636 -0.0181611 2650 
1 1 -0.00633124 -0.00134919 0.00819606 0.00164 -0.0558474 0.00663379 -0.0116903 2650 
251 1 -0.00710197 -0.00273521 0.0137057 0.001058 0.0271527 -0.00617442 -0.00786306 2650 
233 1 -0.00684667 -0.00171721 0.0128295 0.000291 -0.0314384 0.0274652 -0.00503183 2650 
160 1 -0.0646247 -0.0539519 0.0238833 0.000105 8.67241 -1.25762 23.464 2650 
103 1 -0.0622236 -0.0522422 0.0291533 0.000291 14.2046 2.94704 30.3101 2650 
126 1 -0.0613399 -0.00875473 0.0309659 0.000291 -0.0809125 -0.2062 -0.160232 2650 
100 1 -0.0570769 -0.0601086 0.0369027 0.001058 15.7835 1.24688 24.3924 2650 
118 1 -0.0526675 -0.048215 0.0441303 0.000291 18.0161 -1.11432 21.4954 2650 
53 1 -0.0517832 -0.0377515 0.0451678 0.000291 33.5408 16.6489 38.4451 2650 
42 1 -0.0475778 -0.034445 0.0485864 0.001058 50.6918 0.276351 49.609 2650 
239 1 -0.0419587 -0.0403882 0.0534677 0.001058 29.3605 7.62103 23.0231 2650 
259 1 -0.0392362 -0.00628019 0.0554838 0.001058 21.971 -1.92914 15.5243 2650 
231 1 -0.0251804 -0.0219861 0.0631182 0.001058 30.9118 0.74882 12.3227 2650 
226 1 -0.0225224 -0.0142504 0.0649128 0.000291 27.2588 8.48823 9.45763 2650 
303 1 -0.0228861 -0.00882764 0.0647854 0.000291 14.658 0.478862 5.17808 2650 
232 1 -0.00348679 -0.0103198 0.0678546 0.001058 22.3845 0.705427 1.14987 2650 
222 1 -0.00543536 -0.00770063 0.0677244 0.001058 13.2134 -2.00851 1.06044 2650 
179 1 -0.00764135 -0.00496481 0.0675132 0.001058 16.2523 -3.00281 1.73541 2650 
95 1 -0.012565 0.0620748 -0.029672 0.000291 -1.53664 0.269421 -4.02728 2650 
115 1 -0.00248046 0.00742145 -0.0156511 0.001058 0.124809 -0.0185945 -0.00494033 2650 
58 1 -0.00499295 0.0199698 -0.0145239 0.001058 0.0591873 0.140062 -0.137861 2650 
268 1 -0.00803834 0.0268659 -0.0144466 0.000291 0.092586 0.153652 -0.00220769 2650 
47 1 -0.00826378 0.0030673 -0.0133396 0.000291 0.0654964 -0.0632743 -0.0347672 2650 
94 1 -0.0097359 0.00708838 -0.013368 0.000291 0.0335832 0.00548806 -0.0271329 2650 
170 1 -0.00440247 0.0219737 -0.0137781 0.001058 0.100959 0.120853 0.0354214 2650 
13 1 -0.0129447 0.00291289 -0.0103072 0.000291 0.119611 -0.0790324 -0.168024 2650 
33 1 -0.00358873 0.00502052 -0.0117839 0.00164 0.00139121 -0.00702858 0.00589607 2650 
234 1 -0.0105759 0.00659269 -0.0114958 0.000291 -0.0198056 0.0044 -0.0033269 2650 
256 1 -0.0121309 0.0210056 -0.0114576 0.000291 0.045668 0.0916356 -0.0398003 2650 
127 1 -0.00678143 0.0280989 -0.0110165 0.000291 0.0287766 0.0561217 0.00113528 2650 
114 1 -0.0118315 0.000751294 -0.00827614 0.001058 0.00824897 -0.0118577 -0.0453701 2650 
240 1 -0.0100034 0.0141324 -0.00947439 0.000291 0.084197 0.0675078 -0.0216258 2650 
35 1 -0.013365 0.00442507 -0.00760805 0.001058 0.0712596 0.015719 -0.0150086 2650 
154 1 -0.00590074 0.0371066 -0.00780014 0.001058 -0.0457969 0.0551383 0.0326121 2650 
85 1 -0.0683886 0.0631102 -0.00668759 0.000291 0.0720385 -0.566755 -0.736484 2650 
97 1 -0.0142263 0.00192883 -0.00429635 0.00164 0.0118417 -0.0149296 -0.0134137 2650 
17 1 -0.0142927 0.00712798 -0.00466861 0.00164 0.00298115 0.0232228 0.000561492 2650 
159 1 -0.012707 0.00624255 -0.00588 0.000291 0 -0.01175 0 2650 
74 1 -0.0086966 0.00630637 -0.00432771 0.001058 0.0197531 0.00277685 0.00564839 2650 
10 1 -0.0138385 0.0106958 -0.00462664 0.001058 0.0234032 0.0301564 -0.0135831 2650 
75 1 -0.0112589 0.032387 -0.00436038 0.001058 0.0171891 0.064434 -0.0211867 2650 
274 1 -0.016349 0.000113548 -0.002509 0.000291 0 -0.01175 0 2650 
276 1 -0.0118464 0.00497711 -0.00296415 0.000291 0.0140957 0.000399388 0.00506155 2650 
209 1 -0.0109837 0.00634289 -0.0030263 0.001058 0.0131036 0.00683383 0.00483425 2650 
144 1 -0.0111764 0.0116775 -0.00368505 0.000105 0.00862261 0.0155448 0.0270904 2650 
220 1 -0.0134753 0.0179693 -0.00254964 0.000291 0.00621602 0.00749286 0.0146849 2650 
7 1 -0.00647869 0.0193238 -0.00307641 0.000291 0.00379351 0.0136266 -0.000190797 2650 
206 1 -0.0163478 0.0321836 -0.00247202 0.000291 0.143582 -0.108174 -0.814381 2650 
99 1 -0.0144585 0.00450247 -0.000900428 0.001058 0.0183242 -0.0106373 0.00984415 2650 
80 1 -0.013414 0.00576437 -0.00130884 0.000105 0.0101478 -0.00197038 -0.0113343 2650 
61 1 -0.016439 0.00596055 -0.001038 0.000291 0 -0.01175 0 2650 
77 1 -0.00433444 0.0106605 -1.82594e-05 0.000291 0.0277953 0.00207908 -0.016867 2650 
41 1 -0.00574404 0.0133303 -0.00133534 0.00164 0.0101493 0.00903205 0.0210511 2650 
65 1 -0.0107456 0.0165284 -0.00118156 0.00164 -0.00350053 0.0118922 0.00337463 2650 
120 1 -0.016055 0.00160055 0.000189 0.000105 0 -0.01175 0 2650 
52 1 -0.0150681 0.00673702 0.000910081 0.001058 0.00529367 0.0111662 0.00776024 2650 
104 1 -0.00948467 0.0101106 0.00139228 0.000105 0.0599188 0.0743968 0.0612846 2650 
176 1 -0.003983 0.00293755 0.002552 0.000105 0 -0.01175 0 2650 
129 1 -0.00652784 0.00675011 0.00223992 0.00164 0.0162915 0.00858227 0.00363384 2650 
273 1 -0.00175018 0.0206433 0.00312504 0.001058 -0.00378567 0.0376334 0.0311204 2650 
164 1 -0.00395858 0.00201347 0.00543152 0.001058 -0.000670219 -0.0113356 -0.000368244 2650 
4 1 -0.0146424 0.00765292 0.00552584 0.001058 -0.00609946 0.00231419 -0.0317533 2650 
291 1 -0.008194 0.00634755 0.004767 0.000291 0 -0.01175 0 2650 
242 1 -0.00865469 0.0124442 0.0050072 0.000291 -0.0086111 0.00654042 0.00262129 2650 
186 1 -0.006177 0.00428955 0.006545 0.001058 0 -0.01175 0 2650 
266 1 -0.0128752 0.00776065 0.00749099 0.001058 -0.00526086 0.00703409 -0.0278391 2650 
71 1 -0.00203729 0.00745225 0.00629482 0.000291 -0.00101545 -0.00618567 -0.020495 2650 
304 1 -0.0151166 0.0136915 0.00658587 0.000291 -0.0228026 0.0593621 -0.0466843 2650 
55 1 -0.0152449 0.014464 0.00675047 0.000291 -0.0141962 0.0746019 -0.0630433 2650 
292 1 -0.00365242 0.0155323 0.00678572 0.001058 -0.0174643 0.0536041 0.0178891 2650 
66 1 -0.0138983 0.0166414 0.00639167 0.001058 -0.0873431 0.0424634 -0.0855759 2650 
217 1 -0.0137105 0.023674 0.00784481 0.001058 -0.0248668 0.025106 -0.0769209 2650 
157 1 -0.00929879 0.0449777 0.00754719 0.000291 0.0200522 0.0842483 0.026686 2650 
245 1 -0.00225165 0.0492339 0.00703456 0.001058 0.0132501 0.0534812 -0.0221989 2650 
300 1 -0.0125917 0.000105267 0.00967084 0.001058 -0.0127854 -0.0286388 -0.0137875 2650 
299 1 -0.00844986 0.00157412 0.00849891 0.001058 0.0219153 -0.031247 -0.0352838 2650 
68 1 -0.00333165 0.00934192 0.00999567 0.001058 0.0027366 -0.00341554 -0.0016946 2650 
59 1 -0.0103708 0.0127763 0.00910394 0.001058 0.00978476 0.0578201 -0.0306719 2650 
249 1 -0.00281461 0.0189138 0.00836818 0.000291 0.00967839 0.0183331 -0.0129307 2650 
106 1 -0.00965538 0.0222473 0.00878886 0.001058 0.0137575 0.0554487 0.0117951 2650 
145 1 -0.0110685 0.0294457 0.00850767 0.00164 -0.0670036 0.129646 -0.0681645 2650 
285 1 -0.0101114 0.00126036 0.0122368 0.001058 -0.00567287 -0.013081 -0.00684475 2650 
238 1 -0.00360455 0.0178076 0.0142731 0.001058 0.0206406 0.0247492 -0.00648467 2650 
54 1 -0.00371179 0.0292548 0.0160278 0.000291 0.0409507 0.0217642 0.0638771 2650 
133 1 -0.0109797 0.00481851 0.0678905 0.000291 382.806 -15.8571 61.9026 2650 
49 1 0.0051302 -0.0557242 -0.0671834 0.00164 -27.5292 -2.474 -2.09987 2650 
122 1 0.00464852 -0.0297452 -0.0678337 0.001058 -71.8136 12.7488 -4.91815 2650 
183 1 0.0118154 -0.0191102 -0.066701 0.000291 -12.743 -4.77665 -3.07904 2650 
247 1 0.0144947 -0.0480339 -0.0622232 0.000291 -18.9994 4.99202 -5.07578 2650 
225 1 0.043953 -0.0545885 -0.0518344 0.001058 -23.4117 -2.67603 -19.836 2650 
137 1 0.0419935 -0.0346436 -0.052707 0.00164 -19.7608 0.0776459 -15.7248 2650 
228 1 0.0480635 -0.0595694 -0.0491009 0.000291 -4.9791 -3.29676 -4.87207 2650 
270 1 0.0591465 -0.00572454 -0.0347897 0.000291 2.81944 -0.135089 -1.43078 2650 
263 1 0.006877 -0.000845452 -0.012319 0.000291 0 -0.01175 0 2650 
196 1 0.002599 -0.00237245 -0.011929 0.001058 0 -0.01175 0 2650 
138 1 0.0673427 -0.00803421 -0.00917775 0.001058 -1.27309 0.91373 -9.33298 2650 
83 1 0.0672942 -0.00321639 -0.00960881 0.001058 -4.49742 -0.579233 -31.473 2650 
102 1 0.003423 -0.000940452 -0.006065 0.000291 0 -0.01175 0 2650 
117 1 0.004754 -0.000678452 -0.007063 0.000291 0 -0.01175 0 2650 
178 1 0.00402151 -0.00324 -0.00502753 0.001058 0.00485632 -0.00737143 -0.00224239 2650 
246 1 0.001376 -0.00143945 -0.005453 0.001058 0 -0.01175 0 2650 
205 1 0.0014319 -0.001673 -0.000243223 0.000291 -0.0110845 -0.00951857 0.00619805 2650 
177 1 0.00351179 -0.000723925 -0.00194214 0.00164 -0.00972365 -0.00599557 0.0042022 2650 
2 1 0.0679772 -0.0417925 -0.000584975 0.001058 -0.302717 -1.64884 -35.1591 2650 
96 1 0.009869 -0.00268345 0.000788 0.000105 0 -0.01175 0 2650 
81 1 0.00698936 -0.00155623 0.000175871 0.00164 -0.0122586 -0.0180107 0.00259914 2650 
261 1 0.0113474 -0.00134919 0.000475434 0.000291 0.00222479 -0.0152704 0.00253511 2650 
210 1 0.0103101 -0.00166848 0.00214737 0.001058 -0.0106222 -0.00657497 -0.00336931 2650 
150 1 0.0100884 -0.00282622 0.00429654 0.000291 0.00639996 -0.0179725 -0.00378652 2650 
223 1 0.00934208 -0.00187747 0.00491567 0.001058 0.0234053 -0.008914 0.00888968 2650 
174 1 0.002361 -0.00315045 0.006466 0.000291 0 -0.01175 0 2650 
161 1 0.0294208 -0.00792581 0.00860474 0.00164 3.95964 -0.500483 1.22755 2650 
3 1 0.0115123 -0.00434742 0.0119445 0.001058 0.423369 -0.347815 0.543718 2650 
219 1 0.067117 -0.0133011 0.0147329 0.000291 4.73425 2.64234 -21.5617 2650 
277 1 0.0666294 -0.00508805 0.0167986 0.000291 2.27745 -0.720643 -9.03081 2650 
305 1 0.066206 -0.0246971 0.0190678 0.000105 11.4873 3.18446 -39.8818 2650 
258 1 0.0627001 -0.0288343 0.0262523 0.001058 12.8314 -9.29159 -30.6223 2650 
23 1 0.0577894 -0.0142485 0.0371726 0.000291 10.6101 4.67192 -16.4899 2650 
208 1 0.0538538 -0.0606068 0.0414503 0.001058 11.9837 -0.820333 -15.5556 2650 
30 1 0.0525524 -0.0367245 0.0441703 0.000291 12.3243 -12.636 -13.5339 2650 
255 1 0.0433102 -0.0485046 0.0533417 0.000291 23.2446 6.32143 -18.8683 2650 
293 1 0.0328421 -0.0155036 0.059485 0.001058 20.0442 -2.31678 -11.0579 2650 
143 1 0.0204106 -0.0384575 0.0634328 0.000291 48.8397 -4.08408 -8.75489 2650 
272 1 0.0058754 -0.0340662 0.0676905 0.001058 23.9089 -5.62817 -2.07425 2650 
169 1 0.00162177 -0.0183414 0.0673425 0.00164 15.0386 1.1785 -0.361982 2650 
130 1 0.00949732 0.0601571 -0.0672749 0.001058 1.2143 -0.459369 0.171424 2650 
142 1 0.0501531 0.0709896 -0.0469652 0.000291 0.302898 -0.16266 0.323334 2650 
37 1 0.006156 0.00566055 -0.015157 0.000291 0 -0.01175 0 2650 
187 1 0.000270666 0.0154123 -0.0158262 0.001058 0.173103 0.0233598 -0.00690099 2650 
147 1 0.00314875 0.0176547 -0.0155793 0.001058 -0.0449026 0.0535099 -0.000455526 2650 
244 1 0.00155594 0.0217852 -0.0157327 0.001058 0.232483 0.0732495 0.0405925 2650 
28 1 0.000150732 0.0408847 -0.0158539 0.001058 0.201187 0.179165 -0.0100209 2650 
289 1 0.001465 0.000321548 -0.012477 0.000291 0 -0.01175 0 2650 
78 1 0.001258 0.00564655 -0.012517 0.000291 0 -0.01175 0 2650 
252 1 0.00220677 0.00395358 -0.0139238 0.001058 -0.00169919 -0.0122947 -0.00393889 2650 
155 1 0.00838009 0.0132328 -0.013183 0.001058 0.0535944 0.0301791 0.0229313 2650 
123 1 0.00867073 0.0154099 -0.0129547 0.001058 0.0641599 0.0551582 -0.0389623 2650 
260 1 0.00748278 0.00215722 -0.0105953 0.000291 -0.0126887 0.00194451 -0.0180502 2650 
105 1 0.00295419 0.00549261 -0.0114832 0.00164 -0.0036356 -0.00530096 -0.00394489 2650 
110 1 0.00475221 0.00437774 -0.0119264 0.000291 -0.00523671 -0.0243298 -0.00941642 2650 
203 1 0.000754027 0.00907915 -0.0118435 0.001058 0.0258377 0.0432949 0.0372977 2650 
124 1 0.0111529 0.0200321 -0.0113568 0.001058 0.166646 0.0282818 0.19135 2650 
134 1 0.00831517 0.00386036 -0.00811869 0.000291 -0.0118829 0.00375813 -0.00608975 2650 
198 1 0.0141917 0.00211108 -0.008513 0.000291 0.0769728 -0.148994 0.140813 2650 
60 1 0.007579 0.00196255 -0.006312 0.001058 0 -0.01175 0 2650 
45 1 0.010575 0.00188255 -0.007722 0.000291 0 -0.01175 0 2650 
67 1 0.00393852 0.00384264 -0.0078053 0.001058 -0.00558703 -0.00493479 0.00721537 2650 
87 1 0.0146326 0.0047163 -0.00763475 0.000291 0.0833157 -0.116571 0.155303 2650 
250 1 0.00293032 0.017997 -0.00647397 0.001058 0.056604 0.0605666 -0.00107285 2650 
278 1 7.4e-05 0.00447355 -0.004448 0.001058 0 -0.01175 0 2650 
139 1 0.00874562 0.0179775 -0.00541144 0.001058 0.0124295 0.00846741 0.0230295 2650 
92 1 0.007581 0.000687481 -0.00319048 0.001058 -0.0170112 -0.0145976 0.00501068 2650 
227 1 0.00944 0.00256055 -0.002109 0.000291 0 -0.01175 0 2650 
253 1 0.0162958 0.00118895 -0.00179971 0.000291 -0.020244 -0.00223379 0.021319 2650 
279 1 0.00360033 0.0100477 -0.00114514 0.001058 -0.0328471 0.0327779 0.0196511 2650 
113 1 0.00972119 0.000706445 0.000586962 0.00164 -0.0144403 -0.00120066 0.0247606 2650 
48 1 0.009671 0.00315455 0.000233 0.000105 0 -0.01175 0 2650 
128 1 0.00361 0.00486155 0.000511 0.000105 0 -0.01175 0 2650 
190 1 0.0063331 0.00786288 0.00193924 0.000291 0.00420752 0.013454 0.0239722 2650 
116 1 0.00914934 0.0212096 0.00175828 0.001058 -0.0193078 0.0669284 0.0834163 2650 
294 1 0.006997 0.00286855 0.003581 0.001058 0 -0.01175 0 2650 
153 1 0.00143013 0.00851826 0.00347788 0.00164 0.0126939 0.00305775 -0.0265106 2650 
202 1 0.00214522 0.00319798 0.00572046 0.001058 0.00927578 -0.00719028 -0.0138109 2650 
101 1 0.00388392 0.00262266 0.00539092 0.000291 -0.0172929 -0.0296728 0.0535501 2650 
271 1 0.00484456 0.00385131 0.00422716 0.001058 -0.00823231 -0.0152348 0.0538186 2650 
24 1 0.005464 0.00295055 0.005551 0.000105 0 -0.01175 0 2650 
212 1 0.00103354 0.00416538 0.00459482 0.000291 -0.000536105 -0.00385845 -0.0132408 2650 
51 1 0.009662 0.00402355 0.004577 0.001058 0 -0.01175 0 2650 
79 1 0.014214 0.00586355 0.005058 0.000291 0 -0.01175 0 2650 
301 1 0.00825591 0.0257237 0.00476003 0.001058 0.0113125 0.0256345 -0.0254985 2650 
112 1 0.013668 0.00618655 0.007002 0.000105 0 -0.01175 0 2650 
207 1 0.00225242 9.02348e-05 0.00994871 0.000291 -0.0197991 -0.0328905 -0.0312262 2650 
204 1 0.00714969 0.00151166 0.0104955 0.001058 0.0123955 0.0167674 0.0186642 2650 
195 1 0.00317211 0.00646158 0.0100052 0.001058 0.0216865 0.00727933 -0.0225594 2650 
193 1 0.00892078 0.0120863 0.0120021 0.00164 -0.306148 0.0954514 0.228642 2650 
57 1 0.00464514 0.0209503 0.0108059 0.00164 0.0229902 0.0153792 0.043586 2650 
211 1 0.00960066 0.00202113 0.0123894 0.001058 -0.227702 0.123426 0.19207 2650 
298 1 0.0091202 0.00680465 0.0132749 0.000105 0.0129991 -0.00593697 0.0036458 2650 
9 1 0.00655268 0.0544814 0.0136891 0.00164 -0.457543 0.042939 0.245153 2650 
265 1 0.00482045 0.00558665 0.0148566 0.001058 0.0199912 -0.000128115 -0.00515531 2650 
156 1 0.0015561 0.0277611 0.0156308 0.001058 -0.0126276 0.0990378 -0.00960094 2650 
163 1 0.0661671 0.0843588 -0.0155194 0.001058 0.0213017 0.223011 0.0907337 2650 
136 1 0.0001524 0.0758764 -0.000678744 0.000105 0.0370802 0.101801 0.0201257 2650 
11 1 0.0519433 0.0857907 0.0438076 0.001058 0.143161 -0.0635196 -0.169556 2650 
91 1 0.00813909 0.136674 0.0674899 0.001058 59.0619 -7.27777 -7.11819 2650 
