LIGGGHTS (Version LIGGGHTS-PUBLIC 3.8.0, compiled 2022-11-07-16:55:38 by serperd1, git commit 86544c3f1215bc9744d7929e3eacf53ba086af9e)
Created orthogonal box = (-0.15 -0.15 -0.15) to (0.15 0.15 0.15)
  2 by 4 by 5 MPI processor grid

Reading STL file 'cone.stl' (mesh processing step 1/3) 

Reading STL file 'in_cyl.stl' (mesh processing step 1/3) 

Reading STL file 'top_cyl.stl' (mesh processing step 1/3) 

Reading STL file 'bot_cyl.stl' (mesh processing step 1/3) 

Reading STL file 'bottom_disk.stl' (mesh processing step 1/3) 

Reading STL file 'top_disk.stl' (mesh processing step 1/3) 
Fix particledistribution/discrete (id prob_par): distribution based on mass%:
    r_0to10p: d=2.100000e-04 (max. bounding sphere) mass%=10.000000%
    r_10to50p: d=5.820000e-04 (max. bounding sphere) mass%=40.000000%
    r_50to90p: d=2.116400e-03 (max. bounding sphere) mass%=40.000000%
    r_90to100p: d=3.280400e-03 (max. bounding sphere) mass%=10.000000%
Fix particledistribution/discrete (id prob_par): distribution based on number%:
    r_0to10p: d=2.100000e-04 (max. bounding sphere) number%=83.887011%
    r_10to50p: d=5.820000e-04 (max. bounding sphere) number%=15.763173%
    r_50to90p: d=2.116400e-03 (max. bounding sphere) number%=0.327808%
    r_90to100p: d=3.280400e-03 (max. bounding sphere) number%=0.022008%
Setting up run at Tue Jan  3 08:33:58 2023

Import and parallelization of mesh cone_mesh containing 868 triangle(s) successful
Import and parallelization of mesh inlet_cyl_wall_mesh containing 1064 triangle(s) successful
Import and parallelization of mesh top_cyl_wall_mesh containing 682 triangle(s) successful
Import and parallelization of mesh bot_cyl_wall_mesh containing 1280 triangle(s) successful
Import and parallelization of mesh bot_disk_wall_mesh containing 1682 triangle(s) successful
Import and parallelization of mesh top_disk_wall_mesh containing 1144 triangle(s) successful
Memory usage per processor = 954.231 Mbytes
    Step    Atoms         KinEng            CPU 
       0        0              0              0 
Loop time of 6.77636e-05 on 40 procs for 0 steps with 0 atoms, finish time Tue Jan  3 08:33:58 2023


Pair  time (%) = 0 (0)
Neigh time (%) = 0 (0)
Comm  time (%) = 0 (0)
Outpt time (%) = 0 (0)
Other time (%) = 6.77636e-05 (100)

Nlocal:    0 ave 0 max 0 min
Histogram: 40 0 0 0 0 0 0 0 0 0
Nghost:    0 ave 0 max 0 min
Histogram: 40 0 0 0 0 0 0 0 0 0
Neighs:    0 ave 0 max 0 min
Histogram: 40 0 0 0 0 0 0 0 0 0

Total # of neighbors = 0
Neighbor list builds = 0
Dangerous builds = 0
Setting up run at Tue Jan  3 08:33:58 2023

Memory usage per processor = 954.231 Mbytes
    Step    Atoms         KinEng            CPU 
       0        0              0              0 
       1        0              0    0.009781603 
Loop time of 0.00979386 on 40 procs for 1 steps with 0 atoms, finish time Tue Jan  3 08:33:58 2023


Pair  time (%) = 2.5779e-06 (0.0263216)
Neigh time (%) = 0 (0)
Comm  time (%) = 0.000225415 (2.3016)
Outpt time (%) = 8.91118e-05 (0.909874)
Other time (%) = 0.00947676 (96.7622)

Nlocal:    0 ave 0 max 0 min
Histogram: 40 0 0 0 0 0 0 0 0 0
Nghost:    0 ave 0 max 0 min
Histogram: 40 0 0 0 0 0 0 0 0 0
Neighs:    0 ave 0 max 0 min
Histogram: 40 0 0 0 0 0 0 0 0 0

Total # of neighbors = 0
Neighbor list builds = 0
Dangerous builds = 0
Scanning dump file ...
Reading snapshot from dump file ...
  orthogonal box = (-0.15 -0.15 -0.15) to (0.15 0.15 0.15)
  0 atoms before read
  305 atoms in snapshot
  0 atoms purged
  0 atoms replaced
  0 atoms trimmed
  305 atoms added
  305 atoms after read
Setting atom values ...
  305 settings made for type
  305 settings made for density
  305 settings made for vy
Setting up run at Tue Jan  3 08:33:58 2023

Memory usage per processor = 958.583 Mbytes
    Step    Atoms         KinEng            CPU 
       1      305  2.0462467e-07              0 
       2      305  2.4125357e-07    0.009225079 
Loop time of 0.00924404 on 40 procs for 1 steps with 305 atoms, finish time Tue Jan  3 08:33:59 2023


Pair  time (%) = 2.38532e-06 (0.0258039)
Neigh time (%) = 0 (0)
Comm  time (%) = 4.76467e-06 (0.0515432)
Outpt time (%) = 0.000125807 (1.36095)
Other time (%) = 0.00911108 (98.5617)

Nlocal:    7.625 ave 134 max 0 min
Histogram: 36 2 0 0 0 0 0 0 0 2
Nghost:    5.125 ave 59 max 0 min
Histogram: 36 0 0 0 0 0 0 2 0 2
Neighs:    2.375 ave 54 max 0 min
Histogram: 37 1 0 0 0 1 0 0 0 1

Total # of neighbors = 95
Ave neighs/atom = 0.311475
Neighbor list builds = 0
Dangerous builds = 0
Setting up run at Tue Jan  3 08:33:59 2023

Memory usage per processor = 958.583 Mbytes
    Step    Atoms         KinEng            CPU 
       2      305  2.4125357e-07              0 
  123458      305  6.0816412e-05      1216.2773 
Loop time of 1216.28 on 40 procs for 123456 steps with 305 atoms, finish time Tue Jan  3 08:54:15 2023


Pair  time (%) = 0.260712 (0.0214352)
Neigh time (%) = 0.0495285 (0.00407214)
Comm  time (%) = 0.756762 (0.0622195)
Outpt time (%) = 0.000573869 (4.71824e-05)
Other time (%) = 1215.21 (99.9122)

Nlocal:    7.625 ave 136 max 0 min
Histogram: 36 2 0 0 0 0 0 0 1 1
Nghost:    5.15 ave 59 max 0 min
Histogram: 36 0 0 0 0 0 0 2 0 2
Neighs:    2.5 ave 57 max 0 min
Histogram: 36 2 0 0 1 0 0 0 0 1

Total # of neighbors = 100
Ave neighs/atom = 0.327869
Neighbor list builds = 330
Dangerous builds = 0
Setting up run at Tue Jan  3 08:54:15 2023

Memory usage per processor = 958.583 Mbytes
    Step    Atoms         KinEng            CPU 
  123458      305  6.0816412e-05              0 
  246914      305  4.3842796e-05      1312.0506 
Loop time of 1312.05 on 40 procs for 123456 steps with 305 atoms, finish time Tue Jan  3 09:16:07 2023


Pair  time (%) = 0.261023 (0.0198943)
Neigh time (%) = 0.0508152 (0.00387296)
Comm  time (%) = 0.662982 (0.0505302)
Outpt time (%) = 0.000570128 (4.34532e-05)
Other time (%) = 1311.08 (99.9257)

Nlocal:    7.625 ave 138 max 0 min
Histogram: 36 2 0 0 0 0 0 0 1 1
Nghost:    5.125 ave 56 max 0 min
Histogram: 36 0 0 0 0 0 0 0 2 2
Neighs:    2.475 ave 57 max 0 min
Histogram: 36 2 0 0 1 0 0 0 0 1

Total # of neighbors = 99
Ave neighs/atom = 0.32459
Neighbor list builds = 330
Dangerous builds = 0
Setting up run at Tue Jan  3 09:16:07 2023

Memory usage per processor = 958.583 Mbytes
    Step    Atoms         KinEng            CPU 
  246914      305  4.3842796e-05              0 
  370370      305  0.00038250452      1246.1174 
Loop time of 1246.12 on 40 procs for 123456 steps with 305 atoms, finish time Tue Jan  3 09:36:53 2023


Pair  time (%) = 0.260373 (0.0208947)
Neigh time (%) = 0.050466 (0.00404986)
Comm  time (%) = 0.638416 (0.0512324)
Outpt time (%) = 0.000608112 (4.88006e-05)
Other time (%) = 1245.17 (99.9238)

Nlocal:    7.625 ave 134 max 0 min
Histogram: 36 0 2 0 0 0 0 0 1 1
Nghost:    5.025 ave 61 max 0 min
Histogram: 36 0 0 0 0 0 0 2 1 1
Neighs:    2.475 ave 57 max 0 min
Histogram: 36 2 0 0 1 0 0 0 0 1

Total # of neighbors = 99
Ave neighs/atom = 0.32459
Neighbor list builds = 330
Dangerous builds = 0
Setting up run at Tue Jan  3 09:36:53 2023

Memory usage per processor = 958.583 Mbytes
    Step    Atoms         KinEng            CPU 
  370370      305  0.00038250452              0 
  493826      305   0.0002185812      1240.6742 
Loop time of 1240.67 on 40 procs for 123456 steps with 305 atoms, finish time Tue Jan  3 09:57:34 2023


Pair  time (%) = 0.260856 (0.0210253)
Neigh time (%) = 0.0507573 (0.0040911)
Comm  time (%) = 0.735943 (0.059318)
Outpt time (%) = 0.0133148 (0.00107319)
Other time (%) = 1239.61 (99.9145)

Nlocal:    7.625 ave 134 max 0 min
Histogram: 36 0 2 0 0 0 0 0 1 1
Nghost:    5.025 ave 59 max 0 min
Histogram: 36 0 0 0 0 0 0 2 0 2
Neighs:    2.425 ave 54 max 0 min
Histogram: 36 1 1 0 1 0 0 0 0 1

Total # of neighbors = 97
Ave neighs/atom = 0.318033
Neighbor list builds = 330
Dangerous builds = 0
Setting up run at Tue Jan  3 09:57:34 2023

Memory usage per processor = 958.583 Mbytes
    Step    Atoms         KinEng            CPU 
  493826      305   0.0002185812              0 
  617282      305    0.001796919       1266.147 
Loop time of 1266.15 on 40 procs for 123456 steps with 305 atoms, finish time Tue Jan  3 10:18:40 2023


Pair  time (%) = 0.26073 (0.0205924)
Neigh time (%) = 0.0507096 (0.00400503)
Comm  time (%) = 0.644383 (0.0508932)
Outpt time (%) = 0.000530967 (4.19357e-05)
Other time (%) = 1265.19 (99.9245)

Nlocal:    7.625 ave 134 max 0 min
Histogram: 36 0 2 0 0 0 0 1 0 1
Nghost:    4.975 ave 59 max 0 min
Histogram: 36 0 0 0 0 0 1 1 0 2
Neighs:    2.5 ave 55 max 0 min
Histogram: 36 1 1 0 1 0 0 0 0 1

Total # of neighbors = 100
Ave neighs/atom = 0.327869
Neighbor list builds = 330
Dangerous builds = 0
Setting up run at Tue Jan  3 10:18:40 2023

Memory usage per processor = 958.583 Mbytes
    Step    Atoms         KinEng            CPU 
  617282      305    0.001796919              0 
  740738      305  9.1153157e-05      1214.5486 
Loop time of 1214.55 on 40 procs for 123456 steps with 305 atoms, finish time Tue Jan  3 10:38:55 2023


Pair  time (%) = 0.259738 (0.0213855)
Neigh time (%) = 0.057479 (0.00473254)
Comm  time (%) = 0.554916 (0.0456891)
Outpt time (%) = 0.000578554 (4.76353e-05)
Other time (%) = 1213.68 (99.9281)

Nlocal:    7.625 ave 133 max 0 min
Histogram: 36 0 2 0 0 0 0 1 0 1
Nghost:    5 ave 58 max 0 min
Histogram: 36 0 0 0 0 0 1 1 0 2
Neighs:    2.4 ave 54 max 0 min
Histogram: 36 1 1 0 1 0 0 0 0 1

Total # of neighbors = 96
Ave neighs/atom = 0.314754
Neighbor list builds = 330
Dangerous builds = 0
Setting up run at Tue Jan  3 10:38:55 2023

Memory usage per processor = 958.583 Mbytes
    Step    Atoms         KinEng            CPU 
  740738      305  9.1153157e-05              0 
  864194      304    0.060051843       1222.808 
Loop time of 1222.81 on 40 procs for 123456 steps with 304 atoms, finish time Tue Jan  3 10:59:18 2023


Pair  time (%) = 0.26275 (0.0214875)
Neigh time (%) = 0.297407 (0.0243216)
Comm  time (%) = 0.998263 (0.0816369)
Outpt time (%) = 0.000566302 (4.63116e-05)
Other time (%) = 1221.25 (99.8725)

Nlocal:    7.6 ave 131 max 0 min
Histogram: 36 0 2 0 0 0 0 1 0 1
Nghost:    5.225 ave 60 max 0 min
Histogram: 36 0 0 0 0 0 1 0 1 2
Neighs:    2.4 ave 54 max 0 min
Histogram: 36 1 1 1 0 0 0 0 0 1

Total # of neighbors = 96
Ave neighs/atom = 0.315789
Neighbor list builds = 1689
Dangerous builds = 2
Setting up run at Tue Jan  3 10:59:18 2023

Memory usage per processor = 958.583 Mbytes
    Step    Atoms         KinEng            CPU 
  864194      304    0.060051843              0 
  987650      304    0.039350834      1290.3258 
Loop time of 1290.33 on 40 procs for 123456 steps with 304 atoms, finish time Tue Jan  3 11:20:48 2023


Pair  time (%) = 0.261402 (0.0202586)
Neigh time (%) = 0.214451 (0.0166199)
Comm  time (%) = 0.740757 (0.0574085)
Outpt time (%) = 0.000655654 (5.0813e-05)
Other time (%) = 1289.11 (99.9057)

Nlocal:    7.6 ave 132 max 0 min
Histogram: 36 1 1 0 0 0 0 1 0 1
Nghost:    5.3 ave 61 max 0 min
Histogram: 36 0 0 0 0 0 1 0 1 2
Neighs:    2.4 ave 56 max 0 min
Histogram: 36 2 0 1 0 0 0 0 0 1

Total # of neighbors = 96
Ave neighs/atom = 0.315789
Neighbor list builds = 1222
Dangerous builds = 0
Setting up run at Tue Jan  3 11:20:48 2023

Memory usage per processor = 958.583 Mbytes
    Step    Atoms         KinEng            CPU 
  987650      304    0.039350834              0 
 1111106      303    0.045025901      1242.8858 
Loop time of 1242.89 on 40 procs for 123456 steps with 303 atoms, finish time Tue Jan  3 11:41:31 2023


Pair  time (%) = 0.262045 (0.0210836)
Neigh time (%) = 0.233779 (0.0188094)
Comm  time (%) = 0.923308 (0.0742875)
Outpt time (%) = 0.00050525 (4.06513e-05)
Other time (%) = 1241.47 (99.8858)

Nlocal:    7.575 ave 129 max 0 min
Histogram: 36 0 2 0 0 0 0 1 0 1
Nghost:    5.4 ave 59 max 0 min
Histogram: 36 0 0 0 0 0 0 1 0 3
Neighs:    2.4 ave 57 max 0 min
Histogram: 36 2 0 1 0 0 0 0 0 1

Total # of neighbors = 96
Ave neighs/atom = 0.316832
Neighbor list builds = 1364
Dangerous builds = 4
Setting up run at Tue Jan  3 11:41:31 2023

Memory usage per processor = 958.583 Mbytes
    Step    Atoms         KinEng            CPU 
 1111106      303    0.045025901              0 
 1234562      303    0.039761195      1233.5404 
Loop time of 1233.54 on 40 procs for 123456 steps with 303 atoms, finish time Tue Jan  3 12:02:05 2023


Pair  time (%) = 0.266908 (0.0216375)
Neigh time (%) = 0.363419 (0.0294615)
Comm  time (%) = 1.59469 (0.129278)
Outpt time (%) = 0.000517265 (4.19333e-05)
Other time (%) = 1231.32 (99.8196)

Nlocal:    7.575 ave 128 max 0 min
Histogram: 36 1 1 0 0 0 0 0 1 1
Nghost:    5.3 ave 55 max 0 min
Histogram: 36 0 0 0 0 0 0 0 1 3
Neighs:    2.425 ave 58 max 0 min
Histogram: 36 2 0 1 0 0 0 0 0 1

Total # of neighbors = 97
Ave neighs/atom = 0.320132
Neighbor list builds = 2131
Dangerous builds = 0
Setting up run at Tue Jan  3 12:02:05 2023

Memory usage per processor = 958.583 Mbytes
    Step    Atoms         KinEng            CPU 
 1234562      303    0.039761195              0 
 1358018      303    0.074123673      1228.3737 
Loop time of 1228.37 on 40 procs for 123456 steps with 303 atoms, finish time Tue Jan  3 12:22:33 2023


Pair  time (%) = 0.266297 (0.0216789)
Neigh time (%) = 0.462912 (0.0376849)
Comm  time (%) = 1.71564 (0.139668)
Outpt time (%) = 0.000652586 (5.31261e-05)
Other time (%) = 1225.93 (99.8009)

Nlocal:    7.575 ave 123 max 0 min
Histogram: 36 0 2 0 0 0 0 0 1 1
Nghost:    5.25 ave 59 max 0 min
Histogram: 36 0 0 0 0 0 0 1 2 1
Neighs:    2.5 ave 60 max 0 min
Histogram: 36 2 0 1 0 0 0 0 0 1

Total # of neighbors = 100
Ave neighs/atom = 0.330033
Neighbor list builds = 2664
Dangerous builds = 0
Setting up run at Tue Jan  3 12:22:34 2023

Memory usage per processor = 958.583 Mbytes
    Step    Atoms         KinEng            CPU 
 1358018      303    0.074123673              0 
 1481474      302    0.029508838      1225.0033 
Loop time of 1225 on 40 procs for 123456 steps with 302 atoms, finish time Tue Jan  3 12:42:59 2023


Pair  time (%) = 0.270208 (0.0220578)
Neigh time (%) = 0.559677 (0.0456878)
Comm  time (%) = 2.4084 (0.196603)
Outpt time (%) = 0.000613041 (5.0044e-05)
Other time (%) = 1221.76 (99.7356)

Nlocal:    7.55 ave 120 max 0 min
Histogram: 36 0 2 0 0 0 0 0 1 1
Nghost:    5.3 ave 61 max 0 min
Histogram: 36 0 0 0 0 0 0 1 1 2
Neighs:    2.6 ave 60 max 0 min
Histogram: 36 1 1 1 0 0 0 0 0 1

Total # of neighbors = 104
Ave neighs/atom = 0.344371
Neighbor list builds = 3249
Dangerous builds = 0
Setting up run at Tue Jan  3 12:42:59 2023

Memory usage per processor = 958.583 Mbytes
    Step    Atoms         KinEng            CPU 
 1481474      302    0.029508838              0 
 1604930      302    0.057244943      1235.2601 
Loop time of 1235.26 on 40 procs for 123456 steps with 302 atoms, finish time Tue Jan  3 13:03:34 2023


Pair  time (%) = 0.267693 (0.021671)
Neigh time (%) = 0.450246 (0.0364495)
Comm  time (%) = 1.81838 (0.147206)
Outpt time (%) = 0.000615345 (4.9815e-05)
Other time (%) = 1232.72 (99.7946)

Nlocal:    7.55 ave 119 max 0 min
Histogram: 36 0 2 0 0 0 0 0 1 1
Nghost:    5.225 ave 61 max 0 min
Histogram: 36 0 0 0 0 0 1 0 1 2
Neighs:    2.65 ave 59 max 0 min
Histogram: 36 1 1 1 0 0 0 0 0 1

Total # of neighbors = 106
Ave neighs/atom = 0.350993
Neighbor list builds = 2608
Dangerous builds = 0
Setting up run at Tue Jan  3 13:03:34 2023

Memory usage per processor = 958.583 Mbytes
    Step    Atoms         KinEng            CPU 
 1604930      302    0.057244943              0 
 1728386      302      0.0605106      1260.2071 
Loop time of 1260.21 on 40 procs for 123456 steps with 302 atoms, finish time Tue Jan  3 13:24:34 2023


Pair  time (%) = 0.274331 (0.0217687)
Neigh time (%) = 1.38543 (0.109937)
Comm  time (%) = 4.92351 (0.390691)
Outpt time (%) = 0.000573729 (4.55266e-05)
Other time (%) = 1253.62 (99.4776)

Nlocal:    7.55 ave 116 max 0 min
Histogram: 36 0 2 0 0 0 0 0 1 1
Nghost:    5.2 ave 62 max 0 min
Histogram: 36 0 0 0 0 0 1 1 0 2
Neighs:    2.75 ave 56 max 0 min
Histogram: 36 1 0 1 1 0 0 0 0 1

Total # of neighbors = 110
Ave neighs/atom = 0.364238
Neighbor list builds = 8274
Dangerous builds = 305
Setting up run at Tue Jan  3 13:24:34 2023

Memory usage per processor = 958.583 Mbytes
    Step    Atoms         KinEng            CPU 
 1728386      302      0.0605106              0 
 1851842      302       0.249911      1291.7065 
Loop time of 1291.71 on 40 procs for 123456 steps with 302 atoms, finish time Tue Jan  3 13:46:06 2023


Pair  time (%) = 0.282556 (0.0218746)
Neigh time (%) = 2.39155 (0.185147)
Comm  time (%) = 7.32931 (0.567413)
Outpt time (%) = 0.000535849 (4.14838e-05)
Other time (%) = 1281.7 (99.2255)

Nlocal:    7.55 ave 113 max 0 min
Histogram: 36 0 1 1 0 0 0 0 1 1
Nghost:    5.325 ave 65 max 0 min
Histogram: 36 0 0 0 0 0 2 0 1 1
Neighs:    2.65 ave 50 max 0 min
Histogram: 36 1 0 0 1 1 0 0 0 1

Total # of neighbors = 106
Ave neighs/atom = 0.350993
Neighbor list builds = 13717
Dangerous builds = 0
Setting up run at Tue Jan  3 13:46:06 2023

Memory usage per processor = 958.583 Mbytes
    Step    Atoms         KinEng            CPU 
 1851842      302       0.249911              0 
 1975298      299     0.29618234      1301.1085 
Loop time of 1301.11 on 40 procs for 123456 steps with 299 atoms, finish time Tue Jan  3 14:07:47 2023


Pair  time (%) = 0.284808 (0.0218897)
Neigh time (%) = 2.39637 (0.184179)
Comm  time (%) = 7.37882 (0.567118)
Outpt time (%) = 0.000587103 (4.51233e-05)
Other time (%) = 1291.05 (99.2268)

Nlocal:    7.475 ave 110 max 0 min
Histogram: 36 0 0 2 0 0 0 0 1 1
Nghost:    5.05 ave 63 max 0 min
Histogram: 36 0 0 0 0 0 2 0 1 1
Neighs:    2.525 ave 51 max 0 min
Histogram: 36 1 0 0 2 0 0 0 0 1

Total # of neighbors = 101
Ave neighs/atom = 0.337793
Neighbor list builds = 13758
Dangerous builds = 45
Setting up run at Tue Jan  3 14:07:47 2023

Memory usage per processor = 958.583 Mbytes
    Step    Atoms         KinEng            CPU 
 1975298      299     0.29618234              0 
 2098754      299     0.24752524      1293.0146 
Loop time of 1293.01 on 40 procs for 123456 steps with 299 atoms, finish time Tue Jan  3 14:29:20 2023


Pair  time (%) = 0.285061 (0.0220463)
Neigh time (%) = 2.40727 (0.186175)
Comm  time (%) = 6.24419 (0.482917)
Outpt time (%) = 0.000618537 (4.78368e-05)
Other time (%) = 1284.08 (99.3088)

Nlocal:    7.475 ave 106 max 0 min
Histogram: 36 0 0 2 0 0 0 0 0 2
Nghost:    5.05 ave 68 max 0 min
Histogram: 36 0 0 0 0 1 1 1 0 1
Neighs:    2.675 ave 52 max 0 min
Histogram: 36 1 0 1 0 1 0 0 0 1

Total # of neighbors = 107
Ave neighs/atom = 0.35786
Neighbor list builds = 13717
Dangerous builds = 0
Setting up run at Tue Jan  3 14:29:20 2023

Memory usage per processor = 958.583 Mbytes
    Step    Atoms         KinEng            CPU 
 2098754      299     0.24752524              0 
 2222210      298      0.2531988      1293.5366 
Loop time of 1293.54 on 40 procs for 123456 steps with 298 atoms, finish time Tue Jan  3 14:50:54 2023


Pair  time (%) = 0.28479 (0.0220164)
Neigh time (%) = 2.40052 (0.185578)
Comm  time (%) = 5.62447 (0.434813)
Outpt time (%) = 0.000687584 (5.31554e-05)
Other time (%) = 1285.23 (99.3575)

Nlocal:    7.45 ave 105 max 0 min
Histogram: 36 0 1 1 0 0 0 0 0 2
Nghost:    5.175 ave 69 max 0 min
Histogram: 36 0 0 0 0 2 0 1 0 1
Neighs:    2.6 ave 49 max 0 min
Histogram: 36 1 0 0 1 1 0 0 0 1

Total # of neighbors = 104
Ave neighs/atom = 0.348993
Neighbor list builds = 13718
Dangerous builds = 1
Setting up run at Tue Jan  3 14:50:54 2023

Memory usage per processor = 958.583 Mbytes
    Step    Atoms         KinEng            CPU 
 2222210      298      0.2531988              0 
 2345666      296     0.24914058      1294.7388 
Loop time of 1294.74 on 40 procs for 123456 steps with 296 atoms, finish time Tue Jan  3 15:12:29 2023


Pair  time (%) = 0.283195 (0.0218727)
Neigh time (%) = 2.43047 (0.187719)
Comm  time (%) = 6.58352 (0.508482)
Outpt time (%) = 0.00279478 (0.000215856)
Other time (%) = 1285.44 (99.2817)

Nlocal:    7.4 ave 103 max 0 min
Histogram: 36 0 0 1 1 0 0 0 0 2
Nghost:    5.15 ave 69 max 0 min
Histogram: 36 0 0 0 0 1 1 1 0 1
Neighs:    2.325 ave 40 max 0 min
Histogram: 36 1 0 0 0 1 1 0 0 1

Total # of neighbors = 93
Ave neighs/atom = 0.314189
Neighbor list builds = 14018
Dangerous builds = 324
Setting up run at Tue Jan  3 15:12:29 2023

Memory usage per processor = 958.583 Mbytes
    Step    Atoms         KinEng            CPU 
 2345666      296     0.24914058              0 
 2469122      295     0.22758581       1298.254 
Loop time of 1298.25 on 40 procs for 123456 steps with 295 atoms, finish time Tue Jan  3 15:34:07 2023


Pair  time (%) = 0.283379 (0.0218277)
Neigh time (%) = 2.41384 (0.18593)
Comm  time (%) = 7.22058 (0.556176)
Outpt time (%) = 0.000634769 (4.88941e-05)
Other time (%) = 1288.34 (99.236)

Nlocal:    7.375 ave 102 max 0 min
Histogram: 36 0 0 2 0 0 0 0 0 2
Nghost:    5.1 ave 68 max 0 min
Histogram: 36 0 0 0 0 0 2 1 0 1
Neighs:    2.35 ave 42 max 0 min
Histogram: 36 1 0 0 0 2 0 0 0 1

Total # of neighbors = 94
Ave neighs/atom = 0.318644
Neighbor list builds = 13828
Dangerous builds = 1
Setting up run at Tue Jan  3 15:34:07 2023

Memory usage per processor = 958.583 Mbytes
    Step    Atoms         KinEng            CPU 
 2469122      295     0.22758581              0 
 2592578      295      0.3254417      1293.3771 
Loop time of 1293.38 on 40 procs for 123456 steps with 295 atoms, finish time Tue Jan  3 15:55:41 2023


Pair  time (%) = 0.278842 (0.0215592)
Neigh time (%) = 2.42939 (0.187833)
Comm  time (%) = 5.66805 (0.438236)
Outpt time (%) = 0.0010106 (7.81364e-05)
Other time (%) = 1285 (99.3523)

Nlocal:    7.375 ave 100 max 0 min
Histogram: 36 0 0 2 0 0 0 0 0 2
Nghost:    5.15 ave 67 max 0 min
Histogram: 36 0 0 0 0 1 1 1 0 1
Neighs:    2.15 ave 35 max 0 min
Histogram: 36 0 1 0 0 1 1 0 0 1

Total # of neighbors = 86
Ave neighs/atom = 0.291525
Neighbor list builds = 13780
Dangerous builds = 0
Setting up run at Tue Jan  3 15:55:41 2023

Memory usage per processor = 958.583 Mbytes
    Step    Atoms         KinEng            CPU 
 2592578      295      0.3254417              0 
 2716034      295     0.30343131      1297.8315 
Loop time of 1297.83 on 40 procs for 123456 steps with 295 atoms, finish time Tue Jan  3 16:17:18 2023


Pair  time (%) = 0.278006 (0.0214208)
Neigh time (%) = 2.43729 (0.187797)
Comm  time (%) = 5.20627 (0.401151)
Outpt time (%) = 0.000541841 (4.17497e-05)
Other time (%) = 1289.91 (99.3896)

Nlocal:    7.375 ave 100 max 0 min
Histogram: 36 0 0 1 1 0 0 0 0 2
Nghost:    4.8 ave 62 max 0 min
Histogram: 36 0 0 0 0 0 2 1 0 1
Neighs:    2.125 ave 36 max 0 min
Histogram: 36 0 1 0 1 0 1 0 0 1

Total # of neighbors = 85
Ave neighs/atom = 0.288136
Neighbor list builds = 13747
Dangerous builds = 0
Setting up run at Tue Jan  3 16:17:18 2023

Memory usage per processor = 958.583 Mbytes
    Step    Atoms         KinEng            CPU 
 2716034      295     0.30343131              0 
 2839490      292     0.36163364      1295.5558 
Loop time of 1295.56 on 40 procs for 123456 steps with 292 atoms, finish time Tue Jan  3 16:38:54 2023


Pair  time (%) = 0.277962 (0.021455)
Neigh time (%) = 2.49999 (0.192966)
Comm  time (%) = 6.00838 (0.463768)
Outpt time (%) = 0.000633623 (4.89074e-05)
Other time (%) = 1286.77 (99.3218)

Nlocal:    7.3 ave 99 max 0 min
Histogram: 36 0 0 2 0 0 0 0 0 2
Nghost:    4.825 ave 61 max 0 min
Histogram: 36 0 0 0 0 0 2 0 1 1
Neighs:    2 ave 34 max 0 min
Histogram: 36 0 1 0 1 0 1 0 0 1

Total # of neighbors = 80
Ave neighs/atom = 0.273973
Neighbor list builds = 14288
Dangerous builds = 77
Setting up run at Tue Jan  3 16:38:54 2023

Memory usage per processor = 958.583 Mbytes
    Step    Atoms         KinEng            CPU 
 2839490      292     0.36163364              0 
 2962946      290      0.2701615      1292.8957 
Loop time of 1292.9 on 40 procs for 123456 steps with 290 atoms, finish time Tue Jan  3 17:00:27 2023


Pair  time (%) = 0.279448 (0.0216141)
Neigh time (%) = 2.438 (0.188569)
Comm  time (%) = 6.18066 (0.478048)
Outpt time (%) = 0.0005364 (4.14883e-05)
Other time (%) = 1284 (99.3117)

Nlocal:    7.25 ave 97 max 0 min
Histogram: 36 0 0 1 1 0 0 0 0 2
Nghost:    4.725 ave 63 max 0 min
Histogram: 36 0 0 0 0 1 1 1 0 1
Neighs:    2.075 ave 32 max 0 min
Histogram: 36 0 0 1 1 0 0 0 1 1

Total # of neighbors = 83
Ave neighs/atom = 0.286207
Neighbor list builds = 13831
Dangerous builds = 2
Setting up run at Tue Jan  3 17:00:27 2023

Memory usage per processor = 958.583 Mbytes
    Step    Atoms         KinEng            CPU 
 2962946      290      0.2701615              0 
 3086402      290     0.68239154      1293.4164 
Loop time of 1293.5 on 40 procs for 123456 steps with 290 atoms, finish time Tue Jan  3 17:22:01 2023


Pair  time (%) = 0.278915 (0.0215627)
Neigh time (%) = 2.42564 (0.187525)
Comm  time (%) = 5.18971 (0.401213)
Outpt time (%) = 0.000602894 (4.66094e-05)
Other time (%) = 1285.61 (99.3897)

Nlocal:    7.25 ave 97 max 0 min
Histogram: 35 1 0 1 1 0 0 0 0 2
Nghost:    4.85 ave 61 max 0 min
Histogram: 36 0 0 0 0 0 1 2 0 1
Neighs:    2.075 ave 31 max 0 min
Histogram: 36 0 0 2 0 0 0 0 0 2

Total # of neighbors = 83
Ave neighs/atom = 0.286207
Neighbor list builds = 13717
Dangerous builds = 0
Setting up run at Tue Jan  3 17:22:01 2023

Memory usage per processor = 958.583 Mbytes
    Step    Atoms         KinEng            CPU 
 3086402      290     0.68239154              0 
 3209858      288     0.31953175      1292.2895 
Loop time of 1292.29 on 40 procs for 123456 steps with 288 atoms, finish time Tue Jan  3 17:43:33 2023


Pair  time (%) = 0.2769 (0.0214271)
Neigh time (%) = 2.44909 (0.189516)
Comm  time (%) = 6.16439 (0.477013)
Outpt time (%) = 0.000606274 (4.69147e-05)
Other time (%) = 1283.4 (99.312)

Nlocal:    7.2 ave 96 max 0 min
Histogram: 35 1 0 2 0 0 0 0 0 2
Nghost:    4.625 ave 60 max 0 min
Histogram: 36 0 0 0 0 0 2 1 0 1
Neighs:    2.025 ave 31 max 0 min
Histogram: 36 0 1 1 0 0 0 0 0 2

Total # of neighbors = 81
Ave neighs/atom = 0.28125
Neighbor list builds = 13829
Dangerous builds = 1
Setting up run at Tue Jan  3 17:43:33 2023

Memory usage per processor = 958.583 Mbytes
    Step    Atoms         KinEng            CPU 
 3209858      288     0.31953175              0 
 3333314      287     0.28787688      1299.1365 
Loop time of 1299.14 on 40 procs for 123456 steps with 287 atoms, finish time Tue Jan  3 18:05:12 2023


Pair  time (%) = 0.279376 (0.0215047)
Neigh time (%) = 2.4194 (0.186231)
Comm  time (%) = 7.83146 (0.60282)
Outpt time (%) = 0.000580138 (4.46557e-05)
Other time (%) = 1288.61 (99.1894)

Nlocal:    7.175 ave 94 max 0 min
Histogram: 36 0 0 1 1 0 0 0 0 2
Nghost:    4.625 ave 60 max 0 min
Histogram: 36 0 0 0 0 0 3 0 0 1
Neighs:    2 ave 30 max 0 min
Histogram: 36 0 1 0 1 0 0 0 0 2

Total # of neighbors = 80
Ave neighs/atom = 0.278746
Neighbor list builds = 13717
Dangerous builds = 0
Setting up run at Tue Jan  3 18:05:12 2023

Memory usage per processor = 958.583 Mbytes
    Step    Atoms         KinEng            CPU 
 3333314      287     0.28787688              0 
 3456770      287     0.26886706      1298.6202 
Loop time of 1298.62 on 40 procs for 123456 steps with 287 atoms, finish time Tue Jan  3 18:26:51 2023


Pair  time (%) = 0.279649 (0.0215343)
Neigh time (%) = 2.42648 (0.186851)
Comm  time (%) = 7.5574 (0.581956)
Outpt time (%) = 0.000584286 (4.49928e-05)
Other time (%) = 1288.36 (99.2096)

Nlocal:    7.175 ave 94 max 0 min
Histogram: 35 1 0 1 1 0 0 0 0 2
Nghost:    4.75 ave 60 max 0 min
Histogram: 36 0 0 0 0 0 2 1 0 1
Neighs:    1.9 ave 29 max 0 min
Histogram: 36 0 1 0 1 0 0 0 1 1

Total # of neighbors = 76
Ave neighs/atom = 0.264808
Neighbor list builds = 13717
Dangerous builds = 0
Setting up run at Tue Jan  3 18:26:51 2023

Memory usage per processor = 958.583 Mbytes
    Step    Atoms         KinEng            CPU 
 3456770      287     0.26886706              0 
 3580226      286     0.25931985       1293.388 
Loop time of 1293.39 on 40 procs for 123456 steps with 286 atoms, finish time Tue Jan  3 18:48:24 2023


Pair  time (%) = 0.277538 (0.0214582)
Neigh time (%) = 2.44716 (0.189206)
Comm  time (%) = 5.75642 (0.445065)
Outpt time (%) = 0.000597242 (4.61765e-05)
Other time (%) = 1284.91 (99.3442)

Nlocal:    7.15 ave 95 max 0 min
Histogram: 35 1 0 1 1 0 0 0 0 2
Nghost:    4.625 ave 60 max 0 min
Histogram: 36 0 0 0 0 0 2 1 0 1
Neighs:    1.85 ave 28 max 0 min
Histogram: 36 0 1 0 1 0 0 0 0 2

Total # of neighbors = 74
Ave neighs/atom = 0.258741
Neighbor list builds = 13749
Dangerous builds = 0
Setting up run at Tue Jan  3 18:48:24 2023

Memory usage per processor = 958.583 Mbytes
    Step    Atoms         KinEng            CPU 
 3580226      286     0.25931985              0 
 3703682      284     0.28749445      1293.4226 
Loop time of 1293.42 on 40 procs for 123456 steps with 284 atoms, finish time Tue Jan  3 19:09:58 2023


Pair  time (%) = 0.277782 (0.0214765)
Neigh time (%) = 2.43568 (0.188313)
Comm  time (%) = 5.54839 (0.42897)
Outpt time (%) = 0.000604208 (4.67139e-05)
Other time (%) = 1285.16 (99.3612)

Nlocal:    7.1 ave 92 max 0 min
Histogram: 36 0 0 0 2 0 0 0 0 2
Nghost:    4.6 ave 62 max 0 min
Histogram: 36 0 0 0 0 1 1 1 0 1
Neighs:    1.85 ave 27 max 0 min
Histogram: 36 0 0 1 1 0 0 0 0 2

Total # of neighbors = 74
Ave neighs/atom = 0.260563
Neighbor list builds = 13787
Dangerous builds = 79
Setting up run at Tue Jan  3 19:09:58 2023

Memory usage per processor = 958.583 Mbytes
    Step    Atoms         KinEng            CPU 
 3703682      284     0.28749445              0 
 3827138      283     0.33991922      1292.9248 
Loop time of 1292.93 on 40 procs for 123456 steps with 283 atoms, finish time Tue Jan  3 19:31:31 2023


Pair  time (%) = 0.276105 (0.0213549)
Neigh time (%) = 2.45336 (0.189752)
Comm  time (%) = 5.90389 (0.456628)
Outpt time (%) = 0.000627727 (4.85506e-05)
Other time (%) = 1284.3 (99.3322)

Nlocal:    7.075 ave 93 max 0 min
Histogram: 35 1 0 1 1 0 0 0 0 2
Nghost:    4.5 ave 59 max 0 min
Histogram: 36 0 0 0 0 0 2 1 0 1
Neighs:    1.875 ave 27 max 0 min
Histogram: 36 0 0 1 1 0 0 0 0 2

Total # of neighbors = 75
Ave neighs/atom = 0.265018
Neighbor list builds = 13799
Dangerous builds = 1
Setting up run at Tue Jan  3 19:31:31 2023

Memory usage per processor = 958.583 Mbytes
    Step    Atoms         KinEng            CPU 
 3827138      283     0.33991922              0 
 3950594      281     0.32534902       1293.533 
Loop time of 1293.53 on 40 procs for 123456 steps with 281 atoms, finish time Tue Jan  3 19:53:05 2023


Pair  time (%) = 0.277141 (0.0214251)
Neigh time (%) = 2.46928 (0.190894)
Comm  time (%) = 5.6168 (0.434221)
Outpt time (%) = 0.000518398 (4.00761e-05)
Other time (%) = 1285.17 (99.3534)

Nlocal:    7.025 ave 92 max 0 min
Histogram: 36 0 0 0 2 0 0 0 0 2
Nghost:    4.65 ave 58 max 0 min
Histogram: 36 0 0 0 0 0 1 2 0 1
Neighs:    1.975 ave 27 max 0 min
Histogram: 36 0 0 0 1 1 0 0 0 2

Total # of neighbors = 79
Ave neighs/atom = 0.281139
Neighbor list builds = 13928
Dangerous builds = 29
Setting up run at Tue Jan  3 19:53:05 2023

Memory usage per processor = 958.583 Mbytes
    Step    Atoms         KinEng            CPU 
 3950594      281     0.32534902              0 
 4074050      281     0.30879106      1299.2977 
Loop time of 1299.3 on 40 procs for 123456 steps with 281 atoms, finish time Tue Jan  3 20:14:44 2023


Pair  time (%) = 0.27824 (0.0214146)
Neigh time (%) = 2.44011 (0.187802)
Comm  time (%) = 6.05673 (0.466154)
Outpt time (%) = 0.000629484 (4.8448e-05)
Other time (%) = 1290.52 (99.3246)

Nlocal:    7.025 ave 96 max 0 min
Histogram: 35 1 0 2 0 0 0 0 1 1
Nghost:    4.625 ave 53 max 0 min
Histogram: 36 0 0 0 0 0 0 1 1 2
Neighs:    1.9 ave 28 max 0 min
Histogram: 36 0 1 1 0 0 0 0 0 2

Total # of neighbors = 76
Ave neighs/atom = 0.270463
Neighbor list builds = 13717
Dangerous builds = 0
Setting up run at Tue Jan  3 20:14:44 2023

Memory usage per processor = 958.583 Mbytes
    Step    Atoms         KinEng            CPU 
 4074050      281     0.30879106              0 
 4197506      280     0.29309892      1292.2731 
Loop time of 1292.27 on 40 procs for 123456 steps with 280 atoms, finish time Tue Jan  3 20:36:16 2023


Pair  time (%) = 0.280468 (0.0217035)
Neigh time (%) = 2.44666 (0.18933)
Comm  time (%) = 7.16208 (0.554223)
Outpt time (%) = 0.000483344 (3.74026e-05)
Other time (%) = 1282.38 (99.2347)

Nlocal:    7 ave 94 max 0 min
Histogram: 35 1 0 2 0 0 0 0 1 1
Nghost:    4.5 ave 53 max 0 min
Histogram: 36 0 0 0 0 0 1 1 0 2
Neighs:    1.85 ave 28 max 0 min
Histogram: 36 0 1 1 0 0 0 0 0 2

Total # of neighbors = 74
Ave neighs/atom = 0.264286
Neighbor list builds = 13825
Dangerous builds = 1
Setting up run at Tue Jan  3 20:36:16 2023

Memory usage per processor = 958.583 Mbytes
    Step    Atoms         KinEng            CPU 
 4197506      280     0.29309892              0 
 4320962      279     0.34294748      1292.2489 
Loop time of 1292.25 on 40 procs for 123456 steps with 279 atoms, finish time Tue Jan  3 20:57:49 2023


Pair  time (%) = 0.280644 (0.0217175)
Neigh time (%) = 2.44654 (0.189324)
Comm  time (%) = 6.72825 (0.520662)
Outpt time (%) = 0.000653133 (5.05424e-05)
Other time (%) = 1282.79 (99.2682)

Nlocal:    6.975 ave 94 max 0 min
Histogram: 35 1 0 2 0 0 0 0 1 1
Nghost:    4.625 ave 52 max 0 min
Histogram: 36 0 0 0 0 0 1 0 1 2
Neighs:    2.025 ave 30 max 0 min
Histogram: 36 0 0 2 0 0 0 0 0 2

Total # of neighbors = 81
Ave neighs/atom = 0.290323
Neighbor list builds = 13841
Dangerous builds = 140
Setting up run at Tue Jan  3 20:57:49 2023

Memory usage per processor = 958.583 Mbytes
    Step    Atoms         KinEng            CPU 
 4320962      279     0.34294748              0 
 4444418      279      0.4576209      1291.6481 
Loop time of 1291.65 on 40 procs for 123456 steps with 279 atoms, finish time Tue Jan  3 21:19:20 2023


Pair  time (%) = 0.280792 (0.021739)
Neigh time (%) = 2.46948 (0.191188)
Comm  time (%) = 6.83355 (0.529057)
Outpt time (%) = 0.000612795 (4.74429e-05)
Other time (%) = 1282.06 (99.258)

Nlocal:    6.975 ave 92 max 0 min
Histogram: 35 1 0 1 1 0 0 0 0 2
Nghost:    4.425 ave 52 max 0 min
Histogram: 36 0 0 0 0 0 1 0 2 1
Neighs:    1.925 ave 32 max 0 min
Histogram: 36 0 2 0 0 0 0 0 0 2

Total # of neighbors = 77
Ave neighs/atom = 0.275986
Neighbor list builds = 13912
Dangerous builds = 0
Setting up run at Tue Jan  3 21:19:20 2023

Memory usage per processor = 958.583 Mbytes
    Step    Atoms         KinEng            CPU 
 4444418      279      0.4576209              0 
 4567874      276     0.50282858      1292.0424 
Loop time of 1292.04 on 40 procs for 123456 steps with 276 atoms, finish time Tue Jan  3 21:40:52 2023


Pair  time (%) = 0.280025 (0.0216731)
Neigh time (%) = 2.46096 (0.19047)
Comm  time (%) = 7.05669 (0.546165)
Outpt time (%) = 0.000568389 (4.39915e-05)
Other time (%) = 1282.24 (99.2416)

Nlocal:    6.9 ave 93 max 0 min
Histogram: 35 1 0 2 0 0 0 0 1 1
Nghost:    4.4 ave 51 max 0 min
Histogram: 36 0 0 0 0 0 0 1 2 1
Neighs:    1.95 ave 35 max 0 min
Histogram: 36 1 1 0 0 0 0 0 1 1

Total # of neighbors = 78
Ave neighs/atom = 0.282609
Neighbor list builds = 13932
Dangerous builds = 236
Setting up run at Tue Jan  3 21:40:52 2023

Memory usage per processor = 958.583 Mbytes
    Step    Atoms         KinEng            CPU 
 4567874      276     0.50282858              0 
 4691330      274     0.56560489      1289.5134 
Loop time of 1289.51 on 40 procs for 123456 steps with 274 atoms, finish time Tue Jan  3 22:02:22 2023


Pair  time (%) = 0.278802 (0.0216207)
Neigh time (%) = 2.43539 (0.188861)
Comm  time (%) = 7.25677 (0.562752)
Outpt time (%) = 0.000572479 (4.4395e-05)
Other time (%) = 1279.54 (99.2267)

Nlocal:    6.85 ave 92 max 0 min
Histogram: 35 1 0 2 0 0 0 0 0 2
Nghost:    4.25 ave 47 max 0 min
Histogram: 36 0 0 0 0 0 0 1 1 2
Neighs:    1.85 ave 33 max 0 min
Histogram: 36 1 1 0 0 0 0 1 0 1

Total # of neighbors = 74
Ave neighs/atom = 0.270073
Neighbor list builds = 13774
Dangerous builds = 92
Setting up run at Tue Jan  3 22:02:22 2023

Memory usage per processor = 958.583 Mbytes
    Step    Atoms         KinEng            CPU 
 4691330      274     0.56560489              0 
 4814786      272     0.35513391      1281.7528 
Loop time of 1281.75 on 40 procs for 123456 steps with 272 atoms, finish time Tue Jan  3 22:23:44 2023


Pair  time (%) = 0.27588 (0.0215236)
Neigh time (%) = 2.44425 (0.190696)
Comm  time (%) = 6.82223 (0.532258)
Outpt time (%) = 0.000536019 (4.18192e-05)
Other time (%) = 1272.21 (99.2555)

Nlocal:    6.8 ave 92 max 0 min
Histogram: 35 1 0 2 0 0 0 0 1 1
Nghost:    4.175 ave 45 max 0 min
Histogram: 36 0 0 0 0 0 0 1 0 3
Neighs:    1.7 ave 31 max 0 min
Histogram: 36 1 1 0 0 0 0 1 0 1

Total # of neighbors = 68
Ave neighs/atom = 0.25
Neighbor list builds = 13743
Dangerous builds = 36
Setting up run at Tue Jan  3 22:23:44 2023

Memory usage per processor = 958.583 Mbytes
    Step    Atoms         KinEng            CPU 
 4814786      272     0.35513391              0 
 4938242      272     0.42628009      1286.5186 
Loop time of 1286.52 on 40 procs for 123456 steps with 272 atoms, finish time Tue Jan  3 22:45:10 2023


Pair  time (%) = 0.275503 (0.0214146)
Neigh time (%) = 2.44474 (0.190028)
Comm  time (%) = 6.61645 (0.514291)
Outpt time (%) = 0.000541812 (4.21146e-05)
Other time (%) = 1277.18 (99.2742)

Nlocal:    6.8 ave 90 max 0 min
Histogram: 34 2 0 1 1 0 0 0 1 1
Nghost:    4.1 ave 43 max 0 min
Histogram: 36 0 0 0 0 0 1 0 0 3
Neighs:    1.825 ave 33 max 0 min
Histogram: 36 0 2 0 0 0 0 1 0 1

Total # of neighbors = 73
Ave neighs/atom = 0.268382
Neighbor list builds = 13716
Dangerous builds = 0
Setting up run at Tue Jan  3 22:45:10 2023

Memory usage per processor = 958.583 Mbytes
    Step    Atoms         KinEng            CPU 
 4938242      272     0.42628009              0 
 5061698      271     0.33384677       1281.066 
Loop time of 1281.07 on 40 procs for 123456 steps with 271 atoms, finish time Tue Jan  3 23:06:32 2023


Pair  time (%) = 0.274697 (0.0214428)
Neigh time (%) = 2.46201 (0.192185)
Comm  time (%) = 8.18689 (0.639068)
Outpt time (%) = 0.000503804 (3.9327e-05)
Other time (%) = 1270.14 (99.1473)

Nlocal:    6.775 ave 90 max 0 min
Histogram: 34 2 0 2 0 0 0 0 1 1
Nghost:    4.15 ave 44 max 0 min
Histogram: 36 0 0 0 0 0 0 1 0 3
Neighs:    1.775 ave 30 max 0 min
Histogram: 36 0 2 0 0 0 0 0 1 1

Total # of neighbors = 71
Ave neighs/atom = 0.261993
Neighbor list builds = 13753
Dangerous builds = 6
Setting up run at Tue Jan  3 23:06:32 2023

Memory usage per processor = 958.583 Mbytes
    Step    Atoms         KinEng            CPU 
 5061698      271     0.33384677              0 
 5185154      270     0.29371075       1280.901 
Loop time of 1280.9 on 40 procs for 123456 steps with 270 atoms, finish time Tue Jan  3 23:27:53 2023


Pair  time (%) = 0.27234 (0.0212616)
Neigh time (%) = 2.46188 (0.192199)
Comm  time (%) = 6.81707 (0.532209)
Outpt time (%) = 0.000541475 (4.2273e-05)
Other time (%) = 1271.35 (99.2543)

Nlocal:    6.75 ave 88 max 0 min
Histogram: 33 3 0 1 1 0 0 0 0 2
Nghost:    3.875 ave 42 max 0 min
Histogram: 36 0 0 0 0 0 0 1 0 3
Neighs:    1.675 ave 29 max 0 min
Histogram: 36 0 2 0 0 0 0 1 0 1

Total # of neighbors = 67
Ave neighs/atom = 0.248148
Neighbor list builds = 13795
Dangerous builds = 88
Setting up run at Tue Jan  3 23:27:53 2023

Memory usage per processor = 958.583 Mbytes
    Step    Atoms         KinEng            CPU 
 5185154      270     0.29371075              0 
 5308610      268     0.27470159      1282.7627 
Loop time of 1282.76 on 40 procs for 123456 steps with 268 atoms, finish time Tue Jan  3 23:49:15 2023


Pair  time (%) = 0.270264 (0.0210689)
Neigh time (%) = 2.52206 (0.196611)
Comm  time (%) = 8.07855 (0.629777)
Outpt time (%) = 0.000467433 (3.64395e-05)
Other time (%) = 1271.89 (99.1525)

Nlocal:    6.7 ave 87 max 0 min
Histogram: 32 4 1 0 1 0 0 0 0 2
Nghost:    3.925 ave 42 max 0 min
Histogram: 36 0 0 0 0 0 1 0 0 3
Neighs:    1.7 ave 29 max 0 min
Histogram: 36 0 2 0 0 0 0 0 1 1

Total # of neighbors = 68
Ave neighs/atom = 0.253731
Neighbor list builds = 14308
Dangerous builds = 556
Setting up run at Tue Jan  3 23:49:15 2023

Memory usage per processor = 958.583 Mbytes
    Step    Atoms         KinEng            CPU 
 5308610      268     0.27470159              0 
 5432066      268     0.26387593      1279.3469 
Loop time of 1279.37 on 40 procs for 123456 steps with 268 atoms, finish time Wed Jan  4 00:10:35 2023


Pair  time (%) = 0.264722 (0.0206916)
Neigh time (%) = 2.47236 (0.193249)
Comm  time (%) = 7.20975 (0.563541)
Outpt time (%) = 0.000566011 (4.42415e-05)
Other time (%) = 1269.42 (99.2225)

Nlocal:    6.7 ave 86 max 0 min
Histogram: 35 0 1 2 0 0 0 0 0 2
Nghost:    3.7 ave 41 max 0 min
Histogram: 36 0 0 0 0 0 0 1 1 2
Neighs:    1.775 ave 29 max 0 min
Histogram: 35 2 1 0 0 0 0 0 1 1

Total # of neighbors = 71
Ave neighs/atom = 0.264925
Neighbor list builds = 13717
Dangerous builds = 0
Setting up run at Wed Jan  4 00:10:35 2023

Memory usage per processor = 958.583 Mbytes
    Step    Atoms         KinEng            CPU 
 5432066      268     0.26387593              0 
 5555522      267     0.42517629      1303.6506 
Loop time of 1303.65 on 40 procs for 123456 steps with 267 atoms, finish time Wed Jan  4 00:32:19 2023


Pair  time (%) = 0.265524 (0.0203677)
Neigh time (%) = 2.47224 (0.18964)
Comm  time (%) = 6.76485 (0.518916)
Outpt time (%) = 0.000587377 (4.50563e-05)
Other time (%) = 1294.15 (99.271)

Nlocal:    6.675 ave 83 max 0 min
Histogram: 34 2 0 2 0 0 0 0 0 2
Nghost:    3.625 ave 40 max 0 min
Histogram: 36 0 0 0 0 0 0 1 1 2
Neighs:    1.65 ave 31 max 0 min
Histogram: 36 2 0 0 0 0 0 1 0 1

Total # of neighbors = 66
Ave neighs/atom = 0.247191
Neighbor list builds = 13717
Dangerous builds = 0
Setting up run at Wed Jan  4 00:32:19 2023

Memory usage per processor = 958.583 Mbytes
    Step    Atoms         KinEng            CPU 
 5555522      267     0.42517629              0 
 5678978      267     0.42492148      1334.1425 
Loop time of 1334.14 on 40 procs for 123456 steps with 267 atoms, finish time Wed Jan  4 00:54:33 2023


Pair  time (%) = 0.266293 (0.0199598)
Neigh time (%) = 2.53348 (0.189896)
Comm  time (%) = 6.45929 (0.484153)
Outpt time (%) = 0.000473943 (3.55242e-05)
Other time (%) = 1324.88 (99.306)

Nlocal:    6.675 ave 85 max 0 min
Histogram: 34 2 0 1 1 0 0 0 1 1
Nghost:    3.675 ave 39 max 0 min
Histogram: 36 0 0 0 0 0 0 1 1 2
Neighs:    1.625 ave 29 max 0 min
Histogram: 36 1 1 0 0 0 0 0 1 1

Total # of neighbors = 65
Ave neighs/atom = 0.243446
Neighbor list builds = 14090
Dangerous builds = 0
Setting up run at Wed Jan  4 00:54:33 2023

Memory usage per processor = 958.583 Mbytes
    Step    Atoms         KinEng            CPU 
 5678978      267     0.42492148              0 
 5802434      263     0.38948169      1275.5988 
Loop time of 1275.6 on 40 procs for 123456 steps with 263 atoms, finish time Wed Jan  4 01:15:48 2023


Pair  time (%) = 0.267648 (0.0209822)
Neigh time (%) = 2.53166 (0.198468)
Comm  time (%) = 7.31524 (0.573475)
Outpt time (%) = 0.000593002 (4.64881e-05)
Other time (%) = 1265.48 (99.207)

Nlocal:    6.575 ave 86 max 0 min
Histogram: 34 2 1 0 1 0 0 0 1 1
Nghost:    3.45 ave 40 max 0 min
Histogram: 36 0 0 0 0 0 0 2 1 1
Neighs:    1.65 ave 29 max 0 min
Histogram: 36 2 0 0 0 0 0 0 0 2

Total # of neighbors = 66
Ave neighs/atom = 0.250951
Neighbor list builds = 14149
Dangerous builds = 39
Setting up run at Wed Jan  4 01:15:49 2023

Memory usage per processor = 958.583 Mbytes
    Step    Atoms         KinEng            CPU 
 5802434      263     0.38948169              0 
 5925890      263     0.40541276      1281.3592 
Loop time of 1281.36 on 40 procs for 123456 steps with 263 atoms, finish time Wed Jan  4 01:37:10 2023


Pair  time (%) = 0.263836 (0.0205904)
Neigh time (%) = 2.47537 (0.193183)
Comm  time (%) = 7.00876 (0.546979)
Outpt time (%) = 0.000494364 (3.85812e-05)
Other time (%) = 1271.61 (99.2392)

Nlocal:    6.575 ave 81 max 0 min
Histogram: 34 2 1 0 1 0 0 0 0 2
Nghost:    3.275 ave 42 max 0 min
Histogram: 36 0 0 0 0 1 1 1 0 1
Neighs:    1.725 ave 33 max 0 min
Histogram: 37 1 0 0 0 0 0 1 0 1

Total # of neighbors = 69
Ave neighs/atom = 0.262357
Neighbor list builds = 13717
Dangerous builds = 0
Setting up run at Wed Jan  4 01:37:10 2023

Memory usage per processor = 958.583 Mbytes
    Step    Atoms         KinEng            CPU 
 5925890      263     0.40541276              0 
 6049346      261     0.35879497       1279.273 
Loop time of 1279.27 on 40 procs for 123456 steps with 261 atoms, finish time Wed Jan  4 01:58:29 2023


Pair  time (%) = 0.262983 (0.0205572)
Neigh time (%) = 2.49842 (0.1953)
Comm  time (%) = 7.332 (0.573138)
Outpt time (%) = 0.000426381 (3.333e-05)
Other time (%) = 1269.18 (99.211)

Nlocal:    6.525 ave 82 max 0 min
Histogram: 33 3 1 0 0 1 0 0 1 1
Nghost:    3.425 ave 45 max 0 min
Histogram: 36 0 0 0 0 1 1 1 0 1
Neighs:    1.475 ave 27 max 0 min
Histogram: 37 0 1 0 0 0 0 0 1 1

Total # of neighbors = 59
Ave neighs/atom = 0.226054
Neighbor list builds = 13870
Dangerous builds = 171
Setting up run at Wed Jan  4 01:58:29 2023

Memory usage per processor = 958.583 Mbytes
    Step    Atoms         KinEng            CPU 
 6049346      261     0.35879497              0 
 6172802      258     0.34282973      1285.7316 
Loop time of 1285.73 on 40 procs for 123456 steps with 258 atoms, finish time Wed Jan  4 02:19:55 2023


Pair  time (%) = 0.264447 (0.0205678)
Neigh time (%) = 2.51718 (0.195778)
Comm  time (%) = 8.57925 (0.667266)
Outpt time (%) = 0.0028518 (0.000221804)
Other time (%) = 1274.37 (99.1162)

Nlocal:    6.45 ave 85 max 0 min
Histogram: 33 3 1 0 1 0 0 1 0 1
Nghost:    3.725 ave 44 max 0 min
Histogram: 36 0 0 0 0 0 2 0 1 1
Neighs:    1.375 ave 27 max 0 min
Histogram: 36 2 0 0 0 0 1 0 0 1

Total # of neighbors = 55
Ave neighs/atom = 0.213178
Neighbor list builds = 14032
Dangerous builds = 4
Setting up run at Wed Jan  4 02:19:55 2023

Memory usage per processor = 958.583 Mbytes
    Step    Atoms         KinEng            CPU 
 6172802      258     0.34282973              0 
 6296258      258      0.3534337      1273.1184 
Loop time of 1273.12 on 40 procs for 123456 steps with 258 atoms, finish time Wed Jan  4 02:41:08 2023


Pair  time (%) = 0.262249 (0.0205989)
Neigh time (%) = 2.30519 (0.181066)
Comm  time (%) = 8.69 (0.682576)
Outpt time (%) = 0.000803498 (6.31126e-05)
Other time (%) = 1261.86 (99.1157)

Nlocal:    6.45 ave 84 max 0 min
Histogram: 34 2 0 1 1 0 0 1 0 1
Nghost:    3.5 ave 39 max 0 min
Histogram: 36 0 0 0 0 0 1 1 0 2
Neighs:    1.525 ave 32 max 0 min
Histogram: 36 2 0 0 0 1 0 0 0 1

Total # of neighbors = 61
Ave neighs/atom = 0.236434
Neighbor list builds = 12825
Dangerous builds = 0
Setting up run at Wed Jan  4 02:41:08 2023

Memory usage per processor = 958.583 Mbytes
    Step    Atoms         KinEng            CPU 
 6296258      258      0.3534337              0 
 6419714      254     0.31209851       1268.238 
Loop time of 1268.24 on 40 procs for 123456 steps with 254 atoms, finish time Wed Jan  4 03:02:17 2023


Pair  time (%) = 0.263772 (0.0207983)
Neigh time (%) = 2.08077 (0.164068)
Comm  time (%) = 6.16832 (0.486369)
Outpt time (%) = 0.000538906 (4.24925e-05)
Other time (%) = 1259.72 (99.3287)

Nlocal:    6.35 ave 84 max 0 min
Histogram: 33 3 1 0 1 0 0 1 0 1
Nghost:    3.375 ave 40 max 0 min
Histogram: 36 0 0 0 0 0 2 0 0 2
Neighs:    1.55 ave 31 max 0 min
Histogram: 36 1 1 0 0 1 0 0 0 1

Total # of neighbors = 62
Ave neighs/atom = 0.244094
Neighbor list builds = 11699
Dangerous builds = 244
Setting up run at Wed Jan  4 03:02:17 2023

Memory usage per processor = 958.583 Mbytes
    Step    Atoms         KinEng            CPU 
 6419714      254     0.31209851              0 
 6543170      250     0.52351255      1267.4516 
Loop time of 1267.45 on 40 procs for 123456 steps with 250 atoms, finish time Wed Jan  4 03:23:24 2023


Pair  time (%) = 0.260695 (0.0205684)
Neigh time (%) = 2.06771 (0.163139)
Comm  time (%) = 7.60928 (0.600361)
Outpt time (%) = 0.000503264 (3.97068e-05)
Other time (%) = 1257.51 (99.2159)

Nlocal:    6.25 ave 83 max 0 min
Histogram: 33 3 1 0 0 1 1 0 0 1
Nghost:    3.225 ave 43 max 0 min
Histogram: 36 0 0 0 1 1 0 0 1 1
Neighs:    1.5 ave 31 max 0 min
Histogram: 36 1 0 2 0 0 0 0 0 1

Total # of neighbors = 60
Ave neighs/atom = 0.24
Neighbor list builds = 11532
Dangerous builds = 189
Setting up run at Wed Jan  4 03:23:24 2023

Memory usage per processor = 958.583 Mbytes
    Step    Atoms         KinEng            CPU 
 6543170      250     0.52351255              0 
 6666626      248     0.28194341      1272.4118 
Loop time of 1272.41 on 40 procs for 123456 steps with 248 atoms, finish time Wed Jan  4 03:44:37 2023


Pair  time (%) = 0.262879 (0.0206599)
Neigh time (%) = 2.06261 (0.162103)
Comm  time (%) = 8.55768 (0.672556)
Outpt time (%) = 0.00058814 (4.62225e-05)
Other time (%) = 1261.53 (99.1446)

Nlocal:    6.2 ave 83 max 0 min
Histogram: 33 3 1 0 1 0 1 0 0 1
Nghost:    3.325 ave 41 max 0 min
Histogram: 36 0 0 0 2 0 0 0 0 2
Neighs:    1.675 ave 33 max 0 min
Histogram: 36 0 1 2 0 0 0 0 0 1

Total # of neighbors = 67
Ave neighs/atom = 0.270161
Neighbor list builds = 11465
Dangerous builds = 1
Setting up run at Wed Jan  4 03:44:37 2023

Memory usage per processor = 958.583 Mbytes
    Step    Atoms         KinEng            CPU 
 6666626      248     0.28194341              0 
 6790082      241     0.23343283      1278.8776 
Loop time of 1278.88 on 40 procs for 123456 steps with 241 atoms, finish time Wed Jan  4 04:05:56 2023


Pair  time (%) = 0.265369 (0.0207502)
Neigh time (%) = 2.1719 (0.169829)
Comm  time (%) = 8.90705 (0.696474)
Outpt time (%) = 0.000498479 (3.89778e-05)
Other time (%) = 1267.53 (99.1129)

Nlocal:    6.025 ave 82 max 0 min
Histogram: 33 3 1 0 1 1 0 0 0 1
Nghost:    2.975 ave 40 max 0 min
Histogram: 36 0 0 0 1 1 0 0 0 2
Neighs:    1.65 ave 35 max 0 min
Histogram: 36 0 3 0 0 0 0 0 0 1

Total # of neighbors = 66
Ave neighs/atom = 0.273859
Neighbor list builds = 12291
Dangerous builds = 285
Setting up run at Wed Jan  4 04:05:56 2023

Memory usage per processor = 958.583 Mbytes
    Step    Atoms         KinEng            CPU 
 6790082      241     0.23343283              0 
 6913538      240     0.26202779      1264.8284 
Loop time of 1264.83 on 40 procs for 123456 steps with 240 atoms, finish time Wed Jan  4 04:27:00 2023


Pair  time (%) = 0.262252 (0.0207342)
Neigh time (%) = 2.05969 (0.162843)
Comm  time (%) = 5.86021 (0.463321)
Outpt time (%) = 0.000524096 (4.14361e-05)
Other time (%) = 1256.65 (99.3531)

Nlocal:    6 ave 81 max 0 min
Histogram: 33 3 0 1 1 0 1 0 0 1
Nghost:    3.1 ave 39 max 0 min
Histogram: 36 0 0 0 1 1 0 0 0 2
Neighs:    1.55 ave 38 max 0 min
Histogram: 36 2 1 0 0 0 0 0 0 1

Total # of neighbors = 62
Ave neighs/atom = 0.258333
Neighbor list builds = 11330
Dangerous builds = 3
Setting up run at Wed Jan  4 04:27:01 2023

Memory usage per processor = 958.583 Mbytes
    Step    Atoms         KinEng            CPU 
 6913538      240     0.26202779              0 
 7036994      240      0.2969853      1266.1026 
Loop time of 1266.1 on 40 procs for 123456 steps with 240 atoms, finish time Wed Jan  4 04:48:07 2023


Pair  time (%) = 0.261764 (0.0206748)
Neigh time (%) = 2.04769 (0.161732)
Comm  time (%) = 6.59681 (0.521033)
Outpt time (%) = 0.000527241 (4.16428e-05)
Other time (%) = 1257.2 (99.2965)

Nlocal:    6 ave 76 max 0 min
Histogram: 32 4 1 0 0 1 1 0 0 1
Nghost:    2.9 ave 36 max 0 min
Histogram: 36 0 0 0 2 0 0 0 0 2
Neighs:    1.325 ave 30 max 0 min
Histogram: 36 0 3 0 0 0 0 0 0 1

Total # of neighbors = 53
Ave neighs/atom = 0.220833
Neighbor list builds = 11223
Dangerous builds = 0
Setting up run at Wed Jan  4 04:48:07 2023

Memory usage per processor = 958.583 Mbytes
    Step    Atoms         KinEng            CPU 
 7036994      240      0.2969853              0 
 7160450      238     0.16888399      1259.6427 
Loop time of 1259.64 on 40 procs for 123456 steps with 238 atoms, finish time Wed Jan  4 05:09:06 2023


Pair  time (%) = 0.260292 (0.020664)
Neigh time (%) = 2.06359 (0.163823)
Comm  time (%) = 7.66021 (0.608126)
Outpt time (%) = 0.00077841 (6.17961e-05)
Other time (%) = 1249.66 (99.2073)

Nlocal:    5.95 ave 75 max 0 min
Histogram: 33 3 0 1 1 0 1 0 0 1
Nghost:    2.55 ave 32 max 0 min
Histogram: 36 0 0 0 1 1 0 0 0 2
Neighs:    1.175 ave 27 max 0 min
Histogram: 36 0 3 0 0 0 0 0 0 1

Total # of neighbors = 47
Ave neighs/atom = 0.197479
Neighbor list builds = 11274
Dangerous builds = 1
Setting up run at Wed Jan  4 05:09:06 2023

Memory usage per processor = 958.583 Mbytes
    Step    Atoms         KinEng            CPU 
 7160450      238     0.16888399              0 
 7283906      236     0.31088904      1270.9063 
Loop time of 1270.91 on 40 procs for 123456 steps with 236 atoms, finish time Wed Jan  4 05:30:17 2023


Pair  time (%) = 0.258424 (0.0203338)
Neigh time (%) = 2.20728 (0.173678)
Comm  time (%) = 8.0999 (0.637332)
Outpt time (%) = 0.000545953 (4.29577e-05)
Other time (%) = 1260.34 (99.1686)

Nlocal:    5.9 ave 74 max 0 min
Histogram: 33 3 1 0 1 0 1 0 0 1
Nghost:    2.55 ave 31 max 0 min
Histogram: 36 0 0 0 1 1 0 0 0 2
Neighs:    1.025 ave 20 max 0 min
Histogram: 36 0 1 1 1 0 0 0 0 1

Total # of neighbors = 41
Ave neighs/atom = 0.173729
Neighbor list builds = 12124
Dangerous builds = 120
Setting up run at Wed Jan  4 05:30:17 2023

Memory usage per processor = 958.583 Mbytes
    Step    Atoms         KinEng            CPU 
 7283906      236     0.31088904              0 
 7407362      234     0.24689558      1272.7613 
Loop time of 1272.76 on 40 procs for 123456 steps with 234 atoms, finish time Wed Jan  4 05:51:30 2023


Pair  time (%) = 0.264016 (0.0207435)
Neigh time (%) = 2.09273 (0.164424)
Comm  time (%) = 8.30444 (0.652474)
Outpt time (%) = 0.00268101 (0.000210645)
Other time (%) = 1262.1 (99.1621)

Nlocal:    5.85 ave 72 max 0 min
Histogram: 32 3 1 1 1 0 0 1 0 1
Nghost:    2.45 ave 30 max 0 min
Histogram: 35 1 0 0 1 1 0 0 0 2
Neighs:    0.875 ave 16 max 0 min
Histogram: 36 1 0 1 0 1 0 0 0 1

Total # of neighbors = 35
Ave neighs/atom = 0.149573
Neighbor list builds = 11586
Dangerous builds = 71
Setting up run at Wed Jan  4 05:51:30 2023

Memory usage per processor = 958.583 Mbytes
    Step    Atoms         KinEng            CPU 
 7407362      234     0.24689558              0 
 7530818      230     0.30798075      1273.0063 
Loop time of 1273.01 on 40 procs for 123456 steps with 230 atoms, finish time Wed Jan  4 06:12:43 2023


Pair  time (%) = 0.260699 (0.020479)
Neigh time (%) = 2.05175 (0.161173)
Comm  time (%) = 6.65779 (0.522997)
Outpt time (%) = 0.0103523 (0.000813213)
Other time (%) = 1264.03 (99.2945)

Nlocal:    5.75 ave 71 max 0 min
Histogram: 32 3 2 0 1 0 0 1 0 1
Nghost:    2.4 ave 30 max 0 min
Histogram: 36 0 0 0 0 2 0 0 1 1
Neighs:    0.875 ave 14 max 0 min
Histogram: 36 1 0 0 0 1 0 1 0 1

Total # of neighbors = 35
Ave neighs/atom = 0.152174
Neighbor list builds = 11286
Dangerous builds = 69
Setting up run at Wed Jan  4 06:12:43 2023

Memory usage per processor = 958.583 Mbytes
    Step    Atoms         KinEng            CPU 
 7530818      230     0.30798075              0 
 7654274      229     0.46654488      1265.3975 
Loop time of 1265.42 on 40 procs for 123456 steps with 229 atoms, finish time Wed Jan  4 06:33:49 2023


Pair  time (%) = 0.260455 (0.0205825)
Neigh time (%) = 2.06947 (0.16354)
Comm  time (%) = 8.66675 (0.684892)
Outpt time (%) = 0.000568521 (4.49275e-05)
Other time (%) = 1254.42 (99.1309)

Nlocal:    5.725 ave 72 max 0 min
Histogram: 33 2 2 0 0 1 1 0 0 1
Nghost:    2.4 ave 28 max 0 min
Histogram: 35 1 0 0 1 1 0 0 0 2
Neighs:    0.8 ave 10 max 0 min
Histogram: 35 1 0 1 0 0 0 0 1 2

Total # of neighbors = 32
Ave neighs/atom = 0.139738
Neighbor list builds = 11379
Dangerous builds = 0
Setting up run at Wed Jan  4 06:33:49 2023

Memory usage per processor = 958.583 Mbytes
    Step    Atoms         KinEng            CPU 
 7654274      229     0.46654488              0 
 7777730      226     0.30685505      1276.2154 
Loop time of 1276.22 on 40 procs for 123456 steps with 226 atoms, finish time Wed Jan  4 06:55:05 2023


Pair  time (%) = 0.251364 (0.019696)
Neigh time (%) = 2.08903 (0.163689)
Comm  time (%) = 9.40324 (0.736807)
Outpt time (%) = 0.000265544 (2.08071e-05)
Other time (%) = 1264.47 (99.0798)

Nlocal:    5.65 ave 71 max 0 min
Histogram: 33 2 2 0 1 0 0 1 0 1
Nghost:    2.375 ave 27 max 0 min
Histogram: 36 0 0 0 1 0 0 1 0 2
Neighs:    0.775 ave 11 max 0 min
Histogram: 36 0 1 0 0 1 0 0 0 2

Total # of neighbors = 31
Ave neighs/atom = 0.137168
Neighbor list builds = 11560
Dangerous builds = 191
Setting up run at Wed Jan  4 06:55:05 2023

Memory usage per processor = 958.583 Mbytes
    Step    Atoms         KinEng            CPU 
 7777730      226     0.30685505              0 
 7901186      225     0.29234946      1264.3535 
Loop time of 1264.35 on 40 procs for 123456 steps with 225 atoms, finish time Wed Jan  4 07:16:09 2023


Pair  time (%) = 0.249458 (0.0197301)
Neigh time (%) = 2.04556 (0.161787)
Comm  time (%) = 8.89436 (0.703471)
Outpt time (%) = 0.000256479 (2.02854e-05)
Other time (%) = 1253.16 (99.115)

Nlocal:    5.625 ave 70 max 0 min
Histogram: 33 2 1 1 1 0 0 1 0 1
Nghost:    2.375 ave 29 max 0 min
Histogram: 35 1 0 0 0 1 1 0 1 1
Neighs:    0.825 ave 10 max 0 min
Histogram: 34 2 0 0 1 0 0 1 0 2

Total # of neighbors = 33
Ave neighs/atom = 0.146667
Neighbor list builds = 11234
Dangerous builds = 12
Setting up run at Wed Jan  4 07:16:10 2023

Memory usage per processor = 958.583 Mbytes
    Step    Atoms         KinEng            CPU 
 7901186      225     0.29234946              0 
 8024642      221     0.56226928      1274.9714 
Loop time of 1274.97 on 40 procs for 123456 steps with 221 atoms, finish time Wed Jan  4 07:37:25 2023


Pair  time (%) = 0.255019 (0.0200019)
Neigh time (%) = 2.16638 (0.169916)
Comm  time (%) = 7.71671 (0.605246)
Outpt time (%) = 0.000278711 (2.18601e-05)
Other time (%) = 1264.83 (99.2048)

Nlocal:    5.525 ave 66 max 0 min
Histogram: 32 3 1 2 0 0 0 0 1 1
Nghost:    2.35 ave 34 max 0 min
Histogram: 36 0 0 0 1 1 1 0 0 1
Neighs:    0.75 ave 11 max 0 min
Histogram: 36 0 0 0 1 1 0 1 0 1

Total # of neighbors = 30
Ave neighs/atom = 0.135747
Neighbor list builds = 12264
Dangerous builds = 837
Setting up run at Wed Jan  4 07:37:25 2023

Memory usage per processor = 958.583 Mbytes
    Step    Atoms         KinEng            CPU 
 8024642      221     0.56226928              0 
 8148098      217     0.50457442      1279.0613 
Loop time of 1279.06 on 40 procs for 123456 steps with 217 atoms, finish time Wed Jan  4 07:58:44 2023


Pair  time (%) = 0.254897 (0.0199284)
Neigh time (%) = 2.13471 (0.166896)
Comm  time (%) = 6.85666 (0.53607)
Outpt time (%) = 0.00273766 (0.000214037)
Other time (%) = 1269.81 (99.2769)

Nlocal:    5.425 ave 62 max 0 min
Histogram: 32 2 2 2 0 0 0 0 1 1
Nghost:    2.525 ave 34 max 0 min
Histogram: 36 0 0 0 0 2 0 1 0 1
Neighs:    0.75 ave 12 max 0 min
Histogram: 36 0 0 1 0 1 1 0 0 1

Total # of neighbors = 30
Ave neighs/atom = 0.138249
Neighbor list builds = 11850
Dangerous builds = 25
Setting up run at Wed Jan  4 07:58:44 2023

Memory usage per processor = 958.583 Mbytes
    Step    Atoms         KinEng            CPU 
 8148098      217     0.50457442              0 
 8271554      214     0.40170973      1277.8455 
Loop time of 1277.85 on 40 procs for 123456 steps with 214 atoms, finish time Wed Jan  4 08:20:02 2023


Pair  time (%) = 0.254208 (0.0198935)
Neigh time (%) = 2.11009 (0.165129)
Comm  time (%) = 6.53851 (0.511682)
Outpt time (%) = 0.000300611 (2.35248e-05)
Other time (%) = 1268.94 (99.3033)

Nlocal:    5.35 ave 62 max 0 min
Histogram: 32 3 1 1 1 0 0 0 1 1
Nghost:    2.275 ave 31 max 0 min
Histogram: 36 0 0 0 0 2 0 1 0 1
Neighs:    0.725 ave 10 max 0 min
Histogram: 35 1 0 1 0 0 1 0 0 2

Total # of neighbors = 29
Ave neighs/atom = 0.135514
Neighbor list builds = 11578
Dangerous builds = 0
Setting up run at Wed Jan  4 08:20:02 2023

Memory usage per processor = 958.583 Mbytes
    Step    Atoms         KinEng            CPU 
 8271554      214     0.40170973              0 
 8395010      214     0.55682371      1272.8896 
Loop time of 1272.89 on 40 procs for 123456 steps with 214 atoms, finish time Wed Jan  4 08:41:15 2023


Pair  time (%) = 0.252249 (0.019817)
Neigh time (%) = 2.13589 (0.167799)
Comm  time (%) = 6.4426 (0.50614)
Outpt time (%) = 0.000251096 (1.97265e-05)
Other time (%) = 1264.06 (99.3062)

Nlocal:    5.35 ave 64 max 0 min
Histogram: 33 2 1 2 0 0 0 1 0 1
Nghost:    2.45 ave 31 max 0 min
Histogram: 36 0 0 0 1 1 0 0 1 1
Neighs:    0.425 ave 7 max 0 min
Histogram: 36 0 0 0 2 1 0 0 0 1

Total # of neighbors = 17
Ave neighs/atom = 0.0794393
Neighbor list builds = 11664
Dangerous builds = 0
Setting up run at Wed Jan  4 08:41:15 2023

Memory usage per processor = 958.583 Mbytes
    Step    Atoms         KinEng            CPU 
 8395010      214     0.55682371              0 
 8518466      207     0.41212972      1271.8797 
Loop time of 1271.88 on 40 procs for 123456 steps with 207 atoms, finish time Wed Jan  4 09:02:26 2023


Pair  time (%) = 0.252232 (0.0198315)
Neigh time (%) = 2.07116 (0.162843)
Comm  time (%) = 6.3297 (0.497665)
Outpt time (%) = 0.000550331 (4.32691e-05)
Other time (%) = 1263.23 (99.3196)

Nlocal:    5.175 ave 61 max 0 min
Histogram: 32 3 1 1 1 0 0 0 1 1
Nghost:    2.475 ave 30 max 0 min
Histogram: 35 1 0 0 0 2 0 0 1 1
Neighs:    0.3 ave 5 max 0 min
Histogram: 36 0 0 0 2 0 1 0 0 1

Total # of neighbors = 12
Ave neighs/atom = 0.057971
Neighbor list builds = 11786
Dangerous builds = 430
Setting up run at Wed Jan  4 09:02:27 2023

Memory usage per processor = 958.583 Mbytes
    Step    Atoms         KinEng            CPU 
 8518466      207     0.41212972              0 
 8641922      205     0.38538602      1244.1332 
Loop time of 1244.13 on 40 procs for 123456 steps with 205 atoms, finish time Wed Jan  4 09:23:11 2023


Pair  time (%) = 0.245809 (0.0197574)
Neigh time (%) = 1.08841 (0.0874833)
Comm  time (%) = 3.4766 (0.27944)
Outpt time (%) = 0.000225616 (1.81344e-05)
Other time (%) = 1239.32 (99.6133)

Nlocal:    5.125 ave 61 max 0 min
Histogram: 32 3 1 2 0 0 0 0 1 1
Nghost:    2.575 ave 31 max 0 min
Histogram: 36 0 0 0 0 2 0 0 1 1
Neighs:    0.375 ave 5 max 0 min
Histogram: 34 0 1 0 3 0 1 0 0 1

Total # of neighbors = 15
Ave neighs/atom = 0.0731707
Neighbor list builds = 5974
Dangerous builds = 1
Setting up run at Wed Jan  4 09:23:11 2023

Memory usage per processor = 958.583 Mbytes
    Step    Atoms         KinEng            CPU 
 8641922      205     0.38538602              0 
 8765378      205     0.37720187      1231.2036 
Loop time of 1231.2 on 40 procs for 123456 steps with 205 atoms, finish time Wed Jan  4 09:43:42 2023


Pair  time (%) = 0.241357 (0.0196033)
Neigh time (%) = 0.774027 (0.0628675)
Comm  time (%) = 2.70593 (0.219779)
Outpt time (%) = 0.000220428 (1.79034e-05)
Other time (%) = 1227.48 (99.6977)

Nlocal:    5.125 ave 60 max 0 min
Histogram: 32 2 2 2 0 0 0 0 1 1
Nghost:    2.525 ave 31 max 0 min
Histogram: 36 0 0 0 0 1 1 0 0 2
Neighs:    0.325 ave 6 max 0 min
Histogram: 36 2 0 0 0 0 0 0 1 1

Total # of neighbors = 13
Ave neighs/atom = 0.0634146
Neighbor list builds = 4217
Dangerous builds = 0
Setting up run at Wed Jan  4 09:43:42 2023

Memory usage per processor = 958.583 Mbytes
    Step    Atoms         KinEng            CPU 
 8765378      205     0.37720187              0 
 8888834      203     0.38900654      1231.9647 
Loop time of 1231.96 on 40 procs for 123456 steps with 203 atoms, finish time Wed Jan  4 10:04:14 2023


Pair  time (%) = 0.239328 (0.0194265)
Neigh time (%) = 0.767907 (0.0623319)
Comm  time (%) = 2.85872 (0.232045)
Outpt time (%) = 0.00269897 (0.000219079)
Other time (%) = 1228.1 (99.686)

Nlocal:    5.075 ave 59 max 0 min
Histogram: 33 2 1 0 2 0 0 0 1 1
Nghost:    2.55 ave 30 max 0 min
Histogram: 35 1 0 0 0 0 2 0 1 1
Neighs:    0.375 ave 6 max 0 min
Histogram: 35 3 0 0 0 0 0 0 0 2

Total # of neighbors = 15
Ave neighs/atom = 0.0738916
Neighbor list builds = 4289
Dangerous builds = 205
Setting up run at Wed Jan  4 10:04:14 2023

Memory usage per processor = 958.583 Mbytes
    Step    Atoms         KinEng            CPU 
 8888834      203     0.38900654              0 
 9012290      199     0.39204436      1243.0173 
Loop time of 1243.02 on 40 procs for 123456 steps with 199 atoms, finish time Wed Jan  4 10:24:57 2023


Pair  time (%) = 0.240405 (0.0193404)
Neigh time (%) = 0.791963 (0.063713)
Comm  time (%) = 2.28726 (0.184009)
Outpt time (%) = 0.000274233 (2.20619e-05)
Other time (%) = 1239.7 (99.7329)

Nlocal:    4.975 ave 58 max 0 min
Histogram: 32 2 3 0 1 0 0 0 1 1
Nghost:    2.425 ave 29 max 0 min
Histogram: 36 0 0 0 1 0 0 1 1 1
Neighs:    0.425 ave 8 max 0 min
Histogram: 35 3 0 0 0 0 0 1 0 1

Total # of neighbors = 17
Ave neighs/atom = 0.0854271
Neighbor list builds = 4366
Dangerous builds = 86
Setting up run at Wed Jan  4 10:24:57 2023

Memory usage per processor = 958.583 Mbytes
    Step    Atoms         KinEng            CPU 
 9012290      199     0.39204436              0 
 9135746      197     0.59588645      1262.2778 
Loop time of 1262.28 on 40 procs for 123456 steps with 197 atoms, finish time Wed Jan  4 10:46:00 2023


Pair  time (%) = 0.241734 (0.0191506)
Neigh time (%) = 0.958217 (0.0759114)
Comm  time (%) = 2.97223 (0.235464)
Outpt time (%) = 0.000191202 (1.51473e-05)
Other time (%) = 1258.11 (99.6695)

Nlocal:    4.925 ave 58 max 0 min
Histogram: 32 3 1 1 1 0 0 0 1 1
Nghost:    2.25 ave 25 max 0 min
Histogram: 36 0 0 0 0 0 1 0 2 1
Neighs:    0.35 ave 7 max 0 min
Histogram: 36 2 0 0 0 0 0 1 0 1

Total # of neighbors = 14
Ave neighs/atom = 0.071066
Neighbor list builds = 5310
Dangerous builds = 139
Setting up run at Wed Jan  4 10:46:00 2023

Memory usage per processor = 958.583 Mbytes
    Step    Atoms         KinEng            CPU 
 9135746      197     0.59588645              0 
 9259202      196     0.42433478      1234.6476 
Loop time of 1234.65 on 40 procs for 123456 steps with 196 atoms, finish time Wed Jan  4 11:06:34 2023


Pair  time (%) = 0.240138 (0.01945)
Neigh time (%) = 0.863855 (0.0699677)
Comm  time (%) = 2.85456 (0.231204)
Outpt time (%) = 0.000565399 (4.57943e-05)
Other time (%) = 1230.69 (99.6793)

Nlocal:    4.9 ave 57 max 0 min
Histogram: 32 2 2 2 0 0 0 0 1 1
Nghost:    2.275 ave 26 max 0 min
Histogram: 35 1 0 0 0 0 1 1 1 1
Neighs:    0.425 ave 7 max 0 min
Histogram: 35 1 1 0 1 1 0 0 0 1

Total # of neighbors = 17
Ave neighs/atom = 0.0867347
Neighbor list builds = 4788
Dangerous builds = 0
Setting up run at Wed Jan  4 11:06:34 2023

Memory usage per processor = 958.583 Mbytes
    Step    Atoms         KinEng            CPU 
 9259202      196     0.42433478              0 
 9382658      193     0.38203328      1241.9158 
Loop time of 1241.92 on 40 procs for 123456 steps with 193 atoms, finish time Wed Jan  4 11:27:16 2023


Pair  time (%) = 0.239285 (0.0192674)
Neigh time (%) = 0.899396 (0.07242)
Comm  time (%) = 2.89931 (0.233455)
Outpt time (%) = 0.000282943 (2.27828e-05)
Other time (%) = 1237.88 (99.6748)

Nlocal:    4.825 ave 58 max 0 min
Histogram: 33 1 3 1 0 0 0 0 1 1
Nghost:    2.275 ave 23 max 0 min
Histogram: 36 0 0 0 0 0 1 0 0 3
Neighs:    0.4 ave 7 max 0 min
Histogram: 35 2 1 0 0 0 0 1 0 1

Total # of neighbors = 16
Ave neighs/atom = 0.0829016
Neighbor list builds = 5026
Dangerous builds = 254
Setting up run at Wed Jan  4 11:27:16 2023

Memory usage per processor = 958.583 Mbytes
    Step    Atoms         KinEng            CPU 
 9382658      193     0.38203328              0 
 9506114      192     0.35710378      1258.8612 
Loop time of 1258.86 on 40 procs for 123456 steps with 192 atoms, finish time Wed Jan  4 11:48:15 2023


Pair  time (%) = 0.23595 (0.0187431)
Neigh time (%) = 0.865499 (0.0687524)
Comm  time (%) = 2.79998 (0.222421)
Outpt time (%) = 0.000623429 (4.95232e-05)
Other time (%) = 1254.96 (99.69)

Nlocal:    4.8 ave 57 max 0 min
Histogram: 32 2 2 2 0 0 0 0 1 1
Nghost:    2.125 ave 22 max 0 min
Histogram: 36 0 0 0 0 0 0 1 1 2
Neighs:    0.35 ave 7 max 0 min
Histogram: 36 2 0 0 0 0 0 1 0 1

Total # of neighbors = 14
Ave neighs/atom = 0.0729167
Neighbor list builds = 4721
Dangerous builds = 1
Setting up run at Wed Jan  4 11:48:15 2023

Memory usage per processor = 958.583 Mbytes
    Step    Atoms         KinEng            CPU 
 9506114      192     0.35710378              0 
 9629570      190     0.52698629      1245.7106 
Loop time of 1245.71 on 40 procs for 123456 steps with 190 atoms, finish time Wed Jan  4 12:09:01 2023


Pair  time (%) = 0.233061 (0.018709)
Neigh time (%) = 1.00551 (0.0807174)
Comm  time (%) = 3.45399 (0.277271)
Outpt time (%) = 0.000550165 (4.41647e-05)
Other time (%) = 1241.02 (99.6233)

Nlocal:    4.75 ave 57 max 0 min
Histogram: 33 1 3 0 1 0 0 0 1 1
Nghost:    2.1 ave 23 max 0 min
Histogram: 36 0 0 0 0 0 1 1 0 2
Neighs:    0.375 ave 8 max 0 min
Histogram: 36 2 0 0 0 0 1 0 0 1

Total # of neighbors = 15
Ave neighs/atom = 0.0789474
Neighbor list builds = 5530
Dangerous builds = 0
Setting up run at Wed Jan  4 12:09:01 2023

Memory usage per processor = 958.583 Mbytes
    Step    Atoms         KinEng            CPU 
 9629570      190     0.52698629              0 
 9753026      189     0.46545146      1276.2061 
Loop time of 1276.21 on 40 procs for 123456 steps with 189 atoms, finish time Wed Jan  4 12:30:17 2023


Pair  time (%) = 0.232174 (0.0181925)
Neigh time (%) = 0.922365 (0.0722739)
Comm  time (%) = 3.58782 (0.281132)
Outpt time (%) = 0.000233185 (1.82717e-05)
Other time (%) = 1271.46 (99.6284)

Nlocal:    4.725 ave 55 max 0 min
Histogram: 32 2 3 1 0 0 0 0 1 1
Nghost:    2.05 ave 23 max 0 min
Histogram: 36 0 0 0 0 0 1 1 0 2
Neighs:    0.425 ave 8 max 0 min
Histogram: 33 5 0 0 0 1 0 0 0 1

Total # of neighbors = 17
Ave neighs/atom = 0.0899471
Neighbor list builds = 5067
Dangerous builds = 91
Setting up run at Wed Jan  4 12:30:17 2023

Memory usage per processor = 958.583 Mbytes
    Step    Atoms         KinEng            CPU 
 9753026      189     0.46545146              0 
 9876482      188     0.46145987       1242.487 
Loop time of 1242.49 on 40 procs for 123456 steps with 188 atoms, finish time Wed Jan  4 12:51:00 2023


Pair  time (%) = 0.228988 (0.0184298)
Neigh time (%) = 0.899746 (0.0724149)
Comm  time (%) = 3.10459 (0.249869)
Outpt time (%) = 0.000607705 (4.89103e-05)
Other time (%) = 1238.25 (99.6592)

Nlocal:    4.7 ave 56 max 0 min
Histogram: 32 3 2 0 1 0 0 0 1 1
Nghost:    1.975 ave 22 max 0 min
Histogram: 36 0 0 0 0 0 1 1 0 2
Neighs:    0.425 ave 8 max 0 min
Histogram: 36 0 2 0 0 0 1 0 0 1

Total # of neighbors = 17
Ave neighs/atom = 0.0904255
Neighbor list builds = 4948
Dangerous builds = 2
Setting up run at Wed Jan  4 12:51:00 2023

Memory usage per processor = 958.583 Mbytes
    Step    Atoms         KinEng            CPU 
 9876482      188     0.46145987              0 
 9999938      186     0.37078265       1292.332 
Loop time of 1292.33 on 40 procs for 123456 steps with 186 atoms, finish time Wed Jan  4 13:12:32 2023


Pair  time (%) = 0.231336 (0.0179007)
Neigh time (%) = 1.04367 (0.0807585)
Comm  time (%) = 2.89456 (0.22398)
Outpt time (%) = 0.000512011 (3.96191e-05)
Other time (%) = 1288.16 (99.6773)

Nlocal:    4.65 ave 54 max 0 min
Histogram: 32 3 2 1 0 0 0 0 0 2
Nghost:    1.975 ave 23 max 0 min
Histogram: 36 0 0 0 0 0 2 0 0 2
Neighs:    0.45 ave 7 max 0 min
Histogram: 34 2 2 0 0 0 0 1 0 1

Total # of neighbors = 18
Ave neighs/atom = 0.0967742
Neighbor list builds = 5695
Dangerous builds = 53
Setting up run at Wed Jan  4 13:12:32 2023

Memory usage per processor = 958.583 Mbytes
    Step    Atoms         KinEng            CPU 
 9999938      186     0.37078265              0 
10123394      183     0.45599796      1300.4512 
Loop time of 1300.45 on 40 procs for 123456 steps with 183 atoms, finish time Wed Jan  4 13:34:13 2023


Pair  time (%) = 0.228154 (0.0175442)
Neigh time (%) = 0.915182 (0.0703742)
Comm  time (%) = 2.83987 (0.218375)
Outpt time (%) = 0.000337155 (2.5926e-05)
Other time (%) = 1296.47 (99.6937)

Nlocal:    4.575 ave 51 max 0 min
Histogram: 32 2 3 0 1 0 0 0 0 2
Nghost:    2.025 ave 25 max 0 min
Histogram: 34 2 0 0 0 2 0 1 0 1
Neighs:    0.425 ave 8 max 0 min
Histogram: 35 3 0 0 0 0 0 1 0 1

Total # of neighbors = 17
Ave neighs/atom = 0.0928962
Neighbor list builds = 4970
Dangerous builds = 0
Setting up run at Wed Jan  4 13:34:13 2023

Memory usage per processor = 958.583 Mbytes
    Step    Atoms         KinEng            CPU 
10123394      183     0.45599796              0 
10246850      180     0.57247831      1272.2138 
Loop time of 1272.21 on 40 procs for 123456 steps with 180 atoms, finish time Wed Jan  4 13:55:25 2023


Pair  time (%) = 0.229546 (0.018043)
Neigh time (%) = 1.02675 (0.080706)
Comm  time (%) = 3.09242 (0.243074)
Outpt time (%) = 4.07183e-05 (3.20059e-06)
Other time (%) = 1267.87 (99.6582)

Nlocal:    4.5 ave 48 max 0 min
Histogram: 32 1 3 1 1 0 0 0 0 2
Nghost:    1.975 ave 26 max 0 min
Histogram: 34 2 0 0 0 2 1 0 0 1
Neighs:    0.375 ave 7 max 0 min
Histogram: 36 2 0 0 0 0 0 0 1 1

Total # of neighbors = 15
Ave neighs/atom = 0.0833333
Neighbor list builds = 5808
Dangerous builds = 296
Setting up run at Wed Jan  4 13:55:25 2023

Memory usage per processor = 958.583 Mbytes
    Step    Atoms         KinEng            CPU 
10246850      180     0.57247831              0 
10370306      178     0.76883913       1248.366 
Loop time of 1248.37 on 40 procs for 123456 steps with 178 atoms, finish time Wed Jan  4 14:16:14 2023


Pair  time (%) = 0.228979 (0.0183423)
Neigh time (%) = 1.02297 (0.0819447)
Comm  time (%) = 3.39993 (0.27235)
Outpt time (%) = 0.000582004 (4.66212e-05)
Other time (%) = 1243.71 (99.6273)

Nlocal:    4.45 ave 50 max 0 min
Histogram: 32 2 1 3 0 0 0 0 0 2
Nghost:    2 ave 26 max 0 min
Histogram: 36 0 0 0 0 2 0 0 1 1
Neighs:    0.4 ave 7 max 0 min
Histogram: 35 2 1 0 0 0 0 1 0 1

Total # of neighbors = 16
Ave neighs/atom = 0.0898876
Neighbor list builds = 5591
Dangerous builds = 0
Setting up run at Wed Jan  4 14:16:14 2023

Memory usage per processor = 958.583 Mbytes
    Step    Atoms         KinEng            CPU 
10370306      178     0.76883913              0 
10493762      178     0.66319196      1245.3606 
Loop time of 1245.36 on 40 procs for 123456 steps with 178 atoms, finish time Wed Jan  4 14:36:59 2023


Pair  time (%) = 0.226253 (0.0181677)
Neigh time (%) = 0.877247 (0.0704412)
Comm  time (%) = 2.58464 (0.207542)
Outpt time (%) = 0.00247969 (0.000199114)
Other time (%) = 1241.67 (99.7037)

Nlocal:    4.45 ave 50 max 0 min
Histogram: 32 2 1 2 1 0 0 0 1 1
Nghost:    1.875 ave 24 max 0 min
Histogram: 36 0 0 0 0 2 0 0 0 2
Neighs:    0.425 ave 6 max 0 min
Histogram: 36 0 0 0 0 2 0 0 1 1

Total # of neighbors = 17
Ave neighs/atom = 0.0955056
Neighbor list builds = 4770
Dangerous builds = 0
Setting up run at Wed Jan  4 14:36:59 2023

Memory usage per processor = 958.583 Mbytes
    Step    Atoms         KinEng            CPU 
10493762      178     0.66319196              0 
10617218      174     0.65457073      1322.6166 
Loop time of 1322.62 on 40 procs for 123456 steps with 174 atoms, finish time Wed Jan  4 14:59:02 2023


Pair  time (%) = 0.227206 (0.0171785)
Neigh time (%) = 0.941451 (0.0711809)
Comm  time (%) = 2.74262 (0.207363)
Outpt time (%) = 0.000272732 (2.06206e-05)
Other time (%) = 1318.71 (99.7043)

Nlocal:    4.35 ave 53 max 0 min
Histogram: 32 3 2 0 1 0 0 1 0 1
Nghost:    2.15 ave 25 max 0 min
Histogram: 34 2 0 0 0 1 1 0 0 2
Neighs:    0.3 ave 5 max 0 min
Histogram: 36 0 2 0 0 0 0 0 0 2

Total # of neighbors = 12
Ave neighs/atom = 0.0689655
Neighbor list builds = 5218
Dangerous builds = 25
Setting up run at Wed Jan  4 14:59:02 2023

Memory usage per processor = 958.583 Mbytes
    Step    Atoms         KinEng            CPU 
10617218      174     0.65457073              0 
10740674      173      0.6559491       1274.793 
Loop time of 1274.79 on 40 procs for 123456 steps with 173 atoms, finish time Wed Jan  4 15:20:16 2023


Pair  time (%) = 0.229906 (0.0180348)
Neigh time (%) = 1.23955 (0.0972353)
Comm  time (%) = 4.03576 (0.316581)
Outpt time (%) = 0.000638235 (5.00658e-05)
Other time (%) = 1269.29 (99.5681)

Nlocal:    4.325 ave 55 max 0 min
Histogram: 32 2 2 2 0 0 0 1 0 1
Nghost:    2.125 ave 27 max 0 min
Histogram: 35 1 0 1 0 1 0 0 1 1
Neighs:    0.225 ave 4 max 0 min
Histogram: 37 0 0 0 0 1 0 1 0 1

Total # of neighbors = 9
Ave neighs/atom = 0.0520231
Neighbor list builds = 6862
Dangerous builds = 0
Setting up run at Wed Jan  4 15:20:17 2023

Memory usage per processor = 958.583 Mbytes
    Step    Atoms         KinEng            CPU 
10740674      173      0.6559491              0 
10864130      170      1.1317665      1385.4692 
Loop time of 1385.47 on 40 procs for 123456 steps with 170 atoms, finish time Wed Jan  4 15:43:22 2023


Pair  time (%) = 0.226357 (0.0163379)
Neigh time (%) = 0.910402 (0.0657104)
Comm  time (%) = 2.67252 (0.192895)
Outpt time (%) = 0.000252859 (1.82507e-05)
Other time (%) = 1381.67 (99.725)

Nlocal:    4.25 ave 53 max 0 min
Histogram: 33 2 1 2 0 0 0 1 0 1
Nghost:    1.975 ave 26 max 0 min
Histogram: 35 1 0 0 1 1 0 0 1 1
Neighs:    0.225 ave 4 max 0 min
Histogram: 36 0 1 0 0 2 0 0 0 1

Total # of neighbors = 9
Ave neighs/atom = 0.0529412
Neighbor list builds = 5019
Dangerous builds = 7
Setting up run at Wed Jan  4 15:43:22 2023

Memory usage per processor = 958.583 Mbytes
    Step    Atoms         KinEng            CPU 
10864130      170      1.1317665              0 
10987586      169     0.61061582      1279.5039 
Loop time of 1279.5 on 40 procs for 123456 steps with 169 atoms, finish time Wed Jan  4 16:04:42 2023


Pair  time (%) = 0.226434 (0.017697)
Neigh time (%) = 0.88513 (0.0691775)
Comm  time (%) = 2.69093 (0.21031)
Outpt time (%) = 0.000210386 (1.64428e-05)
Other time (%) = 1275.7 (99.7028)

Nlocal:    4.225 ave 52 max 0 min
Histogram: 33 2 0 3 0 0 0 1 0 1
Nghost:    2.25 ave 27 max 0 min
Histogram: 34 2 0 0 1 1 0 0 1 1
Neighs:    0.225 ave 4 max 0 min
Histogram: 37 0 0 0 0 1 0 1 0 1

Total # of neighbors = 9
Ave neighs/atom = 0.0532544
Neighbor list builds = 4814
Dangerous builds = 0
Setting up run at Wed Jan  4 16:04:42 2023

Memory usage per processor = 958.583 Mbytes
    Step    Atoms         KinEng            CPU 
10987586      169     0.61061582              0 
11111042      167     0.62736133      1333.9864 
Loop time of 1333.99 on 40 procs for 123456 steps with 167 atoms, finish time Wed Jan  4 16:26:56 2023


Pair  time (%) = 0.226684 (0.016993)
Neigh time (%) = 0.949888 (0.0712067)
Comm  time (%) = 2.75832 (0.206773)
Outpt time (%) = 0.00047971 (3.59606e-05)
Other time (%) = 1330.05 (99.705)

Nlocal:    4.175 ave 53 max 0 min
Histogram: 32 3 1 2 0 0 0 1 0 1
Nghost:    1.925 ave 23 max 0 min
Histogram: 36 0 0 0 0 0 2 0 0 2
Neighs:    0.175 ave 4 max 0 min
Histogram: 37 0 1 0 0 1 0 0 0 1

Total # of neighbors = 7
Ave neighs/atom = 0.0419162
Neighbor list builds = 5173
Dangerous builds = 0
Setting up run at Wed Jan  4 16:26:56 2023

Memory usage per processor = 958.583 Mbytes
    Step    Atoms         KinEng            CPU 
11111042      167     0.62736133              0 
11234498      166     0.70952371      1363.9761 
Loop time of 1363.98 on 40 procs for 123456 steps with 166 atoms, finish time Wed Jan  4 16:49:40 2023


Pair  time (%) = 0.227385 (0.0166707)
Neigh time (%) = 0.891777 (0.0653807)
Comm  time (%) = 2.53821 (0.186089)
Outpt time (%) = 0.000299118 (2.19298e-05)
Other time (%) = 1360.32 (99.7318)

Nlocal:    4.15 ave 52 max 0 min
Histogram: 32 3 1 2 0 0 0 1 0 1
Nghost:    1.925 ave 24 max 0 min
Histogram: 36 0 0 0 1 1 0 0 0 2
Neighs:    0.15 ave 2 max 0 min
Histogram: 36 0 0 0 0 2 0 0 0 2

Total # of neighbors = 6
Ave neighs/atom = 0.0361446
Neighbor list builds = 4897
Dangerous builds = 2
Setting up run at Wed Jan  4 16:49:40 2023

Memory usage per processor = 958.583 Mbytes
[...]
Other time (%) = 1240.03 (99.7071)

Nlocal:    1.9 ave 22 max 0 min
Histogram: 32 3 2 0 1 0 0 0 0 2
Nghost:    0.75 ave 10 max 0 min
Histogram: 31 5 1 0 0 1 0 0 1 1
Neighs:    0.025 ave 1 max 0 min
Histogram: 39 0 0 0 0 0 0 0 0 1

Total # of neighbors = 1
Ave neighs/atom = 0.0131579
Neighbor list builds = 5965
Dangerous builds = 0
Setting up run at Thu Jan  5 23:00:52 2023

Memory usage per processor = 958.583 Mbytes
    Step    Atoms         KinEng            CPU 
21851792       76       1.113446              0 
21975248       76      1.1396817      1244.7857 
Loop time of 1244.79 on 40 procs for 123456 steps with 76 atoms, finish time Thu Jan  5 23:21:36 2023


Pair  time (%) = 0.222802 (0.0178988)
Neigh time (%) = 1.15688 (0.0929377)
Comm  time (%) = 2.44666 (0.196553)
Outpt time (%) = 0.00023155 (1.86016e-05)
Other time (%) = 1240.96 (99.6926)

Nlocal:    1.9 ave 21 max 0 min
Histogram: 31 4 3 0 0 0 0 0 0 2
Nghost:    0.75 ave 9 max 0 min
Histogram: 31 5 0 1 0 1 0 0 1 1
Neighs:    0.125 ave 2 max 0 min
Histogram: 36 0 0 0 0 3 0 0 0 1

Total # of neighbors = 5
Ave neighs/atom = 0.0657895
Neighbor list builds = 6220
Dangerous builds = 0
Setting up run at Thu Jan  5 23:21:37 2023

Memory usage per processor = 958.583 Mbytes
    Step    Atoms         KinEng            CPU 
21975248       76      1.1396817              0 
22098704       76      1.1518678       1243.938 
Loop time of 1243.94 on 40 procs for 123456 steps with 76 atoms, finish time Thu Jan  5 23:42:21 2023


Pair  time (%) = 0.222823 (0.0179127)
Neigh time (%) = 1.09503 (0.0880293)
Comm  time (%) = 2.35048 (0.188954)
Outpt time (%) = 0.000529755 (4.25869e-05)
Other time (%) = 1240.27 (99.7051)

Nlocal:    1.9 ave 21 max 0 min
Histogram: 34 1 1 2 0 0 0 0 0 2
Nghost:    0.85 ave 9 max 0 min
Histogram: 30 4 2 1 0 0 1 0 1 1
Neighs:    0.025 ave 1 max 0 min
Histogram: 39 0 0 0 0 0 0 0 0 1

Total # of neighbors = 1
Ave neighs/atom = 0.0131579
Neighbor list builds = 5878
Dangerous builds = 0
Setting up run at Thu Jan  5 23:42:21 2023

Memory usage per processor = 958.583 Mbytes
    Step    Atoms         KinEng            CPU 
22098704       76      1.1518678              0 
22222160       76      1.1234102      1244.4443 
Loop time of 1244.44 on 40 procs for 123456 steps with 76 atoms, finish time Fri Jan  6 00:03:05 2023


Pair  time (%) = 0.22327 (0.0179413)
Neigh time (%) = 1.09488 (0.0879816)
Comm  time (%) = 2.29052 (0.184059)
Outpt time (%) = 0.000257089 (2.06589e-05)
Other time (%) = 1240.84 (99.71)

Nlocal:    1.9 ave 22 max 0 min
Histogram: 31 5 2 0 0 0 0 0 0 2
Nghost:    0.775 ave 10 max 0 min
Histogram: 33 2 1 0 1 0 1 1 0 1
Neighs:    0 ave 0 max 0 min
Histogram: 40 0 0 0 0 0 0 0 0 0

Total # of neighbors = 0
Ave neighs/atom = 0
Neighbor list builds = 5878
Dangerous builds = 0
Setting up run at Fri Jan  6 00:03:05 2023

Memory usage per processor = 958.583 Mbytes
    Step    Atoms         KinEng            CPU 
22222160       76      1.1234102              0 
22345616       76      1.1593186      1242.3704 
Loop time of 1242.37 on 40 procs for 123456 steps with 76 atoms, finish time Fri Jan  6 00:23:48 2023


Pair  time (%) = 0.223468 (0.0179873)
Neigh time (%) = 1.09623 (0.0882366)
Comm  time (%) = 2.26121 (0.182008)
Outpt time (%) = 0.000242866 (1.95486e-05)
Other time (%) = 1238.79 (99.7117)

Nlocal:    1.9 ave 23 max 0 min
Histogram: 32 5 0 1 0 0 0 0 1 1
Nghost:    0.8 ave 9 max 0 min
Histogram: 29 7 0 0 1 0 2 0 0 1
Neighs:    0 ave 0 max 0 min
Histogram: 40 0 0 0 0 0 0 0 0 0

Total # of neighbors = 0
Ave neighs/atom = 0
Neighbor list builds = 5892
Dangerous builds = 0
Setting up run at Fri Jan  6 00:23:48 2023

Memory usage per processor = 958.583 Mbytes
    Step    Atoms         KinEng            CPU 
22345616       76      1.1593186              0 
22469072       76      1.3235404      1246.3023 
Loop time of 1246.32 on 40 procs for 123456 steps with 76 atoms, finish time Fri Jan  6 00:44:34 2023


Pair  time (%) = 0.223216 (0.0179099)
Neigh time (%) = 1.13435 (0.0910162)
Comm  time (%) = 2.37945 (0.190917)
Outpt time (%) = 0.021132 (0.00169555)
Other time (%) = 1242.56 (99.6985)

Nlocal:    1.9 ave 23 max 0 min
Histogram: 32 4 1 1 0 0 0 0 0 2
Nghost:    0.675 ave 8 max 0 min
Histogram: 33 3 0 0 0 1 1 0 1 1
Neighs:    0 ave 0 max 0 min
Histogram: 40 0 0 0 0 0 0 0 0 0

Total # of neighbors = 0
Ave neighs/atom = 0
Neighbor list builds = 6086
Dangerous builds = 0
Setting up run at Fri Jan  6 00:44:34 2023

Memory usage per processor = 958.583 Mbytes
    Step    Atoms         KinEng            CPU 
22469072       76      1.3235404              0 
22592528       76       1.262753      1240.8968 
Loop time of 1240.9 on 40 procs for 123456 steps with 76 atoms, finish time Fri Jan  6 01:05:15 2023


Pair  time (%) = 0.223784 (0.0180341)
Neigh time (%) = 1.09801 (0.0884856)
Comm  time (%) = 2.17956 (0.175644)
Outpt time (%) = 0.000271469 (2.18769e-05)
Other time (%) = 1237.4 (99.7178)

Nlocal:    1.9 ave 22 max 0 min
Histogram: 31 6 1 0 0 0 0 0 0 2
Nghost:    0.725 ave 8 max 0 min
Histogram: 32 4 0 0 0 0 1 2 0 1
Neighs:    0 ave 0 max 0 min
Histogram: 40 0 0 0 0 0 0 0 0 0

Total # of neighbors = 0
Ave neighs/atom = 0
Neighbor list builds = 5892
Dangerous builds = 0
Setting up run at Fri Jan  6 01:05:15 2023

Memory usage per processor = 958.583 Mbytes
    Step    Atoms         KinEng            CPU 
22592528       76       1.262753              0 
22715984       76      1.2367633      1242.9662 
Loop time of 1242.97 on 40 procs for 123456 steps with 76 atoms, finish time Fri Jan  6 01:25:58 2023


Pair  time (%) = 0.224454 (0.0180579)
Neigh time (%) = 1.09649 (0.0882156)
Comm  time (%) = 2.34723 (0.188841)
Outpt time (%) = 0.000196546 (1.58127e-05)
Other time (%) = 1239.3 (99.7049)

Nlocal:    1.9 ave 23 max 0 min
Histogram: 32 3 2 1 0 0 0 0 0 2
Nghost:    0.625 ave 10 max 0 min
Histogram: 35 1 0 1 1 0 0 1 0 1
Neighs:    0 ave 0 max 0 min
Histogram: 40 0 0 0 0 0 0 0 0 0

Total # of neighbors = 0
Ave neighs/atom = 0
Neighbor list builds = 5878
Dangerous builds = 0
Setting up run at Fri Jan  6 01:25:58 2023

Memory usage per processor = 958.583 Mbytes
    Step    Atoms         KinEng            CPU 
22715984       76      1.2367633              0 
22839440       76       1.219611      1250.2193 
Loop time of 1250.22 on 40 procs for 123456 steps with 76 atoms, finish time Fri Jan  6 01:46:48 2023


Pair  time (%) = 0.225081 (0.0180033)
Neigh time (%) = 1.09812 (0.087834)
Comm  time (%) = 2.0743 (0.165915)
Outpt time (%) = 0.000528716 (4.22899e-05)
Other time (%) = 1246.82 (99.7282)

Nlocal:    1.9 ave 22 max 0 min
Histogram: 32 3 2 1 0 0 0 0 0 2
Nghost:    0.55 ave 6 max 0 min
Histogram: 33 2 0 2 0 0 1 0 0 2
Neighs:    0.025 ave 1 max 0 min
Histogram: 39 0 0 0 0 0 0 0 0 1

Total # of neighbors = 1
Ave neighs/atom = 0.0131579
Neighbor list builds = 5878
Dangerous builds = 0
Setting up run at Fri Jan  6 01:46:48 2023

Memory usage per processor = 958.583 Mbytes
    Step    Atoms         KinEng            CPU 
22839440       76       1.219611              0 
22962896       76      1.1761632      1250.2736 
Loop time of 1250.27 on 40 procs for 123456 steps with 76 atoms, finish time Fri Jan  6 02:07:39 2023


Pair  time (%) = 0.223745 (0.0178957)
Neigh time (%) = 1.10379 (0.0882837)
Comm  time (%) = 2.1964 (0.175673)
Outpt time (%) = 0.000246301 (1.96998e-05)
Other time (%) = 1246.75 (99.7181)

Nlocal:    1.9 ave 23 max 0 min
Histogram: 33 2 3 0 0 0 0 0 0 2
Nghost:    0.6 ave 6 max 0 min
Histogram: 30 6 0 1 0 0 0 0 2 1
Neighs:    0 ave 0 max 0 min
Histogram: 40 0 0 0 0 0 0 0 0 0

Total # of neighbors = 0
Ave neighs/atom = 0
Neighbor list builds = 5878
Dangerous builds = 0
Setting up run at Fri Jan  6 02:07:39 2023

Memory usage per processor = 958.583 Mbytes
    Step    Atoms         KinEng            CPU 
22962896       76      1.1761632              0 
23086352       75      1.1410617      1247.9365 
Loop time of 1247.94 on 40 procs for 123456 steps with 75 atoms, finish time Fri Jan  6 02:28:27 2023


Pair  time (%) = 0.224892 (0.0180211)
Neigh time (%) = 1.17811 (0.0944045)
Comm  time (%) = 2.14023 (0.171502)
Outpt time (%) = 0.000164141 (1.3153e-05)
Other time (%) = 1244.39 (99.7161)

Nlocal:    1.875 ave 22 max 0 min
Histogram: 33 1 4 0 0 0 0 0 0 2
Nghost:    0.525 ave 7 max 0 min
Histogram: 32 4 1 0 1 0 0 1 0 1
Neighs:    0.025 ave 1 max 0 min
Histogram: 39 0 0 0 0 0 0 0 0 1

Total # of neighbors = 1
Ave neighs/atom = 0.0133333
Neighbor list builds = 6286
Dangerous builds = 0
Setting up run at Fri Jan  6 02:28:27 2023

Memory usage per processor = 958.583 Mbytes
    Step    Atoms         KinEng            CPU 
23086352       75      1.1410617              0 
23209808       74      1.1626272      1241.0356 
Loop time of 1241.04 on 40 procs for 123456 steps with 74 atoms, finish time Fri Jan  6 02:49:08 2023


Pair  time (%) = 0.224191 (0.0180649)
Neigh time (%) = 1.12482 (0.0906354)
Comm  time (%) = 2.26555 (0.182554)
Outpt time (%) = 0.000606183 (4.88449e-05)
Other time (%) = 1237.42 (99.7087)

Nlocal:    1.85 ave 22 max 0 min
Histogram: 33 3 1 1 0 0 0 0 0 2
Nghost:    0.7 ave 8 max 0 min
Histogram: 30 5 1 2 0 0 0 0 1 1
Neighs:    0.05 ave 1 max 0 min
Histogram: 38 0 0 0 0 0 0 0 0 2

Total # of neighbors = 2
Ave neighs/atom = 0.027027
Neighbor list builds = 6167
Dangerous builds = 302
Setting up run at Fri Jan  6 02:49:08 2023

Memory usage per processor = 958.583 Mbytes
    Step    Atoms         KinEng            CPU 
23209808       74      1.1626272              0 
23333264       74      1.1631615      1243.2506 
Loop time of 1243.27 on 40 procs for 123456 steps with 74 atoms, finish time Fri Jan  6 03:09:51 2023


Pair  time (%) = 0.225107 (0.0181061)
Neigh time (%) = 1.09906 (0.0884011)
Comm  time (%) = 2.21821 (0.178418)
Outpt time (%) = 0.000273999 (2.20387e-05)
Other time (%) = 1239.72 (99.7151)

Nlocal:    1.85 ave 23 max 0 min
Histogram: 32 4 2 0 0 0 0 0 1 1
Nghost:    0.5 ave 8 max 0 min
Histogram: 36 0 0 1 0 1 1 0 0 1
Neighs:    0 ave 0 max 0 min
Histogram: 40 0 0 0 0 0 0 0 0 0

Total # of neighbors = 0
Ave neighs/atom = 0
Neighbor list builds = 5878
Dangerous builds = 0
Setting up run at Fri Jan  6 03:09:51 2023

Memory usage per processor = 958.583 Mbytes
    Step    Atoms         KinEng            CPU 
23333264       74      1.1631615              0 
23456720       74      1.1994714      1249.9478 
Loop time of 1249.95 on 40 procs for 123456 steps with 74 atoms, finish time Fri Jan  6 03:30:41 2023


Pair  time (%) = 0.226662 (0.0181337)
Neigh time (%) = 1.1037 (0.0882993)
Comm  time (%) = 2.2638 (0.181112)
Outpt time (%) = 0.000223096 (1.78484e-05)
Other time (%) = 1246.35 (99.7124)

Nlocal:    1.85 ave 21 max 0 min
Histogram: 33 2 3 0 0 0 0 0 0 2
Nghost:    0.475 ave 6 max 0 min
Histogram: 34 2 0 1 0 0 1 0 1 1
Neighs:    0 ave 0 max 0 min
Histogram: 40 0 0 0 0 0 0 0 0 0

Total # of neighbors = 0
Ave neighs/atom = 0
Neighbor list builds = 5879
Dangerous builds = 0
Setting up run at Fri Jan  6 03:30:41 2023

Memory usage per processor = 958.583 Mbytes
    Step    Atoms         KinEng            CPU 
23456720       74      1.1994714              0 
23580176       74      1.2845883      1246.3939 
Loop time of 1246.39 on 40 procs for 123456 steps with 74 atoms, finish time Fri Jan  6 03:51:28 2023


Pair  time (%) = 0.226955 (0.0182089)
Neigh time (%) = 1.14407 (0.0917906)
Comm  time (%) = 2.21383 (0.177619)
Outpt time (%) = 0.000552145 (4.42994e-05)
Other time (%) = 1242.81 (99.7123)

Nlocal:    1.85 ave 22 max 0 min
Histogram: 33 2 2 1 0 0 0 0 1 1
Nghost:    0.575 ave 7 max 0 min
Histogram: 33 3 1 0 0 0 0 1 1 1
Neighs:    0 ave 0 max 0 min
Histogram: 40 0 0 0 0 0 0 0 0 0

Total # of neighbors = 0
Ave neighs/atom = 0
Neighbor list builds = 6102
Dangerous builds = 0
Setting up run at Fri Jan  6 03:51:28 2023

Memory usage per processor = 958.583 Mbytes
    Step    Atoms         KinEng            CPU 
23580176       74      1.2845883              0 
23703632       73      1.2285948      1244.0607 
Loop time of 1244.06 on 40 procs for 123456 steps with 73 atoms, finish time Fri Jan  6 04:12:12 2023


Pair  time (%) = 0.225408 (0.0181187)
Neigh time (%) = 1.10222 (0.0885983)
Comm  time (%) = 2.19278 (0.17626)
Outpt time (%) = 0.0024402 (0.000196148)
Other time (%) = 1240.54 (99.7168)

Nlocal:    1.825 ave 24 max 0 min
Histogram: 33 2 3 0 0 0 0 1 0 1
Nghost:    0.475 ave 6 max 0 min
Histogram: 34 3 0 0 0 0 0 0 2 1
Neighs:    0 ave 0 max 0 min
Histogram: 40 0 0 0 0 0 0 0 0 0

Total # of neighbors = 0
Ave neighs/atom = 0
Neighbor list builds = 5915
Dangerous builds = 0
Setting up run at Fri Jan  6 04:12:12 2023

Memory usage per processor = 958.583 Mbytes
    Step    Atoms         KinEng            CPU 
23703632       73      1.2285948              0 
23827088       73       1.213705      1244.7527 
Loop time of 1244.75 on 40 procs for 123456 steps with 73 atoms, finish time Fri Jan  6 04:32:57 2023


Pair  time (%) = 0.225506 (0.0181166)
Neigh time (%) = 1.09463 (0.0879398)
Comm  time (%) = 2.01455 (0.161844)
Outpt time (%) = 0.00021007 (1.68765e-05)
Other time (%) = 1241.42 (99.7321)

Nlocal:    1.825 ave 23 max 0 min
Histogram: 32 4 1 1 0 0 0 1 0 1
Nghost:    0.475 ave 6 max 0 min
Histogram: 35 1 0 1 0 0 0 0 2 1
Neighs:    0.075 ave 1 max 0 min
Histogram: 37 0 0 0 0 0 0 0 0 3

Total # of neighbors = 3
Ave neighs/atom = 0.0410959
Neighbor list builds = 5878
Dangerous builds = 0
Setting up run at Fri Jan  6 04:32:57 2023

Memory usage per processor = 958.583 Mbytes
    Step    Atoms         KinEng            CPU 
23827088       73       1.213705              0 
23950544       73      1.1742983      1249.9947 
Loop time of 1249.99 on 40 procs for 123456 steps with 73 atoms, finish time Fri Jan  6 04:53:47 2023


Pair  time (%) = 0.225236 (0.018019)
Neigh time (%) = 1.09489 (0.0875918)
Comm  time (%) = 2.08638 (0.166911)
Outpt time (%) = 0.0210289 (0.00168232)
Other time (%) = 1246.57 (99.7258)

Nlocal:    1.825 ave 24 max 0 min
Histogram: 32 3 3 0 0 0 0 1 0 1
Nghost:    0.375 ave 6 max 0 min
Histogram: 36 1 0 0 0 0 2 0 0 1
Neighs:    0 ave 0 max 0 min
Histogram: 40 0 0 0 0 0 0 0 0 0

Total # of neighbors = 0
Ave neighs/atom = 0
Neighbor list builds = 5878
Dangerous builds = 0
Setting up run at Fri Jan  6 04:53:47 2023

Memory usage per processor = 958.583 Mbytes
    Step    Atoms         KinEng            CPU 
23950544       73      1.1742983              0 
24074000       71       1.139038      1251.3268 
Loop time of 1251.33 on 40 procs for 123456 steps with 71 atoms, finish time Fri Jan  6 05:14:38 2023


Pair  time (%) = 0.224617 (0.0179503)
Neigh time (%) = 1.20703 (0.09646)
Comm  time (%) = 2.27721 (0.181984)
Outpt time (%) = 0.000128115 (1.02384e-05)
Other time (%) = 1247.62 (99.7036)

Nlocal:    1.775 ave 24 max 0 min
Histogram: 32 4 1 1 0 0 0 1 0 1
Nghost:    0.525 ave 6 max 0 min
Histogram: 33 2 0 2 0 0 1 0 1 1
Neighs:    0 ave 0 max 0 min
Histogram: 40 0 0 0 0 0 0 0 0 0

Total # of neighbors = 0
Ave neighs/atom = 0
Neighbor list builds = 6496
Dangerous builds = 0
Setting up run at Fri Jan  6 05:14:38 2023

Memory usage per processor = 958.583 Mbytes
    Step    Atoms         KinEng            CPU 
24074000       71       1.139038              0 
24197456       70      1.3312389      1255.7333 
Loop time of 1255.73 on 40 procs for 123456 steps with 70 atoms, finish time Fri Jan  6 05:35:34 2023


Pair  time (%) = 0.224752 (0.0178981)
Neigh time (%) = 1.24617 (0.0992382)
Comm  time (%) = 2.2097 (0.175969)
Outpt time (%) = 0.000229122 (1.8246e-05)
Other time (%) = 1252.05 (99.7069)

Nlocal:    1.75 ave 25 max 0 min
Histogram: 33 3 1 1 0 0 1 0 0 1
Nghost:    0.575 ave 7 max 0 min
Histogram: 32 4 1 0 0 1 0 0 1 1
Neighs:    0 ave 0 max 0 min
Histogram: 40 0 0 0 0 0 0 0 0 0

Total # of neighbors = 0
Ave neighs/atom = 0
Neighbor list builds = 6706
Dangerous builds = 0
Setting up run at Fri Jan  6 05:35:34 2023

Memory usage per processor = 958.583 Mbytes
    Step    Atoms         KinEng            CPU 
24197456       70      1.3312389              0 
24320912       69      1.2811143      1245.2895 
Loop time of 1245.29 on 40 procs for 123456 steps with 69 atoms, finish time Fri Jan  6 05:56:19 2023


Pair  time (%) = 0.224447 (0.0180237)
Neigh time (%) = 1.09878 (0.0882353)
Comm  time (%) = 2.00066 (0.160658)
Outpt time (%) = 0.000181142 (1.45462e-05)
Other time (%) = 1241.97 (99.7331)

Nlocal:    1.725 ave 25 max 0 min
Histogram: 32 5 1 0 0 0 1 0 0 1
Nghost:    0.45 ave 6 max 0 min
Histogram: 35 2 0 0 0 0 1 0 0 2
Neighs:    0.025 ave 1 max 0 min
Histogram: 39 0 0 0 0 0 0 0 0 1

Total # of neighbors = 1
Ave neighs/atom = 0.0144928
Neighbor list builds = 5908
Dangerous builds = 0
Setting up run at Fri Jan  6 05:56:19 2023

Memory usage per processor = 958.583 Mbytes
    Step    Atoms         KinEng            CPU 
24320912       69      1.2811143              0 
24444368       69      1.2632767      1245.5829 
Loop time of 1245.58 on 40 procs for 123456 steps with 69 atoms, finish time Fri Jan  6 06:17:05 2023


Pair  time (%) = 0.225792 (0.0181274)
Neigh time (%) = 1.0937 (0.0878061)
Comm  time (%) = 2.23933 (0.179781)
Outpt time (%) = 0.000466168 (3.74256e-05)
Other time (%) = 1242.02 (99.7142)

Nlocal:    1.725 ave 20 max 0 min
Histogram: 31 4 0 3 0 0 0 0 0 2
Nghost:    0.425 ave 7 max 0 min
Histogram: 36 0 1 0 0 2 0 0 0 1
Neighs:    0 ave 0 max 0 min
Histogram: 40 0 0 0 0 0 0 0 0 0

Total # of neighbors = 0
Ave neighs/atom = 0
Neighbor list builds = 5878
Dangerous builds = 0
Setting up run at Fri Jan  6 06:17:05 2023

Memory usage per processor = 958.583 Mbytes
    Step    Atoms         KinEng            CPU 
24444368       69      1.2632767              0 
24567824       68      6.8366555       1246.153 
Loop time of 1246.15 on 40 procs for 123456 steps with 68 atoms, finish time Fri Jan  6 06:37:51 2023


Pair  time (%) = 0.225923 (0.0181297)
Neigh time (%) = 1.18675 (0.0952329)
Comm  time (%) = 2.2656 (0.181808)
Outpt time (%) = 0.00241926 (0.000194138)
Other time (%) = 1242.47 (99.7046)

Nlocal:    1.7 ave 21 max 0 min
Histogram: 33 3 1 1 0 0 0 0 1 1
Nghost:    0.575 ave 6 max 0 min
Histogram: 34 1 0 0 0 2 1 0 0 2
Neighs:    0 ave 0 max 0 min
Histogram: 40 0 0 0 0 0 0 0 0 0

Total # of neighbors = 0
Ave neighs/atom = 0
Neighbor list builds = 6411
Dangerous builds = 0
Setting up run at Fri Jan  6 06:37:51 2023

Memory usage per processor = 958.583 Mbytes
    Step    Atoms         KinEng            CPU 
24567824       68      6.8366555              0 
24691280       65      1.0780162      1245.5817 
Loop time of 1245.58 on 40 procs for 123456 steps with 65 atoms, finish time Fri Jan  6 06:58:37 2023


Pair  time (%) = 0.226413 (0.0181773)
Neigh time (%) = 1.21324 (0.0974032)
Comm  time (%) = 2.24934 (0.180586)
Outpt time (%) = 0.000235093 (1.88741e-05)
Other time (%) = 1241.89 (99.7038)

Nlocal:    1.625 ave 21 max 0 min
Histogram: 34 3 0 1 0 0 0 0 1 1
Nghost:    0.55 ave 7 max 0 min
Histogram: 32 3 2 0 0 2 0 0 0 1
Neighs:    0.025 ave 1 max 0 min
Histogram: 39 0 0 0 0 0 0 0 0 1

Total # of neighbors = 1
Ave neighs/atom = 0.0153846
Neighbor list builds = 6512
Dangerous builds = 0
Setting up run at Fri Jan  6 06:58:37 2023

Memory usage per processor = 958.583 Mbytes
    Step    Atoms         KinEng            CPU 
24691280       65      1.0780162              0 
24691358       65      1.0780665     0.75724256 
Loop time of 0.757257 on 40 procs for 78 steps with 65 atoms, finish time Fri Jan  6 06:58:38 2023


Pair  time (%) = 0.000142384 (0.0188026)
Neigh time (%) = 0.000572552 (0.0756087)
Comm  time (%) = 0.000882059 (0.116481)
Outpt time (%) = 0.000237019 (0.0312997)
Other time (%) = 0.755423 (99.7578)

Nlocal:    1.625 ave 21 max 0 min
Histogram: 34 3 0 1 0 0 0 0 1 1
Nghost:    0.525 ave 7 max 0 min
Histogram: 32 4 1 0 0 2 0 0 0 1
Neighs:    0.025 ave 1 max 0 min
Histogram: 39 0 0 0 0 0 0 0 0 1

Total # of neighbors = 1
Ave neighs/atom = 0.0153846
Neighbor list builds = 3
Dangerous builds = 0
