ITEM: TIMESTEP
12471379
ITEM: NUMBER OF ATOMS
282
ITEM: BOX BOUNDS ff ff ff
-0.15 0.15
-0.15 0.15
-0.15 0.15
ITEM: ATOMS id type x y z radius vx vy vz density 
23 1 -0.00205308 -0.0351117 -0.0686663 0.000291 -10.8822 -0.278577 0.325033 2650 
236 1 -0.00850779 -0.0533486 -0.0674111 0.001058 -10.6614 0.174666 1.34639 2650 
50 1 -0.00468808 -0.0313279 -0.0677845 0.001058 -10.123 -0.0782922 0.696726 2650 
108 1 -0.0174853 -0.0290331 -0.0656546 0.001058 -8.88416 -0.19623 2.38269 2650 
181 1 -0.0297291 -0.0367208 -0.0619437 0.000291 -10.1669 -0.359249 4.87982 2650 
138 1 -0.0299582 -0.0495547 -0.0610093 0.001058 -9.64669 0.0816992 4.73817 2650 
49 1 -0.0300797 -0.0466404 -0.0603106 0.00164 -9.40114 -0.133754 4.68205 2650 
140 1 -0.0318068 -0.0352171 -0.0600403 0.001058 -9.01616 0.000246112 4.78267 2650 
93 1 -0.0352383 -0.0494813 -0.0590045 0.000291 -9.42569 0.0672885 5.62869 2650 
172 1 -0.037779 -0.0487377 -0.0564944 0.001058 -8.97971 0.133814 6.00557 2650 
182 1 -0.0382649 -0.00781464 -0.0570742 0.000291 -6.04756 0.264879 4.10593 2650 
214 1 -0.0407788 -0.0551704 -0.0553017 0.000291 -8.87227 0.119512 6.54235 2650 
226 1 -0.0403643 -0.0270064 -0.0556006 0.000291 -7.08966 -0.142272 5.15228 2650 
179 1 -0.0425302 -0.0494643 -0.0529934 0.001058 -8.44354 -0.0432397 6.77761 2650 
8 1 -0.0472818 -0.0560285 -0.0501069 0.000105 -8.21195 0.556508 7.7475 2650 
247 1 -0.0454801 -0.0497087 -0.0515 0.000291 -8.18048 -0.0883429 7.22419 2650 
146 1 -0.0440773 -0.0501326 -0.051713 0.001058 -8.23911 -0.0515944 7.02326 2650 
122 1 -0.0439902 -0.0240859 -0.0517823 0.001058 -6.95158 -0.0379742 5.83929 2650 
251 1 -0.0480163 -0.0256446 -0.0480749 0.001058 -6.52058 0.0811935 6.50638 2650 
267 1 -0.0472376 -0.00970035 -0.0498919 0.000291 -3.97569 0.0819316 3.76915 2650 
59 1 -0.0572804 -0.042723 -0.0365395 0.001058 -5.265 0.126162 8.25382 2650 
30 1 -0.0579956 -0.032421 -0.0368375 0.000291 -5.4408 0.0778538 8.56384 2650 
259 1 -0.0566085 -0.0322077 -0.03758 0.001058 -5.53435 0.0294511 8.32943 2650 
21 1 -0.0591738 -0.0459243 -0.0349489 0.000291 -5.5445 0.157638 9.38709 2650 
225 1 -0.0600693 -0.0471995 -0.031807 0.001058 -5.13329 0.379405 9.68845 2650 
90 1 -0.0602746 -0.0519782 -0.0313958 0.001058 -4.91331 0.0339559 9.43241 2650 
43 1 -0.060595 -0.0415678 -0.0307742 0.001058 -4.87664 -0.122106 9.60127 2650 
152 1 -0.062144 -0.00529635 -0.0297401 0.000105 -3.48233 -0.345869 7.31146 2650 
118 1 -0.0647466 -0.0174224 -0.023062 0.000291 -2.71753 -0.150214 7.60044 2650 
254 1 -0.0665073 -0.0476806 -0.017333 0.000291 -2.45772 -0.766838 9.4981 2650 
53 1 -0.0673105 -0.0249071 -0.0137922 0.000291 -1.17121 -0.429602 5.57893 2650 
135 1 -0.00850291 -0.0009095 -0.0123975 0.000291 -0.0060505 -0.00140209 -0.0140303 2650 
149 1 -0.0679299 -0.0315231 -0.0103098 0.000291 -1.45947 0.0438949 9.59583 2650 
175 1 -0.013247 -0.00253049 -0.008751 0.000291 0 -0.011755 0 2650 
47 1 -0.0131553 -0.00199493 -0.00905204 0.000291 -0.00125586 -0.0105028 0.00427205 2650 
171 1 -0.0676705 -0.045772 -0.00615319 0.001058 -0.90657 -0.10736 9.93222 2650 
296 1 -0.0684264 -0.00894081 -0.00622235 0.000291 -0.49852 -0.0169647 5.27073 2650 
107 1 -0.0678248 -0.0348506 -0.00406152 0.001058 -0.609345 -0.142253 10.2088 2650 
276 1 -0.013674 -0.000986486 -0.004231 0.000291 0 -0.011755 0 2650 
240 1 -0.010392 -0.00192849 -0.005262 0.000291 0 -0.011755 0 2650 
151 1 -0.0686462 -0.060141 -0.00291088 0.000291 -0.471349 -0.183953 11.1121 2650 
34 1 -0.0678632 -0.031565 -0.00338371 0.001058 -0.502305 0.0913416 10.0838 2650 
46 1 -0.0686174 -0.00820155 -0.00350848 0.000291 -0.340104 0.637962 6.56427 2650 
13 1 -0.014201 -0.00188649 -0.003882 0.000291 0 -0.011755 0 2650 
104 1 -0.014089 -0.00120449 -0.003012 0.000105 0 -0.011755 0 2650 
189 1 -0.0686978 -0.0278846 0.000822077 0.000291 0.0701459 -0.429043 8.74305 2650 
210 1 -0.067898 -0.0268549 0.00214883 0.001058 0.279238 -0.145769 8.59241 2650 
120 1 -0.016055 -0.00263449 0.000189 0.000105 0 -0.011755 0 2650 
164 1 -0.003894 -0.00226149 0.005467 0.001058 0 -0.011755 0 2650 
58 1 -0.00697675 -0.00229377 0.00612166 0.001058 0.00939797 -0.00814862 -0.00719036 2650 
300 1 -0.0127723 -0.000427618 0.00932471 0.001058 -0.00246489 -0.00748443 -0.0047401 2650 
248 1 -0.0676421 -0.0395291 0.0120939 0.000291 1.17694 0.0112575 6.50133 2650 
173 1 -0.0531569 -0.00493372 0.0435311 0.000291 3.77701 -0.0977791 4.61917 2650 
150 1 -0.051348 -0.0281133 0.0456536 0.000291 5.83024 0.119574 6.53548 2650 
303 1 -0.0523392 -0.0142023 0.0445143 0.000291 3.87901 -0.465674 4.5646 2650 
169 1 -0.0474808 -0.0603578 0.0478001 0.00164 7.53229 0.102663 7.48219 2650 
246 1 -0.0480569 -0.0549851 0.0480352 0.001058 7.31621 0.10661 7.31921 2650 
125 1 -0.049253 -0.0214388 0.0479057 0.000291 5.90213 0.0574536 6.06285 2650 
25 1 -0.0452239 -0.0593154 0.0499397 0.00164 7.90056 -0.0219229 7.15443 2650 
103 1 -0.0434163 -0.0488651 0.0532575 0.000291 8.08559 -0.791556 6.58808 2650 
102 1 -0.0440514 -0.0200657 0.0527293 0.000291 6.56458 0.538509 5.49694 2650 
132 1 -0.0420301 -0.0164139 0.0533934 0.001058 6.3975 -0.0634462 4.97916 2650 
117 1 -0.0438298 -0.0127743 0.0529169 0.000291 4.51871 0.0875588 3.74338 2650 
257 1 -0.0360521 -0.0501026 0.0576108 0.001058 8.38471 -0.110811 5.27527 2650 
18 1 -0.0379696 -0.0162969 0.0563663 0.001058 6.73711 -0.0618996 4.51829 2650 
178 1 -0.0301162 -0.0582331 0.0609044 0.001058 9.3169 0.0947819 4.60545 2650 
133 1 -0.0315078 -0.0172327 0.0610822 0.000291 6.57149 -0.0129438 3.37762 2650 
81 1 -0.0224139 -0.0392043 0.0635406 0.00164 7.65818 0.0182482 2.6682 2650 
285 1 -0.0249788 -0.0128502 0.0632152 0.001058 3.2086 -0.382688 1.24605 2650 
137 1 -0.016435 -0.0611601 0.0653376 0.00164 10.2653 6.02127e-06 2.58217 2650 
162 1 -0.0106904 -0.0297426 0.0671 0.001058 9.00496 0.0205303 1.43917 2650 
280 1 -0.00210398 -0.0223058 0.0678822 0.001058 8.46482 -0.114913 0.217867 2650 
205 1 -0.00474111 0.000926722 -0.0146919 0.000291 0.00945843 0.00374827 0.0244543 2650 
67 1 -0.00644011 0.0125921 -0.0144503 0.001058 -0.020884 0.0142907 -0.00966941 2650 
157 1 -0.00472884 0.0461565 -0.0141284 0.000291 0.0079085 0.0606548 0.000918149 2650 
75 1 -0.00263594 0.0495541 -0.0149388 0.001058 0.0206685 0.0556886 -0.0248334 2650 
130 1 -0.00267545 0.000932322 -0.0139393 0.001058 -0.00730232 0.00347522 0.00594057 2650 
33 1 -0.000872335 0.018012 -0.0139288 0.00164 0.00603998 0.0215627 0.00352792 2650 
293 1 -0.0080115 0.0328853 -0.013761 0.001058 -0.0884763 0.0379903 0.0661001 2650 
94 1 -0.0115423 0.00191396 -0.0118413 0.000291 8.5498e-05 -0.0117385 8.5498e-05 2650 
74 1 -0.0113589 0.00281656 -0.00893457 0.001058 0.00156258 -0.00569596 -0.00749774 2650 
38 1 -0.00292183 0.0136495 -0.00958714 0.000291 0.0290333 0.00993382 0.0254358 2650 
234 1 -0.012486 0.00867999 -0.00736329 0.000291 -0.00131366 0.00431637 0.0126772 2650 
263 1 -0.00999737 0.0183528 -0.00772714 0.000291 0.0807781 0.0834583 0.0461979 2650 
159 1 -0.012707 0.00200751 -0.00588 0.000291 0 -0.011755 0 2650 
10 1 -0.0143753 0.00610087 -0.00481855 0.001058 0.00366734 -0.00257496 -0.00408264 2650 
80 1 -0.0157326 0.00650181 -0.00453859 0.000105 -0.00457687 0.0251897 -0.0282816 2650 
97 1 -0.0131021 0.00345619 -0.00271903 0.00164 0.00874168 0.0124725 -0.0221748 2650 
114 1 -0.0108483 0.00493668 -0.00326248 0.001058 0.0187062 0.0117361 -0.00752779 2650 
7 1 -0.00511695 0.0242407 -0.00319919 0.000291 0.00378858 0.0136367 -0.000251809 2650 
147 1 -0.0153728 0.0302004 -0.00354655 0.001058 -0.0140684 0.029094 0.0571716 2650 
61 1 -0.016439 0.00172551 -0.001038 0.000291 0 -0.011755 0 2650 
129 1 -0.00330874 0.00778134 -0.000974636 0.00164 0.00825627 0.00147102 -0.0030875 2650 
187 1 -0.0157111 0.0190067 -0.000130812 0.001058 -0.000280938 0.0161775 0.0137442 2650 
65 1 -0.0124576 0.0217078 -0.0013181 0.00164 -0.00447342 0.0138222 0.00034274 2650 
268 1 -0.011054 0.000587514 0.000789 0.000291 0 -0.011755 0 2650 
71 1 -0.00107549 0.00431964 0.0012569 0.000291 0.000861808 -0.00718564 -0.0173142 2650 
209 1 -0.0152173 0.00826328 0.00183243 0.001058 -0.0032116 0.00264672 0.00158384 2650 
115 1 -0.0156868 0.0118485 0.000412563 0.001058 -9.57324e-05 0.0046985 0.0169075 2650 
211 1 -0.0127954 0.00518188 0.00228081 0.001058 0.000982608 0.00314487 0.00709992 2650 
256 1 -0.0163335 0.0112188 0.00262518 0.000291 0.00184238 0.020694 0.00254716 2650 
266 1 -0.0155628 0.0100403 0.00302164 0.001058 0.000769948 0.0100988 -0.00524247 2650 
220 1 -0.0151328 0.0214641 0.00222833 0.000291 -0.00743392 0.0110018 0.0132466 2650 
106 1 -0.00593235 0.0204224 0.00399258 0.001058 0.0119634 0.0223893 -0.0027555 2650 
237 1 -0.0158417 0.0696564 0.00235611 0.001058 -0.00654936 0.22686 0.0745762 2650 
291 1 -0.008194 0.00211251 0.004767 0.000291 0 -0.011755 0 2650 
186 1 -0.00619889 0.000160664 0.00657718 0.001058 -4.15282e-05 -0.0115536 6.1062e-05 2650 
144 1 -0.0083182 0.016205 0.00654287 0.000105 0.00807853 0.0136784 0.0281765 2650 
41 1 -0.00204801 0.0163012 0.00623966 0.00164 0.0102042 0.00860529 0.0210319 2650 
242 1 -0.00496808 0.0227204 0.00770928 0.000291 0.0116924 0.0265357 0.00697501 2650 
124 1 -0.0134226 0.0290817 0.0068924 0.001058 0.00450723 0.0342902 0.00378394 2650 
28 1 -0.0132123 0.0358881 0.00743735 0.001058 0.00734507 0.0503926 0.00344867 2650 
304 1 -0.012709 0.00139351 0.009818 0.000291 0 -0.011755 0 2650 
68 1 -0.00235482 0.00810368 0.0093872 0.001058 0.00272783 -0.00342387 -0.00169301 2650 
217 1 -0.00959239 0.0333382 0.00847937 0.001058 0.000747792 0.0265619 -0.00553463 2650 
55 1 -0.01171 0.00186151 0.01034 0.000291 0 -0.011755 0 2650 
4 1 -0.0107616 0.00822151 0.0115142 0.001058 0.00569435 0.00097307 0.00498712 2650 
250 1 -0.00939341 0.00115997 0.0124441 0.001058 0.0256429 -0.00394298 0.00852814 2650 
170 1 -0.0068456 0.00124196 0.0123984 0.001058 0.00813908 -0.00598064 0.0087017 2650 
299 1 -0.00891656 0.00322457 0.0121121 0.001058 0.00581403 -0.00322581 0.00124072 2650 
224 1 -0.00810566 0.0137551 0.013063 0.001058 -0.00111942 0.00491513 -0.00282362 2650 
273 1 -0.00329463 0.0344801 0.0137874 0.001058 -0.00419695 0.043991 0.0228631 2650 
110 1 -0.00053745 0.000642575 0.0140901 0.000291 -0.0169259 -0.0135844 0.0488079 2650 
154 1 -0.00552763 0.0875692 -0.00866551 0.001058 -0.025218 0.0914679 0.0181079 2650 
229 1 0.0220616 -0.0493047 -0.0642906 0.001058 -10.2975 0.0116958 -3.53275 2650 
188 1 0.0267008 -0.0616667 -0.0624802 0.001058 -9.81406 0.00206139 -4.19403 2650 
96 1 0.0265516 -0.00896521 -0.0635851 0.000105 -7.79434 0.0450202 -3.26922 2650 
6 1 0.0269527 -0.00889007 -0.0632136 0.000291 -7.86091 -0.278939 -3.34583 2650 
20 1 0.0301226 -0.0462687 -0.060932 0.001058 -9.53872 0.0247529 -4.71514 2650 
218 1 0.0333986 -0.0404261 -0.0591865 0.001058 -9.47781 -0.101948 -5.34911 2650 
206 1 0.0333064 -0.0384693 -0.0601022 0.000291 -9.18056 1.28711 -5.0892 2650 
295 1 0.0339024 -0.0265645 -0.059759 0.000291 -8.16851 -1.29284 -4.63024 2650 
197 1 0.0337803 -0.00476241 -0.0598297 0.000291 -7.47 0.00722563 -4.21772 2650 
64 1 0.0368245 -0.00390654 -0.0582246 0.000105 -6.66869 -0.285939 -4.22757 2650 
42 1 0.0354783 -0.0513655 -0.0579661 0.001058 -8.86502 0.0579988 -5.42645 2650 
148 1 0.0357386 -0.0485137 -0.0578123 0.001058 -9.06472 0.0693336 -5.60387 2650 
185 1 0.0354748 -0.0456394 -0.0572966 0.00164 -8.98961 0.0592843 -5.56737 2650 
302 1 0.0383657 -0.0255087 -0.0569988 0.000291 -6.66806 -0.159825 -4.48022 2650 
44 1 0.0367471 -0.0163043 -0.0571713 0.001058 -7.72589 -0.00515856 -5.00364 2650 
235 1 0.0393323 -0.0129708 -0.0563507 0.000291 -6.72496 0.226462 -4.68197 2650 
16 1 0.0374383 -0.00321109 -0.0578311 0.000105 -6.92307 -0.0896007 -4.49254 2650 
193 1 0.0375419 -0.0496473 -0.0559612 0.00164 -8.79833 -0.00269258 -5.90237 2650 
167 1 0.0459732 -0.0147622 -0.0510605 0.000291 -6.99993 0.245628 -6.305 2650 
184 1 0.0475511 -0.0160067 -0.0498518 0.000105 -5.30514 -0.428713 -5.07761 2650 
142 1 0.0112632 -0.0122643 -0.0496154 0.000291 1.70724 -0.745386 -7.36948 2650 
119 1 0.0492778 -0.0509071 -0.0478626 0.000291 -7.49807 -0.68367 -7.71851 2650 
192 1 0.0497729 -0.000104995 -0.0476318 0.000105 -5.89269 -0.000146184 -6.17533 2650 
223 1 0.0499969 -0.028678 -0.0460089 0.001058 -5.86848 0.177837 -6.42593 2650 
255 1 0.0529832 -0.0178681 -0.0437392 0.000291 -5.57201 0.186177 -6.7005 2650 
213 1 0.0539511 -0.0181776 -0.0425294 0.000291 -5.50396 0.725148 -6.96075 2650 
261 1 0.053088 -0.00845727 -0.043559 0.000291 -5.3948 -0.0275995 -6.68306 2650 
2 1 0.0562681 -0.0328365 -0.0380869 0.001058 -5.58485 0.030811 -8.252 2650 
98 1 0.0575456 -0.014261 -0.0361486 0.001058 -4.49656 -0.116848 -7.20543 2650 
208 1 0.0587496 -0.0124578 -0.0341681 0.001058 -4.10436 -0.30844 -7.10779 2650 
174 1 0.0604161 -0.040578 -0.0327477 0.000291 -4.45015 -0.367899 -8.20126 2650 
86 1 0.0600132 -0.015031 -0.0334958 0.000291 -4.05465 0.0150571 -7.29088 2650 
168 1 0.0604299 -0.0102821 -0.0331159 0.000105 -3.06233 -0.00969663 -5.41083 2650 
270 1 0.0610157 -0.0133049 -0.0316384 0.000291 -3.77056 0.19932 -7.30598 2650 
241 1 0.0629404 -0.0308564 -0.027548 0.000291 -2.91566 -0.464647 -6.76579 2650 
26 1 0.0658426 -0.0408707 -0.0168325 0.001058 -2.6709 0.275227 -10.4231 2650 
253 1 0.0643416 -0.00842585 -0.0139098 0.000291 9.78481 -0.397475 -2.13652 2650 
252 1 0.00245 -0.000203486 -0.01336 0.001058 0 -0.011755 0 2650 
36 1 0.0669395 -0.0413092 -0.0117108 0.001058 -1.79397 0.127955 -10.2507 2650 
275 1 0.012705 -0.000841486 -0.010476 0.000291 0 -0.011755 0 2650 
277 1 0.0679833 -0.0223446 -0.00998633 0.000291 -1.38476 0.303403 -9.39609 2650 
196 1 0.0676233 -0.0395976 -0.0066384 0.001058 -1.01115 0.345045 -10.2962 2650 
60 1 0.007579 -0.00227249 -0.006312 0.001058 0 -0.011755 0 2650 
45 1 0.010575 -0.00235249 -0.007722 0.000291 0 -0.011755 0 2650 
221 1 0.0685283 -0.0197415 -0.00497487 0.000291 -0.642178 0.0592609 -8.74565 2650 
227 1 0.00944 -0.00167449 -0.002109 0.000291 0 -0.011755 0 2650 
219 1 0.0685828 -0.000290962 -0.00415174 0.000291 -0.489005 -1.08702e-05 -8.2282 2650 
177 1 3.88818e-05 -0.00290153 -0.000418168 0.00164 -0.00966503 -0.00602483 0.00423439 2650 
35 1 0.00343334 -0.00314446 0.00107586 0.001058 0.00654177 -0.0105187 -0.00962265 2650 
287 1 0.0129148 -0.00282581 0.00107515 0.001058 0.00844674 -0.013594 -0.029996 2650 
202 1 0.00567559 -0.000869117 0.0008973 0.001058 0.0093109 -0.00893593 -0.0136131 2650 
48 1 0.009671 -0.00108049 0.000233 0.000105 0 -0.011755 0 2650 
126 1 0.0686276 -0.0487912 0.00331452 0.000291 0.32159 -0.161081 -6.79499 2650 
99 1 0.00405681 -0.00125159 0.00376824 0.001058 0.0243572 -0.0114204 0.00238608 2650 
294 1 0.006997 -0.00136649 0.003581 0.001058 0 -0.011755 0 2650 
228 1 0.0684795 -0.0156538 0.00561799 0.000291 0.598046 -0.329972 -7.06551 2650 
212 1 0.001087 -0.000856486 0.005915 0.000291 0 -0.011755 0 2650 
24 1 0.005464 -0.00128449 0.005551 0.000105 0 -0.011755 0 2650 
51 1 0.009662 -0.000211486 0.004577 0.001058 0 -0.011755 0 2650 
274 1 0.0683249 -0.0566709 0.00724638 0.000291 0.573582 -1.3664 -5.37129 2650 
231 1 0.00734754 -0.00226022 0.00704169 0.001058 0.00167534 -0.0128877 -0.000760445 2650 
100 1 0.0109609 -0.00298011 0.00707111 0.001058 0.00912399 -0.0117578 -0.00681185 2650 
145 1 0.0050775 -0.00037999 0.00728573 0.00164 0.00142123 -0.0121074 -0.00172265 2650 
131 1 0.0673594 -0.0450673 0.00898034 0.001058 1.44476 -0.307788 -10.7942 2650 
14 1 0.0682484 -0.0239503 0.0079409 0.000291 1.26668 -0.499786 -10.8915 2650 
141 1 0.067871 -0.031425 0.0107013 0.000291 1.62886 -0.0415717 -10.2497 2650 
3 1 0.00848002 -0.00272271 0.0127309 0.001058 -0.00211489 -0.0052299 0.000123346 2650 
200 1 0.0643395 -0.000261662 0.0246317 0.000105 2.73315 -0.0926374 -7.09601 2650 
243 1 0.0623865 -0.0476941 0.0269853 0.001058 4.22414 -0.00224782 -9.76289 2650 
158 1 0.0636557 -0.0197924 0.0259101 0.000291 2.82159 0.176387 -6.94781 2650 
239 1 0.0617583 -0.0491478 0.0283886 0.001058 4.46321 -0.0540298 -9.70939 2650 
230 1 0.060679 -0.0506976 0.0306189 0.001058 4.91073 0.0368178 -9.72813 2650 
121 1 0.0603909 -0.046341 0.0299214 0.00164 4.67291 -0.0464967 -9.43461 2650 
288 1 0.061425 -0.0447198 0.0308333 0.000291 4.91171 0.178614 -9.78422 2650 
89 1 0.0559872 -0.0611601 0.0374778 0.00164 5.89317 -1.18458e-07 -8.80368 2650 
281 1 0.0580806 -0.0580462 0.0367012 0.000291 5.77308 0.0593561 -9.13556 2650 
73 1 0.0552925 -0.0539168 0.0384946 0.00164 6.08635 -0.0127866 -8.74369 2650 
207 1 0.0560817 -0.00361547 0.0396917 0.000291 3.85861 -0.289659 -5.4477 2650 
191 1 0.0557155 -0.0481605 0.0402068 0.000291 6.29553 -0.272567 -8.72472 2650 
88 1 0.0552135 -0.0117264 0.0412171 0.000105 4.47199 -0.692281 -6.00454 2650 
29 1 0.0542663 -0.0189569 0.0421494 0.000291 5.6875 0.0135677 -7.33161 2650 
282 1 0.0474898 -0.0193433 0.0496166 0.000291 6.70902 -0.0819261 -6.48409 2650 
165 1 0.0385638 -0.0318952 0.0568658 0.000291 7.69149 0.00791305 -5.20722 2650 
269 1 0.0379615 -0.00840174 0.0572637 0.000291 3.69779 0.333319 -2.392 2650 
290 1 0.0356453 -0.0462593 0.0587632 0.000291 9.67208 0.266015 -5.86522 2650 
22 1 0.0329137 -0.0179125 0.0603343 0.000291 6.95379 0.719899 -3.75965 2650 
15 1 0.0329305 -0.0190178 0.0603237 0.000291 7.62114 -0.017409 -4.14091 2650 
83 1 0.02482 -0.0424177 0.0632729 0.001058 10.1282 -0.0823658 -3.97853 2650 
272 1 0.0256274 -0.0268168 0.0629249 0.001058 8.44088 -0.517974 -3.44603 2650 
85 1 0.0295798 -0.0219451 0.0620255 0.000291 6.15084 0.0514149 -2.90848 2650 
40 1 0.0282364 -0.0140654 0.0628689 0.000105 6.97639 0.113033 -3.11228 2650 
215 1 0.0188682 -0.0493641 0.0652962 0.001058 10.2632 -0.0348957 -2.96597 2650 
201 1 0.0161976 -0.0299148 0.0653957 0.00164 8.56647 0.0567139 -2.12987 2650 
289 1 0.0247528 -0.0184971 0.0641177 0.000291 8.5681 0.409258 -3.30312 2650 
264 1 0.0147313 -0.0495487 0.0663485 0.001058 10.3828 0.0543357 -2.30542 2650 
109 1 0.0165399 -0.0504033 0.0667047 0.000291 10.6128 -0.275134 -2.63102 2650 
84 1 0.00601968 -0.049344 0.067682 0.001058 10.2643 -0.137142 -0.912701 2650 
82 1 0.00895342 -0.0315284 0.0673546 0.001058 9.02076 -0.0532685 -1.21865 2650 
76 1 0.00374499 -0.0209925 0.0678408 0.001058 8.49561 -0.219256 -0.516652 2650 
204 1 0.0101857 -0.0187623 0.0671873 0.001058 8.57042 -0.207697 -1.32444 2650 
305 1 0.016078 -0.00561706 0.0669932 0.000105 8.66156 0.532949 -2.09078 2650 
39 1 0.00136076 -0.0316134 0.0686955 0.000291 10.6525 -0.128922 -0.211329 2650 
37 1 0.006156 0.00142551 -0.015157 0.000291 0 -0.011755 0 2650 
244 1 0.00357304 0.00476258 -0.0153191 0.001058 -0.0978184 0.0259238 -0.0262948 2650 
127 1 0.00717238 0.0555995 -0.0147171 0.000291 0.0331404 0.0647284 -0.0037516 2650 
78 1 0.001258 0.00141151 -0.012517 0.000291 0 -0.011755 0 2650 
134 1 0.00336471 0.00513548 -0.0108997 0.000291 -0.0128132 0.00355392 -0.00692922 2650 
232 1 0.0109066 0.0185764 -0.0101484 0.001058 -0.0167248 0.0324446 -0.0332171 2650 
87 1 0.00616303 0.00352734 -0.00912931 0.000291 -0.00318762 -0.017547 -0.0237996 2650 
260 1 0.00874702 0.00430519 -0.00809809 0.000291 -0.00392275 0.00411325 -0.00447499 2650 
19 1 0.0141663 0.00846637 -0.00660247 0.001058 -0.00189711 0.0050805 -0.00113271 2650 
77 1 0.00581953 0.0111173 -0.00600874 0.000291 0.0279429 0.00178097 -0.016803 2650 
284 1 0.0140002 0.010131 -0.00734515 0.000291 -0.00371053 0.00586111 -0.00129449 2650 
301 1 0.00663 0.0317795 -0.00781541 0.001058 0.00272587 0.0220862 -0.0290146 2650 
278 1 7.4e-05 0.000238514 -0.004448 0.001058 0 -0.011755 0 2650 
279 1 0.0077784 0.00661281 -0.00410625 0.001058 0.00690887 -0.00122776 0.0071413 2650 
203 1 0.00591745 0.00869832 -0.00468087 0.001058 0.0105265 0.0334803 0.00411967 2650 
286 1 0.0148013 0.0133573 -0.00546718 0.001058 -0.0100351 0.050326 -0.0237317 2650 
113 1 0.0117537 0.00216556 -0.00207954 0.00164 -0.0251958 0.00978061 -0.000134024 2650 
161 1 0.0137529 0.00506268 -0.00332282 0.00164 0.000907452 0.00399164 0.00334652 2650 
92 1 0.0110992 0.00638498 -0.00283123 0.001058 0.00298746 0.00292354 0.00546929 2650 
123 1 0.0144861 0.0176201 -0.00251464 0.001058 0.0119273 0.0407543 -0.0104321 2650 
190 1 0.005899 0.00102751 -0.000534 0.000291 0 -0.011755 0 2650 
199 1 0.0157707 0.00457502 -0.00199917 0.000291 -0.00149126 0.000541054 0.0056379 2650 
153 1 0.00437699 0.00621134 -0.00198673 0.00164 0.00905173 -0.00370467 -0.0193596 2650 
194 1 0.015664 0.0160726 -0.00159538 0.001058 -0.00717738 0.0355954 0.00284246 2650 
180 1 0.0158903 0.0487947 -0.000273481 0.001058 0.00338461 0.063027 0.0562761 2650 
245 1 0.00261612 0.0688685 -0.00114301 0.001058 0.013355 0.0538623 -0.0223836 2650 
128 1 0.00361 0.000626514 0.000511 0.000105 0 -0.011755 0 2650 
176 1 0.00542931 0.000118477 0.00021888 0.000105 0.0200199 0.000256501 -0.0124767 2650 
101 1 0.00673773 0.001164 0.000819983 0.000291 0.0107852 -0.0015929 -0.0095042 2650 
271 1 0.0118653 0.000497322 0.000864699 0.001058 0.0150184 -0.010407 0.010297 2650 
1 1 0.0141317 0.00406484 0.00101755 0.00164 0.00550181 0.00569205 -0.0118839 2650 
9 1 0.0138508 0.0130651 0.00135142 0.00164 -0.00067168 0.0470366 0.00650688 2650 
105 1 0.00842613 0.0125593 0.00234411 0.00164 0.00091231 0.0106728 0.0284417 2650 
258 1 0.0151312 0.0153523 0.00217411 0.001058 0.0173177 0.0493518 -0.00598843 2650 
139 1 0.0135545 0.0210547 0.00290145 0.001058 0.0127696 0.00849352 0.0230521 2650 
249 1 0.000850185 0.0256898 0.00370976 0.000291 0.00987628 0.0185258 -0.0129358 2650 
52 1 0.00238668 0.031598 0.00260786 0.001058 0.0258261 0.0380708 0.00407144 2650 
292 1 0.00969357 0.0318839 0.00330478 0.001058 -0.0104367 0.0376087 -0.0291473 2650 
195 1 0.0150021 0.00040152 0.00484977 0.001058 0.00741724 -0.000789799 -0.0304536 2650 
79 1 0.014214 0.00162851 0.005058 0.000291 0 -0.011755 0 2650 
222 1 0.009219 0.000987514 0.006833 0.001058 0 -0.011755 0 2650 
112 1 0.013668 0.00195151 0.007002 0.000105 0 -0.011755 0 2650 
156 1 0.00792034 0.0117681 0.00742857 0.001058 0.00957299 -0.000303602 -0.00985815 2650 
57 1 0.00611438 0.0238728 0.00709241 0.00164 -0.000919831 0.00616449 -0.024056 2650 
54 1 0.0145063 0.032684 0.00780333 0.000291 0.0125428 0.00255638 -0.0492536 2650 
116 1 0.00848274 0.0352264 0.00711049 0.001058 -0.0278213 0.0454338 0.0115295 2650 
298 1 0.0110523 0.00500743 0.0112769 0.000105 0.00377194 -0.00442838 -0.00799766 2650 
70 1 0.00275988 0.0230318 0.0112003 0.000291 0.0174831 0.0757361 0.0937803 2650 
238 1 0.00381743 0.0329892 0.0111493 0.001058 0.0207771 0.0325148 -0.00733364 2650 
265 1 0.00631541 0.00907024 0.0131381 0.001058 0.011667 0.00657701 -0.00499144 2650 
66 1 0.00927777 0.00836873 0.0123545 0.001058 0.00846641 -0.000759158 0.00162513 2650 
95 1 0.00668334 0.00155567 0.0145823 0.000291 -0.000366951 -0.00495937 0.00220646 2650 
198 1 0.00757078 0.0130446 0.0147065 0.000291 -0.0744716 1.66389e-05 0.0397786 2650 
17 1 0.000363949 0.0328194 0.0152916 0.00164 0.0436007 0.0417277 -0.00154642 2650 
155 1 0.0125618 0.109377 -0.0106654 0.001058 0.04057 0.188533 0.00265111 2650 
136 1 0.0140104 0.11239 0.00643377 0.000105 0.0375902 0.10168 0.0199891 2650 
