ITEM: TIMESTEP
24201789
ITEM: NUMBER OF ATOMS
258
ITEM: BOX BOUNDS ff ff ff
-0.15 0.15
-0.15 0.15
-0.15 0.15
ITEM: ATOMS id type x y z radius vx vy vz density 
126 1 -0.00532339 -0.0294779 -0.068502 0.000291 -10.2467 0.152525 0.795654 2650 
182 1 -0.00494646 -0.0219439 -0.0684629 0.000291 -9.4708 -0.0651527 0.694318 2650 
302 1 -0.0156621 -0.045045 -0.0669185 0.000291 -10.939 -0.261972 2.55726 2650 
133 1 -0.0134047 -0.0271287 -0.067383 0.000291 -10.3506 0.123456 2.05946 2650 
37 1 -0.0140049 -0.0247052 -0.0672666 0.000291 -10.4654 0.362126 2.17725 2650 
100 1 -0.0163819 -0.0194571 -0.0659567 0.001058 -10.3261 -0.0137516 2.56534 2650 
98 1 -0.0132347 -0.0185547 -0.0666561 0.001058 -10.5721 0.0081865 2.1002 2650 
104 1 -0.0197985 -0.0146137 -0.0660092 0.000105 -10.5322 0.119691 3.15855 2650 
190 1 -0.0148697 -0.0143402 -0.0670843 0.000291 -8.95677 -0.18146 2.00401 2650 
107 1 -0.0206915 -0.0492766 -0.0647433 0.001058 -10.1646 -0.00275179 3.2485 2650 
39 1 -0.0217667 -0.0390275 -0.065178 0.000291 -10.0396 -0.190049 3.35157 2650 
16 1 -0.024682 -0.0109135 -0.06434 0.000105 -9.03737 0.0497633 3.46811 2650 
175 1 -0.0246518 -0.0113587 -0.0641534 0.000291 -8.80966 -0.0918679 3.38698 2650 
296 1 -0.0270899 -0.00974409 -0.0631589 0.000291 -8.70554 -0.0137737 3.73149 2650 
227 1 -0.0320141 -0.0463745 -0.060819 0.000291 -9.36747 -0.0843512 4.92932 2650 
240 1 -0.0338167 -0.0301058 -0.0598107 0.000291 -9.41608 0.30588 5.32727 2650 
94 1 -0.0309113 -0.0159027 -0.0613892 0.000291 -9.80256 -0.00940479 4.937 2650 
64 1 -0.0312515 -0.00651814 -0.0614017 0.000105 -9.25408 0.48942 4.71227 2650 
177 1 -0.033759 -0.0179257 -0.0583277 0.00164 -9.16606 -0.00195055 5.30514 2650 
102 1 -0.0353993 -0.0167278 -0.0589109 0.000291 -9.22121 -0.012217 5.52351 2650 
252 1 -0.0357257 -0.0159725 -0.0578191 0.001058 -9.0505 0.00433817 5.59315 2650 
45 1 -0.0367422 -0.0138941 -0.0580803 0.000291 -8.43643 0.148104 5.32695 2650 
276 1 -0.0411462 -0.0315834 -0.0550267 0.000291 -8.69365 -0.0454936 6.50018 2650 
6 1 -0.0442641 -0.0191052 -0.0525518 0.000291 -7.6552 0.0697925 6.44515 2650 
167 1 -0.0451062 -0.0142667 -0.0518296 0.000291 -8.24293 0.254618 7.1736 2650 
235 1 -0.0437214 -0.0131271 -0.0530057 0.000291 -8.3629 0.284185 6.8992 2650 
210 1 -0.0455221 -0.0340376 -0.0504399 0.001058 -7.94357 0.0138168 7.16935 2650 
241 1 -0.0488403 -0.0377038 -0.0483283 0.000291 -7.60537 -0.228149 7.68615 2650 
251 1 -0.0480025 -0.030875 -0.0482825 0.001058 -7.58419 -2.12562e-08 7.54021 2650 
253 1 -0.0489692 -0.0216396 -0.0481966 0.000291 -7.39922 -0.00100318 7.51671 2650 
206 1 -0.0503827 -0.062509 -0.0467183 0.000291 -7.33847 1.86286e-09 7.91407 2650 
169 1 -0.0490808 -0.0611601 -0.0461558 0.00164 -7.25008 4.57202e-07 7.70953 2650 
246 1 -0.0495967 -0.0585276 -0.0464439 0.001058 -7.29556 -1.66622e-05 7.79082 2650 
145 1 -0.0489113 -0.0392923 -0.0463327 0.00164 -7.27608 -0.00201321 7.6811 2650 
118 1 -0.049635 -0.0208483 -0.0475093 0.000291 -7.33069 0.140155 7.65867 2650 
25 1 -0.0511084 -0.0588111 -0.0438974 0.00164 -6.89542 -5.7853e-05 8.02813 2650 
178 1 -0.0525935 -0.0567366 -0.0430201 0.001058 -6.75761 -4.15854e-05 8.26139 2650 
207 1 -0.0538671 -0.0124239 -0.0426596 0.000291 -6.68089 -0.00579904 8.43634 2650 
275 1 -0.0554375 -0.0187246 -0.040606 0.000291 -6.4048 -0.194463 8.74497 2650 
87 1 -0.0552462 -0.0173659 -0.0408664 0.000291 -6.34963 -0.0922935 8.57951 2650 
255 1 -0.0548596 -0.0144361 -0.0413815 0.000291 -5.87894 0.0502457 7.80211 2650 
103 1 -0.0569374 -0.0505531 -0.0384799 0.000291 -6.01975 0.258036 8.90591 2650 
231 1 -0.0594226 -0.0447453 -0.0329974 0.001058 -5.19394 -0.00534361 9.35382 2650 
303 1 -0.0612433 -0.0211143 -0.0311762 0.000291 -4.69838 0.147233 9.23359 2650 
269 1 -0.062772 -0.0146676 -0.0280009 0.000291 -4.08769 0.286464 9.17187 2650 
291 1 -0.0633369 -0.0500869 -0.0266863 0.000291 -4.26882 0.0355507 10.1296 2650 
168 1 -0.064567 -0.0127369 -0.0240965 0.000105 -3.62896 0.35766 9.72349 2650 
268 1 -0.0654838 -0.0157797 -0.0208806 0.000291 -3.24061 0.467023 10.1657 2650 
47 1 -0.0654133 -0.0165843 -0.0210972 0.000291 -2.9004 -0.172213 9.00601 2650 
61 1 -0.0658278 -0.016075 -0.0197581 0.000291 -2.82375 -0.0403729 9.42218 2650 
137 1 -0.0653052 -0.0611601 -0.0165638 0.00164 -2.6017 -8.16433e-07 10.2576 2650 
226 1 -0.0667964 -0.0461475 -0.0161753 0.000291 -2.54259 0.0511937 10.4991 2650 
164 1 -0.0660929 -0.0473476 -0.0158426 0.001058 -2.4968 0.0173935 10.4189 2650 
71 1 -0.000256781 -0.00250662 -0.0151914 0.000291 0.000861808 -0.00718564 -0.0173142 2650 
3 1 -0.0668255 -0.0309116 -0.0123561 0.001058 -1.94167 0.0152473 10.5006 2650 
74 1 -0.00748572 -0.00219294 -0.0131849 0.001058 0.00552843 -0.00502923 -0.00272883 2650 
202 1 -0.0671925 -0.0307949 -0.010147 0.001058 -1.59181 -0.00163176 10.5409 2650 
132 1 -0.0672744 -0.0225021 -0.00947567 0.001058 -1.48111 -0.0541842 10.5173 2650 
135 1 -0.00633684 -0.00329524 -0.00846068 0.000291 0.00330025 -0.00264717 0.00636962 2650 
150 1 -0.0687089 -0.0338108 0.000263113 0.000291 0.0414254 -0.0423564 10.7596 2650 
285 1 -0.0680838 -0.030875 -0.000197953 0.001058 -0.0310946 -2.12561e-08 10.6946 2650 
95 1 -0.00446797 -0.000161845 0.00999347 0.000291 -0.0190214 0.000188354 -0.00919676 2650 
209 1 -0.00997477 -0.00305835 0.0123358 0.001058 0.0126255 -0.0178894 0.0117147 2650 
109 1 -0.0669486 -0.0497079 0.0155281 0.000291 2.43836 -0.00623282 10.5131 2650 
84 1 -0.0656535 -0.051032 0.0175702 0.001058 2.75971 0.00150817 10.312 2650 
290 1 -0.0664734 -0.0487606 0.0174648 0.000291 2.74332 0.000552435 10.4415 2650 
264 1 -0.0654825 -0.048242 0.0182191 0.001058 2.86188 2.43202e-05 10.2861 2650 
197 1 -0.0664383 -0.0137515 0.0175945 0.000291 2.10251 -0.083998 7.98036 2650 
287 1 -0.0651203 -0.0499115 0.0194676 0.001058 3.058 1.38394e-05 10.2292 2650 
215 1 -0.0639199 -0.0485422 0.0231161 0.001058 3.63108 -1.68356e-05 10.0405 2650 
181 1 -0.0643397 -0.0478297 0.0241819 0.000291 3.7984 0.00026446 10.1063 2650 
83 1 -0.0598537 -0.0499895 0.0322043 0.001058 5.05893 -0.000440125 9.4024 2650 
272 1 -0.0584875 -0.0491645 0.0346219 0.001058 5.43621 -0.0324249 9.18295 2650 
89 1 -0.0558845 -0.0611601 0.0376312 0.00164 5.91127 2.87158e-07 8.77855 2650 
229 1 -0.0491759 -0.0616287 0.04689 0.001058 7.36544 5.21896e-05 7.7245 2650 
280 1 -0.0482834 -0.0308793 0.0480032 0.001058 7.54032 1.03337e-05 7.58433 2650 
204 1 -0.0451676 -0.0312737 0.0507622 0.001058 7.97155 -0.00120336 7.09294 2650 
174 1 -0.0451896 -0.0293294 0.0517547 0.000291 8.16986 -0.0969721 7.13312 2650 
18 1 -0.0447886 -0.0215335 0.0510964 0.001058 8.08547 -0.0210305 7.08772 2650 
300 1 -0.0428099 -0.0232733 0.0527662 0.001058 8.45183 0.0964196 6.85758 2650 
73 1 -0.0394394 -0.0581481 0.0546168 0.00164 8.57919 0.000159533 6.19513 2650 
141 1 -0.0400995 -0.0395129 0.0558002 0.000291 8.78316 0.00869651 6.32581 2650 
86 1 -0.0408762 -0.0334642 0.0552247 0.000291 8.76331 -0.0172227 6.48489 2650 
152 1 -0.039922 -0.0229312 0.0561541 0.000105 9.01541 -0.792855 6.40665 2650 
196 1 -0.0358966 -0.0478664 0.0577123 0.001058 9.05051 -0.0162663 5.62908 2650 
281 1 -0.0345491 -0.0622793 0.059416 0.000291 9.32986 -1.83052e-06 5.42511 2650 
99 1 -0.033942 -0.0484405 0.0588869 0.001058 9.24971 -0.00055714 5.33146 2650 
121 1 -0.031238 -0.0458203 0.0597189 0.00164 9.38074 4.72317e-05 4.90692 2650 
96 1 -0.0359567 -0.00691994 0.0587719 0.000105 7.6212 0.0951446 4.66476 2650 
2 1 -0.0311857 -0.0493573 0.0603928 0.001058 9.48637 -0.000334026 4.89858 2650 
243 1 -0.0298354 -0.0508399 0.0610678 0.001058 9.59244 -0.000286687 4.6865 2650 
201 1 -0.0281591 -0.0455107 0.061233 0.00164 9.61845 2.28982e-05 4.42321 2650 
60 1 -0.0273971 -0.0431111 0.0622024 0.001058 9.77063 6.95044e-05 4.30348 2650 
79 1 -0.0292631 -0.0404339 0.0621775 0.000291 9.71498 0.189872 4.57265 2650 
278 1 -0.0282839 -0.0333531 0.0617775 0.001058 9.71591 -0.0106735 4.4484 2650 
259 1 -0.0292437 -0.0308993 0.061356 0.001058 9.63722 -8.50624e-05 4.59332 2650 
122 1 -0.0293421 -0.0287871 0.0612806 0.001058 9.62603 -4.38435e-05 4.60909 2650 
24 1 -0.0298191 -0.0242679 0.0621078 0.000105 9.69827 0.0819932 4.65662 2650 
213 1 -0.0276297 -0.0477913 0.0629352 0.000291 9.90552 0.0139426 4.34877 2650 
108 1 -0.0251588 -0.0480275 0.0631455 0.001058 9.91992 0.00335268 3.95241 2650 
36 1 -0.02248 -0.0484554 0.0641469 0.001058 10.076 2.46249e-05 3.5311 2650 
140 1 -0.0236424 -0.0465958 0.0637293 0.001058 10.01 -0.00241567 3.71349 2650 
119 1 -0.0210923 -0.0504838 0.0654113 0.000291 10.2668 -0.00822851 3.31048 2650 
239 1 -0.0183337 -0.0500731 0.0654473 0.001058 10.2808 -0.0011803 2.87994 2650 
191 1 -0.0236838 -0.0479762 0.0645245 0.000291 10.1357 0.000266439 3.72031 2650 
230 1 -0.0204905 -0.0487438 0.064807 0.001058 10.1797 4.48063e-05 3.21859 2650 
288 1 -0.0195699 -0.0488121 0.0658859 0.000291 10.3663 0.0178212 3.07922 2650 
15 1 -0.0202962 -0.0218826 0.0656536 0.000291 10.404 -0.0626007 3.21649 2650 
170 1 -0.0160381 -0.0144878 0.0660451 0.001058 7.21485 -0.155496 1.80069 2650 
200 1 -0.0226071 -0.00714155 0.0650848 0.000105 9.09319 -0.234976 3.15731 2650 
131 1 -0.00877535 -0.0484639 0.0673854 0.001058 10.5848 2.16823e-05 1.37842 2650 
50 1 -0.0131407 -0.0445475 0.0666778 0.001058 10.4196 -0.00530286 2.05289 2650 
82 1 -0.00121277 -0.0420464 0.0679371 0.001058 10.6712 -0.000990065 0.190473 2650 
184 1 -0.0110318 -0.0197699 0.0680119 0.000105 10.6795 -0.0752369 1.73228 2650 
158 1 -0.0103081 -0.00792094 0.0679348 0.000291 8.88127 1.01361 1.339 2650 
294 1 -0.000197953 -0.030875 0.0680838 0.001058 10.6946 -2.12552e-08 0.0310946 2650 
198 1 -9.09012e-05 0.00327911 -0.0164859 0.000291 -0.0296253 0.00903644 -0.00211577 2650 
286 1 -0.00341982 0.0592113 -0.0153398 0.001058 -0.0224686 0.0460898 0.00428948 2650 
134 1 -0.00689005 0.00850444 -0.0137807 0.000291 -0.00544633 0.00352621 0.00729171 2650 
54 1 -0.0104737 0.0319582 -0.0128879 0.000291 -0.0366831 -0.00207303 0.0272445 2650 
293 1 -0.00906153 0.0387824 -0.0129237 0.001058 -0.0781413 -0.0185014 0.0581715 2650 
292 1 -0.00306384 0.0666551 -0.0123011 0.001058 -0.0198756 0.0344324 0.0109755 2650 
10 1 -0.0103911 0.011671 -0.0118003 0.001058 0.0053433 0.0061558 -0.0070677 2650 
301 1 -0.00562885 0.0485545 -0.0115321 0.001058 -0.0176549 0.0163122 0.00371725 2650 
130 1 -0.00926756 0.00423566 -0.00828021 0.001058 -0.00692202 0.00347734 0.00595777 2650 
232 1 -0.0125996 0.0459774 -0.00964732 0.001058 -0.00968717 0.0250527 0.0224664 2650 
51 1 -0.00958878 0.0300162 -0.00778419 0.001058 2.58043e-05 0.0308241 0.0288994 2650 
113 1 -0.00539159 0.00503775 -0.00232183 0.00164 -0.0131936 -0.00156564 -0.00033725 2650 
129 1 -0.00225573 0.0155981 -0.00379275 0.00164 -0.00374589 0.0128173 -0.00288427 2650 
67 1 -0.0151866 0.0246784 -0.00333175 0.001058 -0.00153648 0.0116126 0.0141107 2650 
7 1 -0.00151785 0.0371953 -0.00343841 0.000291 0.00378858 0.0136367 -0.000251809 2650 
65 1 -0.0145776 0.0345318 -0.00076477 0.00164 0.00199904 0.0128894 0.00103488 2650 
217 1 -0.008882 0.0585716 0.00322154 0.001058 0.000747792 0.0265619 -0.00553463 2650 
234 1 -0.013734 0.0127805 0.00467989 0.000291 -0.00131366 0.00431637 0.0126772 2650 
222 1 -0.0127368 0.00249374 0.00753498 0.001058 -0.0324875 0.00467874 -0.0112895 2650 
205 1 -0.0123364 0.00439501 0.00778934 0.000291 -0.00881861 0.00364628 0.0236275 2650 
256 1 -0.0152431 0.0316841 0.00680609 0.000291 0.00177718 0.0215424 0.00440949 2650 
211 1 -0.011862 0.00816947 0.00902565 0.001058 0.000982608 0.00314487 0.00709992 2650 
115 1 -0.012732 0.0229376 0.00899589 0.001058 0.0059455 0.0116516 0.00703082 2650 
224 1 -0.00723751 0.0173823 0.0100463 0.001058 0.0046856 0.00178326 -0.00382818 2650 
187 1 -0.01142 0.0337697 0.0110634 0.001058 0.00928977 0.0147976 0.00788405 2650 
299 1 -0.0033933 0.000160091 0.0132908 0.001058 0.00581403 -0.00322581 0.00124072 2650 
220 1 -0.00856415 0.0329461 0.0131087 0.000291 0.00991537 0.0130183 0.0124552 2650 
4 1 -0.00484312 0.00910143 0.0150108 0.001058 0.00673868 0.000863758 0.00176759 2650 
28 1 -0.00623455 0.0837604 0.0107135 0.001058 0.00734507 0.0503926 0.00344867 2650 
44 1 0.000197953 -0.030875 -0.0680838 0.001058 -10.6946 -2.12572e-08 -0.0310946 2650 
212 1 0.00389895 -0.015928 -0.0685971 0.000291 -10.3209 0.0326448 -0.590134 2650 
304 1 0.0045905 -0.0129021 -0.068554 0.000291 -9.82783 -0.162694 -0.658247 2650 
110 1 0.00332948 -0.0111456 -0.0686264 0.000291 -9.89711 0.157055 -0.480318 2650 
23 1 0.022254 -0.0490449 -0.065029 0.000291 -10.2174 0.0188549 -3.49656 2650 
117 1 0.0199687 -0.020706 -0.0657573 0.000291 -10.8537 0.264168 -3.30065 2650 
22 1 0.0241601 -0.019527 -0.0643392 0.000291 -10.3519 -0.0977472 -3.88746 2650 
85 1 0.0241273 -0.0103342 -0.0643507 0.000291 -9.47076 -0.397778 -3.55415 2650 
90 1 0.0232409 -0.0494856 -0.0638736 0.001058 -10.0343 0.000108341 -3.65104 2650 
171 1 0.0252904 -0.0495279 -0.06309 0.001058 -9.90572 -3.50222e-05 -3.97085 2650 
225 1 0.0242319 -0.0476523 -0.063507 0.001058 -9.97457 -0.00122725 -3.80593 2650 
76 1 0.0224372 -0.046508 -0.0641629 0.001058 -10.025 0.0317066 -3.50568 2650 
173 1 0.0282446 -0.0131435 -0.0626602 0.000291 -10.0567 -0.0501762 -4.5335 2650 
21 1 0.0295277 -0.0487854 -0.0620666 0.000291 -9.7464 0.00199505 -4.63682 2650 
14 1 0.033623 -0.0362185 -0.0599175 0.000291 -9.33582 -0.334125 -5.25905 2650 
261 1 0.0380652 -0.0285605 -0.0571973 0.000291 -8.72607 -0.171563 -5.80843 2650 
46 1 0.0368014 -0.0275411 -0.0580139 0.000291 -8.8775 -1.01009 -5.6339 2650 
223 1 0.0379111 -0.0194417 -0.0563993 0.001058 -8.86609 -0.0138827 -5.95956 2650 
186 1 0.0420563 -0.0245599 -0.0533665 0.001058 -8.37091 -0.0499733 -6.59673 2650 
88 1 0.0466113 -0.00752154 -0.0506818 0.000105 -6.94165 -0.331412 -6.38878 2650 
208 1 0.0482832 -0.0308698 -0.0480031 0.001058 -7.54031 6.35548e-08 -7.58431 2650 
257 1 0.0590646 -0.048885 -0.0336295 0.001058 -5.28199 -0.000624748 -9.27691 2650 
49 1 0.060054 -0.0490853 -0.0305887 0.00164 -4.80486 -0.000105184 -9.43324 2650 
93 1 0.062261 -0.0493415 -0.0291131 0.000291 -4.57301 -0.000115658 -9.7798 2650 
165 1 0.062189 -0.045706 -0.0292728 0.000291 -4.59824 -0.00018316 -9.76881 2650 
179 1 0.0619831 -0.0488287 -0.0278967 0.001058 -4.382 0.000139215 -9.73626 2650 
59 1 0.0617812 -0.0465968 -0.0283454 0.001058 -4.45246 1.8254e-05 -9.70451 2650 
40 1 0.0656527 -0.000104996 -0.020879 0.000105 -2.87265 2.12005e-06 -9.03264 2650 
248 1 0.0661311 -0.0272993 -0.018625 0.000291 -2.9272 -0.144995 -10.3946 2650 
219 1 0.0656064 -0.000291029 -0.0204113 0.000291 -2.81495 -0.00237092 -9.02695 2650 
214 1 0.0669569 -0.0523508 -0.0154343 0.000291 -2.45335 -0.272836 -10.6579 2650 
277 1 0.0670017 -0.0401655 -0.0152584 0.000291 -2.49461 0.182229 -10.9305 2650 
128 1 0.0673116 -0.0142005 -0.0147645 0.000105 -1.87976 0.243417 -8.56724 2650 
295 1 0.06719 -0.0312041 -0.0143947 0.000291 -2.27833 0.239265 -10.6777 2650 
146 1 0.06723 -0.0488611 -0.00989571 0.001058 -1.55435 -2.90773e-05 -10.56 2650 
138 1 0.0674714 -0.0559931 -0.00802089 0.001058 -1.25992 -0.00118511 -10.5982 2650 
101 1 0.0141062 -0.000206722 -0.00681174 0.000291 -0.00701612 -0.000711223 -0.000860441 2650 
29 1 0.0687072 -0.00702209 -0.000489371 0.000291 -0.082094 -0.287582 -11.1207 2650 
159 1 0.0676009 -0.0481654 0.0123632 0.000291 1.9001 -0.0116214 -10.3991 2650 
250 1 0.0665915 -0.0166244 0.0135634 0.001058 0.639693 -0.421372 -3.80736 2650 
55 1 0.0672016 -0.00984467 0.0143435 0.000291 2.09912 0.409277 -9.8603 2650 
236 1 0.065662 -0.0616399 0.0174739 0.001058 2.74468 2.15982e-05 -10.3137 2650 
228 1 0.0658484 -0.0160443 0.0196883 0.000291 1.04225 -0.356958 -3.74202 2650 
247 1 0.0630254 -0.0496606 0.0274173 0.000291 4.30673 -0.000104707 -9.90007 2650 
188 1 0.0615151 -0.0616391 0.0288582 0.001058 4.53302 -6.78466e-06 -9.66272 2650 
254 1 0.0626454 -0.0503208 0.0282721 0.000291 4.43849 0.0027466 -9.84233 2650 
218 1 0.0619179 -0.0492069 0.0280397 0.001058 4.40452 4.73044e-05 -9.72616 2650 
148 1 0.0595208 -0.0531335 0.032797 0.001058 5.15176 -4.54842e-05 -9.34954 2650 
35 1 0.059952 -0.0508738 0.0320165 0.001058 5.02916 3.40602e-05 -9.41728 2650 
43 1 0.0584652 -0.050094 0.0346579 0.001058 5.44402 -0.00117717 -9.18369 2650 
20 1 0.0570923 -0.0555152 0.0368488 0.001058 5.78818 -0.000385311 -8.968 2650 
172 1 0.0560117 -0.0546981 0.0384743 0.001058 6.04356 -0.000115722 -8.79835 2650 
193 1 0.0555308 -0.0498677 0.0381733 0.00164 5.9962 -4.68597e-05 -8.72267 2650 
42 1 0.0541818 -0.0548061 0.0410074 0.001058 6.44145 0.00018053 -8.51088 2650 
112 1 0.0561012 -0.032327 0.0399854 0.000105 6.12672 0.559825 -8.59552 2650 
81 1 0.0527392 -0.050012 0.0419326 0.00164 6.58684 0.000390741 -8.28434 2650 
162 1 0.0533096 -0.0473832 0.0421402 0.001058 6.61934 0.000404923 -8.37382 2650 
185 1 0.0501926 -0.0518693 0.0449423 0.00164 7.05946 4.67896e-05 -7.88416 2650 
34 1 0.0480025 -0.030875 0.0482825 0.001058 7.58419 -2.12562e-08 -7.54021 2650 
270 1 0.047055 -0.00792121 0.0500296 0.000291 7.13946 -0.161238 -6.74977 2650 
125 1 0.0373647 -0.036935 0.0576625 0.000291 9.25541 0.00392128 -5.99949 2650 
271 1 0.0371769 -0.0261286 0.0568709 0.001058 7.22324 0.214914 -4.72961 2650 
221 1 0.037643 -0.0208661 0.0574876 0.000291 8.16514 -0.199011 -5.35899 2650 
78 1 0.0335826 -0.0442668 0.0599639 0.000291 9.6394 -0.264796 -5.3962 2650 
26 1 0.0170523 -0.0495443 0.065793 0.001058 10.3347 -1.79019e-05 -2.67857 2650 
48 1 0.0209007 -0.0479012 0.0656715 0.000105 9.98813 -0.0990835 -3.17832 2650 
192 1 0.0124947 -0.000105116 0.0677516 0.000105 9.17352 0.000151362 -1.70045 2650 
267 1 0.000877039 -0.0204839 0.0687021 0.000291 9.99057 -0.0849232 -0.116667 2650 
282 1 0.0102722 -0.0191548 0.0679437 0.000291 10.0059 0.393103 -1.5128 2650 
80 1 9.58534e-06 0.0279661 -0.0166934 0.000105 0.0200839 0.0212335 0.00050358 2650 
58 1 0.000688319 0.000330593 -0.0148369 0.001058 0.0162124 -0.0049319 0.0138529 2650 
195 1 0.000998606 0.00239237 -0.0158032 0.001058 -0.0231018 0.0111382 0.000286857 2650 
97 1 0.000620792 0.0125133 -0.0152596 0.00164 0.0190009 0.00833861 0.00331316 2650 
260 1 0.00391668 0.00897397 -0.0123358 0.000291 -0.00996736 0.00469349 0.00488237 2650 
57 1 0.0046667 0.0295793 -0.0139412 0.00164 -0.0109255 0.00355641 0.00766412 2650 
114 1 0.00692232 0.0160858 -0.0104138 0.001058 0.0187062 0.0117361 -0.00752779 2650 
33 1 0.00486557 0.0384963 -0.0105773 0.00164 0.00603998 0.0215627 0.00352792 2650 
123 1 0.00961966 0.0541104 -0.0100654 0.001058 -0.0069266 0.0381635 -0.00768552 2650 
153 1 0.00596306 0.00363595 -0.00927527 0.00164 -0.00763413 -0.0014489 0.00703428 2650 
199 1 0.0111354 0.00638574 -0.00800915 0.000291 -0.0066469 0.00203541 -0.00705897 2650 
284 1 0.0104753 0.015699 -0.0085749 0.000291 -0.00371053 0.00586111 -0.00129449 2650 
249 1 0.0102325 0.043289 -0.00857908 0.000291 0.00987628 0.0185258 -0.0129358 2650 
161 1 0.0134342 0.0103181 -0.00666088 0.00164 -0.000454856 0.00568005 -0.00417258 2650 
19 1 0.0123641 0.0132928 -0.00767854 0.001058 -0.00189711 0.0050805 -0.00113271 2650 
176 1 0.010633 0.000989729 -0.0058194 0.000105 -0.0113334 0.00168079 0.000719247 2650 
258 1 0.00928659 0.0590643 -0.00551871 0.001058 -0.00702738 0.0458888 -0.00817646 2650 
52 1 0.0127692 0.0581612 -0.00491781 0.001058 -0.00702953 0.0194323 -0.0174178 2650 
1 1 0.0122841 0.00764208 -0.0037995 0.00164 -0.00396175 0.00352346 -0.00443708 2650 
77 1 0.00501644 0.012211 -0.00325181 0.000291 -0.0117356 0.000913058 0.0103562 2650 
203 1 0.0158207 0.0404905 -0.000758541 0.001058 -0.00418185 0.0313908 0.00544166 2650 
238 1 0.0139752 0.0601255 -0.000387418 0.001058 -0.00137728 0.0257105 -0.0165728 2650 
106 1 0.00543273 0.041692 0.00137488 0.001058 0.0119634 0.0223893 -0.0027555 2650 
194 1 0.00884557 0.0498877 0.00110493 0.001058 -0.00717738 0.0355954 0.00284246 2650 
298 1 0.0146356 0.000800529 0.00367921 0.000105 0.00377194 -0.00442838 -0.00799766 2650 
279 1 0.0143417 0.00544646 0.00267789 0.001058 0.00690887 -0.00122776 0.0071413 2650 
92 1 0.0139372 0.00916231 0.00236453 0.001058 0.00298746 0.00292354 0.00546929 2650 
156 1 0.0108143 0.00293386 0.00643841 0.001058 -0.00386139 -0.00886559 -0.00604091 2650 
68 1 0.000236582 0.00485106 0.00777886 0.001058 0.00272783 -0.00342387 -0.00169301 2650 
265 1 0.014639 0.0149907 0.00617621 0.001058 0.00207956 0.00549967 -0.0103769 2650 
9 1 0.0132128 0.0577493 0.00753288 0.00164 -0.00067168 0.0470366 0.00650688 2650 
273 1 0.00084938 0.0717163 0.00698371 0.001058 0.00511 0.0387776 -0.00978519 2650 
66 1 0.011395 0.00751631 0.0092432 0.001058 0.00109107 -0.000952032 -0.00287426 2650 
38 1 0.00889724 0.0210421 0.0089694 0.000291 -0.0203804 0.00352473 0.00785771 2650 
105 1 0.00488865 0.021802 0.0101881 0.00164 -0.00344466 0.00582004 -0.00613861 2650 
41 1 0.000654548 0.0238914 0.0112912 0.00164 -0.00672013 0.00866437 -0.0057422 2650 
144 1 0.00381668 0.0275199 0.0115674 0.000105 0.0152864 0.0109644 -0.00695946 2650 
147 1 0.0107778 0.0448406 0.0115904 0.001058 0.030812 0.00832408 -0.0230623 2650 
266 1 0.00450675 0.0176166 0.0151396 0.001058 0.0339312 0.0111352 -0.00649733 2650 
244 1 0.000368092 0.0253161 0.0153951 0.001058 0.0359853 0.021076 -0.00170709 2650 
139 1 0.00318648 0.0276447 0.0155676 0.001058 -0.0172203 0.00521876 0.00196001 2650 
242 1 0.00613954 0.0479289 0.0143354 0.000291 0.0116924 0.0265357 0.00697501 2650 
124 1 0.00512412 0.0638785 0.0147899 0.001058 0.0237177 0.0354635 -0.00375445 2650 
157 1 0.00278413 0.103778 -0.0132561 0.000291 0.0079085 0.0606548 0.000918149 2650 
