ITEM: TIMESTEP
24695800
ITEM: NUMBER OF ATOMS
258
ITEM: BOX BOUNDS ff ff ff
-0.15 0.15
-0.15 0.15
-0.15 0.15
ITEM: ATOMS id type x y z radius vx vy vz density 
133 1 -0.00590939 -0.0276983 -0.0684404 0.000291 -10.6217 -0.0893261 0.91794 2650 
45 1 -0.00727726 -0.0144856 -0.0683029 0.000291 -10.0483 -0.0390396 1.0709 2650 
39 1 -0.015259 -0.0422061 -0.0670068 0.000291 -10.4013 0.240831 2.36883 2650 
37 1 -0.0145514 -0.0264647 -0.0671477 0.000291 -10.556 -0.30341 2.28641 2650 
98 1 -0.0133402 -0.0184812 -0.0666346 0.001058 -10.4278 -0.0159016 2.08731 2650 
64 1 -0.0150021 -0.0173813 -0.0672501 0.000105 -10.1595 -0.410119 2.27105 2650 
107 1 -0.0207576 -0.049226 -0.0647229 0.001058 -10.1582 -0.00695471 3.25785 2650 
227 1 -0.0235366 -0.0455834 -0.0645766 0.000291 -9.92373 0.0437973 3.61724 2650 
100 1 -0.0165597 -0.0194645 -0.0659151 0.001058 -10.3765 -0.0120228 2.60779 2650 
104 1 -0.0278378 -0.0208311 -0.0630336 0.000105 -10.0818 0.110975 4.45238 2650 
197 1 -0.0265123 -0.012678 -0.0634133 0.000291 -7.7356 0.0163857 3.23205 2650 
302 1 -0.032418 -0.0415778 -0.060596 0.000291 -9.88731 0.107563 5.29105 2650 
255 1 -0.0308029 -0.0110505 -0.0614366 0.000291 -9.2301 0.0170919 4.62647 2650 
240 1 -0.0351301 -0.0357474 -0.0590478 0.000291 -9.21549 -0.172793 5.48227 2650 
177 1 -0.0338854 -0.0179683 -0.0582539 0.00164 -9.14395 -0.00891131 5.31894 2650 
102 1 -0.0343602 -0.0165614 -0.0595238 0.000291 -9.26439 -0.0108537 5.34849 2650 
94 1 -0.0344225 -0.0152859 -0.0594885 0.000291 -9.31681 0.0278649 5.39118 2650 
6 1 -0.0350373 -0.0154244 -0.0591276 0.000291 -9.24044 0.169842 5.47595 2650 
47 1 -0.0337768 -0.012887 -0.0598564 0.000291 -8.3054 0.116102 4.68359 2650 
252 1 -0.0357799 -0.0160114 -0.0577852 0.001058 -9.07445 -0.00413185 5.61888 2650 
276 1 -0.0419782 -0.0329319 -0.054392 0.000291 -8.54451 0.0257738 6.59452 2650 
253 1 -0.0423013 -0.0242109 -0.0541435 0.000291 -8.32021 0.0507696 6.50015 2650 
118 1 -0.044207 -0.0218621 -0.0525983 0.000291 -8.10475 -0.116273 6.81249 2650 
235 1 -0.0430717 -0.0209188 -0.0535336 0.000291 -8.3108 -0.173497 6.68705 2650 
210 1 -0.0456594 -0.0340947 -0.0503155 0.001058 -7.85668 0.0720034 7.12783 2650 
61 1 -0.0462396 -0.0213685 -0.0508185 0.000291 -7.32631 0.00276357 6.6649 2650 
269 1 -0.0464404 -0.0132858 -0.0506351 0.000291 -7.46006 -0.14048 6.84335 2650 
241 1 -0.0488839 -0.0366843 -0.0482846 0.000291 -7.58377 0.166859 7.67798 2650 
251 1 -0.0480591 -0.030875 -0.0482261 0.001058 -7.5711 -1.14266e-07 7.54489 2650 
167 1 -0.0479751 -0.0204208 -0.0491859 0.000291 -7.81126 -0.178524 7.61813 2650 
206 1 -0.0504374 -0.062509 -0.0466593 0.000291 -7.31442 -5.96314e-06 7.90714 2650 
169 1 -0.0491349 -0.0611601 -0.0460982 0.00164 -7.23682 -6.433e-07 7.71355 2650 
246 1 -0.0496511 -0.0585276 -0.0463857 0.001058 -7.28225 -3.80249e-05 7.79487 2650 
145 1 -0.0489663 -0.0392917 -0.0462746 0.00164 -7.26355 -0.00117339 7.68612 2650 
25 1 -0.0511598 -0.0588111 -0.0438374 0.00164 -6.88157 -5.70144e-05 8.03105 2650 
178 1 -0.0526439 -0.0567366 -0.0429584 0.001058 -6.74389 -0.000112676 8.26431 2650 
303 1 -0.0530133 -0.0177297 -0.0437123 0.000291 -6.6721 -0.206996 8.09222 2650 
250 1 -0.0541848 -0.0102691 -0.0410053 0.001058 -3.08436 0.231824 4.07428 2650 
168 1 -0.0565904 -0.0331126 -0.0392884 0.000105 -5.93422 -0.23566 8.54724 2650 
87 1 -0.0560244 -0.0176396 -0.0397967 0.000291 -6.33029 0.1059 8.90973 2650 
207 1 -0.0570379 -0.0154141 -0.0383359 0.000291 -6.13778 -0.032861 9.13154 2650 
103 1 -0.0583672 -0.0501789 -0.0362812 0.000291 -5.73149 -0.274154 9.22036 2650 
275 1 -0.0584486 -0.0143334 -0.036156 0.000291 -5.77397 0.0612219 9.33211 2650 
231 1 -0.0594632 -0.0447461 -0.0329241 0.001058 -5.16916 -0.00573335 9.33591 2650 
170 1 -0.0619981 -0.0176772 -0.0278589 0.001058 -3.24608 0.0673432 7.18092 2650 
291 1 -0.0652563 -0.0460512 -0.0215725 0.000291 -3.38234 -0.146898 10.2297 2650 
268 1 -0.0655756 -0.0178092 -0.0205738 0.000291 -3.25242 -0.407271 10.3671 2650 
184 1 -0.0662581 -0.00416832 -0.0188621 0.000105 -1.77738 -0.275532 6.25869 2650 
137 1 -0.0653246 -0.0611601 -0.0164872 0.00164 -2.58824 -2.00014e-06 10.255 2650 
226 1 -0.066814 -0.0458605 -0.0161035 0.000291 -2.5258 -0.0540075 10.4802 2650 
164 1 -0.066128 -0.0477132 -0.0156943 0.001058 -2.46933 -0.00660959 10.4047 2650 
71 1 -0.000222302 -0.0027941 -0.0158841 0.000291 0.000861808 -0.00718564 -0.0173142 2650 
3 1 -0.0668443 -0.0308588 -0.0122521 0.001058 -1.9229 -0.0132089 10.4908 2650 
74 1 -0.00726454 -0.00239415 -0.0132941 0.001058 0.00552843 -0.00502923 -0.00272883 2650 
202 1 -0.0672068 -0.0309505 -0.0100514 0.001058 -1.58037 -0.00781867 10.5661 2650 
132 1 -0.0674814 -0.0220664 -0.00791194 0.001058 -1.22759 -0.0376558 10.454 2650 
96 1 -0.0687213 -0.0110097 -0.00390584 0.000105 -0.517733 -0.209818 9.00737 2650 
285 1 -0.0680839 -0.030875 -0.000118104 0.001058 -0.0185324 -1.14266e-07 10.6886 2650 
150 1 -0.0687008 -0.0333737 0.00107003 0.000291 0.168178 0.0439766 10.7988 2650 
95 1 -0.00522897 -0.00015431 0.00962553 0.000291 -0.0190214 0.000188354 -0.00919676 2650 
109 1 -0.0669231 -0.0504955 0.0156319 0.000291 2.45527 -0.0167251 10.5117 2650 
84 1 -0.0656328 -0.0510322 0.0176473 0.001058 2.76988 0.0010907 10.3014 2650 
290 1 -0.0664529 -0.0487606 0.0175426 0.000291 2.75102 0.000535074 10.4193 2650 
287 1 -0.0650974 -0.0499115 0.019544 0.001058 3.06816 5.04508e-05 10.2196 2650 
264 1 -0.0654611 -0.048242 0.0182959 0.001058 2.87185 -4.91459e-05 10.2751 2650 
215 1 -0.0638928 -0.0485422 0.023191 0.001058 3.64008 -0.000227886 10.0286 2650 
181 1 -0.0643115 -0.0478295 0.024257 0.000291 3.80197 0.00173903 10.0852 2650 
158 1 -0.0626728 -0.0157163 0.0282168 0.000291 3.73486 -0.563371 8.26811 2650 
83 1 -0.0598153 -0.0499901 0.0322756 0.001058 5.06611 0.000240601 9.38869 2650 
272 1 -0.0584342 -0.0491462 0.0347132 0.001058 5.44668 -0.0186335 9.16855 2650 
89 1 -0.0558403 -0.0611601 0.0376967 0.00164 5.91784 -1.33826e-06 8.76611 2650 
228 1 -0.0584056 -0.0200634 0.036208 0.000291 5.02718 0.658665 8.10934 2650 
200 1 -0.0580326 -0.0148088 0.0371343 0.000105 5.19651 0.307858 8.13273 2650 
229 1 -0.0491208 -0.0616287 0.0469478 0.001058 7.3688 3.80891e-05 7.70977 2650 
280 1 -0.048227 -0.0308793 0.0480597 0.001058 7.5412 -7.41951e-05 7.56983 2650 
267 1 -0.0496954 -0.0154071 0.0474077 0.000291 5.53639 0.605253 5.71462 2650 
204 1 -0.0453961 -0.0312935 0.0505587 0.001058 7.92485 -0.0257361 7.11436 2650 
174 1 -0.0434554 -0.0362908 0.0532089 0.000291 8.41949 0.237701 6.87817 2650 
135 1 -0.0439 -0.0315856 0.0528547 0.000291 8.40014 -0.0827352 6.97644 2650 
18 1 -0.0412846 -0.0224038 0.0539704 0.001058 8.59178 -0.0340535 6.57195 2650 
192 1 -0.0429199 -0.000104998 0.0538899 0.000105 7.27648 -0.000312779 5.79424 2650 
73 1 -0.0393753 -0.0581479 0.054663 0.00164 8.58379 0.000184535 6.18319 2650 
141 1 -0.0401456 -0.0410008 0.0557694 0.000291 8.73349 -0.128644 6.28718 2650 
86 1 -0.0407941 -0.0327874 0.0552857 0.000291 8.65603 -0.0879691 6.38721 2650 
196 1 -0.0358073 -0.0478071 0.0577684 0.001058 9.06758 -0.0178562 5.62039 2650 
300 1 -0.0368107 -0.0241332 0.0571166 0.001058 9.06951 -0.0297088 5.84538 2650 
15 1 -0.0372651 -0.0204644 0.0577393 0.000291 9.3217 0.24357 6.0181 2650 
281 1 -0.0344797 -0.0622793 0.0594563 0.000291 9.29357 -1.29314e-05 5.38952 2650 
99 1 -0.0338734 -0.0484426 0.0589264 0.001058 9.24902 0.000945718 5.3167 2650 
121 1 -0.031167 -0.0458189 0.0597561 0.00164 9.38057 7.44255e-05 4.89259 2650 
259 1 -0.0347948 -0.0308909 0.0583741 0.001058 8.41386 0.0616052 5.03275 2650 
271 1 -0.0327999 -0.030793 0.0595165 0.001058 8.59489 0.201605 4.7903 2650 
2 1 -0.0311149 -0.0493573 0.0604293 0.001058 9.48437 -0.000327555 4.88345 2650 
243 1 -0.0297638 -0.0508399 0.0611027 0.001058 9.59032 -0.000226915 4.67155 2650 
201 1 -0.0280872 -0.0455107 0.061266 0.00164 9.61735 1.8082e-05 4.40902 2650 
79 1 -0.0314607 -0.0375062 0.0610854 0.000291 9.50529 -0.160522 4.89506 2650 
278 1 -0.0282195 -0.0334014 0.0618067 0.001058 9.7001 -0.000820706 4.42871 2650 
122 1 -0.0293088 -0.0291931 0.061299 0.001058 9.6431 -0.084479 4.61089 2650 
24 1 -0.030854 -0.0205977 0.0616154 0.000105 9.62216 -0.106099 4.82229 2650 
152 1 -0.0321395 -0.00723561 0.060945 0.000105 9.77615 0.525576 5.1542 2650 
213 1 -0.0281285 -0.047776 0.0627146 0.000291 9.78162 -0.02593 4.38752 2650 
108 1 -0.0250857 -0.0480307 0.0631745 0.001058 9.91672 0.00232532 3.93778 2650 
140 1 -0.0235675 -0.0465947 0.0637571 0.001058 10.007 -0.00048867 3.69901 2650 
60 1 -0.0273241 -0.0431111 0.0622345 0.001058 9.76982 8.89482e-05 4.28949 2650 
119 1 -0.0210507 -0.0503032 0.0654253 0.000291 10.2713 0.0139221 3.3049 2650 
239 1 -0.0182565 -0.0500749 0.0654689 0.001058 10.2783 -0.000309778 2.86619 2650 
191 1 -0.0236088 -0.0479716 0.064552 0.000291 10.1204 7.89376e-05 3.70108 2650 
36 1 -0.0224047 -0.0484554 0.0641733 0.001058 10.0728 4.64933e-05 3.51665 2650 
230 1 -0.0204145 -0.0487438 0.064831 0.001058 10.175 0.000107243 3.20405 2650 
288 1 -0.0194816 -0.0488299 0.0659121 0.000291 10.3545 -0.0230383 3.06041 2650 
209 1 -0.0222578 -0.0155736 0.0642247 0.001058 3.38845 -0.951984 1.20984 2650 
131 1 -0.00869655 -0.0484655 0.0673956 0.001058 10.5781 -0.000553648 1.36492 2650 
50 1 -0.0130175 -0.0465726 0.0667053 0.001058 10.5357 0.033083 2.0561 2650 
82 1 -0.00113211 -0.0420437 0.0679386 0.001058 10.6641 0.00092831 0.177703 2650 
282 1 -0.0145543 -0.0248176 0.0671514 0.000291 9.93102 -0.369682 2.14739 2650 
294 1 -0.000118104 -0.030875 0.0680839 0.001058 10.6886 -1.14266e-07 0.0185324 2650 
221 1 -0.000751773 -0.0239038 0.068705 0.000291 9.79971 0.0983524 0.102201 2650 
198 1 -0.00127294 0.00364019 -0.0165581 0.000291 -0.0275979 0.00875117 0.00575434 2650 
286 1 -0.00431873 0.0610552 -0.0151682 0.001058 -0.0224686 0.0460898 0.00428948 2650 
134 1 -0.00710795 0.00864552 -0.0134889 0.000291 -0.00544633 0.00352621 0.00729171 2650 
10 1 -0.0101774 0.0119173 -0.0120831 0.001058 0.0053433 0.0061558 -0.0070677 2650 
54 1 -0.0118605 0.0318748 -0.0117155 0.000291 -0.0298074 -0.00210638 0.0342601 2650 
293 1 -0.0119638 0.0380376 -0.0103678 0.001058 -0.0637462 -0.0187951 0.0728572 2650 
301 1 -0.00633518 0.0492071 -0.0113834 0.001058 -0.0176549 0.0163122 0.00371725 2650 
292 1 -0.00385901 0.0680327 -0.011862 0.001058 -0.0198756 0.0344324 0.0109755 2650 
130 1 -0.00954449 0.00437478 -0.00804186 0.001058 -0.00692202 0.00347734 0.00595777 2650 
232 1 -0.0129872 0.0469797 -0.00874849 0.001058 -0.00968717 0.0250527 0.0224664 2650 
51 1 -0.00958775 0.0312494 -0.006628 0.001058 2.58043e-05 0.0308241 0.0288994 2650 
113 1 -0.00591943 0.00497511 -0.00233532 0.00164 -0.0131936 -0.00156564 -0.00033725 2650 
129 1 -0.00240559 0.0161108 -0.00390814 0.00164 -0.00374589 0.0128173 -0.00288427 2650 
67 1 -0.0152481 0.025143 -0.00276721 0.001058 -0.00153648 0.0116126 0.0141107 2650 
7 1 -0.00136628 0.0377409 -0.00344848 0.000291 0.00378858 0.0136367 -0.000251809 2650 
65 1 -0.0144977 0.0350475 -0.000723367 0.00164 0.00199904 0.0128894 0.00103488 2650 
217 1 -0.00885208 0.0596343 0.00300011 0.001058 0.000747792 0.0265619 -0.00553463 2650 
234 1 -0.0137865 0.0129532 0.00518707 0.000291 -0.00131366 0.00431637 0.0126772 2650 
222 1 -0.0140365 0.00268092 0.00708331 0.001058 -0.0324875 0.00467874 -0.0112895 2650 
256 1 -0.015172 0.032546 0.0069825 0.000291 0.00177718 0.0215424 0.00440949 2650 
205 1 -0.0126892 0.00454089 0.00873461 0.000291 -0.00881861 0.00364628 0.0236275 2650 
211 1 -0.0118226 0.00829528 0.0093097 0.001058 0.000982608 0.00314487 0.00709992 2650 
224 1 -0.00705005 0.0174536 0.00989314 0.001058 0.0046856 0.00178326 -0.00382818 2650 
115 1 -0.0124941 0.0234038 0.00927718 0.001058 0.0059455 0.0116516 0.00703082 2650 
187 1 -0.0110483 0.0343618 0.0113788 0.001058 0.00928977 0.0147976 0.00788405 2650 
299 1 -0.00316069 3.1034e-05 0.0133405 0.001058 0.00581403 -0.00322581 0.00124072 2650 
220 1 -0.00816746 0.0334669 0.013607 0.000291 0.00991537 0.0130183 0.0124552 2650 
4 1 -0.00457352 0.00913598 0.0150815 0.001058 0.00673868 0.000863758 0.00176759 2650 
28 1 -0.00594069 0.0857765 0.0108515 0.001058 0.00734507 0.0503926 0.00344867 2650 
44 1 0.000118104 -0.030875 -0.0680839 0.001058 -10.6886 -1.14266e-07 -0.0185324 2650 
117 1 0.00158223 -0.0188738 -0.0686898 0.000291 -11.1666 -0.323999 -0.247772 2650 
126 1 0.0146856 -0.0316476 -0.0671198 0.000291 -10.0432 -0.0165452 -2.19803 2650 
22 1 0.0144654 -0.0241027 -0.0671715 0.000291 -10.7713 0.188188 -2.31976 2650 
16 1 0.017677 -0.00613501 -0.0665894 0.000105 -9.39378 -0.0390465 -2.49425 2650 
23 1 0.0221383 -0.0487932 -0.0650686 0.000291 -10.2222 0.0353681 -3.47788 2650 
76 1 0.022754 -0.0462802 -0.0640497 0.001058 -10.0618 -0.00736708 -3.57443 2650 
173 1 0.0219386 -0.014194 -0.0651376 0.000291 -9.94457 -0.148092 -3.34928 2650 
212 1 0.023905 -0.0151441 -0.0644435 0.000291 -9.58766 -0.0434216 -3.55906 2650 
296 1 0.0223783 -0.0116782 -0.0649827 0.000291 -8.99917 -0.033785 -3.09535 2650 
175 1 0.0236655 -0.0116255 -0.0645253 0.000291 -9.40409 0.286095 -3.44935 2650 
90 1 0.0231537 -0.0495175 -0.0639051 0.001058 -10.0322 0.000176565 -3.63481 2650 
171 1 0.0252196 -0.0495379 -0.0631181 0.001058 -9.90723 -0.00270285 -3.95846 2650 
225 1 0.0242064 -0.0477236 -0.0635167 0.001058 -9.96965 -0.00100768 -3.79949 2650 
21 1 0.0294514 -0.0487985 -0.0621028 0.000291 -9.73732 -0.00297087 -4.61801 2650 
14 1 0.0339866 -0.0413551 -0.0597168 0.000291 -9.50413 0.242799 -5.40774 2650 
110 1 0.0367268 -0.00794292 -0.0580785 0.000291 -8.37114 -0.204111 -5.30224 2650 
223 1 0.0378699 -0.0194414 -0.0564306 0.001058 -8.88026 -0.0214516 -5.95906 2650 
304 1 0.0400523 -0.014225 -0.0558143 0.000291 -8.06155 0.17 -5.77966 2650 
186 1 0.0419849 -0.0238579 -0.0534234 0.001058 -8.39333 -0.0103911 -6.59618 2650 
46 1 0.0446583 -0.0229962 -0.0521688 0.000291 -8.11703 0.131193 -6.94214 2650 
85 1 0.0443367 -0.0125237 -0.0524724 0.000291 -7.94633 0.548267 -6.69181 2650 
190 1 0.044408 -0.00979036 -0.0523981 0.000291 -7.10842 0.232664 -5.96277 2650 
261 1 0.0454382 -0.0299173 -0.0515385 0.000291 -8.00405 0.361249 -7.05758 2650 
182 1 0.0449877 -0.0164498 -0.0519103 0.000291 -7.18263 0.221368 -6.21475 2650 
208 1 0.0482269 -0.0308698 -0.0480597 0.001058 -7.54104 0.000133759 -7.5695 2650 
257 1 0.0590201 -0.0488778 -0.0337079 0.001058 -5.29128 0.00105437 -9.26454 2650 
49 1 0.0600181 -0.0490853 -0.0306591 0.00164 -4.81306 -0.000116963 -9.42197 2650 
277 1 0.0612052 -0.0405183 -0.0312467 0.000291 -5.08902 -0.177803 -9.96888 2650 
93 1 0.0622268 -0.0493416 -0.0291861 0.000291 -4.5823 -0.000341215 -9.76989 2650 
165 1 0.0621547 -0.045706 -0.0293456 0.000291 -4.59944 0.00174056 -9.74537 2650 
59 1 0.0617479 -0.0465968 -0.0284179 0.001058 -4.4604 -3.58974e-05 -9.69164 2650 
179 1 0.0619503 -0.0488288 -0.0279694 0.001058 -4.39033 -1.33055e-05 -9.72412 2650 
214 1 0.0663339 -0.0587577 -0.0178919 0.000291 -2.81974 0.260314 -10.4521 2650 
248 1 0.0663219 -0.0233305 -0.0179744 0.000291 -2.80908 0.152211 -10.3638 2650 
295 1 0.0670983 -0.0259556 -0.0147847 0.000291 -2.32053 -0.166116 -10.5164 2650 
29 1 0.06725 -0.0146872 -0.014161 0.000291 -2.30718 0.371043 -10.9568 2650 
138 1 0.0674615 -0.0559907 -0.00810509 0.001058 -1.27198 -0.000629576 -10.586 2650 
146 1 0.0672183 -0.0488611 -0.00997452 0.001058 -1.56542 8.09829e-05 -10.549 2650 
101 1 0.0138255 -0.000235176 -0.00684617 0.000291 -0.00701612 -0.000711223 -0.000860441 2650 
88 1 0.0688801 -0.0102067 0.000875366 0.000105 0.056996 0.260169 -9.38298 2650 
236 1 0.0656825 -0.06164 0.0173966 0.001058 2.7306 -0.000354421 -10.3096 2650 
159 1 0.0652483 -0.0367264 0.0215293 0.000291 3.30484 -0.128146 -10.0116 2650 
247 1 0.0630575 -0.0496606 0.0273435 0.000291 4.29018 -0.00113368 -9.88974 2650 
188 1 0.0615488 -0.061639 0.0287862 0.001058 4.51807 9.99633e-05 -9.66016 2650 
254 1 0.0626786 -0.0503191 0.0281982 0.000291 4.41334 -0.000187169 -9.8469 2650 
218 1 0.0619507 -0.0492069 0.0279671 0.001058 4.38978 9.71783e-05 -9.72417 2650 
40 1 0.0620676 -0.000104998 0.029899 0.000105 4.1265 -0.000320755 -8.55006 2650 
219 1 0.061741 -0.000290977 0.0301474 0.000291 4.17745 0.00030597 -8.55549 2650 
148 1 0.0595593 -0.0531335 0.0327272 0.001058 5.137 -4.87996e-05 -9.34872 2650 
35 1 0.0599895 -0.0508738 0.0319462 0.001058 5.01423 2.84928e-05 -9.41581 2650 
43 1 0.0585058 -0.0500952 0.0345893 0.001058 5.4292 6.59487e-05 -9.18318 2650 
20 1 0.0571355 -0.0555157 0.0367819 0.001058 5.77434 0.000259 -8.96971 2650 
172 1 0.0560568 -0.0546985 0.0384085 0.001058 6.02915 0.000210884 -8.7995 2650 
193 1 0.0555755 -0.0498677 0.0381082 0.00164 5.98246 -2.66044e-05 -8.72458 2650 
42 1 0.0542298 -0.0548063 0.0409439 0.001058 6.42672 0.000207272 -8.51217 2650 
81 1 0.0527883 -0.050012 0.0418707 0.00164 6.5731 0.000403172 -8.28701 2650 
55 1 0.0555847 -0.0136932 0.0404052 0.000291 5.93986 -0.333218 -8.17334 2650 
162 1 0.053359 -0.0473832 0.0420776 0.001058 6.60565 0.000404807 -8.37664 2650 
185 1 0.0502453 -0.0518693 0.0448834 0.00164 7.04613 6.46005e-05 -7.88787 2650 
112 1 0.0513266 -0.0283823 0.0459559 0.000105 7.08938 -0.609906 -7.9172 2650 
34 1 0.0480591 -0.030875 0.0482261 0.001058 7.5711 -1.14266e-07 -7.54489 2650 
125 1 0.0404732 -0.0362605 0.0555122 0.000291 8.75624 0.0522602 -6.38391 2650 
78 1 0.0402009 -0.0330502 0.0557164 0.000291 8.81017 0.224037 -6.35515 2650 
128 1 0.0398888 -0.00360505 0.0561677 0.000105 7.14819 -0.0996162 -5.10197 2650 
26 1 0.0171295 -0.0495443 0.0657729 0.001058 10.3238 -0.000135801 -2.6887 2650 
48 1 0.0109437 -0.0472951 0.0680298 0.000105 10.4892 -0.0905215 -1.68762 2650 
270 1 0.00901988 -0.0230562 0.0681162 0.000291 9.62265 -0.203803 -1.27926 2650 
80 1 0.000813091 0.0288156 -0.0166732 0.000105 0.0200839 0.0212335 0.00050358 2650 
58 1 0.00133694 0.00013328 -0.0142827 0.001058 0.0162124 -0.0049319 0.0138529 2650 
195 1 7.4359e-05 0.00283798 -0.0157917 0.001058 -0.0231018 0.0111382 0.000286857 2650 
97 1 0.00138097 0.0128469 -0.015127 0.00164 0.0190009 0.00833861 0.00331316 2650 
260 1 0.00351791 0.00916174 -0.0121405 0.000291 -0.00996736 0.00469349 0.00488237 2650 
57 1 0.0042296 0.0297215 -0.0136345 0.00164 -0.0109255 0.00355641 0.00766412 2650 
114 1 0.00767071 0.0165554 -0.010715 0.001058 0.0187062 0.0117361 -0.00752779 2650 
33 1 0.00510722 0.0393589 -0.0104362 0.00164 0.00603998 0.0215627 0.00352792 2650 
123 1 0.00934254 0.0556372 -0.0103729 0.001058 -0.0069266 0.0381635 -0.00768552 2650 
153 1 0.00565764 0.00357798 -0.00899384 0.00164 -0.00763413 -0.0014489 0.00703428 2650 
199 1 0.0108694 0.00646717 -0.00829156 0.000291 -0.0066469 0.00203541 -0.00705897 2650 
284 1 0.0103268 0.0159334 -0.00862669 0.000291 -0.00371053 0.00586111 -0.00129449 2650 
249 1 0.0106277 0.0440302 -0.00909661 0.000291 0.00987628 0.0185258 -0.0129358 2650 
161 1 0.013416 0.0105454 -0.00682781 0.00164 -0.000454856 0.00568005 -0.00417258 2650 
19 1 0.0122882 0.013496 -0.00772385 0.001058 -0.00189711 0.0050805 -0.00113271 2650 
176 1 0.0101796 0.00105697 -0.00579063 0.000105 -0.0113334 0.00168079 0.000719247 2650 
52 1 0.012488 0.0589387 -0.00561465 0.001058 -0.00702953 0.0194323 -0.0174178 2650 
258 1 0.00900544 0.0609002 -0.00584583 0.001058 -0.00702738 0.0458888 -0.00817646 2650 
1 1 0.0121256 0.00778304 -0.00397701 0.00164 -0.00396175 0.00352346 -0.00443708 2650 
77 1 0.00454693 0.0122475 -0.00283749 0.000291 -0.0117356 0.000913058 0.0103562 2650 
203 1 0.0156534 0.0417463 -0.000540833 0.001058 -0.00418185 0.0313908 0.00544166 2650 
238 1 0.0139201 0.0611541 -0.00105045 0.001058 -0.00137728 0.0257105 -0.0165728 2650 
106 1 0.00591136 0.0425878 0.00126464 0.001058 0.0119634 0.0223893 -0.0027555 2650 
194 1 0.00855842 0.0513118 0.00121865 0.001058 -0.00717738 0.0355954 0.00284246 2650 
298 1 0.0147865 0.000623361 0.00335924 0.000105 0.00377194 -0.00442838 -0.00799766 2650 
279 1 0.0146181 0.00539734 0.0029636 0.001058 0.00690887 -0.00122776 0.0071413 2650 
92 1 0.0140567 0.00927927 0.00258335 0.001058 0.00298746 0.00292354 0.00546929 2650 
265 1 0.0147222 0.0152107 0.00576105 0.001058 0.00207956 0.00549967 -0.0103769 2650 
156 1 0.0106598 0.00257917 0.00619673 0.001058 -0.00386139 -0.00886559 -0.00604091 2650 
68 1 0.000345715 0.00471408 0.00771113 0.001058 0.00272783 -0.00342387 -0.00169301 2650 
9 1 0.0131859 0.0596311 0.00779321 0.00164 -0.00067168 0.0470366 0.00650688 2650 
273 1 0.00105382 0.0732677 0.00659223 0.001058 0.00511 0.0387776 -0.00978519 2650 
66 1 0.0114386 0.00747822 0.00912821 0.001058 0.00109107 -0.000952032 -0.00287426 2650 
38 1 0.00808187 0.0211831 0.00928377 0.000291 -0.0203804 0.00352473 0.00785771 2650 
105 1 0.00475084 0.0220348 0.00994247 0.00164 -0.00344466 0.00582004 -0.00613861 2650 
41 1 0.000385692 0.024238 0.0110615 0.00164 -0.00672013 0.00866437 -0.0057422 2650 
144 1 0.00442826 0.0279585 0.011289 0.000105 0.0152864 0.0109644 -0.00695946 2650 
147 1 0.011805 0.0451303 0.0104435 0.001058 0.0252931 0.00716023 -0.0290833 2650 
266 1 0.00580456 0.0180661 0.0147601 0.001058 0.0308723 0.0113361 -0.0126236 2650 
244 1 0.00171697 0.0260284 0.0153074 0.001058 0.0230274 0.00239687 -0.0044755 2650 
139 1 0.00258819 0.0279843 0.0156645 0.001058 -0.00528295 0.0230807 -0.00147887 2650 
242 1 0.00660733 0.0489906 0.0146145 0.000291 0.0116924 0.0265357 0.00697501 2650 
124 1 0.00607301 0.0652973 0.0146397 0.001058 0.0237177 0.0354635 -0.00375445 2650 
157 1 0.00310053 0.106205 -0.0132194 0.000291 0.0079085 0.0606548 0.000918149 2650 
