ITEM: TIMESTEP
8396506
ITEM: NUMBER OF ATOMS
296
ITEM: BOX BOUNDS ff ff ff
-0.15 0.15
-0.15 0.15
-0.15 0.15
ITEM: ATOMS id type x y z radius vx vy vz density 
119 1 -0.00978706 -0.039497 -0.068012 0.000291 -9.23538 0.16578 1.33256 2650 
146 1 -0.0155829 -0.048894 -0.0661544 0.001058 -9.47971 -0.0450707 2.24383 2650 
141 1 -0.0184338 -0.0438011 -0.0662097 0.000291 -5.93609 1.02043 1.64905 2650 
138 1 -0.00839474 -0.0451741 -0.067433 0.001058 -9.48164 -0.0147307 1.2089 2650 
179 1 -0.0177307 -0.0490958 -0.0656123 0.001058 -9.35282 0.0108501 2.52005 2650 
178 1 -0.0196427 -0.039063 -0.0650529 0.001058 -4.31269 -1.08156 1.35264 2650 
228 1 -0.022273 -0.0285366 -0.0649933 0.000291 -4.35419 -0.104651 1.47444 2650 
302 1 -0.0206901 -0.0205128 -0.0655336 0.000291 -7.21576 0.371677 2.30515 2650 
64 1 -0.0204888 -0.00859299 -0.0657863 0.000105 -4.00508 -0.123413 1.24389 2650 
29 1 -0.0280976 -0.0258089 -0.0626979 0.000291 -7.23996 0.185181 3.27207 2650 
151 1 -0.0269478 -0.0180413 -0.0632277 0.000291 -6.90591 -0.150934 2.93833 2650 
255 1 -0.0315374 -0.0175681 -0.0610669 0.000291 -8.05376 0.351139 4.15934 2650 
259 1 -0.0346285 -0.0234685 -0.0584667 0.001058 -6.71517 0.0369075 3.95388 2650 
221 1 -0.0432603 -0.0222142 -0.0533815 0.000291 -6.78338 -0.118332 5.4843 2650 
280 1 -0.0437637 -0.0180477 -0.0519777 0.001058 -6.19929 -0.116811 5.24018 2650 
84 1 -0.0446846 -0.0209771 -0.0511851 0.001058 -7.01124 -0.108133 6.11461 2650 
183 1 -0.0452908 -0.0131945 -0.0516674 0.000291 -6.44942 0.571166 5.65389 2650 
90 1 -0.049426 -0.054928 -0.0466234 0.001058 -6.87316 -0.0510913 7.23188 2650 
34 1 -0.0500728 -0.033108 -0.0459296 0.001058 -5.90876 0.0488871 6.43276 2650 
26 1 -0.048639 -0.031691 -0.047444 0.001058 -6.07761 0.0321494 6.28046 2650 
56 1 -0.0526635 -0.0194966 -0.0444188 0.000105 -2.96549 -0.114394 3.58467 2650 
40 1 -0.0537418 -0.00924109 -0.0431096 0.000105 -3.11708 -0.112507 3.87378 2650 
281 1 -0.0603031 -0.0345408 -0.0329239 0.000291 -3.56858 -0.295575 6.54487 2650 
303 1 -0.000487639 -0.00240093 -0.016476 0.000291 -0.0398004 -0.00495339 0.00662732 2650 
237 1 -0.000430214 -0.00210824 -0.0140406 0.001058 -0.0539027 -0.00636539 0.0249699 2650 
85 1 -0.003548 -0.00114129 -0.015444 0.000291 0 -0.011755 0 2650 
130 1 -0.000265659 -0.000214513 -0.0158997 0.001058 -0.00730232 0.00347522 0.00594057 2650 
133 1 -0.0680819 -0.0124754 -0.00918136 0.000291 -1.07622 0.171107 7.8978 2650 
135 1 -0.00650623 -0.000446805 -0.00776742 0.000291 -0.0060505 -0.00140209 -0.0140303 2650 
203 1 -0.000836464 -0.00125352 -0.00704104 0.001058 0.0218056 -0.0245903 0.045373 2650 
169 1 -0.067125 -0.0586185 -0.0056034 0.00164 -0.868502 0.0760726 10.3866 2650 
49 1 -0.0671302 -0.0414757 -0.00516219 0.00164 -0.720876 0.00740405 8.83407 2650 
76 1 -0.000703781 -0.00309726 -0.00540152 0.001058 0.00563223 -0.0106236 0.000699054 2650 
274 1 -0.016349 -0.000242294 -0.002509 0.000291 0 -0.011755 0 2650 
109 1 -0.0687019 -0.0551773 0.000905641 0.000291 0.145663 0.456232 11.0377 2650 
14 1 -0.00637805 -0.0033003 0.00147801 0.000291 -0.00393174 -0.0119076 0.000911119 2650 
296 1 -0.005879 -0.00282229 0.000521 0.000291 0 -0.011755 0 2650 
191 1 -0.0108 -0.00196829 0.001549 0.000291 0 -0.011755 0 2650 
168 1 -0.007536 -0.000957294 0.001389 0.000105 0 -0.011755 0 2650 
98 1 -0.0020565 -0.00202088 0.00215202 0.001058 -0.000872989 -0.0147225 -0.00989819 2650 
97 1 -0.0137044 -0.000179381 0.00291268 0.00164 0.00016333 0.00117645 -0.00616736 2650 
18 1 -0.005138 -0.00176329 0.00212 0.001058 0 -0.011755 0 2650 
53 1 -0.000389 -0.000680294 0.004762 0.000291 0 -0.011755 0 2650 
137 1 -0.0668904 -0.0611594 0.00802901 0.00164 1.12623 0.000384287 9.87623 2650 
43 1 -0.0669566 -0.0314865 0.0115521 0.001058 1.65407 -0.0645575 9.7026 2650 
8 1 -0.0674638 -0.0129595 0.0140397 0.000105 1.0635 -0.212788 4.92665 2650 
226 1 -0.009224 -0.00241129 0.012787 0.000291 0 -0.011755 0 2650 
233 1 -0.00292597 -0.00419269 0.0167908 0.000291 -0.187962 -1.3036 0.689585 2650 
181 1 -0.0613638 -0.0369864 0.0309104 0.000291 3.70648 0.447188 7.31454 2650 
305 1 -0.0594299 -0.0194442 0.034869 0.000105 1.85365 -0.0370385 3.22882 2650 
69 1 -0.0548759 -0.0448994 0.0413597 0.000291 5.37886 -0.104267 7.1551 2650 
42 1 -0.0540062 -0.0438446 0.0412429 0.001058 5.32374 -0.0674091 6.93669 2650 
107 1 -0.0462513 -0.0317307 0.0497735 0.001058 7.08289 -0.0240305 6.58143 2650 
214 1 -0.0207969 -0.0557243 0.0654871 0.000291 5.23339 0.478253 1.60965 2650 
225 1 -0.0220372 -0.0367996 0.0642736 0.001058 8.52474 -0.0526862 2.8759 2650 
184 1 -0.0232225 -0.0087533 0.0648736 0.000105 4.51718 0.277909 1.65358 2650 
73 1 -0.0100347 -0.0536042 0.0666206 0.00164 10.0015 -0.186679 1.48896 2650 
264 1 -0.00882809 -0.0508374 0.0673759 0.001058 9.81339 0.302041 1.31948 2650 
143 1 -0.0109229 -0.0199852 0.0678418 0.000291 5.14203 -0.902344 0.873587 2650 
200 1 -0.00749299 -0.0623007 0.068487 0.000105 7.99703 0.562863 0.887009 2650 
247 1 -0.00656146 -0.0417281 0.0683943 0.000291 9.54851 -0.316903 0.915383 2650 
70 1 -0.002345 0.000660706 -0.015511 0.000291 0 -0.011755 0 2650 
33 1 -0.00285048 0.0108702 -0.0149048 0.00164 0.00499126 0.02337 -0.00956389 2650 
147 1 -0.00151253 0.0189067 -0.0157362 0.001058 -0.0603085 0.0389225 0.0107591 2650 
157 1 -0.00733867 0.0261402 -0.0144314 0.000291 0.0079085 0.0606548 0.000918149 2650 
127 1 -0.00376409 0.0342389 -0.013479 0.000291 0.0331404 0.0647284 -0.0037516 2650 
47 1 -0.0127408 0.00147105 -0.0104618 0.000291 -0.00125586 -0.0105028 0.00427205 2650 
94 1 -0.0115705 0.00578772 -0.0118695 0.000291 8.5498e-05 -0.0117385 8.5498e-05 2650 
234 1 -0.0118107 0.00723963 -0.0113605 0.000291 -0.02134 0.00563614 -0.0027496 2650 
155 1 -0.000826426 0.0471608 -0.0115403 0.001058 0.04057 0.188533 0.00265111 2650 
175 1 -0.013247 0.00134871 -0.008751 0.000291 0 -0.011755 0 2650 
74 1 -0.0118745 0.00469625 -0.00646029 0.001058 0.00156258 -0.00569596 -0.00749774 2650 
75 1 -0.00945663 0.0311767 -0.00674373 0.001058 0.0206685 0.0556886 -0.0248334 2650 
240 1 -0.010392 0.00195071 -0.005262 0.000291 0 -0.011755 0 2650 
276 1 -0.013674 0.00289271 -0.004231 0.000291 0 -0.011755 0 2650 
159 1 -0.012707 0.00588671 -0.00588 0.000291 0 -0.011755 0 2650 
256 1 -0.0160478 0.0105599 -0.00430558 0.000291 -0.00333023 -0.00208616 0.0103813 2650 
115 1 -0.0146894 0.0102044 -0.00517531 0.001058 -0.00655704 0.00527716 0.0172016 2650 
187 1 -0.015032 0.0136011 -0.0046527 0.001058 -0.00403483 0.0166064 0.0136562 2650 
13 1 -0.014201 0.00199271 -0.003882 0.000291 0 -0.011755 0 2650 
104 1 -0.014089 0.00267471 -0.003012 0.000105 0 -0.011755 0 2650 
114 1 -0.0119233 0.0048097 -0.00306949 0.001058 0.00263798 -7.05089e-05 -0.000306371 2650 
10 1 -0.0154538 0.00696266 -0.003441 0.001058 -0.00603352 -0.00346171 -0.00631144 2650 
87 1 -0.00100288 0.00689777 -0.00296784 0.000291 0.0457248 -0.00314239 -0.013726 2650 
38 1 -0.00412749 0.00854896 -0.00393608 0.000291 -0.0300402 0.0227875 -0.0736261 2650 
144 1 -0.0109841 0.0116911 -0.00275549 0.000105 0.00807853 0.0136784 0.0281765 2650 
220 1 -0.0133887 0.018031 -0.00220967 0.000291 0.00605419 0.00724476 0.0145131 2650 
7 1 -0.00636719 0.0197405 -0.0031161 0.000291 0.00378858 0.0136367 -0.000251809 2650 
61 1 -0.016439 0.00560471 -0.001038 0.000291 0 -0.011755 0 2650 
211 1 -0.0131197 0.00414406 -6.21855e-05 0.001058 0.000982608 0.00314487 0.00709992 2650 
77 1 -0.00340173 0.0105296 -0.000463689 0.000291 0.0279429 0.00178097 -0.016803 2650 
41 1 -0.00541542 0.0134614 -0.000700946 0.00164 0.0102042 0.00860529 0.0210319 2650 
65 1 -0.0109774 0.0171454 -0.00143083 0.00164 -0.00454877 0.0138432 0.000335664 2650 
120 1 -0.016055 0.00124471 0.000189 0.000105 0 -0.011755 0 2650 
80 1 -0.014935 0.00394271 0.00039 0.000105 0 -0.011755 0 2650 
250 1 -0.0109907 0.00201642 0.000558357 0.001058 0.00273404 -0.00245883 0.0388004 2650 
268 1 -0.011054 0.00446671 0.000789 0.000291 0 -0.011755 0 2650 
209 1 -0.0138837 0.00652009 0.000315861 0.001058 -0.00415633 0.00564878 0.00501433 2650 
129 1 -0.00617092 0.007418 0.0005466 0.00164 0.00886763 0.000928435 -0.00531986 2650 
52 1 -0.00613604 0.0190345 0.00126427 0.001058 0.0258261 0.0380708 0.00407144 2650 
99 1 -0.00398117 0.00251717 0.00298082 0.001058 0.0243572 -0.0114204 0.00238608 2650 
176 1 -0.00282203 0.00273416 0.00228275 0.000105 0.0253113 -0.0084311 -0.00587015 2650 
164 1 -0.003894 0.00161771 0.005467 0.001058 0 -0.011755 0 2650 
126 1 -0.00258658 0.00146964 0.00440251 0.000291 -0.00909177 -0.0182309 -0.0255133 2650 
266 1 -0.0146781 0.00748979 0.00555652 0.001058 -0.00293207 0.00740435 -0.00807451 2650 
291 1 -0.008194 0.00599171 0.004767 0.000291 0 -0.011755 0 2650 
106 1 -0.00988032 0.0130339 0.0049019 0.001058 0.0119634 0.0223893 -0.0027555 2650 
242 1 -0.00882662 0.0139635 0.0054075 0.000291 0.0116924 0.0265357 0.00697501 2650 
124 1 -0.0147541 0.0177435 0.00559355 0.001058 -0.00517984 0.0356753 0.00690028 2650 
17 1 -0.0103291 0.0175862 0.00565315 0.00164 0.00413739 0.0508387 0.0645068 2650 
28 1 -0.012905 0.0188474 0.00539896 0.001058 -0.0100166 0.0530053 0.00917185 2650 
273 1 -0.00195467 0.0216805 0.00408664 0.001058 -0.00402366 0.037385 0.0311551 2650 
186 1 -0.00618518 0.00397339 0.00655703 0.001058 -4.15282e-05 -0.0115536 6.1062e-05 2650 
71 1 -0.00135989 0.00669093 0.00697064 0.000291 0.000861808 -0.00718564 -0.0173142 2650 
249 1 -0.00240902 0.0195762 0.00797862 0.000291 0.00987628 0.0185258 -0.0129358 2650 
245 1 -0.00179109 0.0510938 0.00624367 0.001058 0.013355 0.0538623 -0.0223836 2650 
58 1 -0.0100781 0.000395303 0.0084945 0.001058 0.00939797 -0.00814862 -0.00719036 2650 
170 1 -0.00953152 0.00321559 0.00952677 0.001058 0.00813908 -0.00598064 0.0087017 2650 
304 1 -0.012709 0.00527271 0.009818 0.000291 0 -0.011755 0 2650 
4 1 -0.0124713 0.0078899 0.00964598 0.001058 0.00473149 0.00103266 0.00625096 2650 
68 1 -0.00325501 0.00923357 0.0099459 0.001058 0.00272783 -0.00342387 -0.00169301 2650 
285 1 -0.0103526 0.000825814 0.0119874 0.001058 -0.00447436 -0.0137973 -0.00560016 2650 
300 1 -0.0116463 0.00209235 0.0107034 0.001058 -0.00420381 -0.00777568 -0.00354571 2650 
299 1 -0.0105863 0.00432669 0.0113917 0.001058 -0.000477082 -0.00417598 0.00910156 2650 
55 1 -0.01171 0.00574071 0.01034 0.000291 0 -0.011755 0 2650 
217 1 -0.00983917 0.0245726 0.0103058 0.001058 0.000747792 0.0265619 -0.00553463 2650 
224 1 -0.00759658 0.0120997 0.0137293 0.001058 -0.00376938 0.00554818 0.00221201 2650 
238 1 -0.00303909 0.0222592 0.0135694 0.001058 0.0207771 0.0325148 -0.00733364 2650 
54 1 -0.00219626 0.0296494 0.0157635 0.000291 0.0526685 0.00955407 -0.0227648 2650 
235 1 0.0010316 -0.00615349 -0.0687003 0.000291 -8.71576 0.259408 -0.124307 2650 
236 1 0.0138496 -0.0493728 -0.0665365 0.001058 -9.70888 -0.0614416 -2.01688 2650 
108 1 0.0135294 -0.0266382 -0.0665852 0.001058 -5.19941 0.0531495 -1.03276 2650 
152 1 0.0151138 -0.0181897 -0.0672307 0.000105 -4.72421 -0.399676 -1.1006 2650 
30 1 0.0133565 -0.0076558 -0.067404 0.000291 -5.13294 0.353922 -1.04909 2650 
248 1 0.0109814 -0.000327798 -0.0678249 0.000291 -8.38167 0.996094 -1.35397 2650 
148 1 0.0273688 -0.0434655 -0.0622135 0.001058 -9.07409 -0.0441601 -3.98529 2650 
158 1 0.027164 -0.0102574 -0.0631292 0.000291 -7.97007 0.287113 -3.40176 2650 
267 1 0.0289418 -0.00595555 -0.0623171 0.000291 -6.49483 -0.202893 -3.05443 2650 
132 1 0.0315696 -0.0155618 -0.0601957 0.001058 -7.70356 0.0331275 -4.05178 2650 
182 1 0.0301207 -0.0131499 -0.0617792 0.000291 -7.74852 -0.197039 -3.78277 2650 
162 1 0.0394134 -0.02264 -0.0553354 0.001058 -7.22831 0.134026 -5.1169 2650 
277 1 0.0455894 -0.0130875 -0.0513468 0.000291 -6.22886 -0.924926 -5.51353 2650 
218 1 0.0465845 -0.0315487 -0.0494628 0.001058 -7.14997 -0.0111553 -6.73442 2650 
149 1 0.0473575 -0.0296042 -0.0497681 0.000291 -5.97819 -0.057508 -5.65172 2650 
188 1 0.0548199 -0.0612675 -0.0401454 0.001058 -5.93677 -0.00844542 -8.0997 2650 
189 1 0.0550955 -0.0436668 -0.0410656 0.000291 -4.97854 -0.00385786 -6.67716 2650 
36 1 0.0535354 -0.0316561 -0.0418406 0.001058 -5.99958 -0.0540528 -7.70863 2650 
22 1 0.0571208 -0.0213831 -0.0381974 0.000291 -5.13456 -0.286011 -7.68392 2650 
44 1 0.0552393 -0.0165106 -0.0395838 0.001058 -4.74229 -0.0642479 -6.61247 2650 
86 1 0.0604646 -0.0102092 -0.0326661 0.000291 -2.79717 -0.188462 -5.26299 2650 
173 1 0.0605731 -0.00547852 -0.0324314 0.000291 -3.89415 -0.467554 -7.25839 2650 
16 1 0.0651199 -0.00188182 -0.0224754 0.000105 -2.5175 0.097933 -7.32339 2650 
282 1 0.0655951 -0.0243326 -0.0204518 0.000291 -1.75264 -0.158386 -5.59506 2650 
172 1 0.065982 -0.047299 -0.0162731 0.001058 -2.4736 -0.0308181 -9.89589 2650 
46 1 0.007499 -0.00328429 -0.014091 0.000291 0 -0.011755 0 2650 
269 1 0.002277 -0.000457294 -0.015181 0.000291 0 -0.011755 0 2650 
160 1 0.004468 -0.00159829 -0.014641 0.000105 0 -0.011755 0 2650 
289 1 0.001465 -3.42937e-05 -0.012477 0.000291 0 -0.011755 0 2650 
263 1 0.006877 -0.00120129 -0.012319 0.000291 0 -0.011755 0 2650 
20 1 0.0669435 -0.0443375 -0.0116653 0.001058 -1.78416 -0.155493 -10.1553 2650 
196 1 0.002599 -0.00272829 -0.011929 0.001058 0 -0.011755 0 2650 
201 1 0.00931299 -0.00108699 -0.0117091 0.00164 0.00137105 -0.0114185 -0.003869 2650 
23 1 0.0680775 -0.0334139 -0.00926447 0.000291 -1.38988 0.375649 -10.2268 2650 
193 1 0.0669855 -0.0465763 -0.00697528 0.00164 -1.06967 0.149959 -10.2164 2650 
102 1 0.003423 -0.00129629 -0.006065 0.000291 0 -0.011755 0 2650 
117 1 0.004754 -0.00103429 -0.007063 0.000291 0 -0.011755 0 2650 
246 1 0.001376 -0.00179529 -0.005453 0.001058 0 -0.011755 0 2650 
229 1 0.0678672 -0.0503874 -0.00215116 0.001058 -0.302519 0.130505 -10.1362 2650 
197 1 0.0686436 -0.00594944 -0.00296833 0.000291 -0.304078 0.57955 -7.36285 2650 
88 1 0.002864 -0.00316929 -0.002457 0.000105 0 -0.011755 0 2650 
270 1 0.00238566 -0.00286196 -0.00342795 0.000291 -0.00136788 -0.0183096 -0.00635377 2650 
205 1 0.000908755 -0.00161605 -0.00118166 0.000291 -0.0212393 0.00831856 -0.0510728 2650 
177 1 0.00322838 -0.000913317 -0.00181553 0.00164 -0.00966503 -0.00602483 0.00423439 2650 
59 1 0.00123551 -0.00243211 8.38413e-05 0.001058 -0.0198666 -0.0100501 -0.0494142 2650 
96 1 0.009869 -0.00303929 0.000788 0.000105 0 -0.011755 0 2650 
81 1 0.007451 -0.00167629 7.8e-05 0.00164 0 -0.011755 0 2650 
261 1 0.011218 -0.00150029 0.000328 0.000291 0 -0.011755 0 2650 
288 1 0.068635 -0.0439975 0.00315698 0.000291 0.464889 0.198092 -10.0317 2650 
210 1 0.010971 -0.00234629 0.002357 0.001058 0 -0.011755 0 2650 
32 1 0.0687581 -0.0318699 0.00432033 0.000105 0.678996 0.480205 -10.8115 2650 
204 1 0.0677044 -0.0216777 0.00473017 0.001058 0.534772 0.0861514 -7.58255 2650 
50 1 0.006699 -0.00325929 0.005883 0.001058 0 -0.011755 0 2650 
223 1 0.0105073 -0.00189653 0.00478335 0.001058 0.0244252 -0.00835069 0.00805578 2650 
207 1 0.000324 -0.00182029 0.006532 0.000291 0 -0.011755 0 2650 
251 1 0.0672934 -0.0151969 0.00941846 0.001058 1.12162 -0.0625624 -7.37521 2650 
118 1 0.0679686 -0.0132603 0.010053 0.000291 0.838862 -0.327648 -6.1908 2650 
254 1 0.0678857 -0.0136022 0.0105559 0.000291 0.938125 -0.459151 -6.21416 2650 
103 1 0.005979 -0.000802294 0.01127 0.000291 0 -0.011755 0 2650 
241 1 0.0673771 -0.0116534 0.0134601 0.000291 1.34173 0.377805 -6.49005 2650 
3 1 0.00917794 -0.000996821 0.0126902 0.001058 -0.00211489 -0.0052299 0.000123346 2650 
185 1 0.0659005 -0.0339638 0.0140004 0.00164 2.05184 -0.057529 -9.62962 2650 
82 1 0.000755 -0.00183329 0.014898 0.001058 0 -0.011755 0 2650 
206 1 0.065863 -0.0212298 0.0196148 0.000291 2.33944 0.63264 -7.86549 2650 
150 1 0.0574372 -0.0159288 0.0243499 0.000291 8.74168 -1.20981 3.7161 2650 
131 1 0.0618555 -0.0262105 0.0281126 0.001058 3.88939 -0.116276 -8.50871 2650 
213 1 0.0627369 -0.0123332 0.0280681 0.000291 1.94228 -0.150828 -4.32997 2650 
39 1 0.0610273 -0.0451945 0.0316168 0.000291 4.31753 -1.26072 -8.32441 2650 
243 1 0.0592712 -0.0415628 0.0332533 0.001058 4.76889 -0.0682466 -8.51579 2650 
257 1 0.0541782 -0.0445159 0.0410199 0.001058 6.15902 0.121828 -8.13497 2650 
122 1 0.054219 -0.013051 0.0409609 0.001058 4.3094 -0.261977 -5.75454 2650 
21 1 0.0508537 -0.0407467 0.0462023 0.000291 6.42605 -0.278094 -7.07132 2650 
62 1 0.0484887 -0.0286149 0.0486785 0.000291 5.43851 -0.35517 -5.41416 2650 
89 1 0.0446305 -0.0551309 0.0504245 0.00164 7.40807 0.205418 -6.553 2650 
166 1 0.0450746 -0.00985898 0.0517123 0.000291 5.79142 0.045489 -5.04165 2650 
174 1 0.0186644 -0.00444689 0.0511156 0.000291 2.90824 -0.118949 7.96471 2650 
230 1 0.0326622 -0.0485414 0.0596043 0.001058 8.49576 -0.0683237 -4.64809 2650 
239 1 0.0322741 -0.0451112 0.0598158 0.001058 8.54442 -0.183578 -4.59489 2650 
15 1 0.0342374 -0.0213028 0.0595816 0.000291 5.69938 0.0735632 -3.27205 2650 
215 1 0.031217 -0.0468574 0.0603786 0.001058 8.51193 -0.106498 -4.42524 2650 
290 1 0.0331074 -0.0388262 0.0602106 0.000291 8.76287 0.23647 -4.82473 2650 
2 1 0.0299709 -0.0298919 0.0609794 0.001058 8.34557 -0.0994505 -4.12059 2650 
167 1 0.0318983 -0.0117805 0.0608763 0.000291 7.41942 -0.713341 -3.88105 2650 
93 1 0.0292013 -0.0372034 0.0621953 0.000291 8.7538 0.522744 -4.10808 2650 
72 1 0.0262338 -0.0252655 0.063703 0.000105 9.13559 -0.305024 -3.76841 2650 
171 1 0.0172877 -0.0377375 0.0657148 0.001058 9.5049 -0.630927 -2.4993 2650 
121 1 0.0147775 -0.0339295 0.0657294 0.00164 9.53302 -0.055544 -2.12929 2650 
125 1 0.0235002 -0.0250933 0.0645644 0.000291 8.55391 -0.265498 -3.12529 2650 
192 1 0.0229292 -0.000105024 0.0649654 0.000105 7.25557 0.00236461 -2.55137 2650 
25 1 0.00388844 -0.0611592 0.0672637 0.00164 10.2309 -0.00681346 -0.605117 2650 
83 1 0.0128744 -0.0372776 0.0667196 0.001058 9.40858 -0.036761 -1.83086 2650 
140 1 0.000331404 -0.0321209 0.0679473 0.001058 9.61923 -0.0704105 -0.0355235 2650 
63 1 0.0112026 -0.031787 0.0677884 0.000291 9.44852 -0.319627 -1.56364 2650 
272 1 0.000218164 -0.0247364 0.067946 0.001058 8.08992 -0.0332232 0.00890836 2650 
6 1 0.0179823 -0.0202621 0.0663289 0.000291 8.72419 0.740376 -2.37455 2650 
111 1 0.00604911 -0.030015 0.0684425 0.000291 8.46085 -0.238536 -0.751625 2650 
165 1 0.00893497 -0.029166 0.0681238 0.000291 8.12738 0.314094 -1.05768 2650 
283 1 0.00445883 -0.0252588 0.068562 0.000291 8.49048 -0.406419 -0.556472 2650 
295 1 0.00647709 -0.0212004 0.0684031 0.000291 7.94072 -0.319052 -0.744966 2650 
219 1 0.00523547 -0.000290997 0.0685086 0.000291 7.76518 -0.00125813 -0.58239 2650 
37 1 0.006156 0.00530471 -0.015157 0.000291 0 -0.011755 0 2650 
180 1 0.00506385 0.0263742 -0.0143386 0.001058 0.0523606 0.0717115 0.0275313 2650 
154 1 0.00279439 0.0573845 -0.0146412 0.001058 -0.025218 0.0914679 0.0181079 2650 
142 1 0.002378 0.000380706 -0.013184 0.000291 0 -0.011755 0 2650 
252 1 0.00245 0.00367571 -0.01336 0.001058 0 -0.011755 0 2650 
78 1 0.001258 0.00529071 -0.012517 0.000291 0 -0.011755 0 2650 
275 1 0.012705 0.00303771 -0.010476 0.000291 0 -0.011755 0 2650 
67 1 0.000451687 0.00787612 -0.0112593 0.001058 -0.020884 0.0142907 -0.00966941 2650 
134 1 0.00759309 0.00396268 -0.00861301 0.000291 -0.0128132 0.00355392 -0.00692922 2650 
198 1 0.013464 0.0101017 -0.00970645 0.000291 0.0585511 0.0183945 0.0670621 2650 
60 1 0.007579 0.00160671 -0.006312 0.001058 0 -0.011755 0 2650 
45 1 0.010575 0.00152671 -0.007722 0.000291 0 -0.011755 0 2650 
260 1 0.0100415 0.0029478 -0.00662133 0.000291 -0.00392275 0.00411325 -0.00447499 2650 
19 1 0.0142601 0.00671595 -0.00601239 0.001058 0.0022695 0.00565847 -0.00282567 2650 
105 1 0.00812506 0.00903725 -0.00704174 0.00164 0.00091231 0.0106728 0.0284417 2650 
284 1 0.0150951 0.00818058 -0.00686086 0.000291 0.00515653 0.00696942 -0.00520094 2650 
161 1 0.0134535 0.00374543 -0.00442719 0.00164 0.000907452 0.00399164 0.00334652 2650 
278 1 7.4e-05 0.00411771 -0.004448 0.001058 0 -0.011755 0 2650 
92 1 0.0101133 0.0054202 -0.00463611 0.001058 0.00298746 0.00292354 0.00546929 2650 
279 1 0.00896253 0.00668776 -0.00591675 0.001058 -0.00585416 -0.000170086 0.00510934 2650 
139 1 0.00934048 0.0182518 -0.00470584 0.001058 0.0127696 0.00849352 0.0230521 2650 
253 1 0.014729 0.000375706 -0.002617 0.000291 0 -0.011755 0 2650 
271 1 0.00690923 0.00393166 -0.00253335 0.001058 0.0150184 -0.010407 0.010297 2650 
227 1 0.00944 0.00220471 -0.002109 0.000291 0 -0.011755 0 2650 
110 1 0.00504815 0.00512547 -0.00201672 0.000291 -0.0169259 -0.0135844 0.0488079 2650 
199 1 0.0161756 0.00439983 -0.00384201 0.000291 0.00855734 0.000154616 0.00359965 2650 
123 1 0.00330079 0.0105646 -0.00209204 0.001058 0.0354386 0.020018 -0.000637314 2650 
113 1 0.0102914 0.000215107 -0.000933126 0.00164 -0.000152922 -0.0104668 0.00259679 2650 
190 1 0.005899 0.00490671 -0.000534 0.000291 0 -0.011755 0 2650 
48 1 0.009671 0.00279871 0.000233 0.000105 0 -0.011755 0 2650 
244 1 0.0155781 0.00346919 0.00144551 0.001058 -0.00121335 -0.0094075 -0.0354574 2650 
128 1 0.00361 0.00450571 0.000511 0.000105 0 -0.011755 0 2650 
9 1 0.012984 0.00454371 0.000468 0.00164 0 -0.011755 0 2650 
286 1 0.015584 0.00521171 0.000132 0.001058 0 -0.011755 0 2650 
232 1 0.0152214 0.00777395 0.00109727 0.001058 0.0225908 0.0355672 -0.0424833 2650 
116 1 0.0121259 0.0199361 0.00114971 0.001058 0.0382435 0.0489782 0.0372506 2650 
301 1 0.00573046 0.024491 0.00175952 0.001058 0.00272587 0.0220862 -0.0290146 2650 
208 1 0.0152152 0.000116625 0.00344523 0.001058 0.00528618 -0.0283184 -0.0333125 2650 
101 1 0.004812 0.00322871 0.002517 0.000291 0 -0.011755 0 2650 
294 1 0.006997 0.00251271 0.003581 0.001058 0 -0.011755 0 2650 
194 1 0.0147909 0.00463914 0.00380081 0.001058 -0.00784002 0.0113692 -0.028755 2650 
293 1 0.0145858 0.0143787 0.00231549 0.001058 0.0237572 0.0710344 -0.104438 2650 
35 1 0.00127453 0.000326761 0.00425137 0.001058 0.00654177 -0.0105187 -0.00962265 2650 
212 1 0.001087 0.00302271 0.005915 0.000291 0 -0.011755 0 2650 
202 1 0.00257058 0.00204511 0.00542162 0.001058 0.00953014 -0.00871599 -0.0138173 2650 
24 1 0.005464 0.00259471 0.005551 0.000105 0 -0.011755 0 2650 
51 1 0.009662 0.00366771 0.004577 0.001058 0 -0.011755 0 2650 
79 1 0.014214 0.00550771 0.005058 0.000291 0 -0.011755 0 2650 
153 1 0.00138989 0.00743389 0.004402 0.00164 0.00905173 -0.00370467 -0.0193596 2650 
145 1 0.00460849 0.00361549 0.00785421 0.00164 0.00142123 -0.0121074 -0.00172265 2650 
231 1 0.00679467 0.00199276 0.00729264 0.001058 0.00167534 -0.0128877 -0.000760445 2650 
1 1 0.0122714 0.00198377 0.00656265 0.00164 0.00588729 0.00743877 -0.0258753 2650 
222 1 0.009219 0.00486671 0.006833 0.001058 0 -0.011755 0 2650 
112 1 0.013668 0.00583071 0.007002 0.000105 0 -0.011755 0 2650 
292 1 0.00805481 0.018544 0.00706096 0.001058 0.0469404 0.0480946 0.0370303 2650 
163 1 0.01077 0.0439436 0.0068429 0.001058 -0.0646454 0.16688 0.0888818 2650 
100 1 0.00794993 0.000900018 0.00931904 0.001058 0.00912399 -0.0117578 -0.00681185 2650 
258 1 0.0130066 0.0076373 0.00808151 0.001058 0.00615004 0.0226911 -0.0182162 2650 
287 1 0.0105701 0.0016081 0.0104044 0.001058 -0.001802 -0.0123869 -0.0168129 2650 
66 1 0.00648383 0.00861925 0.0118182 0.001058 0.00846641 -0.000759158 0.00162513 2650 
156 1 0.00476122 0.0118683 0.0106818 0.001058 0.00957299 -0.000303602 -0.00985815 2650 
195 1 0.00750454 0.00149185 0.0124385 0.001058 0.0422505 -0.00642479 -0.0231176 2650 
95 1 0.00680444 0.00319228 0.0138542 0.000291 -0.000366951 -0.00495937 0.00220646 2650 
298 1 0.0093753 0.00654849 0.0133578 0.000105 0.012752 -0.00608362 0.00360111 2650 
57 1 0.00540489 0.0214473 0.0121744 0.00164 0.0230994 0.0154402 0.0436737 2650 
265 1 0.00246526 0.0068998 0.0147853 0.001058 0.011667 0.00657701 -0.00499144 2650 
136 1 0.00160544 0.0788357 -0.000162716 0.000105 0.0375902 0.10168 0.0199891 2650 
