ITEM: TIMESTEP
8026072
ITEM: NUMBER OF ATOMS
297
ITEM: BOX BOUNDS ff ff ff
-0.15 0.15
-0.15 0.15
-0.15 0.15
ITEM: ATOMS id type x y z radius vx vy vz density 
39 1 -0.00955748 -0.00921838 -0.068045 0.000291 -9.27182 -0.105277 1.30325 2650 
192 1 -0.0100418 -0.000105248 -0.0681572 0.000105 -7.54152 0.00908968 1.11353 2650 
288 1 -0.0185131 -0.0442427 -0.0661865 0.000291 -9.60867 -0.223316 2.68524 2650 
185 1 -0.0111758 -0.0324004 -0.0664375 0.00164 -9.50993 -0.0423832 1.59198 2650 
131 1 -0.0125376 -0.0300937 -0.066779 0.001058 -9.04472 0.298276 1.68712 2650 
23 1 -0.0238382 -0.0468253 -0.0644674 0.000291 -9.15401 0.313132 3.38416 2650 
229 1 -0.0188074 -0.0471483 -0.0653157 0.001058 -9.55125 0.184793 2.7125 2650 
20 1 -0.0250876 -0.0458732 -0.063174 0.001058 -9.43272 0.17009 3.74655 2650 
193 1 -0.0221305 -0.0461532 -0.0636619 0.00164 -9.38319 -0.144479 3.2381 2650 
32 1 -0.0301406 -0.0402579 -0.061964 0.000105 -7.94445 -0.305 3.863 2650 
172 1 -0.0316984 -0.0477762 -0.0601274 0.001058 -8.92914 0.0193195 4.70969 2650 
200 1 -0.034119 -0.0271597 -0.0598474 0.000105 -3.97848 -0.868776 2.29784 2650 
214 1 -0.0346377 -0.0570913 -0.0593388 0.000291 -4.19855 -0.885013 2.43328 2650 
305 1 -0.0343501 -0.0150256 -0.0597446 0.000105 -3.06931 -0.228545 1.74365 2650 
166 1 -0.0366633 -0.0084224 -0.0581182 0.000291 -6.33841 -0.0477188 3.97685 2650 
62 1 -0.0388282 -0.019391 -0.0566975 0.000291 -6.23186 -0.106249 4.25975 2650 
184 1 -0.0460338 -0.0184338 -0.0512554 0.000105 -3.49783 0.270842 3.10557 2650 
143 1 -0.0469508 -0.00102751 -0.0501648 0.000291 -3.65726 -0.214701 3.4017 2650 
15 1 -0.0504138 -0.0185347 -0.04661 0.000291 -4.44305 -0.248185 4.66875 2650 
206 1 -0.0521483 -0.0319242 -0.0447371 0.000291 -5.26266 -0.234288 6.11921 2650 
188 1 -0.0543399 -0.061467 -0.0407908 0.001058 -5.95293 -0.0208959 7.96547 2650 
122 1 -0.056775 -0.00736483 -0.0373342 0.001058 -3.73358 0.0116102 5.61962 2650 
36 1 -0.0603781 -0.0319423 -0.0311631 0.001058 -4.40837 0.0393078 8.54617 2650 
218 1 -0.0638548 -0.0324327 -0.0232161 0.001058 -3.31619 0.016585 9.11269 2650 
22 1 -0.0654511 -0.0319831 -0.020901 0.000291 -2.63288 0.192966 8.21258 2650 
85 1 -0.003548 -0.000788648 -0.015444 0.000291 0 -0.011755 0 2650 
204 1 -0.0668786 -0.0215264 -0.0120333 0.001058 -1.28098 -0.187457 7.04693 2650 
251 1 -0.0666453 -0.0140249 -0.0133034 0.001058 -1.36705 0.0133371 6.90039 2650 
254 1 -0.0677386 -0.00952337 -0.0115492 0.000291 -1.22422 0.199885 7.16887 2650 
197 1 -0.0681142 -0.00512963 -0.00901161 0.000291 -0.999567 -0.261184 7.56114 2650 
203 1 -0.00149062 -0.000515815 -0.00840221 0.001058 0.0218056 -0.0245903 0.045373 2650 
135 1 -0.00632472 -0.000404743 -0.00734652 0.000291 -0.0060505 -0.00140209 -0.0140303 2650 
148 1 -0.067861 -0.0424451 -0.00338363 0.001058 -0.503363 -0.0623388 9.77388 2650 
76 1 -0.000872745 -0.00277856 -0.0054225 0.001058 0.00563223 -0.0106236 0.000699054 2650 
14 1 -0.006378 -0.00294765 0.001478 0.000291 0 -0.011755 0 2650 
296 1 -0.005879 -0.00246965 0.000521 0.000291 0 -0.011755 0 2650 
191 1 -0.0108 -0.00161565 0.001549 0.000291 0 -0.011755 0 2650 
168 1 -0.007536 -0.000604648 0.001389 0.000105 0 -0.011755 0 2650 
173 1 -0.0685634 -0.0142966 0.00385564 0.000291 0.494155 0.913068 8.16282 2650 
97 1 -0.0137093 -0.000214675 0.0030977 0.00164 0.00016333 0.00117645 -0.00616736 2650 
18 1 -0.005138 -0.00141065 0.00212 0.001058 0 -0.011755 0 2650 
98 1 -0.00203031 -0.00157921 0.00244896 0.001058 -0.000872989 -0.0147225 -0.00989819 2650 
241 1 -0.0684588 -0.0262322 0.00574855 0.000291 0.586393 0.35753 6.45102 2650 
53 1 -0.000389 -0.000327648 0.004762 0.000291 0 -0.011755 0 2650 
16 1 -0.0684491 -0.00709005 0.0077412 0.000105 0.908456 0.159443 7.64375 2650 
236 1 -0.0672064 -0.0486076 0.010058 0.001058 1.44703 0.0123525 9.6814 2650 
189 1 -0.0677545 -0.0285289 0.0113821 0.000291 1.3666 -0.751681 8.10465 2650 
233 1 -0.001796 -0.00303065 0.010436 0.000291 0 -0.011755 0 2650 
226 1 -0.009224 -0.00205865 0.012787 0.000291 0 -0.011755 0 2650 
162 1 -0.065969 -0.0250602 0.0162772 0.001058 2.10047 0.0271802 8.34893 2650 
44 1 -0.066086 -0.0193915 0.0157939 0.001058 1.85646 0.133511 7.61854 2650 
149 1 -0.0637025 -0.0301516 0.0257468 0.000291 3.04698 0.0577404 7.52535 2650 
277 1 -0.0633586 -0.00474858 0.0265753 0.000291 3.1578 0.538537 7.53377 2650 
132 1 -0.0613824 -0.0194526 0.0291805 0.001058 3.58718 0.07262 7.63333 2650 
182 1 -0.0600811 -0.0138575 0.0333759 0.000291 4.14366 0.252307 7.47499 2650 
158 1 -0.059034 -0.0253979 0.0351519 0.000291 4.38997 0.28822 7.37143 2650 
146 1 -0.0536556 -0.048851 0.0416475 0.001058 5.98558 0.0722744 7.7227 2650 
138 1 -0.053837 -0.0449101 0.041453 0.001058 5.74227 0.0062986 7.4984 2650 
179 1 -0.0521668 -0.0486458 0.0435128 0.001058 6.26534 0.0955956 7.54913 2650 
213 1 -0.0526404 -0.0109247 0.0441583 0.000291 2.87643 0.0564784 3.47766 2650 
235 1 -0.0423033 -0.0230368 0.0541427 0.000291 6.81856 0.452462 5.31511 2650 
282 1 -0.0417304 -0.0174732 0.054592 0.000291 4.59736 -0.0960236 3.50035 2650 
119 1 -0.0376086 -0.0405154 0.0575126 0.000291 6.62635 -0.689925 4.34641 2650 
118 1 -0.0381277 -0.0175522 0.0571759 0.000291 3.44983 0.124347 2.32782 2650 
90 1 -0.0274102 -0.0553556 0.0621777 0.001058 8.98167 0.0172932 3.97726 2650 
86 1 -0.032994 -0.00627872 0.0602719 0.000291 5.08641 -0.0193162 2.75972 2650 
267 1 -0.0266573 -0.00704164 0.0633321 0.000291 6.48057 0.286742 2.74821 2650 
248 1 -0.0229551 -0.0498057 0.0647839 0.000291 4.43829 0.136935 1.59218 2650 
255 1 -0.0222049 -0.0202808 0.065038 0.000291 8.51968 -0.31006 2.90912 2650 
183 1 -0.0115533 -0.0199301 0.0676975 0.000291 9.73013 0.0296272 1.67525 2650 
84 1 -0.0131449 -0.0198548 0.0666729 0.001058 8.93086 0.0785816 1.77232 2650 
70 1 -0.002345 0.00101335 -0.015511 0.000291 0 -0.011755 0 2650 
33 1 -0.00300022 0.0101691 -0.0146179 0.00164 0.00499126 0.02337 -0.00956389 2650 
157 1 -0.00757592 0.0243206 -0.0144589 0.000291 0.0079085 0.0606548 0.000918149 2650 
127 1 -0.00475828 0.0322971 -0.0133665 0.000291 0.0331404 0.0647284 -0.0037516 2650 
47 1 -0.0127031 0.00178613 -0.01059 0.000291 -0.00125586 -0.0105028 0.00427205 2650 
94 1 -0.0115731 0.00613987 -0.0118721 0.000291 8.5498e-05 -0.0117385 8.5498e-05 2650 
234 1 -0.0111705 0.00707055 -0.011278 0.000291 -0.02134 0.00563614 -0.0027496 2650 
155 1 -0.00204351 0.0415049 -0.0116198 0.001058 0.04057 0.188533 0.00265111 2650 
175 1 -0.013247 0.00170135 -0.008751 0.000291 0 -0.011755 0 2650 
74 1 -0.0119214 0.00486712 -0.00623536 0.001058 0.00156258 -0.00569596 -0.00749774 2650 
276 1 -0.013674 0.00324535 -0.004231 0.000291 0 -0.011755 0 2650 
240 1 -0.010392 0.00230335 -0.005262 0.000291 0 -0.011755 0 2650 
159 1 -0.012707 0.00623935 -0.00588 0.000291 0 -0.011755 0 2650 
256 1 -0.0159479 0.0106225 -0.00461702 0.000291 -0.00333023 -0.00208616 0.0103813 2650 
115 1 -0.0144927 0.0100461 -0.00569135 0.001058 -0.00655704 0.00527716 0.0172016 2650 
187 1 -0.0149109 0.0131029 -0.00506238 0.001058 -0.00403483 0.0166064 0.0136562 2650 
75 1 -0.0100767 0.0295061 -0.00599874 0.001058 0.0206685 0.0556886 -0.0248334 2650 
274 1 -0.016349 0.000110352 -0.002509 0.000291 0 -0.011755 0 2650 
13 1 -0.014201 0.00234535 -0.003882 0.000291 0 -0.011755 0 2650 
104 1 -0.014089 0.00302735 -0.003012 0.000105 0 -0.011755 0 2650 
114 1 -0.0120025 0.00481181 -0.0030603 0.001058 0.00263798 -7.05089e-05 -0.000306371 2650 
10 1 -0.0152728 0.00706651 -0.00325166 0.001058 -0.00603352 -0.00346171 -0.00631144 2650 
87 1 -0.0023746 0.00699204 -0.00255606 0.000291 0.0457248 -0.00314239 -0.013726 2650 
144 1 -0.0112265 0.0112808 -0.00360078 0.000105 0.00807853 0.0136784 0.0281765 2650 
220 1 -0.0135703 0.0178136 -0.00264506 0.000291 0.00605419 0.00724476 0.0145131 2650 
7 1 -0.00648085 0.0193314 -0.00310854 0.000291 0.00378858 0.0136367 -0.000251809 2650 
250 1 -0.0110727 0.00209018 -0.000605638 0.001058 0.00273404 -0.00245883 0.0388004 2650 
211 1 -0.0131492 0.00404971 -0.00027518 0.001058 0.000982608 0.00314487 0.00709992 2650 
61 1 -0.016439 0.00595735 -0.001038 0.000291 0 -0.011755 0 2650 
38 1 -0.0032263 0.00786534 -0.00172733 0.000291 -0.0300402 0.0227875 -0.0736261 2650 
41 1 -0.00572154 0.0132032 -0.00133189 0.00164 0.0102042 0.00860529 0.0210319 2650 
65 1 -0.0108409 0.0167301 -0.0014409 0.00164 -0.00454877 0.0138432 0.000335664 2650 
120 1 -0.016055 0.00159735 0.000189 0.000105 0 -0.011755 0 2650 
80 1 -0.014935 0.00429535 0.00039 0.000105 0 -0.011755 0 2650 
268 1 -0.011054 0.00481935 0.000789 0.000291 0 -0.011755 0 2650 
209 1 -0.013759 0.00635063 0.000165433 0.001058 -0.00415633 0.00564878 0.00501433 2650 
129 1 -0.00643694 0.00739015 0.000706194 0.00164 0.00886763 0.000928435 -0.00531986 2650 
77 1 -0.00424001 0.0104762 4.03944e-05 0.000291 0.0279429 0.00178097 -0.016803 2650 
52 1 -0.00691081 0.0178924 0.00114213 0.001058 0.0258261 0.0380708 0.00407144 2650 
99 1 -0.00471187 0.00285978 0.00290924 0.001058 0.0243572 -0.0114204 0.00238608 2650 
176 1 -0.00358136 0.00298709 0.00245885 0.000105 0.0253113 -0.0084311 -0.00587015 2650 
17 1 -0.010366 0.016011 0.00368275 0.00164 -0.00279267 0.0548111 0.0673045 2650 
273 1 -0.00183396 0.0205589 0.003152 0.001058 -0.00402366 0.037385 0.0311551 2650 
164 1 -0.003894 0.00197035 0.005467 0.001058 0 -0.011755 0 2650 
126 1 -0.00231383 0.00201656 0.0051679 0.000291 -0.00909177 -0.0182309 -0.0255133 2650 
266 1 -0.0145901 0.00726766 0.00579876 0.001058 -0.00293207 0.00740435 -0.00807451 2650 
291 1 -0.008194 0.00634435 0.004767 0.000291 0 -0.011755 0 2650 
106 1 -0.0102392 0.0123622 0.00498456 0.001058 0.0119634 0.0223893 -0.0027555 2650 
242 1 -0.00917738 0.0131675 0.00519825 0.000291 0.0116924 0.0265357 0.00697501 2650 
124 1 -0.0147522 0.0166144 0.00541116 0.001058 0.00394217 0.0391742 0.00543717 2650 
28 1 -0.012776 0.0175024 0.00523038 0.001058 0.00667276 0.0347111 0.000214972 2650 
186 1 -0.00618394 0.00431999 0.0065552 0.001058 -4.15282e-05 -0.0115536 6.1062e-05 2650 
71 1 -0.00138574 0.0069065 0.00749006 0.000291 0.000861808 -0.00718564 -0.0173142 2650 
245 1 -0.00219174 0.0494779 0.00691517 0.001058 0.013355 0.0538623 -0.0223836 2650 
58 1 -0.01036 0.000639758 0.00871021 0.001058 0.00939797 -0.00814862 -0.00719036 2650 
170 1 -0.00977569 0.00339501 0.00926573 0.001058 0.00813908 -0.00598064 0.0087017 2650 
304 1 -0.012709 0.00562535 0.009818 0.000291 0 -0.011755 0 2650 
4 1 -0.0126133 0.00785892 0.00945845 0.001058 0.00473149 0.00103266 0.00625096 2650 
68 1 -0.00333684 0.00933629 0.00999669 0.001058 0.00272783 -0.00342387 -0.00169301 2650 
249 1 -0.00270531 0.0190204 0.00836669 0.000291 0.00987628 0.0185258 -0.0129358 2650 
300 1 -0.0115202 0.00232561 0.0108097 0.001058 -0.00420381 -0.00777568 -0.00354571 2650 
299 1 -0.010572 0.00445197 0.0111187 0.001058 -0.000477082 -0.00417598 0.00910156 2650 
55 1 -0.01171 0.00609335 0.01034 0.000291 0 -0.011755 0 2650 
217 1 -0.0098616 0.0237758 0.0104719 0.001058 0.000747792 0.0265619 -0.00553463 2650 
285 1 -0.010188 0.00124418 0.0121298 0.001058 -0.00642821 -0.0140834 -0.00395094 2650 
224 1 -0.0074835 0.0119332 0.013663 0.001058 -0.00376938 0.00554818 0.00221201 2650 
238 1 -0.00366239 0.0212838 0.0137894 0.001058 0.0207771 0.0325148 -0.00733364 2650 
54 1 -0.00371989 0.0293039 0.0160308 0.000291 0.0409131 0.0218291 0.0638832 2650 
167 1 0.00185439 -0.00409591 -0.0686715 0.000291 -8.2812 0.750426 -0.219552 2650 
219 1 0.00926363 -0.000291006 -0.0680807 0.000291 -7.50051 -0.000138644 -1.0316 2650 
21 1 0.0123196 -0.0455109 -0.0676078 0.000291 -9.3495 0.491666 -1.71016 2650 
243 1 0.00511601 -0.0418939 -0.067755 0.001058 -9.59191 0.033136 -0.712574 2650 
165 1 0.0180124 -0.0345957 -0.0663014 0.000291 -7.75534 -0.0685081 -2.10769 2650 
295 1 0.0150273 -0.0135101 -0.0670495 0.000291 -7.67335 0.00525129 -1.73891 2650 
257 1 0.0264075 -0.0467362 -0.0626329 0.001058 -9.26108 -0.0921111 -3.9042 2650 
272 1 0.0230553 -0.0218765 -0.0639247 0.001058 -7.26352 -0.145632 -2.6364 2650 
8 1 0.0263361 -0.00984558 -0.0636788 0.000105 -4.52897 0.010293 -1.90449 2650 
2 1 0.0304564 -0.0275393 -0.0607331 0.001058 -8.12127 -0.0623989 -4.07636 2650 
111 1 0.0305798 -0.0205954 -0.0615434 0.000291 -7.52164 -0.194907 -3.73815 2650 
283 1 0.0324352 -0.0191403 -0.060591 0.000291 -7.4186 0.153116 -3.97848 2650 
125 1 0.0316882 -0.0148871 -0.060992 0.000291 -8.01675 -0.0763073 -4.16097 2650 
89 1 0.0300521 -0.0593049 -0.060295 0.00164 -8.60008 -0.169171 -4.28682 2650 
6 1 0.0344742 -0.0247194 -0.0594344 0.000291 -7.76124 -0.543697 -4.49801 2650 
230 1 0.0395906 -0.0470699 -0.055236 0.001058 -7.71942 0.061468 -5.53306 2650 
239 1 0.0386661 -0.0442774 -0.0558886 0.001058 -7.74473 0.248878 -5.33835 2650 
93 1 0.043533 -0.047698 -0.0531624 0.000291 -7.63169 0.209624 -6.25082 2650 
171 1 0.0423014 -0.0383675 -0.0531742 0.001058 -6.76158 0.69646 -5.3767 2650 
290 1 0.0449717 -0.0576012 -0.0519455 0.000291 -7.45524 0.29416 -6.46208 2650 
215 1 0.0432848 -0.0451098 -0.0523803 0.001058 -7.56431 0.0239483 -6.29599 2650 
72 1 0.0480723 -0.0318148 -0.0493505 0.000105 -6.98826 2.24856 -6.80494 2650 
63 1 0.05236 -0.021683 -0.0444575 0.000291 -6.17519 -0.0548036 -7.32768 2650 
83 1 0.055425 -0.0332896 -0.0392999 0.001058 -5.6883 -0.150728 -8.02909 2650 
264 1 0.0569806 -0.0377078 -0.0370191 0.001058 -4.82952 -0.39497 -7.42778 2650 
121 1 0.0564098 -0.0327581 -0.0368326 0.00164 -5.34411 -0.00553644 -8.1881 2650 
140 1 0.058862 -0.0302431 -0.0339405 0.001058 -4.6808 -0.107728 -8.11078 2650 
225 1 0.0602568 -0.0357487 -0.0313947 0.001058 -4.00073 0.0134895 -7.72562 2650 
247 1 0.0619596 -0.0509159 -0.0297387 0.000291 -4.11957 0.650777 -8.56638 2650 
56 1 0.0621321 -0.0127601 -0.0298145 0.000105 -1.96336 -0.258461 -4.06238 2650 
40 1 0.0652551 -0.00936985 -0.0221325 0.000105 -1.57643 0.117335 -4.58706 2650 
25 1 0.0652249 -0.0611601 -0.0168757 0.00164 -2.52018 -0.000613576 -9.74784 2650 
303 1 0.000709907 -0.0022471 -0.0165285 0.000291 -0.0406399 -0.00619251 -0.0279835 2650 
237 1 0.00123575 -0.00198909 -0.0147478 0.001058 -0.0649969 0.00992733 0.0154732 2650 
46 1 0.007499 -0.00293165 -0.014091 0.000291 0 -0.011755 0 2650 
130 1 1.4e-05 -0.000277648 -0.015674 0.001058 0 -0.011755 0 2650 
269 1 0.002277 -0.000104648 -0.015181 0.000291 0 -0.011755 0 2650 
160 1 0.004468 -0.00124565 -0.014641 0.000105 0 -0.011755 0 2650 
178 1 0.00924772 -0.0041589 -0.0128282 0.001058 -0.128207 -1.10332 0.407317 2650 
263 1 0.006877 -0.000848648 -0.012319 0.000291 0 -0.011755 0 2650 
196 1 0.002599 -0.00237565 -0.011929 0.001058 0 -0.011755 0 2650 
201 1 0.00927186 -0.000744442 -0.0115931 0.00164 0.00137105 -0.0114185 -0.003869 2650 
102 1 0.003423 -0.000943648 -0.006065 0.000291 0 -0.011755 0 2650 
117 1 0.004754 -0.000681648 -0.007063 0.000291 0 -0.011755 0 2650 
64 1 0.0686974 -0.00814741 -0.0051864 0.000105 -0.338517 0.0875537 -4.04564 2650 
246 1 0.001376 -0.00144265 -0.005453 0.001058 0 -0.011755 0 2650 
181 1 0.0686233 -0.0386749 -0.0033881 0.000291 -0.398622 -0.380744 -8.08881 2650 
88 1 0.002864 -0.00281665 -0.002457 0.000105 0 -0.011755 0 2650 
270 1 0.0024267 -0.00231268 -0.00323734 0.000291 -0.00136788 -0.0183096 -0.00635377 2650 
205 1 0.0014397 -0.00167927 -0.000247241 0.000291 -0.0110629 -0.00953223 0.00618698 2650 
177 1 0.00351832 -0.000732575 -0.00194256 0.00164 -0.00966503 -0.00602483 0.00423439 2650 
73 1 0.0673674 -0.0508784 0.00092136 0.00164 0.142122 -0.100351 -10.2257 2650 
42 1 0.0679384 -0.0439833 0.0010357 0.001058 0.118813 0.0557786 -8.48301 2650 
59 1 0.00183371 -0.00213449 0.00157869 0.001058 -0.0200783 -0.00967864 -0.0506056 2650 
96 1 0.009869 -0.00268665 0.000788 0.000105 0 -0.011755 0 2650 
81 1 0.007451 -0.00132365 7.8e-05 0.00164 0 -0.011755 0 2650 
261 1 0.011218 -0.00114765 0.000328 0.000291 0 -0.011755 0 2650 
210 1 0.010971 -0.00199365 0.002357 0.001058 0 -0.011755 0 2650 
228 1 0.0685877 -0.0172449 0.00404203 0.000291 0.276587 -0.601612 -4.36939 2650 
50 1 0.006699 -0.00290665 0.005883 0.001058 0 -0.011755 0 2650 
150 1 0.010236 -0.0030097 0.00430233 0.000291 0.00834717 -0.0216593 -0.000420923 2650 
223 1 0.00977451 -0.00164602 0.00454168 0.001058 0.0244252 -0.00835069 0.00805578 2650 
174 1 0.002361 -0.00315365 0.006466 0.000291 0 -0.011755 0 2650 
207 1 0.000324 -0.00146765 0.006532 0.000291 0 -0.011755 0 2650 
103 1 0.005979 -0.000449648 0.01127 0.000291 0 -0.011755 0 2650 
3 1 0.00924138 -0.000839926 0.0126865 0.001058 -0.00211489 -0.0052299 0.000123346 2650 
69 1 0.0672588 -0.0332125 0.0140315 0.000291 1.83994 -0.798349 -8.91447 2650 
82 1 0.000755 -0.00148065 0.014898 0.001058 0 -0.011755 0 2650 
107 1 0.0656669 -0.03052 0.0174824 0.001058 2.42668 -0.189801 -9.11222 2650 
133 1 0.0620294 -0.0224877 0.0295709 0.000291 3.37015 0.230452 -7.08322 2650 
29 1 0.00808438 -0.0129654 0.0682363 0.000291 7.79457 -0.844256 -0.922451 2650 
281 1 0.057316 -0.0353797 0.037884 0.000291 4.03029 0.363218 -6.11516 2650 
49 1 0.0480374 -0.0390732 0.0472348 0.00164 5.89063 -0.0937993 -5.97573 2650 
152 1 0.0511178 -0.00510076 0.0461861 0.000105 3.16681 -0.358328 -3.50252 2650 
141 1 0.0473028 -0.0531868 0.0498312 0.000291 4.34973 -0.546474 -4.11874 2650 
108 1 0.0449626 -0.0262196 0.0509307 0.001058 3.60116 -0.124226 -3.08323 2650 
30 1 0.0444165 -0.0238226 0.0524163 0.000291 3.7019 0.569346 -3.42882 2650 
43 1 0.0371123 -0.0316395 0.0569183 0.001058 8.08034 0.107947 -5.26535 2650 
137 1 0.0311165 -0.0611163 0.0597538 0.00164 8.49049 0.0106823 -4.43349 2650 
34 1 0.02166 -0.0317638 0.0644001 0.001058 7.22531 -0.183823 -2.43384 2650 
259 1 0.0218388 -0.0258029 0.0643401 0.001058 7.01016 0.087077 -2.34938 2650 
151 1 0.0198744 -0.0188381 0.0657916 0.000291 7.0657 0.187993 -2.11225 2650 
280 1 0.0232394 -0.0182402 0.0638717 0.001058 7.25821 0.104216 -2.65072 2650 
169 1 0.0013299 -0.0569328 0.0673523 0.00164 10.2381 -0.115683 -0.207265 2650 
26 1 0.000919962 -0.0331181 0.0679418 0.001058 9.18844 0.0283015 -0.133752 2650 
302 1 0.011403 -0.024799 0.067756 0.000291 7.35048 -0.147837 -1.24257 2650 
109 1 0.00386059 -0.0613842 0.0686008 0.000291 10.2559 0.012479 -0.562926 2650 
221 1 0.0035291 -0.0221848 0.0686167 0.000291 8.5791 -0.0887665 -0.4298 2650 
37 1 0.006156 0.00565735 -0.015157 0.000291 0 -0.011755 0 2650 
147 1 0.000323793 0.0176989 -0.0157796 0.001058 -0.0615939 0.0408262 -0.0024945 2650 
180 1 0.00349305 0.0242229 -0.0151645 0.001058 0.0523606 0.0717115 0.0275313 2650 
154 1 0.00355092 0.0546405 -0.0151844 0.001058 -0.025218 0.0914679 0.0181079 2650 
289 1 0.001465 0.000318352 -0.012477 0.000291 0 -0.011755 0 2650 
142 1 0.002378 0.000733352 -0.013184 0.000291 0 -0.011755 0 2650 
78 1 0.001258 0.00564335 -0.012517 0.000291 0 -0.011755 0 2650 
252 1 0.00245 0.00402835 -0.01336 0.001058 0 -0.011755 0 2650 
275 1 0.012705 0.00339035 -0.010476 0.000291 0 -0.011755 0 2650 
67 1 0.0010782 0.0074474 -0.0109692 0.001058 -0.020884 0.0142907 -0.00966941 2650 
198 1 0.0117075 0.00954984 -0.0117183 0.000291 0.0585511 0.0183945 0.0670621 2650 
134 1 0.00797748 0.00385606 -0.00840514 0.000291 -0.0128132 0.00355392 -0.00692922 2650 
60 1 0.007579 0.00195935 -0.006312 0.001058 0 -0.011755 0 2650 
45 1 0.010575 0.00187935 -0.007722 0.000291 0 -0.011755 0 2650 
260 1 0.0101592 0.00282441 -0.00648708 0.000291 -0.00392275 0.00411325 -0.00447499 2650 
279 1 0.00911524 0.00668881 -0.00607634 0.001058 -0.00964963 0.00898182 -0.00219277 2650 
105 1 0.00807345 0.00876226 -0.00793317 0.00164 0.00327959 0.00625975 0.0321714 2650 
284 1 0.0149404 0.0079715 -0.00670483 0.000291 0.00515653 0.00696942 -0.00520094 2650 
161 1 0.0134263 0.00362568 -0.00452758 0.00164 0.000907452 0.00399164 0.00334652 2650 
278 1 7.4e-05 0.00447035 -0.004448 0.001058 0 -0.011755 0 2650 
92 1 0.0101369 0.00516823 -0.00465161 0.001058 -0.00203413 0.0102084 -0.00112028 2650 
19 1 0.014192 0.0065462 -0.00592762 0.001058 0.0022695 0.00565847 -0.00282567 2650 
139 1 0.0089574 0.017997 -0.0053974 0.001058 0.0127696 0.00849352 0.0230521 2650 
253 1 0.014729 0.000728352 -0.002617 0.000291 0 -0.011755 0 2650 
227 1 0.00944 0.00255735 -0.002109 0.000291 0 -0.011755 0 2650 
110 1 0.00555592 0.005533 -0.00348094 0.000291 -0.0169259 -0.0135844 0.0488079 2650 
271 1 0.00645869 0.00424387 -0.00284226 0.001058 0.0150184 -0.010407 0.010297 2650 
199 1 0.0159189 0.00439519 -0.00394999 0.000291 0.00855734 0.000154616 0.00359965 2650 
123 1 0.00223765 0.00996407 -0.00207292 0.001058 0.0354386 0.020018 -0.000637314 2650 
113 1 0.010296 0.000529105 -0.00101103 0.00164 -0.000152922 -0.0104668 0.00259679 2650 
190 1 0.005899 0.00525935 -0.000534 0.000291 0 -0.011755 0 2650 
48 1 0.009671 0.00315135 0.000233 0.000105 0 -0.011755 0 2650 
128 1 0.00361 0.00485835 0.000511 0.000105 0 -0.011755 0 2650 
9 1 0.012984 0.00489635 0.000468 0.00164 0 -0.011755 0 2650 
286 1 0.015584 0.00556435 0.000132 0.001058 0 -0.011755 0 2650 
116 1 0.0109787 0.0184667 3.22035e-05 0.001058 0.0382435 0.0489782 0.0372506 2650 
101 1 0.004812 0.00358135 0.002517 0.000291 0 -0.011755 0 2650 
294 1 0.006997 0.00286535 0.003581 0.001058 0 -0.011755 0 2650 
244 1 0.0156145 0.00375141 0.00250922 0.001058 -0.00121335 -0.0094075 -0.0354574 2650 
232 1 0.0145436 0.00670695 0.00237175 0.001058 0.0225908 0.0355672 -0.0424833 2650 
301 1 0.00564868 0.0238285 0.00262995 0.001058 0.00272587 0.0220862 -0.0290146 2650 
35 1 0.00107828 0.000642319 0.00454004 0.001058 0.00654177 -0.0105187 -0.00962265 2650 
208 1 0.0150566 0.000966166 0.00444459 0.001058 0.00528618 -0.0283184 -0.0333125 2650 
212 1 0.001087 0.00337535 0.005915 0.000291 0 -0.011755 0 2650 
202 1 0.00228468 0.00230659 0.00583614 0.001058 0.00953014 -0.00871599 -0.0138173 2650 
24 1 0.005464 0.00294735 0.005551 0.000105 0 -0.011755 0 2650 
51 1 0.009662 0.00402035 0.004577 0.001058 0 -0.011755 0 2650 
194 1 0.0150261 0.00429807 0.00466345 0.001058 -0.00784002 0.0113692 -0.028755 2650 
79 1 0.014214 0.00586035 0.005058 0.000291 0 -0.011755 0 2650 
153 1 0.00111834 0.00754503 0.00498278 0.00164 0.00905173 -0.00370467 -0.0193596 2650 
293 1 0.013873 0.0122477 0.00544858 0.001058 0.0237572 0.0710344 -0.104438 2650 
292 1 0.00664662 0.0171012 0.00595007 0.001058 0.0469404 0.0480946 0.0370303 2650 
163 1 0.0127093 0.0389373 0.00417648 0.001058 -0.0646454 0.16688 0.0888818 2650 
1 1 0.0120948 0.00176061 0.0073389 0.00164 0.00588729 0.00743877 -0.0258753 2650 
231 1 0.00674442 0.00237938 0.00731545 0.001058 0.00167534 -0.0128877 -0.000760445 2650 
145 1 0.00456585 0.00397871 0.00790589 0.00164 0.00142123 -0.0121074 -0.00172265 2650 
222 1 0.009219 0.00521935 0.006833 0.001058 0 -0.011755 0 2650 
112 1 0.013668 0.00618335 0.007002 0.000105 0 -0.011755 0 2650 
100 1 0.00767621 0.00125275 0.0095234 0.001058 0.00912399 -0.0117578 -0.00681185 2650 
258 1 0.0128221 0.00695658 0.00862799 0.001058 0.00615004 0.0226911 -0.0182162 2650 
287 1 0.0106242 0.00197971 0.0109088 0.001058 -0.001802 -0.0123869 -0.0168129 2650 
66 1 0.00622984 0.00864202 0.0117694 0.001058 0.00846641 -0.000759158 0.00162513 2650 
156 1 0.00447404 0.0118774 0.0109775 0.001058 0.00957299 -0.000303602 -0.00985815 2650 
57 1 0.00471192 0.0209841 0.0108642 0.00164 0.0230994 0.0154402 0.0436737 2650 
195 1 0.00623704 0.00168459 0.013132 0.001058 0.0422505 -0.00642479 -0.0231176 2650 
95 1 0.00681544 0.00334105 0.013788 0.000291 -0.000366951 -0.00495937 0.00220646 2650 
298 1 0.00899274 0.006731 0.0132498 0.000105 0.012752 -0.00608362 0.00360111 2650 
265 1 0.00211525 0.00670249 0.0149351 0.001058 0.011667 0.00657701 -0.00499144 2650 
136 1 0.000477753 0.0757853 -0.000762382 0.000105 0.0375902 0.10168 0.0199891 2650 
11 1 0.12607 0.0873834 0.112782 0.001058 7.83091 -0.00984735 7.00163 2650 
