ITEM: TIMESTEP
2099128
ITEM: NUMBER OF ATOMS
301
ITEM: BOX BOUNDS ff ff ff
-0.15 0.15
-0.15 0.15
-0.15 0.15
ITEM: ATOMS id type x y z radius vx vy vz density 
172 1 -0.00474748 -0.00825267 -0.067779 0.001058 -3.78078 0.188005 0.263121 2650 
219 1 -0.0430913 -0.000340122 -0.0535155 0.000291 -3.75257 0.0172739 3.06683 2650 
125 1 -0.0541111 -0.0017194 -0.0423382 0.000291 -3.19867 0.0444349 4.06918 2650 
152 1 -0.0632535 -0.0126124 -0.0273579 0.000105 -1.59856 0.252877 3.64292 2650 
230 1 -0.0641392 -0.0298336 -0.0224174 0.001058 -1.72744 0.0669703 4.92333 2650 
26 1 -0.000141846 -0.00274554 -0.0156515 0.001058 0.0146037 -0.0336403 0.0135537 2650 
189 1 -0.00589688 -0.000147958 -0.0151843 0.000291 -0.0310107 -0.0325807 -0.0385356 2650 
280 1 -0.00167665 -0.00112322 -0.0155887 0.001058 0.00505686 -0.0276245 0.0172499 2650 
241 1 -0.008593 -0.00202232 -0.012306 0.000291 0 -0.011755 0 2650 
138 1 -0.00320395 -0.0010147 -0.0134904 0.001058 0.0020115 -0.0560726 -0.0243373 2650 
93 1 -0.010231 -0.00298589 -0.0106335 0.000291 0.0191951 -0.0188664 0.0268457 2650 
163 1 -0.005911 -0.000174324 -0.010628 0.001058 0 -0.011755 0 2650 
166 1 -0.005567 -0.000679324 -0.009051 0.000291 0 -0.011755 0 2650 
293 1 -0.009422 -0.000109324 -0.006923 0.001058 0 -0.011755 0 2650 
137 1 -0.001323 -0.000606324 -0.006126 0.00164 0 -0.011755 0 2650 
59 1 -0.00666166 -0.00251026 -0.00438496 0.001058 0.00115799 -0.0116141 0.00139237 2650 
90 1 -0.0268443 -0.0120768 -0.00272787 0.001058 -3.39783 -1.11364 -0.33465 2650 
23 1 -0.005085 -0.00298832 -0.002724 0.000291 0 -0.011755 0 2650 
107 1 -0.003706 -0.00266732 -0.003027 0.001058 0 -0.011755 0 2650 
282 1 -0.001816 -0.00172632 -0.002164 0.000291 0 -0.011755 0 2650 
180 1 -0.0151529 -0.000506943 -0.00179283 0.001058 -0.00108764 -0.0151162 -0.00336541 2650 
89 1 -0.00204983 -0.00319895 0.000407073 0.00164 -0.0058431 -0.0117287 -0.0183195 2650 
99 1 -0.011672 -0.000724324 9.8e-05 0.001058 0 -0.011755 0 2650 
75 1 -0.00832777 -0.00110894 0.0013995 0.001058 0.00175283 -0.0243046 0.00939251 2650 
236 1 -0.0679093 -0.0496855 0.00215191 0.001058 0.162791 0.0231807 4.83637 2650 
106 1 -0.00971679 -0.000305946 0.00277987 0.001058 -0.000385434 -0.0115717 0.00042146 2650 
127 1 -0.00840351 -0.00072761 0.00322241 0.000291 -0.207405 0.225657 -0.0374907 2650 
158 1 -0.007297 -0.000763324 0.003049 0.000291 0 -0.011755 0 2650 
149 1 -0.004792 -0.000809324 0.002724 0.000291 0 -0.011755 0 2650 
2 1 -0.013701 -0.00268332 0.005224 0.001058 0 -0.011755 0 2650 
63 1 -0.010157 -0.00267432 0.004282 0.000291 0 -0.011755 0 2650 
157 1 -0.012105 -0.00181238 0.00573024 0.000291 -0.246698 0.311862 -0.137648 2650 
42 1 -0.008546 -0.00142932 0.006756 0.001058 0 -0.011755 0 2650 
235 1 -0.001066 -0.000146324 0.007831 0.000291 0 -0.011755 0 2650 
229 1 -0.0137362 -0.00546363 0.00849793 0.001058 -0.274049 -1.36186 0.161358 2650 
36 1 -0.012004 -0.00320032 0.009853 0.001058 0 -0.011755 0 2650 
257 1 -0.009847 -0.00276332 0.008559 0.001058 0 -0.011755 0 2650 
97 1 -0.0116335 -0.000458515 0.00977329 0.00164 -0.0197006 -0.016578 -0.0202345 2650 
111 1 -0.009474 -7.63241e-05 0.008964 0.000291 0 -0.011755 0 2650 
204 1 -0.00125998 -0.00152622 0.0104155 0.001058 0.0217868 -0.00528585 -0.0190601 2650 
38 1 -0.000348 -0.000313324 0.010029 0.000291 0 -0.011755 0 2650 
73 1 -0.00316666 -0.00272435 0.0120702 0.00164 0.023447 -0.0350364 -0.0232212 2650 
146 1 -0.0522307 -0.0447959 0.0434588 0.001058 3.411 0.248876 4.05394 2650 
167 1 -0.0417368 -0.0156442 0.0545891 0.000291 2.75174 -0.330736 2.07221 2650 
119 1 -0.0374932 -0.0381345 0.0575817 0.000291 3.94958 0.503217 2.58684 2650 
21 1 -0.0296381 -0.0514552 0.062005 0.000291 4.60157 0.628702 2.21284 2650 
165 1 -0.0121123 -0.0267394 0.0676257 0.000291 3.67952 -0.217917 0.723116 2650 
69 1 -0.00864973 -0.0196853 0.0681545 0.000291 4.04907 0.192944 0.588855 2650 
84 1 -0.00281141 -0.00793931 0.0680003 0.001058 2.6199 -0.210985 -2.18141 2650 
17 1 -0.00432377 0.00306172 -0.0140037 0.00164 0.000282496 -0.00503951 0.00527065 2650 
32 1 -0.00474072 0.00567275 -0.0141941 0.000105 0.00408433 -0.0405512 -0.0362068 2650 
85 1 -0.003548 0.00485368 -0.015444 0.000291 0 -0.011755 0 2650 
70 1 -0.002345 0.00665568 -0.015511 0.000291 0 -0.011755 0 2650 
295 1 -0.006507 0.00137068 -0.01264 0.000291 0 -0.011755 0 2650 
115 1 -0.009032 0.00670268 -0.012506 0.001058 0 -0.011755 0 2650 
33 1 -0.003866 0.00971868 -0.012959 0.00164 0 -0.011755 0 2650 
198 1 -0.01006 0.00599968 -0.011926 0.000291 0 -0.011755 0 2650 
47 1 -0.011528 0.00730368 -0.010748 0.000291 0 -0.011755 0 2650 
234 1 -0.003052 0.00609668 -0.010232 0.000291 0 -0.011755 0 2650 
273 1 -0.00119 0.00605868 -0.010246 0.001058 0 -0.011755 0 2650 
41 1 -0.00982393 0.00897683 -0.010757 0.00164 -0.0426201 0.0149708 -0.0234718 2650 
94 1 -0.011581 0.0117807 -0.01188 0.000291 0 -0.011755 0 2650 
57 1 -0.00637565 0.0135729 -0.0100989 0.00164 0.0230994 0.0154402 0.0436737 2650 
91 1 -0.00411782 0.0293591 -0.0110664 0.001058 -0.0201117 0.131078 0.100392 2650 
108 1 -0.007031 0.00205968 -0.009032 0.001058 0 -0.011755 0 2650 
175 1 -0.013247 0.00734368 -0.008751 0.000291 0 -0.011755 0 2650 
144 1 -0.011054 0.0119017 -0.008779 0.000105 0 -0.011755 0 2650 
220 1 -0.0101765 0.0139287 -0.00833382 0.000291 -0.0258814 0.00931039 0.00803739 2650 
200 1 -0.012172 0.000603676 -0.006974 0.000105 0 -0.011755 0 2650 
203 1 -0.00596913 0.0019272 -0.00600006 0.001058 0.0108298 -0.0118951 -0.00146797 2650 
218 1 -0.00526635 0.000490236 -0.00789001 0.001058 0.00591971 -0.0159874 -0.00632168 2650 
250 1 -0.013194 0.00299668 -0.006197 0.001058 0 -0.011755 0 2650 
214 1 -0.008446 0.000313676 -0.004092 0.000291 0 -0.011755 0 2650 
76 1 -0.003173 0.00240168 -0.005708 0.001058 0 -0.011755 0 2650 
276 1 -0.013674 0.00888768 -0.004231 0.000291 0 -0.011755 0 2650 
74 1 -0.012237 0.00928568 -0.004721 0.001058 0 -0.011755 0 2650 
240 1 -0.010392 0.00794568 -0.005262 0.000291 0 -0.011755 0 2650 
256 1 -0.0112261 0.0109574 -0.00417574 0.000291 -0.0123982 -0.000129637 -0.00545733 2650 
159 1 -0.012707 0.0118817 -0.00588 0.000291 0 -0.011755 0 2650 
187 1 -0.0104872 0.0122681 -0.00559784 0.001058 -0.0112156 -0.0033076 -0.00319333 2650 
136 1 -0.00841628 0.0253957 -0.00468753 0.000105 -0.0729053 0.12081 -0.0484832 2650 
116 1 -0.013496 0.000413676 -0.003353 0.001058 0 -0.011755 0 2650 
43 1 -0.00663843 0.000683978 -0.00267925 0.001058 0.0207832 -0.0262891 0.0149653 2650 
211 1 -0.013621 0.00362768 -0.002856 0.001058 0 -0.011755 0 2650 
270 1 -0.00545018 0.00204098 -0.00341539 0.000291 0.0186853 -0.00788795 0.00123148 2650 
274 1 -0.016349 0.00575268 -0.002509 0.000291 0 -0.011755 0 2650 
114 1 -0.012867 0.00628368 -0.002401 0.001058 0 -0.011755 0 2650 
13 1 -0.014201 0.00798768 -0.003882 0.000291 0 -0.011755 0 2650 
104 1 -0.014089 0.00866968 -0.003012 0.000105 0 -0.011755 0 2650 
65 1 -0.00906455 0.0108231 -0.00279022 0.00164 -0.00348018 0.0119066 0.00345508 2650 
7 1 -0.00829934 0.0127859 -0.00298767 0.000291 0.00378858 0.0136367 -0.000251809 2650 
140 1 -0.00819699 0.000333907 -0.000405822 0.001058 0.00747629 -0.0272757 -0.000219899 2650 
135 1 -0.00342051 0.000268251 -0.000612083 0.000291 -0.0060505 -0.00140209 -0.0140303 2650 
223 1 -0.0034589 0.00361775 -9.64283e-05 0.001058 0.0415501 -0.0223204 0.0172409 2650 
10 1 -0.012845 0.00937168 -0.000712 0.001058 0 -0.011755 0 2650 
61 1 -0.016439 0.0115997 -0.001038 0.000291 0 -0.011755 0 2650 
123 1 -0.0157123 0.000880347 4.72058e-05 0.001058 -0.0183886 -0.0164225 0.00326457 2650 
131 1 -0.0131958 0.000408315 0.00160197 0.001058 -0.00884878 -0.0382299 0.0281105 2650 
122 1 -0.00175034 0.000105266 0.000344293 0.001058 0.000509879 -0.0115361 4.72204e-06 2650 
14 1 -0.006378 0.00269468 0.001478 0.000291 0 -0.011755 0 2650 
296 1 -0.005879 0.00317268 0.000521 0.000291 0 -0.011755 0 2650 
191 1 -0.0108 0.00402668 0.001549 0.000291 0 -0.011755 0 2650 
168 1 -0.007536 0.00503768 0.001389 0.000105 0 -0.011755 0 2650 
120 1 -0.016055 0.00723968 0.000189 0.000105 0 -0.011755 0 2650 
209 1 -0.010932 0.00715168 0.001176 0.001058 0 -0.011755 0 2650 
80 1 -0.014935 0.00993768 0.00039 0.000105 0 -0.011755 0 2650 
268 1 -0.011054 0.0104617 0.000789 0.000291 0 -0.011755 0 2650 
129 1 -0.008713 0.0102757 0.001908 0.00164 0 -0.011755 0 2650 
132 1 -0.01481 9.36759e-05 0.003327 0.001058 0 -0.011755 0 2650 
206 1 -0.0136491 0.00156906 0.00307682 0.000291 -0.0103952 -0.0136971 0.0319915 2650 
272 1 -0.001203 9.76759e-05 0.002609 0.001058 0 -0.011755 0 2650 
124 1 -0.014115 0.00273068 0.003875 0.001058 0 -0.011755 0 2650 
195 1 -0.00857659 0.00347519 0.00271437 0.001058 0.0116552 -0.0200195 0.0462151 2650 
302 1 -0.00895415 0.00288822 0.00388304 0.000291 -0.0143061 -0.0317005 0.0405115 2650 
18 1 -0.005138 0.00423168 0.00212 0.001058 0 -0.011755 0 2650 
52 1 -0.00892391 0.00611316 0.00271514 0.001058 -0.0709318 -0.0184059 -0.0080994 2650 
176 1 -0.003983 0.00857668 0.002552 0.000105 0 -0.011755 0 2650 
242 1 -0.00459874 0.00941228 0.0037767 0.000291 -0.00954886 0.00781474 0.00295974 2650 
49 1 -0.007469 0.000360676 0.004859 0.00164 0 -0.011755 0 2650 
182 1 -0.007428 0.00251068 0.005665 0.000291 0 -0.011755 0 2650 
58 1 -0.009725 0.00419168 0.005089 0.001058 0 -0.011755 0 2650 
53 1 -0.000389 0.00531468 0.004762 0.000291 0 -0.011755 0 2650 
28 1 -0.013611 0.00657468 0.005538 0.001058 0 -0.011755 0 2650 
170 1 -0.01149 0.00670968 0.005193 0.001058 0 -0.011755 0 2650 
238 1 -0.009207 0.00746268 0.004742 0.001058 0 -0.011755 0 2650 
164 1 -0.003894 0.00761268 0.005467 0.001058 0 -0.011755 0 2650 
77 1 -0.00964195 0.00916107 0.00538985 0.000291 -0.0659618 0.0071766 0.0150346 2650 
291 1 -0.008194 0.0119867 0.004767 0.000291 0 -0.011755 0 2650 
266 1 -0.0128101 0.00103426 0.0078272 0.001058 -0.0124663 0.000870606 -0.0183561 2650 
64 1 -0.001837 0.000278676 0.007035 0.000105 0 -0.011755 0 2650 
254 1 -0.006211 0.00284968 0.006905 0.000291 0 -0.011755 0 2650 
98 1 -0.001703 0.00517568 0.00616 0.001058 0 -0.011755 0 2650 
186 1 -0.006177 0.00992868 0.006545 0.001058 0 -0.011755 0 2650 
245 1 -0.00549207 0.0220825 0.00701008 0.001058 -0.00877598 0.0648343 0.053396 2650 
11 1 -0.012998 0.0272703 0.00606954 0.001058 0.0558568 0.128502 0.0118077 2650 
44 1 -0.007195 0.00206568 0.008791 0.001058 0 -0.011755 0 2650 
4 1 -0.013492 0.0111467 0.008313 0.001058 0 -0.011755 0 2650 
304 1 -0.012709 0.0112677 0.009818 0.000291 0 -0.011755 0 2650 
233 1 -0.001796 0.00261168 0.010436 0.000291 0 -0.011755 0 2650 
251 1 -0.00519306 0.00710299 0.0110169 0.001058 -0.0165425 -0.0287939 0.0166856 2650 
35 1 -0.00197001 0.00600304 0.0101989 0.001058 0.00566878 -0.0134862 -0.0195208 2650 
299 1 -0.010562 0.00970868 0.010709 0.001058 0 -0.011755 0 2650 
55 1 -0.01171 0.0117357 0.01034 0.000291 0 -0.011755 0 2650 
217 1 -0.00862833 0.0108374 0.011828 0.001058 -0.0106168 0.0279099 0.00374771 2650 
68 1 -0.00464618 0.0109797 0.0108093 0.001058 0.00272783 -0.00342387 -0.00169301 2650 
226 1 -0.009224 0.00358368 0.012787 0.000291 0 -0.011755 0 2650 
300 1 -0.00940826 0.0063934 0.0127127 0.001058 -0.00517848 -0.00941929 -0.00460978 2650 
202 1 -0.00228973 0.00649021 0.0124683 0.001058 0.00953014 -0.00871599 -0.0138173 2650 
224 1 -0.00567422 0.00927016 0.0126012 0.001058 -0.00376938 0.00554818 0.00221201 2650 
285 1 -0.00626906 0.00772556 0.014414 0.001058 -0.0106576 -0.0140215 -0.000193791 2650 
29 1 -0.00513787 0.00690563 0.0153386 0.000291 -0.0115686 -0.040115 -0.0168616 2650 
153 1 -0.0032267 0.00932052 0.0142661 0.00164 0.00905326 -0.00368908 -0.0193072 2650 
265 1 -0.000465 0.00823968 0.015551 0.001058 0 -0.011755 0 2650 
249 1 -0.00744586 0.0101282 0.0145758 0.000291 0.00987628 0.0185258 -0.0129358 2650 
71 1 -0.00136645 0.0108496 0.0145942 0.000291 -0.0104586 -0.0101041 0.055119 2650 
156 1 -0.000120935 0.0120231 0.0157094 0.001058 0.00957299 -0.000303602 -0.00985815 2650 
192 1 0.0320271 -0.0228227 -0.061004 0.000105 -3.22743 -0.312419 -1.73905 2650 
169 1 0.0432207 -0.0459018 -0.0516736 0.00164 -5.51618 -0.0674268 -4.64477 2650 
148 1 0.0536401 -0.0297012 -0.0417032 0.001058 -3.60184 0.0198001 -4.66455 2650 
86 1 0.0605114 -0.0228479 -0.0325542 0.000291 -1.69196 0.308933 -3.22567 2650 
281 1 0.0630443 -0.0364771 -0.0273146 0.000291 -1.37354 -0.561327 -3.26564 2650 
283 1 0.0647471 -0.0211872 -0.0230283 0.000291 -1.37534 -0.315477 -3.96122 2650 
221 1 0.0227177 -0.00389734 -0.0156191 0.000291 3.4169 -0.0862285 -2.34922 2650 
155 1 0.005921 -0.000493324 -0.01427 0.001058 0 -0.011755 0 2650 
292 1 0.002958 -0.00217332 -0.012416 0.001058 0 -0.011755 0 2650 
109 1 0.0144337 -0.00677338 -0.0118788 0.000291 0.924281 -1.19567 -0.929184 2650 
141 1 0.004693 -0.000538324 -0.010381 0.000291 0 -0.011755 0 2650 
83 1 0.007342 -0.00136132 -0.011981 0.001058 0 -0.011755 0 2650 
188 1 0.003247 -0.00321932 -0.009042 0.001058 0 -0.011755 0 2650 
162 1 0.010619 -0.00166732 -0.009864 0.001058 0 -0.011755 0 2650 
151 1 0.0682912 -0.0216294 -0.00757025 0.000291 -0.41184 0.0125831 -3.87678 2650 
185 1 0.007006 -0.00198032 -0.006884 0.00164 0 -0.011755 0 2650 
40 1 0.002884 -0.00145532 -0.006462 0.000105 0 -0.011755 0 2650 
30 1 0.005625 -2.33241e-05 -0.00604 0.000291 0 -0.011755 0 2650 
62 1 0.005002 -0.00259632 -0.004312 0.000291 0 -0.011755 0 2650 
16 1 0.006364 -0.00132732 -0.005251 0.000105 0 -0.011755 0 2650 
39 1 0.011011 -0.00164032 -0.005294 0.000291 0 -0.011755 0 2650 
20 1 0.013152 -0.00257132 -0.002682 0.001058 0 -0.011755 0 2650 
8 1 0.000989 -0.00160232 -0.00369 0.000105 0 -0.011755 0 2650 
173 1 0.002644 -0.000378324 -0.002982 0.000291 0 -0.011755 0 2650 
239 1 0.008697 -0.00278432 -0.000945 0.001058 0 -0.011755 0 2650 
87 1 0.010454 -0.00260232 -0.001717 0.000291 0 -0.011755 0 2650 
248 1 0.008036 -0.00173332 -0.000368 0.000291 0 -0.011755 0 2650 
72 1 0.013289 -0.000698324 -0.000624 0.000105 0 -0.011755 0 2650 
288 1 0.006653 -0.00277732 0.001326 0.000291 0 -0.011755 0 2650 
255 1 0.005303 -0.00143032 0.000727 0.000291 0 -0.011755 0 2650 
56 1 0.00459 -0.000673324 0.000864 0.000105 0 -0.011755 0 2650 
179 1 0.002629 -0.00308232 0.002938 0.001058 0 -0.011755 0 2650 
121 1 0.013566 -0.00215532 0.003132 0.00164 0 -0.011755 0 2650 
247 1 0.001401 -0.00158132 0.005706 0.000291 0 -0.011755 0 2650 
133 1 0.0682524 -0.0163661 0.00794346 0.000291 0.474314 0.193143 -4.12926 2650 
243 1 0.01084 -0.00101332 0.008454 0.001058 0 -0.011755 0 2650 
181 1 0.012465 -0.00264232 0.010211 0.000291 0 -0.011755 0 2650 
184 1 0.011801 -0.000293651 0.0115851 0.000105 0.152901 -0.0177901 -0.0414624 2650 
15 1 0.0158632 -0.00421787 0.0129093 0.000291 1.39397 -0.200758 1.22115 2650 
193 1 0.0136713 -0.00878146 0.0177812 0.00164 1.67806 -0.641677 2.07342 2650 
25 1 0.0620977 -0.0406539 0.0261619 0.00164 2.73515 -0.108674 -6.35763 2650 
290 1 0.0412599 -0.0438405 0.0549512 0.000291 3.51915 0.281681 -2.66773 2650 
297 1 0.0389702 -0.032405 0.0565855 0.000291 3.19223 -0.315141 -2.24648 2650 
34 1 0.0237606 -0.0141196 0.0636818 0.001058 5.91006 -0.0235848 -2.21974 2650 
22 1 0.01601 -0.0305961 0.0667884 0.000291 4.24953 0.399833 -0.98044 2650 
215 1 0.0148807 -0.0228543 0.0663004 0.001058 4.72546 -0.325589 -1.00259 2650 
5 1 0.0156749 -0.0214351 0.0669077 0.000291 3.5904 -0.214929 -0.887848 2650 
303 1 0.001598 0.00327368 -0.015917 0.000291 0 -0.011755 0 2650 
46 1 0.007499 0.00271068 -0.014091 0.000291 0 -0.011755 0 2650 
130 1 1.4e-05 0.00536468 -0.015674 0.001058 0 -0.011755 0 2650 
269 1 0.002277 0.00553768 -0.015181 0.000291 0 -0.011755 0 2650 
160 1 0.004468 0.00439668 -0.014641 0.000105 0 -0.011755 0 2650 
37 1 0.006156 0.0112997 -0.015157 0.000291 0 -0.011755 0 2650 
237 1 0.005321 0.00197368 -0.012467 0.001058 0 -0.011755 0 2650 
263 1 0.006877 0.00479368 -0.012319 0.000291 0 -0.011755 0 2650 
289 1 0.001465 0.00596068 -0.012477 0.000291 0 -0.011755 0 2650 
142 1 0.002378 0.00637568 -0.013184 0.000291 0 -0.011755 0 2650 
252 1 0.00245 0.00967068 -0.01336 0.001058 0 -0.011755 0 2650 
78 1 0.001258 0.0112857 -0.012517 0.000291 0 -0.011755 0 2650 
139 1 0.00220721 0.0137861 -0.0139329 0.001058 0.0288724 0.0119708 -0.0425505 2650 
196 1 0.002599 0.00326668 -0.011929 0.001058 0 -0.011755 0 2650 
201 1 0.008831 0.00478968 -0.010349 0.00164 0 -0.011755 0 2650 
275 1 0.012705 0.00903268 -0.010476 0.000291 0 -0.011755 0 2650 
105 1 0.003632 0.00995368 -0.010703 0.00164 0 -0.011755 0 2650 
110 1 0.010451 0.0115767 -0.010748 0.000291 0 -0.011755 0 2650 
54 1 0.00178393 0.0155374 -0.0116303 0.000291 -0.10531 0.0409555 0.046421 2650 
213 1 0.001757 0.000298676 -0.008127 0.000291 0 -0.011755 0 2650 
259 1 0.006357 0.00122768 -0.00938 0.001058 0 -0.011755 0 2650 
67 1 0.00898 0.00266168 -0.006049 0.001058 0 -0.011755 0 2650 
102 1 0.003423 0.00469868 -0.006065 0.000291 0 -0.011755 0 2650 
117 1 0.004754 0.00496068 -0.007063 0.000291 0 -0.011755 0 2650 
134 1 0.011983 0.00471268 -0.006239 0.000291 0 -0.011755 0 2650 
60 1 0.007579 0.00760168 -0.006312 0.001058 0 -0.011755 0 2650 
45 1 0.010575 0.00752168 -0.007722 0.000291 0 -0.011755 0 2650 
271 1 0.001328 0.00942568 -0.00636 0.001058 0 -0.011755 0 2650 
178 1 0.003641 0.00178068 -0.005569 0.001058 0 -0.011755 0 2650 
197 1 0.007512 0.000114676 -0.004043 0.000291 0 -0.011755 0 2650 
92 1 0.010471 0.000165676 -0.004542 0.001058 0 -0.011755 0 2650 
260 1 0.010685 0.00230868 -0.004932 0.000291 0 -0.011755 0 2650 
161 1 0.013129 0.00239168 -0.005759 0.00164 0 -0.011755 0 2650 
246 1 0.001376 0.00419968 -0.005453 0.001058 0 -0.011755 0 2650 
279 1 0.011818 0.00665568 -0.00556 0.001058 0 -0.011755 0 2650 
19 1 0.013799 0.00918468 -0.005439 0.001058 0 -0.011755 0 2650 
199 1 0.014464 0.00801268 -0.004562 0.000291 0 -0.011755 0 2650 
278 1 7.4e-05 0.0101127 -0.004448 0.001058 0 -0.011755 0 2650 
284 1 0.014191 0.0108927 -0.005949 0.000291 0 -0.011755 0 2650 
171 1 0.000459 0.00111568 -0.002783 0.001058 0 -0.011755 0 2650 
88 1 0.002864 0.00282568 -0.002457 0.000105 0 -0.011755 0 2650 
205 1 0.005264 0.00319468 -0.002386 0.000291 0 -0.011755 0 2650 
177 1 0.007332 0.00269168 -0.003583 0.00164 0 -0.011755 0 2650 
253 1 0.014729 0.00637068 -0.002617 0.000291 0 -0.011755 0 2650 
227 1 0.00944 0.00819968 -0.002109 0.000291 0 -0.011755 0 2650 
6 1 0.004141 0.000547676 -0.001643 0.000291 0 -0.011755 0 2650 
113 1 0.010337 0.00582568 -0.001708 0.00164 0 -0.011755 0 2650 
190 1 0.005899 0.0109017 -0.000534 0.000291 0 -0.011755 0 2650 
183 1 0.01481 0.00118868 0.000242 0.000291 0 -0.011755 0 2650 
277 1 0.015014 0.00156668 0.001212 0.000291 0 -0.011755 0 2650 
96 1 0.009869 0.00295568 0.000788 0.000105 0 -0.011755 0 2650 
81 1 0.007451 0.00431868 7.8e-05 0.00164 0 -0.011755 0 2650 
261 1 0.011218 0.00449468 0.000328 0.000291 0 -0.011755 0 2650 
48 1 0.009671 0.00879368 0.000233 0.000105 0 -0.011755 0 2650 
128 1 0.00361 0.0105007 0.000511 0.000105 0 -0.011755 0 2650 
9 1 0.012984 0.0105387 0.000468 0.00164 0 -0.011755 0 2650 
286 1 0.015584 0.0112067 0.000132 0.001058 0 -0.011755 0 2650 
225 1 0.001446 0.00138568 0.002203 0.001058 0 -0.011755 0 2650 
264 1 0.003305 0.000531676 0.003449 0.001058 0 -0.011755 0 2650 
143 1 0.013105 0.00165568 0.003332 0.000291 0 -0.011755 0 2650 
210 1 0.010971 0.00364868 0.002357 0.001058 0 -0.011755 0 2650 
101 1 0.004812 0.00922368 0.002517 0.000291 0 -0.011755 0 2650 
294 1 0.006997 0.00850768 0.003581 0.001058 0 -0.011755 0 2650 
267 1 0.007574 0.000752676 0.005778 0.000291 0 -0.011755 0 2650 
305 1 0.007934 0.00149468 0.005234 0.000105 0 -0.011755 0 2650 
50 1 0.006699 0.00273568 0.005883 0.001058 0 -0.011755 0 2650 
150 1 0.010064 0.00283668 0.004311 0.000291 0 -0.011755 0 2650 
212 1 0.001087 0.00901768 0.005915 0.000291 0 -0.011755 0 2650 
24 1 0.005464 0.00858968 0.005551 0.000105 0 -0.011755 0 2650 
51 1 0.009662 0.00966268 0.004577 0.001058 0 -0.011755 0 2650 
244 1 0.014869 0.00907568 0.00421 0.001058 0 -0.011755 0 2650 
79 1 0.014214 0.0115027 0.005058 0.000291 0 -0.011755 0 2650 
118 1 0.001179 0.000917676 0.007467 0.000291 0 -0.011755 0 2650 
174 1 0.002361 0.00248868 0.006466 0.000291 0 -0.011755 0 2650 
232 1 0.003256 0.00348668 0.007333 0.001058 0 -0.011755 0 2650 
207 1 0.000324 0.00417468 0.006532 0.000291 0 -0.011755 0 2650 
208 1 0.009461 0.00485068 0.007837 0.001058 0 -0.011755 0 2650 
231 1 0.006459 0.00821468 0.007445 0.001058 0 -0.011755 0 2650 
222 1 0.009219 0.0108617 0.006833 0.001058 0 -0.011755 0 2650 
112 1 0.013668 0.0118257 0.007002 0.000105 0 -0.011755 0 2650 
1 1 0.00243948 0.00138447 0.00971833 0.00164 0.00775899 -0.0148356 -0.00837378 2650 
194 1 0.007709 0.00899368 0.009989 0.001058 0 -0.011755 0 2650 
145 1 0.00381935 0.00988908 0.00862862 0.00164 0.000993456 -0.0124671 3.24591e-05 2650 
147 1 0.0104025 0.000329394 0.0119445 0.001058 0.0509795 0.0185854 -0.09886 2650 
228 1 0.010294 0.00199768 0.01009 0.000291 0 -0.011755 0 2650 
103 1 0.005979 0.00519268 0.01127 0.000291 0 -0.011755 0 2650 
154 1 0.00070477 0.00627658 0.0100204 0.001058 0.00678339 0.101014 -0.0544466 2650 
258 1 0.009255 0.00628368 0.010506 0.001058 0 -0.011755 0 2650 
66 1 0.00188624 0.00898846 0.0116125 0.001058 0.0117475 -0.000546567 -0.0056688 2650 
298 1 0.003487 0.00992468 0.011695 0.000105 0 -0.011755 0 2650 
287 1 0.006558 0.00457868 0.013233 0.001058 0 -0.011755 0 2650 
100 1 0.000632819 0.00736008 0.0122968 0.001058 0.019732 -0.0136041 -0.00483564 2650 
95 1 0.006942 0.00663968 0.013027 0.000291 0 -0.011755 0 2650 
301 1 0.0034448 0.0136323 0.0129023 0.001058 0.022503 0.0131388 0.0516978 2650 
3 1 0.00369836 0.00221422 0.0142978 0.001058 0.0372746 0.0015277 0.011619 2650 
82 1 0.000755 0.00416168 0.014898 0.001058 0 -0.011755 0 2650 
126 1 0.00175338 0.0108933 0.0145482 0.000291 -0.000669393 -0.021809 0.0558205 2650 
12 1 0.00397926 0.104344 -0.00547821 0.001058 0.0647213 0.549795 -0.169615 2650 
