ITEM: TIMESTEP
12347802
ITEM: NUMBER OF ATOMS
282
ITEM: BOX BOUNDS ff ff ff
-0.15 0.15
-0.15 0.15
-0.15 0.15
ITEM: ATOMS id type x y z radius vx vy vz density 
149 1 -0.000512682 -0.0319809 -0.0687073 0.000291 -9.68843 0.03695 0.068108 2650 
189 1 -0.00707958 -0.0259744 -0.068337 0.000291 -10.8617 0.0243767 1.12491 2650 
118 1 -0.00368495 -0.0160705 -0.0685713 0.000291 -8.06987 -0.103206 0.466751 2650 
171 1 -0.00100705 -0.0445691 -0.0679392 0.001058 -9.90505 -0.1373 0.110551 2650 
34 1 -0.00301504 -0.0323188 -0.067881 0.001058 -9.71012 -0.0608909 0.453533 2650 
210 1 -0.0230572 -0.0256784 -0.0639139 0.001058 -7.97417 -0.080477 2.87245 2650 
53 1 -0.035488 -0.0199811 -0.0588514 0.000291 -4.84075 -0.548907 2.89187 2650 
46 1 -0.0369028 -0.0149134 -0.0579778 0.000291 -5.48579 0.698343 3.50989 2650 
296 1 -0.0449661 -0.0084525 -0.0519491 0.000291 -3.94519 -0.0634764 3.43503 2650 
169 1 -0.0471896 -0.0610753 -0.0480801 0.00164 -7.71705 -0.00173236 7.558 2650 
248 1 -0.0487481 -0.0377256 -0.0484204 0.000291 -4.59485 -0.394302 4.68434 2650 
25 1 -0.0489711 -0.0589977 -0.0462716 0.00164 -7.42752 -0.00981 7.85036 2650 
246 1 -0.0502939 -0.0566937 -0.045687 0.001058 -6.84105 -0.0353626 7.5401 2650 
103 1 -0.055506 -0.0414145 -0.0405096 0.000291 -6.13427 -0.608787 8.40644 2650 
150 1 -0.0586919 -0.0293744 -0.0357169 0.000291 -4.54085 0.126068 7.45668 2650 
125 1 -0.0616424 -0.0222484 -0.0303672 0.000291 -3.71115 0.0859334 7.55903 2650 
107 1 -0.000198148 -0.0333867 -0.0679487 0.001058 -10.4611 -0.0366027 0.0307052 2650 
178 1 -0.0620603 -0.0591934 -0.0276544 0.001058 -4.23091 0.112747 9.4924 2650 
257 1 -0.0613859 -0.0486146 -0.0291855 0.001058 -4.2283 -0.173001 8.91279 2650 
102 1 -0.0640856 -0.0234428 -0.0247918 0.000291 -3.08115 0.0939018 7.94809 2650 
132 1 -0.0653448 -0.0157642 -0.0186976 0.001058 -2.20014 -0.0617836 7.66002 2650 
137 1 -0.0653231 -0.0611601 -0.016493 0.00164 -2.59029 1.74717e-08 10.2593 2650 
18 1 -0.0665053 -0.0156011 -0.0139368 0.001058 -1.6262 -0.076658 7.84173 2650 
173 1 -0.0676125 -0.00412824 -0.0122061 0.000291 -1.05373 -0.055257 5.8122 2650 
135 1 -0.00844236 -0.000895468 -0.012257 0.000291 -0.0060505 -0.00140209 -0.0140303 2650 
303 1 -0.0678095 -0.00968351 -0.0111043 0.000291 -1.03624 -0.416398 5.83458 2650 
175 1 -0.013247 -0.00241284 -0.008751 0.000291 0 -0.011755 0 2650 
47 1 -0.0131427 -0.00188982 -0.00909479 0.000291 -0.00125586 -0.0105028 0.00427205 2650 
276 1 -0.013674 -0.000868843 -0.004231 0.000291 0 -0.011755 0 2650 
240 1 -0.010392 -0.00181084 -0.005262 0.000291 0 -0.011755 0 2650 
13 1 -0.014201 -0.00176884 -0.003882 0.000291 0 -0.011755 0 2650 
104 1 -0.014089 -0.00108684 -0.003012 0.000105 0 -0.011755 0 2650 
81 1 -0.0673289 -0.0393932 0.00217604 0.00164 0.241397 -0.0189066 8.0172 2650 
133 1 -0.0686942 -0.0175422 0.00137346 0.000291 0.120105 0.0678186 7.35971 2650 
117 1 -0.068679 -0.0132596 0.00198269 0.000291 0.179648 0.00471399 5.81054 2650 
120 1 -0.016055 -0.00251684 0.000189 0.000105 0 -0.011755 0 2650 
39 1 -0.06866 -0.0330107 0.00257412 0.000291 0.400855 0.390707 10.6843 2650 
162 1 -0.0677514 -0.0306354 0.00513171 0.001058 0.69469 0.133529 9.00453 2650 
164 1 -0.003894 -0.00214384 0.005467 0.001058 0 -0.011755 0 2650 
58 1 -0.00707081 -0.00221222 0.00619362 0.001058 0.00939797 -0.00814862 -0.00719036 2650 
84 1 -0.0672203 -0.0477438 0.00997892 0.001058 1.50654 -0.175149 10.1307 2650 
300 1 -0.0127477 -0.000352714 0.00937215 0.001058 -0.00246489 -0.00748443 -0.0047401 2650 
264 1 -0.0663511 -0.0495368 0.0147167 0.001058 2.3217 -0.0854741 10.4624 2650 
109 1 -0.0663079 -0.0477945 0.0180874 0.000291 2.74049 -0.154381 10.0419 2650 
215 1 -0.0653343 -0.0489834 0.018733 0.001058 2.95203 -0.0550503 10.2914 2650 
280 1 -0.0648036 -0.0212658 0.0204655 0.001058 2.50659 -0.110236 7.92674 2650 
83 1 -0.064079 -0.0416688 0.022645 0.001058 3.62044 -0.0254327 10.276 2650 
82 1 -0.0633416 -0.0301498 0.0245887 0.001058 3.24644 -0.124322 8.38624 2650 
76 1 -0.0630438 -0.0188426 0.0253991 0.001058 3.13002 -0.202521 7.76601 2650 
204 1 -0.0610912 -0.0178318 0.029791 0.001058 3.73705 0.0307067 7.69363 2650 
290 1 -0.0613695 -0.0487551 0.0309454 0.000291 5.10489 0.19251 10.1239 2650 
201 1 -0.0587582 -0.0300258 0.0329555 0.00164 4.29827 -0.097482 7.56728 2650 
305 1 -0.0600332 -0.0143545 0.0338381 0.000105 4.37167 1.14515 7.75565 2650 
289 1 -0.0565935 -0.0228773 0.0389534 0.000291 5.21178 0.42448 7.56157 2650 
272 1 -0.0553316 -0.022564 0.0394421 0.001058 5.23543 -0.303792 7.39854 2650 
285 1 -0.0510444 -0.00910632 0.0428728 0.001058 2.60015 -0.371393 2.1559 2650 
165 1 -0.0471104 -0.0345633 0.0499992 0.000291 6.76073 0.516532 6.36059 2650 
15 1 -0.047682 -0.018269 0.0494694 0.000291 6.24468 -0.132612 6.02811 2650 
40 1 -0.0437582 -0.0141485 0.0532171 0.000105 5.91839 -0.0996269 4.81662 2650 
89 1 -0.0376542 -0.0611601 0.0558678 0.00164 8.78255 2.73344e-05 5.91969 2650 
73 1 -0.0382566 -0.0539892 0.0554623 0.00164 8.68548 -0.0624169 5.98881 2650 
191 1 -0.0399781 -0.0464306 0.0558702 0.000291 8.71823 -0.0386543 6.23817 2650 
22 1 -0.04177 -0.0254437 0.0545524 0.000291 6.27826 0.737125 4.79644 2650 
281 1 -0.0372042 -0.0581633 0.0577623 0.000291 9.1715 -0.0375692 5.90505 2650 
282 1 -0.0380833 -0.019115 0.0572033 0.000291 7.70506 0.0387893 5.11845 2650 
230 1 -0.0323791 -0.0508729 0.0597527 0.001058 9.51921 0.0171932 5.1584 2650 
288 1 -0.0331719 -0.0451477 0.0601953 0.000291 9.7172 0.0154205 5.35108 2650 
85 1 -0.0355324 -0.0209991 0.0588207 0.000291 5.78963 -0.231185 3.48346 2650 
239 1 -0.029292 -0.0497333 0.0613333 0.001058 9.7519 0.0699674 4.65706 2650 
121 1 -0.0298471 -0.046306 0.0604291 0.00164 9.54912 0.0661613 4.71657 2650 
243 1 -0.0270149 -0.0472243 0.0623746 0.001058 9.84856 -0.0217736 4.26711 2650 
29 1 -0.0291002 -0.018247 0.0622648 0.000291 8.37011 -0.159915 3.90881 2650 
131 1 -0.011272 -0.0416691 0.0670123 0.001058 10.7174 -0.324838 1.81205 2650 
14 1 -0.00984944 -0.0227668 0.0680017 0.000291 10.8731 0.285388 1.57515 2650 
141 1 -0.00670327 -0.0327947 0.0683795 0.000291 10.3273 0.289674 1.01167 2650 
269 1 -0.00344204 -0.0119621 0.0686201 0.000291 4.32175 0.400003 0.197721 2650 
88 1 -0.0106908 -0.00583961 0.0680602 0.000105 7.37388 -0.450047 1.15624 2650 
207 1 -0.000933269 -0.00128055 0.0687017 0.000291 6.61871 -0.166863 0.0741866 2650 
205 1 -0.00483577 0.00088921 -0.0149366 0.000291 0.00945843 0.00374827 0.0244543 2650 
67 1 -0.0062311 0.0124491 -0.0143535 0.001058 -0.020884 0.0142907 -0.00966941 2650 
293 1 -0.00701472 0.0324738 -0.0142213 0.001058 -0.10168 0.041696 0.0422299 2650 
157 1 -0.00480798 0.0455495 -0.0141375 0.000291 0.0079085 0.0606548 0.000918149 2650 
75 1 -0.00284279 0.0489968 -0.0146903 0.001058 0.0206685 0.0556886 -0.0248334 2650 
130 1 -0.00260237 0.000897543 -0.0139987 0.001058 -0.00730232 0.00347522 0.00594057 2650 
33 1 -0.000932783 0.0177962 -0.0139641 0.00164 0.00603998 0.0215627 0.00352792 2650 
94 1 -0.0115432 0.00203144 -0.0118422 0.000291 8.5498e-05 -0.0117385 8.5498e-05 2650 
74 1 -0.0113745 0.00287356 -0.00885953 0.001058 0.00156258 -0.00569596 -0.00749774 2650 
38 1 -0.00321239 0.0135501 -0.0098417 0.000291 0.0290333 0.00993382 0.0254358 2650 
263 1 -0.0108058 0.0175176 -0.00818948 0.000291 0.0807781 0.0834583 0.0461979 2650 
234 1 -0.0124729 0.00863679 -0.00749016 0.000291 -0.00131366 0.00431637 0.0126772 2650 
159 1 -0.012707 0.00212516 -0.00588 0.000291 0 -0.011755 0 2650 
10 1 -0.014412 0.00612664 -0.00477769 0.001058 0.00366734 -0.00257496 -0.00408264 2650 
80 1 -0.0156868 0.00624971 -0.00425555 0.000105 -0.00457687 0.0251897 -0.0282816 2650 
147 1 -0.015232 0.0299092 -0.00411871 0.001058 -0.0140684 0.029094 0.0571716 2650 
97 1 -0.0131896 0.00333137 -0.00249711 0.00164 0.00874168 0.0124725 -0.0221748 2650 
114 1 -0.0110355 0.00481922 -0.00318714 0.001058 0.0187062 0.0117361 -0.00752779 2650 
7 1 -0.00515487 0.0241042 -0.00319667 0.000291 0.00378858 0.0136367 -0.000251809 2650 
61 1 -0.016439 0.00184316 -0.001038 0.000291 0 -0.011755 0 2650 
129 1 -0.00339137 0.00776662 -0.000943737 0.00164 0.00825627 0.00147102 -0.0030875 2650 
187 1 -0.0157083 0.0188448 -0.000268362 0.001058 -0.000280938 0.0161775 0.0137442 2650 
65 1 -0.0124128 0.0215695 -0.00132153 0.00164 -0.00447342 0.0138222 0.00034274 2650 
268 1 -0.011054 0.000705157 0.000789 0.000291 0 -0.011755 0 2650 
71 1 -0.00108411 0.00439156 0.00143017 0.000291 0.000861808 -0.00718564 -0.0173142 2650 
209 1 -0.0151851 0.00823679 0.00181658 0.001058 -0.0032116 0.00264672 0.00158384 2650 
115 1 -0.0156858 0.0118015 0.000243355 0.001058 -9.57324e-05 0.0046985 0.0169075 2650 
237 1 -0.0157762 0.067386 0.00160976 0.001058 -0.00654936 0.22686 0.0745762 2650 
211 1 -0.0128053 0.0051504 0.00220976 0.001058 0.000982608 0.00314487 0.00709992 2650 
256 1 -0.0163519 0.0110117 0.00259969 0.000291 0.00184238 0.020694 0.00254716 2650 
266 1 -0.0155705 0.00993919 0.00307411 0.001058 0.000769948 0.0100988 -0.00524247 2650 
220 1 -0.0150584 0.021354 0.00209576 0.000291 -0.00743392 0.0110018 0.0132466 2650 
291 1 -0.008194 0.00223016 0.004767 0.000291 0 -0.011755 0 2650 
106 1 -0.00605208 0.0201984 0.00402015 0.001058 0.0119634 0.0223893 -0.0027555 2650 
186 1 -0.00619847 0.000276291 0.00657657 0.001058 -4.15282e-05 -0.0115536 6.1062e-05 2650 
144 1 -0.00839905 0.0160682 0.00626088 0.000105 0.00807853 0.0136784 0.0281765 2650 
41 1 -0.00215013 0.016215 0.00602918 0.00164 0.0102042 0.00860529 0.0210319 2650 
242 1 -0.0050851 0.0224548 0.00763947 0.000291 0.0116924 0.0265357 0.00697501 2650 
124 1 -0.0134677 0.0287385 0.00685453 0.001058 0.00450723 0.0342902 0.00378394 2650 
28 1 -0.0132858 0.0353838 0.00740284 0.001058 0.00734507 0.0503926 0.00344867 2650 
304 1 -0.012709 0.00151116 0.009818 0.000291 0 -0.011755 0 2650 
68 1 -0.00238212 0.00813795 0.00940415 0.001058 0.00272783 -0.00342387 -0.00169301 2650 
217 1 -0.00959988 0.0330723 0.00853476 0.001058 0.000747792 0.0265619 -0.00553463 2650 
55 1 -0.01171 0.00197916 0.01034 0.000291 0 -0.011755 0 2650 
4 1 -0.0108186 0.00821177 0.0114643 0.001058 0.00569435 0.00097307 0.00498712 2650 
250 1 -0.00965004 0.00119943 0.0123588 0.001058 0.0256429 -0.00394298 0.00852814 2650 
170 1 -0.00692705 0.00130181 0.0123113 0.001058 0.00813908 -0.00598064 0.0087017 2650 
110 1 -0.000368058 0.000778526 0.0136016 0.000291 -0.0169259 -0.0135844 0.0488079 2650 
299 1 -0.00897474 0.00325685 0.0120997 0.001058 0.00581403 -0.00322581 0.00124072 2650 
224 1 -0.00809446 0.0137059 0.0130912 0.001058 -0.00111942 0.00491513 -0.00282362 2650 
273 1 -0.00325263 0.0340399 0.0135586 0.001058 -0.00419695 0.043991 0.0228631 2650 
17 1 -7.24011e-05 0.0324018 0.0153071 0.00164 0.0436007 0.0417277 -0.00154642 2650 
154 1 -0.00527525 0.0866538 -0.00884673 0.001058 -0.025218 0.0914679 0.0181079 2650 
151 1 0.00621051 -0.0504752 -0.068429 0.000291 -11.0725 -1.63251 -1.00471 2650 
254 1 0.00783024 -0.0413232 -0.0682635 0.000291 -9.76522 -0.435668 -1.12289 2650 
267 1 0.0024148 -0.0101678 -0.0686645 0.000291 -5.4076 0.0286065 -0.203458 2650 
152 1 0.00348969 -0.00396505 -0.0688041 0.000105 -8.07092 0.0797141 -0.402519 2650 
108 1 0.0602193 -0.0278341 -0.0314624 0.001058 -4.23268 -0.0244182 -8.07925 2650 
90 1 0.0311247 -0.0524353 -0.0604124 0.001058 -9.45942 0.0233398 -4.87438 2650 
59 1 0.0283933 -0.0444267 -0.0617552 0.001058 -8.81391 0.145227 -4.04821 2650 
30 1 0.0301869 -0.0320254 -0.0617199 0.000291 -8.38577 -0.0888305 -4.10525 2650 
182 1 0.0312213 -0.0112567 -0.0612256 0.000291 -6.45929 0.398309 -3.31873 2650 
225 1 0.0345003 -0.049314 -0.0585538 0.001058 -9.45215 0.0325271 -5.57096 2650 
21 1 0.0355567 -0.0473682 -0.0588108 0.000291 -9.27743 0.105976 -5.60889 2650 
43 1 0.0320939 -0.0407885 -0.059903 0.001058 -9.5376 -0.0425814 -5.1094 2650 
259 1 0.0318839 -0.0318703 -0.0599994 0.001058 -8.83903 -0.0797531 -4.6814 2650 
251 1 0.0367479 -0.0271623 -0.0571481 0.001058 -7.72047 0.204453 -4.97775 2650 
226 1 0.0414311 -0.0257537 -0.0548008 0.000291 -6.97889 -0.0920815 -5.27794 2650 
122 1 0.0398889 -0.0240404 -0.0550019 0.001058 -7.29785 0.0423045 -5.28329 2650 
8 1 0.05325 -0.0600356 -0.0437104 0.000105 -7.15796 0.197663 -8.72586 2650 
146 1 0.052822 -0.0495494 -0.0427465 0.001058 -6.8361 -0.0703188 -8.42194 2650 
247 1 0.0525242 -0.0489171 -0.0442975 0.000291 -7.06994 -0.0489112 -8.38162 2650 
179 1 0.0543768 -0.0493012 -0.0407573 0.001058 -6.53759 -0.00442734 -8.72181 2650 
214 1 0.0567046 -0.0547029 -0.0388083 0.000291 -6.23046 -0.211219 -9.10418 2650 
172 1 0.0574186 -0.0491818 -0.0363633 0.001058 -5.81417 -0.0109369 -9.18112 2650 
140 1 0.0576917 -0.0356235 -0.0358915 0.001058 -5.36939 0.0661107 -8.63232 2650 
93 1 0.0600728 -0.049801 -0.0333872 0.000291 -5.34866 0.00365156 -9.62293 2650 
138 1 0.061551 -0.0498402 -0.0288308 0.001058 -4.59762 -0.0289578 -9.81771 2650 
49 1 0.06029 -0.0465356 -0.0301131 0.00164 -4.76475 0.0973552 -9.53653 2650 
181 1 0.0639226 -0.0357271 -0.0251853 0.000291 -4.13237 0.170481 -10.4939 2650 
142 1 0.00324784 -0.00511047 -0.0165228 0.000291 0.211623 -0.684257 -0.552791 2650 
252 1 0.00245 -8.58432e-05 -0.01336 0.001058 0 -0.011755 0 2650 
275 1 0.012705 -0.000723843 -0.010476 0.000291 0 -0.011755 0 2650 
50 1 0.067217 -0.0306071 -0.00996678 0.001058 -1.47294 -0.0114015 -10.0075 2650 
236 1 0.067483 -0.0546125 -0.00793441 0.001058 -1.23455 0.0675623 -10.4822 2650 
60 1 0.007579 -0.00215484 -0.006312 0.001058 0 -0.011755 0 2650 
45 1 0.010575 -0.00223484 -0.007722 0.000291 0 -0.011755 0 2650 
253 1 0.0180817 -0.00475385 -0.00359839 0.000291 1.28966 -0.336346 -0.332 2650 
227 1 0.00944 -0.00155684 -0.002109 0.000291 0 -0.011755 0 2650 
23 1 0.0686957 -0.033995 -0.000898023 0.000291 -0.145522 0.0687248 -10.968 2650 
177 1 0.000135608 -0.00284124 -0.000460546 0.00164 -0.00966503 -0.00602483 0.00423439 2650 
35 1 0.00336787 -0.00303919 0.00117216 0.001058 0.00654177 -0.0105187 -0.00962265 2650 
287 1 0.0128303 -0.00268977 0.00137535 0.001058 0.00844674 -0.013594 -0.029996 2650 
202 1 0.00558241 -0.000779688 0.00103354 0.001058 0.0093109 -0.00893593 -0.0136131 2650 
48 1 0.009671 -0.000962843 0.000233 0.000105 0 -0.011755 0 2650 
99 1 0.00381304 -0.0011373 0.00374436 0.001058 0.0243572 -0.0114204 0.00238608 2650 
294 1 0.006997 -0.00124884 0.003581 0.001058 0 -0.011755 0 2650 
96 1 0.0687416 -0.00916937 0.00366936 0.000105 0.452826 -0.047873 -8.48922 2650 
6 1 0.0684874 -0.00794403 0.00518985 0.000291 0.696807 0.0853117 -8.5203 2650 
212 1 0.001087 -0.000738843 0.005915 0.000291 0 -0.011755 0 2650 
24 1 0.005464 -0.00116684 0.005551 0.000105 0 -0.011755 0 2650 
51 1 0.009662 -9.38432e-05 0.004577 0.001058 0 -0.011755 0 2650 
231 1 0.00733078 -0.00213124 0.0070493 0.001058 0.00167534 -0.0128877 -0.000760445 2650 
100 1 0.0108696 -0.00286244 0.00713928 0.001058 0.00912399 -0.0117578 -0.00681185 2650 
145 1 0.00506328 -0.000258821 0.00730297 0.00164 0.00142123 -0.0121074 -0.00172265 2650 
64 1 0.0682231 -0.00261762 0.00956473 0.000105 1.09054 0.0322596 -7.80616 2650 
302 1 0.0674797 -0.0227095 0.0129414 0.000291 1.50554 -0.382121 -7.8642 2650 
197 1 0.0674573 -0.00501222 0.0130256 0.000291 1.60998 0.0275923 -8.40297 2650 
3 1 0.00850118 -0.00267037 0.0127297 0.001058 -0.00211489 -0.0052299 0.000123346 2650 
206 1 0.0672493 -0.0423057 0.0141485 0.000291 1.74692 0.0730008 -8.33427 2650 
235 1 0.0669391 -0.0146274 0.0155331 0.000291 1.88637 0.0983566 -7.93932 2650 
16 1 0.0674896 -0.00290033 0.0138163 0.000105 1.6491 0.0265667 -8.0747 2650 
184 1 0.0666863 -0.0123397 0.0173518 0.000105 1.8495 -0.277429 -7.0762 2650 
295 1 0.0654211 -0.0140034 0.0210684 0.000291 2.86582 -1.08803 -8.93043 2650 
44 1 0.0638815 -0.0162479 0.0232233 0.001058 3.12285 -0.0166823 -8.55834 2650 
229 1 0.0635045 -0.0494577 0.0242307 0.001058 3.87529 0.0133979 -10.1556 2650 
188 1 0.0624134 -0.0616121 0.0268601 0.001058 4.20829 0.014952 -9.77786 2650 
168 1 0.0634805 -0.0104478 0.0268124 0.000105 2.41625 0.0330144 -5.68503 2650 
20 1 0.0611664 -0.0466449 0.029648 0.001058 4.64379 0.040312 -9.58025 2650 
200 1 0.00739506 -0.00398184 0.0684951 0.000105 7.49305 0.610944 -0.800761 2650 
192 1 0.0612989 -0.000105011 0.0314433 0.000105 3.87895 0.000362311 -7.57653 2650 
42 1 0.0593747 -0.051934 0.0330665 0.001058 5.05166 0.0633439 -9.06971 2650 
223 1 0.058609 -0.0285169 0.0343676 0.001058 4.37981 -0.211827 -7.40534 2650 
167 1 0.0592989 -0.016142 0.0347489 0.000291 4.73774 0.0141074 -8.07487 2650 
148 1 0.0578083 -0.0488983 0.0357434 0.001058 5.62229 -0.0334289 -9.09316 2650 
185 1 0.057 -0.0458066 0.0359486 0.00164 5.60651 0.00570381 -8.89354 2650 
218 1 0.0578704 -0.0401663 0.0356242 0.001058 5.72723 -0.00287221 -9.30554 2650 
255 1 0.0575675 -0.0194989 0.0375305 0.000291 4.72997 0.1407 -7.26422 2650 
261 1 0.058231 -0.00827023 0.0364843 0.000291 4.526 0.08013 -7.22586 2650 
193 1 0.0559179 -0.0496151 0.0376064 0.00164 5.91445 -0.0102579 -8.79446 2650 
241 1 0.0546478 -0.0267188 0.0416468 0.000291 4.42775 -0.387332 -5.77361 2650 
213 1 0.0557562 -0.024488 0.0401537 0.000291 5.17069 0.487324 -7.16552 2650 
98 1 0.0523904 -0.013328 0.0432681 0.001058 5.36873 -0.0703154 -6.51841 2650 
208 1 0.0527341 -0.010516 0.0428511 0.001058 5.13251 -0.0824868 -6.32219 2650 
86 1 0.0522086 -0.0155457 0.0446687 0.000291 5.42222 0.0864412 -6.33042 2650 
270 1 0.0516243 -0.0155623 0.0453401 0.000291 5.43125 0.229726 -6.1643 2650 
119 1 0.049363 -0.0440228 0.0477928 0.000291 7.3332 -0.6193 -7.57257 2650 
274 1 0.043366 -0.0393459 0.0532798 0.000291 4.14999 -2.05258 -3.35866 2650 
174 1 0.0446516 -0.0340483 0.0522099 0.000291 7.14389 -0.931694 -6.08773 2650 
2 1 0.0436755 -0.033006 0.0520521 0.001058 7.62093 -0.0201593 -6.40739 2650 
126 1 0.035165 -0.0413581 0.0590432 0.000291 5.80072 -1.28068 -3.41606 2650 
228 1 0.0305735 -0.0122726 0.0615546 0.000291 6.29927 -0.324588 -3.11742 2650 
219 1 0.0288508 -0.000290987 0.0623577 0.000291 7.44784 -0.00604563 -3.44765 2650 
277 1 0.0225717 -0.0249912 0.0648949 0.000291 8.95501 0.189103 -3.11415 2650 
221 1 0.0248426 -0.0209971 0.0640756 0.000291 8.13527 0.174557 -3.15198 2650 
26 1 0.0161779 -0.0440366 0.06601 0.001058 10.368 0.307557 -2.52245 2650 
196 1 0.010005 -0.0417104 0.0672119 0.001058 10.1927 0.0697361 -1.56844 2650 
36 1 0.0145823 -0.0425373 0.0663775 0.001058 10.1247 0.141753 -2.2193 2650 
158 1 0.00647953 -0.0201801 0.0684022 0.000291 7.42806 -0.093237 -0.714561 2650 
37 1 0.006156 0.00154316 -0.015157 0.000291 0 -0.011755 0 2650 
244 1 0.00455199 0.00450313 -0.0150559 0.001058 -0.0978184 0.0259238 -0.0262948 2650 
127 1 0.00684071 0.0549517 -0.0146795 0.000291 0.0331404 0.0647284 -0.0037516 2650 
78 1 0.001258 0.00152916 -0.012517 0.000291 0 -0.011755 0 2650 
134 1 0.00349294 0.00509991 -0.0108303 0.000291 -0.0128132 0.00355392 -0.00692922 2650 
87 1 0.00619493 0.00370295 -0.00889113 0.000291 -0.00318762 -0.017547 -0.0237996 2650 
260 1 0.00878627 0.00426402 -0.00805331 0.000291 -0.00392275 0.00411325 -0.00447499 2650 
232 1 0.0110739 0.0182517 -0.00981596 0.001058 -0.0167248 0.0324446 -0.0332171 2650 
19 1 0.0141853 0.00841553 -0.00659114 0.001058 -0.00189711 0.0050805 -0.00113271 2650 
284 1 0.0140374 0.0100723 -0.0073322 0.000291 -0.00371053 0.00586111 -0.00129449 2650 
301 1 0.00660272 0.0315585 -0.00752504 0.001058 0.00272587 0.0220862 -0.0290146 2650 
278 1 7.4e-05 0.000356157 -0.004448 0.001058 0 -0.011755 0 2650 
279 1 0.00770926 0.0066251 -0.00417772 0.001058 0.00690887 -0.00122776 0.0071413 2650 
203 1 0.0058121 0.00836325 -0.0047221 0.001058 0.0105265 0.0334803 0.00411967 2650 
77 1 0.00553988 0.0110995 -0.00584058 0.000291 0.0279429 0.00178097 -0.016803 2650 
286 1 0.0149017 0.0128536 -0.00522968 0.001058 -0.0100351 0.050326 -0.0237317 2650 
113 1 0.0120059 0.00206768 -0.0020782 0.00164 -0.0251958 0.00978061 -0.000134024 2650 
161 1 0.0137439 0.00502274 -0.00335631 0.00164 0.000907452 0.00399164 0.00334652 2650 
199 1 0.0157856 0.00456961 -0.00205559 0.000291 -0.00149126 0.000541054 0.0056379 2650 
92 1 0.0110693 0.00635573 -0.00288596 0.001058 0.00298746 0.00292354 0.00546929 2650 
123 1 0.0143667 0.0172122 -0.00241024 0.001058 0.0119273 0.0407543 -0.0104321 2650 
190 1 0.005899 0.00114516 -0.000534 0.000291 0 -0.011755 0 2650 
153 1 0.0042864 0.00624841 -0.00179298 0.00164 0.00905173 -0.00370467 -0.0193596 2650 
194 1 0.0157358 0.0157163 -0.00162382 0.001058 -0.00717738 0.0355954 0.00284246 2650 
180 1 0.0158057 0.0481568 -0.000830763 0.001058 0.0127121 0.0643237 0.0551868 2650 
245 1 0.00248246 0.0683295 -0.000918995 0.001058 0.013355 0.0538623 -0.0223836 2650 
128 1 0.00361 0.000744157 0.000511 0.000105 0 -0.011755 0 2650 
176 1 0.00522895 0.00011591 0.000343746 0.000105 0.0200199 0.000256501 -0.0124767 2650 
101 1 0.0066298 0.00117994 0.0009151 0.000291 0.0107852 -0.0015929 -0.0095042 2650 
271 1 0.011715 0.000601474 0.000761647 0.001058 0.0150184 -0.010407 0.010297 2650 
1 1 0.0140767 0.00400787 0.00113649 0.00164 0.00550181 0.00569205 -0.0118839 2650 
9 1 0.0138531 0.0125836 0.00128137 0.00164 0.00232671 0.0541947 0.0097899 2650 
105 1 0.008417 0.0124525 0.00205947 0.00164 0.00091231 0.0106728 0.0284417 2650 
258 1 0.0149746 0.0148984 0.00225241 0.001058 0.00615004 0.0226911 -0.0182162 2650 
139 1 0.0134267 0.0209697 0.00267074 0.001058 0.0127696 0.00849352 0.0230521 2650 
249 1 0.000751345 0.0255044 0.00383922 0.000291 0.00987628 0.0185258 -0.0129358 2650 
52 1 0.00212821 0.031217 0.00256711 0.001058 0.0258261 0.0380708 0.00407144 2650 
292 1 0.00979802 0.0315076 0.00359648 0.001058 -0.0104367 0.0376087 -0.0291473 2650 
195 1 0.0149279 0.000409425 0.00515454 0.001058 0.00741724 -0.000789799 -0.0304536 2650 
79 1 0.014214 0.00174616 0.005058 0.000291 0 -0.011755 0 2650 
222 1 0.009219 0.00110516 0.006833 0.001058 0 -0.011755 0 2650 
112 1 0.013668 0.00206916 0.007002 0.000105 0 -0.011755 0 2650 
156 1 0.00782454 0.0117711 0.00752723 0.001058 0.00957299 -0.000303602 -0.00985815 2650 
57 1 0.00612358 0.0238111 0.00733316 0.00164 -0.000919831 0.00616449 -0.024056 2650 
116 1 0.00876117 0.0347717 0.0069951 0.001058 -0.0278213 0.0454338 0.0115295 2650 
54 1 0.0143808 0.0326584 0.00829626 0.000291 0.0125428 0.00255638 -0.0492536 2650 
298 1 0.0110146 0.00505175 0.0113569 0.000105 0.00377194 -0.00442838 -0.00799766 2650 
70 1 0.00258491 0.0222738 0.0102617 0.000291 0.0174831 0.0757361 0.0937803 2650 
238 1 0.00360949 0.0326638 0.0112226 0.001058 0.0207771 0.0325148 -0.00733364 2650 
265 1 0.00619865 0.00900441 0.0131881 0.001058 0.011667 0.00657701 -0.00499144 2650 
66 1 0.00919304 0.00837632 0.0123382 0.001058 0.00846641 -0.000759158 0.00162513 2650 
95 1 0.00668701 0.0016053 0.0145602 0.000291 -0.000366951 -0.00495937 0.00220646 2650 
198 1 0.00831609 0.0130444 0.0143084 0.000291 -0.0744716 1.66389e-05 0.0397786 2650 
155 1 0.0121558 0.10749 -0.010692 0.001058 0.04057 0.188533 0.00265111 2650 
136 1 0.0136342 0.111373 0.00623372 0.000105 0.0375902 0.10168 0.0199891 2650 
