ITEM: TIMESTEP
13953115
ITEM: NUMBER OF ATOMS
274
ITEM: BOX BOUNDS ff ff ff
-0.15 0.15
-0.15 0.15
-0.15 0.15
ITEM: ATOMS id type x y z radius vx vy vz density 
8 1 -0.00593923 -0.0585408 -0.068626 0.000105 -9.45972 0.0994707 0.834893 2650 
236 1 -0.00808994 -0.0545663 -0.0674663 0.001058 -10.6117 -0.0635598 1.27218 2650 
172 1 -0.0120138 -0.0530935 -0.0668729 0.001058 -9.78606 0.387983 1.7807 2650 
138 1 -0.0155979 -0.050152 -0.0661366 0.001058 -10.0843 0.121263 2.38143 2650 
254 1 -0.011102 -0.0508452 -0.0677765 0.000291 -10.4469 0.553638 1.7027 2650 
93 1 -0.0114791 -0.0485456 -0.0677391 0.000291 -10.5183 0.0777677 1.78219 2650 
59 1 -0.0161334 -0.0473524 -0.0660183 0.001058 -9.93335 0.0334661 2.41617 2650 
35 1 -0.0165897 -0.043159 -0.0659055 0.001058 -9.7282 -0.199624 2.44715 2650 
140 1 -0.00880906 -0.0394187 -0.067368 0.001058 -10.4027 -0.00768873 1.36043 2650 
76 1 -0.00386024 -0.0283746 -0.0678368 0.001058 -9.95321 0.60701 0.540105 2650 
15 1 -0.0151892 -0.0153176 -0.067028 0.000291 -8.74208 -0.00201347 1.98698 2650 
179 1 -0.0219428 -0.0494608 -0.0643303 0.001058 -10.1605 -0.0825328 3.46613 2650 
49 1 -0.0182277 -0.0499617 -0.0648803 0.00164 -9.81047 0.231765 2.75612 2650 
146 1 -0.0179857 -0.0464409 -0.0655438 0.001058 -9.98166 -0.208258 2.73861 2650 
247 1 -0.0238599 -0.0430557 -0.0644545 0.000291 -9.54117 -0.666353 3.53233 2650 
214 1 -0.0308428 -0.0504014 -0.0614177 0.000291 -9.36751 0.0930542 4.70259 2650 
45 1 -0.0302706 -0.0165143 -0.0617067 0.000291 -4.8139 0.61561 2.3481 2650 
219 1 -0.0455057 -0.000291204 -0.0514795 0.000291 -6.50827 0.00419581 5.7561 2650 
289 1 -0.0482399 -0.0311642 -0.0487151 0.000291 -7.52966 -1.11208 7.89646 2650 
64 1 -0.0483068 -0.0145224 -0.0491219 0.000105 -5.77695 -0.404498 5.6533 2650 
269 1 -0.0485843 -0.0128253 -0.0485833 0.000291 -4.90699 -0.365181 4.91707 2650 
117 1 -0.0489931 -0.0130028 -0.0481664 0.000291 -4.99978 -0.283821 4.90198 2650 
151 1 -0.0508385 -0.0299144 -0.0462158 0.000291 -6.619 -0.305987 7.27553 2650 
34 1 -0.0500453 -0.0314816 -0.0459563 0.001058 -6.83979 -0.137808 7.45553 2650 
162 1 -0.0519743 -0.0348881 -0.0437508 0.001058 -6.29454 -0.0537452 7.49264 2650 
204 1 -0.0513023 -0.0304696 -0.0445551 0.001058 -6.61446 -0.0629798 7.60457 2650 
43 1 -0.05356 -0.0413066 -0.0418127 0.001058 -6.54452 0.0846853 8.38276 2650 
107 1 -0.0554193 -0.0390046 -0.039301 0.001058 -6.10864 -0.118877 8.61839 2650 
167 1 -0.0574428 -0.00538713 -0.0376969 0.000291 -4.56796 0.191206 7.01146 2650 
270 1 -0.0594524 -0.0143179 -0.0344854 0.000291 -4.3135 -0.155811 7.41872 2650 
171 1 -0.059851 -0.0459967 -0.0322115 0.001058 -5.21354 -0.187432 9.68659 2650 
96 1 -0.0619652 -0.0231671 -0.0301221 0.000105 -3.41485 -0.166762 7.03776 2650 
150 1 -0.00070163 -0.030666 -0.0687059 0.000291 -10.7161 0.291006 0.0815725 2650 
213 1 -0.0629107 -0.0253889 -0.0276199 0.000291 -3.34713 -0.378418 7.65868 2650 
90 1 -0.0625185 -0.0512846 -0.0266611 0.001058 -4.10583 -0.277772 9.62922 2650 
257 1 -0.0629372 -0.0494373 -0.0256678 0.001058 -3.71149 0.209149 9.10161 2650 
21 1 -0.0657029 -0.0453478 -0.0201768 0.000291 -3.15276 -0.0200088 10.2671 2650 
86 1 -0.0655718 -0.0170481 -0.0205993 0.000291 -2.57046 -0.0222952 8.2541 2650 
165 1 -0.0660364 -0.0510828 -0.0190379 0.000291 -2.63236 -0.319124 9.10462 2650 
82 1 -0.0657174 -0.0319062 -0.0172627 0.001058 -2.522 0.0305932 9.58793 2650 
225 1 -0.0659654 -0.0463254 -0.016381 0.001058 -2.56543 -0.109282 10.3293 2650 
46 1 -0.0669345 -0.0126055 -0.015591 0.000291 -1.80623 0.493256 7.66527 2650 
182 1 -0.0676147 -0.0172508 -0.0122804 0.000291 -1.46505 0.484167 7.96922 2650 
16 1 -0.0676481 -0.00726121 -0.0130668 0.000105 -1.59886 -0.213213 8.25587 2650 
135 1 -0.00907601 -0.00109811 -0.0137474 0.000291 0.00330025 -0.00264717 0.00636962 2650 
201 1 -0.0666303 -0.0297001 -0.00993846 0.00164 -1.426 0.0116886 9.77845 2650 
272 1 -0.0675304 -0.0329331 -0.00750109 0.001058 -1.14463 0.0645948 9.9176 2650 
282 1 -0.0682506 -0.0262782 -0.00791055 0.000291 -1.08636 -0.356238 9.5029 2650 
173 1 -0.0680677 -0.0053494 -0.0093653 0.000291 -1.08382 0.0520474 7.77189 2650 
47 1 -0.013306 -0.00325525 -0.0085394 0.000291 -0.00125586 -0.0105028 0.00427205 2650 
221 1 -0.0684576 -0.02447 -0.00585985 0.000291 -0.76541 -0.43379 8.94678 2650 
276 1 -0.013674 -0.00239707 -0.004231 0.000291 0 -0.011755 0 2650 
240 1 -0.0118405 -0.0033728 -0.00599545 0.000291 -0.891403 -0.0320548 -0.451363 2650 
13 1 -0.014201 -0.00329707 -0.003882 0.000291 0 -0.011755 0 2650 
104 1 -0.014089 -0.00261507 -0.003012 0.000105 0 -0.011755 0 2650 
277 1 -0.068699 -0.0223145 -0.00111287 0.000291 -0.140874 0.0479947 8.82779 2650 
29 1 -0.0687077 -0.0148286 -0.00010812 0.000291 -0.015493 0.0212295 9.4785 2650 
302 1 -0.0686435 -0.0151273 0.00196584 0.000291 0.208357 -0.103547 8.41777 2650 
268 1 -0.011054 -0.000823067 0.000789 0.000291 0 -0.011755 0 2650 
192 1 -0.0687977 -0.000105261 0.00364182 0.000105 0.471939 0.000393516 8.67898 2650 
235 1 -0.0684795 -0.00784286 0.00547602 0.000291 0.764146 0.167907 8.80506 2650 
58 1 -0.00850245 -0.0029152 0.00519407 0.001058 -0.0794454 0.0037842 -0.00935721 2650 
186 1 -0.00620387 -0.00122575 0.00658451 0.001058 -4.15282e-05 -0.0115536 6.1062e-05 2650 
300 1 -0.0130681 -0.00132574 0.00875591 0.001058 -0.00246489 -0.00748443 -0.0047401 2650 
304 1 -0.012709 -1.7067e-05 0.009818 0.000291 0 -0.011755 0 2650 
255 1 -0.0678259 -0.0259252 0.0109808 0.000291 1.4373 0.140768 8.66878 2650 
197 1 -0.0673735 -0.00348917 0.0134536 0.000291 1.61971 -0.157936 8.13815 2650 
110 1 -0.00165593 -0.000624216 0.0148433 0.000291 -0.00381615 -0.00836552 -0.0245093 2650 
261 1 -0.0658365 -0.020552 0.0197025 0.000291 2.49679 0.183449 8.32335 2650 
208 1 -0.063693 -0.0187383 0.0237256 0.001058 3.2373 0.0299555 8.66255 2650 
248 1 -0.0549914 -0.0298505 0.0411927 0.000291 4.92545 0.155708 6.5626 2650 
98 1 -0.0537335 -0.0173897 0.0415947 0.001058 5.71696 -0.0452585 7.39324 2650 
6 1 -0.053922 -0.0211571 0.042587 0.000291 5.47914 -0.0422472 6.94883 2650 
169 1 -0.0460744 -0.0611473 0.0491573 0.00164 7.72105 -0.00247101 7.23686 2650 
246 1 -0.0463673 -0.0585136 0.0496685 0.001058 7.80124 -0.000481005 7.28274 2650 
25 1 -0.0438107 -0.0585782 0.0511834 0.00164 8.00158 -0.0197214 6.85078 2650 
103 1 -0.044798 -0.0527345 0.0520955 0.000291 8.30392 0.571778 7.1389 2650 
178 1 -0.0422259 -0.0570075 0.0532328 0.001058 8.29203 0.0286455 6.57718 2650 
177 1 -0.0354965 -0.00914317 0.0572713 0.00164 3.59326 -0.165902 2.29456 2650 
40 1 -0.0260552 -0.00381708 0.0637732 0.000105 4.65218 -0.0714596 1.92673 2650 
137 1 -0.0164475 -0.0611601 0.0653346 0.00164 10.2623 -7.35422e-07 2.58345 2650 
174 1 -0.0197068 -0.0199481 0.0658355 0.000291 9.12675 0.429312 2.73123 2650 
152 1 -0.0218453 -0.0183385 0.0653605 0.000105 7.83725 -0.593262 2.62455 2650 
223 1 -0.0211493 -0.0163101 0.0645965 0.001058 9.02173 0.116678 2.95733 2650 
295 1 -0.0174402 -0.0400893 0.0664679 0.000291 9.13815 0.564807 2.38219 2650 
141 1 -0.0182497 -0.0342653 0.0662365 0.000291 9.61378 0.32646 2.64689 2650 
164 1 -0.0114635 -0.027444 0.0669703 0.001058 3.76558 -0.802412 0.522619 2650 
175 1 -0.0177545 -0.015635 0.0663963 0.000291 3.43697 -0.278084 1.03472 2650 
168 1 -0.0138572 -0.00569477 0.0674836 0.000105 5.20959 -0.20153 1.11349 2650 
39 1 -0.00777882 -0.0363071 0.0682641 0.000291 10.0177 0.215537 1.15332 2650 
118 1 -0.00291825 -0.0177943 0.0686032 0.000291 8.4902 0.0833459 0.356112 2650 
303 1 -0.00243466 -0.0024804 0.068655 0.000291 9.17714 0.154923 0.336796 2650 
157 1 -0.00377983 0.053435 -0.0140182 0.000291 0.0079085 0.0606548 0.000918149 2650 
130 1 -0.00352236 0.00134951 -0.0132251 0.001058 -0.00692202 0.00347734 0.00595777 2650 
244 1 -0.0080028 0.00766562 -0.0136504 0.001058 -0.0791986 0.0211617 0.058793 2650 
67 1 -0.00776628 0.0141502 -0.0132125 0.001058 -0.0104976 0.0129104 0.0114407 2650 
33 1 -0.000147547 0.0205995 -0.0135054 0.00164 0.00603998 0.0215627 0.00352792 2650 
94 1 -0.0115321 0.000505354 -0.0118311 0.000291 8.5498e-05 -0.0117385 8.5498e-05 2650 
205 1 -0.00501706 0.00136864 -0.0118212 0.000291 -0.00881861 0.00364628 0.0236275 2650 
74 1 -0.0111714 0.00213305 -0.00983429 0.001058 0.00156258 -0.00569596 -0.00749774 2650 
80 1 -0.0146692 0.00935545 -0.00719638 0.000105 0.0137546 0.0232676 -0.0199154 2650 
159 1 -0.012707 0.000596933 -0.00588 0.000291 0 -0.011755 0 2650 
97 1 -0.01192 0.0047636 -0.00525614 0.00164 0.0106628 0.00973926 -0.0203866 2650 
10 1 -0.0144307 0.00649686 -0.00576969 0.001058 -0.00348814 0.00760519 -0.0107431 2650 
114 1 -0.00860358 0.00634499 -0.0041658 0.001058 0.0187062 0.0117361 -0.00752779 2650 
234 1 -0.0126436 0.00919794 -0.00584205 0.000291 -0.00131366 0.00431637 0.0126772 2650 
7 1 -0.00466233 0.025877 -0.00322941 0.000291 0.00378858 0.0136367 -0.000251809 2650 
263 1 -0.000304124 0.0283677 -0.00218347 0.000291 0.0807781 0.0834583 0.0461979 2650 
293 1 -0.0154634 0.0368736 -0.00319379 0.001058 -0.0276603 0.027737 0.108586 2650 
61 1 -0.016439 0.000314933 -0.001038 0.000291 0 -0.011755 0 2650 
71 1 -0.000972072 0.00345738 -0.000820781 0.000291 0.000861808 -0.00718564 -0.0173142 2650 
129 1 -0.002318 0.00795786 -0.00134513 0.00164 0.00825627 0.00147102 -0.0030875 2650 
65 1 -0.0129944 0.0233665 -0.00127697 0.00164 -0.00447342 0.0138222 0.00034274 2650 
115 1 -0.0156796 0.0129456 0.00193776 0.001058 0.00236141 0.0122312 0.0092361 2650 
187 1 -0.0157448 0.020948 0.00151847 0.001058 -0.000280938 0.0161775 0.0137442 2650 
211 1 -0.0126775 0.00555926 0.00313279 0.001058 0.000982608 0.00314487 0.00709992 2650 
209 1 -0.0156027 0.00858088 0.00202249 0.001058 -0.0032116 0.00264672 0.00158384 2650 
266 1 -0.0153616 0.0107002 0.00288203 0.001058 0.00237332 0.00196815 0.00196827 2650 
256 1 -0.0161365 0.0137263 0.00298375 0.000291 0.000881351 0.0216623 0.00465977 2650 
220 1 -0.0160249 0.0227843 0.00381789 0.000291 -0.00743392 0.0110018 0.0132466 2650 
106 1 -0.00449676 0.0231091 0.00366192 0.001058 0.0119634 0.0223893 -0.0027555 2650 
147 1 -0.0154094 0.0334539 0.00338842 0.001058 0.0100857 0.0256255 0.0572437 2650 
291 1 -0.008194 0.000701933 0.004767 0.000291 0 -0.011755 0 2650 
124 1 -0.0128817 0.0331964 0.00734647 0.001058 0.00450723 0.0342902 0.00378394 2650 
217 1 -0.00950266 0.0365255 0.00781522 0.001058 0.000747792 0.0265619 -0.00553463 2650 
28 1 -0.0123309 0.0419352 0.00785119 0.001058 0.00734507 0.0503926 0.00344867 2650 
68 1 -0.00202748 0.00769283 0.00918404 0.001058 0.00272783 -0.00342387 -0.00169301 2650 
41 1 -0.000823529 0.0173338 0.00876346 0.00164 0.0102042 0.00860529 0.0210319 2650 
144 1 -0.00734879 0.0178464 0.00992401 0.000105 0.00807853 0.0136784 0.0281765 2650 
242 1 -0.00356501 0.0259046 0.00854627 0.000291 0.0116924 0.0265357 0.00697501 2650 
55 1 -0.01171 0.000450933 0.01034 0.000291 0 -0.011755 0 2650 
250 1 -0.0072776 0.000661149 0.0134132 0.001058 0.0155527 -0.0042124 0.00795816 2650 
170 1 -0.00490761 0.00054996 0.0134969 0.001058 0.0182293 -0.00571122 0.00927168 2650 
299 1 -0.00821888 0.00283748 0.012261 0.001058 0.00581403 -0.00322581 0.00124072 2650 
4 1 -0.0100783 0.00833827 0.0121126 0.001058 0.00569435 0.00097307 0.00498712 2650 
224 1 -0.00823999 0.0143449 0.0127241 0.001058 -0.00111942 0.00491513 -0.00282362 2650 
273 1 -0.00339186 0.0395314 0.0151053 0.001058 0.00511 0.0387776 -0.00978519 2650 
198 1 -0.00213649 0.0126297 0.016393 0.000291 -0.0815361 -0.00723373 -0.0150615 2650 
154 1 -0.00855374 0.0985453 -0.00649259 0.001058 -0.025218 0.0914679 0.0181079 2650 
181 1 0.00403536 -0.0432059 -0.0685892 0.000291 -9.781 -0.134446 -0.577268 2650 
108 1 0.0588196 -0.0341937 -0.0340085 0.001058 -5.04906 0.0112578 -8.75623 2650 
81 1 0.00238609 -0.0410922 -0.0673239 0.00164 -9.66088 0.0323806 -0.344859 2650 
210 1 0.000152411 -0.0313909 -0.0679468 0.001058 -10.7821 -0.0594372 -0.0250831 2650 
259 1 0.0116121 -0.0311434 -0.0669481 0.001058 -10.0307 0.00929381 -1.72272 2650 
280 1 -0.000138029 -0.0256678 -0.067947 0.001058 -9.35449 -0.00633063 0.0346467 2650 
218 1 0.0174049 -0.0448457 -0.0657024 0.001058 -10.2278 0.0334465 -2.70963 2650 
184 1 0.0235283 -0.0203955 -0.0647691 0.000105 -7.12249 -0.170574 -2.53501 2650 
188 1 0.0267657 -0.0616449 -0.0624534 0.001058 -9.81869 -0.00484934 -4.2078 2650 
229 1 0.0233469 -0.0496414 -0.0638335 0.001058 -9.98768 -0.0605688 -3.6527 2650 
119 1 0.0298364 -0.0485283 -0.0619185 0.000291 -9.87838 0.226268 -4.76001 2650 
20 1 0.0299321 -0.0467331 -0.0610283 0.001058 -9.58939 0.0024298 -4.70324 2650 
148 1 0.0344844 -0.0483776 -0.0585713 0.001058 -9.22321 -0.0368068 -5.43011 2650 
60 1 0.0326935 -0.0194156 -0.0595817 0.001058 -3.0453 -0.680694 -1.66833 2650 
185 1 0.0357755 -0.0460087 -0.0571126 0.00164 -8.96798 -0.00278334 -5.6175 2650 
42 1 0.0389875 -0.0512145 -0.0556619 0.001058 -8.73683 0.0165823 -6.11979 2650 
193 1 0.037104 -0.0491649 -0.0562538 0.00164 -8.84155 0.00982012 -5.83147 2650 
23 1 0.0429131 -0.0396026 -0.0536612 0.000291 -8.12616 0.198808 -6.49551 2650 
30 1 0.045052 -0.0306323 -0.0518775 0.000291 -7.29926 0.300155 -6.33467 2650 
158 1 0.0578747 -0.0121831 -0.0370376 0.000291 -4.30388 0.251045 -6.70178 2650 
22 1 0.0586825 -0.0141073 -0.0357676 0.000291 -4.32793 0.0181976 -7.06351 2650 
200 1 0.0595553 -0.00753869 -0.0346413 0.000105 -3.94705 -0.521597 -6.7871 2650 
251 1 0.0607595 -0.0280583 -0.0304061 0.001058 -4.43762 -0.0224887 -8.87425 2650 
243 1 0.0620453 -0.047319 0.0277623 0.001058 4.33171 -0.019992 -9.68008 2650 
296 1 0.0632374 -0.00903856 -0.0268971 0.000291 -2.38015 -0.0224685 -5.55343 2650 
132 1 0.0629176 -0.0150364 -0.0257199 0.001058 -2.74407 0.56475 -6.78575 2650 
26 1 0.063405 -0.0444941 -0.0244876 0.001058 -3.78939 -0.0133418 -9.81262 2650 
231 1 0.0642957 -0.0248231 -0.0219678 0.001058 -1.82449 -1.14043 -5.47833 2650 
14 1 0.0671152 -0.0364939 -0.0147107 0.000291 -2.36421 0.789392 -10.7894 2650 
252 1 0.00245 -0.00161407 -0.01336 0.001058 0 -0.011755 0 2650 
275 1 0.012705 -0.00225207 -0.010476 0.000291 0 -0.011755 0 2650 
228 1 0.0680098 -0.00749657 -0.00979789 0.000291 -0.924235 1.21833 -6.52109 2650 
253 1 0.0681811 -0.0200078 -0.00853791 0.000291 -1.17731 -0.372715 -9.4222 2650 
125 1 0.068468 -0.0255624 -0.00573299 0.000291 -0.611073 -1.41428 -7.37597 2650 
278 1 7.4e-05 -0.00117207 -0.004448 0.001058 0 -0.011755 0 2650 
285 1 0.0678039 -0.0223183 -0.00436382 0.001058 -0.383238 -0.0629395 -5.89039 2650 
88 1 0.0687625 -0.0227814 -0.00379737 0.000105 -0.361993 -1.36765 -5.87015 2650 
227 1 0.00944 -0.00308507 -0.002109 0.000291 0 -0.011755 0 2650 
190 1 0.005899 -0.000383067 -0.000534 0.000291 0 -0.011755 0 2650 
202 1 0.00679288 -0.00194142 -0.000736248 0.001058 0.0093109 -0.00893593 -0.0136131 2650 
133 1 0.0687096 -0.0151457 2.23243e-05 0.000291 0.0080481 -0.440762 -9.09187 2650 
267 1 0.0686941 -0.0113112 0.00139814 0.000291 0.113492 -0.0472806 -6.21392 2650 
48 1 0.009671 -0.00249107 0.000233 0.000105 0 -0.011755 0 2650 
128 1 0.00361 -0.000784067 0.000511 0.000105 0 -0.011755 0 2650 
131 1 0.067892 -0.0459897 0.00273442 0.001058 0.427613 -0.0511619 -10.6229 2650 
122 1 0.0679222 -0.0259877 0.00181911 0.001058 0.259017 -0.0178212 -9.62583 2650 
294 1 0.00816147 -0.00276709 0.0034714 0.001058 0.0136556 -0.011638 -0.00128524 2650 
271 1 0.0136675 -0.000751498 0.00210032 0.001058 0.0150184 -0.010407 0.010297 2650 
50 1 0.0677662 -0.0212927 0.00493275 0.001058 0.663312 -0.241786 -9.20165 2650 
212 1 0.001087 -0.00226707 0.005915 0.000291 0 -0.011755 0 2650 
99 1 0.00581517 -0.00263199 0.00416416 0.001058 0.0107016 -0.0115374 0.00367132 2650 
24 1 0.005464 -0.00269507 0.005551 0.000105 0 -0.011755 0 2650 
51 1 0.009662 -0.00162207 0.004577 0.001058 0 -0.011755 0 2650 
145 1 0.00524805 -0.00183286 0.00707901 0.00164 0.00142123 -0.0121074 -0.00172265 2650 
222 1 0.009219 -0.000423067 0.006833 0.001058 0 -0.011755 0 2650 
102 1 0.0676345 -0.0133445 0.012177 0.000291 1.50876 0.276956 -8.41842 2650 
3 1 0.00964209 -0.00468461 0.0145754 0.001058 0.627532 -0.343708 0.900718 2650 
288 1 0.066567 -0.0463715 0.0171021 0.000291 2.65186 -0.0457079 -10.3202 2650 
36 1 0.0658225 -0.0451405 0.0169368 0.001058 2.60411 0.0370959 -10.0191 2650 
239 1 0.0645164 -0.0490559 0.0213897 0.001058 3.34089 0.0956259 -10.0762 2650 
2 1 0.064338 -0.0384704 0.0218705 0.001058 3.36471 -0.0713285 -9.89593 2650 
18 1 0.0638579 -0.0182039 0.0232799 0.001058 2.68068 -0.270588 -7.35759 2650 
230 1 0.0632221 -0.0498289 0.0249549 0.001058 3.97062 -0.0103576 -10.0611 2650 
196 1 0.0633953 -0.0395076 0.024477 0.001058 3.75138 -0.198174 -9.71993 2650 
126 1 0.0646142 -0.0110788 0.0234186 0.000291 3.71433 -1.14241 -10.2553 2650 
121 1 0.0603608 -0.0465679 0.0299831 0.00164 4.70784 -0.00320802 -9.47788 2650 
191 1 0.0611052 -0.0482814 0.0314662 0.000291 4.92222 -0.0260069 -9.55847 2650 
281 1 0.0577395 -0.0575876 0.0372351 0.000291 5.896 0.161666 -9.14216 2650 
73 1 0.0554843 -0.053741 0.0382201 0.00164 5.98084 -0.0747262 -8.678 2650 
287 1 0.0531266 -0.0534682 0.042352 0.001058 6.24138 1.06969 -7.84156 2650 
89 1 0.050935 -0.0598364 0.044086 0.00164 6.51628 -0.0097081 -7.52694 2650 
206 1 0.0466876 -0.060428 0.0504103 0.000291 6.9167 0.259802 -6.3914 2650 
120 1 0.0418315 -0.0267745 0.0547354 0.000105 2.74404 -0.252301 -2.02992 2650 
274 1 0.0492262 -0.0625213 0.0563769 0.000291 9.08634 -0.0126778 -2.78682 2650 
44 1 0.0361747 -0.0172225 0.0575281 0.001058 8.28803 -0.0871717 -5.20037 2650 
226 1 0.0348706 -0.0529405 0.059214 0.000291 8.53619 -1.41487 -5.03569 2650 
83 1 0.0269821 -0.0441718 0.0623868 0.001058 9.81198 0.00365055 -4.24359 2650 
100 1 0.0267236 -0.0105637 0.0624899 0.001058 5.98947 -0.291252 -2.54501 2650 
84 1 0.0181193 -0.0516604 0.0655023 0.001058 10.297 -0.0412777 -2.84843 2650 
109 1 0.0250898 -0.0522328 0.0639797 0.000291 9.93549 0.307808 -3.89517 2650 
215 1 0.0204997 -0.050356 0.0648006 0.001058 10.2691 -0.032322 -3.24704 2650 
264 1 0.0196834 -0.0483652 0.0650561 0.001058 10.3067 0.0351415 -3.11619 2650 
290 1 0.0251023 -0.0490036 0.0639844 0.000291 9.61078 -0.0934514 -3.77184 2650 
207 1 0.024048 -0.00740298 0.0643692 0.000291 5.99182 -0.198308 -2.22507 2650 
241 1 0.0194948 -0.0362346 0.0658839 0.000291 10.4049 0.923594 -3.08259 2650 
85 1 0.0184273 -0.0189083 0.0662098 0.000291 7.0966 0.2703 -1.9711 2650 
37 1 0.006156 1.4933e-05 -0.015157 0.000291 0 -0.011755 0 2650 
75 1 0.000142136 0.055824 -0.0150067 0.001058 0.0240155 0.0510522 0.00788599 2650 
78 1 0.001258 9.33025e-07 -0.012517 0.000291 0 -0.011755 0 2650 
232 1 0.00840531 0.0223713 -0.0131171 0.001058 -0.0291023 0.0299794 -0.00774462 2650 
127 1 0.00923216 0.0630623 -0.012676 0.000291 0.0147798 0.0618117 0.0201086 2650 
87 1 0.00578052 0.00142172 -0.0119852 0.000291 -0.00318762 -0.017547 -0.0237996 2650 
134 1 0.00182715 0.00556194 -0.0117312 0.000291 -0.0128132 0.00355392 -0.00692922 2650 
301 1 0.0069571 0.0344298 -0.0112971 0.001058 0.00272587 0.0220862 -0.0290146 2650 
260 1 0.00827629 0.00479877 -0.00863508 0.000291 -0.00392275 0.00411325 -0.00447499 2650 
77 1 0.00917264 0.011331 -0.00802508 0.000291 0.0279429 0.00178097 -0.016803 2650 
286 1 0.0135812 0.0193944 -0.00830258 0.001058 -0.0144844 0.0497942 -0.0202744 2650 
19 1 0.0139387 0.00907603 -0.0067384 0.001058 -0.00189711 0.0050805 -0.00113271 2650 
284 1 0.013555 0.0108343 -0.00750049 0.000291 -0.00371053 0.00586111 -0.00129449 2650 
38 1 0.000562117 0.0148416 -0.00653489 0.000291 0.0290333 0.00993382 0.0254358 2650 
153 1 0.00546318 0.00576678 -0.00430985 0.00164 0.00905173 -0.00370467 -0.0193596 2650 
203 1 0.00718061 0.0127159 -0.00418652 0.001058 0.0105265 0.0334803 0.00411967 2650 
113 1 0.00873029 0.00333922 -0.00209562 0.00164 -0.0251958 0.00978061 -0.000134024 2650 
161 1 0.0138117 0.00560375 -0.00319768 0.00164 -0.000454856 0.00568005 -0.00417258 2650 
199 1 0.0160809 0.00469738 -0.00200125 0.000291 0.0109742 0.00200452 -0.0116559 2650 
279 1 0.00860745 0.00646548 -0.0032493 0.001058 0.00690887 -0.00122776 0.0071413 2650 
92 1 0.0114577 0.0067358 -0.00217492 0.001058 0.00298746 0.00292354 0.00546929 2650 
123 1 0.0153687 0.0224351 -0.00368655 0.001058 -0.0069266 0.0381635 -0.00768552 2650 
176 1 0.00783166 0.000149256 -0.00127831 0.000105 0.0200199 0.000256501 -0.0124767 2650 
101 1 0.00803193 0.000972853 -0.000320505 0.000291 0.0107852 -0.0015929 -0.0095042 2650 
1 1 0.0148393 0.00468548 -0.000128273 0.00164 0.00679448 0.00399547 -0.00426821 2650 
194 1 0.0148027 0.020344 -0.00125429 0.001058 -0.00717738 0.0355954 0.00284246 2650 
292 1 0.00844118 0.0363969 -0.000192852 0.001058 -0.0104367 0.0376087 -0.0291473 2650 
195 1 0.0157573 0.000326074 0.00117794 0.001058 0.0016716 3.41696e-05 -0.031197 2650 
258 1 0.0151192 0.0209771 0.00126766 0.001058 -0.00702738 0.0458888 -0.00817646 2650 
54 1 0.0160114 0.0329908 0.00189298 0.000291 0.0125428 0.00255638 -0.0492536 2650 
9 1 0.0137702 0.0187094 0.00213224 0.00164 -0.00067168 0.0470366 0.00650688 2650 
249 1 0.00203532 0.0279128 0.00215749 0.000291 0.00987628 0.0185258 -0.0129358 2650 
52 1 0.00548577 0.0361664 0.00309643 0.001058 0.0258261 0.0380708 0.00407144 2650 
79 1 0.014214 0.000217933 0.005058 0.000291 0 -0.011755 0 2650 
105 1 0.00852205 0.0139726 0.00555279 0.00164 0.000597876 0.0137471 0.023702 2650 
139 1 0.0147972 0.0220554 0.0055527 0.001058 -0.0138539 0.00679752 0.0124887 2650 
57 1 0.006004 0.0246125 0.00420573 0.00164 -0.000919831 0.00616449 -0.024056 2650 
112 1 0.013668 0.000540933 0.007002 0.000105 0 -0.011755 0 2650 
156 1 0.00911956 0.0112381 0.00700646 0.001058 0.0107441 -0.0117541 0.0077951 2650 
180 1 0.0145275 0.0561067 0.00624386 0.001058 -0.021353 0.059502 0.0510683 2650 
116 1 0.00514422 0.0406784 0.00849402 0.001058 -0.0278213 0.0454338 0.0115295 2650 
298 1 0.0115049 0.00447604 0.0103172 0.000105 0.00377194 -0.00442838 -0.00799766 2650 
238 1 0.00631064 0.0368909 0.0102692 0.001058 0.0207771 0.0325148 -0.00733364 2650 
265 1 0.00771544 0.00985947 0.0125392 0.001058 0.011667 0.00657701 -0.00499144 2650 
66 1 0.0100295 0.0082741 0.0122398 0.001058 0.00274751 -0.000835425 -0.00507484 2650 
70 1 0.00377859 0.0308277 0.0133439 0.000291 0.000986621 0.0559838 -0.0454673 2650 
95 1 0.00663931 0.00096055 0.0148471 0.000291 -0.000366951 -0.00495937 0.00220646 2650 
17 1 0.00529979 0.0377398 0.0142008 0.00164 0.0376416 0.0401338 -0.0168703 2650 
245 1 0.0042187 0.0753319 -0.00382901 0.001058 0.013355 0.0538623 -0.0223836 2650 
