ITEM: TIMESTEP
2222606
ITEM: NUMBER OF ATOMS
301
ITEM: BOX BOUNDS ff ff ff
-0.15 0.15
-0.15 0.15
-0.15 0.15
ITEM: ATOMS id type x y z radius vx vy vz density 
192 1 -0.00364056 -0.0249445 -0.0687963 0.000105 -3.71392 -0.101853 0.236931 2650 
169 1 -0.0252366 -0.0470797 -0.0624933 0.00164 -6.8162 -0.144883 2.73435 2650 
172 1 -0.0406991 -0.00738111 -0.0543891 0.001058 -3.21215 -0.00168375 2.37099 2650 
189 1 -0.00611217 -0.000450575 -0.0153609 0.000291 -0.00247166 -0.0256023 0.0243032 2650 
280 1 -0.00162608 -0.00139946 -0.0154162 0.001058 0.00505686 -0.0276245 0.0172499 2650 
241 1 -0.008593 -0.00213987 -0.012306 0.000291 0 -0.011755 0 2650 
219 1 -0.0675562 -0.000297851 -0.0125266 0.000291 -0.919184 0.00327238 4.81788 2650 
138 1 -0.00318383 -0.00157542 -0.0137338 0.001058 0.0020115 -0.0560726 -0.0243373 2650 
93 1 -0.010039 -0.00317456 -0.0103651 0.000291 0.0191951 -0.0188664 0.0268457 2650 
163 1 -0.005911 -0.000291873 -0.010628 0.001058 0 -0.011755 0 2650 
166 1 -0.005567 -0.000796873 -0.009051 0.000291 0 -0.011755 0 2650 
293 1 -0.009422 -0.000226873 -0.006923 0.001058 0 -0.011755 0 2650 
137 1 -0.001323 -0.000723873 -0.006126 0.00164 0 -0.011755 0 2650 
59 1 -0.00665008 -0.0026264 -0.00437104 0.001058 0.00115799 -0.0116141 0.00139237 2650 
23 1 -0.005085 -0.00310587 -0.002724 0.000291 0 -0.011755 0 2650 
107 1 -0.003706 -0.00278487 -0.003027 0.001058 0 -0.011755 0 2650 
282 1 -0.001816 -0.00184387 -0.002164 0.000291 0 -0.011755 0 2650 
180 1 -0.0151638 -0.000658104 -0.00182648 0.001058 -0.00108764 -0.0151162 -0.00336541 2650 
89 1 -0.00215818 -0.00332209 0.000229596 0.00164 -0.0782834 -0.0201843 -0.0101738 2650 
99 1 -0.011672 -0.000841873 9.8e-05 0.001058 0 -0.011755 0 2650 
75 1 -0.00831024 -0.00135198 0.00149342 0.001058 0.00175283 -0.0243046 0.00939251 2650 
122 1 -0.00174525 -1.00931e-05 0.00034434 0.001058 0.000509879 -0.0115361 4.72204e-06 2650 
132 1 -0.0148158 -2.47329e-05 0.00333274 0.001058 -0.0108628 -0.013372 0.0106837 2650 
106 1 -0.00977319 -0.000403034 0.00276574 0.001058 -0.00584761 -0.00963515 -0.00148497 2650 
158 1 -0.007297 -0.000880873 0.003049 0.000291 0 -0.011755 0 2650 
149 1 -0.004792 -0.000926873 0.002724 0.000291 0 -0.011755 0 2650 
272 1 -0.001203 -1.98726e-05 0.002609 0.001058 0 -0.011755 0 2650 
90 1 -0.0677499 -0.0227198 0.0051369 0.001058 0.265095 -0.925484 3.38277 2650 
2 1 -0.013701 -0.00280087 0.005224 0.001058 0 -0.011755 0 2650 
63 1 -0.010157 -0.00279187 0.004282 0.000291 0 -0.011755 0 2650 
125 1 -0.0684011 -0.00276116 0.0064785 0.000291 0.481423 -0.257057 5.22402 2650 
42 1 -0.008546 -0.00154687 0.006756 0.001058 0 -0.011755 0 2650 
235 1 -0.001066 -0.000263873 0.007831 0.000291 0 -0.011755 0 2650 
257 1 -0.009847 -0.00288087 0.008559 0.001058 0 -0.011755 0 2650 
97 1 -0.0118305 -0.000624293 0.00957095 0.00164 -0.0197006 -0.016578 -0.0202345 2650 
111 1 -0.009474 -0.000193873 0.008964 0.000291 0 -0.011755 0 2650 
152 1 -0.0678624 -0.0104849 0.0119302 0.000105 0.760201 0.169174 3.9627 2650 
36 1 -0.0122944 -0.00332551 0.0100842 0.001058 0.134225 -0.0297124 -0.193713 2650 
73 1 -0.00293219 -0.00307471 0.011838 0.00164 0.023447 -0.0350364 -0.0232212 2650 
204 1 -0.00104212 -0.00157908 0.0102249 0.001058 0.0217868 -0.00528585 -0.0190601 2650 
38 1 -0.000348 -0.000430873 0.010029 0.000291 0 -0.011755 0 2650 
229 1 -0.0384806 -0.0193874 0.0236863 0.001058 -5.65295 -1.42294 3.47669 2650 
230 1 -0.0612366 -0.029192 0.0294324 0.001058 2.37216 0.0662479 4.88938 2650 
236 1 -0.0492408 -0.0485343 0.0468158 0.001058 3.47952 0.196133 3.62635 2650 
146 1 -0.00582451 -0.0423091 0.0676969 0.001058 5.46951 0.242711 0.483182 2650 
167 1 -0.00994613 -0.0187304 0.0679925 0.000291 3.48611 -0.273348 0.567781 2650 
32 1 -0.00469988 0.00526724 -0.0145561 0.000105 0.00408433 -0.0405512 -0.0362068 2650 
85 1 -0.003548 0.00473613 -0.015444 0.000291 0 -0.011755 0 2650 
70 1 -0.002345 0.00653813 -0.015511 0.000291 0 -0.011755 0 2650 
295 1 -0.006507 0.00125313 -0.01264 0.000291 0 -0.011755 0 2650 
17 1 -0.00432094 0.00301132 -0.013951 0.00164 0.000282496 -0.00503951 0.00527065 2650 
115 1 -0.009032 0.00658513 -0.012506 0.001058 0 -0.011755 0 2650 
33 1 -0.003866 0.00960113 -0.012959 0.00164 0 -0.011755 0 2650 
198 1 -0.01006 0.00588213 -0.011926 0.000291 0 -0.011755 0 2650 
47 1 -0.011528 0.00718613 -0.010748 0.000291 0 -0.011755 0 2650 
234 1 -0.003052 0.00597913 -0.010232 0.000291 0 -0.011755 0 2650 
273 1 -0.00119 0.00594113 -0.010246 0.001058 0 -0.011755 0 2650 
41 1 -0.0102501 0.00912654 -0.0109917 0.00164 -0.0426201 0.0149708 -0.0234718 2650 
94 1 -0.011581 0.0116631 -0.01188 0.000291 0 -0.011755 0 2650 
91 1 -0.00431893 0.0306698 -0.0100625 0.001058 -0.0201117 0.131078 0.100392 2650 
108 1 -0.007031 0.00194213 -0.009032 0.001058 0 -0.011755 0 2650 
175 1 -0.013247 0.00722613 -0.008751 0.000291 0 -0.011755 0 2650 
144 1 -0.011054 0.0117841 -0.008779 0.000105 0 -0.011755 0 2650 
57 1 -0.00614466 0.0137273 -0.00966219 0.00164 0.0230994 0.0154402 0.0436737 2650 
220 1 -0.0104353 0.0140218 -0.00825345 0.000291 -0.0258814 0.00931039 0.00803739 2650 
200 1 -0.012172 0.000486127 -0.006974 0.000105 0 -0.011755 0 2650 
203 1 -0.00586084 0.00180825 -0.00601474 0.001058 0.0108298 -0.0118951 -0.00146797 2650 
218 1 -0.00520716 0.000330363 -0.00795323 0.001058 0.00591971 -0.0159874 -0.00632168 2650 
250 1 -0.013194 0.00287913 -0.006197 0.001058 0 -0.011755 0 2650 
214 1 -0.008446 0.000196127 -0.004092 0.000291 0 -0.011755 0 2650 
76 1 -0.003173 0.00228413 -0.005708 0.001058 0 -0.011755 0 2650 
240 1 -0.010392 0.00782813 -0.005262 0.000291 0 -0.011755 0 2650 
276 1 -0.013674 0.00877013 -0.004231 0.000291 0 -0.011755 0 2650 
74 1 -0.012237 0.00916813 -0.004721 0.001058 0 -0.011755 0 2650 
159 1 -0.012707 0.0117641 -0.00588 0.000291 0 -0.011755 0 2650 
256 1 -0.0113501 0.0109561 -0.00423032 0.000291 -0.0123982 -0.000129637 -0.00545733 2650 
187 1 -0.0105994 0.012235 -0.00562977 0.001058 -0.0112156 -0.0033076 -0.00319333 2650 
136 1 -0.00914533 0.0266038 -0.00517235 0.000105 -0.0729053 0.12081 -0.0484832 2650 
116 1 -0.013496 0.000296127 -0.003353 0.001058 0 -0.011755 0 2650 
43 1 -0.0064306 0.000421091 -0.0025296 0.001058 0.0207832 -0.0262891 0.0149653 2650 
270 1 -0.00526333 0.0019621 -0.00340308 0.000291 0.0186853 -0.00788795 0.00123148 2650 
211 1 -0.013621 0.00351013 -0.002856 0.001058 0 -0.011755 0 2650 
274 1 -0.016349 0.00563513 -0.002509 0.000291 0 -0.011755 0 2650 
13 1 -0.014201 0.00787013 -0.003882 0.000291 0 -0.011755 0 2650 
114 1 -0.012867 0.00616613 -0.002401 0.001058 0 -0.011755 0 2650 
104 1 -0.014089 0.00855213 -0.003012 0.000105 0 -0.011755 0 2650 
65 1 -0.00909935 0.0109422 -0.00275567 0.00164 -0.00348018 0.0119066 0.00345508 2650 
7 1 -0.00826146 0.0129223 -0.00299019 0.000291 0.00378858 0.0136367 -0.000251809 2650 
140 1 -0.00812222 6.11536e-05 -0.000408021 0.001058 0.00747629 -0.0272757 -0.000219899 2650 
135 1 -0.00348102 0.00025423 -0.000752384 0.000291 -0.0060505 -0.00140209 -0.0140303 2650 
10 1 -0.012845 0.00925413 -0.000712 0.001058 0 -0.011755 0 2650 
61 1 -0.016439 0.0114821 -0.001038 0.000291 0 -0.011755 0 2650 
123 1 -0.0158962 0.000716124 7.9851e-05 0.001058 -0.0183886 -0.0164225 0.00326457 2650 
131 1 -0.0132784 2.68817e-05 0.00187733 0.001058 0.002014 -0.0366129 0.0174268 2650 
191 1 -0.0108 0.00390913 0.001549 0.000291 0 -0.011755 0 2650 
14 1 -0.006378 0.00257713 0.001478 0.000291 0 -0.011755 0 2650 
296 1 -0.005879 0.00305513 0.000521 0.000291 0 -0.011755 0 2650 
223 1 -0.0030434 0.00339455 7.59785e-05 0.001058 0.0415501 -0.0223204 0.0172409 2650 
168 1 -0.007536 0.00492013 0.001389 0.000105 0 -0.011755 0 2650 
120 1 -0.016055 0.00712213 0.000189 0.000105 0 -0.011755 0 2650 
209 1 -0.010932 0.00703413 0.001176 0.001058 0 -0.011755 0 2650 
80 1 -0.014935 0.00982013 0.00039 0.000105 0 -0.011755 0 2650 
268 1 -0.011054 0.0103441 0.000789 0.000291 0 -0.011755 0 2650 
129 1 -0.008713 0.0101581 0.001908 0.00164 0 -0.011755 0 2650 
206 1 -0.0137446 0.00140808 0.0033834 0.000291 -0.00576341 -0.0268644 0.0246765 2650 
127 1 -0.00844356 0.000159192 0.00289123 0.000291 -0.00885864 0.0707893 -0.0549482 2650 
124 1 -0.0141152 0.00261363 0.00387528 0.001058 -9.6376e-05 -0.011481 0.000152207 2650 
195 1 -0.00846004 0.00327499 0.00317652 0.001058 0.0116552 -0.0200195 0.0462151 2650 
18 1 -0.005138 0.00411413 0.00212 0.001058 0 -0.011755 0 2650 
52 1 -0.00963322 0.0059291 0.00263415 0.001058 -0.0709318 -0.0184059 -0.0080994 2650 
176 1 -0.003983 0.00845913 0.002552 0.000105 0 -0.011755 0 2650 
242 1 -0.00469423 0.00949043 0.0038063 0.000291 -0.00954886 0.00781474 0.00295974 2650 
157 1 -0.0145719 0.0013062 0.00435378 0.000291 -0.246698 0.311862 -0.137648 2650 
49 1 -0.00746626 0.000245778 0.00486368 0.00164 0.000357329 -0.0114097 0.000609381 2650 
302 1 -0.00909721 0.00257122 0.00428815 0.000291 -0.0143061 -0.0317005 0.0405115 2650 
182 1 -0.007428 0.00239313 0.005665 0.000291 0 -0.011755 0 2650 
58 1 -0.009725 0.00407413 0.005089 0.001058 0 -0.011755 0 2650 
53 1 -0.000389 0.00519713 0.004762 0.000291 0 -0.011755 0 2650 
28 1 -0.013611 0.00645713 0.005538 0.001058 0 -0.011755 0 2650 
170 1 -0.01149 0.00659213 0.005193 0.001058 0 -0.011755 0 2650 
238 1 -0.009207 0.00734513 0.004742 0.001058 0 -0.011755 0 2650 
164 1 -0.003894 0.00749513 0.005467 0.001058 0 -0.011755 0 2650 
77 1 -0.0103016 0.00923284 0.00554019 0.000291 -0.0659618 0.0071766 0.0150346 2650 
291 1 -0.008194 0.0118691 0.004767 0.000291 0 -0.011755 0 2650 
266 1 -0.0129348 0.00104297 0.00764364 0.001058 -0.0124663 0.000870606 -0.0183561 2650 
64 1 -0.001837 0.000161127 0.007035 0.000105 0 -0.011755 0 2650 
254 1 -0.006211 0.00273213 0.006905 0.000291 0 -0.011755 0 2650 
98 1 -0.001703 0.00505813 0.00616 0.001058 0 -0.011755 0 2650 
186 1 -0.006177 0.00981113 0.006545 0.001058 0 -0.011755 0 2650 
245 1 -0.00557983 0.0227308 0.00754403 0.001058 -0.00877598 0.0648343 0.053396 2650 
11 1 -0.0124395 0.0285553 0.00618762 0.001058 0.0558568 0.128502 0.0118077 2650 
44 1 -0.007195 0.00194813 0.008791 0.001058 0 -0.011755 0 2650 
4 1 -0.013492 0.0110291 0.008313 0.001058 0 -0.011755 0 2650 
304 1 -0.012709 0.0111501 0.009818 0.000291 0 -0.011755 0 2650 
233 1 -0.001796 0.00249413 0.010436 0.000291 0 -0.011755 0 2650 
35 1 -0.00191332 0.00586818 0.0100037 0.001058 0.00566878 -0.0134862 -0.0195208 2650 
251 1 -0.00535849 0.00681506 0.0111837 0.001058 -0.0165425 -0.0287939 0.0166856 2650 
299 1 -0.010562 0.00959113 0.010709 0.001058 0 -0.011755 0 2650 
55 1 -0.01171 0.0116181 0.01034 0.000291 0 -0.011755 0 2650 
217 1 -0.00873449 0.0111165 0.0118655 0.001058 -0.0106168 0.0279099 0.00374771 2650 
68 1 -0.0046189 0.0109455 0.0107924 0.001058 0.00272783 -0.00342387 -0.00169301 2650 
226 1 -0.009224 0.00346613 0.012787 0.000291 0 -0.011755 0 2650 
300 1 -0.00946004 0.0062992 0.0126666 0.001058 -0.00517848 -0.00941929 -0.00460978 2650 
202 1 -0.00219443 0.00640305 0.0123302 0.001058 0.00953014 -0.00871599 -0.0138173 2650 
224 1 -0.00571191 0.00932564 0.0126234 0.001058 -0.00376938 0.00554818 0.00221201 2650 
285 1 -0.00637564 0.00758535 0.0144121 0.001058 -0.0106576 -0.0140215 -0.000193791 2650 
29 1 -0.00525355 0.00650449 0.01517 0.000291 -0.0115686 -0.040115 -0.0168616 2650 
153 1 -0.00313617 0.00928363 0.014073 0.00164 0.00905326 -0.00368908 -0.0193072 2650 
265 1 -0.000465 0.00812213 0.015551 0.001058 0 -0.011755 0 2650 
249 1 -0.0073471 0.0103134 0.0144464 0.000291 0.00987628 0.0185258 -0.0129358 2650 
71 1 -0.00147104 0.0107485 0.0151454 0.000291 -0.0104586 -0.0101041 0.055119 2650 
156 1 -2.52065e-05 0.0120201 0.0156108 0.001058 0.00957299 -0.000303602 -0.00985815 2650 
148 1 0.00182588 -0.0297471 -0.0679217 0.001058 -6.10541 -0.0226205 -0.134767 2650 
86 1 0.0353876 -0.0192924 -0.0589133 0.000291 -3.20805 0.396159 -1.89863 2650 
283 1 0.0395111 -0.0239429 -0.0562151 0.000291 -3.48402 -0.224135 -2.48044 2650 
281 1 0.0410144 -0.0416946 -0.0551058 0.000291 -2.99923 -0.482988 -2.06419 2650 
221 1 0.0481431 -0.00490633 -0.0488273 0.000291 -2.88086 -0.0958066 -1.73107 2650 
151 1 0.0532557 -0.0211659 -0.0433987 0.000291 -2.51782 0.0707782 -3.08708 2650 
109 1 0.049757 -0.0190353 -0.0434182 0.000291 7.53663 -1.25675 -6.62538 2650 
25 1 0.0539263 -0.0420206 -0.0403904 0.00164 -4.23498 -0.138118 -5.72015 2650 
133 1 0.0604916 -0.0143669 -0.0326229 0.000291 -2.01228 0.202269 -3.72745 2650 
26 1 4.18881e-06 -0.00308194 -0.015516 0.001058 0.0146037 -0.0336403 0.0135537 2650 
155 1 0.005921 -0.000610873 -0.01427 0.001058 0 -0.011755 0 2650 
292 1 0.002958 -0.00229087 -0.012416 0.001058 0 -0.011755 0 2650 
188 1 0.00364918 -0.00336692 -0.010162 0.001058 0.261598 -0.0309146 -0.728478 2650 
141 1 0.004693 -0.000655873 -0.010381 0.000291 0 -0.011755 0 2650 
83 1 0.007342 -0.00147887 -0.011981 0.001058 0 -0.011755 0 2650 
162 1 0.010619 -0.00178487 -0.009864 0.001058 0 -0.011755 0 2650 
185 1 0.007006 -0.00209787 -0.006884 0.00164 0 -0.011755 0 2650 
40 1 0.002884 -0.00157287 -0.006462 0.000105 0 -0.011755 0 2650 
30 1 0.005625 -0.000140873 -0.00604 0.000291 0 -0.011755 0 2650 
62 1 0.005002 -0.00271387 -0.004312 0.000291 0 -0.011755 0 2650 
16 1 0.006364 -0.00144487 -0.005251 0.000105 0 -0.011755 0 2650 
197 1 0.007512 -2.87256e-06 -0.004043 0.000291 0 -0.011755 0 2650 
39 1 0.011011 -0.00175787 -0.005294 0.000291 0 -0.011755 0 2650 
20 1 0.013152 -0.00268887 -0.002682 0.001058 0 -0.011755 0 2650 
8 1 0.000989 -0.00171987 -0.00369 0.000105 0 -0.011755 0 2650 
173 1 0.002644 -0.000495873 -0.002982 0.000291 0 -0.011755 0 2650 
239 1 0.008697 -0.00290187 -0.000945 0.001058 0 -0.011755 0 2650 
87 1 0.010454 -0.00271987 -0.001717 0.000291 0 -0.011755 0 2650 
248 1 0.008036 -0.00185087 -0.000368 0.000291 0 -0.011755 0 2650 
72 1 0.013289 -0.000815873 -0.000624 0.000105 0 -0.011755 0 2650 
288 1 0.006653 -0.00289487 0.001326 0.000291 0 -0.011755 0 2650 
255 1 0.005303 -0.00154787 0.000727 0.000291 0 -0.011755 0 2650 
56 1 0.00459 -0.000790873 0.000864 0.000105 0 -0.011755 0 2650 
179 1 0.002629 -0.00319987 0.002938 0.001058 0 -0.011755 0 2650 
121 1 0.013566 -0.00227287 0.003132 0.00164 0 -0.011755 0 2650 
247 1 0.001401 -0.00169887 0.005706 0.000291 0 -0.011755 0 2650 
243 1 0.01084 -0.00113087 0.008454 0.001058 0 -0.011755 0 2650 
181 1 0.012465 -0.00275987 0.010211 0.000291 0 -0.011755 0 2650 
184 1 0.0126658 -0.000457468 0.0106701 0.000105 0.0593466 -0.0158064 -0.111946 2650 
290 1 0.0660777 -0.0409181 0.0188754 0.000291 1.26124 0.300859 -4.31369 2650 
34 1 0.0654887 -0.0142318 0.018176 0.001058 1.69866 0.00326364 -6.231 2650 
297 1 0.0634503 -0.0351514 0.0263498 0.000291 1.47849 -0.232526 -3.70083 2650 
215 1 0.0551284 -0.026 0.0397168 0.001058 2.90456 -0.292157 -4.097 2650 
15 1 0.0537542 -0.0070933 0.0413243 0.000291 1.6997 -0.911786 -2.70183 2650 
22 1 0.0528517 -0.0267047 0.0439034 0.000291 2.85942 0.378751 -3.41715 2650 
193 1 0.0484943 -0.0150031 0.0467622 0.00164 2.96613 -0.468089 -3.01405 2650 
5 1 0.0480471 -0.0233498 0.0491161 0.000291 2.67788 -0.155416 -2.67953 2650 
69 1 0.0314511 -0.0175186 0.0611113 0.000291 3.7115 0.222358 -1.89943 2650 
84 1 0.0306415 -0.00953626 0.0606568 0.001058 3.22156 -0.169378 -1.59996 2650 
165 1 0.0251436 -0.028567 0.063939 0.000291 3.5574 -0.155766 -1.44161 2650 
21 1 0.020504 -0.0448618 0.0656021 0.000291 4.93745 0.66825 -1.55954 2650 
119 1 0.00791191 -0.0338174 0.0682501 0.000291 4.7639 0.345424 -0.53322 2650 
303 1 0.001598 0.00315613 -0.015917 0.000291 0 -0.011755 0 2650 
46 1 0.007499 0.00259313 -0.014091 0.000291 0 -0.011755 0 2650 
130 1 1.4e-05 0.00524713 -0.015674 0.001058 0 -0.011755 0 2650 
269 1 0.002277 0.00542013 -0.015181 0.000291 0 -0.011755 0 2650 
160 1 0.004468 0.00427913 -0.014641 0.000105 0 -0.011755 0 2650 
37 1 0.006156 0.0111821 -0.015157 0.000291 0 -0.011755 0 2650 
139 1 0.00249593 0.0139058 -0.0143584 0.001058 0.0288724 0.0119708 -0.0425505 2650 
237 1 0.005321 0.00185613 -0.012467 0.001058 0 -0.011755 0 2650 
289 1 0.001465 0.00584313 -0.012477 0.000291 0 -0.011755 0 2650 
263 1 0.006877 0.00467613 -0.012319 0.000291 0 -0.011755 0 2650 
142 1 0.002378 0.00625813 -0.013184 0.000291 0 -0.011755 0 2650 
252 1 0.00245 0.00955313 -0.01336 0.001058 0 -0.011755 0 2650 
78 1 0.001258 0.0111681 -0.012517 0.000291 0 -0.011755 0 2650 
196 1 0.002599 0.00314913 -0.011929 0.001058 0 -0.011755 0 2650 
201 1 0.008831 0.00467213 -0.010349 0.00164 0 -0.011755 0 2650 
105 1 0.003632 0.00983613 -0.010703 0.00164 0 -0.011755 0 2650 
275 1 0.012705 0.00891513 -0.010476 0.000291 0 -0.011755 0 2650 
110 1 0.010451 0.0114591 -0.010748 0.000291 0 -0.011755 0 2650 
54 1 0.000730846 0.015947 -0.0111661 0.000291 -0.10531 0.0409555 0.046421 2650 
213 1 0.001757 0.000181127 -0.008127 0.000291 0 -0.011755 0 2650 
259 1 0.006357 0.00111013 -0.00938 0.001058 0 -0.011755 0 2650 
67 1 0.00898 0.00254413 -0.006049 0.001058 0 -0.011755 0 2650 
102 1 0.003423 0.00458113 -0.006065 0.000291 0 -0.011755 0 2650 
117 1 0.004754 0.00484313 -0.007063 0.000291 0 -0.011755 0 2650 
134 1 0.011983 0.00459513 -0.006239 0.000291 0 -0.011755 0 2650 
60 1 0.007579 0.00748413 -0.006312 0.001058 0 -0.011755 0 2650 
45 1 0.010575 0.00740413 -0.007722 0.000291 0 -0.011755 0 2650 
271 1 0.001328 0.00930813 -0.00636 0.001058 0 -0.011755 0 2650 
178 1 0.003641 0.00166313 -0.005569 0.001058 0 -0.011755 0 2650 
92 1 0.010471 4.81274e-05 -0.004542 0.001058 0 -0.011755 0 2650 
260 1 0.010685 0.00219113 -0.004932 0.000291 0 -0.011755 0 2650 
161 1 0.013129 0.00227413 -0.005759 0.00164 0 -0.011755 0 2650 
246 1 0.001376 0.00408213 -0.005453 0.001058 0 -0.011755 0 2650 
279 1 0.011818 0.00653813 -0.00556 0.001058 0 -0.011755 0 2650 
19 1 0.013799 0.00906713 -0.005439 0.001058 0 -0.011755 0 2650 
199 1 0.014464 0.00789513 -0.004562 0.000291 0 -0.011755 0 2650 
278 1 7.4e-05 0.00999513 -0.004448 0.001058 0 -0.011755 0 2650 
284 1 0.014191 0.0107751 -0.005949 0.000291 0 -0.011755 0 2650 
171 1 0.000459 0.000998127 -0.002783 0.001058 0 -0.011755 0 2650 
88 1 0.002864 0.00270813 -0.002457 0.000105 0 -0.011755 0 2650 
205 1 0.005264 0.00307713 -0.002386 0.000291 0 -0.011755 0 2650 
177 1 0.007332 0.00257413 -0.003583 0.00164 0 -0.011755 0 2650 
253 1 0.014729 0.00625313 -0.002617 0.000291 0 -0.011755 0 2650 
227 1 0.00944 0.00808213 -0.002109 0.000291 0 -0.011755 0 2650 
6 1 0.004141 0.000430127 -0.001643 0.000291 0 -0.011755 0 2650 
113 1 0.010337 0.00570813 -0.001708 0.00164 0 -0.011755 0 2650 
190 1 0.005899 0.0107841 -0.000534 0.000291 0 -0.011755 0 2650 
183 1 0.01481 0.00107113 0.000242 0.000291 0 -0.011755 0 2650 
277 1 0.015014 0.00144913 0.001212 0.000291 0 -0.011755 0 2650 
96 1 0.009869 0.00283813 0.000788 0.000105 0 -0.011755 0 2650 
81 1 0.007451 0.00420113 7.8e-05 0.00164 0 -0.011755 0 2650 
261 1 0.011218 0.00437713 0.000328 0.000291 0 -0.011755 0 2650 
48 1 0.009671 0.00867613 0.000233 0.000105 0 -0.011755 0 2650 
128 1 0.00361 0.0103831 0.000511 0.000105 0 -0.011755 0 2650 
9 1 0.012984 0.0104211 0.000468 0.00164 0 -0.011755 0 2650 
286 1 0.015584 0.0110891 0.000132 0.001058 0 -0.011755 0 2650 
225 1 0.001446 0.00126813 0.002203 0.001058 0 -0.011755 0 2650 
264 1 0.003305 0.000414127 0.003449 0.001058 0 -0.011755 0 2650 
143 1 0.013105 0.00153813 0.003332 0.000291 0 -0.011755 0 2650 
210 1 0.010971 0.00353113 0.002357 0.001058 0 -0.011755 0 2650 
101 1 0.004812 0.00910613 0.002517 0.000291 0 -0.011755 0 2650 
294 1 0.006997 0.00839013 0.003581 0.001058 0 -0.011755 0 2650 
267 1 0.007574 0.000635127 0.005778 0.000291 0 -0.011755 0 2650 
305 1 0.007934 0.00137713 0.005234 0.000105 0 -0.011755 0 2650 
50 1 0.006699 0.00261813 0.005883 0.001058 0 -0.011755 0 2650 
150 1 0.010064 0.00271913 0.004311 0.000291 0 -0.011755 0 2650 
212 1 0.001087 0.00890013 0.005915 0.000291 0 -0.011755 0 2650 
24 1 0.005464 0.00847213 0.005551 0.000105 0 -0.011755 0 2650 
51 1 0.009662 0.00954513 0.004577 0.001058 0 -0.011755 0 2650 
244 1 0.014869 0.00895813 0.00421 0.001058 0 -0.011755 0 2650 
79 1 0.014214 0.0113851 0.005058 0.000291 0 -0.011755 0 2650 
118 1 0.001179 0.000800127 0.007467 0.000291 0 -0.011755 0 2650 
174 1 0.002361 0.00237113 0.006466 0.000291 0 -0.011755 0 2650 
232 1 0.003256 0.00336913 0.007333 0.001058 0 -0.011755 0 2650 
207 1 0.000324 0.00405713 0.006532 0.000291 0 -0.011755 0 2650 
208 1 0.009461 0.00473313 0.007837 0.001058 0 -0.011755 0 2650 
231 1 0.006459 0.00809713 0.007445 0.001058 0 -0.011755 0 2650 
222 1 0.009219 0.0107441 0.006833 0.001058 0 -0.011755 0 2650 
112 1 0.013668 0.0117081 0.007002 0.000105 0 -0.011755 0 2650 
1 1 0.00251707 0.00123611 0.00963459 0.00164 0.00775899 -0.0148356 -0.00837378 2650 
154 1 0.000772603 0.0072867 0.00947593 0.001058 0.00678339 0.101014 -0.0544466 2650 
145 1 0.00382928 0.00976441 0.00862895 0.00164 0.000993456 -0.0124671 3.24591e-05 2650 
194 1 0.007709 0.00887613 0.009989 0.001058 0 -0.011755 0 2650 
147 1 0.0109123 0.000515246 0.0109559 0.001058 0.0509795 0.0185854 -0.09886 2650 
228 1 0.010294 0.00188013 0.01009 0.000291 0 -0.011755 0 2650 
103 1 0.005979 0.00507513 0.01127 0.000291 0 -0.011755 0 2650 
258 1 0.009255 0.00616613 0.010506 0.001058 0 -0.011755 0 2650 
66 1 0.00200371 0.00898299 0.0115558 0.001058 0.0117475 -0.000546567 -0.0056688 2650 
298 1 0.003487 0.00980713 0.011695 0.000105 0 -0.011755 0 2650 
287 1 0.006558 0.00446113 0.013233 0.001058 0 -0.011755 0 2650 
100 1 0.000830137 0.00722404 0.0122484 0.001058 0.019732 -0.0136041 -0.00483564 2650 
95 1 0.006942 0.00652213 0.013027 0.000291 0 -0.011755 0 2650 
301 1 0.00366982 0.0137637 0.0134192 0.001058 0.022503 0.0131388 0.0516978 2650 
3 1 0.0040711 0.0022295 0.014414 0.001058 0.0372746 0.0015277 0.011619 2650 
82 1 0.000755 0.00404413 0.014898 0.001058 0 -0.011755 0 2650 
126 1 0.00174669 0.0106753 0.0151064 0.000291 -0.000669393 -0.021809 0.0558205 2650 
12 1 0.00462646 0.109842 -0.00717434 0.001058 0.0647213 0.549795 -0.169615 2650 
