ITEM: TIMESTEP
11236500
ITEM: NUMBER OF ATOMS
287
ITEM: BOX BOUNDS ff ff ff
-0.15 0.15
-0.15 0.15
-0.15 0.15
ITEM: ATOMS id type x y z radius vx vy vz density 
290 1 -0.00147139 -0.0446401 -0.0686922 0.000291 -10.3239 -0.284321 0.212401 2650 
158 1 -0.00225121 -0.0203364 -0.0686707 0.000291 -7.03264 0.392258 0.21478 2650 
16 1 -0.00760023 -0.00262155 -0.0684727 0.000105 -8.0585 -0.0965567 0.909783 2650 
215 1 -0.0160337 -0.0482759 -0.0660485 0.001058 -10.4107 0.0108398 2.52768 2650 
264 1 -0.0138287 -0.0481996 -0.0665435 0.001058 -10.4956 0.0382162 2.18072 2650 
39 1 -0.0167825 -0.0419729 -0.0666427 0.000291 -10.4378 0.716786 2.62889 2650 
83 1 -0.0020179 -0.0368912 -0.0679176 0.001058 -10.9944 -0.0442497 0.329732 2650 
34 1 -0.0100625 -0.0301954 -0.0671982 0.001058 -8.94576 0.0785003 1.32374 2650 
235 1 -0.0218444 -0.0113962 -0.0651639 0.000291 -7.39139 0.194376 2.45884 2650 
122 1 -0.0256636 -0.0246581 -0.062914 0.001058 -7.83557 0.224828 3.20025 2650 
166 1 -0.0284271 -0.0235532 -0.062557 0.000291 -8.30074 -0.0999339 3.76555 2650 
302 1 -0.0354039 -0.0262323 -0.0588818 0.000291 -6.58238 -0.125177 3.94296 2650 
208 1 -0.034157 -0.0161712 -0.0587583 0.001058 -5.32977 0.287449 3.12657 2650 
296 1 -0.036201 -0.000561052 -0.0583973 0.000291 -3.91062 -0.0419061 2.42763 2650 
223 1 -0.0359113 -0.0167991 -0.0576911 0.001058 -5.39205 -0.713518 3.23246 2650 
117 1 -0.0425584 -0.0070171 -0.0539352 0.000291 -4.09549 0.672595 3.13232 2650 
64 1 -0.0419173 -0.00147725 -0.0546717 0.000105 -6.14749 -0.294861 4.69549 2650 
109 1 -0.0432598 -0.0505023 -0.0533842 0.000291 -8.4073 0.237101 6.81206 2650 
251 1 -0.0421625 -0.0254732 -0.0532808 0.001058 -6.19055 0.184425 4.91746 2650 
226 1 -0.0466235 -0.0314177 -0.0504689 0.000291 -6.12319 0.0828015 5.63852 2650 
257 1 -0.0464976 -0.043079 -0.0495449 0.001058 -6.98289 -0.289234 6.54456 2650 
241 1 -0.0485382 -0.0160853 -0.0486291 0.000291 -5.08281 -1.13306 5.08009 2650 
184 1 -0.0507152 -0.0221225 -0.0466259 0.000105 -3.69679 -0.229362 4.02056 2650 
84 1 -0.0539986 -0.0429388 -0.041212 0.001058 -6.07854 -0.300959 7.96688 2650 
281 1 -0.0570639 -0.060782 -0.0382681 0.000291 -5.95915 -0.134589 8.88616 2650 
73 1 -0.0554554 -0.0541652 -0.0382633 0.00164 -5.99314 -0.0925801 8.68749 2650 
228 1 -0.0561112 -0.0162155 -0.0396751 0.000291 -3.81226 -0.363838 5.37763 2650 
89 1 -0.0559802 -0.058995 -0.0374753 0.00164 -5.93937 0.000502274 8.87171 2650 
230 1 -0.0572659 -0.051221 -0.0365601 0.001058 -5.72261 -0.0864738 8.96211 2650 
191 1 -0.0594915 -0.0393946 -0.0343848 0.000291 -5.37454 0.412238 9.30199 2650 
239 1 -0.0609181 -0.051893 -0.0301282 0.001058 -4.6535 0.222585 9.40943 2650 
131 1 -0.0604693 -0.0365229 -0.0309913 0.001058 -4.97266 0.851742 9.7064 2650 
121 1 -0.0628609 -0.0434058 -0.0242967 0.00164 -3.77389 -0.0284093 9.75209 2650 
288 1 -0.0660206 -0.0450032 -0.0191058 0.000291 -2.99858 -0.081467 10.3616 2650 
243 1 -0.065794 -0.0452747 -0.0170462 0.001058 -2.60844 -0.0232502 10.04 2650 
135 1 -0.00789782 -0.000769281 -0.0109943 0.000291 -0.0060505 -0.00140209 -0.0140303 2650 
175 1 -0.013247 -0.00135491 -0.008751 0.000291 0 -0.011755 0 2650 
47 1 -0.0130297 -0.000944575 -0.00947927 0.000291 -0.00125586 -0.0105028 0.00427205 2650 
240 1 -0.010392 -0.000752907 -0.005262 0.000291 0 -0.011755 0 2650 
274 1 -0.016349 -0.00294591 -0.002509 0.000291 0 -0.011755 0 2650 
13 1 -0.014201 -0.000710907 -0.003882 0.000291 0 -0.011755 0 2650 
104 1 -0.014089 -2.89074e-05 -0.003012 0.000105 0 -0.011755 0 2650 
168 1 -0.00827822 -0.00314156 -0.00135403 0.000105 -0.00582796 -0.00767706 -0.0215384 2650 
126 1 -0.00467766 -0.00272342 -0.00146547 0.000291 -0.00909177 -0.0182309 -0.0255133 2650 
85 1 -0.0687057 -0.0138107 0.000578016 0.000291 -0.0129204 -0.321946 3.3609 2650 
120 1 -0.016055 -0.00145891 0.000189 0.000105 0 -0.011755 0 2650 
164 1 -0.003894 -0.00108591 0.005467 0.001058 0 -0.011755 0 2650 
58 1 -0.00791661 -0.00147885 0.00684074 0.001058 0.00939797 -0.00814862 -0.00719036 2650 
53 1 -0.000660238 -0.00353952 0.0080824 0.000291 -0.0837978 -0.055355 1.02582 2650 
303 1 -0.0677794 -0.00949554 0.0112955 0.000291 0.565787 -0.211403 3.33702 2650 
285 1 -0.0113817 -0.00234753 0.0106994 0.001058 -0.00447436 -0.0137973 -0.00560016 2650 
272 1 -0.0638948 -0.0311966 0.0231363 0.001058 3.27702 -0.114015 9.20562 2650 
207 1 -0.0639971 -0.00542463 0.0250057 0.000291 1.75965 -0.187822 4.41292 2650 
152 1 -0.0613989 -0.00321783 0.0312392 0.000105 3.58846 -0.314168 7.0924 2650 
36 1 -0.0587063 -0.0388812 0.0342159 0.001058 5.22139 -0.194193 8.95973 2650 
141 1 -0.059281 -0.0290307 0.0347308 0.000291 5.20348 -0.279863 8.88382 2650 
26 1 -0.0571241 -0.0379643 0.0367965 0.001058 5.60316 -0.351351 8.69803 2650 
196 1 -0.0501723 -0.0439482 0.045752 0.001058 6.97027 -0.309672 7.64322 2650 
118 1 -0.0515723 -0.0170143 0.0453385 0.000291 5.09374 -0.22522 5.8357 2650 
218 1 -0.0484699 -0.0356686 0.0476179 0.001058 7.34246 0.05603 7.46919 2650 
150 1 -0.0445931 -0.0256258 0.0522712 0.000291 6.37767 0.319255 5.41094 2650 
210 1 -0.042813 -0.019215 0.0527618 0.001058 5.60248 -0.495004 4.5993 2650 
204 1 -0.0383778 -0.0256515 0.0560723 0.001058 7.80408 0.0154388 5.35123 2650 
229 1 -0.0360201 -0.0506608 0.0576328 0.001058 9.08666 -0.0158538 5.67917 2650 
193 1 -0.0355689 -0.0470252 0.0572422 0.00164 8.88829 -0.0376168 5.52306 2650 
183 1 -0.0357431 -0.0583787 0.0586759 0.000291 7.54012 0.402558 4.60293 2650 
185 1 -0.0317026 -0.0487994 0.0594688 0.00164 9.18805 0.0384894 4.89538 2650 
233 1 -0.0340147 -0.0102203 0.0597157 0.000291 8.37373 -0.232426 4.77544 2650 
20 1 -0.0285987 -0.0481502 0.0616627 0.001058 9.53453 0.00934563 4.42185 2650 
46 1 -0.0332055 -0.00998843 0.0601684 0.000291 6.63319 0.400233 3.66784 2650 
188 1 -0.0262707 -0.0614958 0.0626631 0.001058 9.82371 0.0250336 4.11848 2650 
23 1 -0.029013 -0.0403316 0.0622948 0.000291 10.1575 0.450388 4.72948 2650 
165 1 -0.0196973 -0.0493843 0.0658461 0.000291 9.02395 1.13543 2.71045 2650 
125 1 -0.0221027 -0.0187805 0.0650765 0.000291 7.7058 0.11228 2.62352 2650 
182 1 -0.019948 -0.00297161 0.0657442 0.000291 6.55435 -0.0365945 1.986 2650 
42 1 5.77328e-05 -0.0558453 0.0679476 0.001058 10.233 0.021994 -0.0101511 2650 
102 1 -0.0173202 -0.0435817 0.0665082 0.000291 7.75893 -0.548657 2.01928 2650 
148 1 -0.0117347 -0.0446746 0.0669396 0.001058 10.0463 0.00112401 1.75162 2650 
119 1 -0.0154359 -0.0418701 0.0669646 0.000291 10.7958 0.195948 2.48776 2650 
76 1 -0.000136132 -0.0255149 0.0679465 0.001058 9.10226 0.0479045 0.0239239 2650 
280 1 -0.00281418 -0.02272 0.0678493 0.001058 9.07309 0.0705827 0.354898 2650 
14 1 -0.0083464 -0.0465041 0.0682055 0.000291 7.49009 2.64239 0.936543 2650 
282 1 -0.000485281 -0.0172096 0.068707 0.000291 9.06441 0.17616 0.0729055 2650 
130 1 -0.00194517 0.000584777 -0.0145334 0.001058 -0.00730232 0.00347522 0.00594057 2650 
33 1 -0.00147637 0.0158556 -0.0142816 0.00164 0.00603998 0.0215627 0.00352792 2650 
157 1 -0.00551974 0.0400907 -0.0142202 0.000291 0.0079085 0.0606548 0.000918149 2650 
205 1 -0.00397622 0.000297193 -0.0129282 0.000291 -0.0212393 0.00831856 -0.0510728 2650 
67 1 -0.00435157 0.0111629 -0.0134833 0.001058 -0.020884 0.0142907 -0.00966941 2650 
38 1 -0.00582535 0.0126561 -0.0121309 0.000291 0.0290333 0.00993382 0.0254358 2650 
75 1 -0.00470293 0.0439849 -0.0124553 0.001058 0.0206685 0.0556886 -0.0248334 2650 
94 1 -0.0115509 0.00308789 -0.0118499 0.000291 8.5498e-05 -0.0117385 8.5498e-05 2650 
74 1 -0.0115151 0.00338619 -0.00818475 0.001058 0.00156258 -0.00569596 -0.00749774 2650 
234 1 -0.0123546 0.00824832 -0.00863109 0.000291 -0.00131366 0.00431637 0.0126772 2650 
147 1 -0.0131636 0.0271691 -0.00899202 0.001058 -0.027631 0.0311508 0.0525722 2650 
276 1 -0.013674 0.000189093 -0.004231 0.000291 0 -0.011755 0 2650 
159 1 -0.012707 0.00318309 -0.00588 0.000291 0 -0.011755 0 2650 
10 1 -0.0147421 0.00635839 -0.00441026 0.001058 0.00366734 -0.00257496 -0.00408264 2650 
237 1 -0.0146342 0.0468866 -0.00492337 0.001058 -0.0605016 0.23489 0.0571334 2650 
114 1 -0.0113166 0.00479348 -0.00313996 0.001058 0.00263798 -7.05089e-05 -0.000306371 2650 
263 1 -0.00455648 0.00790447 -0.00309633 0.000291 -0.160022 0.120897 -0.118576 2650 
7 1 -0.00549583 0.0228769 -0.00317401 0.000291 0.00378858 0.0136367 -0.000251809 2650 
97 1 -0.0143528 0.00193218 -0.00033217 0.00164 0.0130558 0.0156425 -0.0241137 2650 
61 1 -0.016439 0.00290109 -0.001038 0.000291 0 -0.011755 0 2650 
80 1 -0.0152749 0.00398267 -0.00171024 0.000105 -0.00457687 0.0251897 -0.0282816 2650 
129 1 -0.00413442 0.00763423 -0.000665866 0.00164 0.00825627 0.00147102 -0.0030875 2650 
115 1 -0.0156772 0.0113786 -0.0012783 0.001058 -9.57324e-05 0.0046985 0.0169075 2650 
187 1 -0.015683 0.0173889 -0.00150532 0.001058 -0.000280938 0.0161775 0.0137442 2650 
65 1 -0.0120102 0.0203255 -0.00135238 0.00164 -0.00447342 0.0138222 0.00034274 2650 
268 1 -0.011054 0.00176309 0.000789 0.000291 0 -0.011755 0 2650 
211 1 -0.0128937 0.00486737 0.00157077 0.001058 0.000982608 0.00314487 0.00709992 2650 
209 1 -0.0148397 0.00781929 0.00146914 0.001058 -0.00415633 0.00564878 0.00501433 2650 
256 1 -0.016593 0.0104251 0.000981279 0.000291 0.0050917 -1.5445e-05 0.0250808 2650 
220 1 -0.0143894 0.0203638 0.00090358 0.000291 -0.00743392 0.0110018 0.0132466 2650 
71 1 -0.00116167 0.00503826 0.00298843 0.000291 0.000861808 -0.00718564 -0.0173142 2650 
266 1 -0.0153525 0.00919277 0.00369941 0.001058 -0.00293207 0.00740435 -0.00807451 2650 
144 1 -0.00912611 0.0148371 0.00372503 0.000105 0.00807853 0.0136784 0.0281765 2650 
52 1 -0.000196106 0.0277907 0.00220069 0.001058 0.0258261 0.0380708 0.00407144 2650 
291 1 -0.008194 0.00328809 0.004767 0.000291 0 -0.011755 0 2650 
41 1 -0.0030685 0.0154406 0.00413633 0.00164 0.0102042 0.00860529 0.0210319 2650 
106 1 -0.00712877 0.0181833 0.00426814 0.001058 0.0119634 0.0223893 -0.0027555 2650 
249 1 -0.000137509 0.0238371 0.00500343 0.000291 0.00987628 0.0185258 -0.0129358 2650 
186 1 -0.00619473 0.0013161 0.00657108 0.001058 -4.15282e-05 -0.0115536 6.1062e-05 2650 
242 1 -0.0061374 0.0200667 0.00701173 0.000291 0.0116924 0.0265357 0.00697501 2650 
124 1 -0.0138733 0.0256524 0.00651398 0.001058 0.00450723 0.0342902 0.00378394 2650 
28 1 -0.0139468 0.0308485 0.00709246 0.001058 0.00734507 0.0503926 0.00344867 2650 
300 1 -0.012504 0.000324358 0.0097859 0.001058 -0.00371667 -0.00768461 -0.00400106 2650 
250 1 -0.0103619 0.00145089 0.00948232 0.001058 0.00273404 -0.00245883 0.0388004 2650 
304 1 -0.012709 0.00256909 0.009818 0.000291 0 -0.011755 0 2650 
68 1 -0.00262762 0.00844609 0.00955651 0.001058 0.00272783 -0.00342387 -0.00169301 2650 
217 1 -0.00966718 0.0306818 0.00903287 0.001058 0.000747792 0.0265619 -0.00553463 2650 
170 1 -0.00765956 0.00184007 0.0115281 0.001058 0.00813908 -0.00598064 0.0087017 2650 
55 1 -0.01171 0.00303709 0.01034 0.000291 0 -0.011755 0 2650 
299 1 -0.009498 0.00354717 0.0119881 0.001058 0.00581403 -0.00322581 0.00124072 2650 
4 1 -0.0113311 0.00812419 0.0110154 0.001058 0.00569435 0.00097307 0.00498712 2650 
273 1 -0.0028801 0.0302789 0.0112522 0.001058 -0.00402366 0.037385 0.0311551 2650 
224 1 -0.00799372 0.0132635 0.0133453 0.001058 -0.00111942 0.00491513 -0.00282362 2650 
17 1 -0.0040218 0.0284767 0.0138893 0.00164 0.0438726 0.0448865 0.0155383 2650 
154 1 -0.00300566 0.0784218 -0.0104764 0.001058 -0.025218 0.0914679 0.0181079 2650 
143 1 0.132648 -0.024322 -0.0961239 0.000291 5.51703 0.49581 -9.82768 2650 
30 1 0.00259254 -0.030606 -0.0686593 0.000291 -8.57468 -0.220249 -0.332061 2650 
149 1 0.00806943 -0.0302193 -0.0682322 0.000291 -10.0658 -0.362288 -1.19121 2650 
213 1 0.00663349 -0.0176764 -0.0683738 0.000291 -6.86457 0.0568536 -0.790335 2650 
96 1 0.00160777 -0.00961156 -0.0688465 0.000105 -8.36737 -0.0524718 -0.122049 2650 
246 1 0.00248532 -0.0574704 -0.0678878 0.001058 -10.0801 0.0314074 -0.371941 2650 
178 1 0.00414033 -0.0588739 -0.0678119 0.001058 -10.3042 -0.374262 -0.622312 2650 
25 1 0.00318124 -0.0549321 -0.0672617 0.00164 -9.71995 -0.0462897 -0.454082 2650 
206 1 0.0130389 -0.0417853 -0.067458 0.000291 -8.08412 0.546266 -1.58255 2650 
108 1 0.00952047 -0.0252272 -0.0672662 0.001058 -8.82333 -0.0999558 -1.24624 2650 
86 1 0.0184444 -0.0167713 -0.066207 0.000291 -7.88847 -0.227617 -2.19714 2650 
197 1 0.0161272 -0.00358255 -0.066786 0.000291 -8.06002 0.0471453 -1.9366 2650 
137 1 0.0164834 -0.0611601 -0.0653255 0.00164 -10.2638 -1.83383e-08 -2.58984 2650 
171 1 0.0189668 -0.0398221 -0.0652548 0.001058 -9.12416 -0.115095 -2.64957 2650 
254 1 0.0237847 -0.0387472 -0.0644651 0.000291 -10.1657 -0.215431 -3.73506 2650 
6 1 0.0207975 -0.0167927 -0.0655093 0.000291 -8.09291 0.151974 -2.58359 2650 
88 1 0.0251347 -0.0171814 -0.0641693 0.000105 -6.79173 -0.789643 -2.64424 2650 
270 1 0.0189063 -0.0145211 -0.0660769 0.000291 -7.57867 0.327709 -2.18834 2650 
98 1 0.0215783 -0.0098391 -0.0644432 0.001058 -7.10191 -0.292243 -2.35482 2650 
59 1 0.0258035 -0.0443682 -0.0628825 0.001058 -8.49111 0.236387 -3.4568 2650 
295 1 0.0256774 -0.0213693 -0.0637426 0.000291 -7.87491 -0.143327 -3.16222 2650 
201 1 0.023444 -0.0136898 -0.0631829 0.00164 -3.26945 -0.573409 -1.27541 2650 
267 1 0.032611 -0.0139324 -0.0605003 0.000291 -6.29943 -0.181514 -3.39397 2650 
192 1 0.0334189 -0.000104971 -0.0602447 0.000105 -7.32482 0.000995858 -4.05443 2650 
219 1 0.0408743 -0.000291548 -0.0552273 0.000291 -6.27796 -0.000162739 -4.64097 2650 
169 1 0.0400343 -0.0601075 -0.0541821 0.00164 -8.65403 -0.0853249 -6.3919 2650 
200 1 0.0428113 -0.00749594 -0.0539791 0.000105 -5.96206 -0.639231 -4.73347 2650 
174 1 0.0503304 -0.0400319 -0.0467135 0.000291 -5.81995 -0.687263 -6.20859 2650 
173 1 0.0491411 -0.011773 -0.0480214 0.000291 -4.89339 -0.747151 -4.96544 2650 
151 1 0.0534111 -0.0190255 -0.0432269 0.000291 -5.07555 -0.00806472 -6.28029 2650 
259 1 0.0565591 -0.0300735 -0.0376541 0.001058 -5.3404 -0.011062 -8.03102 2650 
40 1 0.0619157 -0.0117164 -0.0302581 0.000105 -3.28126 0.256032 -6.68477 2650 
189 1 0.0614473 -0.00518467 -0.0307409 0.000291 -4.63743 0.117208 -9.26083 2650 
21 1 0.0646206 -0.0399146 -0.023379 0.000291 -3.3501 -0.0551233 -9.27818 2650 
107 1 0.0638378 -0.0344189 -0.0232598 0.001058 -3.57112 -0.164181 -9.79952 2650 
269 1 0.002277 -0.00316091 -0.015181 0.000291 0 -0.011755 0 2650 
289 1 0.001465 -0.00273791 -0.012477 0.000291 0 -0.011755 0 2650 
142 1 0.002378 -0.00232291 -0.013184 0.000291 0 -0.011755 0 2650 
60 1 0.007579 -0.00109691 -0.006312 0.001058 0 -0.011755 0 2650 
45 1 0.010575 -0.00117691 -0.007722 0.000291 0 -0.011755 0 2650 
221 1 0.0685907 -0.0166478 -0.00321493 0.000291 -0.413526 0.192412 -8.57976 2650 
253 1 0.014729 -0.00232791 -0.002617 0.000291 0 -0.011755 0 2650 
227 1 0.00944 -0.000498907 -0.002109 0.000291 0 -0.011755 0 2650 
177 1 0.00100545 -0.00229901 -0.000841636 0.00164 -0.00966503 -0.00602483 0.00423439 2650 
35 1 0.00277912 -0.00209252 0.00203818 0.001058 0.00654177 -0.0105187 -0.00962265 2650 
99 1 0.00162092 -0.000109479 0.00352961 0.001058 0.0243572 -0.0114204 0.00238608 2650 
294 1 0.006997 -0.000190907 0.003581 0.001058 0 -0.011755 0 2650 
24 1 0.005464 -0.000108907 0.005551 0.000105 0 -0.011755 0 2650 
287 1 0.0120701 -0.00146633 0.00407495 0.001058 0.00844674 -0.013594 -0.029996 2650 
231 1 0.00718 -0.000971368 0.00711774 0.001058 0.00167534 -0.0128877 -0.000760445 2650 
100 1 0.0100484 -0.00180425 0.00775234 0.001058 0.00912399 -0.0117578 -0.00681185 2650 
255 1 0.0679831 -0.0140246 0.0100191 0.000291 1.3251 0.335593 -9.00293 2650 
81 1 0.0661988 -0.0251322 0.0125072 0.00164 1.25612 -0.05515 -6.85423 2650 
3 1 0.00869152 -0.00219968 0.0127186 0.001058 -0.00211489 -0.0052299 0.000123346 2650 
43 1 0.0662771 -0.0366932 0.0149825 0.001058 2.28288 -0.078477 -10.1075 2650 
140 1 0.0663314 -0.0335362 0.014725 0.001058 2.14544 -0.0255453 -9.71226 2650 
22 1 0.0658593 -0.0282912 0.0195687 0.000291 2.90469 0.57687 -9.7585 2650 
50 1 0.0624586 -0.0345843 0.0267377 0.001058 3.75865 0.359213 -8.82301 2650 
44 1 0.0612922 -0.0166398 0.0293831 0.001058 4.12801 -0.0949734 -8.61153 2650 
167 1 0.0621287 -0.0138191 0.0293989 0.000291 4.03287 0.559963 -8.52838 2650 
90 1 0.0599222 -0.0507198 0.0320713 0.001058 5.03434 0.00301494 -9.40644 2650 
248 1 0.0603953 -0.0481806 0.032799 0.000291 4.34021 0.333714 -7.98481 2650 
133 1 0.0592303 -0.0217491 0.0348409 0.000291 4.42253 -0.156049 -7.45731 2650 
18 1 0.0547757 -0.0138338 0.0401885 0.001058 4.0311 -0.169711 -5.46995 2650 
225 1 0.0521057 -0.0436748 0.0435632 0.001058 6.65073 0.172186 -7.97328 2650 
247 1 0.0533241 -0.045046 0.0432787 0.000291 6.5659 -0.0770861 -8.08522 2650 
132 1 0.0533353 -0.0131446 0.0420828 0.001058 4.15799 -0.179121 -5.34277 2650 
103 1 0.0229455 -0.0143389 0.0487458 0.000291 3.39901 -0.901596 7.30325 2650 
261 1 0.0478009 -0.00638049 0.0493529 0.000291 2.37115 -0.193421 -2.34003 2650 
8 1 0.0413078 -0.0531979 0.0551404 0.000105 6.38865 0.530109 -4.78137 2650 
277 1 0.0372969 -0.0243797 0.0577077 0.000291 7.82371 0.168483 -5.06146 2650 
15 1 0.0397355 -0.0163672 0.0560681 0.000291 6.87152 -0.219364 -4.84895 2650 
56 1 0.0334138 -0.0191315 0.0602668 0.000105 7.70591 0.765916 -4.26092 2650 
146 1 0.0196734 -0.0503849 0.0650545 0.001058 10.5508 0.227712 -3.18725 2650 
179 1 0.0172089 -0.0474438 0.0657514 0.001058 10.316 0.0315759 -2.70003 2650 
2 1 0.0218047 -0.0331221 0.0643499 0.001058 9.01159 -0.0146599 -3.01096 2650 
236 1 0.00773129 -0.053713 0.0675033 0.001058 10.6759 0.0977094 -1.22161 2650 
49 1 0.0127223 -0.0492285 0.0661742 0.00164 10.7068 -0.113416 -2.05142 2650 
172 1 0.0149193 -0.0476237 0.0662998 0.001058 10.4109 0.0312988 -2.34214 2650 
93 1 0.0163652 -0.0479832 0.0667436 0.000291 10.2202 0.247225 -2.50424 2650 
138 1 0.0105746 -0.0442002 0.0671175 0.001058 10.8441 -0.172812 -1.7097 2650 
162 1 0.000344964 -0.0286575 0.0679444 0.001058 7.61856 -0.0744823 -0.0608356 2650 
82 1 0.00237834 -0.0267982 0.0679046 0.001058 7.60478 0.104139 -0.230222 2650 
214 1 0.00488182 -0.0481379 0.0685118 0.000291 11.0788 -0.394623 -0.795249 2650 
305 1 0.00573051 -0.0477115 0.0686478 0.000105 8.14008 1.59941 -0.614221 2650 
181 1 0.00861467 -0.0454877 0.0681627 0.000291 10.591 0.730529 -1.33749 2650 
29 1 0.0073236 -0.0149627 0.0683218 0.000291 9.0735 -0.44306 -0.980927 2650 
37 1 0.006156 0.00260109 -0.015157 0.000291 0 -0.011755 0 2650 
293 1 0.00259862 0.0283929 -0.0156439 0.001058 -0.10571 0.0509517 -0.0263031 2650 
127 1 0.00385811 0.0491262 -0.0143419 0.000291 0.0331404 0.0647284 -0.0037516 2650 
252 1 0.00245 0.000972093 -0.01336 0.001058 0 -0.011755 0 2650 
78 1 0.001258 0.00258709 -0.012517 0.000291 0 -0.011755 0 2650 
275 1 0.012705 0.000334093 -0.010476 0.000291 0 -0.011755 0 2650 
134 1 0.00464611 0.00478007 -0.0102067 0.000291 -0.0128132 0.00355392 -0.00692922 2650 
244 1 0.0122343 0.00216024 -0.0100001 0.001058 -0.0653243 0.0258087 -0.0885756 2650 
260 1 0.00913932 0.00389384 -0.00765057 0.000291 -0.00392275 0.00411325 -0.00447499 2650 
87 1 0.00648181 0.00528216 -0.00674919 0.000291 -0.00318762 -0.017547 -0.0237996 2650 
19 1 0.0143561 0.00795829 -0.00648919 0.001058 -0.00189711 0.0050805 -0.00113271 2650 
284 1 0.0143713 0.00954482 -0.0072157 0.000291 -0.00371053 0.00586111 -0.00129449 2650 
232 1 0.0125792 0.0153318 -0.00682645 0.001058 -0.0167248 0.0324446 -0.0332171 2650 
278 1 7.4e-05 0.00141409 -0.004448 0.001058 0 -0.011755 0 2650 
203 1 0.00427302 0.00541844 -0.00518467 0.001058 0.0222717 0.0321229 0.00594202 2650 
279 1 0.00767918 0.00666722 -0.00472862 0.001058 -0.00483641 0.00012964 0.00531894 2650 
77 1 0.00302505 0.0109392 -0.00432833 0.000291 0.0279429 0.00178097 -0.016803 2650 
301 1 0.0063574 0.0295708 -0.00491376 0.001058 0.00272587 0.0220862 -0.0290146 2650 
180 1 0.0146616 0.0423678 -0.00579751 0.001058 0.0127121 0.0643237 0.0551868 2650 
113 1 0.0142735 0.00118744 -0.00206613 0.00164 -0.0251958 0.00978061 -0.000134024 2650 
161 1 0.0136622 0.00466349 -0.0036575 0.00164 0.000907452 0.00399164 0.00334652 2650 
199 1 0.0159198 0.00452091 -0.00256299 0.000291 -0.00149126 0.000541054 0.0056379 2650 
92 1 0.0108004 0.00609261 -0.00337819 0.001058 0.00298746 0.00292354 0.00546929 2650 
286 1 0.0154997 0.00829404 -0.0029512 0.001058 -0.00457067 0.0508687 -0.0262864 2650 
123 1 0.0114516 0.0151687 -0.00223862 0.001058 0.0354386 0.020018 -0.000637314 2650 
271 1 0.0103634 0.00153809 -0.000165071 0.001058 0.0150184 -0.010407 0.010297 2650 
190 1 0.005899 0.00220309 -0.000534 0.000291 0 -0.011755 0 2650 
153 1 0.00347176 0.00658183 -5.06447e-05 0.00164 0.00905173 -0.00370467 -0.0193596 2650 
105 1 0.00833489 0.011492 -0.000500242 0.00164 0.00091231 0.0106728 0.0284417 2650 
194 1 0.0150369 0.0106161 -0.000701084 0.001058 0.0126865 0.0603505 -0.0128114 2650 
176 1 0.00299949 0.000795039 0.000932631 0.000105 0.0253113 -0.0084311 -0.00587015 2650 
128 1 0.00361 0.00180209 0.000511 0.000105 0 -0.011755 0 2650 
101 1 0.00565915 0.0013233 0.00177047 0.000291 0.0107852 -0.0015929 -0.0095042 2650 
48 1 0.009671 9.50926e-05 0.000233 0.000105 0 -0.011755 0 2650 
9 1 0.0136437 0.00770614 0.000400294 0.00164 0.00232671 0.0541947 0.0097899 2650 
70 1 0.00101145 0.0154576 0.00182161 0.000291 0.0174831 0.0757361 0.0937803 2650 
139 1 0.0122774 0.0202053 0.000596078 0.001058 0.0127696 0.00849352 0.0230521 2650 
245 1 0.00128053 0.0634819 0.0010955 0.001058 0.013355 0.0538623 -0.0223836 2650 
202 1 0.00474486 2.38492e-05 0.00225922 0.001058 0.00930573 -0.00892744 -0.0136195 2650 
1 1 0.0135815 0.00349559 0.00220603 0.00164 0.00550181 0.00569205 -0.0118839 2650 
258 1 0.0144211 0.0128562 0.00389184 0.001058 0.00615004 0.0226911 -0.0182162 2650 
212 1 0.001087 0.000319093 0.005915 0.000291 0 -0.011755 0 2650 
51 1 0.009662 0.000964093 0.004577 0.001058 0 -0.011755 0 2650 
79 1 0.014214 0.00280409 0.005058 0.000291 0 -0.011755 0 2650 
116 1 0.0112651 0.0306827 0.00595746 0.001058 -0.0278213 0.0454338 0.0115295 2650 
145 1 0.00493537 0.000830829 0.00745801 0.00164 0.00142123 -0.0121074 -0.00172265 2650 
195 1 0.0135332 0.000590076 0.00762201 0.001058 0.0165512 -0.0021662 -0.02702 2650 
222 1 0.009219 0.00216309 0.006833 0.001058 0 -0.011755 0 2650 
112 1 0.013668 0.00312709 0.007002 0.000105 0 -0.011755 0 2650 
292 1 0.0107373 0.0281228 0.0062197 0.001058 -0.0104367 0.0376087 -0.0291473 2650 
110 1 0.00115525 0.0020011 0.00920894 0.000291 -0.0169259 -0.0135844 0.0488079 2650 
156 1 0.00696298 0.0117985 0.00841445 0.001058 0.00957299 -0.000303602 -0.00985815 2650 
198 1 0.0138149 0.0127837 0.00911988 0.000291 -0.0511294 0.00481944 0.0685427 2650 
57 1 0.00620637 0.0232563 0.00949817 0.00164 -0.000919831 0.00616449 -0.024056 2650 
238 1 0.00173958 0.0297375 0.0118827 0.001058 0.0207771 0.0325148 -0.00733364 2650 
54 1 0.00991733 0.0318468 0.0105277 0.000291 0.0526685 0.00955407 -0.0227648 2650 
298 1 0.0106751 0.0054503 0.0120767 0.000105 0.00377194 -0.00442838 -0.00799766 2650 
265 1 0.00514864 0.00841249 0.0136373 0.001058 0.011667 0.00657701 -0.00499144 2650 
66 1 0.00843108 0.00844465 0.0121919 0.001058 0.00846641 -0.000759158 0.00162513 2650 
95 1 0.00672004 0.00205164 0.0143616 0.000291 -0.000366951 -0.00495937 0.00220646 2650 
155 1 0.00850456 0.0905227 -0.0109306 0.001058 0.04057 0.188533 0.00265111 2650 
136 1 0.0102511 0.102222 0.00443472 0.000105 0.0375902 0.10168 0.0199891 2650 
