ITEM: TIMESTEP
17533977
ITEM: NUMBER OF ATOMS
269
ITEM: BOX BOUNDS ff ff ff
-0.15 0.15
-0.15 0.15
-0.15 0.15
ITEM: ATOMS id type x y z radius vx vy vz density 
267 1 -0.00452937 -0.0179425 -0.0685588 0.000291 -9.0052 0.111771 0.606586 2650 
167 1 -0.0120708 -0.0131721 -0.0676526 0.000291 -8.91653 -0.0247166 1.60974 2650 
26 1 -0.0170886 -0.0493662 -0.0657837 0.001058 -10.3234 -0.00585345 2.68167 2650 
50 1 -0.020595 -0.0305943 -0.0647621 0.001058 -9.48832 0.137755 3.02303 2650 
140 1 -0.0268086 -0.0415084 -0.0624531 0.001058 -9.14565 -0.190878 3.92298 2650 
201 1 -0.0215907 -0.0350566 -0.0638149 0.00164 -9.2611 -0.160319 3.18167 2650 
158 1 -0.0282211 -0.0162166 -0.0626711 0.000291 -7.49555 -0.158489 3.37955 2650 
86 1 -0.0321767 -0.0336888 -0.0607033 0.000291 -8.72657 -1.40444 4.62488 2650 
270 1 -0.0303243 -0.010683 -0.0616734 0.000291 -6.92474 0.233332 3.40959 2650 
85 1 -0.0317229 -0.0117761 -0.0609677 0.000291 -3.42879 -0.222564 1.7592 2650 
152 1 -0.0376644 -0.0175568 -0.0576975 0.000105 -7.18432 -0.516329 4.70614 2650 
82 1 -0.041655 -0.0349062 -0.0536759 0.001058 -8.17668 -0.00869532 6.34594 2650 
34 1 -0.0480583 -0.030875 -0.0482269 0.001058 -7.57547 -2.12619e-08 7.54897 2650 
185 1 -0.050321 -0.0519023 -0.0447929 0.00164 -7.08678 -0.0780288 7.96554 2650 
81 1 -0.0529703 -0.0499298 -0.0416341 0.00164 -6.50576 -0.0195758 8.27529 2650 
162 1 -0.0530351 -0.0473706 -0.042484 0.001058 -6.6617 -0.00279752 8.31713 2650 
48 1 -0.053414 -0.0452258 -0.0435181 0.000105 -6.4514 0.420076 7.92428 2650 
168 1 -0.0541637 -0.00724079 -0.0425773 0.000105 -5.43128 0.302691 6.92998 2650 
42 1 -0.0546145 -0.0545757 -0.0404289 0.001058 -6.32339 0.0530449 8.54184 2650 
172 1 -0.0561778 -0.0541088 -0.0382326 0.001058 -6.01923 -0.0133779 8.84593 2650 
193 1 -0.0552642 -0.04961 -0.0385589 0.00164 -5.98624 0.0906478 8.58555 2650 
20 1 -0.0575201 -0.0552288 -0.0361788 0.001058 -5.67827 0.0298468 9.02747 2650 
43 1 -0.0581605 -0.053482 -0.0351501 0.001058 -5.55167 -0.0133423 9.18569 2650 
188 1 -0.0599859 -0.0614829 -0.0319101 0.001058 -5.03921 -0.0486719 9.47267 2650 
148 1 -0.0594277 -0.0528736 -0.0329625 0.001058 -5.18856 0.0332358 9.35303 2650 
35 1 -0.0600107 -0.0508643 -0.0319041 0.001058 -5.0117 0.000381071 9.42691 2650 
218 1 -0.0619517 -0.0492379 -0.0279645 0.001058 -4.39438 -0.00704327 9.73505 2650 
184 1 -0.0655277 -0.0221443 -0.0213004 0.000105 -2.52235 -0.272889 7.6792 2650 
192 1 -0.0656837 -0.000105234 -0.0207856 0.000105 -2.71458 -0.000333563 8.61913 2650 
236 1 -0.0656149 -0.0615057 -0.0176496 0.001058 -2.77363 -0.00395414 10.3113 2650 
247 1 -0.066902 -0.0477821 -0.0157362 0.000291 -2.48244 0.0725488 10.553 2650 
47 1 -0.0674791 -0.00759906 -0.0129187 0.000291 -1.54211 -0.218754 7.9811 2650 
118 1 -0.067873 -0.0184134 -0.0106157 0.000291 -1.41875 0.209783 9.12756 2650 
94 1 -0.0115073 -0.00289878 -0.0118063 0.000291 8.5498e-05 -0.0117385 8.5498e-05 2650 
135 1 -0.00811895 -0.00186578 -0.0119002 0.000291 0.00330025 -0.00264717 0.00636962 2650 
294 1 -0.0674538 -0.029335 -0.00817409 0.001058 -1.24498 0.0928066 10.2884 2650 
40 1 -0.0683973 -0.000822461 -0.00825664 0.000105 -0.987567 -0.000927483 8.24736 2650 
159 1 -0.012707 -0.00281197 -0.00588 0.000291 0 -0.011755 0 2650 
141 1 -0.0686518 -0.0309676 -0.00280988 0.000291 -0.425342 0.118293 10.327 2650 
255 1 -0.0686144 -0.00456789 -0.00330967 0.000291 -0.405476 -0.520973 8.60969 2650 
61 1 -0.016439 -0.00309397 -0.001038 0.000291 0 -0.011755 0 2650 
58 1 -0.010403 -0.00208688 -0.00183488 0.001058 0.020455 0.00490158 -0.0306807 2650 
128 1 -0.068773 -0.00121356 0.0040871 0.000105 0.504962 -0.232446 8.04038 2650 
248 1 -0.0684663 -0.0223888 0.00576163 0.000291 0.886848 0.356018 10.5317 2650 
291 1 -0.008194 -0.00270697 0.004767 0.000291 0 -0.011755 0 2650 
138 1 -0.067471 -0.0537697 0.00805301 0.001058 1.26315 -0.0865666 10.5799 2650 
110 1 -0.0027626 -0.00305018 0.00773566 0.000291 -0.00381615 -0.00836552 -0.0245093 2650 
146 1 -0.0672209 -0.0488352 0.0099553 0.001058 1.56555 0.0115099 10.5692 2650 
253 1 -0.0680243 -0.0224815 0.00969784 0.000291 1.37162 -0.15431 9.58499 2650 
55 1 -0.01171 -0.00295797 0.01034 0.000291 0 -0.011755 0 2650 
302 1 -0.0667468 -0.0146064 0.0163853 0.000291 2.17113 -0.213231 8.80282 2650 
250 1 -0.00275842 -0.000580084 0.015574 0.001058 0.0161046 -0.00542442 -0.00110725 2650 
93 1 -0.0659545 -0.0497672 0.0193234 0.000291 3.01541 -0.0339285 10.2922 2650 
304 1 -0.0238094 -0.00571393 0.0197024 0.000291 -3.1166 -0.330532 2.64094 2650 
179 1 -0.0619308 -0.0488815 0.0280123 0.001058 4.50056 -0.068598 9.94546 2650 
59 1 -0.061727 -0.0465398 0.0284635 0.001058 4.45039 -0.0407971 9.65199 2650 
165 1 -0.0625445 -0.0428522 0.0284946 0.000291 4.56409 0.181426 10.0152 2650 
254 1 -0.0620148 -0.0514703 -0.0296192 0.000291 -4.68865 -0.0155162 9.81514 2650 
49 1 -0.0600485 -0.0488105 0.0306009 0.00164 4.80233 -0.00658448 9.42329 2650 
257 1 -0.058788 -0.0482559 0.0341132 0.001058 5.35907 -0.07128 9.23489 2650 
212 1 -0.0579129 -0.00652525 0.036979 0.000291 3.98556 0.145159 6.17285 2650 
300 1 -0.0475856 -0.0121659 0.0484866 0.001058 2.93576 -0.565666 3.17534 2650 
228 1 -0.0445857 -0.0127024 0.0522494 0.000291 7.23313 0.922667 6.11413 2650 
39 1 -0.0424279 -0.0439707 0.0540139 0.000291 8.59836 0.173157 6.75722 2650 
125 1 -0.0425456 -0.0363077 0.0539488 0.000291 8.43104 0.74807 6.64508 2650 
197 1 -0.0357972 -0.00465575 0.058644 0.000291 4.79821 -0.15998 2.92806 2650 
90 1 -0.0232028 -0.049434 0.0638876 0.001058 9.96761 -0.0155538 3.61976 2650 
171 1 -0.0241767 -0.0469991 0.0635273 0.001058 9.91979 -0.135716 3.77154 2650 
21 1 -0.0219877 -0.0473963 0.0651213 0.000291 10.2287 -0.0766243 3.45353 2650 
225 1 -0.0184543 -0.045002 0.065416 0.001058 10.2783 0.000127287 2.89962 2650 
100 1 -0.019691 -0.0161097 0.0650576 0.001058 9.25047 -0.00214934 2.7906 2650 
29 1 -0.0198949 -0.00621261 0.0657669 0.000291 5.8339 0.0625568 1.76411 2650 
289 1 -0.01563 -0.0341701 0.066905 0.000291 7.96108 0.1665 1.87145 2650 
278 1 -0.00211704 -0.0301353 0.0679137 0.001058 8.50604 -0.0854642 0.292284 2650 
122 1 -0.00873184 -0.027744 0.0673821 0.001058 8.34203 -0.0212971 1.04785 2650 
227 1 -0.00297523 -0.0443565 0.0686423 0.000291 10.8497 0.111912 0.470247 2650 
232 1 -3.42562e-05 0.0310652 -0.015363 0.001058 -0.0291023 0.0299794 -0.00774462 2650 
134 1 -0.00188862 0.00659257 -0.0137406 0.000291 -0.0128132 0.00355392 -0.00692922 2650 
80 1 -0.0106804 0.016103 -0.0129718 0.000105 0.0137546 0.0232676 -0.0199154 2650 
157 1 -0.0014864 0.0710247 -0.0137519 0.000291 0.0079085 0.0606548 0.000918149 2650 
74 1 -0.010471 0.000522802 -0.0117114 0.001058 0.00552843 -0.00502923 -0.00272883 2650 
130 1 -0.00552972 0.00235792 -0.0114974 0.001058 -0.00692202 0.00347734 0.00595777 2650 
97 1 -0.00882785 0.00758795 -0.0111682 0.00164 0.0106628 0.00973926 -0.0203866 2650 
67 1 -0.0108105 0.0178941 -0.00989476 0.001058 -0.0104976 0.0129104 0.0114407 2650 
10 1 -0.0132765 0.00834689 -0.0079838 0.001058 0.0053433 0.0061558 -0.0070677 2650 
114 1 -0.00317887 0.00974842 -0.00634883 0.001058 0.0187062 0.0117361 -0.00752779 2650 
71 1 -0.000722151 0.00137357 -0.00584183 0.000291 0.000861808 -0.00718564 -0.0173142 2650 
205 1 -0.00757442 0.00242604 -0.00496933 0.000291 -0.00881861 0.00364628 0.0236275 2650 
129 1 -0.000232971 0.00867683 -0.00223526 0.00164 -0.00374589 0.0128173 -0.00288427 2650 
234 1 -0.0130246 0.0104497 -0.00216571 0.000291 -0.00131366 0.00431637 0.0126772 2650 
7 1 -0.00356365 0.0298316 -0.00330243 0.000291 0.00378858 0.0136367 -0.000251809 2650 
65 1 -0.0142916 0.0273749 -0.00117758 0.00164 -0.00447342 0.0138222 0.00034274 2650 
198 1 -0.0165204 0.0089866 0.000314426 0.000291 -0.00334926 -0.0169389 -0.0797911 2650 
106 1 -0.00102742 0.0296019 0.00286283 0.001058 0.0119634 0.0223893 -0.0027555 2650 
209 1 -0.0147991 0.00690605 0.00419492 0.001058 0.00584419 -0.0188996 0.0174994 2650 
211 1 -0.0123926 0.00647126 0.00519174 0.001058 0.000982608 0.00314487 0.00709992 2650 
244 1 -0.0149214 0.0132434 0.00521032 0.001058 0.0147268 0.0226051 0.0350285 2650 
115 1 -0.0149948 0.0164926 0.0046162 0.001058 0.00236141 0.0122312 0.0092361 2650 
256 1 -0.0158809 0.0200083 0.00433506 0.000291 0.000881351 0.0216623 0.00465977 2650 
187 1 -0.0149142 0.0255268 0.00525761 0.001058 0.00500069 0.0154788 0.0119088 2650 
266 1 -0.0131045 0.0120247 0.00787234 0.001058 0.0170435 0.00901701 0.0432948 2650 
220 1 -0.0139184 0.0259163 0.00638295 0.000291 0.00991537 0.0130183 0.0124552 2650 
217 1 -0.0092858 0.0442284 0.0062102 0.001058 0.000747792 0.0265619 -0.00553463 2650 
68 1 -0.00123642 0.00669992 0.00869308 0.001058 0.00272783 -0.00342387 -0.00169301 2650 
28 1 -0.0102008 0.0565488 0.00885129 0.001058 0.00734507 0.0503926 0.00344867 2650 
224 1 -0.00856462 0.0157702 0.0119053 0.001058 -0.00111942 0.00491513 -0.00282362 2650 
242 1 -0.000174265 0.0335999 0.010569 0.000291 0.0116924 0.0265357 0.00697501 2650 
124 1 -0.00736436 0.0440214 0.0113648 0.001058 0.0225448 0.0380641 0.0162983 2650 
116 1 -0.00292386 0.053854 0.0118375 0.001058 -0.0278213 0.0454338 0.0115295 2650 
299 1 -0.00653283 0.001902 0.0126208 0.001058 0.00581403 -0.00322581 0.00124072 2650 
4 1 -0.00835014 0.00861426 0.0133908 0.001058 0.0064118 0.000915196 0.00341804 2650 
147 1 -0.00830744 0.0386707 0.0130999 0.001058 0.0275772 0.016189 0.0275411 2650 
273 1 -0.00190998 0.0507767 0.0122676 0.001058 0.00511 0.0387776 -0.00978519 2650 
144 1 -0.00443788 0.0215992 0.0153255 0.000105 0.0152864 0.0109644 -0.00695946 2650 
154 1 -0.0158669 0.125071 -0.00124137 0.001058 -0.025218 0.0914679 0.0181079 2650 
131 1 0.00869802 -0.048458 -0.0673955 0.001058 -10.5941 -0.0499417 -1.36662 2650 
221 1 0.0118363 -0.0111795 -0.067691 0.000291 -7.71311 0.129197 -1.35582 2650 
16 1 0.0115016 -0.00843224 -0.0679331 0.000105 -8.62322 -0.171029 -1.44564 2650 
173 1 0.0152152 -0.0095492 -0.0670148 0.000291 -9.02612 -0.0891295 -2.04261 2650 
239 1 0.0182403 -0.0495153 -0.0654746 0.001058 -10.2848 -0.0125442 -2.86517 2650 
288 1 0.0223774 -0.0465796 -0.0649886 0.000291 -10.2416 -0.00799348 -3.52756 2650 
13 1 0.0236081 -0.0275061 -0.0645204 0.000291 -9.01604 -0.656728 -3.29896 2650 
18 1 0.0191904 -0.022794 -0.0651858 0.001058 -9.62174 -0.099383 -2.84361 2650 
223 1 0.0187344 -0.0206929 -0.0653281 0.001058 -9.38196 -0.0872638 -2.67012 2650 
213 1 0.026142 -0.0521623 -0.0635562 0.000291 -9.7177 -0.374702 -3.99701 2650 
230 1 0.022399 -0.0485056 -0.0641753 0.001058 -10.0873 0.0159621 -3.52083 2650 
285 1 0.0224669 -0.0315516 -0.0641272 0.001058 -9.03702 0.0169522 -3.19563 2650 
240 1 0.0262347 -0.0282692 -0.0634982 0.000291 -8.2328 0.326247 -3.38811 2650 
259 1 0.0257166 -0.026806 -0.0628883 0.001058 -9.74878 0.199733 -3.98578 2650 
119 1 0.0290989 -0.04929 -0.0622669 0.000291 -10.4642 0.0774954 -4.89242 2650 
121 1 0.0296577 -0.0463425 -0.0605224 0.00164 -9.58372 0.0132559 -4.69654 2650 
36 1 0.0286174 -0.0435822 -0.0616504 0.001058 -9.69928 -0.0429494 -4.50092 2650 
190 1 0.0300154 -0.00902629 -0.0618163 0.000291 -2.98309 -0.242802 -1.47274 2650 
281 1 0.0344276 -0.0622354 -0.0594842 0.000291 -9.37397 0.0294239 -5.42786 2650 
243 1 0.0325836 -0.0483546 -0.0596479 0.001058 -9.64812 0.0714181 -5.27526 2650 
191 1 0.0341697 -0.0487795 -0.0596322 0.000291 -9.62052 -0.188003 -5.50962 2650 
2 1 0.0327085 -0.0462049 -0.0595825 0.001058 -9.4548 0.124139 -5.18945 2650 
99 1 0.0340857 -0.0445424 -0.0588029 0.001058 -9.321 -0.104057 -5.40493 2650 
60 1 0.0333432 -0.0425452 -0.0592225 0.001058 -9.239 0.016905 -5.20152 2650 
182 1 0.036304 -0.0261399 -0.0583325 0.000291 -7.96282 0.25264 -4.96276 2650 
235 1 0.0347193 -0.01368 -0.0593136 0.000291 -7.36226 -0.148719 -4.30805 2650 
6 1 0.0352606 -0.0113339 -0.0589901 0.000291 -6.8653 0.534412 -4.11705 2650 
196 1 0.0360847 -0.0456471 -0.0575867 0.001058 -9.04867 0.0215955 -5.67008 2650 
112 1 0.0384012 -0.0294981 -0.0571985 0.000105 -2.77379 -0.564896 -1.89926 2650 
133 1 0.0378852 -0.0248581 -0.0573219 0.000291 -8.61476 -0.097148 -5.68976 2650 
73 1 0.0393414 -0.0579341 -0.0546936 0.00164 -8.59092 0.0535341 -6.17952 2650 
108 1 0.0383987 -0.0394507 -0.0560553 0.001058 -8.78922 0.10066 -6.02016 2650 
145 1 0.037921 -0.0345892 -0.0556833 0.00164 -7.6583 -0.0123499 -5.14982 2650 
295 1 0.044286 -0.0279111 -0.0525304 0.000291 -7.0653 -0.126984 -5.95249 2650 
204 1 0.0447883 -0.0304267 -0.051097 0.001058 -8.20462 0.0140209 -7.19239 2650 
261 1 0.0477785 -0.0306866 -0.049377 0.000291 -7.78098 0.244208 -7.52912 2650 
229 1 0.0486016 -0.0612025 -0.0474861 0.001058 -7.40653 0.0229801 -7.5802 2650 
280 1 0.0482279 -0.0308775 -0.048059 0.001058 -7.54906 0.0034747 -7.57557 2650 
3 1 0.0495359 -0.0268082 -0.0464921 0.001058 -6.90457 -0.101555 -7.35889 2650 
268 1 0.0500286 -0.0176048 -0.0470427 0.000291 -4.21007 0.653603 -4.37684 2650 
231 1 0.0512508 -0.0353818 -0.0446047 0.001058 -6.84803 0.125564 -7.88234 2650 
15 1 0.0509385 -0.0177405 -0.0460372 0.000291 -6.02388 -0.0443625 -6.65401 2650 
296 1 0.0526545 -0.00589379 -0.0441361 0.000291 -5.40446 -0.121939 -6.36803 2650 
214 1 0.0543015 -0.0470937 -0.0421074 0.000291 -6.10907 -0.113732 -7.88011 2650 
150 1 0.0546794 -0.032167 -0.0416052 0.000291 -6.28249 0.304867 -8.25099 2650 
98 1 0.0547893 -0.0172044 -0.0401826 0.001058 -5.96864 0.22962 -8.12815 2650 
89 1 0.0558652 -0.0611601 -0.0376601 0.00164 -5.92128 1.25215e-07 -8.78369 2650 
272 1 0.0564262 -0.0416907 -0.0378737 0.001058 -5.62181 -0.560573 -8.37967 2650 
303 1 0.057582 -0.0214148 -0.0374937 0.000291 -5.08331 -0.23014 -7.79647 2650 
275 1 0.058058 -0.00766279 -0.0367539 0.000291 -5.25149 -0.255034 -8.28335 2650 
277 1 0.0582691 -0.0393356 -0.0364219 0.000291 -5.33394 -0.429359 -8.54437 2650 
202 1 0.0574236 -0.0303621 -0.0363216 0.001058 -5.24105 -0.104337 -8.19068 2650 
210 1 0.0585572 -0.0322562 -0.0344586 0.001058 -5.1372 0.0402545 -8.72342 2650 
177 1 0.0583717 -0.0227026 -0.0336493 0.00164 -4.90047 -0.0980371 -8.48412 2650 
207 1 0.0599544 -0.0127981 -0.0335956 0.000291 -4.43015 -0.12157 -7.89166 2650 
83 1 0.059758 -0.0502916 -0.0323807 0.001058 -5.11608 -0.0465382 -9.44234 2650 
276 1 0.0605647 -0.029732 -0.032444 0.000291 -5.07417 0.371758 -9.46962 2650 
46 1 0.0614592 -0.0136855 -0.0307724 0.000291 -3.87368 -0.188318 -7.77018 2650 
23 1 0.0623958 -0.0503015 -0.0288181 0.000291 -4.19305 -0.736033 -9.08289 2650 
287 1 0.0613411 -0.0481023 -0.0292756 0.001058 -4.63137 -0.0159027 -9.70418 2650 
251 1 0.0610698 -0.0311626 -0.0298123 0.001058 -4.3968 -0.322469 -8.96958 2650 
174 1 0.0629161 -0.0271986 -0.0275987 0.000291 -3.34771 0.642559 -7.66121 2650 
282 1 0.0629076 -0.0245956 -0.0276333 0.000291 -4.04821 0.338813 -9.21745 2650 
44 1 0.0628835 -0.018586 -0.0257896 0.001058 -3.61721 -0.133348 -8.86507 2650 
269 1 0.0638628 -0.0146261 -0.0254149 0.000291 -3.54033 0.0888565 -8.89974 2650 
215 1 0.0639085 -0.0484743 -0.0231481 0.001058 -3.63697 -0.00175529 -10.041 2650 
45 1 0.0650745 -0.0122589 -0.0221182 0.000291 -3.04818 -0.215871 -8.98429 2650 
37 1 0.00873846 -0.00447642 -0.0207108 0.000291 0.948454 -0.218986 -2.17007 2650 
264 1 0.0651014 -0.046852 -0.0195437 0.001058 -3.07271 -0.0117319 -10.2353 2650 
241 1 0.0660136 -0.0433877 -0.0191247 0.000291 -3.04325 0.0971064 -10.5042 2650 
78 1 0.00180475 -0.0070918 -0.0187923 0.000291 0.121336 -0.884358 -1.43434 2650 
84 1 0.0656332 -0.0510346 -0.0176457 0.001058 -2.77265 -0.00755208 -10.313 2650 
290 1 0.0663083 -0.0480575 -0.0180837 0.000291 -2.83546 -0.0402589 -10.3964 2650 
126 1 0.0665085 -0.0347955 -0.0172379 0.000291 -2.55836 0.270123 -9.87646 2650 
219 1 0.0666306 -0.000291151 -0.0167655 0.000291 -2.08184 0.00511486 -8.23715 2650 
109 1 0.0669004 -0.052427 -0.0157082 0.000291 -2.47325 -0.0429321 -10.5328 2650 
87 1 0.00314287 -0.00321006 -0.0150829 0.000291 -0.0161388 -0.0140939 0.00495742 2650 
181 1 0.067651 -0.0468952 -0.0120881 0.000291 -1.90502 0.162134 -10.663 2650 
79 1 0.0138093 -0.00295453 0.0057985 0.000291 -0.00529203 -0.00866348 0.00968208 2650 
271 1 0.0142407 -0.00325822 0.00439229 0.001058 -0.0068558 -0.00685944 0.00631681 2650 
222 1 0.00480625 -3.27468e-05 0.0136312 0.001058 -0.0324875 0.00467874 -0.0112895 2650 
226 1 0.067087 -0.0386649 0.014853 0.000291 2.38561 -0.639 -10.7754 2650 
30 1 0.0672007 -0.0307812 0.0143644 0.000291 2.18133 -0.0775227 -10.1427 2650 
14 1 0.0669417 -0.0294062 0.0154711 0.000291 2.17573 -0.518486 -9.39296 2650 
170 1 0.000373939 -0.00108811 0.0158798 0.001058 0.0180597 -0.0050796 -0.00136401 2650 
95 1 0.00580347 -0.000263555 0.0149596 0.000291 -0.0190214 0.000188354 -0.00919676 2650 
137 1 0.0653243 -0.0611601 0.0164883 0.00164 2.58985 -8.16429e-07 -10.2606 2650 
103 1 0.0664532 -0.0454283 0.017529 0.000291 2.6571 -0.0868006 -10.0595 2650 
88 1 0.0665574 -0.00689464 0.0177782 0.000105 2.21008 -0.621861 -8.27291 2650 
24 1 0.0646273 -0.0196454 0.0239194 0.000105 3.2532 1.51244 -8.77716 2650 
164 1 0.0624889 -0.0384462 0.0266977 0.001058 3.99589 -0.229228 -9.33651 2650 
252 1 0.0613414 -0.0147615 0.0292772 0.001058 3.53934 0.0233273 -7.41944 2650 
132 1 0.0602837 -0.0174058 0.0313931 0.001058 3.79031 0.120187 -7.27053 2650 
200 1 0.0615627 -0.00716928 0.0309378 0.000105 4.13807 -0.047114 -8.24583 2650 
64 1 0.0609334 -0.0154291 0.0322 0.000105 3.93298 -0.0888846 -7.48153 2650 
76 1 0.0542831 -0.0432074 0.0408815 0.001058 6.08148 0.184917 -8.05816 2650 
178 1 0.0523685 -0.0564511 0.0432947 0.001058 6.80068 2.11964e-06 -8.22599 2650 
25 1 0.0511575 -0.0587994 0.0438404 0.00164 6.88649 -6.72816e-05 -8.03587 2650 
206 1 0.0504367 -0.062509 0.0466601 0.000291 7.32931 1.86317e-09 -7.92255 2650 
169 1 0.0491341 -0.0611601 0.046099 0.00164 7.24116 4.57213e-07 -7.71791 2650 
246 1 0.0496503 -0.0585276 0.0463865 0.001058 7.28656 -1.66623e-05 -7.79925 2650 
102 1 0.0483436 -0.0136352 0.0488248 0.000291 6.43152 -0.185987 -6.37093 2650 
96 1 0.0470875 -0.0107798 0.0502878 0.000105 6.08422 -0.159591 -5.70539 2650 
208 1 0.0428251 -0.0309274 0.0527567 0.001058 7.45744 0.211813 -6.07407 2650 
22 1 0.0391458 -0.0211295 0.0564762 0.000291 7.352 -0.121332 -5.09651 2650 
107 1 0.0323101 -0.0454487 0.059798 0.001058 9.52866 0.0204573 -5.14773 2650 
117 1 0.0292193 -0.0108257 0.0622069 0.000291 8.24936 -0.182182 -3.87299 2650 
175 1 0.0258772 -0.00919315 0.0636629 0.000291 8.41494 -0.315257 -3.41618 2650 
186 1 0.00787419 -0.0174044 0.0674604 0.001058 7.07426 -0.434644 -0.829887 2650 
104 1 0.00898154 -0.0207708 0.0682913 0.000105 8.07267 0.809447 -1.00795 2650 
260 1 0.0079276 0.00625981 -0.0120438 0.000291 0.00264513 0.00634623 -0.0220501 2650 
33 1 0.00160402 0.0268526 -0.0124824 0.00164 0.00603998 0.0215627 0.00352792 2650 
286 1 0.0086731 0.033702 -0.0133363 0.001058 -0.02115 0.0482903 -0.0107899 2650 
301 1 0.00390464 0.039746 -0.0135394 0.001058 -0.0176549 0.0163122 0.00371725 2650 
75 1 0.00710653 0.070629 -0.0127198 0.001058 0.0240155 0.0510522 0.00788599 2650 
54 1 0.012184 0.0329093 -0.0111212 0.000291 -0.0306339 -0.00115888 -0.0366828 2650 
153 1 0.00808374 0.00469095 -0.00991226 0.00164 0.00901504 -0.00371715 -0.0192614 2650 
77 1 0.0113536 0.0117179 -0.00884407 0.000291 -0.0117356 0.000913058 0.0103562 2650 
292 1 0.00541459 0.0473033 -0.00864546 0.001058 -0.0104367 0.0376087 -0.0291473 2650 
195 1 0.0139268 0.000665273 -0.00751833 0.001058 -0.0122984 0.00202165 -0.0283738 2650 
19 1 0.0133885 0.0105494 -0.00706688 0.001058 -0.00189711 0.0050805 -0.00113271 2650 
284 1 0.0124789 0.012534 -0.00787589 0.000291 -0.00371053 0.00586111 -0.00129449 2650 
176 1 0.0136374 0.000223641 -0.00489651 0.000105 0.0200199 0.000256501 -0.0124767 2650 
199 1 0.0147246 0.00528664 -0.00419736 0.000291 -0.0066469 0.00203541 -0.00705897 2650 
161 1 0.0136798 0.00725094 -0.00440771 0.00164 -0.000454856 0.00568005 -0.00417258 2650 
123 1 0.01336 0.0335024 -0.00591532 0.001058 -0.0069266 0.0381635 -0.00768552 2650 
101 1 0.0111596 0.000510919 -0.00307669 0.000291 0.0107852 -0.0015929 -0.0095042 2650 
113 1 0.00173287 0.00588318 -0.00213972 0.00164 -0.0131936 -0.00156564 -0.00033725 2650 
203 1 0.0102332 0.0224251 -0.00299183 0.001058 0.0105265 0.0334803 0.00411967 2650 
57 1 0.00573725 0.0264002 -0.00277041 0.00164 -0.000919831 0.00616449 -0.024056 2650 
1 1 0.0144235 0.00573943 -0.0014035 0.00164 -0.00396175 0.00352346 -0.00443708 2650 
279 1 0.010611 0.00610944 -0.00117836 0.001058 0.00690887 -0.00122776 0.0071413 2650 
92 1 0.012324 0.00758362 -0.000588846 0.001058 0.00298746 0.00292354 0.00546929 2650 
194 1 0.0127213 0.0306665 -0.000429982 0.001058 -0.00717738 0.0355954 0.00284246 2650 
249 1 0.00489941 0.0332852 -0.00159384 0.000291 0.00987628 0.0185258 -0.0129358 2650 
258 1 0.0130813 0.0342847 -0.00110348 0.001058 -0.00702738 0.0458888 -0.00817646 2650 
51 1 0.00556864 0.00946113 0.000123378 0.001058 -0.0414136 0.0415048 -0.0353246 2650 
38 1 0.00898165 0.0177223 0.000841392 0.000291 0.0290333 0.00993382 0.0254358 2650 
70 1 0.00406471 0.0470628 0.000158528 0.000291 0.000986621 0.0559838 -0.0454673 2650 
263 1 0.0117663 0.0509656 0.0039185 0.000291 -0.0276857 0.0691876 -0.0511194 2650 
9 1 0.0135755 0.0323498 0.00401921 0.00164 -0.00067168 0.0470366 0.00650688 2650 
52 1 0.0129752 0.0472068 0.00427713 0.001058 0.0258261 0.0380708 0.00407144 2650 
298 1 0.0125988 0.00319182 0.00799788 0.000105 0.00377194 -0.00442838 -0.00799766 2650 
238 1 0.0120771 0.0458572 0.00776261 0.001058 0.0185997 0.0286204 -0.0105297 2650 
17 1 0.0135948 0.0489654 0.0066421 0.00164 0.0176403 0.0372415 -0.034093 2650 
156 1 0.0122557 0.00783093 0.00923989 0.001058 0.0124006 -0.0116374 0.00559452 2650 
139 1 0.0107796 0.0240267 0.00917439 0.001058 -0.0138539 0.00679752 0.0124887 2650 
66 1 0.0108058 0.0080304 0.0107953 0.001058 0.00109107 -0.000952032 -0.00287426 2650 
265 1 0.0110988 0.0117668 0.0110917 0.001058 0.011667 0.00657701 -0.00499144 2650 
105 1 0.00869543 0.0179592 0.0124263 0.00164 0.000597876 0.0137471 0.023702 2650 
41 1 0.00213564 0.0198293 0.0148626 0.00164 0.0102042 0.00860529 0.0210319 2650 
293 1 0.00397572 0.04242 0.0152671 0.001058 0.106206 0.0118059 -0.0198874 2650 
245 1 0.00809161 0.0909517 -0.0103202 0.001058 0.013355 0.0538623 -0.0223836 2650 
127 1 0.0135183 0.0809874 -0.0068446 0.000291 0.0147798 0.0618117 0.0201086 2650 
