ITEM: TIMESTEP
3210430
ITEM: NUMBER OF ATOMS
300
ITEM: BOX BOUNDS ff ff ff
-0.15 0.15
-0.15 0.15
-0.15 0.15
ITEM: ATOMS id type x y z radius vx vy vz density 
179 1 -0.0167844 -0.0464614 -0.0658602 0.001058 -4.4183 -0.0138303 1.15195 2650 
90 1 -0.023676 -0.0555644 -0.0636875 0.001058 -4.70638 0.25869 1.74144 2650 
152 1 -0.0262239 -0.0191324 -0.0637289 0.000105 -4.11718 -0.223937 1.6892 2650 
229 1 -0.0333107 -0.0494955 -0.0592399 0.001058 -4.2891 0.294272 2.43638 2650 
219 1 -0.0606914 -0.000291024 -0.0322072 0.000291 -2.49848 -0.00021229 4.74693 2650 
167 1 -0.0651715 -0.0167403 -0.0218374 0.000291 -1.31772 0.23399 4.02727 2650 
280 1 -0.000450218 -0.00432183 -0.0164572 0.001058 0.0807613 -0.346204 -0.623237 2650 
241 1 -0.008593 -0.00308026 -0.012306 0.000291 0 -0.011755 0 2650 
189 1 -0.0063099 -0.00249873 -0.0134166 0.000291 -0.00247166 -0.0256023 0.0243032 2650 
163 1 -0.005911 -0.00123226 -0.010628 0.001058 0 -0.011755 0 2650 
166 1 -0.00560527 -0.00179499 -0.00910104 0.000291 -0.00162518 -0.0142064 -0.00212472 2650 
218 1 -0.00473279 -0.000947414 -0.00845791 0.001058 0.00595352 -0.0159364 -0.00627747 2650 
200 1 -0.012172 -0.00045426 -0.006974 0.000105 0 -0.011755 0 2650 
293 1 -0.009422 -0.00116726 -0.006923 0.001058 0 -0.011755 0 2650 
137 1 -0.001323 -0.00166426 -0.006126 0.00164 0 -0.011755 0 2650 
59 1 -0.0125644 -0.00187266 -0.00578286 0.001058 0.136288 0.0217738 0.132645 2650 
214 1 -0.008446 -0.00074426 -0.004092 0.000291 0 -0.011755 0 2650 
282 1 -0.001816 -0.00278426 -0.002164 0.000291 0 -0.011755 0 2650 
107 1 -0.0678953 -0.00144341 -0.0022613 0.001058 -0.227287 -0.131252 4.0284 2650 
180 1 -0.0152508 -0.00186739 -0.00209571 0.001058 -0.00108764 -0.0151162 -0.00336541 2650 
116 1 -0.013496 -0.00064426 -0.003353 0.001058 0 -0.011755 0 2650 
140 1 -0.00752413 -0.00212087 -0.000425613 0.001058 0.00747629 -0.0272757 -0.000219899 2650 
43 1 -0.00476796 -0.00168201 -0.00133239 0.001058 0.0207832 -0.0262891 0.0149653 2650 
123 1 -0.0152205 -0.0002925 0.000151556 0.001058 0.00900522 -0.0125284 0.000847011 2650 
99 1 -0.011672 -0.00178226 9.8e-05 0.001058 0 -0.011755 0 2650 
122 1 -0.00170446 -0.000932969 0.000344718 0.001058 0.000509879 -0.0115361 4.72204e-06 2650 
131 1 -0.0131173 -0.00290211 0.00327145 0.001058 0.002014 -0.0366129 0.0174268 2650 
132 1 -0.0152019 -0.0010293 0.00398007 0.001058 0.00783583 -0.0108486 0.00265566 2650 
158 1 -0.007297 -0.00182126 0.003049 0.000291 0 -0.011755 0 2650 
149 1 -0.004792 -0.00186726 0.002724 0.000291 0 -0.011755 0 2650 
272 1 -0.001203 -0.00096026 0.002609 0.001058 0 -0.011755 0 2650 
206 1 -0.0142056 -0.000741042 0.0053575 0.000291 -0.00576341 -0.0268644 0.0246765 2650 
49 1 -0.00743057 -0.000707205 0.00491663 0.00164 0.000522443 -0.0123451 0.000707177 2650 
42 1 -0.008546 -0.00248726 0.006756 0.001058 0 -0.011755 0 2650 
97 1 -0.0131386 -0.000952402 0.00720001 0.00164 -0.012849 0.0048298 -0.0361238 2650 
235 1 -0.001066 -0.00120426 0.007831 0.000291 0 -0.011755 0 2650 
64 1 -0.001837 -0.00077926 0.007035 0.000105 0 -0.011755 0 2650 
148 1 -0.0673273 -0.0301136 0.0091467 0.001058 0.984634 -0.0247451 7.37289 2650 
111 1 -0.009474 -0.00113426 0.008964 0.000291 0 -0.011755 0 2650 
125 1 -0.0665532 -0.0330527 0.0170616 0.000291 1.44276 0.318958 5.63044 2650 
15 1 -0.0631787 -0.0272249 0.0269913 0.000291 1.55203 0.437012 3.7153 2650 
25 1 -0.0566089 -0.0532848 0.0365348 0.00164 4.64169 -0.164419 7.18842 2650 
138 1 -0.047532 -0.0184747 0.0485416 0.001058 3.33879 -0.32831 3.54527 2650 
5 1 -0.0455058 -0.0135019 0.0514254 0.000291 3.35956 0.20366 2.9129 2650 
84 1 -0.0399002 -0.0204051 0.0549543 0.001058 4.21099 0.0276906 3.01777 2650 
63 1 -0.0398686 -0.00781657 0.0559632 0.000291 2.68966 -0.256542 2.02859 2650 
69 1 -0.0371865 -0.0179912 0.057781 0.000291 4.0289 -0.1804 2.62954 2650 
236 1 -0.0198508 -0.0416063 0.0649984 0.001058 6.21697 -0.185486 1.90276 2650 
2 1 -0.0182288 -0.0142285 0.0654769 0.001058 3.49739 -0.337669 1.04964 2650 
230 1 -0.010717 -0.0275479 0.0670943 0.001058 6.7379 -0.0658128 1.08618 2650 
297 1 -0.00636382 -0.0293178 0.0684137 0.000291 4.65109 0.183756 0.416154 2650 
165 1 -0.0078167 -0.0270543 0.0682606 0.000291 5.50125 0.106509 0.601681 2650 
32 1 -0.00389867 0.00224853 -0.0158382 0.000105 0.0177891 -0.0340422 0.0104261 2650 
85 1 -0.003548 0.00379574 -0.015444 0.000291 0 -0.011755 0 2650 
70 1 -0.002345 0.00559774 -0.015511 0.000291 0 -0.011755 0 2650 
295 1 -0.006507 0.00031274 -0.01264 0.000291 0 -0.011755 0 2650 
17 1 -0.00561158 0.00302147 -0.0135395 0.00164 -0.0321814 0.00517807 0.00502007 2650 
115 1 -0.009032 0.00564474 -0.012506 0.001058 0 -0.011755 0 2650 
33 1 -0.003866 0.00866074 -0.012959 0.00164 0 -0.011755 0 2650 
292 1 -0.00189729 0.00393051 -0.010676 0.001058 -0.0111331 0.0154475 0.0498767 2650 
198 1 -0.01006 0.00494174 -0.011926 0.000291 0 -0.011755 0 2650 
234 1 -0.003052 0.00503874 -0.010232 0.000291 0 -0.011755 0 2650 
47 1 -0.011528 0.00624574 -0.010748 0.000291 0 -0.011755 0 2650 
94 1 -0.011581 0.0107227 -0.01188 0.000291 0 -0.011755 0 2650 
108 1 -0.007031 0.00100174 -0.009032 0.001058 0 -0.011755 0 2650 
273 1 -0.000991141 0.00591377 -0.00949637 0.001058 0.0109947 0.038733 0.0414521 2650 
175 1 -0.013247 0.00628574 -0.008751 0.000291 0 -0.011755 0 2650 
41 1 -0.00970109 0.0098472 -0.00953424 0.00164 0.0102024 0.0086064 0.0210327 2650 
144 1 -0.011054 0.0108437 -0.008779 0.000105 0 -0.011755 0 2650 
136 1 -0.0141822 0.0361307 -0.00855803 0.000105 0.0375902 0.10168 0.0199891 2650 
250 1 -0.013194 0.00193874 -0.006197 0.001058 0 -0.011755 0 2650 
203 1 -0.00509818 0.00083582 -0.00614505 0.001058 0.00519762 -0.0130265 -0.00216702 2650 
157 1 -0.00924031 0.00249282 -0.00673202 0.000291 0.0944744 -0.0500088 -0.124777 2650 
220 1 -0.0125058 0.0147666 -0.00761047 0.000291 -0.0258814 0.00931039 0.00803739 2650 
57 1 -0.00429673 0.0149625 -0.00616833 0.00164 0.0230994 0.0154402 0.0436737 2650 
54 1 -0.00769381 0.0192234 -0.00745245 0.000291 -0.10531 0.0409555 0.046421 2650 
76 1 -0.00306928 0.00136458 -0.00569512 0.001058 0.00563223 -0.0106236 0.000699054 2650 
276 1 -0.013674 0.00782974 -0.004231 0.000291 0 -0.011755 0 2650 
240 1 -0.010392 0.00688774 -0.005262 0.000291 0 -0.011755 0 2650 
74 1 -0.012237 0.00822774 -0.004721 0.001058 0 -0.011755 0 2650 
159 1 -0.012707 0.0108237 -0.00588 0.000291 0 -0.011755 0 2650 
256 1 -0.0123419 0.0109457 -0.0046669 0.000291 -0.0123982 -0.000129637 -0.00545733 2650 
187 1 -0.0114966 0.0119704 -0.00588523 0.001058 -0.0112156 -0.0033076 -0.00319333 2650 
270 1 -0.00376852 0.00133107 -0.00330456 0.000291 0.0186853 -0.00788795 0.00123148 2650 
211 1 -0.013621 0.00256974 -0.002856 0.001058 0 -0.011755 0 2650 
274 1 -0.016349 0.00469474 -0.002509 0.000291 0 -0.011755 0 2650 
114 1 -0.0128701 0.00531478 -0.00242948 0.001058 -8.19621e-05 -0.00937203 -0.000762299 2650 
13 1 -0.014201 0.00692974 -0.003882 0.000291 0 -0.011755 0 2650 
104 1 -0.014089 0.00761174 -0.003012 0.000105 0 -0.011755 0 2650 
65 1 -0.00937776 0.0118947 -0.00247927 0.00164 -0.00348018 0.0119066 0.00345508 2650 
7 1 -0.00795838 0.0140132 -0.00301034 0.000291 0.00378858 0.0136367 -0.000251809 2650 
91 1 -0.00592785 0.0411559 -0.00203124 0.001058 -0.0201117 0.131078 0.100392 2650 
135 1 -0.00396505 0.000142064 -0.00187479 0.000291 -0.0060505 -0.00140209 -0.0140303 2650 
127 1 -0.00915224 0.00582226 -0.00150457 0.000291 -0.00885864 0.0707893 -0.0549482 2650 
10 1 -0.0129198 0.00841656 -0.000790238 0.001058 -0.00603352 -0.00346171 -0.00631144 2650 
61 1 -0.016439 0.0105417 -0.001038 0.000291 0 -0.011755 0 2650 
14 1 -0.006378 0.00163674 0.001478 0.000291 0 -0.011755 0 2650 
191 1 -0.0108 0.00296874 0.001549 0.000291 0 -0.011755 0 2650 
296 1 -0.005879 0.00211474 0.000521 0.000291 0 -0.011755 0 2650 
168 1 -0.007536 0.00397974 0.001389 0.000105 0 -0.011755 0 2650 
120 1 -0.016055 0.00618174 0.000189 0.000105 0 -0.011755 0 2650 
209 1 -0.0118173 0.00682723 0.000160477 0.001058 -0.0064627 -0.0091641 -0.00792348 2650 
80 1 -0.014935 0.00887974 0.00039 0.000105 0 -0.011755 0 2650 
268 1 -0.011054 0.00940374 0.000789 0.000291 0 -0.011755 0 2650 
129 1 -0.008713 0.00921774 0.001908 0.00164 0 -0.011755 0 2650 
124 1 -0.0155705 0.00281156 0.00315961 0.001058 0.00128002 -0.014953 -0.00790201 2650 
18 1 -0.005138 0.00317374 0.00212 0.001058 0 -0.011755 0 2650 
52 1 -0.0137659 0.00401424 0.00294351 0.001058 -0.00571614 0.00375102 -0.00552256 2650 
75 1 -0.0103349 0.0064866 0.00298307 0.001058 -0.0378696 0.0757882 -0.0227861 2650 
176 1 -0.003983 0.00751874 0.002552 0.000105 0 -0.011755 0 2650 
106 1 -0.013885 0.00352903 0.00568531 0.001058 -0.0254812 0.0211756 0.00817307 2650 
58 1 -0.0102776 0.00340774 0.00595902 0.001058 -0.0110314 -0.00690385 0.0214168 2650 
28 1 -0.0136085 0.00566 0.00553415 0.001058 0.00069719 0.0289887 -0.00109375 2650 
170 1 -0.01149 0.00565174 0.005193 0.001058 0 -0.011755 0 2650 
53 1 -0.000389 0.00425674 0.004762 0.000291 0 -0.011755 0 2650 
238 1 -0.00900472 0.00734634 0.00540521 0.001058 0.0105136 0.0371874 0.0344704 2650 
164 1 -0.003894 0.00655474 0.005467 0.001058 0 -0.011755 0 2650 
291 1 -0.008194 0.0109287 0.004767 0.000291 0 -0.011755 0 2650 
242 1 -0.00545813 0.0101156 0.00404307 0.000291 -0.00954886 0.00781474 0.00295974 2650 
266 1 -0.0140058 0.0017342 0.00731386 0.001058 -0.000871947 0.0202016 0.000401154 2650 
302 1 -0.0102417 3.52158e-05 0.00752902 0.000291 -0.0143061 -0.0317005 0.0405115 2650 
254 1 -0.00512001 0.00144892 0.0078349 0.000291 0.0485398 -0.0270077 0.0413731 2650 
195 1 -0.00662217 0.00234673 0.00740422 0.001058 0.0313239 0.00714568 0.0424302 2650 
98 1 -0.001703 0.00411774 0.00616 0.001058 0 -0.011755 0 2650 
77 1 -0.0151376 0.00978158 0.00659348 0.000291 0.0279429 0.00178097 -0.016803 2650 
186 1 -0.006177 0.00887074 0.006545 0.001058 0 -0.011755 0 2650 
11 1 -0.00797099 0.0388353 0.00713222 0.001058 0.0558568 0.128502 0.0118077 2650 
182 1 -0.0063085 9.26174e-05 0.00802628 0.000291 0.031907 -0.048456 0.0328117 2650 
44 1 -0.00722521 0.000912638 0.00896048 0.001058 -0.00386231 -0.0241197 0.0218436 2650 
35 1 -0.00145983 0.0047893 0.00844203 0.001058 0.00566878 -0.0134862 -0.0195208 2650 
4 1 -0.013492 0.0100887 0.008313 0.001058 0 -0.011755 0 2650 
304 1 -0.012709 0.0102097 0.009818 0.000291 0 -0.011755 0 2650 
233 1 -0.001796 0.00155374 0.010436 0.000291 0 -0.011755 0 2650 
202 1 -0.00143202 0.00570578 0.0112248 0.001058 0.00953014 -0.00871599 -0.0138173 2650 
299 1 -0.010562 0.00865074 0.010709 0.001058 0 -0.011755 0 2650 
55 1 -0.01171 0.0106777 0.01034 0.000291 0 -0.011755 0 2650 
68 1 -0.00440068 0.0106716 0.010657 0.001058 0.00272783 -0.00342387 -0.00169301 2650 
245 1 -0.0062819 0.0279175 0.0118157 0.001058 -0.00877598 0.0648343 0.053396 2650 
226 1 -0.009224 0.00252574 0.012787 0.000291 0 -0.011755 0 2650 
29 1 -0.00617903 0.00329533 0.0138211 0.000291 -0.0115686 -0.040115 -0.0168616 2650 
300 1 -0.00987431 0.00554567 0.0122979 0.001058 -0.00517848 -0.00941929 -0.00460978 2650 
251 1 -0.00668187 0.00451158 0.0125186 0.001058 -0.0165425 -0.0287939 0.0166856 2650 
224 1 -0.00601346 0.00976949 0.0128003 0.001058 -0.00376938 0.00554818 0.00221201 2650 
153 1 -0.00241192 0.0089885 0.0125284 0.00164 0.00905326 -0.00368908 -0.0193072 2650 
249 1 -0.00655701 0.0117955 0.0134116 0.000291 0.00987628 0.0185258 -0.0129358 2650 
217 1 -0.00958383 0.0133493 0.0121653 0.001058 -0.0106168 0.0279099 0.00374771 2650 
285 1 -0.00713986 0.00648716 0.0142043 0.001058 -0.00854577 -0.0134594 -0.00478927 2650 
265 1 -0.000465 0.00718174 0.015551 0.001058 0 -0.011755 0 2650 
71 1 -0.00169856 0.00994725 0.0150438 0.000291 0.000589182 -0.00997669 -0.026696 2650 
73 1 0.0113089 -0.0373644 -0.066413 0.00164 -4.88155 -0.258338 -0.841172 2650 
172 1 0.0137021 -0.0343867 -0.066547 0.001058 -4.75031 -0.388001 -0.885941 2650 
239 1 0.0151783 -0.0307365 -0.0662282 0.001058 -4.51129 -0.347772 -0.982042 2650 
34 1 0.00360688 -0.0252042 -0.0678487 0.001058 -6.65319 -0.346723 -0.337909 2650 
281 1 0.0189067 -0.0213404 -0.0660681 0.000291 -5.91062 0.0209586 -1.68483 2650 
36 1 0.0209506 -0.010782 -0.0646497 0.001058 -5.3281 0.0389202 -1.74907 2650 
288 1 0.0326141 -0.0279565 -0.0604695 0.000291 -3.04894 -0.55937 -1.6655 2650 
62 1 0.040015 -0.0116898 -0.0558662 0.000291 -2.62257 -0.385472 -1.89796 2650 
89 1 0.0597231 -0.0605769 -0.0311737 0.00164 -2.46881 -0.0866312 -4.71329 2650 
39 1 0.0117426 -0.00487326 -0.0145464 0.000291 1.0907 -0.401664 -1.88954 2650 
155 1 0.005921 -0.00155126 -0.01427 0.001058 0 -0.011755 0 2650 
181 1 0.067644 -0.0142608 -0.0121187 0.000291 -0.600621 -0.411718 -3.23411 2650 
83 1 0.007342 -0.00241926 -0.011981 0.001058 0 -0.011755 0 2650 
141 1 0.004693 -0.00159626 -0.010381 0.000291 0 -0.011755 0 2650 
162 1 0.0106511 -0.00270244 -0.00986753 0.001058 0.00913126 -0.00525911 -0.00100629 2650 
213 1 0.001757 -0.00075926 -0.008127 0.000291 0 -0.011755 0 2650 
40 1 0.002884 -0.00251326 -0.006462 0.000105 0 -0.011755 0 2650 
185 1 0.00698134 -0.00299837 -0.00710248 0.00164 -0.00938434 -0.00931204 -0.0227111 2650 
30 1 0.005625 -0.00108126 -0.00604 0.000291 0 -0.011755 0 2650 
215 1 0.0677314 -0.0286003 -0.00541008 0.001058 -0.522634 0.0587485 -6.8209 2650 
16 1 0.006364 -0.00238526 -0.005251 0.000105 0 -0.011755 0 2650 
20 1 0.00848853 -0.0035393 -0.00487403 0.001058 0.577642 -0.0737047 -0.356766 2650 
197 1 0.007512 -0.00094326 -0.004043 0.000291 0 -0.011755 0 2650 
8 1 0.000989 -0.00266026 -0.00369 0.000105 0 -0.011755 0 2650 
173 1 0.002644 -0.00143626 -0.002982 0.000291 0 -0.011755 0 2650 
248 1 0.008036 -0.00279126 -0.000368 0.000291 0 -0.011755 0 2650 
6 1 0.004141 -0.00051026 -0.001643 0.000291 0 -0.011755 0 2650 
72 1 0.013289 -0.00175626 -0.000624 0.000105 0 -0.011755 0 2650 
283 1 0.0687074 -0.0160102 0.000274822 0.000291 0.0371333 0.234734 -4.86248 2650 
255 1 0.005303 -0.00248826 0.000727 0.000291 0 -0.011755 0 2650 
56 1 0.00459 -0.00173126 0.000864 0.000105 0 -0.011755 0 2650 
184 1 0.0163614 -0.00168499 0.00173543 0.000105 -0.00950116 -0.0133865 -0.110583 2650 
121 1 0.0138572 -0.00309397 0.00325484 0.00164 0.00767567 -0.00861079 0.00323778 2650 
264 1 0.003305 -0.00052626 0.003449 0.001058 0 -0.011755 0 2650 
247 1 0.001401 -0.00263926 0.005706 0.000291 0 -0.011755 0 2650 
267 1 0.007574 -0.00030526 0.005778 0.000291 0 -0.011755 0 2650 
192 1 0.0687254 -0.000391135 0.00481586 0.000105 0.322722 0.0342568 -4.19091 2650 
118 1 0.001179 -0.00014026 0.007467 0.000291 0 -0.011755 0 2650 
204 1 0.000681248 -0.00203132 0.00870729 0.001058 0.0215412 -0.00565475 -0.0189703 2650 
243 1 0.01084 -0.00207126 0.008454 0.001058 0 -0.011755 0 2650 
133 1 0.0608547 -0.0149202 0.03195 0.000291 2.27387 -0.196008 -4.29721 2650 
86 1 0.0595771 -0.00577945 0.034231 0.000291 2.16462 -0.237154 -3.8072 2650 
151 1 0.0576544 -0.0124243 0.037403 0.000291 2.50942 -0.133086 -3.89445 2650 
193 1 0.0542389 -0.0294901 0.0399631 0.00164 3.90945 -0.0359466 -5.30063 2650 
290 1 0.0548758 -0.0440975 0.0413568 0.000291 4.12133 -0.00563309 -5.49263 2650 
146 1 0.0531658 -0.0453886 0.0423172 0.001058 4.2476 -0.116077 -5.31214 2650 
21 1 0.0537609 -0.0435186 0.0427913 0.000291 4.12895 -0.381929 -5.18374 2650 
109 1 0.0398464 -0.0556661 0.0559745 0.000291 3.84124 0.506808 -2.83738 2650 
169 1 0.0371501 -0.0483334 0.0562107 0.00164 7.17626 -0.00535112 -4.76924 2650 
188 1 0.0319672 -0.0609825 0.0599531 0.001058 4.40823 -0.0310964 -2.35223 2650 
119 1 0.0305148 -0.0445219 0.0615849 0.000291 5.59573 -0.228948 -2.73314 2650 
26 1 0.0308275 -0.0344213 0.0605463 0.001058 4.47518 0.169213 -2.28859 2650 
257 1 0.0264307 -0.0238658 0.0625944 0.001058 3.42194 -0.46536 -1.47475 2650 
93 1 0.0170879 -0.0417006 0.066564 0.000291 3.43308 -0.30211 -0.926516 2650 
221 1 0.0186243 -0.0187211 0.0661546 0.000291 3.79904 -0.0369122 -1.08974 2650 
23 1 0.0144116 -0.0177365 0.0671847 0.000291 3.55157 -0.243531 -0.798478 2650 
22 1 0.00845761 -0.0230813 0.0681844 0.000291 5.00402 -0.244696 -0.523451 2650 
46 1 0.007499 0.00165274 -0.014091 0.000291 0 -0.011755 0 2650 
303 1 0.001598 0.00221574 -0.015917 0.000291 0 -0.011755 0 2650 
160 1 0.004468 0.00333874 -0.014641 0.000105 0 -0.011755 0 2650 
130 1 1.4e-05 0.00430674 -0.015674 0.001058 0 -0.011755 0 2650 
269 1 0.002277 0.00447974 -0.015181 0.000291 0 -0.011755 0 2650 
37 1 0.006156 0.0102417 -0.015157 0.000291 0 -0.011755 0 2650 
139 1 0.00397734 0.0146846 -0.0143876 0.001058 0.0127696 0.00849352 0.0230521 2650 
237 1 0.005321 0.00091574 -0.012467 0.001058 0 -0.011755 0 2650 
263 1 0.006877 0.00373574 -0.012319 0.000291 0 -0.011755 0 2650 
289 1 0.001465 0.00490274 -0.012477 0.000291 0 -0.011755 0 2650 
142 1 0.002378 0.00531774 -0.013184 0.000291 0 -0.011755 0 2650 
252 1 0.00245 0.00861274 -0.01336 0.001058 0 -0.011755 0 2650 
78 1 0.001258 0.0102277 -0.012517 0.000291 0 -0.011755 0 2650 
196 1 0.002599 0.00220874 -0.011929 0.001058 0 -0.011755 0 2650 
201 1 0.008831 0.00373174 -0.010349 0.00164 0 -0.011755 0 2650 
105 1 0.003632 0.00889574 -0.010703 0.00164 0 -0.011755 0 2650 
275 1 0.012705 0.00797474 -0.010476 0.000291 0 -0.011755 0 2650 
110 1 0.010451 0.0105187 -0.010748 0.000291 0 -0.011755 0 2650 
259 1 0.00635519 0.000172407 -0.0093929 0.001058 -0.000549325 -0.010947 -0.00390661 2650 
87 1 0.00581449 0.00015236 -0.00790336 0.000291 -0.191383 0.0538949 0.0460046 2650 
67 1 0.00887332 0.00178832 -0.00621184 0.001058 -0.0157775 0.0155441 -0.0240797 2650 
102 1 0.003423 0.00364074 -0.006065 0.000291 0 -0.011755 0 2650 
117 1 0.004754 0.00390274 -0.007063 0.000291 0 -0.011755 0 2650 
134 1 0.011983 0.00365474 -0.006239 0.000291 0 -0.011755 0 2650 
60 1 0.007579 0.00654374 -0.006312 0.001058 0 -0.011755 0 2650 
45 1 0.010575 0.00646374 -0.007722 0.000291 0 -0.011755 0 2650 
271 1 0.001328 0.00836774 -0.00636 0.001058 0 -0.011755 0 2650 
178 1 0.003641 0.00072274 -0.005569 0.001058 0 -0.011755 0 2650 
92 1 0.00961939 0.00056458 -0.00452562 0.001058 0.00799893 0.0145452 0.00258514 2650 
260 1 0.0107151 0.0012846 -0.00494144 0.000291 0.00598663 -0.00502968 -0.00187569 2650 
161 1 0.013129 0.00133374 -0.005759 0.00164 0 -0.011755 0 2650 
246 1 0.001376 0.00314174 -0.005453 0.001058 0 -0.011755 0 2650 
279 1 0.011818 0.00559774 -0.00556 0.001058 0 -0.011755 0 2650 
199 1 0.014464 0.00695474 -0.004562 0.000291 0 -0.011755 0 2650 
278 1 7.4e-05 0.00905474 -0.004448 0.001058 0 -0.011755 0 2650 
19 1 0.013799 0.00812674 -0.005439 0.001058 0 -0.011755 0 2650 
284 1 0.014191 0.00983474 -0.005949 0.000291 0 -0.011755 0 2650 
171 1 0.000459 5.77401e-05 -0.002783 0.001058 0 -0.011755 0 2650 
88 1 0.002864 0.00176774 -0.002457 0.000105 0 -0.011755 0 2650 
177 1 0.00732796 0.00163606 -0.00358127 0.00164 -0.00983886 -0.00607064 0.00422658 2650 
205 1 0.005264 0.00213674 -0.002386 0.000291 0 -0.011755 0 2650 
253 1 0.014729 0.00531274 -0.002617 0.000291 0 -0.011755 0 2650 
227 1 0.00944 0.00714174 -0.002109 0.000291 0 -0.011755 0 2650 
113 1 0.010337 0.00476774 -0.001708 0.00164 0 -0.011755 0 2650 
190 1 0.005899 0.00984374 -0.000534 0.000291 0 -0.011755 0 2650 
223 1 0.000184645 0.00168683 0.0014032 0.001058 0.0245989 -0.00855677 0.00804702 2650 
96 1 0.009869 0.00189774 0.000788 0.000105 0 -0.011755 0 2650 
183 1 0.01481 0.00013074 0.000242 0.000291 0 -0.011755 0 2650 
277 1 0.015014 0.00050874 0.001212 0.000291 0 -0.011755 0 2650 
81 1 0.007451 0.00326074 7.8e-05 0.00164 0 -0.011755 0 2650 
261 1 0.011218 0.00343674 0.000328 0.000291 0 -0.011755 0 2650 
48 1 0.009671 0.00773574 0.000233 0.000105 0 -0.011755 0 2650 
128 1 0.00361 0.00944274 0.000511 0.000105 0 -0.011755 0 2650 
9 1 0.012984 0.00948074 0.000468 0.00164 0 -0.011755 0 2650 
286 1 0.015584 0.0101487 0.000132 0.001058 0 -0.011755 0 2650 
225 1 0.00154191 0.000249845 0.00225503 0.001058 0.0169512 -0.0255186 0.0091939 2650 
143 1 0.013105 0.00059774 0.003332 0.000291 0 -0.011755 0 2650 
210 1 0.010971 0.00259074 0.002357 0.001058 0 -0.011755 0 2650 
147 1 0.0149906 0.00200206 0.00304717 0.001058 0.0509795 0.0185854 -0.09886 2650 
294 1 0.006997 0.00744974 0.003581 0.001058 0 -0.011755 0 2650 
101 1 0.004812 0.00816574 0.002517 0.000291 0 -0.011755 0 2650 
50 1 0.006699 0.00167774 0.005883 0.001058 0 -0.011755 0 2650 
305 1 0.007934 0.00043674 0.005234 0.000105 0 -0.011755 0 2650 
150 1 0.010064 0.00177874 0.004311 0.000291 0 -0.011755 0 2650 
24 1 0.005464 0.00753174 0.005551 0.000105 0 -0.011755 0 2650 
212 1 0.001087 0.00795974 0.005915 0.000291 0 -0.011755 0 2650 
51 1 0.009662 0.00860474 0.004577 0.001058 0 -0.011755 0 2650 
244 1 0.014869 0.00801774 0.00421 0.001058 0 -0.011755 0 2650 
79 1 0.014214 0.0104447 0.005058 0.000291 0 -0.011755 0 2650 
154 1 0.00131527 0.0153677 0.00512026 0.001058 0.00678339 0.101014 -0.0544466 2650 
174 1 0.002361 0.00143074 0.006466 0.000291 0 -0.011755 0 2650 
207 1 0.000324 0.00311674 0.006532 0.000291 0 -0.011755 0 2650 
232 1 0.003256 0.00242874 0.007333 0.001058 0 -0.011755 0 2650 
208 1 0.009461 0.00379274 0.007837 0.001058 0 -0.011755 0 2650 
231 1 0.006459 0.00715674 0.007445 0.001058 0 -0.011755 0 2650 
222 1 0.009219 0.00980374 0.006833 0.001058 0 -0.011755 0 2650 
112 1 0.013668 0.0107677 0.007002 0.000105 0 -0.011755 0 2650 
38 1 0.000591805 4.05519e-05 0.00968551 0.000291 0.0118017 0.00597392 -0.00431351 2650 
1 1 0.00313778 4.92809e-05 0.0089647 0.00164 0.00775899 -0.0148356 -0.00837378 2650 
145 1 0.00391279 0.00876731 0.00862256 0.00164 0.00187104 -0.0124115 -0.00192682 2650 
194 1 0.007709 0.00793574 0.009989 0.001058 0 -0.011755 0 2650 
228 1 0.010294 0.00093974 0.01009 0.000291 0 -0.011755 0 2650 
103 1 0.005979 0.00413474 0.01127 0.000291 0 -0.011755 0 2650 
258 1 0.009255 0.00522574 0.010506 0.001058 0 -0.011755 0 2650 
100 1 0.00240867 0.00613573 0.0118616 0.001058 0.019732 -0.0136041 -0.00483564 2650 
66 1 0.00292799 0.00893809 0.0111356 0.001058 0.00846641 -0.000759158 0.00162513 2650 
298 1 0.00401952 0.00910358 0.0118454 0.000105 0.012752 -0.00608362 0.00360111 2650 
287 1 0.00673791 0.00381643 0.0129761 0.001058 0.00698186 -0.000281005 -0.0099686 2650 
95 1 0.006942 0.00558174 0.013027 0.000291 0 -0.011755 0 2650 
301 1 0.00458561 0.015215 0.0139455 0.001058 0.00272587 0.0220862 -0.0290146 2650 
82 1 0.000755 0.00310374 0.014898 0.001058 0 -0.011755 0 2650 
3 1 0.00619236 0.00208217 0.0142925 0.001058 0.0142352 -0.00932944 -0.0092621 2650 
126 1 0.00123191 0.00912653 0.015118 0.000291 -0.00909177 -0.0182309 -0.0255133 2650 
156 1 0.000740622 0.0119958 0.0148222 0.001058 0.00957299 -0.000303602 -0.00985815 2650 
