ITEM: TIMESTEP
2839996
ITEM: NUMBER OF ATOMS
301
ITEM: BOX BOUNDS ff ff ff
-0.15 0.15
-0.15 0.15
-0.15 0.15
ITEM: ATOMS id type x y z radius vx vy vz density 
236 1 -0.00638235 -0.0382122 -0.0676458 0.001058 -5.95512 0.00314019 0.52728 2650 
15 1 -0.0190453 -0.0341885 -0.066012 0.000291 -3.58106 -0.0533874 1.08382 2650 
230 1 -0.00508795 -0.0263717 -0.0677542 0.001058 -6.32347 0.0045796 0.468653 2650 
84 1 -0.0230095 -0.0195213 -0.0639513 0.001058 -4.34557 -0.132015 1.55862 2650 
138 1 -0.0225053 -0.0104685 -0.0641277 0.001058 -4.04192 -0.0591343 1.41515 2650 
5 1 -0.0349901 -0.0209208 -0.0591451 0.000291 -3.56953 0.196426 2.19285 2650 
69 1 -0.0341244 -0.0125125 -0.0596562 0.000291 -3.96586 -0.120933 2.27864 2650 
165 1 -0.041718 -0.0300839 -0.0545926 0.000291 -4.25473 0.0842471 3.23814 2650 
119 1 -0.0544884 -0.0349938 -0.041848 0.000291 -3.67242 -0.307587 4.82816 2650 
297 1 -0.0606629 -0.035871 -0.0322594 0.000291 -2.01563 0.160496 3.88789 2650 
22 1 -0.0616306 -0.0173442 -0.0304243 0.000291 -2.15565 -0.0853956 4.30715 2650 
146 1 -0.0614464 -0.0402676 -0.0290292 0.001058 -2.77351 -0.18029 5.74286 2650 
21 1 -0.0635686 -0.0320747 -0.0260707 0.000291 -2.4747 -0.262306 5.97903 2650 
193 1 -0.065545 -0.0297018 -0.0155733 0.00164 -1.34401 -0.0786774 5.53974 2650 
280 1 -0.00105944 -0.00270268 -0.0148646 0.001058 0.0125551 -0.0257611 0.00982222 2650 
189 1 -0.00623575 -0.00173067 -0.0141457 0.000291 -0.00247166 -0.0256023 0.0243032 2650 
241 1 -0.008593 -0.00272761 -0.012306 0.000291 0 -0.011755 0 2650 
163 1 -0.005911 -0.000879615 -0.010628 0.001058 0 -0.011755 0 2650 
166 1 -0.005567 -0.00138461 -0.009051 0.000291 0 -0.011755 0 2650 
218 1 -0.00491118 -0.000468998 -0.00826931 0.001058 0.00591971 -0.0159874 -0.00632168 2650 
200 1 -0.012172 -0.000101615 -0.006974 0.000105 0 -0.011755 0 2650 
293 1 -0.009422 -0.000814615 -0.006923 0.001058 0 -0.011755 0 2650 
137 1 -0.001323 -0.00131161 -0.006126 0.00164 0 -0.011755 0 2650 
59 1 -0.00717743 -0.00304145 -0.00472066 0.001058 -0.340167 0.0404295 -0.134701 2650 
107 1 -0.00515081 -0.00354715 -0.00438967 0.001058 -0.313387 -0.0978953 -0.406125 2650 
214 1 -0.008446 -0.000391615 -0.004092 0.000291 0 -0.011755 0 2650 
26 1 -0.0678664 -0.02958 -0.00332233 0.001058 -0.198986 -0.551623 4.31804 2650 
282 1 -0.001816 -0.00243161 -0.002164 0.000291 0 -0.011755 0 2650 
116 1 -0.013496 -0.000291615 -0.003353 0.001058 0 -0.011755 0 2650 
188 1 -0.0679381 -0.0503453 -0.000956915 0.001058 -0.015041 -0.698777 4.41427 2650 
290 1 -0.068709 -0.0387081 9.0255e-05 0.000291 -0.00658177 -0.272308 4.90868 2650 
180 1 -0.0152181 -0.00141391 -0.00199475 0.001058 -0.00108764 -0.0151162 -0.00336541 2650 
140 1 -0.00774841 -0.00130261 -0.000419016 0.001058 0.00747629 -0.0272757 -0.000219899 2650 
43 1 -0.00539145 -0.000893346 -0.00178134 0.001058 0.0207832 -0.0262891 0.0149653 2650 
99 1 -0.011672 -0.00142961 9.8e-05 0.001058 0 -0.011755 0 2650 
122 1 -0.00171975 -0.00058689 0.000344577 0.001058 0.000509879 -0.0115361 4.72204e-06 2650 
132 1 -0.015359 -0.000693322 0.00386692 0.001058 -0.0108628 -0.013372 0.0106837 2650 
131 1 -0.0131777 -0.00180374 0.00274866 0.001058 0.002014 -0.0366129 0.0174268 2650 
158 1 -0.007297 -0.00146861 0.003049 0.000291 0 -0.011755 0 2650 
149 1 -0.004792 -0.00151461 0.002724 0.000291 0 -0.011755 0 2650 
272 1 -0.001203 -0.000607615 0.002609 0.001058 0 -0.011755 0 2650 
49 1 -0.00744624 -0.000336858 0.00489542 0.00164 0.000522443 -0.0123451 0.000707177 2650 
2 1 -0.0152491 -0.00424399 0.00602069 0.001058 -0.487889 -0.366402 0.24035 2650 
63 1 -0.0139199 -0.00316627 0.00663651 0.000291 -0.324455 0.152238 0.575841 2650 
42 1 -0.008546 -0.00213461 0.006756 0.001058 0 -0.011755 0 2650 
235 1 -0.001066 -0.000851615 0.007831 0.000291 0 -0.011755 0 2650 
64 1 -0.001837 -0.000426615 0.007035 0.000105 0 -0.011755 0 2650 
97 1 -0.0127309 -0.00112051 0.00829288 0.00164 -0.0157358 0.00547727 -0.0371017 2650 
111 1 -0.009474 -0.000781615 0.008964 0.000291 0 -0.011755 0 2650 
221 1 -0.0676764 -0.0145013 0.0119389 0.000291 0.668653 -0.215638 3.63591 2650 
109 1 -0.0667407 -0.0603468 0.0163087 0.000291 0.921384 -0.370147 3.78933 2650 
23 1 -0.0665579 -0.0101937 0.0171109 0.000291 0.904214 -0.208833 3.24325 2650 
257 1 -0.0249222 -0.00875973 0.0212977 0.001058 -3.45695 -0.544966 2.9334 2650 
215 1 -0.0637668 -0.0326178 0.0234498 0.001058 2.11746 0.0895835 5.74491 2650 
93 1 -0.0649999 -0.0283128 0.0222531 0.000291 1.03153 -0.578852 3.07304 2650 
133 1 -0.057398 -0.0101839 0.0377749 0.000291 2.50783 -0.0732761 3.90903 2650 
151 1 -0.0569913 -0.0129243 0.0384008 0.000291 2.3396 0.157238 3.73197 2650 
86 1 -0.0498874 -0.00339378 0.0472224 0.000291 2.86282 0.0915943 3.00341 2650 
283 1 -0.0333777 -0.0237398 0.0600612 0.000291 4.03965 0.218967 2.27737 2650 
192 1 -0.0199168 -0.00618338 0.0659548 0.000105 3.80798 0.673406 1.20209 2650 
89 1 -0.00739198 -0.0455095 0.066966 0.00164 4.3421 -0.91159 0.449137 2650 
32 1 -0.00443234 0.00326979 -0.016151 0.000105 0.0177891 -0.0340422 0.0104261 2650 
85 1 -0.003548 0.00414839 -0.015444 0.000291 0 -0.011755 0 2650 
70 1 -0.002345 0.00595039 -0.015511 0.000291 0 -0.011755 0 2650 
295 1 -0.006507 0.000665385 -0.01264 0.000291 0 -0.011755 0 2650 
17 1 -0.00464615 0.00286613 -0.0136901 0.00164 -0.0321814 0.00517807 0.00502007 2650 
292 1 -0.00169428 0.0028655 -0.0126662 0.001058 -0.000138427 0.0659355 0.0913289 2650 
115 1 -0.009032 0.00599739 -0.012506 0.001058 0 -0.011755 0 2650 
33 1 -0.003866 0.00901339 -0.012959 0.00164 0 -0.011755 0 2650 
198 1 -0.01006 0.00529439 -0.011926 0.000291 0 -0.011755 0 2650 
234 1 -0.003052 0.00539139 -0.010232 0.000291 0 -0.011755 0 2650 
273 1 -0.00119 0.00535339 -0.010246 0.001058 0 -0.011755 0 2650 
47 1 -0.011528 0.00659839 -0.010748 0.000291 0 -0.011755 0 2650 
41 1 -0.0100072 0.00958901 -0.0101652 0.00164 0.0102024 0.0086064 0.0210327 2650 
94 1 -0.011581 0.0110754 -0.01188 0.000291 0 -0.011755 0 2650 
108 1 -0.007031 0.00135439 -0.009032 0.001058 0 -0.011755 0 2650 
175 1 -0.013247 0.00663839 -0.008751 0.000291 0 -0.011755 0 2650 
144 1 -0.011054 0.0111964 -0.008779 0.000105 0 -0.011755 0 2650 
54 1 -0.00453456 0.0179947 -0.00884506 0.000291 -0.10531 0.0409555 0.046421 2650 
203 1 -0.00531935 0.0012135 -0.00608814 0.001058 0.0108298 -0.0118951 -0.00146797 2650 
250 1 -0.013194 0.00229139 -0.006197 0.001058 0 -0.011755 0 2650 
220 1 -0.0117293 0.0144873 -0.00785159 0.000291 -0.0258814 0.00931039 0.00803739 2650 
57 1 -0.00498971 0.0144993 -0.00747853 0.00164 0.0230994 0.0154402 0.0436737 2650 
136 1 -0.0127905 0.0326442 -0.00759648 0.000105 -0.0729053 0.12081 -0.0484832 2650 
76 1 -0.003173 0.00169639 -0.005708 0.001058 0 -0.011755 0 2650 
240 1 -0.010392 0.00724039 -0.005262 0.000291 0 -0.011755 0 2650 
276 1 -0.013674 0.00818239 -0.004231 0.000291 0 -0.011755 0 2650 
74 1 -0.012237 0.00858039 -0.004721 0.001058 0 -0.011755 0 2650 
159 1 -0.012707 0.0111764 -0.00588 0.000291 0 -0.011755 0 2650 
256 1 -0.01197 0.0109496 -0.00450318 0.000291 -0.0123982 -0.000129637 -0.00545733 2650 
187 1 -0.0111601 0.0120697 -0.00578943 0.001058 -0.0112156 -0.0033076 -0.00319333 2650 
91 1 -0.00532451 0.0372236 -0.00504294 0.001058 -0.0201117 0.131078 0.100392 2650 
270 1 -0.00432908 0.00156771 -0.00334151 0.000291 0.0186853 -0.00788795 0.00123148 2650 
211 1 -0.013621 0.00292239 -0.002856 0.001058 0 -0.011755 0 2650 
274 1 -0.016349 0.00504739 -0.002509 0.000291 0 -0.011755 0 2650 
114 1 -0.0128676 0.00559593 -0.00240661 0.001058 -8.19621e-05 -0.00937203 -0.000762299 2650 
157 1 -0.0120745 0.00399306 -0.00298876 0.000291 0.0944744 -0.0500088 -0.124777 2650 
13 1 -0.014201 0.00728239 -0.003882 0.000291 0 -0.011755 0 2650 
104 1 -0.014089 0.00796439 -0.003012 0.000105 0 -0.011755 0 2650 
65 1 -0.00927335 0.0115375 -0.00258292 0.00164 -0.00348018 0.0119066 0.00345508 2650 
7 1 -0.00807203 0.0136041 -0.00300278 0.000291 0.00378858 0.0136367 -0.000251809 2650 
135 1 -0.00378354 0.000184127 -0.00145389 0.000291 -0.0060505 -0.00140209 -0.0140303 2650 
10 1 -0.012845 0.00866639 -0.000712 0.001058 0 -0.011755 0 2650 
61 1 -0.016439 0.0108944 -0.001038 0.000291 0 -0.011755 0 2650 
123 1 -0.0154907 8.33462e-05 0.000126146 0.001058 0.00900522 -0.0125284 0.000847011 2650 
191 1 -0.0108 0.00332139 0.001549 0.000291 0 -0.011755 0 2650 
127 1 -0.00888648 0.00369861 0.000143857 0.000291 -0.00885864 0.0707893 -0.0549482 2650 
14 1 -0.006378 0.00198939 0.001478 0.000291 0 -0.011755 0 2650 
296 1 -0.005879 0.00246739 0.000521 0.000291 0 -0.011755 0 2650 
223 1 -0.000965928 0.00227854 0.000938013 0.001058 0.0415501 -0.0223204 0.0172409 2650 
168 1 -0.007536 0.00433239 0.001389 0.000105 0 -0.011755 0 2650 
120 1 -0.016055 0.00653439 0.000189 0.000105 0 -0.011755 0 2650 
209 1 -0.0115173 0.00695617 0.000509281 0.001058 -0.0124962 -0.000870814 -0.0142349 2650 
80 1 -0.014935 0.00923239 0.00039 0.000105 0 -0.011755 0 2650 
268 1 -0.011054 0.00975639 0.000789 0.000291 0 -0.011755 0 2650 
129 1 -0.008713 0.00957039 0.001908 0.00164 0 -0.011755 0 2650 
124 1 -0.0145856 0.00262643 0.00357518 0.001058 -0.0387363 0.0201021 -0.0181637 2650 
75 1 -0.00931191 0.00368634 0.00329576 0.001058 -0.027356 0.124731 0.0116843 2650 
18 1 -0.005138 0.00352639 0.00212 0.001058 0 -0.011755 0 2650 
52 1 -0.0125945 0.00449904 0.00289591 0.001058 -0.0584356 -0.02929 0.00613551 2650 
176 1 -0.003983 0.00787139 0.002552 0.000105 0 -0.011755 0 2650 
242 1 -0.00517167 0.00988116 0.00395428 0.000291 -0.00954886 0.00781474 0.00295974 2650 
206 1 -0.0140327 6.48803e-05 0.00461721 0.000291 -0.00576341 -0.0268644 0.0246765 2650 
106 1 -0.0130579 0.00189869 0.00530871 0.001058 -0.0376741 0.0485728 0.0325757 2650 
58 1 -0.00994669 0.00361485 0.00531652 0.001058 -0.0110314 -0.00690385 0.0214168 2650 
195 1 -0.00748811 0.00241472 0.00564838 0.001058 0.0286819 -0.00573875 0.0646776 2650 
28 1 -0.013611 0.00586939 0.005538 0.001058 0 -0.011755 0 2650 
53 1 -0.000389 0.00460939 0.004762 0.000291 0 -0.011755 0 2650 
170 1 -0.01149 0.00600439 0.005193 0.001058 0 -0.011755 0 2650 
238 1 -0.009207 0.00675739 0.004742 0.001058 0 -0.011755 0 2650 
164 1 -0.003894 0.00690739 0.005467 0.001058 0 -0.011755 0 2650 
291 1 -0.008194 0.0112814 0.004767 0.000291 0 -0.011755 0 2650 
266 1 -0.0138792 0.00114218 0.00728187 0.001058 -0.052818 0.028541 0.0207807 2650 
302 1 -0.00981251 0.000986218 0.0063137 0.000291 -0.0143061 -0.0317005 0.0405115 2650 
182 1 -0.00705914 0.00134753 0.00659307 0.000291 0.0217981 -0.0387291 0.0547789 2650 
254 1 -0.006211 0.00214439 0.006905 0.000291 0 -0.011755 0 2650 
98 1 -0.001703 0.00447039 0.00616 0.001058 0 -0.011755 0 2650 
77 1 -0.0135996 0.00959166 0.00629191 0.000291 -0.0659618 0.0071766 0.0150346 2650 
186 1 -0.006177 0.00922339 0.006545 0.001058 0 -0.011755 0 2650 
11 1 -0.00964667 0.0349803 0.00677799 0.001058 0.0558568 0.128502 0.0118077 2650 
44 1 -0.007195 0.00136039 0.008791 0.001058 0 -0.011755 0 2650 
35 1 -0.00162989 0.00519388 0.00902764 0.001058 0.00566878 -0.0134862 -0.0195208 2650 
4 1 -0.013492 0.0104414 0.008313 0.001058 0 -0.011755 0 2650 
304 1 -0.012709 0.0105624 0.009818 0.000291 0 -0.011755 0 2650 
233 1 -0.001796 0.00190639 0.010436 0.000291 0 -0.011755 0 2650 
202 1 -0.00171792 0.00596725 0.0116393 0.001058 0.00953014 -0.00871599 -0.0138173 2650 
299 1 -0.010562 0.00900339 0.010709 0.001058 0 -0.011755 0 2650 
55 1 -0.01171 0.0110304 0.01034 0.000291 0 -0.011755 0 2650 
68 1 -0.00448251 0.0107743 0.0107077 0.001058 0.00272783 -0.00342387 -0.00169301 2650 
245 1 -0.00601862 0.0259725 0.0102138 0.001058 -0.00877598 0.0648343 0.053396 2650 
226 1 -0.009224 0.00287839 0.012787 0.000291 0 -0.011755 0 2650 
300 1 -0.00971896 0.00582825 0.0124361 0.001058 -0.00517848 -0.00941929 -0.00460978 2650 
251 1 -0.0061856 0.00537538 0.012018 0.001058 -0.0165425 -0.0287939 0.0166856 2650 
224 1 -0.00590038 0.00960304 0.012734 0.001058 -0.00376938 0.00554818 0.00221201 2650 
153 1 -0.00268351 0.00909917 0.0131076 0.00164 0.00905326 -0.00368908 -0.0193072 2650 
249 1 -0.00685329 0.0112397 0.0137997 0.000291 0.00987628 0.0185258 -0.0129358 2650 
217 1 -0.00926533 0.012512 0.0120528 0.001058 -0.0106168 0.0279099 0.00374771 2650 
29 1 -0.00583198 0.00449876 0.0143269 0.000291 -0.0115686 -0.040115 -0.0168616 2650 
285 1 -0.00688349 0.00689094 0.0143479 0.001058 -0.00854577 -0.0134594 -0.00478927 2650 
265 1 -0.000465 0.00753439 0.015551 0.001058 0 -0.011755 0 2650 
71 1 -0.00171623 0.0102466 0.0158447 0.000291 0.000589182 -0.00997669 -0.026696 2650 
169 1 0.00329454 -0.0490679 -0.0672459 0.00164 -8.36985 0.0304868 -0.363505 2650 
167 1 0.0358073 -0.0223489 -0.0586487 0.000291 -3.3955 0.11581 -2.08617 2650 
125 1 0.0430875 -0.0314945 -0.0535197 0.000291 -4.36408 -0.436547 -3.55654 2650 
219 1 0.0645661 -0.000291641 -0.0234951 0.000291 -1.78627 0.00165374 -4.87391 2650 
155 1 0.005921 -0.00119861 -0.01427 0.001058 0 -0.011755 0 2650 
83 1 0.007342 -0.00206661 -0.011981 0.001058 0 -0.011755 0 2650 
141 1 0.004693 -0.00124361 -0.010381 0.000291 0 -0.011755 0 2650 
162 1 0.010619 -0.00237261 -0.009864 0.001058 0 -0.011755 0 2650 
213 1 0.001757 -0.000406615 -0.008127 0.000291 0 -0.011755 0 2650 
40 1 0.002884 -0.00216061 -0.006462 0.000105 0 -0.011755 0 2650 
185 1 0.007006 -0.00268561 -0.006884 0.00164 0 -0.011755 0 2650 
30 1 0.005625 -0.000728615 -0.00604 0.000291 0 -0.011755 0 2650 
148 1 0.0676578 -0.0302199 -0.006251 0.001058 -0.622892 -0.01586 -6.9618 2650 
62 1 0.00500316 -0.00330167 -0.004313 0.000291 0.016958 -0.0125942 -0.0146188 2650 
16 1 0.006364 -0.00203261 -0.005251 0.000105 0 -0.011755 0 2650 
39 1 0.011011 -0.00234561 -0.005294 0.000291 0 -0.011755 0 2650 
20 1 0.0136389 -0.00271341 -0.00441837 0.001058 -0.265533 0.0276873 -0.0108248 2650 
197 1 0.007512 -0.000590615 -0.004043 0.000291 0 -0.011755 0 2650 
92 1 0.0104669 -0.000531707 -0.00454488 0.001058 -0.00215362 -0.00755127 -0.00153199 2650 
87 1 0.0111146 -0.00179834 -0.00444129 0.000291 0.0214873 -0.0624669 -0.114768 2650 
152 1 0.0687211 -0.0114072 -0.00397756 0.000105 -0.283382 -0.218471 -4.29707 2650 
8 1 0.000989 -0.00230761 -0.00369 0.000105 0 -0.011755 0 2650 
173 1 0.002644 -0.00108361 -0.002982 0.000291 0 -0.011755 0 2650 
229 1 0.0679304 -0.0583155 -0.00147478 0.001058 -0.160336 0.253273 -4.38052 2650 
248 1 0.008036 -0.00243861 -0.000368 0.000291 0 -0.011755 0 2650 
6 1 0.004141 -0.000157615 -0.001643 0.000291 0 -0.011755 0 2650 
72 1 0.013289 -0.00140361 -0.000624 0.000105 0 -0.011755 0 2650 
25 1 0.0673649 -0.046907 -0.000417495 0.00164 -0.0371988 -0.288582 -8.03104 2650 
239 1 0.0278044 -0.0122236 0.0015659 0.001058 3.56957 -1.11529 0.36514 2650 
288 1 0.0245009 -0.00868805 0.00177604 0.000291 3.36273 -0.669457 0.0942986 2650 
255 1 0.005303 -0.00213561 0.000727 0.000291 0 -0.011755 0 2650 
56 1 0.00459 -0.00137861 0.000864 0.000105 0 -0.011755 0 2650 
121 1 0.0136269 -0.00283565 0.00315771 0.00164 0.00767567 -0.00861079 0.00323778 2650 
264 1 0.003305 -0.000173615 0.003449 0.001058 0 -0.011755 0 2650 
179 1 0.0678072 -0.0440659 0.00432521 0.001058 0.308818 -0.158786 -3.95585 2650 
247 1 0.001401 -0.00228661 0.005706 0.000291 0 -0.011755 0 2650 
184 1 0.0156331 -0.00124778 0.00507293 0.000105 0.0593466 -0.0158064 -0.111946 2650 
38 1 0.000237758 -0.000138663 0.00981491 0.000291 0.0118017 0.00597392 -0.00431351 2650 
204 1 3.50198e-05 -0.00186168 0.00927639 0.001058 0.0215412 -0.00565475 -0.0189703 2650 
243 1 0.01084 -0.00171861 0.008454 0.001058 0 -0.011755 0 2650 
90 1 0.0669801 -0.0567554 0.0114132 0.001058 0.761299 -0.247217 -4.39567 2650 
181 1 0.0132472 -0.0036828 0.0105963 0.000291 0.386621 -0.301497 0.191589 2650 
73 1 0.0570816 -0.0252398 0.035768 0.00164 2.04579 -0.523621 -3.27004 2650 
172 1 0.0495793 -0.0221149 0.0464032 0.001058 3.47578 -0.328807 -3.56447 2650 
36 1 0.0427011 -0.0105315 0.0528538 0.001058 2.96493 -0.266866 -2.33913 2650 
281 1 0.015091 -0.0375909 0.0670333 0.000291 5.77241 0.917144 -1.33425 2650 
34 1 0.0059582 -0.0143673 0.0676862 0.001058 7.25921 -0.0584763 -0.641155 2650 
303 1 0.001598 0.00256839 -0.015917 0.000291 0 -0.011755 0 2650 
160 1 0.004468 0.00369139 -0.014641 0.000105 0 -0.011755 0 2650 
46 1 0.007499 0.00200539 -0.014091 0.000291 0 -0.011755 0 2650 
130 1 1.4e-05 0.00465939 -0.015674 0.001058 0 -0.011755 0 2650 
269 1 0.002277 0.00483239 -0.015181 0.000291 0 -0.011755 0 2650 
37 1 0.006156 0.0105944 -0.015157 0.000291 0 -0.011755 0 2650 
139 1 0.00359426 0.0144298 -0.0150792 0.001058 0.0127696 0.00849352 0.0230521 2650 
237 1 0.005321 0.00126839 -0.012467 0.001058 0 -0.011755 0 2650 
289 1 0.001465 0.00525539 -0.012477 0.000291 0 -0.011755 0 2650 
142 1 0.002378 0.00567039 -0.013184 0.000291 0 -0.011755 0 2650 
263 1 0.006877 0.00408839 -0.012319 0.000291 0 -0.011755 0 2650 
252 1 0.00245 0.00896539 -0.01336 0.001058 0 -0.011755 0 2650 
78 1 0.001258 0.0105804 -0.012517 0.000291 0 -0.011755 0 2650 
196 1 0.002599 0.00256139 -0.011929 0.001058 0 -0.011755 0 2650 
201 1 0.008831 0.00408439 -0.010349 0.00164 0 -0.011755 0 2650 
105 1 0.003632 0.00924839 -0.010703 0.00164 0 -0.011755 0 2650 
275 1 0.012705 0.00832739 -0.010476 0.000291 0 -0.011755 0 2650 
110 1 0.010451 0.0108714 -0.010748 0.000291 0 -0.011755 0 2650 
259 1 0.006357 0.000522385 -0.00938 0.001058 0 -0.011755 0 2650 
67 1 0.00898 0.00195639 -0.006049 0.001058 0 -0.011755 0 2650 
102 1 0.003423 0.00399339 -0.006065 0.000291 0 -0.011755 0 2650 
117 1 0.004754 0.00425539 -0.007063 0.000291 0 -0.011755 0 2650 
134 1 0.011983 0.00400739 -0.006239 0.000291 0 -0.011755 0 2650 
60 1 0.007579 0.00689639 -0.006312 0.001058 0 -0.011755 0 2650 
45 1 0.010575 0.00681639 -0.007722 0.000291 0 -0.011755 0 2650 
271 1 0.001328 0.00872039 -0.00636 0.001058 0 -0.011755 0 2650 
178 1 0.003641 0.00107539 -0.005569 0.001058 0 -0.011755 0 2650 
260 1 0.010685 0.00160339 -0.004932 0.000291 0 -0.011755 0 2650 
161 1 0.013129 0.00168639 -0.005759 0.00164 0 -0.011755 0 2650 
246 1 0.001376 0.00349439 -0.005453 0.001058 0 -0.011755 0 2650 
279 1 0.011818 0.00595039 -0.00556 0.001058 0 -0.011755 0 2650 
199 1 0.014464 0.00730739 -0.004562 0.000291 0 -0.011755 0 2650 
278 1 7.4e-05 0.00940739 -0.004448 0.001058 0 -0.011755 0 2650 
19 1 0.013799 0.00847939 -0.005439 0.001058 0 -0.011755 0 2650 
284 1 0.014191 0.0101874 -0.005949 0.000291 0 -0.011755 0 2650 
171 1 0.000459 0.000410385 -0.002783 0.001058 0 -0.011755 0 2650 
88 1 0.002864 0.00212039 -0.002457 0.000105 0 -0.011755 0 2650 
205 1 0.005264 0.00248939 -0.002386 0.000291 0 -0.011755 0 2650 
177 1 0.007332 0.00198639 -0.003583 0.00164 0 -0.011755 0 2650 
253 1 0.014729 0.00566539 -0.002617 0.000291 0 -0.011755 0 2650 
227 1 0.00944 0.00749439 -0.002109 0.000291 0 -0.011755 0 2650 
113 1 0.010337 0.00512039 -0.001708 0.00164 0 -0.011755 0 2650 
190 1 0.005899 0.0101964 -0.000534 0.000291 0 -0.011755 0 2650 
183 1 0.01481 0.000483385 0.000242 0.000291 0 -0.011755 0 2650 
277 1 0.015014 0.000861385 0.001212 0.000291 0 -0.011755 0 2650 
81 1 0.007451 0.00361339 7.8e-05 0.00164 0 -0.011755 0 2650 
96 1 0.009869 0.00225039 0.000788 0.000105 0 -0.011755 0 2650 
261 1 0.011218 0.00378939 0.000328 0.000291 0 -0.011755 0 2650 
128 1 0.00361 0.00979539 0.000511 0.000105 0 -0.011755 0 2650 
48 1 0.009671 0.00808839 0.000233 0.000105 0 -0.011755 0 2650 
9 1 0.012984 0.00983339 0.000468 0.00164 0 -0.011755 0 2650 
286 1 0.015584 0.0105014 0.000132 0.001058 0 -0.011755 0 2650 
225 1 0.001446 0.000680385 0.002203 0.001058 0 -0.011755 0 2650 
143 1 0.013105 0.000950385 0.003332 0.000291 0 -0.011755 0 2650 
210 1 0.010971 0.00294339 0.002357 0.001058 0 -0.011755 0 2650 
294 1 0.006997 0.00780239 0.003581 0.001058 0 -0.011755 0 2650 
101 1 0.004812 0.00851839 0.002517 0.000291 0 -0.011755 0 2650 
267 1 0.007574 4.73853e-05 0.005778 0.000291 0 -0.011755 0 2650 
305 1 0.007934 0.000789385 0.005234 0.000105 0 -0.011755 0 2650 
50 1 0.006699 0.00203039 0.005883 0.001058 0 -0.011755 0 2650 
150 1 0.010064 0.00213139 0.004311 0.000291 0 -0.011755 0 2650 
24 1 0.005464 0.00788439 0.005551 0.000105 0 -0.011755 0 2650 
212 1 0.001087 0.00831239 0.005915 0.000291 0 -0.011755 0 2650 
51 1 0.009662 0.00895739 0.004577 0.001058 0 -0.011755 0 2650 
244 1 0.014869 0.00837039 0.00421 0.001058 0 -0.011755 0 2650 
79 1 0.014214 0.0107974 0.005058 0.000291 0 -0.011755 0 2650 
118 1 0.001179 0.000212385 0.007467 0.000291 0 -0.011755 0 2650 
174 1 0.002361 0.00178339 0.006466 0.000291 0 -0.011755 0 2650 
147 1 0.0134613 0.0014445 0.00601293 0.001058 0.0509795 0.0185854 -0.09886 2650 
207 1 0.000324 0.00346939 0.006532 0.000291 0 -0.011755 0 2650 
232 1 0.003256 0.00278139 0.007333 0.001058 0 -0.011755 0 2650 
208 1 0.009461 0.00414539 0.007837 0.001058 0 -0.011755 0 2650 
231 1 0.006459 0.00750939 0.007445 0.001058 0 -0.011755 0 2650 
222 1 0.009219 0.0101564 0.006833 0.001058 0 -0.011755 0 2650 
112 1 0.013668 0.0111204 0.007002 0.000105 0 -0.011755 0 2650 
154 1 0.00111177 0.0123373 0.00675364 0.001058 0.00678339 0.101014 -0.0544466 2650 
1 1 0.00290501 0.000494343 0.00921591 0.00164 0.00775899 -0.0148356 -0.00837378 2650 
145 1 0.00387896 0.00914107 0.00863057 0.00164 0.000993456 -0.0124671 3.24591e-05 2650 
194 1 0.007709 0.00828839 0.009989 0.001058 0 -0.011755 0 2650 
228 1 0.010294 0.00129239 0.01009 0.000291 0 -0.011755 0 2650 
103 1 0.005979 0.00448739 0.01127 0.000291 0 -0.011755 0 2650 
258 1 0.009255 0.00557839 0.010506 0.001058 0 -0.011755 0 2650 
66 1 0.00259093 0.0089556 0.0112723 0.001058 0.011735 -0.000552111 -0.00567232 2650 
298 1 0.00363697 0.00928608 0.0117374 0.000105 0.012752 -0.00608362 0.00360111 2650 
287 1 0.006558 0.00387339 0.013233 0.001058 0 -0.011755 0 2650 
100 1 0.00181672 0.00654385 0.0120066 0.001058 0.019732 -0.0136041 -0.00483564 2650 
95 1 0.006942 0.00593439 0.013027 0.000291 0 -0.011755 0 2650 
82 1 0.000755 0.00345639 0.014898 0.001058 0 -0.011755 0 2650 
3 1 0.00573577 0.00231353 0.0146126 0.001058 0.0212171 0.00214455 -0.0192307 2650 
126 1 0.00150466 0.00967345 0.0158833 0.000291 -0.00909177 -0.0182309 -0.0255133 2650 
156 1 0.000453436 0.0120049 0.0151179 0.001058 0.00957299 -0.000303602 -0.00985815 2650 
301 1 0.00450383 0.0145524 0.0148159 0.001058 0.00272587 0.0220862 -0.0290146 2650 
12 1 0.00866283 0.137306 -0.0172405 0.001058 0.633853 0.532259 -1.29846 2650 
