ITEM: TIMESTEP
15681807
ITEM: NUMBER OF ATOMS
271
ITEM: BOX BOUNDS ff ff ff
-0.15 0.15
-0.15 0.15
-0.15 0.15
ITEM: ATOMS id type x y z radius vx vy vz density 
290 1 -0.00931297 -0.0470164 -0.0680815 0.000291 -10.9792 -0.124786 1.50231 2650 
109 1 -0.01418 -0.0544999 -0.0672355 0.000291 -10.6623 -0.0376417 2.24795 2650 
241 1 -0.0172553 -0.0445263 -0.0665271 0.000291 -10.4556 0.322953 2.71277 2650 
235 1 -0.0117419 -0.0166683 -0.0677094 0.000291 -7.95885 -0.0965906 1.38031 2650 
296 1 -0.0194359 -0.0103276 -0.0659175 0.000291 -7.51357 -0.0388344 2.23525 2650 
197 1 -0.0156947 -0.00603848 -0.0668948 0.000291 -8.44822 0.0386871 1.99476 2650 
287 1 -0.0228948 -0.051485 -0.0639908 0.001058 -9.87414 0.0418493 3.53237 2650 
215 1 -0.0213539 -0.0501373 -0.064526 0.001058 -10.0147 0.116414 3.31409 2650 
84 1 -0.0176994 -0.05122 -0.0656184 0.001058 -10.2954 0.00879038 2.77723 2650 
264 1 -0.0196695 -0.0481933 -0.0650624 0.001058 -10.1821 -0.0040334 3.0783 2650 
104 1 -0.0209211 -0.021246 -0.0656523 0.000105 -5.65504 0.0640091 1.79911 2650 
89 1 -0.0295443 -0.0611478 -0.0605428 0.00164 -9.71863 -0.0244503 4.72217 2650 
83 1 -0.0298693 -0.0528374 -0.0610422 0.001058 -9.65006 -0.0392214 4.72197 2650 
6 1 -0.0389737 -0.0146211 -0.0565913 0.000291 -6.89951 -0.145989 4.71643 2650 
192 1 -0.0400794 -0.000104996 -0.0560346 0.000105 -7.21411 3.87877e-05 5.16054 2650 
8 1 -0.0444699 -0.0620547 -0.0526202 0.000105 -7.39371 -0.216558 6.24549 2650 
168 1 -0.0456845 -0.00557952 -0.0515342 0.000105 -6.51009 -0.478833 5.75946 2650 
85 1 -0.0479488 -0.0140901 -0.0492005 0.000291 -5.87489 0.10929 5.83695 2650 
30 1 -0.0496865 -0.0295416 -0.0474551 0.000291 -7.07976 -0.0950385 7.41127 2650 
118 1 -0.0519437 -0.0225041 -0.0449731 0.000291 -5.66676 -0.226326 6.54358 2650 
302 1 -0.0525824 -0.0211054 -0.0442274 0.000291 -5.72772 -0.0745928 6.79777 2650 
73 1 -0.05458 -0.0578629 -0.0394936 0.00164 -6.20117 -0.00989417 8.56983 2650 
251 1 -0.0548687 -0.0306231 -0.0400829 0.001058 -6.08844 0.0124499 8.34312 2650 
227 1 -0.0552239 -0.0186293 -0.0408937 0.000291 -3.97746 -0.0891744 5.37855 2650 
40 1 -0.0555245 -0.000867022 -0.0407836 0.000105 -3.28585 -0.0361165 4.43141 2650 
152 1 -0.0570852 -0.0196448 -0.0385886 0.000105 -4.67973 0.321119 6.92206 2650 
277 1 -0.0584675 -0.0238936 -0.0360967 0.000291 -4.80559 0.0684069 7.76383 2650 
281 1 -0.0594096 -0.0624449 -0.0345462 0.000291 -5.38823 -0.00779238 9.26671 2650 
280 1 -0.0586741 -0.030619 -0.0342846 0.001058 -4.86969 -0.0815257 8.37302 2650 
164 1 -0.0598545 -0.0305514 -0.0321774 0.001058 -4.68895 -0.377249 8.68101 2650 
191 1 -0.0616343 -0.0483643 -0.0304192 0.000291 -4.76835 0.0512282 9.66156 2650 
121 1 -0.0603517 -0.0465648 -0.0300017 0.00164 -4.71354 0.0010041 9.48169 2650 
196 1 -0.0605325 -0.0427452 -0.0309059 0.001058 -4.84707 -0.00987405 9.49411 2650 
255 1 -0.0611082 -0.0160119 -0.0314643 0.000291 -4.14771 -0.118759 8.06134 2650 
243 1 -0.0620784 -0.0478617 -0.0276877 0.001058 -4.35931 0.00169288 9.77414 2650 
288 1 -0.0630183 -0.0466401 -0.027443 0.000291 -4.3198 0.0957435 9.92021 2650 
36 1 -0.0618648 -0.0453019 -0.0281593 0.001058 -4.42541 -0.00500261 9.72245 2650 
2 1 -0.0615517 -0.0433129 -0.0288298 0.001058 -4.53308 0.0113507 9.67825 2650 
100 1 -0.0619178 -0.0136722 -0.0280428 0.001058 -3.69254 0.123382 8.116 2650 
48 1 -0.0623731 -0.0111491 -0.0291629 0.000105 -3.51064 3.43182 6.08285 2650 
181 1 -0.0638412 -0.0349733 -0.0253863 0.000291 -3.54444 -0.204917 8.90538 2650 
230 1 -0.0640718 -0.0490228 -0.0226873 0.001058 -3.55243 0.024798 10.0322 2650 
239 1 -0.0654598 -0.0496131 -0.0182915 0.001058 -2.85494 0.0281695 10.2176 2650 
108 1 -0.0656692 -0.0378753 -0.017453 0.001058 -2.68966 0.0509305 10.1249 2650 
76 1 -0.0656815 -0.0313473 -0.0174031 0.001058 -2.39479 0.494214 9.12468 2650 
221 1 -0.0669044 -0.0229175 -0.0156695 0.000291 -2.13329 0.248038 9.13721 2650 
275 1 -0.0670637 -0.0229756 -0.0149651 0.000291 -1.03601 -0.736553 4.6248 2650 
135 1 -0.00861398 -0.00146871 -0.0128557 0.000291 0.00330025 -0.00264717 0.00636962 2650 
94 1 -0.0115201 -0.00113802 -0.0118191 0.000291 8.5498e-05 -0.0117385 8.5498e-05 2650 
131 1 -0.0673823 -0.0485068 -0.00880559 0.001058 -1.3944 -0.0114496 10.6678 2650 
159 1 -0.012707 -0.00104874 -0.00588 0.000291 0 -0.011755 0 2650 
119 1 -0.0687093 -0.0534131 7.84907e-05 0.000291 0.0100722 0.132646 9.84165 2650 
61 1 -0.016439 -0.00133074 -0.001038 0.000291 0 -0.011755 0 2650 
268 1 -0.011054 -0.00246874 0.000789 0.000291 0 -0.011755 0 2650 
58 1 -0.0138237 -0.00254609 0.00273349 0.001058 0.0256091 0.000874311 -0.0301938 2650 
291 1 -0.008194 -0.000943745 0.004767 0.000291 0 -0.011755 0 2650 
186 1 -0.00620968 -0.00284323 0.00659306 0.001058 -4.15282e-05 -0.0115536 6.1062e-05 2650 
300 1 -0.0134132 -0.00237354 0.0080923 0.001058 -0.00246489 -0.00748443 -0.0047401 2650 
304 1 -0.012709 -0.00166274 0.009818 0.000291 0 -0.011755 0 2650 
55 1 -0.01171 -0.00119474 0.01034 0.000291 0 -0.011755 0 2650 
110 1 -0.00219018 -0.00179537 0.011412 0.000291 -0.00381615 -0.00836552 -0.0245093 2650 
23 1 -0.0668554 -0.0382894 0.0158717 0.000291 2.40652 -0.00941151 10.1344 2650 
170 1 -0.00235554 -0.0002496 0.0147949 0.001058 0.0182293 -0.00571122 0.00927168 2650 
158 1 -0.0663967 -0.00500809 0.017668 0.000291 1.97893 0.283701 7.46381 2650 
26 1 -0.0650917 -0.0470097 0.019572 0.001058 3.08107 -0.0812791 10.254 2650 
259 1 -0.0648493 -0.0313837 0.0202865 0.001058 2.98584 0.0958932 9.56084 2650 
29 1 -0.0651773 -0.017209 0.0218167 0.000291 2.93725 0.0562774 8.77197 2650 
208 1 -0.0619246 -0.019714 0.028012 0.001058 3.86077 -0.0876492 8.5082 2650 
14 1 -0.0572036 -0.0416926 0.0380682 0.000291 5.94093 0.286762 8.93146 2650 
231 1 -0.0544741 -0.0275643 0.0406093 0.001058 5.51538 -0.233967 7.40998 2650 
282 1 -0.0513996 -0.0185454 0.0455137 0.000291 6.63222 0.141663 7.49918 2650 
99 1 -0.0488975 -0.0334348 0.0471679 0.001058 6.59889 0.0807153 6.82221 2650 
289 1 -0.0488163 -0.0248941 0.0483506 0.000291 6.60339 -0.883497 6.67369 2650 
229 1 -0.0460689 -0.0600454 0.0499441 0.001058 6.89731 0.207809 6.39763 2650 
34 1 -0.0468415 -0.0310209 0.0492206 0.001058 7.40511 0.00948812 7.04747 2650 
210 1 -0.0443666 -0.0288174 0.0514636 0.001058 7.61552 0.418901 6.56786 2650 
42 1 -0.0407317 -0.0519051 0.0543937 0.001058 8.43002 -0.0339929 6.31214 2650 
185 1 -0.0412649 -0.0437051 0.0532653 0.00164 8.12798 0.01275 6.29639 2650 
172 1 -0.0381106 -0.0531586 0.0562593 0.001058 8.82717 -0.0573392 5.97848 2650 
193 1 -0.0375133 -0.0505349 0.0559753 0.00164 8.73546 -0.0621392 5.85483 2650 
60 1 -0.0389205 -0.0355794 0.055696 0.001058 7.87966 0.152323 5.54074 2650 
150 1 -0.0400704 -0.0347937 0.055813 0.000291 7.8655 0.136242 5.64862 2650 
20 1 -0.0362793 -0.0534572 0.0574603 0.001058 9.05096 0.0350642 5.71355 2650 
43 1 -0.0353482 -0.0506997 0.0580478 0.001058 9.19224 -0.0248829 5.5978 2650 
148 1 -0.0358573 -0.0486205 0.0577355 0.001058 9.09361 -0.0194131 5.6473 2650 
175 1 -0.0367841 -0.00636948 0.0580361 0.000291 7.72658 -0.0979587 4.89566 2650 
247 1 -0.0344531 -0.0501479 0.0594672 0.000291 9.49956 0.203052 5.5051 2650 
35 1 -0.0328657 -0.0504199 0.0594914 0.001058 9.31476 0.0427095 5.14595 2650 
81 1 -0.0334812 -0.0457882 0.0584889 0.00164 9.24243 0.133961 5.28447 2650 
188 1 -0.0297364 -0.0616275 0.0610961 0.001058 9.39584 0.0327754 4.56569 2650 
214 1 -0.0292349 -0.0503181 0.0622009 0.000291 8.78689 -0.868309 4.12573 2650 
218 1 -0.0283094 -0.0478597 0.0617969 0.001058 9.78772 0.02663 4.48128 2650 
272 1 -0.0313374 -0.0304023 0.0602903 0.001058 8.29554 0.219009 4.3029 2650 
3 1 -0.028871 -0.0302461 0.061508 0.001058 8.53661 0.506976 4.01853 2650 
236 1 -0.0269388 -0.0599965 0.0623754 0.001058 9.76877 0.110613 4.21859 2650 
213 1 -0.0276242 -0.0461293 0.0629383 0.000291 9.958 0.774785 4.37116 2650 
140 1 -0.0271015 -0.0416511 0.0623257 0.001058 8.91138 -0.431335 3.84938 2650 
184 1 -0.0268159 -0.0166467 0.0634871 0.000105 7.22745 0.424363 3.04598 2650 
162 1 -0.0162788 -0.0402424 0.0659775 0.001058 10.1133 -0.055377 2.49575 2650 
126 1 -0.0219402 -0.0357794 0.0651089 0.000291 8.23996 -0.408561 2.78612 2650 
204 1 -0.0177309 -0.0285972 0.0655886 0.001058 9.11544 -0.250685 2.43281 2650 
122 1 -0.00480036 -0.0245352 0.067758 0.001058 8.64102 -0.116664 0.646986 2650 
24 1 -0.00549748 -0.0597033 0.068673 0.000105 9.76955 0.123374 0.777915 2650 
270 1 -0.00506438 -0.0151281 0.0685051 0.000291 7.09782 -0.359687 0.596893 2650 
200 1 -0.000641913 -0.0102221 0.0688915 0.000105 9.10725 0.0239738 -0.00128721 2650 
130 1 -0.00449143 0.00183633 -0.012391 0.001058 -0.00692202 0.00347734 0.00595777 2650 
157 1 -0.00267266 0.0619266 -0.0138896 0.000291 0.0079085 0.0606548 0.000918149 2650 
74 1 -0.0109526 0.00133563 -0.010884 0.001058 0.00156258 -0.00569596 -0.00749774 2650 
67 1 -0.00923593 0.0159576 -0.0116108 0.001058 -0.0104976 0.0129104 0.0114407 2650 
205 1 -0.00625165 0.00187911 -0.00851341 0.000291 -0.00881861 0.00364628 0.0236275 2650 
97 1 -0.0104273 0.00612708 -0.00811023 0.00164 0.0106628 0.00973926 -0.0203866 2650 
80 1 -0.0127436 0.0126129 -0.0099845 0.000105 0.0137546 0.0232676 -0.0199154 2650 
10 1 -0.014078 0.00742353 -0.00692366 0.001058 0.0053433 0.0061558 -0.0070677 2650 
234 1 -0.0128276 0.00980223 -0.00406726 0.000291 -0.00131366 0.00431637 0.0126772 2650 
114 1 -0.00598475 0.00798803 -0.00521968 0.001058 0.0187062 0.0117361 -0.00752779 2650 
71 1 -0.000851421 0.0024514 -0.00324474 0.000291 0.000861808 -0.00718564 -0.0173142 2650 
244 1 -0.0155557 0.0102081 -0.00275832 0.001058 -0.0246373 0.014769 0.0935434 2650 
7 1 -0.00413193 0.0277862 -0.00326466 0.000291 0.00378858 0.0136367 -0.000251809 2650 
129 1 -0.00116214 0.0081638 -0.00177738 0.00164 0.00825627 0.00147102 -0.0030875 2650 
65 1 -0.0136206 0.0253016 -0.00122899 0.00164 -0.00447342 0.0138222 0.00034274 2650 
209 1 -0.0155095 0.00888706 0.00222554 0.001058 0.00176304 0.00205682 0.00141262 2650 
266 1 -0.0150294 0.0109757 0.00315758 0.001058 0.00237332 0.00196815 0.00196827 2650 
115 1 -0.015349 0.0146579 0.0032308 0.001058 0.00236141 0.0122312 0.0092361 2650 
256 1 -0.0160131 0.016759 0.0036361 0.000291 0.000881351 0.0216623 0.00465977 2650 
187 1 -0.0154811 0.0231785 0.00338434 0.001058 0.002188 0.0158981 0.0132693 2650 
106 1 -0.00282191 0.0262436 0.00327615 0.001058 0.0119634 0.0223893 -0.0027555 2650 
211 1 -0.0125399 0.00599953 0.00412677 0.001058 0.000982608 0.00314487 0.00709992 2650 
220 1 -0.0152852 0.0241521 0.00485011 0.000291 0.00769082 0.00953698 0.0062614 2650 
217 1 -0.00939797 0.0402442 0.00704038 0.001058 0.000747792 0.0265619 -0.00553463 2650 
68 1 -0.00164559 0.00721349 0.00894703 0.001058 0.00272783 -0.00342387 -0.00169301 2650 
242 1 -0.0019281 0.0296196 0.00952276 0.000291 0.0116924 0.0265357 0.00697501 2650 
147 1 -0.012444 0.0362423 0.00896881 0.001058 0.0275772 0.016189 0.0275411 2650 
124 1 -0.010746 0.0383118 0.00892012 0.001058 0.0225448 0.0380641 0.0162983 2650 
28 1 -0.0113026 0.04899 0.00833399 0.001058 0.00734507 0.0503926 0.00344867 2650 
198 1 -0.0121441 0.0112479 0.0112626 0.000291 -0.0533412 -0.0130111 -0.0613761 2650 
293 1 -0.01117 0.0400587 0.0112365 0.001058 0.0837334 0.0194722 0.0726724 2650 
299 1 -0.00740493 0.00238587 0.0124347 0.001058 0.00581403 -0.00322581 0.00124072 2650 
4 1 -0.00928114 0.0084745 0.0128108 0.001058 0.00569435 0.00097307 0.00498712 2650 
224 1 -0.00839671 0.015033 0.0123288 0.001058 -0.00111942 0.00491513 -0.00282362 2650 
144 1 -0.00621781 0.0197614 0.0138687 0.000105 0.00807853 0.0136784 0.0281765 2650 
273 1 -0.00267647 0.0449601 0.0137354 0.001058 0.00511 0.0387776 -0.00978519 2650 
250 1 -0.00510025 7.14213e-05 0.0145273 0.001058 0.0155527 -0.0042124 0.00795816 2650 
154 1 -0.0120842 0.111351 -0.00395752 0.001058 -0.025218 0.0914679 0.0181079 2650 
103 1 0.0142547 -0.0508927 -0.0672107 0.000291 -10.7943 0.422633 -2.28935 2650 
267 1 0.011221 -0.0272737 -0.0677839 0.000291 -7.00647 -0.571102 -1.12034 2650 
16 1 0.0133351 -0.00709363 -0.0675902 0.000105 -8.42386 0.267926 -1.68532 2650 
137 1 0.0164673 -0.0611601 -0.0653296 0.00164 -10.2615 -8.15656e-07 -2.58655 2650 
219 1 0.0228589 -0.000291184 -0.0647942 0.000291 -7.22968 0.00273028 -2.55311 2650 
167 1 0.0283057 -0.0110973 -0.0626274 0.000291 -7.94024 -0.099971 -3.59317 2650 
261 1 0.0246453 -0.00712323 -0.0641414 0.000291 -7.73151 -0.896972 -2.96309 2650 
248 1 0.0314145 -0.020686 -0.0611216 0.000291 -7.03569 0.31637 -3.61505 2650 
88 1 0.0332284 -0.0193759 -0.0603704 0.000105 -7.18785 -0.26931 -3.96063 2650 
207 1 0.0314681 -0.0146116 -0.0611046 0.000291 -7.01825 -0.0309319 -3.61422 2650 
226 1 0.0346194 -0.0316699 -0.059349 0.000291 -9.60065 0.00914971 -5.59918 2650 
182 1 0.0330466 -0.0189792 -0.0602601 0.000291 -7.45222 -0.227358 -4.08609 2650 
212 1 0.0355814 -0.00976645 -0.0587929 0.000291 -5.63749 -0.55441 -3.38475 2650 
206 1 0.0465885 -0.0624414 -0.0505023 0.000291 -7.91577 -0.00963208 -7.30249 2650 
25 1 0.0438243 -0.0587981 -0.0511714 0.00164 -8.03772 0.0015157 -6.88371 2650 
178 1 0.0432785 -0.0564495 -0.0523818 0.001058 -8.22888 0.000845673 -6.79883 2650 
253 1 0.0445723 -0.0177496 -0.0522909 0.000291 -7.41501 0.273829 -6.31019 2650 
169 1 0.0460831 -0.0611601 -0.049149 0.00164 -7.72011 1.27149e-06 -7.23855 2650 
246 1 0.0463707 -0.0585276 -0.0496651 0.001058 -7.80154 -2.14619e-05 -7.28403 2650 
294 1 0.0464591 -0.0230011 -0.0495795 0.001058 -5.33037 -0.266552 -5.00612 2650 
173 1 0.0544348 -0.00772667 -0.0419291 0.000291 -5.0911 -0.234178 -6.6021 2650 
46 1 0.0560236 -0.0159921 -0.0397966 0.000291 -4.82592 -0.34269 -6.81294 2650 
15 1 0.060994 -0.0169324 -0.0316815 0.000291 -4.02368 -0.130442 -7.71544 2650 
125 1 0.062335 -0.0137171 -0.0289561 0.000291 -4.1648 -0.352882 -8.96362 2650 
39 1 0.066492 -0.0441127 -0.0173919 0.000291 -2.60893 0.364174 -9.95025 2650 
87 1 0.00533426 -0.00103483 -0.0153171 0.000291 -0.00318762 -0.017547 -0.0237996 2650 
37 1 0.006156 -0.00163074 -0.015157 0.000291 0 -0.011755 0 2650 
252 1 0.00245 -0.00325974 -0.01336 0.001058 0 -0.011755 0 2650 
78 1 0.001258 -0.00164474 -0.012517 0.000291 0 -0.011755 0 2650 
64 1 0.0683931 -0.00802422 -0.00824116 0.000105 -0.974748 0.244921 -8.22872 2650 
96 1 0.0685362 -0.00216296 -0.00694346 0.000105 -0.829687 0.0559327 -8.09328 2650 
278 1 7.4e-05 -0.00281774 -0.004448 0.001058 0 -0.011755 0 2650 
202 1 0.00809639 -0.00319243 -0.00264205 0.001058 0.0093109 -0.00893593 -0.0136131 2650 
190 1 0.005899 -0.00202874 -0.000534 0.000291 0 -0.011755 0 2650 
128 1 0.00361 -0.00242974 0.000511 0.000105 0 -0.011755 0 2650 
271 1 0.0154312 -0.00216516 0.00348049 0.001058 -0.00836175 -0.00741924 0.00606058 2650 
112 1 0.0130066 -0.00161759 0.00593688 0.000105 -0.0366004 -0.016139 -0.0311832 2650 
79 1 0.014214 -0.00142774 0.005058 0.000291 0 -0.011755 0 2650 
107 1 0.0677004 -0.0418263 0.005803 0.001058 0.928951 0.00745553 -10.8453 2650 
240 1 0.068341 -0.0305585 0.00711105 0.000291 0.908689 1.1515 -8.7456 2650 
222 1 0.00775405 -0.000612232 0.0101282 0.001058 -0.0154393 0.00359566 0.0347287 2650 
120 1 0.0676546 -0.00684078 0.013029 0.000105 2.14318 1.14996 -11.1664 2650 
225 1 0.0653831 -0.0449094 0.0185745 0.001058 2.92616 0.025203 -10.3004 2650 
141 1 0.0660031 -0.0365744 0.0190868 0.000291 2.79194 -0.0309106 -9.64784 2650 
86 1 0.0649506 -0.0514829 0.0224617 0.000291 3.21988 -0.774563 -9.3122 2650 
145 1 0.0229622 -0.00827054 0.0254856 0.00164 3.29634 -0.452221 3.57727 2650 
90 1 0.0623563 -0.0530108 0.0270164 0.001058 4.26332 0.0335292 -9.83917 2650 
21 1 0.0616213 -0.0456195 0.0304461 0.000291 4.77629 -0.019146 -9.66697 2650 
269 1 0.0606009 -0.017586 0.0324197 0.000291 3.87109 0.258917 -7.21099 2650 
171 1 0.0591612 -0.0482579 0.0334587 0.001058 5.29209 0.120442 -9.35718 2650 
44 1 0.048728 -0.0190138 0.0473291 0.001058 6.24389 0.496976 -6.35488 2650 
47 1 0.046968 -0.0179601 0.0501467 0.000291 4.60433 0.0462286 -4.30751 2650 
257 1 0.0343409 -0.0495424 0.0586534 0.001058 9.31097 0.0734478 -5.44692 2650 
49 1 0.0305496 -0.0493517 0.0600665 0.00164 9.43815 -0.193807 -4.80358 2650 
59 1 0.0289175 -0.0466155 0.061515 0.001058 9.66798 0.0376924 -4.54474 2650 
174 1 0.0338375 -0.0345054 0.0597958 0.000291 8.47916 0.00464626 -4.79997 2650 
201 1 0.0284064 -0.0304265 0.0610923 0.00164 9.71949 0.17224 -4.5176 2650 
179 1 0.0252999 -0.0512843 0.0630812 0.001058 9.77364 -0.00952631 -3.92036 2650 
165 1 0.026176 -0.050073 0.0635505 0.000291 9.86296 -0.032847 -4.06255 2650 
276 1 0.0270816 -0.0290789 0.0631432 0.000291 3.37154 -0.288546 -1.42196 2650 
82 1 0.0194879 -0.0367636 0.0650923 0.001058 9.40323 -0.212367 -2.81229 2650 
50 1 0.0189457 -0.0320442 0.0652507 0.001058 9.10488 0.212222 -2.67408 2650 
13 1 0.0206924 -0.0287051 0.0655152 0.000291 9.44113 0.561157 -2.98224 2650 
22 1 0.0244204 -0.0276395 0.0642167 0.000291 7.83797 0.370793 -2.98775 2650 
18 1 0.0203794 -0.022618 0.0648288 0.001058 8.88853 0.068834 -2.77643 2650 
223 1 0.0231801 -0.0236876 0.0638751 0.001058 8.82256 -0.0588527 -3.19676 2650 
132 1 0.0168557 -0.0109766 0.0658403 0.001058 8.60889 -0.00113611 -2.19449 2650 
138 1 0.00905559 -0.0510154 0.0673332 0.001058 10.4856 0.141379 -1.40551 2650 
146 1 0.0101202 -0.0488732 0.0671942 0.001058 10.5112 0.142004 -1.58228 2650 
303 1 0.0141013 -0.0268038 0.0672437 0.000291 9.29827 0.577862 -1.94218 2650 
285 1 0.00114589 -0.0208732 0.0679363 0.001058 9.40519 -0.0970652 -0.154287 2650 
177 1 0.00958255 -0.0196896 0.0666949 0.00164 8.46614 -0.248558 -1.17607 2650 
98 1 0.00904048 -0.0159964 0.0673501 0.001058 8.9168 0.257931 -1.17686 2650 
295 1 0.0126209 -0.0158757 0.0675546 0.000291 9.49795 -0.143672 -1.77253 2650 
45 1 0.0125426 -0.0166987 0.0675679 0.000291 9.07073 -0.468119 -1.68812 2650 
102 1 0.0133889 -0.0143612 0.0674067 0.000291 8.71987 -0.267194 -1.74422 2650 
93 1 0.00909693 -0.0498874 0.0680978 0.000291 11.0084 -0.155662 -1.46312 2650 
254 1 0.00543853 -0.0481876 0.0684758 0.000291 10.4956 -0.420119 -0.847681 2650 
117 1 0.00925464 -0.0172213 0.06809 0.000291 8.20769 0.118115 -1.11691 2650 
133 1 0.00637742 -0.0151772 0.0684137 0.000291 9.60923 0.185096 -0.899317 2650 
228 1 0.00415751 -0.0137431 0.0685823 0.000291 9.75742 0.697071 -0.601711 2650 
232 1 0.00433104 0.0265683 -0.0142014 0.001058 -0.0291023 0.0299794 -0.00774462 2650 
301 1 0.00655283 0.0372992 -0.014097 0.001058 -0.0176549 0.0163122 0.00371725 2650 
134 1 3.33284e-05 0.00605949 -0.0127013 0.000291 -0.0128132 0.00355392 -0.00692922 2650 
33 1 0.000698039 0.0236182 -0.0130115 0.00164 0.00603998 0.0215627 0.00352792 2650 
75 1 0.00350425 0.0629712 -0.0139027 0.001058 0.0240155 0.0510522 0.00788599 2650 
77 1 0.0130846 0.0115804 -0.0103775 0.000291 0.0279429 0.00178097 -0.016803 2650 
286 1 0.0114645 0.0263492 -0.0110369 0.001058 -0.0184193 0.0490737 -0.0156693 2650 
260 1 0.00772711 0.00537462 -0.00926157 0.000291 -0.00392275 0.00411325 -0.00447499 2650 
127 1 0.0113013 0.0717158 -0.00986085 0.000291 0.0147798 0.0618117 0.0201086 2650 
153 1 0.00673041 0.00524814 -0.00702016 0.00164 0.00905173 -0.00370467 -0.0193596 2650 
19 1 0.0136731 0.00978729 -0.00689697 0.001058 -0.00189711 0.0050805 -0.00113271 2650 
284 1 0.0130355 0.0116548 -0.00768172 0.000291 -0.00371053 0.00586111 -0.00129449 2650 
123 1 0.014399 0.0277779 -0.00476251 0.001058 -0.0069266 0.0381635 -0.00768552 2650 
54 1 0.0154368 0.0330518 -0.00480631 0.000291 -0.0134846 -0.000758408 -0.0470633 2650 
292 1 0.00698007 0.0416621 -0.00427342 0.001058 -0.0104367 0.0376087 -0.0291473 2650 
176 1 0.0106344 0.000185166 -0.00302502 0.000105 0.0200199 0.000256501 -0.0124767 2650 
195 1 0.0153798 0.000417803 -0.00313223 0.001058 -0.00594761 0.00111743 -0.0304826 2650 
113 1 0.00520293 0.00470849 -0.00211438 0.00164 -0.0251958 0.00978061 -0.000134024 2650 
199 1 0.0157217 0.00498133 -0.00313853 0.000291 -0.0066469 0.00203541 -0.00705897 2650 
279 1 0.00957468 0.0062936 -0.00224954 0.001058 0.00690887 -0.00122776 0.0071413 2650 
161 1 0.0137481 0.00639895 -0.00378183 0.00164 -0.000454856 0.00568005 -0.00417258 2650 
38 1 0.00462672 0.0162323 -0.00297392 0.000291 0.0290333 0.00993382 0.0254358 2650 
203 1 0.00865429 0.0174031 -0.00360977 0.001058 0.0105265 0.0334803 0.00411967 2650 
101 1 0.00954184 0.000749851 -0.00165108 0.000291 0.0107852 -0.0015929 -0.0095042 2650 
1 1 0.0150177 0.00521092 -0.000737951 0.00164 -0.00396175 0.00352346 -0.00443708 2650 
92 1 0.0118759 0.00714509 -0.00140923 0.001058 0.00298746 0.00292354 0.00546929 2650 
194 1 0.0137979 0.0253273 -0.000856346 0.001058 -0.00717738 0.0355954 0.00284246 2650 
57 1 0.00587522 0.0254755 0.000837938 0.00164 -0.000919831 0.00616449 -0.024056 2650 
258 1 0.0141354 0.0274014 0.000122973 0.001058 -0.00702738 0.0458888 -0.00817646 2650 
249 1 0.00341798 0.0305064 0.000346501 0.000291 0.00987628 0.0185258 -0.0129358 2650 
9 1 0.0136762 0.0252944 0.00304319 0.00164 -0.00067168 0.0470366 0.00650688 2650 
52 1 0.00910138 0.0414963 0.00366642 0.001058 0.0258261 0.0380708 0.00407144 2650 
51 1 0.0117806 0.00323549 0.005422 0.001058 -0.0414136 0.0415048 -0.0353246 2650 
263 1 0.0110047 0.0400517 0.00428415 0.000291 0.0807781 0.0834583 0.0461979 2650 
139 1 0.0128577 0.0230071 0.0073011 0.001058 -0.0138539 0.00679752 0.0124887 2650 
70 1 0.00391671 0.0386654 0.00697853 0.000291 0.000986621 0.0559838 -0.0454673 2650 
298 1 0.012033 0.00385607 0.00919752 0.000105 0.00377194 -0.00442838 -0.00799766 2650 
156 1 0.0106237 0.00959258 0.00809776 0.001058 0.0107441 -0.0117541 0.0077951 2650 
105 1 0.00860575 0.0158971 0.00887102 0.00164 0.000597876 0.0137471 0.023702 2650 
238 1 0.0092194 0.041443 0.00924253 0.001058 0.0207771 0.0325148 -0.00733364 2650 
66 1 0.0104141 0.00815715 0.0115294 0.001058 0.00274751 -0.000835425 -0.00507484 2650 
265 1 0.0093488 0.0107802 0.0118404 0.001058 0.011667 0.00657701 -0.00499144 2650 
41 1 0.000605034 0.0185385 0.0117079 0.00164 0.0102042 0.00860529 0.0210319 2650 
17 1 0.0102089 0.0432807 0.0113623 0.00164 0.025619 0.0376757 -0.0301716 2650 
116 1 0.00124929 0.047039 0.0101081 0.001058 -0.0278213 0.0454338 0.0115295 2650 
95 1 0.00658793 0.000266248 0.015156 0.000291 -0.000366951 -0.00495937 0.00220646 2650 
245 1 0.00608838 0.0828725 -0.00696267 0.001058 0.013355 0.0538623 -0.0223836 2650 
