ITEM: TIMESTEP
14940939
ITEM: NUMBER OF ATOMS
272
ITEM: BOX BOUNDS ff ff ff
-0.15 0.15
-0.15 0.15
-0.15 0.15
ITEM: ATOMS id type x y z radius vx vy vz density 
254 1 -0.00822892 -0.0533684 -0.068217 0.000291 -10.6414 -0.0947578 1.2844 2650 
93 1 -0.00898961 -0.0507714 -0.0681181 0.000291 -10.7104 -0.0734281 1.41382 2650 
282 1 -0.0029408 -0.0222454 -0.0686427 0.000291 -9.59206 -0.0433856 0.396193 2650 
29 1 -0.00105362 -0.0149849 -0.0687003 0.000291 -9.5413 0.0560954 0.149342 2650 
214 1 -0.0128285 -0.051764 -0.0675064 0.000291 -10.8242 -0.00343018 2.04913 2650 
138 1 -0.0074363 -0.0510489 -0.0675249 0.001058 -10.6226 0.188914 1.16474 2650 
59 1 -0.0168355 -0.0478672 -0.0658432 0.001058 -10.6671 -0.14615 2.72592 2650 
146 1 -0.0104674 -0.0491111 -0.067135 0.001058 -10.5644 0.11266 1.64846 2650 
162 1 -0.00313103 -0.0382795 -0.0678433 0.001058 -10.4211 0.249926 0.478591 2650 
140 1 -0.00713225 -0.0357943 -0.0675676 0.001058 -10.4815 -0.110011 1.10814 2650 
208 1 -0.00873199 -0.020938 -0.067388 0.001058 -8.96008 0.119135 1.14048 2650 
165 1 -0.0219223 -0.0499196 -0.0651386 0.000291 -10.3875 0.403185 3.4948 2650 
49 1 -0.0228056 -0.048554 -0.0634173 0.00164 -10.2523 0.0308182 3.68861 2650 
289 1 -0.0273187 -0.0406583 -0.0630588 0.000291 -9.47783 -0.729138 4.10489 2650 
179 1 -0.0320311 -0.0495731 -0.0599474 0.001058 -9.45241 0.0902846 5.05283 2650 
231 1 -0.0332765 -0.0425579 -0.0592614 0.001058 -7.65977 -0.370181 4.30882 2650 
60 1 -0.0395679 -0.0338158 -0.0552329 0.001058 -7.00517 -0.265031 5.03331 2650 
13 1 -0.0436948 -0.0452442 -0.053028 0.000291 -8.22412 0.16595 6.7768 2650 
257 1 -0.0423209 -0.0448092 -0.0531599 0.001058 -7.92895 -0.27491 6.32276 2650 
82 1 -0.0440801 -0.0349944 -0.0517082 0.001058 -7.93305 0.215215 6.76215 2650 
272 1 -0.0430644 -0.0216634 -0.0525605 0.001058 -7.31593 0.156845 5.99511 2650 
204 1 -0.0442918 -0.0270151 -0.0515268 0.001058 -7.51561 0.549745 6.46253 2650 
175 1 -0.0470652 -0.0109562 -0.0500553 0.000291 -6.78444 0.650169 6.38896 2650 
201 1 -0.0478742 -0.0296472 -0.0474054 0.00164 -7.06572 -0.079176 7.06357 2650 
98 1 -0.0546522 -0.0178586 -0.0403742 0.001058 -5.79782 0.00800885 7.83116 2650 
228 1 -0.0552631 -0.00715267 -0.0408114 0.000291 -5.80244 0.525358 7.86755 2650 
120 1 -0.0551908 -0.00465918 -0.0412306 0.000105 -6.65396 -1.16578 8.90419 2650 
171 1 -0.0585396 -0.0429343 -0.034523 0.001058 -5.48082 -0.0334555 9.29427 2650 
90 1 -0.0605221 -0.0523029 -0.03091 0.001058 -4.85435 -0.0794672 9.50604 2650 
21 1 -0.0632721 -0.0461114 -0.0268488 0.000291 -4.18337 -0.0763772 9.85823 2650 
107 1 -0.0643465 -0.040689 -0.0218585 0.001058 -3.53967 -0.12817 10.4303 2650 
225 1 -0.065451 -0.044862 -0.0183299 0.001058 -2.89425 0.0144134 10.3352 2650 
303 1 -0.0672287 -0.00506845 -0.0141878 0.000291 -1.94564 0.600147 9.23225 2650 
295 1 -0.067582 -0.0395835 -0.012425 0.000291 -1.72618 0.107554 9.39004 2650 
135 1 -0.008812 -0.00130988 -0.0132378 0.000291 0.00330025 -0.00264717 0.00636962 2650 
94 1 -0.0115252 -0.000433717 -0.0118242 0.000291 8.5498e-05 -0.0117385 8.5498e-05 2650 
174 1 -0.0683557 -0.024378 -0.00695311 0.000291 -0.974995 0.536225 9.61415 2650 
158 1 -0.0684157 -0.0136991 -0.00636268 0.000291 -0.705002 -0.529177 7.44901 2650 
276 1 -0.0154227 -0.00336846 -0.00477207 0.000291 -1.12046 -0.0312168 -0.346691 2650 
159 1 -0.012707 -0.000343454 -0.00588 0.000291 0 -0.011755 0 2650 
227 1 -0.0686235 -0.0614512 -0.00340947 0.000291 -0.313703 0.28642 6.36228 2650 
285 1 -0.067946 -0.0244882 -0.000445329 0.001058 -0.0677117 -0.0323396 8.40868 2650 
61 1 -0.016439 -0.000625454 -0.001038 0.000291 0 -0.011755 0 2650 
213 1 -0.0687012 -0.0544115 0.000981727 0.000291 0.0816371 -1.46699 5.99029 2650 
133 1 -0.0686384 -0.0230149 0.0022889 0.000291 0.240335 -0.554798 8.55407 2650 
268 1 -0.011054 -0.00176345 0.000789 0.000291 0 -0.011755 0 2650 
223 1 -0.0677842 -0.0193574 0.0033559 0.001058 0.485733 0.0343978 9.90441 2650 
104 1 -0.0687363 -0.0187428 0.00360696 0.000105 0.468596 2.34725 4.77624 2650 
18 1 -0.0678004 -0.0172205 0.00386959 0.001058 0.494673 0.504249 9.00855 2650 
58 1 -0.014858 -0.00261246 0.00444551 0.001058 -0.0794454 0.0037842 -0.00935721 2650 
291 1 -0.008194 -0.000238454 0.004767 0.000291 0 -0.011755 0 2650 
126 1 -0.0683508 -0.0312492 0.0070154 0.000291 0.856443 0.508756 8.34305 2650 
186 1 -0.00620719 -0.00215002 0.00658939 0.001058 -4.15282e-05 -0.0115536 6.1062e-05 2650 
300 1 -0.0132653 -0.00192448 0.0083767 0.001058 -0.00246489 -0.00748443 -0.0047401 2650 
304 1 -0.012709 -0.000957454 0.009818 0.000291 0 -0.011755 0 2650 
55 1 -0.01171 -0.000489454 0.01034 0.000291 0 -0.011755 0 2650 
110 1 -0.00196122 -0.00129345 0.0128825 0.000291 -0.00381615 -0.00836552 -0.0245093 2650 
3 1 -0.0661317 -0.0220433 0.0156068 0.001058 1.48285 0.325158 6.37873 2650 
132 1 -0.0662724 -0.0184343 0.0149943 0.001058 1.84685 0.107362 8.12362 2650 
200 1 -0.0658055 -0.00197513 0.0203867 0.000105 2.35331 -0.0680363 7.63307 2650 
45 1 -0.0643201 -0.0191587 0.0242166 0.000291 2.97393 0.0661876 7.86622 2650 
50 1 -0.0625903 -0.0314305 0.0264385 0.001058 3.31181 -0.263 7.69686 2650 
141 1 -0.0633254 -0.036149 0.026655 0.000291 3.87762 0.0850714 9.20854 2650 
122 1 -0.0624955 -0.0277215 0.0266476 0.001058 3.14951 0.143599 7.44577 2650 
102 1 -0.0626675 -0.0165945 0.0282316 0.000291 3.51587 0.313919 7.82954 2650 
184 1 -0.0540262 -0.0173911 0.0427577 0.000105 4.78162 -0.273933 6.07204 2650 
39 1 -0.051914 -0.0348164 0.0449937 0.000291 6.75091 0.321223 7.79159 2650 
169 1 -0.0460769 -0.0611601 0.0491548 0.00164 7.72114 5.1264e-07 7.23768 2650 
246 1 -0.0463642 -0.0585276 0.0496711 0.001058 7.8025 -1.61351e-05 7.28303 2650 
25 1 -0.0438195 -0.0587942 0.0511755 0.00164 8.04221 -0.00374883 6.88611 2650 
178 1 -0.0432745 -0.0564445 0.052385 0.001058 8.23264 -0.00271443 6.80107 2650 
44 1 -0.0411104 -0.017401 0.0541097 0.001058 7.58901 -0.287561 5.78802 2650 
206 1 -0.0418734 -0.0617978 0.0544743 0.000291 7.78145 -0.00824327 5.9806 2650 
22 1 -0.0418811 -0.0190303 0.0544768 0.000291 6.76299 0.224408 5.18049 2650 
40 1 -0.0415733 -0.00235678 0.0549352 0.000105 4.24227 0.0734825 3.22605 2650 
226 1 -0.0322972 -0.0512118 0.0606626 0.000291 8.66495 -1.22253 4.60599 2650 
103 1 -0.0274886 -0.0460898 0.0629984 0.000291 10.1402 0.500778 4.42435 2650 
177 1 -0.0222133 -0.0180841 0.0636283 0.00164 6.16154 0.0399085 2.12241 2650 
137 1 -0.016459 -0.0611601 0.0653317 0.00164 10.2618 -8.10437e-07 2.58524 2650 
125 1 -0.0221812 -0.0390548 0.0650382 0.000291 9.2955 -1.60029 3.18406 2650 
117 1 -0.0181133 -0.00676121 0.066278 0.000291 7.09039 -0.0592258 1.96924 2650 
130 1 -0.00407611 0.00162769 -0.0127485 0.001058 -0.00692202 0.00347734 0.00595777 2650 
67 1 -0.00860608 0.015183 -0.0122973 0.001058 -0.0104976 0.0129104 0.0114407 2650 
157 1 -0.00314716 0.0582873 -0.0139447 0.000291 0.0079085 0.0606548 0.000918149 2650 
74 1 -0.0110464 0.00167738 -0.0104341 0.001058 0.00156258 -0.00569596 -0.00749774 2650 
205 1 -0.00572254 0.00166033 -0.00993104 0.000291 -0.00881861 0.00364628 0.0236275 2650 
244 1 -0.0134987 0.00925557 -0.00816094 0.001058 -0.0461571 0.01724 0.0857392 2650 
80 1 -0.0135689 0.0112168 -0.00878959 0.000105 0.0137546 0.0232676 -0.0199154 2650 
97 1 -0.011067 0.00554273 -0.00688705 0.00164 0.0106628 0.00973926 -0.0203866 2650 
10 1 -0.0143986 0.00705419 -0.0064996 0.001058 0.0053433 0.0061558 -0.0070677 2650 
114 1 -0.00710711 0.00728387 -0.00476802 0.001058 0.0187062 0.0117361 -0.00752779 2650 
234 1 -0.0127487 0.00954325 -0.00482788 0.000291 -0.00131366 0.00431637 0.0126772 2650 
71 1 -0.000903129 0.00288254 -0.0022059 0.000291 0.000861808 -0.00718564 -0.0173142 2650 
7 1 -0.00435924 0.026968 -0.00324955 0.000291 0.00378858 0.0136367 -0.000251809 2650 
129 1 -0.00165751 0.00807554 -0.00159213 0.00164 0.00825627 0.00147102 -0.0030875 2650 
65 1 -0.0133522 0.0244722 -0.00124955 0.00164 -0.00447342 0.0138222 0.00034274 2650 
211 1 -0.0125989 0.00581084 0.00370078 0.001058 0.000982608 0.00314487 0.00709992 2650 
209 1 -0.0156153 0.00876365 0.00214078 0.001058 0.00176304 0.00205682 0.00141262 2650 
266 1 -0.0151718 0.0108576 0.00303949 0.001058 0.00237332 0.00196815 0.00196827 2650 
256 1 -0.016066 0.0154593 0.00335652 0.000291 0.000881351 0.0216623 0.00465977 2650 
115 1 -0.0154907 0.0139241 0.00267664 0.001058 0.00236141 0.0122312 0.0092361 2650 
187 1 -0.0156124 0.0222247 0.00258819 0.001058 0.002188 0.0158981 0.0132693 2650 
106 1 -0.0035397 0.0249002 0.00344148 0.001058 0.0119634 0.0223893 -0.0027555 2650 
220 1 -0.0157466 0.0235799 0.00447443 0.000291 0.00769082 0.00953698 0.0062614 2650 
293 1 -0.0147637 0.0387855 0.00565359 0.001058 0.0434598 0.0220904 0.103505 2650 
147 1 -0.0140986 0.035271 0.00731636 0.001058 0.0275772 0.016189 0.0275411 2650 
124 1 -0.0120987 0.036028 0.00794223 0.001058 0.0225448 0.0380641 0.0162983 2650 
217 1 -0.00944284 0.0386505 0.00737246 0.001058 0.000747792 0.0265619 -0.00553463 2650 
68 1 -0.00180926 0.00741892 0.0090486 0.001058 0.00272783 -0.00342387 -0.00169301 2650 
242 1 -0.00262964 0.0280275 0.00910426 0.000291 0.0116924 0.0265357 0.00697501 2650 
28 1 -0.0117433 0.0459665 0.00812708 0.001058 0.00734507 0.0503926 0.00344867 2650 
41 1 -7.20717e-06 0.0180222 0.010446 0.00164 0.0102042 0.00860529 0.0210319 2650 
299 1 -0.00775376 0.00257942 0.0123603 0.001058 0.00581403 -0.00322581 0.00124072 2650 
4 1 -0.00962279 0.00841612 0.0125116 0.001058 0.00569435 0.00097307 0.00498712 2650 
224 1 -0.00832954 0.0147381 0.0124983 0.001058 -0.00111942 0.00491513 -0.00282362 2650 
144 1 -0.00670251 0.0189407 0.0121781 0.000105 0.00807853 0.0136784 0.0281765 2650 
250 1 -0.0060334 0.000324162 0.0140499 0.001058 0.0155527 -0.0042124 0.00795816 2650 
170 1 -0.00344929 9.30685e-05 0.0142386 0.001058 0.0182293 -0.00571122 0.00927168 2650 
198 1 -0.00837027 0.0119492 0.0143613 0.000291 -0.0654637 -0.0113329 -0.0490338 2650 
273 1 -0.00298307 0.0426335 0.0143225 0.001058 0.00511 0.0387776 -0.00978519 2650 
154 1 -0.0105712 0.105863 -0.00504398 0.001058 -0.025218 0.0914679 0.0181079 2650 
118 1 0.00284247 -0.0158571 -0.0686066 0.000291 -8.12695 0.0599364 -0.327477 2650 
85 1 0.00443481 -0.012718 -0.0685204 0.000291 -8.07885 -0.118217 -0.552428 2650 
152 1 0.00416664 -0.0109885 -0.0687071 0.000105 -8.44766 -0.610866 -0.532517 2650 
236 1 0.0061256 -0.0578441 -0.0676701 0.001058 -10.0994 -0.226132 -0.915142 2650 
43 1 0.0127294 -0.0484118 -0.0667564 0.001058 -9.71132 0.532047 -1.83132 2650 
150 1 0.0119023 -0.0367465 -0.0676699 0.000291 -10.2143 0.53777 -1.7975 2650 
296 1 0.00981621 -0.00866006 -0.0679957 0.000291 -6.4317 -0.045475 -0.88968 2650 
100 1 0.0141491 -0.00917316 -0.0664619 0.001058 -8.20367 -0.162385 -1.73484 2650 
229 1 0.0220327 -0.04858 -0.0643011 0.001058 -10.066 -0.0109412 -3.44909 2650 
247 1 0.0242159 -0.0449842 -0.064326 0.000291 -9.47575 -0.61328 -3.56675 2650 
210 1 0.0172805 -0.0369077 -0.0657118 0.001058 -9.79372 0.0011888 -2.57087 2650 
34 1 0.0193356 -0.0304963 -0.0651424 0.001058 -9.61438 0.0168075 -2.87733 2650 
6 1 0.0219359 -0.0194799 -0.0651317 0.000291 -7.72734 -0.119501 -2.59072 2650 
188 1 0.0267878 -0.0616387 -0.0624442 0.001058 -9.81328 -0.0026742 -4.20968 2650 
35 1 0.0252379 -0.0509277 -0.0631069 0.001058 -9.55806 0.00412601 -3.8219 2650 
218 1 0.0252993 -0.04716 -0.063089 0.001058 -9.77075 -0.0199574 -3.92036 2650 
267 1 0.0256719 -0.00994179 -0.0637491 0.000291 -6.17649 0.0378845 -2.46184 2650 
255 1 0.0328592 -0.0228544 -0.0603485 0.000291 -7.92098 -0.0242602 -4.31785 2650 
172 1 0.0335745 -0.0508322 -0.0590904 0.001058 -9.03928 0.0685205 -5.1329 2650 
168 1 0.0336235 -0.0216096 -0.0601436 0.000105 -7.66977 1.42249 -4.29893 2650 
221 1 0.0338217 -0.0185581 -0.0598288 0.000291 -7.96118 -0.264343 -4.50383 2650 
88 1 0.0359187 -0.00173563 -0.0587863 0.000105 -5.52691 -0.262286 -3.38752 2650 
20 1 0.0349703 -0.0494451 -0.0582775 0.001058 -8.93295 0.15022 -5.3987 2650 
148 1 0.0356542 -0.0474205 -0.0578653 0.001058 -9.02092 0.0601924 -5.55807 2650 
81 1 0.0350581 -0.0444646 -0.0575506 0.00164 -9.05497 0.0583667 -5.51528 2650 
76 1 0.036366 -0.031844 -0.0573955 0.001058 -7.5603 -1.13104 -4.79113 2650 
259 1 0.0378829 -0.0307352 -0.0564222 0.001058 -7.97151 0.333238 -5.30343 2650 
294 1 0.0361155 -0.0281098 -0.0575515 0.001058 -5.50347 0.683032 -3.41084 2650 
235 1 0.0390716 -0.011078 -0.056531 0.000291 -7.32219 0.218037 -5.07089 2650 
42 1 0.0389879 -0.0512459 -0.0556611 0.001058 -8.74697 0.0040159 -6.12679 2650 
193 1 0.0371369 -0.0491083 -0.0562327 0.00164 -8.83957 -0.00861559 -5.83767 2650 
185 1 0.0377736 -0.0450532 -0.0558077 0.00164 -8.79148 -0.0186038 -5.95158 2650 
277 1 0.0398796 -0.0219393 -0.0559569 0.000291 -7.33673 0.186642 -5.22612 2650 
192 1 0.0488505 -0.00010499 -0.0485809 0.000105 -6.20668 0.000582698 -6.23506 2650 
302 1 0.0492042 -0.0245053 -0.0479512 0.000291 -6.3764 0.47493 -6.50541 2650 
181 1 0.0511634 -0.0487028 -0.0458009 0.000291 -6.4108 -0.906736 -7.17944 2650 
164 1 0.0508516 -0.0469507 -0.045014 0.001058 -5.97792 -0.562363 -6.79207 2650 
119 1 0.0506009 -0.043486 -0.0464072 0.000291 -7.09699 0.335599 -7.72979 2650 
23 1 0.0578152 -0.0397593 -0.0371316 0.000291 -5.64405 -0.245005 -8.78976 2650 
248 1 0.0580593 -0.0229647 -0.0367508 0.000291 -4.07825 -0.425674 -6.49039 2650 
207 1 0.0576232 -0.0116796 -0.0374264 0.000291 -4.20647 0.0970404 -6.4163 2650 
197 1 0.0579496 -0.00298428 -0.0369044 0.000291 -4.59243 -0.0194397 -7.18097 2650 
261 1 0.0595104 -0.0301764 -0.0343395 0.000291 -3.60597 -0.397936 -6.24247 2650 
14 1 0.0625821 -0.0346494 -0.02835 0.000291 -4.52484 0.73159 -9.99121 2650 
26 1 0.0654835 -0.0440062 -0.0181991 0.001058 -2.86824 -0.019503 -10.3218 2650 
280 1 0.0661736 -0.0298157 -0.0154194 0.001058 -2.20175 -0.0952864 -9.46173 2650 
37 1 0.006156 -0.000925454 -0.015157 0.000291 0 -0.011755 0 2650 
16 1 0.0673572 -0.00431159 -0.0144689 0.000105 -1.78118 -0.172278 -8.31887 2650 
252 1 0.00245 -0.00255445 -0.01336 0.001058 0 -0.011755 0 2650 
78 1 0.001258 -0.000939454 -0.012517 0.000291 0 -0.011755 0 2650 
275 1 0.012705 -0.00319245 -0.010476 0.000291 0 -0.011755 0 2650 
8 1 0.0681813 -0.0626253 -0.00990239 0.000105 -1.38074 0.0850114 -9.53094 2650 
47 1 0.0683475 -0.000875898 -0.00703397 0.000291 -0.593605 -0.138412 -5.93933 2650 
278 1 7.4e-05 -0.00211245 -0.004448 0.001058 0 -0.011755 0 2650 
202 1 0.00753774 -0.00265628 -0.00182528 0.001058 0.0093109 -0.00893593 -0.0136131 2650 
190 1 0.005899 -0.00132345 -0.000534 0.000291 0 -0.011755 0 2650 
48 1 0.0288454 -0.00381338 0.000694961 0.000105 4.26877 -0.080061 0.102846 2650 
128 1 0.00361 -0.00172445 0.000511 0.000105 0 -0.011755 0 2650 
219 1 0.0687038 -0.000290943 0.000840949 0.000291 0.104273 0.000623114 -8.93173 2650 
108 1 0.0679223 -0.033613 0.00185077 0.001058 0.280936 -0.0112493 -10.291 2650 
182 1 0.0686905 -0.0215296 0.00156269 0.000291 0.166805 0.250588 -8.35412 2650 
271 1 0.014869 -0.00158404 0.00292407 0.001058 0.0150184 -0.010407 0.010297 2650 
212 1 0.001087 -0.00320745 0.005915 0.000291 0 -0.011755 0 2650 
79 1 0.014214 -0.000722454 0.005058 0.000291 0 -0.011755 0 2650 
131 1 0.0676225 -0.0510377 0.00665086 0.001058 1.03971 -0.0567245 -10.5708 2650 
145 1 0.00536165 -0.00280085 0.00694223 0.00164 0.00141835 -0.0120886 -0.00168987 2650 
112 1 0.0145273 -0.000574325 0.00741282 0.000105 0.0913471 -0.0303431 0.0436698 2650 
167 1 0.0680696 -0.010471 0.00937833 0.000291 1.17117 0.241851 -8.51077 2650 
24 1 0.0683785 -0.00754623 0.00842906 0.000105 0.40449 -0.164239 -3.22863 2650 
222 1 0.00868039 -0.000827968 0.00804448 0.001058 -0.0154393 0.00359566 0.0347287 2650 
173 1 0.0664887 -0.0109912 0.0173856 0.000291 2.03946 0.0951043 -7.86776 2650 
239 1 0.0651482 -0.0492547 0.0193769 0.001058 3.04582 -0.0654092 -10.2413 2650 
251 1 0.0650937 -0.0309004 0.0195258 0.001058 2.94903 0.117612 -9.76368 2650 
30 1 0.0659202 -0.0269477 0.0193597 0.000291 2.88977 0.133209 -9.838 2650 
46 1 0.0654417 -0.0194849 0.0209871 0.000291 2.4896 0.320298 -7.76711 2650 
230 1 0.0638187 -0.0494197 0.0233846 0.001058 3.65485 -0.019068 -9.97633 2650 
288 1 0.0636644 -0.0457976 0.0259074 0.000291 4.08069 0.15259 -10.0277 2650 
243 1 0.0621226 -0.047748 0.0275878 0.001058 4.3185 0.0156774 -9.72428 2650 
36 1 0.0618763 -0.0450805 0.028134 0.001058 4.43247 -0.0357429 -9.74875 2650 
99 1 0.0386199 -0.0150682 0.0286332 0.001058 5.74189 -0.883411 4.28901 2650 
191 1 0.0614316 -0.0483449 0.0308263 0.000291 4.81351 0.0619737 -9.59215 2650 
121 1 0.0603787 -0.0465171 0.0299491 0.00164 4.71155 -0.0160983 -9.49715 2650 
2 1 0.0609322 -0.0438786 0.0301169 0.001058 4.75951 0.0135636 -9.62898 2650 
196 1 0.0602756 -0.0422064 0.0313977 0.001058 4.96787 -0.0950994 -9.53596 2650 
281 1 0.0594045 -0.0624726 0.0345525 0.000291 5.44151 0.0929446 -9.34691 2650 
73 1 0.0546185 -0.0577349 0.0394385 0.00164 6.17989 0.0146081 -8.55792 2650 
96 1 0.0542881 -0.0120993 0.0424255 0.000105 4.94164 -0.262467 -6.35134 2650 
15 1 0.0490521 -0.0190903 0.0481119 0.000291 6.00214 -0.0479913 -6.10894 2650 
64 1 0.049211 -0.0104816 0.0482146 0.000105 5.73794 -0.323564 -5.84464 2650 
86 1 0.0452322 -0.00895996 0.0516066 0.000291 5.65414 -0.100138 -4.96563 2650 
287 1 0.0391348 -0.0510776 0.0555573 0.001058 8.46379 1.01855 -5.96252 2650 
83 1 0.0286732 -0.0470992 0.0616265 0.001058 9.73263 -0.102821 -4.52428 2650 
89 1 0.0260711 -0.0611602 0.0621234 0.00164 9.72929 6.05014e-07 -4.08307 2650 
84 1 0.0177963 -0.051584 0.0655915 0.001058 10.2984 0.0249641 -2.79412 2650 
215 1 0.0214401 -0.0501397 0.0644975 0.001058 10.099 -0.00613457 -3.35714 2650 
264 1 0.0195684 -0.0480762 0.0650925 0.001058 10.1955 -0.0384265 -3.06497 2650 
269 1 0.0198387 -0.00554436 0.0657814 0.000291 7.65846 0.109053 -2.30776 2650 
109 1 0.0153774 -0.0540579 0.0669725 0.000291 10.3835 0.15518 -2.38431 2650 
241 1 0.0178255 -0.0334278 0.0663527 0.000291 10.4193 0.808825 -2.79843 2650 
253 1 0.0186193 -0.0195669 0.0661547 0.000291 9.23786 -0.320252 -2.60425 2650 
290 1 0.00140265 -0.048451 0.0686936 0.000291 10.6038 -0.1192 -0.216246 2650 
270 1 0.0092893 -0.0124048 0.0680849 0.000291 6.6986 0.811822 -0.9077 2650 
240 1 0.00882311 -0.00128751 0.0681386 0.000291 8.61636 -0.422027 -1.10612 2650 
75 1 0.00206335 0.0599082 -0.0143758 0.001058 0.0240155 0.0510522 0.00788599 2650 
87 1 0.00552551 1.79778e-05 -0.0138892 0.000291 -0.00318762 -0.017547 -0.0237996 2650 
134 1 0.000802108 0.00584625 -0.0122855 0.000291 -0.0128132 0.00355392 -0.00692922 2650 
33 1 0.000335645 0.0223245 -0.0132232 0.00164 0.00603998 0.0215627 0.00352792 2650 
232 1 0.00607715 0.0247696 -0.0137367 0.001058 -0.0291023 0.0299794 -0.00774462 2650 
301 1 0.00717517 0.0361967 -0.0136183 0.001058 0.00272587 0.0220862 -0.0290146 2650 
127 1 0.0104145 0.0680071 -0.0110674 0.000291 0.0147798 0.0618117 0.0201086 2650 
260 1 0.00796248 0.00512783 -0.00899308 0.000291 -0.00392275 0.00411325 -0.00447499 2650 
77 1 0.011408 0.0114735 -0.0093693 0.000291 0.0279429 0.00178097 -0.016803 2650 
286 1 0.0124224 0.0233779 -0.00992451 0.001058 -0.0144844 0.0497942 -0.0202744 2650 
19 1 0.0137869 0.00948246 -0.00682901 0.001058 -0.00189711 0.0050805 -0.00113271 2650 
284 1 0.0132581 0.0113032 -0.00760405 0.000291 -0.00371053 0.00586111 -0.00129449 2650 
153 1 0.00618731 0.00547041 -0.0058586 0.00164 0.00905173 -0.00370467 -0.0193596 2650 
38 1 0.00288475 0.0156363 -0.00450005 0.000291 0.0290333 0.00993382 0.0254358 2650 
123 1 0.0148145 0.0254882 -0.00430138 0.001058 -0.0069266 0.0381635 -0.00768552 2650 
176 1 0.00943323 0.000169776 -0.00227643 0.000105 0.0200199 0.000256501 -0.0124767 2650 
113 1 0.00671466 0.00412166 -0.00210634 0.00164 -0.0251958 0.00978061 -0.000134024 2650 
199 1 0.0161205 0.00485921 -0.00271499 0.000291 -0.0066469 0.00203541 -0.00705897 2650 
279 1 0.00916016 0.00636726 -0.00267801 0.001058 0.00690887 -0.00122776 0.0071413 2650 
161 1 0.0137754 0.00605815 -0.00353148 0.00164 -0.000454856 0.00568005 -0.00417258 2650 
203 1 0.00802271 0.0153943 -0.00385695 0.001058 0.0105265 0.0334803 0.00411967 2650 
292 1 0.00760626 0.0394056 -0.0025246 0.001058 -0.0104367 0.0376087 -0.0291473 2650 
101 1 0.00889474 0.000845423 -0.00108083 0.000291 0.0107852 -0.0015929 -0.0095042 2650 
195 1 0.0157367 0.000350758 -0.0013033 0.001058 -0.00594761 0.00111743 -0.0304826 2650 
1 1 0.0152554 0.00499952 -0.000471729 0.00164 -0.00396175 0.00352346 -0.00443708 2650 
92 1 0.0116967 0.00696968 -0.00173738 0.001058 0.00298746 0.00292354 0.00546929 2650 
194 1 0.0142285 0.0231916 -0.00102689 0.001058 -0.00717738 0.0355954 0.00284246 2650 
54 1 0.0162458 0.0330973 -0.00198255 0.000291 -0.0134846 -0.000758408 -0.0470633 2650 
258 1 0.014557 0.0246482 0.000613554 0.001058 -0.00702738 0.0458888 -0.00817646 2650 
249 1 0.00282542 0.0293949 0.00112264 0.000291 0.00987628 0.0185258 -0.0129358 2650 
263 1 0.00615804 0.0350443 0.00151232 0.000291 0.0807781 0.0834583 0.0461979 2650 
9 1 0.0137165 0.0224723 0.00265278 0.00164 -0.00067168 0.0470366 0.00650688 2650 
57 1 0.00593041 0.0251056 0.00228128 0.00164 -0.000919831 0.00616449 -0.024056 2650 
52 1 0.00755183 0.0392121 0.00342214 0.001058 0.0258261 0.0380708 0.00407144 2650 
51 1 0.0135665 0.000624952 0.00707583 0.001058 0.0978947 0.0654691 0.057486 2650 
156 1 0.00997908 0.0102978 0.00763006 0.001058 0.0107441 -0.0117541 0.0077951 2650 
105 1 0.00856988 0.0150723 0.00744892 0.00164 0.000597876 0.0137471 0.023702 2650 
139 1 0.0136889 0.0225992 0.00655179 0.001058 -0.0138539 0.00679752 0.0124887 2650 
298 1 0.0118067 0.00412177 0.00967737 0.000105 0.00377194 -0.00442838 -0.00799766 2650 
70 1 0.00385752 0.0353064 0.00970653 0.000291 0.000986621 0.0559838 -0.0454673 2650 
238 1 0.00797279 0.0394921 0.00968254 0.001058 0.0207771 0.0325148 -0.00733364 2650 
116 1 0.00291854 0.044313 0.00941637 0.001058 -0.0278213 0.0454338 0.0115295 2650 
66 1 0.0102492 0.00820727 0.0118339 0.001058 0.00274751 -0.000835425 -0.00507484 2650 
180 1 0.0128193 0.0608668 0.0103293 0.001058 -0.021353 0.059502 0.0510683 2650 
265 1 0.00864879 0.0103856 0.0121398 0.001058 0.011667 0.00657701 -0.00499144 2650 
17 1 0.00829697 0.0409474 0.0128322 0.00164 0.0322327 0.038959 -0.0241657 2650 
95 1 0.00660995 0.000563806 0.0150236 0.000291 -0.000366951 -0.00495937 0.00220646 2650 
245 1 0.00528709 0.0796408 -0.00561967 0.001058 0.013355 0.0538623 -0.0223836 2650 
