ITEM: TIMESTEP
13829637
ITEM: NUMBER OF ATOMS
275
ITEM: BOX BOUNDS ff ff ff
-0.15 0.15
-0.15 0.15
-0.15 0.15
ITEM: ATOMS id type x y z radius vx vy vz density 
282 1 -0.00426534 -0.0219285 -0.0685056 0.000291 -9.62816 -0.406529 0.585611 2650 
86 1 -0.000608904 -0.016759 -0.0687012 0.000291 -8.63939 -0.0264994 0.00419447 2650 
16 1 -0.0109211 -0.00493908 -0.0680124 0.000105 -8.30533 -0.250216 1.32998 2650 
277 1 -0.0181612 -0.0236215 -0.0662691 0.000291 -8.50556 0.147141 2.32119 2650 
182 1 -0.014585 -0.0215357 -0.067146 0.000291 -7.78596 0.287433 1.72361 2650 
221 1 -0.011958 -0.021022 -0.0676458 0.000291 -8.89486 -0.110234 1.60948 2650 
46 1 -0.0133843 -0.0178565 -0.0674019 0.000291 -7.70384 0.519586 1.49482 2650 
29 1 -0.0127107 -0.0154865 -0.0675347 0.000291 -9.28276 0.107598 1.77216 2650 
235 1 -0.0247112 -0.0104124 -0.0641298 0.000291 -8.21035 0.343042 3.15303 2650 
173 1 -0.0199061 -0.00612009 -0.065765 0.000291 -7.48863 0.108427 2.23756 2650 
192 1 -0.0244509 -0.000105214 -0.0644083 0.000105 -8.11328 0.00442133 3.08916 2650 
302 1 -0.0255205 -0.0152109 -0.0638208 0.000291 -7.7471 0.123453 3.09807 2650 
255 1 -0.0300931 -0.0256151 -0.0617666 0.000291 -7.88502 -0.216886 3.8314 2650 
197 1 -0.0366353 -0.00190424 -0.0581233 0.000291 -6.98716 -0.154195 4.41701 2650 
261 1 -0.0387447 -0.020585 -0.0567543 0.000291 -7.15524 -0.176382 4.8923 2650 
208 1 -0.036742 -0.0184151 -0.0571746 0.001058 -7.72617 -0.0865996 4.95721 2650 
169 1 -0.0491647 -0.06116 -0.0460664 0.00164 -7.23597 6.40188e-07 7.72264 2650 
246 1 -0.0495737 -0.0582846 -0.0464685 0.001058 -7.32596 -0.0369225 7.81547 2650 
103 1 -0.0510934 -0.056913 -0.0459358 0.000291 -7.32218 0.204495 8.14346 2650 
25 1 -0.0510296 -0.0585868 -0.0439871 0.00164 -6.90225 -0.0148225 8.00829 2650 
98 1 -0.0514313 -0.0172708 -0.0444001 0.001058 -6.04522 -0.00405767 7.02654 2650 
178 1 -0.053661 -0.0573065 -0.0416796 0.001058 -6.52251 -0.00614525 8.39772 2650 
6 1 -0.0560304 -0.0196735 -0.0397823 0.000291 -5.09887 -0.248313 7.18976 2650 
248 1 -0.0586307 -0.0294887 -0.0358191 0.000291 -4.26769 -0.223803 6.96273 2650 
137 1 -0.0653349 -0.0611601 -0.0164461 0.00164 -2.58319 -8.9887e-07 10.2622 2650 
135 1 -0.00910902 -0.00107164 -0.0138111 0.000291 0.00330025 -0.00264717 0.00636962 2650 
141 1 -0.0679438 -0.0376979 -0.0101745 0.000291 -1.48358 0.337548 9.86889 2650 
223 1 -0.0672391 -0.0186095 -0.00975478 0.001058 -1.34608 0.277478 9.40973 2650 
47 1 -0.0132934 -0.00315022 -0.00858212 0.000291 -0.00125586 -0.0105028 0.00427205 2650 
174 1 -0.0683003 -0.0256748 -0.00741975 0.000291 -1.0351 0.68837 9.49176 2650 
295 1 -0.0685069 -0.0425764 -0.00446594 0.000291 -0.63596 -0.0677533 9.53438 2650 
276 1 -0.013674 -0.00227952 -0.004231 0.000291 0 -0.011755 0 2650 
240 1 -0.010392 -0.00322152 -0.005262 0.000291 0 -0.011755 0 2650 
13 1 -0.014201 -0.00317952 -0.003882 0.000291 0 -0.011755 0 2650 
104 1 -0.014089 -0.00249752 -0.003012 0.000105 0 -0.011755 0 2650 
39 1 -0.0686973 -0.0384232 -0.000948073 0.000291 -0.127964 0.183018 10.0522 2650 
268 1 -0.011054 -0.000705519 0.000789 0.000291 0 -0.011755 0 2650 
152 1 -0.0688169 -0.0120247 0.0032219 0.000105 0.384782 -0.624867 8.25859 2650 
58 1 -0.00770801 -0.00295304 0.00528764 0.001058 -0.0794454 0.0037842 -0.00935721 2650 
186 1 -0.00620345 -0.00111021 0.0065839 0.001058 -4.15282e-05 -0.0115536 6.1062e-05 2650 
300 1 -0.0130435 -0.00125089 0.00880331 0.001058 -0.00246489 -0.00748443 -0.0047401 2650 
303 1 -0.0673178 -0.00728024 0.0137823 0.000291 1.84213 0.778588 8.95992 2650 
110 1 -0.00161777 -0.000540562 0.0150883 0.000291 -0.00381615 -0.00836552 -0.0245093 2650 
84 1 -0.0655508 -0.0513314 0.0179454 0.001058 2.83489 0.00587155 10.3548 2650 
215 1 -0.0649654 -0.0510824 0.0199679 0.001058 3.15246 0.0747578 10.2569 2650 
264 1 -0.0653089 -0.0482522 0.0188335 0.001058 2.99116 -0.0178446 10.3739 2650 
241 1 -0.0660581 -0.0445109 0.0189764 0.000291 2.995 0.625427 10.4267 2650 
118 1 -0.0656584 -0.0187298 0.02031 0.000291 2.48709 0.0855651 8.03328 2650 
109 1 -0.0635896 -0.0550812 0.0260347 0.000291 4.06109 0.238125 9.91979 2650 
83 1 -0.0622171 -0.0442675 0.0273704 0.001058 4.26687 0.0150913 9.69964 2650 
177 1 -0.0619259 -0.00780332 0.026541 0.00164 1.56284 -0.100507 3.62637 2650 
290 1 -0.0621065 -0.0473104 0.0294463 0.000291 4.4269 -0.224207 9.32229 2650 
40 1 -0.0618794 -0.00298445 0.0302759 0.000105 2.168 -0.090714 4.50088 2650 
164 1 -0.024085 -0.018242 0.0377516 0.001058 -3.53725 -1.25989 5.54903 2650 
168 1 -0.056958 -0.00368672 0.038755 0.000105 2.92236 -0.185214 4.41218 2650 
226 1 -0.054271 -0.0361047 0.0421374 0.000291 6.0881 -1.76854 7.82766 2650 
44 1 -0.0524477 -0.0168111 0.0431837 0.001058 6.25283 0.0122547 7.57836 2650 
85 1 -0.0492086 -0.020416 0.0479381 0.000291 5.2182 0.052694 5.16648 2650 
175 1 -0.0481757 -0.0127734 0.0489894 0.000291 2.4522 -0.285354 2.4878 2650 
274 1 -0.0405724 -0.0624374 0.0554518 0.000291 7.57955 0.0194447 5.55953 2650 
206 1 -0.0401001 -0.062368 0.0558051 0.000291 7.63227 0.107946 5.48691 2650 
89 1 -0.0388206 -0.0607958 0.0550625 0.00164 8.08265 0.149091 5.69567 2650 
73 1 -0.0384668 -0.054093 0.0553107 0.00164 8.72685 0.0357755 6.06977 2650 
281 1 -0.0374403 -0.0597351 0.0576092 0.000291 9.00419 -0.00135005 5.8515 2650 
287 1 -0.0369672 -0.0610246 0.0570106 0.001058 8.39044 0.3739 5.44189 2650 
100 1 -0.0353661 -0.00713373 0.0580207 0.001058 5.45826 -0.382269 3.30936 2650 
207 1 -0.0370645 -0.0057476 0.0578561 0.000291 5.36745 -0.138458 3.38351 2650 
191 1 -0.0309718 -0.0481854 0.0613588 0.000291 9.55266 0.00696324 4.82298 2650 
121 1 -0.0299823 -0.0465691 0.0603612 0.00164 9.48427 0.00639498 4.71116 2650 
230 1 -0.0264206 -0.0496559 0.0626252 0.001058 9.98841 -0.0420779 4.21412 2650 
243 1 -0.0272682 -0.0474268 0.0622617 0.001058 9.74483 0.0205603 4.26889 2650 
239 1 -0.0205169 -0.0492776 0.0647982 0.001058 10.1016 -0.0302648 3.19842 2650 
196 1 -0.0218812 -0.0379841 0.0643303 0.001058 9.83132 -0.105073 3.34336 2650 
2 1 -0.0196114 -0.0375615 0.0650583 0.001058 9.96832 -0.0669626 3.00487 2650 
126 1 -0.0244619 -0.00633062 0.0642093 0.000291 10.1802 0.264156 3.87672 2650 
288 1 -0.0161471 -0.0460882 0.0668044 0.000291 10.4374 -0.0707655 2.52292 2650 
131 1 -0.00318034 -0.0458525 0.0678726 0.001058 10.771 -0.00919449 0.504634 2650 
36 1 -0.0139489 -0.0450432 0.0665161 0.001058 10.1466 -0.0473993 2.12673 2650 
244 1 -0.00712312 0.00744211 -0.0140961 0.001058 -0.0912725 0.0228061 0.039212 2650 
157 1 -0.00385891 0.0528285 -0.0140274 0.000291 0.0079085 0.0606548 0.000918149 2650 
75 1 -9.80157e-05 0.0553135 -0.0150856 0.001058 0.0240155 0.0510522 0.00788599 2650 
205 1 -0.00492887 0.00133217 -0.0120575 0.000291 -0.00881861 0.00364628 0.0236275 2650 
130 1 -0.00345314 0.00131473 -0.0132847 0.001058 -0.00692202 0.00347734 0.00595777 2650 
67 1 -0.00766131 0.0140211 -0.0133269 0.001058 -0.0104976 0.0129104 0.0114407 2650 
33 1 -0.000207946 0.0203838 -0.0135407 0.00164 0.00603998 0.0215627 0.00352792 2650 
94 1 -0.0115329 0.000622738 -0.0118319 0.000291 8.5498e-05 -0.0117385 8.5498e-05 2650 
74 1 -0.011187 0.00219001 -0.00975931 0.001058 0.00156258 -0.00569596 -0.00749774 2650 
80 1 -0.0148068 0.00912277 -0.00699723 0.000105 0.0137546 0.0232676 -0.0199154 2650 
159 1 -0.012707 0.000714481 -0.00588 0.000291 0 -0.011755 0 2650 
97 1 -0.0120267 0.00466621 -0.00505228 0.00164 0.0106628 0.00973926 -0.0203866 2650 
10 1 -0.0143959 0.00642081 -0.00566226 0.001058 -0.00348814 0.00760519 -0.0107431 2650 
114 1 -0.00879064 0.00622763 -0.00409052 0.001058 0.0187062 0.0117361 -0.00752779 2650 
234 1 -0.0126305 0.00915478 -0.00596882 0.000291 -0.00131366 0.00431637 0.0126772 2650 
293 1 -0.0151868 0.0365962 -0.00427964 0.001058 -0.0276603 0.027737 0.108586 2650 
7 1 -0.00470021 0.0257407 -0.00322689 0.000291 0.00378858 0.0136367 -0.000251809 2650 
263 1 -0.00111189 0.0275331 -0.00264544 0.000291 0.0807781 0.0834583 0.0461979 2650 
61 1 -0.016439 0.000432481 -0.001038 0.000291 0 -0.011755 0 2650 
71 1 -0.00098069 0.00352923 -0.000647641 0.000291 0.000861808 -0.00718564 -0.0173142 2650 
129 1 -0.00240056 0.00794315 -0.00131426 0.00164 0.00825627 0.00147102 -0.0030875 2650 
65 1 -0.0129496 0.0232283 -0.0012804 0.00164 -0.00447342 0.0138222 0.00034274 2650 
115 1 -0.0157032 0.0128233 0.00184541 0.001058 0.00236141 0.0122312 0.0092361 2650 
187 1 -0.015742 0.0207862 0.00138103 0.001058 -0.000280938 0.0161775 0.0137442 2650 
211 1 -0.0126873 0.00552781 0.00306179 0.001058 0.000982608 0.00314487 0.00709992 2650 
209 1 -0.0155705 0.00855442 0.00200665 0.001058 -0.0032116 0.00264672 0.00158384 2650 
266 1 -0.0153853 0.0106805 0.00286234 0.001058 0.00237332 0.00196815 0.00196827 2650 
256 1 -0.0161453 0.0135097 0.00293715 0.000291 0.000881351 0.0216623 0.00465977 2650 
220 1 -0.0159506 0.0226743 0.00368543 0.000291 -0.00743392 0.0110018 0.0132466 2650 
106 1 -0.0046164 0.0228852 0.00368947 0.001058 0.0119634 0.0223893 -0.0027555 2650 
147 1 -0.0155103 0.0331976 0.00281599 0.001058 0.0100857 0.0256255 0.0572437 2650 
291 1 -0.008194 0.000819481 0.004767 0.000291 0 -0.011755 0 2650 
124 1 -0.0129268 0.0328535 0.00730863 0.001058 0.00450723 0.0342902 0.00378394 2650 
217 1 -0.00951014 0.0362599 0.00787057 0.001058 0.000747792 0.0265619 -0.00553463 2650 
28 1 -0.0124043 0.0414312 0.0078167 0.001058 0.00734507 0.0503926 0.00344867 2650 
304 1 -0.012709 0.000100481 0.009818 0.000291 0 -0.011755 0 2650 
68 1 -0.00205476 0.00772706 0.00920097 0.001058 0.00272783 -0.00342387 -0.00169301 2650 
144 1 -0.00742957 0.0177096 0.00964225 0.000105 0.00807853 0.0136784 0.0281765 2650 
41 1 -0.000925569 0.0172477 0.00855314 0.00164 0.0102042 0.00860529 0.0210319 2650 
242 1 -0.00368194 0.0256393 0.00847652 0.000291 0.0116924 0.0265357 0.00697501 2650 
55 1 -0.01171 0.000568481 0.01034 0.000291 0 -0.011755 0 2650 
250 1 -0.00743313 0.000703272 0.0133336 0.001058 0.0155527 -0.0042124 0.00795816 2650 
170 1 -0.0050899 0.000607072 0.0134041 0.001058 0.0182293 -0.00571122 0.00927168 2650 
299 1 -0.00827702 0.00286973 0.0122486 0.001058 0.00581403 -0.00322581 0.00124072 2650 
4 1 -0.0101353 0.00832854 0.0120627 0.001058 0.00569435 0.00097307 0.00498712 2650 
224 1 -0.0082288 0.0142957 0.0127524 0.001058 -0.00111942 0.00491513 -0.00282362 2650 
273 1 -0.00344296 0.0391436 0.0152032 0.001058 0.00511 0.0387776 -0.00978519 2650 
198 1 -0.00132114 0.0127021 0.0165436 0.000291 -0.0815361 -0.00723373 -0.0150615 2650 
154 1 -0.00830157 0.0976306 -0.00667367 0.001058 -0.025218 0.0914679 0.0181079 2650 
165 1 0.00615675 -0.0457857 -0.0684336 0.000291 -9.45252 -0.679753 -0.854806 2650 
96 1 0.00111029 -0.0187595 -0.0688845 0.000105 -7.81118 -0.678154 -0.12696 2650 
213 1 0.00391106 -0.0192797 -0.0685954 0.000291 -8.31631 -0.795722 -0.466405 2650 
257 1 0.0150022 -0.04783 -0.0662868 0.001058 -9.28619 -0.291473 -2.09276 2650 
272 1 0.000381164 -0.0328474 -0.0679477 0.001058 -9.92311 -0.109112 -0.0421579 2650 
82 1 0.00959676 -0.0319768 -0.0672647 0.001058 -9.76859 -0.0250377 -1.37145 2650 
201 1 0.00285381 -0.0300895 -0.0673155 0.00164 -9.86478 0.0740694 -0.408347 2650 
270 1 0.0137415 -0.0130225 -0.0673356 0.000291 -8.3813 -0.093203 -1.72844 2650 
117 1 0.0121278 -0.011823 -0.0676415 0.000291 -6.47278 -0.0965407 -1.18674 2650 
167 1 0.0153741 -0.00828227 -0.0669748 0.000291 -8.1266 0.36601 -1.86152 2650 
269 1 0.017784 -0.0075535 -0.0663736 0.000291 -6.98022 -0.527288 -1.87188 2650 
225 1 0.016518 -0.0454146 -0.065929 0.001058 -10.4321 -0.0910927 -2.6116 2650 
21 1 0.0195549 -0.0453285 -0.0658896 0.000291 -10.3328 0.0115217 -3.06705 2650 
45 1 0.0191501 -0.0206291 -0.0659984 0.000291 -3.83761 -0.569115 -1.11473 2650 
90 1 0.0269505 -0.0507094 -0.0623974 0.001058 -9.88255 -0.00750627 -4.28526 2650 
64 1 0.0265062 -0.0102058 -0.0636091 0.000105 -7.42675 -0.423812 -3.11112 2650 
289 1 0.0305503 -0.0222579 -0.0615519 0.000291 -8.37037 -0.0208394 -4.15633 2650 
171 1 0.0349429 -0.0447812 -0.0582883 0.001058 -9.38622 -0.0451882 -5.61406 2650 
219 1 0.035197 -0.000290955 -0.0590078 0.000291 -7.43531 -0.000534149 -4.42777 2650 
107 1 0.038065 -0.0379875 -0.0562737 0.001058 -8.71862 0.00559616 -5.89656 2650 
162 1 0.036399 -0.0345787 -0.0573688 0.001058 -8.23508 -0.0121097 -5.2292 2650 
204 1 0.0376907 -0.0291668 -0.0565338 0.001058 -8.06595 -0.0806457 -5.3846 2650 
43 1 0.0412208 -0.0426254 -0.0540136 0.001058 -8.43125 0.215723 -6.43374 2650 
34 1 0.0431729 -0.0307954 -0.05247 0.001058 -7.9931 -0.0235518 -6.57306 2650 
151 1 0.0437124 -0.0207941 -0.0529202 0.000291 -8.12342 -0.614638 -6.72207 2650 
60 1 0.0556408 -0.0124757 -0.0364073 0.001058 8.53927 -0.614196 -5.52989 2650 
214 1 0.0599274 -0.0514579 -0.0336411 0.000291 -5.12646 0.103005 -9.13246 2650 
15 1 0.0605824 -0.0159398 -0.0324584 0.000291 -4.22193 0.118148 -7.87743 2650 
247 1 0.0620104 -0.0395407 -0.0296127 0.000291 -4.38083 0.0113788 -9.16749 2650 
35 1 0.0639448 -0.0433197 -0.0230361 0.001058 -3.41059 0.232866 -9.38244 2650 
49 1 0.0637387 -0.0522211 -0.0218461 0.00164 -3.309 0.105675 -9.63859 2650 
179 1 0.064263 -0.0492934 -0.0221333 0.001058 -3.44442 0.0670991 -9.99998 2650 
59 1 0.0648537 -0.0475073 -0.0203521 0.001058 -3.07135 0.00491074 -9.80046 2650 
146 1 0.0643768 -0.0460543 -0.0218145 0.001058 -3.26376 0.108252 -9.63524 2650 
8 1 0.0661966 -0.0597931 -0.0190776 0.000105 -2.61635 0.149312 -9.10992 2650 
172 1 0.0651345 -0.0557 -0.0193542 0.001058 -2.813 0.0616737 -9.47816 2650 
138 1 0.0651562 -0.0514464 -0.0193231 0.001058 -2.91289 0.130337 -9.82386 2650 
254 1 0.0671876 -0.0556988 -0.0143821 0.000291 -2.16206 0.321329 -10.132 2650 
93 1 0.0673879 -0.0494883 -0.0134525 0.000291 -2.05174 0.108723 -10.2936 2650 
280 1 0.0665568 -0.0259719 -0.0136733 0.001058 -1.88497 0.0452278 -9.07331 2650 
252 1 0.00245 -0.00149652 -0.01336 0.001058 0 -0.011755 0 2650 
140 1 0.0671185 -0.0389527 -0.0105343 0.001058 -1.62165 -0.0316536 -10.3266 2650 
76 1 0.0670446 -0.0357205 -0.0109993 0.001058 -1.60918 0.786023 -9.80785 2650 
275 1 0.012705 -0.00213452 -0.010476 0.000291 0 -0.011755 0 2650 
184 1 0.0683696 -0.0180641 -0.00852296 0.000105 -0.939972 -0.285589 -7.48878 2650 
236 1 0.0674632 -0.0538189 -0.00812097 0.001058 -1.28107 -0.0874117 -10.5571 2650 
81 1 0.0670439 -0.0415816 -0.00659956 0.00164 -0.90373 0.0243111 -9.53641 2650 
150 1 0.0684865 -0.0305438 -0.00552014 0.000291 -0.827715 -0.0251995 -10.2697 2650 
278 1 7.4e-05 -0.00105452 -0.004448 0.001058 0 -0.011755 0 2650 
181 1 0.0685849 -0.0435768 -0.00314534 0.000291 -0.492755 0.483813 -10.6745 2650 
210 1 0.0678543 -0.0307513 -0.00356595 0.001058 -0.532229 0.0367533 -10.1527 2650 
227 1 0.00944 -0.00296752 -0.002109 0.000291 0 -0.011755 0 2650 
190 1 0.005899 -0.000265519 -0.000534 0.000291 0 -0.011755 0 2650 
202 1 0.00669978 -0.00185206 -0.000600119 0.001058 0.0093109 -0.00893593 -0.0136131 2650 
48 1 0.009671 -0.00237352 0.000233 0.000105 0 -0.011755 0 2650 
128 1 0.00361 -0.000666519 0.000511 0.000105 0 -0.011755 0 2650 
271 1 0.0135173 -0.000647429 0.00199735 0.001058 0.0150184 -0.010407 0.010297 2650 
294 1 0.00802491 -0.00265072 0.00348425 0.001058 0.0136556 -0.011638 -0.00128524 2650 
212 1 0.001087 -0.00214952 0.005915 0.000291 0 -0.011755 0 2650 
99 1 0.00570815 -0.00251662 0.00412745 0.001058 0.0107016 -0.0115374 0.00367132 2650 
24 1 0.005464 -0.00257752 0.005551 0.000105 0 -0.011755 0 2650 
51 1 0.009662 -0.00150452 0.004577 0.001058 0 -0.011755 0 2650 
259 1 0.0676566 -0.0306702 0.00629813 0.001058 0.939814 -0.0499011 -10.0761 2650 
145 1 0.00523383 -0.00171178 0.00709624 0.00164 0.00142123 -0.0121074 -0.00172265 2650 
222 1 0.009219 -0.000305519 0.006833 0.001058 0 -0.011755 0 2650 
3 1 0.00824738 -0.00329799 0.0127445 0.001058 -0.00211489 -0.0052299 0.000123346 2650 
218 1 0.0659353 -0.0454194 0.0164959 0.001058 2.58103 0.0663417 -10.3045 2650 
229 1 0.0640231 -0.0484651 0.0228237 0.001058 3.55466 -0.137985 -9.97093 2650 
231 1 0.0636236 -0.0159065 0.0239104 0.001058 1.23483 -0.571477 -3.26405 2650 
188 1 0.0624553 -0.0616469 0.0267612 0.001058 4.20697 -0.0045441 -9.81866 2650 
20 1 0.0610166 -0.0469266 0.0299529 0.001058 4.69429 -0.00473182 -9.56271 2650 
119 1 0.0611279 -0.0498732 0.0314185 0.000291 5.01915 0.0266433 -9.76694 2650 
120 1 0.011027 -0.0238715 0.0680067 0.000105 3.31716 -0.325367 -0.544782 2650 
296 1 0.061132 -0.00842657 0.0313856 0.000291 2.70376 -0.0956583 -5.34249 2650 
148 1 0.0584384 -0.0481622 0.0347068 0.001058 5.42419 0.00488223 -9.13387 2650 
193 1 0.0562705 -0.049287 0.037078 0.00164 5.81226 0.00137351 -8.82029 2650 
185 1 0.0571117 -0.046024 0.0357764 0.00164 5.61576 -0.00934853 -8.9651 2650 
30 1 0.0585956 -0.0325863 0.0358753 0.000291 5.03582 0.0770967 -8.22949 2650 
42 1 0.05568 -0.0511264 0.0389615 0.001058 6.1182 -0.018764 -8.74364 2650 
23 1 0.0561322 -0.0414563 0.0396381 0.000291 5.97678 0.148316 -8.46529 2650 
158 1 0.0571422 -0.0150744 0.0381802 0.000291 4.39333 0.296827 -6.59401 2650 
200 1 0.0563767 -0.00295108 0.0395958 0.000105 4.50005 -0.382839 -6.41817 2650 
22 1 0.0543059 -0.0156845 0.0421025 0.000291 5.06441 0.284457 -6.53083 2650 
285 1 0.0479858 -0.0213394 0.0481019 0.001058 4.00789 -0.0868214 -4.04715 2650 
228 1 0.0478581 -0.0207506 0.0493024 0.000291 5.06046 1.16996 -4.20863 2650 
132 1 0.0469994 -0.0179133 0.0490364 0.001058 6.53951 -0.0646159 -6.31857 2650 
108 1 0.0388165 -0.0338675 0.0557665 0.001058 8.28874 -0.0886335 -5.76884 2650 
267 1 0.0416402 -0.0106447 0.0546443 0.000291 4.79787 -0.0766833 -3.86563 2650 
251 1 0.0369547 -0.0279711 0.0570166 0.001058 8.31702 0.0125528 -5.38502 2650 
88 1 0.033562 -0.0161482 0.0601884 0.000105 6.74972 -0.739096 -3.7443 2650 
26 1 0.0254055 -0.0432146 0.063042 0.001058 9.83949 -0.122588 -3.96508 2650 
125 1 0.0279163 -0.0222217 0.0627923 0.000291 7.9775 -0.102181 -3.53688 2650 
253 1 0.0214039 -0.0167768 0.0653149 0.000291 8.98097 -0.236767 -2.94867 2650 
14 1 0.0123075 -0.0429097 0.0676089 0.000291 10.8608 0.405073 -1.97728 2650 
149 1 0.100223 -0.0309874 0.0668548 0.000291 9.93631 -0.0173562 -0.150613 2650 
122 1 0.0089402 -0.0259412 0.0673553 0.001058 9.47277 0.00769898 -1.26128 2650 
50 1 0.0100427 -0.0208691 0.067205 0.001058 9.02608 0.164224 -1.31116 2650 
102 1 0.0101987 -0.0160387 0.0679574 0.000291 8.42704 0.238146 -1.25959 2650 
18 1 0.00541455 -0.0149228 0.0677324 0.001058 7.65053 -0.361713 -0.61521 2650 
133 1 0.0170236 -0.0126464 0.0665863 0.000291 8.76354 -0.0358014 -2.239 2650 
37 1 0.006156 0.000132481 -0.015157 0.000291 0 -0.011755 0 2650 
78 1 0.001258 0.000118481 -0.012517 0.000291 0 -0.011755 0 2650 
232 1 0.00869633 0.0220715 -0.0130397 0.001058 -0.0291023 0.0299794 -0.00774462 2650 
127 1 0.00908436 0.0624442 -0.0128771 0.000291 0.0147798 0.0618117 0.0201086 2650 
87 1 0.00581239 0.00159719 -0.0117472 0.000291 -0.00318762 -0.017547 -0.0237996 2650 
134 1 0.00195528 0.00552641 -0.0116619 0.000291 -0.0128132 0.00355392 -0.00692922 2650 
301 1 0.00692984 0.034209 -0.011007 0.001058 0.00272587 0.0220862 -0.0290146 2650 
260 1 0.00831552 0.00475764 -0.00859034 0.000291 -0.00392275 0.00411325 -0.00447499 2650 
286 1 0.0136974 0.0188931 -0.00807763 0.001058 -0.0100351 0.050326 -0.0237317 2650 
19 1 0.0139577 0.00902522 -0.00672707 0.001058 -0.00189711 0.0050805 -0.00113271 2650 
77 1 0.00889321 0.0113132 -0.00785705 0.000291 0.0279429 0.00178097 -0.016803 2650 
284 1 0.0135921 0.0107757 -0.00748755 0.000291 -0.00371053 0.00586111 -0.00129449 2650 
38 1 0.000271788 0.0147422 -0.00678924 0.000291 0.0290333 0.00993382 0.0254358 2650 
153 1 0.00537267 0.00580383 -0.00411626 0.00164 0.00905173 -0.00370467 -0.0193596 2650 
203 1 0.00707534 0.0123811 -0.00422771 0.001058 0.0105265 0.0334803 0.00411967 2650 
113 1 0.00898225 0.00324141 -0.00209428 0.00164 -0.0251958 0.00978061 -0.000134024 2650 
161 1 0.0138163 0.00554695 -0.00315596 0.00164 -0.000454856 0.00568005 -0.00417258 2650 
279 1 0.00853837 0.00647776 -0.00332072 0.001058 0.00690887 -0.00122776 0.0071413 2650 
92 1 0.0114278 0.00670657 -0.00222961 0.001058 0.00298746 0.00292354 0.00546929 2650 
123 1 0.0154379 0.0220535 -0.00360969 0.001058 -0.0069266 0.0381635 -0.00768552 2650 
245 1 0.00408515 0.0747933 -0.00360517 0.001058 0.013355 0.0538623 -0.0223836 2650 
176 1 0.00763147 0.000146691 -0.00115354 0.000105 0.0200199 0.000256501 -0.0124767 2650 
101 1 0.00792408 0.000988782 -0.000225465 0.000291 0.0107852 -0.0015929 -0.0095042 2650 
1 1 0.0147714 0.00464552 -8.5591e-05 0.00164 0.00679448 0.00399547 -0.00426821 2650 
199 1 0.0159712 0.00467733 -0.00188469 0.000291 0.0109742 0.00200452 -0.0116559 2650 
194 1 0.0148745 0.019988 -0.00128271 0.001058 -0.00717738 0.0355954 0.00284246 2650 
195 1 0.0157406 0.000325732 0.00148991 0.001058 0.0016716 3.41696e-05 -0.031197 2650 
258 1 0.0151895 0.0205182 0.00134943 0.001058 -0.00702738 0.0458888 -0.00817646 2650 
292 1 0.00854555 0.0360208 9.86171e-05 0.001058 -0.0104367 0.0376087 -0.0291473 2650 
9 1 0.013777 0.018239 0.00206717 0.00164 -0.00067168 0.0470366 0.00650688 2650 
249 1 0.00193656 0.0277276 0.00228684 0.000291 0.00987628 0.0185258 -0.0129358 2650 
54 1 0.015886 0.0329652 0.00238551 0.000291 0.0125428 0.00255638 -0.0492536 2650 
52 1 0.00522751 0.0357857 0.00305571 0.001058 0.0258261 0.0380708 0.00407144 2650 
79 1 0.014214 0.000335481 0.005058 0.000291 0 -0.011755 0 2650 
105 1 0.00851607 0.0138351 0.00531577 0.00164 0.000597876 0.0137471 0.023702 2650 
139 1 0.0149357 0.0219874 0.00542782 0.001058 -0.0138539 0.00679752 0.0124887 2650 
57 1 0.0060132 0.0245509 0.00444629 0.00164 -0.000919831 0.00616449 -0.024056 2650 
180 1 0.014741 0.0555117 0.00573318 0.001058 -0.021353 0.059502 0.0510683 2650 
112 1 0.013668 0.000658481 0.007002 0.000105 0 -0.011755 0 2650 
156 1 0.00901212 0.0113557 0.00692851 0.001058 0.0107441 -0.0117541 0.0077951 2650 
116 1 0.00542243 0.040224 0.00837872 0.001058 -0.0278213 0.0454338 0.0115295 2650 
298 1 0.0114672 0.00452032 0.0103972 0.000105 0.00377194 -0.00442838 -0.00799766 2650 
238 1 0.00610288 0.0365658 0.0103426 0.001058 0.0207771 0.0325148 -0.00733364 2650 
265 1 0.00759877 0.0097937 0.0125891 0.001058 0.011667 0.00657701 -0.00499144 2650 
66 1 0.010002 0.00828246 0.0122906 0.001058 0.00274751 -0.000835425 -0.00507484 2650 
70 1 0.00376872 0.0302679 0.0137985 0.000291 0.000986621 0.0559838 -0.0454673 2650 
95 1 0.00664298 0.00101014 0.014825 0.000291 -0.000366951 -0.00495937 0.00220646 2650 
17 1 0.00492338 0.0373385 0.0143695 0.00164 0.0376416 0.0401338 -0.0168703 2650 
