ITEM: TIMESTEP
23707877
ITEM: NUMBER OF ATOMS
258
ITEM: BOX BOUNDS ff ff ff
-0.15 0.15
-0.15 0.15
-0.15 0.15
ITEM: ATOMS id type x y z radius vx vy vz density 
212 1 -0.00676153 -0.0147823 -0.0683559 0.000291 -10.384 -0.0190374 1.025 2650 
85 1 -0.00216073 -0.0154525 -0.0686342 0.000291 -10.2701 0.327604 0.318573 2650 
88 1 -0.00651951 -0.00749973 -0.068572 0.000105 -9.32288 0.322568 0.884094 2650 
100 1 -0.0165741 -0.0193701 -0.06591 0.001058 -10.3179 -2.29947e-05 2.59365 2650 
98 1 -0.0134723 -0.0185955 -0.0666065 0.001058 -10.5442 -0.0210718 2.13329 2650 
104 1 -0.0176201 -0.0170321 -0.0666217 0.000105 -10.6455 0.458772 2.81129 2650 
16 1 -0.0177591 -0.00673681 -0.0665648 0.000105 -10.6869 0.527793 2.84717 2650 
107 1 -0.0207554 -0.0489986 -0.0647238 0.001058 -10.1651 -0.0153016 3.25979 2650 
133 1 -0.0227927 -0.0263813 -0.0648137 0.000291 -9.96144 -0.182129 3.50385 2650 
37 1 -0.021706 -0.0226854 -0.0651979 0.000291 -9.99758 -0.324541 3.32813 2650 
94 1 -0.02379 -0.017284 -0.0644819 0.000291 -10.295 0.0107368 3.79799 2650 
304 1 -0.0235092 -0.0152141 -0.0645889 0.000291 -9.58375 0.0906329 3.48568 2650 
39 1 -0.0297139 -0.0436616 -0.0619738 0.000291 -9.53709 0.137083 4.57317 2650 
126 1 -0.0257327 -0.029162 -0.0637045 0.000291 -9.52174 -0.187489 3.84773 2650 
64 1 -0.0302935 -0.0105952 -0.0618956 0.000105 -10.0958 -0.360966 4.93896 2650 
227 1 -0.0352432 -0.0468578 -0.0589977 0.000291 -9.34372 0.069282 5.58147 2650 
177 1 -0.0337354 -0.0179372 -0.0583404 0.00164 -9.12262 -0.0315049 5.27734 2650 
102 1 -0.03621 -0.0171554 -0.0584132 0.000291 -9.07217 0.478976 5.62231 2650 
252 1 -0.0358501 -0.0159625 -0.0577421 0.001058 -9.04745 -0.0185537 5.61711 2650 
240 1 -0.0386321 -0.0342463 -0.0568156 0.000291 -8.77023 -0.258897 5.96236 2650 
235 1 -0.0391543 -0.0190953 -0.0564739 0.000291 -9.05479 -0.399015 6.27819 2650 
167 1 -0.0391186 -0.0185137 -0.0564985 0.000291 -9.07927 -0.395566 6.28688 2650 
276 1 -0.0428222 -0.0322672 -0.0537317 0.000291 -8.36004 0.0027124 6.6619 2650 
110 1 -0.0416729 -0.00776168 -0.0546311 0.000291 -7.37129 -0.259426 5.62047 2650 
253 1 -0.0453488 -0.0227682 -0.0516155 0.000291 -8.2887 -0.0552382 7.28165 2650 
210 1 -0.0457047 -0.0342031 -0.0502755 0.001058 -7.85259 0.0315568 7.13918 2650 
241 1 -0.0488801 -0.0378585 -0.0482877 0.000291 -7.58812 0.263501 7.68126 2650 
251 1 -0.0480066 -0.030875 -0.0482783 0.001058 -7.58354 -2.12562e-08 7.54086 2650 
206 1 -0.0503867 -0.062509 -0.046714 0.000291 -7.33779 1.86264e-09 7.9147 2650 
169 1 -0.0490847 -0.0611601 -0.0461516 0.00164 -7.24942 4.57202e-07 7.71015 2650 
246 1 -0.0496006 -0.0585276 -0.0464396 0.001058 -7.2949 -1.66622e-05 7.79144 2650 
145 1 -0.048913 -0.039295 -0.0463307 0.00164 -7.27538 -0.00396582 7.68101 2650 
25 1 -0.0511121 -0.0588111 -0.043893 0.00164 -6.89473 -5.7852e-05 8.02872 2650 
207 1 -0.0528375 -0.0138726 -0.043925 0.000291 -6.98888 0.0888428 8.40706 2650 
178 1 -0.0525972 -0.0567366 -0.0430156 0.001058 -6.7569 -4.15854e-05 8.26197 2650 
182 1 -0.0541242 -0.0157354 -0.0423352 0.000291 -5.73944 -0.102299 7.34087 2650 
275 1 -0.0557451 -0.0141752 -0.0401865 0.000291 -6.49954 -0.0289543 9.01702 2650 
103 1 -0.0571074 -0.0481925 -0.0382338 0.000291 -5.9956 -0.269282 8.95525 2650 
87 1 -0.0594891 -0.0174934 -0.0344176 0.000291 -5.26789 0.00201066 9.10856 2650 
291 1 -0.0606603 -0.0452606 -0.0323169 0.000291 -5.12974 0.105751 9.62629 2650 
231 1 -0.0594741 -0.0448655 -0.0329012 0.001058 -5.16201 -0.0292355 9.33201 2650 
45 1 -0.0601818 -0.0161465 -0.0331964 0.000291 -4.53943 0.238972 8.22927 2650 
118 1 -0.06312 -0.0194783 -0.0271897 0.000291 -3.96167 -0.237698 9.2019 2650 
268 1 -0.0644612 -0.0144732 -0.0238561 0.000291 -3.78831 -0.194117 10.2381 2650 
296 1 -0.0640294 -0.0123212 -0.0249843 0.000291 -3.41393 0.00501237 8.73077 2650 
175 1 -0.0644086 -0.0105676 -0.0239765 0.000291 -3.23865 -0.0112319 8.69467 2650 
190 1 -0.0638626 -0.00807173 -0.0253709 0.000291 -3.35301 0.145209 8.42959 2650 
137 1 -0.0653066 -0.0611601 -0.0165582 0.00164 -2.60083 -8.16432e-07 10.2578 2650 
164 1 -0.0661087 -0.0469771 -0.0157832 0.001058 -2.49574 -0.020039 10.4412 2650 
226 1 -0.0668086 -0.045089 -0.0161266 0.000291 -2.54088 -0.0358178 10.5298 2650 
6 1 -0.0664803 -0.0143944 -0.0174246 0.000291 -2.40959 -0.0141598 9.16534 2650 
303 1 -0.0669848 -0.0153609 -0.0153252 0.000291 -2.3392 -0.0706718 10.2055 2650 
71 1 -0.000291253 -0.0022192 -0.0144988 0.000291 0.000861808 -0.00718564 -0.0173142 2650 
3 1 -0.0668244 -0.0308195 -0.0123614 0.001058 -1.94052 -0.00238752 10.49 2650 
74 1 -0.00770685 -0.00199178 -0.0130758 0.001058 0.00552843 -0.00502923 -0.00272883 2650 
202 1 -0.0672004 -0.0309817 -0.010093 0.001058 -1.5883 0.00596573 10.5777 2650 
168 1 -0.0683438 -0.0326465 -0.0086723 0.000105 -1.31465 -0.411573 10.3691 2650 
132 1 -0.0675168 -0.0224137 -0.00756394 0.001058 -1.18358 -0.0488144 10.5621 2650 
135 1 -0.00646885 -0.00318935 -0.00871546 0.000291 0.00330025 -0.00264717 0.00636962 2650 
255 1 -0.0686285 -0.0162259 -0.00238284 0.000291 -0.330197 -0.103656 9.83054 2650 
150 1 -0.0687083 -0.0334123 0.000404381 0.000291 0.0632249 0.0300701 10.7644 2650 
285 1 -0.0680838 -0.030875 -0.000192125 0.001058 -0.0301791 -2.12563e-08 10.6946 2650 
269 1 -0.068688 -0.0148643 -0.00110284 0.000291 -0.141717 -0.207799 10.1107 2650 
209 1 -0.0104798 -0.00234278 0.0118672 0.001058 0.0126255 -0.0178894 0.0117147 2650 
95 1 -0.00370712 -0.000169379 0.0103613 0.000291 -0.0190214 0.000188354 -0.00919676 2650 
109 1 -0.0669237 -0.050178 0.0156337 0.000291 2.45211 0.0362136 10.4971 2650 
84 1 -0.0656521 -0.0510311 0.0175754 0.001058 2.76047 0.00198125 10.3115 2650 
290 1 -0.0664719 -0.0487606 0.0174705 0.000291 2.74422 0.000552376 10.4412 2650 
264 1 -0.065481 -0.048242 0.0182247 0.001058 2.86276 2.42585e-05 10.2858 2650 
61 1 -0.0667028 -0.0213084 0.0165273 0.000291 2.3536 0.137474 9.52109 2650 
287 1 -0.0651186 -0.0499115 0.0194732 0.001058 3.05887 1.37775e-05 10.2289 2650 
215 1 -0.0639178 -0.0485425 0.0231219 0.001058 3.63199 -7.38113e-06 10.0402 2650 
181 1 -0.0643374 -0.0478303 0.024188 0.000291 3.7992 0.000798338 10.1055 2650 
83 1 -0.0598499 -0.0499894 0.0322115 0.001058 5.05846 0.00049048 9.39864 2650 
272 1 -0.0585028 -0.0488313 0.0345973 0.001058 5.44985 0.0268467 9.21759 2650 
89 1 -0.0558813 -0.0611601 0.037636 0.00164 5.91202 2.87158e-07 8.77805 2650 
47 1 -0.0576907 -0.0127313 0.0373264 0.000291 5.01795 -0.142021 7.75338 2650 
229 1 -0.049172 -0.0616289 0.0468941 0.001058 7.36614 9.92848e-05 7.72395 2650 
280 1 -0.0482792 -0.0308793 0.0480073 0.001058 7.54097 1.05769e-05 7.58368 2650 
300 1 -0.0494904 -0.0258561 0.0465408 0.001058 7.39872 -0.039088 7.86751 2650 
18 1 -0.0486348 -0.0227756 0.0474494 0.001058 7.51241 -0.004115 7.70231 2650 
174 1 -0.0474298 -0.0295219 0.0497105 0.000291 7.85249 0.127134 7.4918 2650 
204 1 -0.0451589 -0.0312698 0.0507701 0.001058 7.97505 0.000678173 7.09362 2650 
152 1 -0.0454826 -0.0132384 0.0517468 0.000105 8.23709 0.954599 7.24173 2650 
73 1 -0.0394346 -0.0581483 0.0546203 0.00164 8.5794 0.000842234 6.19414 2650 
141 1 -0.0397346 -0.0379957 0.0560563 0.000291 8.81048 -0.0296492 6.24498 2650 
86 1 -0.0397844 -0.0329558 0.0560159 0.000291 8.74716 0.0684841 6.21248 2650 
196 1 -0.0358637 -0.0477902 0.0577336 0.001058 9.06576 0.0255784 5.63144 2650 
281 1 -0.034544 -0.0622793 0.059419 0.000291 9.33032 -1.83053e-06 5.42431 2650 
99 1 -0.033938 -0.0484449 0.0588892 0.001058 9.24984 -0.00127453 5.33068 2650 
121 1 -0.0312317 -0.0458186 0.0597223 0.00164 9.38086 -0.000541323 4.9057 2650 
2 1 -0.0311805 -0.0493573 0.0603954 0.001058 9.48678 -0.000335155 4.89777 2650 
243 1 -0.0298302 -0.0508399 0.0610703 0.001058 9.59284 -0.000287607 4.68568 2650 
201 1 -0.0281538 -0.0455107 0.0612354 0.00164 9.61882 2.29336e-05 4.42239 2650 
60 1 -0.0273918 -0.0431111 0.0622048 0.001058 9.77097 8.20672e-05 4.30264 2650 
278 1 -0.0282425 -0.0333991 0.0617962 0.001058 9.69161 -0.0373197 4.42935 2650 
259 1 -0.0292384 -0.0308993 0.0613585 0.001058 9.63759 -8.58697e-05 4.59248 2650 
122 1 -0.0293368 -0.0287871 0.0612832 0.001058 9.62642 -4.29897e-05 4.60826 2650 
213 1 -0.0273795 -0.047611 0.0630458 0.000291 9.96372 0.0457958 4.32753 2650 
108 1 -0.0251526 -0.0480199 0.063148 0.001058 9.92092 0.000378087 3.95167 2650 
36 1 -0.0224745 -0.0484554 0.0641489 0.001058 10.0763 1.99139e-05 3.53023 2650 
140 1 -0.023638 -0.0466005 0.0637308 0.001058 10.0101 -0.00270327 3.71271 2650 
79 1 -0.0275974 -0.0372341 0.0629243 0.000291 9.79819 -0.194096 4.29763 2650 
24 1 -0.0267153 -0.0204439 0.0635197 0.000105 9.89226 -0.0331322 4.16066 2650 
119 1 -0.0209761 -0.0503277 0.0654488 0.000291 10.261 -0.00664107 3.28869 2650 
239 1 -0.0183266 -0.0500792 0.0654493 0.001058 10.2815 -0.000937575 2.87892 2650 
191 1 -0.0236779 -0.0479758 0.0645267 0.000291 10.1361 -0.00044272 3.71942 2650 
230 1 -0.0204849 -0.0487438 0.0648088 0.001058 10.18 5.19442e-05 3.21772 2650 
288 1 -0.019517 -0.0489811 0.0659012 0.000291 10.3332 -0.00811806 3.06011 2650 
15 1 -0.0227043 -0.0193168 0.0648696 0.000291 10.2386 0.176279 3.58351 2650 
131 1 -0.00876986 -0.0484659 0.0673861 0.001058 10.585 0.000796582 1.37758 2650 
50 1 -0.0124406 -0.0448096 0.0668125 0.001058 10.5676 0.00781748 1.96772 2650 
82 1 -0.00120471 -0.0420396 0.0679374 0.001058 10.6709 -0.000303413 0.189213 2650 
184 1 -0.015104 -0.0197244 0.067231 0.000105 10.7271 0.0715724 2.40953 2650 
294 1 -0.000192125 -0.030875 0.0680838 0.001058 10.6946 -2.12563e-08 0.0301791 2650 
80 1 -0.000793759 0.0271168 -0.0167135 0.000105 0.0200839 0.0212335 0.00050358 2650 
58 1 -9.30962e-05 0.000330232 -0.0153274 0.001058 0.0223166 0.00414419 0.0109308 2650 
134 1 -0.0066722 0.0083634 -0.0140723 0.000291 -0.00544633 0.00352621 0.00729171 2650 
97 1 -0.000147798 0.0121721 -0.0153088 0.00164 0.0193897 0.00868708 -0.000468074 2650 
293 1 -0.00563944 0.0395085 -0.0147674 0.001058 -0.0904306 -0.017923 0.0381447 2650 
286 1 -0.00252109 0.0573677 -0.0155114 0.001058 -0.0224686 0.0460898 0.00428948 2650 
54 1 -0.00900638 0.0320411 -0.0139777 0.000291 -0.0366831 -0.00207303 0.0272445 2650 
292 1 -0.00226882 0.0652778 -0.0127401 0.001058 -0.0198756 0.0344324 0.0109755 2650 
10 1 -0.0106049 0.0114247 -0.0115176 0.001058 0.0053433 0.0061558 -0.0070677 2650 
232 1 -0.0118817 0.0449217 -0.0103578 0.001058 -0.0196298 0.0266647 0.016804 2650 
301 1 -0.00492267 0.047902 -0.0116808 0.001058 -0.0176549 0.0163122 0.00371725 2650 
130 1 -0.00899068 0.00409657 -0.00851852 0.001058 -0.00692202 0.00347734 0.00595777 2650 
51 1 -0.00958981 0.0287833 -0.00894015 0.001058 2.58043e-05 0.0308241 0.0288994 2650 
113 1 -0.00486385 0.00510038 -0.00230834 0.00164 -0.0131936 -0.00156564 -0.00033725 2650 
129 1 -0.00210589 0.0150854 -0.00367738 0.00164 -0.00374589 0.0128173 -0.00288427 2650 
67 1 -0.0151251 0.0242139 -0.00389617 0.001058 -0.00153648 0.0116126 0.0141107 2650 
7 1 -0.00166939 0.0366499 -0.00342834 0.000291 0.00378858 0.0136367 -0.000251809 2650 
65 1 -0.0146576 0.0340163 -0.000806165 0.00164 0.00199904 0.0128894 0.00103488 2650 
217 1 -0.00891191 0.0575091 0.00344292 0.001058 0.000747792 0.0265619 -0.00553463 2650 
234 1 -0.0136814 0.0126078 0.00417281 0.000291 -0.00131366 0.00431637 0.0126772 2650 
222 1 -0.0114373 0.00230659 0.00798655 0.001058 -0.0324875 0.00467874 -0.0112895 2650 
205 1 -0.0119837 0.00424916 0.00684425 0.000291 -0.00881861 0.00364628 0.0236275 2650 
256 1 -0.0153142 0.0308225 0.00662971 0.000291 0.00177718 0.0215424 0.00440949 2650 
211 1 -0.0119013 0.00804367 0.00874165 0.001058 0.000982608 0.00314487 0.00709992 2650 
115 1 -0.0129698 0.0224716 0.00871466 0.001058 0.0059455 0.0116516 0.00703082 2650 
224 1 -0.00742493 0.0173109 0.0101994 0.001058 0.0046856 0.00178326 -0.00382818 2650 
187 1 -0.0117809 0.0331759 0.0107352 0.001058 0.00749407 0.0151236 0.010031 2650 
299 1 -0.00362586 0.000289121 0.0132412 0.001058 0.00581403 -0.00322581 0.00124072 2650 
220 1 -0.00896076 0.0324254 0.0126105 0.000291 0.00991537 0.0130183 0.0124552 2650 
4 1 -0.00511266 0.00906688 0.0149401 0.001058 0.00673868 0.000863758 0.00176759 2650 
244 1 -0.0010713 0.0244731 0.0154634 0.001058 0.0359853 0.021076 -0.00170709 2650 
28 1 -0.00652835 0.0817447 0.0105756 0.001058 0.00734507 0.0503926 0.00344867 2650 
302 1 -7.89722e-05 -0.0436437 -0.0687094 0.000291 -11.1802 0.276099 0.0127845 2650 
44 1 0.000192125 -0.030875 -0.0680838 0.001058 -10.6946 -2.12563e-08 -0.0301791 2650 
128 1 0.0105891 -0.00570186 -0.0680763 0.000105 -8.62422 -0.330307 -1.33704 2650 
23 1 0.0222884 -0.0493084 -0.065017 0.000291 -10.2702 0.00229665 -3.51969 2650 
76 1 0.02231 -0.0465845 -0.0642074 0.001058 -10.1196 -0.00125413 -3.51633 2650 
228 1 0.0205433 -0.0129941 -0.0655882 0.000291 -9.68002 0.0772923 -3.03168 2650 
90 1 0.0232306 -0.0495008 -0.0638773 0.001058 -10.0344 0.00441094 -3.64924 2650 
171 1 0.0253068 -0.0495018 -0.0630836 0.001058 -9.91577 -0.00606106 -3.97791 2650 
225 1 0.0242454 -0.0476824 -0.0635018 0.001058 -9.97672 0.00521739 -3.80922 2650 
261 1 0.0279042 -0.0337365 -0.0627812 0.000291 -9.63283 0.124306 -4.28153 2650 
21 1 0.0294646 -0.0490528 -0.0620963 0.000291 -9.74763 0.0123573 -4.62529 2650 
14 1 0.0306261 -0.0415009 -0.0615229 0.000291 -9.50905 0.37887 -4.7329 2650 
40 1 0.0308292 -0.000104996 -0.0616101 0.000105 -8.39814 -2.00636e-08 -4.20697 2650 
219 1 0.0310155 -0.000290957 -0.0613095 0.000291 -8.36795 0.000431924 -4.23575 2650 
22 1 0.033602 -0.0256511 -0.0599291 0.000291 -9.61962 0.0619915 -5.391 2650 
46 1 0.0359126 -0.0169181 -0.0585915 0.000291 -9.34042 0.320681 -5.72266 2650 
173 1 0.0377121 -0.0179391 -0.0574399 0.000291 -9.28225 -0.0131389 -6.09363 2650 
223 1 0.0380439 -0.019459 -0.0563101 0.001058 -8.84959 0.0112773 -5.97899 2650 
117 1 0.0394526 -0.0152941 -0.0562534 0.000291 -9.22012 -0.0469222 -6.47579 2650 
186 1 0.0420043 -0.0244486 -0.0534084 0.001058 -8.4028 0.0452359 -6.60887 2650 
208 1 0.0482791 -0.0308698 -0.0480072 0.001058 -7.54096 6.35555e-08 -7.58367 2650 
257 1 0.0590549 -0.048875 -0.033647 0.001058 -5.28538 0.000532387 -9.27654 2650 
49 1 0.0600514 -0.0490853 -0.0305938 0.00164 -4.80566 -0.000128838 -9.43283 2650 
93 1 0.0622585 -0.0493416 -0.0291185 0.000291 -4.57388 -0.000731217 -9.77947 2650 
165 1 0.0621865 -0.045706 -0.0292781 0.000291 -4.59908 -0.000179144 -9.76842 2650 
179 1 0.0619807 -0.0488287 -0.0279021 0.001058 -4.38291 -0.000261422 -9.73604 2650 
59 1 0.0617788 -0.0465968 -0.0283507 0.001058 -4.45329 2.15134e-05 -9.70413 2650 
271 1 0.0648362 -0.0188828 -0.0203869 0.001058 -2.4867 -0.506749 -7.89011 2650 
170 1 0.0654021 -0.0148451 -0.018494 0.001058 -1.86108 0.1329 -6.58486 2650 
248 1 0.0667521 -0.0229602 -0.0163064 0.000291 -2.58109 0.167842 -10.5686 2650 
295 1 0.0677179 -0.024836 -0.0116261 0.000291 -1.83637 -0.0436595 -10.6991 2650 
55 1 0.0676599 -0.0116661 -0.0120261 0.000291 -1.76407 -0.437715 -9.88955 2650 
146 1 0.0672291 -0.0488611 -0.00990148 0.001058 -1.55526 -3.54738e-05 -10.5599 2650 
214 1 0.0681927 -0.0591113 -0.00836693 0.000291 -1.34094 0.0736095 -10.9456 2650 
138 1 0.0674703 -0.055989 -0.00803105 0.001058 -1.26187 0.00474196 -10.6018 2650 
277 1 0.0682922 -0.0337909 -0.00754906 0.000291 -1.19311 -0.137778 -10.7955 2650 
101 1 0.0143868 -0.000178273 -0.00677733 0.000291 -0.00701612 -0.000711223 -0.000860441 2650 
29 1 0.0684557 -0.0138799 -0.00591297 0.000291 -0.886823 0.280674 -10.238 2650 
159 1 0.068338 -0.0353853 0.00710149 0.000291 1.10588 0.114238 -10.6651 2650 
270 1 0.0674755 -0.0255458 0.012921 0.000291 1.82326 0.20053 -9.51914 2650 
250 1 0.00524936 -0.00329866 0.0148943 0.001058 0.0140228 -0.00572362 -0.00701528 2650 
236 1 0.0656641 -0.061641 0.0174656 0.001058 2.74332 0.00011945 -10.3138 2650 
247 1 0.0630277 -0.0496605 0.0274119 0.000291 4.30583 -0.000147896 -9.90031 2650 
221 1 0.0630447 -0.026841 0.0273055 0.000291 3.87671 0.0212041 -8.94869 2650 
188 1 0.0615175 -0.061639 0.0288531 0.001058 4.53227 -0.000106609 -9.66323 2650 
254 1 0.0626479 -0.0503205 0.0282666 0.000291 4.44198 -0.000127447 -9.84008 2650 
218 1 0.0619203 -0.0492068 0.0280344 0.001058 4.40367 0.000182843 -9.72648 2650 
112 1 0.0617482 -0.0280217 0.0305456 0.000105 4.68148 -0.577258 -9.46149 2650 
148 1 0.0595237 -0.0531335 0.0327919 0.001058 5.15096 -5.32121e-05 -9.34998 2650 
35 1 0.0599547 -0.0508738 0.0320113 0.001058 5.02837 4.28154e-05 -9.41775 2650 
43 1 0.0584683 -0.0500923 0.0346528 0.001058 5.44322 0.00141409 -9.18405 2650 
192 1 0.0600632 -0.000104996 0.0337437 0.000105 4.55665 4.1475e-08 -8.10569 2650 
20 1 0.0570954 -0.0555176 0.0368441 0.001058 5.78742 -0.000848673 -8.96847 2650 
172 1 0.0560151 -0.0546995 0.0384693 0.001058 6.0428 -0.000434872 -8.79893 2650 
193 1 0.055534 -0.0498677 0.0381685 0.00164 5.99543 -4.94927e-05 -8.72317 2650 
42 1 0.0541854 -0.0548059 0.0410028 0.001058 6.4407 7.5078e-05 -8.51141 2650 
81 1 0.0527428 -0.050012 0.0419281 0.00164 6.58613 0.000390792 -8.2849 2650 
162 1 0.0533132 -0.0473832 0.0421356 0.001058 6.61863 0.000404845 -8.37439 2650 
185 1 0.0501964 -0.0518693 0.044938 0.00164 7.0588 4.17065e-05 -7.88477 2650 
34 1 0.0480066 -0.030875 0.0482783 0.001058 7.58354 -2.12562e-08 -7.54086 2650 
282 1 0.0366093 -0.023914 0.0581476 0.000291 8.50572 -0.387795 -5.36663 2650 
96 1 0.0364338 -0.0127327 0.0584815 0.000105 7.56219 -0.0702236 -4.69724 2650 
48 1 0.033741 -0.0484079 0.0600875 0.000105 9.1565 0.0800891 -5.14313 2650 
267 1 0.0334958 -0.0211688 0.060004 0.000291 8.65264 -0.00312944 -4.83038 2650 
125 1 0.029804 -0.0367197 0.0619068 0.000291 9.92307 -0.0720068 -4.77674 2650 
158 1 0.0285749 -0.0154615 0.0625129 0.000291 8.96496 0.0489031 -4.09817 2650 
26 1 0.017058 -0.0495443 0.0657915 0.001058 10.3345 -3.636e-05 -2.67946 2650 
78 1 0.0235244 -0.0336761 0.0645514 0.000291 10.3994 0.255999 -3.78738 2650 
200 1 0.0249362 -0.0144057 0.0642491 0.000105 8.92736 0.262178 -3.46751 2650 
197 1 0.0136383 -0.010574 0.0673542 0.000291 7.95542 -0.0097993 -1.62044 2650 
198 1 0.0010941 0.00291766 -0.0164012 0.000291 -0.0296253 0.00903644 -0.00211577 2650 
195 1 0.00199005 0.00211438 -0.0155807 0.001058 -0.0272585 0.00295666 -0.00563484 2650 
57 1 0.00510371 0.029437 -0.0142477 0.00164 -0.0109255 0.00355641 0.00766412 2650 
260 1 0.00431536 0.00878623 -0.0125311 0.000291 -0.00996736 0.00469349 0.00488237 2650 
114 1 0.00617408 0.0156164 -0.0101127 0.001058 0.0187062 0.0117361 -0.00752779 2650 
33 1 0.00462398 0.0376338 -0.0107184 0.00164 0.00603998 0.0215627 0.00352792 2650 
153 1 0.00626842 0.0036939 -0.00955664 0.00164 -0.00763413 -0.0014489 0.00703428 2650 
284 1 0.0106237 0.0154645 -0.00852312 0.000291 -0.00371053 0.00586111 -0.00129449 2650 
249 1 0.00983748 0.042548 -0.00806165 0.000291 0.00987628 0.0185258 -0.0129358 2650 
123 1 0.00989672 0.0525839 -0.00975802 0.001058 -0.0069266 0.0381635 -0.00768552 2650 
199 1 0.0114012 0.00630433 -0.0077268 0.000291 -0.0066469 0.00203541 -0.00705897 2650 
161 1 0.0134524 0.0100909 -0.00649398 0.00164 -0.000454856 0.00568005 -0.00417258 2650 
19 1 0.01244 0.0130896 -0.00763323 0.001058 -0.00189711 0.0050805 -0.00113271 2650 
176 1 0.0110863 0.000922498 -0.00584817 0.000105 -0.0113334 0.00168079 0.000719247 2650 
258 1 0.00956768 0.0572288 -0.00519166 0.001058 -0.00702738 0.0458888 -0.00817646 2650 
52 1 0.0130504 0.0573839 -0.00422111 0.001058 -0.00702953 0.0194323 -0.0174178 2650 
1 1 0.0124426 0.00750114 -0.00362202 0.00164 -0.00396175 0.00352346 -0.00443708 2650 
77 1 0.00548585 0.0121745 -0.00366605 0.000291 -0.0117356 0.000913058 0.0103562 2650 
203 1 0.0154964 0.039165 -0.000932018 0.001058 0.0105265 0.0334803 0.00411967 2650 
106 1 0.0049542 0.0407965 0.0014851 0.001058 0.0119634 0.0223893 -0.0027555 2650 
194 1 0.00913266 0.0484639 0.000991231 0.001058 -0.00717738 0.0355954 0.00284246 2650 
238 1 0.0140303 0.0590971 0.000275483 0.001058 -0.00137728 0.0257105 -0.0165728 2650 
298 1 0.0144847 0.000977662 0.00399911 0.000105 0.00377194 -0.00442838 -0.00799766 2650 
279 1 0.0140654 0.00549557 0.00239224 0.001058 0.00690887 -0.00122776 0.0071413 2650 
92 1 0.0138177 0.00904537 0.00214576 0.001058 0.00298746 0.00292354 0.00546929 2650 
156 1 0.0109688 0.00328847 0.00668005 0.001058 -0.00386139 -0.00886559 -0.00604091 2650 
68 1 0.00012747 0.00498801 0.00784658 0.001058 0.00272783 -0.00342387 -0.00169301 2650 
265 1 0.0144491 0.0147596 0.00656584 0.001058 0.00631372 0.00593974 -0.00936806 2650 
9 1 0.0132396 0.0558678 0.00727261 0.00164 -0.00067168 0.0470366 0.00650688 2650 
273 1 0.000644983 0.0701652 0.00737512 0.001058 0.00511 0.0387776 -0.00978519 2650 
66 1 0.0113513 0.00755439 0.00935817 0.001058 0.00109107 -0.000952032 -0.00287426 2650 
38 1 0.00971244 0.0209011 0.0086551 0.000291 -0.0203804 0.00352473 0.00785771 2650 
105 1 0.00502644 0.0215692 0.0104336 0.00164 -0.00344466 0.00582004 -0.00613861 2650 
41 1 0.00092335 0.0235448 0.0115209 0.00164 -0.00672013 0.00866437 -0.0057422 2650 
144 1 0.00320523 0.0270813 0.0118458 0.000105 0.0152864 0.0109644 -0.00695946 2650 
147 1 0.00954536 0.0445076 0.0125129 0.001058 0.030812 0.00832408 -0.0230623 2650 
266 1 0.00314952 0.0171712 0.0153995 0.001058 0.0339312 0.0111352 -0.00649733 2650 
139 1 0.00385272 0.0274254 0.0154187 0.001058 -0.0138539 0.00679752 0.0124887 2650 
242 1 0.00567186 0.0468675 0.0140564 0.000291 0.0116924 0.0265357 0.00697501 2650 
124 1 0.00417543 0.06246 0.0149401 0.001058 0.0237177 0.0354635 -0.00375445 2650 
157 1 0.0024678 0.101352 -0.0132929 0.000291 0.0079085 0.0606548 0.000918149 2650 
