ITEM: TIMESTEP
20250493
ITEM: NUMBER OF ATOMS
264
ITEM: BOX BOUNDS ff ff ff
-0.15 0.15
-0.15 0.15
-0.15 0.15
ITEM: ATOMS id type x y z radius vx vy vz density 
277 1 -0.0098946 -0.0356597 -0.0679919 0.000291 -10.1331 0.203833 1.47811 2650 
270 1 -0.00362069 -0.00726673 -0.0685783 0.000291 -8.25835 -0.379946 0.467505 2650 
112 1 -0.00727786 -0.00471641 -0.0685028 0.000105 -11.5455 -0.372981 1.2198 2650 
39 1 -0.0182191 -0.0434576 -0.066269 0.000291 -10.7143 0.130319 2.94672 2650 
302 1 -0.0106597 -0.0408755 -0.0678839 0.000291 -10.1087 0.621293 1.58596 2650 
88 1 -0.0197121 -0.0241793 -0.0660153 0.000105 -8.64345 -0.434386 2.58121 2650 
186 1 -0.0105293 -0.0182393 -0.0671177 0.001058 -9.94736 0.0704537 1.55733 2650 
255 1 -0.0180434 -0.0130423 -0.0663168 0.000291 -9.67514 0.186611 2.63034 2650 
271 1 -0.0134476 -0.0128652 -0.0666139 0.001058 -9.35883 -0.275529 1.91396 2650 
219 1 -0.016396 -0.000290971 -0.0667225 0.000291 -8.44994 -1.50253e-07 2.0721 2650 
107 1 -0.0216654 -0.0491787 -0.0644225 0.001058 -10.1467 -0.011807 3.41246 2650 
267 1 -0.0200402 -0.0182326 -0.0657406 0.000291 -9.61595 -0.0148102 2.92984 2650 
223 1 -0.0265575 -0.019141 -0.0625647 0.001058 -9.05053 -0.10062 3.83947 2650 
98 1 -0.0284853 -0.0211637 -0.0617015 0.001058 -9.28636 -0.0770641 4.24357 2650 
227 1 -0.0359662 -0.0454406 -0.058563 0.000291 -8.97618 0.00505467 5.50557 2650 
177 1 -0.0370352 -0.0202024 -0.0562876 0.00164 -8.54299 0.0762453 5.62547 2650 
61 1 -0.0418348 -0.0316017 -0.0545033 0.000291 -7.13081 -0.456354 5.47709 2650 
282 1 -0.0430722 -0.0285816 -0.0535288 0.000291 -8.22048 -0.0295577 6.61376 2650 
268 1 -0.0450191 -0.0189974 -0.051905 0.000291 -8.0627 0.542197 6.99295 2650 
210 1 -0.0455202 -0.0330604 -0.050446 0.001058 -7.92533 -0.0508633 7.15151 2650 
85 1 -0.0455263 -0.0137757 -0.051459 0.000291 -5.79601 0.0180976 5.11603 2650 
276 1 -0.0485679 -0.0331805 -0.0485999 0.000291 -7.30705 -0.0545696 7.30348 2650 
206 1 -0.0504147 -0.062509 -0.0466838 0.000291 -7.33304 1.86284e-09 7.91909 2650 
169 1 -0.0491124 -0.0611601 -0.0461221 0.00164 -7.2448 4.57202e-07 7.71449 2650 
246 1 -0.0496284 -0.0585276 -0.0464099 0.001058 -7.29023 -1.66622e-05 7.79581 2650 
241 1 -0.0510827 -0.0351532 -0.0459492 0.000291 -7.33385 -0.128929 8.1524 2650 
251 1 -0.0498439 -0.0312819 -0.0461771 0.001058 -7.10013 -0.0038773 7.66324 2650 
25 1 -0.0511365 -0.0588017 -0.0438649 0.00164 -6.89072 -0.00162991 8.03307 2650 
178 1 -0.0526116 -0.0567157 -0.0429981 0.001058 -6.75532 -0.00253992 8.26568 2650 
145 1 -0.0513367 -0.0374886 -0.0436267 0.00164 -6.67508 -0.0985034 7.86676 2650 
164 1 -0.0540101 -0.0437261 -0.0412411 0.001058 -6.60261 -0.0697569 8.65046 2650 
226 1 -0.0572959 -0.041464 -0.0379405 0.000291 -6.08659 -0.057288 9.19149 2650 
100 1 -0.0564104 -0.0167376 -0.0379052 0.001058 -5.12532 0.0186683 7.63172 2650 
291 1 -0.0582013 -0.0523568 -0.0365383 0.000291 -5.77781 0.77716 9.21176 2650 
231 1 -0.0587289 -0.0427816 -0.0342084 0.001058 -5.40886 0.0341831 9.28628 2650 
22 1 -0.0628067 -0.0159704 -0.0279207 0.000291 -4.0916 -0.215062 9.20084 2650 
117 1 -0.0639501 -0.0156725 -0.0251929 0.000291 -4.02097 0.75559 10.185 2650 
103 1 -0.0646947 -0.0470682 -0.0232128 0.000291 -3.76367 -0.121172 10.4908 2650 
137 1 -0.0653165 -0.0611601 -0.0165191 0.00164 -2.59468 -8.16431e-07 10.2594 2650 
252 1 -0.0664143 -0.0181049 -0.0143776 0.001058 -1.99626 -0.0355698 9.20944 2650 
296 1 -0.0673035 -0.0110223 -0.0138489 0.000291 -1.75608 -0.21616 8.33214 2650 
133 1 -0.0675279 -0.0253934 -0.0126367 0.000291 -1.9509 0.185604 10.4358 2650 
253 1 -0.0675811 -0.0146889 -0.0123942 0.000291 -1.75807 -0.0267394 9.44229 2650 
74 1 -0.00925479 -0.000583613 -0.0123117 0.001058 0.00552843 -0.00502923 -0.00272883 2650 
202 1 -0.0672528 -0.0306784 -0.00972141 0.001058 -1.52234 -0.00924899 10.528 2650 
37 1 -0.0679934 -0.0260425 -0.00983612 0.000291 -1.53869 0.516395 10.6513 2650 
45 1 -0.0679686 -0.0235879 -0.00997733 0.000291 -1.27544 -0.607189 8.65561 2650 
135 1 -0.00739291 -0.00244815 -0.0104989 0.000291 0.00330025 -0.00264717 0.00636962 2650 
3 1 -0.0674865 -0.0294835 -0.0079053 0.001058 -1.24029 0.112826 10.5874 2650 
58 1 -0.00590298 -0.00100854 -0.00858453 0.001058 0.020455 0.00490158 -0.0306807 2650 
71 1 -0.000532556 -0.000207248 -0.0096509 0.000291 0.000861808 -0.00718564 -0.0173142 2650 
175 1 -0.0685366 -0.0103735 -0.00379878 0.000291 -0.514426 -0.348699 9.38828 2650 
285 1 -0.0680839 -0.030875 -0.000151325 0.001058 -0.0237702 -2.12593e-08 10.6946 2650 
6 1 -0.0686801 -0.0152776 -0.00124622 0.000291 -0.118188 0.155043 9.09583 2650 
150 1 -0.0685111 -0.0306474 0.00521755 0.000291 0.807401 -0.0922627 10.6146 2650 
55 1 -0.0685389 -0.00807084 0.00480287 0.000291 0.378312 0.125758 5.42147 2650 
235 1 -0.0683314 -0.0151907 0.00722986 0.000291 1.06545 0.62273 10.0448 2650 
109 1 -0.066957 -0.0511602 0.01548 0.000291 2.44208 -0.0295385 10.5612 2650 
84 1 -0.0656363 -0.0511617 0.0176329 0.001058 2.76878 0.00809199 10.3063 2650 
290 1 -0.0664628 -0.0487526 0.0175046 0.000291 2.75467 0.0111946 10.4605 2650 
264 1 -0.0654693 -0.0482398 0.0182668 0.001058 2.8696 0.00208464 10.285 2650 
182 1 -0.0664273 -0.0161132 0.0176348 0.000291 2.23899 0.171271 8.40182 2650 
287 1 -0.0651074 -0.0499285 0.0195109 0.001058 3.06401 0.00089829 10.2247 2650 
272 1 -0.0650322 -0.0445096 0.0197644 0.001058 3.17223 0.0547975 10.4379 2650 
215 1 -0.0639023 -0.0485453 0.0231644 0.001058 3.63912 -0.000723087 10.0389 2650 
181 1 -0.0644726 -0.047093 0.0238244 0.000291 3.74824 -0.124182 10.1432 2650 
83 1 -0.0595443 -0.0498847 0.0327722 0.001058 5.14853 0.00107285 9.35439 2650 
173 1 -0.0584217 -0.00172377 0.0361585 0.000291 4.43283 0.416708 7.21995 2650 
89 1 -0.0558587 -0.0611601 0.0376695 0.00164 5.91728 2.87085e-07 8.7745 2650 
229 1 -0.0491495 -0.0616332 0.0469174 0.001058 7.36965 0.000518614 7.72028 2650 
280 1 -0.0482505 -0.0308793 0.0480362 0.001058 7.54551 1.03337e-05 7.57916 2650 
132 1 -0.0479099 -0.017628 0.0481827 0.001058 6.99266 -0.0348914 6.92572 2650 
275 1 -0.0472275 -0.0126142 0.0499021 0.000291 6.72763 -0.609203 6.36148 2650 
152 1 -0.0476585 -0.00338712 0.0497495 0.000105 7.46853 -0.246512 7.15483 2650 
204 1 -0.0452384 -0.0319479 0.0506998 0.001058 7.9877 0.0856656 7.12772 2650 
18 1 -0.0438211 -0.0239241 0.0519251 0.001058 8.17802 -0.278185 6.9001 2650 
207 1 -0.0464604 -0.0127816 0.0506177 0.000291 6.76094 -0.175019 6.21119 2650 
304 1 -0.0452826 -0.0110494 0.0516742 0.000291 7.807 0.54575 6.83972 2650 
50 1 -0.0409444 -0.0344171 0.0542235 0.001058 8.68209 0.0454789 6.55638 2650 
15 1 -0.0435581 -0.025909 0.0531355 0.000291 8.32522 -0.459757 6.82426 2650 
102 1 -0.0445395 -0.0106207 0.0523166 0.000291 7.89435 -0.238372 6.71963 2650 
212 1 -0.0432696 -0.00905689 0.0533751 0.000291 6.85122 0.396762 5.5663 2650 
73 1 -0.0394015 -0.0581489 0.0546441 0.00164 8.58152 -0.00877428 6.19171 2650 
86 1 -0.0404316 -0.0315243 0.055553 0.000291 8.739 0.497538 6.35967 2650 
110 1 -0.0408623 -0.00720819 0.0552407 0.000291 4.72311 -0.144144 3.48804 2650 
196 1 -0.0359381 -0.0481468 0.0576841 0.001058 9.07209 0.0486816 5.65148 2650 
125 1 -0.0383813 -0.0360527 0.056983 0.000291 9.04585 0.082432 6.09331 2650 
141 1 -0.039205 -0.0247837 0.0564261 0.000291 8.84685 -0.579807 6.14631 2650 
94 1 -0.0380119 -0.00761137 0.0572416 0.000291 6.56363 0.126105 4.35879 2650 
281 1 -0.0345084 -0.0622793 0.0594397 0.000291 9.33367 -2.58114e-06 5.41878 2650 
99 1 -0.033909 -0.0485185 0.0589043 0.001058 9.26431 0.0229235 5.33352 2650 
121 1 -0.0312109 -0.0458457 0.0597324 0.00164 9.38547 -0.00451888 4.90395 2650 
200 1 -0.0348571 -0.0155232 0.0594505 0.000105 8.12426 0.10736 4.75391 2650 
29 1 -0.0359131 -0.0109424 0.0585925 0.000291 7.35267 -0.29389 4.50428 2650 
2 1 -0.031144 -0.0493557 0.0604142 0.001058 9.49323 -0.00179212 4.89388 2650 
243 1 -0.0297944 -0.0508397 0.0610878 0.001058 9.59924 -0.00166744 4.68177 2650 
213 1 -0.0298184 -0.0478243 0.0619273 0.000291 9.70007 0.0425172 4.67072 2650 
191 1 -0.0293585 -0.0487379 0.0621471 0.000291 9.89183 -0.0106312 4.66913 2650 
201 1 -0.0281014 -0.0454792 0.0612602 0.00164 9.62638 0.00988939 4.41598 2650 
261 1 -0.0310947 -0.039148 0.0612779 0.000291 7.18288 -0.0987925 3.6399 2650 
259 1 -0.0291729 -0.0307757 0.0613878 0.001058 9.59393 0.100352 4.55764 2650 
122 1 -0.0284996 -0.028774 0.0616785 0.001058 9.59069 0.171637 4.43366 2650 
158 1 -0.0315129 -0.0128528 0.0610803 0.000291 7.84755 -0.0756803 4.05277 2650 
36 1 -0.0226677 -0.0487973 0.0640795 0.001058 10.0913 0.0114717 3.56978 2650 
140 1 -0.0240615 -0.04643 0.0635722 0.001058 10.0701 0.0331915 3.81148 2650 
108 1 -0.0257761 -0.0444187 0.0628953 0.001058 9.83734 -0.0389864 4.03067 2650 
60 1 -0.0273678 -0.0430649 0.0622153 0.001058 9.72969 0.0325364 4.27953 2650 
128 1 -0.0253989 -0.00810569 0.0640499 0.000105 7.78271 -0.42166 3.09286 2650 
119 1 -0.0212517 -0.0508917 0.0653576 0.000291 10.237 0.0282883 3.32861 2650 
239 1 -0.0182493 -0.0493559 0.0654719 0.001058 10.2802 0.0073137 2.86561 2650 
230 1 -0.0206394 -0.0488146 0.0647601 0.001058 10.211 0.0109547 3.25436 2650 
79 1 -0.0245017 -0.0440599 0.0642166 0.000291 10.0367 -0.190705 3.82952 2650 
288 1 -0.0176428 -0.0481097 0.0664265 0.000291 10.5209 0.0219553 2.79446 2650 
131 1 -0.00873071 -0.0484744 0.0673911 0.001058 10.5861 0.00369574 1.37152 2650 
82 1 -0.00047999 -0.0383422 0.0679474 0.001058 10.7078 -0.0196276 0.0756044 2650 
278 1 -0.00225701 -0.0328486 0.0679105 0.001058 10.2507 -0.00383555 0.342488 2650 
48 1 -0.00321818 -0.0492879 0.0688178 0.000105 10.8886 0.142359 0.50871 2650 
174 1 -0.00669957 -0.0244248 0.0683813 0.000291 10.1116 -0.208486 0.992461 2650 
221 1 -0.00419768 -0.0229416 0.0685796 0.000291 9.3252 -0.387343 0.570873 2650 
46 1 -0.00727316 -0.0154288 0.0683263 0.000291 8.97818 -0.0795183 0.959449 2650 
16 1 -0.00927125 -0.0106258 0.0682721 0.000105 8.88634 -0.000960001 1.20023 2650 
198 1 -0.00857918 0.00498832 -0.0141115 0.000291 0.0682294 -0.0183 -0.0365391 2650 
134 1 -0.00470748 0.00737442 -0.015265 0.000291 -0.0128132 0.00355392 -0.00692922 2650 
80 1 -0.00640088 0.0209759 -0.0148881 0.000105 0.0200167 0.0220396 -0.007602 2650 
232 1 -0.00592955 0.0373517 -0.014437 0.001058 -0.0260744 0.0281349 0.00795724 2650 
97 1 -0.0054532 0.00964432 -0.0138134 0.00164 0.0189231 0.00904729 -0.00561719 2650 
130 1 -0.00705254 0.00312293 -0.0101867 0.001058 -0.00692202 0.00347734 0.00595777 2650 
10 1 -0.012101 0.00970115 -0.00953867 0.001058 0.0053433 0.0061558 -0.0070677 2650 
51 1 -0.00354222 0.0185921 -0.00764794 0.001058 -0.0414136 0.0415048 -0.0353246 2650 
67 1 -0.01312 0.0207344 -0.00737784 0.001058 -0.0104976 0.0129104 0.0114407 2650 
113 1 -0.00116969 0.00553875 -0.00221391 0.00164 -0.0131936 -0.00156564 -0.00033725 2650 
129 1 -0.00105706 0.0114966 -0.00286979 0.00164 -0.00374589 0.0128173 -0.00288427 2650 
7 1 -0.00273018 0.0328317 -0.00335783 0.000291 0.00378858 0.0136367 -0.000251809 2650 
65 1 -0.0152173 0.0304073 -0.00109593 0.00164 0.00199904 0.0128894 0.00103488 2650 
205 1 -0.00951449 0.00322821 0.000228645 0.000291 -0.00881861 0.00364628 0.0236275 2650 
234 1 -0.0133136 0.0113993 0.000623239 0.000291 -0.00131366 0.00431637 0.0126772 2650 
256 1 -0.015687 0.024774 0.0053602 0.000291 0.000881351 0.0216623 0.00465977 2650 
217 1 -0.00912129 0.0500719 0.0049926 0.001058 0.000747792 0.0265619 -0.00553463 2650 
211 1 -0.0121764 0.00716312 0.0067537 0.001058 0.000982608 0.00314487 0.00709992 2650 
115 1 -0.0144753 0.0191834 0.00664811 0.001058 0.00236141 0.0122312 0.0092361 2650 
187 1 -0.013814 0.0289321 0.00787751 0.001058 0.00500069 0.0154788 0.0119088 2650 
209 1 -0.0135134 0.0027482 0.00804473 0.001058 0.00584419 -0.0188996 0.0174994 2650 
68 1 -0.000636311 0.00594668 0.00832062 0.001058 0.00272783 -0.00342387 -0.00169301 2650 
220 1 -0.011737 0.0287803 0.00912305 0.000291 0.00991537 0.0130183 0.0124552 2650 
28 1 -0.00858494 0.067635 0.00960998 0.001058 0.00734507 0.0503926 0.00344867 2650 
222 1 -0.00234091 0.000996563 0.0111476 0.001058 -0.0324875 0.00467874 -0.0112895 2650 
224 1 -0.00873688 0.0168116 0.0112713 0.001058 0.0046856 0.00178326 -0.00382818 2650 
273 1 -0.000785797 0.0593076 0.0101149 0.001058 0.00511 0.0387776 -0.00978519 2650 
299 1 -0.00525376 0.00119234 0.0128938 0.001058 0.00581403 -0.00322581 0.00124072 2650 
266 1 -0.00663367 0.0141813 0.0137892 0.001058 0.0336072 0.0100687 0.0213347 2650 
244 1 -0.0102833 0.0181343 0.0121201 0.001058 0.023645 0.0244152 0.0268366 2650 
144 1 -0.00107491 0.0240113 0.0137944 0.000105 0.0152864 0.0109644 -0.00695946 2650 
4 1 -0.00693956 0.0088156 0.0141427 0.001058 0.0064118 0.000915196 0.00341804 2650 
147 1 -0.000479555 0.0416708 0.0157632 0.001058 0.0386005 0.0120241 0.00142267 2650 
124 1 -0.00240457 0.0523953 0.0149504 0.001058 0.0225448 0.0380641 0.0162983 2650 
116 1 -0.00904447 0.0638493 0.014374 0.001058 -0.0278213 0.0454338 0.0115295 2650 
44 1 0.000151327 -0.030875 -0.0680839 0.001058 -10.6946 4.39749e-07 -0.0237717 2650 
295 1 0.00250058 -0.0289531 -0.0686634 0.000291 -10.1544 0.0180511 -0.369058 2650 
214 1 0.0156151 -0.0565926 -0.0669105 0.000291 -9.9629 -0.0483223 -2.32261 2650 
23 1 0.0147839 -0.0503363 -0.0671135 0.000291 -10.2678 -0.292153 -2.26192 2650 
14 1 0.0153021 -0.0293637 -0.0669819 0.000291 -10.5104 -0.250374 -2.4019 2650 
76 1 0.0169779 -0.0446425 -0.0658134 0.001058 -10.1797 -0.0158248 -2.62645 2650 
225 1 0.0189866 -0.045017 -0.0652637 0.001058 -10.0902 0.0109529 -2.93517 2650 
300 1 0.0223429 -0.022193 -0.0641778 0.001058 -8.48168 0.163671 -2.92597 2650 
90 1 0.0232308 -0.0493938 -0.0638775 0.001058 -10.0338 -0.00220733 -3.64908 2650 
171 1 0.0252468 -0.0495285 -0.0631075 0.001058 -9.91265 0.00230934 -3.96572 2650 
184 1 0.0279033 -0.00816234 -0.0630005 0.000105 -8.83197 0.760123 -3.91257 2650 
21 1 0.030042 -0.046624 -0.0618205 0.000291 -9.72323 -0.041548 -4.72522 2650 
96 1 0.0314147 -0.0116906 -0.0613368 0.000105 -7.64713 0.131785 -3.92405 2650 
118 1 0.0354976 -0.0151809 -0.0588452 0.000291 -7.42362 -0.103694 -4.4776 2650 
64 1 0.0340135 -0.0088804 -0.0599251 0.000105 -7.43232 0.004998 -4.2246 2650 
104 1 0.044317 -0.012181 -0.0527378 0.000105 -7.72717 -0.0117037 -6.45811 2650 
167 1 0.045054 -0.0184793 -0.0517907 0.000291 -6.38708 0.138772 -5.53441 2650 
303 1 0.0448778 -0.0173259 -0.0519816 0.000291 -7.64271 0.018595 -6.58758 2650 
228 1 0.0456624 -0.00640421 -0.0513071 0.000291 -6.57061 -0.172639 -5.81547 2650 
208 1 0.0482504 -0.0308698 -0.0480362 0.001058 -7.5455 6.35471e-08 -7.57915 2650 
87 1 0.0504646 -0.0186244 -0.0466256 0.000291 -6.32856 0.216139 -6.85012 2650 
257 1 0.058916 -0.0485458 -0.0338903 0.001058 -5.31828 0.0112588 -9.2456 2650 
49 1 0.0600328 -0.0490831 -0.0306304 0.00164 -4.81125 0.000336287 -9.42962 2650 
93 1 0.06219 -0.0496187 -0.0292628 0.000291 -4.59472 0.00371408 -9.76486 2650 
165 1 0.0621687 -0.0457076 -0.0293158 0.000291 -4.60506 -0.00133953 -9.76574 2650 
59 1 0.0617619 -0.0465978 -0.0283875 0.001058 -4.459 -0.000852373 -9.70125 2650 
179 1 0.0619798 -0.0496455 -0.0278998 0.001058 -4.37552 0.0118465 -9.71936 2650 
146 1 0.0672232 -0.0488605 -0.00994158 0.001058 -1.56151 0.000497356 -10.5586 2650 
248 1 0.0679624 -0.0216727 -0.0101298 0.000291 -1.61714 0.100571 -10.8486 2650 
138 1 0.0674655 -0.0560156 -0.00806661 0.001058 -1.2645 -0.000711892 -10.5752 2650 
269 1 0.0684029 -0.0179573 -0.00649417 0.000291 -0.935205 0.112679 -9.82169 2650 
168 1 0.0687275 -0.0129545 -0.00479056 0.000105 -0.689625 -0.0685679 -9.92681 2650 
192 1 0.0686999 -0.000105076 0.00517961 0.000105 0.676073 -0.00240372 -9.00759 2650 
95 1 0.00161881 -0.000222118 0.0129364 0.000291 -0.0190214 0.000188354 -0.00919676 2650 
170 1 0.00422677 -0.00218478 0.0152404 0.001058 0.0153298 -0.00470662 -0.00726617 2650 
250 1 0.00078455 -0.00177344 0.0153304 0.001058 0.0161046 -0.00542442 -0.00110725 2650 
236 1 0.0656712 -0.0616353 0.0174396 0.001058 2.73937 -4.82668e-05 -10.3155 2650 
247 1 0.0630818 -0.0494485 0.0272875 0.000291 4.27689 0.00248525 -9.88703 2650 
188 1 0.0615339 -0.0616371 0.0288181 0.001058 4.53047 -0.00663916 -9.67428 2650 
254 1 0.0624874 -0.0504418 0.0286143 0.000291 4.4892 0.0266016 -9.80339 2650 
218 1 0.0619372 -0.0492074 0.0279969 0.001058 4.39772 6.94032e-05 -9.72902 2650 
148 1 0.0595424 -0.0531385 0.0327576 0.001058 5.14463 -0.00190825 -9.35135 2650 
35 1 0.0599753 -0.0508733 0.0319727 0.001058 5.0212 -0.000280331 -9.41881 2650 
43 1 0.0584844 -0.0499255 0.0346256 0.001058 5.42136 0.0227504 -9.15707 2650 
20 1 0.0571166 -0.0554836 0.0368113 0.001058 5.78405 -0.00186769 -8.97445 2650 
172 1 0.0560804 -0.0544846 0.0383745 0.001058 6.02836 -0.00390032 -8.80992 2650 
193 1 0.0555528 -0.0498678 0.0381415 0.00164 5.99037 -0.00596379 -8.72494 2650 
240 1 0.0571427 -0.0323561 0.0381509 0.000291 5.28422 -0.213662 -7.91397 2650 
42 1 0.0542102 -0.0547986 0.0409701 0.001058 6.43968 0.00762276 -8.52045 2650 
159 1 0.0559284 -0.0357122 0.0399073 0.000291 6.39759 -0.662254 -8.96818 2650 
81 1 0.0527677 -0.0500125 0.0418967 0.00164 6.5813 0.000872686 -8.28892 2650 
162 1 0.0533371 -0.0473835 0.0421055 0.001058 6.615 0.00077893 -8.37962 2650 
185 1 0.0502223 -0.0518677 0.0449092 0.00164 7.05545 -0.00143241 -7.89024 2650 
126 1 0.0493438 -0.0389133 0.0478118 0.000291 6.49546 -0.333764 -6.70972 2650 
34 1 0.0480356 -0.030875 0.0482496 0.001058 7.57902 -2.12567e-08 -7.54541 2650 
190 1 0.0456718 -0.00734224 0.0512746 0.000291 6.01448 0.133585 -5.34462 2650 
40 1 0.0411782 -0.000105165 0.055233 0.000105 5.72107 -0.000210664 -4.28494 2650 
197 1 0.039801 -0.00747819 0.0559933 0.000291 5.73942 -0.353832 -4.03568 2650 
78 1 0.0303715 -0.0387627 0.0616382 0.000291 9.47125 -0.867702 -4.64145 2650 
26 1 0.0170975 -0.0495439 0.0657813 0.001058 10.3332 0.0014506 -2.68572 2650 
24 1 0.0143031 -0.0318957 0.067392 0.000105 9.40386 -0.939437 -1.99405 2650 
294 1 0.00772137 -0.0300425 0.0675079 0.001058 10.3311 0.0257695 -1.18202 2650 
47 1 0.0127681 -0.0141405 0.0675269 0.000291 8.59764 0.0982708 -1.62033 2650 
54 1 0.00342138 0.0325782 -0.0162685 0.000291 -0.0454148 -0.00172676 -0.0115357 2650 
286 1 0.00387582 0.0442542 -0.0152437 0.001058 -0.0227563 0.047494 -0.00559967 2650 
292 1 0.00311855 0.0555771 -0.0150578 0.001058 -0.0104367 0.0376087 -0.0291473 2650 
195 1 0.00952586 0.00124006 -0.0125677 0.001058 -0.023068 0.0028628 -0.0200038 2650 
260 1 0.00710619 0.00747207 -0.0138981 0.000291 -0.00996736 0.00469349 0.00488237 2650 
301 1 2.06242e-05 0.0433347 -0.0127216 0.001058 -0.0176549 0.0163122 0.00371725 2650 
153 1 0.00840595 0.00409959 -0.0115262 0.00164 -0.00763413 -0.0014489 0.00703428 2650 
33 1 0.0029328 0.0315963 -0.0117062 0.00164 0.00603998 0.0215627 0.00352792 2650 
114 1 0.000936432 0.0123303 -0.00800492 0.001058 0.0187062 0.0117361 -0.00752779 2650 
284 1 0.0116626 0.0138234 -0.00816067 0.000291 -0.00371053 0.00586111 -0.00129449 2650 
57 1 0.00553489 0.0277563 -0.00806266 0.00164 -0.000919831 0.00616449 -0.024056 2650 
70 1 0.00428176 0.0593791 -0.00984414 0.000291 0.000986621 0.0559838 -0.0454673 2650 
176 1 0.0142596 0.000451882 -0.00604956 0.000105 -0.0113334 0.00168079 0.000719247 2650 
19 1 0.0129712 0.011667 -0.00731607 0.001058 -0.00189711 0.0050805 -0.00113271 2650 
77 1 0.00877176 0.0119188 -0.00656574 0.000291 -0.0117356 0.000913058 0.0103562 2650 
123 1 0.0118361 0.0418982 -0.00760611 0.001058 -0.0069266 0.0381635 -0.00768552 2650 
263 1 0.00567557 0.0661867 -0.00732761 0.000291 -0.0276857 0.0691876 -0.0511194 2650 
101 1 0.0135323 0.000160487 -0.00516758 0.000291 0.0107852 -0.0015929 -0.0095042 2650 
199 1 0.0132623 0.00573442 -0.00575031 0.000291 -0.0066469 0.00203541 -0.00705897 2650 
161 1 0.0135798 0.00850054 -0.00532567 0.00164 -0.000454856 0.00568005 -0.00417258 2650 
249 1 0.00707216 0.0373608 -0.00443968 0.000291 0.00987628 0.0185258 -0.0129358 2650 
1 1 0.0135519 0.00651458 -0.00237965 0.00164 -0.00396175 0.00352346 -0.00443708 2650 
203 1 0.012549 0.0297906 -0.00208551 0.001058 0.0105265 0.0334803 0.00411967 2650 
293 1 0.015566 0.0430545 -0.00239064 0.001058 -0.0190409 -0.00539533 -0.101564 2650 
258 1 0.0115353 0.0443801 -0.00290228 0.001058 -0.00702738 0.0458888 -0.00817646 2650 
17 1 0.0154718 0.0577227 -0.000470142 0.00164 0.00701424 0.0397619 -0.0326359 2650 
279 1 0.0121309 0.00583933 0.000392708 0.001058 0.00690887 -0.00122776 0.0071413 2650 
92 1 0.0129813 0.00822679 0.000614383 0.001058 0.00298746 0.00292354 0.00546929 2650 
194 1 0.0111423 0.0384974 0.000195351 0.001058 -0.00717738 0.0355954 0.00284246 2650 
52 1 0.0150186 0.051943 0.000655804 0.001058 -0.00702953 0.0194323 -0.0174178 2650 
106 1 0.00160449 0.0345275 0.00225663 0.001058 0.0119634 0.0223893 -0.0027555 2650 
9 1 0.0134277 0.0426977 0.00545071 0.00164 -0.00067168 0.0470366 0.00650688 2650 
238 1 0.0144159 0.0518983 0.0049158 0.001058 -0.00137728 0.0257105 -0.0165728 2650 
298 1 0.0134286 0.00221759 0.00623842 0.000105 0.00377194 -0.00442838 -0.00799766 2650 
38 1 0.0153689 0.0199077 0.00643719 0.000291 0.0290333 0.00993382 0.0254358 2650 
156 1 0.0120499 0.00577081 0.00837148 0.001058 -0.00386139 -0.00886559 -0.00604091 2650 
265 1 0.0126813 0.0130965 0.00918886 0.001058 0.00631372 0.00593974 -0.00936806 2650 
66 1 0.0110458 0.00782095 0.0101629 0.001058 0.00109107 -0.000952032 -0.00287426 2650 
139 1 0.00773177 0.0255221 0.0119219 0.001058 -0.0138539 0.00679752 0.0124887 2650 
41 1 0.00280496 0.0211188 0.0131287 0.00164 -0.00672013 0.00866437 -0.0057422 2650 
105 1 0.00599093 0.0199396 0.0121524 0.00164 -0.00344466 0.00582004 -0.00613861 2650 
242 1 0.00239803 0.0394376 0.0121035 0.000291 0.0116924 0.0265357 0.00697501 2650 
157 1 0.000253449 0.0843686 -0.0135499 0.000291 0.0079085 0.0606548 0.000918149 2650 
75 1 0.0123899 0.0818603 -0.0109849 0.001058 0.0240155 0.0510522 0.00788599 2650 
127 1 0.0167698 0.0945858 -0.00242076 0.000291 0.0147798 0.0618117 0.0201086 2650 
