ITEM: TIMESTEP
18892235
ITEM: NUMBER OF ATOMS
266
ITEM: BOX BOUNDS ff ff ff
-0.15 0.15
-0.15 0.15
-0.15 0.15
ITEM: ATOMS id type x y z radius vx vy vz density 
248 1 -0.00411981 -0.0280231 -0.0685845 0.000291 -10.6165 -0.0474154 0.637852 2650 
6 1 -0.00160457 -0.00666413 -0.0686884 0.000291 -8.37083 0.136467 0.189925 2650 
110 1 -0.00622602 -0.00262674 -0.0684251 0.000291 -4.70651 -0.139756 0.398977 2650 
138 1 -0.00801055 -0.0559928 -0.0674726 0.001058 -10.5778 0.0502584 1.25542 2650 
146 1 -0.00995913 -0.0488653 -0.0672207 0.001058 -10.5591 -0.000414481 1.56438 2650 
200 1 -0.0134702 -0.0105675 -0.0675761 0.000105 -9.12733 -0.228482 1.82534 2650 
296 1 -0.0115362 -0.00956898 -0.067741 0.000291 -8.52696 -0.118069 1.44441 2650 
45 1 -0.0225391 -0.0132706 -0.064932 0.000291 -7.86887 -0.856882 2.71728 2650 
93 1 -0.0257853 -0.0496576 -0.0637104 0.000291 -10.1448 -0.0540275 4.1059 2650 
49 1 -0.0306433 -0.0490722 -0.0600263 0.00164 -9.42602 0.0100304 4.81197 2650 
179 1 -0.0281086 -0.0489663 -0.0618863 0.001058 -9.75624 0.00925728 4.43139 2650 
165 1 -0.0310946 -0.0458651 -0.0612954 0.000291 -9.66107 0.0622787 4.90135 2650 
59 1 -0.0283916 -0.0466046 -0.0617597 0.001058 -9.69757 0.00484991 4.45808 2650 
257 1 -0.0337032 -0.0491334 -0.0590214 0.001058 -9.21796 -0.0215547 5.26535 2650 
79 1 -0.0344755 -0.032155 -0.0594303 0.000291 -3.42914 -0.531269 1.97392 2650 
61 1 -0.0378662 -0.00494083 -0.0573319 0.000291 -4.99111 -0.0608658 3.33509 2650 
24 1 -0.0377348 -0.00226805 -0.0576386 0.000105 -7.98874 -0.530481 5.22503 2650 
182 1 -0.0447353 -0.0210884 -0.0521495 0.000291 -6.34728 0.209931 5.49347 2650 
304 1 -0.0440838 -0.0174351 -0.0527035 0.000291 -6.44607 0.126119 5.37294 2650 
275 1 -0.0510153 -0.01397 -0.0459657 0.000291 -5.81967 0.759667 6.49273 2650 
37 1 -0.0525895 -0.0274775 -0.0441987 0.000291 -4.85097 1.08571 5.83217 2650 
221 1 -0.0522652 -0.015204 -0.0445981 0.000291 -5.88279 -0.0522266 7.00738 2650 
152 1 -0.0524564 -0.00335357 -0.0446609 0.000105 -4.25731 -0.437309 5.12611 2650 
46 1 -0.0591214 -0.0179336 -0.0350336 0.000291 -4.74409 0.146557 8.02161 2650 
207 1 -0.0595663 -0.0151918 -0.034284 0.000291 -4.63472 0.0149176 8.01697 2650 
208 1 -0.0596486 -0.0229007 -0.032554 0.001058 -4.87254 0.108854 8.93733 2650 
21 1 -0.0627231 -0.0464425 -0.02811 0.000291 -4.36762 -0.0410767 9.78867 2650 
15 1 -0.0622565 -0.018601 -0.0291166 0.000291 -3.80715 0.179221 8.15837 2650 
171 1 -0.063108 -0.0495046 -0.0252462 0.001058 -3.95936 0.0219429 9.89726 2650 
90 1 -0.0638847 -0.0493732 -0.0232101 0.001058 -3.64354 0.000344624 10.0285 2650 
212 1 -0.0656092 -0.0196737 -0.0204563 0.000291 -2.06046 0.404513 6.60658 2650 
225 1 -0.0654047 -0.0449987 -0.0184929 0.001058 -2.90846 -0.000495537 10.2856 2650 
158 1 -0.066326 -0.0137534 -0.0180187 0.000291 -2.25398 0.172157 8.24719 2650 
14 1 -0.0665463 -0.0468272 -0.017183 0.000291 -2.71305 0.394432 10.5093 2650 
16 1 -0.0670331 -0.00967552 -0.015955 0.000105 -2.06091 -0.150091 8.61202 2650 
39 1 -0.0668666 -0.0378996 -0.0158211 0.000291 -2.59647 -0.0588955 10.9931 2650 
74 1 -0.00986291 -3.04056e-05 -0.0120115 0.001058 0.00552843 -0.00502923 -0.00272883 2650 
135 1 -0.00775593 -0.00215697 -0.0111996 0.000291 0.00330025 -0.00264717 0.00636962 2650 
261 1 -0.0680845 -0.0331707 -0.00923041 0.000291 -1.23455 -0.632744 9.10521 2650 
58 1 -0.008153 -0.00154771 -0.0052097 0.001058 0.020455 0.00490158 -0.0306807 2650 
240 1 -0.0685693 -0.028906 0.00431692 0.000291 0.576645 0.16642 9.27383 2650 
85 1 -0.0682573 -0.0176665 0.00763252 0.000291 0.73813 -0.504637 6.72137 2650 
227 1 -0.0680879 -0.0447916 0.00926357 0.000291 1.48355 -0.0516511 10.9086 2650 
269 1 -0.0681204 -0.0109476 0.00875543 0.000291 1.24749 -0.123277 9.70257 2650 
126 1 -0.0676941 -0.026696 0.0117268 0.000291 1.54168 -0.771051 8.92785 2650 
76 1 -0.0661053 -0.0398572 0.0157461 0.001058 2.38403 0.0814182 10.029 2650 
250 1 -0.000986937 -0.00117676 0.0154522 0.001058 0.0161046 -0.00542442 -0.00110725 2650 
173 1 -0.0652266 -0.00512963 0.0215915 0.000291 2.49135 0.146539 7.5049 2650 
107 1 -0.0635785 -0.0475268 0.0240363 0.001058 3.73596 0.0109786 9.89143 2650 
29 1 -0.0647051 -0.00371322 0.0230911 0.000291 2.55302 -0.281868 7.15242 2650 
168 1 -0.063492 -0.0351085 0.0267311 0.000105 2.77054 -0.768923 6.60984 2650 
128 1 -0.0603355 -0.00332082 0.033248 0.000105 3.96944 -0.351347 7.21071 2650 
47 1 -0.0592287 -0.0120456 0.0348608 0.000291 4.2856 -0.129714 7.28786 2650 
44 1 -0.0560159 -0.0296754 0.0384542 0.001058 5.68476 -0.154001 8.2885 2650 
303 1 -0.0554372 -0.0171068 0.0406074 0.000291 5.84683 -0.0815633 7.99201 2650 
169 1 -0.0461106 -0.0611601 0.0491232 0.00164 7.7162 4.57202e-07 7.24298 2650 
246 1 -0.0463982 -0.0585276 0.0496394 0.001058 7.79753 -1.66622e-05 7.28839 2650 
103 1 -0.0484044 -0.0543347 0.0487641 0.000291 7.52952 0.0562252 7.47251 2650 
23 1 -0.0490206 -0.0517536 0.0481454 0.000291 7.01537 0.449103 7.15066 2650 
30 1 -0.047387 -0.0307153 0.0497516 0.000291 7.63085 0.0441459 7.26832 2650 
206 1 -0.0466719 -0.062509 0.0504257 0.000291 7.92082 1.86286e-09 7.33118 2650 
25 1 -0.0438523 -0.0588 0.0511473 0.00164 8.03424 3.4463e-05 6.88834 2650 
178 1 -0.0433071 -0.0564515 0.0523582 0.001058 8.2244 6.93226e-05 6.80265 2650 
214 1 -0.0444889 -0.0542371 0.0523588 0.000291 7.56834 0.0468765 6.42721 2650 
164 1 -0.0436074 -0.0414021 0.0521099 0.001058 8.31023 -0.145181 6.9516 2650 
226 1 -0.0351327 -0.0489622 0.0590703 0.000291 9.07864 0.725083 5.40177 2650 
277 1 -0.0335147 -0.0437354 0.0600033 0.000291 8.88136 0.199077 4.94406 2650 
295 1 -0.0357024 -0.0289459 0.0587002 0.000291 8.61839 0.0673895 5.24194 2650 
302 1 -0.0268361 -0.048495 0.0632765 0.000291 9.26401 -0.503246 3.93019 2650 
231 1 -0.0274932 -0.0382182 0.062143 0.001058 9.2082 -0.168957 4.10321 2650 
210 1 -0.0255659 -0.0334307 0.0629492 0.001058 9.44181 -0.0611827 3.85505 2650 
251 1 -0.0229818 -0.0309546 0.0639641 0.001058 9.69118 -0.0383727 3.48776 2650 
137 1 -0.0165037 -0.0611601 0.0653204 0.00164 10.26 -8.16432e-07 2.59226 2650 
276 1 -0.0220153 -0.0304762 0.0650918 0.000291 9.99016 0.0493846 3.37536 2650 
177 1 -0.0201405 -0.0202346 0.0643072 0.00164 9.56121 -0.114345 2.98439 2650 
282 1 -0.0240826 -0.0145007 0.0643762 0.000291 9.72589 -0.22812 3.63477 2650 
40 1 -0.0240626 -0.000105026 0.0645548 0.000105 8.3073 0.00023596 3.08566 2650 
241 1 -0.0155905 -0.0373453 0.0669184 0.000291 10.0205 -0.123168 2.33795 2650 
145 1 -0.0105693 -0.036395 0.0665308 0.00164 10.1548 -0.0570932 1.61183 2650 
285 1 -0.000774047 -0.0300397 0.0679423 0.001058 10.7821 -0.0815463 0.125084 2650 
202 1 -0.00395499 -0.0293441 0.0678306 0.001058 10.4138 -0.124376 0.607742 2650 
3 1 -0.00298237 -0.0260755 0.0678716 0.001058 10.649 -0.306582 0.470614 2650 
98 1 -0.00780064 -0.0179133 0.0674753 0.001058 10.2164 -0.293934 1.18302 2650 
192 1 -0.0178682 -0.000104995 0.0665353 0.000105 8.60731 -8.07877e-05 2.30914 2650 
184 1 -0.00747055 -0.0355159 0.0684839 0.000105 9.54541 0.528513 1.05647 2650 
255 1 -0.00671496 -0.0175659 0.0683659 0.000291 10.2831 -0.155169 1.00249 2650 
134 1 -0.00329805 0.00698349 -0.0145028 0.000291 -0.0128132 0.00355392 -0.00692922 2650 
80 1 -0.00860269 0.0185516 -0.0140519 0.000105 0.0200167 0.0220396 -0.007602 2650 
232 1 -0.00306141 0.0342569 -0.0153123 0.001058 -0.0260744 0.0281349 0.00795724 2650 
97 1 -0.00753471 0.00864913 -0.0131956 0.00164 0.0189231 0.00904729 -0.00561719 2650 
130 1 -0.00629113 0.00274043 -0.010842 0.001058 -0.00692202 0.00347734 0.00595777 2650 
198 1 -0.0145092 0.00702457 -0.00805115 0.000291 0.0313585 -0.0183088 -0.0723348 2650 
10 1 -0.0126887 0.00902402 -0.00876124 0.001058 0.0053433 0.0061558 -0.0070677 2650 
67 1 -0.0119653 0.0193142 -0.0086363 0.001058 -0.0104976 0.0129104 0.0114407 2650 
71 1 -0.000627354 0.000583162 -0.00774637 0.000291 0.000861808 -0.00718564 -0.0173142 2650 
114 1 -0.00112122 0.0110394 -0.00717688 0.001058 0.0187062 0.0117361 -0.00752779 2650 
205 1 -0.00854445 0.00282713 -0.00237034 0.000291 -0.00881861 0.00364628 0.0236275 2650 
129 1 -0.000645013 0.0100867 -0.00255253 0.00164 -0.00374589 0.0128173 -0.00288427 2650 
7 1 -0.00314692 0.0313316 -0.00333013 0.000291 0.00378858 0.0136367 -0.000251809 2650 
234 1 -0.0131691 0.0109245 -0.000771235 0.000291 -0.00131366 0.00431637 0.0126772 2650 
65 1 -0.0147837 0.0288953 -0.00113988 0.00164 -0.00447342 0.0138222 0.00034274 2650 
211 1 -0.0122845 0.00681719 0.00597272 0.001058 0.000982608 0.00314487 0.00709992 2650 
115 1 -0.0147351 0.017838 0.00563216 0.001058 0.00236141 0.0122312 0.0092361 2650 
256 1 -0.0157839 0.0223911 0.00484763 0.000291 0.000881351 0.0216623 0.00465977 2650 
217 1 -0.00920355 0.0471501 0.0056014 0.001058 0.000747792 0.0265619 -0.00553463 2650 
209 1 -0.0141563 0.00482713 0.00611982 0.001058 0.00584419 -0.0188996 0.0174994 2650 
187 1 -0.0143641 0.0272294 0.00656756 0.001058 0.00500069 0.0154788 0.0119088 2650 
220 1 -0.0128277 0.0273483 0.007753 0.000291 0.00991537 0.0130183 0.0124552 2650 
68 1 -0.000936367 0.0063233 0.00850685 0.001058 0.00272783 -0.00342387 -0.00169301 2650 
244 1 -0.0130486 0.0157107 0.00894344 0.001058 0.022777 0.0219925 0.0312088 2650 
28 1 -0.00939288 0.0620919 0.00923063 0.001058 0.00734507 0.0503926 0.00344867 2650 
266 1 -0.0103304 0.0130737 0.0114424 0.001058 0.0336072 0.0100687 0.0213347 2650 
224 1 -0.00868775 0.0163109 0.0115947 0.001058 -0.00111942 0.00491513 -0.00282362 2650 
273 1 -0.00134789 0.0550422 0.0111913 0.001058 0.00511 0.0387776 -0.00978519 2650 
299 1 -0.0058933 0.00154717 0.0127573 0.001058 0.00581403 -0.00322581 0.00124072 2650 
4 1 -0.00764485 0.00871493 0.0137668 0.001058 0.0064118 0.000915196 0.00341804 2650 
124 1 -0.00488447 0.0482084 0.0131576 0.001058 0.0225448 0.0380641 0.0162983 2650 
116 1 -0.00598417 0.0588516 0.0131058 0.001058 -0.0278213 0.0454338 0.0115295 2650 
144 1 -0.0027564 0.0228052 0.01456 0.000105 0.0152864 0.0109644 -0.00695946 2650 
147 1 -0.00464212 0.0402646 0.0150203 0.001058 0.0373753 0.0132509 0.0100339 2650 
157 1 -0.000616474 0.0776966 -0.0136509 0.000291 0.0079085 0.0606548 0.000918149 2650 
112 1 0.00607728 -0.0526684 -0.0686257 0.000105 -12.038 -0.0514723 -1.06735 2650 
174 1 0.00283609 -0.0223902 -0.0686073 0.000291 -8.77714 0.323307 -0.333474 2650 
270 1 0.00973868 -0.00630349 -0.0680067 0.000291 -7.54425 -0.010806 -1.07373 2650 
55 1 0.0106911 -0.00576794 -0.0678681 0.000291 -4.61179 -0.205385 -0.637723 2650 
236 1 0.0174243 -0.0616353 -0.0656753 0.001058 -10.3263 -0.00423137 -2.7395 2650 
102 1 0.0211136 -0.0150469 -0.0654076 0.000291 -8.74543 -0.157339 -2.82086 2650 
247 1 0.0266594 -0.050845 -0.0633456 0.000291 -9.91174 0.0172195 -4.17153 2650 
254 1 0.0273517 -0.050224 -0.0630508 0.000291 -9.884 0.00686368 -4.28761 2650 
197 1 0.0292421 -0.00503336 -0.0621733 0.000291 -5.6751 -0.0621399 -2.66369 2650 
188 1 0.0288946 -0.061627 -0.061498 0.001058 -9.67191 0.00367956 -4.54443 2650 
218 1 0.0279813 -0.0492137 -0.0619443 0.001058 -9.73088 -0.000383056 -4.39563 2650 
132 1 0.0295033 -0.0254297 -0.0612056 0.001058 -8.26073 0.354074 -3.98612 2650 
148 1 0.0327644 -0.0530979 -0.0595389 0.001058 -9.34736 -0.0264359 -5.14332 2650 
35 1 0.0320039 -0.0508826 -0.0599588 0.001058 -9.40937 -0.0141023 -5.02232 2650 
43 1 0.0351845 -0.0504424 -0.0581475 0.001058 -9.16026 0.124828 -5.54231 2650 
20 1 0.0367873 -0.0551628 -0.0571329 0.001058 -8.98877 0.063973 -5.78781 2650 
159 1 0.0388286 -0.0459632 -0.056703 0.000291 -8.68823 0.885225 -5.94766 2650 
172 1 0.0384372 -0.0543969 -0.0560376 0.001058 -8.78863 -0.0146925 -6.02824 2650 
42 1 0.0408985 -0.0547029 -0.0542643 0.001058 -8.54371 0.00971435 -6.43929 2650 
193 1 0.038365 -0.0499525 -0.0553965 0.00164 -8.69334 -0.0156713 -6.02013 2650 
78 1 0.0411712 -0.0350586 -0.055005 0.000291 -8.25377 0.796154 -6.17692 2650 
175 1 0.0411732 -0.00107771 -0.0550043 0.000291 -7.26391 -0.221896 -5.44189 2650 
81 1 0.041885 -0.0500223 -0.0527766 0.00164 -8.2864 0.00744035 -6.57657 2650 
162 1 0.0420968 -0.0473933 -0.053344 0.001058 -8.41611 0.004142 -6.64033 2650 
185 1 0.0448915 -0.051829 -0.0502376 0.00164 -7.89676 0.00843372 -7.05604 2650 
88 1 0.0465403 -0.0190433 -0.0507953 0.000105 -6.21202 -0.289153 -5.6915 2650 
141 1 0.0473156 -0.0336964 -0.0498203 0.000291 -7.4762 -0.251943 -7.09863 2650 
294 1 0.0491331 -0.0334759 -0.0469191 0.001058 -6.96344 -0.182941 -7.28672 2650 
34 1 0.0482383 -0.030875 -0.0480468 0.001058 -7.54722 -0.000156519 -7.57728 2650 
100 1 0.0496312 -0.0257925 -0.0463899 0.001058 -5.8194 0.0776702 -6.23997 2650 
252 1 0.0487524 -0.00905899 -0.0473186 0.001058 -6.04111 -0.385965 -6.07433 2650 
219 1 0.0499227 -0.000290961 -0.0472048 0.000291 -5.69443 -0.00212005 -6.06014 2650 
278 1 0.0504469 -0.0371124 -0.0454847 0.001058 -6.93054 -0.153782 -7.68511 2650 
22 1 0.0538372 -0.0173071 -0.0426712 0.000291 -5.19312 -0.0369536 -6.57363 2650 
122 1 0.0561781 -0.0312671 -0.0382242 0.001058 -5.53182 -0.208982 -8.1157 2650 
268 1 0.0566213 -0.0136384 -0.0389254 0.000291 -4.57614 0.307883 -6.71098 2650 
64 1 0.0610273 -0.00955926 -0.0319922 0.000105 -3.61406 0.70872 -6.88752 2650 
300 1 0.0610719 -0.016662 -0.0298345 0.001058 -3.24624 -0.171259 -6.60468 2650 
271 1 0.0614828 -0.0119111 -0.0289681 0.001058 -3.19033 -0.0306343 -6.70642 2650 
26 1 0.0657761 -0.049538 -0.0171178 0.001058 -2.69038 0.00457436 -10.3382 2650 
82 1 0.0670799 -0.0391711 -0.0108356 0.001058 -1.66641 -0.00695524 -10.288 2650 
117 1 0.0683649 -0.0279537 -0.00685588 0.000291 -0.655831 -0.277408 -6.76821 2650 
253 1 0.0685552 -0.0224599 -0.00457528 0.000291 -0.65151 0.143864 -9.796 2650 
96 1 0.0688548 -0.0095742 -0.00229073 0.000105 -0.284771 -0.0115242 -8.4645 2650 
48 1 0.0688759 -0.0496699 0.00155632 0.000105 0.229987 -0.364757 -10.2245 2650 
131 1 0.0673932 -0.048432 0.00871675 0.001058 1.36929 -0.00411477 -10.5867 2650 
125 1 0.0681334 -0.0296396 0.00886523 0.000291 1.16581 -0.0879331 -8.93815 2650 
95 1 0.00371114 -0.000242837 0.013948 0.000291 -0.0190214 0.000188354 -0.00919676 2650 
213 1 0.0669022 -0.0421301 0.015712 0.000291 2.48069 0.104973 -10.564 2650 
170 1 0.00233803 -0.00164147 0.0156393 0.001058 0.0178138 -0.00502054 -0.00235441 2650 
239 1 0.0654408 -0.0497353 0.0183585 0.001058 2.87675 0.0484069 -10.2545 2650 
119 1 0.0654756 -0.0508022 0.0208896 0.000291 3.25828 0.0804922 -10.2102 2650 
94 1 0.0651436 -0.00537503 0.0218458 0.000291 1.75006 0.148583 -5.27753 2650 
230 1 0.0641082 -0.0489319 0.0225852 0.001058 3.58364 0.0031309 -10.1719 2650 
288 1 0.0648589 -0.0464568 0.0227499 0.000291 3.55263 0.100574 -10.1285 2650 
140 1 0.0639254 -0.0445233 0.0230959 0.001058 3.57913 0.137394 -9.90628 2650 
36 1 0.0629952 -0.046439 0.0255373 0.001058 3.95355 -0.0187058 -9.76996 2650 
243 1 0.0619951 -0.0515921 0.0278528 0.001058 4.34201 -0.0458294 -9.66439 2650 
191 1 0.0630246 -0.0492648 0.027419 0.000291 4.25137 0.0716723 -9.77486 2650 
108 1 0.0627966 -0.0397519 0.025979 0.001058 4.04927 -0.109761 -9.78528 2650 
291 1 0.0622472 -0.0602065 0.029076 0.000291 2.68015 -3.20542 -5.68664 2650 
201 1 0.0613046 -0.0448415 0.0280003 0.00164 4.40219 -0.0404774 -9.63545 2650 
60 1 0.061672 -0.0421801 0.0285662 0.001058 4.54214 0.0205136 -9.8057 2650 
259 1 0.061379 -0.0304249 0.0291509 0.001058 4.54467 -0.0165113 -9.56718 2650 
2 1 0.0605329 -0.0496693 0.0309079 0.001058 4.87037 0.0230046 -9.54073 2650 
121 1 0.0600518 -0.046409 0.0305947 0.00164 4.78205 0.0664108 -9.38722 2650 
99 1 0.0593395 -0.0473976 0.0331458 0.001058 5.19333 -0.066367 -9.2977 2650 
86 1 0.0603064 -0.0384111 0.0329278 0.000291 5.14598 -0.347374 -9.42441 2650 
50 1 0.0597489 -0.0340415 0.0323487 0.001058 4.94738 -0.0734941 -9.13571 2650 
281 1 0.0594485 -0.0622797 0.0344932 0.000291 5.4293 -0.0018289 -9.35745 2650 
196 1 0.0578593 -0.0471126 0.035659 0.001058 5.61915 -0.0550192 -9.11825 2650 
73 1 0.0546514 -0.0580174 0.0393918 0.00164 6.18775 0.0153681 -8.58473 2650 
204 1 0.0541924 -0.0302284 0.0409908 0.001058 6.44893 0.0405516 -8.52435 2650 
167 1 0.0542693 -0.0177985 0.0421492 0.000291 6.88758 -0.222416 -8.86612 2650 
228 1 0.0538747 -0.00376493 0.0426401 0.000291 5.54555 -0.162167 -7.00644 2650 
18 1 0.0514147 -0.0176707 0.0444249 0.001058 7.13068 0.344061 -8.25084 2650 
229 1 0.0470149 -0.0615781 0.0490566 0.001058 7.7131 -0.0133135 -7.39219 2650 
280 1 0.0480476 -0.0308793 0.0482392 0.001058 7.57739 1.03337e-05 -7.54729 2650 
190 1 0.0477977 -0.00694939 0.0493483 0.000291 5.44171 0.2746 -5.3438 2650 
104 1 0.0441723 -0.0107451 0.0527746 0.000105 6.43714 0.757129 -5.33592 2650 
89 1 0.0376826 -0.0611601 0.0558499 0.00164 8.77312 3.03143e-07 -5.91934 2650 
118 1 0.0395954 -0.017605 0.0561539 0.000291 7.70756 -0.0646339 -5.41619 2650 
83 1 0.0327763 -0.049899 0.0595421 0.001058 9.35155 0.00400164 -5.14768 2650 
215 1 0.0231802 -0.0485457 0.0638966 0.001058 10.0414 -0.00390421 -3.64291 2650 
84 1 0.017652 -0.0510581 0.0656317 0.001058 10.3021 0.00186971 -2.77076 2650 
287 1 0.0194964 -0.0498301 0.0651121 0.001058 10.1623 0.0192922 -3.04294 2650 
264 1 0.0182546 -0.0481055 0.0654728 0.001058 10.2607 0.0309298 -2.86075 2650 
133 1 0.0204609 -0.028955 0.0655871 0.000291 9.94512 -0.0680428 -3.1032 2650 
109 1 0.0156204 -0.0515821 0.0669222 0.000291 10.5105 -0.0134162 -2.45327 2650 
290 1 0.0173815 -0.0477559 0.0664931 0.000291 10.4668 -0.0103301 -2.73601 2650 
181 1 0.0172702 -0.0471097 0.0665246 0.000291 10.4591 -0.0669412 -2.71555 2650 
272 1 0.00684012 -0.0433051 0.0676045 0.001058 10.4576 0.194545 -1.05497 2650 
87 1 0.0104223 -0.019135 0.0679211 0.000291 8.47153 -0.0217034 -1.30469 2650 
186 1 0.0120789 -0.0194484 0.0668738 0.001058 8.63548 -0.346381 -1.53426 2650 
223 1 0.0125983 -0.0165608 0.0667845 0.001058 9.68567 0.316305 -1.835 2650 
150 1 0.0007918 -0.0294904 0.0687041 0.000291 10.3882 -0.193824 -0.119579 2650 
267 1 0.00116689 -0.0177611 0.0686981 0.000291 10.0241 -0.145446 -0.173282 2650 
235 1 0.00618957 -0.0118764 0.0684316 0.000291 11.1948 0.0130552 -1.01355 2650 
260 1 0.00820258 0.0069558 -0.0144352 0.000291 -0.00996736 0.00469349 0.00488237 2650 
54 1 0.00818208 0.0327582 -0.0143166 0.000291 -0.0419811 -0.00158121 -0.0215212 2650 
286 1 0.00634663 0.0390139 -0.0145232 0.001058 -0.02115 0.0482903 -0.0107899 2650 
153 1 0.00907539 0.00428206 -0.012031 0.00164 0.00901504 -0.00371715 -0.0192614 2650 
33 1 0.00226841 0.0292244 -0.0120943 0.00164 0.00603998 0.0215627 0.00352792 2650 
301 1 0.00196263 0.0415403 -0.0131305 0.001058 -0.0176549 0.0163122 0.00371725 2650 
195 1 0.0119472 0.000934661 -0.0102537 0.001058 -0.0182689 0.00246922 -0.0247001 2650 
292 1 0.00426657 0.0514402 -0.0118516 0.001058 -0.0104367 0.0376087 -0.0291473 2650 
284 1 0.0120708 0.0131787 -0.00801828 0.000291 -0.00371053 0.00586111 -0.00129449 2650 
176 1 0.0155063 0.000266997 -0.00612867 0.000105 -0.0113334 0.00168079 0.000719247 2650 
77 1 0.0100627 0.0118184 -0.00770491 0.000291 -0.0117356 0.000913058 0.0103562 2650 
19 1 0.0131799 0.0111082 -0.00719148 0.001058 -0.00189711 0.0050805 -0.00113271 2650 
123 1 0.0125981 0.0377003 -0.00676071 0.001058 -0.0069266 0.0381635 -0.00768552 2650 
101 1 0.0123459 0.000335703 -0.00412213 0.000291 0.0107852 -0.0015929 -0.0095042 2650 
199 1 0.0139935 0.00551053 -0.00497383 0.000291 -0.0066469 0.00203541 -0.00705897 2650 
161 1 0.0136298 0.00787574 -0.00486669 0.00164 -0.000454856 0.00568005 -0.00417258 2650 
57 1 0.00563607 0.0270783 -0.00541653 0.00164 -0.000919831 0.00616449 -0.024056 2650 
70 1 0.00417323 0.0532209 -0.00484281 0.000291 0.000986621 0.0559838 -0.0454673 2650 
113 1 0.00028159 0.00571097 -0.00217682 0.00164 -0.0131936 -0.00156564 -0.00033725 2650 
51 1 0.00101321 0.0140266 -0.00376228 0.001058 -0.0414136 0.0415048 -0.0353246 2650 
203 1 0.0113911 0.0261079 -0.00253867 0.001058 0.0105265 0.0334803 0.00411967 2650 
249 1 0.00598578 0.035323 -0.00301676 0.000291 0.00987628 0.0185258 -0.0129358 2650 
258 1 0.0123083 0.0393324 -0.00200288 0.001058 -0.00702738 0.0458888 -0.00817646 2650 
279 1 0.011371 0.00597439 -0.000392824 0.001058 0.00690887 -0.00122776 0.0071413 2650 
1 1 0.0139877 0.00612701 -0.00189158 0.00164 -0.00396175 0.00352346 -0.00443708 2650 
194 1 0.0119318 0.0345819 -0.000117316 0.001058 -0.00717738 0.0355954 0.00284246 2650 
263 1 0.00872095 0.0585762 -0.00170456 0.000291 -0.0276857 0.0691876 -0.0511194 2650 
92 1 0.0126526 0.0079052 1.27684e-05 0.001058 0.00298746 0.00292354 0.00546929 2650 
38 1 0.0121753 0.018815 0.00363929 0.000291 0.0290333 0.00993382 0.0254358 2650 
106 1 0.000288535 0.0320647 0.00255973 0.001058 0.0119634 0.0223893 -0.0027555 2650 
52 1 0.015328 0.0497665 0.00257256 0.001058 0.020942 0.0217799 -0.017467 2650 
17 1 0.0147002 0.053349 0.00311976 0.00164 0.00701424 0.0397619 -0.0326359 2650 
9 1 0.0135016 0.0375238 0.00473496 0.00164 -0.00067168 0.0470366 0.00650688 2650 
298 1 0.0130137 0.00270471 0.00711815 0.000105 0.00377194 -0.00442838 -0.00799766 2650 
238 1 0.014123 0.0490054 0.00660435 0.001058 0.0185997 0.0286204 -0.0105297 2650 
156 1 0.0124747 0.00674601 0.00903597 0.001058 -0.00386139 -0.00886559 -0.00604091 2650 
293 1 0.0132737 0.0431969 0.00859133 0.001058 0.049836 0.00188159 -0.09294 2650 
66 1 0.0109258 0.00792568 0.0104791 0.001058 0.00109107 -0.000952032 -0.00287426 2650 
265 1 0.0119868 0.0124432 0.0102193 0.001058 0.00631372 0.00593974 -0.00936806 2650 
139 1 0.00925568 0.0247744 0.0105481 0.001058 -0.0138539 0.00679752 0.0124887 2650 
242 1 0.00111188 0.0365188 0.0113362 0.000291 0.0116924 0.0265357 0.00697501 2650 
222 1 0.00123267 0.000481908 0.0123894 0.001058 -0.0324875 0.00467874 -0.0112895 2650 
105 1 0.00698978 0.0191033 0.0125764 0.00164 -0.0169664 0.0100977 -0.000660089 2650 
41 1 0.00292422 0.0203619 0.0140115 0.00164 0.0068016 0.00438666 -0.0112207 2650 
245 1 0.00956065 0.0968765 -0.0127823 0.001058 0.013355 0.0538623 -0.0223836 2650 
75 1 0.00974819 0.0762446 -0.0118524 0.001058 0.0240155 0.0510522 0.00788599 2650 
127 1 0.015144 0.0877866 -0.00463268 0.000291 0.0147798 0.0618117 0.0201086 2650 
