ITEM: TIMESTEP
21485273
ITEM: NUMBER OF ATOMS
261
ITEM: BOX BOUNDS ff ff ff
-0.15 0.15
-0.15 0.15
-0.15 0.15
ITEM: ATOMS id type x y z radius vx vy vz density 
78 1 -0.00760128 -0.0471686 -0.0682918 0.000291 -10.5059 0.300917 1.16946 2650 
48 1 -0.00430269 -0.0466839 -0.0687594 0.000105 -10.9226 -0.0170006 0.684109 2650 
87 1 -0.0190347 -0.0184774 -0.0660394 0.000291 -9.07383 -0.0404886 2.61417 2650 
26 1 -0.0170833 -0.0495446 -0.0657849 0.001058 -10.3334 -3.25628e-05 2.68343 2650 
168 1 -0.0229504 -0.0198043 -0.0649773 0.000105 -9.31975 -0.534642 3.2953 2650 
104 1 -0.0213334 -0.0173043 -0.0655295 0.000105 -8.64112 -0.306925 2.81583 2650 
269 1 -0.0275078 -0.0118153 -0.0629849 0.000291 -9.09042 0.155822 3.97155 2650 
303 1 -0.0368062 -0.0173854 -0.0580269 0.000291 -8.04569 -0.091488 5.09527 2650 
219 1 -0.03654 -0.00029094 -0.0581866 0.000291 -7.62192 -0.0012851 4.78666 2650 
118 1 -0.0375784 -0.0163399 -0.0575246 0.000291 -7.97671 0.14595 5.22453 2650 
85 1 -0.0445106 -0.0125037 -0.0522835 0.000291 -6.81568 -0.326105 5.75736 2650 
34 1 -0.0480252 -0.030875 -0.0482598 0.001058 -7.58064 -2.12564e-08 7.54378 2650 
300 1 -0.0496921 -0.0231458 -0.0463374 0.001058 -6.59301 0.309331 7.00058 2650 
185 1 -0.0502141 -0.0518697 -0.0449183 0.00164 -7.05563 0.000102848 7.88748 2650 
162 1 -0.0533294 -0.0473832 -0.042115 0.001058 -6.61528 0.000447606 8.37679 2650 
42 1 -0.0542009 -0.0548074 -0.0409822 0.001058 -6.43702 -0.00223831 8.51332 2650 
81 1 -0.0527589 -0.050012 -0.0419078 0.00164 -6.58294 0.000419579 8.28744 2650 
88 1 -0.0560649 -0.011119 -0.0400534 0.000105 -5.34659 0.571301 7.48121 2650 
172 1 -0.0560299 -0.0546942 -0.0384478 0.001058 -6.03944 -0.00194404 8.80129 2650 
193 1 -0.0555491 -0.0498677 -0.0381467 0.00164 -5.99161 -9.30962e-05 8.72493 2650 
20 1 -0.05711 -0.0555098 -0.0368214 0.001058 -5.78383 -0.00251619 8.97076 2650 
43 1 -0.0584893 -0.0501256 -0.0346154 0.001058 -5.44193 0.0220024 9.19449 2650 
184 1 -0.0591669 -0.00933212 -0.0353158 0.000105 -4.93917 -0.589209 8.26951 2650 
148 1 -0.0595363 -0.0531338 -0.032769 0.001058 -5.14738 0.000590921 9.35197 2650 
35 1 -0.0599665 -0.0508741 -0.0319892 0.001058 -5.02485 -4.26611e-06 9.41951 2650 
188 1 -0.0615294 -0.0616406 -0.0288274 0.001058 -4.52865 -0.000908644 9.66604 2650 
254 1 -0.06254 -0.0508262 -0.0284988 0.000291 -4.45938 -0.0133698 9.78644 2650 
218 1 -0.0619315 -0.0492081 -0.0280097 0.001058 -4.39961 0.000488876 9.72788 2650 
247 1 -0.0630431 -0.0496838 -0.0273763 0.000291 -4.29442 0.0116263 9.88952 2650 
236 1 -0.065669 -0.0616379 -0.0174476 0.001058 -2.74109 -0.000849399 10.3169 2650 
159 1 -0.0665896 -0.0498385 -0.0170048 0.000291 -2.73516 0.144639 10.7122 2650 
74 1 -0.00870196 -0.00108653 -0.0125846 0.001058 0.00552843 -0.00502923 -0.00272883 2650 
58 1 -0.00385752 -0.000518391 -0.0116526 0.001058 0.020455 0.00490158 -0.0306807 2650 
71 1 -0.000446376 -0.000925802 -0.0113823 0.000291 0.000861808 -0.00718564 -0.0173142 2650 
135 1 -0.00706289 -0.00271287 -0.00986198 0.000291 0.00330025 -0.00264717 0.00636962 2650 
61 1 -0.0682441 -0.021041 -0.00775382 0.000291 -1.14677 -0.233967 9.5874 2650 
255 1 -0.068553 -0.0123427 -0.003778 0.000291 -0.526746 0.0363595 9.56504 2650 
138 1 -0.0674692 -0.0560011 0.00803831 0.001058 1.26079 -0.00365681 10.5816 2650 
146 1 -0.0672253 -0.0488612 0.00992741 0.001058 1.55934 -0.000202689 10.5594 2650 
197 1 -0.0678709 -0.00693466 0.0107073 0.000291 1.15354 -0.214197 7.37299 2650 
248 1 -0.0674182 -0.0317815 0.0132495 0.000291 2.02241 -0.162202 10.2906 2650 
95 1 -0.00028331 -0.000203283 0.0120167 0.000291 -0.0190214 0.000188354 -0.00919676 2650 
45 1 -0.0651892 -0.0219931 0.0217373 0.000291 2.89307 -0.018114 8.64006 2650 
179 1 -0.0619713 -0.0489339 0.0279226 0.001058 4.38745 -0.000872322 9.73769 2650 
110 1 -0.0632423 -0.0100992 0.0268971 0.000291 3.47284 -0.246396 8.1742 2650 
93 1 -0.0622315 -0.0494685 0.0291753 0.000291 4.57297 1.73368e-05 9.75497 2650 
59 1 -0.0617679 -0.0465968 0.0283745 0.001058 4.45702 -0.000138661 9.70238 2650 
165 1 -0.0621753 -0.0457059 0.029302 0.000291 4.60288 -0.000449879 9.76675 2650 
49 1 -0.0600396 -0.0490854 0.030617 0.00164 4.80928 -0.000402348 9.43095 2650 
271 1 -0.0604676 -0.0182315 0.031038 0.001058 4.52319 -0.127094 8.86494 2650 
257 1 -0.0590241 -0.048842 0.0337014 0.001058 5.29151 -0.00931216 9.26748 2650 
296 1 -0.0604726 -0.00997156 0.0326495 0.000291 4.29818 0.278572 7.98634 2650 
6 1 -0.0601115 -0.0103837 0.033309 0.000291 4.42763 0.0787265 7.97499 2650 
182 1 -0.0586894 -0.0158928 0.0357646 0.000291 4.64523 0.20717 7.63974 2650 
112 1 -0.0581857 -0.0197014 0.036915 0.000105 5.21953 0.365966 8.23255 2650 
175 1 -0.0577334 -0.0114723 0.0372788 0.000291 4.91494 -0.0357335 7.60622 2650 
40 1 -0.0563219 -0.000104994 0.039677 0.000105 4.5017 -2.11266e-05 6.42102 2650 
214 1 -0.0525441 -0.057187 0.0442706 0.000291 6.73296 0.342651 7.98942 2650 
295 1 -0.0521902 -0.0283238 0.0446863 0.000291 6.70716 0.137804 7.83693 2650 
208 1 -0.0482606 -0.0308698 0.0480258 0.001058 7.54388 3.30269e-08 7.58076 2650 
128 1 -0.0435815 -0.00968037 0.0533544 0.000105 6.59518 -0.370351 5.378 2650 
277 1 -0.0411223 -0.0377921 0.0550298 0.000291 8.26841 -0.0995743 6.17581 2650 
267 1 -0.0392375 -0.0201304 0.0563849 0.000291 8.40026 0.366732 5.82474 2650 
186 1 -0.0339008 -0.0164391 0.0589103 0.001058 8.90065 0.0416112 5.12425 2650 
223 1 -0.0319728 -0.0163071 0.0599795 0.001058 9.1296 0.101666 4.86457 2650 
302 1 -0.0300029 -0.0397551 0.061823 0.000291 9.5069 -0.503322 4.61605 2650 
171 1 -0.025288 -0.0494773 0.0630914 0.001058 9.90214 0.00892864 3.9689 2650 
90 1 -0.0232 -0.0495033 0.0638883 0.001058 10.0332 0.00672812 3.64342 2650 
21 1 -0.0294601 -0.0488996 0.0620987 0.000291 9.7613 -0.0253416 4.63078 2650 
225 1 -0.0242298 -0.0476915 0.0635078 0.001058 9.97833 -0.00195666 3.8069 2650 
282 1 -0.0278806 -0.0263962 0.0627936 0.000291 8.72817 0.442158 3.87202 2650 
23 1 -0.022322 -0.0488751 0.0650063 0.000291 10.1497 0.0934621 3.48575 2650 
76 1 -0.0179943 -0.044956 0.0655427 0.001058 10.2414 -0.0175719 2.81165 2650 
14 1 -0.0116793 -0.041944 0.0677172 0.000291 10.6839 -0.483136 1.84311 2650 
44 1 -0.000165896 -0.030875 0.0680838 0.001058 10.6946 -2.12567e-08 0.0260591 2650 
198 1 -0.00134514 0.00320266 -0.0164684 0.000291 0.0763514 -0.0170439 -0.00317901 2650 
54 1 -0.00122102 0.0323959 -0.0165605 0.000291 -0.0465548 -0.00183561 -0.00180929 2650 
134 1 -0.00569188 0.00772869 -0.0153848 0.000291 -0.00544633 0.00352621 0.00729171 2650 
97 1 -0.00356091 0.010549 -0.0143752 0.00164 0.0189231 0.00904729 -0.00561719 2650 
80 1 -0.00439923 0.0231799 -0.0156483 0.000105 0.0200167 0.0220396 -0.007602 2650 
232 1 -0.00834842 0.0401221 -0.0133825 0.001058 -0.0196298 0.0266647 0.016804 2650 
301 1 -0.00174484 0.0449659 -0.0123499 0.001058 -0.0176549 0.0163122 0.00371725 2650 
10 1 -0.0115666 0.0103167 -0.0102454 0.001058 0.0053433 0.0061558 -0.0070677 2650 
51 1 -0.00768353 0.0227425 -0.0111804 0.001058 -0.0414136 0.0415048 -0.0353246 2650 
130 1 -0.00774474 0.00347066 -0.00959091 0.001058 -0.00692202 0.00347734 0.00595777 2650 
67 1 -0.0141697 0.0220254 -0.00623379 0.001058 -0.0104976 0.0129104 0.0114407 2650 
113 1 -0.00248903 0.00538219 -0.00224764 0.00164 -0.0131936 -0.00156564 -0.00033725 2650 
129 1 -0.00143164 0.0127783 -0.00315822 0.00164 -0.00374589 0.0128173 -0.00288427 2650 
7 1 -0.00235133 0.0341953 -0.00338301 0.000291 0.00378858 0.0136367 -0.000251809 2650 
65 1 -0.0150174 0.0316962 -0.00099244 0.00164 0.00199904 0.0128894 0.00103488 2650 
234 1 -0.013445 0.0118309 0.00189094 0.000291 -0.00131366 0.00431637 0.0126772 2650 
205 1 -0.0103963 0.00359284 0.00259136 0.000291 -0.00881861 0.00364628 0.0236275 2650 
256 1 -0.0155988 0.0269402 0.00582617 0.000291 0.000881351 0.0216623 0.00465977 2650 
217 1 -0.00904651 0.0527281 0.00443914 0.001058 0.000747792 0.0265619 -0.00553463 2650 
211 1 -0.0120781 0.0074776 0.00746368 0.001058 0.000982608 0.00314487 0.00709992 2650 
115 1 -0.0140399 0.0203743 0.00744913 0.001058 0.0059455 0.0116516 0.00703082 2650 
209 1 -0.0125188 0.000916819 0.0094848 0.001058 0.0110369 -0.0181584 0.0135773 2650 
68 1 -0.000363532 0.0056043 0.00815132 0.001058 0.00272783 -0.00342387 -0.00169301 2650 
187 1 -0.0131298 0.0304537 0.00892966 0.001058 0.00749407 0.0151236 0.010031 2650 
273 1 -0.000274804 0.0631853 0.00913643 0.001058 0.00511 0.0387776 -0.00978519 2650 
28 1 -0.00785044 0.0726742 0.00995484 0.001058 0.00734507 0.0503926 0.00344867 2650 
222 1 -0.00558962 0.00146443 0.0100186 0.001058 -0.0324875 0.00467874 -0.0112895 2650 
224 1 -0.00826833 0.0169899 0.0108885 0.001058 0.0046856 0.00178326 -0.00382818 2650 
220 1 -0.0107455 0.0300821 0.0103686 0.000291 0.00991537 0.0130183 0.0124552 2650 
299 1 -0.00467237 0.000869759 0.0130179 0.001058 0.00581403 -0.00322581 0.00124072 2650 
244 1 -0.00717644 0.0204598 0.0138459 0.001058 0.0327341 0.0229953 0.0151094 2650 
4 1 -0.00629839 0.00890712 0.0144845 0.001058 0.0064118 0.000915196 0.00341804 2650 
266 1 -0.00319954 0.0152036 0.0155414 0.001058 0.0362563 0.0106261 0.00758509 2650 
124 1 -9.37107e-05 0.0560767 0.0156159 0.001058 0.0237177 0.0354635 -0.00375445 2650 
294 1 0.000165896 -0.030875 -0.0680838 0.001058 -10.6946 -1.72548e-08 -0.0260591 2650 
131 1 0.0087434 -0.0484623 -0.0673896 0.001058 -10.5858 0.00260125 -1.37348 2650 
82 1 0.00092734 -0.0413437 -0.0679418 0.001058 -10.7709 0.0312066 -0.147415 2650 
125 1 0.0186606 -0.0364344 -0.0661265 0.000291 -10.6714 0.130077 -3.01925 2650 
24 1 0.0147237 -0.0298356 -0.067301 0.000105 -10.5039 0.916585 -2.29785 2650 
239 1 0.0182934 -0.0500056 -0.0654586 0.001058 -10.2847 0.00636052 -2.87417 2650 
119 1 0.0209169 -0.0502561 -0.0654677 0.000291 -10.2591 -0.0210684 -3.27784 2650 
288 1 0.0197573 -0.048193 -0.0658303 0.000291 -10.3454 -0.00511811 -3.10496 2650 
230 1 0.0204591 -0.0487445 -0.0648169 0.001058 -10.1783 -0.00387628 -3.21279 2650 
191 1 0.0236641 -0.0479993 -0.0645316 0.000291 -10.1433 0.0373492 -3.71962 2650 
36 1 0.0224482 -0.0484508 -0.064158 0.001058 -10.0748 -0.00454442 -3.52513 2650 
270 1 0.0220234 -0.0150421 -0.0651087 0.000291 -8.04097 -0.318625 -2.72386 2650 
108 1 0.0259766 -0.0476839 -0.0628112 0.001058 -9.93042 -0.00740075 -4.10794 2650 
213 1 0.027781 -0.0478035 -0.0628684 0.000291 -9.8933 -0.0450916 -4.37163 2650 
140 1 0.0236593 -0.0463851 -0.0637231 0.001058 -10.0356 -0.0209221 -3.7261 2650 
60 1 0.0273617 -0.0431044 -0.0622179 0.001058 -9.77222 -0.00300881 -4.29755 2650 
50 1 0.0236161 -0.0380145 -0.0637168 0.001058 -10.1371 0.103564 -3.75752 2650 
278 1 0.0265611 -0.0341892 -0.0625336 0.001058 -9.78365 -0.00383969 -4.1558 2650 
228 1 0.0264027 -0.0117959 -0.0634569 0.000291 -8.26137 -0.21236 -3.44618 2650 
243 1 0.0298066 -0.0508399 -0.0610818 0.001058 -9.59466 -0.000310965 -4.68198 2650 
2 1 0.0311572 -0.0493573 -0.0604074 0.001058 -9.48867 -0.000363931 -4.89412 2650 
201 1 0.0281252 -0.0455036 -0.0612487 0.00164 -9.61814 -0.00204629 -4.41656 2650 
79 1 0.0302117 -0.0401557 -0.0617206 0.000291 -9.69221 0.410128 -4.7429 2650 
259 1 0.0292145 -0.0308992 -0.06137 0.001058 -9.63894 -0.000145583 -4.5885 2650 
86 1 0.0308288 -0.0306471 -0.0614169 0.000291 -9.94057 -0.345025 -5.00606 2650 
122 1 0.0293133 -0.0287871 -0.0612944 0.001058 -9.62808 -8.12916e-05 -4.60452 2650 
96 1 0.0307667 -0.00912359 -0.0616565 0.000105 -7.78624 0.0603081 -3.87127 2650 
281 1 0.0345211 -0.0622793 -0.0594323 0.000291 -9.33241 -1.84131e-06 -5.42072 2650 
99 1 0.0339197 -0.0484173 -0.0588998 0.001058 -9.25124 -0.0041259 -5.32764 2650 
121 1 0.0312067 -0.0458158 -0.0597354 0.00164 -9.38549 0.00327164 -4.90322 2650 
174 1 0.0340133 -0.0274501 -0.0596955 0.000291 -9.24864 -0.175366 -5.27038 2650 
152 1 0.0354441 -0.0253001 -0.0590758 0.000105 -9.73552 -0.780536 -5.83812 2650 
196 1 0.0358316 -0.0476862 -0.0577535 0.001058 -9.0403 0.0487781 -5.60784 2650 
64 1 0.0378563 -0.0102639 -0.0575745 0.000105 -7.2426 -0.148045 -4.75984 2650 
73 1 0.0394136 -0.0581482 -0.0546354 0.00164 -8.5819 0.00059646 -6.19093 2650 
141 1 0.0398137 -0.0353825 -0.0559961 0.000291 -8.83052 -0.0137522 -6.27867 2650 
15 1 0.044481 -0.0227316 -0.0523666 0.000291 -8.34807 0.459644 -7.0894 2650 
240 1 0.0467222 -0.0335701 -0.0503707 0.000291 -7.12645 0.0855966 -6.57723 2650 
204 1 0.0449234 -0.0311974 -0.0509783 0.001058 -8.00917 0.0119194 -7.05793 2650 
18 1 0.0438162 -0.021025 -0.0519346 0.001058 -8.22744 -0.131605 -6.93301 2650 
280 1 0.0482607 -0.0308793 -0.0480259 0.001058 -7.54389 1.03337e-05 -7.58078 2650 
229 1 0.049156 -0.0616305 -0.0469108 0.001058 -7.36878 0.00011872 -7.72147 2650 
167 1 0.0522516 -0.0152592 -0.0445999 0.000291 -5.60628 0.275318 -6.64783 2650 
89 1 0.0558668 -0.0611601 -0.0376575 0.00164 -5.9154 2.87158e-07 -8.77577 2650 
272 1 0.0584896 -0.0476662 -0.0346215 0.001058 -5.41915 0.0157391 -9.15554 2650 
192 1 0.059043 -0.000104996 -0.0354994 0.000105 -4.71201 9.53877e-05 -7.82509 2650 
83 1 0.0595516 -0.0498853 -0.0327588 0.001058 -5.1455 -0.000358885 -9.35391 2650 
126 1 0.0603306 -0.0261204 -0.0328764 0.000291 -4.7154 -0.119902 -8.657 2650 
181 1 0.064392 -0.0468244 -0.0240441 0.000291 -3.77209 0.0537705 -10.1019 2650 
215 1 0.0639083 -0.0485432 -0.0231481 0.001058 -3.63598 0.000400571 -10.0384 2650 
287 1 0.0651111 -0.0499115 -0.0194983 0.001058 -3.06281 5.45921e-05 -10.2277 2650 
264 1 0.0654739 -0.048242 -0.0182499 0.001058 -2.86672 7.98483e-05 -10.2847 2650 
84 1 0.0656428 -0.0510922 -0.0176096 0.001058 -2.7659 0.00452265 -10.3104 2650 
290 1 0.0664652 -0.0487605 -0.0174961 0.000291 -2.74824 0.000605172 -10.4402 2650 
109 1 0.0669793 -0.0516181 -0.0153785 0.000291 -2.41148 0.0156223 -10.5027 2650 
304 1 0.0680067 -0.0129387 -0.00985472 0.000291 -1.47812 0.396109 -10.1572 2650 
150 1 0.0687066 -0.0319222 -0.00057535 0.000291 -0.0903058 0.013499 -10.786 2650 
285 1 0.0680838 -0.030875 0.000165896 0.001058 0.0260591 -2.13237e-08 -10.6946 2650 
132 1 0.0673868 -0.0263655 0.00869462 0.001058 1.34794 0.303074 -10.4261 2650 
202 1 0.0671895 -0.0307951 0.0101649 0.001058 1.59928 0.0576242 -10.5728 2650 
3 1 0.0670403 -0.0267421 0.0110591 0.001058 1.69942 -0.0105291 -10.3181 2650 
103 1 0.0669325 -0.0530079 0.0155536 0.000291 2.38732 0.0529504 -10.2852 2650 
250 1 0.00239499 -0.00231588 0.0152197 0.001058 0.0161046 -0.00542442 -0.00110725 2650 
170 1 0.00575972 -0.00265544 0.0145138 0.001058 0.0153298 -0.00470662 -0.00726617 2650 
137 1 0.065313 -0.0611601 0.0165331 0.00164 2.59687 -8.16432e-07 -10.2588 2650 
226 1 0.0665089 -0.0448049 0.017303 0.000291 2.7715 -0.100411 -10.6555 2650 
164 1 0.0649727 -0.0469653 0.019958 0.001058 3.19289 -0.0649298 -10.3967 2650 
102 1 0.0641393 -0.0207796 0.0246791 0.000291 3.62926 -0.736731 -9.44104 2650 
37 1 0.0642816 -0.0170128 0.0243272 0.000291 3.67284 0.094679 -9.70051 2650 
291 1 0.0630771 -0.047092 0.0273079 0.000291 4.35157 -0.451128 -10.0546 2650 
231 1 0.0592502 -0.044472 0.0333025 0.001058 5.23015 -0.0558458 -9.30769 2650 
221 1 0.0607123 -0.0220551 0.0321905 0.000291 4.41313 -0.0936663 -8.35216 2650 
133 1 0.058873 -0.0235751 0.035431 0.000291 5.46139 -0.095138 -9.07548 2650 
25 1 0.051129 -0.058811 0.0438733 0.00164 6.89164 -6.67639e-05 -8.03137 2650 
178 1 0.0526138 -0.0567366 0.0429954 0.001058 6.75371 -3.8563e-05 -8.26457 2650 
206 1 0.0504047 -0.062509 0.0466946 0.000291 7.33474 1.86284e-09 -7.91752 2650 
169 1 0.0491025 -0.0611601 0.0461327 0.00164 7.24645 4.57202e-07 -7.71294 2650 
246 1 0.0496185 -0.0585276 0.0464205 0.001058 7.2919 -1.66622e-05 -7.79425 2650 
145 1 0.0490243 -0.0393032 0.0462114 0.00164 7.29694 -0.037196 -7.74378 2650 
241 1 0.0475909 -0.038236 0.0495455 0.000291 7.87621 -0.223306 -7.56377 2650 
251 1 0.0480252 -0.030875 0.0482598 0.001058 7.58064 -2.12283e-08 -7.54378 2650 
210 1 0.0455613 -0.0341798 0.0504037 0.001058 7.88944 0.0313882 -7.13285 2650 
276 1 0.0445565 -0.0333356 0.0522993 0.000291 8.21594 0.149595 -6.99921 2650 
261 1 0.0429185 -0.0258637 0.0536545 0.000291 8.07577 -0.00585226 -6.46202 2650 
117 1 0.0436933 -0.0188264 0.0530283 0.000291 7.80177 -0.240823 -6.42925 2650 
46 1 0.041674 -0.0204625 0.0546321 0.000291 7.69395 -0.332361 -5.86357 2650 
39 1 0.0370755 -0.0367465 0.0578472 0.000291 8.96744 -0.0392134 -5.7486 2650 
55 1 0.0383162 -0.0149999 0.0570505 0.000291 5.03288 0.0994683 -3.38281 2650 
200 1 0.0388166 -0.0111812 0.0569301 0.000105 7.79985 0.0371394 -5.31343 2650 
29 1 0.0267954 -0.0127329 0.0632925 0.000291 8.64765 -0.0385105 -3.65515 2650 
16 1 0.0259374 -0.0112818 0.0638463 0.000105 8.38071 0.105218 -3.41306 2650 
47 1 0.0292656 -0.0104031 0.0621831 0.000291 8.00118 0.167448 -3.76029 2650 
107 1 0.0202783 -0.0487508 0.0648741 0.001058 10.1866 -0.0241936 -3.18416 2650 
100 1 0.0163555 -0.0189092 0.0659652 0.001058 10.2555 0.0082855 -2.54259 2650 
177 1 0.0171256 -0.016067 0.0651813 0.00164 10.4533 -0.00583536 -2.7434 2650 
207 1 0.0232485 -0.0161384 0.0646825 0.000291 10.5465 -0.145964 -3.78791 2650 
252 1 0.0201283 -0.0149797 0.0649215 0.001058 10.3839 -0.00316067 -3.21905 2650 
268 1 0.0230027 -0.0153097 0.0647697 0.000291 10.6127 -0.0672011 -3.76944 2650 
235 1 0.022941 -0.0111363 0.0647856 0.000291 10.4211 0.169375 -3.69244 2650 
227 1 0.0108425 -0.0459746 0.0678597 0.000291 10.5057 0.0373624 -1.67812 2650 
253 1 0.0150323 -0.0238181 0.067039 0.000291 10.5445 0.218294 -2.3629 2650 
275 1 0.0160118 -0.0222083 0.0668184 0.000291 9.93624 -0.760816 -2.37896 2650 
98 1 0.0128274 -0.0186832 0.0667365 0.001058 10.2971 0.043856 -1.98291 2650 
94 1 0.0155619 -0.0165747 0.0669427 0.000291 10.4425 0.0788745 -2.42766 2650 
22 1 0.0124559 -0.0147523 0.0675788 0.000291 10.2475 -0.430901 -1.90145 2650 
212 1 0.0188096 -0.0155529 0.0661065 0.000291 10.5991 0.136915 -3.01363 2650 
173 1 0.0110103 -0.00771702 0.0678227 0.000291 10.4132 -0.271261 -1.69439 2650 
190 1 0.014129 -0.00734802 0.0672426 0.000291 8.34782 -0.0332731 -1.7497 2650 
158 1 0.0073742 -0.00967585 0.0683006 0.000291 9.48299 0.0569812 -1.00174 2650 
195 1 0.00693422 0.00155307 -0.0141294 0.001058 -0.0267287 0.00320605 -0.0143667 2650 
286 1 0.00159341 0.0489931 -0.0157305 0.001058 -0.0231657 0.0468693 -0.00120143 2650 
292 1 0.00130874 0.0590801 -0.0147157 0.001058 -0.0198756 0.0344324 0.0109755 2650 
70 1 0.00438042 0.0649774 -0.0143908 0.000291 0.000986621 0.0559838 -0.0454673 2650 
260 1 0.00610947 0.00794141 -0.0134099 0.000291 -0.00996736 0.00469349 0.00488237 2650 
263 1 0.00290703 0.0731054 -0.0124395 0.000291 -0.0276857 0.0691876 -0.0511194 2650 
153 1 0.00764255 0.0039547 -0.0108228 0.00164 -0.00763413 -0.0014489 0.00703428 2650 
57 1 0.00544291 0.0283728 -0.0104682 0.00164 -0.000919831 0.00616449 -0.024056 2650 
33 1 0.00353679 0.0337525 -0.0113534 0.00164 0.00603998 0.0215627 0.00352792 2650 
293 1 0.0110136 0.0422345 -0.0113434 0.001058 -0.0763931 -0.0117912 -0.0667142 2650 
114 1 0.00280702 0.0135039 -0.00875769 0.001058 0.0187062 0.0117361 -0.00752779 2650 
284 1 0.0112916 0.0144095 -0.00829012 0.000291 -0.00371053 0.00586111 -0.00129449 2650 
123 1 0.0111435 0.0457145 -0.00837465 0.001058 -0.0069266 0.0381635 -0.00768552 2650 
101 1 0.0146108 1.19921e-06 -0.00611799 0.000291 0.0107852 -0.0015929 -0.0095042 2650 
199 1 0.0125977 0.00593796 -0.0064562 0.000291 -0.0066469 0.00203541 -0.00705897 2650 
19 1 0.0127815 0.0121751 -0.00742934 0.001058 -0.00189711 0.0050805 -0.00113271 2650 
176 1 0.0131263 0.000619959 -0.00597763 0.000105 -0.0113334 0.00168079 0.000719247 2650 
161 1 0.0135343 0.00906853 -0.00574292 0.00164 -0.000454856 0.00568005 -0.00417258 2650 
77 1 0.00759822 0.0120101 -0.00553014 0.000291 -0.0117356 0.000913058 0.0103562 2650 
249 1 0.00805978 0.0392134 -0.00573324 0.000291 0.00987628 0.0185258 -0.0129358 2650 
1 1 0.0131557 0.00686693 -0.00282335 0.00164 -0.00396175 0.00352346 -0.00443708 2650 
258 1 0.0108326 0.0489689 -0.00371991 0.001058 -0.00702738 0.0458888 -0.00817646 2650 
17 1 0.0161732 0.0616989 -0.00373369 0.00164 0.00701424 0.0397619 -0.0326359 2650 
203 1 0.0136017 0.0331386 -0.00167355 0.001058 0.0105265 0.0334803 0.00411967 2650 
52 1 0.0143157 0.0538862 -0.00108595 0.001058 -0.00702953 0.0194323 -0.0174178 2650 
279 1 0.0128218 0.00571656 0.00110683 0.001058 0.00690887 -0.00122776 0.0071413 2650 
92 1 0.01328 0.00851914 0.0011613 0.001058 0.00298746 0.00292354 0.00546929 2650 
106 1 0.00280082 0.0367664 0.00198109 0.001058 0.0119634 0.0223893 -0.0027555 2650 
194 1 0.0104246 0.0420569 0.000479594 0.001058 -0.00717738 0.0355954 0.00284246 2650 
238 1 0.0142782 0.0544693 0.00325854 0.001058 -0.00137728 0.0257105 -0.0165728 2650 
298 1 0.0138058 0.00177476 0.00543867 0.000105 0.00377194 -0.00442838 -0.00799766 2650 
156 1 0.0116638 0.00488426 0.00776739 0.001058 -0.00386139 -0.00886559 -0.00604091 2650 
38 1 0.0133809 0.0202667 0.00724073 0.000291 -0.0203804 0.00352473 0.00785771 2650 
9 1 0.0133605 0.0474013 0.00610139 0.00164 -0.00067168 0.0470366 0.00650688 2650 
66 1 0.0111549 0.00772575 0.00987553 0.001058 0.00109107 -0.000952032 -0.00287426 2650 
265 1 0.0133126 0.0136905 0.00825207 0.001058 0.00631372 0.00593974 -0.00936806 2650 
105 1 0.00564647 0.0205216 0.0115385 0.00164 -0.00344466 0.00582004 -0.00613861 2650 
41 1 0.00213296 0.0219853 0.0125545 0.00164 -0.00672013 0.00866437 -0.0057422 2650 
144 1 0.000453712 0.0251077 0.0130985 0.000105 0.0152864 0.0109644 -0.00695946 2650 
139 1 0.0063464 0.0262018 0.0131707 0.001058 -0.0138539 0.00679752 0.0124887 2650 
242 1 0.00356725 0.0420912 0.012801 0.000291 0.0116924 0.0265357 0.00697501 2650 
147 1 0.00333946 0.0428021 0.0153947 0.001058 0.0379252 0.0108537 -0.00699358 2650 
157 1 0.00104429 0.090434 -0.0134581 0.000291 0.0079085 0.0606548 0.000918149 2650 
