ITEM: TIMESTEP
10866066
ITEM: NUMBER OF ATOMS
291
ITEM: BOX BOUNDS ff ff ff
-0.15 0.15
-0.15 0.15
-0.15 0.15
ITEM: ATOMS id type x y z radius vx vy vz density 
22 1 -0.0038233 -0.0299216 -0.0686012 0.000291 -9.82661 -0.534961 0.552942 2650 
15 1 -0.0069199 -0.0155582 -0.068334 0.000291 -8.31454 0.202169 0.822806 2650 
50 1 -0.00744601 -0.043274 -0.0675407 0.001058 -9.34578 -0.137821 1.07 2650 
140 1 -0.00949464 -0.0326299 -0.0672803 0.001058 -9.69013 -0.0162415 1.36312 2650 
82 1 -0.0138608 -0.0261378 -0.066507 0.001058 -4.58881 -0.152605 1.01218 2650 
248 1 -0.0176831 -0.0238683 -0.0663967 0.000291 -8.71779 -1.30273 2.32906 2650 
44 1 -0.0040408 -0.0168637 -0.0677945 0.001058 -9.51814 0.149617 0.551178 2650 
85 1 -0.0122842 -0.00605062 -0.0675924 0.000291 -1.84727 -0.233774 -10.3099 2650 
14 1 -0.0257855 -0.0526407 -0.0636986 0.000291 -5.34354 -1.23601 2.16803 2650 
133 1 -0.0272646 -0.0132309 -0.0630923 0.000291 -7.88827 -0.158482 3.40931 2650 
107 1 -0.0315045 -0.0320234 -0.0602022 0.001058 -9.08572 0.145897 4.75242 2650 
8 1 -0.0369082 -0.0611416 -0.0581726 0.000105 -4.24002 -0.474781 2.7425 2650 
255 1 -0.0391791 -0.0222623 -0.0564505 0.000291 -7.40931 -0.0323357 5.1374 2650 
189 1 -0.0414922 -0.048475 -0.0547423 0.000291 -8.33551 1.17919 6.34661 2650 
132 1 -0.042219 -0.013235 -0.0532449 0.001058 -7.24369 0.261794 5.70204 2650 
21 1 -0.0465386 -0.0485794 -0.0504893 0.000291 -7.31449 0.203015 6.74754 2650 
169 1 -0.0504347 -0.0602381 -0.0446729 0.00164 -7.17452 0.00105457 8.10398 2650 
167 1 -0.054307 -0.0211473 -0.0420969 0.000291 -4.56093 0.289657 5.87362 2650 
303 1 -0.019294 -0.00554162 -0.0389119 0.000291 -2.7807 -0.237407 -5.65027 2650 
221 1 -0.0595216 -0.0282068 -0.0343131 0.000291 -4.22191 0.33721 7.32147 2650 
259 1 -0.0599913 -0.0300731 -0.0319052 0.001058 -4.45584 -0.00145501 8.33489 2650 
254 1 -0.0638461 -0.0590287 -0.0253756 0.000291 -4.00497 0.669983 10.0789 2650 
137 1 -0.0653256 -0.0611601 -0.0164832 0.00164 -2.59043 -1.48336e-07 10.2663 2650 
135 1 -0.00771631 -0.000727219 -0.0105734 0.000291 -0.0060505 -0.00140209 -0.0140303 2650 
175 1 -0.013247 -0.00100226 -0.008751 0.000291 0 -0.011755 0 2650 
47 1 -0.012992 -0.000629494 -0.00960743 0.000291 -0.00125586 -0.0105028 0.00427205 2650 
240 1 -0.010392 -0.000400262 -0.005262 0.000291 0 -0.011755 0 2650 
83 1 -0.0679082 -0.0362 -0.00195088 0.001058 -0.304758 -0.0473296 10.6091 2650 
274 1 -0.016349 -0.00259326 -0.002509 0.000291 0 -0.011755 0 2650 
13 1 -0.014201 -0.000358262 -0.003882 0.000291 0 -0.011755 0 2650 
143 1 -0.0687065 -0.0358071 -0.000653601 0.000291 -0.0676817 -1.3228 6.44482 2650 
81 1 -0.0673658 -0.0276929 0.000397668 0.00164 0.0982466 0.171293 6.25868 2650 
168 1 -0.00810338 -0.00291125 -0.000707889 0.000105 -0.00582796 -0.00767706 -0.0215384 2650 
126 1 -0.00440491 -0.0021765 -0.000700078 0.000291 -0.00909177 -0.0182309 -0.0255133 2650 
120 1 -0.016055 -0.00110626 0.000189 0.000105 0 -0.011755 0 2650 
178 1 -0.0678228 -0.0548453 0.00407205 0.001058 0.62071 -0.017755 10.2447 2650 
53 1 -0.000389 -0.00303126 0.004762 0.000291 0 -0.011755 0 2650 
164 1 -0.003894 -0.000733262 0.005467 0.001058 0 -0.011755 0 2650 
58 1 -0.00819855 -0.0012344 0.00705645 0.001058 0.00939797 -0.00814862 -0.00719036 2650 
264 1 -0.0673622 -0.0480845 0.00896881 0.001058 1.47522 0.103757 10.9691 2650 
149 1 -0.0675783 -0.0288066 0.0124011 0.000291 1.82379 0.282894 9.92694 2650 
18 1 -0.0145477 -0.00491494 0.010682 0.001058 -1.04334 -0.442342 0.892267 2650 
285 1 -0.0112474 -0.00193362 0.0108674 0.001058 -0.00447436 -0.0137973 -0.00560016 2650 
171 1 -0.0665627 -0.0431058 0.0137145 0.001058 2.13081 0.0638768 10.0961 2650 
174 1 -0.0672134 -0.00548988 0.0142574 0.000291 1.73694 -0.817663 8.20523 2650 
290 1 -0.0667728 -0.0466667 0.0162812 0.000291 2.42654 0.376111 9.94647 2650 
215 1 -0.0645043 -0.0483892 0.0214238 0.001058 3.23959 -0.0438191 9.67691 2650 
151 1 -0.0652633 -0.024967 0.0214838 0.000291 2.4852 0.334627 7.58123 2650 
59 1 -0.0640483 -0.0432398 0.0227482 0.001058 2.60792 -0.0801964 7.44698 2650 
40 1 -0.0644147 -0.0117006 0.0244935 0.000105 2.6065 -0.266172 6.91254 2650 
25 1 -0.0615816 -0.0599668 0.0273149 0.00164 3.85566 0.277579 8.63228 2650 
246 1 -0.0610737 -0.0609561 0.0297725 0.001058 4.12561 0.151625 8.53231 2650 
200 1 -0.0597526 -0.00338247 0.034285 0.000105 4.24786 0.469312 7.37772 2650 
219 1 -0.0578642 -0.000290967 0.0370466 0.000291 4.45779 -7.99911e-06 6.97022 2650 
192 1 -0.0578472 -0.00010522 0.0374161 0.000105 4.50846 0.00604679 6.95619 2650 
109 1 -0.0539775 -0.0580551 0.0425103 0.000291 6.72976 -0.052166 8.54542 2650 
295 1 -0.0554403 -0.0153687 0.0405747 0.000291 5.00237 -0.058952 6.79756 2650 
108 1 -0.0523886 -0.0241095 0.0432434 0.001058 5.5218 0.00458377 6.72516 2650 
39 1 -0.0521011 -0.0344239 0.0447901 0.000291 5.88323 -0.940621 6.83424 2650 
6 1 -0.0522659 -0.0183705 0.0445489 0.000291 5.44826 -0.110911 6.48011 2650 
86 1 -0.0510096 -0.0109748 0.0459106 0.000291 5.75873 0.0847654 6.35412 2650 
63 1 -0.0940751 -0.0338092 0.0504356 0.000291 -4.15969 -0.460378 10.2726 2650 
197 1 -0.0441016 -0.00455734 0.0526858 0.000291 6.29771 -0.0149647 5.26112 2650 
89 1 -0.0372625 -0.0565426 0.0561231 0.00164 8.78423 -0.134718 5.83223 2650 
73 1 -0.0380113 -0.0533126 0.0556308 0.00164 8.73689 -0.0766457 5.96917 2650 
206 1 -0.0401023 -0.0346297 0.0557893 0.000291 6.61205 -0.957731 4.75244 2650 
34 1 -0.0393562 -0.0278076 0.0553862 0.001058 7.08567 -0.212622 5.01969 2650 
30 1 -0.0402933 -0.0207442 0.0556628 0.000291 6.97764 -0.205243 5.04037 2650 
131 1 -0.0349201 -0.0585559 0.0582828 0.001058 9.18275 -0.332681 5.503 2650 
230 1 -0.0361359 -0.054175 0.0575446 0.001058 9.08451 -0.154233 5.70335 2650 
191 1 -0.036332 -0.0552684 0.0583101 0.000291 9.18877 -0.121038 5.77372 2650 
62 1 -0.0388302 -0.028159 0.056682 0.000291 7.24616 -0.358909 4.93562 2650 
281 1 -0.0358434 -0.0551953 0.0586164 0.000291 6.01774 0.302265 3.57921 2650 
267 1 -0.0299828 -0.0101592 0.0618401 0.000291 6.31738 0.0361424 3.05661 2650 
98 1 -0.0273823 -0.00741745 0.0621903 0.001058 6.52248 0.251435 2.88644 2650 
173 1 -0.0294302 -0.00578884 0.0620879 0.000291 5.23959 0.579485 2.52407 2650 
239 1 -0.0238389 -0.0489708 0.0636531 0.001058 10.2083 0.0158137 3.82245 2650 
121 1 -0.0217705 -0.043791 0.0637779 0.00164 10.0722 -0.0482303 3.43819 2650 
166 1 -0.0271933 -0.0368061 0.0630975 0.000291 8.33284 0.668665 3.5957 2650 
270 1 -0.0263347 -0.0168099 0.0634874 0.000291 6.76863 -0.173326 2.80714 2650 
257 1 -0.0204061 -0.0477797 0.0648357 0.001058 9.95532 0.0024777 3.13438 2650 
84 1 -0.0181349 -0.0489199 0.0655014 0.001058 7.6978 0.918117 2.12609 2650 
288 1 -0.0192513 -0.0431984 0.0659767 0.000291 9.90672 -0.0900908 2.88932 2650 
88 1 -0.0210197 -0.0246561 0.0656098 0.000105 4.45042 0.423605 1.42209 2650 
243 1 -0.00938764 -0.0456899 0.0673025 0.001058 10.3288 0.0213812 1.44493 2650 
122 1 -0.00991454 -0.0259672 0.0672198 0.001058 8.06915 -0.257991 1.22924 2650 
96 1 -0.01263 -0.00537538 0.0677263 0.000105 4.92195 -0.123429 0.899869 2650 
16 1 -0.0184041 -0.00390313 0.0663886 0.000105 7.76892 0.174446 2.16831 2650 
130 1 -0.0017261 0.000480522 -0.0147116 0.001058 -0.00730232 0.00347522 0.00594057 2650 
33 1 -0.00165757 0.0152087 -0.0143874 0.00164 0.00603998 0.0215627 0.00352792 2650 
157 1 -0.00575699 0.038271 -0.0142477 0.000291 0.0079085 0.0606548 0.000918149 2650 
67 1 -0.00372506 0.0107342 -0.0131932 0.001058 -0.020884 0.0142907 -0.00966941 2650 
38 1 -0.00669633 0.0123581 -0.012894 0.000291 0.0290333 0.00993382 0.0254358 2650 
205 1 -0.00333905 4.76393e-05 -0.0113961 0.000291 -0.0212393 0.00831856 -0.0510728 2650 
94 1 -0.0115534 0.00344004 -0.0118524 0.000291 8.5498e-05 -0.0117385 8.5498e-05 2650 
147 1 -0.0120338 0.0261837 -0.0103783 0.001058 -0.0392389 0.0331147 0.0452088 2650 
75 1 -0.00532298 0.0423143 -0.0117103 0.001058 0.0206685 0.0556886 -0.0248334 2650 
234 1 -0.0123152 0.00811883 -0.00901141 0.000291 -0.00131366 0.00431637 0.0126772 2650 
74 1 -0.011562 0.00355707 -0.00795982 0.001058 0.00156258 -0.00569596 -0.00749774 2650 
237 1 -0.0128192 0.03984 -0.00663735 0.001058 -0.0605016 0.23489 0.0571334 2650 
276 1 -0.013674 0.000541738 -0.004231 0.000291 0 -0.011755 0 2650 
159 1 -0.012707 0.00353574 -0.00588 0.000291 0 -0.011755 0 2650 
10 1 -0.0148521 0.00643563 -0.00428778 0.001058 0.00366734 -0.00257496 -0.00408264 2650 
104 1 -0.014089 0.000323738 -0.003012 0.000105 0 -0.011755 0 2650 
114 1 -0.0113957 0.00479559 -0.00313076 0.001058 0.00263798 -7.05089e-05 -0.000306371 2650 
7 1 -0.00560949 0.0224678 -0.00316646 0.000291 0.00378858 0.0136367 -0.000251809 2650 
61 1 -0.016439 0.00325374 -0.001038 0.000291 0 -0.011755 0 2650 
80 1 -0.0151376 0.00322699 -0.000861803 0.000105 -0.00457687 0.0251897 -0.0282816 2650 
129 1 -0.00439741 0.00760368 -0.000517358 0.00164 0.00886763 0.000928435 -0.00531986 2650 
115 1 -0.0156743 0.0112377 -0.00178552 0.001058 -9.57324e-05 0.0046985 0.0169075 2650 
187 1 -0.0156746 0.0169036 -0.00191764 0.001058 -0.000280938 0.0161775 0.0137442 2650 
65 1 -0.011876 0.0199109 -0.00136266 0.00164 -0.00447342 0.0138222 0.00034274 2650 
97 1 -0.0147445 0.00146292 0.000391232 0.00164 0.0130558 0.0156425 -0.0241137 2650 
268 1 -0.011054 0.00211574 0.000789 0.000291 0 -0.011755 0 2650 
211 1 -0.0129232 0.00477302 0.00135778 0.001058 0.000982608 0.00314487 0.00709992 2650 
209 1 -0.014715 0.00764983 0.00131871 0.001058 -0.00415633 0.00564878 0.00501433 2650 
256 1 -0.0165519 0.0104297 0.000179092 0.000291 -0.00177834 -0.000163286 0.026845 2650 
220 1 -0.0141664 0.0200338 0.000506188 0.000291 -0.00743392 0.0110018 0.0132466 2650 
71 1 -0.00118753 0.00525382 0.00350785 0.000291 0.000861808 -0.00718564 -0.0173142 2650 
266 1 -0.0152645 0.00897064 0.00394164 0.001058 -0.00293207 0.00740435 -0.00807451 2650 
144 1 -0.00936846 0.0144268 0.00287974 0.000105 0.00807853 0.0136784 0.0281765 2650 
41 1 -0.00337462 0.0151824 0.00350538 0.00164 0.0102042 0.00860529 0.0210319 2650 
52 1 -0.00097088 0.0266486 0.00207855 0.001058 0.0258261 0.0380708 0.00407144 2650 
291 1 -0.008194 0.00364074 0.004767 0.000291 0 -0.011755 0 2650 
106 1 -0.00748767 0.0175117 0.00435081 0.001058 0.0119634 0.0223893 -0.0027555 2650 
249 1 -0.000433794 0.0232813 0.0053915 0.000291 0.00987628 0.0185258 -0.0129358 2650 
186 1 -0.00619349 0.0016627 0.00656924 0.001058 -4.15282e-05 -0.0115536 6.1062e-05 2650 
242 1 -0.00648817 0.0192706 0.00680248 0.000291 0.0116924 0.0265357 0.00697501 2650 
124 1 -0.0140085 0.0246237 0.00640046 0.001058 0.00450723 0.0342902 0.00378394 2650 
28 1 -0.0141672 0.0293368 0.006989 0.001058 0.00734507 0.0503926 0.00344867 2650 
300 1 -0.0123925 0.000554893 0.00990593 0.001058 -0.00371667 -0.00768461 -0.00400106 2650 
250 1 -0.0104439 0.00152466 0.00831833 0.001058 0.00273404 -0.00245883 0.0388004 2650 
304 1 -0.012709 0.00292174 0.009818 0.000291 0 -0.011755 0 2650 
68 1 -0.00270945 0.00854881 0.0096073 0.001058 0.00272783 -0.00342387 -0.00169301 2650 
217 1 -0.00968961 0.029885 0.00919891 0.001058 0.000747792 0.0265619 -0.00553463 2650 
55 1 -0.01171 0.00338974 0.01034 0.000291 0 -0.011755 0 2650 
299 1 -0.00967242 0.00364394 0.0119508 0.001058 0.00581403 -0.00322581 0.00124072 2650 
170 1 -0.00790373 0.00201948 0.0112671 0.001058 0.00813908 -0.00598064 0.0087017 2650 
4 1 -0.0115019 0.008095 0.0108658 0.001058 0.00569435 0.00097307 0.00498712 2650 
273 1 -0.00275939 0.0291574 0.0103176 0.001058 -0.00402366 0.037385 0.0311551 2650 
224 1 -0.00796013 0.0131161 0.0134301 0.001058 -0.00111942 0.00491513 -0.00282362 2650 
17 1 -0.00533796 0.0271301 0.0134231 0.00164 0.0438726 0.0448865 0.0155383 2650 
154 1 -0.00224913 0.0756778 -0.0110196 0.001058 -0.025218 0.0914679 0.0181079 2650 
102 1 0.00608072 -0.013993 -0.0684351 0.000291 -6.20331 -0.918633 -0.605766 2650 
182 1 0.00668441 -0.0137476 -0.0683834 0.000291 -5.80341 0.744947 -0.604275 2650 
207 1 0.005675 -0.00109444 -0.0684738 0.000291 -4.52283 -0.0884269 -0.326924 2650 
43 1 0.00500889 -0.0370251 -0.0677631 0.001058 -10.273 -0.00451258 -0.785202 2650 
56 1 0.0127619 -0.0217976 -0.0677082 0.000105 -8.64345 -0.698641 -1.63511 2650 
93 1 0.0231667 -0.0594406 -0.0646798 0.000291 -7.06077 0.418392 -2.48969 2650 
247 1 0.0186938 -0.0525705 -0.0661297 0.000291 -9.38451 0.198444 -2.6559 2650 
305 1 0.0214604 -0.0389941 -0.0654744 0.000105 -7.68629 -1.9446 -2.4997 2650 
277 1 0.0231513 -0.0229907 -0.0646975 0.000291 -8.72851 -0.263322 -3.11543 2650 
162 1 0.0244531 -0.0264088 -0.0633902 0.001058 -8.75821 -0.0945955 -3.38172 2650 
90 1 0.0293486 -0.0536131 -0.061293 0.001058 -9.43088 0.115504 -4.51004 2650 
225 1 0.0318187 -0.0445243 -0.0600602 0.001058 -8.87941 -0.0912765 -4.70429 2650 
46 1 0.0337314 -0.0227403 -0.0598657 0.000291 -5.3004 0.151592 -3.0001 2650 
2 1 0.0427299 -0.0309098 -0.0528321 0.001058 -7.21804 -0.125935 -5.83703 2650 
210 1 0.0410531 -0.0167781 -0.0541277 0.001058 -5.53383 0.490063 -4.01324 2650 
29 1 0.0450913 -0.0123149 -0.0517889 0.000291 -6.89541 0.381879 -5.95939 2650 
282 1 0.0492664 -0.0253292 -0.0478918 0.000291 -6.25403 0.127785 -6.42635 2650 
76 1 0.0498582 -0.0267327 -0.0461584 0.001058 -5.99575 -0.0307461 -6.5193 2650 
280 1 0.0502951 -0.0242964 -0.0456829 0.001058 -5.8813 -0.079532 -6.52941 2650 
125 1 0.0512366 -0.0233063 -0.0457767 0.000291 -6.18885 0.255932 -6.90475 2650 
183 1 0.0554789 -0.0622866 -0.0405393 0.000291 -4.08473 0.127892 -5.50972 2650 
118 1 0.0596412 -0.0140314 -0.034156 0.000291 -3.7657 0.107333 -6.59048 2650 
150 1 0.0638727 -0.0337501 -0.0253089 0.000291 -3.05874 -0.0100635 -7.67206 2650 
165 1 0.0652885 -0.0527877 -0.0214439 0.000291 -2.91717 -0.988201 -8.88944 2650 
179 1 0.0644082 -0.0486765 -0.0217118 0.001058 -3.33778 -0.066452 -9.88522 2650 
172 1 0.0650563 -0.0483217 -0.0196855 0.001058 -3.01401 -0.0235319 -9.96619 2650 
269 1 0.002277 -0.00280826 -0.015181 0.000291 0 -0.011755 0 2650 
181 1 0.0673832 -0.0477244 -0.0134627 0.000291 -2.02571 -0.767363 -10.1653 2650 
69 1 0.0674444 -0.0408232 -0.013152 0.000291 -1.88942 0.492329 -9.64032 2650 
223 1 0.0668044 -0.00929991 -0.0124461 0.001058 -0.720819 -0.114889 -4.01324 2650 
289 1 0.001465 -0.00238526 -0.012477 0.000291 0 -0.011755 0 2650 
142 1 0.002378 -0.00197026 -0.013184 0.000291 0 -0.011755 0 2650 
146 1 0.0669917 -0.0522001 -0.0112066 0.001058 -1.76533 -0.0654802 -10.5589 2650 
152 1 0.0680208 -0.0122545 -0.0110003 0.000105 -1.25335 0.753072 -7.78979 2650 
296 1 0.0676959 -0.00816182 -0.0117837 0.000291 -0.81937 0.395443 -4.27465 2650 
117 1 0.00724304 -0.00365564 -0.0116536 0.000291 -0.345598 -0.217062 -0.801758 2650 
201 1 0.00926716 -0.00328725 -0.0119658 0.00164 0.00604178 -0.00973866 -0.00315663 2650 
42 1 0.0672286 -0.0547969 -0.00979079 0.001058 -1.48167 -0.132745 -10.1586 2650 
49 1 0.0666713 -0.0477771 -0.00974356 0.00164 -1.48622 0.000426267 -10.1965 2650 
236 1 0.0674624 -0.0496533 -0.00794242 0.001058 -1.23327 -0.156145 -10.4848 2650 
214 1 0.0681431 -0.0469327 -0.00868331 0.000291 -1.32491 -0.130732 -10.3327 2650 
60 1 0.007579 -0.000744262 -0.006312 0.001058 0 -0.011755 0 2650 
45 1 0.010575 -0.000824262 -0.007722 0.000291 0 -0.011755 0 2650 
138 1 0.0676076 -0.0508389 -0.00619613 0.001058 -0.963 -0.0490411 -10.4345 2650 
184 1 0.0688243 -0.0102002 -0.00307301 0.000105 -0.233525 -0.405235 -5.33537 2650 
253 1 0.014729 -0.00197526 -0.002617 0.000291 0 -0.011755 0 2650 
227 1 0.00944 -0.000146262 -0.002109 0.000291 0 -0.011755 0 2650 
148 1 0.0678809 -0.047494 -0.00198865 0.001058 -0.301538 0.0600467 -10.4028 2650 
177 1 0.0012954 -0.00211827 -0.000968666 0.00164 -0.00966503 -0.00602483 0.00423439 2650 
233 1 0.0686963 -0.0314254 0.00124423 0.000291 0.172708 0.971487 -9.68366 2650 
204 1 0.0678575 -0.024272 0.00292471 0.001058 0.39171 -0.00295728 -9.40353 2650 
35 1 0.00258287 -0.00177696 0.00232686 0.001058 0.00654177 -0.0105187 -0.00962265 2650 
287 1 0.0118167 -0.00105851 0.00497482 0.001058 0.00844674 -0.013594 -0.029996 2650 
231 1 0.00712974 -0.000584743 0.00714055 0.001058 0.00167534 -0.0128877 -0.000760445 2650 
100 1 0.0097747 -0.00145152 0.00795669 0.001058 0.00912399 -0.0117578 -0.00681185 2650 
261 1 0.0055819 -0.00306601 0.0082904 0.000291 -0.185839 -0.0506541 0.188636 2650 
103 1 0.005979 -0.00315326 0.01127 0.000291 0 -0.011755 0 2650 
3 1 0.00875497 -0.00204279 0.0127149 0.001058 -0.00211489 -0.0052299 0.000123346 2650 
20 1 0.0661107 -0.0412903 0.0157469 0.001058 2.22076 -0.316756 -9.29507 2650 
228 1 0.065288 -0.00584941 0.0214117 0.000291 1.94459 -0.185683 -6.13203 2650 
119 1 0.0640247 -0.0513971 0.0249793 0.000291 4.05708 -0.0962622 -10.4025 2650 
196 1 0.0633394 -0.0315259 0.0245917 0.001058 3.34315 -0.232392 -8.57251 2650 
188 1 0.0626533 -0.0612107 0.0262934 0.001058 4.10183 0.00402873 -9.77355 2650 
185 1 0.0615206 -0.0450931 0.027516 0.00164 4.3407 -0.0948982 -9.70623 2650 
193 1 0.0586447 -0.0485805 0.0332016 0.00164 5.17895 0.0853152 -9.14858 2650 
229 1 0.0581701 -0.0504403 0.0351455 0.001058 5.54652 -0.0626332 -9.18243 2650 
23 1 0.0562829 -0.0413829 0.0394253 0.000291 6.41216 -0.471593 -9.14778 2650 
141 1 0.0517121 -0.0341665 0.04524 0.000291 6.16761 0.131322 -7.04997 2650 
272 1 0.0487763 -0.029783 0.0473025 0.001058 6.62386 -0.0168588 -6.85648 2650 
218 1 0.0462938 -0.0388686 0.049698 0.001058 7.82845 0.0754961 -7.29077 2650 
72 1 0.0510903 -0.0296459 0.050853 0.000105 10.3385 0.837997 -5.52185 2650 
36 1 0.0421321 -0.0342812 0.0533069 0.001058 8.13807 -0.0192451 -6.4336 2650 
26 1 0.044217 -0.0351152 0.0515837 0.001058 7.91003 0.265945 -6.778 2650 
64 1 0.0441467 -0.0153846 0.05288 0.000105 4.87811 0.263849 -4.11439 2650 
251 1 0.0268179 -0.0281425 0.0624256 0.001058 6.88194 -0.140555 -2.94182 2650 
302 1 0.0275996 -0.0168368 0.062949 0.000291 6.12038 -0.0176238 -2.6648 2650 
226 1 0.0208328 -0.0323122 0.065472 0.000291 6.7802 0.0734521 -2.17148 2650 
208 1 0.0230993 -0.0152971 0.0639257 0.001058 6.82037 0.0276089 -2.54123 2650 
241 1 0.0158275 -0.0178652 0.0668775 0.000291 9.09582 0.283203 -2.15127 2650 
158 1 0.00934588 -0.0179246 0.0680765 0.000291 6.81704 -0.534922 -0.939149 2650 
213 1 0.00445979 -0.0157481 0.0685638 0.000291 6.73687 -0.134328 -0.422338 2650 
235 1 0.0057504 -0.0131594 0.0684688 0.000291 7.66007 -0.159444 -0.628486 2650 
37 1 0.006156 0.00295374 -0.015157 0.000291 0 -0.011755 0 2650 
293 1 0.00574976 0.0268572 -0.014804 0.001058 -0.0961977 0.0543358 -0.0503114 2650 
127 1 0.00286391 0.0471844 -0.0142293 0.000291 0.0331404 0.0647284 -0.0037516 2650 
252 1 0.00245 0.00132474 -0.01336 0.001058 0 -0.011755 0 2650 
78 1 0.001258 0.00293974 -0.012517 0.000291 0 -0.011755 0 2650 
275 1 0.012705 0.000686738 -0.010476 0.000291 0 -0.011755 0 2650 
263 1 0.00298362 0.00184625 -0.00954228 0.000291 -0.269455 0.21802 0.281017 2650 
134 1 0.0050305 0.00467345 -0.00999884 0.000291 -0.0128132 0.00355392 -0.00692922 2650 
244 1 0.013938 0.00138572 -0.00712438 0.001058 -0.0467632 0.0258282 -0.10442 2650 
260 1 0.009257 0.00377044 -0.00751632 0.000291 -0.00392275 0.00411325 -0.00447499 2650 
87 1 0.00657744 0.00580856 -0.00603521 0.000291 -0.00318762 -0.017547 -0.0237996 2650 
19 1 0.014413 0.00780588 -0.00645521 0.001058 -0.00189711 0.0050805 -0.00113271 2650 
284 1 0.0144826 0.00936899 -0.00717686 0.000291 -0.00371053 0.00586111 -0.00129449 2650 
180 1 0.0140934 0.0404088 -0.00738841 0.001058 0.0285867 0.0668097 0.0496907 2650 
278 1 7.4e-05 0.00176674 -0.004448 0.001058 0 -0.011755 0 2650 
203 1 0.00360488 0.00445476 -0.00536292 0.001058 0.0222717 0.0321229 0.00594202 2650 
279 1 0.00782427 0.00666333 -0.00488819 0.001058 -0.00483641 0.00012964 0.00531894 2650 
232 1 0.0130809 0.0143584 -0.00582995 0.001058 -0.0167248 0.0324446 -0.0332171 2650 
301 1 0.00627562 0.0289082 -0.00404333 0.001058 0.00272587 0.0220862 -0.0290146 2650 
113 1 0.0150294 0.000894021 -0.00206211 0.00164 -0.0251958 0.00978061 -0.000134024 2650 
161 1 0.013635 0.00454375 -0.00375789 0.00164 0.000907452 0.00399164 0.00334652 2650 
199 1 0.0159646 0.00450468 -0.00273213 0.000291 -0.00149126 0.000541054 0.0056379 2650 
92 1 0.0107108 0.0060049 -0.00354227 0.001058 0.00298746 0.00292354 0.00546929 2650 
286 1 0.0156368 0.006768 -0.00216262 0.001058 -0.00457067 0.0508687 -0.0262864 2650 
77 1 0.00218678 0.0108858 -0.00382425 0.000291 0.0279429 0.00178097 -0.016803 2650 
123 1 0.0103884 0.0145682 -0.0022195 0.001058 0.0354386 0.020018 -0.000637314 2650 
271 1 0.00991286 0.00185029 -0.000473977 0.001058 0.0150184 -0.010407 0.010297 2650 
190 1 0.005899 0.00255574 -0.000534 0.000291 0 -0.011755 0 2650 
194 1 0.0146563 0.00880557 -0.000316749 0.001058 0.0126865 0.0603505 -0.0128114 2650 
105 1 0.00830752 0.0111718 -0.00135348 0.00164 0.00091231 0.0106728 0.0284417 2650 
70 1 0.000486969 0.0131856 -0.000991755 0.000291 0.0174831 0.0757361 0.0937803 2650 
139 1 0.0118944 0.0199505 -9.5477e-05 0.001058 0.0127696 0.00849352 0.0230521 2650 
176 1 0.00224016 0.00104797 0.00110873 0.000105 0.0253113 -0.0084311 -0.00587015 2650 
48 1 0.009671 0.000447738 0.000233 0.000105 0 -0.011755 0 2650 
128 1 0.00361 0.00215474 0.000511 0.000105 0 -0.011755 0 2650 
153 1 0.00320021 0.00669297 0.000530135 0.00164 0.00905173 -0.00370467 -0.0193596 2650 
9 1 0.0135739 0.00608032 0.000106601 0.00164 0.00232671 0.0541947 0.0097899 2650 
245 1 0.000879881 0.0618661 0.001767 0.001058 0.013355 0.0538623 -0.0223836 2650 
99 1 0.000890213 0.000233127 0.00345803 0.001058 0.0243572 -0.0114204 0.00238608 2650 
202 1 0.00446569 0.000291669 0.0026678 0.001058 0.00930573 -0.00892744 -0.0136195 2650 
101 1 0.0053356 0.00137108 0.00205559 0.000291 0.0107852 -0.0015929 -0.0095042 2650 
294 1 0.006997 0.000161738 0.003581 0.001058 0 -0.011755 0 2650 
1 1 0.0134165 0.00332483 0.00256254 0.00164 0.00550181 0.00569205 -0.0118839 2650 
212 1 0.001087 0.000671738 0.005915 0.000291 0 -0.011755 0 2650 
24 1 0.005464 0.000243738 0.005551 0.000105 0 -0.011755 0 2650 
51 1 0.009662 0.00131674 0.004577 0.001058 0 -0.011755 0 2650 
79 1 0.014214 0.00315674 0.005058 0.000291 0 -0.011755 0 2650 
258 1 0.0142366 0.0121755 0.00443832 0.001058 0.00615004 0.0226911 -0.0182162 2650 
116 1 0.0120997 0.0293197 0.00561158 0.001058 -0.0278213 0.0454338 0.0115295 2650 
145 1 0.00489273 0.00119405 0.00750968 0.00164 0.00142123 -0.0121074 -0.00172265 2650 
110 1 0.00166302 0.00240863 0.00774472 0.000291 -0.0169259 -0.0135844 0.0488079 2650 
222 1 0.009219 0.00251574 0.006833 0.001058 0 -0.011755 0 2650 
112 1 0.013668 0.00347974 0.007002 0.000105 0 -0.011755 0 2650 
198 1 0.0150553 0.0125966 0.0068833 0.000291 -0.0335386 0.00736994 0.0793519 2650 
292 1 0.0110504 0.0269946 0.00709411 0.001058 -0.0104367 0.0376087 -0.0291473 2650 
195 1 0.0130367 0.000655061 0.0084326 0.001058 0.0165512 -0.0021662 -0.02702 2650 
156 1 0.00667579 0.0118076 0.00871019 0.001058 0.00957299 -0.000303602 -0.00985815 2650 
57 1 0.00623396 0.0230713 0.0102198 0.00164 -0.000919831 0.00616449 -0.024056 2650 
54 1 0.00833729 0.0315602 0.0112106 0.000291 0.0526685 0.00955407 -0.0227648 2650 
298 1 0.0105619 0.00558315 0.0123166 0.000105 0.00377194 -0.00442838 -0.00799766 2650 
265 1 0.00479863 0.00821518 0.013787 0.001058 0.011667 0.00657701 -0.00499144 2650 
66 1 0.00817709 0.00846742 0.0121432 0.001058 0.00846641 -0.000759158 0.00162513 2650 
238 1 0.00111628 0.0287621 0.0121027 0.001058 0.0207771 0.0325148 -0.00733364 2650 
95 1 0.00673105 0.00220041 0.0142955 0.000291 -0.000366951 -0.00495937 0.00220646 2650 
155 1 0.00728747 0.0848668 -0.0110101 0.001058 0.04057 0.188533 0.00265111 2650 
136 1 0.00912339 0.0991714 0.00383505 0.000105 0.0375902 0.10168 0.0199891 2650 
