ITEM: TIMESTEP
19880059
ITEM: NUMBER OF ATOMS
264
ITEM: BOX BOUNDS ff ff ff
-0.15 0.15
-0.15 0.15
-0.15 0.15
ITEM: ATOMS id type x y z radius vx vy vz density 
248 1 -0.00591911 -0.0276258 -0.068452 0.000291 -10.8841 0.049932 0.94082 2650 
138 1 -0.00804458 -0.0560192 -0.0674681 0.001058 -10.6009 0.0298652 1.26323 2650 
146 1 -0.00994512 -0.0488596 -0.0672227 0.001058 -10.5587 -0.000179378 1.56209 2650 
93 1 -0.0294837 -0.049816 -0.0620843 0.000291 -9.70119 0.0045427 4.60691 2650 
179 1 -0.0279081 -0.0496938 -0.0619762 0.001058 -9.76047 -0.0106342 4.39479 2650 
165 1 -0.0293217 -0.0457067 -0.0621659 0.000291 -9.76568 0.00148069 4.60617 2650 
59 1 -0.0283919 -0.0465957 -0.0617599 0.001058 -9.70122 0.00201729 4.45974 2650 
190 1 -0.0261974 -0.0129933 -0.0635425 0.000291 -7.30226 0.130517 3.02409 2650 
49 1 -0.0306332 -0.0490828 -0.0600314 0.00164 -9.43005 -0.00216017 4.81206 2650 
168 1 -0.031183 -0.0279034 -0.0614278 0.000105 -8.81303 0.537987 4.47403 2650 
257 1 -0.0335134 -0.0488171 -0.0591324 0.001058 -9.29264 -0.0404121 5.26656 2650 
269 1 -0.0343982 -0.0125284 -0.0595003 0.000291 -8.47988 -0.27359 4.8943 2650 
40 1 -0.0396539 -0.000104998 -0.0563385 0.000105 -7.41289 -2.3638e-07 5.20321 2650 
192 1 -0.0449558 -0.000105 -0.0522062 0.000105 -6.82593 -0.00237542 5.86625 2650 
197 1 -0.0459419 -0.000586546 -0.0510885 0.000291 -5.01071 0.125632 4.52948 2650 
208 1 -0.0480393 -0.0308698 -0.0482473 0.001058 -7.57866 6.29621e-08 7.54599 2650 
171 1 -0.0631091 -0.0495095 -0.0252438 0.001058 -3.96632 0.00895332 9.91554 2650 
303 1 -0.0645956 -0.0177785 -0.0234828 0.000291 -3.39 -0.0498894 9.34488 2650 
90 1 -0.063879 -0.0493969 -0.0232267 0.001058 -3.64843 -0.0013604 10.034 2650 
104 1 -0.0655968 -0.0198806 -0.0211122 0.000105 -2.74752 0.770473 8.54096 2650 
112 1 -0.0666283 -0.0461008 -0.0176085 0.000105 -2.98086 1.29888 11.3082 2650 
225 1 -0.0654069 -0.0450018 -0.0184864 0.001058 -2.90338 -0.000997935 10.2726 2650 
14 1 -0.0673531 -0.0430283 -0.0136507 0.000291 -2.13796 0.632459 10.5533 2650 
87 1 -0.0676961 -0.0181417 -0.0118179 0.000291 -1.57934 -0.0970774 9.11358 2650 
74 1 -0.00942064 -0.000432738 -0.0122298 0.001058 0.00552843 -0.00502923 -0.00272883 2650 
135 1 -0.00749191 -0.00236874 -0.01069 0.000291 0.00330025 -0.00264717 0.00636962 2650 
76 1 -0.0674944 -0.0447307 -0.00788111 0.001058 -1.23943 -0.0676247 10.3015 2650 
58 1 -0.00651662 -0.00115559 -0.00766413 0.001058 0.020455 0.00490158 -0.0306807 2650 
23 1 -0.0686292 -0.0476112 -0.00327009 0.000291 -0.478038 0.346898 10.0186 2650 
214 1 -0.0686907 -0.0538027 0.00153647 0.000291 0.224887 -0.0394682 10.2001 2650 
44 1 -0.0678798 -0.0305224 0.00302953 0.001058 0.456571 0.041784 10.246 2650 
184 1 -0.0686185 -0.0359823 0.0061459 0.000105 0.866263 0.207552 9.6178 2650 
39 1 -0.0680199 -0.0383548 0.00971096 0.000291 1.5624 -0.238376 10.9536 2650 
228 1 -0.0676453 -0.0121507 0.0120411 0.000291 1.51246 0.446527 8.55624 2650 
295 1 -0.0667694 -0.0285855 0.0161929 0.000291 2.39546 -0.0307148 9.8705 2650 
107 1 -0.0648599 -0.0493516 0.0203205 0.001058 3.19356 0.0231514 10.1936 2650 
167 1 -0.0645429 -0.0123744 0.023624 0.000291 2.8537 -0.341718 7.78903 2650 
277 1 -0.0635381 -0.0439829 0.0262077 0.000291 3.89385 0.0461617 9.43987 2650 
302 1 -0.0627704 -0.0494715 0.0279949 0.000291 4.14384 -0.433124 9.28972 2650 
118 1 -0.0633005 -0.0203179 0.0267584 0.000291 3.34073 0.261754 7.90631 2650 
21 1 -0.0620998 -0.0483456 -0.029459 0.000291 -4.6455 -0.0047406 9.79334 2650 
227 1 -0.0605519 -0.0456815 0.0325133 0.000291 5.24539 -0.0384147 9.76955 2650 
186 1 -0.0605103 -0.0183147 0.0309549 0.001058 4.51444 -0.000910739 8.78866 2650 
64 1 -0.0612002 -0.0153838 0.0316893 0.000105 3.91331 0.245807 7.55813 2650 
96 1 -0.0604895 -0.00957481 0.0330037 0.000105 4.0946 -0.194589 7.5168 2650 
267 1 -0.055626 -0.0230986 0.0403372 0.000291 5.88525 0.177084 8.12535 2650 
255 1 -0.0563579 -0.0182963 0.0393206 0.000291 5.73298 -0.0551859 8.21704 2650 
98 1 -0.0542969 -0.0199737 0.0408549 0.001058 6.1266 -0.0347587 8.13362 2650 
210 1 -0.04952 -0.0369259 0.0465093 0.001058 7.28645 0.189559 7.75819 2650 
177 1 -0.0490175 -0.0195942 0.0462135 0.00164 6.97727 -0.158816 7.40104 2650 
271 1 -0.0504504 -0.015238 0.0455128 0.001058 6.31618 0.458603 6.93911 2650 
241 1 -0.0492051 -0.0362157 0.0479516 0.000291 7.21837 -0.0343246 7.39624 2650 
223 1 -0.0476941 -0.0136827 0.0483971 0.001058 6.92476 0.0130664 6.80847 2650 
206 1 -0.0466806 -0.062509 0.0504177 0.000291 7.91956 1.86284e-09 7.33253 2650 
169 1 -0.046119 -0.0611601 0.0491153 0.00164 7.71496 4.57202e-07 7.2443 2650 
246 1 -0.0464067 -0.0585276 0.0496314 0.001058 7.79628 -1.66622e-05 7.28973 2650 
268 1 -0.0486501 -0.0201646 0.0485198 0.000291 5.91501 0.229055 5.94122 2650 
282 1 -0.0481304 -0.0166348 0.0490335 0.000291 7.49113 -0.310013 7.35397 2650 
25 1 -0.0438549 -0.0588207 0.0511446 0.00164 8.03094 0.00456846 6.88642 2650 
164 1 -0.0437383 -0.0422437 0.0519984 0.001058 8.21563 0.0450545 6.9135 2650 
178 1 -0.0429731 -0.0567483 0.0526317 0.001058 8.25914 0.00437924 6.74373 2650 
226 1 -0.04193 -0.0486343 0.0544391 0.000291 8.62254 0.177262 6.64122 2650 
291 1 -0.0397419 -0.0510235 0.0560598 0.000291 8.93391 -0.806286 6.33317 2650 
251 1 -0.0401731 -0.0309302 0.0548018 0.001058 8.4262 0.0161048 6.17823 2650 
231 1 -0.0368111 -0.0426971 0.0571289 0.001058 9.07592 -0.141476 5.84013 2650 
276 1 -0.0376974 -0.0339016 0.0574411 0.000291 8.63027 0.0789023 5.66128 2650 
145 1 -0.0357073 -0.0339058 0.0571198 0.00164 8.65026 -0.0812815 5.39627 2650 
103 1 -0.0331829 -0.0517002 0.0601791 0.000291 9.77113 0.189647 5.38864 2650 
117 1 -0.0307266 -0.0227381 0.0614623 0.000291 9.86706 -0.604996 4.9319 2650 
270 1 -0.0257081 -0.0133096 0.0637436 0.000291 7.52658 0.692445 3.06159 2650 
219 1 -0.0263882 -0.000291002 0.0634377 0.000291 7.94132 0.000294172 3.30219 2650 
137 1 -0.0165149 -0.0611601 0.0653176 0.00164 10.2596 -8.16431e-07 2.59402 2650 
88 1 -0.0226075 -0.0122679 0.0651013 0.000105 8.01929 -0.471674 2.77266 2650 
202 1 -0.0101068 -0.0312649 0.0671937 0.001058 10.6669 -0.0290557 1.60288 2650 
3 1 -0.00892259 -0.0252218 0.0673531 0.001058 10.6236 -0.280513 1.40905 2650 
22 1 -0.0112616 -0.0186704 0.0677627 0.000291 10.2878 0.321344 1.71547 2650 
133 1 -0.00646479 -0.0297749 0.0684036 0.000291 10.4791 -0.135756 0.991202 2650 
285 1 -0.000146953 -0.030875 0.0680839 0.001058 10.6946 -2.1403e-08 0.0230836 2650 
61 1 -0.00756074 -0.00485686 0.068285 0.000291 8.86708 -0.602503 0.999368 2650 
300 1 -0.0607146 -0.0264849 0.0304938 0.001058 3.90915 0.0224103 7.826 2650 
134 1 -0.00432309 0.0072678 -0.0150572 0.000291 -0.0128132 0.00355392 -0.00692922 2650 
80 1 -0.00700137 0.0203147 -0.0146601 0.000105 0.0200167 0.0220396 -0.007602 2650 
232 1 -0.00514733 0.0365076 -0.0146757 0.001058 -0.0260744 0.0281349 0.00795724 2650 
198 1 -0.0104669 0.00554155 -0.0127706 0.000291 0.058758 -0.0185524 -0.0511083 2650 
97 1 -0.00602088 0.00937291 -0.0136449 0.00164 0.0189231 0.00904729 -0.00561719 2650 
130 1 -0.00684489 0.00301861 -0.0103654 0.001058 -0.00692202 0.00347734 0.00595777 2650 
71 1 -0.00055841 8.31836e-06 -0.00913149 0.000291 0.000861808 -0.00718564 -0.0173142 2650 
10 1 -0.0122613 0.00951648 -0.00932665 0.001058 0.0053433 0.0061558 -0.0070677 2650 
51 1 -0.00229983 0.0173469 -0.00658821 0.001058 -0.0414136 0.0415048 -0.0353246 2650 
67 1 -0.0128051 0.0203471 -0.00772106 0.001058 -0.0104976 0.0129104 0.0114407 2650 
113 1 -0.000773885 0.00558572 -0.0022038 0.00164 -0.0131936 -0.00156564 -0.00033725 2650 
129 1 -0.000944681 0.0111121 -0.00278327 0.00164 -0.00374589 0.0128173 -0.00288427 2650 
7 1 -0.00284383 0.0324226 -0.00335028 0.000291 0.00378858 0.0136367 -0.000251809 2650 
205 1 -0.00924993 0.00311883 -0.00048017 0.000291 -0.00881861 0.00364628 0.0236275 2650 
65 1 -0.0151416 0.030001 -0.00111246 0.00164 -0.00447342 0.0138222 0.00034274 2650 
234 1 -0.0132742 0.0112698 0.000242928 0.000291 -0.00131366 0.00431637 0.0126772 2650 
256 1 -0.0157134 0.0241241 0.00522041 0.000291 0.000881351 0.0216623 0.00465977 2650 
217 1 -0.00914372 0.0492751 0.00515863 0.001058 0.000747792 0.0265619 -0.00553463 2650 
209 1 -0.0136888 0.00331518 0.00751975 0.001058 0.00584419 -0.0188996 0.0174994 2650 
211 1 -0.0122059 0.00706878 0.00654071 0.001058 0.000982608 0.00314487 0.00709992 2650 
115 1 -0.0145461 0.0188165 0.00637103 0.001058 0.00236141 0.0122312 0.0092361 2650 
187 1 -0.0139641 0.0284677 0.00752025 0.001058 0.00500069 0.0154788 0.0119088 2650 
68 1 -0.000718144 0.00604939 0.00837141 0.001058 0.00272783 -0.00342387 -0.00169301 2650 
220 1 -0.0120345 0.0283898 0.0087494 0.000291 0.00991537 0.0130183 0.0124552 2650 
28 1 -0.00880529 0.0661233 0.00950652 0.001058 0.00734507 0.0503926 0.00344867 2650 
222 1 -0.0013663 0.000856202 0.0114863 0.001058 -0.0324875 0.00467874 -0.0112895 2650 
244 1 -0.0110928 0.0174558 0.0113324 0.001058 0.02945 0.0212834 0.025832 2650 
224 1 -0.00877731 0.0167041 0.0113688 0.001058 -0.00111942 0.00491513 -0.00282362 2650 
273 1 -0.000939095 0.0581443 0.0104085 0.001058 0.00511 0.0387776 -0.00978519 2650 
299 1 -0.00542818 0.00128911 0.0128566 0.001058 0.00581403 -0.00322581 0.00124072 2650 
266 1 -0.00764187 0.0138792 0.0131492 0.001058 0.0336072 0.0100687 0.0213347 2650 
4 1 -0.00713191 0.00878814 0.0140402 0.001058 0.0064118 0.000915196 0.00341804 2650 
144 1 -0.0015335 0.0236824 0.0140032 0.000105 0.0152864 0.0109644 -0.00695946 2650 
147 1 -0.00163755 0.04131 0.0157205 0.001058 0.0386005 0.0120241 0.00142267 2650 
124 1 -0.00308091 0.0512534 0.0144615 0.001058 0.0225448 0.0380641 0.0162983 2650 
116 1 -0.00820984 0.0624863 0.0140281 0.001058 -0.0278213 0.0454338 0.0115295 2650 
240 1 0.00123815 -0.0288059 -0.0686884 0.000291 -9.47377 0.180694 -0.152592 2650 
126 1 0.00816919 -0.0198324 -0.0682162 0.000291 -9.21891 -0.412233 -1.10874 2650 
110 1 0.0011395 -0.00381786 -0.0686924 0.000291 -5.6855 -0.0702954 -0.0460542 2650 
236 1 0.0174102 -0.061646 -0.0656786 0.001058 -10.3137 0.00115884 -2.73402 2650 
247 1 0.0270922 -0.0496563 -0.0631658 0.000291 -9.8884 -0.0618507 -4.24104 2650 
254 1 0.0271748 -0.0507496 -0.0631271 0.000291 -9.87182 -0.0335525 -4.24937 2650 
188 1 0.0288049 -0.061644 -0.0615398 0.001058 -9.67809 -0.0101 -4.52961 2650 
218 1 0.0279931 -0.0492071 -0.061939 0.001058 -9.72906 0.000222724 -4.39701 2650 
47 1 0.0316013 -0.0128845 -0.0610349 0.000291 -7.68819 -0.156001 -3.99976 2650 
148 1 0.0327551 -0.0531229 -0.0595441 0.001058 -9.35675 -0.00578575 -5.14713 2650 
35 1 0.0319764 -0.0508752 -0.0599735 0.001058 -9.419 -0.00207939 -5.02202 2650 
43 1 0.0345842 -0.0497363 -0.0585087 0.001058 -9.20783 0.01191 -5.44273 2650 
20 1 0.0368124 -0.0555183 -0.0571156 0.001058 -8.97497 -0.00399235 -5.7847 2650 
172 1 0.0383572 -0.0544332 -0.0560924 0.001058 -8.81058 0.00105461 -6.02489 2650 
193 1 0.0381599 -0.0498894 -0.0555401 0.00164 -8.71859 0.00200619 -5.99043 2650 
42 1 0.0409581 -0.0548129 -0.0542188 0.001058 -8.52006 0.000573451 -6.43613 2650 
81 1 0.0418934 -0.0500138 -0.0527703 0.00164 -8.28926 0.00131823 -6.58074 2650 
162 1 0.0420946 -0.0473855 -0.0533453 0.001058 -8.37781 0.00148675 -6.61098 2650 
55 1 0.0436441 -0.0124619 -0.0530697 0.000291 -4.03856 0.165553 -3.32847 2650 
159 1 0.0458194 -0.041962 -0.0511987 0.000291 -8.23775 0.836188 -7.3882 2650 
185 1 0.0449052 -0.0518692 -0.0502259 0.00164 -7.8861 0.00226776 -7.05086 2650 
34 1 0.0482465 -0.030875 -0.0480387 0.001058 -7.54589 -2.12715e-08 -7.57854 2650 
261 1 0.0499599 -0.0239151 -0.0471507 0.000291 -5.44869 -0.649935 -5.73417 2650 
94 1 0.0518691 -0.0169794 -0.0450073 0.000291 -5.05306 0.196234 -5.89883 2650 
24 1 0.0515563 -0.00147374 -0.0456964 0.000105 -6.40573 -0.161216 -7.23609 2650 
46 1 0.0531901 -0.0176223 -0.043481 0.000291 -5.7078 0.256702 -6.95274 2650 
16 1 0.0535495 -0.00648054 -0.0433275 0.000105 -5.62517 -0.123162 -6.95731 2650 
128 1 0.0528911 -0.00184313 -0.0441425 0.000105 -5.31579 0.0989149 -6.4222 2650 
221 1 0.0569414 -0.0168824 -0.0384651 0.000291 -5.18664 0.171634 -7.69222 2650 
78 1 0.0590839 -0.0316096 -0.035069 0.000291 -5.39787 0.686054 -9.09579 2650 
29 1 0.0628351 -0.00447431 -0.0277869 0.000291 -3.45427 0.0105801 -7.80893 2650 
158 1 0.0634146 -0.0144301 -0.0265093 0.000291 -3.36933 0.127998 -8.06737 2650 
26 1 0.0657802 -0.0495456 -0.0171013 0.001058 -2.68635 0.00221349 -10.3333 2650 
294 1 0.0657231 -0.0317114 -0.017244 0.001058 -2.62401 0.11339 -10.0044 2650 
212 1 0.0673931 -0.0185623 -0.0134438 0.000291 -1.71165 -0.056152 -8.57218 2650 
174 1 0.0675622 -0.028978 -0.0124915 0.000291 -1.84139 0.376849 -9.97362 2650 
278 1 0.0671002 -0.0337254 -0.0106934 0.001058 -1.60808 0.0110654 -10.1087 2650 
207 1 0.0680039 -0.0180347 -0.00987105 0.000291 -1.25475 0.0261251 -8.60865 2650 
173 1 0.0683049 -0.0117618 -0.00746762 0.000291 -0.874521 0.215705 -8.00054 2650 
200 1 0.068656 -0.00786996 -0.00571705 0.000105 -0.782109 -0.400686 -9.39262 2650 
275 1 0.0686023 -0.0220361 -0.003782 0.000291 -0.485522 0.651083 -8.85452 2650 
15 1 0.0686474 -0.0194619 -0.00286287 0.000291 -0.355425 -0.114425 -8.57165 2650 
82 1 0.0679413 -0.0386573 0.000964691 0.001058 0.151655 0.0790132 -10.6794 2650 
48 1 0.0686474 -0.0481044 0.00584174 0.000105 0.927865 -0.179913 -10.8966 2650 
131 1 0.0673922 -0.0484568 0.00872392 0.001058 1.37019 -0.00604023 -10.5853 2650 
95 1 0.00218944 -0.000227768 0.0132123 0.000291 -0.0190214 0.000188354 -0.00919676 2650 
170 1 0.00376312 -0.00204311 0.015451 0.001058 0.0178138 -0.00502054 -0.00235441 2650 
250 1 0.000301417 -0.00161071 0.0153636 0.001058 0.0161046 -0.00542442 -0.00110725 2650 
122 1 0.0661202 -0.0299307 0.0156504 0.001058 2.32118 0.0357909 -9.80747 2650 
239 1 0.0654609 -0.0497376 0.0182878 0.001058 2.87021 0.0196619 -10.2739 2650 
119 1 0.065607 -0.0498731 0.0204777 0.000291 3.19357 0.058406 -10.233 2650 
230 1 0.0645595 -0.0486875 0.0212574 0.001058 3.36069 0.033597 -10.2139 2650 
288 1 0.0658665 -0.0467634 0.0196383 0.000291 3.11215 -0.075309 -10.4392 2650 
36 1 0.0638089 -0.0476546 0.0234274 0.001058 3.6827 -0.0685472 -10.0305 2650 
140 1 0.0632529 -0.0461956 0.0248903 0.001058 3.89724 -0.10347 -9.90412 2650 
108 1 0.0631019 -0.0438413 0.0252612 0.001058 3.96415 -0.127092 -9.90277 2650 
79 1 0.0644137 -0.032114 0.0239064 0.000291 3.7551 -0.21598 -10.12 2650 
132 1 0.06341 -0.0236495 0.0244246 0.001058 3.46392 0.257277 -9.00891 2650 
182 1 0.0637297 -0.0217131 0.025708 0.000291 3.22495 0.0429966 -7.9903 2650 
304 1 0.063177 -0.0148758 0.0270718 0.000291 3.38512 -0.191809 -7.899 2650 
201 1 0.0612623 -0.0454882 0.0280965 0.00164 4.41127 -0.0196284 -9.61924 2650 
213 1 0.0623767 -0.0471346 0.0288691 0.000291 4.52098 -0.0945849 -9.76843 2650 
60 1 0.062185 -0.0430407 0.0274356 0.001058 4.32063 -0.0322442 -9.7924 2650 
259 1 0.0614442 -0.0308403 0.0290509 0.001058 4.52175 0.0488385 -9.55221 2650 
243 1 0.0610891 -0.050849 0.0297914 0.001058 4.67803 0.000176641 -9.59254 2650 
150 1 0.00951174 -0.0300133 0.0680474 0.000291 10.6195 -0.136366 -1.48407 2650 
2 1 0.0604041 -0.0493909 0.031163 0.001058 4.89689 0.0080838 -9.49162 2650 
121 1 0.0597256 -0.0458349 0.0312237 0.00164 4.90805 -0.0265793 -9.38852 2650 
191 1 0.0607549 -0.048123 0.0321364 0.000291 5.07941 -0.0109252 -9.60269 2650 
102 1 0.0601347 -0.0150478 0.0332845 0.000291 4.52727 -0.11982 -8.17641 2650 
281 1 0.0594418 -0.0622793 0.0345048 0.000291 5.41812 9.5142e-06 -9.33385 2650 
99 1 0.0589006 -0.0482945 0.0339183 0.001058 5.33531 0.0503782 -9.26387 2650 
196 1 0.0578398 -0.04901 0.0356846 0.001058 5.59297 -0.018396 -9.06462 2650 
152 1 0.0587696 -0.0259201 0.0359498 0.000105 5.37994 0.932989 -8.79459 2650 
141 1 0.0569399 -0.0362119 0.0384443 0.000291 6.02829 0.915983 -8.92298 2650 
86 1 0.0564075 -0.0367752 0.0392318 0.000291 6.00909 -0.317542 -8.63913 2650 
73 1 0.054646 -0.0581342 0.039399 0.00164 6.18851 0.0113295 -8.58338 2650 
125 1 0.0560752 -0.0335421 0.0396999 0.000291 6.20294 -0.0707196 -8.76308 2650 
50 1 0.0507627 -0.0360052 0.045152 0.001058 7.14253 -0.00818667 -8.02887 2650 
204 1 0.0520649 -0.0308246 0.0436621 0.001058 6.79081 -0.0462796 -8.09775 2650 
18 1 0.051542 -0.0163246 0.0442767 0.001058 6.95324 0.125048 -8.09401 2650 
229 1 0.0469194 -0.061634 0.0491476 0.001058 7.72339 -0.00224543 -7.37316 2650 
280 1 0.0480393 -0.0308793 0.0482474 0.001058 7.57868 1.03337e-05 -7.546 2650 
45 1 0.0486988 -0.00324338 0.0484693 0.000291 6.06502 -0.358257 -6.10692 2650 
296 1 0.0493013 -0.00221516 0.0478574 0.000291 5.87089 -0.111437 -6.07722 2650 
6 1 0.046934 -0.0122648 0.0501286 0.000291 6.5891 -0.235791 -6.19979 2650 
89 1 0.0376731 -0.0611601 0.0558563 0.00164 8.77412 2.87249e-07 -5.91784 2650 
175 1 0.0389355 -0.00246388 0.0566077 0.000291 7.61145 0.0974994 -5.26054 2650 
83 1 0.0327779 -0.049883 0.059541 0.001058 9.35162 -0.00030983 -5.14814 2650 
85 1 0.0341516 -0.0103755 0.0596252 0.000291 6.59756 -0.163732 -3.78159 2650 
37 1 0.030319 -0.0327587 0.0616525 0.000291 7.09185 -0.270061 -3.48312 2650 
235 1 0.0286557 -0.01964 0.0624678 0.000291 9.11304 -0.54428 -4.18046 2650 
84 1 0.0175925 -0.050993 0.065647 0.001058 10.3112 0.00809764 -2.76333 2650 
287 1 0.0195158 -0.0499043 0.0651059 0.001058 10.2104 -0.00570159 -3.06014 2650 
264 1 0.0182643 -0.0482374 0.0654699 0.001058 10.2823 0.00643994 -2.86846 2650 
215 1 0.023169 -0.0485454 0.0639006 0.001058 10.04 -0.00129387 -3.64035 2650 
181 1 0.0235062 -0.0463858 0.0645888 0.000291 10.1745 0.131928 -3.70339 2650 
253 1 0.0230613 -0.0253868 0.0647212 0.000291 8.99293 0.377541 -3.20028 2650 
252 1 0.0234427 -0.0129349 0.063798 0.001058 8.72545 -0.11835 -3.15698 2650 
109 1 0.0155084 -0.0511111 0.0669504 0.000291 10.4727 0.0295537 -2.42548 2650 
290 1 0.0169316 -0.048843 0.0666099 0.000291 10.4964 -0.00224436 -2.66815 2650 
272 1 0.0139659 -0.0446765 0.0665131 0.001058 10.6602 -0.0557067 -2.24355 2650 
100 1 0.00582334 -0.0197112 0.067697 0.001058 9.02133 -0.0358257 -0.811739 2650 
260 1 0.00740521 0.00733127 -0.0140446 0.000291 -0.00996736 0.00469349 0.00488237 2650 
54 1 0.0047838 0.03263 -0.0159225 0.000291 -0.0454148 -0.00172676 -0.0115357 2650 
286 1 0.0045585 0.0428294 -0.0150757 0.001058 -0.0227563 0.047494 -0.00559967 2650 
292 1 0.00343165 0.0544488 -0.0141834 0.001058 -0.0104367 0.0376087 -0.0291473 2650 
301 1 0.000550263 0.0428453 -0.0128331 0.001058 -0.0176549 0.0163122 0.00371725 2650 
195 1 0.0102179 0.00115418 -0.0119676 0.001058 -0.023068 0.0028628 -0.0200038 2650 
153 1 0.00863497 0.00414306 -0.0117372 0.00164 -0.00763413 -0.0014489 0.00703428 2650 
33 1 0.00275161 0.0309494 -0.0118121 0.00164 0.00603998 0.0215627 0.00352792 2650 
284 1 0.0117739 0.0136476 -0.00812184 0.000291 -0.00371053 0.00586111 -0.00129449 2650 
70 1 0.00425216 0.0576996 -0.00848014 0.000291 0.000986621 0.0559838 -0.0454673 2650 
176 1 0.0145996 0.000401459 -0.00607113 0.000105 -0.0113334 0.00168079 0.000719247 2650 
19 1 0.0130281 0.0115146 -0.00728209 0.001058 -0.00189711 0.0050805 -0.00113271 2650 
114 1 0.000375255 0.0119783 -0.00777909 0.001058 0.0187062 0.0117361 -0.00752779 2650 
77 1 0.00912382 0.0118914 -0.00687643 0.000291 -0.0117356 0.000913058 0.0103562 2650 
57 1 0.00556249 0.0275714 -0.00734099 0.00164 -0.000919831 0.00616449 -0.024056 2650 
123 1 0.0120439 0.0407533 -0.00737555 0.001058 -0.0069266 0.0381635 -0.00768552 2650 
101 1 0.0132087 0.000208273 -0.00488246 0.000291 0.0107852 -0.0015929 -0.0095042 2650 
199 1 0.0134617 0.00567336 -0.00553854 0.000291 -0.0066469 0.00203541 -0.00705897 2650 
161 1 0.0135934 0.00833014 -0.00520049 0.00164 -0.000454856 0.00568005 -0.00417258 2650 
249 1 0.00677588 0.0368051 -0.00405161 0.000291 0.00987628 0.0185258 -0.0129358 2650 
263 1 0.00650613 0.0641111 -0.00579405 0.000291 -0.0276857 0.0691876 -0.0511194 2650 
1 1 0.0136707 0.00640888 -0.00224654 0.00164 -0.00396175 0.00352346 -0.00443708 2650 
203 1 0.0122332 0.0287863 -0.0022091 0.001058 0.0105265 0.0334803 0.00411967 2650 
258 1 0.0117461 0.0430034 -0.00265699 0.001058 -0.00702738 0.0458888 -0.00817646 2650 
279 1 0.0119237 0.00587617 0.000178472 0.001058 0.00690887 -0.00122776 0.0071413 2650 
92 1 0.0128916 0.00813908 0.000450306 0.001058 0.00298746 0.00292354 0.00546929 2650 
194 1 0.0113576 0.0374295 0.000110079 0.001058 -0.00717738 0.0355954 0.00284246 2650 
293 1 0.0157457 0.0431782 0.000695816 0.001058 0.00440617 -0.00310892 -0.103934 2650 
52 1 0.0152295 0.05136 0.00117833 0.001058 -0.00702953 0.0194323 -0.0174178 2650 
17 1 0.0152613 0.0565299 0.000508923 0.00164 0.00701424 0.0397619 -0.0326359 2650 
106 1 0.0012456 0.0338559 0.0023393 0.001058 0.0119634 0.0223893 -0.0027555 2650 
38 1 0.0144979 0.0196097 0.00567413 0.000291 0.0290333 0.00993382 0.0254358 2650 
9 1 0.0134478 0.0412867 0.0052555 0.00164 -0.00067168 0.0470366 0.00650688 2650 
238 1 0.0144572 0.051127 0.00541297 0.001058 -0.00137728 0.0257105 -0.0165728 2650 
298 1 0.0133154 0.00235044 0.00647835 0.000105 0.00377194 -0.00442838 -0.00799766 2650 
156 1 0.0121658 0.00603677 0.0085527 0.001058 -0.00386139 -0.00886559 -0.00604091 2650 
265 1 0.0124919 0.0129183 0.0094699 0.001058 0.00631372 0.00593974 -0.00936806 2650 
66 1 0.0110131 0.00784951 0.0102492 0.001058 0.00109107 -0.000952032 -0.00287426 2650 
139 1 0.00814738 0.0253182 0.0115472 0.001058 -0.0138539 0.00679752 0.0124887 2650 
242 1 0.00204726 0.0386416 0.0118942 0.000291 0.0116924 0.0265357 0.00697501 2650 
41 1 0.00300656 0.0208589 0.0133009 0.00164 -0.00672013 0.00866437 -0.0057422 2650 
105 1 0.00609427 0.019765 0.0123366 0.00164 -0.00344466 0.00582004 -0.00613861 2650 
157 1 1.61973e-05 0.082549 -0.0135775 0.000291 0.0079085 0.0606548 0.000918149 2650 
75 1 0.0116694 0.0803288 -0.0112215 0.001058 0.0240155 0.0510522 0.00788599 2650 
127 1 0.0163264 0.0927315 -0.00302402 0.000291 0.0147798 0.0618117 0.0201086 2650 
