ITEM: TIMESTEP
13212247
ITEM: NUMBER OF ATOMS
278
ITEM: BOX BOUNDS ff ff ff
-0.15 0.15
-0.15 0.15
-0.15 0.15
ITEM: ATOMS id type x y z radius vx vy vz density 
39 1 -0.00436248 -0.0353193 -0.0685679 0.000291 -10.8815 0.463421 0.689548 2650 
86 1 -0.00212403 -0.0171995 -0.0686739 0.000291 -8.54413 0.0714496 0.267487 2650 
64 1 -0.00451162 -0.0136393 -0.0687457 0.000105 -7.97726 0.479413 0.526641 2650 
167 1 -0.00278101 -0.00931092 -0.0686502 0.000291 -8.18724 -0.470928 0.327529 2650 
264 1 -0.014762 -0.0496397 -0.0663418 0.001058 -10.4015 0.034849 2.31421 2650 
84 1 -0.00843308 -0.0500338 -0.0674264 0.001058 -10.8966 -0.056864 1.36402 2650 
285 1 -0.00725334 -0.0228725 -0.0675593 0.001058 -4.72084 0.0403875 0.526896 2650 
213 1 -0.0163332 -0.0185637 -0.0667561 0.000291 -7.85095 1.13331 1.92697 2650 
277 1 -0.0120394 -0.0178386 -0.0676582 0.000291 -8.56677 -0.20775 1.51599 2650 
208 1 -0.0151898 -0.0155074 -0.066247 0.001058 -8.60732 0.129075 1.94924 2650 
215 1 -0.0202224 -0.0494493 -0.0648891 0.001058 -10.1605 0.0841279 3.16867 2650 
109 1 -0.0238085 -0.0488822 -0.0644768 0.000291 -10.2237 0.109217 3.77556 2650 
235 1 -0.0232102 -0.0138407 -0.064695 0.000291 -7.87445 -0.225445 2.83372 2650 
16 1 -0.0247031 -0.00667053 -0.0643158 0.000105 -7.77985 0.261297 2.99693 2650 
192 1 -0.0250202 -0.000104995 -0.0641892 0.000105 -8.02731 -7.71012e-06 3.1203 2650 
302 1 -0.0272759 -0.022223 -0.0630728 0.000291 -8.15479 -0.192691 3.51995 2650 
241 1 -0.0275952 -0.0227607 -0.0629306 0.000291 -9.68572 0.462406 4.24357 2650 
261 1 -0.0298191 -0.0127348 -0.0619243 0.000291 -8.12293 0.248098 3.914 2650 
83 1 -0.0304231 -0.0433227 -0.0607799 0.001058 -9.51375 -0.0428687 4.76175 2650 
255 1 -0.0329979 -0.0194951 -0.060286 0.000291 -7.74785 -0.00352743 4.24497 2650 
98 1 -0.0284973 -0.0159043 -0.0617114 0.001058 -8.11639 0.00764465 3.75237 2650 
141 1 -0.0364275 -0.037893 -0.0582617 0.000291 -8.20873 -0.149604 5.12609 2650 
290 1 -0.0469478 -0.0491942 -0.050166 0.000291 -7.61071 0.1515 7.12174 2650 
96 1 -0.0476739 -0.00684216 -0.0497179 0.000105 -6.30736 -0.154443 6.07574 2650 
197 1 -0.0473007 -0.00621103 -0.0498145 0.000291 -6.33503 -0.0462436 6.02887 2650 
174 1 -0.0510342 -0.0244348 -0.0460027 0.000291 -6.31764 -0.743167 7.02498 2650 
182 1 -0.0497887 -0.0218753 -0.0473478 0.000291 -5.21147 0.00121465 5.504 2650 
223 1 -0.0488473 -0.0188894 -0.0472319 0.001058 -6.39781 -0.299033 6.67799 2650 
6 1 -0.0517647 -0.0153373 -0.045179 0.000291 -5.74954 0.490862 6.58195 2650 
274 1 -0.0571563 -0.0624479 -0.0381511 0.000291 -6.00793 -0.0171478 9.00177 2650 
281 1 -0.057647 -0.0593715 -0.0373819 0.000291 -5.8805 -0.0597355 9.06841 2650 
89 1 -0.0559873 -0.0610664 -0.0374776 0.00164 -5.89032 -0.0180466 8.79947 2650 
73 1 -0.0553235 -0.0539411 -0.038449 0.00164 -6.05001 0.00534372 8.70512 2650 
191 1 -0.0586759 -0.0470987 -0.0357781 0.000291 -5.80669 -0.018631 9.52701 2650 
230 1 -0.0605325 -0.0500785 -0.0309086 0.001058 -4.89136 -0.0157329 9.57928 2650 
121 1 -0.060436 -0.0463337 -0.029833 0.00164 -4.67685 0.0174161 9.4743 2650 
46 1 -0.0614375 -0.0160264 -0.0308144 0.000291 -3.06878 -0.552978 6.13537 2650 
226 1 -0.0625883 -0.052653 -0.0283769 0.000291 -2.9636 -0.314883 6.58502 2650 
126 1 -0.0628554 -0.0283544 -0.0277396 0.000291 -4.32735 -1.82463 9.80239 2650 
243 1 -0.0625094 -0.0478823 -0.0266973 0.001058 -4.16788 0.0191971 9.7545 2650 
239 1 -0.0639586 -0.0492815 -0.0230078 0.001058 -3.67279 -0.0915003 10.1985 2650 
288 1 -0.0654304 -0.0457156 -0.0210419 0.000291 -3.34626 0.137207 10.4065 2650 
173 1 -0.0668122 -0.00778071 -0.0160611 0.000291 -1.46075 0.0731 6.13602 2650 
135 1 -0.00886594 -0.000993624 -0.0132393 0.000291 -0.0060505 -0.00140209 -0.0140303 2650 
196 1 -0.0671071 -0.0386603 -0.01068 0.001058 -1.64084 -0.158952 10.3049 2650 
303 1 -0.0680683 -0.0195418 -0.00940156 0.000291 -1.23603 -1.09187 8.95096 2650 
44 1 -0.0672791 -0.017008 -0.00955771 0.001058 -1.33486 0.0315469 9.42183 2650 
295 1 -0.0678998 -0.0111645 -0.0105626 0.000291 -1.27295 -0.0723924 8.16809 2650 
248 1 -0.0679832 -0.0107986 -0.0100047 0.000291 -1.19486 0.398002 8.0992 2650 
117 1 -0.0681334 -0.00671262 -0.00888423 0.000291 -0.80748 -0.0427399 6.15765 2650 
175 1 -0.013247 -0.00323578 -0.008751 0.000291 0 -0.011755 0 2650 
47 1 -0.0132306 -0.00262509 -0.00879572 0.000291 -0.00125586 -0.0105028 0.00427205 2650 
131 1 -0.0676545 -0.0446082 -0.00632523 0.001058 -0.99037 -0.17125 10.6106 2650 
269 1 -0.0684264 -0.0122728 -0.00622911 0.000291 -0.467776 -0.342292 4.81801 2650 
240 1 -0.010392 -0.00263378 -0.005262 0.000291 0 -0.011755 0 2650 
276 1 -0.013674 -0.00169178 -0.004231 0.000291 0 -0.011755 0 2650 
36 1 -0.0679071 -0.0421018 -0.00230525 0.001058 -0.354334 -0.0528251 10.444 2650 
13 1 -0.014201 -0.00259178 -0.003882 0.000291 0 -0.011755 0 2650 
104 1 -0.014089 -0.00190978 -0.003012 0.000105 0 -0.011755 0 2650 
177 1 -0.000541012 -0.00326302 -0.000164108 0.00164 -0.00966503 -0.00602483 0.00423439 2650 
120 1 -0.0169205 -0.00378795 8.56859e-05 0.000105 -0.310776 -0.338249 -0.0816038 2650 
268 1 -0.011054 -0.000117776 0.000789 0.000291 0 -0.011755 0 2650 
2 1 -0.0678763 -0.0349859 0.00305304 0.001058 0.431868 -0.0118756 10.1059 2650 
14 1 -0.0686211 -0.0254077 0.00344239 0.000291 0.542562 0.535882 10.9324 2650 
58 1 -0.00641288 -0.00278268 0.00569024 0.001058 0.00939797 -0.00814862 -0.00719036 2650 
164 1 -0.003894 -0.00296678 0.005467 0.001058 0 -0.011755 0 2650 
186 1 -0.00620138 -0.000532542 0.00658085 0.001058 -4.15282e-05 -0.0115536 6.1062e-05 2650 
300 1 -0.0129202 -0.000876678 0.00904031 0.001058 -0.00246489 -0.00748443 -0.0047401 2650 
110 1 -0.00142696 -0.000122292 0.0163138 0.000291 -0.00381615 -0.00836552 -0.0245093 2650 
152 1 -0.0645082 -0.0189153 0.0242438 0.000105 2.87098 0.622454 7.66012 2650 
26 1 -0.0632274 -0.0450577 0.0249529 0.001058 3.95609 0.035567 10.0247 2650 
118 1 -0.0598801 -0.0161304 0.033731 0.000291 4.04817 -0.0197919 7.19169 2650 
206 1 -0.0448764 -0.048913 0.0520284 0.000291 8.04801 -0.148078 6.93997 2650 
42 1 -0.0389652 -0.0512084 0.0556771 0.001058 8.75003 0.0747492 6.12411 2650 
193 1 -0.0371064 -0.0489303 0.0562514 0.00164 8.87553 0.0169106 5.8528 2650 
185 1 -0.0357353 -0.046011 0.0571366 0.00164 8.9793 -0.0497531 5.61467 2650 
119 1 -0.0377083 -0.043138 0.0574537 0.000291 9.31925 -0.471718 6.10154 2650 
108 1 -0.0347511 -0.0322433 0.0583844 0.001058 8.63943 0.13538 5.14783 2650 
50 1 -0.0364496 -0.030535 0.0573452 0.001058 8.42388 0.155266 5.36449 2650 
148 1 -0.0339312 -0.048062 0.0588932 0.001058 9.34559 0.00704161 5.38187 2650 
122 1 -0.0347244 -0.0254066 0.0584028 0.001058 7.98729 -0.0173966 4.79049 2650 
20 1 -0.0299607 -0.0469907 0.0610118 0.001058 9.54924 0.00328153 4.68936 2650 
253 1 -0.0304241 -0.0289645 0.0616025 0.000291 8.76169 -0.190219 4.31698 2650 
188 1 -0.0267402 -0.0616538 0.062464 0.001058 9.8049 0.00600614 4.19755 2650 
218 1 -0.0235454 -0.042553 0.0637586 0.001058 10.1714 0.0627685 3.75682 2650 
229 1 -0.0172207 -0.0494459 0.0657482 0.001058 10.304 -0.0256819 2.69881 2650 
251 1 -0.0213452 -0.0275919 0.0645023 0.001058 9.11055 -0.0631461 2.99717 2650 
23 1 -0.0180803 -0.0385843 0.0662932 0.000291 9.93203 -0.0471912 2.70853 2650 
189 1 -0.00869109 -0.02946 0.0898036 0.000291 8.06189 0.264292 8.27416 2650 
244 1 -0.00239113 0.00627003 -0.0155603 0.001058 -0.0982618 0.0241273 0.0186134 2650 
157 1 -0.00425433 0.0497958 -0.0140733 0.000291 0.0079085 0.0606548 0.000918149 2650 
75 1 -0.00129877 0.0527609 -0.0154799 0.001058 0.0240155 0.0510522 0.00788599 2650 
205 1 -0.00448795 0.00114986 -0.0132388 0.000291 -0.00881861 0.00364628 0.0236275 2650 
130 1 -0.00310704 0.00114087 -0.0135826 0.001058 -0.00692202 0.00347734 0.00595777 2650 
67 1 -0.00713644 0.0133755 -0.0138989 0.001058 -0.0104976 0.0129104 0.0114407 2650 
33 1 -0.000509941 0.0193057 -0.0137171 0.00164 0.00603998 0.0215627 0.00352792 2650 
94 1 -0.0115372 0.00120966 -0.0118362 0.000291 8.5498e-05 -0.0117385 8.5498e-05 2650 
74 1 -0.0112651 0.00247481 -0.00938443 0.001058 0.00156258 -0.00569596 -0.00749774 2650 
38 1 -0.00117986 0.0142455 -0.00806101 0.000291 0.0290333 0.00993382 0.0254358 2650 
293 1 -0.0129028 0.0350783 -0.00932748 0.001058 -0.072687 0.0347221 0.0837955 2650 
234 1 -0.0125648 0.00893897 -0.00660267 0.000291 -0.00131366 0.00431637 0.0126772 2650 
159 1 -0.012707 0.00130222 -0.00588 0.000291 0 -0.011755 0 2650 
97 1 -0.0125598 0.00417925 -0.00403296 0.00164 0.0106628 0.00973926 -0.0203866 2650 
10 1 -0.0142215 0.00604055 -0.00512512 0.001058 -0.00348814 0.00760519 -0.0107431 2650 
80 1 -0.0154945 0.00795941 -0.00600147 0.000105 0.0137546 0.0232676 -0.0199154 2650 
263 1 -0.00515075 0.0233602 -0.0049553 0.000291 0.0807781 0.0834583 0.0461979 2650 
114 1 -0.00972593 0.00564083 -0.00371414 0.001058 0.0187062 0.0117361 -0.00752779 2650 
7 1 -0.00488964 0.0250589 -0.0032143 0.000291 0.00378858 0.0136367 -0.000251809 2650 
61 1 -0.016439 0.00102022 -0.001038 0.000291 0 -0.011755 0 2650 
129 1 -0.00281337 0.0078696 -0.00115988 0.00164 0.00825627 0.00147102 -0.0030875 2650 
65 1 -0.012726 0.0225372 -0.00129754 0.00164 -0.00447342 0.0138222 0.00034274 2650 
147 1 -0.0157897 0.0318843 -6.8596e-05 0.001058 -0.00232917 0.0273979 0.0584824 2650 
71 1 -0.00102378 0.00388851 0.000218057 0.000291 0.000861808 -0.00718564 -0.0173142 2650 
209 1 -0.01541 0.00842208 0.00192746 0.001058 -0.0032116 0.00264672 0.00158384 2650 
115 1 -0.0157051 0.0121945 0.00137016 0.001058 -0.00169911 0.0128291 0.00969676 2650 
187 1 -0.015728 0.0199774 0.00069383 0.001058 -0.000280938 0.0161775 0.0137442 2650 
211 1 -0.0127365 0.00537057 0.0027068 0.001058 0.000982608 0.00314487 0.00709992 2650 
266 1 -0.015504 0.0105821 0.00276393 0.001058 0.00237332 0.00196815 0.00196827 2650 
256 1 -0.0162229 0.0124605 0.00277801 0.000291 0.00184238 0.020694 0.00254716 2650 
220 1 -0.0155789 0.0221242 0.00302311 0.000291 -0.00743392 0.0110018 0.0132466 2650 
106 1 -0.00521456 0.0217658 0.00382725 0.001058 0.0119634 0.0223893 -0.0027555 2650 
291 1 -0.008194 0.00140722 0.004767 0.000291 0 -0.011755 0 2650 
41 1 -0.00143577 0.0168175 0.00750156 0.00164 0.0102042 0.00860529 0.0210319 2650 
124 1 -0.0131521 0.0311391 0.00711943 0.001058 0.00450723 0.0342902 0.00378394 2650 
28 1 -0.0127716 0.0389116 0.00764427 0.001058 0.00734507 0.0503926 0.00344867 2650 
304 1 -0.012709 0.000688224 0.009818 0.000291 0 -0.011755 0 2650 
68 1 -0.00219115 0.00789826 0.00928562 0.001058 0.00272783 -0.00342387 -0.00169301 2650 
144 1 -0.00783349 0.0170257 0.00823344 0.000105 0.00807853 0.0136784 0.0281765 2650 
242 1 -0.00426655 0.0243125 0.00812777 0.000291 0.0116924 0.0265357 0.00697501 2650 
217 1 -0.00954753 0.0349319 0.0081473 0.001058 0.000747792 0.0265619 -0.00553463 2650 
55 1 -0.01171 0.00115622 0.01034 0.000291 0 -0.011755 0 2650 
4 1 -0.01042 0.00827989 0.0118134 0.001058 0.00569435 0.00097307 0.00498712 2650 
250 1 -0.00821076 0.000913889 0.0129357 0.001058 0.0155527 -0.0042124 0.00795816 2650 
170 1 -0.00600135 0.000892629 0.0129406 0.001058 0.0182293 -0.00571122 0.00927168 2650 
299 1 -0.00856772 0.00303102 0.0121866 0.001058 0.00581403 -0.00322581 0.00124072 2650 
224 1 -0.00817283 0.01405 0.0128936 0.001058 -0.00111942 0.00491513 -0.00282362 2650 
273 1 -0.00354645 0.0371196 0.0151592 0.001058 -0.00419695 0.043991 0.0228631 2650 
154 1 -0.00704068 0.0930572 -0.00757905 0.001058 -0.025218 0.0914679 0.0181079 2650 
237 1 -0.120976 0.0821826 0.0441781 0.001058 -9.8642 0.111717 3.61186 2650 
221 1 0.00417196 -0.0247485 -0.0685564 0.000291 -8.91643 0.0912237 -0.555291 2650 
270 1 0.00686335 -0.0170723 -0.0683424 0.000291 -8.41049 0.00870821 -0.806295 2650 
296 1 0.000684556 -0.00558738 -0.0687054 0.000291 -5.68981 0.0253484 0.0468619 2650 
137 1 0.0164409 -0.0611601 -0.0653362 0.00164 -10.2629 -1.18967e-07 -2.5825 2650 
29 1 0.0248212 -0.0161474 -0.0640948 0.000291 -8.70814 -0.186423 -3.36973 2650 
219 1 0.0322626 -0.000291172 -0.0606619 0.000291 -7.49019 0.00117488 -3.9718 2650 
282 1 0.033825 -0.0228234 -0.0598139 0.000291 -8.14744 0.164684 -4.61397 2650 
184 1 0.039079 -0.0181706 -0.0567536 0.000105 -6.12301 0.311299 -4.23208 2650 
267 1 0.0374363 -0.00615917 -0.0576167 0.000291 -4.9236 -0.0704822 -3.16637 2650 
35 1 0.0382396 -0.0443367 -0.0561794 0.001058 -3.60343 -0.942438 -2.42666 2650 
178 1 0.0427295 -0.0571459 -0.052828 0.001058 -8.33279 0.0617261 -6.74865 2650 
165 1 0.0431802 -0.0445903 -0.0534478 0.000291 -7.29028 0.683799 -5.88013 2650 
25 1 0.0438234 -0.0589688 -0.0511666 0.00164 -8.0797 0.0493929 -6.92286 2650 
169 1 0.0460636 -0.0611594 -0.0491674 0.00164 -7.72084 -0.00384148 -7.23355 2650 
246 1 0.0468352 -0.0573903 -0.0492265 0.001058 -7.68994 -0.0914484 -7.3163 2650 
103 1 0.0484744 -0.0449501 -0.0486934 0.000291 -7.58015 0.541866 -7.54562 2650 
272 1 0.0505751 -0.0267039 -0.045375 0.001058 -6.32076 0.247042 -7.05824 2650 
257 1 0.0526811 -0.0446524 -0.0428958 0.001058 -6.80055 -0.335397 -8.35049 2650 
201 1 0.0555788 -0.0300461 -0.0380797 0.00164 -5.3876 -0.0275238 -7.88111 2650 
289 1 0.0569596 -0.0262569 -0.0384227 0.000291 -5.20537 0.00215875 -7.71257 2650 
82 1 0.0581284 -0.0297511 -0.0351814 0.001058 -4.96544 -0.115512 -8.19982 2650 
151 1 0.0629371 -0.0466084 -0.0276276 0.000291 -4.62502 -1.48157 -10.5273 2650 
15 1 0.065699 -0.0168491 -0.0201858 0.000291 -2.59351 -0.121355 -8.44399 2650 
162 1 0.0662608 -0.033635 -0.0150224 0.001058 -2.04467 -0.0765794 -9.20851 2650 
204 1 0.0662107 -0.0308641 -0.0153356 0.001058 -2.15048 -0.0153047 -9.13087 2650 
252 1 0.00245 -0.000908776 -0.01336 0.001058 0 -0.011755 0 2650 
305 1 0.0680244 -0.0353617 -0.0109065 0.000105 -1.42602 0.535118 -8.8465 2650 
287 1 0.0670555 -0.0125988 -0.0109734 0.001058 -0.598413 -0.359692 -3.01905 2650 
275 1 0.012705 -0.00154678 -0.010476 0.000291 0 -0.011755 0 2650 
60 1 0.007579 -0.00297778 -0.006312 0.001058 0 -0.011755 0 2650 
45 1 0.010575 -0.00305778 -0.007722 0.000291 0 -0.011755 0 2650 
100 1 0.0676872 -0.0199235 -0.00466797 0.001058 -0.313031 -0.620958 -3.43156 2650 
278 1 7.4e-05 -0.000466776 -0.004448 0.001058 0 -0.011755 0 2650 
227 1 0.00944 -0.00237978 -0.002109 0.000291 0 -0.011755 0 2650 
200 1 0.0688408 -0.0174838 -0.00169295 0.000105 -0.135396 0.414515 -7.74953 2650 
158 1 0.0687072 -0.0105972 0.000565674 0.000291 0.0857668 -0.308805 -7.74302 2650 
128 1 0.00361 -7.87764e-05 0.000511 0.000105 0 -0.011755 0 2650 
202 1 0.00623424 -0.00140527 8.05261e-05 0.001058 0.0093109 -0.00893593 -0.0136131 2650 
48 1 0.009671 -0.00178578 0.000233 0.000105 0 -0.011755 0 2650 
271 1 0.0127664 -0.000127088 0.00148251 0.001058 0.0150184 -0.010407 0.010297 2650 
294 1 0.00734214 -0.00206883 0.00354851 0.001058 0.0136556 -0.011638 -0.00128524 2650 
99 1 0.00517308 -0.00193976 0.00394389 0.001058 0.0107016 -0.0115374 0.00367132 2650 
76 1 0.0677867 -0.0221688 0.00462246 0.001058 0.60235 -0.0925712 -8.94707 2650 
228 1 0.0686058 -0.0108394 0.00372642 0.000291 0.399865 0.11501 -7.34715 2650 
24 1 0.005464 -0.00198978 0.005551 0.000105 0 -0.011755 0 2650 
212 1 0.001087 -0.00156178 0.005915 0.000291 0 -0.011755 0 2650 
51 1 0.009662 -0.000916776 0.004577 0.001058 0 -0.011755 0 2650 
231 1 0.00744806 -0.00303347 0.00699606 0.001058 0.00167534 -0.0128877 -0.000760445 2650 
145 1 0.00516277 -0.00110642 0.00718237 0.00164 0.00142123 -0.0121074 -0.00172265 2650 
3 1 0.00835313 -0.0030365 0.0127383 0.001058 -0.00211489 -0.0052299 0.000123346 2650 
280 1 0.0663801 -0.0249776 0.014511 0.001058 1.91088 -0.0547938 -8.72484 2650 
168 1 0.0660188 -0.0122771 0.0197656 0.000105 1.84862 0.0197155 -6.11492 2650 
225 1 0.0643621 -0.0457943 0.0218516 0.001058 3.42715 -0.0630268 -10.246 2650 
21 1 0.0648678 -0.0468414 0.0227241 0.000291 3.59485 -0.0805316 -10.2626 2650 
22 1 0.0646051 -0.0267863 0.0233779 0.000291 2.7809 -0.396832 -7.64423 2650 
88 1 0.0648278 -0.0124197 0.0233858 0.000105 2.60557 0.717559 -7.15236 2650 
107 1 0.0627683 -0.0381353 0.0260308 0.001058 3.98113 -0.0916467 -9.59754 2650 
34 1 0.0613268 -0.0309405 0.0292951 0.001058 4.41709 -0.0537083 -9.30706 2650 
85 1 0.0160354 -0.00425361 0.0668088 0.000291 6.90086 -0.178692 -1.65608 2650 
90 1 0.0600303 -0.0505155 0.0318676 0.001058 5.02845 0.0259138 -9.47257 2650 
43 1 0.059486 -0.0469995 0.0328855 0.001058 4.9949 -0.49538 -8.97034 2650 
171 1 0.0584619 -0.046405 0.0346565 0.001058 5.28139 0.0705783 -8.90425 2650 
81 1 0.0568749 -0.041934 0.0361022 0.00164 4.88115 0.0406426 -7.68629 2650 
40 1 0.0515366 -0.00486394 0.0457021 0.000105 5.11809 -0.191226 -5.82842 2650 
146 1 0.0446247 -0.0520577 0.0512393 0.001058 7.88842 0.0931843 -6.86884 2650 
8 1 0.0450991 -0.0555624 0.0520801 0.000105 8.18188 -0.123012 -7.0851 2650 
214 1 0.0435598 -0.0529375 0.0531373 0.000291 8.30494 0.0438355 -6.808 2650 
247 1 0.0452193 -0.0491969 0.0517303 0.000291 7.99397 -0.0283386 -6.9875 2650 
207 1 0.0404334 -0.0116665 0.055563 0.000291 5.61926 0.194276 -4.11764 2650 
150 1 0.0381397 -0.0303857 0.0571509 0.000291 7.40821 -0.10649 -4.93979 2650 
18 1 0.0375938 -0.0163813 0.0566185 0.001058 7.25765 0.00204853 -4.82729 2650 
172 1 0.0327712 -0.0465605 0.0595491 0.001058 9.38608 -0.111822 -5.16509 2650 
59 1 0.0327662 -0.0440129 0.0595477 0.001058 9.0932 0.135684 -4.96532 2650 
149 1 0.0360985 -0.0311536 0.058472 0.000291 8.38779 -0.169369 -5.1836 2650 
132 1 0.0327078 -0.0172959 0.0595792 0.001058 7.64107 0.00163956 -4.15718 2650 
179 1 0.0320693 -0.0516927 0.0599217 0.001058 9.05819 0.086216 -4.86537 2650 
93 1 0.0307531 -0.0494416 0.0614646 0.000291 9.28548 0.0591032 -4.64588 2650 
49 1 0.0301917 -0.0469111 0.0602578 0.00164 9.48461 -0.00219234 -4.75221 2650 
254 1 0.0336743 -0.0421632 0.0599095 0.000291 9.04105 0.280117 -5.08316 2650 
210 1 0.030252 -0.0308382 0.0608554 0.001058 9.01071 0.160689 -4.44847 2650 
138 1 0.0276015 -0.0499696 0.0621087 0.001058 9.66413 -0.0344966 -4.29505 2650 
259 1 0.0265437 -0.03024 0.0625489 0.001058 9.14216 0.000189428 -3.87417 2650 
181 1 0.0251798 -0.0381543 0.0639328 0.000291 9.45831 -0.0479122 -3.72398 2650 
30 1 0.0216427 -0.0241275 0.0652129 0.000291 9.05399 0.140065 -3.00863 2650 
125 1 0.0256013 -0.0254862 0.0637583 0.000291 8.008 0.0956832 -3.20907 2650 
236 1 0.00815801 -0.0542576 0.0674563 0.001058 10.6745 -0.0620586 -1.29095 2650 
140 1 0.0133207 -0.0381938 0.0666319 0.001058 10.2443 0.145499 -2.04979 2650 
133 1 0.0105233 -0.0300355 0.0678983 0.000291 8.52379 0.0187837 -1.31361 2650 
102 1 0.018997 -0.00906285 0.0660403 0.000291 8.05195 -0.157705 -2.30622 2650 
37 1 0.006156 0.000720224 -0.015157 0.000291 0 -0.011755 0 2650 
78 1 0.001258 0.000706224 -0.012517 0.000291 0 -0.011755 0 2650 
232 1 0.0099031 0.0205231 -0.0121414 0.001058 -0.0167248 0.0324446 -0.0332171 2650 
127 1 0.00834538 0.0593536 -0.0138825 0.000291 0.0147798 0.0618117 0.0201086 2650 
87 1 0.00597177 0.00247453 -0.0105573 0.000291 -0.00318762 -0.017547 -0.0237996 2650 
134 1 0.00259593 0.00534871 -0.0113154 0.000291 -0.0128132 0.00355392 -0.00692922 2650 
260 1 0.00851165 0.00455198 -0.00836659 0.000291 -0.00392275 0.00411325 -0.00447499 2650 
301 1 0.00679355 0.0331047 -0.00955627 0.001058 0.00272587 0.0220862 -0.0290146 2650 
19 1 0.0140525 0.0087712 -0.00667043 0.001058 -0.00189711 0.0050805 -0.00113271 2650 
77 1 0.00749608 0.0112242 -0.00701691 0.000291 0.0279429 0.00178097 -0.016803 2650 
284 1 0.0137776 0.0104826 -0.00742282 0.000291 -0.00371053 0.00586111 -0.00129449 2650 
286 1 0.0141992 0.0163768 -0.00689106 0.001058 -0.0100351 0.050326 -0.0237317 2650 
203 1 0.00654903 0.0107071 -0.00443369 0.001058 0.0105265 0.0334803 0.00411967 2650 
113 1 0.010242 0.00275239 -0.00208758 0.00164 -0.0251958 0.00978061 -0.000134024 2650 
161 1 0.0138074 0.00530218 -0.00312203 0.00164 0.000907452 0.00399164 0.00334652 2650 
153 1 0.00492009 0.00598906 -0.00314829 0.00164 0.00905173 -0.00370467 -0.0193596 2650 
279 1 0.00819293 0.00653915 -0.00367778 0.001058 0.00690887 -0.00122776 0.0071413 2650 
92 1 0.0112784 0.00656039 -0.00250307 0.001058 0.00298746 0.00292354 0.00546929 2650 
123 1 0.0152017 0.0200653 -0.00314056 0.001058 0.0119273 0.0407543 -0.0104321 2650 
245 1 0.00341741 0.0721002 -0.00248601 0.001058 0.013355 0.0538623 -0.0223836 2650 
190 1 0.005899 0.000322224 -0.000534 0.000291 0 -0.011755 0 2650 
176 1 0.00663049 0.000133867 -0.000529713 0.000105 0.0200199 0.000256501 -0.0124767 2650 
199 1 0.0156812 0.00460748 -0.0016609 0.000291 -0.00149126 0.000541054 0.0056379 2650 
194 1 0.0152333 0.0182083 -0.00142483 0.001058 -0.00717738 0.0355954 0.00284246 2650 
101 1 0.00738483 0.00106843 0.000249739 0.000291 0.0107852 -0.0015929 -0.0095042 2650 
1 1 0.0144618 0.00440636 0.000304528 0.00164 0.00550181 0.00569205 -0.0118839 2650 
9 1 0.0138105 0.0158872 0.00174183 0.00164 -0.00067168 0.0470366 0.00650688 2650 
258 1 0.0155409 0.0182238 0.00175824 0.001058 -0.00702738 0.0458888 -0.00817646 2650 
292 1 0.00906737 0.0341404 0.00155596 0.001058 -0.0104367 0.0376087 -0.0291473 2650 
195 1 0.0154471 0.000354133 0.00302257 0.001058 0.00741724 -0.000789799 -0.0304536 2650 
249 1 0.00144275 0.0268013 0.00293363 0.000291 0.00987628 0.0185258 -0.0129358 2650 
52 1 0.00393623 0.0338822 0.00285214 0.001058 0.0258261 0.0380708 0.00407144 2650 
180 1 0.0153499 0.0524708 0.00302092 0.001058 -0.0108614 0.0610072 0.0547024 2650 
79 1 0.014214 0.000923224 0.005058 0.000291 0 -0.011755 0 2650 
105 1 0.00848086 0.0131997 0.00405059 0.00164 0.00091231 0.0106728 0.0284417 2650 
139 1 0.0143207 0.0215643 0.00428456 0.001058 0.0127696 0.00849352 0.0230521 2650 
57 1 0.00605919 0.0242426 0.00564907 0.00164 -0.000919831 0.00616449 -0.024056 2650 
54 1 0.0152589 0.0328374 0.00484816 0.000291 0.0125428 0.00255638 -0.0492536 2650 
222 1 0.009219 0.000282224 0.006833 0.001058 0 -0.011755 0 2650 
112 1 0.013668 0.00124622 0.007002 0.000105 0 -0.011755 0 2650 
156 1 0.00849471 0.0117499 0.00683709 0.001058 0.00957299 -0.000303602 -0.00985815 2650 
116 1 0.00681348 0.0379524 0.00780225 0.001058 -0.0278213 0.0454338 0.0115295 2650 
298 1 0.0112786 0.00474173 0.010797 0.000105 0.00377194 -0.00442838 -0.00799766 2650 
238 1 0.00506404 0.0349401 0.0107092 0.001058 0.0207771 0.0325148 -0.00733364 2650 
265 1 0.00701543 0.00946485 0.0128386 0.001058 0.011667 0.00657701 -0.00499144 2650 
66 1 0.00978575 0.00832318 0.012452 0.001058 0.00846641 -0.000759158 0.00162513 2650 
95 1 0.00666132 0.00125811 0.0147147 0.000291 -0.000366951 -0.00495937 0.00220646 2650 
17 1 0.00292556 0.0353032 0.0149591 0.00164 0.0425829 0.0413566 -0.00603146 2650 
198 1 0.00282953 0.0129417 0.0163308 0.000291 -0.0811964 -0.00254256 0.0210003 2650 
70 1 0.00371939 0.0274688 0.0160719 0.000291 0.000986621 0.0559838 -0.0454673 2650 
