ITEM: TIMESTEP
23090487
ITEM: NUMBER OF ATOMS
258
ITEM: BOX BOUNDS ff ff ff
-0.15 0.15
-0.15 0.15
-0.15 0.15
ITEM: ATOMS id type x y z radius vx vy vz density 
150 1 -0.00041039 -0.0328102 -0.0687082 0.000291 -10.8253 -0.0463154 0.064833 2650 
118 1 -0.00965425 -0.0225626 -0.0680303 0.000291 -9.89011 0.331674 1.4047 2650 
109 1 -0.0153988 -0.0512116 -0.0669756 0.000291 -10.5221 0.00790569 2.41919 2650 
290 1 -0.0174776 -0.0487606 -0.0664701 0.000291 -10.4409 0.000551839 2.74533 2650 
168 1 -0.0199294 -0.0212281 -0.0659605 0.000105 -9.63542 0.654101 2.90981 2650 
110 1 -0.0150045 -0.00980953 -0.067062 0.000291 -8.9389 0.244031 2.00045 2650 
287 1 -0.0194802 -0.0499115 -0.0651165 0.001058 -10.2286 1.3323e-05 3.05997 2650 
84 1 -0.0175798 -0.0510263 -0.0656508 0.001058 -10.313 -0.0017491 2.76156 2650 
181 1 -0.0241939 -0.0478287 -0.0643352 0.000291 -10.1057 1.95289e-05 3.80035 2650 
215 1 -0.0231291 -0.0485426 -0.0639152 0.001058 -10.04 -0.000307435 3.63321 2650 
264 1 -0.0182317 -0.048242 -0.065479 0.001058 -10.2855 2.37167e-05 2.86386 2650 
182 1 -0.0300239 -0.0202889 -0.0618177 0.000291 -8.26474 -0.0696112 4.01526 2650 
83 1 -0.0322171 -0.0500143 -0.0598466 0.001058 -9.39846 0.00654181 5.05944 2650 
272 1 -0.0344585 -0.0488264 -0.0585855 0.001058 -9.15628 0.00950026 5.38573 2650 
269 1 -0.0355309 -0.0161219 -0.0588276 0.000291 -8.58885 0.146419 5.19242 2650 
45 1 -0.0344954 -0.0108235 -0.0594334 0.000291 -8.05345 -0.158023 4.68448 2650 
89 1 -0.037642 -0.0611601 -0.0558772 0.00164 -8.77741 2.87158e-07 5.91296 2650 
296 1 -0.0424476 -0.00859083 -0.054025 0.000291 -7.35438 -0.0352092 5.74978 2650 
175 1 -0.0441363 -0.0119147 -0.0525934 0.000291 -7.22356 -6.20925e-05 6.02376 2650 
6 1 -0.0454813 -0.0159758 -0.0514534 0.000291 -7.08564 0.0382899 6.23582 2650 
229 1 -0.0468991 -0.0616291 -0.0491673 0.001058 -7.72328 0.000156294 7.36699 2650 
280 1 -0.0480125 -0.0308793 -0.0482741 0.001058 -7.58288 1.03337e-05 7.54178 2650 
255 1 -0.0474654 -0.0160407 -0.049645 0.000291 -7.02016 0.104884 6.74668 2650 
152 1 -0.048975 -0.00778516 -0.0484558 0.000105 -7.48948 -0.706526 7.5793 2650 
174 1 -0.0504861 -0.0269507 -0.0466037 0.000291 -7.32202 -0.123662 7.93253 2650 
204 1 -0.0507363 -0.0312954 -0.0451956 0.001058 -7.1035 0.00361395 7.9742 2650 
300 1 -0.0516924 -0.0231142 -0.0440978 0.001058 -6.73811 -0.129525 7.90017 2650 
18 1 -0.0516849 -0.0197726 -0.044109 0.001058 -6.85698 0.0765511 8.02945 2650 
61 1 -0.055944 -0.0152169 -0.0399106 0.000291 -5.682 0.0734569 7.96974 2650 
73 1 -0.0546245 -0.0581483 -0.0394287 0.00164 -6.1937 -0.000669866 8.58076 2650 
141 1 -0.0560804 -0.0379544 -0.0397 0.000291 -6.23568 -0.00918721 8.80858 2650 
86 1 -0.0564591 -0.0339776 -0.0391504 0.000291 -6.11399 -0.0324038 8.81673 2650 
190 1 -0.0561936 -0.0135461 -0.0395571 0.000291 -5.12247 -0.269999 7.24755 2650 
196 1 -0.0577355 -0.0478501 -0.0358596 0.001058 -5.62134 -0.0257713 9.05114 2650 
281 1 -0.0594227 -0.0622793 -0.0345377 0.000291 -5.42332 -1.83052e-06 9.3309 2650 
99 1 -0.0588932 -0.048442 -0.033931 0.001058 -5.33023 0.00269683 9.25145 2650 
2 1 -0.0603988 -0.0493573 -0.0311741 0.001058 -4.89676 -0.000337738 9.48731 2650 
243 1 -0.0610735 -0.0508399 -0.0298236 0.001058 -4.68465 -0.0002897 9.59334 2650 
121 1 -0.0597259 -0.045818 -0.0312249 0.00164 -4.90511 0.000696724 9.38227 2650 
213 1 -0.0627003 -0.0475405 -0.02816 0.000291 -4.44833 0.0117545 9.90513 2650 
201 1 -0.0612384 -0.0455108 -0.0281473 0.00164 -4.42136 2.84189e-05 9.6193 2650 
278 1 -0.0617386 -0.0337532 -0.0283629 0.001058 -4.48243 -0.0265333 9.75629 2650 
24 1 -0.0630377 -0.0330994 -0.0277845 0.000105 -4.281 -0.529744 9.71162 2650 
259 1 -0.0613618 -0.0308992 -0.0292317 0.001058 -4.5914 -0.000108131 9.63805 2650 
122 1 -0.0612863 -0.0287871 -0.0293303 0.001058 -4.60722 -6.51267e-05 9.62686 2650 
79 1 -0.0636078 -0.0422283 -0.0260288 0.000291 -4.06933 0.00273356 9.94497 2650 
60 1 -0.0622078 -0.0431112 -0.027385 0.001058 -4.30157 9.1877e-05 9.77143 2650 
15 1 -0.0632771 -0.019174 -0.0268269 0.000291 -4.27573 -0.0988295 10.084 2650 
108 1 -0.0631493 -0.0480008 -0.0251491 0.001058 -3.9504 -0.00108157 9.91943 2650 
184 1 -0.0643166 -0.0183315 -0.0247543 0.000105 -3.96677 -0.0392725 10.3048 2650 
191 1 -0.0645286 -0.0479679 -0.0236726 0.000291 -3.71876 -0.00044153 10.1369 2650 
36 1 -0.0641513 -0.0484554 -0.0224676 0.001058 -3.52915 2.37067e-05 10.0767 2650 
140 1 -0.0637335 -0.0466038 -0.0236305 0.001058 -3.71032 -0.00475536 10.0074 2650 
119 1 -0.0654218 -0.0503967 -0.0210604 0.000291 -3.32324 0.0145136 10.3213 2650 
230 1 -0.064811 -0.0487438 -0.020478 0.001058 -3.21663 4.83541e-05 10.1803 2650 
239 1 -0.0654515 -0.050056 -0.018319 0.001058 -2.87716 0.00113346 10.2796 2650 
288 1 -0.0659047 -0.0490313 -0.0195045 0.000291 -3.07057 -0.00698043 10.3751 2650 
50 1 -0.0666733 -0.0440709 -0.0131698 0.001058 -2.07277 0.0579608 10.4932 2650 
74 1 -0.00798327 -0.00174032 -0.0129393 0.001058 0.00552843 -0.00502923 -0.00272883 2650 
71 1 -0.000334343 -0.00185992 -0.0136331 0.000291 0.000861808 -0.00718564 -0.0173142 2650 
131 1 -0.067387 -0.0484675 -0.00876287 0.001058 -1.37647 0.000422072 10.5851 2650 
135 1 -0.00663386 -0.00305699 -0.00903394 0.000291 0.00330025 -0.00264717 0.00636962 2650 
82 1 -0.0679372 -0.0420536 -0.00119759 0.001058 -0.187953 -0.00506432 10.6697 2650 
294 1 -0.0680838 -0.030875 -0.000184839 0.001058 -0.0290346 -2.12571e-08 10.6946 2650 
78 1 -0.0676826 -0.0380741 0.0118467 0.000291 1.88823 -0.599095 10.8004 2650 
47 1 -0.0677065 -0.0166243 0.0117609 0.000291 1.56366 -0.0762969 8.98586 2650 
209 1 -0.011084 -0.00144374 0.0112498 0.001058 0.0110369 -0.0181584 0.0135773 2650 
95 1 -0.00275606 -0.000178797 0.0108212 0.000291 -0.0190214 0.000188354 -0.00919676 2650 
26 1 -0.0657897 -0.0495443 0.017065 0.001058 2.68056 -5.30361e-05 10.3342 2650 
125 1 -0.0662288 -0.0379978 0.0183081 0.000291 2.94571 -0.00448192 10.6594 2650 
48 1 -0.0577646 -0.0473298 0.0375499 0.000105 5.97592 0.0819539 9.19354 2650 
34 1 -0.0482732 -0.030875 0.0480118 0.001058 7.54168 -2.12563e-08 7.58274 2650 
185 1 -0.0449326 -0.0518693 0.0502013 0.00164 7.88556 1.55923e-05 7.05797 2650 
81 1 -0.0419224 -0.050012 0.0527473 0.00164 8.2856 0.000391247 6.58524 2650 
162 1 -0.0421299 -0.0473832 0.0533177 0.001058 8.3751 0.000405533 6.61773 2650 
42 1 -0.0409969 -0.0548056 0.0541898 0.001058 8.51205 -0.000220211 6.43972 2650 
172 1 -0.0384637 -0.0546969 0.056019 0.001058 8.79948 8.65807e-05 6.04189 2650 
193 1 -0.0381625 -0.0498677 0.0555382 0.00164 8.72376 -5.59182e-05 5.99446 2650 
20 1 -0.0368377 -0.0555131 0.0570995 0.001058 8.96913 -0.000138837 5.78643 2650 
148 1 -0.0327856 -0.0531335 0.0595272 0.001058 9.35053 -2.75411e-05 5.14996 2650 
43 1 -0.0346474 -0.050095 0.0584714 0.001058 9.18424 -0.00514446 5.44202 2650 
35 1 -0.0320051 -0.0508739 0.059958 0.001058 9.41827 4.23086e-05 5.02739 2650 
282 1 -0.0336624 -0.0243752 0.059899 0.000291 8.75059 0.432991 4.92137 2650 
188 1 -0.0288462 -0.0616393 0.0615207 0.001058 9.66345 0.000114319 4.53106 2650 
218 1 -0.0280277 -0.0492071 0.0619233 0.001058 9.72681 -8.27151e-05 4.40257 2650 
267 1 -0.0299025 -0.0229809 0.0618668 0.000291 8.93572 -0.248227 4.31576 2650 
158 1 -0.0322455 -0.0129962 0.0606966 0.000291 8.67438 0.0332513 4.6092 2650 
254 1 -0.0282597 -0.0503191 0.0626511 0.000291 9.84412 0.00132031 4.43484 2650 
247 1 -0.0274051 -0.0496607 0.0630307 0.000291 9.90079 7.20866e-06 4.30476 2650 
236 1 -0.0174575 -0.0616415 0.0656663 0.001058 10.3142 0.000106777 2.74205 2650 
112 1 -0.0201736 -0.0359474 0.0658722 0.000105 10.0639 0.357425 3.0817 2650 
200 1 -0.0210007 -0.0062481 0.0656161 0.000105 9.11181 0.00636732 2.92038 2650 
159 1 -0.00366065 -0.0435154 0.0686097 0.000291 10.7532 -0.551476 0.574462 2650 
80 1 -0.00179709 0.026045 -0.0166366 0.000105 0.0200167 0.0220396 -0.007602 2650 
58 1 -0.00119841 0.000118806 -0.015641 0.001058 0.020455 0.00490158 -0.0306807 2650 
134 1 -0.00639989 0.00818709 -0.0144369 0.000291 -0.00544633 0.00352621 0.00729171 2650 
97 1 -0.00110095 0.0117252 -0.0151054 0.00164 0.0189231 0.00904729 -0.00561719 2650 
54 1 -0.00699675 0.0321425 -0.015051 0.000291 -0.0425652 -0.00199916 0.0175605 2650 
293 1 -0.000843609 0.0403739 -0.0158221 0.001058 -0.099294 -0.016287 -0.00425496 2650 
286 1 -0.00139768 0.0550632 -0.0157258 0.001058 -0.0224686 0.0460898 0.00428948 2650 
292 1 -0.00127506 0.0635563 -0.0132889 0.001058 -0.0198756 0.0344324 0.0109755 2650 
10 1 -0.010872 0.011117 -0.0111642 0.001058 0.0053433 0.0061558 -0.0070677 2650 
51 1 -0.0095911 0.0272421 -0.0103851 0.001058 2.58043e-05 0.0308241 0.0288994 2650 
232 1 -0.0109003 0.0435885 -0.011198 0.001058 -0.0196298 0.0266647 0.016804 2650 
301 1 -0.00403994 0.0470864 -0.0118666 0.001058 -0.0176549 0.0163122 0.00371725 2650 
130 1 -0.00864459 0.00392271 -0.00881641 0.001058 -0.00692202 0.00347734 0.00595777 2650 
67 1 -0.0150483 0.0236333 -0.00460169 0.001058 -0.00153648 0.0116126 0.0141107 2650 
113 1 -0.00420418 0.00517866 -0.00229148 0.00164 -0.0131936 -0.00156564 -0.00033725 2650 
129 1 -0.0019186 0.0144445 -0.00353317 0.00164 -0.00374589 0.0128173 -0.00288427 2650 
7 1 -0.00185882 0.035968 -0.00341575 0.000291 0.00378858 0.0136367 -0.000251809 2650 
65 1 -0.0147576 0.0333718 -0.000857908 0.00164 0.00199904 0.0128894 0.00103488 2650 
234 1 -0.0136157 0.012392 0.00353896 0.000291 -0.00131366 0.00431637 0.0126772 2650 
217 1 -0.0089493 0.0561811 0.00371965 0.001058 0.000747792 0.0265619 -0.00553463 2650 
205 1 -0.0115427 0.00406685 0.00566289 0.000291 -0.00881861 0.00364628 0.0236275 2650 
68 1 -8.91924e-06 0.0051592 0.00793123 0.001058 0.00272783 -0.00342387 -0.00169301 2650 
256 1 -0.0154031 0.0297454 0.00640924 0.000291 0.00177718 0.0215424 0.00440949 2650 
222 1 -0.00981295 0.00207266 0.00855102 0.001058 -0.0324875 0.00467874 -0.0112895 2650 
211 1 -0.0119504 0.00788643 0.00838666 0.001058 0.000982608 0.00314487 0.00709992 2650 
115 1 -0.013267 0.021889 0.00836313 0.001058 0.0059455 0.0116516 0.00703082 2650 
224 1 -0.00765921 0.0172218 0.0103908 0.001058 0.0046856 0.00178326 -0.00382818 2650 
187 1 -0.0121556 0.0324197 0.0102337 0.001058 0.00749407 0.0151236 0.010031 2650 
220 1 -0.00945652 0.0317745 0.0119877 0.000291 0.00991537 0.0130183 0.0124552 2650 
299 1 -0.00391655 0.00045041 0.0131792 0.001058 0.00581403 -0.00322581 0.00124072 2650 
4 1 -0.00544959 0.00902369 0.0148517 0.001058 0.00673868 0.000863758 0.00176759 2650 
244 1 -0.00287055 0.0234193 0.0155488 0.001058 0.0359853 0.021076 -0.00170709 2650 
28 1 -0.00689559 0.0792251 0.0104032 0.001058 0.00734507 0.0503926 0.00344867 2650 
285 1 0.000184839 -0.030875 -0.0680838 0.001058 -10.6946 -2.12563e-08 -0.0290346 2650 
303 1 0.00448688 -0.0217259 -0.0684862 0.000291 -9.93741 -0.105678 -0.651274 2650 
226 1 0.0160638 -0.045794 -0.0668237 0.000291 -10.5639 -0.0683843 -2.53793 2650 
202 1 0.0101694 -0.0308835 -0.0671903 0.001058 -10.5324 -0.00219706 -1.59431 2650 
3 1 0.0123257 -0.0309958 -0.0668312 0.001058 -10.4677 -0.020903 -1.93066 2650 
132 1 0.0083144 -0.0220025 -0.0674387 0.001058 -10.768 -0.188311 -1.32322 2650 
87 1 0.0145746 -0.0207812 -0.0671495 0.000291 -9.97475 0.0485558 -2.1667 2650 
128 1 0.0128424 -0.0132486 -0.0676918 0.000105 -8.53188 0.35273 -1.61695 2650 
137 1 0.0165512 -0.0611601 -0.0653084 0.00164 -10.2581 -8.16432e-07 -2.59973 2650 
164 1 0.0160766 -0.0471184 -0.0660358 0.001058 -10.4458 -0.0469926 -2.54368 2650 
291 1 0.0248294 -0.0464132 -0.064092 0.000291 -9.90549 -0.357558 -3.83936 2650 
88 1 0.0261277 -0.00635319 -0.0637506 0.000105 -8.60526 -0.329737 -3.53541 2650 
103 1 0.03416 -0.0529684 -0.0596264 0.000291 -9.23609 -0.106048 -5.29065 2650 
231 1 0.0329323 -0.0445237 -0.0594564 0.001058 -9.33123 -0.0476497 -5.16856 2650 
268 1 0.0346697 -0.0164861 -0.0593444 0.000291 -9.67911 -0.020214 -5.64543 2650 
104 1 0.0421344 -0.0147624 -0.0545162 0.000105 -7.55207 0.408438 -5.83286 2650 
178 1 0.04301 -0.0567366 -0.0526018 0.001058 -8.2627 -4.15872e-05 -6.75602 2650 
206 1 0.0467086 -0.062509 -0.0503917 0.000291 -7.91548 1.86257e-09 -7.33694 2650 
25 1 0.0438876 -0.0588111 -0.0511168 0.00164 -8.02945 -5.78408e-05 -6.89387 2650 
169 1 0.0461463 -0.0611601 -0.0490897 0.00164 -7.71093 4.57202e-07 -7.24859 2650 
246 1 0.0464343 -0.0585276 -0.0496056 0.001058 -7.79222 -1.66622e-05 -7.29406 2650 
145 1 0.046301 -0.0392581 -0.0489417 0.00164 -7.682 0.00354257 -7.26754 2650 
240 1 0.048132 -0.0338841 -0.0490328 0.000291 -7.45492 0.163653 -7.31815 2650 
241 1 0.0484406 -0.0342947 -0.0487281 0.000291 -7.53147 -0.131739 -7.48563 2650 
126 1 0.0487523 -0.0323757 -0.0484147 0.000291 -7.18479 -0.198867 -7.23553 2650 
207 1 0.0479807 -0.0145242 -0.0491798 0.000291 -7.82502 -0.115906 -7.63183 2650 
85 1 0.0486444 -0.00892344 -0.0485254 0.000291 -6.58262 -0.00795359 -6.6036 2650 
276 1 0.0508355 -0.0321919 -0.0462219 0.000291 -7.23623 -0.0619774 -7.95853 2650 
251 1 0.0482732 -0.030875 -0.0480118 0.001058 -7.54168 -2.12563e-08 -7.58274 2650 
275 1 0.0502791 -0.0201727 -0.0468266 0.000291 -7.52971 -0.325789 -8.08583 2650 
304 1 0.049813 -0.0110502 -0.0473228 0.000291 -7.08535 0.104516 -7.4588 2650 
210 1 0.0503291 -0.0342171 -0.0456468 0.001058 -7.14736 -0.0013834 -7.88104 2650 
102 1 0.0553891 -0.0116635 -0.0406699 0.000291 -6.35782 -0.158785 -8.659 2650 
40 1 0.0566883 -0.000104996 -0.0391496 0.000105 -5.28872 -1.45637e-05 -7.65432 2650 
219 1 0.0567628 -0.000290979 -0.0387151 0.000291 -5.21899 9.6585e-06 -7.66385 2650 
235 1 0.0577808 -0.0160255 -0.0372106 0.000291 -5.84646 0.133245 -9.07837 2650 
39 1 0.0584582 -0.0374175 -0.0361075 0.000291 -5.69362 0.178153 -9.21837 2650 
133 1 0.0594293 -0.0274784 -0.0344751 0.000291 -5.278 0.168629 -9.0963 2650 
37 1 0.0595085 -0.0267096 -0.0343409 0.000291 -5.24603 0.178599 -9.08416 2650 
252 1 0.0578075 -0.0155809 -0.0357475 0.001058 -5.61804 0.00121606 -9.08497 2650 
253 1 0.0602181 -0.0218223 -0.0331056 0.000291 -5.36677 0.0570912 -9.76319 2650 
177 1 0.0584472 -0.0170005 -0.0335441 0.00164 -5.2408 0.100535 -9.13025 2650 
227 1 0.0636332 -0.045545 -0.0259849 0.000291 -4.18178 0.0833445 -10.2377 2650 
107 1 0.0647435 -0.0492642 -0.0206921 0.001058 -3.25818 -0.0305549 -10.1919 2650 
212 1 0.0661037 -0.0165614 -0.0188139 0.000291 -2.95156 0.161427 -10.3725 2650 
100 1 0.0658906 -0.0193293 -0.0166475 0.001058 -2.61728 0.0227993 -10.3591 2650 
94 1 0.0663804 -0.0167007 -0.0178147 0.000291 -2.75335 0.0204999 -10.263 2650 
16 1 0.0665644 -0.0031432 -0.0177527 0.000105 -2.75495 -0.403062 -10.3214 2650 
167 1 0.0668858 -0.0262366 -0.0157055 0.000291 -2.57406 0.469695 -10.9639 2650 
98 1 0.0666051 -0.0184538 -0.0134785 0.001058 -2.13791 -0.0230983 -10.5614 2650 
64 1 0.0678733 -0.01572 -0.0118228 0.000105 -1.90082 -0.119588 -10.9199 2650 
228 1 0.0682466 -0.0127445 -0.00788742 0.000291 -1.17758 -0.00249803 -10.1379 2650 
101 1 0.0147376 -0.000142712 -0.00673431 0.000291 -0.00701612 -0.000711223 -0.000860441 2650 
44 1 0.0680838 -0.030875 0.000184839 0.001058 0.0290346 -2.12572e-08 -10.6946 2650 
261 1 0.0676752 -0.0288376 0.0118626 0.000291 1.79204 0.123732 -10.224 2650 
170 1 0.00775257 -0.00326729 0.0135692 0.001058 0.0153298 -0.00470662 -0.00726617 2650 
250 1 0.00448857 -0.00302104 0.0150758 0.001058 0.0161046 -0.00542442 -0.00110725 2650 
76 1 0.0647122 -0.0460717 0.0207971 0.001058 3.2467 0.050989 -10.1036 2650 
90 1 0.0638778 -0.0494843 0.0232294 0.001058 3.64905 -4.36896e-05 -10.0344 2650 
23 1 0.0649624 -0.0492329 0.0224459 0.000291 3.52843 0.0413395 -10.2114 2650 
302 1 0.0650702 -0.0409066 0.0221021 0.000291 3.64539 -0.0278596 -10.7296 2650 
14 1 0.0649075 -0.0332877 0.0225235 0.000291 3.49563 -0.0880572 -10.0753 2650 
171 1 0.0630947 -0.0495239 0.0252791 0.001058 3.97084 0.00200617 -9.91078 2650 
225 1 0.0635124 -0.0476493 0.0242177 0.001058 3.80417 -0.000252599 -9.97668 2650 
21 1 0.0620936 -0.0490639 0.0294697 0.000291 4.62568 -0.0114909 -9.74624 2650 
22 1 0.0595306 -0.0213048 0.0343114 0.000291 5.13569 0.159422 -8.90605 2650 
117 1 0.0594347 -0.0168713 0.0345122 0.000291 5.09898 0.153324 -8.80053 2650 
46 1 0.0572335 -0.022552 0.0380091 0.000291 5.96146 0.00827603 -8.97673 2650 
223 1 0.0562344 -0.0198985 0.0381529 0.001058 5.99 0.028318 -8.82882 2650 
186 1 0.0533993 -0.0212672 0.0420225 0.001058 6.62036 -0.13582 -8.41172 2650 
173 1 0.0526917 -0.00923927 0.0440929 0.000291 6.65216 0.177406 -7.94477 2650 
208 1 0.0480124 -0.0308698 0.048274 0.001058 7.58286 6.35535e-08 -7.54177 2650 
55 1 0.0460335 -0.0155118 0.0510056 0.000291 7.46266 0.321113 -6.73207 2650 
197 1 0.0403317 -0.0132608 0.0556365 0.000291 6.44176 -0.143922 -4.67606 2650 
270 1 0.0410493 -0.0049188 0.0550976 0.000291 7.73589 0.13342 -5.7643 2650 
192 1 0.0395123 -0.000104989 0.0564382 0.000105 7.58359 -0.00095966 -5.3053 2650 
257 1 0.0336407 -0.0488847 0.0590582 0.001058 9.28151 0.00388308 -5.28682 2650 
29 1 0.0357012 -0.0114763 0.0587237 0.000291 8.62089 0.0689893 -5.24228 2650 
49 1 0.0306003 -0.0490854 0.0600481 0.00164 9.43231 -0.00012794 -4.80667 2650 
59 1 0.0283573 -0.0465968 0.0617758 0.001058 9.70365 2.81228e-05 -4.45433 2650 
93 1 0.0291254 -0.0493428 0.0622553 0.000291 9.77685 0.00317024 -4.57395 2650 
179 1 0.0279084 -0.04883 0.0619778 0.001058 9.73531 0.000556308 -4.38379 2650 
165 1 0.0292847 -0.045706 0.0621834 0.000291 9.76792 -0.00017034 -4.60012 2650 
221 1 0.0255066 -0.0217486 0.0638094 0.000291 8.94467 -0.0132591 -3.59331 2650 
96 1 0.0265916 -0.00623138 0.0635579 0.000105 8.15803 0.0470188 -3.42395 2650 
271 1 0.0169723 -0.0156704 0.0658161 0.001058 10.7363 -0.124522 -2.76558 2650 
138 1 0.00802276 -0.0560049 0.067471 0.001058 10.5999 -0.00300899 -1.26046 2650 
214 1 0.0115603 -0.056194 0.0677204 0.000291 10.4405 -0.300178 -1.77696 2650 
146 1 0.0099087 -0.0488611 0.0672281 0.001058 10.5597 8.5762e-06 -1.55639 2650 
277 1 0.014736 -0.039452 0.0671152 0.000291 10.1382 -0.22906 -2.22918 2650 
295 1 0.010315 -0.030334 0.0679302 0.000291 10.6908 -0.325297 -1.63244 2650 
248 1 0.0112579 -0.0253978 0.067779 0.000291 10.7404 -0.256328 -1.7866 2650 
198 1 0.00257534 0.00246584 -0.0162954 0.000291 -0.0296253 0.00903644 -0.00211577 2650 
195 1 0.00335296 0.00196654 -0.0152989 0.001058 -0.0272585 0.00295666 -0.00563484 2650 
260 1 0.00481373 0.00855156 -0.0127752 0.000291 -0.00996736 0.00469349 0.00488237 2650 
57 1 0.00532333 0.0291742 -0.0135955 0.00164 -0.000919831 0.00616449 -0.024056 2650 
33 1 0.00432198 0.0365556 -0.0108948 0.00164 0.00603998 0.0215627 0.00352792 2650 
153 1 0.00665012 0.00376635 -0.00990834 0.00164 -0.00763413 -0.0014489 0.00703428 2650 
114 1 0.00523879 0.0150296 -0.00973629 0.001058 0.0187062 0.0117361 -0.00752779 2650 
284 1 0.0108092 0.0151715 -0.0084584 0.000291 -0.00371053 0.00586111 -0.00129449 2650 
123 1 0.010243 0.0506757 -0.00937375 0.001058 -0.0069266 0.0381635 -0.00768552 2650 
199 1 0.0117336 0.00620256 -0.00737385 0.000291 -0.0066469 0.00203541 -0.00705897 2650 
161 1 0.0134751 0.00980693 -0.00628535 0.00164 -0.000454856 0.00568005 -0.00417258 2650 
19 1 0.0125349 0.0128355 -0.00757659 0.001058 -0.00189711 0.0050805 -0.00113271 2650 
249 1 0.00934368 0.0416217 -0.00741487 0.000291 0.00987628 0.0185258 -0.0129358 2650 
176 1 0.011653 0.000838459 -0.00588413 0.000105 -0.0113334 0.00168079 0.000719247 2650 
77 1 0.00607262 0.0121288 -0.00418385 0.000291 -0.0117356 0.000913058 0.0103562 2650 
258 1 0.00991904 0.0549344 -0.00478284 0.001058 -0.00702738 0.0458888 -0.00817646 2650 
1 1 0.0126407 0.00732497 -0.00340017 0.00164 -0.00396175 0.00352346 -0.00443708 2650 
52 1 0.0134019 0.0564123 -0.00335023 0.001058 -0.00702953 0.0194323 -0.0174178 2650 
203 1 0.0149701 0.037491 -0.001138 0.001058 0.0105265 0.0334803 0.00411967 2650 
92 1 0.0136684 0.0088992 0.0018723 0.001058 0.00298746 0.00292354 0.00546929 2650 
106 1 0.00435604 0.039677 0.00162288 0.001058 0.0119634 0.0223893 -0.0027555 2650 
194 1 0.00949152 0.0466842 0.00084911 0.001058 -0.00717738 0.0355954 0.00284246 2650 
238 1 0.0140991 0.0578116 0.00110411 0.001058 -0.00137728 0.0257105 -0.0165728 2650 
279 1 0.0137199 0.00555695 0.00203518 0.001058 0.00690887 -0.00122776 0.0071413 2650 
298 1 0.0142961 0.00119908 0.00439899 0.000105 0.00377194 -0.00442838 -0.00799766 2650 
156 1 0.0111618 0.00373175 0.00698209 0.001058 -0.00386139 -0.00886559 -0.00604091 2650 
265 1 0.0141334 0.0144627 0.00703424 0.001058 0.00631372 0.00593974 -0.00936806 2650 
9 1 0.0132732 0.053516 0.00694727 0.00164 -0.00067168 0.0470366 0.00650688 2650 
273 1 0.000389487 0.0682264 0.00786437 0.001058 0.00511 0.0387776 -0.00978519 2650 
66 1 0.0112968 0.00760199 0.00950188 0.001058 0.00109107 -0.000952032 -0.00287426 2650 
38 1 0.0107314 0.0207249 0.00826222 0.000291 -0.0203804 0.00352473 0.00785771 2650 
105 1 0.00519867 0.0212782 0.0107405 0.00164 -0.00344466 0.00582004 -0.00613861 2650 
41 1 0.00125935 0.0231116 0.011808 0.00164 -0.00672013 0.00866437 -0.0057422 2650 
144 1 0.00244092 0.0265331 0.0121938 0.000105 0.0152864 0.0109644 -0.00695946 2650 
147 1 0.00800479 0.0440914 0.013666 0.001058 0.030812 0.00832408 -0.0230623 2650 
242 1 0.00508724 0.0455408 0.0137077 0.000291 0.0116924 0.0265357 0.00697501 2650 
266 1 0.00145299 0.0166145 0.0157244 0.001058 0.0339312 0.0111352 -0.00649733 2650 
139 1 0.00454541 0.0270855 0.0147942 0.001058 -0.0138539 0.00679752 0.0124887 2650 
124 1 0.00298956 0.0606868 0.0151278 0.001058 0.0237177 0.0354635 -0.00375445 2650 
157 1 0.00207238 0.098319 -0.0133388 0.000291 0.0079085 0.0606548 0.000918149 2650 
