ITEM: TIMESTEP
3086952
ITEM: NUMBER OF ATOMS
300
ITEM: BOX BOUNDS ff ff ff
-0.15 0.15
-0.15 0.15
-0.15 0.15
ITEM: ATOMS id type x y z radius vx vy vz density 
219 1 -0.02072 -0.000291196 -0.0655088 0.000291 -5.06563 -0.00133389 1.58316 2650 
148 1 -0.0396296 -0.0302496 -0.0551918 0.001058 -5.91868 0.0512487 4.24603 2650 
167 1 -0.0408678 -0.0190479 -0.055242 0.000291 -3.36164 0.214222 2.44181 2650 
25 1 -0.0521067 -0.0511642 -0.0426954 0.00164 -5.37242 -0.15473 6.45797 2650 
125 1 -0.0570579 -0.0350624 -0.0382729 0.000291 -3.2207 0.0756839 4.76678 2650 
107 1 -0.0558943 -0.00407606 -0.0386285 0.001058 -2.12176 0.601184 3.09204 2650 
280 1 -0.000808344 -0.0032179 -0.0146681 0.001058 0.0125551 -0.0257611 0.00982222 2650 
15 1 -0.067646 -0.0310661 -0.0120564 0.000291 -0.8938 0.34901 3.82069 2650 
241 1 -0.008593 -0.00296271 -0.012306 0.000291 0 -0.011755 0 2650 
189 1 -0.00628519 -0.00224271 -0.0136597 0.000291 -0.00247166 -0.0256023 0.0243032 2650 
163 1 -0.005911 -0.00111471 -0.010628 0.001058 0 -0.011755 0 2650 
166 1 -0.00558902 -0.00165293 -0.00907979 0.000291 -0.00162518 -0.0142064 -0.00212472 2650 
218 1 -0.00479233 -0.000788051 -0.00839514 0.001058 0.00595352 -0.0159364 -0.00627747 2650 
59 1 -0.0139272 -0.0020904 -0.00710929 0.001058 0.136288 0.0217738 0.132645 2650 
200 1 -0.012172 -0.000336712 -0.006974 0.000105 0 -0.011755 0 2650 
293 1 -0.009422 -0.00104971 -0.006923 0.001058 0 -0.011755 0 2650 
137 1 -0.001323 -0.00154671 -0.006126 0.00164 0 -0.011755 0 2650 
214 1 -0.008446 -0.000626712 -0.004092 0.000291 0 -0.011755 0 2650 
282 1 -0.001816 -0.00266671 -0.002164 0.000291 0 -0.011755 0 2650 
180 1 -0.0152399 -0.00171623 -0.00206206 0.001058 -0.00108764 -0.0151162 -0.00336541 2650 
116 1 -0.013496 -0.000526712 -0.003353 0.001058 0 -0.011755 0 2650 
140 1 -0.00759889 -0.00184812 -0.000423414 0.001058 0.00747629 -0.0272757 -0.000219899 2650 
43 1 -0.00497579 -0.00141912 -0.00148204 0.001058 0.0207832 -0.0262891 0.0149653 2650 
123 1 -0.0153106 -0.000167218 0.000143086 0.001058 0.00900522 -0.0125284 0.000847011 2650 
99 1 -0.011672 -0.00166471 9.8e-05 0.001058 0 -0.011755 0 2650 
122 1 -0.00170955 -0.000817609 0.000344671 0.001058 0.000509879 -0.0115361 4.72204e-06 2650 
131 1 -0.0131375 -0.00253599 0.00309719 0.001058 0.002014 -0.0366129 0.0174268 2650 
132 1 -0.0152802 -0.00092082 0.00395351 0.001058 0.00783583 -0.0108486 0.00265566 2650 
158 1 -0.007297 -0.00170371 0.003049 0.000291 0 -0.011755 0 2650 
149 1 -0.004792 -0.00174971 0.002724 0.000291 0 -0.011755 0 2650 
272 1 -0.001203 -0.000842712 0.002609 0.001058 0 -0.011755 0 2650 
138 1 -0.0676534 -0.0150118 0.00615849 0.001058 0.328873 -0.329604 4.69051 2650 
206 1 -0.014148 -0.000472401 0.00511074 0.000291 -0.00576341 -0.0268644 0.0246765 2650 
49 1 -0.0074358 -0.000583756 0.00490956 0.00164 0.000522443 -0.0123451 0.000707177 2650 
42 1 -0.008546 -0.00236971 0.006756 0.001058 0 -0.011755 0 2650 
97 1 -0.0130101 -0.0010007 0.00756124 0.00164 -0.012849 0.0048298 -0.0361238 2650 
235 1 -0.001066 -0.00108671 0.007831 0.000291 0 -0.011755 0 2650 
64 1 -0.001837 -0.000661712 0.007035 0.000105 0 -0.011755 0 2650 
111 1 -0.009474 -0.00101671 0.008964 0.000291 0 -0.011755 0 2650 
84 1 -0.0666851 -0.0205349 0.0130558 0.001058 0.926 0.0163141 4.91456 2650 
5 1 -0.0672498 -0.0158719 0.014094 0.000291 0.880875 0.260196 4.26095 2650 
236 1 -0.0642524 -0.0398541 0.0221356 0.001058 2.05278 -0.16474 5.95997 2650 
69 1 -0.0655804 -0.0160364 0.0205761 0.000291 1.36833 -0.20548 4.52916 2650 
230 1 -0.0620991 -0.0270011 0.0275626 0.001058 2.72726 -0.0375168 6.10235 2650 
63 1 -0.0420658 -0.00563856 0.0264907 0.000291 -6.25318 -0.235363 3.96166 2650 
165 1 -0.0544597 -0.0281307 0.0418919 0.000291 3.35482 0.110009 4.32409 2650 
2 1 -0.0484857 -0.0111388 0.0475997 0.001058 2.42055 -0.28489 2.44754 2650 
297 1 -0.0475297 -0.0315582 0.0496174 0.000291 3.29163 0.26183 3.10028 2650 
169 1 -0.0431079 -0.0485 0.0517717 0.00164 6.58108 0.0356426 5.46551 2650 
22 1 -0.0390381 -0.0207216 0.0565517 0.000291 4.10943 -0.218227 2.78568 2650 
119 1 -0.0294885 -0.0417173 0.0620772 0.000291 5.57711 -0.3189 2.64784 2650 
26 1 -0.017201 -0.0351291 0.0657277 0.001058 4.70555 -0.022962 1.16154 2650 
221 1 -0.0199754 -0.0179891 0.0657614 0.000291 3.71086 -0.113499 1.09696 2650 
23 1 -0.0211464 -0.0151273 0.065396 0.000291 3.38073 -0.268952 1.10935 2650 
188 1 -0.0155449 -0.0597043 0.066139 0.001058 4.65264 -0.248992 1.14973 2650 
146 1 -0.00609053 -0.043876 0.0676676 0.001058 6.62469 -0.168617 0.744726 2650 
93 1 -0.017668 -0.0381528 0.0663953 0.000291 3.34766 -0.398376 0.908617 2650 
193 1 -0.00145101 -0.0296345 0.0673364 0.00164 6.32225 0.0644369 0.0863459 2650 
257 1 -0.0088446 -0.0190332 0.0673557 0.001058 3.43859 -0.511935 0.56003 2650 
109 1 -0.00480724 -0.0599487 0.0685329 0.000291 4.68782 0.332094 0.313548 2650 
290 1 -0.00480168 -0.0436222 0.0684975 0.000291 6.81788 -0.0799634 0.544925 2650 
21 1 -0.00420627 -0.0394467 0.0685396 0.000291 6.57643 -0.424739 0.439846 2650 
32 1 -0.00407656 0.00258895 -0.0159424 0.000105 0.0177891 -0.0340422 0.0104261 2650 
85 1 -0.003548 0.00391329 -0.015444 0.000291 0 -0.011755 0 2650 
70 1 -0.002345 0.00571529 -0.015511 0.000291 0 -0.011755 0 2650 
295 1 -0.006507 0.000430288 -0.01264 0.000291 0 -0.011755 0 2650 
17 1 -0.00528977 0.00296969 -0.0135897 0.00164 -0.0321814 0.00517807 0.00502007 2650 
115 1 -0.009032 0.00576229 -0.012506 0.001058 0 -0.011755 0 2650 
33 1 -0.003866 0.00877829 -0.012959 0.00164 0 -0.011755 0 2650 
292 1 -0.00178596 0.00377604 -0.0111748 0.001058 -0.0111331 0.0154475 0.0498767 2650 
198 1 -0.01006 0.00505929 -0.011926 0.000291 0 -0.011755 0 2650 
234 1 -0.003052 0.00515629 -0.010232 0.000291 0 -0.011755 0 2650 
47 1 -0.011528 0.00636329 -0.010748 0.000291 0 -0.011755 0 2650 
94 1 -0.011581 0.0108403 -0.01188 0.000291 0 -0.011755 0 2650 
108 1 -0.007031 0.00111929 -0.009032 0.001058 0 -0.011755 0 2650 
273 1 -0.00110109 0.00552644 -0.00991088 0.001058 0.0109947 0.038733 0.0414521 2650 
175 1 -0.013247 0.00640329 -0.008751 0.000291 0 -0.011755 0 2650 
41 1 -0.00980311 0.00976113 -0.00974456 0.00164 0.0102024 0.0086064 0.0210327 2650 
144 1 -0.011054 0.0109613 -0.008779 0.000105 0 -0.011755 0 2650 
136 1 -0.0142486 0.0350603 -0.00856613 0.000105 -0.0729053 0.12081 -0.0484832 2650 
203 1 -0.00515015 0.000966083 -0.00612338 0.001058 0.00519762 -0.0130265 -0.00216702 2650 
250 1 -0.013194 0.00205629 -0.006197 0.001058 0 -0.011755 0 2650 
220 1 -0.0122469 0.0146735 -0.00769084 0.000291 -0.0258814 0.00931039 0.00803739 2650 
57 1 -0.00452773 0.0148081 -0.00660507 0.00164 0.0230994 0.0154402 0.0436737 2650 
54 1 -0.00664073 0.0188138 -0.00791665 0.000291 -0.10531 0.0409555 0.046421 2650 
76 1 -0.00312561 0.00147081 -0.00570211 0.001058 0.00563223 -0.0106236 0.000699054 2650 
157 1 -0.010185 0.0029929 -0.00548427 0.000291 0.0944744 -0.0500088 -0.124777 2650 
240 1 -0.010392 0.00700529 -0.005262 0.000291 0 -0.011755 0 2650 
276 1 -0.013674 0.00794729 -0.004231 0.000291 0 -0.011755 0 2650 
74 1 -0.012237 0.00834529 -0.004721 0.001058 0 -0.011755 0 2650 
159 1 -0.012707 0.0109413 -0.00588 0.000291 0 -0.011755 0 2650 
256 1 -0.0122179 0.010947 -0.00461232 0.000291 -0.0123982 -0.000129637 -0.00545733 2650 
187 1 -0.0113844 0.0120035 -0.0058533 0.001058 -0.0112156 -0.0033076 -0.00319333 2650 
270 1 -0.00395537 0.00140995 -0.00331688 0.000291 0.0186853 -0.00788795 0.00123148 2650 
211 1 -0.013621 0.00268729 -0.002856 0.001058 0 -0.011755 0 2650 
274 1 -0.016349 0.00481229 -0.002509 0.000291 0 -0.011755 0 2650 
114 1 -0.0128692 0.00540849 -0.00242186 0.001058 -8.19621e-05 -0.00937203 -0.000762299 2650 
13 1 -0.014201 0.00704729 -0.003882 0.000291 0 -0.011755 0 2650 
104 1 -0.014089 0.00772929 -0.003012 0.000105 0 -0.011755 0 2650 
65 1 -0.00934296 0.0117756 -0.00251382 0.00164 -0.00348018 0.0119066 0.00345508 2650 
7 1 -0.00799626 0.0138768 -0.00300782 0.000291 0.00378858 0.0136367 -0.000251809 2650 
91 1 -0.00572674 0.0398452 -0.00303514 0.001058 -0.0201117 0.131078 0.100392 2650 
135 1 -0.00390455 0.000156085 -0.00173449 0.000291 -0.0060505 -0.00140209 -0.0140303 2650 
127 1 -0.00906365 0.00511438 -0.000955093 0.000291 -0.00885864 0.0707893 -0.0549482 2650 
10 1 -0.0128595 0.00845118 -0.000727124 0.001058 -0.00603352 -0.00346171 -0.00631144 2650 
61 1 -0.016439 0.0106593 -0.001038 0.000291 0 -0.011755 0 2650 
14 1 -0.006378 0.00175429 0.001478 0.000291 0 -0.011755 0 2650 
223 1 -0.000134937 0.00183214 0.00128283 0.001058 0.0415501 -0.0223204 0.0172409 2650 
191 1 -0.0108 0.00308629 0.001549 0.000291 0 -0.011755 0 2650 
296 1 -0.005879 0.00223229 0.000521 0.000291 0 -0.011755 0 2650 
168 1 -0.007536 0.00409729 0.001389 0.000105 0 -0.011755 0 2650 
120 1 -0.016055 0.00629929 0.000189 0.000105 0 -0.011755 0 2650 
209 1 -0.0117527 0.00691887 0.000239711 0.001058 -0.0064627 -0.0091641 -0.00792348 2650 
80 1 -0.014935 0.00899729 0.00039 0.000105 0 -0.011755 0 2650 
268 1 -0.011054 0.00952129 0.000789 0.000291 0 -0.011755 0 2650 
129 1 -0.008713 0.00933529 0.001908 0.00164 0 -0.011755 0 2650 
124 1 -0.015489 0.00292662 0.00324604 0.001058 -0.0598057 0.00342223 -0.012574 2650 
18 1 -0.005138 0.00329129 0.00212 0.001058 0 -0.011755 0 2650 
52 1 -0.0136345 0.00401509 0.00298449 0.001058 -0.0373661 -0.0126101 0.000545751 2650 
75 1 -0.00995617 0.00572873 0.00321092 0.001058 -0.0378696 0.0757882 -0.0227861 2650 
176 1 -0.003983 0.00763629 0.002552 0.000105 0 -0.011755 0 2650 
106 1 -0.0136347 0.00305311 0.00561067 0.001058 -0.024784 0.0619193 0.00707932 2650 
58 1 -0.0101673 0.00347678 0.00574485 0.001058 -0.0110314 -0.00690385 0.0214168 2650 
28 1 -0.013611 0.00563429 0.005538 0.001058 0 -0.011755 0 2650 
170 1 -0.01149 0.00576929 0.005193 0.001058 0 -0.011755 0 2650 
53 1 -0.000389 0.00437429 0.004762 0.000291 0 -0.011755 0 2650 
238 1 -0.00910985 0.00697448 0.00506051 0.001058 0.0105136 0.0371874 0.0344704 2650 
164 1 -0.003894 0.00667229 0.005467 0.001058 0 -0.011755 0 2650 
291 1 -0.008194 0.0110463 0.004767 0.000291 0 -0.011755 0 2650 
242 1 -0.00536264 0.0100375 0.00401348 0.000291 -0.00954886 0.00781474 0.00295974 2650 
266 1 -0.0139971 0.00153218 0.00730985 0.001058 -0.000871947 0.0202016 0.000401154 2650 
302 1 -0.0100986 0.000352216 0.00712391 0.000291 -0.0143061 -0.0317005 0.0405115 2650 
182 1 -0.00662318 0.000572955 0.00768864 0.000291 0.0217981 -0.0387291 0.0547789 2650 
254 1 -0.0056054 0.00171899 0.00742118 0.000291 0.0485398 -0.0270077 0.0413731 2650 
195 1 -0.00692708 0.00230391 0.00693117 0.001058 0.0276719 -0.00542138 0.0638167 2650 
98 1 -0.001703 0.00423529 0.00616 0.001058 0 -0.011755 0 2650 
77 1 -0.0149188 0.00973519 0.00659259 0.000291 -0.0659618 0.0071766 0.0150346 2650 
186 1 -0.006177 0.00898829 0.006545 0.001058 0 -0.011755 0 2650 
11 1 -0.00852955 0.0375503 0.00701414 0.001058 0.0558568 0.128502 0.0118077 2650 
44 1 -0.007195 0.00112529 0.008791 0.001058 0 -0.011755 0 2650 
35 1 -0.00151651 0.00492416 0.00863723 0.001058 0.00566878 -0.0134862 -0.0195208 2650 
4 1 -0.013492 0.0102063 0.008313 0.001058 0 -0.011755 0 2650 
304 1 -0.012709 0.0103273 0.009818 0.000291 0 -0.011755 0 2650 
233 1 -0.001796 0.00167129 0.010436 0.000291 0 -0.011755 0 2650 
202 1 -0.00152732 0.00579294 0.011363 0.001058 0.00953014 -0.00871599 -0.0138173 2650 
299 1 -0.010562 0.00876829 0.010709 0.001058 0 -0.011755 0 2650 
55 1 -0.01171 0.0107953 0.01034 0.000291 0 -0.011755 0 2650 
68 1 -0.00442796 0.0107058 0.0106739 0.001058 0.00272783 -0.00342387 -0.00169301 2650 
245 1 -0.00619414 0.0272692 0.0112817 0.001058 -0.00877598 0.0648343 0.053396 2650 
226 1 -0.009224 0.00264329 0.012787 0.000291 0 -0.011755 0 2650 
29 1 -0.00606334 0.00369647 0.0139897 0.000291 -0.0115686 -0.040115 -0.0168616 2650 
300 1 -0.00982253 0.00563986 0.012344 0.001058 -0.00517848 -0.00941929 -0.00460978 2650 
251 1 -0.00651645 0.00479951 0.0123517 0.001058 -0.0165425 -0.0287939 0.0166856 2650 
224 1 -0.00597577 0.00971401 0.0127782 0.001058 -0.00376938 0.00554818 0.00221201 2650 
153 1 -0.00250245 0.00902539 0.0127215 0.00164 0.00905326 -0.00368908 -0.0193072 2650 
249 1 -0.00665577 0.0116102 0.0135409 0.000291 0.00987628 0.0185258 -0.0129358 2650 
217 1 -0.00947766 0.0130702 0.0121278 0.001058 -0.0106168 0.0279099 0.00374771 2650 
285 1 -0.0070544 0.00662176 0.0142522 0.001058 -0.00854577 -0.0134594 -0.00478927 2650 
265 1 -0.000465 0.00729929 0.015551 0.001058 0 -0.011755 0 2650 
71 1 -0.00170445 0.010047 0.0153108 0.000291 0.000589182 -0.00997669 -0.026696 2650 
229 1 0.0136515 -0.0523848 -0.0665717 0.001058 -4.65538 0.28491 -0.954247 2650 
152 1 0.0171777 -0.0166139 -0.0667309 0.000105 -4.25341 -0.270968 -1.13022 2650 
90 1 0.0246231 -0.0576415 -0.0633219 0.001058 -4.52161 0.134073 -1.71924 2650 
179 1 0.0269891 -0.0461352 -0.0623835 0.001058 -3.99688 -0.0599573 -1.74686 2650 
73 1 0.0517851 -0.0343115 -0.0430915 0.00164 -3.05913 -0.360847 -3.46092 2650 
172 1 0.0529761 -0.0297387 -0.0425468 0.001058 -2.83807 -0.557187 -3.50395 2650 
239 1 0.0524461 -0.027164 -0.0431862 0.001058 -2.82489 -0.360087 -3.31712 2650 
288 1 0.0575761 -0.0219696 -0.037498 0.000291 -1.88377 -0.640744 -2.80847 2650 
34 1 0.0578052 -0.0206587 -0.0357354 0.001058 -3.42053 -0.570005 -5.48655 2650 
36 1 0.0612666 -0.0118479 -0.0294228 0.001058 -2.35051 0.179897 -4.8593 2650 
281 1 0.0632502 -0.0235241 -0.0268507 0.000291 -2.3481 0.400106 -5.61774 2650 
62 1 0.0450511 -0.00824012 -0.0280879 0.000291 7.01315 -0.352451 -4.33442 2650 
155 1 0.005921 -0.00143371 -0.01427 0.001058 0 -0.011755 0 2650 
83 1 0.007342 -0.00230171 -0.011981 0.001058 0 -0.011755 0 2650 
141 1 0.004693 -0.00147871 -0.010381 0.000291 0 -0.011755 0 2650 
162 1 0.010619 -0.00260771 -0.009864 0.001058 0 -0.011755 0 2650 
213 1 0.001757 -0.000641712 -0.008127 0.000291 0 -0.011755 0 2650 
40 1 0.002884 -0.00239571 -0.006462 0.000105 0 -0.011755 0 2650 
185 1 0.00703875 -0.00290135 -0.00693705 0.00164 0.00205788 -0.0105388 -0.00333278 2650 
39 1 0.00911823 -0.00315981 -0.00755518 0.000291 -0.136576 -0.0467221 -0.157349 2650 
30 1 0.005625 -0.000963712 -0.00604 0.000291 0 -0.011755 0 2650 
87 1 0.00790517 -0.000646709 -0.00710568 0.000291 -0.217783 0.0927245 -0.141745 2650 
16 1 0.006364 -0.00226771 -0.005251 0.000105 0 -0.011755 0 2650 
20 1 0.00892597 -0.00300728 -0.00453137 0.001058 -0.215567 -0.0455215 -0.00272996 2650 
197 1 0.007512 -0.000825712 -0.004043 0.000291 0 -0.011755 0 2650 
8 1 0.000989 -0.00254271 -0.00369 0.000105 0 -0.011755 0 2650 
173 1 0.002644 -0.00131871 -0.002982 0.000291 0 -0.011755 0 2650 
248 1 0.008036 -0.00267371 -0.000368 0.000291 0 -0.011755 0 2650 
6 1 0.004141 -0.000392712 -0.001643 0.000291 0 -0.011755 0 2650 
72 1 0.013289 -0.00163871 -0.000624 0.000105 0 -0.011755 0 2650 
255 1 0.005303 -0.00237071 0.000727 0.000291 0 -0.011755 0 2650 
56 1 0.00459 -0.00161371 0.000864 0.000105 0 -0.011755 0 2650 
121 1 0.0137804 -0.00300787 0.00322246 0.00164 0.00767567 -0.00861079 0.00323778 2650 
264 1 0.003305 -0.000408712 0.003449 0.001058 0 -0.011755 0 2650 
184 1 0.0164564 -0.00155112 0.00284124 0.000105 -0.00950116 -0.0133865 -0.110583 2650 
247 1 0.001401 -0.00252171 0.005706 0.000291 0 -0.011755 0 2650 
267 1 0.007574 -0.000187712 0.005778 0.000291 0 -0.011755 0 2650 
118 1 0.001179 -2.27115e-05 0.007467 0.000291 0 -0.011755 0 2650 
204 1 0.000465839 -0.00197477 0.00889699 0.001058 0.0215412 -0.00565475 -0.0189703 2650 
38 1 0.000473789 -1.91865e-05 0.00972864 0.000291 0.0118017 0.00597392 -0.00431351 2650 
243 1 0.01084 -0.00195371 0.008454 0.001058 0 -0.011755 0 2650 
89 1 0.064616 -0.058465 0.0190324 0.00164 1.36604 -0.340675 -4.85198 2650 
181 1 0.0657824 -0.0103726 0.0198909 0.000291 0.911745 -0.357286 -3.04703 2650 
192 1 0.0536833 -0.00052717 0.0431802 0.000105 2.63869 -0.00632524 -3.2217 2650 
283 1 0.0522966 -0.0186325 0.0445652 0.000291 3.10342 0.275931 -3.64248 2650 
215 1 0.0414569 -0.0296145 0.0538317 0.001058 5.26932 0.165498 -4.08735 2650 
133 1 0.0257849 -0.0129128 0.0637118 0.000291 4.43299 -0.196052 -1.81244 2650 
86 1 0.0278645 -0.0038814 0.0627997 0.000291 3.9322 -0.138783 -1.73964 2650 
151 1 0.0220432 -0.0115347 0.0650966 0.000291 4.32087 -0.0434147 -1.43687 2650 
46 1 0.007499 0.00177029 -0.014091 0.000291 0 -0.011755 0 2650 
303 1 0.001598 0.00233329 -0.015917 0.000291 0 -0.011755 0 2650 
160 1 0.004468 0.00345629 -0.014641 0.000105 0 -0.011755 0 2650 
130 1 1.4e-05 0.00442429 -0.015674 0.001058 0 -0.011755 0 2650 
269 1 0.002277 0.00459729 -0.015181 0.000291 0 -0.011755 0 2650 
37 1 0.006156 0.0103593 -0.015157 0.000291 0 -0.011755 0 2650 
139 1 0.00384964 0.0145996 -0.0146181 0.001058 0.0127696 0.00849352 0.0230521 2650 
237 1 0.005321 0.00103329 -0.012467 0.001058 0 -0.011755 0 2650 
263 1 0.006877 0.00385329 -0.012319 0.000291 0 -0.011755 0 2650 
289 1 0.001465 0.00502029 -0.012477 0.000291 0 -0.011755 0 2650 
142 1 0.002378 0.00543529 -0.013184 0.000291 0 -0.011755 0 2650 
252 1 0.00245 0.00873029 -0.01336 0.001058 0 -0.011755 0 2650 
78 1 0.001258 0.0103453 -0.012517 0.000291 0 -0.011755 0 2650 
196 1 0.002599 0.00232629 -0.011929 0.001058 0 -0.011755 0 2650 
201 1 0.008831 0.00384929 -0.010349 0.00164 0 -0.011755 0 2650 
105 1 0.003632 0.00901329 -0.010703 0.00164 0 -0.011755 0 2650 
275 1 0.012705 0.00809229 -0.010476 0.000291 0 -0.011755 0 2650 
110 1 0.010451 0.0106363 -0.010748 0.000291 0 -0.011755 0 2650 
259 1 0.006357 0.000287288 -0.00938 0.001058 0 -0.011755 0 2650 
67 1 0.00898 0.00172129 -0.006049 0.001058 0 -0.011755 0 2650 
102 1 0.003423 0.00375829 -0.006065 0.000291 0 -0.011755 0 2650 
134 1 0.011983 0.00377229 -0.006239 0.000291 0 -0.011755 0 2650 
117 1 0.004754 0.00402029 -0.007063 0.000291 0 -0.011755 0 2650 
60 1 0.007579 0.00666129 -0.006312 0.001058 0 -0.011755 0 2650 
45 1 0.010575 0.00658129 -0.007722 0.000291 0 -0.011755 0 2650 
271 1 0.001328 0.00848529 -0.00636 0.001058 0 -0.011755 0 2650 
178 1 0.003641 0.000840288 -0.005569 0.001058 0 -0.011755 0 2650 
260 1 0.010685 0.00136829 -0.004932 0.000291 0 -0.011755 0 2650 
92 1 0.00994129 0.000126965 -0.00462429 0.001058 -0.0442994 0.0631559 -0.00579147 2650 
161 1 0.013129 0.00145129 -0.005759 0.00164 0 -0.011755 0 2650 
246 1 0.001376 0.00325929 -0.005453 0.001058 0 -0.011755 0 2650 
279 1 0.011818 0.00571529 -0.00556 0.001058 0 -0.011755 0 2650 
199 1 0.014464 0.00707229 -0.004562 0.000291 0 -0.011755 0 2650 
278 1 7.4e-05 0.00917229 -0.004448 0.001058 0 -0.011755 0 2650 
19 1 0.013799 0.00824429 -0.005439 0.001058 0 -0.011755 0 2650 
284 1 0.014191 0.00995229 -0.005949 0.000291 0 -0.011755 0 2650 
171 1 0.000459 0.000175288 -0.002783 0.001058 0 -0.011755 0 2650 
88 1 0.002864 0.00188529 -0.002457 0.000105 0 -0.011755 0 2650 
177 1 0.007332 0.00175129 -0.003583 0.00164 0 -0.011755 0 2650 
205 1 0.005264 0.00225429 -0.002386 0.000291 0 -0.011755 0 2650 
253 1 0.014729 0.00543029 -0.002617 0.000291 0 -0.011755 0 2650 
227 1 0.00944 0.00725929 -0.002109 0.000291 0 -0.011755 0 2650 
113 1 0.010337 0.00488529 -0.001708 0.00164 0 -0.011755 0 2650 
190 1 0.005899 0.00996129 -0.000534 0.000291 0 -0.011755 0 2650 
183 1 0.01481 0.000248288 0.000242 0.000291 0 -0.011755 0 2650 
277 1 0.015014 0.000626288 0.001212 0.000291 0 -0.011755 0 2650 
81 1 0.007451 0.00337829 7.8e-05 0.00164 0 -0.011755 0 2650 
96 1 0.009869 0.00201529 0.000788 0.000105 0 -0.011755 0 2650 
261 1 0.011218 0.00355429 0.000328 0.000291 0 -0.011755 0 2650 
48 1 0.009671 0.00785329 0.000233 0.000105 0 -0.011755 0 2650 
128 1 0.00361 0.00956029 0.000511 0.000105 0 -0.011755 0 2650 
9 1 0.012984 0.00959829 0.000468 0.00164 0 -0.011755 0 2650 
286 1 0.015584 0.0102663 0.000132 0.001058 0 -0.011755 0 2650 
225 1 0.001446 0.000445288 0.002203 0.001058 0 -0.011755 0 2650 
143 1 0.013105 0.000715288 0.003332 0.000291 0 -0.011755 0 2650 
210 1 0.010971 0.00270829 0.002357 0.001058 0 -0.011755 0 2650 
294 1 0.006997 0.00756729 0.003581 0.001058 0 -0.011755 0 2650 
101 1 0.004812 0.00828329 0.002517 0.000291 0 -0.011755 0 2650 
50 1 0.006699 0.00179529 0.005883 0.001058 0 -0.011755 0 2650 
305 1 0.007934 0.000554288 0.005234 0.000105 0 -0.011755 0 2650 
150 1 0.010064 0.00189629 0.004311 0.000291 0 -0.011755 0 2650 
147 1 0.0144808 0.0018162 0.00403576 0.001058 0.0509795 0.0185854 -0.09886 2650 
24 1 0.005464 0.00764929 0.005551 0.000105 0 -0.011755 0 2650 
212 1 0.001087 0.00807729 0.005915 0.000291 0 -0.011755 0 2650 
51 1 0.009662 0.00872229 0.004577 0.001058 0 -0.011755 0 2650 
244 1 0.014869 0.00813529 0.00421 0.001058 0 -0.011755 0 2650 
79 1 0.014214 0.0105623 0.005058 0.000291 0 -0.011755 0 2650 
154 1 0.00124743 0.0143576 0.00566472 0.001058 0.00678339 0.101014 -0.0544466 2650 
174 1 0.002361 0.00154829 0.006466 0.000291 0 -0.011755 0 2650 
207 1 0.000324 0.00323429 0.006532 0.000291 0 -0.011755 0 2650 
232 1 0.003256 0.00254629 0.007333 0.001058 0 -0.011755 0 2650 
208 1 0.009461 0.00391029 0.007837 0.001058 0 -0.011755 0 2650 
231 1 0.006459 0.00727429 0.007445 0.001058 0 -0.011755 0 2650 
222 1 0.009219 0.00992129 0.006833 0.001058 0 -0.011755 0 2650 
112 1 0.013668 0.0108853 0.007002 0.000105 0 -0.011755 0 2650 
1 1 0.00306019 0.000197635 0.00904843 0.00164 0.00775899 -0.0148356 -0.00837378 2650 
145 1 0.00389883 0.00889173 0.00863122 0.00164 0.000993456 -0.0124671 3.24591e-05 2650 
194 1 0.007709 0.00805329 0.009989 0.001058 0 -0.011755 0 2650 
228 1 0.010294 0.00105729 0.01009 0.000291 0 -0.011755 0 2650 
103 1 0.005979 0.00425229 0.01127 0.000291 0 -0.011755 0 2650 
258 1 0.009255 0.00534329 0.010506 0.001058 0 -0.011755 0 2650 
100 1 0.00221136 0.00627177 0.0119099 0.001058 0.019732 -0.0136041 -0.00483564 2650 
66 1 0.00282563 0.00894456 0.0111588 0.001058 0.011735 -0.000552111 -0.00567232 2650 
298 1 0.003892 0.00916441 0.0118094 0.000105 0.012752 -0.00608362 0.00360111 2650 
287 1 0.00666809 0.00381924 0.0130758 0.001058 0.00698186 -0.000281005 -0.0099686 2650 
95 1 0.006942 0.00569929 0.013027 0.000291 0 -0.011755 0 2650 
82 1 0.000755 0.00322129 0.014898 0.001058 0 -0.011755 0 2650 
3 1 0.00605001 0.00217547 0.0143852 0.001058 0.0142352 -0.00932944 -0.0092621 2650 
126 1 0.00132283 0.00930884 0.0153731 0.000291 -0.00909177 -0.0182309 -0.0255133 2650 
156 1 0.000644894 0.0119988 0.0149207 0.001058 0.00957299 -0.000303602 -0.00985815 2650 
301 1 0.00455835 0.0149941 0.0142356 0.001058 0.00272587 0.0220862 -0.0290146 2650 
