ITEM: TIMESTEP
17904411
ITEM: NUMBER OF ATOMS
269
ITEM: BOX BOUNDS ff ff ff
-0.15 0.15
-0.15 0.15
-0.15 0.15
ITEM: ATOMS id type x y z radius vx vy vz density 
228 1 -0.00268774 -0.00573009 -0.0686545 0.000291 -8.75269 -0.493456 0.344414 2650 
138 1 -0.00814472 -0.0548105 -0.0674579 0.001058 -10.6422 -0.022168 1.28423 2650 
93 1 -0.019112 -0.0495918 -0.0660169 0.000291 -10.3539 0.0854101 2.99773 2650 
146 1 -0.00996924 -0.0488683 -0.0672192 0.001058 -10.5569 -0.00887147 1.56558 2650 
186 1 -0.0135275 -0.0206411 -0.0665949 0.001058 -7.33916 0.168553 1.51999 2650 
87 1 -0.0109249 -0.00963918 -0.067841 0.000291 -4.0364 -0.310556 0.648293 2650 
289 1 -0.0228896 -0.0307219 -0.064803 0.000291 -8.36218 -0.024697 2.9472 2650 
179 1 -0.0287342 -0.0498107 -0.0615954 0.001058 -9.64981 0.0617598 4.50145 2650 
49 1 -0.0307307 -0.0489809 -0.0599817 0.00164 -9.41788 -0.00963495 4.82509 2650 
59 1 -0.0283988 -0.0465906 -0.0617564 0.001058 -9.74025 0.0272747 4.47745 2650 
125 1 -0.0326847 -0.031436 -0.060437 0.000291 -7.74664 -0.466568 4.20946 2650 
257 1 -0.0340386 -0.0483337 -0.0588309 0.001058 -9.23984 -0.0578298 5.34625 2650 
165 1 -0.0337019 -0.0462454 -0.0599013 0.000291 -9.58786 -0.21 5.39369 2650 
122 1 -0.0333282 -0.0289693 -0.0592086 0.001058 -7.61847 -0.0808659 4.2897 2650 
37 1 -0.0363714 -0.0118105 -0.0583103 0.000291 -2.67468 -0.282108 1.72697 2650 
104 1 -0.035878 -0.0009833 -0.058811 0.000105 -6.98804 0.0304807 4.2678 2650 
278 1 -0.0410676 -0.0300974 -0.0541317 0.001058 -7.02486 -0.060206 5.31665 2650 
100 1 -0.0520848 -0.0166428 -0.0436141 0.001058 -6.34867 -0.0513327 7.54909 2650 
39 1 -0.0553733 -0.0331453 -0.0406754 0.000291 -6.41408 0.107288 8.73207 2650 
78 1 -0.0565991 -0.0432578 -0.0389493 0.000291 -2.01431 -1.15923 3.14278 2650 
171 1 -0.0630612 -0.0491391 -0.0253625 0.001058 -3.96341 -0.017237 9.85427 2650 
90 1 -0.0639265 -0.0498979 -0.0230912 0.001058 -3.62908 0.0230068 10.0465 2650 
21 1 -0.0649552 -0.0463075 -0.0224729 0.000291 -3.52919 0.0672351 10.2014 2650 
175 1 -0.0648438 -0.0136375 -0.0227893 0.000291 -3.03243 0.182968 8.62811 2650 
96 1 -0.0653622 -0.0100742 -0.021824 0.000105 -2.63608 0.178989 7.93801 2650 
225 1 -0.065413 -0.0450016 -0.0184646 0.001058 -2.90094 0.00134988 10.2767 2650 
117 1 -0.0661721 -0.014972 -0.0185795 0.000291 -2.47516 0.0457641 8.82521 2650 
22 1 -0.0675552 -0.0241399 -0.0125507 0.000291 -1.64885 -0.0880892 8.86062 2650 
94 1 -0.0115047 -0.00325093 -0.0118037 0.000291 8.5498e-05 -0.0117385 8.5498e-05 2650 
135 1 -0.00801995 -0.0019452 -0.0117091 0.000291 0.00330025 -0.00264717 0.00636962 2650 
159 1 -0.012707 -0.00316462 -0.00588 0.000291 0 -0.011755 0 2650 
190 1 -0.0686231 -0.0012188 -0.0034214 0.000291 -0.383425 -0.222321 7.26849 2650 
58 1 -0.00978937 -0.00193983 -0.00275528 0.001058 0.020455 0.00490158 -0.0306807 2650 
227 1 -0.0687078 -0.0442358 -0.000482103 0.000291 -0.0764061 -0.114308 10.9131 2650 
61 1 -0.0395629 -0.00539834 -0.00181401 0.000291 -5.6378 -0.233977 -0.241456 2650 
102 1 -0.068631 -0.017397 0.00225181 0.000291 0.286052 0.0812429 9.1613 2650 
132 1 -0.0677172 -0.0151481 0.00555591 0.001058 0.645918 -0.023195 8.50823 2650 
64 1 -0.0687015 -0.0121773 0.00449209 0.000105 0.59199 0.198657 8.52999 2650 
291 1 -0.008194 -0.00305962 0.004767 0.000291 0 -0.011755 0 2650 
110 1 -0.00287775 -0.0033012 0.00700201 0.000291 -0.0135348 -0.00920175 -0.000854498 2650 
252 1 -0.0674197 -0.0157121 0.00827618 0.001058 1.06964 -0.0734312 8.46758 2650 
55 1 -0.011828 -0.00331311 0.0104442 0.000291 -0.261836 -0.0172717 0.231203 2650 
250 1 -0.00227529 -0.000742815 0.0155408 0.001058 0.0161046 -0.00542442 -0.00110725 2650 
208 1 -0.0657124 -0.0222365 0.0173045 0.001058 2.48597 0.158176 9.46822 2650 
88 1 -0.0650883 -0.0201415 0.0226292 0.000105 2.81725 0.135397 8.12462 2650 
200 1 -0.0630598 -0.0119973 0.0277982 0.000105 3.72923 -0.145018 8.44933 2650 
107 1 -0.0589211 -0.0474418 0.0338846 0.001058 5.22811 0.0100648 9.09686 2650 
24 1 -0.0572629 -0.00590584 0.0383089 0.000105 5.2358 -1.01137 7.826 2650 
76 1 -0.0507518 -0.0370954 0.0451473 0.001058 6.91556 0.135363 7.77857 2650 
85 1 -0.052384 -0.00665257 0.0444597 0.000291 2.73265 0.173112 3.25381 2650 
268 1 -0.0514297 -0.0024388 0.0455601 0.000291 5.20806 -0.455988 5.86234 2650 
219 1 -0.0517688 -0.000290952 0.0451749 0.000291 5.18451 -0.00297516 5.94744 2650 
169 1 -0.0461022 -0.0611601 0.0491311 0.00164 7.71744 4.57205e-07 7.24166 2650 
246 1 -0.0463897 -0.0585276 0.0496473 0.001058 7.79878 -1.66623e-05 7.28706 2650 
206 1 -0.0466633 -0.062509 0.0504337 0.000291 7.92208 1.86287e-09 7.32982 2650 
25 1 -0.0438436 -0.0587997 0.0511548 0.00164 8.0354 8.56199e-05 6.88696 2650 
14 1 -0.0451955 -0.0402979 0.0517512 0.000291 7.30896 0.0931995 6.38592 2650 
178 1 -0.0432981 -0.0564513 0.0523657 0.001058 8.22558 0.000104662 6.80125 2650 
164 1 -0.0387173 -0.0423233 0.0558527 0.001058 8.43953 0.0311374 5.86737 2650 
174 1 -0.040163 -0.0185558 0.0557592 0.000291 6.8659 -0.229888 4.93779 2650 
103 1 -0.0292512 -0.0536312 0.0621795 0.000291 9.39518 -0.0841153 4.42014 2650 
30 1 -0.0257843 -0.0310522 0.0636934 0.000291 9.68389 -0.032679 3.90388 2650 
137 1 -0.0164925 -0.0611601 0.0653232 0.00164 10.2605 -8.16431e-07 2.59051 2650 
45 1 -0.0219515 -0.0212395 0.0651197 0.000291 8.65688 -0.0649672 2.9219 2650 
46 1 -0.0211126 -0.0187049 0.0654041 0.000291 8.71756 0.160501 2.8114 2650 
296 1 -0.0236463 -0.010331 0.0645291 0.000291 7.89427 -0.0158103 2.9023 2650 
226 1 -0.0160316 -0.0539334 0.0668152 0.000291 10.2898 0.317523 2.46722 2650 
44 1 -0.0038067 -0.0316513 0.0678388 0.001058 9.7484 -0.342755 0.531914 2650 
207 1 -0.0156477 -0.0152038 0.0669161 0.000291 8.86711 0.0499108 2.1051 2650 
6 1 -0.0106269 -0.00377266 0.0678765 0.000291 8.02351 -0.185103 1.25172 2650 
126 1 -0.000351125 -0.0345354 0.0687073 0.000291 10.1848 -0.550761 0.0540491 2650 
269 1 -0.00844943 -0.0131997 0.0681803 0.000291 9.60285 -0.0484215 1.20529 2650 
15 1 -0.00319105 -0.00843708 0.0685888 0.000291 9.34388 0.0752324 0.426214 2650 
232 1 -0.000907314 0.0319646 -0.0155954 0.001058 -0.0291023 0.0299794 -0.00774462 2650 
134 1 -0.00227301 0.00669918 -0.0139485 0.000291 -0.0128132 0.00355392 -0.00692922 2650 
80 1 -0.010204 0.0167885 -0.0134438 0.000105 0.0200167 0.0220396 -0.007602 2650 
157 1 -0.00124915 0.0728443 -0.0137244 0.000291 0.0079085 0.0606548 0.000918149 2650 
74 1 -0.0103052 0.000371927 -0.0117932 0.001058 0.00552843 -0.00502923 -0.00272883 2650 
130 1 -0.00573738 0.00246224 -0.0113186 0.001058 -0.00692202 0.00347734 0.00595777 2650 
97 1 -0.00850797 0.00788012 -0.0117798 0.00164 0.0106628 0.00973926 -0.0203866 2650 
10 1 -0.0131162 0.00853156 -0.00819583 0.001058 0.0053433 0.0061558 -0.0070677 2650 
67 1 -0.0111255 0.0182814 -0.00955154 0.001058 -0.0104976 0.0129104 0.0114407 2650 
71 1 -0.000696297 0.00115801 -0.00636125 0.000291 0.000861808 -0.00718564 -0.0173142 2650 
114 1 -0.00261769 0.0101005 -0.00657466 0.001058 0.0187062 0.0117361 -0.00752779 2650 
205 1 -0.00783898 0.00253543 -0.00426052 0.000291 -0.00881861 0.00364628 0.0236275 2650 
198 1 -0.0164044 0.00846869 -0.00205745 0.000291 0.014641 -0.0177482 -0.0779762 2650 
129 1 -0.000345346 0.00906134 -0.00232179 0.00164 -0.00374589 0.0128173 -0.00288427 2650 
7 1 -0.00345 0.0302407 -0.00330999 0.000291 0.00378858 0.0136367 -0.000251809 2650 
234 1 -0.013064 0.0105792 -0.0017854 0.000291 -0.00131366 0.00431637 0.0126772 2650 
65 1 -0.0144258 0.0277895 -0.0011673 0.00164 -0.00447342 0.0138222 0.00034274 2650 
106 1 -0.000668524 0.0302736 0.00278017 0.001058 0.0119634 0.0223893 -0.0027555 2650 
209 1 -0.0146238 0.00633907 0.00471989 0.001058 0.00584419 -0.0188996 0.0174994 2650 
211 1 -0.0123631 0.0065656 0.00540474 0.001058 0.000982608 0.00314487 0.00709992 2650 
115 1 -0.014924 0.0168595 0.00489328 0.001058 0.00236141 0.0122312 0.0092361 2650 
256 1 -0.0158544 0.0206582 0.00447485 0.000291 0.000881351 0.0216623 0.00465977 2650 
187 1 -0.0147642 0.0259911 0.00561487 0.001058 0.00500069 0.0154788 0.0119088 2650 
244 1 -0.0144796 0.0139215 0.00626116 0.001058 0.0147268 0.0226051 0.0350285 2650 
220 1 -0.0136209 0.0263068 0.0067566 0.000291 0.00991537 0.0130183 0.0124552 2650 
217 1 -0.00926337 0.0450252 0.00604416 0.001058 0.000747792 0.0265619 -0.00553463 2650 
68 1 -0.00115459 0.0065972 0.00864229 0.001058 0.00272783 -0.00342387 -0.00169301 2650 
266 1 -0.0125932 0.0122953 0.00917116 0.001058 0.0170435 0.00901701 0.0432948 2650 
28 1 -0.00998048 0.0580606 0.00895474 0.001058 0.00734507 0.0503926 0.00344867 2650 
224 1 -0.0085982 0.0159177 0.0118206 0.001058 -0.00111942 0.00491513 -0.00282362 2650 
124 1 -0.00668803 0.0451633 0.0118538 0.001058 0.0225448 0.0380641 0.0162983 2650 
273 1 -0.00175668 0.05194 0.0119741 0.001058 0.00511 0.0387776 -0.00978519 2650 
299 1 -0.00635841 0.00180523 0.0126581 0.001058 0.00581403 -0.00322581 0.00124072 2650 
4 1 -0.00815779 0.00864172 0.0134933 0.001058 0.0064118 0.000915196 0.00341804 2650 
147 1 -0.00748014 0.0391563 0.0139261 0.001058 0.0275772 0.016189 0.0275411 2650 
116 1 -0.00375849 0.055217 0.0121834 0.001058 -0.0278213 0.0454338 0.0115295 2650 
144 1 -0.00397929 0.0219281 0.0151167 0.000105 0.0152864 0.0109644 -0.00695946 2650 
154 1 -0.0166234 0.127815 -0.000698144 0.001058 -0.025218 0.0914679 0.0181079 2650 
248 1 0.000608255 -0.021778 -0.0687069 0.000291 -10.5577 -0.326105 -0.0951166 2650 
247 1 0.0163764 -0.0509547 -0.0667442 0.000291 -10.3804 -0.0966398 -2.5462 2650 
141 1 0.0160798 -0.0387834 -0.0668067 0.000291 -10.069 -0.399894 -2.41745 2650 
294 1 0.0142376 -0.0273946 -0.066437 0.001058 -10.2664 -0.158904 -2.2015 2650 
236 1 0.0174487 -0.0616081 -0.065669 0.001058 -10.3401 0.0156443 -2.74681 2650 
253 1 0.021963 -0.0228835 -0.0651116 0.000291 -9.20625 0.215642 -3.10293 2650 
254 1 0.0294714 -0.0495686 -0.0620908 0.000291 -9.71865 0.0264473 -4.61312 2650 
29 1 0.0285784 -0.0149745 -0.0625107 0.000291 -6.56158 -0.234624 -3.00237 2650 
188 1 0.0306196 -0.061528 -0.0606566 0.001058 -9.64979 0.0381642 -4.8725 2650 
218 1 0.0279782 -0.0492025 -0.0619455 0.001058 -9.73459 -0.00394285 -4.39683 2650 
148 1 0.0326507 -0.0530679 -0.0596009 0.001058 -9.3378 0.0313033 -5.11694 2650 
35 1 0.0319542 -0.050877 -0.0599852 0.001058 -9.42483 -0.0135626 -5.0205 2650 
20 1 0.0367575 -0.0554359 -0.0571513 0.001058 -8.96275 -0.0210452 -5.76453 2650 
172 1 0.038269 -0.0541635 -0.0561533 0.001058 -8.79738 0.00450379 -5.99492 2650 
43 1 0.0354913 -0.0515355 -0.0579573 0.001058 -9.0137 0.0536612 -5.52018 2650 
42 1 0.0408217 -0.0546648 -0.0543213 0.001058 -8.5489 -0.08139 -6.42146 2650 
193 1 0.0380585 -0.0501104 -0.0556097 0.00164 -8.6956 0.0829198 -5.95147 2650 
81 1 0.041696 -0.0498972 -0.0529235 0.00164 -8.27502 0.0115133 -6.52088 2650 
162 1 0.0415779 -0.0473279 -0.0537511 0.001058 -8.47795 0.00283619 -6.55687 2650 
185 1 0.0448923 -0.0518735 -0.0502374 0.00164 -7.911 0.097211 -7.0735 2650 
34 1 0.04823 -0.030875 -0.0480552 0.001058 -7.54849 -2.12566e-08 -7.57595 2650 
118 1 0.0508325 -0.0169782 -0.0461627 0.000291 -6.28327 -0.183111 -6.92467 2650 
48 1 0.0523204 -0.0481416 -0.0447886 0.000105 -6.79261 -0.550203 -7.92297 2650 
212 1 0.0541047 -0.00389091 -0.0423405 0.000291 -4.59853 0.0106447 -5.89356 2650 
255 1 0.0573256 -0.0267635 -0.0378679 0.000291 -4.79651 -0.445747 -7.25796 2650 
82 1 0.0593217 -0.0359372 -0.0331319 0.001058 -5.05306 -0.103469 -9.01448 2650 
128 1 0.0623736 -0.0132438 -0.0293115 0.000105 -3.43831 -0.38574 -7.33721 2650 
192 1 0.0622446 -0.000104996 -0.0295272 0.000105 -3.78387 0.00135104 -7.96302 2650 
40 1 0.0625276 -0.000658764 -0.0289202 0.000105 -3.66986 0.0171456 -7.91218 2650 
197 1 0.0638957 -0.00850979 -0.0252919 0.000291 -2.10304 -0.033324 -5.4111 2650 
26 1 0.0657763 -0.0494944 -0.0171174 0.001058 -2.6847 0.0173054 -10.3164 2650 
47 1 0.0667891 -0.014925 -0.016212 0.000291 -1.94461 -0.0987424 -7.98015 2650 
86 1 0.0683864 -0.047764 -0.00667035 0.000291 -0.965925 0.955236 -9.9046 2650 
140 1 0.0675123 -0.045129 -0.00772323 0.001058 -1.10749 0.0912712 -10.0331 2650 
184 1 0.0687018 -0.021412 -0.00513465 0.000105 -0.607283 0.302738 -8.11155 2650 
168 1 0.0688482 -0.00519403 -0.00247229 0.000105 -0.311921 -0.247625 -8.83476 2650 
302 1 0.0686854 -0.0615066 -0.0017774 0.000291 -0.137921 -1.44091 -5.96156 2650 
201 1 0.067376 -0.0394103 -0.00026111 0.00164 -0.0446159 -0.0958286 -9.96603 2650 
50 1 0.0679379 -0.0317299 -0.00124014 0.001058 -0.196607 -0.125267 -10.0689 2650 
271 1 0.0678085 -0.0087539 0.00426438 0.001058 0.250095 -0.0163488 -3.80189 2650 
112 1 0.0684494 -0.0335433 0.0078125 0.000105 1.39415 -2.38016 -12.2302 2650 
79 1 0.0136505 -0.00321443 0.00608896 0.000291 -0.00529203 -0.00866348 0.00968208 2650 
131 1 0.0673934 -0.0485104 0.00870829 0.001058 1.3642 -0.014407 -10.5592 2650 
170 1 0.000912949 -0.00123983 0.0158277 0.001058 0.0178138 -0.00502054 -0.00235441 2650 
95 1 0.00523283 -0.000257905 0.0146838 0.000291 -0.0190214 0.000188354 -0.00919676 2650 
239 1 0.0654701 -0.0499303 0.0182529 0.001058 2.86682 -0.0151639 -10.2829 2650 
300 1 0.0652197 -0.0232101 0.0190772 0.001058 1.41291 -0.119148 -4.8008 2650 
288 1 0.0652739 -0.0473438 0.0215287 0.000291 3.37866 -0.0147605 -10.2439 2650 
213 1 0.06516 -0.0431214 0.0218592 0.000291 3.55881 0.573487 -10.6671 2650 
119 1 0.0649681 -0.0510857 0.0224135 0.000291 3.54581 -0.0346087 -10.278 2650 
230 1 0.0641734 -0.0484631 0.0224042 0.001058 3.51957 0.003575 -10.0814 2650 
243 1 0.0625266 -0.0549029 0.0266002 0.001058 4.24239 -0.0829943 -9.97502 2650 
36 1 0.0626121 -0.0437173 0.026452 0.001058 4.17966 0.0510173 -9.8938 2650 
152 1 0.0637654 -0.0220827 0.0261079 0.000105 3.25265 0.319691 -7.98303 2650 
191 1 0.0625126 -0.0501866 0.0285624 0.000291 4.55976 0.170429 -9.97743 2650 
121 1 0.06055 -0.0464316 0.0296001 0.00164 4.64043 -0.00483814 -9.49253 2650 
259 1 0.0609115 -0.0299478 0.0301088 0.001058 4.66198 -0.265844 -9.43105 2650 
2 1 0.0598573 -0.0462295 0.0322001 0.001058 5.04414 -0.102164 -9.37669 2650 
99 1 0.0590927 -0.0444136 0.0335795 0.001058 5.28698 -0.0690088 -9.30396 2650 
60 1 0.0590768 -0.0415368 0.0335962 0.001058 5.26487 -0.0305156 -9.25762 2650 
281 1 0.0594769 -0.0622401 0.0344409 0.000291 5.40468 -0.00342428 -9.33284 2650 
196 1 0.0579855 -0.0453442 0.0354539 0.001058 5.60957 -0.0048777 -9.17551 2650 
108 1 0.0580511 -0.0366663 0.0353095 0.001058 5.65483 -0.0551679 -9.29884 2650 
167 1 0.0593416 -0.0185905 0.0346687 0.000291 5.15262 0.14568 -8.82279 2650 
18 1 0.0582411 -0.0174037 0.0350339 0.001058 5.22709 0.24757 -8.69667 2650 
267 1 0.0583829 -0.0200749 0.0362523 0.000291 5.17569 -0.126311 -8.3622 2650 
73 1 0.0545923 -0.0573136 0.0394755 0.00164 6.22195 -0.00593067 -8.60553 2650 
204 1 0.0540444 -0.0303392 0.0411798 0.001058 6.45413 0.0619165 -8.45392 2650 
223 1 0.0540018 -0.0207954 0.0412468 0.001058 6.01968 0.0655817 -7.87798 2650 
158 1 0.0536796 -0.0131259 0.0428951 0.000291 5.21998 0.25917 -6.50618 2650 
285 1 0.0481791 -0.0272431 0.047913 0.001058 6.85635 0.00211433 -6.91829 2650 
229 1 0.0470805 -0.0615174 0.0489937 0.001058 7.73381 -0.0560517 -7.43223 2650 
280 1 0.0480558 -0.0308793 0.0482309 0.001058 7.57609 1.03845e-05 -7.54859 2650 
133 1 0.0477964 -0.0241537 0.049351 0.000291 7.41944 -0.144252 -7.19404 2650 
270 1 0.045024 -0.0088907 0.0517909 0.000291 5.96645 -0.0845953 -5.18195 2650 
13 1 0.0446112 -0.0356366 0.0522544 0.000291 7.31691 0.359003 -6.25035 2650 
173 1 0.0441175 -0.0117205 0.0526058 0.000291 7.2366 -0.0684494 -6.02681 2650 
89 1 0.0376846 -0.0611601 0.0558487 0.00164 8.77395 -2.23419e-07 -5.92035 2650 
261 1 0.0384263 -0.0170253 0.0569669 0.000291 6.66255 -0.288385 -4.47749 2650 
304 1 0.0370239 -0.0144346 0.057884 0.000291 5.64111 0.243176 -3.58488 2650 
83 1 0.0327775 -0.04996 0.0595406 0.001058 9.36242 0.011193 -5.1542 2650 
145 1 0.0316514 -0.0323327 0.0594679 0.00164 8.58478 0.0294339 -4.592 2650 
231 1 0.0294786 -0.0360491 0.061216 0.001058 8.82619 -0.110583 -4.24146 2650 
276 1 0.0310765 -0.0328618 0.0612746 0.000291 8.87886 -0.553957 -4.48149 2650 
150 1 0.0309374 -0.0286936 0.061346 0.000291 9.2692 -0.184743 -4.6618 2650 
3 1 0.0318239 -0.0269471 0.0600295 0.001058 8.91386 0.0622369 -4.72505 2650 
16 1 0.0337087 -0.0105318 0.0600935 0.000105 7.66381 0.0236542 -4.28 2650 
215 1 0.0231739 -0.0485274 0.0638991 0.001058 10.0279 0.0101175 -3.63669 2650 
287 1 0.0250721 -0.0460303 0.063178 0.001058 9.60177 -0.0164148 -3.80159 2650 
272 1 0.0273628 -0.0454257 0.0622215 0.001058 9.5529 0.36271 -4.20402 2650 
182 1 0.0284726 -0.0149079 0.0625588 0.000291 8.57138 0.418706 -3.90075 2650 
214 1 0.0198423 -0.0589134 0.0657775 0.000291 9.53782 -0.252257 -2.87206 2650 
84 1 0.0176452 -0.0510518 0.0656334 0.001058 10.3092 0.00332562 -2.77156 2650 
264 1 0.0198799 -0.0473119 0.064999 0.001058 10.2392 -0.0373984 -3.13166 2650 
241 1 0.0207145 -0.0330207 0.0655073 0.000291 10.0776 -0.20967 -3.18788 2650 
202 1 0.019075 -0.0307163 0.0652165 0.001058 9.73619 -0.035051 -2.85862 2650 
295 1 0.0203264 -0.030424 0.065634 0.000291 9.77216 0.475913 -2.98258 2650 
240 1 0.0247691 -0.0269664 0.0640837 0.000291 8.36341 -0.246163 -3.22502 2650 
98 1 0.0224598 -0.0176762 0.0641517 0.001058 9.43754 -0.13587 -3.30085 2650 
235 1 0.0248466 -0.0162489 0.0640861 0.000291 9.49605 0.0695575 -3.67296 2650 
109 1 0.0154033 -0.0509954 0.0669743 0.000291 10.5344 0.0506751 -2.4227 2650 
290 1 0.0180981 -0.0469632 0.0663054 0.000291 10.4042 0.0261587 -2.83991 2650 
181 1 0.0131344 -0.0443508 0.0674568 0.000291 10.7017 -0.0915163 -2.08364 2650 
277 1 0.0168485 -0.0420739 0.0666261 0.000291 9.79338 0.344025 -2.47658 2650 
251 1 0.0125987 -0.0326088 0.0667681 0.001058 9.92811 0.154966 -1.87378 2650 
210 1 0.0157059 -0.0315012 0.066106 0.001058 9.78019 0.0428879 -2.29004 2650 
177 1 0.0131965 -0.018623 0.066081 0.00164 9.71491 0.0964042 -1.94754 2650 
275 1 0.0104866 -0.0132642 0.0679133 0.000291 9.83825 0.142988 -1.51865 2650 
23 1 0.0064826 -0.0526213 0.0684029 0.000291 9.99336 0.590226 -0.944872 2650 
221 1 0.00888849 -0.021854 0.0681342 0.000291 7.87865 -0.546907 -1.01585 2650 
282 1 0.00739794 -0.0164621 0.0683137 0.000291 10.0901 -0.122825 -1.09519 2650 
303 1 0.00896901 -0.0151372 0.0681275 0.000291 9.75947 -0.0759229 -1.29016 2650 
260 1 0.00800696 0.0064502 -0.0127053 0.000291 0.00264513 0.00634623 -0.0220501 2650 
33 1 0.00178522 0.0274994 -0.0123765 0.00164 0.00603998 0.0215627 0.00352792 2650 
54 1 0.011265 0.0328746 -0.0122216 0.000291 -0.0306339 -0.00115888 -0.0366828 2650 
286 1 0.00803861 0.0351507 -0.01366 0.001058 -0.02115 0.0482903 -0.0107899 2650 
301 1 0.003375 0.0402354 -0.0134279 0.001058 -0.0176549 0.0163122 0.00371725 2650 
75 1 0.00782698 0.0721605 -0.0124832 0.001058 0.0240155 0.0510522 0.00788599 2650 
153 1 0.00835419 0.00457943 -0.0104901 0.00164 0.00901504 -0.00371715 -0.0192614 2650 
195 1 0.0134087 0.000737126 -0.00827773 0.001058 -0.0182689 0.00246922 -0.0247001 2650 
77 1 0.0110015 0.0117453 -0.00853339 0.000291 -0.0117356 0.000913058 0.0103562 2650 
292 1 0.00510149 0.0484315 -0.00951986 0.001058 -0.0104367 0.0376087 -0.0291473 2650 
19 1 0.0133316 0.0107018 -0.00710086 0.001058 -0.00189711 0.0050805 -0.00113271 2650 
284 1 0.0123676 0.0127098 -0.00791472 0.000291 -0.00371053 0.00586111 -0.00129449 2650 
123 1 0.0131522 0.0346473 -0.00614588 0.001058 -0.0069266 0.0381635 -0.00768552 2650 
176 1 0.0142379 0.000231336 -0.0052708 0.000105 0.0200199 0.000256501 -0.0124767 2650 
199 1 0.0145252 0.0053477 -0.00440912 0.000291 -0.0066469 0.00203541 -0.00705897 2650 
161 1 0.0136662 0.00742134 -0.00453289 0.00164 -0.000454856 0.00568005 -0.00417258 2650 
101 1 0.0114831 0.000463133 -0.00336181 0.000291 0.0107852 -0.0015929 -0.0095042 2650 
113 1 0.00133707 0.00583622 -0.00214984 0.00164 -0.0131936 -0.00156564 -0.00033725 2650 
203 1 0.010549 0.0234295 -0.00286824 0.001058 0.0105265 0.0334803 0.00411967 2650 
57 1 0.00570966 0.0265851 -0.00349208 0.00164 -0.000919831 0.00616449 -0.024056 2650 
1 1 0.0143046 0.00584513 -0.00153662 0.00164 -0.00396175 0.00352346 -0.00443708 2650 
279 1 0.0108183 0.00607261 -0.00096412 0.001058 0.00690887 -0.00122776 0.0071413 2650 
92 1 0.0124136 0.00767132 -0.000424769 0.001058 0.00298746 0.00292354 0.00546929 2650 
51 1 0.00432625 0.0107063 -0.000936347 0.001058 -0.0414136 0.0415048 -0.0353246 2650 
194 1 0.012506 0.0317343 -0.00034471 0.001058 -0.00717738 0.0355954 0.00284246 2650 
249 1 0.00519569 0.033841 -0.00198191 0.000291 0.00987628 0.0185258 -0.0129358 2650 
258 1 0.0128705 0.0356613 -0.00134877 0.001058 -0.00702738 0.0458888 -0.00817646 2650 
70 1 0.0040943 0.0487423 -0.00120547 0.000291 0.000986621 0.0559838 -0.0454673 2650 
38 1 0.00985264 0.0180203 0.00160446 0.000291 0.0290333 0.00993382 0.0254358 2650 
52 1 0.0136526 0.0480241 0.00396989 0.001058 0.020942 0.0217799 -0.017467 2650 
263 1 0.0109358 0.0530412 0.00238494 0.000291 -0.0276857 0.0691876 -0.0511194 2650 
9 1 0.0135553 0.0337609 0.00421442 0.00164 -0.00067168 0.0470366 0.00650688 2650 
17 1 0.0141391 0.0501681 0.0057306 0.00164 0.00701424 0.0397619 -0.0326359 2650 
298 1 0.0127119 0.00305897 0.00775796 0.000105 0.00377194 -0.00442838 -0.00799766 2650 
238 1 0.0126351 0.0467158 0.00744672 0.001058 0.0185997 0.0286204 -0.0105297 2650 
156 1 0.0126277 0.00748182 0.00940772 0.001058 0.0124006 -0.0116374 0.00559452 2650 
139 1 0.010364 0.0242306 0.00954904 0.001058 -0.0138539 0.00679752 0.0124887 2650 
66 1 0.0108385 0.00800184 0.0107091 0.001058 0.00109107 -0.000952032 -0.00287426 2650 
265 1 0.0114488 0.0119641 0.0109419 0.001058 0.011667 0.00657701 -0.00499144 2650 
242 1 0.000176502 0.0343959 0.0107782 0.000291 0.0116924 0.0265357 0.00697501 2650 
222 1 0.00383164 0.000107614 0.0132926 0.001058 -0.0324875 0.00467874 -0.0112895 2650 
105 1 0.00834707 0.0182955 0.0126292 0.00164 -0.0169664 0.0100977 -0.000660089 2650 
41 1 0.0023801 0.020011 0.0149091 0.00164 0.0068016 0.00438666 -0.0112207 2650 
293 1 0.0069943 0.0427229 0.0141673 0.001058 0.0987544 0.00952933 -0.0422638 2650 
245 1 0.00849226 0.0925676 -0.0109917 0.001058 0.013355 0.0538623 -0.0223836 2650 
127 1 0.0139616 0.0828417 -0.00624135 0.000291 0.0147798 0.0618117 0.0201086 2650 
