ITEM: TIMESTEP
5433034
ITEM: NUMBER OF ATOMS
300
ITEM: BOX BOUNDS ff ff ff
-0.15 0.15
-0.15 0.15
-0.15 0.15
ITEM: ATOMS id type x y z radius vx vy vz density 
282 1 -0.00480344 -0.025653 -0.0685309 0.000291 -3.9715 0.0686834 0.256696 2650 
73 1 -0.00139216 -0.0473439 -0.0673527 0.00164 -8.72745 0.0406264 0.170599 2650 
288 1 -0.0172886 -0.0336427 -0.0664951 0.000291 -6.08495 -0.152304 1.54631 2650 
32 1 -0.011799 -0.00476535 -0.0649554 0.000105 -3.20151 -0.139078 -0.575534 2650 
133 1 -0.0290248 -0.0270283 -0.0622729 0.000291 -6.32508 0.336866 2.93751 2650 
109 1 -0.0323958 -0.0457092 -0.0606145 0.000291 -6.23388 0.29626 3.34511 2650 
152 1 -0.0335895 -0.0224193 -0.0601605 0.000105 -4.55494 0.0142001 2.57748 2650 
280 1 -0.0334754 -0.027404 -0.0591235 0.001058 -6.2619 0.114699 3.55291 2650 
131 1 -0.0421011 -0.0247435 -0.0533295 0.001058 -5.17695 -0.226492 4.12417 2650 
89 1 -0.0443499 -0.0507831 -0.0506018 0.00164 -7.03744 0.122837 6.1617 2650 
184 1 -0.0496802 -0.0127863 -0.047731 0.000105 -2.4289 -0.248996 2.46976 2650 
138 1 -0.0513248 -0.0339964 -0.0445248 0.001058 -5.29646 0.220023 6.10327 2650 
25 1 -0.0529416 -0.0561876 -0.0416671 0.00164 -5.8195 -0.00476296 7.38707 2650 
283 1 -0.05437 -0.014345 -0.0420196 0.000291 -4.81903 0.423803 6.24355 2650 
243 1 -0.0548539 -0.0263204 -0.0400917 0.001058 -2.7066 -0.208732 3.68703 2650 
84 1 -0.0544207 -0.0180233 -0.0406971 0.001058 -4.83797 0.0720255 6.49814 2650 
297 1 -0.0599392 -0.0387391 -0.0335998 0.000291 -3.63273 -0.174192 6.4924 2650 
218 1 -0.0579703 -0.0300033 -0.0354406 0.001058 -2.37329 -0.982847 3.83552 2650 
151 1 -0.0610634 -0.0153818 -0.0315511 0.000291 -3.12155 0.120229 6.0296 2650 
167 1 -0.0633328 -0.00868831 -0.0266725 0.000291 -3.07053 0.801162 7.31861 2650 
34 1 -0.0633145 -0.0193084 -0.0247092 0.001058 -3.04502 -0.412692 7.68662 2650 
295 1 -0.006507 -0.00180313 -0.01264 0.000291 0 -0.011755 0 2650 
163 1 -0.00933191 -0.00184201 -0.0114018 0.001058 -0.00226444 0.022837 0.11417 2650 
137 1 -0.00812933 -0.00386441 -0.00859094 0.00164 -0.986573 -0.125376 -1.16302 2650 
108 1 -0.00671592 -0.00144754 -0.00924837 0.001058 0.00190399 -0.0137697 -0.00130751 2650 
200 1 -0.012172 -0.00257013 -0.006974 0.000105 0 -0.011755 0 2650 
293 1 -0.0106939 -0.00311232 -0.00700717 0.001058 -0.775105 0.0922878 -0.0514893 2650 
203 1 -0.00419708 -0.000761571 -0.00733249 0.001058 -0.000783876 0.116399 -0.140271 2650 
214 1 -0.008446 -0.00286013 -0.004092 0.000291 0 -0.011755 0 2650 
135 1 -0.00505413 -0.000110308 -0.0044002 0.000291 -0.0060505 -0.00140209 -0.0140303 2650 
76 1 -0.0020555 -0.000547639 -0.0055693 0.001058 0.00563223 -0.0106236 0.000699054 2650 
215 1 -0.0678507 -0.0360195 -0.00333217 0.001058 -0.439107 -0.0371629 9.00716 2650 
270 1 -0.000405213 -8.87401e-05 -0.0030829 0.000291 0.0186853 -0.00788795 0.00123148 2650 
39 1 -0.0687078 -0.0321447 0.000127049 0.000291 0.0284053 0.0656259 7.30596 2650 
122 1 -0.00161268 -0.00300944 0.000345568 0.001058 0.000509879 -0.0115361 4.72204e-06 2650 
14 1 -0.006378 -0.000479132 0.001478 0.000291 0 -0.011755 0 2650 
296 1 -0.005879 -1.13156e-06 0.000521 0.000291 0 -0.011755 0 2650 
272 1 -0.001203 -0.00307613 0.002609 0.001058 0 -0.011755 0 2650 
182 1 -0.0685322 -0.0125587 0.00491559 0.000291 0.313467 -0.104204 4.25696 2650 
49 1 -0.00742628 -0.00282612 0.00516777 0.00164 -0.00117613 -0.0103924 0.00305129 2650 
97 1 -0.0137436 -0.000461726 0.00439283 0.00164 0.00016333 0.00117645 -0.00616736 2650 
64 1 -0.001837 -0.00289513 0.007035 0.000105 0 -0.011755 0 2650 
15 1 -0.067948 -0.0160781 0.0102597 0.000291 0.790963 0.349718 5.27896 2650 
111 1 -0.009474 -0.00325013 0.008964 0.000291 0 -0.011755 0 2650 
235 1 -0.00110481 -0.00332909 0.00811608 0.000291 -0.0455917 -0.0222159 0.334924 2650 
165 1 -0.0678467 -0.0250496 0.0108567 0.000291 1.12489 -0.336013 7.02631 2650 
233 1 -0.001796 -0.000562132 0.010436 0.000291 0 -0.011755 0 2650 
29 1 -0.00756396 -0.00186826 0.0138783 0.000291 -0.00299886 -0.0148378 0.021138 2650 
251 1 -0.00761009 -0.000208692 0.0125094 0.001058 0.00250988 -0.0244938 -0.0113208 2650 
44 1 -0.00867874 -0.00432575 0.0140583 0.001058 -0.324263 -0.354675 0.548495 2650 
22 1 -0.0665379 -0.0312254 0.0171327 0.000291 1.9521 0.916306 7.07209 2650 
42 1 -0.0654933 -0.0305263 0.0181074 0.001058 1.92123 -0.117053 6.68036 2650 
43 1 -0.0651178 -0.0264946 0.0193917 0.001058 2.16781 0.48215 7.24589 2650 
125 1 -0.0658751 -0.0110625 0.0195906 0.000291 2.62206 0.897463 8.78172 2650 
229 1 -0.0631148 -0.0467948 0.0252332 0.001058 3.40212 -0.11348 8.52544 2650 
193 1 -0.0625937 -0.0340292 0.0248942 0.00164 3.22729 -0.162986 8.18913 2650 
72 1 -0.0595458 -0.0335195 0.0346445 0.000105 4.74185 0.492953 8.14156 2650 
23 1 -0.0581308 -0.0248618 0.0366253 0.000291 2.59863 -0.0360955 4.13404 2650 
20 1 -0.0528324 -0.0387984 0.0427291 0.001058 6.04141 0.602197 7.4401 2650 
26 1 -0.0489122 -0.0230719 0.0471504 0.001058 5.54021 0.0183816 5.70779 2650 
281 1 -0.0486876 -0.0456032 0.0484797 0.000291 6.26807 0.540209 6.29821 2650 
230 1 -0.0458653 -0.0386588 0.0500835 0.001058 5.89476 -0.13296 5.40584 2650 
257 1 -0.0458716 -0.0360057 0.0501064 0.001058 6.12697 -0.0449 5.62102 2650 
69 1 -0.0439089 -0.0301122 0.0528476 0.000291 6.60814 0.780484 5.50528 2650 
93 1 -0.040191 -0.0378773 0.0557251 0.000291 6.08699 0.380569 4.38626 2650 
121 1 -0.00738395 -0.0237671 0.0669669 0.00164 7.32199 -0.0232774 0.797572 2650 
255 1 -0.0141004 -0.0197257 0.0672579 0.000291 3.85458 0.061607 0.848295 2650 
189 1 -0.0140404 -0.0165408 0.0672746 0.000291 6.54353 -1.35799 1.33862 2650 
206 1 -0.00034385 -0.0281057 0.0687083 0.000291 3.99745 -0.711209 0.00352688 2650 
241 1 -0.00369979 -0.0109674 0.068608 0.000291 4.75107 -0.0326772 0.259745 2650 
85 1 -0.003548 0.00167987 -0.015444 0.000291 0 -0.011755 0 2650 
70 1 -0.002345 0.00348187 -0.015511 0.000291 0 -0.011755 0 2650 
198 1 -0.00694044 0.00439967 -0.0145814 0.000291 0.0955329 0.0282268 -0.0505515 2650 
155 1 -0.00981675 0.00198278 -0.0124254 0.001058 -0.0411708 -0.00135317 0.0274226 2650 
33 1 -0.003866 0.00654487 -0.012959 0.00164 0 -0.011755 0 2650 
157 1 -0.00797321 0.0113587 -0.0129531 0.000291 -0.00207055 0.0624285 -0.0124977 2650 
47 1 -0.0116422 0.0041365 -0.0107528 0.000291 -0.00617568 -0.0113964 -0.000259454 2650 
17 1 -0.00974036 0.00476815 -0.01011 0.00164 -0.00745432 0.0226724 0.02664 2650 
234 1 -0.00668914 0.00588698 -0.0107006 0.000291 -0.02134 0.00563614 -0.0027496 2650 
115 1 -0.0119875 0.00720754 -0.0102192 0.001058 -0.022819 0.0251815 0.025778 2650 
94 1 -0.011581 0.00860687 -0.01188 0.000291 0 -0.011755 0 2650 
127 1 -0.0107468 0.0185642 -0.0113951 0.000291 -0.00885864 0.0707893 -0.0549482 2650 
250 1 -0.0116469 0.00260653 -0.0087536 0.001058 0.00273404 -0.00245883 0.0388004 2650 
175 1 -0.013247 0.00416987 -0.008751 0.000291 0 -0.011755 0 2650 
144 1 -0.0121944 0.00945203 -0.0082751 0.000105 -0.0067045 -0.00749758 0.00296249 2650 
180 1 -0.00866682 0.00730959 -0.00797559 0.001058 0.0584365 0.0813871 -0.0401553 2650 
187 1 -0.0135154 0.0113751 -0.00646002 0.001058 -0.0112156 -0.0033076 -0.00319333 2650 
276 1 -0.013674 0.00571387 -0.004231 0.000291 0 -0.011755 0 2650 
240 1 -0.010392 0.00477187 -0.005262 0.000291 0 -0.011755 0 2650 
74 1 -0.012237 0.00611187 -0.004721 0.001058 0 -0.011755 0 2650 
159 1 -0.012707 0.00870787 -0.00588 0.000291 0 -0.011755 0 2650 
256 1 -0.0145736 0.0109224 -0.0056492 0.000291 -0.0123982 -0.000129637 -0.00545733 2650 
41 1 -0.00786438 0.0113961 -0.00574854 0.00164 0.0102042 0.00860529 0.0210319 2650 
220 1 -0.0148416 0.0162922 -0.00569277 0.000291 0.00605419 0.00724476 0.0145131 2650 
136 1 -0.00741609 0.0544328 -0.00496004 0.000105 0.0375902 0.10168 0.0199891 2650 
274 1 -0.016349 0.00257887 -0.002509 0.000291 0 -0.011755 0 2650 
13 1 -0.014201 0.00481387 -0.003882 0.000291 0 -0.011755 0 2650 
104 1 -0.014089 0.00549587 -0.003012 0.000105 0 -0.011755 0 2650 
114 1 -0.012569 0.00477801 -0.00293582 0.001058 0.00420056 0.00598853 -0.00780411 2650 
273 1 -0.000989 0.0127082 -0.00339048 0.001058 -0.00402366 0.037385 0.0311551 2650 
7 1 -0.00727644 0.0164678 -0.00305566 0.000291 0.00378858 0.0136367 -0.000251809 2650 
211 1 -0.013379 0.00286147 -0.00199001 0.001058 0.00124469 0.00903567 0.0095983 2650 
209 1 -0.0128627 0.00569223 -0.000663695 0.001058 -0.00441841 -0.000242019 0.00251594 2650 
123 1 -0.00520435 0.00576035 -0.00193908 0.001058 0.0354386 0.020018 -0.000637314 2650 
10 1 -0.0140058 0.00779346 -0.00192628 0.001058 -0.00603352 -0.00346171 -0.00631144 2650 
292 1 -0.00321073 0.00700147 -0.00182619 0.001058 0.0469404 0.0480946 0.0370303 2650 
61 1 -0.016439 0.00842587 -0.001038 0.000291 0 -0.011755 0 2650 
65 1 -0.0100042 0.0140378 -0.00185736 0.00164 -0.00348018 0.0119066 0.00345508 2650 
75 1 -0.014417 0.0178116 -0.000783798 0.001058 0.0206685 0.0556886 -0.0248334 2650 
191 1 -0.0108 0.000852868 0.001549 0.000291 0 -0.011755 0 2650 
168 1 -0.007536 0.00186387 0.001389 0.000105 0 -0.011755 0 2650 
120 1 -0.016055 0.00406587 0.000189 0.000105 0 -0.011755 0 2650 
80 1 -0.014935 0.00676387 0.00039 0.000105 0 -0.011755 0 2650 
87 1 -0.0119767 0.00765194 0.000326353 0.000291 0.0457248 -0.00314239 -0.013726 2650 
268 1 -0.011054 0.00728787 0.000789 0.000291 0 -0.011755 0 2650 
129 1 -0.0081216 0.00753387 0.00168903 0.00164 0.0035976 -0.00912701 -0.00133207 2650 
52 1 -0.0118928 0.0090977 0.00157572 0.001058 0.0218461 0.0452836 -0.00754698 2650 
57 1 -0.000138896 0.0177417 0.00169283 0.00164 0.0230994 0.0154402 0.0436737 2650 
18 1 -0.005138 0.00105787 0.00212 0.001058 0 -0.011755 0 2650 
99 1 -0.0104928 0.00399592 0.00290957 0.001058 0.0440105 0.0260349 -0.0124724 2650 
176 1 -0.003983 0.00540287 0.002552 0.000105 0 -0.011755 0 2650 
124 1 -0.0153645 0.0075892 0.00379892 0.001058 0.000949956 0.0462071 0.00992246 2650 
77 1 -0.0101079 0.0101022 0.00356898 0.000291 0.0279429 0.00178097 -0.016803 2650 
54 1 -0.0123115 0.0247198 0.00261546 0.000291 0.0409131 0.0218291 0.0638832 2650 
98 1 -0.00184698 0.00151246 0.00452755 0.001058 -0.000872989 -0.0147225 -0.00989819 2650 
170 1 -0.0112523 0.00390148 0.00584413 0.001058 0.00672221 -0.00141463 0.0184147 2650 
53 1 -0.000389 0.00214087 0.004762 0.000291 0 -0.011755 0 2650 
164 1 -0.003894 0.00443887 0.005467 0.001058 0 -0.011755 0 2650 
106 1 -0.0128442 0.00757877 0.00554569 0.001058 0.0124054 0.0227789 -0.00267195 2650 
291 1 -0.008194 0.00881287 0.004767 0.000291 0 -0.011755 0 2650 
28 1 -0.013483 0.0108779 0.00533727 0.001058 0.00069719 0.0289887 -0.00109375 2650 
242 1 -0.0071769 0.0115222 0.00457582 0.000291 -0.00954886 0.00781474 0.00295974 2650 
35 1 -0.000295476 0.00285122 0.00656077 0.001058 0.00654177 -0.0105187 -0.00962265 2650 
266 1 -0.0140543 0.00537653 0.00729461 0.001058 0.000122601 0.0202575 -0.000437866 2650 
186 1 -0.006177 0.00675487 0.006545 0.001058 0 -0.011755 0 2650 
58 1 -0.0122632 0.00216506 0.00981399 0.001058 -0.0110314 -0.00690385 0.0214168 2650 
4 1 -0.0134767 0.00797559 0.00830328 0.001058 0.000108003 -0.0117359 -6.84365e-05 2650 
304 1 -0.012709 0.00809387 0.009818 0.000291 0 -0.011755 0 2650 
153 1 -0.000782501 0.008323 0.00904824 0.00164 0.00905173 -0.00370467 -0.0193596 2650 
300 1 -0.0108064 0.00385022 0.0114681 0.001058 -0.00517848 -0.00941929 -0.00460978 2650 
126 1 -0.000404582 0.00584501 0.0105256 0.000291 -0.00909177 -0.0182309 -0.0255133 2650 
299 1 -0.010562 0.00653487 0.010709 0.001058 0 -0.011755 0 2650 
55 1 -0.01171 0.00856187 0.01034 0.000291 0 -0.011755 0 2650 
71 1 -0.00156672 0.00841546 0.011126 0.000291 0.000861808 -0.00718564 -0.0173142 2650 
68 1 -0.00390968 0.0100553 0.0103522 0.001058 0.00272783 -0.00342387 -0.00169301 2650 
238 1 -0.0071123 0.01404 0.0116098 0.001058 0.0105136 0.0371874 0.0344704 2650 
249 1 -0.0047793 0.0151301 0.0110832 0.000291 0.00987628 0.0185258 -0.0129358 2650 
217 1 -0.0100186 0.0181979 0.0116341 0.001058 0.000747792 0.0265619 -0.00553463 2650 
245 1 -0.00499626 0.038167 0.0116157 0.001058 0.013355 0.0538623 -0.0223836 2650 
226 1 -0.009224 0.000409868 0.012787 0.000291 0 -0.011755 0 2650 
285 1 -0.00858248 0.00408207 0.0132178 0.001058 -0.00798287 -0.013356 -0.00552209 2650 
224 1 -0.00669194 0.0107681 0.0131985 0.001058 -0.00376938 0.00554818 0.00221201 2650 
195 1 -0.00111576 0.00340254 0.0148747 0.001058 0.0197759 -0.0130377 0.027816 2650 
265 1 -0.000333181 0.00529627 0.0157178 0.001058 0.011548 0.00842838 0.0146142 2650 
91 1 -0.0607671 0.0638293 0.0972905 0.001058 -5.56031 0.0250435 8.91274 2650 
119 1 0.017495 -0.0423915 -0.066461 0.000291 -5.30311 0.329904 -1.42628 2650 
141 1 0.0315632 -0.00456918 -0.0609824 0.000291 -3.58422 0.134898 -1.54855 2650 
90 1 0.0333007 -0.0478147 -0.0592494 0.001058 -7.26273 -0.120744 -4.08569 2650 
56 1 0.0378179 -0.00703874 -0.05759 0.000105 -2.7397 -0.159825 -1.86893 2650 
132 1 0.0404027 -0.0263247 -0.0546175 0.001058 -4.16655 0.204113 -3.02827 2650 
179 1 0.0523674 -0.0475806 -0.0432994 0.001058 -5.30918 0.0433732 -6.41473 2650 
173 1 0.0384561 -0.00495717 -0.0433722 0.000291 6.02637 -0.142767 -6.79676 2650 
36 1 0.0544418 -0.0286251 -0.040653 0.001058 -4.48863 -0.328191 -5.99001 2650 
146 1 0.0547195 -0.0481149 -0.0402972 0.001058 -4.93309 0.0751839 -6.72879 2650 
2 1 0.0555458 -0.0220109 -0.0391417 0.001058 -4.12244 0.139089 -5.81363 2650 
248 1 0.0571468 -0.00753531 -0.0381555 0.000291 -2.78173 -0.306443 -4.19128 2650 
302 1 0.0603216 -0.0267203 -0.0328871 0.000291 -1.70761 -0.0836167 -3.15912 2650 
83 1 0.0615971 -0.0222214 -0.0286982 0.001058 -2.78443 0.299965 -5.90135 2650 
204 1 0.06336 -0.014923 -0.024613 0.001058 -1.65432 -0.228806 -4.26003 2650 
8 1 0.0656929 -0.0188095 -0.0208189 0.000105 -1.15045 0.185425 -3.68849 2650 
46 1 0.007499 -0.000463132 -0.014091 0.000291 0 -0.011755 0 2650 
237 1 0.005321 -0.00120013 -0.012467 0.001058 0 -0.011755 0 2650 
259 1 0.00625631 -0.00179804 -0.0100961 0.001058 -0.000549325 -0.010947 -0.00390661 2650 
213 1 0.001757 -0.00287513 -0.008127 0.000291 0 -0.011755 0 2650 
86 1 0.0684042 -0.0179617 -0.00647851 0.000291 -0.513122 -0.219932 -5.62154 2650 
30 1 0.005625 -0.00319713 -0.00604 0.000291 0 -0.011755 0 2650 
197 1 0.007512 -0.00305913 -0.004043 0.000291 0 -0.011755 0 2650 
178 1 0.00358837 -0.00126192 -0.00535204 0.001058 -0.000609858 -0.0102344 0.00251423 2650 
171 1 0.000459 -0.00205813 -0.002783 0.001058 0 -0.011755 0 2650 
88 1 0.002864 -0.000348132 -0.002457 0.000105 0 -0.011755 0 2650 
6 1 0.004141 -0.00262613 -0.001643 0.000291 0 -0.011755 0 2650 
148 1 0.067946 -0.0407175 0.00031342 0.001058 0.0495365 0.0983657 -8.29032 2650 
183 1 0.01481 -0.00198513 0.000242 0.000291 0 -0.011755 0 2650 
96 1 0.009869 -0.000218132 0.000788 0.000105 0 -0.011755 0 2650 
277 1 0.015014 -0.00160713 0.001212 0.000291 0 -0.011755 0 2650 
166 1 0.0686496 -0.051347 0.00280076 0.000291 0.23694 0.232028 -6.10568 2650 
143 1 0.013105 -0.00151813 0.003332 0.000291 0 -0.011755 0 2650 
225 1 0.00506388 -0.0036211 0.00481765 0.001058 0.659609 -0.0658616 0.62508 2650 
267 1 0.007574 -0.00242113 0.005778 0.000291 0 -0.011755 0 2650 
50 1 0.006699 -0.000438132 0.005883 0.001058 0 -0.011755 0 2650 
305 1 0.007934 -0.00167913 0.005234 0.000105 0 -0.011755 0 2650 
150 1 0.010064 -0.000337132 0.004311 0.000291 0 -0.011755 0 2650 
118 1 0.001179 -0.00225613 0.007467 0.000291 0 -0.011755 0 2650 
174 1 0.002361 -0.000685132 0.006466 0.000291 0 -0.011755 0 2650 
1 1 0.00673286 -0.000609159 0.00901073 0.00164 0.0524342 0.0261576 0.025961 2650 
264 1 0.0128496 -0.0083753 0.0113894 0.001058 0.893693 -1.11064 0.689317 2650 
228 1 0.010294 -0.00117613 0.01009 0.000291 0 -0.011755 0 2650 
59 1 0.00564643 -0.00010142 0.0126949 0.001058 0.00474629 -0.00971363 -0.080686 2650 
254 1 0.0036183 -0.00400129 0.0163422 0.000291 -0.00921534 -0.354534 0.387301 2650 
40 1 0.0651913 -0.0187839 0.0223376 0.000105 1.25934 0.126628 -3.59279 2650 
185 1 0.0627815 -0.0277686 0.0244286 0.00164 2.71072 -0.0826633 -7.00586 2650 
140 1 0.0636727 -0.0233555 0.0237288 0.001058 2.60803 0.175138 -6.95048 2650 
236 1 0.0624881 -0.0484525 0.0267466 0.001058 3.4012 -0.00456432 -7.94465 2650 
290 1 0.062299 -0.0443327 0.0290328 0.000291 3.1996 -0.0662655 -6.94554 2650 
172 1 0.0620074 -0.0366843 0.027779 0.001058 3.19249 -0.0588242 -7.15962 2650 
63 1 0.0604937 -0.0282021 0.0325704 0.000291 3.13315 -0.88183 -5.79819 2650 
62 1 0.0592642 -0.0214807 0.0347862 0.000291 3.21098 -1.03375 -5.56165 2650 
107 1 0.0587697 -0.019089 0.0341357 0.001058 3.56897 0.0236927 -6.18329 2650 
16 1 0.0580179 -0.0463978 0.0371853 0.000105 3.77114 -0.853087 -5.8724 2650 
181 1 0.0579388 -0.0287547 0.0369287 0.000291 3.68745 -0.773424 -5.7787 2650 
239 1 0.0494937 -0.0414258 0.0465507 0.001058 5.269 -0.073651 -5.62372 2650 
192 1 0.0500813 -0.000104999 0.047309 0.000105 3.36494 0.000187203 -3.53758 2650 
219 1 0.0460265 -0.000291255 0.0510101 0.000291 4.72968 0.000139607 -4.25808 2650 
188 1 0.0337116 -0.0612469 0.0589941 0.001058 7.26983 0.045031 -4.16264 2650 
247 1 0.0354299 -0.0577409 0.0588654 0.000291 7.2276 0.708033 -4.362 2650 
21 1 0.0353356 -0.0397913 0.0589311 0.000291 6.40527 0.0787798 -3.81428 2650 
149 1 0.0348685 -0.0255768 0.0592024 0.000291 2.9616 -0.348257 -1.79605 2650 
158 1 0.0362526 -0.0102648 0.0583618 0.000291 2.98523 -0.209563 -1.79324 2650 
162 1 0.0240195 -0.0228448 0.063565 0.001058 5.01207 0.0135302 -1.87535 2650 
169 1 0.00348018 -0.0542609 0.0672764 0.00164 9.73745 -0.11373 -0.501252 2650 
221 1 0.0159829 -0.0287974 0.066821 0.000291 5.60604 0.223127 -1.32016 2650 
5 1 0.0035976 -0.0156142 0.0686129 0.000291 5.7043 -0.112655 -0.298636 2650 
303 1 0.001598 9.98684e-05 -0.015917 0.000291 0 -0.011755 0 2650 
160 1 0.004468 0.00122287 -0.014641 0.000105 0 -0.011755 0 2650 
130 1 1.4e-05 0.00219087 -0.015674 0.001058 0 -0.011755 0 2650 
269 1 0.002277 0.00236387 -0.015181 0.000291 0 -0.011755 0 2650 
37 1 0.006156 0.00812587 -0.015157 0.000291 0 -0.011755 0 2650 
263 1 0.006877 0.00161987 -0.012319 0.000291 0 -0.011755 0 2650 
289 1 0.001465 0.00278687 -0.012477 0.000291 0 -0.011755 0 2650 
142 1 0.002378 0.00320187 -0.013184 0.000291 0 -0.011755 0 2650 
252 1 0.00245 0.00649687 -0.01336 0.001058 0 -0.011755 0 2650 
78 1 0.001258 0.00811187 -0.012517 0.000291 0 -0.011755 0 2650 
196 1 0.002599 9.28684e-05 -0.011929 0.001058 0 -0.011755 0 2650 
201 1 0.00898394 0.00165341 -0.0107806 0.00164 0.00137105 -0.0114185 -0.003869 2650 
275 1 0.012705 0.00585887 -0.010476 0.000291 0 -0.011755 0 2650 
105 1 0.00537873 0.0074315 -0.0118629 0.00164 0.0492897 0.00663295 -0.0327282 2650 
110 1 0.010451 0.00840287 -0.010748 0.000291 0 -0.011755 0 2650 
147 1 0.0118486 0.00841193 -0.0103987 0.001058 -0.0386576 0.0485348 -0.0524987 2650 
139 1 0.00627583 0.0162134 -0.0102383 0.001058 0.0127696 0.00849352 0.0230521 2650 
67 1 0.00546378 0.00444641 -0.00893869 0.001058 -0.020884 0.0142907 -0.00966941 2650 
102 1 0.003423 0.00152487 -0.006065 0.000291 0 -0.011755 0 2650 
117 1 0.004754 0.00178687 -0.007063 0.000291 0 -0.011755 0 2650 
134 1 0.0106682 0.00310975 -0.00695002 0.000291 -0.0128132 0.00355392 -0.00692922 2650 
60 1 0.007579 0.00442787 -0.006312 0.001058 0 -0.011755 0 2650 
45 1 0.010575 0.00434787 -0.007722 0.000291 0 -0.011755 0 2650 
116 1 0.00294764 0.00818146 -0.00779033 0.001058 0.0382435 0.0489782 0.0372506 2650 
246 1 0.001376 0.00102587 -0.005453 0.001058 0 -0.011755 0 2650 
260 1 0.010983 0.00196064 -0.00554735 0.000291 -0.00392275 0.00411325 -0.00447499 2650 
92 1 0.0105646 0.00294653 -0.00435965 0.001058 -0.00204015 0.0110184 -0.00170939 2650 
161 1 0.0132095 0.00260272 -0.00520114 0.00164 0.0015934 0.00883809 0.00257892 2650 
279 1 0.0111411 0.00488062 -0.00567256 0.001058 -0.00964361 0.0081718 -0.00160366 2650 
199 1 0.014464 0.00483887 -0.004562 0.000291 0 -0.011755 0 2650 
278 1 7.4e-05 0.00693887 -0.004448 0.001058 0 -0.011755 0 2650 
271 1 0.00330488 0.0064293 -0.0050046 0.001058 0.0150184 -0.010407 0.010297 2650 
19 1 0.013799 0.00601087 -0.005439 0.001058 0 -0.011755 0 2650 
284 1 0.014191 0.00771887 -0.005949 0.000291 0 -0.011755 0 2650 
154 1 0.00253626 0.03355 -0.00467999 0.001058 0.00678339 0.101014 -0.0544466 2650 
177 1 0.00556538 0.000541679 -0.00282518 0.00164 -0.00977706 -0.00608305 0.00419202 2650 
253 1 0.014729 0.00319687 -0.002617 0.000291 0 -0.011755 0 2650 
227 1 0.00944 0.00502587 -0.002109 0.000291 0 -0.011755 0 2650 
205 1 0.00376288 0.000322477 -0.00154649 0.000291 -0.0110629 -0.00953223 0.00618698 2650 
113 1 0.0103281 0.0027271 -0.00155635 0.00164 -0.000152922 -0.0104668 0.00259679 2650 
190 1 0.005899 0.00772787 -0.000534 0.000291 0 -0.011755 0 2650 
81 1 0.007451 0.00114487 7.8e-05 0.00164 0 -0.011755 0 2650 
261 1 0.011218 0.00132087 0.000328 0.000291 0 -0.011755 0 2650 
48 1 0.009671 0.00561987 0.000233 0.000105 0 -0.011755 0 2650 
128 1 0.00361 0.00732687 0.000511 0.000105 0 -0.011755 0 2650 
9 1 0.012984 0.00736487 0.000468 0.00164 0 -0.011755 0 2650 
286 1 0.015584 0.00803287 0.000132 0.001058 0 -0.011755 0 2650 
223 1 0.00461239 0.000146635 0.00285165 0.001058 0.0245989 -0.00855677 0.00804702 2650 
210 1 0.010971 0.000474868 0.002357 0.001058 0 -0.011755 0 2650 
294 1 0.006997 0.00533387 0.003581 0.001058 0 -0.011755 0 2650 
101 1 0.004812 0.00604987 0.002517 0.000291 0 -0.011755 0 2650 
212 1 0.001087 0.00584387 0.005915 0.000291 0 -0.011755 0 2650 
24 1 0.005464 0.00541587 0.005551 0.000105 0 -0.011755 0 2650 
244 1 0.014869 0.00590187 0.00421 0.001058 0 -0.011755 0 2650 
51 1 0.009662 0.00648887 0.004577 0.001058 0 -0.011755 0 2650 
79 1 0.014214 0.00832887 0.005058 0.000291 0 -0.011755 0 2650 
207 1 0.000324 0.00100087 0.006532 0.000291 0 -0.011755 0 2650 
208 1 0.009461 0.00167687 0.007837 0.001058 0 -0.011755 0 2650 
232 1 0.00748976 0.00225505 0.00666843 0.001058 0.0545234 0.0132569 -0.0085581 2650 
231 1 0.006459 0.00504087 0.007445 0.001058 0 -0.011755 0 2650 
222 1 0.009219 0.00768787 0.006833 0.001058 0 -0.011755 0 2650 
112 1 0.013668 0.00865187 0.007002 0.000105 0 -0.011755 0 2650 
202 1 0.000283378 0.00413692 0.00873773 0.001058 0.00953014 -0.00871599 -0.0138173 2650 
194 1 0.007709 0.00581987 0.009989 0.001058 0 -0.011755 0 2650 
145 1 0.00424957 0.00653327 0.00827573 0.00164 0.00187104 -0.0124115 -0.00192682 2650 
301 1 0.00507626 0.0191904 0.00872294 0.001058 0.00272587 0.0220862 -0.0290146 2650 
11 1 0.00208311 0.0619652 0.00925758 0.001058 0.0558568 0.128502 0.0118077 2650 
100 1 0.0057602 0.00372186 0.0109539 0.001058 0.00912399 -0.0117578 -0.00681185 2650 
103 1 0.005979 0.00201887 0.01127 0.000291 0 -0.011755 0 2650 
287 1 0.00787302 0.00367228 0.0114745 0.001058 0.0122917 -0.0029205 -0.00373874 2650 
258 1 0.00957783 0.00314953 0.0102444 0.001058 0.00530579 -0.0111032 -0.00429955 2650 
66 1 0.00445192 0.00880145 0.0114281 0.001058 0.00846641 -0.000759158 0.00162513 2650 
3 1 0.00875467 0.000402897 0.0126254 0.001058 0.0142352 -0.00932944 -0.0092621 2650 
38 1 0.00308205 0.00308003 0.0137339 0.000291 -0.0300402 0.0227875 -0.0736261 2650 
95 1 0.0068925 0.00438251 0.0133246 0.000291 -0.000366951 -0.00495937 0.00220646 2650 
298 1 0.00631486 0.00800854 0.0124936 0.000105 0.012752 -0.00608362 0.00360111 2650 
156 1 0.00246374 0.0119411 0.0130477 0.001058 0.00957299 -0.000303602 -0.00985815 2650 
82 1 0.000755 0.000987868 0.014898 0.001058 0 -0.011755 0 2650 
