ITEM: TIMESTEP
15064417
ITEM: NUMBER OF ATOMS
272
ITEM: BOX BOUNDS ff ff ff
-0.15 0.15
-0.15 0.15
-0.15 0.15
ITEM: ATOMS id type x y z radius vx vy vz density 
261 1 -0.00121594 -0.0318832 -0.0686984 0.000291 -7.3541 0.0728567 0.138795 2650 
248 1 -0.00767691 -0.0263606 -0.0682773 0.000291 -7.65709 -0.240296 0.860146 2650 
207 1 -0.00841369 -0.0109259 -0.0681944 0.000291 -7.64685 0.0600233 0.962075 2650 
280 1 -0.00621677 -0.0301301 -0.0676626 0.001058 -9.72114 0.0780586 0.889834 2650 
197 1 -0.016235 -0.00343306 -0.0667611 0.000291 -8.3083 -0.0724423 2.00765 2650 
26 1 -0.0189111 -0.0447928 -0.0652855 0.001058 -10.3458 -0.0959241 2.95112 2650 
294 1 -0.0262536 -0.0222248 -0.0626779 0.001058 -6.03594 0.525143 2.58541 2650 
88 1 -0.0264737 -0.00541051 -0.0636036 0.000105 -6.01769 -0.462269 2.48208 2650 
164 1 -0.03165 -0.0503769 -0.0601464 0.001058 -8.00271 -0.00998131 4.19261 2650 
14 1 -0.0300117 -0.0280146 -0.061803 0.000291 -9.89491 0.490291 4.80407 2650 
192 1 -0.0324025 -0.000104995 -0.0607972 0.000105 -7.77387 -0.00010481 4.143 2650 
181 1 -0.0356275 -0.0548357 -0.0587499 0.000291 -8.10652 -0.369072 4.90369 2650 
23 1 -0.0339863 -0.0421517 -0.0597325 0.000291 -9.0459 -0.207703 5.14899 2650 
302 1 -0.034581 -0.0194669 -0.0593867 0.000291 -7.85879 0.51279 4.56733 2650 
267 1 -0.0416262 -0.00910216 -0.0546491 0.000291 -6.2441 0.268407 4.83541 2650 
235 1 -0.0411961 -0.00956684 -0.0549575 0.000291 -6.3128 0.128347 4.78067 2650 
119 1 -0.0440287 -0.0430862 -0.0527311 0.000291 -7.89277 -0.259612 6.56313 2650 
277 1 -0.0441004 -0.0206318 -0.052667 0.000291 -6.98105 0.0163217 5.76456 2650 
168 1 -0.046638 -0.0168038 -0.0506493 0.000105 -6.35596 0.482585 5.86349 2650 
76 1 -0.0473488 -0.041286 -0.0487156 0.001058 -6.51379 -0.904135 6.42128 2650 
255 1 -0.0500572 -0.021862 -0.0470634 0.000291 -6.14894 0.0800476 6.53727 2650 
221 1 -0.0503506 -0.0214624 -0.0467502 0.000291 -6.32625 -0.213657 6.81787 2650 
259 1 -0.0510778 -0.0289036 -0.0448083 0.001058 -6.44743 0.141407 7.41728 2650 
6 1 -0.0522541 -0.0198463 -0.0446131 0.000291 -5.32359 0.0363755 6.23369 2650 
296 1 -0.0549783 -0.00253442 -0.0412079 0.000291 -4.53009 0.67605 6.06652 2650 
42 1 -0.0556585 -0.0512354 -0.0389919 0.001058 -6.12674 0.00439221 8.74563 2650 
193 1 -0.056093 -0.048996 -0.0373451 0.00164 -5.87024 0.0130116 8.81752 2650 
148 1 -0.0575837 -0.0470891 -0.0361051 0.001058 -5.70182 -0.00477576 9.09357 2650 
185 1 -0.0560631 -0.0452606 -0.037393 0.00164 -5.89891 -0.0101436 8.84409 2650 
172 1 -0.0584472 -0.0509871 -0.0346833 0.001058 -5.40782 -0.0424508 9.11367 2650 
20 1 -0.0580644 -0.0490023 -0.0353267 0.001058 -5.54799 -0.0373729 9.11825 2650 
81 1 -0.0578208 -0.044764 -0.0346139 0.00164 -5.45042 0.0482469 9.10276 2650 
100 1 -0.0581947 -0.0114876 -0.0351021 0.001058 -4.40046 -0.284003 7.2435 2650 
85 1 -0.061551 -0.0140929 -0.0305886 0.000291 -3.58682 -0.144924 7.23586 2650 
35 1 -0.0615826 -0.0505902 -0.0287551 0.001058 -4.34355 0.0479148 9.32941 2650 
118 1 -0.0624147 -0.0157726 -0.0287874 0.000291 -3.40345 -0.052056 7.36151 2650 
188 1 -0.0624435 -0.0616386 -0.0267894 0.001058 -4.2097 -0.00235677 9.8126 2650 
218 1 -0.0624813 -0.0474749 -0.0267627 0.001058 -4.1558 -0.0164057 9.70576 2650 
247 1 -0.0630078 -0.046286 -0.0274673 0.000291 -4.1986 -0.119665 9.636 2650 
152 1 -0.0632148 -0.0175653 -0.0274497 0.000105 -3.35326 -0.631477 7.71154 2650 
34 1 -0.0631615 -0.0308056 -0.0251057 0.001058 -3.69824 0.157155 9.35549 2650 
229 1 -0.0642123 -0.048839 -0.0222884 0.001058 -3.52199 -0.00905455 10.1419 2650 
210 1 -0.0641366 -0.0365667 -0.0224345 0.001058 -3.35041 0.0432856 9.58504 2650 
43 1 -0.0648959 -0.0442444 -0.0202079 0.001058 -2.94855 0.233841 9.47471 2650 
150 1 -0.0668132 -0.030276 -0.0160267 0.000291 -2.42571 0.690725 10.0945 2650 
135 1 -0.008779 -0.00133636 -0.0131741 0.000291 0.00330025 -0.00264717 0.00636962 2650 
236 1 -0.0670123 -0.059752 -0.011219 0.001058 -1.72179 -0.161104 10.0517 2650 
29 1 -0.0678076 -0.0148881 -0.011027 0.000291 -1.53457 -0.029736 9.4441 2650 
94 1 -0.0115244 -0.000551101 -0.0118234 0.000291 8.5498e-05 -0.0117385 8.5498e-05 2650 
282 1 -0.0681877 -0.023311 -0.00844971 0.000291 -1.15658 -0.230501 9.55796 2650 
276 1 -0.0314651 -0.007969 -0.0089856 0.000291 -4.29042 -0.506778 -1.19757 2650 
208 1 -0.0675711 -0.0191912 -0.00674208 0.001058 -0.96993 0.322572 9.12347 2650 
159 1 -0.012707 -0.000461003 -0.00588 0.000291 0 -0.011755 0 2650 
162 1 -0.0679472 -0.0352485 -0.000146103 0.001058 -0.022423 0.277206 10.2759 2650 
61 1 -0.016439 -0.000743003 -0.001038 0.000291 0 -0.011755 0 2650 
268 1 -0.011054 -0.001881 0.000789 0.000291 0 -0.011755 0 2650 
58 1 -0.0151042 -0.0025898 0.00424317 0.001058 0.0256091 0.000874311 -0.0301938 2650 
291 1 -0.008194 -0.000356003 0.004767 0.000291 0 -0.011755 0 2650 
254 1 -0.0682176 -0.0534141 0.00822347 0.000291 1.29878 0.0816319 10.786 2650 
140 1 -0.0676369 -0.036908 0.00635822 0.001058 0.992937 -0.0992917 10.5591 2650 
186 1 -0.00620761 -0.00226556 0.00659 0.001058 -4.15282e-05 -0.0115536 6.1062e-05 2650 
93 1 -0.0681636 -0.0513249 0.00864307 0.000291 1.35216 -0.0663433 10.6649 2650 
138 1 -0.0673727 -0.0501901 0.00877074 0.001058 1.40254 -0.0916972 10.8074 2650 
146 1 -0.067254 -0.0480848 0.00972074 0.001058 1.53728 0.109018 10.6395 2650 
300 1 -0.0132899 -0.00199933 0.0083293 0.001058 -0.00246489 -0.00748443 -0.0047401 2650 
304 1 -0.012709 -0.001075 0.009818 0.000291 0 -0.011755 0 2650 
55 1 -0.01171 -0.000607003 0.01034 0.000291 0 -0.011755 0 2650 
110 1 -0.00199938 -0.0013771 0.0126375 0.000291 -0.00381615 -0.00836552 -0.0245093 2650 
214 1 -0.0671332 -0.0517631 0.0146217 0.000291 2.3162 -0.0711365 10.6346 2650 
231 1 -0.0659796 -0.0439741 0.0162928 0.001058 2.12258 0.0978303 8.64097 2650 
289 1 -0.0664525 -0.039852 0.0174899 0.000291 2.3791 0.720736 9.03339 2650 
59 1 -0.0647913 -0.0483261 0.0205394 0.001058 3.33368 0.0524454 10.5838 2650 
60 1 -0.064314 -0.0364418 0.0219184 0.001058 2.8377 -0.25525 8.2554 2650 
165 1 -0.064743 -0.044049 0.0230722 0.000291 3.66898 0.662902 10.2925 2650 
49 1 -0.0625599 -0.0469555 0.0250769 0.00164 4.01778 0.154416 10.0332 2650 
179 1 -0.0595995 -0.0490807 0.0326755 0.001058 5.19005 0.0362124 9.46026 2650 
272 1 -0.059286 -0.0222812 0.0332111 0.001058 4.67658 -0.248329 8.27824 2650 
175 1 -0.0588978 -0.00483095 0.0353826 0.000291 4.81117 0.513134 7.99587 2650 
257 1 -0.0563622 -0.047651 0.0379717 0.001058 5.67303 -0.258304 8.41271 2650 
204 1 -0.0561089 -0.0231145 0.0383306 0.001058 5.592 0.200061 8.20242 2650 
13 1 -0.053942 -0.0393157 0.0425611 0.000291 6.58944 0.943393 8.34499 2650 
82 1 -0.0532105 -0.0323541 0.0422564 0.001058 6.48708 0.272695 8.17011 2650 
201 1 -0.0511146 -0.0301602 0.0438854 0.00164 6.5722 0.0643107 7.63408 2650 
98 1 -0.0467086 -0.017451 0.0492991 0.001058 7.14912 0.150126 6.79044 2650 
228 1 -0.048416 -0.00350816 0.0487521 0.000291 6.94539 0.162916 6.89097 2650 
104 1 -0.046159 -0.00189853 0.0511412 0.000105 4.16194 -0.295938 3.78218 2650 
213 1 -0.0426545 -0.0617853 0.0538643 0.000291 4.94432 0.346046 3.89732 2650 
227 1 -0.0437041 -0.0560549 0.0529984 0.000291 4.95699 0.769285 4.08347 2650 
120 1 -0.038183 -0.0236494 0.0573404 0.000105 9.41262 -2.41022 6.24416 2650 
158 1 -0.0372338 -0.0181029 0.0577497 0.000291 6.31612 -0.317024 4.09038 2650 
171 1 -0.0337331 -0.0459599 0.0590057 0.001058 9.37901 -0.495482 5.36101 2650 
90 1 -0.0311457 -0.0524377 0.0604031 0.001058 9.43701 0.0926027 4.86995 2650 
21 1 -0.0277954 -0.0468916 0.0628635 0.000291 9.7788 -0.0659725 4.32265 2650 
303 1 -0.0270165 -0.00261537 0.0631681 0.000291 8.68997 -0.107579 3.71857 2650 
225 1 -0.018293 -0.0447692 0.0654612 0.001058 10.2386 0.00303539 2.86055 2650 
107 1 -0.0187929 -0.0417049 0.0653131 0.001058 10.5532 -0.0665251 3.03854 2650 
295 1 -0.0243787 -0.0360212 0.0642363 0.000291 8.93805 0.566366 3.38569 2650 
133 1 -0.019862 -0.0277231 0.0657699 0.000291 8.19912 -0.344059 2.47922 2650 
285 1 -0.0219934 -0.0254375 0.0642867 0.001058 8.07717 -0.127249 2.75788 2650 
3 1 -0.0226573 -0.0228456 0.0640649 0.001058 6.55605 -0.258651 2.33087 2650 
126 1 -0.0166798 -0.0265602 0.066651 0.000291 8.17044 0.400828 2.04288 2650 
174 1 -0.0180472 -0.0202865 0.066309 0.000291 9.32512 0.250568 2.53858 2650 
223 1 -0.00853543 -0.0159336 0.0674153 0.001058 8.92384 0.393013 1.12639 2650 
132 1 -0.00643239 -0.0163443 0.0676443 0.001058 8.96104 0.269058 0.827249 2650 
18 1 -0.0125275 -0.0135671 0.0667982 0.001058 8.89698 0.201243 1.69153 2650 
200 1 -0.00755135 -0.00400299 0.0684782 0.000105 7.95362 -0.324291 0.867254 2650 
130 1 -0.00414533 0.00166246 -0.0126889 0.001058 -0.00692202 0.00347734 0.00595777 2650 
67 1 -0.00871105 0.0153121 -0.0121829 0.001058 -0.0104976 0.0129104 0.0114407 2650 
157 1 -0.00306808 0.0588939 -0.0139356 0.000291 0.0079085 0.0606548 0.000918149 2650 
74 1 -0.0110307 0.00162042 -0.0105091 0.001058 0.00156258 -0.00569596 -0.00749774 2650 
205 1 -0.00581072 0.0016968 -0.00969476 0.000291 -0.00881861 0.00364628 0.0236275 2650 
80 1 -0.0134313 0.0114495 -0.00898874 0.000105 0.0137546 0.0232676 -0.0199154 2650 
97 1 -0.0109604 0.00564012 -0.00709091 0.00164 0.0106628 0.00973926 -0.0203866 2650 
10 1 -0.0143451 0.00711575 -0.00657028 0.001058 0.0053433 0.0061558 -0.0070677 2650 
244 1 -0.0139602 0.00942797 -0.00730356 0.001058 -0.0461571 0.01724 0.0857392 2650 
114 1 -0.00692005 0.00740123 -0.00484329 0.001058 0.0187062 0.0117361 -0.00752779 2650 
234 1 -0.0127619 0.00958641 -0.00470111 0.000291 -0.00131366 0.00431637 0.0126772 2650 
71 1 -0.000894511 0.00281068 -0.00237904 0.000291 0.000861808 -0.00718564 -0.0173142 2650 
7 1 -0.00432136 0.0271043 -0.00325207 0.000291 0.00378858 0.0136367 -0.000251809 2650 
129 1 -0.00157495 0.00809025 -0.001623 0.00164 0.00825627 0.00147102 -0.0030875 2650 
65 1 -0.013397 0.0246105 -0.00124613 0.00164 -0.00447342 0.0138222 0.00034274 2650 
211 1 -0.0125891 0.00584229 0.00377178 0.001058 0.000982608 0.00314487 0.00709992 2650 
209 1 -0.0155976 0.00878422 0.00215491 0.001058 0.00176304 0.00205682 0.00141262 2650 
266 1 -0.015148 0.0108773 0.00305917 0.001058 0.00237332 0.00196815 0.00196827 2650 
256 1 -0.0160571 0.0156759 0.00340312 0.000291 0.000881351 0.0216623 0.00465977 2650 
115 1 -0.0154671 0.0140464 0.002769 0.001058 0.00236141 0.0122312 0.0092361 2650 
187 1 -0.0155905 0.0223837 0.00272088 0.001058 0.002188 0.0158981 0.0132693 2650 
106 1 -0.00342007 0.0251241 0.00341393 0.001058 0.0119634 0.0223893 -0.0027555 2650 
220 1 -0.0156697 0.0236753 0.00453705 0.000291 0.00769082 0.00953698 0.0062614 2650 
147 1 -0.0138228 0.0354329 0.00759177 0.001058 0.0275772 0.016189 0.0275411 2650 
293 1 -0.0143291 0.0390064 0.00668863 0.001058 0.0434598 0.0220904 0.103505 2650 
217 1 -0.00943536 0.0389161 0.00731711 0.001058 0.000747792 0.0265619 -0.00553463 2650 
68 1 -0.00178198 0.00738468 0.00903167 0.001058 0.00272783 -0.00342387 -0.00169301 2650 
242 1 -0.00251271 0.0282928 0.00917401 0.000291 0.0116924 0.0265357 0.00697501 2650 
124 1 -0.0118733 0.0364086 0.00810521 0.001058 0.0225448 0.0380641 0.0162983 2650 
28 1 -0.0116698 0.0464704 0.00816156 0.001058 0.00734507 0.0503926 0.00344867 2650 
299 1 -0.00769562 0.00254716 0.0123727 0.001058 0.00581403 -0.00322581 0.00124072 2650 
4 1 -0.00956585 0.00842585 0.0125615 0.001058 0.00569435 0.00097307 0.00498712 2650 
198 1 -0.0090249 0.0118359 0.013871 0.000291 -0.0654637 -0.0113329 -0.0490338 2650 
224 1 -0.00834074 0.0147872 0.01247 0.001058 -0.00111942 0.00491513 -0.00282362 2650 
144 1 -0.00662173 0.0190775 0.0124599 0.000105 0.00807853 0.0136784 0.0281765 2650 
250 1 -0.00587788 0.000282038 0.0141294 0.001058 0.0155527 -0.0042124 0.00795816 2650 
170 1 -0.003267 3.59571e-05 0.0143313 0.001058 0.0182293 -0.00571122 0.00927168 2650 
273 1 -0.00293197 0.0430213 0.0142247 0.001058 0.00511 0.0387776 -0.00978519 2650 
154 1 -0.0108233 0.106777 -0.0048629 0.001058 -0.025218 0.0914679 0.0181079 2650 
8 1 0.00191307 -0.0610523 -0.0688666 0.000105 -9.64026 0.185111 -0.268199 2650 
16 1 0.00848203 -0.00626811 -0.0683706 0.000105 -8.45552 -0.203244 -1.04645 2650 
131 1 0.0073734 -0.0507665 -0.0675492 0.001058 -10.5497 0.092156 -1.15152 2650 
108 1 0.0055743 -0.033892 -0.0677152 0.001058 -10.2685 -0.0525018 -0.837372 2650 
239 1 0.0190553 -0.0496889 -0.0652427 0.001058 -10.3229 -0.016154 -3.01543 2650 
30 1 0.0244465 -0.0262705 -0.0642084 0.000291 -9.58949 -0.00285454 -3.65286 2650 
219 1 0.0190412 -0.000290977 -0.0660161 0.000291 -8.61049 9.16268e-05 -2.48634 2650 
230 1 0.023424 -0.0496671 -0.0638042 0.001058 -10.0326 0.0164292 -3.68332 2650 
288 1 0.0256794 -0.0443177 -0.063753 0.000291 -10.0178 0.0976868 -4.03488 2650 
251 1 0.0237283 -0.0311338 -0.06368 0.001058 -9.61461 -0.0400128 -3.56614 2650 
182 1 0.0252277 -0.018421 -0.0639318 0.000291 -7.79373 0.354489 -3.07925 2650 
243 1 0.0276783 -0.0477325 -0.0620825 0.001058 -9.79051 -0.00657993 -4.36478 2650 
191 1 0.0310808 -0.0478498 -0.0613031 0.000291 -9.64233 -0.0252164 -4.88876 2650 
36 1 0.0280205 -0.0454159 -0.061927 0.001058 -9.69793 0.0213003 -4.38937 2650 
121 1 0.029963 -0.0465638 -0.0603708 0.00164 -9.48416 0.00614031 -4.70736 2650 
2 1 0.029638 -0.0439315 -0.0611639 0.001058 -9.65369 -0.0220728 -4.67863 2650 
196 1 0.031029 -0.042492 -0.0604699 0.001058 -9.51687 -0.0431638 -4.88377 2650 
167 1 0.0303011 -0.00839451 -0.061676 0.000291 -7.72928 0.150086 -3.79239 2650 
281 1 0.0346774 -0.0623082 -0.0593296 0.000291 -9.32539 0.0262159 -5.45088 2650 
47 1 0.0385078 -0.00303376 -0.0568996 0.000291 -4.98587 -0.290642 -3.39775 2650 
73 1 0.0394452 -0.0576825 -0.0546138 0.00164 -8.57468 -0.00375691 -6.19319 2650 
173 1 0.0411063 -0.0098894 -0.0550635 0.000291 -6.56441 0.117777 -4.86497 2650 
46 1 0.0438059 -0.0156191 -0.0529358 0.000291 -6.31957 0.41304 -5.23746 2650 
287 1 0.0574487 -0.0409925 -0.0363036 0.001058 -5.53699 0.878818 -8.73326 2650 
96 1 0.0602298 -0.0136087 -0.0334867 0.000105 -3.9123 -0.0339751 -7.04171 2650 
15 1 0.0611688 -0.0187809 -0.0313355 0.000291 -3.88085 0.0874863 -7.6341 2650 
83 1 0.0612453 -0.0479573 -0.0294831 0.001058 -4.66044 -0.0546185 -9.67577 2650 
64 1 0.0629963 -0.0144889 -0.027951 0.000105 -3.3358 -0.398129 -7.49492 2650 
89 1 0.0621583 -0.0611581 -0.025988 0.00164 -4.08724 0.00708241 -9.77532 2650 
24 1 0.0646442 -0.00943642 -0.0238614 0.000105 -1.12638 -0.200611 -3.11242 2650 
215 1 0.0646027 -0.0503043 -0.0211163 0.001058 -3.31782 0.0090488 -10.1512 2650 
264 1 0.0649858 -0.0481973 -0.019915 0.001058 -3.13671 -0.00749113 -10.2353 2650 
84 1 0.0656148 -0.051326 -0.0177105 0.001058 -2.77822 0.0267806 -10.2921 2650 
241 1 0.0663945 -0.0269788 -0.0176718 0.000291 -2.76455 0.400181 -10.3927 2650 
86 1 0.066742 -0.0126875 -0.0163948 0.000291 -1.79296 -0.677017 -7.29979 2650 
87 1 0.00549364 -0.00015749 -0.0141272 0.000291 -0.00318762 -0.017547 -0.0237996 2650 
37 1 0.006156 -0.001043 -0.015157 0.000291 0 -0.011755 0 2650 
109 1 0.0672465 -0.0520319 -0.0141456 0.000291 -2.20087 0.220777 -10.4661 2650 
48 1 0.0675004 -0.00458168 -0.0122276 0.000105 -1.01334 -0.0617357 -3.19524 2650 
252 1 0.00245 -0.002672 -0.01336 0.001058 0 -0.011755 0 2650 
78 1 0.001258 -0.001057 -0.012517 0.000291 0 -0.011755 0 2650 
275 1 0.0128187 -0.00331221 -0.0105697 0.000291 0.267554 -0.0169527 -0.220613 2650 
253 1 0.0683482 -0.0227565 -0.00703665 0.000291 -0.972267 -0.299343 -9.58259 2650 
278 1 7.4e-05 -0.00223 -0.004448 0.001058 0 -0.011755 0 2650 
202 1 0.00763085 -0.00274564 -0.00196141 0.001058 0.0093109 -0.00893593 -0.0136131 2650 
190 1 0.005899 -0.001441 -0.000534 0.000291 0 -0.011755 0 2650 
290 1 0.0687072 -0.0489409 0.000549797 0.000291 0.0860857 0.0246864 -10.5849 2650 
128 1 0.00361 -0.001842 0.000511 0.000105 0 -0.011755 0 2650 
271 1 0.0150192 -0.00168811 0.00302704 0.001058 0.0150184 -0.010407 0.010297 2650 
79 1 0.014214 -0.000840003 0.005058 0.000291 0 -0.011755 0 2650 
269 1 0.0682764 -0.00597154 0.00760013 0.000291 0.921923 -0.164584 -7.98315 2650 
212 1 0.00114824 -0.00333882 0.00624823 0.000291 0.0581157 -0.0247471 0.316241 2650 
145 1 0.00537583 -0.00292173 0.00692533 0.00164 0.00141835 -0.0120886 -0.00168987 2650 
112 1 0.0148365 -0.000810655 0.00749601 0.000105 -0.0366004 -0.016139 -0.0311832 2650 
222 1 0.008526 -0.000792012 0.00839177 0.001058 -0.0154393 0.00359566 0.0347287 2650 
240 1 0.0676469 -0.00953756 0.0120271 0.000291 1.51316 -1.17111 -8.56837 2650 
137 1 0.0653313 -0.0611601 0.0164604 0.00164 2.58546 -8.23985e-07 -10.2617 2650 
99 1 0.0651877 -0.023894 0.0191756 0.001058 0.917994 -0.899065 -3.14479 2650 
103 1 0.0639581 -0.0431463 0.025162 0.000291 4.04264 0.0416699 -10.28 2650 
270 1 0.0619758 -0.00464733 0.0296599 0.000291 2.95836 0.686996 -6.13771 2650 
125 1 0.0612999 -0.0519578 0.0310693 0.000291 4.43722 -0.830363 -8.7778 2650 
226 1 0.0555 -0.0591425 0.0405018 0.000291 5.78978 -0.297644 -7.9395 2650 
178 1 0.0523916 -0.0564527 0.0432668 0.001058 6.79584 0.00460387 -8.22904 2650 
25 1 0.0511759 -0.0587971 0.0438191 0.00164 6.8831 0.00418778 -8.03861 2650 
206 1 0.0505608 -0.0624772 0.0465244 0.000291 7.26527 -0.0715371 -7.89518 2650 
169 1 0.0491527 -0.06116 0.0460792 0.00164 7.2402 -0.000191326 -7.72321 2650 
246 1 0.0496705 -0.0585277 0.0463649 0.001058 7.28328 -0.000140912 -7.80255 2650 
117 1 0.0496398 -0.00820714 0.0475048 0.000291 5.11729 -0.210378 -5.3555 2650 
44 1 0.0434797 -0.0223574 0.0522139 0.001058 6.45455 -0.869446 -5.35882 2650 
177 1 0.0419832 -0.0168235 0.0526913 0.00164 5.58773 0.22856 -4.5559 2650 
39 1 0.040973 -0.0333535 0.0551516 0.000291 8.24568 -0.031916 -6.12233 2650 
22 1 0.0380834 -0.0173324 0.0572069 0.000291 7.10759 0.105597 -4.74608 2650 
141 1 0.0191385 -0.0355546 0.0659874 0.000291 9.60062 0.0287879 -2.77834 2650 
50 1 0.00479911 -0.0335169 0.0677773 0.001058 8.47457 -0.15733 -0.570559 2650 
122 1 0.00197359 -0.0260573 0.0679029 0.001058 8.16803 0.186703 -0.234982 2650 
184 1 0.0150517 -0.0200118 0.0672239 0.000105 7.56157 -0.233698 -1.69094 2650 
45 1 0.00128561 -0.0178109 0.0686721 0.000291 8.47373 0.224557 -0.104141 2650 
102 1 0.00718789 -0.0132767 0.0683179 0.000291 8.59587 0.332612 -0.899518 2650 
40 1 0.00881423 -0.00164923 0.0683276 0.000105 5.32083 0.0681319 -0.666265 2650 
75 1 0.0023035 0.0604187 -0.014297 0.001058 0.0240155 0.0510522 0.00788599 2650 
134 1 0.000673978 0.00588179 -0.0123548 0.000291 -0.0128132 0.00355392 -0.00692922 2650 
33 1 0.000396044 0.0225401 -0.0131879 0.00164 0.00603998 0.0215627 0.00352792 2650 
232 1 0.00578613 0.0250694 -0.0138141 0.001058 -0.0291023 0.0299794 -0.00774462 2650 
301 1 0.00720243 0.0364176 -0.0139084 0.001058 0.00272587 0.0220862 -0.0290146 2650 
286 1 0.0122776 0.0238758 -0.0101273 0.001058 -0.0144844 0.0497942 -0.0202744 2650 
127 1 0.0105623 0.0686252 -0.0108663 0.000291 0.0147798 0.0618117 0.0201086 2650 
260 1 0.00792325 0.00516896 -0.00903783 0.000291 -0.00392275 0.00411325 -0.00447499 2650 
77 1 0.0116875 0.0114913 -0.00953733 0.000291 0.0279429 0.00178097 -0.016803 2650 
153 1 0.00627783 0.00543337 -0.00605219 0.00164 0.00905173 -0.00370467 -0.0193596 2650 
19 1 0.013768 0.00953326 -0.00684034 0.001058 -0.00189711 0.0050805 -0.00113271 2650 
284 1 0.013221 0.0113618 -0.00761699 0.000291 -0.00371053 0.00586111 -0.00129449 2650 
38 1 0.00317508 0.0157356 -0.0042457 0.000291 0.0290333 0.00993382 0.0254358 2650 
123 1 0.0147453 0.0258698 -0.00437823 0.001058 -0.0069266 0.0381635 -0.00768552 2650 
176 1 0.00963343 0.000172341 -0.0024012 0.000105 0.0200199 0.000256501 -0.0124767 2650 
113 1 0.0064627 0.00421946 -0.00210768 0.00164 -0.0251958 0.00978061 -0.000134024 2650 
199 1 0.016054 0.00487956 -0.00278558 0.000291 -0.0066469 0.00203541 -0.00705897 2650 
279 1 0.00922924 0.00635499 -0.0026066 0.001058 0.00690887 -0.00122776 0.0071413 2650 
161 1 0.0137708 0.00611495 -0.00357321 0.00164 -0.000454856 0.00568005 -0.00417258 2650 
203 1 0.00812798 0.0157291 -0.00381575 0.001058 0.0105265 0.0334803 0.00411967 2650 
54 1 0.016111 0.0330897 -0.00245317 0.000291 -0.0134846 -0.000758408 -0.0470633 2650 
292 1 0.0075019 0.0397817 -0.00281607 0.001058 -0.0104367 0.0376087 -0.0291473 2650 
101 1 0.00900259 0.000829494 -0.00117587 0.000291 0.0107852 -0.0015929 -0.0095042 2650 
195 1 0.0156772 0.000361932 -0.00160813 0.001058 -0.00594761 0.00111743 -0.0304826 2650 
1 1 0.0152158 0.00503475 -0.000516099 0.00164 -0.00396175 0.00352346 -0.00443708 2650 
92 1 0.0117265 0.00699892 -0.00168269 0.001058 0.00298746 0.00292354 0.00546929 2650 
194 1 0.0141568 0.0235475 -0.000998468 0.001058 -0.00717738 0.0355954 0.00284246 2650 
258 1 0.0144868 0.025107 0.00053179 0.001058 -0.00702738 0.0458888 -0.00817646 2650 
249 1 0.00292418 0.0295801 0.000993282 0.000291 0.00987628 0.0185258 -0.0129358 2650 
263 1 0.00696581 0.0358788 0.00197429 0.000291 0.0807781 0.0834583 0.0461979 2650 
9 1 0.0137098 0.0229426 0.00271785 0.00164 -0.00067168 0.0470366 0.00650688 2650 
57 1 0.00592122 0.0251673 0.00204072 0.00164 -0.000919831 0.00616449 -0.024056 2650 
52 1 0.00781009 0.0395928 0.00346285 0.001058 0.0258261 0.0380708 0.00407144 2650 
51 1 0.0138512 0.00116027 0.00718821 0.001058 -0.0414136 0.0415048 -0.0353246 2650 
156 1 0.0100865 0.0101803 0.00770801 0.001058 0.0107441 -0.0117541 0.0077951 2650 
105 1 0.00857586 0.0152098 0.00768594 0.00164 0.000597876 0.0137471 0.023702 2650 
139 1 0.0135503 0.0226672 0.00667667 0.001058 -0.0138539 0.00679752 0.0124887 2650 
298 1 0.0118444 0.00407749 0.0095974 0.000105 0.00377194 -0.00442838 -0.00799766 2650 
70 1 0.00386738 0.0358662 0.00925186 0.000291 0.000986621 0.0559838 -0.0454673 2650 
238 1 0.00818056 0.0398172 0.00960921 0.001058 0.0207771 0.0325148 -0.00733364 2650 
116 1 0.00264033 0.0447674 0.00953166 0.001058 -0.0278213 0.0454338 0.0115295 2650 
66 1 0.0102767 0.00819892 0.0117831 0.001058 0.00274751 -0.000835425 -0.00507484 2650 
41 1 9.4833e-05 0.0181082 0.0106563 0.00164 0.0102042 0.00860529 0.0210319 2650 
180 1 0.0126057 0.0614618 0.0108399 0.001058 -0.021353 0.059502 0.0510683 2650 
265 1 0.00876545 0.0104514 0.0120899 0.001058 0.011667 0.00657701 -0.00499144 2650 
17 1 0.00861929 0.041337 0.0125906 0.00164 0.0322327 0.038959 -0.0241657 2650 
95 1 0.00660628 0.000514213 0.0150457 0.000291 -0.000366951 -0.00495937 0.00220646 2650 
245 1 0.00542064 0.0801794 -0.0058435 0.001058 0.013355 0.0538623 -0.0223836 2650 
