ITEM: TIMESTEP
17780933
ITEM: NUMBER OF ATOMS
269
ITEM: BOX BOUNDS ff ff ff
-0.15 0.15
-0.15 0.15
-0.15 0.15
ITEM: ATOMS id type x y z radius vx vy vz density 
22 1 -0.00515734 -0.0227858 -0.0684713 0.000291 -9.01443 -0.107487 0.695501 2650 
96 1 -0.00234639 -0.0113851 -0.0688046 0.000105 -8.40131 0.0680201 0.246493 2650 
37 1 -0.00698203 -0.00909297 -0.0683477 0.000291 -3.06069 -0.258907 0.410535 2650 
102 1 -0.01873 -0.0171494 -0.0661246 0.000291 -8.73637 -0.0925778 2.47853 2650 
78 1 -0.0287122 -0.0307825 -0.0623671 0.000291 -3.25274 -1.39077 1.67952 2650 
208 1 -0.0258977 -0.0247534 -0.0628181 0.001058 -8.98752 0.299114 3.74007 2650 
64 1 -0.0270319 -0.0141977 -0.0633959 0.000105 -7.79823 0.180068 3.32382 2650 
132 1 -0.0266152 -0.0153094 -0.0625433 0.001058 -7.77631 0.0580403 3.29157 2650 
252 1 -0.0293048 -0.0150807 -0.0613301 0.001058 -7.65581 -0.0236051 3.6403 2650 
107 1 -0.0344388 -0.0470385 -0.0585921 0.001058 -9.22076 -0.0861319 5.42013 2650 
190 1 -0.0356635 -0.0141579 -0.0587516 0.000291 -2.99186 -0.257966 1.86208 2650 
88 1 -0.0421348 -0.0189102 -0.054512 0.000105 -6.80855 -0.362655 5.25358 2650 
200 1 -0.0414586 -0.0103201 -0.0550301 0.000105 -7.38356 -0.187142 5.56319 2650 
76 1 -0.0474529 -0.0386215 -0.0486296 0.001058 -7.3037 0.180847 7.13892 2650 
24 1 -0.0491609 -0.000147543 -0.0482659 0.000105 -6.59473 -0.0946983 6.7069 2650 
206 1 -0.0504347 -0.062509 -0.0466622 0.000291 -7.32965 1.86286e-09 7.92223 2650 
169 1 -0.0491321 -0.0611601 -0.0461011 0.00164 -7.24149 4.57207e-07 7.7176 2650 
246 1 -0.0496483 -0.0585276 -0.0463887 0.001058 -7.28689 -1.66622e-05 7.79893 2650 
25 1 -0.0511558 -0.0588 -0.0438425 0.00164 -6.88684 -0.000215667 8.03563 2650 
178 1 -0.0523666 -0.0564515 -0.043297 0.001058 -6.80102 -9.96119e-05 8.22565 2650 
14 1 -0.0583239 -0.0391448 -0.0363319 0.000291 -5.11316 -0.30297 8.21154 2650 
164 1 -0.0581326 -0.0420595 -0.0352029 0.001058 -5.30815 -0.0824355 8.77213 2650 
219 1 -0.0627069 -0.000433564 -0.0280819 0.000291 -3.17424 -0.137777 7.06588 2650 
268 1 -0.0629417 -0.000403118 -0.0275503 0.000291 -3.10402 0.14774 7.08251 2650 
103 1 -0.063853 -0.0513755 -0.0254173 0.000291 -3.8344 -0.333626 9.63775 2650 
30 1 -0.0650584 -0.0310148 -0.0221541 0.000291 -3.34222 0.069826 9.80479 2650 
174 1 -0.0660404 -0.018337 -0.0190254 0.000291 -2.33562 0.184464 8.09177 2650 
137 1 -0.0653236 -0.0611601 -0.0164911 0.00164 -2.59029 -8.1641e-07 10.2605 2650 
226 1 -0.0672808 -0.053298 -0.0139131 0.000291 -2.14568 -0.393241 10.3878 2650 
94 1 -0.0115056 -0.00313355 -0.0118046 0.000291 8.5498e-05 -0.0117385 8.5498e-05 2650 
135 1 -0.00805295 -0.00191873 -0.0117728 0.000291 0.00330025 -0.00264717 0.00636962 2650 
45 1 -0.0683692 -0.0197066 -0.00600367 0.000291 -0.837929 -0.267558 9.21877 2650 
46 1 -0.0684279 -0.0188798 -0.00539114 0.000291 -0.745048 -0.165778 9.2437 2650 
159 1 -0.012707 -0.00304707 -0.00588 0.000291 0 -0.011755 0 2650 
58 1 -0.00999392 -0.00198885 -0.00244848 0.001058 0.020455 0.00490158 -0.0306807 2650 
296 1 -0.0687071 -0.00963575 -0.000436496 0.000291 -0.0642847 -0.175541 8.40936 2650 
61 1 -0.0166097 -0.00339519 -0.00100822 0.000291 -0.0390501 -0.0966791 0.031727 2650 
207 1 -0.0687048 -0.0151876 0.000710759 0.000291 0.089691 -0.0613333 9.12058 2650 
269 1 -0.0686644 -0.01313 0.00241592 0.000291 0.333782 0.0340795 9.65498 2650 
126 1 -0.0684654 -0.0284477 0.00576727 0.000291 0.860075 -0.626133 10.1409 2650 
44 1 -0.0677053 -0.0272796 0.00572231 0.001058 0.821637 -0.513403 9.64971 2650 
85 1 -0.0684259 -0.00864087 0.0062363 0.000291 0.40575 0.213561 4.15336 2650 
291 1 -0.008194 -0.00294207 0.004767 0.000291 0 -0.011755 0 2650 
110 1 -0.00283892 -0.00321749 0.00724548 0.000291 -0.00381615 -0.00836552 -0.0245093 2650 
15 1 -0.0676926 -0.0119659 0.0118321 0.000291 1.59732 0.63032 9.11912 2650 
55 1 -0.01171 -0.00319307 0.01034 0.000291 0 -0.011755 0 2650 
23 1 -0.0672541 -0.0567875 0.0140594 0.000291 2.05032 0.196036 9.81092 2650 
181 1 -0.0675516 -0.0441187 0.0126233 0.000291 1.98715 0.0339489 10.6342 2650 
282 1 -0.0672793 -0.017043 0.0140142 0.000291 2.07284 0.227238 9.88767 2650 
109 1 -0.0669748 -0.0517904 0.0153951 0.000291 2.4225 0.0916116 10.5408 2650 
6 1 -0.0668058 -0.00345447 0.0160472 0.000291 1.91795 0.129472 7.85772 2650 
250 1 -0.00243633 -0.000688571 0.0155519 0.001058 0.0161046 -0.00542442 -0.00110725 2650 
84 1 -0.0656344 -0.0510277 0.0176414 0.001058 2.77226 -0.00585946 10.3144 2650 
290 1 -0.0662509 -0.0474858 0.0182946 0.000291 2.87564 0.0598777 10.4202 2650 
251 1 -0.0654647 -0.033682 0.018188 0.001058 2.70454 0.0415868 9.72042 2650 
264 1 -0.0650518 -0.0470669 0.0197064 0.001058 3.09916 -0.0140915 10.2303 2650 
177 1 -0.06442 -0.0202187 0.0197784 0.00164 2.89312 0.245826 9.43619 2650 
303 1 -0.0661751 -0.0150489 0.0185688 0.000291 2.6463 0.0604943 9.4273 2650 
275 1 -0.0660701 -0.0144814 0.0189399 0.000291 2.72832 0.0843909 9.52597 2650 
241 1 -0.0652557 -0.0342187 0.021495 0.000291 3.41059 0.570641 10.3547 2650 
210 1 -0.0643025 -0.0320069 0.0219505 0.001058 3.20205 0.046632 9.48338 2650 
215 1 -0.063904 -0.0484994 0.0231603 0.001058 3.64032 -0.00596864 10.0442 2650 
277 1 -0.0645616 -0.0442802 0.0235746 0.000291 3.45645 0.0742144 9.47528 2650 
202 1 -0.0633998 -0.0309296 0.0244576 0.001058 3.66402 -0.0796036 9.4316 2650 
214 1 -0.0628997 -0.0550995 0.0276599 0.000291 4.00564 -0.483092 9.1126 2650 
287 1 -0.061912 -0.0464063 0.0280556 0.001058 4.28717 0.0762415 9.47331 2650 
272 1 -0.0611721 -0.0477801 0.0296359 0.001058 4.51627 0.12105 9.32726 2650 
98 1 -0.0615515 -0.0162504 0.028839 0.001058 4.23388 -0.0927528 9.03217 2650 
295 1 -0.0610743 -0.0321524 0.0314736 0.000291 4.38923 -0.058374 8.50624 2650 
276 1 -0.0610226 -0.0289069 0.0315684 0.000291 4.96017 -0.274175 9.58677 2650 
83 1 -0.0595888 -0.0501436 0.0326892 0.001058 5.14162 0.0245221 9.37262 2650 
150 1 -0.059363 -0.0278432 0.0345881 0.000291 5.22398 0.0281986 8.9672 2650 
221 1 -0.0586524 -0.016209 0.0358242 0.000291 4.17936 -0.539325 6.70925 2650 
89 1 -0.0558512 -0.0611601 0.0376809 0.00164 5.91708 4.11644e-06 8.77038 2650 
231 1 -0.0567516 -0.0346544 0.037355 0.001058 5.35492 -0.135768 8.12965 2650 
3 1 -0.0569685 -0.027574 0.0370227 0.001058 5.46956 0.0360255 8.44592 2650 
145 1 -0.0547911 -0.033068 0.0391932 0.00164 5.61039 0.115749 7.85054 2650 
182 1 -0.0556469 -0.0194772 0.0403019 0.000291 5.49943 0.43692 7.6627 2650 
240 1 -0.0552601 -0.0251818 0.040827 0.000291 5.3085 -0.0914708 7.20128 2650 
229 1 -0.0491244 -0.0614166 0.046945 0.001058 7.36297 0.0426383 7.71249 2650 
280 1 -0.0482299 -0.0308793 0.0480569 0.001058 7.54875 1.53496e-05 7.57593 2650 
261 1 -0.0478132 -0.0188619 0.0493433 0.000291 7.71557 0.637531 7.4756 2650 
16 1 -0.0478828 -0.0103678 0.0495337 0.000105 6.30568 0.0231999 6.10459 2650 
133 1 -0.0458372 -0.0232697 0.0511827 0.000291 7.67399 -0.0176408 6.87258 2650 
13 1 -0.0439822 -0.0370818 0.0527693 0.000291 7.39895 -0.117712 6.17348 2650 
204 1 -0.0417911 -0.0312917 0.053576 0.001058 8.53791 -0.0216836 6.66057 2650 
173 1 -0.0424009 -0.0115223 0.054071 0.000291 7.3328 -0.0621691 5.74489 2650 
73 1 -0.0394514 -0.0573382 0.0546093 0.00164 8.54612 0.0112939 6.17431 2650 
285 1 -0.0406593 -0.0282844 0.0544384 0.001058 7.77729 0.174339 5.79551 2650 
196 1 -0.0354104 -0.0454179 0.0580116 0.001058 9.04959 0.0138418 5.52437 2650 
108 1 -0.0369319 -0.036587 0.0570312 0.001058 9.12623 0.0377082 5.90718 2650 
281 1 -0.0344732 -0.0622725 0.0594599 0.000291 9.27624 -0.0650095 5.38155 2650 
2 1 -0.0321043 -0.0454954 0.059908 0.001058 9.41 -0.0349103 5.04287 2650 
99 1 -0.0339934 -0.0440294 0.0588566 0.001058 9.24498 -0.00150576 5.33958 2650 
60 1 -0.0336238 -0.0414785 0.0590611 0.001058 9.30677 0.0196295 5.2982 2650 
223 1 -0.0346725 -0.0213461 0.0584471 0.001058 8.46353 0.0131882 5.05096 2650 
243 1 -0.0283598 -0.0532568 0.061758 0.001058 9.8751 -0.269959 4.53271 2650 
191 1 -0.030153 -0.0511702 0.0617585 0.000291 9.8584 0.0190852 4.81444 2650 
121 1 -0.0296176 -0.0463283 0.0605414 0.00164 9.5153 -0.0154199 4.65511 2650 
259 1 -0.0285845 -0.0275649 0.061638 0.001058 9.49576 -0.217674 4.41047 2650 
18 1 -0.030336 -0.0204009 0.060817 0.001058 9.05666 0.311485 4.54207 2650 
267 1 -0.0296044 -0.0200478 0.0620229 0.000291 8.16142 -0.241419 3.9075 2650 
213 1 -0.0260821 -0.0488888 0.0635914 0.000291 10.4048 0.490886 4.26593 2650 
230 1 -0.0224018 -0.0484481 0.0641741 0.001058 10.0842 0.00027847 3.52014 2650 
36 1 -0.0272139 -0.0435997 0.0622846 0.001058 9.88339 -0.00153416 4.31811 2650 
270 1 -0.0283065 -0.00809858 0.0626156 0.000291 7.11571 -0.00950987 3.20884 2650 
119 1 -0.0233575 -0.0504498 0.0646357 0.000291 10.2295 -0.102191 3.69698 2650 
239 1 -0.0182465 -0.0497827 0.0654722 0.001058 10.2798 -0.014084 2.86496 2650 
288 1 -0.0219205 -0.0470708 0.0651439 0.000291 10.292 -0.00998101 3.46725 2650 
167 1 -0.0237658 -0.0188348 0.0644897 0.000291 8.41388 -0.170356 3.07994 2650 
158 1 -0.0211475 -0.0155651 0.0653982 0.000291 7.88701 0.202447 2.56059 2650 
112 1 -0.0221842 -0.00990108 0.0652396 0.000105 11.6505 -1.96081 3.96303 2650 
131 1 -0.00875202 -0.048279 0.0673883 0.001058 10.5764 -0.0111745 1.37328 2650 
304 1 -0.0108034 -0.0132812 0.0678632 0.000291 3.45272 -0.413338 0.528736 2650 
152 1 -0.00470264 -0.0236315 0.0687319 0.000105 8.59328 -0.0151641 0.587728 2650 
235 1 -0.0616023 -0.0162619 0.0304814 0.000291 4.51195 -0.0706432 9.13058 2650 
232 1 -0.000616295 0.0316648 -0.0155179 0.001058 -0.0291023 0.0299794 -0.00774462 2650 
134 1 -0.00214488 0.00666364 -0.0138792 0.000291 -0.0128132 0.00355392 -0.00692922 2650 
80 1 -0.0104042 0.0165681 -0.0133677 0.000105 0.0200167 0.0220396 -0.007602 2650 
157 1 -0.00132823 0.0722378 -0.0137336 0.000291 0.0079085 0.0606548 0.000918149 2650 
74 1 -0.0103605 0.000422219 -0.0117659 0.001058 0.00552843 -0.00502923 -0.00272883 2650 
130 1 -0.00566816 0.00242747 -0.0113782 0.001058 -0.00692202 0.00347734 0.00595777 2650 
97 1 -0.0086146 0.00778273 -0.0115759 0.00164 0.0106628 0.00973926 -0.0203866 2650 
10 1 -0.0131696 0.00847 -0.00812515 0.001058 0.0053433 0.0061558 -0.0070677 2650 
67 1 -0.0110205 0.0181523 -0.00966595 0.001058 -0.0104976 0.0129104 0.0114407 2650 
71 1 -0.000704915 0.00122986 -0.00618811 0.000291 0.000861808 -0.00718564 -0.0173142 2650 
114 1 -0.00280475 0.00998314 -0.00649938 0.001058 0.0187062 0.0117361 -0.00752779 2650 
205 1 -0.00775079 0.00249897 -0.00449679 0.000291 -0.00881861 0.00364628 0.0236275 2650 
129 1 -0.000307887 0.00893317 -0.00229295 0.00164 -0.00374589 0.0128173 -0.00288427 2650 
7 1 -0.00348788 0.0301044 -0.00330747 0.000291 0.00378858 0.0136367 -0.000251809 2650 
198 1 -0.0165509 0.00864617 -0.0012777 0.000291 0.014641 -0.0177482 -0.0779762 2650 
234 1 -0.0130509 0.010536 -0.00191217 0.000291 -0.00131366 0.00431637 0.0126772 2650 
65 1 -0.0143811 0.0276513 -0.00117072 0.00164 -0.00447342 0.0138222 0.00034274 2650 
106 1 -0.000788157 0.0300497 0.00280773 0.001058 0.0119634 0.0223893 -0.0027555 2650 
209 1 -0.0146823 0.00652806 0.0045449 0.001058 0.00584419 -0.0188996 0.0174994 2650 
211 1 -0.0123729 0.00653415 0.00533374 0.001058 0.000982608 0.00314487 0.00709992 2650 
244 1 -0.0146268 0.0136955 0.00591088 0.001058 0.0147268 0.0226051 0.0350285 2650 
115 1 -0.0149476 0.0167372 0.00480092 0.001058 0.00236141 0.0122312 0.0092361 2650 
256 1 -0.0158633 0.0204416 0.00442826 0.000291 0.000881351 0.0216623 0.00465977 2650 
187 1 -0.0148142 0.0258364 0.00549579 0.001058 0.00500069 0.0154788 0.0119088 2650 
220 1 -0.0137201 0.0261767 0.00663205 0.000291 0.00991537 0.0130183 0.0124552 2650 
217 1 -0.00927085 0.0447596 0.00609951 0.001058 0.000747792 0.0265619 -0.00553463 2650 
68 1 -0.00118187 0.00663144 0.00865922 0.001058 0.00272783 -0.00342387 -0.00169301 2650 
266 1 -0.0127636 0.0122051 0.00873822 0.001058 0.0170435 0.00901701 0.0432948 2650 
28 1 -0.0100539 0.0575566 0.00892026 0.001058 0.00734507 0.0503926 0.00344867 2650 
224 1 -0.00858701 0.0158685 0.0118488 0.001058 -0.00111942 0.00491513 -0.00282362 2650 
124 1 -0.00691347 0.0447826 0.0116908 0.001058 0.0225448 0.0380641 0.0162983 2650 
299 1 -0.00641655 0.00183749 0.0126456 0.001058 0.00581403 -0.00322581 0.00124072 2650 
4 1 -0.0082219 0.00863256 0.0134591 0.001058 0.0064118 0.000915196 0.00341804 2650 
147 1 -0.00775591 0.0389944 0.0136507 0.001058 0.0275772 0.016189 0.0275411 2650 
273 1 -0.00180778 0.0515522 0.0120719 0.001058 0.00511 0.0387776 -0.00978519 2650 
116 1 -0.00348028 0.0547626 0.0120681 0.001058 -0.0278213 0.0454338 0.0115295 2650 
144 1 -0.00413216 0.0218185 0.0151863 0.000105 0.0152864 0.0109644 -0.00695946 2650 
154 1 -0.0163712 0.1269 -0.000879221 0.001058 -0.025218 0.0914679 0.0181079 2650 
227 1 0.00153279 -0.043283 -0.0686912 0.000291 -10.882 -0.0641757 -0.241676 2650 
117 1 0.00258342 -0.0146505 -0.0686592 0.000291 -9.16775 -0.110451 -0.342267 2650 
175 1 0.00671928 -0.0142693 -0.0683819 0.000291 -9.10525 -0.0724394 -0.888729 2650 
21 1 0.0222715 -0.0471685 -0.0650256 0.000291 -10.164 0.0863758 -3.48153 2650 
225 1 0.0184638 -0.0450032 -0.0654132 0.001058 -10.274 -0.00131923 -2.89994 2650 
90 1 0.0230247 -0.0499929 -0.0639502 0.001058 -10.0717 0.0166579 -3.62675 2650 
171 1 0.0248422 -0.0489445 -0.0632666 0.001058 -9.91056 -0.0557157 -3.89128 2650 
100 1 0.0370385 -0.0163813 -0.0569691 0.001058 -8.22264 -0.0217439 -5.34415 2650 
39 1 0.0410751 -0.0358718 -0.0550703 0.000291 -8.68094 0.422369 -6.47729 2650 
278 1 0.0405509 -0.0296035 -0.0545168 0.001058 -6.98146 -0.0186086 -5.20133 2650 
104 1 0.0411271 -0.0040021 -0.0552668 0.000105 -6.5446 0.551972 -4.89666 2650 
122 1 0.0470284 -0.028177 -0.0490233 0.001058 -6.22232 -0.0726278 -5.98895 2650 
125 1 0.0484641 -0.0280913 -0.048704 0.000291 -6.22096 -0.143264 -6.1778 2650 
186 1 0.0529186 -0.021275 -0.0426214 0.001058 -4.62581 -0.0410012 -5.72791 2650 
289 1 0.0555527 -0.0308784 -0.0404352 0.000291 -5.1697 -0.0691596 -7.05925 2650 
87 1 0.00934517 -0.00652439 -0.0398651 0.000291 1.37567 -0.321949 -5.72728 2650 
257 1 0.0588235 -0.0481715 -0.0340498 0.001058 -5.35835 0.0549236 -9.25656 2650 
49 1 0.0599965 -0.04903 -0.030702 0.00164 -4.82842 0.000921455 -9.43512 2650 
165 1 0.0608284 -0.0438239 -0.0319947 0.000291 -5.11341 -0.242494 -9.72156 2650 
179 1 0.0615569 -0.0501974 -0.0288134 0.001058 -4.54799 0.0294482 -9.71741 2650 
59 1 0.0617617 -0.0463911 -0.0283882 0.001058 -4.46148 -0.0244395 -9.70653 2650 
228 1 0.0648301 -0.00171659 -0.0227452 0.000291 -2.90167 -0.279452 -8.23409 2650 
93 1 0.0660673 -0.0501862 -0.0189344 0.000291 -3.00061 0.0098371 -10.4672 2650 
146 1 0.0672193 -0.0488719 -0.00996908 0.001058 -1.56605 0.00864979 -10.5589 2650 
138 1 0.0674636 -0.0546706 -0.00809462 0.001058 -1.27763 -0.014244 -10.6479 2650 
29 1 0.0684109 -0.0115201 -0.00640293 0.000291 -0.680832 -0.436174 -7.1534 2650 
248 1 0.0686892 -0.019464 -0.00160065 0.000291 -0.247063 -0.11374 -10.5794 2650 
79 1 0.0137034 -0.0031278 0.00599214 0.000291 -0.00529203 -0.00866348 0.00968208 2650 
271 1 0.0267084 -0.00633873 0.00755472 0.001058 3.43434 -0.373766 0.9375 2650 
141 1 0.0676903 -0.0345783 0.0117773 0.000291 1.77522 -0.402504 -10.1992 2650 
294 1 0.066796 -0.0266977 0.012436 0.001058 1.92265 0.011939 -10.32 2650 
253 1 0.0677183 -0.0240979 0.0116132 0.000291 1.62475 -0.0205157 -9.58507 2650 
170 1 0.000734814 -0.00118963 0.0158512 0.001058 0.0178138 -0.00502054 -0.00235441 2650 
95 1 0.00542304 -0.000259788 0.0147757 0.000291 -0.0190214 0.000188354 -0.00919676 2650 
247 1 0.0668926 -0.0495604 0.0157656 0.000291 2.47092 -0.176303 -10.4846 2650 
236 1 0.0656738 -0.0616667 0.0174263 0.001058 2.73378 0.00800464 -10.3019 2650 
254 1 0.0622977 -0.0500037 0.0290319 0.000291 4.51912 0.0730827 -9.70934 2650 
218 1 0.0619545 -0.0492593 0.0279586 0.001058 4.39037 0.00510708 -9.72878 2650 
212 1 0.0627009 -0.00428131 0.0280918 0.000291 3.05108 0.072435 -6.77939 2650 
188 1 0.0603894 -0.0615424 0.0311435 0.001058 4.90582 -0.00656885 -9.51271 2650 
197 1 0.0614358 -0.00761061 0.0307819 0.000291 2.5463 -0.134353 -5.15054 2650 
148 1 0.0594989 -0.0529302 0.0328372 0.001058 5.14945 -0.0408072 -9.33027 2650 
35 1 0.059983 -0.0508853 0.0319584 0.001058 5.02285 -0.015752 -9.42843 2650 
43 1 0.0583683 -0.0523435 0.03481 0.001058 5.44971 0.0929718 -9.13763 2650 
20 1 0.0571512 -0.0551847 0.0367585 0.001058 5.75214 -0.0213588 -8.94345 2650 
172 1 0.0561469 -0.0541086 0.0382784 0.001058 6.0104 0.00505353 -8.8156 2650 
193 1 0.0559541 -0.0504814 0.037548 0.00164 5.90296 -0.0544849 -8.79966 2650 
42 1 0.0540774 -0.0541302 0.0411467 0.001058 6.49333 0.011393 -8.5334 2650 
118 1 0.0561793 -0.0158869 0.0395797 0.000291 5.32545 -0.0278115 -7.56035 2650 
81 1 0.0527202 -0.0499476 0.0419526 0.00164 6.56084 -0.00675727 -8.24714 2650 
162 1 0.053605 -0.0469554 0.0417649 0.001058 6.60444 0.00039704 -8.47891 2650 
255 1 0.0534105 -0.0202957 0.0432261 0.000291 5.45153 -0.801979 -6.72777 2650 
185 1 0.0503539 -0.0518122 0.0447544 0.00164 7.02094 0.0266509 -7.89931 2650 
128 1 0.0509218 -0.00895464 0.0464006 0.000105 5.45962 -0.455359 -5.97287 2650 
34 1 0.0480562 -0.030875 0.048229 0.001058 7.57579 -2.12568e-08 -7.54865 2650 
302 1 0.0459098 -0.0437865 0.0510501 0.000291 4.41232 -2.03434 -3.95669 2650 
48 1 0.046429 -0.0430276 0.0508259 0.000105 7.83518 -0.33247 -7.15639 2650 
192 1 0.0463072 -0.000105323 0.0510078 0.000105 6.48279 0.00744443 -5.89118 2650 
40 1 0.046399 -0.000346528 0.0509246 0.000105 6.42742 -0.0652918 -5.88049 2650 
82 1 0.0360435 -0.035291 0.0575967 0.001058 8.77061 -0.0591521 -5.48704 2650 
300 1 0.0365088 -0.0210861 0.057308 0.001058 4.04886 -0.300978 -2.52996 2650 
47 1 0.0397021 -0.0130899 0.0560718 0.000291 6.69204 -0.257234 -4.74308 2650 
184 1 0.0309984 -0.0235994 0.0615301 0.000105 7.23873 0.108356 -3.66507 2650 
26 1 0.0171911 -0.0494743 0.0657569 0.001058 10.3233 -0.00649424 -2.69884 2650 
168 1 0.0219517 -0.00370413 0.0652987 0.000105 8.36921 -0.0311271 -2.82202 2650 
86 1 0.0152336 -0.0525814 0.0670093 0.000291 9.66153 -0.0501016 -2.19846 2650 
140 1 0.0137519 -0.0453398 0.0665567 0.001058 9.82849 -0.049856 -2.02736 2650 
201 1 0.00690322 -0.038042 0.0670185 0.00164 9.8047 -0.167893 -1.00489 2650 
50 1 0.00745581 -0.030526 0.067539 0.001058 9.96881 -0.0974243 -1.0977 2650 
260 1 0.00798051 0.00638673 -0.0124848 0.000291 0.00264513 0.00634623 -0.0220501 2650 
33 1 0.00172482 0.0272838 -0.0124118 0.00164 0.00603998 0.0215627 0.00352792 2650 
286 1 0.0082501 0.0346678 -0.0135521 0.001058 -0.02115 0.0482903 -0.0107899 2650 
301 1 0.00355155 0.0400723 -0.013465 0.001058 -0.0176549 0.0163122 0.00371725 2650 
75 1 0.00758683 0.07165 -0.0125621 0.001058 0.0240155 0.0510522 0.00788599 2650 
153 1 0.00826404 0.0046166 -0.0102975 0.00164 0.00901504 -0.00371715 -0.0192614 2650 
54 1 0.0115714 0.0328862 -0.0118548 0.000291 -0.0306339 -0.00115888 -0.0366828 2650 
195 1 0.0135914 0.000712435 -0.00803073 0.001058 -0.0182689 0.00246922 -0.0247001 2650 
77 1 0.0111188 0.0117362 -0.00863695 0.000291 -0.0117356 0.000913058 0.0103562 2650 
292 1 0.00520586 0.0480555 -0.00922839 0.001058 -0.0104367 0.0376087 -0.0291473 2650 
19 1 0.0133506 0.010651 -0.00708953 0.001058 -0.00189711 0.0050805 -0.00113271 2650 
284 1 0.0124047 0.0126512 -0.00790178 0.000291 -0.00371053 0.00586111 -0.00129449 2650 
123 1 0.0132214 0.0342656 -0.00606903 0.001058 -0.0069266 0.0381635 -0.00768552 2650 
176 1 0.0140377 0.000228771 -0.00514604 0.000105 0.0200199 0.000256501 -0.0124767 2650 
199 1 0.0145917 0.00532734 -0.00433854 0.000291 -0.0066469 0.00203541 -0.00705897 2650 
161 1 0.0136707 0.00736454 -0.00449116 0.00164 -0.000454856 0.00568005 -0.00417258 2650 
101 1 0.0113753 0.000479062 -0.00326677 0.000291 0.0107852 -0.0015929 -0.0095042 2650 
113 1 0.001469 0.00585187 -0.00214646 0.00164 -0.0131936 -0.00156564 -0.00033725 2650 
203 1 0.0104438 0.0230947 -0.00290943 0.001058 0.0105265 0.0334803 0.00411967 2650 
57 1 0.00571886 0.0265235 -0.00325152 0.00164 -0.000919831 0.00616449 -0.024056 2650 
1 1 0.0143442 0.0058099 -0.00149224 0.00164 -0.00396175 0.00352346 -0.00443708 2650 
279 1 0.0107492 0.00608488 -0.00103553 0.001058 0.00690887 -0.00122776 0.0071413 2650 
92 1 0.0123838 0.00764209 -0.000479461 0.001058 0.00298746 0.00292354 0.00546929 2650 
51 1 0.00474038 0.0102912 -0.000583105 0.001058 -0.0414136 0.0415048 -0.0353246 2650 
194 1 0.0125778 0.0313784 -0.000373134 0.001058 -0.00717738 0.0355954 0.00284246 2650 
249 1 0.00509693 0.0336557 -0.00185255 0.000291 0.00987628 0.0185258 -0.0129358 2650 
258 1 0.0129408 0.0352024 -0.00126701 0.001058 -0.00702738 0.0458888 -0.00817646 2650 
70 1 0.00408444 0.0481825 -0.000750806 0.000291 0.000986621 0.0559838 -0.0454673 2650 
38 1 0.00956231 0.017921 0.0013501 0.000291 0.0290333 0.00993382 0.0254358 2650 
263 1 0.0112126 0.0523494 0.00289613 0.000291 -0.0276857 0.0691876 -0.0511194 2650 
9 1 0.013562 0.0332905 0.00414935 0.00164 -0.00067168 0.0470366 0.00650688 2650 
52 1 0.0134432 0.0478063 0.00414456 0.001058 0.020942 0.0217799 -0.017467 2650 
298 1 0.0126742 0.00310326 0.00783793 0.000105 0.00377194 -0.00442838 -0.00799766 2650 
238 1 0.0124491 0.0464296 0.00755201 0.001058 0.0185997 0.0286204 -0.0105297 2650 
17 1 0.0139606 0.0497536 0.00601771 0.00164 0.0189517 0.0416154 -0.0283102 2650 
156 1 0.0125037 0.00759819 0.00935178 0.001058 0.0124006 -0.0116374 0.00559452 2650 
139 1 0.0105025 0.0241626 0.00942416 0.001058 -0.0138539 0.00679752 0.0124887 2650 
66 1 0.0108276 0.00801136 0.0107378 0.001058 0.00109107 -0.000952032 -0.00287426 2650 
265 1 0.0113322 0.0118983 0.0109918 0.001058 0.011667 0.00657701 -0.00499144 2650 
242 1 5.95799e-05 0.0341306 0.0107085 0.000291 0.0116924 0.0265357 0.00697501 2650 
222 1 0.00415651 6.08267e-05 0.0134055 0.001058 -0.0324875 0.00467874 -0.0112895 2650 
105 1 0.00851673 0.0181945 0.0126358 0.00164 -0.0169664 0.0100977 -0.000660089 2650 
41 1 0.00231209 0.0199671 0.0150213 0.00164 0.0068016 0.00438666 -0.0112207 2650 
293 1 0.00600677 0.0426276 0.0145899 0.001058 0.0987544 0.00952933 -0.0422638 2650 
245 1 0.00835871 0.092029 -0.0107678 0.001058 0.013355 0.0538623 -0.0223836 2650 
127 1 0.0138138 0.0822236 -0.00644243 0.000291 0.0147798 0.0618117 0.0201086 2650 
