ITEM: TIMESTEP
6173902
ITEM: NUMBER OF ATOMS
299
ITEM: BOX BOUNDS ff ff ff
-0.15 0.15
-0.15 0.15
-0.15 0.15
ITEM: ATOMS id type x y z radius vx vy vz density 
213 1 -0.00432239 -0.00452834 -0.0685709 0.000291 -3.21805 -0.0329649 0.194866 2650 
15 1 -0.0182465 -0.0107545 -0.0662581 0.000291 -5.51978 -0.224452 1.50165 2650 
255 1 -0.0220894 -0.0109822 -0.0650785 0.000291 -4.22177 0.00401078 1.42745 2650 
133 1 -0.0238944 -0.0098961 -0.0644358 0.000291 -6.77409 -0.368614 2.52072 2650 
146 1 -0.0262979 -0.04924 -0.0626761 0.001058 -8.15079 -0.0260076 3.40387 2650 
109 1 -0.033461 -0.0559447 -0.0600088 0.000291 -6.40992 -0.103685 3.56681 2650 
179 1 -0.0289073 -0.0487277 -0.0615151 0.001058 -7.96935 -0.0184017 3.76344 2650 
151 1 -0.0390276 -0.0295436 -0.0565479 0.000291 -5.50699 0.0653938 3.80073 2650 
131 1 -0.0390047 -0.0242746 -0.0556368 0.001058 -6.1322 -0.0489338 4.28853 2650 
280 1 -0.0407633 -0.0184524 -0.0543461 0.001058 -6.07332 -0.0504691 4.50693 2650 
218 1 -0.0420759 -0.0273745 -0.0533489 0.001058 -5.74282 -0.022619 4.53945 2650 
264 1 -0.0477719 -0.0593479 -0.0483156 0.001058 -3.72638 0.295808 3.6522 2650 
90 1 -0.0491908 -0.0538075 -0.0468687 0.001058 -6.15952 0.1684 6.42458 2650 
149 1 -0.0562184 -0.0311 -0.0394997 0.000291 -2.71807 0.262712 3.62966 2650 
42 1 -0.0595133 -0.0488427 -0.032831 0.001058 -2.80084 0.0323374 5.12349 2650 
225 1 -0.0603661 -0.0383657 -0.0311955 0.001058 -2.72918 0.159287 5.3467 2650 
23 1 -0.0612041 -0.0128042 -0.0312684 0.000291 -3.0282 -0.817998 5.89482 2650 
241 1 -0.0629498 -0.0440186 -0.0275894 0.000291 -2.17877 -0.930319 4.99196 2650 
138 1 -0.0656565 -0.0347338 -0.0174846 0.001058 -2.14276 0.032998 8.03564 2650 
214 1 -0.0668369 -0.0186962 -0.015235 0.000291 -1.40638 -0.938459 3.0038 2650 
297 1 -0.067646 -0.0235213 -0.01202 0.000291 -1.32202 -0.00628923 7.59865 2650 
295 1 -0.006507 -0.00250842 -0.01264 0.000291 0 -0.011755 0 2650 
108 1 -0.00660168 -0.00227372 -0.00932682 0.001058 0.00190399 -0.0137697 -0.00130751 2650 
135 1 -0.00541715 -0.000194432 -0.00524201 0.000291 -0.0060505 -0.00140209 -0.0140303 2650 
76 1 -0.00171757 -0.00118504 -0.00552735 0.001058 0.00563223 -0.0106236 0.000699054 2650 
283 1 -0.0686322 -0.0343952 -0.00320196 0.000291 -0.371431 0.493127 7.95168 2650 
40 1 -0.0688808 -0.00737751 -0.000972016 0.000105 0.0373127 0.0860656 4.1257 2650 
14 1 -0.006378 -0.00118442 0.001478 0.000291 0 -0.011755 0 2650 
296 1 -0.005879 -0.000706422 0.000521 0.000291 0 -0.011755 0 2650 
97 1 -0.0137338 -0.00039114 0.00402279 0.00164 0.00016333 0.00117645 -0.00616736 2650 
73 1 -0.0664093 -0.0518151 0.0111836 0.00164 1.55412 -0.032196 9.12496 2650 
167 1 -0.0677037 -0.023388 0.0117312 0.000291 1.2784 -0.141482 7.42112 2650 
251 1 -0.0074595 -0.0016783 0.0118302 0.001058 0.00250988 -0.0244938 -0.0113208 2650 
233 1 -0.001796 -0.00126742 0.010436 0.000291 0 -0.011755 0 2650 
226 1 -0.009224 -0.000295422 0.012787 0.000291 0 -0.011755 0 2650 
29 1 -0.0074924 -0.00275556 0.0147014 0.000291 0.0110893 -0.0146728 -0.00379839 2650 
165 1 -0.0660813 -0.0151971 0.0188999 0.000291 2.00016 -0.250159 7.01776 2650 
39 1 -0.0658345 -0.0103804 0.0197197 0.000291 2.19419 -0.334621 7.33163 2650 
49 1 -0.0237516 -0.00930931 0.020139 0.00164 -3.26194 -0.545382 2.85623 2650 
22 1 -0.0652002 -0.016634 0.021751 0.000291 2.54985 -0.37139 7.626 2650 
30 1 -0.0618527 -0.00433407 -0.0299109 0.000291 -1.71993 -0.296172 3.59527 2650 
5 1 -0.0607245 -0.0212819 0.0321725 0.000291 2.83831 -0.0349802 5.36521 2650 
84 1 -0.0599106 -0.0177718 0.0321002 0.001058 4.06262 0.0411542 7.59154 2650 
158 1 -0.0608443 -0.0138332 0.0319687 0.000291 3.97044 0.258834 7.56548 2650 
122 1 -0.0573097 -0.00476115 0.0365005 0.001058 1.95736 0.158236 3.08802 2650 
173 1 -0.053741 -0.0164353 0.042816 0.000291 2.32539 0.0658209 2.94818 2650 
8 1 -0.0536586 -0.00758309 0.043211 0.000105 2.63664 0.0334329 3.25727 2650 
302 1 -0.0519991 -0.0166342 0.0449111 0.000291 2.6834 0.104093 3.09989 2650 
34 1 -0.0408647 -0.0217392 0.054264 0.001058 7.0474 0.13994 5.33768 2650 
56 1 -0.04302 -0.0201808 0.0537771 0.000105 3.16615 -0.106896 1.99676 2650 
43 1 -0.0377691 -0.0282746 0.0564747 0.001058 6.8636 -0.227767 4.57011 2650 
206 1 -0.0367427 -0.0130542 0.0580691 0.000291 6.21007 1.97745 3.90391 2650 
89 1 -0.0182335 -0.0503386 0.064874 0.00164 9.37942 -0.0659567 2.65086 2650 
162 1 -0.0100615 -0.0140286 0.0672072 0.001058 7.11579 -0.416288 1.08558 2650 
32 1 -0.00236932 -0.0170054 0.0688524 0.000105 3.55271 -0.191362 0.152974 2650 
141 1 -0.00137091 -0.0147428 0.0686947 0.000291 4.36888 -0.348089 0.0840557 2650 
198 1 -0.0010935 0.00604534 -0.0163919 0.000291 0.0998745 0.026403 -0.00405432 2650 
85 1 -0.003548 0.000974578 -0.015444 0.000291 0 -0.011755 0 2650 
203 1 -0.00468027 0.00315283 -0.014913 0.001058 -0.0193741 -0.0144259 -0.10465 2650 
70 1 -0.002345 0.00277658 -0.015511 0.000291 0 -0.011755 0 2650 
33 1 -0.00374889 0.00666369 -0.0131834 0.00164 0.00499126 0.02337 -0.00956389 2650 
155 1 -0.00812893 0.0132253 -0.0120175 0.001058 0.04057 0.188533 0.00265111 2650 
157 1 -0.00809744 0.0151044 -0.0137029 0.000291 -0.00207055 0.0624285 -0.0124977 2650 
127 1 -0.00972928 0.0225879 -0.0128038 0.000291 0.0331404 0.0647284 -0.0037516 2650 
47 1 -0.0120127 0.00345272 -0.0107684 0.000291 -0.00617568 -0.0113964 -0.000259454 2650 
234 1 -0.00796952 0.00622514 -0.0108656 0.000291 -0.02134 0.00563614 -0.0027496 2650 
94 1 -0.011581 0.00790158 -0.01188 0.000291 0 -0.011755 0 2650 
180 1 -0.00516068 0.0121927 -0.0103849 0.001058 0.0584365 0.0813871 -0.0401553 2650 
175 1 -0.013247 0.00346458 -0.008751 0.000291 0 -0.011755 0 2650 
115 1 -0.013245 0.00870671 -0.00861681 0.001058 -0.0157945 0.0244377 0.0292778 2650 
163 1 -0.000573498 0.0109659 -0.00819083 0.001058 0.164238 0.19616 0.0792721 2650 
250 1 -0.0114828 0.002459 -0.00642561 0.001058 0.00273404 -0.00245883 0.0388004 2650 
17 1 -0.00994714 0.00778947 -0.00641278 0.00164 -0.00279267 0.0548111 0.0673045 2650 
144 1 -0.0124383 0.00922906 -0.0078272 0.000105 0.00807853 0.0136784 0.0281765 2650 
187 1 -0.0141881 0.0111767 -0.00665173 0.001058 -0.0111994 -0.00330196 -0.00320464 2650 
276 1 -0.013674 0.00500858 -0.004231 0.000291 0 -0.011755 0 2650 
74 1 -0.0121558 0.0057215 -0.00511072 0.001058 0.00156258 -0.00569596 -0.00749774 2650 
240 1 -0.010392 0.00406658 -0.005262 0.000291 0 -0.011755 0 2650 
159 1 -0.012707 0.00800258 -0.00588 0.000291 0 -0.011755 0 2650 
256 1 -0.0153247 0.0109121 -0.00597157 0.000291 -0.0131776 -0.000400876 -0.00491363 2650 
41 1 -0.00725214 0.0119124 -0.00448664 0.00164 0.0102042 0.00860529 0.0210319 2650 
220 1 -0.0144784 0.0167269 -0.004822 0.000291 0.00605419 0.00724476 0.0145131 2650 
274 1 -0.016349 0.00187358 -0.002509 0.000291 0 -0.011755 0 2650 
13 1 -0.014201 0.00410858 -0.003882 0.000291 0 -0.011755 0 2650 
104 1 -0.014089 0.00479058 -0.003012 0.000105 0 -0.011755 0 2650 
114 1 -0.0123981 0.00482239 -0.00301434 0.001058 0.00263798 -7.05089e-05 -0.000306371 2650 
10 1 -0.0143678 0.00758576 -0.00230496 0.001058 -0.00603352 -0.00346171 -0.00631144 2650 
7 1 -0.00704913 0.017286 -0.00307077 0.000291 0.00378858 0.0136367 -0.000251809 2650 
75 1 -0.0131769 0.0211529 -0.00227378 0.001058 0.0206685 0.0556886 -0.0248334 2650 
136 1 -0.00516071 0.0605336 -0.00376071 0.000105 0.0375902 0.10168 0.0199891 2650 
211 1 -0.0133043 0.0034036 -0.00141412 0.001058 0.00124469 0.00903567 0.0095983 2650 
209 1 -0.0131278 0.00567771 -0.000512741 0.001058 -0.00441841 -0.000242019 0.00251594 2650 
61 1 -0.016439 0.00772058 -0.001038 0.000291 0 -0.011755 0 2650 
87 1 -0.00923323 0.0074634 -0.000497195 0.000291 0.0457248 -0.00314239 -0.013726 2650 
123 1 -0.00307806 0.00696141 -0.00197732 0.001058 0.0354386 0.020018 -0.000637314 2650 
65 1 -0.010213 0.0147522 -0.00165006 0.00164 -0.00348018 0.0119066 0.00345508 2650 
273 1 -0.00123042 0.0149513 -0.0015212 0.001058 -0.00402366 0.037385 0.0311551 2650 
191 1 -0.0108 0.000147578 0.001549 0.000291 0 -0.011755 0 2650 
168 1 -0.007536 0.00115858 0.001389 0.000105 0 -0.011755 0 2650 
120 1 -0.016055 0.00336058 0.000189 0.000105 0 -0.011755 0 2650 
80 1 -0.014935 0.00605858 0.00039 0.000105 0 -0.011755 0 2650 
268 1 -0.011054 0.00658258 0.000789 0.000291 0 -0.011755 0 2650 
129 1 -0.00776707 0.00725088 0.00150416 0.00164 0.00886763 0.000928435 -0.00531986 2650 
52 1 -0.0105821 0.0118147 0.00112291 0.001058 0.0218461 0.0452836 -0.00754698 2650 
292 1 -0.000394346 0.0098871 0.000395599 0.001058 0.0469404 0.0480946 0.0370303 2650 
18 1 -0.005138 0.000352578 0.00212 0.001058 0 -0.011755 0 2650 
98 1 -0.00189936 0.000629126 0.00393367 0.001058 -0.000872989 -0.0147225 -0.00989819 2650 
99 1 -0.00836873 0.00457238 0.0025521 0.001058 0.024382 -0.0114171 0.00238034 2650 
176 1 -0.003983 0.00469758 0.002552 0.000105 0 -0.011755 0 2650 
77 1 -0.00843139 0.010209 0.00256081 0.000291 0.0279429 0.00178097 -0.016803 2650 
53 1 -0.000389 0.00143558 0.004762 0.000291 0 -0.011755 0 2650 
164 1 -0.003894 0.00373358 0.005467 0.001058 0 -0.011755 0 2650 
106 1 -0.0120999 0.00894549 0.00538537 0.001058 0.0124054 0.0227789 -0.00267195 2650 
291 1 -0.008194 0.00810758 0.004767 0.000291 0 -0.011755 0 2650 
124 1 -0.0152329 0.010351 0.00436685 0.001058 0.00384348 0.0457947 0.00885916 2650 
28 1 -0.0134412 0.0126172 0.00527165 0.001058 0.00069719 0.0289887 -0.00109375 2650 
242 1 -0.00774982 0.0119911 0.0047534 0.000291 -0.00954886 0.00781474 0.00295974 2650 
170 1 -0.010849 0.00381661 0.00694899 0.001058 0.00672221 -0.00141463 0.0184147 2650 
266 1 -0.0141503 0.00615702 0.00700992 0.001058 -0.00293207 0.00740435 -0.00807451 2650 
186 1 -0.00617771 0.00605301 0.00654604 0.001058 -4.15282e-05 -0.0115536 6.1062e-05 2650 
153 1 -0.000239404 0.00810073 0.00788668 0.00164 0.00905173 -0.00370467 -0.0193596 2650 
54 1 -0.00985678 0.0260296 0.00644841 0.000291 0.0409131 0.0218291 0.0638832 2650 
58 1 -0.0117697 0.00186203 0.00978875 0.001058 0.00939797 -0.00814862 -0.00719036 2650 
126 1 -0.000950081 0.00475117 0.00899484 0.000291 -0.00909177 -0.0182309 -0.0255133 2650 
4 1 -0.013323 0.00770402 0.00852082 0.001058 0.00473149 0.00103266 0.00625096 2650 
304 1 -0.012709 0.00738858 0.009818 0.000291 0 -0.011755 0 2650 
300 1 -0.0111093 0.00329814 0.0112036 0.001058 -0.00299904 -0.00576017 -0.00123426 2650 
299 1 -0.010562 0.00582958 0.010709 0.001058 0 -0.011755 0 2650 
200 1 -0.000943772 0.00454615 0.0109881 0.000105 0.290958 -0.0356804 0.276816 2650 
55 1 -0.01171 0.00785658 0.01034 0.000291 0 -0.011755 0 2650 
68 1 -0.00374601 0.00984986 0.0102506 0.001058 0.00272783 -0.00342387 -0.00169301 2650 
71 1 -0.00151501 0.00798433 0.0100872 0.000291 0.000861808 -0.00718564 -0.0173142 2650 
249 1 -0.00418673 0.0162416 0.010307 0.000291 0.00987628 0.0185258 -0.0129358 2650 
217 1 -0.00997377 0.0197916 0.011302 0.001058 0.000747792 0.0265619 -0.00553463 2650 
245 1 -0.00419496 0.0413987 0.0102727 0.001058 0.013355 0.0538623 -0.0223836 2650 
293 1 -0.00620942 0.00107218 0.0128059 0.001058 0.125432 0.0939332 0.356254 2650 
285 1 -0.00906145 0.00328072 0.0128864 0.001058 -0.00798287 -0.013356 -0.00552209 2650 
224 1 -0.0069181 0.011101 0.0133312 0.001058 -0.00376938 0.00554818 0.00221201 2650 
238 1 -0.0064815 0.0162712 0.013678 0.001058 0.0105136 0.0371874 0.0344704 2650 
288 1 0.00534869 -0.0172889 -0.0685005 0.000291 -7.6834 0.33791 -0.606293 2650 
197 1 0.00329574 -0.00767463 -0.0686278 0.000291 -3.35538 -0.198687 -0.182887 2650 
36 1 0.0106792 -0.0290216 -0.0670976 0.001058 -8.3295 0.0769268 -1.31141 2650 
148 1 0.0184347 -0.0349133 -0.0653952 0.001058 -8.53236 -0.0730786 -2.41275 2650 
243 1 0.0240486 -0.0380605 -0.0635508 0.001058 -5.89166 0.146735 -2.19783 2650 
182 1 0.0262401 -0.00223392 -0.0634953 0.000291 -4.79293 -0.0468454 -2.00786 2650 
236 1 0.027492 -0.0494709 -0.0621587 0.001058 -8.35183 -0.0348378 -3.65894 2650 
44 1 0.0280191 -0.0221587 -0.0619115 0.001058 -4.65247 -0.127649 -2.06422 2650 
169 1 0.0323846 -0.0544414 -0.0590847 0.00164 -8.86589 0.0879269 -4.85872 2650 
254 1 0.0381961 -0.0286674 -0.0571083 0.000291 -3.0039 -0.274386 -2.0163 2650 
2 1 0.0377385 -0.0249492 -0.0565038 0.001058 -6.61655 -0.00720753 -4.41046 2650 
111 1 0.0484753 -0.0483433 -0.0486925 0.000291 -6.81672 0.376998 -6.78088 2650 
235 1 0.0479336 -0.0171114 -0.0492246 0.000291 -2.95741 -0.181024 -2.86795 2650 
172 1 0.0588989 -0.0393915 -0.0338928 0.001058 -4.2022 -0.0318762 -7.35763 2650 
185 1 0.0588494 -0.0336702 -0.0327872 0.00164 -4.15719 -0.0299539 -7.32886 2650 
83 1 0.0586484 -0.0305588 -0.0343068 0.001058 -4.20146 0.0664402 -7.32514 2650 
152 1 0.0616889 -0.012039 -0.0307198 0.000105 -2.42538 0.103397 -4.90462 2650 
188 1 0.0642849 -0.0616781 -0.0220013 0.001058 -2.91753 -0.0288232 -8.48268 2650 
140 1 0.0658027 -0.0239027 -0.016947 0.001058 -1.98584 -0.0742248 -7.90186 2650 
303 1 0.001598 -0.000605422 -0.015917 0.000291 0 -0.011755 0 2650 
46 1 0.007499 -0.00116842 -0.014091 0.000291 0 -0.011755 0 2650 
237 1 0.005321 -0.00190542 -0.012467 0.001058 0 -0.011755 0 2650 
259 1 0.00622335 -0.00245485 -0.0103305 0.001058 -0.000549325 -0.010947 -0.00390661 2650 
196 1 0.002599 -0.000612422 -0.011929 0.001058 0 -0.011755 0 2650 
239 1 0.0677862 -0.0456434 -0.0046797 0.001058 -0.556276 -0.0304882 -8.36676 2650 
178 1 0.00355178 -0.00187597 -0.00520118 0.001058 -0.000609858 -0.0102344 0.00251423 2650 
290 1 0.0685717 -0.0435482 -0.0043214 0.000291 -0.510776 -0.038042 -7.86914 2650 
119 1 0.0686449 -0.042255 -0.00291092 0.000291 -0.300871 1.01281 -7.30649 2650 
171 1 0.000459 -0.00276342 -0.002783 0.001058 0 -0.011755 0 2650 
270 1 0.000715891 -0.000562011 -0.00300901 0.000291 0.0186853 -0.00788795 0.00123148 2650 
88 1 0.002864 -0.00105342 -0.002457 0.000105 0 -0.011755 0 2650 
6 1 0.00451144 -0.00335324 -0.00178998 0.000291 0.281222 -0.0280826 -0.111579 2650 
205 1 0.00309911 -0.000249449 -0.00117528 0.000291 -0.0110629 -0.00953223 0.00618698 2650 
183 1 0.01481 -0.00269042 0.000242 0.000291 0 -0.011755 0 2650 
277 1 0.015014 -0.00231242 0.001212 0.000291 0 -0.011755 0 2650 
96 1 0.009869 -0.000923422 0.000788 0.000105 0 -0.011755 0 2650 
143 1 0.013105 -0.00222342 0.003332 0.000291 0 -0.011755 0 2650 
223 1 0.0060883 -0.000366764 0.00333446 0.001058 0.0245989 -0.00855677 0.00804702 2650 
210 1 0.010971 -0.000230422 0.002357 0.001058 0 -0.011755 0 2650 
267 1 0.007574 -0.00312642 0.005778 0.000291 0 -0.011755 0 2650 
305 1 0.007934 -0.00238442 0.005234 0.000105 0 -0.011755 0 2650 
50 1 0.006699 -0.00114342 0.005883 0.001058 0 -0.011755 0 2650 
150 1 0.010064 -0.00104242 0.004311 0.000291 0 -0.011755 0 2650 
118 1 0.001179 -0.00296142 0.007467 0.000291 0 -0.011755 0 2650 
174 1 0.002361 -0.00139042 0.006466 0.000291 0 -0.011755 0 2650 
247 1 0.0682117 -0.0543416 0.0082477 0.000291 1.03043 -0.573726 -8.13458 2650 
59 1 0.00484542 -0.000682709 0.00916943 0.001058 -0.0200783 -0.00967864 -0.0506056 2650 
228 1 0.010294 -0.00188142 0.01009 0.000291 0 -0.011755 0 2650 
3 1 0.00955861 -5.54517e-05 0.012668 0.001058 -0.00211489 -0.0052299 0.000123346 2650 
132 1 0.0645423 -0.0138925 0.0212966 0.001058 1.95336 -0.0659475 -5.90023 2650 
21 1 0.0605104 -0.047333 0.0325981 0.000291 4.5052 -0.204968 -8.39413 2650 
93 1 0.0605747 -0.0409474 0.0324552 0.000291 4.47393 -0.579436 -8.33263 2650 
20 1 0.0589762 -0.0472419 0.0337896 0.001058 4.64706 -0.194749 -8.1354 2650 
72 1 0.0560909 -0.0228265 0.0400096 0.000105 5.56535 -0.917846 -7.81399 2650 
16 1 0.0558588 -0.0057665 0.0403289 0.000105 4.33213 -0.297803 -6.00883 2650 
107 1 0.0529908 -0.0349863 0.0425238 0.001058 4.87987 0.0623322 -6.06423 2650 
257 1 0.0520241 -0.0365055 0.0437055 0.001058 5.30388 -0.785693 -6.26225 2650 
229 1 0.0487085 -0.0474755 0.0473702 0.001058 6.66367 -0.0091488 -6.82468 2650 
184 1 0.0514403 -0.0184905 0.0458271 0.000105 2.55073 0.1469 -2.85457 2650 
166 1 0.0501291 -0.00688923 0.0469873 0.000291 4.59399 -0.33314 -4.86691 2650 
204 1 0.0455171 -0.007819 0.0504459 0.001058 4.95206 0.0612695 -4.45453 2650 
193 1 0.0396385 -0.0373196 0.0544695 0.00164 7.56025 -0.00911285 -5.47996 2650 
281 1 0.0387488 -0.0442476 0.0567433 0.000291 7.27474 -0.0763261 -4.96563 2650 
69 1 0.0396414 -0.044552 0.0561184 0.000291 7.19553 -0.349844 -5.05894 2650 
63 1 0.0375782 -0.0303247 0.0575224 0.000291 7.73523 -0.630235 -5.0619 2650 
62 1 0.038183 -0.0288788 0.0571187 0.000291 5.69709 0.839779 -3.80956 2650 
221 1 0.0391867 -0.016438 0.0564525 0.000291 6.70635 0.528163 -4.65772 2650 
282 1 0.0394112 -0.0155897 0.0562979 0.000291 3.64816 0.146472 -2.56085 2650 
121 1 0.033886 -0.0290018 0.058223 0.00164 7.12006 -0.0253766 -4.18506 2650 
181 1 0.0311822 -0.0270953 0.0612212 0.000291 4.13093 -0.411586 -2.0779 2650 
272 1 0.030309 -0.0237557 0.0608171 0.001058 3.93342 -0.166266 -1.96666 2650 
248 1 0.0300707 -0.0154242 0.0618056 0.000291 4.90412 0.173297 -2.36674 2650 
86 1 0.03289 -0.0064716 0.0603284 0.000291 4.09387 1.06182 -2.20581 2650 
125 1 0.0281847 -0.0233906 0.0626652 0.000291 8.32027 -0.0755152 -3.75538 2650 
137 1 0.0208712 -0.0591467 0.0640498 0.00164 4.64793 0.175932 -1.65422 2650 
230 1 0.0203167 -0.0438486 0.064862 0.001058 8.16416 0.0529337 -2.57346 2650 
25 1 0.00159452 -0.0592805 0.0673537 0.00164 9.77965 0.0638533 -0.237831 2650 
215 1 0.0137345 -0.0392849 0.0665516 0.001058 9.15471 -0.0961784 -1.90238 2650 
26 1 0.0130917 -0.0257074 0.066672 0.001058 8.38954 -0.0278966 -1.66216 2650 
189 1 0.002318 -0.0328691 0.0686694 0.000291 7.70572 1.30499 -0.246634 2650 
64 1 0.00327216 -0.00542323 0.0687948 0.000105 3.16569 -0.13963 -0.147606 2650 
219 1 0.00697219 -0.000291016 0.0683538 0.000291 6.60018 -0.000922976 -0.685702 2650 
192 1 0.00804867 -0.000105262 0.0684217 0.000105 6.60656 -0.00150181 -0.795501 2650 
130 1 1.4e-05 0.00148558 -0.015674 0.001058 0 -0.011755 0 2650 
269 1 0.002277 0.00165858 -0.015181 0.000291 0 -0.011755 0 2650 
160 1 0.004468 0.000517578 -0.014641 0.000105 0 -0.011755 0 2650 
37 1 0.006156 0.00742058 -0.015157 0.000291 0 -0.011755 0 2650 
263 1 0.006877 0.000914578 -0.012319 0.000291 0 -0.011755 0 2650 
289 1 0.001465 0.00208158 -0.012477 0.000291 0 -0.011755 0 2650 
142 1 0.002378 0.00249658 -0.013184 0.000291 0 -0.011755 0 2650 
252 1 0.00245 0.00579158 -0.01336 0.001058 0 -0.011755 0 2650 
78 1 0.001258 0.00740658 -0.012517 0.000291 0 -0.011755 0 2650 
105 1 0.00758151 0.00782331 -0.0127588 0.00164 0.00327959 0.00625975 0.0321714 2650 
147 1 0.00907848 0.0112287 -0.0130046 0.001058 -0.0478512 0.0466169 -0.0416259 2650 
201 1 0.0090662 0.000968306 -0.0110127 0.00164 0.00137105 -0.0114185 -0.003869 2650 
275 1 0.012705 0.00515358 -0.010476 0.000291 0 -0.011755 0 2650 
110 1 0.00809476 0.00757063 -0.010802 0.000291 -0.0169259 -0.0135844 0.0488079 2650 
67 1 0.00421076 0.00530383 -0.00951885 0.001058 -0.020884 0.0142907 -0.00966941 2650 
139 1 0.00704199 0.016723 -0.00885517 0.001058 0.0127696 0.00849352 0.0230521 2650 
102 1 0.003423 0.000819578 -0.006065 0.000291 0 -0.011755 0 2650 
117 1 0.004754 0.00108158 -0.007063 0.000291 0 -0.011755 0 2650 
60 1 0.007579 0.00372258 -0.006312 0.001058 0 -0.011755 0 2650 
134 1 0.00989943 0.00332298 -0.00736577 0.000291 -0.0128132 0.00355392 -0.00692922 2650 
45 1 0.010575 0.00364258 -0.007722 0.000291 0 -0.011755 0 2650 
154 1 0.00294326 0.0396108 -0.00794674 0.001058 0.00678339 0.101014 -0.0544466 2650 
246 1 0.001376 0.000320578 -0.005453 0.001058 0 -0.011755 0 2650 
260 1 0.0107476 0.00220743 -0.00581585 0.000291 -0.00392275 0.00411325 -0.00447499 2650 
92 1 0.0104422 0.00360762 -0.00446221 0.001058 -0.00204015 0.0110184 -0.00170939 2650 
161 1 0.0132901 0.00302694 -0.00502955 0.00164 0.000907452 0.00399164 0.00334652 2650 
271 1 0.00420597 0.00580489 -0.00438679 0.001058 0.0150184 -0.010407 0.010297 2650 
279 1 0.0105624 0.00537092 -0.00576878 0.001058 -0.00964361 0.0081718 -0.00160366 2650 
19 1 0.0138511 0.00569562 -0.00550327 0.001058 0.00237679 0.00604808 -0.00293388 2650 
199 1 0.0146353 0.004372 -0.00448994 0.000291 0.00855734 0.000154616 0.00359965 2650 
278 1 7.4e-05 0.00623358 -0.004448 0.001058 0 -0.011755 0 2650 
284 1 0.014191 0.00701358 -0.005949 0.000291 0 -0.011755 0 2650 
116 1 0.00524221 0.0111201 -0.00555532 0.001058 0.0382435 0.0489782 0.0372506 2650 
177 1 0.00497876 0.000176701 -0.00257367 0.00164 -0.00977706 -0.00608305 0.00419202 2650 
253 1 0.014729 0.00249158 -0.002617 0.000291 0 -0.011755 0 2650 
227 1 0.00944 0.00432058 -0.002109 0.000291 0 -0.011755 0 2650 
113 1 0.0103189 0.0020991 -0.00140054 0.00164 -0.000152922 -0.0104668 0.00259679 2650 
190 1 0.005899 0.00702258 -0.000534 0.000291 0 -0.011755 0 2650 
81 1 0.007451 0.000439578 7.8e-05 0.00164 0 -0.011755 0 2650 
261 1 0.011218 0.000615578 0.000328 0.000291 0 -0.011755 0 2650 
48 1 0.009671 0.00491458 0.000233 0.000105 0 -0.011755 0 2650 
128 1 0.00361 0.00662158 0.000511 0.000105 0 -0.011755 0 2650 
9 1 0.012984 0.00665958 0.000468 0.00164 0 -0.011755 0 2650 
286 1 0.015584 0.00732758 0.000132 0.001058 0 -0.011755 0 2650 
101 1 0.004812 0.00534458 0.002517 0.000291 0 -0.011755 0 2650 
294 1 0.006997 0.00462858 0.003581 0.001058 0 -0.011755 0 2650 
35 1 9.70254e-05 0.00222011 0.00598342 0.001058 0.00654177 -0.0105187 -0.00962265 2650 
232 1 0.010185 0.00329225 0.00574493 0.001058 0.0434091 0.0179211 -0.0164673 2650 
212 1 0.001087 0.00513858 0.005915 0.000291 0 -0.011755 0 2650 
24 1 0.005464 0.00471058 0.005551 0.000105 0 -0.011755 0 2650 
51 1 0.009662 0.00578358 0.004577 0.001058 0 -0.011755 0 2650 
244 1 0.014869 0.00519658 0.00421 0.001058 0 -0.011755 0 2650 
79 1 0.014214 0.00762358 0.005058 0.000291 0 -0.011755 0 2650 
57 1 0.00124705 0.0186681 0.00431322 0.00164 0.0230994 0.0154402 0.0436737 2650 
207 1 0.000324 0.000295578 0.006532 0.000291 0 -0.011755 0 2650 
208 1 0.0110756 0.00158064 0.00741693 0.001058 0.0385375 0.00604984 -0.0140106 2650 
202 1 0.000855178 0.00361397 0.0079087 0.001058 0.00953014 -0.00871599 -0.0138173 2650 
231 1 0.00649312 0.00431251 0.00742952 0.001058 0.00167534 -0.0128877 -0.000760445 2650 
222 1 0.009219 0.00698258 0.006833 0.001058 0 -0.011755 0 2650 
112 1 0.013668 0.00794658 0.007002 0.000105 0 -0.011755 0 2650 
301 1 0.00523981 0.0205156 0.00698208 0.001058 0.00272587 0.0220862 -0.0290146 2650 
38 1 0.00127966 0.00444726 0.00931644 0.000291 -0.0300402 0.0227875 -0.0736261 2650 
145 1 0.00435267 0.00579479 0.00816428 0.00164 0.00142123 -0.0121074 -0.00172265 2650 
194 1 0.007709 0.00511458 0.009989 0.001058 0 -0.011755 0 2650 
11 1 0.00543447 0.0696752 0.00996604 0.001058 0.0558568 0.128502 0.0118077 2650 
103 1 0.005979 0.00131358 0.01127 0.000291 0 -0.011755 0 2650 
1 1 0.00964821 0.000500937 0.0100031 0.00164 0.0407533 0.0106469 0.0012656 2650 
100 1 0.00630763 0.0030164 0.0105452 0.001058 0.00912399 -0.0117578 -0.00681185 2650 
287 1 0.00856781 0.00351087 0.0112811 0.001058 0.0112667 -0.0025888 -0.00299539 2650 
258 1 0.0103928 0.00331381 0.0100546 0.001058 0.0264096 0.0259063 -0.000659148 2650 
66 1 0.0049599 0.0087559 0.0115256 0.001058 0.00846641 -0.000759158 0.00162513 2650 
95 1 0.00687049 0.00408495 0.013457 0.000291 -0.000366951 -0.00495937 0.00220646 2650 
298 1 0.00707997 0.00764353 0.0127096 0.000105 0.012752 -0.00608362 0.00360111 2650 
156 1 0.00303811 0.0119229 0.0124562 0.001058 0.00957299 -0.000303602 -0.00985815 2650 
82 1 0.000755 0.000282578 0.014898 0.001058 0 -0.011755 0 2650 
195 1 0.000200628 0.00274238 0.0156743 0.001058 0.0253117 -0.00783243 -0.00924763 2650 
265 1 0.000365224 0.00571595 0.0156838 0.001058 0.011667 0.00657701 -0.00499144 2650 
