ITEM: TIMESTEP
10495632
ITEM: NUMBER OF ATOMS
294
ITEM: BOX BOUNDS ff ff ff
-0.15 0.15
-0.15 0.15
-0.15 0.15
ITEM: ATOMS id type x y z radius vx vy vz density 
236 1 -0.0140792 -0.0490376 -0.0664782 0.001058 -10.3199 0.0616122 2.18588 2650 
138 1 -0.00872642 -0.0461287 -0.0673809 0.001058 -10.8681 -0.0750537 1.40221 2650 
148 1 -0.0105268 -0.0439498 -0.0671265 0.001058 -10.5177 -0.189571 1.65056 2650 
246 1 -0.00563766 -0.03165 -0.0677121 0.001058 -3.6057 -1.45845 0.274372 2650 
146 1 -0.0225815 -0.0504425 -0.0641062 0.001058 -9.56071 0.0288664 3.36613 2650 
214 1 -0.0203636 -0.0501767 -0.0656414 0.000291 -9.87188 0.346478 3.06381 2650 
20 1 -0.021759 -0.0439584 -0.0643918 0.001058 -8.4211 0.198812 2.90977 2650 
251 1 -0.0217069 -0.0177439 -0.0644077 0.001058 -6.71201 -0.388388 2.31276 2650 
213 1 -0.0198926 -0.0130526 -0.0657875 0.000291 -6.31239 0.000215702 1.90286 2650 
158 1 -0.0215698 -0.00936461 -0.0652489 0.000291 -5.95421 3.58296 2.00316 2650 
173 1 -0.0218607 -0.00327074 -0.0651341 0.000291 -4.88836 1.24116 1.67711 2650 
42 1 -0.0278351 -0.0510913 -0.0620016 0.001058 -9.06368 -0.351666 4.05749 2650 
49 1 -0.0251057 -0.0501051 -0.0625388 0.00164 -9.10981 0.0409879 3.65178 2650 
172 1 -0.0272876 -0.0472511 -0.0622526 0.001058 -9.4914 -0.00695391 4.21213 2650 
196 1 -0.0237111 -0.0426423 -0.0636953 0.001058 -8.34223 0.692573 3.09043 2650 
181 1 -0.0277314 -0.0312466 -0.0628648 0.000291 -9.37851 0.397099 4.1228 2650 
208 1 -0.0234651 -0.0167422 -0.0637904 0.001058 -6.47095 0.0355991 2.36226 2650 
179 1 -0.0315334 -0.0506112 -0.0602074 0.001058 -9.0825 0.129773 4.75579 2650 
233 1 -0.0316932 -0.0285407 -0.0609582 0.000291 -8.51845 -1.05756 4.42971 2650 
226 1 -0.0356375 -0.0220042 -0.0587522 0.000291 -4.92366 -0.105555 2.97877 2650 
204 1 -0.0371194 -0.0242454 -0.0569151 0.001058 -7.66261 -0.053696 4.99117 2650 
69 1 -0.0407597 -0.0359979 -0.0553136 0.000291 -7.85437 -0.656434 5.79631 2650 
302 1 -0.042638 -0.0189382 -0.0538837 0.000291 -5.13351 0.110139 4.04282 2650 
72 1 -0.0502342 -0.0362898 -0.0471257 0.000105 -4.6163 0.473012 4.94896 2650 
88 1 -0.0505275 -0.0272997 -0.0468157 0.000105 -3.0623 -0.262976 3.3697 2650 
96 1 -0.0496022 -0.00467761 -0.0477969 0.000105 -3.42357 0.0850064 3.49368 2650 
165 1 -0.0561928 -0.0252741 -0.0395272 0.000291 -5.37131 -0.0279065 7.60939 2650 
283 1 -0.143648 -0.0327686 -0.0335054 0.000291 -9.39187 -0.207825 2.43111 2650 
64 1 -0.060844 -0.018438 -0.0323565 0.000105 -2.95251 -0.151884 5.53687 2650 
90 1 -0.0640277 -0.055292 -0.0227533 0.001058 -3.43748 0.0505191 9.82175 2650 
125 1 -0.0666383 -0.021627 -0.0167818 0.000291 -2.27916 -0.207344 9.11864 2650 
303 1 -0.00706426 -0.00322615 -0.0149753 0.000291 -0.0351862 -0.0045428 0.0157419 2650 
85 1 -0.003548 -0.00313962 -0.015444 0.000291 0 -0.011755 0 2650 
225 1 -0.0669451 -0.0427908 -0.0116815 0.001058 -1.67887 0.00449349 9.75821 2650 
135 1 -0.0075348 -0.000685157 -0.0101525 0.000291 -0.0060505 -0.00140209 -0.0140303 2650 
152 1 -0.068343 -0.0274725 -0.00868772 0.000105 -1.00293 -0.0479177 7.79301 2650 
175 1 -0.013247 -0.000649617 -0.008751 0.000291 0 -0.011755 0 2650 
47 1 -0.0129543 -0.000314413 -0.00973559 0.000291 -0.00125586 -0.0105028 0.00427205 2650 
205 1 -0.00270188 -0.000201914 -0.00986391 0.000291 -0.0212393 0.00831856 -0.0510728 2650 
150 1 -0.068572 -0.0240062 -0.00431253 0.000291 -0.514553 -0.445173 8.12935 2650 
240 1 -0.010392 -4.76169e-05 -0.005262 0.000291 0 -0.011755 0 2650 
274 1 -0.016349 -0.00224062 -0.002509 0.000291 0 -0.011755 0 2650 
13 1 -0.014201 -5.61689e-06 -0.003882 0.000291 0 -0.011755 0 2650 
168 1 -0.00792855 -0.00268094 -6.17464e-05 0.000105 -0.00582796 -0.00767706 -0.0215384 2650 
2 1 -0.0679381 -0.031883 0.00110303 0.001058 0.105749 0.0924149 8.88526 2650 
76 1 -0.0679068 -0.0223303 0.00155115 0.001058 0.139584 -0.199713 8.64971 2650 
120 1 -0.016055 -0.000753617 0.000189 0.000105 0 -0.011755 0 2650 
126 1 -0.00413216 -0.00162958 6.53108e-05 0.000291 -0.00909177 -0.0182309 -0.0255133 2650 
29 1 -0.0685412 -0.0226416 0.00400717 0.000291 0.519196 0.0521341 9.02664 2650 
280 1 -0.0677823 -0.020812 0.00317604 0.001058 0.367279 -0.100972 8.63834 2650 
228 1 -0.0685617 -0.00989443 0.00341138 0.000291 0.310383 0.408748 6.28863 2650 
305 1 -0.0686796 -0.00892537 0.00498632 0.000105 0.767699 -0.107299 10.4511 2650 
53 1 -0.000389 -0.00267862 0.004762 0.000291 0 -0.011755 0 2650 
164 1 -0.003894 -0.000380617 0.005467 0.001058 0 -0.011755 0 2650 
18 1 -0.0133598 -0.00262156 0.00696168 0.001058 0.0730291 -0.0312699 0.0373003 2650 
58 1 -0.00848048 -0.000989944 0.00727216 0.001058 0.00939797 -0.00814862 -0.00719036 2650 
43 1 -0.067404 -0.0355919 0.0085475 0.001058 1.28001 -0.0375376 10.0857 2650 
189 1 -0.065404 -0.0324525 0.0108529 0.000291 -1.57227 -0.849547 15.9279 2650 
282 1 -0.0678448 -0.0217908 0.0107132 0.000291 1.05695 0.106779 6.59397 2650 
285 1 -0.0111132 -0.0015197 0.0110354 0.001058 -0.00447436 -0.0137973 -0.00560016 2650 
247 1 -0.0675854 -0.0483905 0.0124499 0.000291 1.75645 -0.322125 9.54277 2650 
162 1 -0.0658538 -0.0257354 0.0167252 0.001058 2.28938 0.148229 8.90453 2650 
277 1 -0.0651681 -0.0163189 0.0218457 0.000291 2.92821 0.0363196 8.74223 2650 
118 1 -0.0640829 -0.0200246 0.0248311 0.000291 2.70779 0.11408 6.95919 2650 
22 1 -0.0606469 -0.0217238 0.0323129 0.000291 4.59286 0.156277 8.62009 2650 
140 1 -0.0574192 -0.0314499 0.0363291 0.001058 5.18364 -0.00960222 8.11967 2650 
44 1 -0.0552164 -0.019581 0.0396133 0.001058 5.37142 -0.0752929 7.57742 2650 
50 1 -0.0543051 -0.0325364 0.0408352 0.001058 5.86134 -0.175002 7.79096 2650 
107 1 -0.0528397 -0.0355548 0.0427095 0.001058 6.38347 0.00831936 7.90449 2650 
56 1 -0.052545 -0.0020981 0.0445577 0.000105 5.64902 -0.0983084 6.67741 2650 
169 1 -0.0482006 -0.0588421 0.0470703 0.00164 7.26029 -0.039856 7.42836 2650 
32 1 -0.047358 -0.0309346 0.0500344 0.000105 6.85438 0.205042 6.47962 2650 
182 1 -0.0428967 -0.00992498 0.0536767 0.000291 6.60469 -0.358757 5.24642 2650 
184 1 -0.0436579 -0.00365181 0.0532927 0.000105 4.052 0.021231 3.31199 2650 
248 1 -0.0343479 -0.016505 0.0595297 0.000291 7.73534 1.08803 4.48601 2650 
93 1 -0.0300656 -0.0349362 0.0617767 0.000291 8.89212 0.248549 4.33613 2650 
296 1 -0.0333051 -0.00896287 0.0601084 0.000291 4.45312 -0.0428728 2.47421 2650 
21 1 -0.0263372 -0.0442269 0.0634847 0.000291 9.00195 -0.352765 3.73605 2650 
15 1 -0.024983 -0.0215162 0.0640176 0.000291 7.66225 0.0481152 2.99231 2650 
137 1 -0.016438 -0.0611601 0.0653365 0.00164 10.2536 2.75563e-05 2.57999 2650 
183 1 -0.0242939 -0.0360706 0.0642674 0.000291 4.99381 -1.00862 1.92146 2650 
210 1 -0.0218296 -0.0341747 0.0643349 0.001058 5.34761 0.126208 1.78746 2650 
254 1 -0.0202266 -0.018441 0.0656837 0.000291 10.1586 -0.892368 3.12783 2650 
264 1 -0.00219779 -0.0498811 0.0678751 0.001058 10.7679 -0.0381185 0.35006 2650 
133 1 -0.0125848 -0.0189035 0.0675412 0.000291 8.36744 0.365389 1.61411 2650 
132 1 -0.0129576 -0.0130894 0.066706 0.001058 8.80234 -0.366047 1.72205 2650 
255 1 -0.00814006 -0.0176897 0.0681988 0.000291 8.36091 0.289477 0.998808 2650 
130 1 -0.00150704 0.000376266 -0.0148898 0.001058 -0.00730232 0.00347522 0.00594057 2650 
33 1 -0.00183877 0.0145618 -0.0144933 0.00164 0.00603998 0.0215627 0.00352792 2650 
157 1 -0.00599424 0.0364514 -0.0142753 0.000291 0.0079085 0.0606548 0.000918149 2650 
67 1 -0.00309855 0.0103055 -0.0129031 0.001058 -0.020884 0.0142907 -0.00966941 2650 
38 1 -0.00756732 0.0120601 -0.013657 0.000291 0.0290333 0.00993382 0.0254358 2650 
94 1 -0.011556 0.0037922 -0.011855 0.000291 8.5498e-05 -0.0117385 8.5498e-05 2650 
147 1 -0.0108143 0.0251816 -0.0116916 0.001058 -0.0484418 0.0349896 0.0358713 2650 
75 1 -0.00594303 0.0406436 -0.0109653 0.001058 0.0206685 0.0556886 -0.0248334 2650 
154 1 -0.0014926 0.0729338 -0.0115629 0.001058 -0.025218 0.0914679 0.0181079 2650 
234 1 -0.0122758 0.00798934 -0.00939172 0.000291 -0.00131366 0.00431637 0.0126772 2650 
237 1 -0.0110041 0.0327934 -0.00835133 0.001058 -0.0605016 0.23489 0.0571334 2650 
74 1 -0.0116089 0.00372795 -0.00773489 0.001058 0.00156258 -0.00569596 -0.00749774 2650 
276 1 -0.013674 0.000894383 -0.004231 0.000291 0 -0.011755 0 2650 
159 1 -0.012707 0.00388838 -0.00588 0.000291 0 -0.011755 0 2650 
10 1 -0.0149621 0.00651288 -0.0041653 0.001058 0.00366734 -0.00257496 -0.00408264 2650 
104 1 -0.014089 0.000676383 -0.003012 0.000105 0 -0.011755 0 2650 
114 1 -0.0114749 0.00479771 -0.00312157 0.001058 0.00263798 -7.05089e-05 -0.000306371 2650 
115 1 -0.0156715 0.0110967 -0.00229274 0.001058 -9.57324e-05 0.0046985 0.0169075 2650 
70 1 -3.75167e-05 0.0109135 -0.00380513 0.000291 0.0174831 0.0757361 0.0937803 2650 
187 1 -0.0156662 0.0164182 -0.00232997 0.001058 -0.000280938 0.0161775 0.0137442 2650 
7 1 -0.00572314 0.0220587 -0.0031589 0.000291 0.00378858 0.0136367 -0.000251809 2650 
61 1 -0.016439 0.00360638 -0.001038 0.000291 0 -0.011755 0 2650 
80 1 -0.0150003 0.00247131 -1.33662e-05 0.000105 -0.00457687 0.0251897 -0.0282816 2650 
129 1 -0.00466344 0.00757583 -0.000357764 0.00164 0.00886763 0.000928435 -0.00531986 2650 
256 1 -0.0164986 0.0104346 -0.000626248 0.000291 -0.00177834 -0.000163286 0.026845 2650 
65 1 -0.0117418 0.0194962 -0.00137294 0.00164 -0.00447342 0.0138222 0.00034274 2650 
97 1 -0.0151362 0.000993649 0.00111463 0.00164 0.0130558 0.0156425 -0.0241137 2650 
268 1 -0.011054 0.00246838 0.000789 0.000291 0 -0.011755 0 2650 
211 1 -0.0129526 0.00467868 0.00114478 0.001058 0.000982608 0.00314487 0.00709992 2650 
209 1 -0.0145903 0.00748037 0.00116828 0.001058 -0.00415633 0.00564878 0.00501433 2650 
220 1 -0.0139434 0.0197037 0.000108797 0.000291 -0.00743392 0.0110018 0.0132466 2650 
52 1 -0.00174565 0.0255065 0.00195641 0.001058 0.0258261 0.0380708 0.00407144 2650 
144 1 -0.00961081 0.0140164 0.00203446 0.000105 0.00807853 0.0136784 0.0281765 2650 
41 1 -0.00368074 0.0149243 0.00287443 0.00164 0.0102042 0.00860529 0.0210319 2650 
291 1 -0.008194 0.00399338 0.004767 0.000291 0 -0.011755 0 2650 
71 1 -0.00121338 0.00546939 0.00402727 0.000291 0.000861808 -0.00718564 -0.0173142 2650 
266 1 -0.0151765 0.00874851 0.00418387 0.001058 -0.00293207 0.00740435 -0.00807451 2650 
106 1 -0.00784657 0.01684 0.00443347 0.001058 0.0119634 0.0223893 -0.0027555 2650 
249 1 -0.000730078 0.0227255 0.00577957 0.000291 0.00987628 0.0185258 -0.0129358 2650 
250 1 -0.0105259 0.00159842 0.00715433 0.001058 0.00273404 -0.00245883 0.0388004 2650 
186 1 -0.00619224 0.00200931 0.00656741 0.001058 -4.15282e-05 -0.0115536 6.1062e-05 2650 
242 1 -0.00683894 0.0184745 0.00659324 0.000291 0.0116924 0.0265357 0.00697501 2650 
124 1 -0.0141437 0.0235951 0.00628695 0.001058 0.00450723 0.0342902 0.00378394 2650 
28 1 -0.0143875 0.027825 0.00688554 0.001058 0.00734507 0.0503926 0.00344867 2650 
304 1 -0.012709 0.00327438 0.009818 0.000291 0 -0.011755 0 2650 
68 1 -0.00279129 0.00865152 0.00965809 0.001058 0.00272783 -0.00342387 -0.00169301 2650 
217 1 -0.00971204 0.0290881 0.00936494 0.001058 0.000747792 0.0265619 -0.00553463 2650 
273 1 -0.00263868 0.0280358 0.00938294 0.001058 -0.00402366 0.037385 0.0311551 2650 
300 1 -0.012281 0.000785429 0.010026 0.001058 -0.00371667 -0.00768461 -0.00400106 2650 
55 1 -0.01171 0.00374238 0.01034 0.000291 0 -0.011755 0 2650 
299 1 -0.00984684 0.00374072 0.0119136 0.001058 0.00581403 -0.00322581 0.00124072 2650 
170 1 -0.0081479 0.0021989 0.011006 0.001058 0.00813908 -0.00598064 0.0087017 2650 
4 1 -0.011667 0.00806545 0.0107086 0.001058 0.00473149 0.00103266 0.00625096 2650 
224 1 -0.00792655 0.0129686 0.0135148 0.001058 -0.00111942 0.00491513 -0.00282362 2650 
17 1 -0.00665412 0.0257835 0.012957 0.00164 0.0438726 0.0448865 0.0155383 2650 
141 1 0.00675497 -0.0386171 -0.0683757 0.000291 -9.30987 -0.00868505 -0.92469 2650 
235 1 0.00707886 -0.00592629 -0.068328 0.000291 -7.53065 -0.20119 -0.79281 2650 
272 1 0.0145247 -0.0301306 -0.0663759 0.001058 -9.05243 -0.158382 -1.98927 2650 
98 1 0.00775034 -0.0158654 -0.0674726 0.001058 -5.38566 -0.0765599 -0.624906 2650 
188 1 0.0228193 -0.0614468 -0.0640009 0.001058 -9.93901 -0.0401059 -3.54334 2650 
185 1 0.0296649 -0.0461361 -0.0605134 0.00164 -9.67847 0.0474438 -4.74397 2650 
193 1 0.0316421 -0.0517521 -0.0594907 0.00164 -9.32716 -0.0115739 -4.96056 2650 
84 1 0.0348138 -0.0442638 -0.0583732 0.001058 -6.31192 -2.03551 -3.76417 2650 
119 1 0.035111 -0.041242 -0.0590758 0.000291 -9.60847 -0.0355514 -5.71231 2650 
229 1 0.0396004 -0.053798 -0.0552202 0.001058 -8.83738 -0.0300884 -6.33648 2650 
267 1 0.0407504 -0.0117953 -0.0553312 0.000291 -6.33324 0.170608 -4.67593 2650 
16 1 0.0407405 -0.00841821 -0.0555619 0.000105 -6.47005 -0.0418074 -4.73559 2650 
218 1 0.0418966 -0.0398398 -0.0534965 0.001058 -8.03195 0.179266 -6.29339 2650 
241 1 0.0441628 -0.0229701 -0.0526356 0.000291 -7.1249 -0.0299936 -5.98629 2650 
122 1 0.0433051 -0.0169885 -0.0523588 0.001058 -6.85494 -0.0325485 -5.68619 2650 
26 1 0.0458541 -0.0386362 -0.0501409 0.001058 -7.39968 -0.0382024 -6.82862 2650 
23 1 0.047837 -0.0337829 -0.0493212 0.000291 -8.01633 0.271825 -7.77687 2650 
270 1 0.0480548 -0.0160513 -0.0491082 0.000291 -6.20562 0.0221744 -6.07415 2650 
36 1 0.0480133 -0.0371478 -0.0480791 0.001058 -7.32003 -0.0379288 -7.30886 2650 
281 1 0.051452 -0.0424464 -0.0454462 0.000291 -6.94448 -0.420882 -7.87038 2650 
81 1 0.0515292 -0.026272 -0.0433951 0.00164 -2.898 -0.514233 -3.52548 2650 
206 1 0.0579649 -0.0114631 -0.0368834 0.000291 -4.31276 -0.0217057 -6.76448 2650 
197 1 0.0616722 -0.00341996 -0.0302783 0.000291 -3.56112 -0.0529645 -7.2719 2650 
166 1 0.0644439 -0.0399325 -0.0238575 0.000291 -3.12504 -0.608354 -8.44084 2650 
30 1 0.0645623 -0.0238362 -0.0235193 0.000291 -2.89505 0.387061 -7.96269 2650 
62 1 0.0647491 -0.0233091 -0.0230016 0.000291 -2.82766 0.0722097 -7.97544 2650 
34 1 0.0642554 -0.0243416 -0.0220989 0.001058 -2.71896 0.114178 -7.87959 2650 
40 1 0.0659087 -0.00150305 -0.0200492 0.000105 -2.13889 -0.216541 -7.02128 2650 
269 1 0.002277 -0.00245562 -0.015181 0.000291 0 -0.011755 0 2650 
86 1 0.0673324 -0.017376 -0.0137621 0.000291 -1.64783 0.15485 -8.11564 2650 
289 1 0.001465 -0.00203262 -0.012477 0.000291 0 -0.011755 0 2650 
263 1 0.006877 -0.00319962 -0.012319 0.000291 0 -0.011755 0 2650 
142 1 0.002378 -0.00161762 -0.013184 0.000291 0 -0.011755 0 2650 
6 1 0.0676749 -0.0141661 -0.0119438 0.000291 -1.46431 -0.056582 -8.29388 2650 
201 1 0.00931274 -0.00296873 -0.0119939 0.00164 -0.00169496 -0.0106381 0.00103213 2650 
192 1 0.0683156 -0.000105124 -0.00890007 0.000105 -1.05776 0.00978891 -8.10209 2650 
219 1 0.0681719 -0.000290967 -0.00856635 0.000291 -1.00633 6.49607e-05 -8.08651 2650 
295 1 0.0682681 -0.0216031 -0.00778349 0.000291 -0.949585 0.328702 -8.27669 2650 
102 1 0.003423 -0.00329462 -0.006065 0.000291 0 -0.011755 0 2650 
117 1 0.004754 -0.00303262 -0.007063 0.000291 0 -0.011755 0 2650 
60 1 0.007579 -0.000391617 -0.006312 0.001058 0 -0.011755 0 2650 
45 1 0.010575 -0.000471617 -0.007722 0.000291 0 -0.011755 0 2650 
59 1 0.0677251 -0.0361786 -0.00548433 0.001058 -0.586978 -0.302172 -7.46039 2650 
108 1 0.0677973 -0.0263259 -0.00445564 0.001058 -0.578193 0.032751 -8.33302 2650 
253 1 0.014729 -0.00162262 -0.002617 0.000291 0 -0.011755 0 2650 
63 1 0.068675 -0.0248707 -0.0021214 0.000291 -0.273536 -0.146499 -8.25591 2650 
177 1 0.00158534 -0.00193753 -0.0010957 0.00164 -0.00966503 -0.00602483 0.00423439 2650 
151 1 0.0687095 -0.0274799 6.75107e-05 0.000291 0.0162855 -0.217327 -7.86271 2650 
243 1 0.0678889 -0.0456979 0.00273837 0.001058 0.428789 -0.0872857 -10.453 2650 
8 1 0.068848 -0.0304277 0.00248984 0.000105 0.193178 -1.35305 -4.92173 2650 
200 1 0.0688625 -0.0200563 0.00201919 0.000105 0.246724 0.274934 -8.46275 2650 
35 1 0.00238662 -0.0014614 0.00261554 0.001058 0.00654177 -0.0105187 -0.00962265 2650 
261 1 0.011157 -0.0015464 0.00263138 0.000291 -0.185839 -0.0506541 0.188636 2650 
191 1 0.0684803 -0.0522023 0.00558274 0.000291 0.736603 -2.00656 -9.06368 2650 
287 1 0.0115633 -0.000650698 0.00587469 0.001058 0.00844674 -0.013594 -0.029996 2650 
288 1 0.0684282 -0.0446121 0.00621004 0.000291 0.941459 0.107915 -10.3603 2650 
223 1 0.0146166 -0.00332387 0.00617524 0.001058 -0.0109969 -0.0198031 0.0327877 2650 
231 1 0.00707948 -0.000198117 0.00716336 0.001058 0.00167534 -0.0128877 -0.000760445 2650 
100 1 0.00950098 -0.00109879 0.00816104 0.001058 0.00912399 -0.0117578 -0.00681185 2650 
14 1 0.0677722 -0.0229069 0.0113311 0.000291 0.63961 -0.645258 -4.07298 2650 
82 1 0.0670444 -0.0181932 0.0110794 0.001058 0.691951 -0.364958 -4.01233 2650 
103 1 0.005979 -0.00280062 0.01127 0.000291 0 -0.011755 0 2650 
257 1 0.0669099 -0.0504579 0.0118926 0.001058 1.8111 -0.0236334 -10.1975 2650 
3 1 0.00881841 -0.00188589 0.0127112 0.001058 -0.00211489 -0.0052299 0.000123346 2650 
174 1 0.0658526 -0.0181286 0.0196763 0.000291 2.36865 1.4351 -7.93498 2650 
131 1 0.0647035 -0.0336711 0.0207343 0.001058 3.30819 0.0700619 -10.3205 2650 
121 1 0.0619956 -0.0433085 0.026434 0.00164 4.23759 0.0450759 -9.93901 2650 
207 1 0.0633185 -0.00847171 0.0267029 0.000291 1.23297 -0.215021 -3.02804 2650 
239 1 0.0617626 -0.0473301 0.028384 0.001058 4.51898 0.000789612 -9.8331 2650 
39 1 0.0590485 -0.0336968 0.0351237 0.000291 5.43176 0.754202 -9.12833 2650 
167 1 0.0591203 -0.00884459 0.0350277 0.000291 3.6758 -0.233669 -6.21579 2650 
89 1 0.05673 -0.0556459 0.0363357 0.00164 5.75567 -0.0404694 -8.98597 2650 
230 1 0.0577317 -0.0482484 0.0358634 0.001058 5.74101 -0.0674317 -9.24149 2650 
73 1 0.055792 -0.0518021 0.0377839 0.00164 5.82644 -0.0564968 -8.60037 2650 
143 1 0.0559277 -0.0209994 0.0399219 0.000291 5.20732 -0.232714 -7.29786 2650 
109 1 0.0400188 -0.0494225 0.0558644 0.000291 8.89394 -0.194325 -6.36983 2650 
25 1 0.0338004 -0.0575405 0.058279 0.00164 8.92717 -0.0539415 -5.1768 2650 
215 1 0.034411 -0.0473678 0.058614 0.001058 8.79242 0.0222915 -5.13909 2650 
290 1 0.0325181 -0.0490814 0.0605507 0.000291 8.98496 -0.33101 -4.83034 2650 
149 1 0.0322871 -0.0352211 0.0606468 0.000291 8.88657 -0.0785494 -4.74122 2650 
171 1 0.0250242 -0.0466808 0.0631989 0.001058 9.51879 -0.0323534 -3.76709 2650 
221 1 0.0297238 -0.0177221 0.0619695 0.000291 7.98065 -0.198765 -3.82893 2650 
178 1 0.0173749 -0.0563806 0.0656867 0.001058 9.87496 0.0671211 -2.61644 2650 
83 1 0.00493105 -0.0387175 0.0677684 0.001058 10.3166 0.156785 -0.74943 2650 
259 1 0.00583057 -0.0289924 0.0676956 0.001058 9.25377 -0.0657718 -0.761816 2650 
46 1 0.00291006 -0.0158057 0.0686454 0.000291 5.80344 -0.525415 -0.243397 2650 
37 1 0.006156 0.00330638 -0.015157 0.000291 0 -0.011755 0 2650 
127 1 0.00186971 0.0452426 -0.0141168 0.000291 0.0331404 0.0647284 -0.0037516 2650 
252 1 0.00245 0.00167738 -0.01336 0.001058 0 -0.011755 0 2650 
78 1 0.001258 0.00329238 -0.012517 0.000291 0 -0.011755 0 2650 
293 1 0.00863565 0.0252272 -0.0132947 0.001058 -0.0961977 0.0543358 -0.0503114 2650 
275 1 0.012705 0.00103938 -0.010476 0.000291 0 -0.011755 0 2650 
134 1 0.00541489 0.00456683 -0.00979097 0.000291 -0.0128132 0.00355392 -0.00692922 2650 
180 1 0.0131207 0.0383843 -0.00880591 0.001058 0.0335207 0.0676785 0.0465529 2650 
260 1 0.00937468 0.00364704 -0.00738207 0.000291 -0.00392275 0.00411325 -0.00447499 2650 
19 1 0.0144699 0.00765346 -0.00642123 0.001058 -0.00189711 0.0050805 -0.00113271 2650 
284 1 0.0145939 0.00919316 -0.00713803 0.000291 -0.00371053 0.00586111 -0.00129449 2650 
278 1 7.4e-05 0.00211938 -0.004448 0.001058 0 -0.011755 0 2650 
203 1 0.00293674 0.00349108 -0.00554118 0.001058 0.0222717 0.0321229 0.00594202 2650 
87 1 0.00667307 0.00633496 -0.00532123 0.000291 -0.00318762 -0.017547 -0.0237996 2650 
279 1 0.00796936 0.00665944 -0.00504776 0.001058 -0.00483641 0.00012964 0.00531894 2650 
232 1 0.0135826 0.0133851 -0.00483345 0.001058 -0.0167248 0.0324446 -0.0332171 2650 
227 1 0.00944 0.000206383 -0.002109 0.000291 0 -0.011755 0 2650 
244 1 0.0153409 0.000610886 -0.00399183 0.001058 -0.0467632 0.0258282 -0.10442 2650 
92 1 0.0106212 0.0059172 -0.00370635 0.001058 0.00298746 0.00292354 0.00546929 2650 
161 1 0.0136077 0.004424 -0.00385829 0.00164 0.000907452 0.00399164 0.00334652 2650 
199 1 0.0160093 0.00448845 -0.00290126 0.000291 -0.00149126 0.000541054 0.0056379 2650 
77 1 0.0013485 0.0108323 -0.00332016 0.000291 0.0279429 0.00178097 -0.016803 2650 
105 1 0.00828015 0.0108516 -0.00220672 0.00164 0.00091231 0.0106728 0.0284417 2650 
123 1 0.00932527 0.0139676 -0.00220038 0.001058 0.0354386 0.020018 -0.000637314 2650 
301 1 0.00619385 0.0282456 -0.0031729 0.001058 0.00272587 0.0220862 -0.0290146 2650 
113 1 0.013749 0.000319655 -0.00173304 0.00164 0.0515845 0.0203733 -0.0123905 2650 
190 1 0.005899 0.00290838 -0.000534 0.000291 0 -0.011755 0 2650 
271 1 0.00946232 0.0021625 -0.000782884 0.001058 0.0150184 -0.010407 0.010297 2650 
9 1 0.0134893 0.00440567 -0.000194013 0.00164 0.00591004 0.0660091 0.0114623 2650 
286 1 0.015774 0.00524196 -0.00137404 0.001058 -0.00457067 0.0508687 -0.0262864 2650 
139 1 0.0115113 0.0196957 -0.000787032 0.001058 0.0127696 0.00849352 0.0230521 2650 
176 1 0.00148083 0.0013009 0.00128484 0.000105 0.0253113 -0.0084311 -0.00587015 2650 
48 1 0.009671 0.000800383 0.000233 0.000105 0 -0.011755 0 2650 
128 1 0.00361 0.00250738 0.000511 0.000105 0 -0.011755 0 2650 
153 1 0.00292866 0.00680411 0.00111091 0.00164 0.00905173 -0.00370467 -0.0193596 2650 
194 1 0.0143309 0.00717697 9.33657e-05 0.001058 -0.000659826 0.0163472 -0.0190404 2650 
99 1 0.000159506 0.000575734 0.00338645 0.001058 0.0243572 -0.0114204 0.00238608 2650 
202 1 0.00418652 0.000559489 0.00307638 0.001058 0.00930573 -0.00892744 -0.0136195 2650 
101 1 0.00501205 0.00141887 0.00234071 0.000291 0.0107852 -0.0015929 -0.0095042 2650 
294 1 0.006997 0.000514383 0.003581 0.001058 0 -0.011755 0 2650 
1 1 0.0132514 0.00315408 0.00291905 0.00164 0.00550181 0.00569205 -0.0118839 2650 
245 1 0.000479236 0.0602502 0.0024385 0.001058 0.013355 0.0538623 -0.0223836 2650 
212 1 0.001087 0.00102438 0.005915 0.000291 0 -0.011755 0 2650 
24 1 0.005464 0.000596383 0.005551 0.000105 0 -0.011755 0 2650 
51 1 0.009662 0.00166938 0.004577 0.001058 0 -0.011755 0 2650 
79 1 0.014214 0.00350938 0.005058 0.000291 0 -0.011755 0 2650 
258 1 0.0140521 0.0114947 0.0049848 0.001058 0.00615004 0.0226911 -0.0182162 2650 
198 1 0.0159712 0.0123637 0.0044727 0.000291 -0.0156073 0.00970237 0.0853256 2650 
116 1 0.0129343 0.0279567 0.0052657 0.001058 -0.0278213 0.0454338 0.0115295 2650 
145 1 0.00485009 0.00155726 0.00756136 0.00164 0.00142123 -0.0121074 -0.00172265 2650 
110 1 0.00217079 0.00281616 0.00628051 0.000291 -0.0169259 -0.0135844 0.0488079 2650 
222 1 0.009219 0.00286838 0.006833 0.001058 0 -0.011755 0 2650 
112 1 0.013668 0.00383238 0.007002 0.000105 0 -0.011755 0 2650 
292 1 0.0113635 0.0258663 0.00796852 0.001058 -0.0104367 0.0376087 -0.0291473 2650 
195 1 0.0125402 0.000720046 0.00924319 0.001058 0.0165512 -0.0021662 -0.02702 2650 
156 1 0.00638861 0.0118167 0.00900593 0.001058 0.00957299 -0.000303602 -0.00985815 2650 
57 1 0.00626156 0.0228864 0.0109415 0.00164 -0.000919831 0.00616449 -0.024056 2650 
54 1 0.00675726 0.0312736 0.0118936 0.000291 0.0526685 0.00955407 -0.0227648 2650 
298 1 0.0104488 0.005716 0.0125566 0.000105 0.00377194 -0.00442838 -0.00799766 2650 
265 1 0.00444862 0.00801788 0.0139368 0.001058 0.011667 0.00657701 -0.00499144 2650 
66 1 0.0079231 0.00849019 0.0120944 0.001058 0.00846641 -0.000759158 0.00162513 2650 
238 1 0.000492972 0.0277867 0.0123227 0.001058 0.0207771 0.0325148 -0.00733364 2650 
95 1 0.00674205 0.00234919 0.0142293 0.000291 -0.000366951 -0.00495937 0.00220646 2650 
160 1 0.00350964 0.066193 0.0193233 0.000105 2.41597 2.63723 1.60583 2650 
155 1 0.00607039 0.0792109 -0.0110896 0.001058 0.04057 0.188533 0.00265111 2650 
136 1 0.0079957 0.096121 0.00323539 0.000105 0.0375902 0.10168 0.0199891 2650 
