ITEM: TIMESTEP
18768757
ITEM: NUMBER OF ATOMS
267
ITEM: BOX BOUNDS ff ff ff
-0.15 0.15
-0.15 0.15
-0.15 0.15
ITEM: ATOMS id type x y z radius vx vy vz density 
227 1 -0.00725893 -0.044219 -0.0683274 0.000291 -10.9084 -0.0586217 1.15775 2650 
261 1 -0.00681565 -0.0256646 -0.0683623 0.000291 -9.13992 -0.807613 0.907346 2650 
158 1 -0.0041766 -0.0153449 -0.0685507 0.000291 -8.55002 0.127923 0.563726 2650 
16 1 -0.0034848 -0.00774245 -0.0687658 0.000105 -8.89214 -0.248897 0.455958 2650 
240 1 -0.0191901 -0.0313255 -0.0659772 0.000291 -8.91767 0.249841 2.47979 2650 
212 1 -0.0179275 -0.0221817 -0.0663327 0.000291 -6.64349 0.116596 1.78099 2650 
269 1 -0.0193572 -0.0107472 -0.0659421 0.000291 -9.28842 0.0860483 2.7246 2650 
76 1 -0.0193623 -0.0416191 -0.0651457 0.001058 -9.84778 0.218178 2.93071 2650 
107 1 -0.025254 -0.0476822 -0.0631073 0.001058 -9.80528 0.0225888 3.92361 2650 
126 1 -0.0284018 -0.0199382 -0.0625822 0.000291 -8.22682 -0.539738 3.72747 2650 
44 1 -0.0436184 -0.0277011 -0.0520986 0.001058 -7.65955 -0.198892 6.4322 2650 
85 1 -0.0444799 -0.0116172 -0.0523677 0.000291 -5.09349 -0.686356 4.3568 2650 
303 1 -0.0473404 -0.0164288 -0.0497962 0.000291 -7.18105 -0.0480936 6.83569 2650 
173 1 -0.0464559 -0.00741628 -0.0506205 0.000291 -5.79883 0.284364 5.31897 2650 
206 1 -0.0504267 -0.062509 -0.0466709 0.000291 -7.33101 1.86287e-09 7.92098 2650 
169 1 -0.0491242 -0.0611601 -0.0461095 0.00164 -7.24281 4.57202e-07 7.71636 2650 
246 1 -0.0496404 -0.0585276 -0.0463972 0.001058 -7.28822 -1.66622e-05 7.79769 2650 
103 1 -0.0500245 -0.0535569 -0.0470984 0.000291 -7.28762 -0.218095 7.73138 2650 
29 1 -0.0498491 -0.00173921 -0.047285 0.000291 -5.18851 -0.105394 5.47709 2650 
25 1 -0.0511482 -0.0587999 -0.0438512 0.00164 -6.8882 -0.000103065 8.03442 2650 
164 1 -0.0507687 -0.0396976 -0.0451547 0.001058 -7.26564 -0.164959 8.16367 2650 
30 1 -0.0515624 -0.0311073 -0.0454111 0.000291 -6.95358 0.0397794 7.89547 2650 
47 1 -0.0526543 -0.0106567 -0.0441415 0.000291 -5.42694 -0.143586 6.45567 2650 
128 1 -0.0531531 -0.000894406 -0.0438291 0.000105 -5.22428 -0.119602 6.33743 2650 
178 1 -0.0523592 -0.0564514 -0.043306 0.001058 -6.80245 -2.35618e-05 8.22451 2650 
23 1 -0.0533587 -0.0551194 -0.0432868 0.000291 -6.30394 0.192778 7.77343 2650 
168 1 -0.0552473 -0.0243357 -0.0411619 0.000105 -4.24993 -1.33295 5.744 2650 
214 1 -0.0576124 -0.0546404 -0.0374459 0.000291 -5.39633 0.0233775 8.30303 2650 
226 1 -0.0603023 -0.0538155 -0.0329492 0.000291 -5.0532 0.188367 9.24433 2650 
277 1 -0.0628588 -0.0440609 -0.0277986 0.000291 -4.10421 -0.130039 9.28262 2650 
295 1 -0.0620685 -0.0291076 -0.0294599 0.000291 -4.32516 -0.0297132 9.10473 2650 
231 1 -0.0643721 -0.0366155 -0.0217504 0.001058 -3.21954 -0.194572 9.52153 2650 
302 1 -0.0657886 -0.0422192 -0.0198735 0.000291 -2.913 -0.679809 9.62864 2650 
210 1 -0.0646275 -0.0330895 -0.020959 0.001058 -3.13949 -0.0239384 9.69155 2650 
251 1 -0.0649808 -0.0310026 -0.0199153 0.001058 -3.00445 0.0433926 9.82493 2650 
282 1 -0.0656906 -0.014811 -0.0202119 0.000291 -3.05915 0.287166 9.93606 2650 
137 1 -0.0653208 -0.0611601 -0.0165023 0.00164 -2.59204 -8.16433e-07 10.2601 2650 
276 1 -0.0665049 -0.0315958 -0.0172636 0.000291 -2.5695 0.0736157 9.85174 2650 
177 1 -0.0656769 -0.0184117 -0.0150274 0.00164 -2.25391 -0.255485 9.85339 2650 
13 1 -0.0865738 -0.0334874 -0.0121108 0.000291 -7.65841 -0.661633 7.28828 2650 
241 1 -0.0678451 -0.0361814 -0.0107947 0.000291 -1.6205 -0.104963 10.1974 2650 
135 1 -0.00778893 -0.0021305 -0.0112633 0.000291 0.00330025 -0.00264717 0.00636962 2650 
145 1 -0.066985 -0.0353976 -0.0071835 0.00164 -1.09104 -0.0651701 10.1415 2650 
98 1 -0.0677862 -0.0156762 -0.00414838 0.001058 -0.642619 -0.195556 10.4506 2650 
40 1 -0.0687211 -0.000105004 -0.00487072 0.000105 -0.632737 9.57843e-05 8.82018 2650 
58 1 -0.00835755 -0.00159672 -0.0049029 0.001058 0.020455 0.00490158 -0.0306807 2650 
202 1 -0.0679051 -0.0285215 -0.00194607 0.001058 -0.300756 -0.0264138 10.5106 2650 
285 1 -0.0679477 -0.0292095 6.35033e-05 0.001058 0.0103057 -0.0750144 10.5036 2650 
3 1 -0.067922 -0.023868 -0.00140856 0.001058 -0.212339 -0.157154 10.387 2650 
235 1 -0.0686836 -0.0126703 0.00181804 0.000291 0.298253 0.139573 11.2278 2650 
192 1 -0.0688843 -0.000104996 0.00111017 0.000105 0.147872 0.000142714 8.89645 2650 
184 1 -0.0687307 -0.035863 0.0047331 0.000105 0.660722 -0.431674 9.55966 2650 
150 1 -0.0685377 -0.0282947 0.00483175 0.000291 0.729718 -0.0269994 10.3625 2650 
255 1 -0.0682738 -0.0113046 0.00775579 0.000291 1.02369 -0.748277 8.83089 2650 
272 1 -0.0673359 -0.044541 0.00915211 0.001058 1.39515 0.0653672 10.3229 2650 
267 1 -0.0681326 -0.0177319 0.00892894 0.000291 1.29577 0.136948 9.90738 2650 
109 1 -0.0670307 -0.0515152 0.0151474 0.000291 2.38592 0.00118136 10.5589 2650 
250 1 -0.00114798 -0.00112252 0.0154633 0.001058 0.0161046 -0.00542442 -0.00110725 2650 
84 1 -0.0656407 -0.0510513 0.0176159 0.001058 2.76657 -0.00487796 10.3085 2650 
290 1 -0.0665692 -0.0482282 0.0170935 0.000291 2.69657 0.0916129 10.502 2650 
264 1 -0.065442 -0.0481676 0.0183638 0.001058 2.87447 -0.0387264 10.2435 2650 
181 1 -0.0664438 -0.0462054 0.0175793 0.000291 2.75242 -0.101456 10.4035 2650 
287 1 -0.0651425 -0.049993 0.0193912 0.001058 3.04785 -0.0129645 10.2388 2650 
223 1 -0.0653843 -0.0183388 0.0185643 0.001058 2.76924 0.217281 9.69576 2650 
87 1 -0.0654053 -0.0219663 0.021081 0.000291 3.14329 0.37802 9.74444 2650 
215 1 -0.0638962 -0.0485471 0.0231812 0.001058 3.64371 -0.00140912 10.0431 2650 
133 1 -0.0643669 -0.0275937 0.0240212 0.000291 3.63634 -0.158921 9.7491 2650 
83 1 -0.0595309 -0.0498798 0.032796 0.001058 5.15304 0.00320737 9.35362 2650 
186 1 -0.059303 -0.0177203 0.0332018 0.001058 4.02831 -0.188107 7.25805 2650 
89 1 -0.055849 -0.0611601 0.0376838 0.00164 5.91949 2.18617e-07 8.77292 2650 
229 1 -0.0490648 -0.0616327 0.0470057 0.001058 7.39364 -0.0146137 7.71675 2650 
280 1 -0.0482381 -0.0308793 0.0480486 0.001058 7.54746 1.03337e-05 7.57723 2650 
18 1 -0.0463322 -0.0217399 0.0497009 0.001058 8.00716 0.425014 7.46546 2650 
118 1 -0.0473759 -0.0173888 0.0497626 0.000291 6.81495 0.0188167 6.49594 2650 
167 1 -0.045333 -0.0144179 0.0516317 0.000291 8.40958 -0.411125 7.38632 2650 
204 1 -0.0410009 -0.0299266 0.0541832 0.001058 8.49165 -0.024714 6.42626 2650 
73 1 -0.0393892 -0.0581487 0.054653 0.00164 8.58616 -0.031041 6.18769 2650 
196 1 -0.0355908 -0.0467281 0.057901 0.001058 9.06732 -0.0243657 5.57381 2650 
281 1 -0.0345028 -0.0622792 0.0594428 0.000291 9.34753 -0.0035744 5.4259 2650 
99 1 -0.032955 -0.0470019 0.0594477 0.001058 9.28683 -0.0423933 5.14748 2650 
104 1 -0.0336504 -0.0193442 0.060137 0.000105 7.2289 0.839957 4.05127 2650 
2 1 -0.0312594 -0.0493923 0.0603552 0.001058 9.45375 -0.0729028 4.89602 2650 
121 1 -0.0301566 -0.0467513 0.060269 0.00164 9.42807 -0.045436 4.71655 2650 
201 1 -0.0274787 -0.0453244 0.0615424 0.00164 9.58817 0.0631761 4.28332 2650 
60 1 -0.0295322 -0.0424444 0.0612155 0.001058 9.71791 -0.0208154 4.68803 2650 
86 1 -0.0321596 -0.0337391 0.0607135 0.000291 9.43354 -0.539273 4.99575 2650 
50 1 -0.0296339 -0.0337123 0.06114 0.001058 9.30511 -0.0395262 4.5105 2650 
259 1 -0.0293039 -0.0303633 0.0613047 0.001058 9.63876 -0.101772 4.60993 2650 
243 1 -0.0269582 -0.0512058 0.0623904 0.001058 9.69719 -0.0132743 4.19007 2650 
191 1 -0.0260316 -0.0498084 0.0636096 0.000291 9.85472 0.0271979 4.03307 2650 
230 1 -0.0233697 -0.0491791 0.0638266 0.001058 10.0691 0.0797045 3.68719 2650 
36 1 -0.0238832 -0.0463994 0.0636395 0.001058 9.81734 0.0194705 3.6837 2650 
108 1 -0.0251823 -0.0390677 0.0631173 0.001058 9.79148 -0.0625463 3.90712 2650 
228 1 -0.0266076 -0.00343875 0.0633425 0.000291 8.21636 0.10289 3.45801 2650 
119 1 -0.020791 -0.0511706 0.0655056 0.000291 10.3394 -0.0113151 3.2813 2650 
239 1 -0.0182637 -0.049851 0.0654673 0.001058 10.2846 -0.00213548 2.86912 2650 
288 1 -0.0222517 -0.0477585 0.0650302 0.000291 10.175 0.145898 3.48136 2650 
140 1 -0.0215304 -0.045772 0.0644737 0.001058 9.96041 0.085967 3.32754 2650 
190 1 -0.0226614 -0.00999826 0.0648807 0.000291 7.15481 0.332879 2.482 2650 
131 1 -0.00871537 -0.0484861 0.0673928 0.001058 10.5911 -0.0109615 1.3695 2650 
213 1 -0.0165439 -0.0441935 0.0667055 0.000291 10.5835 0.273229 2.6229 2650 
134 1 -0.00316992 0.00694795 -0.0144335 0.000291 -0.0128132 0.00355392 -0.00692922 2650 
232 1 -0.00280067 0.0339755 -0.0153919 0.001058 -0.0260744 0.0281349 0.00795724 2650 
97 1 -0.00772393 0.00855866 -0.0131394 0.00164 0.0189231 0.00904729 -0.00561719 2650 
80 1 -0.00880286 0.0183312 -0.0139759 0.000105 0.0200167 0.0220396 -0.007602 2650 
74 1 -0.00991819 1.9886e-05 -0.0119842 0.001058 0.00552843 -0.00502923 -0.00272883 2650 
130 1 -0.00622191 0.00270565 -0.0109016 0.001058 -0.00692202 0.00347734 0.00595777 2650 
10 1 -0.0127422 0.00896246 -0.00869056 0.001058 0.0053433 0.0061558 -0.0070677 2650 
67 1 -0.0118603 0.0191851 -0.0087507 0.001058 -0.0104976 0.0129104 0.0114407 2650 
71 1 -0.000635972 0.000655017 -0.00757323 0.000291 0.000861808 -0.00718564 -0.0173142 2650 
198 1 -0.0148228 0.00720765 -0.00732781 0.000291 0.0313585 -0.0183088 -0.0723348 2650 
114 1 -0.00130828 0.010922 -0.0071016 0.001058 0.0187062 0.0117361 -0.00752779 2650 
205 1 -0.00845627 0.00279067 -0.00260661 0.000291 -0.00881861 0.00364628 0.0236275 2650 
129 1 -0.000607555 0.00995854 -0.00252369 0.00164 -0.00374589 0.0128173 -0.00288427 2650 
7 1 -0.0031848 0.0311953 -0.00332761 0.000291 0.00378858 0.0136367 -0.000251809 2650 
234 1 -0.013156 0.0108813 -0.000898005 0.000291 -0.00131366 0.00431637 0.0126772 2650 
65 1 -0.014739 0.0287571 -0.0011433 0.00164 -0.00447342 0.0138222 0.00034274 2650 
209 1 -0.0142147 0.00501612 0.00594483 0.001058 0.00584419 -0.0188996 0.0174994 2650 
211 1 -0.0122943 0.00678574 0.00590172 0.001058 0.000982608 0.00314487 0.00709992 2650 
115 1 -0.0147587 0.0177157 0.0055398 0.001058 0.00236141 0.0122312 0.0092361 2650 
256 1 -0.0157927 0.0221745 0.00480103 0.000291 0.000881351 0.0216623 0.00465977 2650 
217 1 -0.00921102 0.0468845 0.00565674 0.001058 0.000747792 0.0265619 -0.00553463 2650 
187 1 -0.0144141 0.0270746 0.00644848 0.001058 0.00500069 0.0154788 0.0119088 2650 
220 1 -0.0129269 0.0272181 0.00762845 0.000291 0.00991537 0.0130183 0.0124552 2650 
68 1 -0.000963645 0.00635754 0.00852378 0.001058 0.00272783 -0.00342387 -0.00169301 2650 
244 1 -0.0132764 0.0154907 0.00863135 0.001058 0.022777 0.0219925 0.0312088 2650 
28 1 -0.00946633 0.061588 0.00919615 0.001058 0.00734507 0.0503926 0.00344867 2650 
266 1 -0.0106665 0.012973 0.0112291 0.001058 0.0336072 0.0100687 0.0213347 2650 
224 1 -0.00867656 0.0162617 0.0116229 0.001058 -0.00111942 0.00491513 -0.00282362 2650 
273 1 -0.00139899 0.0546544 0.0112891 0.001058 0.00511 0.0387776 -0.00978519 2650 
299 1 -0.00595144 0.00157943 0.0127449 0.001058 0.00581403 -0.00322581 0.00124072 2650 
4 1 -0.00770897 0.00870578 0.0137326 0.001058 0.0064118 0.000915196 0.00341804 2650 
124 1 -0.00510991 0.0478277 0.0129946 0.001058 0.0225448 0.0380641 0.0162983 2650 
116 1 -0.00570596 0.0583973 0.0129905 0.001058 -0.0278213 0.0454338 0.0115295 2650 
144 1 -0.00290926 0.0226956 0.0146296 0.000105 0.0152864 0.0109644 -0.00695946 2650 
147 1 -0.00501587 0.0401321 0.01492 0.001058 0.0373753 0.0132509 0.0100339 2650 
157 1 -0.000695558 0.0770901 -0.0136601 0.000291 0.0079085 0.0606548 0.000918149 2650 
79 1 0.00100729 -0.0264338 -0.0687006 0.000291 -3.5998 -0.616504 -0.0111206 2650 
152 1 0.00683327 -0.000401566 -0.0685533 0.000105 -6.60356 -0.13859 -0.657807 2650 
14 1 0.0176141 -0.047166 -0.0664336 0.000291 -10.4492 -0.334286 -2.76976 2650 
37 1 0.0154249 -0.036597 -0.0669549 0.000291 -7.33537 0.671018 -1.65591 2650 
15 1 0.0119831 -0.0205151 -0.0676644 0.000291 -8.84799 0.191239 -1.57986 2650 
225 1 0.0184808 -0.0450085 -0.0654082 0.001058 -10.2874 0.0226712 -2.90723 2650 
39 1 0.0206578 -0.0384546 -0.065535 0.000291 -10.7756 0.154251 -3.39767 2650 
46 1 0.0214534 -0.0187132 -0.0652935 0.000291 -8.82871 -0.00704342 -2.89967 2650 
207 1 0.0200868 -0.014979 -0.0657313 0.000291 -8.8331 -0.0583618 -2.70103 2650 
61 1 0.0193829 -0.00552461 -0.0659192 0.000291 -5.71175 0.1885 -1.65885 2650 
90 1 0.0232071 -0.0494091 -0.0638861 0.001058 -10.0321 -0.0119979 -3.6444 2650 
171 1 0.0251844 -0.0494199 -0.0631328 0.001058 -9.9138 -0.0059151 -3.95473 2650 
21 1 0.0274544 -0.0465815 -0.0630132 0.000291 -9.82068 0.0590675 -4.27909 2650 
275 1 0.0282225 -0.022043 -0.0626557 0.000291 -7.8685 0.781928 -3.5432 2650 
208 1 0.0279827 -0.0248964 -0.0619154 0.001058 -9.25328 0.282426 -4.1844 2650 
221 1 0.0307864 -0.0162893 -0.0614522 0.000291 -8.13229 0.280939 -4.08145 2650 
182 1 0.0337676 -0.0233582 -0.0598438 0.000291 -7.29368 0.198558 -4.1263 2650 
304 1 0.0344161 -0.0172965 -0.05949 0.000291 -7.25727 -0.155561 -4.14047 2650 
110 1 0.0382999 -0.00143968 -0.0570411 0.000291 -3.83254 -0.103394 -2.63384 2650 
55 1 0.0506066 -0.00379792 -0.046472 0.000291 -3.08906 -0.181137 -3.37428 2650 
24 1 0.0496854 -0.00185588 -0.0477259 0.000105 -6.60602 0.455599 -6.88308 2650 
45 1 0.0527601 -0.0054342 -0.044012 0.000291 -5.31674 -0.661048 -6.3755 2650 
257 1 0.0588817 -0.0492374 -0.0339474 0.001058 -5.33278 0.0554028 -9.24954 2650 
49 1 0.0600303 -0.0490578 -0.0306352 0.00164 -4.8163 -0.00335598 -9.43819 2650 
165 1 0.0615914 -0.0464315 -0.0305069 0.000291 -4.83029 0.00137856 -9.75132 2650 
296 1 0.06084 -0.00840571 -0.0319486 0.000291 -4.00713 -0.0935175 -7.62767 2650 
59 1 0.0617591 -0.0466191 -0.0283923 0.001058 -4.45743 0.0090541 -9.69616 2650 
179 1 0.0620292 -0.049043 -0.0277947 0.001058 -4.35973 0.0116562 -9.72945 2650 
200 1 0.0629671 -0.00859545 -0.0279828 0.000105 -3.77137 -0.139361 -8.49199 2650 
93 1 0.0642428 -0.0492167 -0.0244301 0.000291 -3.8882 -0.0219571 -10.2255 2650 
6 1 0.0638466 -0.00914542 -0.0254206 0.000291 -3.08735 0.364277 -7.73749 2650 
270 1 0.0651716 -0.00753695 -0.0217819 0.000291 -2.39701 0.276199 -7.18257 2650 
174 1 0.066406 -0.0268997 -0.0176253 0.000291 -2.22834 0.530878 -8.41797 2650 
197 1 0.0670128 -0.00463209 -0.0151642 0.000291 -1.38245 -0.0202929 -6.05833 2650 
146 1 0.0672204 -0.0488657 -0.00996087 0.001058 -1.5647 0.0013061 -10.5592 2650 
138 1 0.067463 -0.0556846 -0.00809411 0.001058 -1.27231 -0.0427565 -10.6051 2650 
248 1 0.0684906 -0.0264027 -0.00543392 0.000291 -0.845478 -0.242709 -10.6482 2650 
102 1 0.068463 -0.0134873 0.00558678 0.000291 0.793897 -0.156383 -9.2029 2650 
132 1 0.0662393 -0.0274266 0.0150981 0.001058 2.04381 0.0358681 -8.88558 2650 
170 1 0.0021599 -0.00159126 0.0156629 0.001058 0.0178138 -0.00502054 -0.00235441 2650 
95 1 0.00390135 -0.00024472 0.01404 0.000291 -0.0190214 0.000188354 -0.00919676 2650 
236 1 0.0656828 -0.0616472 0.0173944 0.001058 2.73465 -0.00371704 -10.3268 2650 
112 1 0.0663326 -0.0415957 0.0186663 0.000105 3.28827 -1.98589 -11.6708 2650 
254 1 0.0632683 -0.0505307 0.0268453 0.000291 4.23963 0.0147063 -9.99249 2650 
247 1 0.0635286 -0.050637 0.0262233 0.000291 4.0533 -0.0275143 -9.82195 2650 
88 1 0.063725 -0.014517 0.0262477 0.000105 3.19187 -0.585532 -7.76102 2650 
175 1 0.0635657 -0.00145411 0.026071 0.000291 3.4155 0.374827 -8.34623 2650 
188 1 0.0615509 -0.0616781 0.0287793 0.001058 4.52246 -0.0379346 -9.67397 2650 
218 1 0.0619448 -0.0492132 0.0279803 0.001058 4.3948 0.00235295 -9.72952 2650 
219 1 0.0619254 -0.00029095 0.0297655 0.000291 3.59007 -0.000564017 -7.44389 2650 
252 1 0.0602664 -0.00658558 0.0313893 0.001058 3.90224 -0.0564828 -7.47998 2650 
125 1 0.00901771 -0.0305562 0.0681169 0.000291 8.90924 0.277461 -1.19181 2650 
148 1 0.0595507 -0.053093 0.0327431 0.001058 5.1309 0.00534651 -9.33166 2650 
35 1 0.0599561 -0.0509381 0.032008 0.001058 5.03115 0.0222249 -9.42329 2650 
100 1 0.0597903 -0.0253002 0.0322788 0.001058 4.00374 -0.205036 -7.40982 2650 
43 1 0.058164 -0.0513018 0.0351536 0.001058 5.52261 0.0652056 -9.13789 2650 
22 1 0.0587294 -0.0178966 0.0356955 0.000291 4.32442 0.155901 -7.10963 2650 
20 1 0.0570446 -0.0555771 0.0369234 0.001058 5.80524 -0.0406795 -8.96885 2650 
159 1 0.0583234 -0.0521439 0.0363428 0.000291 5.54375 0.274193 -8.89672 2650 
78 1 0.0578061 -0.0435419 0.0371681 0.000291 5.56061 0.806645 -8.65955 2650 
268 1 0.0575052 -0.0173131 0.037633 0.000291 4.39512 0.382988 -6.78731 2650 
172 1 0.056068 -0.0541459 0.0383933 0.001058 6.02145 -0.0216901 -8.79355 2650 
193 1 0.0556026 -0.049841 0.0380651 0.00164 5.98568 0.0138566 -8.74426 2650 
300 1 0.0551152 -0.0152386 0.0397542 0.001058 4.25821 -0.100292 -5.87661 2650 
42 1 0.0542073 -0.0547276 0.0409735 0.001058 6.45583 -0.0315417 -8.53962 2650 
271 1 0.0541716 -0.0127041 0.0410257 0.001058 4.39717 0.173554 -5.86533 2650 
81 1 0.0527772 -0.050009 0.0418848 0.00164 6.58795 0.00350197 -8.30085 2650 
162 1 0.0533797 -0.0473843 0.0420492 0.001058 6.61081 0.00399775 -8.39247 2650 
141 1 0.0530352 -0.0322129 0.0436822 0.000291 6.55162 -0.0339885 -7.95499 2650 
64 1 0.0536221 -0.0151771 0.0432625 0.000105 5.38627 -7.5612e-05 -6.69205 2650 
185 1 0.0502492 -0.0518392 0.0448778 0.00164 7.04686 0.00387869 -7.89014 2650 
294 1 0.0517385 -0.0333911 0.0440418 0.001058 6.44429 0.0183015 -7.55933 2650 
278 1 0.0483171 -0.0333555 0.0477721 0.001058 7.18247 -0.513931 -7.26006 2650 
34 1 0.0480481 -0.0308719 0.0482368 0.001058 7.57165 -0.0016332 -7.54259 2650 
122 1 0.0451506 -0.0286328 0.0507741 0.001058 7.30885 -0.255942 -6.49892 2650 
117 1 0.0434135 -0.0234783 0.0532346 0.000291 5.23901 -0.599258 -4.28116 2650 
291 1 0.0331514 -0.045297 0.0602063 0.000291 3.09937 -0.803749 -1.66111 2650 
94 1 0.0294706 -0.00758356 0.0620746 0.000291 4.93228 0.291609 -2.4173 2650 
26 1 0.0171137 -0.0495382 0.0657772 0.001058 10.3302 0.0121142 -2.68752 2650 
96 1 0.025368 -0.00918229 0.0640672 0.000105 7.85527 -0.0496544 -3.09575 2650 
82 1 0.0133112 -0.0385772 0.0666361 0.001058 10.2178 -0.0639215 -2.04095 2650 
253 1 0.0143619 -0.0233481 0.0671951 0.000291 9.5742 0.0150576 -2.04731 2650 
48 1 0.00439576 -0.0457092 0.0687537 0.000105 10.2069 -0.392177 -0.650394 2650 
260 1 0.00819211 0.00689443 -0.0142488 0.000291 0.00264513 0.00634623 -0.0220501 2650 
54 1 0.00860189 0.032774 -0.0141014 0.000291 -0.0419811 -0.00158121 -0.0215212 2650 
286 1 0.00655813 0.038531 -0.0144153 0.001058 -0.02115 0.0482903 -0.0107899 2650 
33 1 0.00220802 0.0290088 -0.0121296 0.00164 0.00603998 0.0215627 0.00352792 2650 
301 1 0.00213918 0.0413772 -0.0131677 0.001058 -0.0176549 0.0163122 0.00371725 2650 
195 1 0.0121299 0.000909969 -0.0100067 0.001058 -0.0182689 0.00246922 -0.0247001 2650 
153 1 0.00898524 0.00431924 -0.0118384 0.00164 0.00901504 -0.00371715 -0.0192614 2650 
292 1 0.00437094 0.0510641 -0.0115601 0.001058 -0.0104367 0.0376087 -0.0291473 2650 
284 1 0.0121079 0.0131201 -0.00800534 0.000291 -0.00371053 0.00586111 -0.00129449 2650 
176 1 0.0156196 0.00025019 -0.00613587 0.000105 -0.0113334 0.00168079 0.000719247 2650 
77 1 0.01018 0.0118092 -0.00780847 0.000291 -0.0117356 0.000913058 0.0103562 2650 
19 1 0.0131988 0.0110574 -0.00718015 0.001058 -0.00189711 0.0050805 -0.00113271 2650 
123 1 0.0126673 0.0373187 -0.00668386 0.001058 -0.0069266 0.0381635 -0.00768552 2650 
101 1 0.0122381 0.000351632 -0.00402709 0.000291 0.0107852 -0.0015929 -0.0095042 2650 
199 1 0.01406 0.00549017 -0.00490325 0.000291 -0.0066469 0.00203541 -0.00705897 2650 
161 1 0.0136343 0.00781894 -0.00482497 0.00164 -0.000454856 0.00568005 -0.00417258 2650 
57 1 0.00564527 0.0270166 -0.00517598 0.00164 -0.000919831 0.00616449 -0.024056 2650 
70 1 0.00416337 0.0526611 -0.00438814 0.000291 0.000986621 0.0559838 -0.0454673 2650 
113 1 0.000413525 0.00572662 -0.00217344 0.00164 -0.0131936 -0.00156564 -0.00033725 2650 
51 1 0.00142734 0.0136116 -0.00340904 0.001058 -0.0414136 0.0415048 -0.0353246 2650 
203 1 0.0112859 0.0257731 -0.00257986 0.001058 0.0105265 0.0334803 0.00411967 2650 
249 1 0.00588702 0.0351378 -0.0028874 0.000291 0.00987628 0.0185258 -0.0129358 2650 
279 1 0.0113019 0.00598666 -0.000464236 0.001058 0.00690887 -0.00122776 0.0071413 2650 
92 1 0.0126228 0.00787597 -4.19238e-05 0.001058 0.00298746 0.00292354 0.00546929 2650 
1 1 0.0140273 0.00609177 -0.00184721 0.00164 -0.00396175 0.00352346 -0.00443708 2650 
194 1 0.0120036 0.034226 -0.00014574 0.001058 -0.00717738 0.0355954 0.00284246 2650 
258 1 0.0123786 0.0388735 -0.00192112 0.001058 -0.00702738 0.0458888 -0.00817646 2650 
263 1 0.00899781 0.0578843 -0.00119337 0.000291 -0.0276857 0.0691876 -0.0511194 2650 
38 1 0.0118849 0.0187157 0.00338494 0.000291 0.0290333 0.00993382 0.0254358 2650 
106 1 0.000168903 0.0318408 0.00258729 0.001058 0.0119634 0.0223893 -0.0027555 2650 
52 1 0.0151186 0.0495487 0.00274722 0.001058 0.020942 0.0217799 -0.017467 2650 
17 1 0.0146301 0.0529514 0.00344612 0.00164 0.00701424 0.0397619 -0.0326359 2650 
9 1 0.0135083 0.0370534 0.00466989 0.00164 -0.00067168 0.0470366 0.00650688 2650 
298 1 0.012976 0.00274899 0.00719813 0.000105 0.00377194 -0.00442838 -0.00799766 2650 
238 1 0.013937 0.0487192 0.00670965 0.001058 0.0185997 0.0286204 -0.0105297 2650 
156 1 0.0125133 0.00683466 0.00909638 0.001058 -0.00386139 -0.00886559 -0.00604091 2650 
293 1 0.0126847 0.0431665 0.00946178 0.001058 0.0696914 0.00443324 -0.0800334 2650 
66 1 0.0109149 0.0079352 0.0105079 0.001058 0.00109107 -0.000952032 -0.00287426 2650 
265 1 0.0119236 0.0123838 0.010313 0.001058 0.00631372 0.00593974 -0.00936806 2650 
139 1 0.00939422 0.0247064 0.0104232 0.001058 -0.0138539 0.00679752 0.0124887 2650 
242 1 0.000994959 0.0362534 0.0112665 0.000291 0.0116924 0.0265357 0.00697501 2650 
222 1 0.00155754 0.000435121 0.0125023 0.001058 -0.0324875 0.00467874 -0.0112895 2650 
105 1 0.00715944 0.0190023 0.012583 0.00164 -0.0169664 0.0100977 -0.000660089 2650 
41 1 0.00285621 0.020318 0.0141237 0.00164 0.0068016 0.00438666 -0.0112207 2650 
245 1 0.0094271 0.0963379 -0.0125585 0.001058 0.013355 0.0538623 -0.0223836 2650 
75 1 0.00950804 0.0757341 -0.0119312 0.001058 0.0240155 0.0510522 0.00788599 2650 
127 1 0.0149962 0.0871685 -0.00483377 0.000291 0.0147798 0.0618117 0.0201086 2650 
