ITEM: TIMESTEP
123480
ITEM: NUMBER OF ATOMS
305
ITEM: BOX BOUNDS ff ff ff
-0.15 0.15
-0.15 0.15
-0.15 0.15
ITEM: ATOMS id type x y z radius vx vy vz density 
151 1 -0.005422 -0.00264455 -0.014895 0.000291 0 -0.011755 0 2650 
241 1 -0.008593 -0.000141549 -0.012306 0.000291 0 -0.011755 0 2650 
93 1 -0.009903 -0.000227549 -0.011082 0.000291 0 -0.011755 0 2650 
215 1 -0.00232 -0.00228755 -0.00968 0.001058 0 -0.011755 0 2650 
152 1 -0.0119677 -0.000378101 -0.00918204 0.000105 1.29404 -0.143157 1.08379 2650 
86 1 -0.013851 -0.00264255 -0.006364 0.000291 0 -0.011755 0 2650 
219 1 -0.000437 -0.00291355 -0.006263 0.000291 0 -0.011755 0 2650 
167 1 -0.007283 -0.00200155 -0.00514 0.000291 0 -0.011755 0 2650 
59 1 -0.006843 -0.000651549 -0.004603 0.001058 0 -0.011755 0 2650 
23 1 -0.005085 -0.00110755 -0.002724 0.000291 0 -0.011755 0 2650 
107 1 -0.003706 -0.000786549 -0.003027 0.001058 0 -0.011755 0 2650 
169 1 -0.008334 -0.00163955 0.00115 0.00164 0 -0.011755 0 2650 
127 1 -0.006868 -0.000604549 0.0035 0.000291 0 -0.011755 0 2650 
229 1 -0.004626 -0.00114655 0.002362 0.001058 0 -0.011755 0 2650 
89 1 -0.00111495 -0.00132238 0.00333815 0.00164 -0.0058431 -0.0117287 -0.0183195 2650 
2 1 -0.013701 -0.000802549 0.005224 0.001058 0 -0.011755 0 2650 
63 1 -0.010157 -0.000793549 0.004282 0.000291 0 -0.011755 0 2650 
157 1 -0.011403 -0.000852549 0.006122 0.000291 0 -0.011755 0 2650 
36 1 -0.012004 -0.00131955 0.009853 0.001058 0 -0.011755 0 2650 
257 1 -0.009847 -0.000882549 0.008559 0.001058 0 -0.011755 0 2650 
230 1 -0.003926 -9.15494e-05 0.009687 0.001058 0 -0.011755 0 2650 
119 1 -0.002296 -0.00286155 0.011353 0.000291 0 -0.011755 0 2650 
84 1 -0.000959 -0.00165855 0.012417 0.001058 0 -0.011755 0 2650 
147 1 -0.000208 -0.000249549 0.014718 0.001058 0 -0.011755 0 2650 
69 1 -0.001355 -0.00302355 0.016552 0.000291 0 -0.011755 0 2650 
17 1 -0.004286 0.00444045 -0.01432 0.00164 0 -0.011755 0 2650 
85 1 -0.003548 0.00673445 -0.015444 0.000291 0 -0.011755 0 2650 
70 1 -0.002345 0.00853645 -0.015511 0.000291 0 -0.011755 0 2650 
26 1 -0.001687 0.00186445 -0.013653 0.001058 0 -0.011755 0 2650 
295 1 -0.006507 0.00325145 -0.01264 0.000291 0 -0.011755 0 2650 
189 1 -0.004115 0.00292945 -0.01297 0.000291 0 -0.011755 0 2650 
115 1 -0.009032 0.00858345 -0.012506 0.001058 0 -0.011755 0 2650 
33 1 -0.003866 0.0115995 -0.012959 0.00164 0 -0.011755 0 2650 
163 1 -0.005911 0.00170645 -0.010628 0.001058 0 -0.011755 0 2650 
280 1 -0.002975 0.00421345 -0.011733 0.001058 0 -0.011755 0 2650 
198 1 -0.01006 0.00788045 -0.011926 0.000291 0 -0.011755 0 2650 
47 1 -0.011528 0.00918445 -0.010748 0.000291 0 -0.011755 0 2650 
234 1 -0.003052 0.00797745 -0.010232 0.000291 0 -0.011755 0 2650 
273 1 -0.00119 0.00793945 -0.010246 0.001058 0 -0.011755 0 2650 
94 1 -0.011581 0.0136615 -0.01188 0.000291 0 -0.011755 0 2650 
166 1 -0.005567 0.00120145 -0.009051 0.000291 0 -0.011755 0 2650 
108 1 -0.007031 0.00394045 -0.009032 0.001058 0 -0.011755 0 2650 
41 1 -0.004963 0.00780945 -0.00808 0.00164 0 -0.011755 0 2650 
175 1 -0.013247 0.00922445 -0.008751 0.000291 0 -0.011755 0 2650 
32 1 -0.005217 0.0109115 -0.009972 0.000105 0 -0.011755 0 2650 
144 1 -0.011054 0.0137825 -0.008779 0.000105 0 -0.011755 0 2650 
220 1 -0.007471 0.0136075 -0.009174 0.000291 0 -0.011755 0 2650 
293 1 -0.009422 0.00177145 -0.006923 0.001058 0 -0.011755 0 2650 
137 1 -0.001323 0.00127445 -0.006126 0.00164 0 -0.011755 0 2650 
200 1 -0.012172 0.00248445 -0.006974 0.000105 0 -0.011755 0 2650 
218 1 -0.005846 0.00278545 -0.007271 0.001058 0 -0.011755 0 2650 
250 1 -0.013194 0.00487745 -0.006197 0.001058 0 -0.011755 0 2650 
139 1 -0.002128 0.0121045 -0.007544 0.001058 0 -0.011755 0 2650 
214 1 -0.008446 0.00219445 -0.004092 0.000291 0 -0.011755 0 2650 
90 1 -0.011411 0.00528045 -0.004952 0.001058 0 -0.011755 0 2650 
43 1 -0.009394 0.00445445 -0.004615 0.001058 0 -0.011755 0 2650 
203 1 -0.007542 0.00395545 -0.005618 0.001058 0 -0.011755 0 2650 
76 1 -0.003173 0.00428245 -0.005708 0.001058 0 -0.011755 0 2650 
240 1 -0.010392 0.00982645 -0.005262 0.000291 0 -0.011755 0 2650 
276 1 -0.013674 0.0107685 -0.004231 0.000291 0 -0.011755 0 2650 
74 1 -0.012237 0.0111665 -0.004721 0.001058 0 -0.011755 0 2650 
57 1 -0.003435 0.0107795 -0.00509 0.00164 0 -0.011755 0 2650 
159 1 -0.012707 0.0137625 -0.00588 0.000291 0 -0.011755 0 2650 
187 1 -0.008823 0.0128955 -0.005124 0.001058 0 -0.011755 0 2650 
282 1 -0.001816 0.000154451 -0.002164 0.000291 0 -0.011755 0 2650 
116 1 -0.013496 0.00229445 -0.003353 0.001058 0 -0.011755 0 2650 
270 1 -0.006476 0.00370945 -0.003483 0.000291 0 -0.011755 0 2650 
211 1 -0.013621 0.00550845 -0.002856 0.001058 0 -0.011755 0 2650 
25 1 -0.00325908 0.00399148 -0.00204898 0.00164 -0.395379 -0.347415 0.0543598 2650 
274 1 -0.016349 0.00763345 -0.002509 0.000291 0 -0.011755 0 2650 
114 1 -0.012867 0.00816445 -0.002401 0.001058 0 -0.011755 0 2650 
195 1 -0.00269873 0.0082623 -0.00212574 0.001058 -0.564227 -0.0698965 -0.251269 2650 
104 1 -0.014089 0.0105505 -0.003012 0.000105 0 -0.011755 0 2650 
13 1 -0.014201 0.00986845 -0.003882 0.000291 0 -0.011755 0 2650 
65 1 -0.007668 0.0102625 -0.002912 0.00164 0 -0.011755 0 2650 
5 1 -0.003677 0.0104445 -0.003142 0.000291 0 -0.011755 0 2650 
256 1 -0.010193 0.0118695 -0.003721 0.000291 0 -0.011755 0 2650 
7 1 -0.008475 0.0134895 -0.002976 0.000291 0 -0.011755 0 2650 
180 1 -0.015098 0.00154345 -0.001623 0.001058 0 -0.011755 0 2650 
135 1 -0.004812 0.00122145 -0.000294 0.000291 0 -0.011755 0 2650 
123 1 -0.014683 0.00303845 -0.000117 0.001058 0 -0.011755 0 2650 
131 1 -0.011237 0.00553545 -0.00144 0.001058 0 -0.011755 0 2650 
140 1 -0.008912 0.00416045 -0.000862 0.001058 0 -0.011755 0 2650 
223 1 -0.007868 0.00666345 -0.001863 0.001058 0 -0.011755 0 2650 
283 1 -0.004418 0.00771945 -0.001848 0.000291 0 -0.011755 0 2650 
11 1 -0.000742505 0.00865134 -0.00131424 0.001058 -0.418011 0.273836 -0.304494 2650 
10 1 -0.012845 0.0112525 -0.000712 0.001058 0 -0.011755 0 2650 
61 1 -0.016439 0.0134805 -0.001038 0.000291 0 -0.011755 0 2650 
245 1 -0.004183 0.0125385 -0.000955 0.001058 0 -0.011755 0 2650 
99 1 -0.011672 0.00115645 9.8e-05 0.001058 0 -0.011755 0 2650 
75 1 -0.008381 0.00124645 0.001024 0.001058 0 -0.011755 0 2650 
122 1 -0.001782 0.00197245 0.000344 0.001058 0 -0.011755 0 2650 
206 1 -0.013164 0.00354045 0.001584 0.000291 0 -0.011755 0 2650 
191 1 -0.0108 0.00590745 0.001549 0.000291 0 -0.011755 0 2650 
14 1 -0.006378 0.00457545 0.001478 0.000291 0 -0.011755 0 2650 
296 1 -0.005879 0.00505345 0.000521 0.000291 0 -0.011755 0 2650 
73 1 -0.00281607 0.00445295 0.00187405 0.00164 -0.0820148 -0.0776381 0.258839 2650 
168 1 -0.007536 0.00691845 0.001389 0.000105 0 -0.011755 0 2650 
120 1 -0.016055 0.00912045 0.000189 0.000105 0 -0.011755 0 2650 
209 1 -0.010932 0.00903245 0.001176 0.001058 0 -0.011755 0 2650 
80 1 -0.014935 0.0118185 0.00039 0.000105 0 -0.011755 0 2650 
27 1 -0.000880667 0.0117997 0.000455439 0.001058 -0.586472 0.651759 0.20806 2650 
268 1 -0.011054 0.0123425 0.000789 0.000291 0 -0.011755 0 2650 
129 1 -0.008713 0.0121565 0.001908 0.00164 0 -0.011755 0 2650 
262 1 -0.0022106 0.0125222 0.000102983 0.000291 -0.765261 0.605526 -0.00371927 2650 
106 1 -0.009716 0.00157445 0.002779 0.001058 0 -0.011755 0 2650 
158 1 -0.007297 0.00111745 0.003049 0.000291 0 -0.011755 0 2650 
149 1 -0.004792 0.00107145 0.002724 0.000291 0 -0.011755 0 2650 
132 1 -0.01481 0.00197445 0.003327 0.001058 0 -0.011755 0 2650 
272 1 -0.001203 0.00197845 0.002609 0.001058 0 -0.011755 0 2650 
124 1 -0.014115 0.00461145 0.003875 0.001058 0 -0.011755 0 2650 
302 1 -0.008928 0.00480545 0.003809 0.000291 0 -0.011755 0 2650 
18 1 -0.005138 0.00611245 0.00212 0.001058 0 -0.011755 0 2650 
77 1 -0.00293 0.00911545 0.00386 0.000291 0 -0.011755 0 2650 
242 1 -0.003848 0.00975445 0.003544 0.000291 0 -0.011755 0 2650 
176 1 -0.003983 0.0104575 0.002552 0.000105 0 -0.011755 0 2650 
301 1 -0.0002595 0.0118229 0.00398126 0.001058 -0.0543663 -0.019113 0.278893 2650 
146 1 -0.004942 0.00146145 0.005528 0.001058 0 -0.011755 0 2650 
49 1 -0.007469 0.00224145 0.004859 0.00164 0 -0.011755 0 2650 
182 1 -0.007428 0.00439145 0.005665 0.000291 0 -0.011755 0 2650 
58 1 -0.009725 0.00607245 0.005089 0.001058 0 -0.011755 0 2650 
53 1 -0.000389 0.00719545 0.004762 0.000291 0 -0.011755 0 2650 
28 1 -0.013611 0.00845545 0.005538 0.001058 0 -0.011755 0 2650 
170 1 -0.01149 0.00859045 0.005193 0.001058 0 -0.011755 0 2650 
238 1 -0.009207 0.00934345 0.004742 0.001058 0 -0.011755 0 2650 
164 1 -0.003894 0.00949345 0.005467 0.001058 0 -0.011755 0 2650 
291 1 -0.008194 0.0138675 0.004767 0.000291 0 -0.011755 0 2650 
42 1 -0.008546 0.000451451 0.006756 0.001058 0 -0.011755 0 2650 
235 1 -0.001066 0.00173445 0.007831 0.000291 0 -0.011755 0 2650 
266 1 -0.012878 0.00285745 0.007692 0.001058 0 -0.011755 0 2650 
64 1 -0.001837 0.00215945 0.007035 0.000105 0 -0.011755 0 2650 
254 1 -0.006211 0.00473045 0.006905 0.000291 0 -0.011755 0 2650 
285 1 -0.004765 0.00525845 0.007325 0.001058 0 -0.011755 0 2650 
98 1 -0.001703 0.00705645 0.00616 0.001058 0 -0.011755 0 2650 
186 1 -0.006177 0.0118095 0.006545 0.001058 0 -0.011755 0 2650 
251 1 -0.001189 0.0115905 0.006515 0.001058 0 -0.011755 0 2650 
111 1 -0.009474 0.00180445 0.008964 0.000291 0 -0.011755 0 2650 
44 1 -0.007195 0.00394645 0.008791 0.001058 0 -0.011755 0 2650 
153 1 -0.001707 0.0114025 0.009196 0.00164 0 -0.011755 0 2650 
304 1 -0.012709 0.0131485 0.009818 0.000291 0 -0.011755 0 2650 
4 1 -0.013492 0.0130275 0.008313 0.001058 0 -0.011755 0 2650 
216 1 -2.11889e-05 0.0189822 0.00812698 0.001058 -0.41183 1.02999 1.5984 2650 
154 1 -0.004844 0.00125945 0.011798 0.001058 0 -0.011755 0 2650 
204 1 -0.00156 0.000265451 0.010678 0.001058 0 -0.011755 0 2650 
38 1 -0.000348 0.00156745 0.010029 0.000291 0 -0.011755 0 2650 
202 1 -0.004505 0.00431245 0.010341 0.001058 0 -0.011755 0 2650 
233 1 -0.001796 0.00449245 0.010436 0.000291 0 -0.011755 0 2650 
217 1 -0.006441 0.00737245 0.010175 0.001058 0 -0.011755 0 2650 
224 1 -0.005732 0.00960345 0.011304 0.001058 0 -0.011755 0 2650 
35 1 -0.002198 0.00795345 0.010984 0.001058 0 -0.011755 0 2650 
299 1 -0.010562 0.0115895 0.010709 0.001058 0 -0.011755 0 2650 
55 1 -0.01171 0.0136165 0.01034 0.000291 0 -0.011755 0 2650 
68 1 -0.004897 0.0120945 0.010965 0.001058 0 -0.011755 0 2650 
97 1 -0.008835 0.00160345 0.012395 0.00164 0 -0.011755 0 2650 
226 1 -0.009224 0.00546445 0.012787 0.000291 0 -0.011755 0 2650 
300 1 -0.008361 0.00797745 0.012594 0.001058 0 -0.011755 0 2650 
249 1 -0.007109 0.00927645 0.012591 0.000291 0 -0.011755 0 2650 
100 1 -0.001096 0.00891645 0.01281 0.001058 0 -0.011755 0 2650 
156 1 -0.001251 0.0125275 0.01374 0.001058 0 -0.011755 0 2650 
29 1 -0.0052 0.00926745 0.014245 0.000291 0 -0.011755 0 2650 
265 1 -0.000465 0.0101205 0.015551 0.001058 0 -0.011755 0 2650 
172 1 0.001341 -0.00173955 -0.014713 0.001058 0 -0.011755 0 2650 
297 1 0.008771 -0.00265555 -0.012385 0.000291 0 -0.011755 0 2650 
292 1 0.002958 -0.000292549 -0.012416 0.001058 0 -0.011755 0 2650 
165 1 0.001742 -0.00237855 -0.011536 0.000291 0 -0.011755 0 2650 
188 1 0.003247 -0.00133855 -0.009042 0.001058 0 -0.011755 0 2650 
185 1 0.007006 -9.95494e-05 -0.006884 0.00164 0 -0.011755 0 2650 
109 1 0.0089 -0.00152255 -0.006999 0.000291 0 -0.011755 0 2650 
62 1 0.005002 -0.000715549 -0.004312 0.000291 0 -0.011755 0 2650 
221 1 0.006551 -0.00156255 -0.004504 0.000291 0 -0.011755 0 2650 
133 1 0.005559 -0.00288255 -0.003229 0.000291 0 -0.011755 0 2650 
20 1 0.013152 -0.000690549 -0.002682 0.001058 0 -0.011755 0 2650 
125 1 0.009308 -0.00312455 -0.000416 0.000291 0 -0.011755 0 2650 
239 1 0.008697 -0.000903549 -0.000945 0.001058 0 -0.011755 0 2650 
87 1 0.010454 -0.000721549 -0.001717 0.000291 0 -0.011755 0 2650 
34 1 0.00349363 -0.00719476 4.92205e-05 0.001058 -0.357682 -0.85465 -0.380737 2650 
288 1 0.006653 -0.000896549 0.001326 0.000291 0 -0.011755 0 2650 
21 1 0.010034 -0.00249755 0.002765 0.000291 0 -0.011755 0 2650 
179 1 0.002629 -0.00120155 0.002938 0.001058 0 -0.011755 0 2650 
121 1 0.013566 -0.000274549 0.003132 0.00164 0 -0.011755 0 2650 
290 1 0.00251283 -0.00205385 0.00574489 0.000291 -0.402244 -0.539707 -0.298897 2650 
148 1 0.0033114 -0.00111949 0.00702858 0.001058 -0.608021 -0.262242 0.214661 2650 
192 1 0.012227 -0.00194555 0.006398 0.000105 0 -0.011755 0 2650 
236 1 0.006689 -0.000373549 0.009585 0.001058 0 -0.011755 0 2650 
15 1 0.012888 -0.00150155 0.009988 0.000291 0 -0.011755 0 2650 
281 1 0.006175 -0.00200455 0.011215 0.000291 0 -0.011755 0 2650 
181 1 0.012465 -0.000761549 0.010211 0.000291 0 -0.011755 0 2650 
22 1 0.004059 -0.00299255 0.013525 0.000291 0 -0.011755 0 2650 
155 1 0.005921 0.00138745 -0.01427 0.001058 0 -0.011755 0 2650 
303 1 0.001598 0.00515445 -0.015917 0.000291 0 -0.011755 0 2650 
46 1 0.007499 0.00459145 -0.014091 0.000291 0 -0.011755 0 2650 
130 1 1.4e-05 0.00724545 -0.015674 0.001058 0 -0.011755 0 2650 
269 1 0.002277 0.00741845 -0.015181 0.000291 0 -0.011755 0 2650 
160 1 0.004468 0.00627745 -0.014641 0.000105 0 -0.011755 0 2650 
37 1 0.006156 0.0131805 -0.015157 0.000291 0 -0.011755 0 2650 
237 1 0.005321 0.00385445 -0.012467 0.001058 0 -0.011755 0 2650 
289 1 0.001465 0.00784145 -0.012477 0.000291 0 -0.011755 0 2650 
263 1 0.006877 0.00667445 -0.012319 0.000291 0 -0.011755 0 2650 
142 1 0.002378 0.00825645 -0.013184 0.000291 0 -0.011755 0 2650 
252 1 0.00245 0.0115515 -0.01336 0.001058 0 -0.011755 0 2650 
78 1 0.001258 0.0131665 -0.012517 0.000291 0 -0.011755 0 2650 
141 1 0.004693 0.00134245 -0.010381 0.000291 0 -0.011755 0 2650 
83 1 0.007342 0.000519451 -0.011981 0.001058 0 -0.011755 0 2650 
196 1 0.002599 0.00514745 -0.011929 0.001058 0 -0.011755 0 2650 
201 1 0.008831 0.00667045 -0.010349 0.00164 0 -0.011755 0 2650 
105 1 0.003632 0.0118345 -0.010703 0.00164 0 -0.011755 0 2650 
275 1 0.012705 0.0109135 -0.010476 0.000291 0 -0.011755 0 2650 
110 1 0.010451 0.0134575 -0.010748 0.000291 0 -0.011755 0 2650 
162 1 0.010619 0.000213451 -0.009864 0.001058 0 -0.011755 0 2650 
213 1 0.001757 0.00217945 -0.008127 0.000291 0 -0.011755 0 2650 
259 1 0.006357 0.00310845 -0.00938 0.001058 0 -0.011755 0 2650 
40 1 0.002884 0.000425451 -0.006462 0.000105 0 -0.011755 0 2650 
30 1 0.005625 0.00185745 -0.00604 0.000291 0 -0.011755 0 2650 
67 1 0.00898 0.00454245 -0.006049 0.001058 0 -0.011755 0 2650 
102 1 0.003423 0.00657945 -0.006065 0.000291 0 -0.011755 0 2650 
117 1 0.004754 0.00684145 -0.007063 0.000291 0 -0.011755 0 2650 
134 1 0.011983 0.00659345 -0.006239 0.000291 0 -0.011755 0 2650 
60 1 0.007579 0.00948245 -0.006312 0.001058 0 -0.011755 0 2650 
45 1 0.010575 0.00940245 -0.007722 0.000291 0 -0.011755 0 2650 
271 1 0.001328 0.0113065 -0.00636 0.001058 0 -0.011755 0 2650 
16 1 0.006364 0.000553451 -0.005251 0.000105 0 -0.011755 0 2650 
39 1 0.011011 0.000240451 -0.005294 0.000291 0 -0.011755 0 2650 
178 1 0.003641 0.00366145 -0.005569 0.001058 0 -0.011755 0 2650 
197 1 0.007512 0.00199545 -0.004043 0.000291 0 -0.011755 0 2650 
92 1 0.010471 0.00204645 -0.004542 0.001058 0 -0.011755 0 2650 
260 1 0.010685 0.00418945 -0.004932 0.000291 0 -0.011755 0 2650 
161 1 0.013129 0.00427245 -0.005759 0.00164 0 -0.011755 0 2650 
246 1 0.001376 0.00608045 -0.005453 0.001058 0 -0.011755 0 2650 
279 1 0.011818 0.00853645 -0.00556 0.001058 0 -0.011755 0 2650 
19 1 0.013799 0.0110655 -0.005439 0.001058 0 -0.011755 0 2650 
199 1 0.014464 0.00989345 -0.004562 0.000291 0 -0.011755 0 2650 
278 1 7.4e-05 0.0119935 -0.004448 0.001058 0 -0.011755 0 2650 
284 1 0.014191 0.0127735 -0.005949 0.000291 0 -0.011755 0 2650 
8 1 0.000989 0.000278451 -0.00369 0.000105 0 -0.011755 0 2650 
173 1 0.002644 0.00150245 -0.002982 0.000291 0 -0.011755 0 2650 
171 1 0.000459 0.00299645 -0.002783 0.001058 0 -0.011755 0 2650 
88 1 0.002864 0.00470645 -0.002457 0.000105 0 -0.011755 0 2650 
205 1 0.005264 0.00507545 -0.002386 0.000291 0 -0.011755 0 2650 
177 1 0.007332 0.00457245 -0.003583 0.00164 0 -0.011755 0 2650 
253 1 0.014729 0.00825145 -0.002617 0.000291 0 -0.011755 0 2650 
227 1 0.00944 0.0100805 -0.002109 0.000291 0 -0.011755 0 2650 
248 1 0.008036 0.000147451 -0.000368 0.000291 0 -0.011755 0 2650 
72 1 0.013289 0.00118245 -0.000624 0.000105 0 -0.011755 0 2650 
6 1 0.004141 0.00242845 -0.001643 0.000291 0 -0.011755 0 2650 
113 1 0.010337 0.00770645 -0.001708 0.00164 0 -0.011755 0 2650 
190 1 0.005899 0.0127825 -0.000534 0.000291 0 -0.011755 0 2650 
255 1 0.005303 0.000450451 0.000727 0.000291 0 -0.011755 0 2650 
56 1 0.00459 0.00120745 0.000864 0.000105 0 -0.011755 0 2650 
277 1 0.015014 0.00344745 0.001212 0.000291 0 -0.011755 0 2650 
183 1 0.01481 0.00306945 0.000242 0.000291 0 -0.011755 0 2650 
96 1 0.009869 0.00483645 0.000788 0.000105 0 -0.011755 0 2650 
81 1 0.007451 0.00619945 7.8e-05 0.00164 0 -0.011755 0 2650 
261 1 0.011218 0.00637545 0.000328 0.000291 0 -0.011755 0 2650 
48 1 0.009671 0.0106745 0.000233 0.000105 0 -0.011755 0 2650 
128 1 0.00361 0.0123815 0.000511 0.000105 0 -0.011755 0 2650 
9 1 0.012984 0.0124195 0.000468 0.00164 0 -0.011755 0 2650 
286 1 0.015584 0.0130875 0.000132 0.001058 0 -0.011755 0 2650 
225 1 0.001446 0.00326645 0.002203 0.001058 0 -0.011755 0 2650 
264 1 0.003305 0.00241245 0.003449 0.001058 0 -0.011755 0 2650 
143 1 0.013105 0.00353645 0.003332 0.000291 0 -0.011755 0 2650 
210 1 0.010971 0.00552945 0.002357 0.001058 0 -0.011755 0 2650 
136 1 0.002479 0.00746545 0.002558 0.000105 0 -0.011755 0 2650 
52 1 0.001275 0.00890145 0.003855 0.001058 0 -0.011755 0 2650 
54 1 0.004344 0.00884945 0.003581 0.000291 0 -0.011755 0 2650 
101 1 0.004812 0.0111045 0.002517 0.000291 0 -0.011755 0 2650 
294 1 0.006997 0.0103885 0.003581 0.001058 0 -0.011755 0 2650 
12 1 1.87645e-05 0.0133954 0.002086 0.001058 -0.108989 0.630803 0.362095 2650 
31 1 0.0032404 0.0145163 0.00326457 0.000291 -0.50313 1.43511 0.0848153 2650 
247 1 0.001401 0.000299451 0.005706 0.000291 0 -0.011755 0 2650 
267 1 0.007574 0.00263345 0.005778 0.000291 0 -0.011755 0 2650 
305 1 0.007934 0.00337545 0.005234 0.000105 0 -0.011755 0 2650 
50 1 0.006699 0.00461645 0.005883 0.001058 0 -0.011755 0 2650 
150 1 0.010064 0.00471745 0.004311 0.000291 0 -0.011755 0 2650 
138 1 0.004584 0.00647245 0.005554 0.001058 0 -0.011755 0 2650 
212 1 0.001087 0.0108985 0.005915 0.000291 0 -0.011755 0 2650 
24 1 0.005464 0.0104705 0.005551 0.000105 0 -0.011755 0 2650 
51 1 0.009662 0.0115435 0.004577 0.001058 0 -0.011755 0 2650 
244 1 0.014869 0.0109565 0.00421 0.001058 0 -0.011755 0 2650 
79 1 0.014214 0.0133835 0.005058 0.000291 0 -0.011755 0 2650 
118 1 0.001179 0.00279845 0.007467 0.000291 0 -0.011755 0 2650 
232 1 0.003256 0.00536745 0.007333 0.001058 0 -0.011755 0 2650 
174 1 0.002361 0.00436945 0.006466 0.000291 0 -0.011755 0 2650 
207 1 0.000324 0.00605545 0.006532 0.000291 0 -0.011755 0 2650 
91 1 0.00591429 0.00648953 0.00781768 0.001058 -0.304959 0.142051 -0.493352 2650 
208 1 0.009461 0.00673145 0.007837 0.001058 0 -0.011755 0 2650 
231 1 0.006459 0.0100955 0.007445 0.001058 0 -0.011755 0 2650 
71 1 1.4e-05 0.0125125 0.007319 0.000291 0 -0.011755 0 2650 
222 1 0.009219 0.0127425 0.006833 0.001058 0 -0.011755 0 2650 
112 1 0.013668 0.0137065 0.007002 0.000105 0 -0.011755 0 2650 
243 1 0.01084 0.000867451 0.008454 0.001058 0 -0.011755 0 2650 
193 1 0.00696051 0.00288688 0.00977119 0.00164 -0.00988284 -0.0513903 -0.0122024 2650 
145 1 0.003739 0.0118275 0.008626 0.00164 0 -0.011755 0 2650 
194 1 0.007709 0.0108745 0.009989 0.001058 0 -0.011755 0 2650 
1 1 0.002172 0.00337145 0.010007 0.00164 0 -0.011755 0 2650 
228 1 0.010294 0.00387845 0.01009 0.000291 0 -0.011755 0 2650 
103 1 0.005979 0.00707345 0.01127 0.000291 0 -0.011755 0 2650 
258 1 0.009255 0.00816445 0.010506 0.001058 0 -0.011755 0 2650 
66 1 0.001767 0.0107555 0.01167 0.001058 0 -0.011755 0 2650 
298 1 0.003487 0.0118055 0.011695 0.000105 0 -0.011755 0 2650 
126 1 0.001803 0.0135195 0.01041 0.000291 0 -0.011755 0 2650 
184 1 0.009563 0.00167545 0.012192 0.000105 0 -0.011755 0 2650 
3 1 0.001912 0.00345845 0.013741 0.001058 0 -0.011755 0 2650 
287 1 0.006558 0.00645945 0.013233 0.001058 0 -0.011755 0 2650 
95 1 0.006942 0.00852045 0.013027 0.000291 0 -0.011755 0 2650 
82 1 0.000755 0.00604245 0.014898 0.001058 0 -0.011755 0 2650 
