ITEM: TIMESTEP
5803468
ITEM: NUMBER OF ATOMS
299
ITEM: BOX BOUNDS ff ff ff
-0.15 0.15
-0.15 0.15
-0.15 0.15
ITEM: ATOMS id type x y z radius vx vy vz density 
93 1 -0.00719568 -0.025129 -0.0683305 0.000291 -9.33849 -0.0332314 0.985357 2650 
20 1 -0.00506407 -0.034058 -0.067758 0.001058 -9.2653 -0.378154 0.722899 2650 
221 1 -0.0140757 -0.0290856 -0.0672497 0.000291 -7.8907 0.0592379 1.64299 2650 
121 1 -0.00763622 -0.0268693 -0.0669334 0.00164 -7.68607 -0.147122 0.841502 2650 
192 1 -0.0266297 -0.000105137 -0.0635388 0.000105 -5.9839 -0.00145993 2.52522 2650 
219 1 -0.0256451 -0.000290981 -0.0637435 0.000291 -6.00439 -0.00156259 2.40377 2650 
8 1 -0.0304447 -0.0116139 -0.0618229 0.000105 -3.6135 0.221974 1.79302 2650 
302 1 -0.035889 -0.0240742 -0.0585922 0.000291 -3.29225 0.23645 1.98191 2650 
21 1 -0.0433416 -0.0422474 -0.0533176 0.000291 -5.89687 -0.155442 4.76227 2650 
173 1 -0.0427429 -0.0106213 -0.0537824 0.000291 -2.93369 -0.257512 1.85835 2650 
62 1 -0.0479946 -0.0425822 -0.049167 0.000291 -4.77572 -0.150223 4.69491 2650 
181 1 -0.0533792 -0.0349416 -0.0432553 0.000291 -4.40277 0.485128 5.46227 2650 
16 1 -0.0546828 -0.0228465 -0.0419083 0.000105 -4.31201 1.98969 5.60268 2650 
56 1 -0.0540472 -0.0137563 -0.0427311 0.000105 -2.14456 -0.275177 2.75209 2650 
63 1 -0.0549856 -0.0349116 -0.041199 0.000291 -4.35455 0.56336 5.82526 2650 
247 1 -0.0592933 -0.0391812 -0.0347227 0.000291 -4.09495 -0.20415 6.97814 2650 
204 1 -0.0587972 -0.0153234 -0.034096 0.001058 -3.10002 0.361323 5.32686 2650 
86 1 -0.0606578 -0.0200442 -0.0323052 0.000291 -3.19489 -0.17531 5.99423 2650 
107 1 -0.0593948 -0.0197991 -0.0330294 0.001058 -3.25467 -0.240082 5.85561 2650 
166 1 -0.0610968 -0.0127186 -0.03148 0.000291 -2.88716 1.82481 5.59174 2650 
257 1 -0.000103085 -0.0384629 -0.0679471 0.001058 -9.02853 -0.00515118 0.0340436 2650 
188 1 -0.0619349 -0.0615786 -0.0279429 0.001058 -3.55785 0.0232231 7.92221 2650 
239 1 -0.0620008 -0.0433489 -0.0278426 0.001058 -3.32431 -0.0972474 7.3666 2650 
248 1 -0.0654443 -0.0157035 -0.0210035 0.000291 -1.60884 -0.170745 4.98164 2650 
141 1 -0.0656357 -0.00556969 -0.0203197 0.000291 -1.22583 -0.201042 3.93177 2650 
169 1 -0.0650638 -0.0567755 -0.0174859 0.00164 -2.5957 0.00137144 9.60448 2650 
290 1 -0.0672092 -0.0442136 -0.0143492 0.000291 -1.62612 0.0720948 7.59275 2650 
295 1 -0.006507 -0.00215578 -0.01264 0.000291 0 -0.011755 0 2650 
140 1 -0.0673225 -0.0212603 -0.009217 0.001058 -1.11997 -0.0333051 7.73494 2650 
108 1 -0.0066588 -0.00186063 -0.0092876 0.001058 0.00190399 -0.0137697 -0.00130751 2650 
137 1 -0.0672362 -0.0430996 -0.00421132 0.00164 -0.134519 -1.22409 3.81764 2650 
214 1 -0.008446 -0.00321278 -0.004092 0.000291 0 -0.011755 0 2650 
135 1 -0.00523564 -0.00015237 -0.00482111 0.000291 -0.0060505 -0.00140209 -0.0140303 2650 
76 1 -0.00188653 -0.000866342 -0.00554832 0.001058 0.00563223 -0.0106236 0.000699054 2650 
172 1 -0.0679243 -0.0378661 -0.0017629 0.001058 -0.213272 -0.0370004 8.19802 2650 
185 1 -0.0673311 -0.0317606 -0.002374 0.00164 -0.308684 -0.139923 8.12322 2650 
122 1 -0.00207643 -0.00342625 0.000449274 0.001058 -0.20792 -0.0409308 0.0450761 2650 
14 1 -0.006378 -0.000831777 0.001478 0.000291 0 -0.011755 0 2650 
296 1 -0.005879 -0.000353777 0.000521 0.000291 0 -0.011755 0 2650 
32 1 -0.0688566 -0.00994092 0.00223133 0.000105 0.147828 -0.218676 3.36242 2650 
293 1 -0.0102161 -0.0013916 0.0020531 0.001058 0.154791 0.0512655 0.364122 2650 
49 1 -0.00746156 -0.00313789 0.00525931 0.00164 -0.00117613 -0.0103924 0.00305129 2650 
97 1 -0.0137387 -0.000426433 0.00420781 0.00164 0.00016333 0.00117645 -0.00616736 2650 
272 1 -0.00346945 -0.0037953 0.00752435 0.001058 -0.51117 -0.0786695 1.1086 2650 
64 1 -0.001837 -0.00324778 0.007035 0.000105 0 -0.011755 0 2650 
233 1 -0.001796 -0.000914777 0.010436 0.000291 0 -0.011755 0 2650 
132 1 -0.0668214 -0.017493 0.0123759 0.001058 1.03248 0.310061 5.58687 2650 
251 1 -0.0075348 -0.000943497 0.0121698 0.001058 0.00250988 -0.0244938 -0.0113208 2650 
29 1 -0.00765392 -0.00231339 0.0145125 0.000291 -0.00299886 -0.0148378 0.021138 2650 
83 1 -0.0654153 -0.0260902 0.0183632 0.001058 1.88101 -0.396342 6.68616 2650 
282 1 -0.0658876 -0.0214367 0.0195261 0.000291 1.16769 0.196987 4.04824 2650 
236 1 -0.064342 -0.0487877 0.0219082 0.001058 2.8211 0.0046792 8.3805 2650 
148 1 -0.0565375 -0.0352 0.0376819 0.001058 4.76653 0.128134 7.1487 2650 
119 1 -0.0562359 -0.0376185 0.0394778 0.000291 3.21927 -0.0713468 4.68391 2650 
2 1 -0.0514407 -0.0224484 0.0443524 0.001058 4.87077 -0.152744 5.7558 2650 
184 1 -0.0487346 -0.0189334 0.048695 0.000105 2.56683 -0.111917 2.59538 2650 
36 1 -0.040711 -0.0329671 0.0543963 0.001058 6.38676 0.0633734 4.82145 2650 
111 1 -0.0351896 -0.0214058 0.0590235 0.000291 2.59205 -0.952316 1.54003 2650 
146 1 -0.0221104 -0.0475882 0.0642743 0.001058 8.16809 -0.0361767 2.76784 2650 
179 1 -0.0187876 -0.0472731 0.0653215 0.001058 8.27043 -0.0347115 2.36827 2650 
152 1 -0.0220893 -0.0189479 0.0652767 0.000105 5.08421 0.252594 1.69334 2650 
288 1 -0.00746599 -0.0333699 0.0683007 0.000291 6.40788 0.162592 0.669333 2650 
198 1 -0.0040745 0.00524646 -0.0160979 0.000291 0.0955329 0.0282268 -0.0505515 2650 
85 1 -0.003548 0.00132722 -0.015444 0.000291 0 -0.011755 0 2650 
70 1 -0.002345 0.00312922 -0.015511 0.000291 0 -0.011755 0 2650 
155 1 -0.00934602 0.00756941 -0.012097 0.001058 0.04057 0.188533 0.00265111 2650 
33 1 -0.003866 0.00619222 -0.012959 0.00164 0 -0.011755 0 2650 
157 1 -0.00803532 0.0132315 -0.013328 0.000291 -0.00207055 0.0624285 -0.0124977 2650 
127 1 -0.0107235 0.0206461 -0.0126912 0.000291 0.0331404 0.0647284 -0.0037516 2650 
47 1 -0.0118275 0.00379461 -0.0107606 0.000291 -0.00617568 -0.0113964 -0.000259454 2650 
203 1 -0.00422059 0.00273035 -0.0115406 0.001058 -0.000783876 0.116399 -0.140271 2650 
163 1 -0.00550058 0.00508123 -0.010569 0.001058 0.164238 0.19616 0.0792721 2650 
234 1 -0.00732933 0.00605606 -0.0107831 0.000291 -0.02134 0.00563614 -0.0027496 2650 
94 1 -0.011581 0.00825422 -0.01188 0.000291 0 -0.011755 0 2650 
175 1 -0.013247 0.00381722 -0.008751 0.000291 0 -0.011755 0 2650 
17 1 -0.00986336 0.00614516 -0.00843189 0.00164 -0.00279267 0.0548111 0.0673045 2650 
115 1 -0.0126721 0.00796298 -0.00944583 0.001058 -0.022819 0.0251815 0.025778 2650 
144 1 -0.0123955 0.0092271 -0.00818623 0.000105 -0.0067045 -0.00749758 0.00296249 2650 
180 1 -0.00691375 0.00975117 -0.00918024 0.001058 0.0584365 0.0813871 -0.0401553 2650 
250 1 -0.0115649 0.00253276 -0.00758961 0.001058 0.00273404 -0.00245883 0.0388004 2650 
187 1 -0.0138518 0.0112759 -0.00655582 0.001058 -0.0112156 -0.0033076 -0.00319333 2650 
276 1 -0.013674 0.00536122 -0.004231 0.000291 0 -0.011755 0 2650 
74 1 -0.0122027 0.00589238 -0.00488579 0.001058 0.00156258 -0.00569596 -0.00749774 2650 
240 1 -0.010392 0.00441922 -0.005262 0.000291 0 -0.011755 0 2650 
159 1 -0.012707 0.00835522 -0.00588 0.000291 0 -0.011755 0 2650 
256 1 -0.0149455 0.0109185 -0.00581292 0.000291 -0.0123982 -0.000129637 -0.00545733 2650 
41 1 -0.00755826 0.0116543 -0.00511759 0.00164 0.0102042 0.00860529 0.0210319 2650 
220 1 -0.01466 0.0165096 -0.00525738 0.000291 0.00605419 0.00724476 0.0145131 2650 
136 1 -0.0062884 0.0574832 -0.00436038 0.000105 0.0375902 0.10168 0.0199891 2650 
274 1 -0.016349 0.00222622 -0.002509 0.000291 0 -0.011755 0 2650 
13 1 -0.014201 0.00446122 -0.003882 0.000291 0 -0.011755 0 2650 
104 1 -0.014089 0.00514322 -0.003012 0.000105 0 -0.011755 0 2650 
114 1 -0.0124773 0.0048245 -0.00300515 0.001058 0.00263798 -7.05089e-05 -0.000306371 2650 
10 1 -0.0141868 0.00768961 -0.00211562 0.001058 -0.00603352 -0.00346171 -0.00631144 2650 
273 1 -0.00110971 0.0138297 -0.00245584 0.001058 -0.00402366 0.037385 0.0311551 2650 
7 1 -0.00716278 0.0168769 -0.00306322 0.000291 0.00378858 0.0136367 -0.000251809 2650 
211 1 -0.0133417 0.00313253 -0.00170206 0.001058 0.00124469 0.00903567 0.0095983 2650 
209 1 -0.0129953 0.00568497 -0.000588218 0.001058 -0.00441841 -0.000242019 0.00251594 2650 
87 1 -0.010605 0.00755767 -8.54212e-05 0.000291 0.0457248 -0.00314239 -0.013726 2650 
123 1 -0.00414121 0.00636088 -0.0019582 0.001058 0.0354386 0.020018 -0.000637314 2650 
61 1 -0.016439 0.00807322 -0.001038 0.000291 0 -0.011755 0 2650 
292 1 -0.00180254 0.00844428 -0.000715294 0.001058 0.0469404 0.0480946 0.0370303 2650 
65 1 -0.0101086 0.014395 -0.00175371 0.00164 -0.00348018 0.0119066 0.00345508 2650 
75 1 -0.013797 0.0194823 -0.00152879 0.001058 0.0206685 0.0556886 -0.0248334 2650 
191 1 -0.0108 0.000500223 0.001549 0.000291 0 -0.011755 0 2650 
168 1 -0.007536 0.00151122 0.001389 0.000105 0 -0.011755 0 2650 
120 1 -0.016055 0.00371322 0.000189 0.000105 0 -0.011755 0 2650 
200 1 -0.00912151 0.00294469 0.00187365 0.000105 0.248474 0.170368 0.339285 2650 
80 1 -0.014935 0.00641122 0.00039 0.000105 0 -0.011755 0 2650 
268 1 -0.011054 0.00693522 0.000789 0.000291 0 -0.011755 0 2650 
129 1 -0.00801368 0.00726006 0.00164907 0.00164 0.0035976 -0.00912701 -0.00133207 2650 
52 1 -0.0112374 0.0104562 0.00134931 0.001058 0.0218461 0.0452836 -0.00754698 2650 
18 1 -0.005138 0.000705223 0.00212 0.001058 0 -0.011755 0 2650 
99 1 -0.0091725 0.00477696 0.00253541 0.001058 0.0440105 0.0260349 -0.0124724 2650 
176 1 -0.003983 0.00505022 0.002552 0.000105 0 -0.011755 0 2650 
77 1 -0.00926966 0.0101556 0.0030649 0.000291 0.0279429 0.00178097 -0.016803 2650 
98 1 -0.00187317 0.00107079 0.00423061 0.001058 -0.000872989 -0.0147225 -0.00989819 2650 
53 1 -0.000389 0.00178822 0.004762 0.000291 0 -0.011755 0 2650 
164 1 -0.003894 0.00408622 0.005467 0.001058 0 -0.011755 0 2650 
124 1 -0.015336 0.00897539 0.00409659 0.001058 0.000949956 0.0462071 0.00992246 2650 
106 1 -0.0124721 0.00826213 0.00546553 0.001058 0.0124054 0.0227789 -0.00267195 2650 
291 1 -0.008194 0.00846022 0.004767 0.000291 0 -0.011755 0 2650 
28 1 -0.0134621 0.0117475 0.00530446 0.001058 0.00069719 0.0289887 -0.00109375 2650 
242 1 -0.00746336 0.0117567 0.00466461 0.000291 -0.00954886 0.00781474 0.00295974 2650 
54 1 -0.0110842 0.0253747 0.00453194 0.000291 0.0409131 0.0218291 0.0638832 2650 
170 1 -0.0110507 0.00385904 0.00639656 0.001058 0.00672221 -0.00141463 0.0184147 2650 
35 1 -9.92252e-05 0.00253567 0.00627209 0.001058 0.00654177 -0.0105187 -0.00962265 2650 
266 1 -0.0140624 0.0059349 0.00725215 0.001058 -0.00293207 0.00740435 -0.00807451 2650 
186 1 -0.006177 0.00640222 0.006545 0.001058 0 -0.011755 0 2650 
58 1 -0.0121093 0.00200979 0.00991525 0.001058 0.0115774 -0.00448951 -0.00381485 2650 
126 1 -0.000677332 0.00529809 0.00976023 0.000291 -0.00909177 -0.0182309 -0.0255133 2650 
4 1 -0.0134617 0.00767287 0.00833055 0.001058 0.00316267 0.0011173 0.00756821 2650 
304 1 -0.012709 0.00774122 0.009818 0.000291 0 -0.011755 0 2650 
153 1 -0.000510952 0.00821186 0.00846746 0.00164 0.00905173 -0.00370467 -0.0193596 2650 
300 1 -0.0109618 0.00356765 0.0113298 0.001058 -0.00517848 -0.00941929 -0.00460978 2650 
299 1 -0.010562 0.00618222 0.010709 0.001058 0 -0.011755 0 2650 
55 1 -0.01171 0.00820922 0.01034 0.000291 0 -0.011755 0 2650 
71 1 -0.00154087 0.0081999 0.0106066 0.000291 0.000861808 -0.00718564 -0.0173142 2650 
68 1 -0.00382785 0.00995257 0.0103014 0.001058 0.00272783 -0.00342387 -0.00169301 2650 
249 1 -0.00448302 0.0156858 0.0106951 0.000291 0.00987628 0.0185258 -0.0129358 2650 
217 1 -0.0099962 0.0189947 0.0114681 0.001058 0.000747792 0.0265619 -0.00553463 2650 
245 1 -0.00459561 0.0397829 0.0109442 0.001058 0.013355 0.0538623 -0.0223836 2650 
226 1 -0.009224 5.72232e-05 0.012787 0.000291 0 -0.011755 0 2650 
285 1 -0.00882196 0.00368139 0.0130521 0.001058 -0.00798287 -0.013356 -0.00552209 2650 
224 1 -0.00680502 0.0109346 0.0132648 0.001058 -0.00376938 0.00554818 0.00221201 2650 
238 1 -0.0067969 0.0151556 0.0126439 0.001058 0.0105136 0.0371874 0.0344704 2650 
195 1 -0.000522495 0.00301141 0.0157092 0.001058 0.0197759 -0.0130377 0.027816 2650 
281 1 0.00615506 -0.0393939 -0.0684262 0.000291 -8.7097 -0.125713 -0.755775 2650 
69 1 0.0043173 -0.024361 -0.0685451 0.000291 -8.6992 -0.526957 -0.572282 2650 
72 1 0.00496409 -0.00124476 -0.0687132 0.000105 -9.45941 0.714804 -0.681363 2650 
189 1 0.0114566 -0.0527045 -0.0677237 0.000291 -7.49103 -0.44737 -1.30913 2650 
229 1 0.0146305 -0.0488703 -0.0663599 0.001058 -9.13976 0.0369966 -2.02448 2650 
241 1 0.0603153 -0.0162649 -0.0329516 0.000291 -2.37195 -0.250233 -4.36824 2650 
162 1 0.00596898 -0.0127856 -0.0676755 0.001058 -6.72213 0.405954 -0.724283 2650 
40 1 0.0141575 -0.0126151 -0.0674323 0.000105 -3.9112 0.233546 -0.747695 2650 
230 1 0.0189619 -0.042949 -0.0652647 0.001058 -7.94758 -0.129612 -2.31969 2650 
193 1 0.0225887 -0.0360659 -0.0634705 0.00164 -8.55789 0.00896829 -3.05544 2650 
26 1 0.0247938 -0.0243643 -0.0632626 0.001058 -7.66145 -0.0694737 -2.99144 2650 
125 1 0.0274855 -0.0201265 -0.0629905 0.000291 -8.41409 -1.17521 -3.66935 2650 
5 1 0.0362384 -0.0199158 -0.0583917 0.000291 -4.99521 -0.0807754 -3.11896 2650 
206 1 0.0382576 -0.0616749 -0.0570707 0.000291 -5.9719 0.415974 -4.00447 2650 
30 1 0.0367071 -0.00274983 -0.0580094 0.000291 -2.7804 0.487301 -2.54515 2650 
215 1 0.0462722 -0.0382064 -0.0497521 0.001058 -6.72529 -0.0932099 -6.28998 2650 
149 1 0.0561381 -0.0329975 -0.0396122 0.000291 -2.46941 -0.116234 -3.48334 2650 
158 1 0.0580645 -0.016498 -0.0367666 0.000291 -2.00216 -0.169884 -3.17326 2650 
43 1 0.0576713 -0.0216058 -0.035944 0.001058 -4.17719 -0.136775 -6.70984 2650 
25 1 0.0613901 -0.0594117 -0.0277445 0.00164 -3.94173 -0.126181 -8.74956 2650 
165 1 0.0664035 -0.0258776 -0.0176284 0.000291 -1.8498 0.837611 -6.9479 2650 
264 1 0.066096 -0.0408491 -0.015789 0.001058 -0.795403 -0.947782 -3.53234 2650 
34 1 0.0663366 -0.0262306 -0.0147022 0.001058 -1.83542 0.0179477 -8.41329 2650 
303 1 0.001598 -0.000252777 -0.015917 0.000291 0 -0.011755 0 2650 
46 1 0.007499 -0.000815777 -0.014091 0.000291 0 -0.011755 0 2650 
237 1 0.005321 -0.00155278 -0.012467 0.001058 0 -0.011755 0 2650 
42 1 0.0671143 -0.0398222 -0.0106258 0.001058 -0.979041 -0.958276 -5.9504 2650 
259 1 0.00623983 -0.00212644 -0.0102133 0.001058 -0.000549325 -0.010947 -0.00390661 2650 
196 1 0.002599 -0.000259777 -0.011929 0.001058 0 -0.011755 0 2650 
89 1 0.0666529 -0.0472611 -0.0098817 0.00164 -1.43359 -0.0135589 -9.34417 2650 
225 1 0.0674161 -0.0351215 -0.00846114 0.001058 -0.686452 -0.429915 -5.44868 2650 
213 1 0.001757 -0.00322778 -0.008127 0.000291 0 -0.011755 0 2650 
197 1 0.0175701 -0.00368792 -0.00945635 0.000291 2.49494 -0.0698363 -1.34279 2650 
39 1 0.0682291 -0.0172601 -0.0078451 0.000291 -0.870222 0.671224 -7.512 2650 
22 1 0.0682688 -0.0164815 -0.00744295 0.000291 -0.751975 0.0454022 -6.91149 2650 
178 1 0.00357008 -0.00156895 -0.00527661 0.001058 -0.000609858 -0.0102344 0.00251423 2650 
171 1 0.000459 -0.00241078 -0.002783 0.001058 0 -0.011755 0 2650 
270 1 0.000155339 -0.000325376 -0.00304596 0.000291 0.0186853 -0.00788795 0.00123148 2650 
88 1 0.002864 -0.000700777 -0.002457 0.000105 0 -0.011755 0 2650 
255 1 0.0687099 -0.014873 -0.000322979 0.000291 -0.115001 0.204438 -4.22337 2650 
6 1 0.004141 -0.00297878 -0.001643 0.000291 0 -0.011755 0 2650 
183 1 0.01481 -0.00233778 0.000242 0.000291 0 -0.011755 0 2650 
96 1 0.009869 -0.000570777 0.000788 0.000105 0 -0.011755 0 2650 
277 1 0.015014 -0.00195978 0.001212 0.000291 0 -0.011755 0 2650 
167 1 0.0686229 -0.00749076 0.00339484 0.000291 0.38475 -0.657369 -8.0304 2650 
223 1 0.00535035 -0.000110064 0.00309306 0.001058 0.0245989 -0.00855677 0.00804702 2650 
143 1 0.013105 -0.00187078 0.003332 0.000291 0 -0.011755 0 2650 
267 1 0.007574 -0.00277378 0.005778 0.000291 0 -0.011755 0 2650 
305 1 0.007934 -0.00203178 0.005234 0.000105 0 -0.011755 0 2650 
50 1 0.006699 -0.000790777 0.005883 0.001058 0 -0.011755 0 2650 
150 1 0.010064 -0.000689777 0.004311 0.000291 0 -0.011755 0 2650 
118 1 0.001179 -0.00260878 0.007467 0.000291 0 -0.011755 0 2650 
174 1 0.002361 -0.00103778 0.006466 0.000291 0 -0.011755 0 2650 
84 1 0.0674342 -0.0176747 0.00838558 0.001058 1.0463 -0.0272662 -8.35715 2650 
59 1 0.00544776 -0.000392354 0.0106876 0.001058 -0.0200783 -0.00967864 -0.0506056 2650 
228 1 0.010294 -0.00152878 0.01009 0.000291 0 -0.011755 0 2650 
23 1 0.0675844 -0.00677143 0.0123968 0.000291 1.16102 1.2514 -6.22681 2650 
297 1 0.0639128 -0.0330128 0.0252049 0.000291 2.77356 0.429482 -7.04426 2650 
283 1 0.0643638 -0.0247171 0.0240449 0.000291 2.74272 -0.988467 -7.3547 2650 
254 1 0.0587787 -0.0170159 0.0356015 0.000291 1.77314 -0.471706 -2.85182 2650 
15 1 0.0560062 -0.00804543 0.0398061 0.000291 3.25033 0.0958954 -4.47609 2650 
73 1 0.0507004 -0.0479272 0.0443194 0.00164 5.8492 -0.233517 -6.73328 2650 
138 1 0.0508336 -0.0442563 0.04502 0.001058 5.31968 0.455469 -6.01531 2650 
151 1 0.0519914 -0.0221579 0.044825 0.000291 4.26042 -0.49443 -4.97945 2650 
218 1 0.0422125 -0.0302902 0.0532402 0.001058 5.37979 0.177572 -4.26701 2650 
44 1 0.0386524 -0.0146763 0.0558958 0.001058 3.69695 -0.331274 -2.53534 2650 
235 1 0.0402186 -0.00877941 0.0557146 0.000291 3.16001 -0.315759 -2.23224 2650 
131 1 0.0343138 -0.0248894 0.0586449 0.001058 6.1265 0.0454368 -3.55718 2650 
280 1 0.0341484 -0.0200823 0.0587583 0.001058 6.21813 0.158848 -3.57904 2650 
182 1 0.0344548 -0.00755662 0.0594536 0.000291 4.32907 0.380861 -2.48405 2650 
109 1 0.0312175 -0.0476854 0.0612332 0.000291 6.42897 -0.377334 -3.27536 2650 
133 1 0.0245748 -0.0110359 0.0641842 0.000291 6.63351 0.471379 -2.51516 2650 
90 1 0.00592464 -0.0525703 0.0676143 0.001058 8.63966 -0.160189 -0.797554 2650 
243 1 0.00887954 -0.0377275 0.0673584 0.001058 5.68098 -0.268361 -0.69425 2650 
130 1 1.4e-05 0.00183822 -0.015674 0.001058 0 -0.011755 0 2650 
160 1 0.004468 0.000870223 -0.014641 0.000105 0 -0.011755 0 2650 
269 1 0.002277 0.00201122 -0.015181 0.000291 0 -0.011755 0 2650 
37 1 0.006156 0.00777322 -0.015157 0.000291 0 -0.011755 0 2650 
263 1 0.006877 0.00126722 -0.012319 0.000291 0 -0.011755 0 2650 
289 1 0.001465 0.00243422 -0.012477 0.000291 0 -0.011755 0 2650 
142 1 0.002378 0.00284922 -0.013184 0.000291 0 -0.011755 0 2650 
78 1 0.001258 0.00775922 -0.012517 0.000291 0 -0.011755 0 2650 
252 1 0.00245 0.00614422 -0.01336 0.001058 0 -0.011755 0 2650 
105 1 0.0068574 0.00763049 -0.0128447 0.00164 0.0492897 0.00663295 -0.0327282 2650 
201 1 0.00902507 0.00131086 -0.0108966 0.00164 0.00137105 -0.0114185 -0.003869 2650 
275 1 0.012705 0.00550622 -0.010476 0.000291 0 -0.011755 0 2650 
110 1 0.00917902 0.0079869 -0.0110565 0.000291 -0.0454345 -0.0140167 -0.0110187 2650 
147 1 0.010514 0.00983026 -0.0117559 0.001058 -0.0478512 0.0466169 -0.0416259 2650 
67 1 0.00483727 0.00487512 -0.00922877 0.001058 -0.020884 0.0142907 -0.00966941 2650 
139 1 0.00665891 0.0164682 -0.00954673 0.001058 0.0127696 0.00849352 0.0230521 2650 
102 1 0.003423 0.00117222 -0.006065 0.000291 0 -0.011755 0 2650 
117 1 0.004754 0.00143422 -0.007063 0.000291 0 -0.011755 0 2650 
134 1 0.0102838 0.00321636 -0.0071579 0.000291 -0.0128132 0.00355392 -0.00692922 2650 
60 1 0.007579 0.00407522 -0.006312 0.001058 0 -0.011755 0 2650 
45 1 0.010575 0.00399522 -0.007722 0.000291 0 -0.011755 0 2650 
116 1 0.00409492 0.00965079 -0.00667282 0.001058 0.0382435 0.0489782 0.0372506 2650 
154 1 0.00273976 0.0365804 -0.00631336 0.001058 0.00678339 0.101014 -0.0544466 2650 
246 1 0.001376 0.000673223 -0.005453 0.001058 0 -0.011755 0 2650 
260 1 0.0108653 0.00208403 -0.0056816 0.000291 -0.00392275 0.00411325 -0.00447499 2650 
92 1 0.0105034 0.00327708 -0.00441093 0.001058 -0.00204015 0.0110184 -0.00170939 2650 
161 1 0.0132573 0.00286786 -0.00512377 0.00164 0.0015934 0.00883809 0.00257892 2650 
279 1 0.0108517 0.00512577 -0.00572067 0.001058 -0.00964361 0.0081718 -0.00160366 2650 
19 1 0.013799 0.00565822 -0.005439 0.001058 0 -0.011755 0 2650 
199 1 0.014464 0.00448622 -0.004562 0.000291 0 -0.011755 0 2650 
278 1 7.4e-05 0.00658622 -0.004448 0.001058 0 -0.011755 0 2650 
271 1 0.00375542 0.0061171 -0.0046957 0.001058 0.0150184 -0.010407 0.010297 2650 
284 1 0.014191 0.00736622 -0.005949 0.000291 0 -0.011755 0 2650 
177 1 0.00527207 0.00035919 -0.00269942 0.00164 -0.00977706 -0.00608305 0.00419202 2650 
253 1 0.014729 0.00284422 -0.002617 0.000291 0 -0.011755 0 2650 
227 1 0.00944 0.00467322 -0.002109 0.000291 0 -0.011755 0 2650 
205 1 0.00343099 3.65137e-05 -0.00136088 0.000291 -0.0110629 -0.00953223 0.00618698 2650 
113 1 0.0103235 0.0024131 -0.00147845 0.00164 -0.000152922 -0.0104668 0.00259679 2650 
190 1 0.005899 0.00737522 -0.000534 0.000291 0 -0.011755 0 2650 
81 1 0.007451 0.000792223 7.8e-05 0.00164 0 -0.011755 0 2650 
261 1 0.011218 0.000968223 0.000328 0.000291 0 -0.011755 0 2650 
48 1 0.009671 0.00526722 0.000233 0.000105 0 -0.011755 0 2650 
128 1 0.00361 0.00697422 0.000511 0.000105 0 -0.011755 0 2650 
9 1 0.012984 0.00701222 0.000468 0.00164 0 -0.011755 0 2650 
286 1 0.015584 0.00768022 0.000132 0.001058 0 -0.011755 0 2650 
210 1 0.010971 0.000122223 0.002357 0.001058 0 -0.011755 0 2650 
101 1 0.004812 0.00569722 0.002517 0.000291 0 -0.011755 0 2650 
294 1 0.006997 0.00498122 0.003581 0.001058 0 -0.011755 0 2650 
57 1 0.000554077 0.0182049 0.00300302 0.00164 0.0230994 0.0154402 0.0436737 2650 
212 1 0.001087 0.00549122 0.005915 0.000291 0 -0.011755 0 2650 
24 1 0.005464 0.00506322 0.005551 0.000105 0 -0.011755 0 2650 
244 1 0.014869 0.00554922 0.00421 0.001058 0 -0.011755 0 2650 
51 1 0.009662 0.00613622 0.004577 0.001058 0 -0.011755 0 2650 
79 1 0.014214 0.00797622 0.005058 0.000291 0 -0.011755 0 2650 
207 1 0.000324 0.000648223 0.006532 0.000291 0 -0.011755 0 2650 
208 1 0.00991952 0.00139915 0.00783724 0.001058 0.0385375 0.00604984 -0.0140106 2650 
232 1 0.0088827 0.00275463 0.00623895 0.001058 0.0434091 0.0179211 -0.0164673 2650 
231 1 0.006459 0.00468822 0.007445 0.001058 0 -0.011755 0 2650 
222 1 0.009219 0.00733522 0.006833 0.001058 0 -0.011755 0 2650 
112 1 0.013668 0.00829922 0.007002 0.000105 0 -0.011755 0 2650 
301 1 0.00515803 0.019853 0.00785251 0.001058 0.00272587 0.0220862 -0.0290146 2650 
1 1 0.0083395 0.000127964 0.00972492 0.00164 0.0517365 0.0201155 0.02377 2650 
202 1 0.000569278 0.00387544 0.00832322 0.001058 0.00953014 -0.00871599 -0.0138173 2650 
194 1 0.007709 0.00546722 0.009989 0.001058 0 -0.011755 0 2650 
145 1 0.0043057 0.00616093 0.00821793 0.00164 0.00187104 -0.0124115 -0.00192682 2650 
11 1 0.00375879 0.0658202 0.00961181 0.001058 0.0558568 0.128502 0.0118077 2650 
103 1 0.005979 0.00166622 0.01127 0.000291 0 -0.011755 0 2650 
38 1 0.00218085 0.00376364 0.0115252 0.000291 -0.0300402 0.0227875 -0.0736261 2650 
100 1 0.00603391 0.00336913 0.0107495 0.001058 0.00912399 -0.0117578 -0.00681185 2650 
287 1 0.00822982 0.00358854 0.011371 0.001058 0.0112667 -0.0025888 -0.00299539 2650 
258 1 0.00974895 0.00281257 0.0101067 0.001058 0.0063308 -0.0114349 -0.0050429 2650 
66 1 0.00470591 0.00877867 0.0114769 0.001058 0.00846641 -0.000759158 0.00162513 2650 
3 1 0.00918172 0.000123018 0.0123475 0.001058 0.0142352 -0.00932944 -0.0092621 2650 
95 1 0.00688149 0.00423373 0.0133908 0.000291 -0.000366951 -0.00495937 0.00220646 2650 
298 1 0.00669741 0.00782603 0.0126016 0.000105 0.012752 -0.00608362 0.00360111 2650 
156 1 0.00275092 0.011932 0.012752 0.001058 0.00957299 -0.000303602 -0.00985815 2650 
82 1 0.000755 0.000635223 0.014898 0.001058 0 -0.011755 0 2650 
265 1 1.52178e-05 0.00551865 0.0158335 0.001058 0.011667 0.00657701 -0.00499144 2650 
