ITEM: TIMESTEP
12594857
ITEM: NUMBER OF ATOMS
282
ITEM: BOX BOUNDS ff ff ff
-0.15 0.15
-0.15 0.15
-0.15 0.15
ITEM: ATOMS id type x y z radius vx vy vz density 
270 1 -0.00730424 -0.0118418 -0.0683227 0.000291 -8.21923 0.0866144 0.887572 2650 
174 1 -0.0192817 -0.0409599 -0.0659616 0.000291 -8.96999 0.281365 2.62293 2650 
36 1 -0.00933698 -0.0400439 -0.0673066 0.001058 -10.3425 0.106129 1.43547 2650 
196 1 -0.00328131 -0.0359349 -0.0678658 0.001058 -10.3059 0.330858 0.521318 2650 
98 1 -0.0164229 -0.0155527 -0.0659531 0.001058 -8.32031 -0.127598 2.09241 2650 
86 1 -0.0105446 -0.0152749 -0.0679048 0.000291 -8.28215 -0.0592868 1.29367 2650 
208 1 -0.0115838 -0.0157506 -0.0669661 0.001058 -8.19838 -0.308336 1.45516 2650 
26 1 -0.0180666 -0.0394331 -0.0655081 0.001058 -10.4243 0.0160364 2.87417 2650 
184 1 -0.0207104 -0.0203123 -0.0657239 0.000105 -7.01851 -0.401816 2.19548 2650 
261 1 -0.0243715 -0.009395 -0.0642554 0.000291 -8.01097 -0.198126 3.0283 2650 
255 1 -0.0258867 -0.0163074 -0.0636727 0.000291 -8.06174 0.114871 3.27987 2650 
142 1 -0.0272694 -0.0149022 -0.063094 0.000291 -5.62145 -0.309285 2.40361 2650 
213 1 -0.025852 -0.0110977 -0.0636806 0.000291 -8.20374 0.61007 3.33166 2650 
192 1 -0.0287671 -0.000105295 -0.0626006 0.000105 -7.75413 -0.00185524 3.5789 2650 
2 1 -0.0321355 -0.0327333 -0.0598634 0.001058 -8.80188 -0.0199391 4.7255 2650 
223 1 -0.0300125 -0.0255726 -0.0609577 0.001058 -7.86123 0.440961 3.86507 2650 
167 1 -0.0309398 -0.0107021 -0.0613668 0.000291 -6.59921 0.496549 3.30598 2650 
302 1 -0.0376159 -0.026004 -0.0574941 0.000291 -6.75532 0.0542125 4.4038 2650 
235 1 -0.0381429 -0.0107346 -0.0571611 0.000291 -6.82116 0.152561 4.57401 2650 
64 1 -0.0379661 -0.00776363 -0.0574843 0.000105 -6.59752 -0.443461 4.36043 2650 
16 1 -0.0402887 -0.00445183 -0.0558837 0.000105 -6.72217 -0.147932 4.80791 2650 
197 1 -0.0461568 -0.00480794 -0.0508704 0.000291 -6.37939 0.00126987 5.80247 2650 
119 1 -0.0492842 -0.0560929 -0.0478748 0.000291 -7.69627 -0.293623 7.89894 2650 
44 1 -0.0483268 -0.0165849 -0.0477631 0.001058 -6.55768 -0.0509935 6.59971 2650 
6 1 -0.0512958 -0.0130259 -0.0457109 0.000291 -5.70098 -0.504451 6.42512 2650 
96 1 -0.0509608 -0.00838694 -0.0463591 0.000105 -5.69951 0.0759851 6.27417 2650 
295 1 -0.0516818 -0.0378835 -0.0452732 0.000291 -6.19717 -0.87582 7.07283 2650 
42 1 -0.0571078 -0.0521457 -0.0368394 0.001058 -5.72999 -0.160014 8.8826 2650 
193 1 -0.0560151 -0.0495214 -0.0374616 0.00164 -5.89426 0.0120843 8.8135 2650 
148 1 -0.0578363 -0.0485183 -0.0356997 0.001058 -5.63628 -0.0353235 9.13141 2650 
185 1 -0.0571498 -0.0458421 -0.0357164 0.00164 -5.60079 -0.06772 8.9616 2650 
206 1 -0.0586317 -0.0258261 -0.0358208 0.000291 -5.4814 1.11546 8.97014 2650 
218 1 -0.0602655 -0.0418787 -0.0314185 0.001058 -5.04363 -0.175936 9.67428 2650 
188 1 -0.0624518 -0.0616307 -0.0267704 0.001058 -4.21099 -0.0307592 9.82446 2650 
229 1 -0.0648565 -0.0485206 -0.0203309 0.001058 -3.23675 0.144974 10.3261 2650 
135 1 -0.00856342 -0.00092352 -0.0125378 0.000291 -0.0060505 -0.00140209 -0.0140303 2650 
175 1 -0.013247 -0.00264803 -0.008751 0.000291 0 -0.011755 0 2650 
47 1 -0.0131678 -0.00209996 -0.00900932 0.000291 -0.00125586 -0.0105028 0.00427205 2650 
240 1 -0.010392 -0.00204603 -0.005262 0.000291 0 -0.011755 0 2650 
276 1 -0.013674 -0.00110403 -0.004231 0.000291 0 -0.011755 0 2650 
13 1 -0.014201 -0.00200403 -0.003882 0.000291 0 -0.011755 0 2650 
104 1 -0.014089 -0.00132203 -0.003012 0.000105 0 -0.011755 0 2650 
50 1 -0.0679479 -0.0315364 -0.000363329 0.001058 -0.0584071 0.0033412 10.2024 2650 
267 1 -0.0687021 -0.00879957 -0.000771134 0.000291 0.0779551 0.0965487 5.54811 2650 
177 1 -5.77671e-05 -0.00296178 -0.000375825 0.00164 -0.00966503 -0.00602483 0.00423439 2650 
120 1 -0.016055 -0.00275203 0.000189 0.000105 0 -0.011755 0 2650 
23 1 -0.0686201 -0.0384857 0.00277899 0.000291 0.438351 -0.313824 10.7656 2650 
108 1 -0.0678661 -0.0313451 0.0032666 0.001058 0.450471 -0.240682 9.25713 2650 
182 1 -0.0684477 -0.00654446 0.00597876 0.000291 0.65312 -0.00896488 7.33217 2650 
164 1 -0.003894 -0.00237903 0.005467 0.001058 0 -0.011755 0 2650 
236 1 -0.0674512 -0.0515592 0.00819943 0.001058 1.29992 0.165291 10.6854 2650 
58 1 -0.00688277 -0.00237526 0.00604975 0.001058 0.00939797 -0.00814862 -0.00719036 2650 
300 1 -0.012797 -0.000502461 0.00927731 0.001058 -0.00246489 -0.00748443 -0.0047401 2650 
226 1 -0.0648852 -0.0282706 0.0225881 0.000291 2.90225 -0.109809 8.30104 2650 
140 1 -0.0619567 -0.0354305 0.0278889 0.001058 4.21037 -0.0757483 9.35583 2650 
138 1 -0.0610162 -0.0503744 0.0299413 0.001058 4.70909 -0.105029 9.59583 2650 
20 1 -0.0610208 -0.0464241 -0.029947 0.001058 -4.71738 -0.0776594 9.61217 2650 
122 1 -0.0603994 -0.0243564 0.0311284 0.001058 4.20791 -0.0137447 8.14736 2650 
181 1 -0.0597188 -0.0421099 0.0340119 0.000291 5.57802 -0.646547 9.79243 2650 
93 1 -0.058068 -0.0488168 0.0367616 0.000291 5.8675 0.0466901 9.27013 2650 
172 1 -0.0562527 -0.0471299 0.0381405 0.001058 6.03827 0.147854 8.87101 2650 
251 1 -0.0570004 -0.0252897 0.0369774 0.001058 5.06022 0.00634593 7.79199 2650 
214 1 -0.0540437 -0.0526746 0.0424322 0.000291 6.77987 0.343476 8.635 2650 
53 1 -0.0554466 -0.0281606 0.0405756 0.000291 3.37332 -0.213528 4.6603 2650 
179 1 -0.0526373 -0.0495166 0.0429713 0.001058 6.75612 0.000228266 8.27579 2650 
296 1 -0.0532243 -0.00898785 0.0434518 0.000291 3.37296 0.023053 4.16388 2650 
146 1 -0.0506827 -0.0509023 0.0452555 0.001058 7.23231 -0.102551 8.10038 2650 
152 1 -0.0513035 -0.01026 0.0459793 0.000105 5.40821 -0.586801 6.03777 2650 
247 1 -0.0505089 -0.0505825 0.0465787 0.000291 7.44544 -0.0644826 8.07302 2650 
8 1 -0.0472669 -0.0503767 0.0500659 0.000105 7.97879 0.519106 7.53331 2650 
59 1 -0.0434125 -0.042942 0.0522138 0.001058 7.64018 -0.14833 6.3282 2650 
118 1 -0.0459747 -0.0187372 0.0509694 0.000291 6.04292 -0.0571697 5.48737 2650 
259 1 -0.0427898 -0.0316932 0.0527826 0.001058 7.79893 0.0628965 6.33092 2650 
30 1 -0.042123 -0.0303508 0.0542813 0.000291 8.02257 0.289617 6.22478 2650 
46 1 -0.0422211 -0.00304207 0.0542016 0.000291 5.22263 0.37888 4.06932 2650 
90 1 -0.0317757 -0.0514986 0.0600752 0.001058 9.3658 0.0780858 4.95504 2650 
21 1 -0.033378 -0.044604 0.060077 0.000291 9.6059 0.0863457 5.33729 2650 
225 1 -0.0292769 -0.0442643 0.0613418 0.001058 9.90415 0.0509421 4.72896 2650 
43 1 -0.0306609 -0.0421623 0.0606566 0.001058 9.50438 0.0906315 4.8039 2650 
254 1 -0.0265848 -0.0549453 0.0633608 0.000291 9.06024 -0.602199 3.80233 2650 
248 1 -0.0285112 -0.0373256 0.0625147 0.000291 6.05976 0.400295 2.76983 2650 
189 1 -0.0192914 -0.0324776 0.0659405 0.000291 8.42561 -0.432748 2.46143 2650 
149 1 -0.0207866 -0.0304423 0.0654929 0.000291 9.2806 0.00335946 2.94037 2650 
210 1 -0.0179976 -0.0282976 0.0655138 0.001058 8.37507 -0.127838 2.34159 2650 
171 1 -0.0132076 -0.0464793 0.0666644 0.001058 9.77623 -0.0260341 1.93692 2650 
107 1 -0.00837247 -0.0358596 0.0674289 0.001058 10.1648 -0.0796185 1.26095 2650 
34 1 -0.0090811 -0.0307182 0.067341 0.001058 10.0233 0.0559398 1.34873 2650 
173 1 -0.000801717 -0.00604205 0.0687039 0.000291 6.02434 -0.108431 0.0297965 2650 
49 1 -0.0603013 -0.0471602 0.0300937 0.00164 4.76375 0.0336906 9.54524 2650 
205 1 -0.00464653 0.000964204 -0.0144473 0.000291 0.00945843 0.00374827 0.0244543 2650 
67 1 -0.00661157 0.01273 -0.014471 0.001058 -0.0104976 0.0129104 0.0114407 2650 
157 1 -0.00464975 0.0467631 -0.0141192 0.000291 0.0079085 0.0606548 0.000918149 2650 
75 1 -0.00242926 0.050111 -0.0151872 0.001058 0.0206685 0.0556886 -0.0248334 2650 
130 1 -0.00274847 0.000967074 -0.0138799 0.001058 -0.00730232 0.00347522 0.00594057 2650 
33 1 -0.000811936 0.0182276 -0.0138935 0.00164 0.00603998 0.0215627 0.00352792 2650 
293 1 -0.00889625 0.0332652 -0.0131 0.001058 -0.0884763 0.0379903 0.0661001 2650 
94 1 -0.0115415 0.00179658 -0.0118405 0.000291 8.5498e-05 -0.0117385 8.5498e-05 2650 
74 1 -0.0113432 0.0027596 -0.00900955 0.001058 0.00156258 -0.00569596 -0.00749774 2650 
38 1 -0.0026315 0.0137489 -0.00933279 0.000291 0.0290333 0.00993382 0.0254358 2650 
234 1 -0.0124991 0.00872315 -0.00723652 0.000291 -0.00131366 0.00431637 0.0126772 2650 
263 1 -0.0091896 0.0191874 -0.00726517 0.000291 0.0807781 0.0834583 0.0461979 2650 
159 1 -0.012707 0.00188997 -0.00588 0.000291 0 -0.011755 0 2650 
10 1 -0.0143386 0.00607512 -0.00485938 0.001058 0.00366734 -0.00257496 -0.00408264 2650 
80 1 -0.0157784 0.0067537 -0.0048214 0.000105 -0.00457687 0.0251897 -0.0282816 2650 
97 1 -0.0130147 0.00358092 -0.00294078 0.00164 0.00874168 0.0124725 -0.0221748 2650 
114 1 -0.0106612 0.00505404 -0.00333776 0.001058 0.0187062 0.0117361 -0.00752779 2650 
7 1 -0.00507906 0.024377 -0.00320171 0.000291 0.00378858 0.0136367 -0.000251809 2650 
147 1 -0.0155135 0.0304913 -0.00297484 0.001058 -0.0140684 0.029094 0.0571716 2650 
61 1 -0.016439 0.00160797 -0.001038 0.000291 0 -0.011755 0 2650 
129 1 -0.00322618 0.00779605 -0.00100551 0.00164 0.00825627 0.00147102 -0.0030875 2650 
65 1 -0.0125023 0.0218461 -0.00131467 0.00164 -0.00447342 0.0138222 0.00034274 2650 
268 1 -0.011054 0.000469966 0.000789 0.000291 0 -0.011755 0 2650 
71 1 -0.00106687 0.00424779 0.00108376 0.000291 0.000861808 -0.00718564 -0.0173142 2650 
209 1 -0.0152494 0.00828975 0.00184827 0.001058 -0.0032116 0.00264672 0.00158384 2650 
115 1 -0.0156877 0.0118955 0.000581636 0.001058 -9.57324e-05 0.0046985 0.0169075 2650 
187 1 -0.0157139 0.0191685 6.62864e-06 0.001058 -0.000280938 0.0161775 0.0137442 2650 
211 1 -0.0127856 0.00521332 0.00235181 0.001058 0.000982608 0.00314487 0.00709992 2650 
256 1 -0.0163151 0.0114258 0.00265065 0.000291 0.00184238 0.020694 0.00254716 2650 
266 1 -0.0155551 0.0101412 0.00296922 0.001058 0.000769948 0.0100988 -0.00524247 2650 
220 1 -0.0152072 0.0215741 0.00236079 0.000291 -0.00743392 0.0110018 0.0132466 2650 
106 1 -0.00581272 0.0206463 0.00396502 0.001058 0.0119634 0.0223893 -0.0027555 2650 
237 1 -0.0159072 0.071925 0.00310186 0.001058 -0.00654936 0.22686 0.0745762 2650 
291 1 -0.008194 0.00199497 0.004767 0.000291 0 -0.011755 0 2650 
186 1 -0.0061993 4.51294e-05 0.00657779 0.001058 -4.15282e-05 -0.0115536 6.1062e-05 2650 
144 1 -0.00823742 0.0163418 0.00682463 0.000105 0.00807853 0.0136784 0.0281765 2650 
41 1 -0.00194597 0.0163872 0.00644998 0.00164 0.0102042 0.00860529 0.0210319 2650 
242 1 -0.00485116 0.0229858 0.00777903 0.000291 0.0116924 0.0265357 0.00697501 2650 
124 1 -0.0133775 0.0294246 0.00693024 0.001058 0.00450723 0.0342902 0.00378394 2650 
28 1 -0.0131388 0.036392 0.00747184 0.001058 0.00734507 0.0503926 0.00344867 2650 
304 1 -0.012709 0.00127597 0.009818 0.000291 0 -0.011755 0 2650 
68 1 -0.00232754 0.00806945 0.00937027 0.001058 0.00272783 -0.00342387 -0.00169301 2650 
217 1 -0.00958492 0.0336038 0.00842402 0.001058 0.000747792 0.0265619 -0.00553463 2650 
55 1 -0.01171 0.00174397 0.01034 0.000291 0 -0.011755 0 2650 
4 1 -0.0107047 0.00823124 0.011564 0.001058 0.00569435 0.00097307 0.00498712 2650 
250 1 -0.00913698 0.00112054 0.0125294 0.001058 0.0256429 -0.00394298 0.00852814 2650 
170 1 -0.00676421 0.00118216 0.0124854 0.001058 0.00813908 -0.00598064 0.0087017 2650 
299 1 -0.00885842 0.00319231 0.0121246 0.001058 0.00581403 -0.00322581 0.00124072 2650 
224 1 -0.00811686 0.0138042 0.0130347 0.001058 -0.00111942 0.00491513 -0.00282362 2650 
110 1 -0.000706707 0.000506733 0.0145781 0.000291 -0.0169259 -0.0135844 0.0488079 2650 
273 1 -0.0033366 0.03492 0.014016 0.001058 -0.00419695 0.043991 0.0228631 2650 
154 1 -0.0057798 0.0884839 -0.00848443 0.001058 -0.025218 0.0914679 0.0181079 2650 
241 1 0.00529794 -0.0342003 -0.0685027 0.000291 -7.4296 -0.252642 -0.584176 2650 
14 1 0.00598308 -0.0315901 -0.0684477 0.000291 -10.9481 -0.941669 -0.957874 2650 
277 1 0.00276973 -0.0196276 -0.0686515 0.000291 -9.5166 0.214453 -0.395112 2650 
131 1 0.00700079 -0.0472315 -0.0675897 0.001058 -10.788 -0.0956994 -1.12298 2650 
141 1 0.0146809 -0.0334293 -0.0671195 0.000291 -10.1502 -0.334104 -2.23308 2650 
221 1 0.0150105 -0.0200114 -0.0670616 0.000291 -8.5737 -0.100981 -1.92917 2650 
168 1 0.0113473 -0.0104455 -0.0679623 0.000105 -6.15908 -0.0137661 -1.02643 2650 
219 1 0.0207711 -0.000291143 -0.0654929 0.000291 -7.90113 -0.00420921 -2.50173 2650 
243 1 0.0271324 -0.0474097 -0.0623237 0.001058 -9.80172 0.0834445 -4.26737 2650 
126 1 0.0261256 -0.0437501 -0.0635724 0.000291 -9.95835 1.24819 -4.08905 2650 
239 1 0.0278425 -0.0493775 -0.062006 0.001058 -9.79449 0.0649149 -4.39832 2650 
230 1 0.0294793 -0.0506901 -0.0612413 0.001058 -9.65854 -0.0135251 -4.64893 2650 
121 1 0.0299273 -0.0464661 -0.0603894 0.00164 -9.54555 0.00940917 -4.73222 2650 
288 1 0.0292432 -0.0432834 -0.0621989 0.000291 -9.94724 0.0895855 -4.67494 2650 
274 1 0.0381798 -0.0623896 -0.0571394 0.000291 -8.89243 0.12099 -5.94654 2650 
281 1 0.036911 -0.0573438 -0.0579518 0.000291 -9.00802 0.0334363 -5.73872 2650 
89 1 0.0375136 -0.0609834 -0.0559627 0.00164 -8.76131 0.0378221 -5.87133 2650 
73 1 0.0383996 -0.0538763 -0.0553583 0.00164 -8.6329 0.00947282 -5.98786 2650 
191 1 0.0413368 -0.0497562 -0.0548861 0.000291 -8.39746 0.0438472 -6.32466 2650 
228 1 0.039836 -0.0184822 -0.0559954 0.000291 -5.82861 -0.21469 -4.11886 2650 
200 1 0.0509036 -0.00248132 -0.0464132 0.000105 -5.09989 -0.352703 -5.66703 2650 
158 1 0.0521051 -0.0168602 -0.0447481 0.000291 -4.87659 0.38642 -5.79269 2650 
29 1 0.0527348 -0.0181392 -0.0440322 0.000291 -5.92891 0.179451 -7.18602 2650 
253 1 0.0527958 -0.0111089 -0.0438821 0.000291 -2.06744 -0.332881 -2.81649 2650 
290 1 0.0560737 -0.0442477 -0.0397249 0.000291 -6.50767 0.114432 -9.1855 2650 
282 1 0.0585998 -0.0203862 -0.0358941 0.000291 -4.85015 -0.159388 -7.91123 2650 
88 1 0.0621156 -0.0187197 -0.0298452 0.000105 -3.25194 -0.666453 -6.76194 2650 
83 1 0.0626234 -0.0429963 -0.0264212 0.001058 -4.2193 -0.0313949 -10.0033 2650 
165 1 0.063839 -0.0342861 -0.025393 0.000291 -3.45104 -0.469853 -8.64669 2650 
207 1 0.0643308 -0.00673676 -0.0241428 0.000291 -2.34263 -0.328259 -6.29591 2650 
215 1 0.0653123 -0.0497101 -0.0188134 0.001058 -2.95177 -0.0343049 -10.2468 2650 
109 1 0.066356 -0.0536556 -0.0178591 0.000291 -2.83782 -0.3376 -10.5418 2650 
264 1 0.0663335 -0.0491526 -0.0147963 0.001058 -2.31753 0.0190457 -10.3928 2650 
15 1 0.0674441 -0.0188137 -0.013189 0.000291 -1.66281 0.0583009 -8.5491 2650 
252 1 0.00245 -0.000321034 -0.01336 0.001058 0 -0.011755 0 2650 
272 1 0.0670576 -0.0320611 -0.0109458 0.001058 -1.46032 -0.471702 -9.06587 2650 
275 1 0.012705 -0.000959034 -0.010476 0.000291 0 -0.011755 0 2650 
289 1 0.0680806 -0.0154908 -0.00932473 0.000291 -1.24996 0.170088 -9.14076 2650 
60 1 0.007579 -0.00239003 -0.006312 0.001058 0 -0.011755 0 2650 
45 1 0.010575 -0.00247003 -0.007722 0.000291 0 -0.011755 0 2650 
22 1 0.0684804 -0.011701 -0.00560243 0.000291 -0.642523 0.476918 -7.92848 2650 
84 1 0.0678936 -0.0497571 -0.00268282 0.001058 -0.408007 0.0437811 -10.3535 2650 
227 1 0.00944 -0.00179203 -0.002109 0.000291 0 -0.011755 0 2650 
39 1 0.068708 -0.0352164 -0.000149224 0.000291 -0.0235348 -0.538372 -10.6927 2650 
201 1 0.0673707 -0.0296262 0.000410809 0.00164 0.0340555 0.00693286 -8.98623 2650 
35 1 0.00349875 -0.00324965 0.00097963 0.001058 0.00654177 -0.0105187 -0.00962265 2650 
287 1 0.0129993 -0.00296175 0.000775197 0.001058 0.00844674 -0.013594 -0.029996 2650 
202 1 0.0057687 -0.000958476 0.000761171 0.001058 0.0093109 -0.00893593 -0.0136131 2650 
48 1 0.009671 -0.00119803 0.000233 0.000105 0 -0.011755 0 2650 
40 1 0.0688006 -0.0120407 0.00258036 0.000105 0.236231 0.28122 -7.69692 2650 
305 1 0.0688247 -0.00433838 0.00284873 0.000105 0.350435 -0.267643 -8.91641 2650 
99 1 0.00430037 -0.0013658 0.0037921 0.001058 0.0243572 -0.0114204 0.00238608 2650 
294 1 0.006997 -0.00148403 0.003581 0.001058 0 -0.011755 0 2650 
212 1 0.001087 -0.000974034 0.005915 0.000291 0 -0.011755 0 2650 
24 1 0.005464 -0.00140203 0.005551 0.000105 0 -0.011755 0 2650 
51 1 0.009662 -0.000329034 0.004577 0.001058 0 -0.011755 0 2650 
82 1 0.0676596 -0.0317785 0.0062547 0.001058 0.836868 0.015086 -9.15485 2650 
231 1 0.0073643 -0.0023891 0.00703408 0.001058 0.00167534 -0.0128877 -0.000760445 2650 
100 1 0.0110521 -0.00309769 0.00700299 0.001058 0.00912399 -0.0117578 -0.00681185 2650 
145 1 0.00509171 -0.000501062 0.0072685 0.00164 0.00142123 -0.0121074 -0.00172265 2650 
204 1 0.0673597 -0.022162 0.0088726 0.001058 1.13087 -0.531795 -8.71577 2650 
85 1 0.0681218 -0.0199612 0.00893887 0.000291 0.70751 0.328288 -6.83891 2650 
3 1 0.00845887 -0.002775 0.0127321 0.001058 -0.00211489 -0.0052299 0.000123346 2650 
137 1 0.0653404 -0.0611601 0.0164242 0.00164 2.57985 -1.15596e-07 -10.2634 2650 
76 1 0.0657582 -0.0238469 0.017114 0.001058 2.13061 -0.293525 -8.30343 2650 
269 1 0.0647949 -0.00574558 0.0228622 0.000291 1.52596 0.201237 -4.20845 2650 
162 1 0.0630732 -0.0302068 0.0252701 0.001058 3.42519 -0.102079 -8.5388 2650 
280 1 0.0637043 -0.0242323 0.023634 0.001058 2.91746 -0.171565 -7.97177 2650 
178 1 0.059545 -0.0575563 0.0327237 0.001058 4.99956 0.0602007 -9.097 2650 
257 1 0.0533425 -0.0505882 0.0420933 0.001058 6.17003 -0.00115261 -7.8263 2650 
81 1 0.0518787 -0.039447 0.0429777 0.00164 5.34222 -0.0547724 -6.35725 2650 
25 1 0.0505941 -0.059317 0.0444829 0.00164 7.04689 0.0614064 -8.01474 2650 
169 1 0.0484386 -0.0602131 0.0468237 0.00164 7.40722 -0.0827458 -7.66798 2650 
103 1 0.0509294 -0.0555204 0.0461179 0.000291 7.00174 -0.47031 -7.74213 2650 
246 1 0.0466712 -0.0549283 0.0493614 0.001058 7.78916 -0.144989 -7.36115 2650 
18 1 0.0390593 -0.0168118 0.0556124 0.001058 6.74941 -0.0375923 -4.74332 2650 
133 1 0.0393259 -0.0183203 0.0563541 0.000291 6.33192 -0.471881 -4.41754 2650 
132 1 0.0348373 -0.0169986 0.0583596 0.001058 7.07304 -0.0412509 -4.25282 2650 
102 1 0.0341895 -0.0174584 0.0596205 0.000291 7.13843 0.0982755 -4.07487 2650 
150 1 0.0288268 -0.0270914 0.0623638 0.000291 7.97704 0.0816589 -3.69432 2650 
125 1 0.0288831 -0.0211766 0.062357 0.000291 7.69432 0.00883982 -3.56833 2650 
285 1 0.0102115 -0.016492 0.0671763 0.001058 3.66451 -0.341124 -0.507117 2650 
117 1 0.0113633 -0.0115359 0.0677678 0.000291 5.85556 0.143801 -0.896194 2650 
303 1 0.000658932 -0.018519 0.0686994 0.000291 6.04556 -0.35607 0.0991723 2650 
151 1 0.000451041 -0.0538605 0.0687084 0.000291 11.1393 1.35602 -0.0718884 2650 
37 1 0.006156 0.00130797 -0.015157 0.000291 0 -0.011755 0 2650 
244 1 0.00259487 0.00502181 -0.015582 0.001058 -0.0978184 0.0259238 -0.0262948 2650 
127 1 0.00750378 0.0562468 -0.0147546 0.000291 0.0331404 0.0647284 -0.0037516 2650 
78 1 0.001258 0.00129397 -0.012517 0.000291 0 -0.011755 0 2650 
134 1 0.00323658 0.00517102 -0.010969 0.000291 -0.0128132 0.00355392 -0.00692922 2650 
232 1 0.0107393 0.0189009 -0.0104806 0.001058 -0.0167248 0.0324446 -0.0332171 2650 
87 1 0.00613115 0.00335187 -0.00936731 0.000291 -0.00318762 -0.017547 -0.0237996 2650 
260 1 0.00870779 0.00434632 -0.00814284 0.000291 -0.00392275 0.00411325 -0.00447499 2650 
301 1 0.00665726 0.0320004 -0.00810555 0.001058 0.00272587 0.0220862 -0.0290146 2650 
19 1 0.0141474 0.00851718 -0.0066138 0.001058 -0.00189711 0.0050805 -0.00113271 2650 
77 1 0.00609896 0.0111351 -0.00617677 0.000291 0.0279429 0.00178097 -0.016803 2650 
284 1 0.0139631 0.0101896 -0.0073581 0.000291 -0.00371053 0.00586111 -0.00129449 2650 
278 1 7.4e-05 0.000120966 -0.004448 0.001058 0 -0.011755 0 2650 
279 1 0.00784749 0.00660053 -0.00403484 0.001058 0.00690887 -0.00122776 0.0071413 2650 
203 1 0.00602271 0.00903311 -0.00463967 0.001058 0.0105265 0.0334803 0.00411967 2650 
286 1 0.0147009 0.0138605 -0.00570449 0.001058 -0.0100351 0.050326 -0.0237317 2650 
113 1 0.0115018 0.00226337 -0.00208088 0.00164 -0.0251958 0.00978061 -0.000134024 2650 
161 1 0.013762 0.0051026 -0.00328936 0.00164 0.000907452 0.00399164 0.00334652 2650 
153 1 0.00446751 0.00617429 -0.00218033 0.00164 0.00905173 -0.00370467 -0.0193596 2650 
92 1 0.011129 0.00641422 -0.00277653 0.001058 0.00298746 0.00292354 0.00546929 2650 
123 1 0.0146054 0.0180276 -0.00261896 0.001058 0.0119273 0.0407543 -0.0104321 2650 
190 1 0.005899 0.000909966 -0.000534 0.000291 0 -0.011755 0 2650 
199 1 0.0157558 0.00458043 -0.00194279 0.000291 -0.00149126 0.000541054 0.0056379 2650 
194 1 0.0155922 0.0164285 -0.00156695 0.001058 -0.00717738 0.0355954 0.00284246 2650 
245 1 0.00274967 0.0694071 -0.00136684 0.001058 0.013355 0.0538623 -0.0223836 2650 
128 1 0.00361 0.000508966 0.000511 0.000105 0 -0.011755 0 2650 
176 1 0.00562951 0.000121042 9.41149e-05 0.000105 0.0200199 0.000256501 -0.0124767 2650 
101 1 0.00684558 0.00114807 0.000724943 0.000291 0.0107852 -0.0015929 -0.0095042 2650 
271 1 0.0120155 0.000393254 0.000967667 0.001058 0.0150184 -0.010407 0.010297 2650 
1 1 0.0141868 0.00412176 0.000898716 0.00164 0.00550181 0.00569205 -0.0118839 2650 
9 1 0.0138441 0.0135354 0.00141649 0.00164 -0.00067168 0.0470366 0.00650688 2650 
180 1 0.015893 0.0494205 0.000285834 0.001058 -0.0108614 0.0610072 0.0547024 2650 
105 1 0.00843525 0.0126661 0.00262853 0.00164 0.00091231 0.0106728 0.0284417 2650 
258 1 0.0153044 0.0158458 0.00211423 0.001058 0.0173177 0.0493518 -0.00598843 2650 
139 1 0.0136822 0.0211396 0.00313196 0.001058 0.0127696 0.00849352 0.0230521 2650 
249 1 0.000948947 0.025875 0.00358041 0.000291 0.00987628 0.0185258 -0.0129358 2650 
52 1 0.00264494 0.0319787 0.00264857 0.001058 0.0258261 0.0380708 0.00407144 2650 
292 1 0.0095892 0.03226 0.00301331 0.001058 -0.0104367 0.0376087 -0.0291473 2650 
195 1 0.0150763 0.000393622 0.00454524 0.001058 0.00741724 -0.000789799 -0.0304536 2650 
79 1 0.014214 0.00151097 0.005058 0.000291 0 -0.011755 0 2650 
222 1 0.009219 0.000869966 0.006833 0.001058 0 -0.011755 0 2650 
112 1 0.013668 0.00183397 0.007002 0.000105 0 -0.011755 0 2650 
156 1 0.00801607 0.0117651 0.00732999 0.001058 0.00957299 -0.000303602 -0.00985815 2650 
57 1 0.00610518 0.0239344 0.00685185 0.00164 -0.000919831 0.00616449 -0.024056 2650 
54 1 0.0146317 0.0327096 0.0073108 0.000291 0.0125428 0.00255638 -0.0492536 2650 
116 1 0.00820453 0.0356807 0.00722578 0.001058 -0.0278213 0.0454338 0.0115295 2650 
298 1 0.01109 0.00496315 0.0111969 0.000105 0.00377194 -0.00442838 -0.00799766 2650 
238 1 0.0040252 0.0333144 0.0110759 0.001058 0.0207771 0.0325148 -0.00733364 2650 
265 1 0.00643208 0.00913601 0.0130882 0.001058 0.011667 0.00657701 -0.00499144 2650 
66 1 0.00936244 0.00836113 0.0123707 0.001058 0.00846641 -0.000759158 0.00162513 2650 
70 1 0.00293471 0.0237891 0.0121381 0.000291 0.0174831 0.0757361 0.0937803 2650 
95 1 0.00667967 0.00150607 0.0146044 0.000291 -0.000366951 -0.00495937 0.00220646 2650 
198 1 0.00682608 0.0130448 0.0151043 0.000291 -0.0744716 1.66389e-05 0.0397786 2650 
17 1 0.000796446 0.0332354 0.0152607 0.00164 0.0425829 0.0413566 -0.00603146 2650 
155 1 0.0129675 0.111263 -0.0106389 0.001058 0.04057 0.188533 0.00265111 2650 
136 1 0.0143863 0.113407 0.00663365 0.000105 0.0375902 0.10168 0.0199891 2650 
