ITEM: TIMESTEP
8519984
ITEM: NUMBER OF ATOMS
296
ITEM: BOX BOUNDS ff ff ff
-0.15 0.15
-0.15 0.15
-0.15 0.15
ITEM: ATOMS id type x y z radius vx vy vz density 
23 1 -0.00451269 -0.0315473 -0.0685595 0.000291 -10.2989 -0.0309694 0.678895 2650 
173 1 -0.0083722 -0.0121446 -0.0682022 0.000291 -8.21737 -0.808427 1.00111 2650 
172 1 -0.0120018 -0.0476763 -0.0668816 0.001058 -10.125 -0.0415305 1.82085 2650 
20 1 -0.00830091 -0.0453535 -0.0674314 0.001058 -10.285 -0.05477 1.27139 2650 
193 1 -0.00394821 -0.0452624 -0.0672204 0.00164 -10.3813 0.0375507 0.611348 2650 
189 1 -0.0191783 -0.0414458 -0.0659929 0.000291 -8.02393 0.419336 2.31806 2650 
22 1 -0.0245055 -0.0253671 -0.0641889 0.000291 -8.65257 -0.472698 3.30104 2650 
44 1 -0.0172379 -0.0176387 -0.0657443 0.001058 -8.00031 -0.134043 2.06267 2650 
149 1 -0.0291837 -0.0302133 -0.0622015 0.000291 -7.47806 -0.0633097 3.50352 2650 
277 1 -0.0318378 -0.0222018 -0.0608975 0.000291 -7.36125 -0.818903 3.84765 2650 
152 1 -0.0322764 -0.0215041 -0.0608784 0.000105 -4.32822 -0.254665 2.2991 2650 
188 1 -0.0351226 -0.0617225 -0.0581631 0.001058 -8.63371 -0.0313157 5.21759 2650 
36 1 -0.0345858 -0.0321965 -0.0584826 0.001058 -8.45149 -0.0300482 5.00629 2650 
108 1 -0.0379342 -0.0260107 -0.0563662 0.001058 -4.56042 0.0703051 3.02245 2650 
267 1 -0.0395536 -0.00833421 -0.0561879 0.000291 -5.90765 -0.25826 4.1486 2650 
30 1 -0.0371999 -0.00525985 -0.0577687 0.000291 -4.46093 0.127557 2.87665 2650 
218 1 -0.0434545 -0.0317083 -0.0522368 0.001058 -7.55089 -0.0481236 6.3389 2650 
162 1 -0.0431706 -0.0226275 -0.0524701 0.001058 -6.86609 -0.080153 5.6516 2650 
182 1 -0.0498479 -0.0145865 -0.0472353 0.000291 -6.10886 0.0302957 6.40386 2650 
132 1 -0.0490115 -0.0157901 -0.0470206 0.001058 -6.11832 -0.0725946 6.31949 2650 
158 1 -0.0519386 -0.00951687 -0.0449187 0.000291 -5.67843 -0.101676 6.6385 2650 
64 1 -0.0545849 -0.0100536 -0.0419951 0.000105 -2.57282 -0.169284 3.38904 2650 
178 1 -0.0563375 -0.0486293 -0.0380007 0.001058 -2.6098 -0.827867 3.98328 2650 
228 1 -0.0579563 -0.028748 -0.0368969 0.000291 -2.51254 0.0681135 3.92679 2650 
148 1 -0.0588548 -0.0439 -0.0339929 0.001058 -4.97645 -0.0281521 8.61934 2650 
248 1 -0.061218 -0.0073893 -0.0312113 0.000291 -3.9467 -1.27688 7.72282 2650 
141 1 -0.0633542 -0.0327844 -0.0265842 0.000291 -2.41773 1.13918 5.73935 2650 
236 1 -0.0646407 -0.0498185 -0.021006 0.001058 -3.03085 -0.0169872 9.48433 2650 
235 1 -0.0653355 -0.00571271 -0.0212648 0.000291 -2.71585 -0.18119 8.31868 2650 
303 1 -0.000885637 -0.00245047 -0.0164097 0.000291 -0.0398004 -0.00495339 0.00662732 2650 
85 1 -0.003548 -0.00125884 -0.015444 0.000291 0 -0.011755 0 2650 
130 1 -0.000338681 -0.000179762 -0.0158403 0.001058 -0.00730232 0.00347522 0.00594057 2650 
237 1 -0.000969233 -0.00217189 -0.0137909 0.001058 -0.0539027 -0.00636539 0.0249699 2650 
302 1 -0.0678718 -0.0165545 -0.010759 0.000291 -1.18847 0.387686 7.52836 2650 
135 1 -0.00656673 -0.000460826 -0.00790772 0.000291 -0.0060505 -0.00140209 -0.0140303 2650 
203 1 -0.000619559 -0.00148341 -0.00659982 0.001058 0.0205789 -0.00767925 0.0321524 2650 
119 1 -0.0685513 -0.0394523 -0.00463565 0.000291 -0.634007 -0.151171 9.33687 2650 
151 1 -0.0685348 -0.0195093 -0.00487186 0.000291 -0.539499 -0.116723 7.52612 2650 
76 1 -0.000646311 -0.0032195 -0.00538203 0.001058 0.00685894 -0.0275346 0.0139197 2650 
138 1 -0.067903 -0.0453732 -0.00240739 0.001058 -0.381752 -0.0321905 9.62041 2650 
274 1 -0.016349 -0.000359842 -0.002509 0.000291 0 -0.011755 0 2650 
56 1 -0.068877 -0.0201253 -0.00151525 0.000105 -0.0611525 0.0106187 4.70517 2650 
29 1 -0.0687013 -0.0219761 0.000673696 0.000291 0.0249664 0.494794 7.96283 2650 
191 1 -0.0108 -0.00208584 0.001549 0.000291 0 -0.011755 0 2650 
296 1 -0.005879 -0.00293984 0.000521 0.000291 0 -0.011755 0 2650 
168 1 -0.007536 -0.00107484 0.001389 0.000105 0 -0.011755 0 2650 
40 1 -0.0687503 -0.0107271 0.00331197 0.000105 0.222783 -0.177057 5.02743 2650 
14 1 -0.016061 -0.00372477 0.00372187 0.000291 -2.31539 -0.0729878 0.536556 2650 
98 1 -0.00206523 -0.0021681 0.00205304 0.001058 -0.000872989 -0.0147225 -0.00989819 2650 
97 1 -0.0137028 -0.000167617 0.00285101 0.00164 0.00016333 0.00117645 -0.00616736 2650 
18 1 -0.005138 -0.00188084 0.00212 0.001058 0 -0.011755 0 2650 
146 1 -0.0676419 -0.0495338 0.00645861 0.001058 0.931787 -0.0547847 9.74567 2650 
53 1 -0.000389 -0.000797842 0.004762 0.000291 0 -0.011755 0 2650 
259 1 -0.0674547 -0.0231967 0.0081689 0.001058 0.924108 0.0127067 7.84677 2650 
179 1 -0.0673958 -0.0491142 0.00869574 0.001058 1.2512 -0.00952479 9.71433 2650 
226 1 -0.009224 -0.00252884 0.012787 0.000291 0 -0.011755 0 2650 
255 1 -0.0669676 -0.0142025 0.015416 0.000291 2.07192 0.289014 8.86053 2650 
280 1 -0.0642696 -0.0191523 0.0221101 0.001058 2.69085 -0.0994682 7.77618 2650 
221 1 -0.063784 -0.0226601 0.0255649 0.000291 3.2567 0.0438277 8.11564 2650 
183 1 -0.0633624 -0.00914934 0.0266065 0.000291 3.31431 0.201593 7.92568 2650 
26 1 -0.0589403 -0.0315593 0.0338044 0.001058 4.37163 -0.00098843 7.63754 2650 
84 1 -0.0589985 -0.0219202 0.0337208 0.001058 4.59819 -0.0581939 8.13835 2650 
34 1 -0.0579309 -0.0323717 0.0355025 0.001058 4.61995 0.0937697 7.54921 2650 
281 1 -0.0571542 -0.0382215 0.0381375 0.000291 4.12332 -0.399096 6.24957 2650 
90 1 -0.0509069 -0.0559249 0.0449639 0.001058 6.7025 -0.176103 7.59727 2650 
233 1 -0.0100953 -0.0175339 0.0522328 0.000291 -1.52929 -1.36468 7.79977 2650 
8 1 -0.0406045 -0.0150854 0.0556695 0.000105 4.13046 -0.209804 2.9726 2650 
133 1 -0.0356812 -0.0121294 0.0587373 0.000291 6.82613 -0.102909 4.13834 2650 
305 1 -0.0327949 -0.0192428 0.0606086 0.000105 3.36512 0.0781941 1.73454 2650 
49 1 -0.0222477 -0.0408928 0.0635994 0.00164 8.36508 0.0696978 2.93284 2650 
169 1 -0.00792128 -0.0574434 0.066902 0.00164 10.2403 0.110855 1.21306 2650 
70 1 -0.002345 0.000543158 -0.015511 0.000291 0 -0.011755 0 2650 
33 1 -0.00280057 0.0111039 -0.0150005 0.00164 0.00499126 0.02337 -0.00956389 2650 
147 1 -0.00211561 0.0192959 -0.0156287 0.001058 -0.0603085 0.0389225 0.0107591 2650 
157 1 -0.00725959 0.0267468 -0.0144222 0.000291 0.0079085 0.0606548 0.000918149 2650 
127 1 -0.00343269 0.0348862 -0.0135165 0.000291 0.0331404 0.0647284 -0.0037516 2650 
47 1 -0.0127534 0.00136602 -0.0104191 0.000291 -0.00125586 -0.0105028 0.00427205 2650 
94 1 -0.0115697 0.00567034 -0.0118687 0.000291 8.5498e-05 -0.0117385 8.5498e-05 2650 
234 1 -0.0120241 0.00729599 -0.011388 0.000291 -0.02134 0.00563614 -0.0027496 2650 
155 1 -0.000420731 0.0490461 -0.0115138 0.001058 0.04057 0.188533 0.00265111 2650 
175 1 -0.013247 0.00123116 -0.008751 0.000291 0 -0.011755 0 2650 
74 1 -0.0118589 0.00463929 -0.00653527 0.001058 0.00156258 -0.00569596 -0.00749774 2650 
75 1 -0.00924995 0.0317336 -0.00699206 0.001058 0.0206685 0.0556886 -0.0248334 2650 
240 1 -0.010392 0.00183316 -0.005262 0.000291 0 -0.011755 0 2650 
276 1 -0.013674 0.00277516 -0.004231 0.000291 0 -0.011755 0 2650 
159 1 -0.012707 0.00576916 -0.00588 0.000291 0 -0.011755 0 2650 
38 1 -0.00442789 0.00877683 -0.00467233 0.000291 -0.0300402 0.0227875 -0.0736261 2650 
256 1 -0.0160811 0.010539 -0.00420177 0.000291 -0.00333023 -0.00208616 0.0103813 2650 
115 1 -0.0147549 0.0102572 -0.0050033 0.001058 -0.00655704 0.00527716 0.0172016 2650 
187 1 -0.0150723 0.0137672 -0.00451614 0.001058 -0.00403483 0.0166064 0.0136562 2650 
13 1 -0.014201 0.00187516 -0.003882 0.000291 0 -0.011755 0 2650 
104 1 -0.014089 0.00255716 -0.003012 0.000105 0 -0.011755 0 2650 
114 1 -0.0118969 0.00480899 -0.00307255 0.001058 0.00263798 -7.05089e-05 -0.000306371 2650 
10 1 -0.0155142 0.00692804 -0.00350412 0.001058 -0.00603352 -0.00346171 -0.00631144 2650 
87 1 -0.000545634 0.00686635 -0.0031051 0.000291 0.0457248 -0.00314239 -0.013726 2650 
144 1 -0.0109034 0.0118279 -0.00247373 0.000105 0.00807853 0.0136784 0.0281765 2650 
220 1 -0.0133281 0.0181034 -0.00206454 0.000291 0.00605419 0.00724476 0.0145131 2650 
7 1 -0.00632931 0.0198769 -0.00311861 0.000291 0.00378858 0.0136367 -0.000251809 2650 
61 1 -0.016439 0.00548716 -0.001038 0.000291 0 -0.011755 0 2650 
77 1 -0.00312231 0.0105474 -0.000631717 0.000291 0.0279429 0.00178097 -0.016803 2650 
41 1 -0.00531338 0.0135474 -0.000490629 0.00164 0.0102042 0.00860529 0.0210319 2650 
65 1 -0.0110228 0.0172838 -0.00142748 0.00164 -0.00454877 0.0138432 0.000335664 2650 
120 1 -0.016055 0.00112716 0.000189 0.000105 0 -0.011755 0 2650 
80 1 -0.014935 0.00382516 0.00039 0.000105 0 -0.011755 0 2650 
250 1 -0.0109634 0.00199183 0.000946356 0.001058 0.00273404 -0.00245883 0.0388004 2650 
211 1 -0.0131099 0.0041755 8.81275e-06 0.001058 0.000982608 0.00314487 0.00709992 2650 
268 1 -0.011054 0.00434916 0.000789 0.000291 0 -0.011755 0 2650 
209 1 -0.0139253 0.00657658 0.000366003 0.001058 -0.00415633 0.00564878 0.00501433 2650 
129 1 -0.00608224 0.00742728 0.000493402 0.00164 0.00886763 0.000928435 -0.00531986 2650 
52 1 -0.00587778 0.0194152 0.00130498 0.001058 0.0258261 0.0380708 0.00407144 2650 
99 1 -0.0037376 0.00240297 0.00300468 0.001058 0.0243572 -0.0114204 0.00238608 2650 
176 1 -0.00256892 0.00264986 0.00222405 0.000105 0.0253113 -0.0084311 -0.00587015 2650 
164 1 -0.003894 0.00150016 0.005467 0.001058 0 -0.011755 0 2650 
126 1 -0.00267749 0.00128733 0.00414738 0.000291 -0.00909177 -0.0182309 -0.0255133 2650 
291 1 -0.008194 0.00587416 0.004767 0.000291 0 -0.011755 0 2650 
266 1 -0.0147074 0.00756383 0.00547578 0.001058 -0.00293207 0.00740435 -0.00807451 2650 
106 1 -0.00976069 0.0132577 0.00487435 0.001058 0.0119634 0.0223893 -0.0027555 2650 
242 1 -0.00870969 0.0142289 0.00547725 0.000291 0.0116924 0.0265357 0.00697501 2650 
124 1 -0.0148059 0.0181003 0.00566255 0.001058 -0.00517984 0.0356753 0.00690028 2650 
28 1 -0.0130052 0.0193774 0.00549068 0.001058 -0.0100166 0.0530053 0.00917185 2650 
273 1 -0.0019949 0.0220543 0.00439819 0.001058 -0.00402366 0.037385 0.0311551 2650 
186 1 -0.0061856 0.00385786 0.00655764 0.001058 -4.15282e-05 -0.0115536 6.1062e-05 2650 
71 1 -0.00135127 0.00661908 0.0067975 0.000291 0.000861808 -0.00718564 -0.0173142 2650 
17 1 -0.0102878 0.0180946 0.00629821 0.00164 0.00413739 0.0508387 0.0645068 2650 
249 1 -0.00231026 0.0197615 0.00784927 0.000291 0.00987628 0.0185258 -0.0129358 2650 
245 1 -0.00165754 0.0516324 0.00601983 0.001058 0.013355 0.0538623 -0.0223836 2650 
58 1 -0.00998414 0.000313818 0.0084226 0.001058 0.00939797 -0.00814862 -0.00719036 2650 
170 1 -0.00945013 0.00315579 0.00961379 0.001058 0.00813908 -0.00598064 0.0087017 2650 
304 1 -0.012709 0.00515516 0.009818 0.000291 0 -0.011755 0 2650 
4 1 -0.012424 0.00790023 0.00970849 0.001058 0.00473149 0.00103266 0.00625096 2650 
68 1 -0.00322773 0.00919933 0.00992897 0.001058 0.00272783 -0.00342387 -0.00169301 2650 
285 1 -0.0103973 0.000687842 0.0119314 0.001058 -0.00447436 -0.0137973 -0.00560016 2650 
300 1 -0.0116864 0.00201495 0.0106661 0.001058 -0.00371667 -0.00768461 -0.00400106 2650 
299 1 -0.0105911 0.00428493 0.0114827 0.001058 -0.000477082 -0.00417598 0.00910156 2650 
55 1 -0.01171 0.00562316 0.01034 0.000291 0 -0.011755 0 2650 
217 1 -0.00983169 0.0248383 0.0102505 0.001058 0.000747792 0.0265619 -0.00553463 2650 
224 1 -0.00763427 0.0121552 0.0137515 0.001058 -0.00376938 0.00554818 0.00221201 2650 
238 1 -0.00283132 0.0225844 0.013496 0.001058 0.0207771 0.0325148 -0.00733364 2650 
54 1 -0.00166958 0.0297449 0.0155359 0.000291 0.0526685 0.00955407 -0.0227648 2650 
32 1 0.00384492 -0.0258669 -0.0687698 0.000105 -10.9006 0.610974 -0.603682 2650 
16 1 0.00778735 -0.00139442 -0.0684516 0.000105 -7.70683 0.00233959 -0.900631 2650 
229 1 0.00444035 -0.0489561 -0.067799 0.001058 -10.0028 0.178126 -0.653871 2650 
288 1 0.0106753 -0.0420528 -0.0678808 0.000291 -9.9055 0.162651 -1.55735 2650 
86 1 0.0138352 -0.0122187 -0.0673099 0.000291 -5.88321 -0.204547 -1.29194 2650 
185 1 0.0204908 -0.03539 -0.0641783 0.00164 -9.46362 -0.183136 -3.02141 2650 
282 1 0.0274172 -0.0254485 -0.0630001 0.000291 -5.441 -0.06396 -2.34125 2650 
197 1 0.0299569 -0.000349321 -0.0618336 0.000291 -6.76189 -0.155009 -3.26441 2650 
204 1 0.0339978 -0.021206 -0.0588382 0.001058 -6.60537 0.0636762 -3.82668 2650 
243 1 0.0406345 -0.0423587 -0.0544672 0.001058 -7.88194 -0.095709 -5.88499 2650 
131 1 0.0392932 -0.0278329 -0.0554291 0.001058 -7.68048 -0.189577 -5.44409 2650 
251 1 0.0387111 -0.0158999 -0.0558582 0.001058 -6.23105 -0.066317 -4.30782 2650 
39 1 0.0432506 -0.0532688 -0.0533897 0.000291 -7.32183 -0.274611 -5.93461 2650 
206 1 0.0423196 -0.0152392 -0.0541364 0.000291 -6.49905 0.505994 -5.08798 2650 
257 1 0.0444595 -0.0437692 -0.0513835 0.001058 -7.77095 0.00878847 -6.72262 2650 
254 1 0.0496404 -0.0181462 -0.0474672 0.000291 -4.46133 -0.438157 -4.52063 2650 
118 1 0.0495451 -0.0162737 -0.0475713 0.000291 -4.44999 -0.272146 -4.47924 2650 
241 1 0.0493078 -0.00916611 -0.0478393 0.000291 -4.74618 0.12928 -4.70958 2650 
21 1 0.0542005 -0.0445272 -0.0422183 0.000291 -5.88258 -0.44408 -7.57713 2650 
89 1 0.0552224 -0.0546794 -0.038588 0.00164 -5.59342 -0.0543935 -8.01771 2650 
122 1 0.0620519 -0.0154485 -0.0277423 0.001058 -2.97368 -0.211965 -6.65604 2650 
290 1 0.063631 -0.0393933 -0.025942 0.000291 -3.77616 -0.327291 -9.26276 2650 
230 1 0.0637145 -0.049073 -0.0236719 0.001058 -3.38762 -0.099373 -9.08892 2650 
239 1 0.0637341 -0.0469551 -0.0236283 0.001058 -3.38907 -0.102569 -9.14892 2650 
62 1 0.0648453 -0.0316861 -0.0227127 0.000291 -2.56662 -0.181779 -7.37446 2650 
215 1 0.0645317 -0.0474993 -0.0213432 0.001058 -3.03364 -0.0146766 -9.14215 2650 
46 1 0.0109831 -0.00426137 -0.0217282 0.000291 1.22965 -0.157387 -2.52774 2650 
93 1 0.066099 -0.033523 -0.0187402 0.000291 -2.63928 0.200543 -9.31173 2650 
213 1 0.066129 -0.0139701 -0.0187316 0.000291 -1.27895 -0.173679 -4.64638 2650 
2 1 0.0656545 -0.031104 -0.0175494 0.001058 -2.41762 -0.180047 -9.07169 2650 
72 1 0.0666724 -0.0294456 -0.0173442 0.000105 -2.48775 -0.506041 -9.56619 2650 
166 1 0.0664773 -0.00931564 -0.0174153 0.000291 -1.92489 0.0428415 -7.38665 2650 
269 1 0.002277 -0.000574842 -0.015181 0.000291 0 -0.011755 0 2650 
160 1 0.004468 -0.00171584 -0.014641 0.000105 0 -0.011755 0 2650 
289 1 0.001465 -0.000151842 -0.012477 0.000291 0 -0.011755 0 2650 
263 1 0.006877 -0.00131884 -0.012319 0.000291 0 -0.011755 0 2650 
196 1 0.002599 -0.00284584 -0.011929 0.001058 0 -0.011755 0 2650 
201 1 0.0093267 -0.00120118 -0.0117478 0.00164 0.00137105 -0.0114185 -0.003869 2650 
171 1 0.0673434 -0.0448595 -0.00909232 0.001058 -1.31675 -0.70616 -9.76779 2650 
167 1 0.0681126 -0.0186338 -0.00907603 0.000291 -1.1289 -0.601183 -8.34109 2650 
121 1 0.0669809 -0.0347739 -0.00720641 0.00164 -1.05001 -0.109802 -9.78836 2650 
125 1 0.0683294 -0.0264598 -0.00720572 0.000291 -0.962816 -0.0125325 -9.07437 2650 
102 1 0.003423 -0.00141384 -0.006065 0.000291 0 -0.011755 0 2650 
117 1 0.004754 -0.00115184 -0.007063 0.000291 0 -0.011755 0 2650 
246 1 0.001376 -0.00191284 -0.005453 0.001058 0 -0.011755 0 2650 
88 1 0.002864 -0.00328684 -0.002457 0.000105 0 -0.011755 0 2650 
270 1 0.00237198 -0.00304505 -0.00349149 0.000291 -0.00136788 -0.0183096 -0.00635377 2650 
25 1 0.0673683 -0.0611588 -0.000903366 0.00164 -0.140968 0.0044329 -10.3077 2650 
83 1 0.0679044 -0.0369918 -0.00239894 0.001058 -0.338287 0.104694 -9.64046 2650 
150 1 0.0686783 -0.0264651 -0.00203763 0.000291 -0.102251 -1.03118 -3.21956 2650 
6 1 0.068702 -0.0128159 -0.000931703 0.000291 -0.123714 0.677409 -9.09149 2650 
59 1 0.00103685 -0.00253261 -0.000410294 0.001058 -0.0198666 -0.0100501 -0.0494142 2650 
205 1 0.000696365 -0.00153287 -0.00169238 0.000291 -0.0212393 0.00831856 -0.0510728 2650 
177 1 0.00313173 -0.000973565 -0.00177319 0.00164 -0.00966503 -0.00602483 0.00423439 2650 
63 1 0.0687036 -0.0335634 0.00085596 0.000291 0.116868 -0.0273574 -9.58778 2650 
96 1 0.009869 -0.00315684 0.000788 0.000105 0 -0.011755 0 2650 
81 1 0.007451 -0.00179384 7.8e-05 0.00164 0 -0.011755 0 2650 
261 1 0.011218 -0.00161784 0.000328 0.000291 0 -0.011755 0 2650 
210 1 0.010971 -0.00246384 0.002357 0.001058 0 -0.011755 0 2650 
208 1 0.0152681 -0.000166555 0.00311211 0.001058 0.00528618 -0.0283184 -0.0333125 2650 
223 1 0.0107515 -0.00198004 0.00486391 0.001058 0.0244252 -0.00835069 0.00805578 2650 
15 1 0.0684388 -0.0198389 0.00609015 0.000291 0.609378 0.19755 -6.60464 2650 
207 1 0.000324 -0.00193784 0.006532 0.000291 0 -0.011755 0 2650 
50 1 0.010552 -0.00350735 0.00926671 0.001058 1.28065 -0.0516836 1.12465 2650 
192 1 0.0684483 -0.000105335 0.00781511 0.000105 0.869139 0.00690308 -7.6643 2650 
140 1 0.0672317 -0.0328503 0.00982165 0.001058 1.40105 -0.0566732 -9.58812 2650 
103 1 0.005979 -0.000919842 0.01127 0.000291 0 -0.011755 0 2650 
3 1 0.00915679 -0.00104912 0.0126914 0.001058 -0.00211489 -0.0052299 0.000123346 2650 
73 1 0.0658158 -0.0548811 0.0144238 0.00164 2.17142 -0.0342941 -9.9009 2650 
82 1 0.000755 -0.00195084 0.014898 0.001058 0 -0.011755 0 2650 
264 1 0.0659774 -0.0471318 0.0163275 0.001058 2.38714 0.422975 -9.63309 2650 
165 1 0.0666565 -0.0265209 0.0166561 0.000291 1.99925 0.205322 -7.98693 2650 
247 1 0.0661968 -0.0466133 0.0184914 0.000291 2.5721 -0.609705 -9.2188 2650 
283 1 0.0663036 -0.0291546 0.0180105 0.000291 2.24019 -0.346739 -8.24071 2650 
295 1 0.0653792 -0.0238653 0.0211383 0.000291 2.46639 -0.181334 -7.62589 2650 
272 1 0.0634506 -0.0247826 0.0243031 0.001058 2.91667 0.0303031 -7.69904 2650 
219 1 0.0644174 -0.000290956 0.0238997 0.000291 2.74193 0.000115639 -7.37645 2650 
111 1 0.0994206 -0.0306698 0.0291626 0.000291 9.80379 0.0530224 -4.55688 2650 
200 1 0.0597932 -0.0521393 0.0342233 0.000105 3.97983 1.75692 -6.94158 2650 
225 1 0.0571347 -0.0376234 0.0367802 0.001058 4.90014 -0.0969724 -7.62442 2650 
174 1 0.0473559 -0.00569934 0.0497622 0.000291 2.50692 -0.180962 -2.39246 2650 
107 1 0.0426861 -0.0317887 0.0528649 0.001058 7.59481 -0.016755 -6.08308 2650 
143 1 0.0390158 -0.0286948 0.0565532 0.000291 4.3156 -0.82931 -3.04061 2650 
214 1 0.0325505 -0.0505316 0.060529 0.000291 4.85397 0.535172 -2.63764 2650 
42 1 0.0248326 -0.0446416 0.063273 0.001058 8.23146 -0.102169 -3.21671 2650 
69 1 0.0252072 -0.0457543 0.0639441 0.000291 8.33929 -0.0634123 -3.2832 2650 
184 1 0.0241186 -0.00637221 0.0645374 0.000105 4.55678 0.196277 -1.66805 2650 
137 1 0.00179175 -0.06112 0.0673458 0.00164 9.98936 0.0218308 -0.262202 2650 
43 1 0.00353193 -0.0321489 0.0678532 0.001058 9.87195 -0.0521105 -0.551934 2650 
109 1 0.00316656 -0.0506927 0.068634 0.000291 10.9964 0.3808 -0.499311 2650 
181 1 0.00629578 -0.0323137 0.06842 0.000291 8.19923 0.466903 -0.742495 2650 
37 1 0.006156 0.00518716 -0.015157 0.000291 0 -0.011755 0 2650 
180 1 0.00558745 0.0270913 -0.0140633 0.001058 0.0523606 0.0717115 0.0275313 2650 
154 1 0.00254222 0.0582992 -0.0144601 0.001058 -0.025218 0.0914679 0.0181079 2650 
142 1 0.002378 0.000263158 -0.013184 0.000291 0 -0.011755 0 2650 
252 1 0.00245 0.00355816 -0.01336 0.001058 0 -0.011755 0 2650 
78 1 0.001258 0.00517316 -0.012517 0.000291 0 -0.011755 0 2650 
275 1 0.012705 0.00292016 -0.010476 0.000291 0 -0.011755 0 2650 
67 1 0.00024285 0.00801902 -0.011356 0.001058 -0.020884 0.0142907 -0.00966941 2650 
134 1 0.00746496 0.00399821 -0.00868231 0.000291 -0.0128132 0.00355392 -0.00692922 2650 
198 1 0.0139448 0.0102729 -0.00896805 0.000291 0.0419437 0.0163796 0.0778141 2650 
60 1 0.007579 0.00148916 -0.006312 0.001058 0 -0.011755 0 2650 
45 1 0.010575 0.00140916 -0.007722 0.000291 0 -0.011755 0 2650 
260 1 0.0100023 0.00298893 -0.00666608 0.000291 -0.00392275 0.00411325 -0.00447499 2650 
19 1 0.0142828 0.00677253 -0.00604064 0.001058 0.0022695 0.00565847 -0.00282567 2650 
105 1 0.00813418 0.00914398 -0.00675732 0.00164 0.00091231 0.0106728 0.0284417 2650 
284 1 0.0151466 0.00825028 -0.00691287 0.000291 0.00515653 0.00696942 -0.00520094 2650 
161 1 0.0134625 0.00378534 -0.00439372 0.00164 0.000907452 0.00399164 0.00334652 2650 
278 1 7.4e-05 0.00400016 -0.004448 0.001058 0 -0.011755 0 2650 
92 1 0.0101432 0.00544944 -0.00458142 0.001058 0.00298746 0.00292354 0.00546929 2650 
279 1 0.00890399 0.00668606 -0.00586565 0.001058 -0.00585416 -0.000170086 0.00510934 2650 
139 1 0.00946818 0.0183367 -0.00447532 0.001058 0.0127696 0.00849352 0.0230521 2650 
253 1 0.014729 0.000258158 -0.002617 0.000291 0 -0.011755 0 2650 
271 1 0.00705942 0.00382759 -0.00243038 0.001058 0.0150184 -0.010407 0.010297 2650 
227 1 0.00944 0.00208716 -0.002109 0.000291 0 -0.011755 0 2650 
199 1 0.0162479 0.00440188 -0.00380332 0.000291 -0.00149126 0.000541054 0.0056379 2650 
123 1 0.00365517 0.0107648 -0.00209841 0.001058 0.0354386 0.020018 -0.000637314 2650 
113 1 0.0102898 0.00011044 -0.000907159 0.00164 -0.000152922 -0.0104668 0.00259679 2650 
110 1 0.00487889 0.00498963 -0.00152865 0.000291 -0.0169259 -0.0135844 0.0488079 2650 
190 1 0.005899 0.00478916 -0.000534 0.000291 0 -0.011755 0 2650 
48 1 0.009671 0.00268116 0.000233 0.000105 0 -0.011755 0 2650 
244 1 0.0155648 0.00330514 0.00114814 0.001058 -0.00138261 -0.0193058 -0.0273647 2650 
128 1 0.00361 0.00438816 0.000511 0.000105 0 -0.011755 0 2650 
9 1 0.012984 0.00442616 0.000468 0.00164 0 -0.011755 0 2650 
286 1 0.0155852 0.00516413 7.48019e-05 0.001058 0.000169261 -0.00185674 -0.00809275 2650 
232 1 0.0154473 0.00812962 0.00067244 0.001058 0.0225908 0.0355672 -0.0424833 2650 
293 1 0.0148233 0.015089 0.00127113 0.001058 0.0237572 0.0710344 -0.104438 2650 
116 1 0.0125084 0.0204258 0.00152221 0.001058 0.0382435 0.0489782 0.0372506 2650 
301 1 0.00575771 0.0247119 0.00146938 0.001058 0.00272587 0.0220862 -0.0290146 2650 
101 1 0.004812 0.00311116 0.002517 0.000291 0 -0.011755 0 2650 
294 1 0.006997 0.00239516 0.003581 0.001058 0 -0.011755 0 2650 
194 1 0.0147125 0.00475283 0.00351327 0.001058 -0.00784002 0.0113692 -0.028755 2650 
35 1 0.00133995 0.000221575 0.00415514 0.001058 0.00654177 -0.0105187 -0.00962265 2650 
202 1 0.00266588 0.00195795 0.00528345 0.001058 0.00953014 -0.00871599 -0.0138173 2650 
212 1 0.001087 0.00290516 0.005915 0.000291 0 -0.011755 0 2650 
24 1 0.005464 0.00247716 0.005551 0.000105 0 -0.011755 0 2650 
51 1 0.009662 0.00355016 0.004577 0.001058 0 -0.011755 0 2650 
79 1 0.014214 0.00539016 0.005058 0.000291 0 -0.011755 0 2650 
153 1 0.0014804 0.00739685 0.00420841 0.00164 0.00905173 -0.00370467 -0.0193596 2650 
231 1 0.00681143 0.00186388 0.00728503 0.001058 0.00167534 -0.0128877 -0.000760445 2650 
145 1 0.0046227 0.00349442 0.00783698 0.00164 0.00142123 -0.0121074 -0.00172265 2650 
1 1 0.0123303 0.00205815 0.0063039 0.00164 0.00588729 0.00743877 -0.0258753 2650 
222 1 0.009219 0.00474916 0.006833 0.001058 0 -0.011755 0 2650 
112 1 0.013668 0.00571316 0.007002 0.000105 0 -0.011755 0 2650 
258 1 0.0130681 0.00786421 0.00789935 0.001058 0.00615004 0.0226911 -0.0182162 2650 
292 1 0.00852421 0.0190249 0.00743126 0.001058 0.0469404 0.0480946 0.0370303 2650 
163 1 0.0101235 0.0456124 0.00773171 0.001058 -0.0646454 0.16688 0.0888818 2650 
100 1 0.00804116 0.000782441 0.00925093 0.001058 0.00912399 -0.0117578 -0.00681185 2650 
287 1 0.0105521 0.00148424 0.0102363 0.001058 -0.001802 -0.0123869 -0.0168129 2650 
66 1 0.00656849 0.00861166 0.0118344 0.001058 0.00846641 -0.000759158 0.00162513 2650 
156 1 0.00485695 0.0118652 0.0105832 0.001058 0.00957299 -0.000303602 -0.00985815 2650 
195 1 0.00792704 0.0014276 0.0122073 0.001058 0.0422505 -0.00642479 -0.0231176 2650 
95 1 0.00680077 0.00314268 0.0138762 0.000291 -0.000366951 -0.00495937 0.00220646 2650 
298 1 0.00950282 0.00648766 0.0133938 0.000105 0.012752 -0.00608362 0.00360111 2650 
57 1 0.00563588 0.0216017 0.0126111 0.00164 0.0230994 0.0154402 0.0436737 2650 
265 1 0.00258193 0.00696557 0.0147354 0.001058 0.011667 0.00657701 -0.00499144 2650 
136 1 0.00198134 0.0798525 3.71725e-05 0.000105 0.0375902 0.10168 0.0199891 2650 
