ITEM: TIMESTEP
11853890
ITEM: NUMBER OF ATOMS
285
ITEM: BOX BOUNDS ff ff ff
-0.15 0.15
-0.15 0.15
-0.15 0.15
ITEM: ATOMS id type x y z radius vx vy vz density 
64 1 -0.000991836 -0.0196582 -0.0688688 0.000105 -7.83692 0.341608 0.0601925 2650 
59 1 -0.0135459 -0.0416254 -0.066595 0.001058 -9.28172 -0.294632 1.8866 2650 
189 1 -0.0107692 -0.0430003 -0.0678681 0.000291 -10.2905 1.39612 1.63208 2650 
107 1 -0.0100308 -0.0346987 -0.0672007 0.001058 -10.2769 0.100702 1.53653 2650 
261 1 -0.0154667 -0.0154669 -0.0669607 0.000291 -3.65994 -0.122306 1.08411 2650 
30 1 -0.0266886 -0.0263134 -0.0633094 0.000291 -8.61887 0.130905 3.64237 2650 
254 1 -0.0311802 -0.0582822 -0.0612203 0.000291 -8.69194 0.461829 4.42078 2650 
251 1 -0.0304433 -0.0267937 -0.0607414 0.001058 -7.7787 -0.162423 3.91743 2650 
122 1 -0.0288655 -0.0237586 -0.0615151 0.001058 -7.8592 -0.027641 3.75039 2650 
171 1 -0.0348189 -0.0449358 -0.0583649 0.001058 -8.32787 0.203259 4.97067 2650 
226 1 -0.0389651 -0.0249995 -0.0565914 0.000291 -7.01329 0.0431468 4.82997 2650 
149 1 -0.0425229 -0.0311036 -0.0539728 0.000291 -7.64689 0.53996 6.01318 2650 
34 1 -0.0425851 -0.0290664 -0.0529445 0.001058 -7.35157 0.0572 5.95398 2650 
269 1 -0.0505546 -0.0137559 -0.0465274 0.000291 -2.28477 -0.337583 2.47071 2650 
169 1 -0.0520465 -0.0611561 -0.0427821 0.00164 -6.49436 0.0146228 7.89779 2650 
25 1 -0.0540324 -0.060518 -0.0402432 0.00164 -6.1065 0.0161909 8.20391 2650 
246 1 -0.0616134 -0.0573657 -0.0286383 0.001058 -4.27504 0.00943765 9.19912 2650 
103 1 -0.0634299 -0.0566602 -0.0264091 0.000291 -3.99343 0.451432 9.59034 2650 
126 1 -0.0451475 -0.00466589 -0.0218764 0.000291 -7.04874 -0.130454 -3.41784 2650 
137 1 -0.065331 -0.0611601 -0.0164606 0.00164 -2.58557 1.2862e-06 10.2619 2650 
178 1 -0.0657859 -0.0576229 -0.0169922 0.001058 -2.59424 -0.179193 10.0429 2650 
135 1 -0.00820035 -0.000839385 -0.0116958 0.000291 -0.0060505 -0.00140209 -0.0140303 2650 
175 1 -0.013247 -0.00194265 -0.008751 0.000291 0 -0.011755 0 2650 
47 1 -0.0130925 -0.00146971 -0.00926567 0.000291 -0.00125586 -0.0105028 0.00427205 2650 
276 1 -0.013674 -0.00039865 -0.004231 0.000291 0 -0.011755 0 2650 
240 1 -0.010392 -0.00134065 -0.005262 0.000291 0 -0.011755 0 2650 
13 1 -0.014201 -0.00129865 -0.003882 0.000291 0 -0.011755 0 2650 
104 1 -0.014089 -0.00061665 -0.003012 0.000105 0 -0.011755 0 2650 
152 1 -0.0688789 -0.0249028 -0.00107504 0.000105 -0.0805677 0.309151 8.03449 2650 
274 1 -0.0681209 -0.00735564 -0.000371107 0.000291 -3.03573 -0.301657 2.90691 2650 
257 1 -0.0679292 -0.0493172 0.00153824 0.001058 0.2159 0.207015 9.83445 2650 
120 1 -0.016055 -0.00204665 0.000189 0.000105 0 -0.011755 0 2650 
182 1 -0.0685741 -0.0212758 0.00427006 0.000291 0.442981 -0.112125 7.07575 2650 
164 1 -0.003894 -0.00167365 0.005467 0.001058 0 -0.011755 0 2650 
39 1 -0.0682861 -0.0439742 0.00764465 0.000291 1.17695 -0.494222 10.5148 2650 
118 1 -0.0682123 -0.0187164 0.00828616 0.000291 0.982371 0.137825 7.84349 2650 
58 1 -0.00744672 -0.00188628 0.00648123 0.001058 0.00939797 -0.00814862 -0.00719036 2650 
290 1 -0.067959 -0.0438156 0.0101813 0.000291 1.67569 0.00968907 11.1878 2650 
300 1 -0.0126491 -5.3341e-05 0.00956175 0.001058 -0.00246489 -0.00748443 -0.0047401 2650 
285 1 -0.0116054 -0.00303739 0.0104194 0.001058 -0.00447436 -0.0137973 -0.00560016 2650 
83 1 -0.066375 -0.0394305 0.0145679 0.001058 2.33676 -0.107235 10.6452 2650 
210 1 -0.0665256 -0.0304977 0.0138426 0.001058 1.65218 0.28078 7.84385 2650 
264 1 -0.0663471 -0.0482422 0.0147447 0.001058 2.30374 0.00690579 10.3663 2650 
215 1 -0.0654267 -0.0478849 0.0184172 0.001058 2.90233 -0.094611 10.3108 2650 
168 1 -0.0654738 -0.00544052 0.0214407 0.000105 0.973435 -0.125244 3.10459 2650 
84 1 -0.060647 -0.0480391 0.030692 0.001058 4.53955 0.338071 8.97478 2650 
109 1 -0.0600322 -0.0595932 0.0334145 0.000291 5.0367 0.105648 9.04281 2650 
46 1 -0.055642 -0.0182221 0.0403115 0.000291 4.76602 -0.641965 6.57673 2650 
150 1 -0.0517286 -0.0278519 0.0452037 0.000291 5.60517 -0.244287 6.41333 2650 
89 1 -0.0370666 -0.059147 0.0562542 0.00164 8.7723 -0.090915 5.77826 2650 
73 1 -0.0382101 -0.0539739 0.0554929 0.00164 8.74128 -0.10508 6.01975 2650 
125 1 -0.0400318 -0.0241233 0.0558447 0.000291 6.75503 -0.0871133 4.84928 2650 
281 1 -0.0381486 -0.0576184 0.0571377 0.000291 9.0167 -0.148325 6.02028 2650 
102 1 -0.0382158 -0.00381278 0.0570988 0.000291 6.9932 -0.537601 4.69446 2650 
230 1 -0.0320382 -0.0485348 0.0599438 0.001058 9.42702 -0.0241948 5.03927 2650 
121 1 -0.030148 -0.0463903 0.0602742 0.00164 9.43429 0.162248 4.71849 2650 
288 1 -0.033237 -0.0452903 0.0601605 0.000291 9.17809 -0.0279092 5.07372 2650 
191 1 -0.0319293 -0.0561878 0.0608401 0.000291 9.61348 0.703859 5.04841 2650 
239 1 -0.0303882 -0.0515066 0.0607899 0.001058 9.51951 0.0417218 4.75889 2650 
243 1 -0.028482 -0.0515591 0.0617079 0.001058 9.66661 0.0868837 4.46226 2650 
183 1 -0.0247187 -0.0615674 0.0641079 0.000291 8.33828 -0.29395 3.20851 2650 
162 1 -0.0239677 -0.0293268 0.0635741 0.001058 7.93553 0.00659429 2.99109 2650 
131 1 -0.0197227 -0.0504966 0.0650403 0.001058 10.4922 0.267157 3.17967 2650 
272 1 -0.0133546 -0.0337918 0.0666177 0.001058 9.91551 0.00493586 1.9664 2650 
82 1 -0.00754445 -0.0291039 0.067525 0.001058 8.5854 0.0285199 0.954409 2650 
132 1 -0.00937182 -0.0163738 0.0673053 0.001058 7.42342 0.0702679 1.03332 2650 
18 1 -0.00531313 -0.0151555 0.0677395 0.001058 7.49592 0.0595715 0.615157 2650 
205 1 -0.00503817 0.000713115 -0.0154818 0.000291 -0.0212393 0.00831856 -0.0510728 2650 
130 1 -0.00231028 0.000758536 -0.0142364 0.001058 -0.00730232 0.00347522 0.00594057 2650 
33 1 -0.00117438 0.0169337 -0.0141052 0.00164 0.00603998 0.0215627 0.00352792 2650 
293 1 -0.0028402 0.0307504 -0.0155179 0.001058 -0.108059 0.0449987 0.0189066 2650 
157 1 -0.00512432 0.0431234 -0.0141743 0.000291 0.0079085 0.0606548 0.000918149 2650 
67 1 -0.00539576 0.0118775 -0.0139667 0.001058 -0.020884 0.0142907 -0.00966941 2650 
75 1 -0.00366952 0.0467693 -0.013697 0.001058 0.0206685 0.0556886 -0.0248334 2650 
94 1 -0.0115466 0.00250097 -0.0118456 0.000291 8.5498e-05 -0.0117385 8.5498e-05 2650 
38 1 -0.0043737 0.0131528 -0.0108591 0.000291 0.0290333 0.00993382 0.0254358 2650 
74 1 -0.011437 0.0031014 -0.00855963 0.001058 0.00156258 -0.00569596 -0.00749774 2650 
263 1 -0.0125575 0.0139493 -0.00902504 0.000291 -0.160022 0.120897 -0.118576 2650 
234 1 -0.0124203 0.00846414 -0.00799724 0.000291 -0.00131366 0.00431637 0.0126772 2650 
147 1 -0.0145451 0.0287266 -0.00636345 0.001058 -0.027631 0.0311508 0.0525722 2650 
159 1 -0.012707 0.00259535 -0.00588 0.000291 0 -0.011755 0 2650 
10 1 -0.0145587 0.00622964 -0.00461439 0.001058 0.00366734 -0.00257496 -0.00408264 2650 
80 1 -0.0155037 0.00524214 -0.0031243 0.000105 -0.00457687 0.0251897 -0.0282816 2650 
114 1 -0.0111847 0.00478995 -0.00315527 0.001058 0.00263798 -7.05089e-05 -0.000306371 2650 
7 1 -0.00530641 0.0235587 -0.0031866 0.000291 0.00378858 0.0136367 -0.000251809 2650 
61 1 -0.016439 0.00231335 -0.001038 0.000291 0 -0.011755 0 2650 
97 1 -0.0137 0.0027143 -0.00153784 0.00164 0.0130558 0.0156425 -0.0241137 2650 
129 1 -0.00372162 0.00770778 -0.000820239 0.00164 0.00825627 0.00147102 -0.0030875 2650 
115 1 -0.015682 0.0116136 -0.000432936 0.001058 -9.57324e-05 0.0046985 0.0169075 2650 
187 1 -0.0156971 0.0181977 -0.000818123 0.001058 -0.000280938 0.0161775 0.0137442 2650 
65 1 -0.0122339 0.0210166 -0.00133524 0.00164 -0.00447342 0.0138222 0.00034274 2650 
237 1 -0.0155142 0.0583117 -0.00137325 0.001058 -0.00654936 0.22686 0.0745762 2650 
268 1 -0.011054 0.00117535 0.000789 0.000291 0 -0.011755 0 2650 
211 1 -0.0128446 0.00502461 0.00192577 0.001058 0.000982608 0.00314487 0.00709992 2650 
209 1 -0.0150475 0.00810173 0.00171985 0.001058 -0.00415633 0.00564878 0.00501433 2650 
220 1 -0.0147611 0.0209139 0.0015659 0.000291 -0.00743392 0.0110018 0.0132466 2650 
71 1 -0.00111858 0.00467898 0.00212273 0.000291 0.000861808 -0.00718564 -0.0173142 2650 
266 1 -0.0154991 0.00956298 0.00329569 0.001058 -0.00293207 0.00740435 -0.00807451 2650 
256 1 -0.0163384 0.0104243 0.0022353 0.000291 0.0050917 -1.5445e-05 0.0250808 2650 
291 1 -0.008194 0.00270035 0.004767 0.000291 0 -0.011755 0 2650 
144 1 -0.00872219 0.015521 0.00513383 0.000105 0.00807853 0.0136784 0.0281765 2650 
41 1 -0.00255829 0.0158708 0.00518791 0.00164 0.0102042 0.00860529 0.0210319 2650 
106 1 -0.00653061 0.0193028 0.00413037 0.001058 0.0119634 0.0223893 -0.0027555 2650 
186 1 -0.00619681 0.000738428 0.00657413 0.001058 -4.15282e-05 -0.0115536 6.1062e-05 2650 
242 1 -0.00555279 0.0213934 0.00736048 0.000291 0.0116924 0.0265357 0.00697501 2650 
124 1 -0.013648 0.0273669 0.00670317 0.001058 0.00450723 0.0342902 0.00378394 2650 
28 1 -0.0135796 0.0333681 0.00726489 0.001058 0.00734507 0.0503926 0.00344867 2650 
304 1 -0.012709 0.00198135 0.009818 0.000291 0 -0.011755 0 2650 
68 1 -0.00249123 0.0082749 0.00947186 0.001058 0.00272783 -0.00342387 -0.00169301 2650 
217 1 -0.00962979 0.0320099 0.00875614 0.001058 0.000747792 0.0265619 -0.00553463 2650 
250 1 -0.0102252 0.00132795 0.0114223 0.001058 0.00273404 -0.00245883 0.0388004 2650 
170 1 -0.00725261 0.00154104 0.0119632 0.001058 0.00813908 -0.00598064 0.0087017 2650 
55 1 -0.01171 0.00244935 0.01034 0.000291 0 -0.011755 0 2650 
4 1 -0.0110464 0.00817285 0.0112648 0.001058 0.00569435 0.00097307 0.00498712 2650 
299 1 -0.0092073 0.00338588 0.0120501 0.001058 0.00581403 -0.00322581 0.00124072 2650 
224 1 -0.00804969 0.0135093 0.0132042 0.001058 -0.00111942 0.00491513 -0.00282362 2650 
273 1 -0.00308475 0.0322803 0.0126441 0.001058 -0.00419695 0.043991 0.0228631 2650 
17 1 -0.00182727 0.0306855 0.0147107 0.00164 0.0439191 0.0431129 0.0177646 2650 
154 1 -0.00426654 0.0829952 -0.00957103 0.001058 -0.025218 0.0914679 0.0181079 2650 
302 1 0.00631262 -0.0142042 -0.0684198 0.000291 -7.82582 0.132715 -0.723872 2650 
108 1 0.00434217 -0.0374703 -0.0678069 0.001058 -8.72155 0.163859 -0.540455 2650 
241 1 0.0137669 -0.0369299 -0.0673154 0.000291 -7.23586 0.721 -1.49728 2650 
259 1 0.00557553 -0.0307945 -0.06772 0.001058 -9.85109 -0.0623672 -0.785276 2650 
235 1 0.0146795 -0.00911806 -0.0671309 0.000291 -7.79288 -0.186614 -1.70915 2650 
16 1 0.0175863 -0.00885249 -0.0666227 0.000105 -7.9046 0.112101 -2.10071 2650 
96 1 0.0158732 -0.00536948 -0.0670399 0.000105 -8.17351 0.00405224 -1.93298 2650 
21 1 0.0194292 -0.0476887 -0.0659282 0.000291 -9.51828 0.371194 -2.81072 2650 
151 1 0.021054 -0.0310352 -0.0654215 0.000291 -10.6515 2.02358 -3.53512 2650 
6 1 0.0233122 -0.0178402 -0.0646568 0.000291 -8.11975 -0.105242 -2.94331 2650 
206 1 0.0285243 -0.0186664 -0.0625305 0.000291 -7.62977 -0.445981 -3.46361 2650 
228 1 0.0291636 -0.0126588 -0.0622371 0.000291 -6.19542 0.313252 -2.8956 2650 
197 1 0.0285155 -0.00444797 -0.0625095 0.000291 -7.69121 -0.0475578 -3.49864 2650 
43 1 0.0278873 -0.0413217 -0.061979 0.001058 -9.54196 -0.0585815 -4.29414 2650 
90 1 0.0314277 -0.0519864 -0.0602577 0.001058 -9.42977 -0.0561581 -4.91851 2650 
208 1 0.0372947 -0.0138553 -0.0567992 0.001058 -6.2663 0.0717895 -4.14524 2650 
223 1 0.0383161 -0.0156685 -0.0561288 0.001058 -6.2016 0.04446 -4.20996 2650 
86 1 0.0396185 -0.0139696 -0.0561318 0.000291 -5.94126 -0.274232 -4.13034 2650 
207 1 0.0419531 -0.0103415 -0.0543798 0.000291 -5.07462 0.435506 -3.90186 2650 
225 1 0.041659 -0.0440615 -0.0536531 0.001058 -8.57524 0.30848 -6.66486 2650 
140 1 0.0430072 -0.0350999 -0.0526002 0.001058 -7.80734 -0.100991 -6.38084 2650 
192 1 0.0436248 -0.000105325 -0.0533216 0.000105 -6.5456 0.00323308 -5.34301 2650 
270 1 0.0467127 -0.0133757 -0.050328 0.000291 -5.93663 -0.28922 -5.52578 2650 
295 1 0.0511153 -0.0284079 -0.0459121 0.000291 -5.43847 0.979435 -6.04939 2650 
98 1 0.0511241 -0.015365 -0.0447513 0.001058 -5.34862 0.138827 -6.05825 2650 
213 1 0.0548226 -0.0193418 -0.0414268 0.000291 -4.73688 0.255506 -6.28876 2650 
174 1 0.0572382 -0.0198616 -0.0380272 0.000291 -4.55771 -0.139459 -6.83382 2650 
247 1 0.0585257 -0.0507791 -0.0360241 0.000291 -5.83229 -0.0143792 -9.47718 2650 
146 1 0.058451 -0.0504756 -0.0346754 0.001058 -5.59086 -0.0674043 -9.42384 2650 
158 1 0.0594486 -0.00428414 -0.0344431 0.000291 -3.63071 -0.287179 -6.28499 2650 
50 1 0.059534 -0.0309384 -0.0327835 0.001058 -4.80791 -0.121337 -8.7147 2650 
179 1 0.0605869 -0.0490831 -0.0308083 0.001058 -5.00144 -0.0431275 -9.85829 2650 
184 1 0.0618515 -0.00831037 -0.030368 0.000105 -4.72545 1.56527 -9.62912 2650 
214 1 0.061815 -0.0482802 -0.0300503 0.000291 -4.86496 0.366907 -9.98553 2650 
40 1 0.0639457 -0.00291772 0.0256227 0.000105 2.79392 -0.182266 -7.01877 2650 
255 1 0.0622622 -0.0194288 -0.0290994 0.000291 -4.18668 0.0269972 -8.96807 2650 
2 1 0.0620196 -0.0316596 0.0277571 0.001058 4.01459 0.038011 -8.95179 2650 
8 1 0.0630143 -0.0456888 -0.0279092 0.000105 -4.45684 0.248529 -10.061 2650 
172 1 0.0623667 -0.0451353 -0.0270325 0.001058 -4.37896 -0.0052009 -10.1027 2650 
219 1 0.0628143 -0.000290963 -0.0278416 0.000291 -3.24103 -5.13035e-05 -7.35473 2650 
93 1 0.0641463 -0.0484905 -0.0246842 0.000291 -3.96595 -0.0297272 -10.302 2650 
49 1 0.0623989 -0.0473342 -0.0254698 0.00164 -4.06822 0.0823413 -9.98571 2650 
44 1 0.0627255 -0.0158334 -0.0261789 0.001058 -3.75385 -0.000206537 -9.00201 2650 
138 1 0.0638583 -0.0485913 -0.0232764 0.001058 -3.71875 0.00571711 -10.1968 2650 
85 1 0.0656955 -0.00230092 -0.0201084 0.000291 -1.90928 -0.303438 -6.26192 2650 
88 1 0.0668911 -0.0160055 -0.0165776 0.000105 -1.77016 0.74219 -7.16739 2650 
200 1 0.067153 -0.0234648 -0.0154109 0.000105 -1.80994 -0.271946 -7.9326 2650 
167 1 0.0674603 -0.01503 -0.0131171 0.000291 -1.82414 -0.57446 -9.38848 2650 
289 1 0.0015519 -0.00334019 -0.0132171 0.000291 0.0804278 -0.025083 -0.684981 2650 
142 1 0.002378 -0.00291065 -0.013184 0.000291 0 -0.011755 0 2650 
275 1 0.012705 -0.00025365 -0.010476 0.000291 0 -0.011755 0 2650 
181 1 0.0680821 -0.0465122 -0.00928444 0.000291 -1.48018 -0.690205 -10.8377 2650 
236 1 0.0673971 -0.0511073 -0.00862039 0.001058 -1.33009 0.121673 -10.4124 2650 
60 1 0.007579 -0.00168465 -0.006312 0.001058 0 -0.011755 0 2650 
45 1 0.010575 -0.00176465 -0.007722 0.000291 0 -0.011755 0 2650 
253 1 0.014729 -0.00291565 -0.002617 0.000291 0 -0.011755 0 2650 
227 1 0.00944 -0.00108665 -0.002109 0.000291 0 -0.011755 0 2650 
221 1 0.0686922 -0.026055 -0.00145082 0.000291 -0.176095 -0.0960098 -8.64681 2650 
177 1 0.000522204 -0.00260025 -0.000629919 0.00164 -0.00966503 -0.00602483 0.00423439 2650 
35 1 0.0031062 -0.00261845 0.00155706 0.001058 0.00654177 -0.0105187 -0.00962265 2650 
202 1 0.00521014 -0.000422517 0.00157825 0.001058 0.00930573 -0.00892744 -0.0136195 2650 
48 1 0.009671 -0.00049265 0.000233 0.000105 0 -0.011755 0 2650 
287 1 0.0124924 -0.00214602 0.00257517 0.001058 0.00844674 -0.013594 -0.029996 2650 
53 1 0.0686678 -0.00315305 0.0019827 0.000291 0.0791126 -0.236695 -3.28475 2650 
99 1 0.00283877 -0.00068049 0.00364891 0.001058 0.0243572 -0.0114204 0.00238608 2650 
294 1 0.006997 -0.00077865 0.003581 0.001058 0 -0.011755 0 2650 
212 1 0.001087 -0.00026865 0.005915 0.000291 0 -0.011755 0 2650 
24 1 0.005464 -0.00069665 0.005551 0.000105 0 -0.011755 0 2650 
100 1 0.0105046 -0.00239213 0.00741175 0.001058 0.00912399 -0.0117578 -0.00681185 2650 
231 1 0.00726376 -0.00161574 0.00707972 0.001058 0.00167534 -0.0128877 -0.000760445 2650 
117 1 0.0680668 -0.0070746 0.00930315 0.000291 0.691023 -0.267973 -5.51108 2650 
23 1 0.0679625 -0.0438969 0.0101538 0.000291 1.64172 -0.177775 -11.0082 2650 
3 1 0.00858578 -0.00246117 0.0127247 0.001058 -0.00211489 -0.0052299 0.000123346 2650 
303 1 0.0664018 -0.00859218 0.0176816 0.000291 1.0694 0.676046 -4.09186 2650 
42 1 0.0648488 -0.0501193 0.0203469 0.001058 3.07499 -0.0963545 -9.79939 2650 
188 1 0.0624692 -0.061663 0.0267256 0.001058 4.19785 -0.00130428 -9.8122 2650 
229 1 0.0605122 -0.0507474 0.030948 0.001058 4.9352 -0.0239716 -9.64767 2650 
20 1 0.0603917 -0.0454982 0.0311839 0.001058 4.92755 -0.0258324 -9.54318 2650 
22 1 0.061374 -0.0223685 0.030904 0.000291 3.45726 -0.947608 -6.84513 2650 
277 1 0.0617626 -0.0199325 0.0301441 0.000291 4.11284 -0.248274 -8.44718 2650 
148 1 0.0597067 -0.0483618 0.0324783 0.001058 4.93933 0.0323011 -9.07428 2650 
173 1 0.0591631 -0.00285954 0.0349326 0.000291 3.51756 -0.21002 -6.00558 2650 
193 1 0.0561971 -0.0492555 0.0371883 0.00164 5.79861 -0.0902895 -8.77088 2650 
185 1 0.0571384 -0.0452754 0.0357333 0.00164 5.69031 -0.0128098 -9.09856 2650 
119 1 0.0556258 -0.0544953 0.0403387 0.000291 6.15837 0.566 -8.4924 2650 
218 1 0.0526931 -0.0390753 0.0428985 0.001058 6.88712 0.0157841 -8.45531 2650 
296 1 0.0534144 -0.00445168 0.0432169 0.000291 3.13444 -0.11487 -3.83082 2650 
56 1 0.0404961 -0.0169565 0.0557277 0.000105 7.14201 -1.1481 -5.18973 2650 
133 1 0.033142 -0.0221297 0.060195 0.000291 6.27319 0.0433433 -3.46808 2650 
15 1 0.0334968 -0.0165475 0.0600121 0.000291 7.45574 0.131343 -4.15152 2650 
29 1 0.0321051 -0.013341 0.0607704 0.000291 8.09563 0.208143 -4.28901 2650 
26 1 0.0249317 -0.0385399 0.0632141 0.001058 9.64672 -0.503864 -3.80116 2650 
196 1 0.0253345 -0.0290431 0.0630446 0.001058 9.50503 -0.0889434 -3.81945 2650 
36 1 0.0225434 -0.0377495 0.0641008 0.001058 9.88778 0.115739 -3.48066 2650 
81 1 0.0181302 -0.0349788 0.0648782 0.00164 6.68061 -0.0634127 -1.82575 2650 
201 1 0.0191742 -0.026571 0.0645817 0.00164 7.11948 -0.117092 -2.09543 2650 
76 1 0.0184085 -0.0234521 0.0654113 0.001058 7.63869 0.481699 -2.14356 2650 
282 1 0.0227602 -0.0236199 0.0648344 0.000291 8.64521 0.0481504 -3.02395 2650 
165 1 0.0109718 -0.0533559 0.0678325 0.000291 9.05709 -0.382824 -1.45818 2650 
141 1 0.0110164 -0.0410354 0.0678269 0.000291 10.1723 -0.332739 -1.65315 2650 
204 1 0.0113242 -0.0264097 0.0669975 0.001058 9.54818 0.00918974 -1.60366 2650 
280 1 0.0158964 -0.024394 0.0660625 0.001058 7.63822 0.121313 -1.87392 2650 
248 1 0.0121818 -0.00521785 0.0676196 0.000291 6.22942 -0.651629 -1.11355 2650 
14 1 0.00712544 -0.0414892 0.0683407 0.000291 9.06188 -0.655943 -0.94157 2650 
305 1 0.00274799 -0.0347115 0.068838 0.000105 8.91596 -0.899799 -0.347228 2650 
233 1 0.00450417 -0.0340785 0.0685606 0.000291 9.48577 0.890706 -0.621945 2650 
267 1 0.00229445 -0.00669067 0.0686686 0.000291 5.14237 -0.173475 -0.152872 2650 
37 1 0.006156 0.00201335 -0.015157 0.000291 0 -0.011755 0 2650 
127 1 0.00551511 0.0523626 -0.0145295 0.000291 0.0331404 0.0647284 -0.0037516 2650 
252 1 0.00245 0.00038435 -0.01336 0.001058 0 -0.011755 0 2650 
78 1 0.001258 0.00199935 -0.012517 0.000291 0 -0.011755 0 2650 
244 1 0.00825973 0.00345863 -0.0134462 0.001058 -0.0897085 0.026224 -0.0483697 2650 
134 1 0.00400546 0.00495776 -0.0105532 0.000291 -0.0128132 0.00355392 -0.00692922 2650 
232 1 0.0117429 0.016954 -0.00848729 0.001058 -0.0167248 0.0324446 -0.0332171 2650 
87 1 0.00632243 0.00440482 -0.00793916 0.000291 -0.00318762 -0.017547 -0.0237996 2650 
260 1 0.00894318 0.00409949 -0.00787431 0.000291 -0.00392275 0.00411325 -0.00447499 2650 
19 1 0.0142612 0.00821231 -0.00654583 0.001058 -0.00189711 0.0050805 -0.00113271 2650 
284 1 0.0141858 0.00983788 -0.00728042 0.000291 -0.00371053 0.00586111 -0.00129449 2650 
301 1 0.00649369 0.0306751 -0.00636447 0.001058 0.00272587 0.0220862 -0.0290146 2650 
278 1 7.4e-05 0.00082635 -0.004448 0.001058 0 -0.011755 0 2650 
203 1 0.00538659 0.00702456 -0.00488757 0.001058 0.0222717 0.0321229 0.00594202 2650 
279 1 0.00743736 0.0066737 -0.00446268 0.001058 -0.00483641 0.00012964 0.00531894 2650 
77 1 0.00442218 0.0110282 -0.00516847 0.000291 0.0279429 0.00178097 -0.016803 2650 
286 1 0.0152712 0.0108374 -0.0042655 0.001058 -0.00457067 0.0508687 -0.0262864 2650 
113 1 0.0130137 0.00167646 -0.00207284 0.00164 -0.0251958 0.00978061 -0.000134024 2650 
161 1 0.0137076 0.00486307 -0.00349017 0.00164 0.000907452 0.00399164 0.00334652 2650 
199 1 0.0158453 0.00454797 -0.0022811 0.000291 -0.00149126 0.000541054 0.0056379 2650 
92 1 0.0109498 0.00623879 -0.00310473 0.001058 0.00298746 0.00292354 0.00546929 2650 
123 1 0.0132235 0.0161696 -0.00227048 0.001058 0.0354386 0.020018 -0.000637314 2650 
180 1 0.0152972 0.0455839 -0.00303821 0.001058 0.0127121 0.0643237 0.0551868 2650 
190 1 0.005899 0.00161535 -0.000534 0.000291 0 -0.011755 0 2650 
153 1 0.00392434 0.0063966 -0.00101861 0.00164 0.00905173 -0.00370467 -0.0193596 2650 
194 1 0.0156712 0.0136335 -0.00134164 0.001058 0.0126865 0.0603505 -0.0128114 2650 
245 1 0.00194827 0.066175 -2.36617e-05 0.001058 0.013355 0.0538623 -0.0223836 2650 
128 1 0.00361 0.00121435 0.000511 0.000105 0 -0.011755 0 2650 
176 1 0.00426503 0.00037349 0.000639127 0.000105 0.0253113 -0.0084311 -0.00587015 2650 
101 1 0.0061984 0.00124365 0.00129526 0.000291 0.0107852 -0.0015929 -0.0095042 2650 
271 1 0.0111143 0.00101775 0.000349772 0.001058 0.0150184 -0.010407 0.010297 2650 
1 1 0.0138566 0.00378019 0.00161184 0.00164 0.00550181 0.00569205 -0.0118839 2650 
9 1 0.01376 0.0104158 0.000889783 0.00164 0.00232671 0.0541947 0.0097899 2650 
105 1 0.0083805 0.0120256 0.000921822 0.00164 0.00091231 0.0106728 0.0284417 2650 
139 1 0.0129159 0.02063 0.00174867 0.001058 0.0127696 0.00849352 0.0230521 2650 
258 1 0.0147286 0.0139907 0.00298105 0.001058 0.00615004 0.0226911 -0.0182162 2650 
52 1 0.00109518 0.0296942 0.00240426 0.001058 0.0258261 0.0380708 0.00407144 2650 
51 1 0.009662 0.00037635 0.004577 0.001058 0 -0.011755 0 2650 
79 1 0.014214 0.00221635 0.005058 0.000291 0 -0.011755 0 2650 
249 1 0.000356298 0.0247633 0.00435665 0.000291 0.00987628 0.0185258 -0.0129358 2650 
292 1 0.0102155 0.0300032 0.00476236 0.001058 -0.0104367 0.0376087 -0.0291473 2650 
145 1 0.00500643 0.000225468 0.00737187 0.00164 0.00142123 -0.0121074 -0.00172265 2650 
222 1 0.009219 0.00157535 0.006833 0.001058 0 -0.011755 0 2650 
195 1 0.0143608 0.000481767 0.00627102 0.001058 0.0165512 -0.0021662 -0.02702 2650 
112 1 0.013668 0.00253935 0.007002 0.000105 0 -0.011755 0 2650 
156 1 0.00744162 0.0117833 0.00792155 0.001058 0.00957299 -0.000303602 -0.00985815 2650 
70 1 0.0018856 0.0192444 0.00651057 0.000291 0.0174831 0.0757361 0.0937803 2650 
116 1 0.00987401 0.0329544 0.00653393 0.001058 -0.0278213 0.0454338 0.0115295 2650 
57 1 0.00616038 0.0235645 0.00829539 0.00164 -0.000919831 0.00616449 -0.024056 2650 
54 1 0.0125507 0.0323245 0.00938946 0.000291 0.0526685 0.00955407 -0.0227648 2650 
110 1 0.000308967 0.00132189 0.0116493 0.000291 -0.0169259 -0.0135844 0.0488079 2650 
298 1 0.0108637 0.00522889 0.0116768 0.000105 0.00377194 -0.00442838 -0.00799766 2650 
238 1 0.00277842 0.0313632 0.011516 0.001058 0.0207771 0.0325148 -0.00733364 2650 
265 1 0.00573198 0.00874134 0.0133877 0.001058 0.011667 0.00657701 -0.00499144 2650 
66 1 0.00885439 0.00840669 0.0122732 0.001058 0.00846641 -0.000759158 0.00162513 2650 
198 1 0.0110533 0.0129872 0.0123451 0.000291 -0.0640429 0.0024595 0.0558418 2650 
95 1 0.00670169 0.00180367 0.014472 0.000291 -0.000366951 -0.00495937 0.00220646 2650 
155 1 0.010533 0.0999492 -0.010798 0.001058 0.04057 0.188533 0.00265111 2650 
136 1 0.0121306 0.107306 0.00543416 0.000105 0.0375902 0.10168 0.0199891 2650 
