ITEM: TIMESTEP
7408682
ITEM: NUMBER OF ATOMS
299
ITEM: BOX BOUNDS ff ff ff
-0.15 0.15
-0.15 0.15
-0.15 0.15
ITEM: ATOMS id type x y z radius vx vy vz density 
183 1 -0.00045941 -0.0211118 -0.0687072 0.000291 -3.62198 -0.342566 -0.0722209 2650 
165 1 -0.0184472 -0.0222338 -0.0661902 0.000291 -7.49587 0.142976 2.10084 2650 
23 1 -0.0124062 -0.0177604 -0.06758 0.000291 -8.92239 0.340471 1.66065 2650 
297 1 -0.0225954 -0.0260983 -0.0648831 0.000291 -7.66607 0.145518 2.66186 2650 
152 1 -0.0300174 -0.0316298 -0.0620106 0.000105 -4.91619 0.689933 2.34212 2650 
36 1 -0.0273005 -0.0328081 -0.0622157 0.001058 -8.5062 0.018473 3.73699 2650 
167 1 -0.0274149 -0.0216629 -0.0630139 0.000291 -7.24847 -0.0164047 3.14548 2650 
218 1 -0.0310921 -0.0300881 -0.0604158 0.001058 -8.33295 -0.0745588 4.30267 2650 
272 1 -0.0286761 -0.0256383 -0.0615971 0.001058 -6.54175 0.0866042 3.06209 2650 
148 1 -0.0453481 -0.0404791 -0.050529 0.001058 -7.1632 0.0363603 6.42602 2650 
39 1 -0.045163 -0.0132204 -0.0517795 0.000291 -6.06126 -0.157038 5.27626 2650 
141 1 -0.0475258 -0.0115289 -0.0496198 0.000291 -5.36091 -0.714943 5.13579 2650 
219 1 -0.04749 -0.000291033 -0.0496552 0.000291 -5.24089 0.00102593 4.98642 2650 
236 1 -0.0512722 -0.0484414 -0.0445849 0.001058 -6.334 -0.0753391 7.28866 2650 
108 1 -0.0509184 -0.0117533 -0.044985 0.001058 -2.28818 -0.464722 2.47862 2650 
192 1 -0.0555356 -0.000105227 -0.0407703 0.000105 -4.43188 -0.00799024 6.05993 2650 
295 1 -0.0604632 -0.0187641 -0.0326761 0.000291 -1.52098 -0.531255 2.87026 2650 
206 1 -0.0667093 -0.00895364 -0.0164777 0.000291 -1.93064 0.386476 7.78346 2650 
22 1 -0.0670021 -0.0195923 -0.0151773 0.000291 -1.86591 -0.200529 8.23156 2650 
85 1 -0.003548 -0.000200906 -0.015444 0.000291 0 -0.011755 0 2650 
146 1 -0.0672248 -0.0489608 -0.00990448 0.001058 -1.42304 0.0455972 9.43149 2650 
171 1 -0.0673976 -0.0383108 -0.00862559 0.001058 -0.517559 -0.626137 4.15481 2650 
179 1 -0.0675543 -0.0491957 -0.00711438 0.001058 -0.991034 0.0808818 9.54268 2650 
62 1 -0.0682748 -0.0339793 -0.00769258 0.000291 -0.858388 0.330254 7.24454 2650 
166 1 -0.0684339 -0.00621133 -0.00599654 0.000291 -0.578711 -0.0961144 7.14805 2650 
135 1 -0.00602219 -0.000334639 -0.00664502 0.000291 -0.0060505 -0.00140209 -0.0140303 2650 
76 1 -0.00115435 -0.00224739 -0.00545745 0.001058 0.00563223 -0.0106236 0.000699054 2650 
14 1 -0.006378 -0.00235991 0.001478 0.000291 0 -0.011755 0 2650 
191 1 -0.0108 -0.00102791 0.001549 0.000291 0 -0.011755 0 2650 
168 1 -0.007536 -1.69063e-05 0.001389 0.000105 0 -0.011755 0 2650 
296 1 -0.005879 -0.00188191 0.000521 0.000291 0 -0.011755 0 2650 
40 1 -0.0688426 -0.0189124 0.00262473 0.000105 0.207228 0.0562901 4.60203 2650 
97 1 -0.0137175 -0.000273496 0.00340607 0.00164 0.00016333 0.00117645 -0.00616736 2650 
18 1 -0.005138 -0.000822906 0.00212 0.001058 0 -0.011755 0 2650 
98 1 -0.00198666 -0.0008431 0.00294386 0.001058 -0.000872989 -0.0147225 -0.00989819 2650 
138 1 -0.0677214 -0.0431941 0.00554311 0.001058 0.74986 -0.0633998 9.15515 2650 
233 1 -0.001796 -0.00244291 0.010436 0.000291 0 -0.011755 0 2650 
226 1 -0.009224 -0.00147091 0.012787 0.000291 0 -0.011755 0 2650 
90 1 -0.0658256 -0.059257 0.0168277 0.001058 2.38258 -0.141092 9.36917 2650 
169 1 -0.0638967 -0.0554996 0.0213643 0.00164 3.21699 -0.063572 9.65241 2650 
162 1 -0.0646919 -0.0183405 0.0208416 0.001058 2.5909 -0.0553053 7.93089 2650 
64 1 -0.0641733 -0.0167531 0.0251301 0.000105 1.35787 0.185912 3.51505 2650 
56 1 -0.0633079 -0.00830169 0.0271998 0.000105 1.67756 0.133434 3.92151 2650 
197 1 -0.061187 -0.0185626 0.0313029 0.000291 3.78078 -0.267453 7.42554 2650 
254 1 -0.0600361 -0.0152205 0.0334547 0.000291 3.77262 0.142855 6.80497 2650 
189 1 -0.0594826 -0.0356182 0.0343861 0.000291 4.02654 0.955541 6.98434 2650 
204 1 -0.0581011 -0.0146928 0.0352565 0.001058 4.12768 0.0187632 6.73232 2650 
173 1 -0.0582342 -0.0168988 0.0364793 0.000291 4.06647 -1.0683 6.57109 2650 
158 1 -0.0581767 -0.0125322 0.0365666 0.000291 4.68295 0.0134677 7.46311 2650 
132 1 -0.0532015 -0.0122759 0.0422311 0.001058 5.01823 -0.117008 6.30476 2650 
182 1 -0.0480557 -0.0324736 0.0491013 0.000291 6.02799 0.562862 5.94914 2650 
8 1 -0.0462232 -0.0171701 0.0510846 0.000105 3.4651 0.17918 3.14632 2650 
32 1 -0.0463959 -0.00827971 0.0509267 0.000105 3.05187 0.0504568 2.76136 2650 
16 1 -0.0457593 -0.00376996 0.0515013 0.000105 5.68144 -0.232746 5.05786 2650 
84 1 -0.0384762 -0.0233937 0.0560098 0.001058 7.33992 -0.0786251 5.04275 2650 
15 1 -0.0398908 -0.0090847 0.0559506 0.000291 5.03012 0.140514 3.55637 2650 
235 1 -0.0400759 -0.00343873 0.0558093 0.000291 6.9361 -0.44463 4.98238 2650 
44 1 -0.0373922 -0.0205565 0.0567438 0.001058 6.00639 -0.210186 3.94622 2650 
255 1 -0.0381226 -0.017221 0.0571808 0.000291 7.43275 0.562225 4.96548 2650 
122 1 -0.0290586 -0.018396 0.061441 0.001058 5.05451 -0.0305216 2.39903 2650 
26 1 -0.0215575 -0.0306812 0.0644403 0.001058 8.23348 -0.277601 2.93504 2650 
137 1 -0.00935052 -0.0586484 0.0667146 0.00164 8.91179 -0.0886165 1.24754 2650 
43 1 -0.00883456 -0.0288992 0.0673669 0.001058 9.2636 0.0435042 1.20816 2650 
109 1 -0.0618192 -0.0472776 0.0300439 0.000291 4.47074 0.608365 9.19172 2650 
70 1 -0.002345 0.00160109 -0.015511 0.000291 0 -0.011755 0 2650 
33 1 -0.00324978 0.00900066 -0.0141397 0.00164 0.00499126 0.02337 -0.00956389 2650 
157 1 -0.00797134 0.0212879 -0.0145048 0.000291 0.0079085 0.0606548 0.000918149 2650 
127 1 -0.00641528 0.0290607 -0.0131789 0.000291 0.0331404 0.0647284 -0.0037516 2650 
203 1 -0.00258089 0.000713685 -0.0106708 0.001058 0.0218056 -0.0245903 0.045373 2650 
47 1 -0.0126303 0.00231309 -0.0107943 0.000291 -0.00617568 -0.0113964 -0.000259454 2650 
94 1 -0.0115774 0.00672679 -0.0118764 0.000291 8.5498e-05 -0.0117385 8.5498e-05 2650 
234 1 -0.0101035 0.00678875 -0.0111406 0.000291 -0.02134 0.00563614 -0.0027496 2650 
155 1 -0.00407199 0.0320783 -0.0117524 0.001058 0.04057 0.188533 0.00265111 2650 
175 1 -0.013247 0.00228909 -0.008751 0.000291 0 -0.011755 0 2650 
115 1 -0.0141648 0.00978222 -0.00655142 0.001058 -0.00655704 0.00527716 0.0172016 2650 
276 1 -0.013674 0.00383309 -0.004231 0.000291 0 -0.011755 0 2650 
240 1 -0.010392 0.00289109 -0.005262 0.000291 0 -0.011755 0 2650 
74 1 -0.0119995 0.00515192 -0.00586048 0.001058 0.00156258 -0.00569596 -0.00749774 2650 
159 1 -0.012707 0.00682709 -0.00588 0.000291 0 -0.011755 0 2650 
256 1 -0.0157814 0.0107268 -0.00513607 0.000291 -0.00333023 -0.00208616 0.0103813 2650 
144 1 -0.0116304 0.0105969 -0.00500958 0.000105 0.00807853 0.0136784 0.0281765 2650 
187 1 -0.0147092 0.0122726 -0.00574518 0.001058 -0.00403483 0.0166064 0.0136562 2650 
75 1 -0.0111101 0.0267217 -0.00475709 0.001058 0.0206685 0.0556886 -0.0248334 2650 
274 1 -0.016349 0.000698094 -0.002509 0.000291 0 -0.011755 0 2650 
13 1 -0.014201 0.00293309 -0.003882 0.000291 0 -0.011755 0 2650 
104 1 -0.014089 0.00361509 -0.003012 0.000105 0 -0.011755 0 2650 
250 1 -0.0112094 0.00221312 -0.00254563 0.001058 0.00273404 -0.00245883 0.0388004 2650 
114 1 -0.0121344 0.00481534 -0.00304498 0.001058 0.00263798 -7.05089e-05 -0.000306371 2650 
10 1 -0.0149712 0.00723959 -0.0029361 0.001058 -0.00603352 -0.00346171 -0.00631144 2650 
41 1 -0.00623174 0.012773 -0.00238348 0.00164 0.0102042 0.00860529 0.0210319 2650 
220 1 -0.013873 0.0174514 -0.0033707 0.000291 0.00605419 0.00724476 0.0145131 2650 
7 1 -0.00667028 0.0186496 -0.00309595 0.000291 0.00378858 0.0136367 -0.000251809 2650 
211 1 -0.0131983 0.00389247 -0.000630171 0.001058 0.000982608 0.00314487 0.00709992 2650 
61 1 -0.016439 0.00654509 -0.001038 0.000291 0 -0.011755 0 2650 
209 1 -0.0135512 0.00606819 -8.52799e-05 0.001058 -0.00415633 0.00564878 0.00501433 2650 
87 1 -0.00466081 0.00714916 -0.00186977 0.000291 0.0457248 -0.00314239 -0.013726 2650 
65 1 -0.0106135 0.0160379 -0.00145769 0.00164 -0.00454877 0.0138432 0.000335664 2650 
136 1 -0.00140173 0.0707014 -0.00176182 0.000105 0.0375902 0.10168 0.0199891 2650 
120 1 -0.016055 0.00218509 0.000189 0.000105 0 -0.011755 0 2650 
80 1 -0.014935 0.00488309 0.00039 0.000105 0 -0.011755 0 2650 
268 1 -0.011054 0.00540709 0.000789 0.000291 0 -0.011755 0 2650 
129 1 -0.00688032 0.00734373 0.000972184 0.00164 0.00886763 0.000928435 -0.00531986 2650 
38 1 -0.00172431 0.00672598 0.00195393 0.000291 -0.0300402 0.0227875 -0.0736261 2650 
77 1 -0.00563713 0.0103871 0.000880534 0.000291 0.0279429 0.00178097 -0.016803 2650 
17 1 -0.0102264 0.0132705 0.000317572 0.00164 -0.00279267 0.0548111 0.0673045 2650 
52 1 -0.0082021 0.0159889 0.000938559 0.001058 0.0258261 0.0380708 0.00407144 2650 
273 1 -0.00163278 0.0186897 0.00159427 0.001058 -0.00402366 0.037385 0.0311551 2650 
99 1 -0.00593056 0.00343068 0.00279013 0.001058 0.024382 -0.0114171 0.00238034 2650 
176 1 -0.003983 0.00352209 0.002552 0.000105 0 -0.011755 0 2650 
53 1 -0.000389 0.000260094 0.004762 0.000291 0 -0.011755 0 2650 
164 1 -0.003894 0.00255809 0.005467 0.001058 0 -0.011755 0 2650 
291 1 -0.008194 0.00693209 0.004767 0.000291 0 -0.011755 0 2650 
106 1 -0.0108594 0.0112233 0.00511818 0.001058 0.0124054 0.0227789 -0.00267195 2650 
242 1 -0.00870469 0.0127726 0.00504937 0.000291 -0.00954886 0.00781474 0.00295974 2650 
124 1 -0.0149493 0.0146557 0.00513931 0.001058 0.00394217 0.0391742 0.00543717 2650 
28 1 -0.0131096 0.0157668 0.00521963 0.001058 0.00667276 0.0347111 0.000214972 2650 
126 1 -0.00185925 0.0029281 0.00644355 0.000291 -0.00909177 -0.0182309 -0.0255133 2650 
186 1 -0.00618186 0.00489766 0.00655215 0.001058 -4.15282e-05 -0.0115536 6.1062e-05 2650 
266 1 -0.0144435 0.00689745 0.00620248 0.001058 -0.00293207 0.00740435 -0.00807451 2650 
58 1 -0.0108299 0.00104718 0.00906972 0.001058 0.00939797 -0.00814862 -0.00719036 2650 
170 1 -0.0101768 0.00367514 0.00879044 0.001058 0.00672221 -0.00141463 0.0184147 2650 
4 1 -0.0128499 0.00780729 0.00914591 0.001058 0.00473149 0.00103266 0.00625096 2650 
304 1 -0.012709 0.00621309 0.009818 0.000291 0 -0.011755 0 2650 
71 1 -0.00142883 0.00726577 0.00835576 0.000291 0.000861808 -0.00718564 -0.0173142 2650 
249 1 -0.00319912 0.0180942 0.00901347 0.000291 0.00987628 0.0185258 -0.0129358 2650 
245 1 -0.00285948 0.0467849 0.00803433 0.001058 0.013355 0.0538623 -0.0223836 2650 
300 1 -0.0113168 0.00271759 0.0109801 0.001058 -0.00264915 -0.00850309 -0.00197456 2650 
299 1 -0.010554 0.00467966 0.0107038 0.001058 0.000939782 -0.00874199 -0.000611435 2650 
55 1 -0.01171 0.00668109 0.01034 0.000291 0 -0.011755 0 2650 
68 1 -0.00347323 0.00950748 0.0100813 0.001058 0.00272783 -0.00342387 -0.00169301 2650 
217 1 -0.00989899 0.0224477 0.0107486 0.001058 0.000747792 0.0265619 -0.00553463 2650 
285 1 -0.00985972 0.00194514 0.0123342 0.001058 -0.00798287 -0.013356 -0.00552209 2650 
224 1 -0.00729503 0.0116558 0.0135524 0.001058 -0.00376938 0.00554818 0.00221201 2650 
54 1 -0.00576552 0.0282124 0.0128366 0.000291 0.0409131 0.0218291 0.0638832 2650 
238 1 -0.00470123 0.0196581 0.0141561 0.001058 0.0207771 0.0325148 -0.00733364 2650 
5 1 0.0181199 -0.0321024 -0.0938234 0.000291 -6.2058 -0.223869 -9.02495 2650 
188 1 0.00176695 -0.0616925 -0.0679224 0.001058 -9.72471 -0.000897574 -0.274961 2650 
111 1 0.0168565 -0.0309646 -0.0666266 0.000291 -7.98912 0.452324 -2.03923 2650 
131 1 0.00251089 -0.0268788 -0.0678987 0.001058 -8.60289 -0.0340292 -0.267899 2650 
283 1 0.0197971 -0.0346071 -0.0657905 0.000291 -7.9212 -0.295664 -2.38938 2650 
118 1 0.0212752 -0.0147941 -0.0653564 0.000291 -3.52618 -0.21063 -1.14854 2650 
259 1 0.0276324 -0.0125897 -0.0620974 0.001058 -3.38901 -0.492638 -1.41946 2650 
248 1 0.0379666 -0.0146492 -0.0572687 0.000291 -5.02461 -0.195856 -3.37872 2650 
185 1 0.0376425 -0.0306353 -0.0558825 0.00164 -7.71521 -0.144342 -5.13454 2650 
229 1 0.0422506 -0.052007 -0.0531929 0.001058 -7.61478 -0.228242 -6.06476 2650 
172 1 0.0417867 -0.0450275 -0.0535411 0.001058 -7.96409 0.0584879 -6.20478 2650 
288 1 0.0435182 -0.0441587 -0.0531454 0.000291 -7.65201 0.134158 -6.28467 2650 
20 1 0.0428794 -0.0427458 -0.0526795 0.001058 -7.73682 0.157479 -6.26116 2650 
125 1 0.0441413 -0.0272683 -0.0526395 0.000291 -4.67344 0.284709 -3.83203 2650 
193 1 0.0438894 -0.0458534 -0.0511061 0.00164 -7.42501 0.0253557 -6.37967 2650 
6 1 0.0462498 -0.0142585 -0.0507536 0.000291 -6.5928 0.830454 -5.99744 2650 
243 1 0.0478527 -0.0388603 -0.0482402 0.001058 -6.61588 0.0930749 -6.57793 2650 
72 1 0.0473295 -0.0287002 -0.0500415 0.000105 -7.05188 0.234126 -6.67057 2650 
2 1 0.0466141 -0.0268104 -0.0494151 0.001058 -6.40507 -0.0211656 -6.04064 2650 
21 1 0.0492251 -0.0382742 -0.0479344 0.000291 -6.58066 -0.111586 -6.75464 2650 
213 1 0.0524141 -0.0189405 -0.0444266 0.000291 -2.62209 0.119115 -3.16955 2650 
225 1 0.0585535 -0.0359224 -0.0344636 0.001058 -4.18196 -0.101842 -7.04475 2650 
83 1 0.0590052 -0.0320304 -0.0336881 0.001058 -4.07738 0.169056 -7.2397 2650 
181 1 0.0601187 -0.0247899 -0.0332658 0.000291 -3.83046 0.422085 -6.92624 2650 
264 1 0.0600382 -0.0575402 -0.0318096 0.001058 -3.92219 0.273846 -7.43439 2650 
93 1 0.0609967 -0.0327173 -0.0316186 0.000291 -4.18221 0.151287 -8.08002 2650 
239 1 0.0618583 -0.0482535 -0.0281737 0.001058 -3.77182 -0.0360497 -8.34972 2650 
29 1 0.0642344 -0.0224038 -0.0244073 0.000291 -1.2726 -0.204107 -3.44099 2650 
42 1 0.0663815 -0.0384569 -0.0145148 0.001058 -1.73719 -0.275872 -7.78035 2650 
237 1 0.00433257 -0.00251507 -0.0146187 0.001058 -0.0438888 0.0133162 -0.0951647 2650 
46 1 0.007499 -0.00234391 -0.014091 0.000291 0 -0.011755 0 2650 
303 1 0.001598 -0.00178091 -0.015917 0.000291 0 -0.011755 0 2650 
160 1 0.004468 -0.000657906 -0.014641 0.000105 0 -0.011755 0 2650 
133 1 0.0673331 -0.0119765 -0.0137445 0.000291 -1.53962 -0.254649 -7.49074 2650 
263 1 0.006877 -0.000260906 -0.012319 0.000291 0 -0.011755 0 2650 
196 1 0.002599 -0.00178791 -0.011929 0.001058 0 -0.011755 0 2650 
201 1 0.0092033 -0.000173526 -0.0113996 0.00164 0.00137105 -0.0114185 -0.003869 2650 
257 1 0.0676458 -0.044058 -0.00634586 0.001058 -0.919847 0.261982 -9.91662 2650 
86 1 0.0683021 -0.0147012 -0.00750205 0.000291 -0.575602 0.221317 -5.4425 2650 
102 1 0.003423 -0.000355906 -0.006065 0.000291 0 -0.011755 0 2650 
117 1 0.004754 -9.39063e-05 -0.007063 0.000291 0 -0.011755 0 2650 
89 1 0.0671807 -0.0467935 -0.00494634 0.00164 -0.744728 0.00640913 -9.93125 2650 
63 1 0.0685149 -0.0335242 -0.00508224 0.000291 -0.714782 -0.332802 -9.42662 2650 
140 1 0.0677592 -0.0286587 -0.00505551 0.001058 -0.666297 -0.0985513 -8.87535 2650 
178 1 0.0034908 -0.00289941 -0.00494977 0.001058 -0.000609858 -0.0102344 0.00251423 2650 
246 1 0.001376 -0.000854906 -0.005453 0.001058 0 -0.011755 0 2650 
88 1 0.002864 -0.00222891 -0.002457 0.000105 0 -0.011755 0 2650 
200 1 0.0155041 -0.00274511 -0.00223276 0.000105 0.135174 -0.0815406 -0.226989 2650 
270 1 0.00249509 -0.00139721 -0.00291965 0.000291 -0.00136788 -0.0183096 -0.00635377 2650 
177 1 0.00400157 -0.000431337 -0.00215428 0.00164 -0.00966503 -0.00602483 0.00423439 2650 
215 1 0.067876 -0.0425751 -0.00196233 0.001058 -0.255441 -0.112914 -9.65315 2650 
205 1 0.00199284 -0.00120266 -0.000556586 0.000291 -0.0110629 -0.00953223 0.00618698 2650 
230 1 0.0679471 -0.0442296 -0.000188548 0.001058 -0.0301417 -0.204716 -9.84174 2650 
290 1 0.0687005 -0.0342842 0.00109757 0.000291 0.158779 0.439839 -9.79337 2650 
96 1 0.009869 -0.00209891 0.000788 0.000105 0 -0.011755 0 2650 
81 1 0.007451 -0.000735906 7.8e-05 0.00164 0 -0.011755 0 2650 
261 1 0.011218 -0.000559906 0.000328 0.000291 0 -0.011755 0 2650 
282 1 0.0686425 -0.0185865 0.00203798 0.000291 0.0813581 0.0782851 -5.47396 2650 
143 1 0.0179245 -0.00612297 0.00394264 0.000291 1.27755 -0.669769 0.155787 2650 
277 1 0.054833 -0.00760473 0.00345184 0.000291 8.22323 -0.363857 0.505679 2650 
210 1 0.010971 -0.00140591 0.002357 0.001058 0 -0.011755 0 2650 
50 1 0.006699 -0.00231891 0.005883 0.001058 0 -0.011755 0 2650 
150 1 0.010064 -0.00221791 0.004311 0.000291 0 -0.011755 0 2650 
59 1 0.00283762 -0.00165056 0.00410893 0.001058 -0.0200783 -0.00967864 -0.0506056 2650 
223 1 0.00854816 -0.00122243 0.00413916 0.001058 0.0245989 -0.00855677 0.00804702 2650 
174 1 0.002361 -0.00256591 0.006466 0.000291 0 -0.011755 0 2650 
207 1 0.000324 -0.000879906 0.006532 0.000291 0 -0.011755 0 2650 
228 1 0.010294 -0.00305691 0.01009 0.000291 0 -0.011755 0 2650 
247 1 0.0676998 -0.0419524 0.0117789 0.000291 1.62296 -0.504274 -9.31739 2650 
3 1 0.00934713 -0.000578434 0.0126803 0.001058 -0.00211489 -0.0052299 0.000123346 2650 
82 1 0.000755 -0.000892906 0.014898 0.001058 0 -0.011755 0 2650 
151 1 0.0658549 -0.0245956 0.0195969 0.000291 2.02062 -0.211457 -6.87421 2650 
305 1 0.0645767 -0.00491927 0.023965 0.000105 0.80751 -0.11711 -3.14942 2650 
121 1 0.0617069 -0.030854 0.0270841 0.00164 3.83029 0.0543454 -8.78488 2650 
280 1 0.0627851 -0.0205977 0.0260103 0.001058 2.71361 -0.0812735 -6.49413 2650 
49 1 0.0613685 -0.0362235 0.0277809 0.00164 3.09403 0.0294437 -6.86392 2650 
302 1 0.0613907 -0.0119216 0.0309001 0.000291 3.24751 0.218313 -6.45726 2650 
69 1 0.0587526 -0.0428359 0.0356544 0.000291 4.68708 0.0799903 -7.71401 2650 
281 1 0.0586438 -0.0438792 0.0358354 0.000291 4.71059 -0.0724076 -7.69562 2650 
267 1 0.0514618 -0.014924 0.0455244 0.000291 4.49989 -0.270121 -5.103 2650 
107 1 0.0483393 -0.0318584 0.0477488 0.001058 6.33737 -0.092104 -6.44183 2650 
25 1 0.0473618 -0.061159 0.0479168 0.00164 6.85654 0.00250262 -6.78594 2650 
30 1 0.0443001 -0.0179142 0.0524955 0.000291 6.80332 1.16668 -5.6516 2650 
184 1 0.0375998 -0.0133118 0.0577333 0.000105 3.69962 -0.363718 -2.42135 2650 
73 1 0.0242418 -0.0547012 0.0628685 0.00164 9.25742 0.0519763 -3.55775 2650 
214 1 0.0193112 -0.0107329 0.0659552 0.000291 4.26799 -0.418078 -1.25053 2650 
251 1 0.0206398 -0.0095964 0.0647487 0.001058 4.22977 -0.129732 -1.34407 2650 
34 1 0.016245 -0.0252838 0.0659747 0.001058 9.12055 0.00299531 -2.26151 2650 
241 1 0.0127327 -0.0142596 0.0675338 0.000291 6.08813 -0.677269 -1.12419 2650 
119 1 0.000447134 -0.0491912 0.0687082 0.000291 7.73582 0.786873 -0.0447143 2650 
149 1 0.00730829 -0.024982 0.0683188 0.000291 6.30383 -0.357091 -0.688569 2650 
221 1 0.00921035 -0.0164756 0.0680958 0.000291 8.36751 0.231862 -1.13365 2650 
130 1 1.4e-05 0.000310094 -0.015674 0.001058 0 -0.011755 0 2650 
269 1 0.002277 0.000483094 -0.015181 0.000291 0 -0.011755 0 2650 
37 1 0.006156 0.00624509 -0.015157 0.000291 0 -0.011755 0 2650 
198 1 0.0081388 0.00851467 -0.0144552 0.000291 0.0853555 0.0232466 0.0369098 2650 
147 1 0.00337076 0.0156186 -0.0153841 0.001058 -0.0600416 0.0426775 -0.0153551 2650 
180 1 0.000682892 0.0203314 -0.0144004 0.001058 0.0584365 0.0813871 -0.0401553 2650 
289 1 0.001465 0.000906094 -0.012477 0.000291 0 -0.011755 0 2650 
142 1 0.002378 0.00132109 -0.013184 0.000291 0 -0.011755 0 2650 
252 1 0.00245 0.00461609 -0.01336 0.001058 0 -0.011755 0 2650 
78 1 0.001258 0.00623109 -0.012517 0.000291 0 -0.011755 0 2650 
154 1 0.00362159 0.0497121 -0.0133913 0.001058 0.00678339 0.101014 -0.0544466 2650 
275 1 0.012705 0.00397809 -0.010476 0.000291 0 -0.011755 0 2650 
67 1 0.00212238 0.00673288 -0.0104858 0.001058 -0.020884 0.0142907 -0.00966941 2650 
134 1 0.00861813 0.00367837 -0.00805868 0.000291 -0.0128132 0.00355392 -0.00692922 2650 
105 1 0.00790947 0.00844928 -0.00954172 0.00164 0.00327959 0.00625975 0.0321714 2650 
60 1 0.007579 0.00254709 -0.006312 0.001058 0 -0.011755 0 2650 
45 1 0.010575 0.00246709 -0.007722 0.000291 0 -0.011755 0 2650 
260 1 0.0103554 0.00261875 -0.00626334 0.000291 -0.00392275 0.00411325 -0.00447499 2650 
284 1 0.0146826 0.00762304 -0.00644479 0.000291 0.00515653 0.00696942 -0.00520094 2650 
139 1 0.00831893 0.0175723 -0.00654999 0.001058 0.0127696 0.00849352 0.0230521 2650 
161 1 0.0133809 0.0034261 -0.0046949 0.00164 0.000907452 0.00399164 0.00334652 2650 
278 1 7.4e-05 0.00505809 -0.004448 0.001058 0 -0.011755 0 2650 
92 1 0.0102386 0.00465782 -0.00459559 0.001058 -0.00203413 0.0102084 -0.00112028 2650 
199 1 0.015491 0.00438746 -0.00412997 0.000291 0.00855734 0.000154616 0.00359965 2650 
110 1 0.0064022 0.00621221 -0.0059213 0.000291 -0.0169259 -0.0135844 0.0488079 2650 
279 1 0.00959771 0.00623973 -0.0059667 0.001058 -0.00964963 0.00898182 -0.00219277 2650 
19 1 0.0140785 0.00626328 -0.00578634 0.001058 0.0022695 0.00565847 -0.00282567 2650 
253 1 0.014729 0.00131609 -0.002617 0.000291 0 -0.011755 0 2650 
227 1 0.00944 0.00314509 -0.002109 0.000291 0 -0.011755 0 2650 
271 1 0.00570778 0.00476421 -0.0033571 0.001058 0.0150184 -0.010407 0.010297 2650 
123 1 0.000465745 0.00896319 -0.00204105 0.001058 0.0354386 0.020018 -0.000637314 2650 
113 1 0.0103036 0.00105244 -0.00114087 0.00164 -0.000152922 -0.0104668 0.00259679 2650 
190 1 0.005899 0.00584709 -0.000534 0.000291 0 -0.011755 0 2650 
116 1 0.00906651 0.0160179 -0.0018303 0.001058 0.0382435 0.0489782 0.0372506 2650 
163 1 0.0158501 0.0305817 -0.000263726 0.001058 0.164238 0.19616 0.0792721 2650 
48 1 0.009671 0.00373909 0.000233 0.000105 0 -0.011755 0 2650 
128 1 0.00361 0.00544609 0.000511 0.000105 0 -0.011755 0 2650 
9 1 0.012984 0.00548409 0.000468 0.00164 0 -0.011755 0 2650 
286 1 0.015584 0.00615209 0.000132 0.001058 0 -0.011755 0 2650 
294 1 0.006997 0.00345309 0.003581 0.001058 0 -0.011755 0 2650 
101 1 0.004812 0.00416909 0.002517 0.000291 0 -0.011755 0 2650 
244 1 0.0153073 0.00419331 0.00372751 0.001058 0.00211086 -0.00707355 -0.0171953 2650 
35 1 0.000751194 0.00116825 0.00502117 0.001058 0.00654177 -0.0105187 -0.00962265 2650 
24 1 0.005464 0.00353509 0.005551 0.000105 0 -0.011755 0 2650 
208 1 0.0145575 0.0021754 0.00594096 0.001058 -0.00773679 0.00477788 -0.0233332 2650 
212 1 0.001087 0.00396309 0.005915 0.000291 0 -0.011755 0 2650 
51 1 0.009662 0.00460809 0.004577 0.001058 0 -0.011755 0 2650 
232 1 0.0134268 0.00497846 0.00442363 0.001058 0.00959066 0.0164235 -0.00681023 2650 
153 1 0.000665757 0.00773026 0.00595075 0.00164 0.00905173 -0.00370467 -0.0193596 2650 
79 1 0.014214 0.00644809 0.005058 0.000291 0 -0.011755 0 2650 
292 1 0.00429963 0.0146965 0.00409858 0.001058 0.0469404 0.0480946 0.0370303 2650 
301 1 0.00551239 0.0227242 0.00408066 0.001058 0.00272587 0.0220862 -0.0290146 2650 
202 1 0.00180818 0.00274238 0.00652699 0.001058 0.00953014 -0.00871599 -0.0138173 2650 
231 1 0.00666065 0.00302376 0.00735347 0.001058 0.00167534 -0.0128877 -0.000760445 2650 
145 1 0.00449479 0.00458407 0.00799202 0.00164 0.00142123 -0.0121074 -0.00172265 2650 
222 1 0.009219 0.00580709 0.006833 0.001058 0 -0.011755 0 2650 
194 1 0.0125427 0.00405419 0.00632332 0.001058 0.101532 -0.00908308 -0.0774809 2650 
112 1 0.013668 0.00677109 0.007002 0.000105 0 -0.011755 0 2650 
100 1 0.00722002 0.00184063 0.00986399 0.001058 0.00912399 -0.0117578 -0.00681185 2650 
1 1 0.0118004 0.00138867 0.00863265 0.00164 0.00588729 0.00743877 -0.0258753 2650 
258 1 0.0125146 0.00582203 0.00953879 0.001058 0.00615004 0.0226911 -0.0182162 2650 
293 1 0.0112599 0.00855304 0.00952335 0.001058 0.112341 0.0799209 -0.0331479 2650 
57 1 0.00355696 0.0202121 0.00868053 0.00164 0.0230994 0.0154402 0.0436737 2650 
103 1 0.005979 0.000138094 0.01127 0.000291 0 -0.011755 0 2650 
287 1 0.0105311 0.0026211 0.0115907 0.001058 0.0292235 -0.0161292 0.0100769 2650 
66 1 0.00580653 0.00867998 0.0116881 0.001058 0.00846641 -0.000759158 0.00162513 2650 
156 1 0.00399539 0.0118926 0.0114704 0.001058 0.00957299 -0.000303602 -0.00985815 2650 
95 1 0.00683379 0.00358902 0.0136777 0.000291 -0.000366951 -0.00495937 0.00220646 2650 
298 1 0.00835515 0.00703517 0.0130697 0.000105 0.012752 -0.00608362 0.00360111 2650 
195 1 0.00412455 0.00200582 0.0142879 0.001058 0.0422505 -0.00642479 -0.0231176 2650 
265 1 0.00153191 0.00637365 0.0151846 0.001058 0.011667 0.00657701 -0.00499144 2650 
11 1 0.0110201 0.0825252 0.0111468 0.001058 0.0558568 0.128502 0.0118077 2650 
