ITEM: TIMESTEP
23213965
ITEM: NUMBER OF ATOMS
258
ITEM: BOX BOUNDS ff ff ff
-0.15 0.15
-0.15 0.15
-0.15 0.15
ITEM: ATOMS id type x y z radius vx vy vz density 
228 1 -0.00302763 -0.0129128 -0.068596 0.000291 -10.3904 -0.0924835 0.455621 2650 
100 1 -0.0162328 -0.0191883 -0.065993 0.001058 -10.3516 -0.00778277 2.54617 2650 
98 1 -0.0136154 -0.0185726 -0.0665745 0.001058 -10.3809 0.020579 2.08189 2650 
94 1 -0.0173788 -0.0163615 -0.0664925 0.000291 -10.532 0.0487629 2.75141 2650 
212 1 -0.0191494 -0.0146595 -0.0660087 0.000291 -10.3799 0.174915 3.01142 2650 
64 1 -0.0147517 -0.0150669 -0.0672998 0.000105 -10.8618 0.212039 2.37854 2650 
16 1 -0.0167213 -0.00850341 -0.0668413 0.000105 -10.3927 -0.618453 2.59824 2650 
107 1 -0.0207344 -0.049102 -0.0647303 0.001058 -10.1656 0.0251008 3.25595 2650 
167 1 -0.0206805 -0.0188516 -0.0655419 0.000291 -10.8324 0.917045 3.41636 2650 
40 1 -0.0258194 -0.000104996 -0.0638728 0.000105 -8.63613 2.50055e-07 3.48152 2650 
219 1 -0.0254297 -0.000291116 -0.0638288 0.000291 -8.63369 0.00306125 3.44665 2650 
227 1 -0.028303 -0.0450522 -0.0626349 0.000291 -10.0663 0.0100731 4.5476 2650 
133 1 -0.0320822 -0.025701 -0.0607567 0.000291 -9.30197 0.164678 4.91175 2650 
37 1 -0.0317649 -0.0241676 -0.0609284 0.000291 -9.31149 0.315669 4.85632 2650 
39 1 -0.0360567 -0.0371764 -0.0584896 0.000291 -9.1281 -0.139293 5.62733 2650 
253 1 -0.0360796 -0.02121 -0.0584856 0.000291 -9.48007 0.0406663 5.84587 2650 
252 1 -0.0359717 -0.0158141 -0.057666 0.001058 -9.05401 -0.0215103 5.64788 2650 
177 1 -0.0333272 -0.0171337 -0.0585774 0.00164 -9.19749 -0.103042 5.23268 2650 
235 1 -0.0372365 -0.0151402 -0.0577641 0.000291 -9.06136 0.0328299 5.84117 2650 
85 1 -0.0371831 -0.0099593 -0.0577922 0.000291 -7.84305 -0.189719 5.05624 2650 
102 1 -0.0400379 -0.0148448 -0.0558517 0.000291 -8.68741 -0.445482 6.22877 2650 
126 1 -0.0442411 -0.0326094 -0.0525699 0.000291 -7.82785 0.177066 6.59141 2650 
304 1 -0.0435473 -0.0107436 -0.0531463 0.000291 -7.95776 -0.042594 6.51861 2650 
210 1 -0.0456678 -0.0342474 -0.0503086 0.001058 -7.92026 -0.0245439 7.19001 2650 
240 1 -0.04684 -0.03191 -0.0502635 0.000291 -7.68977 0.238343 7.16767 2650 
276 1 -0.0455868 -0.0322409 -0.0514062 0.000291 -8.01997 0.023992 7.11186 2650 
104 1 -0.0459073 -0.0114398 -0.0513682 0.000105 -7.13064 0.226275 6.37683 2650 
241 1 -0.0477794 -0.0364229 -0.0493683 0.000291 -7.74591 -0.268849 7.49685 2650 
251 1 -0.0480108 -0.030875 -0.0482742 0.001058 -7.5829 -2.12563e-08 7.54151 2650 
275 1 -0.0487385 -0.0223529 -0.048431 0.000291 -7.80187 -0.0863404 7.85059 2650 
206 1 -0.0503907 -0.062509 -0.0467097 0.000291 -7.33711 1.86284e-09 7.91533 2650 
169 1 -0.0490887 -0.0611601 -0.0461474 0.00164 -7.24876 4.57202e-07 7.71077 2650 
246 1 -0.0496046 -0.0585276 -0.0464354 0.001058 -7.29423 -1.66622e-05 7.79207 2650 
145 1 -0.0489095 -0.0392996 -0.0463342 0.00164 -7.2826 -0.00853418 7.68732 2650 
207 1 -0.0500859 -0.0154741 -0.0470319 0.000291 -7.45757 -0.0805175 7.94164 2650 
25 1 -0.0511159 -0.0588111 -0.0438886 0.00164 -6.89405 -5.78521e-05 8.02931 2650 
178 1 -0.0526009 -0.0567366 -0.0430111 0.001058 -6.75619 -4.159e-05 8.26255 2650 
88 1 -0.0565191 -0.00996619 -0.0394114 0.000105 -5.32013 -0.359181 7.64772 2650 
103 1 -0.0588985 -0.0527274 -0.035402 0.000291 -5.49181 0.163501 9.13463 2650 
231 1 -0.0595315 -0.0447564 -0.0328 0.001058 -5.14632 0.0301967 9.33872 2650 
128 1 -0.0604997 -0.00912107 -0.0329839 0.000105 -4.16112 0.423949 7.6154 2650 
268 1 -0.0613296 -0.0166136 -0.0310296 0.000291 -5.06158 -0.0233454 10.0093 2650 
291 1 -0.063396 -0.0500633 -0.0265471 0.000291 -4.10087 -0.33179 9.79858 2650 
87 1 -0.0656547 -0.0197753 -0.0203067 0.000291 -3.01155 0.195819 9.72227 2650 
137 1 -0.065308 -0.0611601 -0.0165526 0.00164 -2.59995 -8.16432e-07 10.2581 2650 
164 1 -0.066049 -0.0474755 -0.0160226 0.001058 -2.50177 -0.0257398 10.3154 2650 
226 1 -0.0668338 -0.0463258 -0.0160221 0.000291 -2.53104 -0.00314817 10.5644 2650 
3 1 -0.0668274 -0.0309725 -0.0123451 0.001058 -1.94627 -0.0184842 10.534 2650 
74 1 -0.00792799 -0.00179061 -0.0129666 0.001058 0.00552843 -0.00502923 -0.00272883 2650 
71 1 -0.000325725 -0.00193178 -0.0138063 0.000291 0.000861808 -0.00718564 -0.0173142 2650 
202 1 -0.0671884 -0.0308573 -0.0101738 0.001058 -1.58793 0.0135525 10.485 2650 
132 1 -0.0674167 -0.0231176 -0.00848299 0.001058 -1.31259 -0.0249934 10.4108 2650 
303 1 -0.0682917 -0.0226149 -0.00746411 0.000291 -1.16087 -0.0335806 10.6163 2650 
135 1 -0.00660086 -0.00308347 -0.00897024 0.000291 0.00330025 -0.00264717 0.00636962 2650 
150 1 -0.0687089 -0.0332762 0.000276308 0.000291 0.0433929 -0.0402261 10.7959 2650 
285 1 -0.0680838 -0.030875 -0.000186296 0.001058 -0.0292635 -2.12563e-08 10.6946 2650 
110 1 -0.0686976 -0.00726234 -0.000993455 0.000291 -0.108677 0.259851 9.20284 2650 
118 1 -0.0686842 -0.0190436 0.00178733 0.000291 0.262844 0.334839 10.0124 2650 
168 1 -0.067745 -0.015758 0.0126092 0.000105 1.84199 0.372944 9.91328 2650 
209 1 -0.0109737 -0.00162533 0.0113856 0.001058 0.0110369 -0.0181584 0.0135773 2650 
95 1 -0.00294627 -0.000176913 0.0107292 0.000291 -0.0190214 0.000188354 -0.00919676 2650 
109 1 -0.0669704 -0.051126 0.0154217 0.000291 2.42308 0.0097074 10.5225 2650 
182 1 -0.0670703 -0.0203804 0.0149724 0.000291 1.99942 0.0466507 8.99218 2650 
84 1 -0.0656509 -0.0510291 0.0175799 0.001058 2.76109 0.00230969 10.311 2650 
290 1 -0.0664704 -0.0487606 0.0174762 0.000291 2.74511 0.000552218 10.441 2650 
264 1 -0.0654794 -0.048242 0.0182303 0.001058 2.86364 2.38871e-05 10.2856 2650 
287 1 -0.065117 -0.0499115 0.0194788 0.001058 3.05975 1.34678e-05 10.2286 2650 
45 1 -0.0654497 -0.0135067 0.020986 0.000291 2.84681 -0.336178 8.87556 2650 
215 1 -0.0639157 -0.0485426 0.0231276 0.001058 3.63299 -0.000101326 10.0401 2650 
181 1 -0.0643356 -0.0478293 0.0241928 0.000291 3.8 0.000907665 10.1053 2650 
269 1 -0.0624416 -0.0144214 0.0287295 0.000291 4.19526 0.16788 9.09807 2650 
83 1 -0.0598491 -0.0499988 0.0322126 0.001058 5.05713 -0.00259523 9.39547 2650 
175 1 -0.0607552 -0.0120079 0.0321295 0.000291 4.36357 -0.0062871 8.22881 2650 
272 1 -0.0586868 -0.0486987 0.0342851 0.001058 5.38682 0.0145693 9.22083 2650 
6 1 -0.0596414 -0.0150627 0.0341559 0.000291 4.66173 0.134476 8.11843 2650 
89 1 -0.0558781 -0.0611601 0.0376408 0.00164 5.91277 2.87158e-07 8.77754 2650 
255 1 -0.0563775 -0.0149451 0.039272 0.000291 5.52747 0.103478 7.96155 2650 
190 1 -0.0532528 -0.0154124 0.0433872 0.000291 5.65497 -0.086347 6.91586 2650 
229 1 -0.0491682 -0.061629 0.0468981 0.001058 7.36682 0.000145831 7.72342 2650 
280 1 -0.0482751 -0.0308793 0.0480114 0.001058 7.54162 1.03337e-05 7.58304 2650 
152 1 -0.0493149 -0.0168634 0.0481028 0.000105 7.59239 -1.00885 7.78632 2650 
174 1 -0.0467677 -0.0286952 0.050335 0.000291 7.89267 -0.212056 7.33471 2650 
300 1 -0.0462615 -0.0246793 0.0497657 0.001058 7.59811 -0.147458 7.06596 2650 
61 1 -0.0474363 -0.0156603 0.049705 0.000291 7.10654 -0.158117 6.79096 2650 
204 1 -0.0451557 -0.0312736 0.0507729 0.001058 7.96809 -0.00972492 7.08641 2650 
18 1 -0.0449666 -0.0197881 0.0509387 0.001058 7.94177 -0.0425164 6.9395 2650 
73 1 -0.0394301 -0.058148 0.0546236 0.00164 8.58025 4.60588e-05 6.19366 2650 
141 1 -0.0397566 -0.0379583 0.0560406 0.000291 8.77061 0.0178822 6.22167 2650 
86 1 -0.0398206 -0.0339814 0.0559903 0.000291 8.7192 0.0396561 6.20004 2650 
196 1 -0.0359223 -0.0479338 0.0576955 0.001058 9.07605 0.0151214 5.65096 2650 
281 1 -0.0345389 -0.0622793 0.0594219 0.000291 9.33079 -1.83053e-06 5.42352 2650 
99 1 -0.0339328 -0.0484442 0.0588922 0.001058 9.2512 0.00236122 5.33044 2650 
121 1 -0.0312274 -0.0458197 0.0597245 0.00164 9.38224 0.00092904 4.90559 2650 
2 1 -0.0311753 -0.0493573 0.0603981 0.001058 9.4872 -0.000337055 4.89696 2650 
243 1 -0.0298249 -0.0508399 0.0610729 0.001058 9.59324 -0.000289154 4.68485 2650 
201 1 -0.0281486 -0.0455107 0.0612378 0.00164 9.61921 2.22476e-05 4.42156 2650 
60 1 -0.0273864 -0.0431111 0.0622071 0.001058 9.77145 3.1515e-05 4.30183 2650 
278 1 -0.0282091 -0.0332968 0.0618115 0.001058 9.73303 0.0580832 4.44185 2650 
259 1 -0.0292331 -0.0308992 0.0613611 0.001058 9.63812 -8.9142e-05 4.59171 2650 
122 1 -0.0293316 -0.0287871 0.0612857 0.001058 9.62679 -5.62608e-05 4.60743 2650 
213 1 -0.0278031 -0.0475429 0.0628589 0.000291 9.90924 -0.0122155 4.38302 2650 
108 1 -0.0251467 -0.0480242 0.0631503 0.001058 9.92304 0.00993504 3.95155 2650 
36 1 -0.022469 -0.0484554 0.0641508 0.001058 10.0766 2.29018e-05 3.52937 2650 
140 1 -0.0236343 -0.0466044 0.0637321 0.001058 10.013 0.00229098 3.71326 2650 
79 1 -0.0262404 -0.0411365 0.0635166 0.000291 9.96532 0.212648 4.1164 2650 
24 1 -0.0266158 -0.0348474 0.0635406 0.000105 10.1456 0.207393 4.24918 2650 
15 1 -0.0255476 -0.0205491 0.0637984 0.000291 10.1318 -0.161103 4.05712 2650 
119 1 -0.0208878 -0.0503625 0.0654768 0.000291 10.2797 -0.00967991 3.27933 2650 
239 1 -0.0183201 -0.0500563 0.0654511 0.001058 10.281 -0.0010957 2.8777 2650 
191 1 -0.0236727 -0.0479747 0.0645286 0.000291 10.1368 -0.000710362 3.71876 2650 
230 1 -0.0204794 -0.0487438 0.0648105 0.001058 10.1803 4.9317e-05 3.21685 2650 
288 1 -0.0194762 -0.0490766 0.0659131 0.000291 10.3778 0.0103105 3.06663 2650 
184 1 -0.0227621 -0.0191168 0.0650459 0.000105 10.4216 -0.106789 3.64608 2650 
131 1 -0.00876423 -0.0484669 0.0673868 0.001058 10.5849 -0.000814673 1.37664 2650 
50 1 -0.0132664 -0.0433062 0.0666539 0.001058 10.4604 0.057621 2.08196 2650 
82 1 -0.00119973 -0.0420502 0.0679373 0.001058 10.6716 0.0067184 0.18862 2650 
294 1 -0.000186296 -0.030875 0.0680838 0.001058 10.6946 -2.12565e-08 0.0292635 2650 
47 1 -0.00467466 -0.0165906 0.0685486 0.000291 9.13918 0.0720268 0.625018 2650 
296 1 -0.0617583 -0.00891383 0.0301383 0.000291 4.08438 -0.0622765 8.38043 2650 
80 1 -0.00159693 0.0262654 -0.0167126 0.000105 0.0200167 0.0220396 -0.007602 2650 
58 1 -0.000985749 0.000164466 -0.0157646 0.001058 0.0223166 0.00414419 0.0109308 2650 
134 1 -0.00645435 0.00822235 -0.014364 0.000291 -0.00544633 0.00352621 0.00729171 2650 
97 1 -0.000911721 0.0118156 -0.0151616 0.00164 0.0189231 0.00904729 -0.00561719 2650 
54 1 -0.00742239 0.0321225 -0.0148754 0.000291 -0.0425652 -0.00199916 0.0175605 2650 
293 1 -0.00181755 0.0402032 -0.015673 0.001058 -0.0970922 -0.017198 0.0179615 2650 
286 1 -0.00162236 0.0555241 -0.0156829 0.001058 -0.0224686 0.0460898 0.00428948 2650 
292 1 -0.00147381 0.0639006 -0.0131791 0.001058 -0.0198756 0.0344324 0.0109755 2650 
10 1 -0.0108186 0.0111785 -0.0112349 0.001058 0.0053433 0.0061558 -0.0070677 2650 
51 1 -0.00959084 0.0275503 -0.0100961 0.001058 2.58043e-05 0.0308241 0.0288994 2650 
232 1 -0.0110966 0.0438551 -0.0110299 0.001058 -0.0196298 0.0266647 0.016804 2650 
301 1 -0.00421648 0.0472495 -0.0118295 0.001058 -0.0176549 0.0163122 0.00371725 2650 
130 1 -0.00871381 0.00395748 -0.00875683 0.001058 -0.00692202 0.00347734 0.00595777 2650 
67 1 -0.0150637 0.0237494 -0.00446059 0.001058 -0.00153648 0.0116126 0.0141107 2650 
113 1 -0.00433611 0.005163 -0.00229485 0.00164 -0.0131936 -0.00156564 -0.00033725 2650 
129 1 -0.00195606 0.0145727 -0.00356201 0.00164 -0.00374589 0.0128173 -0.00288427 2650 
7 1 -0.00182093 0.0361044 -0.00341826 0.000291 0.00378858 0.0136367 -0.000251809 2650 
65 1 -0.0147376 0.0335007 -0.000847559 0.00164 0.00199904 0.0128894 0.00103488 2650 
234 1 -0.0136289 0.0124352 0.00366573 0.000291 -0.00131366 0.00431637 0.0126772 2650 
217 1 -0.00894182 0.0564467 0.0036643 0.001058 0.000747792 0.0265619 -0.00553463 2650 
205 1 -0.0116309 0.00410331 0.00589916 0.000291 -0.00881861 0.00364628 0.0236275 2650 
256 1 -0.0153853 0.0299608 0.00645333 0.000291 0.00177718 0.0215424 0.00440949 2650 
222 1 -0.0101378 0.00211945 0.00843813 0.001058 -0.0324875 0.00467874 -0.0112895 2650 
211 1 -0.0119406 0.00791788 0.00845766 0.001058 0.000982608 0.00314487 0.00709992 2650 
115 1 -0.0132076 0.0220055 0.00843344 0.001058 0.0059455 0.0116516 0.00703082 2650 
224 1 -0.00761235 0.0172396 0.0103526 0.001058 0.0046856 0.00178326 -0.00382818 2650 
187 1 -0.0120806 0.032571 0.010334 0.001058 0.00749407 0.0151236 0.010031 2650 
299 1 -0.00385841 0.000418152 0.0131916 0.001058 0.00581403 -0.00322581 0.00124072 2650 
220 1 -0.00935737 0.0319047 0.0121123 0.000291 0.00991537 0.0130183 0.0124552 2650 
4 1 -0.0053822 0.00903233 0.0148694 0.001058 0.00673868 0.000863758 0.00176759 2650 
244 1 -0.0025107 0.0236301 0.0155317 0.001058 0.0359853 0.021076 -0.00170709 2650 
28 1 -0.00682214 0.0797291 0.0104377 0.001058 0.00734507 0.0503926 0.00344867 2650 
44 1 0.000186296 -0.030875 -0.0680838 0.001058 -10.6946 -2.12565e-08 -0.0292635 2650 
302 1 0.0170145 -0.0424342 -0.0665851 0.000291 -10.9631 -0.255928 -2.80241 2650 
261 1 0.0158538 -0.0281988 -0.0668523 0.000291 -10.1088 0.0016999 -2.38838 2650 
23 1 0.0221628 -0.0487701 -0.0650603 0.000291 -10.2419 0.0291568 -3.48888 2650 
76 1 0.0214698 -0.046405 -0.0644921 0.001058 -10.0405 -0.0993238 -3.34228 2650 
14 1 0.0238598 -0.0355255 -0.0644276 0.000291 -9.96801 -0.326212 -3.69108 2650 
90 1 0.0232308 -0.0494841 -0.0638772 0.001058 -10.0337 3.88057e-05 -3.64906 2650 
171 1 0.025281 -0.0495167 -0.0630941 0.001058 -9.91053 0.00218434 -3.97108 2650 
225 1 0.0242191 -0.0476492 -0.0635119 0.001058 -9.97637 5.57794e-05 -3.80431 2650 
21 1 0.0294529 -0.0491833 -0.0621013 0.000291 -9.7561 -0.0143227 -4.62703 2650 
46 1 0.0382511 -0.0211973 -0.0570772 0.000291 -8.87563 0.0479452 -5.94906 2650 
22 1 0.038399 -0.0206321 -0.0569831 0.000291 -8.70971 0.00960279 -5.87175 2650 
223 1 0.0380133 -0.019479 -0.0563314 0.001058 -8.81792 0.0816441 -5.95005 2650 
117 1 0.0393884 -0.0162286 -0.0562991 0.000291 -8.40229 -0.0370877 -5.87279 2650 
186 1 0.0420094 -0.022542 -0.0534055 0.001058 -8.42104 -0.11478 -6.62396 2650 
173 1 0.0449413 -0.00760309 -0.0519475 0.000291 -8.27535 0.130807 -7.16596 2650 
208 1 0.048275 -0.0308698 -0.0480114 0.001058 -7.54161 6.35512e-08 -7.58302 2650 
55 1 0.055756 -0.0112829 -0.0401663 0.000291 -5.85593 0.474165 -8.13165 2650 
257 1 0.059061 -0.0488884 -0.0336356 0.001058 -5.28391 0.000843914 -9.2781 2650 
270 1 0.0611207 -0.00702142 -0.0313978 0.000291 -4.41024 -0.549809 -8.59714 2650 
49 1 0.0600488 -0.0490853 -0.030599 0.00164 -4.80647 -0.000139517 -9.43242 2650 
218 1 0.0619227 -0.0492071 0.028029 0.001058 4.40281 -2.55658e-05 -9.72683 2650 
93 1 0.0622558 -0.0493403 -0.0291243 0.000291 -4.57494 0.000982071 -9.77933 2650 
165 1 0.062184 -0.045706 -0.0292834 0.000291 -4.59991 -0.000169497 -9.76802 2650 
29 1 0.062092 -0.01116 -0.0294613 0.000291 -4.32553 -0.0179664 -9.11365 2650 
179 1 0.0619784 -0.048829 -0.0279072 0.001058 -4.3837 0.000758343 -9.73566 2650 
59 1 0.0617764 -0.0465968 -0.028356 0.001058 -4.45412 2.57781e-05 -9.70375 2650 
192 1 0.0638774 -0.000104996 -0.0258079 0.000105 -3.46121 2.5461e-07 -8.59179 2650 
271 1 0.0647418 -0.0163966 -0.0207024 0.001058 -3.37065 0.0293679 -10.54 2650 
197 1 0.0671278 -0.0141209 -0.0147364 0.000291 -1.71654 -0.02951 -7.80522 2650 
221 1 0.0671637 -0.0218844 -0.0145243 0.000291 -2.03607 -0.019724 -9.43659 2650 
277 1 0.0678477 -0.0413108 -0.010887 0.000291 -1.65069 -0.120331 -10.248 2650 
248 1 0.0675945 -0.0277061 -0.0123084 0.000291 -1.95288 -0.174273 -10.7249 2650 
214 1 0.0680707 -0.0586751 -0.00930549 0.000291 -1.4269 -0.155962 -10.4583 2650 
146 1 0.0672283 -0.0488612 -0.00990726 0.001058 -1.55616 -4.18004e-06 -10.5598 2650 
295 1 0.0679929 -0.0325004 -0.00988864 0.000291 -1.54283 -0.0772366 -10.6031 2650 
138 1 0.0674704 -0.0559928 -0.0080291 0.001058 -1.26078 -0.00878535 -10.5936 2650 
96 1 0.0684761 -0.00666171 -0.00758684 0.000105 -0.968794 -0.11385 -8.80634 2650 
101 1 0.0146675 -0.000149825 -0.00674291 0.000291 -0.00701612 -0.000711223 -0.000860441 2650 
159 1 0.0685899 -0.0476972 0.00401714 0.000291 0.628114 -0.236572 -10.7318 2650 
170 1 0.00796897 -0.00334872 0.0136965 0.001058 -0.0128227 -0.0325261 0.00651251 2650 
250 1 0.00464961 -0.00307528 0.0150647 0.001058 0.0161046 -0.00542442 -0.00110725 2650 
236 1 0.0656658 -0.0616414 0.0174591 0.001058 2.74271 -0.000570233 -10.3157 2650 
112 1 0.0650267 -0.0307857 0.0227715 0.000105 3.49717 0.6539 -10.0134 2650 
188 1 0.0615199 -0.0616389 0.028848 0.001058 4.53138 7.15304e-05 -9.66338 2650 
247 1 0.0630301 -0.0496607 0.0274064 0.000291 4.30502 2.89916e-05 -9.90081 2650 
254 1 0.0626503 -0.0503209 0.0282615 0.000291 4.43883 0.00348518 -9.84157 2650 
148 1 0.0595265 -0.0531334 0.0327868 0.001058 5.15016 -5.37922e-05 -9.35042 2650 
35 1 0.0599575 -0.0508738 0.0320061 0.001058 5.02757 5.39239e-05 -9.41822 2650 
200 1 0.0607383 -0.00763693 0.0325308 0.000105 4.51529 -0.271834 -8.43886 2650 
43 1 0.0584711 -0.0500988 0.0346477 0.001058 5.4431 0.00229853 -9.18562 2650 
20 1 0.0570984 -0.0555209 0.0368394 0.001058 5.7867 -0.000313231 -8.96896 2650 
172 1 0.0560186 -0.0547014 0.0384642 0.001058 6.04197 -6.69456e-05 -8.79944 2650 
193 1 0.0555373 -0.0498677 0.0381637 0.00164 5.99465 -5.42433e-05 -8.72365 2650 
267 1 0.0576064 -0.0244383 0.0374516 0.000291 5.41354 -0.043438 -8.3267 2650 
42 1 0.0541889 -0.0548057 0.0409981 0.001058 6.43992 -0.000142544 -8.51192 2650 
282 1 0.0558791 -0.0196521 0.0399944 0.000291 5.85396 0.456176 -8.17855 2650 
158 1 0.0556257 -0.0130946 0.0403477 0.000291 5.7858 -0.0409783 -7.98839 2650 
81 1 0.0527464 -0.050012 0.0419236 0.00164 6.58542 0.000391084 -8.28546 2650 
162 1 0.0533168 -0.0473832 0.042131 0.001058 6.61791 0.000405513 -8.37495 2650 
185 1 0.0502003 -0.0518693 0.0449337 0.00164 7.05812 3.8485e-05 -7.88538 2650 
34 1 0.0480108 -0.030875 0.0482742 0.001058 7.5829 -2.12563e-08 -7.54151 2650 
48 1 0.0392022 -0.0469869 0.0566564 0.000105 9.02044 0.0065003 -6.24293 2650 
26 1 0.0170636 -0.0495443 0.0657901 0.001058 10.3343 1.44983e-06 -2.68034 2650 
125 1 0.0208361 -0.0378585 0.0654762 0.000291 10.5288 0.0296991 -3.35049 2650 
78 1 0.0136064 -0.0435901 0.0673618 0.000291 10.771 -0.436058 -2.17352 2650 
198 1 0.00227909 0.00255621 -0.0163166 0.000291 -0.0296253 0.00903644 -0.00211577 2650 
195 1 0.00308038 0.00199611 -0.0153553 0.001058 -0.0272585 0.00295666 -0.00563484 2650 
260 1 0.00471405 0.00859849 -0.0127264 0.000291 -0.00996736 0.00469349 0.00488237 2650 
57 1 0.00531414 0.0292358 -0.013836 0.00164 -0.000919831 0.00616449 -0.024056 2650 
33 1 0.00438238 0.0367713 -0.0108595 0.00164 0.00603998 0.0215627 0.00352792 2650 
153 1 0.00657378 0.00375186 -0.009838 0.00164 -0.00763413 -0.0014489 0.00703428 2650 
114 1 0.00542585 0.015147 -0.00981157 0.001058 0.0187062 0.0117361 -0.00752779 2650 
284 1 0.0107721 0.0152301 -0.00847135 0.000291 -0.00371053 0.00586111 -0.00129449 2650 
123 1 0.0101738 0.0510573 -0.00945061 0.001058 -0.0069266 0.0381635 -0.00768552 2650 
199 1 0.0116671 0.00622291 -0.00744444 0.000291 -0.0066469 0.00203541 -0.00705897 2650 
161 1 0.0134706 0.00986373 -0.00632707 0.00164 -0.000454856 0.00568005 -0.00417258 2650 
19 1 0.0125159 0.0128864 -0.00758792 0.001058 -0.00189711 0.0050805 -0.00113271 2650 
249 1 0.00944244 0.041807 -0.00754423 0.000291 0.00987628 0.0185258 -0.0129358 2650 
176 1 0.0115397 0.000855267 -0.00587694 0.000105 -0.0113334 0.00168079 0.000719247 2650 
77 1 0.00595527 0.0121379 -0.00408029 0.000291 -0.0117356 0.000913058 0.0103562 2650 
258 1 0.00984877 0.0553933 -0.0048646 0.001058 -0.00702738 0.0458888 -0.00817646 2650 
1 1 0.0126011 0.0073602 -0.00344454 0.00164 -0.00396175 0.00352346 -0.00443708 2650 
52 1 0.0133316 0.0566067 -0.0035244 0.001058 -0.00702953 0.0194323 -0.0174178 2650 
203 1 0.0150753 0.0378258 -0.0010968 0.001058 0.0105265 0.0334803 0.00411967 2650 
92 1 0.0136982 0.00892843 0.001927 0.001058 0.00298746 0.00292354 0.00546929 2650 
106 1 0.00447567 0.0399009 0.00159532 0.001058 0.0119634 0.0223893 -0.0027555 2650 
194 1 0.00941975 0.0470401 0.000877534 0.001058 -0.00717738 0.0355954 0.00284246 2650 
238 1 0.0140854 0.0580687 0.000938385 0.001058 -0.00137728 0.0257105 -0.0165728 2650 
279 1 0.013789 0.00554468 0.0021066 0.001058 0.00690887 -0.00122776 0.0071413 2650 
298 1 0.0143338 0.00115479 0.00431901 0.000105 0.00377194 -0.00442838 -0.00799766 2650 
156 1 0.0111232 0.00364309 0.00692168 0.001058 -0.00386139 -0.00886559 -0.00604091 2650 
68 1 1.83586e-05 0.00512496 0.0079143 0.001058 0.00272783 -0.00342387 -0.00169301 2650 
265 1 0.0141965 0.014522 0.00694056 0.001058 0.00631372 0.00593974 -0.00936806 2650 
9 1 0.0132665 0.0539864 0.00701234 0.00164 -0.00067168 0.0470366 0.00650688 2650 
273 1 0.000440586 0.0686141 0.00776652 0.001058 0.00511 0.0387776 -0.00978519 2650 
66 1 0.0113077 0.00759247 0.00947314 0.001058 0.00109107 -0.000952032 -0.00287426 2650 
38 1 0.0105276 0.0207601 0.00834079 0.000291 -0.0203804 0.00352473 0.00785771 2650 
105 1 0.00516422 0.0213364 0.0106791 0.00164 -0.00344466 0.00582004 -0.00613861 2650 
41 1 0.00119215 0.0231983 0.0117506 0.00164 -0.00672013 0.00866437 -0.0057422 2650 
144 1 0.00259378 0.0266427 0.0121242 0.000105 0.0152864 0.0109644 -0.00695946 2650 
147 1 0.0083129 0.0441747 0.0134354 0.001058 0.030812 0.00832408 -0.0230623 2650 
242 1 0.00520417 0.0458061 0.0137775 0.000291 0.0116924 0.0265357 0.00697501 2650 
266 1 0.00179229 0.0167258 0.0156594 0.001058 0.0339312 0.0111352 -0.00649733 2650 
139 1 0.00440687 0.0271535 0.0149191 0.001058 -0.0138539 0.00679752 0.0124887 2650 
124 1 0.00322673 0.0610415 0.0150903 0.001058 0.0237177 0.0354635 -0.00375445 2650 
157 1 0.00215146 0.0989255 -0.0133296 0.000291 0.0079085 0.0606548 0.000918149 2650 
