ITEM: TIMESTEP
1234782
ITEM: NUMBER OF ATOMS
304
ITEM: BOX BOUNDS ff ff ff
-0.15 0.15
-0.15 0.15
-0.15 0.15
ITEM: ATOMS id type x y z radius vx vy vz density 
148 1 -0.00205134 -0.0274857 -0.0679165 0.001058 -4.4553 -0.161007 0.151661 2650 
297 1 -0.0109275 -0.00776008 -0.0678383 0.000291 -3.14317 -0.124878 0.47093 2650 
133 1 -0.0426212 -0.0112334 -0.053872 0.000291 -2.73462 -0.242719 2.26531 2650 
151 1 -0.0632501 -0.00872286 -0.0268668 0.000291 -1.22255 -0.211894 3.01202 2650 
241 1 -0.008593 -0.00119949 -0.012306 0.000291 0 -0.011755 0 2650 
5 1 -0.00909325 -0.00302943 -0.0113063 0.000291 0.0305316 -0.174994 -0.0459935 2650 
215 1 -0.0027619 -0.00339121 -0.0115238 0.001058 -0.235392 -0.0353898 -0.982154 2650 
93 1 -0.0105614 -0.00150747 -0.0115798 0.000291 -0.0556851 -0.0305292 -0.0421019 2650 
167 1 -0.007283 -0.00305949 -0.00514 0.000291 0 -0.011755 0 2650 
59 1 -0.00674272 -0.00169728 -0.00448242 0.001058 0.00115799 -0.0116141 0.00139237 2650 
23 1 -0.005085 -0.00216549 -0.002724 0.000291 0 -0.011755 0 2650 
107 1 -0.003706 -0.00184449 -0.003027 0.001058 0 -0.011755 0 2650 
282 1 -0.001816 -0.000903485 -0.002164 0.000291 0 -0.011755 0 2650 
89 1 -0.00164082 -0.00237795 0.00168942 0.00164 -0.0058431 -0.0117287 -0.0183195 2650 
283 1 -0.0102546 -0.00382479 0.00256722 0.000291 -0.84776 -0.134257 0.154014 2650 
229 1 -0.00461922 -0.00243943 0.00262231 0.001058 9.1281e-05 -0.0149163 0.00350247 2650 
127 1 -0.006868 -0.00166249 0.0035 0.000291 0 -0.011755 0 2650 
2 1 -0.013701 -0.00186049 0.005224 0.001058 0 -0.011755 0 2650 
63 1 -0.010157 -0.00185149 0.004282 0.000291 0 -0.011755 0 2650 
157 1 -0.011403 -0.00191049 0.006122 0.000291 0 -0.011755 0 2650 
42 1 -0.008546 -0.000606485 0.006756 0.001058 0 -0.011755 0 2650 
36 1 -0.012004 -0.00237749 0.009853 0.001058 0 -0.011755 0 2650 
257 1 -0.009847 -0.00194049 0.008559 0.001058 0 -0.011755 0 2650 
204 1 -0.00156 -0.000792485 0.010678 0.001058 0 -0.011755 0 2650 
84 1 -0.000959 -0.00271649 0.012417 0.001058 0 -0.011755 0 2650 
73 1 -0.00513683 -0.000369492 0.0139834 0.00164 0.0292965 -0.0332995 -0.0283386 2650 
154 1 -0.00161955 -0.000679966 0.0146831 0.001058 0.0729568 0.102823 -0.0740162 2650 
86 1 -0.0667751 -0.0171548 0.0162616 0.000291 0.67378 -0.504185 2.93115 2650 
125 1 -0.0571415 -0.0458697 0.0381811 0.000291 2.56799 0.376763 3.90242 2650 
219 1 -0.0506766 -0.0156607 0.0463947 0.000291 2.92446 -0.0106893 3.12338 2650 
230 1 -0.0158796 -0.0095963 0.0660993 0.001058 3.63034 -0.639059 0.868245 2650 
26 1 -0.00129977 0.000164594 -0.0141917 0.001058 0.0227551 -0.049422 -0.0315508 2650 
17 1 -0.00438572 0.00346203 -0.0144596 0.00164 0.00275872 -0.00783162 0.0103761 2650 
85 1 -0.003548 0.00567651 -0.015444 0.000291 0 -0.011755 0 2650 
70 1 -0.002345 0.00747851 -0.015511 0.000291 0 -0.011755 0 2650 
189 1 -0.004115 0.00187151 -0.01297 0.000291 0 -0.011755 0 2650 
280 1 -0.00235696 0.00174087 -0.0132522 0.001058 0.0146824 -0.0476139 -0.0422255 2650 
295 1 -0.006507 0.00219351 -0.01264 0.000291 0 -0.011755 0 2650 
115 1 -0.009032 0.00752551 -0.012506 0.001058 0 -0.011755 0 2650 
33 1 -0.003866 0.0105415 -0.012959 0.00164 0 -0.011755 0 2650 
57 1 -0.00784179 0.012483 -0.012887 0.00164 -0.051925 0.0200641 -0.0904637 2650 
163 1 -0.005911 0.000648515 -0.010628 0.001058 0 -0.011755 0 2650 
138 1 -0.00317958 0.00273865 -0.0114529 0.001058 -0.00785657 -0.0461065 -0.0441548 2650 
198 1 -0.01006 0.00682251 -0.011926 0.000291 0 -0.011755 0 2650 
234 1 -0.003052 0.00691951 -0.010232 0.000291 0 -0.011755 0 2650 
273 1 -0.00119 0.00688151 -0.010246 0.001058 0 -0.011755 0 2650 
47 1 -0.011528 0.00812651 -0.010748 0.000291 0 -0.011755 0 2650 
32 1 -0.00502662 0.00851129 -0.0116596 0.000105 0.00408433 -0.0405512 -0.0362068 2650 
94 1 -0.011581 0.0126035 -0.01188 0.000291 0 -0.011755 0 2650 
91 1 -0.00153679 0.0197556 -0.0106387 0.001058 -0.0674224 0.148351 -0.200163 2650 
166 1 -0.005567 0.000143515 -0.009051 0.000291 0 -0.011755 0 2650 
108 1 -0.007031 0.00288251 -0.009032 0.001058 0 -0.011755 0 2650 
175 1 -0.013247 0.00816651 -0.008751 0.000291 0 -0.011755 0 2650 
41 1 -0.00684056 0.00792889 -0.00911399 0.00164 -0.0426201 0.0149708 -0.0234718 2650 
144 1 -0.011054 0.0127245 -0.008779 0.000105 0 -0.011755 0 2650 
220 1 -0.00836478 0.013277 -0.00889643 0.000291 -0.0258814 0.00931039 0.00803739 2650 
200 1 -0.012172 0.00142651 -0.006974 0.000105 0 -0.011755 0 2650 
293 1 -0.009422 0.000713515 -0.006923 0.001058 0 -0.011755 0 2650 
218 1 -0.00568073 0.00160934 -0.0074475 0.001058 0.00591971 -0.0159874 -0.00632168 2650 
137 1 -0.001323 0.000216515 -0.006126 0.00164 0 -0.011755 0 2650 
250 1 -0.013194 0.00381951 -0.006197 0.001058 0 -0.011755 0 2650 
214 1 -0.008446 0.00113651 -0.004092 0.000291 0 -0.011755 0 2650 
203 1 -0.00672721 0.00275984 -0.0058973 0.001058 0.0108298 -0.0118951 -0.00146797 2650 
76 1 -0.003173 0.00322451 -0.005708 0.001058 0 -0.011755 0 2650 
276 1 -0.013674 0.00971051 -0.004231 0.000291 0 -0.011755 0 2650 
240 1 -0.010392 0.00876851 -0.005262 0.000291 0 -0.011755 0 2650 
74 1 -0.012237 0.0101085 -0.004721 0.001058 0 -0.011755 0 2650 
159 1 -0.012707 0.0127045 -0.00588 0.000291 0 -0.011755 0 2650 
187 1 -0.00970212 0.0124997 -0.00537431 0.001058 -0.0112156 -0.0033076 -0.00319333 2650 
116 1 -0.013496 0.00123651 -0.003353 0.001058 0 -0.011755 0 2650 
90 1 -0.0108946 0.00063407 -0.00303104 0.001058 0.00769491 -0.0700265 0.031251 2650 
43 1 -0.00809911 0.00252298 -0.00372719 0.001058 0.021172 -0.0262086 0.0149909 2650 
270 1 -0.006476 0.00265151 -0.003483 0.000291 0 -0.011755 0 2650 
211 1 -0.013621 0.00445051 -0.002856 0.001058 0 -0.011755 0 2650 
274 1 -0.016349 0.00657551 -0.002509 0.000291 0 -0.011755 0 2650 
114 1 -0.012867 0.00710651 -0.002401 0.001058 0 -0.011755 0 2650 
13 1 -0.014201 0.00881051 -0.003882 0.000291 0 -0.011755 0 2650 
104 1 -0.014089 0.00949251 -0.003012 0.000105 0 -0.011755 0 2650 
256 1 -0.0103582 0.0109665 -0.00379374 0.000291 -0.0123982 -0.000129637 -0.00545733 2650 
65 1 -0.00882144 0.0099863 -0.00303204 0.00164 -0.00345901 0.0120485 0.00345367 2650 
7 1 -0.008475 0.0124315 -0.002976 0.000291 0 -0.011755 0 2650 
180 1 -0.015098 0.000485515 -0.001623 0.001058 0 -0.011755 0 2650 
123 1 -0.014683 0.00198051 -0.000117 0.001058 0 -0.011755 0 2650 
131 1 -0.0122922 0.00320037 -0.000379839 0.001058 -0.0285413 -0.0462991 0.0286753 2650 
140 1 -0.0087636 0.00263458 -0.000701031 0.001058 0.00884369 -0.039642 0.00959408 2650 
195 1 -0.00937215 0.00490482 -0.000578102 0.001058 0.0113575 -0.0204345 0.047058 2650 
223 1 -0.00636737 0.00518016 -0.00130328 0.001058 0.0415501 -0.0223204 0.0172409 2650 
10 1 -0.012845 0.0101945 -0.000712 0.001058 0 -0.011755 0 2650 
61 1 -0.016439 0.0124225 -0.001038 0.000291 0 -0.011755 0 2650 
136 1 -0.00331298 0.0169391 -0.00129375 0.000105 -0.0729053 0.12081 -0.0484832 2650 
99 1 -0.011672 9.85148e-05 9.8e-05 0.001058 0 -0.011755 0 2650 
75 1 -0.008381 0.000188515 0.001024 0.001058 0 -0.011755 0 2650 
135 1 -0.0031909 0.000283139 0.000368231 0.000291 0.018454 0.00911816 -0.0138033 2650 
122 1 -0.001782 0.000914515 0.000344 0.001058 0 -0.011755 0 2650 
206 1 -0.013164 0.00248251 0.001584 0.000291 0 -0.011755 0 2650 
14 1 -0.006378 0.00351751 0.001478 0.000291 0 -0.011755 0 2650 
191 1 -0.0108 0.00484951 0.001549 0.000291 0 -0.011755 0 2650 
168 1 -0.007536 0.00586051 0.001389 0.000105 0 -0.011755 0 2650 
296 1 -0.005879 0.00399551 0.000521 0.000291 0 -0.011755 0 2650 
120 1 -0.016055 0.00806251 0.000189 0.000105 0 -0.011755 0 2650 
209 1 -0.010932 0.00797451 0.001176 0.001058 0 -0.011755 0 2650 
80 1 -0.014935 0.0107605 0.00039 0.000105 0 -0.011755 0 2650 
268 1 -0.011054 0.0112845 0.000789 0.000291 0 -0.011755 0 2650 
129 1 -0.008713 0.0110985 0.001908 0.00164 0 -0.011755 0 2650 
132 1 -0.01481 0.000916515 0.003327 0.001058 0 -0.011755 0 2650 
106 1 -0.009716 0.000516515 0.002779 0.001058 0 -0.011755 0 2650 
158 1 -0.007297 5.95148e-05 0.003049 0.000291 0 -0.011755 0 2650 
149 1 -0.004792 1.35148e-05 0.002724 0.000291 0 -0.011755 0 2650 
272 1 -0.001203 0.000920515 0.002609 0.001058 0 -0.011755 0 2650 
124 1 -0.014115 0.00355351 0.003875 0.001058 0 -0.011755 0 2650 
302 1 -0.008928 0.00374751 0.003809 0.000291 0 -0.011755 0 2650 
18 1 -0.005138 0.00505451 0.00212 0.001058 0 -0.011755 0 2650 
52 1 -0.00395875 0.00740155 0.0032821 0.001058 -0.0709318 -0.0184059 -0.0080994 2650 
176 1 -0.003983 0.00939951 0.002552 0.000105 0 -0.011755 0 2650 
242 1 -0.00393033 0.00886526 0.00356952 0.000291 -0.00954886 0.00781474 0.00295974 2650 
245 1 -0.00487776 0.0175442 0.00327241 0.001058 -0.00877598 0.0648343 0.053396 2650 
11 1 -0.0116991 0.0190003 0.0031321 0.001058 -0.086582 0.108675 0.069531 2650 
49 1 -0.007469 0.00118351 0.004859 0.00164 0 -0.011755 0 2650 
182 1 -0.007428 0.00333351 0.005665 0.000291 0 -0.011755 0 2650 
58 1 -0.009725 0.00501451 0.005089 0.001058 0 -0.011755 0 2650 
28 1 -0.013611 0.00739751 0.005538 0.001058 0 -0.011755 0 2650 
170 1 -0.01149 0.00753251 0.005193 0.001058 0 -0.011755 0 2650 
53 1 -0.000389 0.00613751 0.004762 0.000291 0 -0.011755 0 2650 
238 1 -0.009207 0.00828551 0.004742 0.001058 0 -0.011755 0 2650 
77 1 -0.00502468 0.00865872 0.00433744 0.000291 -0.0659618 0.0071766 0.0150346 2650 
164 1 -0.003894 0.00843551 0.005467 0.001058 0 -0.011755 0 2650 
291 1 -0.008194 0.0128095 0.004767 0.000291 0 -0.011755 0 2650 
266 1 -0.0128194 0.00179826 0.00779457 0.001058 0.00105428 -0.0117776 0.00184446 2650 
235 1 -0.001066 0.000676515 0.007831 0.000291 0 -0.011755 0 2650 
64 1 -0.001837 0.00110151 0.007035 0.000105 0 -0.011755 0 2650 
254 1 -0.006211 0.00367251 0.006905 0.000291 0 -0.011755 0 2650 
98 1 -0.001703 0.00599851 0.00616 0.001058 0 -0.011755 0 2650 
186 1 -0.006177 0.0107515 0.006545 0.001058 0 -0.011755 0 2650 
12 1 -0.000551172 0.0658586 0.00639469 0.001058 0.0647213 0.549795 -0.169615 2650 
111 1 -0.009474 0.000746515 0.008964 0.000291 0 -0.011755 0 2650 
44 1 -0.007195 0.00288851 0.008791 0.001058 0 -0.011755 0 2650 
251 1 -0.00397991 0.0091152 0.00977577 0.001058 -0.031714 -0.0278746 0.036794 2650 
304 1 -0.012709 0.0120905 0.009818 0.000291 0 -0.011755 0 2650 
4 1 -0.013492 0.0119695 0.008313 0.001058 0 -0.011755 0 2650 
97 1 -0.00997103 0.000481628 0.0115083 0.00164 -0.0275123 -0.0132882 -0.0225105 2650 
38 1 -0.000348 0.000509515 0.010029 0.000291 0 -0.011755 0 2650 
233 1 -0.001796 0.00343451 0.010436 0.000291 0 -0.011755 0 2650 
35 1 -0.002198 0.00689551 0.010984 0.001058 0 -0.011755 0 2650 
217 1 -0.00788516 0.00888374 0.0115656 0.001058 -0.0106168 0.0279099 0.00374771 2650 
224 1 -0.00528943 0.0092121 0.0116362 0.001058 0.00642458 -0.00461224 0.0070675 2650 
299 1 -0.010562 0.0105315 0.010709 0.001058 0 -0.011755 0 2650 
68 1 -0.00483713 0.0112194 0.0109278 0.001058 0.00272783 -0.00342387 -0.00169301 2650 
71 1 -0.000634358 0.0115569 0.010736 0.000291 -0.0104586 -0.0101041 0.055119 2650 
55 1 -0.01171 0.0125585 0.01034 0.000291 0 -0.011755 0 2650 
226 1 -0.009224 0.00440651 0.012787 0.000291 0 -0.011755 0 2650 
300 1 -0.00900435 0.00706334 0.012975 0.001058 -0.0070311 -0.00989347 -0.0019089 2650 
285 1 -0.00586266 0.00754592 0.0130312 0.001058 -0.00795457 0.0243574 0.0656623 2650 
100 1 -0.00105811 0.00780019 0.0128261 0.001058 0.00171616 -0.0143968 0.000728218 2650 
249 1 -0.00688447 0.00858986 0.0133325 0.000291 0.00734877 0.000399267 0.0242708 2650 
153 1 -0.00297092 0.00991222 0.0133573 0.00164 -0.0163422 -0.018073 0.0437888 2650 
202 1 -0.00350245 0.00664543 0.0141452 0.001058 0.0436761 0.0285453 -0.0430067 2650 
29 1 -0.0052 0.00820951 0.014245 0.000291 0 -0.011755 0 2650 
265 1 -0.000465 0.00906251 0.015551 0.001058 0 -0.011755 0 2650 
156 1 -0.000839169 0.0119729 0.0146847 0.001058 0.0105273 0.00111324 0.0241494 2650 
290 1 0.0271783 -0.0387905 -0.0631114 0.000291 -3.48112 -0.400939 -1.53537 2650 
22 1 0.0417628 -0.0345367 -0.0545575 0.000291 -2.90395 -0.328501 -2.23864 2650 
69 1 0.0519027 -0.0182809 -0.0449578 0.000291 -2.18961 -0.240536 -2.73295 2650 
169 1 0.0582476 -0.0537031 -0.0338686 0.00164 -2.84084 -0.245609 -4.69726 2650 
165 1 0.00929362 -0.0066466 -0.0315017 0.000291 1.53251 -0.447903 -4.49515 2650 
172 1 0.00127894 -0.00273926 -0.0147983 0.001058 -0.00810001 -0.00415547 -0.0111362 2650 
292 1 0.002958 -0.00135049 -0.012416 0.001058 0 -0.011755 0 2650 
83 1 0.007342 -0.000538485 -0.011981 0.001058 0 -0.011755 0 2650 
188 1 0.003247 -0.00239649 -0.009042 0.001058 0 -0.011755 0 2650 
162 1 0.010619 -0.000844485 -0.009864 0.001058 0 -0.011755 0 2650 
109 1 0.0089 -0.00258049 -0.006999 0.000291 0 -0.011755 0 2650 
40 1 0.002884 -0.000632485 -0.006462 0.000105 0 -0.011755 0 2650 
185 1 0.007006 -0.00115749 -0.006884 0.00164 0 -0.011755 0 2650 
221 1 0.006551 -0.00262049 -0.004504 0.000291 0 -0.011755 0 2650 
62 1 0.005002 -0.00177349 -0.004312 0.000291 0 -0.011755 0 2650 
16 1 0.006364 -0.000504485 -0.005251 0.000105 0 -0.011755 0 2650 
39 1 0.011011 -0.000817485 -0.005294 0.000291 0 -0.011755 0 2650 
8 1 0.000989 -0.000779485 -0.00369 0.000105 0 -0.011755 0 2650 
20 1 0.013152 -0.00174849 -0.002682 0.001058 0 -0.011755 0 2650 
239 1 0.008697 -0.00196149 -0.000945 0.001058 0 -0.011755 0 2650 
248 1 0.008036 -0.000910485 -0.000368 0.000291 0 -0.011755 0 2650 
87 1 0.010454 -0.00177949 -0.001717 0.000291 0 -0.011755 0 2650 
255 1 0.005303 -0.000607485 0.000727 0.000291 0 -0.011755 0 2650 
288 1 0.006653 -0.00195449 0.001326 0.000291 0 -0.011755 0 2650 
179 1 0.002629 -0.00225949 0.002938 0.001058 0 -0.011755 0 2650 
121 1 0.013566 -0.00133249 0.003132 0.00164 0 -0.011755 0 2650 
247 1 0.001401 -0.000758485 0.005706 0.000291 0 -0.011755 0 2650 
21 1 0.0682132 -0.023217 0.00689982 0.000291 0.465158 -1.1838 -3.24557 2650 
192 1 0.012227 -0.00300349 0.006398 0.000105 0 -0.011755 0 2650 
15 1 0.012888 -0.00255949 0.009988 0.000291 0 -0.011755 0 2650 
193 1 0.00612276 -0.00100076 0.00869911 0.00164 -0.00920003 -0.0416499 -0.0118576 2650 
243 1 0.01084 -0.000190485 0.008454 0.001058 0 -0.011755 0 2650 
281 1 0.006175 -0.00306249 0.011215 0.000291 0 -0.011755 0 2650 
181 1 0.012465 -0.00181949 0.010211 0.000291 0 -0.011755 0 2650 
119 1 0.0672102 -0.051856 0.0142776 0.000291 0.810723 -0.823597 -3.39433 2650 
147 1 0.000907641 -0.00104954 0.014429 0.001058 0.136028 0.0197028 -0.0352369 2650 
25 1 0.0627354 -0.0491914 0.0246228 0.00164 1.83397 -0.170823 -4.72905 2650 
236 1 0.0286497 -0.0130698 0.0386893 0.001058 4.27892 -0.770888 5.73836 2650 
34 1 0.0465722 -0.00844916 0.0494711 0.001058 3.66021 -0.112878 -3.51475 2650 
146 1 0.0426304 -0.0342493 0.0528997 0.001058 3.06983 -0.617199 -2.34458 2650 
152 1 0.0306819 -0.0238915 0.0616881 0.000105 3.20462 -0.0840931 -1.61444 2650 
155 1 0.005921 0.000329515 -0.01427 0.001058 0 -0.011755 0 2650 
46 1 0.007499 0.00353351 -0.014091 0.000291 0 -0.011755 0 2650 
303 1 0.001598 0.00409651 -0.015917 0.000291 0 -0.011755 0 2650 
160 1 0.004468 0.00521951 -0.014641 0.000105 0 -0.011755 0 2650 
130 1 1.4e-05 0.00618751 -0.015674 0.001058 0 -0.011755 0 2650 
269 1 0.002277 0.00636051 -0.015181 0.000291 0 -0.011755 0 2650 
37 1 0.006156 0.0121225 -0.015157 0.000291 0 -0.011755 0 2650 
237 1 0.005321 0.00279651 -0.012467 0.001058 0 -0.011755 0 2650 
263 1 0.006877 0.00561651 -0.012319 0.000291 0 -0.011755 0 2650 
289 1 0.001465 0.00678351 -0.012477 0.000291 0 -0.011755 0 2650 
142 1 0.002378 0.00719851 -0.013184 0.000291 0 -0.011755 0 2650 
252 1 0.00245 0.0104935 -0.01336 0.001058 0 -0.011755 0 2650 
78 1 0.001258 0.0121085 -0.012517 0.000291 0 -0.011755 0 2650 
54 1 0.00784881 0.0125883 -0.0126527 0.000291 0.0454566 0.0504589 -0.210549 2650 
141 1 0.004693 0.000284515 -0.010381 0.000291 0 -0.011755 0 2650 
196 1 0.002599 0.00408951 -0.011929 0.001058 0 -0.011755 0 2650 
201 1 0.008831 0.00561251 -0.010349 0.00164 0 -0.011755 0 2650 
275 1 0.012705 0.00985551 -0.010476 0.000291 0 -0.011755 0 2650 
105 1 0.003632 0.0107765 -0.010703 0.00164 0 -0.011755 0 2650 
139 1 0.00018617 0.0129481 -0.0109544 0.001058 0.0288724 0.0119708 -0.0425505 2650 
110 1 0.010451 0.0123995 -0.010748 0.000291 0 -0.011755 0 2650 
213 1 0.001757 0.00112151 -0.008127 0.000291 0 -0.011755 0 2650 
259 1 0.006357 0.00205051 -0.00938 0.001058 0 -0.011755 0 2650 
30 1 0.005625 0.000799515 -0.00604 0.000291 0 -0.011755 0 2650 
67 1 0.00898 0.00348451 -0.006049 0.001058 0 -0.011755 0 2650 
102 1 0.003423 0.00552151 -0.006065 0.000291 0 -0.011755 0 2650 
117 1 0.004754 0.00578351 -0.007063 0.000291 0 -0.011755 0 2650 
134 1 0.011983 0.00553551 -0.006239 0.000291 0 -0.011755 0 2650 
60 1 0.007579 0.00842451 -0.006312 0.001058 0 -0.011755 0 2650 
45 1 0.010575 0.00834451 -0.007722 0.000291 0 -0.011755 0 2650 
271 1 0.001328 0.0102485 -0.00636 0.001058 0 -0.011755 0 2650 
216 1 0.0136814 0.0746059 -0.00726962 0.001058 0.440243 0.523777 0.144223 2650 
197 1 0.007512 0.000937515 -0.004043 0.000291 0 -0.011755 0 2650 
92 1 0.010471 0.000988515 -0.004542 0.001058 0 -0.011755 0 2650 
178 1 0.003641 0.00260351 -0.005569 0.001058 0 -0.011755 0 2650 
260 1 0.010685 0.00313151 -0.004932 0.000291 0 -0.011755 0 2650 
161 1 0.013129 0.00321451 -0.005759 0.00164 0 -0.011755 0 2650 
246 1 0.001376 0.00502251 -0.005453 0.001058 0 -0.011755 0 2650 
279 1 0.011818 0.00747851 -0.00556 0.001058 0 -0.011755 0 2650 
199 1 0.014464 0.00883551 -0.004562 0.000291 0 -0.011755 0 2650 
278 1 7.4e-05 0.0109355 -0.004448 0.001058 0 -0.011755 0 2650 
19 1 0.013799 0.0100075 -0.005439 0.001058 0 -0.011755 0 2650 
284 1 0.014191 0.0117155 -0.005949 0.000291 0 -0.011755 0 2650 
262 1 0.00857272 0.0571286 -0.00496445 0.000291 0.355793 0.466335 -0.0703264 2650 
171 1 0.000459 0.00193851 -0.002783 0.001058 0 -0.011755 0 2650 
173 1 0.002644 0.000444515 -0.002982 0.000291 0 -0.011755 0 2650 
88 1 0.002864 0.00364851 -0.002457 0.000105 0 -0.011755 0 2650 
177 1 0.007332 0.00351451 -0.003583 0.00164 0 -0.011755 0 2650 
205 1 0.005264 0.00401751 -0.002386 0.000291 0 -0.011755 0 2650 
253 1 0.014729 0.00719351 -0.002617 0.000291 0 -0.011755 0 2650 
227 1 0.00944 0.00902251 -0.002109 0.000291 0 -0.011755 0 2650 
6 1 0.004141 0.00137051 -0.001643 0.000291 0 -0.011755 0 2650 
72 1 0.013289 0.000124515 -0.000624 0.000105 0 -0.011755 0 2650 
113 1 0.010337 0.00664851 -0.001708 0.00164 0 -0.011755 0 2650 
190 1 0.005899 0.0117245 -0.000534 0.000291 0 -0.011755 0 2650 
56 1 0.00459 0.000149515 0.000864 0.000105 0 -0.011755 0 2650 
96 1 0.009869 0.00377851 0.000788 0.000105 0 -0.011755 0 2650 
277 1 0.015014 0.00238951 0.001212 0.000291 0 -0.011755 0 2650 
183 1 0.01481 0.00201151 0.000242 0.000291 0 -0.011755 0 2650 
81 1 0.007451 0.00514151 7.8e-05 0.00164 0 -0.011755 0 2650 
261 1 0.011218 0.00531751 0.000328 0.000291 0 -0.011755 0 2650 
48 1 0.009671 0.00961651 0.000233 0.000105 0 -0.011755 0 2650 
128 1 0.00361 0.0113235 0.000511 0.000105 0 -0.011755 0 2650 
9 1 0.012984 0.0113615 0.000468 0.00164 0 -0.011755 0 2650 
286 1 0.015584 0.0120295 0.000132 0.001058 0 -0.011755 0 2650 
27 1 0.0038012 0.0617547 6.31713e-05 0.001058 0.284186 0.519902 -0.0815966 2650 
264 1 0.003305 0.00135451 0.003449 0.001058 0 -0.011755 0 2650 
225 1 0.001446 0.00220851 0.002203 0.001058 0 -0.011755 0 2650 
143 1 0.013105 0.00247851 0.003332 0.000291 0 -0.011755 0 2650 
210 1 0.010971 0.00447151 0.002357 0.001058 0 -0.011755 0 2650 
294 1 0.006997 0.00933051 0.003581 0.001058 0 -0.011755 0 2650 
101 1 0.004812 0.0100465 0.002517 0.000291 0 -0.011755 0 2650 
267 1 0.007574 0.00157551 0.005778 0.000291 0 -0.011755 0 2650 
50 1 0.006699 0.00355851 0.005883 0.001058 0 -0.011755 0 2650 
305 1 0.007934 0.00231751 0.005234 0.000105 0 -0.011755 0 2650 
150 1 0.010064 0.00365951 0.004311 0.000291 0 -0.011755 0 2650 
212 1 0.001087 0.00984051 0.005915 0.000291 0 -0.011755 0 2650 
24 1 0.005464 0.00941251 0.005551 0.000105 0 -0.011755 0 2650 
51 1 0.009662 0.0104855 0.004577 0.001058 0 -0.011755 0 2650 
244 1 0.014869 0.00989851 0.00421 0.001058 0 -0.011755 0 2650 
79 1 0.014214 0.0123255 0.005058 0.000291 0 -0.011755 0 2650 
118 1 0.001179 0.00174051 0.007467 0.000291 0 -0.011755 0 2650 
174 1 0.002361 0.00331151 0.006466 0.000291 0 -0.011755 0 2650 
207 1 0.000324 0.00499751 0.006532 0.000291 0 -0.011755 0 2650 
232 1 0.003256 0.00430951 0.007333 0.001058 0 -0.011755 0 2650 
208 1 0.009461 0.00567351 0.007837 0.001058 0 -0.011755 0 2650 
231 1 0.006459 0.00903751 0.007445 0.001058 0 -0.011755 0 2650 
222 1 0.009219 0.0116845 0.006833 0.001058 0 -0.011755 0 2650 
112 1 0.013668 0.0126485 0.007002 0.000105 0 -0.011755 0 2650 
194 1 0.007709 0.00981651 0.009989 0.001058 0 -0.011755 0 2650 
145 1 0.00374981 0.0107618 0.00862635 0.00164 0.000993456 -0.0124671 3.24591e-05 2650 
301 1 0.0018696 0.0127126 0.00928346 0.001058 0.022503 0.0131388 0.0516978 2650 
1 1 0.002172 0.00231351 0.010007 0.00164 0 -0.011755 0 2650 
228 1 0.010294 0.00282051 0.01009 0.000291 0 -0.011755 0 2650 
103 1 0.005979 0.00601551 0.01127 0.000291 0 -0.011755 0 2650 
258 1 0.009255 0.00710651 0.010506 0.001058 0 -0.011755 0 2650 
66 1 0.001767 0.00969751 0.01167 0.001058 0 -0.011755 0 2650 
298 1 0.003487 0.0107475 0.011695 0.000105 0 -0.011755 0 2650 
126 1 0.00180024 0.01242 0.0106408 0.000291 -0.000669393 -0.021809 0.0558205 2650 
184 1 0.009563 0.000617515 0.012192 0.000105 0 -0.011755 0 2650 
3 1 0.001912 0.00240051 0.013741 0.001058 0 -0.011755 0 2650 
287 1 0.006558 0.00540151 0.013233 0.001058 0 -0.011755 0 2650 
95 1 0.006942 0.00746251 0.013027 0.000291 0 -0.011755 0 2650 
82 1 0.000755 0.00498451 0.014898 0.001058 0 -0.011755 0 2650 
