ITEM: TIMESTEP
21855707
ITEM: NUMBER OF ATOMS
261
ITEM: BOX BOUNDS ff ff ff
-0.15 0.15
-0.15 0.15
-0.15 0.15
ITEM: ATOMS id type x y z radius vx vy vz density 
112 1 -0.00672531 -0.0290211 -0.0685645 0.000105 -9.71632 -0.70374 0.950074 2650 
248 1 -0.00317511 -0.0230545 -0.0686337 0.000291 -10.4289 0.389311 0.482375 2650 
138 1 -0.0080221 -0.0560196 -0.0674708 0.001058 -10.5759 0.00250411 1.25739 2650 
146 1 -0.00992298 -0.048861 -0.067226 0.001058 -10.5594 -0.00012842 1.55864 2650 
271 1 -0.0120043 -0.0161871 -0.0668911 0.001058 -9.92435 0.157949 1.83614 2650 
93 1 -0.0291503 -0.0493822 -0.0622435 0.000291 -9.7786 -0.00559248 4.5796 2650 
179 1 -0.027921 -0.0488636 -0.0619721 0.001058 -9.72868 -0.000946531 4.38334 2650 
165 1 -0.0292981 -0.045706 -0.0621771 0.000291 -9.76691 -5.7264e-05 4.6022 2650 
49 1 -0.0306132 -0.049085 -0.0600415 0.00164 -9.43127 -0.000228969 4.80869 2650 
59 1 -0.0283706 -0.0465968 -0.0617697 0.001058 -9.70272 0.00010074 4.45641 2650 
295 1 -0.0331898 -0.0271785 -0.0601571 0.000291 -9.04936 -0.0772331 4.99572 2650 
214 1 -0.0355267 -0.0509623 -0.0588286 0.000291 -8.9074 -0.132112 5.37785 2650 
257 1 -0.033681 -0.0488404 -0.0590354 0.001058 -9.27372 0.000720453 5.29086 2650 
267 1 -0.0443262 -0.0159242 -0.0524998 0.000291 -7.64385 -0.146104 6.45497 2650 
282 1 -0.0435139 -0.0172628 -0.0531764 0.000291 -7.65416 -0.191809 6.26408 2650 
277 1 -0.0485066 -0.0339137 -0.0486609 0.000291 -7.38763 0.10838 7.36466 2650 
208 1 -0.0480227 -0.0308698 -0.0482637 0.001058 -7.58125 6.35492e-08 7.54339 2650 
190 1 -0.0496195 -0.0119557 -0.0474818 0.000291 -6.00288 -0.243993 6.21321 2650 
223 1 -0.0565628 -0.0184527 -0.0376655 0.001058 -5.90668 -0.133533 8.86961 2650 
186 1 -0.0553644 -0.0188529 -0.0393627 0.001058 -6.14776 0.0950157 8.64523 2650 
302 1 -0.059119 -0.0499783 -0.0350381 0.000291 -5.44117 0.286607 9.18196 2650 
21 1 -0.0621354 -0.0497532 -0.0293783 0.000291 -4.62015 -0.016827 9.77161 2650 
158 1 -0.0621963 -0.0154459 -0.0292562 0.000291 -4.05594 -0.362646 8.63338 2650 
47 1 -0.0634791 -0.0122506 -0.0263507 0.000291 -3.41189 -0.242328 8.22217 2650 
171 1 -0.0630997 -0.0495213 -0.0252666 0.001058 -3.97364 -0.0133117 9.92443 2650 
225 1 -0.0635195 -0.0476459 -0.0241988 0.001058 -3.80162 -0.000117244 9.97897 2650 
90 1 -0.063882 -0.0494854 -0.0232178 0.001058 -3.64692 -0.00117962 10.0342 2650 
23 1 -0.0650319 -0.0486256 -0.0222479 0.000291 -3.49819 -0.0896747 10.2257 2650 
76 1 -0.0654396 -0.0447133 -0.0183675 0.001058 -2.87792 0.0453708 10.2578 2650 
14 1 -0.0675697 -0.0384838 -0.0124826 0.000291 -1.94229 0.53512 10.5179 2650 
74 1 -0.00853611 -0.0012374 -0.0126664 0.001058 0.00552843 -0.00502923 -0.00272883 2650 
58 1 -0.00324388 -0.000371346 -0.012573 0.001058 0.020455 0.00490158 -0.0306807 2650 
71 1 -0.000420522 -0.00114137 -0.0119017 0.000291 0.000861808 -0.00718564 -0.0173142 2650 
135 1 -0.00696388 -0.00279228 -0.00967089 0.000291 0.00330025 -0.00264717 0.00636962 2650 
44 1 -0.0680838 -0.0308749 -0.000170128 0.001058 -0.0267115 -0.000241989 10.6925 2650 
29 1 -0.068707 -0.0112324 -0.000431539 0.000291 -0.065927 -0.0397195 10.0501 2650 
200 1 -0.0688927 -0.00983923 0.000410477 0.000105 0.0312655 0.192964 9.48259 2650 
22 1 -0.0687015 -0.0304408 0.000951158 0.000291 0.149375 -0.0592374 10.8109 2650 
173 1 -0.0685944 -0.0162283 0.00313289 0.000291 0.479732 0.122271 10.4736 2650 
253 1 -0.0683566 -0.0221328 0.00669828 0.000291 1.05018 -0.19616 10.7893 2650 
55 1 -0.0683393 -0.0109167 0.00701917 0.000291 1.01993 -0.77592 10.1488 2650 
227 1 -0.0681713 -0.0453478 0.00862969 0.000291 1.35526 -0.0259501 10.7059 2650 
95 1 -0.000853945 -0.000197632 0.0117408 0.000291 -0.0190214 0.000188354 -0.00919676 2650 
46 1 -0.0673899 -0.0210199 0.0134035 0.000291 1.9593 -0.157248 9.85948 2650 
98 1 -0.0666783 -0.0183114 0.013128 0.001058 2.02378 0.000139395 10.2906 2650 
275 1 -0.0671546 -0.0153411 0.0145437 0.000291 2.33883 0.395844 10.8034 2650 
94 1 -0.0669187 -0.0148594 0.015662 0.000291 2.46661 -0.022938 10.5424 2650 
100 1 -0.0658518 -0.0183849 0.0168053 0.001058 2.62861 0.0477555 10.2989 2650 
107 1 -0.0646896 -0.0491699 0.0208633 0.001058 3.28311 -0.0229567 10.1784 2650 
16 1 -0.0655155 -0.00451543 0.0213044 0.000105 3.3493 0.543619 10.2971 2650 
177 1 -0.063154 -0.0177416 0.0235318 0.00164 3.81885 -0.106377 10.0396 2650 
117 1 -0.0637581 -0.0205756 0.0256477 0.000291 3.76329 0.215209 9.36832 2650 
212 1 -0.0638358 -0.0134224 0.0254808 0.000291 4.09446 -0.107801 10.2616 2650 
235 1 -0.0626073 -0.0191543 0.02835 0.000291 4.51273 -0.323086 9.96207 2650 
252 1 -0.0625497 -0.0159271 0.0266074 0.001058 4.27806 -0.079199 10.0577 2650 
261 1 -0.0610286 -0.0321927 0.0315611 0.000291 4.73737 -0.113621 9.15679 2650 
221 1 -0.0599635 -0.0227253 0.0335598 0.000291 4.64337 0.0674807 8.29047 2650 
207 1 -0.059962 -0.0132778 0.0335881 0.000291 5.44393 0.169199 9.71964 2650 
39 1 -0.0585527 -0.0440306 0.0359777 0.000291 5.59526 -0.112988 9.10868 2650 
268 1 -0.0587156 -0.0163294 0.0357209 0.000291 5.84163 0.0257729 9.60227 2650 
276 1 -0.0533606 -0.0307936 0.0432874 0.000291 6.8161 -0.0648138 8.40244 2650 
210 1 -0.0502474 -0.0341981 0.045736 0.001058 7.13972 0.0257229 7.84301 2650 
251 1 -0.0482629 -0.030875 0.0480221 0.001058 7.5433 -2.12558e-08 7.58112 2650 
169 1 -0.0461358 -0.0611601 0.0490995 0.00164 7.71248 4.57202e-07 7.24694 2650 
246 1 -0.0464237 -0.0585276 0.0496155 0.001058 7.79379 -1.66622e-05 7.2924 2650 
241 1 -0.0487785 -0.0375526 0.0483885 0.000291 7.58317 0.249826 7.64435 2650 
145 1 -0.0462276 -0.0392239 0.049011 0.00164 7.70007 -0.0362087 7.26271 2650 
206 1 -0.0466978 -0.062509 0.0504017 0.000291 7.91705 1.86283e-09 7.33525 2650 
25 1 -0.0438766 -0.0588111 0.0511262 0.00164 8.03093 -5.66175e-05 6.89215 2650 
178 1 -0.0429988 -0.0567366 0.052611 0.001058 8.26414 -4.26589e-05 6.75425 2650 
102 1 -0.0422193 -0.02131 0.0542121 0.000291 7.98993 0.656188 6.22641 2650 
133 1 -0.0406744 -0.0282891 0.0553739 0.000291 8.52118 -0.105136 6.25872 2650 
231 1 -0.0329255 -0.0443836 0.0594631 0.001058 9.33623 -0.0162688 5.16966 2650 
37 1 -0.0357315 -0.0267047 0.0586846 0.000291 8.85048 -0.365803 5.39023 2650 
137 1 -0.0165372 -0.0611601 0.0653119 0.00164 10.2587 -8.16432e-07 2.59753 2650 
291 1 -0.0243737 -0.0509545 0.0642601 0.000291 10.1936 0.361825 3.86648 2650 
103 1 -0.0196352 -0.0455986 0.0658648 0.000291 10.2212 0.041295 3.04649 2650 
164 1 -0.0158196 -0.0459149 0.0660992 0.001058 10.4843 0.103077 2.50504 2650 
226 1 -0.0164856 -0.0445617 0.0667177 0.000291 10.3923 0.193776 2.56709 2650 
3 1 -0.0150419 -0.0300317 0.0662623 0.001058 10.3451 -0.0978733 2.34868 2650 
202 1 -0.010176 -0.0307695 0.0671876 0.001058 10.5569 0.0111867 1.59892 2650 
132 1 -0.0069052 -0.0181962 0.0675807 0.001058 10.6974 -0.05203 1.08546 2650 
167 1 -0.0138572 -0.0126375 0.0673073 0.000291 8.55071 -0.172431 1.79505 2650 
192 1 -0.012892 -0.000104996 0.0676772 0.000105 8.99764 2.63384e-07 1.72423 2650 
304 1 -0.00326182 -0.009173 0.0685779 0.000291 10.6352 -0.112285 0.503865 2650 
285 1 -0.000170268 -0.030875 0.0680838 0.001058 10.6946 -2.12543e-08 0.0267458 2650 
54 1 -0.00259206 0.0323385 -0.0163444 0.000291 -0.0456257 -0.00191838 0.00800837 2650 
134 1 -0.00585527 0.00783447 -0.0151661 0.000291 -0.00544633 0.00352621 0.00729171 2650 
97 1 -0.00299323 0.0108205 -0.0145437 0.00164 0.0189231 0.00904729 -0.00561719 2650 
80 1 -0.00379874 0.023841 -0.0158764 0.000105 0.0200167 0.0220396 -0.007602 2650 
51 1 -0.00892592 0.0239876 -0.0122401 0.001058 -0.0414136 0.0415048 -0.0353246 2650 
232 1 -0.00893731 0.040922 -0.0128784 0.001058 -0.0196298 0.0266647 0.016804 2650 
301 1 -0.00227448 0.0454552 -0.0122384 0.001058 -0.0176549 0.0163122 0.00371725 2650 
10 1 -0.0114063 0.0105014 -0.0104575 0.001058 0.0053433 0.0061558 -0.0070677 2650 
130 1 -0.00795239 0.00357498 -0.00941218 0.001058 -0.00692202 0.00347734 0.00595777 2650 
67 1 -0.0144846 0.0224127 -0.00589058 0.001058 -0.0104976 0.0129104 0.0114407 2650 
113 1 -0.00288484 0.00533522 -0.00225776 0.00164 -0.0131936 -0.00156564 -0.00033725 2650 
129 1 -0.00154402 0.0131628 -0.00324474 0.00164 -0.00374589 0.0128173 -0.00288427 2650 
7 1 -0.00223767 0.0346044 -0.00339057 0.000291 0.00378858 0.0136367 -0.000251809 2650 
65 1 -0.0149575 0.0320829 -0.000961394 0.00164 0.00199904 0.0128894 0.00103488 2650 
205 1 -0.0106609 0.00370222 0.00330018 0.000291 -0.00881861 0.00364628 0.0236275 2650 
234 1 -0.0134844 0.0119604 0.00227125 0.000291 -0.00131366 0.00431637 0.0126772 2650 
256 1 -0.0155724 0.02759 0.00596596 0.000291 0.000881351 0.0216623 0.00465977 2650 
217 1 -0.00902408 0.0535249 0.0042731 0.001058 0.000747792 0.0265619 -0.00553463 2650 
211 1 -0.0120486 0.00757195 0.00767668 0.001058 0.000982608 0.00314487 0.00709992 2650 
115 1 -0.0138616 0.0207239 0.00766006 0.001058 0.0059455 0.0116516 0.00703082 2650 
209 1 -0.0121877 0.000372074 0.00989211 0.001058 0.0110369 -0.0181584 0.0135773 2650 
222 1 -0.00656424 0.00160479 0.00967996 0.001058 -0.0324875 0.00467874 -0.0112895 2650 
68 1 -0.000281698 0.00550158 0.00810053 0.001058 0.00272783 -0.00342387 -0.00169301 2650 
187 1 -0.012905 0.0309074 0.00923059 0.001058 0.00749407 0.0151236 0.010031 2650 
273 1 -0.000121506 0.0643487 0.00884287 0.001058 0.00511 0.0387776 -0.00978519 2650 
224 1 -0.00812776 0.0170434 0.0107736 0.001058 0.0046856 0.00178326 -0.00382818 2650 
220 1 -0.010448 0.0304727 0.0107422 0.000291 0.00991537 0.0130183 0.0124552 2650 
28 1 -0.00763009 0.074186 0.0100583 0.001058 0.00734507 0.0503926 0.00344867 2650 
299 1 -0.00449795 0.000772986 0.0130551 0.001058 0.00581403 -0.00322581 0.00124072 2650 
4 1 -0.00610604 0.00893457 0.0145871 0.001058 0.0064118 0.000915196 0.00341804 2650 
266 1 -0.00211448 0.0155258 0.0156767 0.001058 0.0361033 0.0108265 0.00218898 2650 
244 1 -0.00619443 0.0211496 0.0142992 0.001058 0.0327341 0.0229953 0.0151094 2650 
128 1 0.0079168 -0.0127474 -0.0684271 0.000105 -8.49704 0.200678 -0.995347 2650 
159 1 0.0109509 -0.0342321 -0.0678286 0.000291 -10.8438 0.196546 -1.75128 2650 
182 1 0.016275 -0.0187269 -0.0667606 0.000291 -8.74815 -0.261406 -2.16153 2650 
6 1 0.0138409 -0.0155725 -0.0673047 0.000291 -9.00964 -0.224916 -1.83893 2650 
175 1 0.0112289 -0.00945797 -0.0677902 0.000291 -9.00474 0.186805 -1.52081 2650 
296 1 0.0162964 -0.00620943 -0.0667505 0.000291 -8.87108 -0.0556874 -2.17526 2650 
236 1 0.0174403 -0.0616428 -0.0656708 0.001058 -10.3157 -0.000244374 -2.73956 2650 
247 1 0.0273896 -0.0496683 -0.0630374 0.000291 -9.90456 0.00641338 -4.30366 2650 
254 1 0.0282847 -0.0503645 -0.0626394 0.000291 -9.86295 -0.0247314 -4.45377 2650 
45 1 0.0261 -0.0090937 -0.0635712 0.000291 -8.49502 0.463661 -3.48068 2650 
110 1 0.0274714 -0.00972572 -0.0629938 0.000291 -8.196 0.221643 -3.5694 2650 
188 1 0.0288323 -0.0616399 -0.0615272 0.001058 -9.66549 -0.000716412 -4.52932 2650 
218 1 0.0280145 -0.0492063 -0.0619293 0.001058 -9.72667 0.000466262 -4.39997 2650 
148 1 0.0327728 -0.0531335 -0.0595342 0.001058 -9.3516 -0.000408342 -5.14793 2650 
35 1 0.0319919 -0.0508738 -0.0599651 0.001058 -9.41877 -0.000115987 -5.02501 2650 
43 1 0.0345885 -0.0500032 -0.0585065 0.001058 -9.17835 -0.00593416 -5.42634 2650 
20 1 0.0368263 -0.055526 -0.0571067 0.001058 -8.97022 -0.000152417 -5.78461 2650 
172 1 0.0384506 -0.0547042 -0.0560279 0.001058 -8.80086 0.000170898 -6.03982 2650 
193 1 0.0381504 -0.0498677 -0.0555465 0.00164 -8.72476 -0.00010089 -5.99234 2650 
61 1 0.0398668 -0.0197979 -0.0559702 0.000291 -7.86723 0.369213 -5.60091 2650 
255 1 0.0402763 -0.0166806 -0.0556788 0.000291 -7.71057 -0.153208 -5.57543 2650 
42 1 0.0409854 -0.0548063 -0.0541985 0.001058 -8.51308 -0.00164958 -6.43764 2650 
81 1 0.0419111 -0.050012 -0.0527562 0.00164 -8.28702 0.000401783 -6.58347 2650 
162 1 0.0421185 -0.0473832 -0.0533267 0.001058 -8.37658 0.000411005 -6.61598 2650 
40 1 0.0427786 -0.000105485 -0.054003 0.000105 -6.20148 0.000950866 -4.89838 2650 
185 1 0.0449221 -0.0518691 -0.0502107 0.00164 -7.88695 0.000104003 -7.05625 2650 
34 1 0.0482629 -0.030875 -0.0480221 0.001058 -7.5433 -2.12563e-08 -7.58112 2650 
184 1 0.0592109 -0.0339896 -0.0352154 0.000105 -4.95677 -0.27166 -8.35064 2650 
300 1 0.0634171 -0.0217935 -0.0244241 0.001058 -3.47044 -0.123659 -9.02101 2650 
197 1 0.0656672 -0.0137851 -0.0202926 0.000291 -2.24509 -0.162312 -7.23441 2650 
26 1 0.065786 -0.0495444 -0.0170791 0.001058 -2.68277 8.45251e-05 -10.3336 2650 
88 1 0.066566 -0.00125862 -0.0177495 0.000105 -2.39813 -0.259451 -8.95888 2650 
48 1 0.0682623 -0.0492833 -0.00936238 0.000105 -1.50256 -0.0777239 -10.9543 2650 
101 1 0.0149343 -4.65871e-05 -0.00640311 0.000291 0.0107852 -0.0015929 -0.0095042 2650 
269 1 0.0686305 -0.0163807 -0.0032503 0.000291 -0.479392 -0.255272 -10.0116 2650 
78 1 0.0686701 -0.0300116 -0.0023011 0.000291 -0.356223 0.194606 -10.6213 2650 
303 1 0.0687076 -0.0197805 -0.000475836 0.000291 -0.0663147 -0.0680977 -9.5376 2650 
82 1 0.067941 -0.0418766 0.000987604 0.001058 0.154804 -0.00839748 -10.6519 2650 
294 1 0.0680838 -0.030875 0.000170268 0.001058 0.0267458 -2.1209e-08 -10.6946 2650 
118 1 0.0687092 -0.0196973 0.000196356 0.000291 0.0337972 -0.17946 -9.47014 2650 
168 1 0.0687457 -0.029464 0.00451777 0.000105 0.650487 0.13815 -9.87589 2650 
85 1 0.0684945 -0.013418 0.00542347 0.000291 0.723226 0.247157 -9.09533 2650 
131 1 0.0673889 -0.0484669 0.00874835 0.001058 1.37409 -0.00234645 -10.5849 2650 
125 1 0.0679953 -0.0356505 0.00986333 0.000291 1.59125 -0.0883449 -10.9695 2650 
250 1 0.00287812 -0.00247861 0.0151865 0.001058 0.0161046 -0.00542442 -0.00110725 2650 
170 1 0.00621961 -0.00279663 0.0142958 0.001058 0.0153298 -0.00470662 -0.00726617 2650 
219 1 0.0672676 -0.000291054 0.0139987 0.000291 1.85682 0.00126296 -8.89081 2650 
239 1 0.0654563 -0.049917 0.0183027 0.001058 2.87471 -0.000324842 -10.2808 2650 
24 1 0.0665825 -0.0107201 0.0177528 0.000105 2.75251 -0.45506 -10.3224 2650 
119 1 0.0654901 -0.0503601 0.0208458 0.000291 3.26742 -0.012157 -10.265 2650 
230 1 0.0648154 -0.0487438 0.0204637 0.001058 3.21428 -0.000397296 -10.1807 2650 
288 1 0.065877 -0.048585 0.0196 0.000291 3.0823 -0.0324599 -10.3599 2650 
50 1 0.0650619 -0.0404378 0.0196357 0.001058 3.1322 -0.177008 -10.3732 2650 
87 1 0.0657639 -0.0192007 0.0199579 0.000291 2.76601 0.0185936 -9.07324 2650 
104 1 0.0655507 -0.0188726 0.0212647 0.000105 2.91617 0.2957 -8.97129 2650 
36 1 0.0641562 -0.0484545 0.0224534 0.001058 3.52678 -0.00115511 -10.077 2650 
108 1 0.0631091 -0.0476925 0.0252528 0.001058 3.97207 -0.0189871 -9.92641 2650 
191 1 0.0645298 -0.0479576 0.0236691 0.000291 3.71534 0.00278139 -10.1294 2650 
140 1 0.0637464 -0.0465396 0.023597 0.001058 3.71644 -0.0404029 -10.0398 2650 
213 1 0.0630493 -0.0469667 0.0273724 0.000291 4.27938 0.0391371 -9.85716 2650 
60 1 0.0622138 -0.043108 0.0273712 0.001058 4.29965 0.00063163 -9.77297 2650 
201 1 0.0612452 -0.0455082 0.0281326 0.00164 4.41931 0.000580552 -9.6209 2650 
278 1 0.0614 -0.0331749 0.0290937 0.001058 4.55541 0.0753251 -9.61493 2650 
259 1 0.0613678 -0.0308992 0.029219 0.001058 4.58871 -0.000191539 -9.63755 2650 
122 1 0.0612924 -0.0287871 0.0293175 0.001058 4.60535 -3.62703e-05 -9.62814 2650 
243 1 0.0610799 -0.0508399 0.0298106 0.001058 4.6826 -0.000303058 -9.59435 2650 
150 1 0.00030159 -0.0321521 0.0687088 0.000291 10.8177 0.0101137 -0.047169 2650 
2 1 0.0604054 -0.0493573 0.0311611 0.001058 4.89473 -0.000354142 -9.48836 2650 
121 1 0.0597304 -0.0458234 0.0312159 0.00164 4.90263 -0.00189057 -9.3811 2650 
79 1 0.0615297 -0.0331333 0.0305684 0.000291 4.8015 -0.133727 -9.66516 2650 
86 1 0.060908 -0.0336613 0.031787 0.000291 4.96788 -0.0577283 -9.51888 2650 
281 1 0.0594301 -0.0622793 0.034525 0.000291 5.42132 -1.83389e-06 -9.33206 2650 
99 1 0.0588999 -0.0484526 0.0339191 0.001058 5.32911 0.00261148 -9.25381 2650 
152 1 0.0599033 -0.0132915 0.0340715 0.000105 5.2397 1.05456 -9.21895 2650 
196 1 0.0576924 -0.0479299 0.0359278 0.001058 5.67165 0.0328703 -9.10755 2650 
73 1 0.0546328 -0.058148 0.0394172 0.00164 6.19167 -3.42825e-05 -8.58176 2650 
141 1 0.0563939 -0.0368279 0.0392517 0.000291 6.17593 -0.0522782 -8.87348 2650 
174 1 0.056839 -0.0293943 0.0385998 0.000291 5.98467 0.212174 -8.81273 2650 
18 1 0.0523392 -0.020983 0.0433286 0.001058 6.84331 0.0867539 -8.26499 2650 
15 1 0.0535677 -0.0214947 0.0430303 0.000291 6.82802 0.161628 -8.49976 2650 
204 1 0.0507562 -0.0312784 0.0451736 0.001058 7.11539 0.0151756 -7.9943 2650 
229 1 0.0469083 -0.06163 0.0491584 0.001058 7.72192 0.000169618 -7.36845 2650 
280 1 0.0480228 -0.0308793 0.0482638 0.001058 7.58126 1.03337e-05 -7.5434 2650 
89 1 0.0376539 -0.0611601 0.0558692 0.00164 8.77615 2.87158e-07 -5.91484 2650 
83 1 0.0326542 -0.0500425 0.0596088 0.001058 9.33816 -0.0349613 -5.11562 2650 
272 1 0.032384 -0.0479494 0.0597611 0.001058 9.3896 -0.0303208 -5.08813 2650 
228 1 0.0265496 -0.0146514 0.0633981 0.000291 8.31403 0.0939108 -3.48041 2650 
84 1 0.0175972 -0.0510348 0.0656463 0.001058 10.3137 0.0097084 -2.76464 2650 
287 1 0.0194941 -0.0499116 0.0651124 0.001058 10.2279 3.14939e-05 -3.06216 2650 
264 1 0.0182457 -0.048242 0.0654751 0.001058 10.2849 4.25333e-05 -2.86606 2650 
215 1 0.0231433 -0.048543 0.06391 0.001058 10.0387 0.000207627 -3.63523 2650 
181 1 0.0240784 -0.0469304 0.064379 0.000291 10.1396 -0.0511201 -3.79202 2650 
240 1 0.0236715 -0.0297572 0.0645005 0.000291 9.14357 -0.0419773 -3.35297 2650 
109 1 0.0153541 -0.0514035 0.0669855 0.000291 10.5092 0.000959908 -2.40893 2650 
290 1 0.0174918 -0.0487606 0.0664663 0.000291 10.4403 0.000564654 -2.74757 2650 
270 1 0.0178547 -0.0190626 0.066366 0.000291 8.27937 0.156371 -2.23461 2650 
96 1 0.0134681 -0.00612942 0.067567 0.000105 8.57042 0.0211659 -1.70957 2650 
126 1 0.00701681 -0.0340527 0.0683484 0.000291 9.84961 -0.12469 -1.01655 2650 
64 1 0.00436205 -0.0168326 0.0687553 0.000105 8.70336 -0.0716727 -0.539202 2650 
198 1 0.000945368 0.00269135 -0.0165637 0.000291 0.0763514 -0.0170439 -0.00317901 2650 
195 1 0.00613237 0.00164925 -0.0145604 0.001058 -0.0267287 0.00320605 -0.0143667 2650 
286 1 0.000898449 0.0503992 -0.0157665 0.001058 -0.0231657 0.0468693 -0.00120143 2650 
292 1 0.000712483 0.0601131 -0.0143864 0.001058 -0.0198756 0.0344324 0.0109755 2650 
70 1 0.00441002 0.0666569 -0.0157548 0.000291 0.000986621 0.0559838 -0.0454673 2650 
260 1 0.00581045 0.00808222 -0.0132634 0.000291 -0.00996736 0.00469349 0.00488237 2650 
293 1 0.00866004 0.0418719 -0.0132498 0.001058 -0.0887323 -0.0135601 -0.0477309 2650 
153 1 0.00741353 0.00391124 -0.0106118 0.00164 -0.00763413 -0.0014489 0.00703428 2650 
57 1 0.00541532 0.0285577 -0.0111899 0.00164 -0.000919831 0.00616449 -0.024056 2650 
33 1 0.00371799 0.0343994 -0.0112476 0.00164 0.00603998 0.0215627 0.00352792 2650 
114 1 0.0033682 0.013856 -0.00898352 0.001058 0.0187062 0.0117361 -0.00752779 2650 
284 1 0.0111803 0.0145854 -0.00832895 0.000291 -0.00371053 0.00586111 -0.00129449 2650 
123 1 0.0109357 0.0468594 -0.00860521 0.001058 -0.0069266 0.0381635 -0.00768552 2650 
199 1 0.0123982 0.00599902 -0.00666796 0.000291 -0.0066469 0.00203541 -0.00705897 2650 
19 1 0.0127246 0.0123275 -0.00746332 0.001058 -0.00189711 0.0050805 -0.00113271 2650 
249 1 0.00835606 0.0397691 -0.00612131 0.000291 0.00987628 0.0185258 -0.0129358 2650 
176 1 0.0127863 0.000670382 -0.00595606 0.000105 -0.0113334 0.00168079 0.000719247 2650 
161 1 0.0135206 0.00923893 -0.0058681 0.00164 -0.000454856 0.00568005 -0.00417258 2650 
77 1 0.00724616 0.0120375 -0.00521946 0.000291 -0.0117356 0.000913058 0.0103562 2650 
17 1 0.0183081 0.0628632 -0.00525897 0.00164 1.29024 0.021086 -0.398018 2650 
1 1 0.0130369 0.00697263 -0.00295646 0.00164 -0.00396175 0.00352346 -0.00443708 2650 
258 1 0.0106218 0.0503456 -0.0039652 0.001058 -0.00702738 0.0458888 -0.00817646 2650 
203 1 0.0139175 0.034143 -0.00154996 0.001058 0.0105265 0.0334803 0.00411967 2650 
52 1 0.0141048 0.0544691 -0.00160848 0.001058 -0.00702953 0.0194323 -0.0174178 2650 
279 1 0.0130291 0.00567973 0.00132106 0.001058 0.00690887 -0.00122776 0.0071413 2650 
92 1 0.0133696 0.00860685 0.00132538 0.001058 0.00298746 0.00292354 0.00546929 2650 
106 1 0.00315971 0.0374381 0.00189842 0.001058 0.0119634 0.0223893 -0.0027555 2650 
194 1 0.0102092 0.0431247 0.000564867 0.001058 -0.00717738 0.0355954 0.00284246 2650 
238 1 0.0142369 0.0552406 0.00276137 0.001058 -0.00137728 0.0257105 -0.0165728 2650 
298 1 0.0139189 0.00164191 0.00519874 0.000105 0.00377194 -0.00442838 -0.00799766 2650 
156 1 0.011548 0.00461829 0.00758617 0.001058 -0.00386139 -0.00886559 -0.00604091 2650 
265 1 0.013502 0.0138687 0.00797103 0.001058 0.00631372 0.00593974 -0.00936806 2650 
38 1 0.0127695 0.0203724 0.00747646 0.000291 -0.0203804 0.00352473 0.00785771 2650 
9 1 0.0133404 0.0488124 0.00629659 0.00164 -0.00067168 0.0470366 0.00650688 2650 
66 1 0.0111877 0.00769719 0.0097893 0.001058 0.00109107 -0.000952032 -0.00287426 2650 
105 1 0.00554313 0.0206962 0.0113544 0.00164 -0.00344466 0.00582004 -0.00613861 2650 
41 1 0.00193136 0.0222452 0.0123822 0.00164 -0.00672013 0.00866437 -0.0057422 2650 
144 1 0.000912299 0.0254367 0.0128897 0.000105 0.0152864 0.0109644 -0.00695946 2650 
139 1 0.00593078 0.0264058 0.0135454 0.001058 -0.0138539 0.00679752 0.0124887 2650 
242 1 0.00391802 0.0428872 0.0130102 0.000291 0.0116924 0.0265357 0.00697501 2650 
147 1 0.0044772 0.0431277 0.0151849 0.001058 0.0379252 0.0108537 -0.00699358 2650 
124 1 0.000617812 0.0571405 0.0155032 0.001058 0.0237177 0.0354635 -0.00375445 2650 
263 1 0.00207647 0.0751809 -0.013973 0.000291 -0.0276857 0.0691876 -0.0511194 2650 
157 1 0.00128154 0.0922536 -0.0134306 0.000291 0.0079085 0.0606548 0.000918149 2650 
