ITEM: TIMESTEP
19509625
ITEM: NUMBER OF ATOMS
265
ITEM: BOX BOUNDS ff ff ff
-0.15 0.15
-0.15 0.15
-0.15 0.15
ITEM: ATOMS id type x y z radius vx vy vz density 
102 1 -0.00918333 -0.0144564 -0.0680996 0.000291 -9.2198 0.10715 1.24337 2650 
82 1 -0.00179253 -0.0393177 -0.0679231 0.001058 -10.5359 0.0484758 0.277521 2650 
122 1 -0.00308061 -0.029265 -0.067878 0.001058 -9.98539 -0.0600165 0.472307 2650 
132 1 -0.0080564 -0.0193857 -0.067473 0.001058 -9.39112 -0.390831 1.12843 2650 
45 1 -0.0129938 -0.0137897 -0.0674834 0.000291 -8.35172 0.867992 1.61085 2650 
37 1 -0.0120737 -0.00815281 -0.0676459 0.000291 -7.65796 -0.889608 1.36467 2650 
296 1 -0.0159392 -0.00606757 -0.0668354 0.000291 -8.5417 0.0751686 2.02834 2650 
26 1 -0.0171052 -0.0495487 -0.0657791 0.001058 -10.3331 0.0017737 2.68698 2650 
174 1 -0.0280607 -0.0370322 -0.0627181 0.000291 -9.4494 -0.0635741 4.22523 2650 
294 1 -0.0273887 -0.0312849 -0.062185 0.001058 -9.40642 -0.17978 4.1575 2650 
278 1 -0.0238592 -0.0297744 -0.0636194 0.001058 -9.5283 -0.144358 3.57296 2650 
85 1 -0.0272752 -0.00948294 -0.063077 0.000291 -6.42591 0.522133 2.76466 2650 
182 1 -0.0380136 -0.0175545 -0.0572445 0.000291 -7.12263 -0.233221 4.69745 2650 
304 1 -0.0371946 -0.00916046 -0.0577736 0.000291 -7.17406 -0.0243493 4.59426 2650 
78 1 -0.0401582 -0.0489237 -0.0557495 0.000291 -8.60745 -0.33041 6.20368 2650 
200 1 -0.0441149 -0.0082395 -0.0528534 0.000105 -7.29879 0.378727 6.04059 2650 
159 1 -0.0492635 -0.0458692 -0.0478959 0.000291 -7.35922 -0.770758 7.56733 2650 
34 1 -0.0480418 -0.030875 -0.0482434 0.001058 -7.57805 -2.24865e-08 7.54638 2650 
185 1 -0.050234 -0.0518757 -0.0448956 0.00164 -7.05487 0.000644921 7.89387 2650 
81 1 -0.052773 -0.0500158 -0.0418898 0.00164 -6.58063 0.00174359 8.29023 2650 
162 1 -0.0533448 -0.0473872 -0.0420955 0.001058 -6.62524 0.000367315 8.39658 2650 
275 1 -0.0544059 -0.0267998 -0.0419603 0.000291 -5.36615 -0.457919 6.95919 2650 
42 1 -0.0542379 -0.054744 -0.0409335 0.001058 -6.42298 0.00550997 8.51057 2650 
172 1 -0.0560447 -0.05447 -0.0384266 0.001058 -6.01854 -0.00607364 8.77804 2650 
193 1 -0.055516 -0.0499003 -0.0381951 0.00164 -6.00822 -0.00750339 8.73284 2650 
20 1 -0.0571185 -0.0554949 -0.0368081 0.001058 -5.78376 0.00779825 8.97495 2650 
43 1 -0.0583135 -0.0496677 -0.0349118 0.001058 -5.48519 0.0708655 9.16301 2650 
15 1 -0.0588611 -0.0184945 -0.0354761 0.000291 -4.38503 0.0810433 7.26608 2650 
148 1 -0.0595443 -0.0531472 -0.0327536 0.001058 -5.14201 0.00899731 9.34744 2650 
35 1 -0.0599783 -0.0508686 -0.0319671 0.001058 -5.02452 0.0039064 9.42761 2650 
207 1 -0.060468 -0.0119044 -0.0326699 0.000291 -4.09025 -0.268865 7.57616 2650 
212 1 -0.0614601 -0.00645369 -0.0307242 0.000291 -3.87066 -0.406653 7.74608 2650 
188 1 -0.0615489 -0.0616469 -0.0287847 0.001058 -4.51736 0.00919002 9.65858 2650 
218 1 -0.0619406 -0.0492068 -0.0279895 0.001058 -4.39628 0.00033959 9.72898 2650 
254 1 -0.062937 -0.0511672 -0.0276106 0.000291 -4.36159 0.0495075 9.94248 2650 
247 1 -0.0633044 -0.0491545 -0.0267698 0.000291 -4.19637 0.0566492 9.92268 2650 
24 1 -0.0651287 -0.0296888 -0.0224595 0.000105 -3.1146 1.16817 9.09647 2650 
221 1 -0.0654468 -0.0268507 -0.0208977 0.000291 -2.80492 0.201887 8.78749 2650 
158 1 -0.0662123 -0.0153208 -0.0184202 0.000291 -2.3286 -0.113427 8.3594 2650 
236 1 -0.0656743 -0.0616367 -0.0174278 0.001058 -2.73948 -0.00335549 10.3238 2650 
173 1 -0.0667589 -0.0125077 -0.0163269 0.000291 -1.90491 -0.206301 7.70494 2650 
74 1 -0.00958649 -0.000281863 -0.012148 0.001058 0.00552843 -0.00502923 -0.00272883 2650 
29 1 -0.0679024 -0.0109316 -0.0104202 0.000291 -1.33188 0.31436 8.36309 2650 
135 1 -0.00759092 -0.00228932 -0.0108811 0.000291 0.00330025 -0.00264717 0.00636962 2650 
58 1 -0.00713027 -0.00130263 -0.00674372 0.001058 0.020455 0.00490158 -0.0306807 2650 
46 1 -0.068424 -0.0186058 -0.00554037 0.000291 -0.747696 -0.277602 8.97106 2650 
16 1 -0.0687254 -0.00600072 -0.0045489 0.000105 -0.619137 0.151594 8.90967 2650 
248 1 -0.0686967 -0.0225746 0.00124228 0.000291 0.199091 -0.197007 10.9554 2650 
138 1 -0.0674633 -0.0558914 0.00809191 0.001058 1.27297 0.0285026 10.6151 2650 
146 1 -0.067222 -0.0488599 0.00994959 0.001058 1.56292 -0.00123276 10.5596 2650 
128 1 -0.0673402 -0.011524 0.0146158 0.000105 1.76065 0.332435 8.0962 2650 
250 1 -0.000181716 -0.00144798 0.0153969 0.001058 0.0161046 -0.00542442 -0.00110725 2650 
261 1 -0.065427 -0.018025 0.0210457 0.000291 2.83669 0.45514 8.84773 2650 
179 1 -0.0619633 -0.0490353 0.0279398 0.001058 4.37046 -0.0340333 9.69023 2650 
93 1 -0.0619067 -0.0496045 0.0298553 0.000291 4.67329 0.026687 9.6901 2650 
59 1 -0.0617581 -0.0465963 0.0283957 0.001058 4.46076 -0.00335527 9.7016 2650 
165 1 -0.0621759 -0.0456068 0.0293005 0.000291 4.59845 -0.0267286 9.75779 2650 
49 1 -0.0600289 -0.0490919 0.0306377 0.00164 4.8114 -0.0022395 9.42689 2650 
47 1 -0.0615847 -0.0107598 0.0305035 0.000291 3.81772 0.0560331 7.70154 2650 
257 1 -0.0590698 -0.0490459 0.03362 0.001058 5.2952 0.00232419 9.30455 2650 
126 1 -0.058965 -0.0275031 0.0352653 0.000291 4.74124 0.838994 7.91454 2650 
240 1 -0.0575648 -0.0338146 0.0375071 0.000291 5.12467 -0.00934325 7.87512 2650 
94 1 -0.0528576 -0.013697 0.0438997 0.000291 3.72436 -0.327204 4.53425 2650 
208 1 -0.048422 -0.0310881 0.0476832 0.001058 7.38708 0.321585 7.47915 2650 
112 1 -0.0471075 -0.0259927 0.0502515 0.000105 8.77492 -2.32434 8.23375 2650 
168 1 -0.0438939 -0.0241508 0.053087 0.000105 7.6062 -0.666345 6.29458 2650 
269 1 -0.0402033 -0.0143506 0.0557037 0.000291 7.9755 0.335705 5.75425 2650 
21 1 -0.0298764 -0.0467602 0.0619016 0.000291 9.81955 0.00695004 4.73725 2650 
171 1 -0.0252355 -0.0495347 0.0631118 0.001058 9.91885 0.00986559 3.9663 2650 
90 1 -0.0232229 -0.0494004 0.0638805 0.001058 10.0345 0.00117733 3.64791 2650 
225 1 -0.0184847 -0.0450022 0.0654073 0.001058 10.2747 0.00127417 2.90377 2650 
76 1 -0.000216527 -0.0434924 0.0679485 0.001058 10.3816 0.0425799 0.0278563 2650 
14 1 -0.0141196 -0.0374456 0.0672454 0.000291 10.569 -0.777321 2.22077 2650 
40 1 -0.0115718 -0.000104999 0.0679145 0.000105 8.85082 6.87954e-05 1.5144 2650 
192 1 -0.00407182 -0.000105019 0.0687745 0.000105 8.95268 0.00223077 0.533846 2650 
134 1 -0.0039387 0.00716119 -0.0148493 0.000291 -0.0128132 0.00355392 -0.00692922 2650 
80 1 -0.00760187 0.0196536 -0.014432 0.000105 0.0200167 0.0220396 -0.007602 2650 
232 1 -0.00436511 0.0356636 -0.0149144 0.001058 -0.0260744 0.0281349 0.00795724 2650 
97 1 -0.00658856 0.00910149 -0.0134764 0.00164 0.0189231 0.00904729 -0.00561719 2650 
130 1 -0.00663723 0.00291429 -0.0105441 0.001058 -0.00692202 0.00347734 0.00595777 2650 
198 1 -0.0122037 0.00609809 -0.0112119 0.000291 0.0468885 -0.0185413 -0.0627354 2650 
71 1 -0.000584264 0.000223885 -0.00861207 0.000291 0.000861808 -0.00718564 -0.0173142 2650 
10 1 -0.0124216 0.00933181 -0.00911462 0.001058 0.0053433 0.0061558 -0.0070677 2650 
67 1 -0.0124901 0.0199598 -0.00806427 0.001058 -0.0104976 0.0129104 0.0114407 2650 
114 1 -0.000185922 0.0116262 -0.00755326 0.001058 0.0187062 0.0117361 -0.00752779 2650 
51 1 -0.00105744 0.0161018 -0.00552849 0.001058 -0.0414136 0.0415048 -0.0353246 2650 
113 1 -0.000378082 0.00563269 -0.00219368 0.00164 -0.0131936 -0.00156564 -0.00033725 2650 
129 1 -0.000832305 0.0107276 -0.00269674 0.00164 -0.00374589 0.0128173 -0.00288427 2650 
7 1 -0.00295749 0.0320135 -0.00334272 0.000291 0.00378858 0.0136367 -0.000251809 2650 
205 1 -0.00898538 0.00300944 -0.00118899 0.000291 -0.00881861 0.00364628 0.0236275 2650 
234 1 -0.0132348 0.0111403 -0.000137383 0.000291 -0.00131366 0.00431637 0.0126772 2650 
65 1 -0.0150074 0.0295864 -0.00112274 0.00164 -0.00447342 0.0138222 0.00034274 2650 
256 1 -0.0157399 0.0234742 0.00508061 0.000291 0.000881351 0.0216623 0.00465977 2650 
217 1 -0.00916616 0.0484782 0.00532467 0.001058 0.000747792 0.0265619 -0.00553463 2650 
209 1 -0.0138641 0.00388216 0.00699478 0.001058 0.00584419 -0.0188996 0.0174994 2650 
211 1 -0.0122353 0.00697443 0.00632771 0.001058 0.000982608 0.00314487 0.00709992 2650 
115 1 -0.014617 0.0184496 0.00609396 0.001058 0.00236141 0.0122312 0.0092361 2650 
187 1 -0.0141141 0.0280034 0.00716299 0.001058 0.00500069 0.0154788 0.0119088 2650 
68 1 -0.000799978 0.00615211 0.0084222 0.001058 0.00272783 -0.00342387 -0.00169301 2650 
220 1 -0.0123319 0.0279992 0.00837575 0.000291 0.00991537 0.0130183 0.0124552 2650 
28 1 -0.00902563 0.0646115 0.00940307 0.001058 0.00734507 0.0503926 0.00344867 2650 
222 1 -0.000391687 0.000715842 0.0118249 0.001058 -0.0324875 0.00467874 -0.0112895 2650 
244 1 -0.0119098 0.0168103 0.0105039 0.001058 0.022777 0.0219925 0.0312088 2650 
224 1 -0.00874372 0.0165567 0.0114535 0.001058 -0.00111942 0.00491513 -0.00282362 2650 
273 1 -0.00109239 0.056981 0.010702 0.001058 0.00511 0.0387776 -0.00978519 2650 
299 1 -0.0056026 0.00138588 0.0128193 0.001058 0.00581403 -0.00322581 0.00124072 2650 
4 1 -0.00732426 0.00876069 0.0139377 0.001058 0.0064118 0.000915196 0.00341804 2650 
266 1 -0.00865007 0.0135771 0.0125091 0.001058 0.0336072 0.0100687 0.0213347 2650 
124 1 -0.00375724 0.0501115 0.0139725 0.001058 0.0225448 0.0380641 0.0162983 2650 
116 1 -0.00737522 0.0611233 0.0136822 0.001058 -0.0278213 0.0454338 0.0115295 2650 
144 1 -0.00199208 0.0233534 0.014212 0.000105 0.0152864 0.0109644 -0.00695946 2650 
147 1 -0.00277338 0.0409271 0.015522 0.001058 0.0373753 0.0132509 0.0100339 2650 
157 1 -0.000221054 0.0807293 -0.013605 0.000291 0.0079085 0.0606548 0.000918149 2650 
6 1 0.00108506 -0.00994246 -0.0686991 0.000291 -8.92389 0.160662 -0.137221 2650 
131 1 0.00872053 -0.0484662 -0.0673925 0.001058 -10.589 0.00882588 -1.37034 2650 
48 1 0.0112191 -0.0473237 -0.0679849 0.000105 -10.9279 0.144213 -1.80345 2650 
239 1 0.0182989 -0.0498875 -0.0654575 0.001058 -10.2479 -0.0137872 -2.86471 2650 
119 1 0.0190194 -0.0510073 -0.0660417 0.000291 -10.3903 0.0745577 -2.99227 2650 
230 1 0.0212273 -0.048863 -0.0645693 0.001058 -10.0569 -0.0249589 -3.33922 2650 
288 1 0.0229351 -0.0485313 -0.0647922 0.000291 -10.272 0.115373 -3.63637 2650 
79 1 0.0239471 -0.039889 -0.0644107 0.000291 -10.1054 0.534797 -3.75588 2650 
175 1 0.0190203 -0.0134759 -0.0660457 0.000291 -8.81928 0.381243 -2.54803 2650 
213 1 0.025456 -0.0549618 -0.0638224 0.000291 -9.5364 0.170159 -3.80249 2650 
36 1 0.0240051 -0.0472276 -0.0635908 0.001058 -10.0295 -0.0302351 -3.78703 2650 
140 1 0.0263355 -0.0471997 -0.0626638 0.001058 -9.83804 -0.132955 -4.13437 2650 
60 1 0.0267007 -0.0436754 -0.0625045 0.001058 -9.8309 -0.00298788 -4.19938 2650 
108 1 0.0264404 -0.0415783 -0.0626112 0.001058 -9.91485 -0.0127642 -4.18719 2650 
243 1 0.0298414 -0.0506967 -0.0610653 0.001058 -9.58998 -0.0111205 -4.68642 2650 
2 1 0.03121 -0.0492348 -0.0603812 0.001058 -9.50488 0.0121846 -4.91237 2650 
191 1 0.0330916 -0.0487107 -0.0602374 0.000291 -9.40818 -0.0134009 -5.16771 2650 
201 1 0.0281371 -0.045578 -0.0612415 0.00164 -9.60977 0.020483 -4.41556 2650 
141 1 0.0309815 -0.0378713 -0.0613286 0.000291 -9.27563 -0.803503 -4.69155 2650 
259 1 0.0289754 -0.0308516 -0.061476 0.001058 -9.64267 -0.128989 -4.54556 2650 
281 1 0.0345008 -0.0622793 -0.0594441 0.000291 -9.33252 0.000116726 -5.41652 2650 
99 1 0.0339905 -0.0484397 -0.0588568 0.001058 -9.22799 0.0421342 -5.32919 2650 
121 1 0.0312083 -0.0457721 -0.0597337 0.00164 -9.40567 -0.0534265 -4.91525 2650 
152 1 0.0351832 -0.0270703 -0.0592298 0.000105 -6.12808 -0.657097 -4.18264 2650 
86 1 0.0352625 -0.0267875 -0.0589669 0.000291 -9.17891 0.0371381 -5.46187 2650 
196 1 0.0358953 -0.0480073 -0.0577114 0.001058 -9.08327 -0.0289488 -5.64908 2650 
252 1 0.0375114 -0.0174109 -0.0566692 0.001058 -7.60159 0.288138 -5.026 2650 
73 1 0.0393954 -0.0581028 -0.0546486 0.00164 -8.5845 -0.0151093 -6.18842 2650 
125 1 0.0400204 -0.035788 -0.0558423 0.000291 -8.76982 0.146204 -6.28613 2650 
50 1 0.0428543 -0.0346658 -0.0527246 0.001058 -8.13137 0.0900576 -6.60742 2650 
204 1 0.0414477 -0.0306853 -0.053848 0.001058 -8.35279 -0.102325 -6.43194 2650 
18 1 0.0422558 -0.0278539 -0.0532094 0.001058 -8.22589 0.183856 -6.53392 2650 
253 1 0.04289 -0.0228953 -0.0536799 0.000291 -7.42175 -0.454348 -5.91659 2650 
100 1 0.0448874 -0.0185318 -0.0510095 0.001058 -6.65027 -0.0465821 -5.87012 2650 
270 1 0.0479085 -0.0254959 -0.0492498 0.000291 -5.75571 -0.125403 -5.59649 2650 
229 1 0.0491203 -0.0616131 -0.0469487 0.001058 -7.37542 0.000500274 -7.71656 2650 
280 1 0.0482443 -0.0308793 -0.0480424 0.001058 -7.54648 1.03337e-05 -7.57819 2650 
61 1 0.0518069 -0.0179471 -0.0450657 0.000291 -5.84236 1.20756 -6.77188 2650 
88 1 0.0535903 -0.00304841 -0.0432883 0.000105 -5.35054 0.112937 -6.57788 2650 
89 1 0.0558539 -0.0611601 -0.0376767 0.00164 -5.9184 2.89443e-07 -8.77374 2650 
219 1 0.0572265 -0.000290997 -0.0380243 0.000291 -4.69953 -0.000402546 -7.07583 2650 
22 1 0.0595169 -0.0252663 -0.0343307 0.000291 -4.24163 0.0407231 -7.37021 2650 
83 1 0.0595417 -0.049889 -0.0327769 0.001058 -5.14698 -0.00138046 -9.34996 2650 
235 1 0.0624409 -0.0173853 -0.0287259 0.000291 -4.6733 0.00290641 -10.1566 2650 
215 1 0.0638993 -0.0485454 -0.0231728 0.001058 -3.64095 -0.00154931 -10.0398 2650 
181 1 0.0655367 -0.0465047 -0.0207148 0.000291 -3.29144 -0.0739042 -10.4124 2650 
287 1 0.0651205 -0.0500204 -0.0194657 0.001058 -3.0578 0.003467 -10.2297 2650 
268 1 0.0659547 -0.0193907 -0.0193177 0.000291 -2.33013 -0.198631 -7.93802 2650 
84 1 0.0656225 -0.0513702 -0.0176832 0.001058 -2.77848 0.00115634 -10.3113 2650 
264 1 0.0654743 -0.0481982 -0.0182475 0.001058 -2.86533 -0.00985704 -10.2804 2650 
290 1 0.0665131 -0.0480976 -0.0173084 0.000291 -2.71209 0.0256531 -10.4219 2650 
109 1 0.0669777 -0.05152 -0.0153866 0.000291 -2.43319 0.0272469 -10.594 2650 
272 1 0.067413 -0.0414189 -0.00855246 0.001058 -1.36374 -0.0302972 -10.7799 2650 
150 1 0.0682053 -0.0316951 -0.00830677 0.000291 -1.32304 0.0976215 -10.8687 2650 
271 1 0.0678707 -0.0118771 -0.00319788 0.001058 -0.413736 -0.115234 -8.47247 2650 
133 1 0.0686736 -0.0241219 -0.00217457 0.000291 -0.337824 -0.104777 -10.4371 2650 
285 1 0.0680839 -0.030875 0.000142582 0.001058 0.0223969 -3.3144e-08 -10.6946 2650 
96 1 0.0686643 -0.00554137 0.00558694 0.000105 0.651508 0.0284208 -8.50819 2650 
64 1 0.0686221 -0.0128892 0.00598062 0.000105 0.816975 -0.385292 -8.49171 2650 
167 1 0.0682947 -0.0104328 0.00741667 0.000291 0.835046 0.264437 -8.17282 2650 
3 1 0.067391 -0.0239029 0.00864987 0.001058 1.33825 0.237837 -10.441 2650 
300 1 0.067281 -0.0210488 0.00934728 0.001058 1.03929 -0.0989048 -7.97111 2650 
202 1 0.0671651 -0.029693 0.0102692 0.001058 1.61846 -0.105576 -10.5914 2650 
95 1 0.00276008 -0.000233419 0.0134882 0.000291 -0.0190214 0.000188354 -0.00919676 2650 
170 1 0.00322871 -0.00189249 0.0155216 0.001058 0.0178138 -0.00502054 -0.00235441 2650 
137 1 0.0653186 -0.0611601 0.0165107 0.00164 2.59336 -8.16431e-07 -10.2597 2650 
118 1 0.0646689 -0.0247731 0.0232103 0.000291 3.22168 -0.0556062 -8.9719 2650 
223 1 0.0640833 -0.0203469 0.0226333 0.001058 3.28807 -0.0182009 -9.30073 2650 
276 1 0.0629955 -0.0363065 0.0274261 0.000291 4.17151 0.0263241 -9.58484 2650 
145 1 0.0622284 -0.0349972 0.0257996 0.00164 3.94012 0.0608653 -9.483 2650 
228 1 0.0618203 -0.0165842 0.0300413 0.000291 3.76142 -0.312832 -7.71083 2650 
251 1 0.0590812 -0.0308439 0.0335677 0.001058 5.17586 -0.0173627 -9.12354 2650 
117 1 0.0585856 -0.00998633 0.0359221 0.000291 5.73153 0.416737 -9.35131 2650 
231 1 0.0552385 -0.0397776 0.0395752 0.001058 6.25735 -0.0876973 -8.73405 2650 
241 1 0.057122 -0.0358644 0.0381822 0.000291 5.72424 0.0538476 -8.56874 2650 
267 1 0.0564345 -0.0226892 0.0392019 0.000291 5.68802 -0.214081 -8.21483 2650 
197 1 0.0562545 -0.0110572 0.0394671 0.000291 3.74251 0.468392 -5.43713 2650 
282 1 0.0550566 -0.0238857 0.0411081 0.000291 6.24136 0.524164 -8.35879 2650 
177 1 0.053108 -0.0161205 0.0414674 0.00164 6.24764 -0.0108179 -8.00248 2650 
255 1 0.055703 -0.0117032 0.0402405 0.000291 5.84524 -0.151231 -8.09764 2650 
178 1 0.0525988 -0.056692 0.0430142 0.001058 6.77349 -0.0146742 -8.28309 2650 
103 1 0.0544337 -0.0491258 0.0419374 0.000291 6.77293 -0.25567 -8.79103 2650 
164 1 0.0522216 -0.0420397 0.0434723 0.001058 6.76588 -0.0731731 -8.12737 2650 
226 1 0.0536282 -0.0429005 0.0429587 0.000291 6.72664 -0.345413 -8.39672 2650 
291 1 0.054005 -0.0429632 0.0424848 0.000291 6.72696 0.639991 -8.55312 2650 
98 1 0.0526311 -0.0192742 0.0429798 0.001058 6.35151 0.0340866 -7.78872 2650 
25 1 0.0511434 -0.0588128 0.0438565 0.00164 6.89232 -0.00829281 -8.03774 2650 
210 1 0.0513618 -0.0363993 0.0444789 0.001058 6.76424 -0.207755 -7.81049 2650 
186 1 0.0504692 -0.0210419 0.0454926 0.001058 6.55545 0.138192 -7.27539 2650 
206 1 0.0504207 -0.062509 0.0466773 0.000291 7.33203 1.86282e-09 -7.92004 2650 
169 1 0.0491183 -0.0611601 0.0461158 0.00164 7.2438 4.57202e-07 -7.71543 2650 
246 1 0.0496344 -0.0585276 0.0464035 0.001058 7.28923 -1.66622e-05 -7.79675 2650 
302 1 0.0436907 -0.0345056 0.0530211 0.000291 7.87283 -0.065314 -6.4886 2650 
110 1 0.0433455 -0.00374967 0.0533083 0.000291 4.27894 0.0693266 -3.46074 2650 
277 1 0.0411666 -0.0357588 0.0550106 0.000291 8.16864 -0.292045 -6.11149 2650 
184 1 0.0390851 -0.0119953 0.0567476 0.000105 7.94025 -1.1118 -5.47192 2650 
295 1 0.034163 -0.027 0.05961 0.000291 8.78731 -0.0620382 -5.03446 2650 
104 1 0.0327134 -0.0219709 0.0606426 0.000105 7.87897 -0.716652 -4.26699 2650 
87 1 0.0333578 -0.017702 0.0600894 0.000291 8.03567 0.0859675 -4.45937 2650 
214 1 0.0202565 -0.0567269 0.065654 0.000291 9.57933 0.284424 -2.96018 2650 
23 1 0.0198362 -0.0534176 0.0657918 0.000291 9.65129 -0.451356 -2.91164 2650 
107 1 0.0220502 -0.0489298 0.0642949 0.001058 9.97516 0.0256845 -3.42299 2650 
227 1 0.0235932 -0.0449115 0.0645565 0.000291 10.4598 0.0425237 -3.82168 2650 
44 1 0.0156925 -0.0312692 0.0661132 0.001058 9.95687 -0.0330223 -2.35663 2650 
55 1 0.0146961 -0.014729 0.0671206 0.000291 4.8863 -0.0519335 -1.11501 2650 
39 1 0.00131796 -0.0394689 0.0686955 0.000291 11.0807 0.265767 -0.212144 2650 
303 1 0.00098084 -0.0163157 0.0686836 0.000291 10.0262 0.0448599 -0.122418 2650 
190 1 0.00686169 -0.0101481 0.0683614 0.000291 7.78372 -0.289647 -0.708979 2650 
260 1 0.00770422 0.00719047 -0.0141911 0.000291 -0.00996736 0.00469349 0.00488237 2650 
54 1 0.00608305 0.0326791 -0.0153927 0.000291 -0.0419811 -0.00158121 -0.0215212 2650 
286 1 0.00524118 0.0414046 -0.0149077 0.001058 -0.0227563 0.047494 -0.00559967 2650 
301 1 0.0010799 0.0423559 -0.0129446 0.001058 -0.0176549 0.0163122 0.00371725 2650 
292 1 0.00374474 0.0533206 -0.013309 0.001058 -0.0104367 0.0376087 -0.0291473 2650 
195 1 0.0109099 0.00106829 -0.0113675 0.001058 -0.023068 0.0028628 -0.0200038 2650 
153 1 0.00886399 0.00418652 -0.0119483 0.00164 -0.00763413 -0.0014489 0.00703428 2650 
33 1 0.00257041 0.0303025 -0.0119179 0.00164 0.00603998 0.0215627 0.00352792 2650 
284 1 0.0118852 0.0134718 -0.008083 0.000291 -0.00371053 0.00586111 -0.00129449 2650 
176 1 0.0149396 0.000351036 -0.00609271 0.000105 -0.0113334 0.00168079 0.000719247 2650 
19 1 0.013085 0.0113622 -0.00724811 0.001058 -0.00189711 0.0050805 -0.00113271 2650 
77 1 0.00947589 0.011864 -0.00718711 0.000291 -0.0117356 0.000913058 0.0103562 2650 
57 1 0.00559008 0.0273865 -0.00661932 0.00164 -0.000919831 0.00616449 -0.024056 2650 
123 1 0.0122517 0.0396084 -0.00714498 0.001058 -0.0069266 0.0381635 -0.00768552 2650 
70 1 0.00422256 0.0560201 -0.00711614 0.000291 0.000986621 0.0559838 -0.0454673 2650 
101 1 0.0128852 0.000256059 -0.00459734 0.000291 0.0107852 -0.0015929 -0.0095042 2650 
199 1 0.0136611 0.0056123 -0.00532678 0.000291 -0.0066469 0.00203541 -0.00705897 2650 
161 1 0.0136071 0.00815974 -0.00507532 0.00164 -0.000454856 0.00568005 -0.00417258 2650 
263 1 0.00733669 0.0620355 -0.00426049 0.000291 -0.0276857 0.0691876 -0.0511194 2650 
1 1 0.0137896 0.00630318 -0.00211343 0.00164 -0.00396175 0.00352346 -0.00443708 2650 
203 1 0.0119175 0.0277819 -0.00233269 0.001058 0.0105265 0.0334803 0.00411967 2650 
249 1 0.00647959 0.0362493 -0.00366354 0.000291 0.00987628 0.0185258 -0.0129358 2650 
258 1 0.011957 0.0416268 -0.0024117 0.001058 -0.00702738 0.0458888 -0.00817646 2650 
279 1 0.0117164 0.005913 -3.57637e-05 0.001058 0.00690887 -0.00122776 0.0071413 2650 
92 1 0.012802 0.00805138 0.000286229 0.001058 0.00298746 0.00292354 0.00546929 2650 
194 1 0.0115729 0.0363617 2.48058e-05 0.001058 -0.00717738 0.0355954 0.00284246 2650 
52 1 0.0154404 0.050777 0.00170086 0.001058 -0.00702953 0.0194323 -0.0174178 2650 
17 1 0.0150509 0.0553371 0.00148799 0.00164 0.00701424 0.0397619 -0.0326359 2650 
106 1 0.000886698 0.0331842 0.00242196 0.001058 0.0119634 0.0223893 -0.0027555 2650 
293 1 0.0152947 0.0432376 0.0037754 0.001058 0.0266831 -0.000741464 -0.101251 2650 
38 1 0.0136269 0.0193117 0.00491106 0.000291 0.0290333 0.00993382 0.0254358 2650 
9 1 0.013468 0.0398756 0.0050603 0.00164 -0.00067168 0.0470366 0.00650688 2650 
238 1 0.0144986 0.0503557 0.00591015 0.001058 -0.00137728 0.0257105 -0.0165728 2650 
298 1 0.0132023 0.00248329 0.00671828 0.000105 0.00377194 -0.00442838 -0.00799766 2650 
156 1 0.0122816 0.00630273 0.00873393 0.001058 -0.00386139 -0.00886559 -0.00604091 2650 
265 1 0.0123024 0.0127401 0.00975094 0.001058 0.00631372 0.00593974 -0.00936806 2650 
66 1 0.0109804 0.00787808 0.0103354 0.001058 0.00109107 -0.000952032 -0.00287426 2650 
139 1 0.00856299 0.0251143 0.0111726 0.001058 -0.0138539 0.00679752 0.0124887 2650 
242 1 0.00169649 0.0378455 0.011685 0.000291 0.0116924 0.0265357 0.00697501 2650 
105 1 0.0061976 0.0195904 0.0125207 0.00164 -0.00344466 0.00582004 -0.00613861 2650 
41 1 0.00320816 0.020599 0.0134732 0.00164 -0.00672013 0.00866437 -0.0057422 2650 
245 1 0.0254604 0.0992653 -0.0345596 0.001058 3.67153 -0.00710985 -4.98538 2650 
75 1 0.0109489 0.0787972 -0.0114581 0.001058 0.0240155 0.0510522 0.00788599 2650 
127 1 0.015883 0.0908772 -0.00362727 0.000291 0.0147798 0.0618117 0.0201086 2650 
