ITEM: TIMESTEP
19015713
ITEM: NUMBER OF ATOMS
266
ITEM: BOX BOUNDS ff ff ff
-0.15 0.15
-0.15 0.15
-0.15 0.15
ITEM: ATOMS id type x y z radius vx vy vz density 
64 1 -0.00287795 -0.00376861 -0.0688333 0.000105 -7.78433 0.432443 0.337661 2650 
82 1 -0.00873903 -0.0390688 -0.067386 0.001058 -10.3983 -0.0337675 1.34868 2650 
268 1 -0.0145613 -0.0114858 -0.0671626 0.000291 -7.9586 0.100271 1.71353 2650 
26 1 -0.0171132 -0.0495378 -0.0657773 0.001058 -10.333 -0.00685413 2.68845 2650 
22 1 -0.0214005 -0.0185662 -0.0653117 0.000291 -7.95469 -0.196508 2.61435 2650 
219 1 -0.026624 -0.000290974 -0.0633405 0.000291 -7.69431 -0.000150205 3.2245 2650 
122 1 -0.0311284 -0.0322147 -0.0603957 0.001058 -8.77471 -0.00450017 4.52259 2650 
100 1 -0.028901 -0.0242618 -0.0614951 0.001058 -7.7642 0.220956 3.64776 2650 
88 1 -0.0320215 -0.0199889 -0.0610184 0.000105 -7.45584 0.0993678 3.91643 2650 
252 1 -0.0304661 -0.0135013 -0.0607583 0.001058 -7.65868 -0.528943 3.87012 2650 
197 1 -0.031541 -0.00576717 -0.0610423 0.000291 -5.60668 -0.0690425 2.91467 2650 
55 1 -0.0345009 -0.00793343 -0.0594248 0.000291 -4.08168 -0.201221 2.37137 2650 
278 1 -0.0422702 -0.0365708 -0.0531936 0.001058 -7.94825 0.1067 6.30558 2650 
294 1 -0.0426017 -0.0344979 -0.0529288 0.001058 -7.91165 0.105138 6.36363 2650 
175 1 -0.0432388 -0.00461062 -0.0533882 0.000291 -7.07351 -0.454344 5.72948 2650 
141 1 -0.0465821 -0.0367813 -0.0504843 0.000291 -7.63801 -0.315926 7.05679 2650 
34 1 -0.0480459 -0.030875 -0.0482393 0.001058 -7.57741 -3.69544e-07 7.54703 2650 
110 1 -0.0484695 -0.00420347 -0.0486973 0.000291 -3.40238 -0.170597 3.36897 2650 
185 1 -0.0502352 -0.0518651 -0.0448947 0.00164 -7.04123 0.00591063 7.87811 2650 
78 1 -0.0519636 -0.0290538 -0.0449512 0.000291 -6.74083 0.337883 7.79385 2650 
81 1 -0.0527767 -0.0500214 -0.041885 0.00164 -6.5828 0.00134002 8.29449 2650 
162 1 -0.0533345 -0.0473913 -0.0421089 0.001058 -6.63747 -0.000708901 8.40657 2650 
132 1 -0.0534563 -0.0209911 -0.0419487 0.001058 -5.69927 0.47612 7.28369 2650 
42 1 -0.0542888 -0.0546414 -0.0408659 0.001058 -6.4163 -0.00773992 8.52382 2650 
159 1 -0.0552948 -0.036667 -0.0407846 0.000291 -6.2771 0.866161 8.51122 2650 
172 1 -0.0559761 -0.0543149 -0.0385268 0.001058 -6.0543 0.0386308 8.79632 2650 
193 1 -0.0554675 -0.0498671 -0.0382654 0.00164 -6.00533 0.0270241 8.70498 2650 
270 1 -0.0566254 -0.00798984 -0.0389239 0.000291 -4.33864 -0.323602 6.30672 2650 
20 1 -0.0570987 -0.0549415 -0.0368407 0.001058 -5.7832 -0.0341317 8.96384 2650 
43 1 -0.0582998 -0.0497302 -0.034932 0.001058 -5.5287 0.00296394 9.22519 2650 
102 1 -0.0587707 -0.0164638 -0.0356322 0.000291 -4.7752 -0.10453 7.87658 2650 
148 1 -0.0595282 -0.053056 -0.0327841 0.001058 -5.15029 0.00985475 9.35161 2650 
35 1 -0.0599902 -0.0508844 -0.0319435 0.001058 -5.01776 -4.24707e-06 9.42342 2650 
79 1 -0.0614542 -0.0366178 -0.0307231 0.000291 -1.79658 -0.372039 3.61372 2650 
188 1 -0.0615273 -0.0615816 -0.0288329 0.001058 -4.52428 0.0238926 9.65464 2650 
218 1 -0.061944 -0.0492093 -0.027982 0.001058 -4.39614 -0.00151193 9.73168 2650 
247 1 -0.0631808 -0.0506511 -0.0270514 0.000291 -4.25018 0.0124087 9.92651 2650 
254 1 -0.063026 -0.0502183 -0.0274083 0.000291 -4.30341 0.00616274 9.89584 2650 
174 1 -0.0648073 -0.0219529 -0.0228521 0.000291 -2.89782 -0.135705 8.2317 2650 
6 1 -0.0650744 -0.00627766 -0.0220494 0.000291 -2.69669 -0.0853068 7.94902 2650 
236 1 -0.0656729 -0.0616319 -0.0174337 0.001058 -2.73768 0.00117168 10.3127 2650 
74 1 -0.00980763 -8.06971e-05 -0.0120388 0.001058 0.00552843 -0.00502923 -0.00272883 2650 
135 1 -0.00772293 -0.00218344 -0.0111359 0.000291 0.00330025 -0.00264717 0.00636962 2650 
296 1 -0.0680353 -0.0103421 -0.00941994 0.000291 -1.21156 0.0111264 8.62144 2650 
61 1 -0.0682882 -0.00687949 -0.00745483 0.000291 -0.690813 -0.306099 6.0314 2650 
58 1 -0.00794845 -0.00149869 -0.00551651 0.001058 0.020455 0.00490158 -0.0306807 2650 
45 1 -0.0686724 -0.0211888 -0.00144125 0.000291 -0.102405 -0.682913 8.39656 2650 
200 1 -0.0688584 -0.0125976 -0.0013959 0.000105 -0.153161 -0.154191 9.36734 2650 
248 1 -0.0686572 -0.0273451 0.00264054 0.000291 0.408132 0.16679 10.6236 2650 
112 1 -0.0686063 -0.0426781 0.00623457 0.000105 1.05915 1.83393 12.0672 2650 
138 1 -0.0674652 -0.0555906 0.00807524 0.001058 1.26689 0.0290484 10.5839 2650 
146 1 -0.0672209 -0.0488642 0.00995741 0.001058 1.5641 -0.00149419 10.5591 2650 
250 1 -0.000825892 -0.00123101 0.0154412 0.001058 0.0161046 -0.00542442 -0.00110725 2650 
152 1 -0.0665373 -0.00901794 0.0179032 0.000105 1.73393 -0.677515 6.45399 2650 
182 1 -0.0643131 -0.018675 0.0242406 0.000291 2.97831 0.260443 7.86425 2650 
304 1 -0.0646309 -0.0151904 0.0233891 0.000291 2.85814 0.302064 7.90454 2650 
93 1 -0.0631371 -0.050077 0.0271549 0.000291 4.32052 -0.0177025 10.0434 2650 
179 1 -0.0618944 -0.0489999 0.0280907 0.001058 4.3957 -0.00585865 9.68573 2650 
37 1 -0.0631419 -0.0159868 0.0271574 0.000291 3.04258 1.14771 6.97389 2650 
24 1 -0.0635986 -0.0118107 0.0265401 0.000105 3.68011 -1.30206 8.81972 2650 
59 1 -0.061757 -0.0466022 0.0283978 0.001058 4.46534 0.000879188 9.71109 2650 
49 1 -0.0600258 -0.0490848 0.0306441 0.00164 4.81496 -0.0114419 9.43107 2650 
165 1 -0.061273 -0.0452775 0.0311379 0.000291 4.87843 0.0600291 9.59998 2650 
257 1 -0.0591479 -0.0486385 0.0334855 0.001058 5.24531 0.0370159 9.26521 2650 
275 1 -0.0592249 -0.00827221 0.0348484 0.000291 4.41052 0.332798 7.49493 2650 
221 1 -0.0556404 -0.017566 0.0403269 0.000291 5.36833 -0.379569 7.41106 2650 
207 1 -0.0479525 -0.0138913 0.0491873 0.000291 6.0686 0.364196 6.00703 2650 
212 1 -0.0474751 -0.0135805 0.0496265 0.000291 6.17898 0.5779 5.97011 2650 
15 1 -0.0467138 -0.0186117 0.0503185 0.000291 6.15252 -0.0880452 5.78601 2650 
46 1 -0.0464618 -0.0160723 0.0505589 0.000291 6.93538 0.201651 6.37219 2650 
208 1 -0.0365608 -0.0230653 0.0572763 0.001058 8.6076 -0.128968 5.49861 2650 
158 1 -0.0382335 -0.0123287 0.0570947 0.000291 7.152 0.108644 4.75478 2650 
16 1 -0.0341832 -0.0107476 0.0598329 0.000105 7.6933 -0.057332 4.40526 2650 
85 1 -0.031329 -0.0209071 0.061165 0.000291 6.03251 -0.138731 3.12185 2650 
171 1 -0.0252541 -0.0494919 0.0631049 0.001058 9.92487 -0.0202155 3.97182 2650 
90 1 -0.0232194 -0.049382 0.0638815 0.001058 10.0321 0.00906887 3.64628 2650 
21 1 -0.0288839 -0.0467694 0.0623708 0.000291 9.7021 -0.037055 4.49333 2650 
225 1 -0.0184813 -0.0449998 0.0654082 0.001058 10.286 -0.00910328 2.90652 2650 
261 1 -0.0245935 -0.037509 0.0641571 0.000291 8.60685 -0.212177 3.2962 2650 
14 1 -0.0167271 -0.0403574 0.0666531 0.000291 10.5336 0.809906 2.62792 2650 
39 1 -0.0110162 -0.0392657 0.0678246 0.000291 11.1284 -0.191445 1.80409 2650 
240 1 -0.0105954 -0.0280087 0.0678846 0.000291 9.19342 0.0111397 1.43611 2650 
168 1 -0.0089451 -0.0391867 0.0683129 0.000105 7.12768 -0.0144952 0.949983 2650 
126 1 -0.00541765 -0.0344485 0.0684935 0.000291 9.05858 -0.699412 0.718937 2650 
269 1 -0.00114227 -0.0136845 0.068699 0.000291 9.74889 -0.355969 0.161503 2650 
29 1 -0.00721091 -0.00686912 0.0683287 0.000291 7.73511 -0.327322 0.812584 2650 
173 1 -0.00766088 -0.0044736 0.0682791 0.000291 7.75033 -0.00412481 0.86849 2650 
134 1 -0.00342618 0.00701903 -0.0145721 0.000291 -0.0128132 0.00355392 -0.00692922 2650 
80 1 -0.00840253 0.018772 -0.0141279 0.000105 0.0200167 0.0220396 -0.007602 2650 
232 1 -0.00332215 0.0345382 -0.0152327 0.001058 -0.0260744 0.0281349 0.00795724 2650 
97 1 -0.00734548 0.00873961 -0.0132517 0.00164 0.0189231 0.00904729 -0.00561719 2650 
130 1 -0.00636035 0.0027752 -0.0107824 0.001058 -0.00692202 0.00347734 0.00595777 2650 
198 1 -0.0140792 0.00683974 -0.00870254 0.000291 0.0468885 -0.0185413 -0.0627354 2650 
10 1 -0.0126353 0.00908558 -0.00883191 0.001058 0.0053433 0.0061558 -0.0070677 2650 
67 1 -0.0120702 0.0194433 -0.00852189 0.001058 -0.0104976 0.0129104 0.0114407 2650 
71 1 -0.000618736 0.000511306 -0.00791951 0.000291 0.000861808 -0.00718564 -0.0173142 2650 
114 1 -0.000934158 0.0111567 -0.00725215 0.001058 0.0187062 0.0117361 -0.00752779 2650 
205 1 -0.00863264 0.00286359 -0.00213407 0.000291 -0.00881861 0.00364628 0.0236275 2650 
129 1 -0.000682472 0.0102149 -0.00258137 0.00164 -0.00374589 0.0128173 -0.00288427 2650 
7 1 -0.00310903 0.031468 -0.00333265 0.000291 0.00378858 0.0136367 -0.000251809 2650 
234 1 -0.0131822 0.0109676 -0.000644464 0.000291 -0.00131366 0.00431637 0.0126772 2650 
65 1 -0.0148284 0.0290335 -0.00113645 0.00164 -0.00447342 0.0138222 0.00034274 2650 
115 1 -0.0147114 0.0179603 0.00572452 0.001058 0.00236141 0.0122312 0.0092361 2650 
256 1 -0.0157751 0.0226078 0.00489423 0.000291 0.000881351 0.0216623 0.00465977 2650 
217 1 -0.00919607 0.0474158 0.00554605 0.001058 0.000747792 0.0265619 -0.00553463 2650 
209 1 -0.0140979 0.00463813 0.00629481 0.001058 0.00584419 -0.0188996 0.0174994 2650 
211 1 -0.0122746 0.00684864 0.00604372 0.001058 0.000982608 0.00314487 0.00709992 2650 
187 1 -0.0143141 0.0273842 0.00668665 0.001058 0.00500069 0.0154788 0.0119088 2650 
220 1 -0.0127285 0.0274785 0.00787755 0.000291 0.00991537 0.0130183 0.0124552 2650 
68 1 -0.00090909 0.00628906 0.00848992 0.001058 0.00272783 -0.00342387 -0.00169301 2650 
244 1 -0.0128208 0.0159306 0.00925552 0.001058 0.022777 0.0219925 0.0312088 2650 
28 1 -0.00931943 0.0625958 0.00926512 0.001058 0.00734507 0.0503926 0.00344867 2650 
266 1 -0.00999434 0.0131744 0.0116557 0.001058 0.0336072 0.0100687 0.0213347 2650 
224 1 -0.00869895 0.01636 0.0115665 0.001058 -0.00111942 0.00491513 -0.00282362 2650 
273 1 -0.00129679 0.0554299 0.0110934 0.001058 0.00511 0.0387776 -0.00978519 2650 
299 1 -0.00583516 0.00151491 0.0127697 0.001058 0.00581403 -0.00322581 0.00124072 2650 
4 1 -0.00758073 0.00872408 0.0138009 0.001058 0.0064118 0.000915196 0.00341804 2650 
124 1 -0.00465902 0.048589 0.0133206 0.001058 0.0225448 0.0380641 0.0162983 2650 
116 1 -0.00626238 0.059306 0.0132211 0.001058 -0.0278213 0.0454338 0.0115295 2650 
144 1 -0.00260353 0.0229149 0.0144904 0.000105 0.0152864 0.0109644 -0.00695946 2650 
147 1 -0.00426837 0.0403971 0.0151206 0.001058 0.0373753 0.0132509 0.0100339 2650 
157 1 -0.00053739 0.0783032 -0.0136417 0.000291 0.0079085 0.0606548 0.000918149 2650 
48 1 0.00749884 -0.0522404 -0.0684859 0.000105 -10.1611 -0.128599 -1.11347 2650 
253 1 0.00506917 -0.0208607 -0.0685211 0.000291 -9.80849 0.161447 -0.724865 2650 
131 1 0.00871289 -0.0484592 -0.0673936 0.001058 -10.5897 0.012495 -1.36926 2650 
213 1 0.0150156 -0.0424475 -0.0670624 0.000291 -10.5991 -0.154897 -2.37336 2650 
300 1 0.00141614 -0.0183473 -0.0679318 0.001058 -7.5332 -0.170897 -0.166841 2650 
271 1 0.00179311 -0.012937 -0.0679217 0.001058 -7.59438 -0.154004 -0.172747 2650 
239 1 0.0183455 -0.0493912 -0.0654451 0.001058 -10.3188 0.00244447 -2.89269 2650 
119 1 0.0211191 -0.0495738 -0.0654044 0.000291 -10.3753 0.0231668 -3.34727 2650 
230 1 0.021764 -0.0489625 -0.0643888 0.001058 -10.1654 -0.0198754 -3.44484 2650 
288 1 0.0235881 -0.0461747 -0.0645586 0.000291 -10.0665 -0.0523996 -3.67808 2650 
96 1 0.0209036 -0.00934358 -0.0656596 0.000105 -8.06612 0.0354628 -2.58048 2650 
191 1 0.0287262 -0.0486878 -0.0624394 0.000291 -9.69884 0.034331 -4.46188 2650 
36 1 0.0262999 -0.0471679 -0.062679 0.001058 -9.84063 -0.144946 -4.12884 2650 
140 1 0.0241172 -0.0435677 -0.0635483 0.001058 -9.89959 0.0692484 -3.75731 2650 
108 1 0.0266751 -0.0407689 -0.0625072 0.001058 -9.77085 -0.0783444 -4.16975 2650 
125 1 0.0258315 -0.0322392 -0.0636646 0.000291 -8.39314 -0.350938 -3.40825 2650 
243 1 0.0287123 -0.051779 -0.0616002 0.001058 -9.58688 0.0264024 -4.46903 2650 
2 1 0.0312772 -0.0495499 -0.0603426 0.001058 -9.47493 0.0231017 -4.91115 2650 
201 1 0.0280578 -0.0454249 -0.0612805 0.00164 -9.6487 -0.0682121 -4.41702 2650 
60 1 0.0275803 -0.0426812 -0.0621188 0.001058 -9.80092 -0.138418 -4.35165 2650 
259 1 0.0290802 -0.0304696 -0.0614152 0.001058 -9.69559 -0.0197478 -4.59213 2650 
117 1 0.0315312 -0.0290549 -0.0610427 0.000291 -6.11162 0.0496497 -3.09106 2650 
281 1 0.0344992 -0.0622796 -0.059445 0.000291 -9.32897 0.000693533 -5.41406 2650 
99 1 0.0332893 -0.0476287 -0.059258 0.001058 -9.32917 -0.0192421 -5.24018 2650 
121 1 0.030911 -0.0462481 -0.0598881 0.00164 -9.40186 0.0466967 -4.85411 2650 
86 1 0.033366 -0.0402 -0.0600741 0.000291 -9.392 0.00247303 -5.21654 2650 
50 1 0.0347027 -0.0347737 -0.0584092 0.001058 -8.95439 -0.045231 -5.31695 2650 
196 1 0.0358655 -0.0476566 -0.0577312 0.001058 -9.12393 -0.0661891 -5.66857 2650 
167 1 0.0385396 -0.0182948 -0.0568971 0.000291 -9.31859 0.131962 -6.31045 2650 
73 1 0.039394 -0.0579339 -0.0546499 0.00164 -8.58445 -0.000758436 -6.18804 2650 
204 1 0.0411217 -0.0299119 -0.0540918 0.001058 -8.51247 0.0143195 -6.47132 2650 
18 1 0.0425819 -0.0156006 -0.0529546 0.001058 -8.5216 0.0693971 -6.85264 2650 
229 1 0.049128 -0.0616526 -0.0469393 0.001058 -7.37016 0.0145343 -7.71463 2650 
280 1 0.0482402 -0.0308793 -0.0480465 0.001058 -7.54713 1.03337e-05 -7.57755 2650 
228 1 0.0553746 -0.00625142 -0.0406597 0.000291 -5.28811 -0.305127 -7.2313 2650 
89 1 0.0558506 -0.0611601 -0.0376814 0.00164 -5.91917 3.09391e-07 -8.77325 2650 
291 1 0.0588196 -0.0559542 -0.0355167 0.000291 -3.52014 0.718662 -5.7768 2650 
83 1 0.0595417 -0.0498928 -0.0327771 0.001058 -5.14751 -0.00428908 -9.35077 2650 
94 1 0.0606081 -0.00463893 -0.0323563 0.000291 -2.60252 0.00901638 -4.98304 2650 
118 1 0.0629923 -0.0185736 -0.0274893 0.000291 -3.75468 -0.113262 -8.61583 2650 
215 1 0.0638973 -0.0485459 -0.0231781 0.001058 -3.64264 -0.00230566 -10.0417 2650 
104 1 0.0651489 -0.00501342 -0.0224039 0.000105 -2.68327 0.357844 -7.85257 2650 
190 1 0.065415 -0.00453054 -0.0210098 0.000291 -2.34048 0.160993 -7.28705 2650 
287 1 0.065159 -0.0497874 -0.0193378 0.001058 -3.04449 -0.0136073 -10.2585 2650 
84 1 0.0656353 -0.0510346 -0.0176384 0.001058 -2.76911 -0.0056994 -10.3048 2650 
264 1 0.0655015 -0.0478256 -0.0181505 0.001058 -2.85352 0.0182006 -10.2993 2650 
290 1 0.0666424 -0.0483779 -0.0168077 0.000291 -2.61725 -0.08501 -10.3785 2650 
181 1 0.0665473 -0.0469442 -0.0171822 0.000291 -2.70699 0.0460678 -10.4849 2650 
133 1 0.0666174 -0.0288121 -0.0168125 0.000291 -2.54785 0.0970791 -10.0947 2650 
109 1 0.0670248 -0.0517212 -0.015173 0.000291 -2.37653 0.00142548 -10.4977 2650 
235 1 0.0678746 -0.0125036 -0.0107386 0.000291 -1.75665 -0.160221 -11.1261 2650 
272 1 0.0677229 -0.0413319 -0.00550384 0.001058 -0.853462 0.177104 -10.5387 2650 
223 1 0.0677707 -0.0150178 -0.00489504 0.001058 -0.713463 -0.0058463 -9.91404 2650 
150 1 0.0686826 -0.0297463 -0.00189164 0.000291 -0.302811 -0.0656485 -10.9514 2650 
285 1 0.0680182 -0.0308608 -8.42262e-06 0.001058 -0.017417 -0.104718 -10.719 2650 
3 1 0.0678221 -0.02851 0.00409046 0.001058 0.633692 -0.138883 -10.4711 2650 
202 1 0.0676452 -0.0308135 0.00642691 0.001058 0.988481 -0.134129 -10.3964 2650 
186 1 0.0676172 -0.0220051 0.00615074 0.001058 0.854517 -0.252931 -8.87986 2650 
267 1 0.0682766 -0.0186435 0.00755944 0.000291 1.0481 0.129109 -9.55718 2650 
87 1 0.0681566 -0.020054 0.00869212 0.000291 1.1749 -0.103873 -9.08354 2650 
98 1 0.0669471 -0.0212691 0.0114927 0.001058 1.75051 -0.332733 -10.153 2650 
255 1 0.0678312 -0.0189351 0.0108192 0.000291 1.63881 0.0212446 -10.2844 2650 
145 1 0.0660185 -0.0373042 0.0134351 0.00164 2.05432 -0.0706157 -10.0857 2650 
95 1 0.00352093 -0.000240953 0.0138561 0.000291 -0.0190214 0.000188354 -0.00919676 2650 
170 1 0.00251617 -0.00169167 0.0156158 0.001058 0.0178138 -0.00502054 -0.00235441 2650 
137 1 0.06532 -0.0611601 0.0165051 0.00164 2.59248 -8.1643e-07 -10.26 2650 
184 1 0.0661362 -0.0265203 0.0192827 0.000105 2.68944 1.17886 -9.2489 2650 
241 1 0.065612 -0.0380448 0.0204037 0.000291 3.05296 -0.0132922 -9.82813 2650 
276 1 0.0645929 -0.0326178 0.0234138 0.000291 3.63882 -0.252089 -10.0414 2650 
251 1 0.0629835 -0.0308271 0.0255059 0.001058 3.92545 -0.0358852 -9.72854 2650 
177 1 0.0624905 -0.0202097 0.0252273 0.00164 3.77401 0.0924496 -9.33284 2650 
282 1 0.0628285 -0.0188565 0.0278585 0.000291 4.2152 -0.579407 -9.50531 2650 
210 1 0.0610155 -0.0339878 0.0298869 0.001058 4.49004 -0.0212789 -9.16714 2650 
128 1 0.00883757 -0.00759543 0.0683194 0.000105 8.18482 -0.466586 -1.02284 2650 
302 1 0.0600764 -0.0509975 0.0333768 0.000291 4.89413 0.0331095 -8.80362 2650 
231 1 0.0595942 -0.0398428 0.0326578 0.001058 4.86631 -0.146204 -8.87155 2650 
192 1 0.0591148 -0.000105 0.0353793 0.000105 4.57791 -0.00164059 -7.65885 2650 
226 1 0.0579774 -0.0412428 0.0368943 0.000291 5.68864 0.712517 -8.94357 2650 
277 1 0.0567683 -0.0405112 0.0387214 0.000291 5.73571 0.411853 -8.43352 2650 
295 1 0.0547241 -0.0280038 0.0415432 0.000291 6.09828 0.107456 -8.03626 2650 
40 1 0.05527 -0.000105004 0.0411273 0.000105 5.30231 -0.000433031 -7.12821 2650 
178 1 0.0523573 -0.0564516 0.0433083 0.001058 6.80281 -8.75927e-06 -8.22422 2650 
164 1 0.0532477 -0.0424432 0.0422157 0.001058 6.7597 -0.0627755 -8.52644 2650 
25 1 0.0511464 -0.0588001 0.0438534 0.00164 6.88853 -8.12015e-05 -8.03413 2650 
206 1 0.0504247 -0.062509 0.046673 0.000291 7.33135 1.86277e-09 -7.92066 2650 
169 1 0.0491222 -0.0611601 0.0461116 0.00164 7.24314 4.57202e-07 -7.71605 2650 
246 1 0.0496384 -0.0585276 0.0463993 0.001058 7.28856 -1.66622e-05 -7.79737 2650 
103 1 0.0478321 -0.0525204 0.0493149 0.000291 7.78075 0.270319 -7.54758 2650 
214 1 0.0465105 -0.0539936 0.0505178 0.000291 7.39316 -0.0343011 -6.81937 2650 
23 1 0.044157 -0.0458194 0.0526383 0.000291 7.76466 0.562205 -6.52739 2650 
44 1 0.0333881 -0.0312171 0.059179 0.001058 8.8392 -0.0732345 -4.94385 2650 
303 1 0.0330156 -0.0178511 0.0602799 0.000291 8.67463 -0.0642427 -4.74427 2650 
107 1 0.0231468 -0.0471099 0.0639107 0.001058 9.98983 0.0205362 -3.61832 2650 
227 1 0.0116475 -0.0453778 0.0677272 0.000291 10.8989 -0.0485848 -1.87442 2650 
76 1 0.0120594 -0.0395982 0.0668754 0.001058 10.1367 -0.0455239 -1.78639 2650 
30 1 0.0527125 -0.0324389 0.0662545 0.000291 10.4735 -0.457037 -0.467471 2650 
47 1 0.0132331 -0.0131661 0.0674315 0.000291 8.32948 -0.0786453 -1.65536 2650 
260 1 0.00810291 0.00700273 -0.0143864 0.000291 -0.00996736 0.00469349 0.00488237 2650 
54 1 0.00776228 0.0327424 -0.0145318 0.000291 -0.0419811 -0.00158121 -0.0215212 2650 
286 1 0.00613513 0.0394968 -0.0146311 0.001058 -0.02115 0.0482903 -0.0107899 2650 
153 1 0.00916553 0.00424489 -0.0122236 0.00164 0.00901504 -0.00371715 -0.0192614 2650 
33 1 0.00232881 0.02944 -0.012059 0.00164 0.00603998 0.0215627 0.00352792 2650 
301 1 0.00178609 0.0417035 -0.0130933 0.001058 -0.0176549 0.0163122 0.00371725 2650 
292 1 0.00416221 0.0518163 -0.0121431 0.001058 -0.0104367 0.0376087 -0.0291473 2650 
195 1 0.0117645 0.000959353 -0.0105007 0.001058 -0.0182689 0.00246922 -0.0247001 2650 
284 1 0.0120337 0.0132373 -0.00803122 0.000291 -0.00371053 0.00586111 -0.00129449 2650 
176 1 0.0153929 0.000283805 -0.00612148 0.000105 -0.0113334 0.00168079 0.000719247 2650 
77 1 0.0099453 0.0118275 -0.00760135 0.000291 -0.0117356 0.000913058 0.0103562 2650 
19 1 0.0131609 0.011159 -0.0072028 0.001058 -0.00189711 0.0050805 -0.00113271 2650 
123 1 0.0125288 0.0380819 -0.00683757 0.001058 -0.0069266 0.0381635 -0.00768552 2650 
101 1 0.0124538 0.000319774 -0.00421717 0.000291 0.0107852 -0.0015929 -0.0095042 2650 
199 1 0.013927 0.00553088 -0.00504442 0.000291 -0.0066469 0.00203541 -0.00705897 2650 
161 1 0.0136252 0.00793254 -0.00490842 0.00164 -0.000454856 0.00568005 -0.00417258 2650 
51 1 0.00059908 0.0144416 -0.00411552 0.001058 -0.0414136 0.0415048 -0.0353246 2650 
57 1 0.00562687 0.0271399 -0.00565709 0.00164 -0.000919831 0.00616449 -0.024056 2650 
70 1 0.0041831 0.0537808 -0.00529747 0.000291 0.000986621 0.0559838 -0.0454673 2650 
113 1 0.000149656 0.00569531 -0.00218019 0.00164 -0.0131936 -0.00156564 -0.00033725 2650 
203 1 0.0114964 0.0264427 -0.00249747 0.001058 0.0105265 0.0334803 0.00411967 2650 
249 1 0.00608455 0.0355083 -0.00314612 0.000291 0.00987628 0.0185258 -0.0129358 2650 
258 1 0.012238 0.0397913 -0.00208464 0.001058 -0.00702738 0.0458888 -0.00817646 2650 
263 1 0.0084441 0.059268 -0.00221574 0.000291 -0.0276857 0.0691876 -0.0511194 2650 
279 1 0.0114401 0.00596211 -0.000321412 0.001058 0.00690887 -0.00122776 0.0071413 2650 
1 1 0.0139481 0.00616224 -0.00193595 0.00164 -0.00396175 0.00352346 -0.00443708 2650 
194 1 0.01186 0.0349379 -8.88912e-05 0.001058 -0.00717738 0.0355954 0.00284246 2650 
92 1 0.0126825 0.00793444 6.74606e-05 0.001058 0.00298746 0.00292354 0.00546929 2650 
38 1 0.0124656 0.0189144 0.00389365 0.000291 0.0290333 0.00993382 0.0254358 2650 
106 1 0.000408168 0.0322886 0.00253218 0.001058 0.0119634 0.0223893 -0.0027555 2650 
52 1 0.0155374 0.0499843 0.00239789 0.001058 0.020942 0.0217799 -0.017467 2650 
17 1 0.0147704 0.0537466 0.00279341 0.00164 0.00701424 0.0397619 -0.0326359 2650 
9 1 0.0134949 0.0379941 0.00480003 0.00164 -0.00067168 0.0470366 0.00650688 2650 
298 1 0.0130514 0.00266042 0.00703818 0.000105 0.00377194 -0.00442838 -0.00799766 2650 
293 1 0.013772 0.0432157 0.00766195 0.001058 0.049836 0.00188159 -0.09294 2650 
238 1 0.014309 0.0492916 0.00649906 0.001058 0.0185997 0.0286204 -0.0105297 2650 
156 1 0.0124361 0.00665735 0.00897556 0.001058 -0.00386139 -0.00886559 -0.00604091 2650 
66 1 0.0109367 0.00791616 0.0104504 0.001058 0.00109107 -0.000952032 -0.00287426 2650 
265 1 0.0120499 0.0125026 0.0101257 0.001058 0.00631372 0.00593974 -0.00936806 2650 
139 1 0.00911714 0.0248424 0.010673 0.001058 -0.0138539 0.00679752 0.0124887 2650 
242 1 0.0012288 0.0367841 0.011406 0.000291 0.0116924 0.0265357 0.00697501 2650 
222 1 0.000907797 0.000528695 0.0122765 0.001058 -0.0324875 0.00467874 -0.0112895 2650 
105 1 0.00682012 0.0192043 0.0125698 0.00164 -0.0169664 0.0100977 -0.000660089 2650 
41 1 0.00299224 0.0204058 0.0138993 0.00164 0.0068016 0.00438666 -0.0112207 2650 
245 1 0.0096942 0.0974151 -0.0130062 0.001058 0.013355 0.0538623 -0.0223836 2650 
75 1 0.00998834 0.0767552 -0.0117735 0.001058 0.0240155 0.0510522 0.00788599 2650 
127 1 0.0152918 0.0884047 -0.0044316 0.000291 0.0147798 0.0618117 0.0201086 2650 
