ITEM: TIMESTEP
22967009
ITEM: NUMBER OF ATOMS
258
ITEM: BOX BOUNDS ff ff ff
-0.15 0.15
-0.15 0.15
-0.15 0.15
ITEM: ATOMS id type x y z radius vx vy vz density 
78 1 -0.0102956 -0.0328766 -0.0679319 0.000291 -10.807 -0.389268 1.63556 2650 
125 1 -0.0157014 -0.0377206 -0.0668936 0.000291 -10.7687 -0.0604281 2.52736 2650 
26 1 -0.0170664 -0.0495442 -0.0657893 0.001058 -10.3341 -1.19202e-05 2.68078 2650 
47 1 -0.0279676 -0.0151652 -0.0627862 0.000291 -8.2973 -0.203513 3.69583 2650 
48 1 -0.0359097 -0.0484901 -0.0588141 0.000105 -9.49117 0.114072 5.79085 2650 
34 1 -0.0480128 -0.030875 -0.0482722 0.001058 -7.58258 -2.12563e-08 7.54184 2650 
185 1 -0.0502022 -0.0518693 -0.0449316 0.00164 -7.05781 7.93327e-06 7.88571 2650 
81 1 -0.0527482 -0.050012 -0.0419213 0.00164 -6.58507 0.000391433 8.28574 2650 
162 1 -0.0533186 -0.0473832 -0.0421288 0.001058 -6.61756 0.000405346 8.37524 2650 
42 1 -0.0541907 -0.0548056 -0.0409957 0.001058 -6.43952 -0.000308732 8.51217 2650 
172 1 -0.0560203 -0.0547016 -0.0384617 0.001058 -6.04155 0.000310259 8.79963 2650 
193 1 -0.055539 -0.0498677 -0.0381613 0.00164 -5.99426 -5.79361e-05 8.72388 2650 
20 1 -0.0570999 -0.0555214 -0.036837 0.001058 -5.78636 0.000405643 8.96926 2650 
43 1 -0.0584729 -0.0500874 -0.0346451 0.001058 -5.44068 0.00138291 9.18253 2650 
148 1 -0.0595279 -0.0531334 -0.0327843 0.001058 -5.14976 -4.25113e-05 9.35064 2650 
35 1 -0.0599588 -0.0508739 -0.0320038 0.001058 -5.02707 -1.79296e-05 9.41816 2650 
188 1 -0.0615212 -0.0616391 -0.0288451 0.001058 -4.53109 -0.000250729 9.664 2650 
247 1 -0.0630313 -0.0496607 -0.0274037 0.000291 -4.30451 -0.000153281 9.90083 2650 
254 1 -0.0626516 -0.0503197 -0.0282585 0.000291 -4.43822 0.0016932 9.84139 2650 
218 1 -0.0619239 -0.049207 -0.0280263 0.001058 -4.40233 -7.0654e-05 9.72692 2650 
282 1 -0.0632387 -0.0274387 -0.0268524 0.000291 -3.92177 0.157519 9.23394 2650 
267 1 -0.0651832 -0.019906 -0.0217809 0.000291 -3.13673 -0.334874 9.40022 2650 
158 1 -0.0646734 -0.013894 -0.0232741 0.000291 -3.31588 0.121452 9.23022 2650 
236 1 -0.0656659 -0.0616401 -0.0174592 0.001058 -2.74214 0.000431787 10.3134 2650 
112 1 -0.0666926 -0.037568 -0.0172828 0.000105 -2.64204 -0.0414327 10.1931 2650 
74 1 -0.00803855 -0.00169003 -0.012912 0.001058 0.00552843 -0.00502923 -0.00272883 2650 
71 1 -0.000342961 -0.00178807 -0.01346 0.000291 0.000861808 -0.00718564 -0.0173142 2650 
200 1 -0.068329 -0.00748648 -0.00878444 0.000105 -1.2196 0.222195 9.4911 2650 
135 1 -0.00666686 -0.00303052 -0.00909763 0.000291 0.00330025 -0.00264717 0.00636962 2650 
159 1 -0.0686123 -0.0378891 -0.00361112 0.000291 -0.5677 -0.504285 10.7836 2650 
138 1 -0.0674703 -0.0559961 0.00802958 0.001058 1.2626 0.0038345 10.6102 2650 
146 1 -0.0672279 -0.0488611 0.00991013 0.001058 1.55661 2.09697e-05 10.5597 2650 
295 1 -0.0679719 -0.0269669 0.0100218 0.000291 1.57759 -0.31554 10.6969 2650 
248 1 -0.067952 -0.0230643 0.0101852 0.000291 1.61221 -0.180911 10.7544 2650 
214 1 -0.0675599 -0.0525409 0.0125416 0.000291 1.95635 -0.367883 10.542 2650 
209 1 -0.0111944 -0.00126216 0.0111141 0.001058 0.0110369 -0.0181584 0.0135773 2650 
95 1 -0.00256585 -0.000180681 0.0109131 0.000291 -0.0190214 0.000188354 -0.00919676 2650 
271 1 -0.0666844 -0.0152336 0.0131113 0.001058 2.13537 -0.0478564 10.8595 2650 
277 1 -0.0661333 -0.0372314 0.018643 0.000291 2.82122 -0.188754 9.9892 2650 
179 1 -0.0619772 -0.0488313 0.0279098 0.001058 4.38392 0.000497578 9.73504 2650 
59 1 -0.0617752 -0.0465968 0.0283587 0.001058 4.45454 1.79792e-05 9.70356 2650 
93 1 -0.0622546 -0.0493429 0.0291268 0.000291 4.57514 0.00177796 9.77874 2650 
165 1 -0.0621828 -0.045706 0.0292861 0.000291 4.60033 -0.000185598 9.76783 2650 
257 1 -0.0590522 -0.0488785 0.0336515 0.001058 5.28919 0.00382468 9.28179 2650 
221 1 -0.0585963 -0.0215954 0.0358965 0.000291 5.03525 -0.0057229 8.20441 2650 
29 1 -0.0547955 -0.0122303 0.0414636 0.000291 6.09861 0.0751274 8.06403 2650 
96 1 -0.0534133 -0.00752095 0.0435134 0.000105 5.57598 0.193366 6.86229 2650 
208 1 -0.048273 -0.0308698 0.0480134 0.001058 7.54193 6.35518e-08 7.5827 2650 
270 1 -0.0474709 -0.0094146 0.0496266 0.000291 6.97525 0.707162 6.7222 2650 
55 1 -0.0460622 -0.0169693 0.0509272 0.000291 7.55075 -0.0512959 6.82184 2650 
192 1 -0.0460419 -0.000105101 0.0512508 0.000105 6.87778 0.000242848 6.17814 2650 
186 1 -0.0419301 -0.0202987 0.0534697 0.001058 8.34737 -0.0313745 6.54562 2650 
223 1 -0.0381723 -0.0199683 0.056221 0.001058 8.84312 -0.015257 6.00432 2650 
173 1 -0.0414158 -0.0117853 0.0548072 0.000291 8.3463 0.358143 6.29658 2650 
46 1 -0.037721 -0.0209495 0.0574307 0.000291 8.96616 -0.36011 5.88612 2650 
197 1 -0.0347584 -0.0114802 0.0592849 0.000291 6.84306 -0.185201 3.99686 2650 
21 1 -0.0294735 -0.0489814 0.0620918 0.000291 9.75616 -0.00608277 4.631 2650 
22 1 -0.0295636 -0.0233405 0.0620284 0.000291 9.24948 0.197869 4.41074 2650 
171 1 -0.0252781 -0.049521 0.0630951 0.001058 9.91125 -0.00446714 3.97068 2650 
90 1 -0.0232271 -0.0494841 0.0638786 0.001058 10.0343 0.000223297 3.64858 2650 
225 1 -0.0242161 -0.0476496 0.063513 0.001058 9.9767 0.000141379 3.80389 2650 
302 1 -0.0271818 -0.0420568 0.0631226 0.000291 10.4164 0.2458 4.48512 2650 
117 1 -0.0288445 -0.0188273 0.0623829 0.000291 9.2078 0.224015 4.26054 2650 
23 1 -0.0221499 -0.0493776 0.0650635 0.000291 10.2091 -0.00113173 3.47563 2650 
76 1 -0.0203302 -0.0467571 0.0648593 0.001058 10.1303 0.116472 3.17169 2650 
14 1 -0.0212964 -0.0339759 0.0653203 0.000291 10.1349 0.221866 3.30522 2650 
261 1 -0.00772783 -0.0305791 0.0682752 0.000291 10.3074 0.225868 1.16757 2650 
44 1 -0.000183382 -0.030875 0.0680838 0.001058 10.6946 -2.12624e-08 0.0288058 2650 
49 1 -0.0600475 -0.0490854 0.0306015 0.00164 4.80687 -0.000109407 9.43221 2650 
80 1 -0.00199726 0.0258246 -0.0165605 0.000105 0.0200167 0.0220396 -0.007602 2650 
58 1 -0.00140295 6.97906e-05 -0.0153342 0.001058 0.020455 0.00490158 -0.0306807 2650 
134 1 -0.00634543 0.00815183 -0.0145098 0.000291 -0.00544633 0.00352621 0.00729171 2650 
97 1 -0.00129018 0.0116347 -0.0150492 0.00164 0.0189231 0.00904729 -0.00561719 2650 
54 1 -0.0065711 0.0321625 -0.0152266 0.000291 -0.0425652 -0.00199916 0.0175605 2650 
286 1 -0.00117299 0.0546023 -0.0157687 0.001058 -0.0224686 0.0460898 0.00428948 2650 
292 1 -0.0010763 0.0632119 -0.0133986 0.001058 -0.0198756 0.0344324 0.0109755 2650 
10 1 -0.0109255 0.0110554 -0.0110935 0.001058 0.0053433 0.0061558 -0.0070677 2650 
51 1 -0.00959136 0.0269339 -0.0106741 0.001058 2.58043e-05 0.0308241 0.0288994 2650 
232 1 -0.010704 0.0433218 -0.011366 0.001058 -0.0196298 0.0266647 0.016804 2650 
301 1 -0.00386339 0.0469233 -0.0119038 0.001058 -0.0176549 0.0163122 0.00371725 2650 
130 1 -0.00857537 0.00388793 -0.00887598 0.001058 -0.00692202 0.00347734 0.00595777 2650 
67 1 -0.015033 0.0235172 -0.0047428 0.001058 -0.00153648 0.0116126 0.0141107 2650 
113 1 -0.00407225 0.00519431 -0.00228811 0.00164 -0.0131936 -0.00156564 -0.00033725 2650 
129 1 -0.00188114 0.0143163 -0.00350433 0.00164 -0.00374589 0.0128173 -0.00288427 2650 
7 1 -0.0018967 0.0358317 -0.00341323 0.000291 0.00378858 0.0136367 -0.000251809 2650 
65 1 -0.0147776 0.0332429 -0.000868256 0.00164 0.00199904 0.0128894 0.00103488 2650 
234 1 -0.0136026 0.0123489 0.00341218 0.000291 -0.00131366 0.00431637 0.0126772 2650 
217 1 -0.00895678 0.0559154 0.00377499 0.001058 0.000747792 0.0265619 -0.00553463 2650 
205 1 -0.0114546 0.00403038 0.00542662 0.000291 -0.00881861 0.00364628 0.0236275 2650 
68 1 -3.61971e-05 0.00519344 0.00794816 0.001058 0.00272783 -0.00342387 -0.00169301 2650 
256 1 -0.0154208 0.0295299 0.00636514 0.000291 0.00177718 0.0215424 0.00440949 2650 
222 1 -0.00948807 0.00202587 0.00866391 0.001058 -0.0324875 0.00467874 -0.0112895 2650 
211 1 -0.0119602 0.00785498 0.00831566 0.001058 0.000982608 0.00314487 0.00709992 2650 
115 1 -0.0133265 0.0217725 0.00829282 0.001058 0.0059455 0.0116516 0.00703082 2650 
224 1 -0.00770606 0.0172039 0.0104291 0.001058 0.0046856 0.00178326 -0.00382818 2650 
187 1 -0.0122305 0.0322685 0.0101334 0.001058 0.00749407 0.0151236 0.010031 2650 
220 1 -0.00955567 0.0316443 0.0118632 0.000291 0.00991537 0.0130183 0.0124552 2650 
299 1 -0.00397469 0.000482667 0.0131667 0.001058 0.00581403 -0.00322581 0.00124072 2650 
4 1 -0.00551697 0.00901505 0.0148341 0.001058 0.00673868 0.000863758 0.00176759 2650 
244 1 -0.00323039 0.0232085 0.0155659 0.001058 0.0359853 0.021076 -0.00170709 2650 
28 1 -0.00696904 0.0787212 0.0103687 0.001058 0.00734507 0.0503926 0.00344867 2650 
294 1 0.000183382 -0.030875 -0.0680838 0.001058 -10.6946 -2.12575e-08 -0.0288058 2650 
131 1 0.00876115 -0.0484655 -0.0673872 0.001058 -10.5853 0.00131099 -1.37623 2650 
50 1 0.0134294 -0.0438893 -0.0666221 0.001058 -10.4724 -0.0628791 -2.11117 2650 
82 1 0.00118892 -0.042035 -0.0679377 0.001058 -10.6724 -0.00963262 -0.186576 2650 
239 1 0.0183198 -0.0500776 -0.0654512 0.001058 -10.2781 0.00237855 -2.87693 2650 
119 1 0.0209366 -0.0503016 -0.0654614 0.000291 -10.2657 -0.0128464 -3.28332 2650 
288 1 0.0195714 -0.048812 -0.0658852 0.000291 -10.3702 -0.0181862 -3.08091 2650 
230 1 0.0204766 -0.0487438 -0.0648114 0.001058 -10.1804 5.28693e-05 -3.21641 2650 
191 1 0.0236722 -0.0479633 -0.0645288 0.000291 -10.1368 -0.000273743 -3.71866 2650 
190 1 0.0223132 -0.0104282 -0.0650014 0.000291 -8.35617 -0.312679 -2.87701 2650 
36 1 0.0224662 -0.0484554 -0.0641518 0.001058 -10.0768 2.04463e-05 -3.52894 2650 
108 1 0.0251431 -0.0480329 -0.0631516 0.001058 -9.91392 -0.0102278 -3.94689 2650 
213 1 0.0284975 -0.0475757 -0.062547 0.000291 -9.81111 -0.0133981 -4.47001 2650 
140 1 0.0236296 -0.0465913 -0.0637341 0.001058 -10.0137 -0.00937091 -3.71246 2650 
79 1 0.025594 -0.0411436 -0.0637802 0.000291 -10.0134 -0.212198 -4.01266 2650 
24 1 0.0266358 -0.0248107 -0.063536 0.000105 -9.90966 -1.017 -4.15489 2650 
184 1 0.0267157 -0.0184263 -0.0635257 0.000105 -10.1716 0.0530635 -4.27672 2650 
15 1 0.028179 -0.0186638 -0.0626875 0.000291 -9.98157 0.00357726 -4.48727 2650 
243 1 0.0298223 -0.0508399 -0.0610742 0.001058 -9.59345 -0.000290479 -4.68444 2650 
2 1 0.0311728 -0.0493573 -0.0603994 0.001058 -9.48741 -0.000338687 -4.89655 2650 
201 1 0.0281459 -0.0455107 -0.061239 0.00164 -9.6194 3.1732e-05 -4.42115 2650 
60 1 0.0273837 -0.0431111 -0.0622083 0.001058 -9.77131 0.000198938 -4.30127 2650 
278 1 0.0283837 -0.0335229 -0.0617292 0.001058 -9.64005 -0.0166608 -4.43256 2650 
259 1 0.0292304 -0.0308992 -0.0613624 0.001058 -9.63777 -0.000137227 -4.59102 2650 
122 1 0.0293291 -0.0287871 -0.0612869 0.001058 -9.62698 -6.96918e-05 -4.60703 2650 
61 1 0.0311129 -0.0170904 -0.0612855 0.000291 -8.69353 0.275938 -4.41344 2650 
281 1 0.0345364 -0.0622793 -0.0594234 0.000291 -9.33102 -1.8305e-06 -5.42312 2650 
99 1 0.0339292 -0.0484396 -0.0588943 0.001058 -9.25157 0.00235878 -5.3299 2650 
121 1 0.0312231 -0.0458172 -0.0597268 0.00164 -9.38175 -0.000284026 -4.90445 2650 
196 1 0.0358587 -0.0476318 -0.0577362 0.001058 -9.05635 -3.99825e-05 -5.62433 2650 
86 1 0.0385179 -0.0337228 -0.0568951 0.000291 -8.83204 -0.016141 -5.98052 2650 
73 1 0.0394281 -0.058149 -0.0546268 0.00164 -8.60428 0.00219275 -6.159 2650 
141 1 0.0396863 -0.0377691 -0.05609 0.000291 -8.84116 -0.0437372 -6.25517 2650 
6 1 0.041176 -0.0158522 -0.055015 0.000291 -7.48359 -0.0632465 -5.60687 2650 
255 1 0.0413391 -0.0168203 -0.0548915 0.000291 -7.71192 0.0418523 -5.80655 2650 
300 1 0.0414678 -0.0218589 -0.0538313 0.001058 -8.00521 0.012302 -6.17107 2650 
175 1 0.0423245 -0.0123209 -0.0541323 0.000291 -7.33369 -0.00499367 -5.73454 2650 
296 1 0.0442214 -0.00689011 -0.0525859 0.000291 -7.14676 -0.173443 -6.0103 2650 
204 1 0.0451411 -0.031251 -0.0507857 0.001058 -7.9787 0.0042308 -7.09183 2650 
174 1 0.0464246 -0.0265638 -0.0506514 0.000291 -7.91615 0.0462198 -7.25606 2650 
18 1 0.043256 -0.0207439 -0.0524024 0.001058 -8.2698 0.0487636 -6.82655 2650 
152 1 0.0474395 -0.00435255 -0.0499571 0.000105 -7.75136 0.0674277 -7.36014 2650 
229 1 0.0491663 -0.0616291 -0.0469 0.001058 -7.36715 0.000165893 -7.72315 2650 
280 1 0.0482731 -0.0308793 -0.0480135 0.001058 -7.54194 1.03337e-05 -7.58272 2650 
45 1 0.0510995 -0.0104486 -0.0457912 0.000291 -6.34748 0.21663 -7.05432 2650 
182 1 0.0532466 -0.0192305 -0.0434228 0.000291 -5.82687 -0.14154 -7.12085 2650 
269 1 0.0548079 -0.0172537 -0.0414326 0.000291 -6.08656 0.0708809 -8.06118 2650 
89 1 0.0558764 -0.0611601 -0.0376432 0.00164 -5.91314 2.87158e-07 -8.77729 2650 
272 1 0.058219 -0.0489096 -0.035066 0.001058 -5.51128 0.0207089 -9.14211 2650 
83 1 0.0598464 -0.0499965 -0.0322179 0.001058 -5.06775 -0.00579764 -9.41422 2650 
110 1 0.0615811 -0.011824 -0.0305204 0.000291 -4.05201 0.139097 -8.18617 2650 
291 1 0.0646861 -0.0439264 0.0232282 0.000291 3.59577 -0.103832 -10.01 2650 
168 1 0.0633647 -0.0274407 -0.0270272 0.000105 -3.9538 0.527158 -9.25598 2650 
181 1 0.0643351 -0.0478202 -0.0241942 0.000291 -3.8002 -0.00296703 -10.1052 2650 
215 1 0.0639147 -0.0485429 -0.0231303 0.001058 -3.63337 -0.000309559 -10.0399 2650 
287 1 0.0651161 -0.0499115 -0.0194816 0.001058 -3.06019 1.31957e-05 -10.2285 2650 
84 1 0.0656493 -0.0510364 -0.017586 0.001058 -2.76256 -0.00200524 -10.3128 2650 
264 1 0.0654786 -0.048242 -0.0182331 0.001058 -2.86408 2.35383e-05 -10.2855 2650 
290 1 0.0664697 -0.0487606 -0.017479 0.000291 -2.74556 0.000551618 -10.4409 2650 
118 1 0.0664055 -0.024837 -0.0176437 0.000291 -2.55905 0.0927763 -9.63742 2650 
109 1 0.066979 -0.0512878 -0.0153831 0.000291 -2.41701 0.00737479 -10.5238 2650 
128 1 0.0683922 -0.0153675 -0.00835118 0.000105 -1.05042 0.0682975 -8.60752 2650 
101 1 0.0148078 -0.0001356 -0.0067257 0.000291 -0.00701612 -0.000711223 -0.000860441 2650 
303 1 0.0685045 -0.0209675 -0.00529082 0.000291 -0.755115 -0.161834 -9.72938 2650 
150 1 0.0687079 -0.0325202 -0.000437108 0.000291 -0.0683934 -0.00832762 -10.7689 2650 
285 1 0.0680838 -0.030875 0.000183382 0.001058 0.0288058 -2.12563e-08 -10.6946 2650 
132 1 0.067419 -0.0199214 0.0084407 0.001058 1.30525 -0.194784 -10.4007 2650 
202 1 0.0671911 -0.0309431 0.0101555 0.001058 1.5868 0.00836058 -10.4979 2650 
87 1 0.0679917 -0.0206314 0.00972785 0.000291 1.45629 -0.0218712 -10.227 2650 
3 1 0.066825 -0.0310112 0.0123559 0.001058 1.94714 -0.0283213 -10.5277 2650 
170 1 0.00759927 -0.00322022 0.0136419 0.001058 0.0153298 -0.00470662 -0.00726617 2650 
88 1 0.0679195 -0.00389231 0.0115245 0.000105 1.56692 -0.152163 -9.16477 2650 
250 1 0.00432752 -0.0029668 0.0150868 0.001058 0.0161046 -0.00542442 -0.00110725 2650 
137 1 0.0653087 -0.0611601 0.0165498 0.00164 2.59951 -8.16432e-07 -10.2582 2650 
164 1 0.0660572 -0.046433 0.0159947 0.001058 2.48884 -0.0818183 -10.2827 2650 
226 1 0.0668137 -0.0449999 0.0161032 0.000291 2.53218 -0.0731848 -10.5069 2650 
104 1 0.0614745 -0.0188705 0.0311423 0.000105 4.29334 0.365919 -8.48555 2650 
103 1 0.0604173 -0.0508126 0.0327581 0.000291 5.05913 -0.304356 -9.33494 2650 
231 1 0.0593509 -0.044489 0.0331248 0.001058 5.22446 0.0419309 -9.3604 2650 
85 1 0.0578186 -0.00987717 0.037141 0.000291 5.01894 0.193877 -7.81814 2650 
268 1 0.0572273 -0.0164472 0.0380538 0.000291 6.19044 0.0160589 -9.31114 2650 
178 1 0.0526027 -0.0567366 0.0430089 0.001058 6.75584 -4.1575e-05 -8.26284 2650 
25 1 0.0511178 -0.0588111 0.0438865 0.00164 6.8937 -5.78401e-05 -8.0296 2650 
240 1 0.0529435 -0.0339411 0.0437905 0.000291 6.49288 -0.0478851 -7.8558 2650 
126 1 0.05253 -0.0299205 0.0442889 0.000291 6.56 -0.268432 -7.78267 2650 
206 1 0.0503927 -0.062509 0.0467075 0.000291 7.33677 1.86283e-09 -7.91564 2650 
169 1 0.0490907 -0.0611601 0.0461453 0.00164 7.24843 4.57202e-07 -7.71108 2650 
246 1 0.0496066 -0.0585276 0.0464333 0.001058 7.2939 -1.66622e-05 -7.79238 2650 
145 1 0.0489079 -0.0393101 0.0463355 0.00164 7.27507 0.0146853 -7.6787 2650 
304 1 0.0509015 -0.0125877 0.0461483 0.000291 6.90664 0.187793 -7.61889 2650 
219 1 0.050307 -0.000290979 0.0467995 0.000291 6.30384 8.39037e-05 -6.7682 2650 
40 1 0.0506449 -0.000104996 0.0467066 0.000105 6.29458 2.77617e-07 -6.81292 2650 
241 1 0.0489413 -0.0347918 0.0482256 0.000291 7.55351 0.144937 -7.6652 2650 
251 1 0.0480128 -0.030875 0.0482722 0.001058 7.58258 -2.12563e-08 -7.54184 2650 
207 1 0.0480553 -0.0134236 0.0491092 0.000291 7.83338 -0.0876508 -7.664 2650 
210 1 0.0455997 -0.0342803 0.0503733 0.001058 7.8984 -0.00890388 -7.15005 2650 
276 1 0.046068 -0.0314346 0.0509753 0.000291 8.01809 -0.0365576 -7.24611 2650 
275 1 0.0448743 -0.016621 0.0520311 0.000291 8.37933 -0.345126 -7.22488 2650 
102 1 0.0406127 -0.0119564 0.0554319 0.000291 8.76442 0.224972 -6.42264 2650 
39 1 0.0358708 -0.039903 0.0586064 0.000291 9.20613 0.296569 -5.63625 2650 
133 1 0.0369221 -0.0287928 0.0579427 0.000291 8.85501 0.083027 -5.64111 2650 
37 1 0.0369746 -0.0274602 0.0579088 0.000291 8.83256 -0.0321108 -5.63923 2650 
177 1 0.0341817 -0.0177916 0.0580815 0.00164 9.09964 0.0443583 -5.35494 2650 
252 1 0.0359945 -0.0158377 0.0576516 0.001058 9.04541 0.0269831 -5.64731 2650 
235 1 0.0370101 -0.0173787 0.0579084 0.000291 9.11033 0.11764 -5.82229 2650 
253 1 0.0299906 -0.0220997 0.0618276 0.000291 10.0285 -0.0118206 -4.86684 2650 
107 1 0.0207129 -0.0490741 0.0647374 0.001058 10.186 -0.0173082 -3.25896 2650 
227 1 0.0235569 -0.0465666 0.0645714 0.000291 10.3915 0.103127 -3.7904 2650 
167 1 0.0109773 -0.0267508 0.0678252 0.000291 11.1576 -0.351645 -1.81509 2650 
98 1 0.0127048 -0.0184161 0.0667583 0.001058 10.3778 -0.00659326 -1.97741 2650 
100 1 0.0164631 -0.0193826 0.0659393 0.001058 10.2693 -0.00911565 -2.56393 2650 
94 1 0.0191775 -0.0166362 0.0660012 0.000291 10.2105 -0.0586604 -2.96761 2650 
212 1 0.0197126 -0.0174273 0.0658417 0.000291 10.1902 0.0202692 -3.04979 2650 
228 1 0.0139872 -0.0130805 0.0672763 0.000291 9.93865 0.0325244 -2.0628 2650 
16 1 0.0189133 -0.00104254 0.0662442 0.000105 10.2991 0.00136685 -2.94079 2650 
64 1 0.00968047 -0.0137168 0.0682093 0.000105 10.9935 -0.307061 -1.5664 2650 
198 1 0.00287159 0.00237548 -0.0162743 0.000291 -0.0296253 0.00903644 -0.00211577 2650 
195 1 0.00362554 0.00193698 -0.0152426 0.001058 -0.0272585 0.00295666 -0.00563484 2650 
293 1 0.000149317 0.0405368 -0.0157795 0.001058 -0.099294 -0.016287 -0.00425496 2650 
260 1 0.0049134 0.00850463 -0.012824 0.000291 -0.00996736 0.00469349 0.00488237 2650 
57 1 0.00533253 0.0291125 -0.0133549 0.00164 -0.000919831 0.00616449 -0.024056 2650 
33 1 0.00426158 0.03634 -0.0109301 0.00164 0.00603998 0.0215627 0.00352792 2650 
153 1 0.00672646 0.00378084 -0.00997869 0.00164 -0.00763413 -0.0014489 0.00703428 2650 
114 1 0.00505173 0.0149122 -0.00966101 0.001058 0.0187062 0.0117361 -0.00752779 2650 
284 1 0.0108463 0.0151128 -0.00844546 0.000291 -0.00371053 0.00586111 -0.00129449 2650 
123 1 0.0103123 0.0502941 -0.0092969 0.001058 -0.0069266 0.0381635 -0.00768552 2650 
199 1 0.0118 0.0061822 -0.00730326 0.000291 -0.0066469 0.00203541 -0.00705897 2650 
161 1 0.0134797 0.00975013 -0.00624362 0.00164 -0.000454856 0.00568005 -0.00417258 2650 
19 1 0.0125538 0.0127847 -0.00756527 0.001058 -0.00189711 0.0050805 -0.00113271 2650 
249 1 0.00924491 0.0414364 -0.00728552 0.000291 0.00987628 0.0185258 -0.0129358 2650 
176 1 0.0117663 0.000821652 -0.00589132 0.000105 -0.0113334 0.00168079 0.000719247 2650 
77 1 0.00618997 0.0121197 -0.00428741 0.000291 -0.0117356 0.000913058 0.0103562 2650 
258 1 0.00998931 0.0544755 -0.00470108 0.001058 -0.00702738 0.0458888 -0.00817646 2650 
1 1 0.0126803 0.00728973 -0.0033558 0.00164 -0.00396175 0.00352346 -0.00443708 2650 
52 1 0.0134722 0.056218 -0.00317605 0.001058 -0.00702953 0.0194323 -0.0174178 2650 
203 1 0.0148648 0.0371562 -0.0011792 0.001058 0.0105265 0.0334803 0.00411967 2650 
279 1 0.0136509 0.00556923 0.00196377 0.001058 0.00690887 -0.00122776 0.0071413 2650 
92 1 0.0136385 0.00886996 0.00181761 0.001058 0.00298746 0.00292354 0.00546929 2650 
106 1 0.00423641 0.0394531 0.00165043 0.001058 0.0119634 0.0223893 -0.0027555 2650 
194 1 0.00956329 0.0463282 0.000820685 0.001058 -0.00717738 0.0355954 0.00284246 2650 
238 1 0.0141129 0.0575545 0.00126984 0.001058 -0.00137728 0.0257105 -0.0165728 2650 
298 1 0.0142584 0.00124336 0.00447896 0.000105 0.00377194 -0.00442838 -0.00799766 2650 
156 1 0.0112004 0.0038204 0.0070425 0.001058 -0.00386139 -0.00886559 -0.00604091 2650 
265 1 0.0140703 0.0144033 0.00712791 0.001058 0.00631372 0.00593974 -0.00936806 2650 
9 1 0.0132799 0.0530457 0.0068822 0.00164 -0.00067168 0.0470366 0.00650688 2650 
273 1 0.000338387 0.0678386 0.00796222 0.001058 0.00511 0.0387776 -0.00978519 2650 
66 1 0.0112859 0.00761151 0.00953062 0.001058 0.00109107 -0.000952032 -0.00287426 2650 
38 1 0.0109352 0.0206896 0.00818364 0.000291 -0.0203804 0.00352473 0.00785771 2650 
105 1 0.00523311 0.02122 0.0108019 0.00164 -0.00344466 0.00582004 -0.00613861 2650 
41 1 0.00132655 0.023025 0.0118654 0.00164 -0.00672013 0.00866437 -0.0057422 2650 
144 1 0.00228806 0.0264234 0.0122634 0.000105 0.0152864 0.0109644 -0.00695946 2650 
242 1 0.00497032 0.0452754 0.013638 0.000291 0.0116924 0.0265357 0.00697501 2650 
147 1 0.00767566 0.0440021 0.0138606 0.001058 0.0353859 0.00964285 -0.0152098 2650 
266 1 0.00111368 0.0165031 0.0157893 0.001058 0.0339312 0.0111352 -0.00649733 2650 
139 1 0.00468395 0.0270175 0.0146694 0.001058 -0.0138539 0.00679752 0.0124887 2650 
124 1 0.00275238 0.0603322 0.0151653 0.001058 0.0237177 0.0354635 -0.00375445 2650 
157 1 0.0019933 0.0977125 -0.0133479 0.000291 0.0079085 0.0606548 0.000918149 2650 
