ITEM: TIMESTEP
1111304
ITEM: NUMBER OF ATOMS
304
ITEM: BOX BOUNDS ff ff ff
-0.15 0.15
-0.15 0.15
-0.15 0.15
ITEM: ATOMS id type x y z radius vx vy vz density 
133 1 -0.0109661 -0.00896279 -0.0678338 0.000291 -3.40916 -0.223889 0.518061 2650 
151 1 -0.0444496 -0.00683549 -0.052392 0.000291 -2.41234 -0.158111 2.02052 2650 
86 1 -0.0674592 -0.0117199 -0.0131111 0.000291 -0.604019 -0.567482 2.84276 2650 
241 1 -0.008593 -0.00108194 -0.012306 0.000291 0 -0.011755 0 2650 
93 1 -0.0100046 -0.00120218 -0.0111588 0.000291 -0.0556851 -0.0305292 -0.0421019 2650 
5 1 -0.00939856 -0.00127952 -0.0108463 0.000291 0.0305316 -0.174994 -0.0459935 2650 
215 1 -0.00232 -0.00322794 -0.00968 0.001058 0 -0.011755 0 2650 
125 1 -0.0684615 -0.047862 -0.00583742 0.000291 -0.397429 0.0135051 4.57559 2650 
167 1 -0.007283 -0.00294194 -0.00514 0.000291 0 -0.011755 0 2650 
59 1 -0.0067543 -0.00158114 -0.00449635 0.001058 0.00115799 -0.0116141 0.00139237 2650 
23 1 -0.005085 -0.00204794 -0.002724 0.000291 0 -0.011755 0 2650 
107 1 -0.003706 -0.00172694 -0.003027 0.001058 0 -0.011755 0 2650 
282 1 -0.001816 -0.000785937 -0.002164 0.000291 0 -0.011755 0 2650 
89 1 -0.00158239 -0.00226067 0.00187261 0.00164 -0.0058431 -0.0117287 -0.0183195 2650 
283 1 -0.00950707 -0.00268968 0.00306176 0.000291 0.131939 -0.107769 -0.10529 2650 
229 1 -0.00462013 -0.00229027 0.00258728 0.001058 9.1281e-05 -0.0149163 0.00350247 2650 
127 1 -0.006868 -0.00154494 0.0035 0.000291 0 -0.011755 0 2650 
2 1 -0.013701 -0.00174294 0.005224 0.001058 0 -0.011755 0 2650 
63 1 -0.010157 -0.00173394 0.004282 0.000291 0 -0.011755 0 2650 
157 1 -0.011403 -0.00179294 0.006122 0.000291 0 -0.011755 0 2650 
42 1 -0.008546 -0.000488937 0.006756 0.001058 0 -0.011755 0 2650 
219 1 -0.0681517 -0.0147056 0.00861644 0.000291 0.624327 -0.190155 4.14629 2650 
36 1 -0.012004 -0.00225994 0.009853 0.001058 0 -0.011755 0 2650 
257 1 -0.009847 -0.00182294 0.008559 0.001058 0 -0.011755 0 2650 
204 1 -0.00156 -0.000674937 0.010678 0.001058 0 -0.011755 0 2650 
84 1 -0.000959 -0.00259894 0.012417 0.001058 0 -0.011755 0 2650 
73 1 -0.00542133 -3.60498e-05 0.0142239 0.00164 0.00700172 -0.0344738 0.0838982 2650 
154 1 -0.00259372 -0.00176481 0.0154866 0.001058 0.208984 0.134281 -0.109253 2650 
147 1 -0.000208 -0.00118994 0.014718 0.001058 0 -0.011755 0 2650 
230 1 -0.00628563 -0.00499847 0.0193886 0.001058 -0.920689 -0.392154 2.44368 2650 
152 1 -0.00385954 -0.0226151 0.0687367 0.000105 3.54157 -0.163914 0.112769 2650 
17 1 -0.0044133 0.00354034 -0.0145634 0.00164 0.00275872 -0.00783162 0.0103761 2650 
85 1 -0.003548 0.00579406 -0.015444 0.000291 0 -0.011755 0 2650 
70 1 -0.002345 0.00759606 -0.015511 0.000291 0 -0.011755 0 2650 
26 1 -0.00152388 0.000653546 -0.0138801 0.001058 0.0221941 -0.0485621 -0.0309091 2650 
295 1 -0.006507 0.00231106 -0.01264 0.000291 0 -0.011755 0 2650 
189 1 -0.004115 0.00198906 -0.01297 0.000291 0 -0.011755 0 2650 
280 1 -0.00250721 0.00222227 -0.012826 0.001058 0.0152434 -0.0484737 -0.0428672 2650 
115 1 -0.009032 0.00764306 -0.012506 0.001058 0 -0.011755 0 2650 
33 1 -0.003866 0.0106591 -0.012959 0.00164 0 -0.011755 0 2650 
163 1 -0.005911 0.000766063 -0.010628 0.001058 0 -0.011755 0 2650 
138 1 -0.00310101 0.00319971 -0.0110114 0.001058 -0.00785657 -0.0461065 -0.0441548 2650 
198 1 -0.01006 0.00694006 -0.011926 0.000291 0 -0.011755 0 2650 
234 1 -0.003052 0.00703706 -0.010232 0.000291 0 -0.011755 0 2650 
273 1 -0.00119 0.00699906 -0.010246 0.001058 0 -0.011755 0 2650 
47 1 -0.011528 0.00824406 -0.010748 0.000291 0 -0.011755 0 2650 
32 1 -0.00506747 0.0089168 -0.0112976 0.000105 0.00408433 -0.0405512 -0.0362068 2650 
94 1 -0.011581 0.0127211 -0.01188 0.000291 0 -0.011755 0 2650 
57 1 -0.00732255 0.0122824 -0.0119824 0.00164 -0.051925 0.0200641 -0.0904637 2650 
139 1 -0.000102551 0.0128284 -0.0105289 0.001058 0.0288724 0.0119708 -0.0425505 2650 
166 1 -0.005567 0.000261063 -0.009051 0.000291 0 -0.011755 0 2650 
108 1 -0.007031 0.00300006 -0.009032 0.001058 0 -0.011755 0 2650 
41 1 -0.00641436 0.00777919 -0.00887927 0.00164 -0.0426201 0.0149708 -0.0234718 2650 
175 1 -0.013247 0.00828406 -0.008751 0.000291 0 -0.011755 0 2650 
144 1 -0.011054 0.0128421 -0.008779 0.000105 0 -0.011755 0 2650 
220 1 -0.00810597 0.0131839 -0.00897681 0.000291 -0.0258814 0.00931039 0.00803739 2650 
91 1 -0.000862578 0.0182721 -0.00863711 0.001058 -0.0674224 0.148351 -0.200163 2650 
200 1 -0.012172 0.00154406 -0.006974 0.000105 0 -0.011755 0 2650 
293 1 -0.009422 0.000831063 -0.006923 0.001058 0 -0.011755 0 2650 
218 1 -0.00573992 0.00176921 -0.00738428 0.001058 0.00591971 -0.0159874 -0.00632168 2650 
137 1 -0.001323 0.000334063 -0.006126 0.00164 0 -0.011755 0 2650 
250 1 -0.013194 0.00393706 -0.006197 0.001058 0 -0.011755 0 2650 
214 1 -0.008446 0.00125406 -0.004092 0.000291 0 -0.011755 0 2650 
203 1 -0.00683551 0.00287879 -0.00588262 0.001058 0.0108298 -0.0118951 -0.00146797 2650 
76 1 -0.003173 0.00334206 -0.005708 0.001058 0 -0.011755 0 2650 
276 1 -0.013674 0.00982806 -0.004231 0.000291 0 -0.011755 0 2650 
240 1 -0.010392 0.00888606 -0.005262 0.000291 0 -0.011755 0 2650 
74 1 -0.012237 0.0102261 -0.004721 0.001058 0 -0.011755 0 2650 
159 1 -0.012707 0.0128221 -0.00588 0.000291 0 -0.011755 0 2650 
187 1 -0.00958997 0.0125327 -0.00534237 0.001058 -0.0112156 -0.0033076 -0.00319333 2650 
116 1 -0.013496 0.00135406 -0.003353 0.001058 0 -0.011755 0 2650 
90 1 -0.0109715 0.00133433 -0.00334355 0.001058 0.00769491 -0.0700265 0.031251 2650 
43 1 -0.00831082 0.00278506 -0.0038771 0.001058 0.021172 -0.0262086 0.0149909 2650 
270 1 -0.006476 0.00276906 -0.003483 0.000291 0 -0.011755 0 2650 
211 1 -0.013621 0.00456806 -0.002856 0.001058 0 -0.011755 0 2650 
274 1 -0.016349 0.00669306 -0.002509 0.000291 0 -0.011755 0 2650 
114 1 -0.012867 0.00722406 -0.002401 0.001058 0 -0.011755 0 2650 
13 1 -0.014201 0.00892806 -0.003882 0.000291 0 -0.011755 0 2650 
104 1 -0.014089 0.00961006 -0.003012 0.000105 0 -0.011755 0 2650 
65 1 -0.00878685 0.00986582 -0.00306657 0.00164 -0.00345901 0.0120485 0.00345367 2650 
256 1 -0.0102343 0.0109677 -0.00373916 0.000291 -0.0123982 -0.000129637 -0.00545733 2650 
7 1 -0.008475 0.0125491 -0.002976 0.000291 0 -0.011755 0 2650 
180 1 -0.015098 0.000603063 -0.001623 0.001058 0 -0.011755 0 2650 
123 1 -0.014683 0.00209806 -0.000117 0.001058 0 -0.011755 0 2650 
131 1 -0.0120068 0.00366336 -0.000666588 0.001058 -0.0285413 -0.0462991 0.0286753 2650 
140 1 -0.00885204 0.00303099 -0.00079697 0.001058 0.00884369 -0.039642 0.00959408 2650 
195 1 -0.00948573 0.00510917 -0.00104868 0.001058 0.0113575 -0.0204345 0.047058 2650 
223 1 -0.00678286 0.00540336 -0.00147568 0.001058 0.0415501 -0.0223204 0.0172409 2650 
10 1 -0.012845 0.0103121 -0.000712 0.001058 0 -0.011755 0 2650 
61 1 -0.016439 0.0125401 -0.001038 0.000291 0 -0.011755 0 2650 
136 1 -0.00258394 0.0157311 -0.000808926 0.000105 -0.0729053 0.12081 -0.0484832 2650 
99 1 -0.011672 0.000216063 9.8e-05 0.001058 0 -0.011755 0 2650 
75 1 -0.008381 0.000306063 0.001024 0.001058 0 -0.011755 0 2650 
135 1 -0.00337544 0.000191959 0.000506262 0.000291 0.018454 0.00911816 -0.0138033 2650 
122 1 -0.001782 0.00103206 0.000344 0.001058 0 -0.011755 0 2650 
206 1 -0.013164 0.00260006 0.001584 0.000291 0 -0.011755 0 2650 
14 1 -0.006378 0.00363506 0.001478 0.000291 0 -0.011755 0 2650 
191 1 -0.0108 0.00496706 0.001549 0.000291 0 -0.011755 0 2650 
296 1 -0.005879 0.00411306 0.000521 0.000291 0 -0.011755 0 2650 
168 1 -0.007536 0.00597806 0.001389 0.000105 0 -0.011755 0 2650 
120 1 -0.016055 0.00818006 0.000189 0.000105 0 -0.011755 0 2650 
209 1 -0.010932 0.00809206 0.001176 0.001058 0 -0.011755 0 2650 
80 1 -0.014935 0.0108781 0.00039 0.000105 0 -0.011755 0 2650 
268 1 -0.011054 0.0114021 0.000789 0.000291 0 -0.011755 0 2650 
129 1 -0.008713 0.0112161 0.001908 0.00164 0 -0.011755 0 2650 
132 1 -0.01481 0.00103406 0.003327 0.001058 0 -0.011755 0 2650 
106 1 -0.009716 0.000634063 0.002779 0.001058 0 -0.011755 0 2650 
158 1 -0.007297 0.000177063 0.003049 0.000291 0 -0.011755 0 2650 
149 1 -0.004792 0.000131063 0.002724 0.000291 0 -0.011755 0 2650 
272 1 -0.001203 0.00103806 0.002609 0.001058 0 -0.011755 0 2650 
124 1 -0.014115 0.00367106 0.003875 0.001058 0 -0.011755 0 2650 
302 1 -0.008928 0.00386506 0.003809 0.000291 0 -0.011755 0 2650 
18 1 -0.005138 0.00517206 0.00212 0.001058 0 -0.011755 0 2650 
52 1 -0.00324917 0.00758504 0.003363 0.001058 -0.0711305 -0.0179987 -0.00803782 2650 
176 1 -0.003983 0.00951706 0.002552 0.000105 0 -0.011755 0 2650 
242 1 -0.003848 0.00881406 0.003544 0.000291 0 -0.011755 0 2650 
245 1 -0.00479 0.0168958 0.00273846 0.001058 -0.00877598 0.0648343 0.053396 2650 
11 1 -0.0108333 0.0179136 0.0024368 0.001058 -0.086582 0.108675 0.069531 2650 
49 1 -0.007469 0.00130106 0.004859 0.00164 0 -0.011755 0 2650 
182 1 -0.007428 0.00345106 0.005665 0.000291 0 -0.011755 0 2650 
58 1 -0.009725 0.00513206 0.005089 0.001058 0 -0.011755 0 2650 
28 1 -0.013611 0.00751506 0.005538 0.001058 0 -0.011755 0 2650 
170 1 -0.01149 0.00765006 0.005193 0.001058 0 -0.011755 0 2650 
53 1 -0.000389 0.00625506 0.004762 0.000291 0 -0.011755 0 2650 
238 1 -0.009207 0.00840306 0.004742 0.001058 0 -0.011755 0 2650 
77 1 -0.00436507 0.00858695 0.0041871 0.000291 -0.0659618 0.0071766 0.0150346 2650 
164 1 -0.003894 0.00855306 0.005467 0.001058 0 -0.011755 0 2650 
291 1 -0.008194 0.0129271 0.004767 0.000291 0 -0.011755 0 2650 
266 1 -0.0128299 0.00191603 0.00777612 0.001058 0.00105428 -0.0117776 0.00184446 2650 
235 1 -0.001066 0.000794063 0.007831 0.000291 0 -0.011755 0 2650 
64 1 -0.001837 0.00121906 0.007035 0.000105 0 -0.011755 0 2650 
254 1 -0.006211 0.00379006 0.006905 0.000291 0 -0.011755 0 2650 
98 1 -0.001703 0.00611606 0.00616 0.001058 0 -0.011755 0 2650 
186 1 -0.006177 0.0108691 0.006545 0.001058 0 -0.011755 0 2650 
111 1 -0.009474 0.000864063 0.008964 0.000291 0 -0.011755 0 2650 
44 1 -0.007195 0.00300606 0.008791 0.001058 0 -0.011755 0 2650 
251 1 -0.00366278 0.00939395 0.00940784 0.001058 -0.031714 -0.0278746 0.036794 2650 
304 1 -0.012709 0.0122081 0.009818 0.000291 0 -0.011755 0 2650 
4 1 -0.013492 0.0120871 0.008313 0.001058 0 -0.011755 0 2650 
12 1 -0.00119838 0.0603607 0.00809082 0.001058 0.0647213 0.549795 -0.169615 2650 
97 1 -0.00969591 0.000614508 0.0117334 0.00164 -0.0275123 -0.0132882 -0.0225105 2650 
38 1 -0.000348 0.000627063 0.010029 0.000291 0 -0.011755 0 2650 
233 1 -0.001796 0.00355206 0.010436 0.000291 0 -0.011755 0 2650 
35 1 -0.002198 0.00701306 0.010984 0.001058 0 -0.011755 0 2650 
217 1 -0.00777899 0.00860464 0.0115282 0.001058 -0.0106168 0.0279099 0.00374771 2650 
224 1 -0.00535368 0.00925822 0.0115655 0.001058 0.00642458 -0.00461224 0.0070675 2650 
299 1 -0.010562 0.0106491 0.010709 0.001058 0 -0.011755 0 2650 
68 1 -0.00486441 0.0112536 0.0109448 0.001058 0.00272783 -0.00342387 -0.00169301 2650 
71 1 -0.000529773 0.0116579 0.0101848 0.000291 -0.0104586 -0.0101041 0.055119 2650 
55 1 -0.01171 0.0126761 0.01034 0.000291 0 -0.011755 0 2650 
226 1 -0.009224 0.00452406 0.012787 0.000291 0 -0.011755 0 2650 
300 1 -0.00893404 0.00716227 0.0129941 0.001058 -0.0070311 -0.00989347 -0.0019089 2650 
285 1 -0.00578312 0.00730235 0.0123745 0.001058 -0.00795457 0.0243574 0.0656623 2650 
249 1 -0.00695796 0.00858587 0.0130898 0.000291 0.00734877 0.000399267 0.0242708 2650 
100 1 -0.00107527 0.00794416 0.0128188 0.001058 0.00171616 -0.0143968 0.000728218 2650 
153 1 -0.0028075 0.0100929 0.0129194 0.00164 -0.0163422 -0.018073 0.0437888 2650 
202 1 -0.00393921 0.00635998 0.0145752 0.001058 0.0436761 0.0285453 -0.0430067 2650 
29 1 -0.0052 0.00832706 0.014245 0.000291 0 -0.011755 0 2650 
265 1 -0.000465 0.00918006 0.015551 0.001058 0 -0.011755 0 2650 
156 1 -0.000944441 0.0119618 0.0144432 0.001058 0.0105273 0.00111324 0.0241494 2650 
297 1 0.020068 -0.0072124 -0.0657183 0.000291 -2.92406 0.0152237 -0.96661 2650 
148 1 0.0389442 -0.02547 -0.0556763 0.001058 -3.52433 -0.241923 -2.39947 2650 
290 1 0.0560933 -0.0346918 -0.0396748 0.000291 -2.25166 -0.40865 -2.98166 2650 
22 1 0.0635553 -0.0306708 -0.0261083 0.000291 -0.985858 -0.474298 -3.40615 2650 
69 1 0.0671877 -0.0156683 -0.0144618 0.000291 -0.731539 -0.269874 -3.32209 2650 
172 1 0.001341 -0.00267994 -0.014713 0.001058 0 -0.011755 0 2650 
292 1 0.002958 -0.00123294 -0.012416 0.001058 0 -0.011755 0 2650 
165 1 0.00179807 -0.00332686 -0.0119073 0.000291 0.0699817 -0.0215946 -0.463438 2650 
83 1 0.007342 -0.000420937 -0.011981 0.001058 0 -0.011755 0 2650 
188 1 0.003247 -0.00227894 -0.009042 0.001058 0 -0.011755 0 2650 
162 1 0.010619 -0.000726937 -0.009864 0.001058 0 -0.011755 0 2650 
109 1 0.0089 -0.00246294 -0.006999 0.000291 0 -0.011755 0 2650 
40 1 0.002884 -0.000514937 -0.006462 0.000105 0 -0.011755 0 2650 
185 1 0.007006 -0.00103994 -0.006884 0.00164 0 -0.011755 0 2650 
221 1 0.006551 -0.00250294 -0.004504 0.000291 0 -0.011755 0 2650 
62 1 0.005002 -0.00165594 -0.004312 0.000291 0 -0.011755 0 2650 
16 1 0.006364 -0.000386937 -0.005251 0.000105 0 -0.011755 0 2650 
39 1 0.011011 -0.000699937 -0.005294 0.000291 0 -0.011755 0 2650 
8 1 0.000989 -0.000661937 -0.00369 0.000105 0 -0.011755 0 2650 
20 1 0.013152 -0.00163094 -0.002682 0.001058 0 -0.011755 0 2650 
239 1 0.008697 -0.00184394 -0.000945 0.001058 0 -0.011755 0 2650 
248 1 0.008036 -0.000792937 -0.000368 0.000291 0 -0.011755 0 2650 
87 1 0.010454 -0.00166194 -0.001717 0.000291 0 -0.011755 0 2650 
255 1 0.005303 -0.000489937 0.000727 0.000291 0 -0.011755 0 2650 
288 1 0.006653 -0.00183694 0.001326 0.000291 0 -0.011755 0 2650 
179 1 0.002629 -0.00214194 0.002938 0.001058 0 -0.011755 0 2650 
121 1 0.013566 -0.00121494 0.003132 0.00164 0 -0.011755 0 2650 
247 1 0.001401 -0.000640937 0.005706 0.000291 0 -0.011755 0 2650 
21 1 0.0248998 -0.0101886 0.00643729 0.000291 3.04211 -1.34352 0.737019 2650 
192 1 0.012227 -0.00288594 0.006398 0.000105 0 -0.011755 0 2650 
15 1 0.012888 -0.00244194 0.009988 0.000291 0 -0.011755 0 2650 
193 1 0.00621476 -0.000584263 0.00881768 0.00164 -0.00920003 -0.0416499 -0.0118576 2650 
243 1 0.01084 -7.29368e-05 0.008454 0.001058 0 -0.011755 0 2650 
281 1 0.006175 -0.00294494 0.011215 0.000291 0 -0.011755 0 2650 
181 1 0.012465 -0.00170194 0.010211 0.000291 0 -0.011755 0 2650 
236 1 0.00919879 -0.00566643 0.0130085 0.001058 0.380112 -0.709808 0.412915 2650 
169 1 0.0649838 -0.0504262 0.0178222 0.00164 1.41117 -0.430272 -5.02693 2650 
119 1 0.0520741 -0.0427677 0.0447526 0.000291 2.12934 -0.982743 -2.66252 2650 
25 1 0.0301014 -0.0463082 0.0602951 0.00164 4.28581 -0.392433 -2.09977 2650 
146 1 0.00910896 -0.0275841 0.0673328 0.001058 3.50612 -0.694483 -0.429589 2650 
34 1 0.00164189 -0.00740127 0.0679235 0.001058 4.88384 -0.0972222 -0.16776 2650 
155 1 0.005921 0.000447063 -0.01427 0.001058 0 -0.011755 0 2650 
46 1 0.007499 0.00365106 -0.014091 0.000291 0 -0.011755 0 2650 
303 1 0.001598 0.00421406 -0.015917 0.000291 0 -0.011755 0 2650 
160 1 0.004468 0.00533706 -0.014641 0.000105 0 -0.011755 0 2650 
130 1 1.4e-05 0.00630506 -0.015674 0.001058 0 -0.011755 0 2650 
269 1 0.002277 0.00647806 -0.015181 0.000291 0 -0.011755 0 2650 
37 1 0.006156 0.0122401 -0.015157 0.000291 0 -0.011755 0 2650 
237 1 0.005321 0.00291406 -0.012467 0.001058 0 -0.011755 0 2650 
263 1 0.006877 0.00573406 -0.012319 0.000291 0 -0.011755 0 2650 
289 1 0.001465 0.00690106 -0.012477 0.000291 0 -0.011755 0 2650 
142 1 0.002378 0.00731606 -0.013184 0.000291 0 -0.011755 0 2650 
252 1 0.00245 0.0106111 -0.01336 0.001058 0 -0.011755 0 2650 
78 1 0.001258 0.0122261 -0.012517 0.000291 0 -0.011755 0 2650 
141 1 0.004693 0.000402063 -0.010381 0.000291 0 -0.011755 0 2650 
196 1 0.002599 0.00420706 -0.011929 0.001058 0 -0.011755 0 2650 
201 1 0.008831 0.00573006 -0.010349 0.00164 0 -0.011755 0 2650 
105 1 0.003632 0.0108941 -0.010703 0.00164 0 -0.011755 0 2650 
275 1 0.012705 0.00997306 -0.010476 0.000291 0 -0.011755 0 2650 
54 1 0.00739425 0.0120837 -0.0105472 0.000291 0.0454566 0.0504589 -0.210549 2650 
110 1 0.010451 0.0125171 -0.010748 0.000291 0 -0.011755 0 2650 
213 1 0.001757 0.00123906 -0.008127 0.000291 0 -0.011755 0 2650 
259 1 0.006357 0.00216806 -0.00938 0.001058 0 -0.011755 0 2650 
216 1 0.00927898 0.0693682 -0.00871183 0.001058 0.440243 0.523777 0.144223 2650 
30 1 0.005625 0.000917063 -0.00604 0.000291 0 -0.011755 0 2650 
67 1 0.00898 0.00360206 -0.006049 0.001058 0 -0.011755 0 2650 
102 1 0.003423 0.00563906 -0.006065 0.000291 0 -0.011755 0 2650 
117 1 0.004754 0.00590106 -0.007063 0.000291 0 -0.011755 0 2650 
134 1 0.011983 0.00565306 -0.006239 0.000291 0 -0.011755 0 2650 
60 1 0.007579 0.00854206 -0.006312 0.001058 0 -0.011755 0 2650 
45 1 0.010575 0.00846206 -0.007722 0.000291 0 -0.011755 0 2650 
271 1 0.001328 0.0103661 -0.00636 0.001058 0 -0.011755 0 2650 
197 1 0.007512 0.00105506 -0.004043 0.000291 0 -0.011755 0 2650 
92 1 0.010471 0.00110606 -0.004542 0.001058 0 -0.011755 0 2650 
178 1 0.003641 0.00272106 -0.005569 0.001058 0 -0.011755 0 2650 
260 1 0.010685 0.00324906 -0.004932 0.000291 0 -0.011755 0 2650 
161 1 0.013129 0.00333206 -0.005759 0.00164 0 -0.011755 0 2650 
246 1 0.001376 0.00514006 -0.005453 0.001058 0 -0.011755 0 2650 
279 1 0.011818 0.00759606 -0.00556 0.001058 0 -0.011755 0 2650 
199 1 0.014464 0.00895306 -0.004562 0.000291 0 -0.011755 0 2650 
278 1 7.4e-05 0.0110531 -0.004448 0.001058 0 -0.011755 0 2650 
19 1 0.013799 0.0101251 -0.005439 0.001058 0 -0.011755 0 2650 
284 1 0.014191 0.0118331 -0.005949 0.000291 0 -0.011755 0 2650 
262 1 0.00501483 0.0524653 -0.0042612 0.000291 0.355793 0.466335 -0.0703264 2650 
173 1 0.002644 0.000562063 -0.002982 0.000291 0 -0.011755 0 2650 
171 1 0.000459 0.00205606 -0.002783 0.001058 0 -0.011755 0 2650 
88 1 0.002864 0.00376606 -0.002457 0.000105 0 -0.011755 0 2650 
177 1 0.007332 0.00363206 -0.003583 0.00164 0 -0.011755 0 2650 
205 1 0.005264 0.00413506 -0.002386 0.000291 0 -0.011755 0 2650 
253 1 0.014729 0.00731106 -0.002617 0.000291 0 -0.011755 0 2650 
227 1 0.00944 0.00914006 -0.002109 0.000291 0 -0.011755 0 2650 
6 1 0.004141 0.00148806 -0.001643 0.000291 0 -0.011755 0 2650 
72 1 0.013289 0.000242063 -0.000624 0.000105 0 -0.011755 0 2650 
113 1 0.010337 0.00676606 -0.001708 0.00164 0 -0.011755 0 2650 
190 1 0.005899 0.0118421 -0.000534 0.000291 0 -0.011755 0 2650 
56 1 0.00459 0.000267063 0.000864 0.000105 0 -0.011755 0 2650 
96 1 0.009869 0.00389606 0.000788 0.000105 0 -0.011755 0 2650 
277 1 0.015014 0.00250706 0.001212 0.000291 0 -0.011755 0 2650 
183 1 0.01481 0.00212906 0.000242 0.000291 0 -0.011755 0 2650 
81 1 0.007451 0.00525906 7.8e-05 0.00164 0 -0.011755 0 2650 
261 1 0.011218 0.00543506 0.000328 0.000291 0 -0.011755 0 2650 
48 1 0.009671 0.00973406 0.000233 0.000105 0 -0.011755 0 2650 
128 1 0.00361 0.0114411 0.000511 0.000105 0 -0.011755 0 2650 
9 1 0.012984 0.0114791 0.000468 0.00164 0 -0.011755 0 2650 
286 1 0.015584 0.0121471 0.000132 0.001058 0 -0.011755 0 2650 
27 1 0.000959385 0.0565558 0.000879127 0.001058 0.284186 0.519902 -0.0815966 2650 
264 1 0.003305 0.00147206 0.003449 0.001058 0 -0.011755 0 2650 
225 1 0.001446 0.00232606 0.002203 0.001058 0 -0.011755 0 2650 
143 1 0.013105 0.00259606 0.003332 0.000291 0 -0.011755 0 2650 
210 1 0.010971 0.00458906 0.002357 0.001058 0 -0.011755 0 2650 
294 1 0.006997 0.00944806 0.003581 0.001058 0 -0.011755 0 2650 
101 1 0.004812 0.0101641 0.002517 0.000291 0 -0.011755 0 2650 
267 1 0.007574 0.00169306 0.005778 0.000291 0 -0.011755 0 2650 
50 1 0.006699 0.00367606 0.005883 0.001058 0 -0.011755 0 2650 
305 1 0.007934 0.00243506 0.005234 0.000105 0 -0.011755 0 2650 
150 1 0.010064 0.00377706 0.004311 0.000291 0 -0.011755 0 2650 
24 1 0.005464 0.00953006 0.005551 0.000105 0 -0.011755 0 2650 
212 1 0.001087 0.00995806 0.005915 0.000291 0 -0.011755 0 2650 
51 1 0.009662 0.0106031 0.004577 0.001058 0 -0.011755 0 2650 
244 1 0.014869 0.0100161 0.00421 0.001058 0 -0.011755 0 2650 
79 1 0.014214 0.0124431 0.005058 0.000291 0 -0.011755 0 2650 
118 1 0.001179 0.00185806 0.007467 0.000291 0 -0.011755 0 2650 
174 1 0.002361 0.00342906 0.006466 0.000291 0 -0.011755 0 2650 
207 1 0.000324 0.00511506 0.006532 0.000291 0 -0.011755 0 2650 
232 1 0.003256 0.00442706 0.007333 0.001058 0 -0.011755 0 2650 
208 1 0.009461 0.00579106 0.007837 0.001058 0 -0.011755 0 2650 
231 1 0.006459 0.00915506 0.007445 0.001058 0 -0.011755 0 2650 
222 1 0.009219 0.0118021 0.006833 0.001058 0 -0.011755 0 2650 
112 1 0.013668 0.0127661 0.007002 0.000105 0 -0.011755 0 2650 
145 1 0.00373987 0.0108864 0.00862603 0.00164 0.000993456 -0.0124671 3.24591e-05 2650 
194 1 0.007709 0.00993406 0.009989 0.001058 0 -0.011755 0 2650 
301 1 0.00164466 0.0125825 0.00875968 0.001058 0.0224891 0.0129296 0.0528593 2650 
1 1 0.002172 0.00243106 0.010007 0.00164 0 -0.011755 0 2650 
228 1 0.010294 0.00293806 0.01009 0.000291 0 -0.011755 0 2650 
103 1 0.005979 0.00613306 0.01127 0.000291 0 -0.011755 0 2650 
258 1 0.009255 0.00722406 0.010506 0.001058 0 -0.011755 0 2650 
66 1 0.001767 0.00981506 0.01167 0.001058 0 -0.011755 0 2650 
298 1 0.003487 0.0108651 0.011695 0.000105 0 -0.011755 0 2650 
126 1 0.001803 0.0125791 0.01041 0.000291 0 -0.011755 0 2650 
184 1 0.009563 0.000735063 0.012192 0.000105 0 -0.011755 0 2650 
3 1 0.001912 0.00251806 0.013741 0.001058 0 -0.011755 0 2650 
287 1 0.006558 0.00551906 0.013233 0.001058 0 -0.011755 0 2650 
95 1 0.006942 0.00758006 0.013027 0.000291 0 -0.011755 0 2650 
82 1 0.000755 0.00510206 0.014898 0.001058 0 -0.011755 0 2650 
