ITEM: TIMESTEP
987826
ITEM: NUMBER OF ATOMS
304
ITEM: BOX BOUNDS ff ff ff
-0.15 0.15
-0.15 0.15
-0.15 0.15
ITEM: ATOMS id type x y z radius vx vy vz density 
125 1 -0.0504011 -0.0461207 -0.0466948 0.000291 -3.07866 -0.362917 3.29207 2650 
151 1 -0.0175907 -0.00537187 -0.0476083 0.000291 -2.61738 -0.203423 -7.07302 2650 
219 1 -0.0610795 -0.0121043 -0.0315118 0.000291 -1.83839 -0.335772 3.66084 2650 
86 1 -0.0379281 -0.00667317 -0.019714 0.000291 -5.47942 -0.327679 -2.89802 2650 
241 1 -0.008593 -0.000964388 -0.012306 0.000291 0 -0.011755 0 2650 
93 1 -0.009903 -0.00105039 -0.011082 0.000291 0 -0.011755 0 2650 
215 1 -0.00232 -0.00311039 -0.00968 0.001058 0 -0.011755 0 2650 
167 1 -0.007283 -0.00282439 -0.00514 0.000291 0 -0.011755 0 2650 
59 1 -0.00676588 -0.001465 -0.00451027 0.001058 0.00115799 -0.0116141 0.00139237 2650 
23 1 -0.005085 -0.00193039 -0.002724 0.000291 0 -0.011755 0 2650 
107 1 -0.003706 -0.00160939 -0.003027 0.001058 0 -0.011755 0 2650 
282 1 -0.001816 -0.000668388 -0.002164 0.000291 0 -0.011755 0 2650 
229 1 -0.00462104 -0.00214111 0.00255226 0.001058 9.1281e-05 -0.0149163 0.00350247 2650 
89 1 -0.00152396 -0.00214338 0.0020558 0.00164 -0.0058431 -0.0117287 -0.0183195 2650 
127 1 -0.006868 -0.00142739 0.0035 0.000291 0 -0.011755 0 2650 
2 1 -0.013701 -0.00162539 0.005224 0.001058 0 -0.011755 0 2650 
283 1 -0.0108264 -0.00161201 0.00411464 0.000291 0.131939 -0.107769 -0.10529 2650 
63 1 -0.010157 -0.00161639 0.004282 0.000291 0 -0.011755 0 2650 
157 1 -0.011403 -0.00167539 0.006122 0.000291 0 -0.011755 0 2650 
42 1 -0.008546 -0.000371388 0.006756 0.001058 0 -0.011755 0 2650 
36 1 -0.012004 -0.00214239 0.009853 0.001058 0 -0.011755 0 2650 
257 1 -0.009847 -0.00170539 0.008559 0.001058 0 -0.011755 0 2650 
230 1 -0.00313319 -0.00317368 0.0102072 0.001058 0.021771 -0.0737976 0.0142851 2650 
204 1 -0.00156 -0.000557388 0.010678 0.001058 0 -0.011755 0 2650 
84 1 -0.000959 -0.00248139 0.012417 0.001058 0 -0.011755 0 2650 
154 1 -0.00384421 -0.00166765 0.0148606 0.001058 0.0853463 -0.0924498 0.0201897 2650 
147 1 -0.000208 -0.00107239 0.014718 0.001058 0 -0.011755 0 2650 
34 1 -0.0427803 -0.00656808 0.0527876 0.001058 3.66877 -0.0907122 2.95527 2650 
152 1 -0.0369289 -0.020694 0.0581728 0.000105 2.9268 -0.222018 1.87515 2650 
146 1 -0.0245477 -0.020244 0.0633746 0.001058 3.08268 -0.761655 1.22273 2650 
25 1 -0.0150076 -0.0411698 0.0656849 0.00164 4.36712 -0.625604 0.989675 2650 
17 1 -0.00436567 0.00363163 -0.0144841 0.00164 -0.00986639 -0.0100203 -0.0203198 2650 
85 1 -0.003548 0.00591161 -0.015444 0.000291 0 -0.011755 0 2650 
70 1 -0.002345 0.00771361 -0.015511 0.000291 0 -0.011755 0 2650 
26 1 -0.001687 0.00104161 -0.013653 0.001058 0 -0.011755 0 2650 
295 1 -0.006507 0.00242861 -0.01264 0.000291 0 -0.011755 0 2650 
189 1 -0.004115 0.00210661 -0.01297 0.000291 0 -0.011755 0 2650 
280 1 -0.00270302 0.00276296 -0.0124017 0.001058 0.0342626 -0.076741 -0.0560629 2650 
115 1 -0.009032 0.00776061 -0.012506 0.001058 0 -0.011755 0 2650 
33 1 -0.003866 0.0107766 -0.012959 0.00164 0 -0.011755 0 2650 
5 1 -0.0092486 0.00062389 -0.0100422 0.000291 -0.0251535 -0.193768 -0.0880954 2650 
163 1 -0.005911 0.000883612 -0.010628 0.001058 0 -0.011755 0 2650 
138 1 -0.0030379 0.00370235 -0.0104835 0.001058 -0.00468169 -0.0546464 -0.0618682 2650 
198 1 -0.01006 0.00705761 -0.011926 0.000291 0 -0.011755 0 2650 
234 1 -0.003052 0.00715461 -0.010232 0.000291 0 -0.011755 0 2650 
273 1 -0.00119 0.00711661 -0.010246 0.001058 0 -0.011755 0 2650 
47 1 -0.011528 0.00836161 -0.010748 0.000291 0 -0.011755 0 2650 
32 1 -0.00510831 0.0093223 -0.0109355 0.000105 0.00408433 -0.0405512 -0.0362068 2650 
94 1 -0.011581 0.0128386 -0.01188 0.000291 0 -0.011755 0 2650 
57 1 -0.0068033 0.0120817 -0.0110778 0.00164 -0.051925 0.0200641 -0.0904637 2650 
139 1 -0.000391271 0.0127087 -0.0101034 0.001058 0.0288724 0.0119708 -0.0425505 2650 
166 1 -0.005567 0.000378612 -0.009051 0.000291 0 -0.011755 0 2650 
108 1 -0.007031 0.00311761 -0.009032 0.001058 0 -0.011755 0 2650 
41 1 -0.00598817 0.00762948 -0.00864456 0.00164 -0.0426201 0.0149708 -0.0234718 2650 
175 1 -0.013247 0.00840161 -0.008751 0.000291 0 -0.011755 0 2650 
144 1 -0.011054 0.0129596 -0.008779 0.000105 0 -0.011755 0 2650 
220 1 -0.00784716 0.0130908 -0.00905718 0.000291 -0.0258814 0.00931039 0.00803739 2650 
200 1 -0.012172 0.00166161 -0.006974 0.000105 0 -0.011755 0 2650 
293 1 -0.009422 0.000948612 -0.006923 0.001058 0 -0.011755 0 2650 
218 1 -0.00579912 0.00192909 -0.00732107 0.001058 0.00591971 -0.0159874 -0.00632168 2650 
137 1 -0.001323 0.000451612 -0.006126 0.00164 0 -0.011755 0 2650 
250 1 -0.013194 0.00405461 -0.006197 0.001058 0 -0.011755 0 2650 
91 1 -0.000188362 0.0167886 -0.00663551 0.001058 -0.0674224 0.148351 -0.200163 2650 
214 1 -0.008446 0.00137161 -0.004092 0.000291 0 -0.011755 0 2650 
43 1 -0.00852254 0.00304714 -0.004027 0.001058 0.021172 -0.0262086 0.0149909 2650 
203 1 -0.00694381 0.00299774 -0.00586794 0.001058 0.0108298 -0.0118951 -0.00146797 2650 
76 1 -0.003173 0.00345961 -0.005708 0.001058 0 -0.011755 0 2650 
240 1 -0.010392 0.00900361 -0.005262 0.000291 0 -0.011755 0 2650 
276 1 -0.013674 0.00994561 -0.004231 0.000291 0 -0.011755 0 2650 
74 1 -0.012237 0.0103436 -0.004721 0.001058 0 -0.011755 0 2650 
159 1 -0.012707 0.0129396 -0.00588 0.000291 0 -0.011755 0 2650 
187 1 -0.00947781 0.0125658 -0.00531044 0.001058 -0.0112156 -0.0033076 -0.00319333 2650 
116 1 -0.013496 0.00147161 -0.003353 0.001058 0 -0.011755 0 2650 
90 1 -0.0110485 0.00203458 -0.00365605 0.001058 0.00769491 -0.0700265 0.031251 2650 
270 1 -0.006476 0.00288661 -0.003483 0.000291 0 -0.011755 0 2650 
211 1 -0.013621 0.00468561 -0.002856 0.001058 0 -0.011755 0 2650 
274 1 -0.016349 0.00681061 -0.002509 0.000291 0 -0.011755 0 2650 
114 1 -0.012867 0.00734161 -0.002401 0.001058 0 -0.011755 0 2650 
13 1 -0.014201 0.00904561 -0.003882 0.000291 0 -0.011755 0 2650 
104 1 -0.014089 0.00972761 -0.003012 0.000105 0 -0.011755 0 2650 
65 1 -0.0087518 0.0097449 -0.00310091 0.00164 -0.00352828 0.0121134 0.00342318 2650 
256 1 -0.010193 0.0110466 -0.003721 0.000291 0 -0.011755 0 2650 
7 1 -0.008475 0.0126666 -0.002976 0.000291 0 -0.011755 0 2650 
180 1 -0.015098 0.000720612 -0.001623 0.001058 0 -0.011755 0 2650 
123 1 -0.014683 0.00221561 -0.000117 0.001058 0 -0.011755 0 2650 
140 1 -0.008912 0.00333761 -0.000862 0.001058 0 -0.011755 0 2650 
131 1 -0.0117214 0.00412634 -0.000953337 0.001058 -0.0285413 -0.0462991 0.0286753 2650 
195 1 -0.00962777 0.0054033 -0.00155016 0.001058 0.0202012 -0.0483215 0.0566521 2650 
223 1 -0.00719836 0.00562656 -0.00164809 0.001058 0.0415501 -0.0223204 0.0172409 2650 
10 1 -0.012845 0.0104296 -0.000712 0.001058 0 -0.011755 0 2650 
61 1 -0.016439 0.0126576 -0.001038 0.000291 0 -0.011755 0 2650 
136 1 -0.00185489 0.014523 -0.000324101 0.000105 -0.0729053 0.12081 -0.0484832 2650 
99 1 -0.011672 0.000333612 9.8e-05 0.001058 0 -0.011755 0 2650 
75 1 -0.008381 0.000423612 0.001024 0.001058 0 -0.011755 0 2650 
135 1 -0.00355998 0.000100779 0.000644294 0.000291 0.018454 0.00911816 -0.0138033 2650 
122 1 -0.001782 0.00114961 0.000344 0.001058 0 -0.011755 0 2650 
206 1 -0.013164 0.00271761 0.001584 0.000291 0 -0.011755 0 2650 
14 1 -0.006378 0.00375261 0.001478 0.000291 0 -0.011755 0 2650 
191 1 -0.0108 0.00508461 0.001549 0.000291 0 -0.011755 0 2650 
296 1 -0.005879 0.00423061 0.000521 0.000291 0 -0.011755 0 2650 
168 1 -0.007536 0.00609561 0.001389 0.000105 0 -0.011755 0 2650 
120 1 -0.016055 0.00829761 0.000189 0.000105 0 -0.011755 0 2650 
209 1 -0.010932 0.00820961 0.001176 0.001058 0 -0.011755 0 2650 
80 1 -0.014935 0.0109956 0.00039 0.000105 0 -0.011755 0 2650 
268 1 -0.011054 0.0115196 0.000789 0.000291 0 -0.011755 0 2650 
129 1 -0.008713 0.0113336 0.001908 0.00164 0 -0.011755 0 2650 
11 1 -0.00996748 0.0168269 0.0017415 0.001058 -0.086582 0.108675 0.069531 2650 
27 1 -0.00188244 0.0513568 0.00169508 0.001058 0.284186 0.519902 -0.0815966 2650 
132 1 -0.01481 0.00115161 0.003327 0.001058 0 -0.011755 0 2650 
106 1 -0.009716 0.000751612 0.002779 0.001058 0 -0.011755 0 2650 
158 1 -0.007297 0.000294612 0.003049 0.000291 0 -0.011755 0 2650 
149 1 -0.004792 0.000248612 0.002724 0.000291 0 -0.011755 0 2650 
272 1 -0.001203 0.00115561 0.002609 0.001058 0 -0.011755 0 2650 
124 1 -0.014115 0.00378861 0.003875 0.001058 0 -0.011755 0 2650 
302 1 -0.008928 0.00398261 0.003809 0.000291 0 -0.011755 0 2650 
18 1 -0.005138 0.00528961 0.00212 0.001058 0 -0.011755 0 2650 
52 1 -0.00253787 0.00776503 0.00344338 0.001058 -0.0711305 -0.0179987 -0.00803782 2650 
176 1 -0.003983 0.00963461 0.002552 0.000105 0 -0.011755 0 2650 
242 1 -0.003848 0.00893161 0.003544 0.000291 0 -0.011755 0 2650 
245 1 -0.00470224 0.0162475 0.00220451 0.001058 -0.00877598 0.0648343 0.053396 2650 
49 1 -0.007469 0.00141861 0.004859 0.00164 0 -0.011755 0 2650 
182 1 -0.007428 0.00356861 0.005665 0.000291 0 -0.011755 0 2650 
58 1 -0.009725 0.00524961 0.005089 0.001058 0 -0.011755 0 2650 
28 1 -0.013611 0.00763261 0.005538 0.001058 0 -0.011755 0 2650 
170 1 -0.01149 0.00776761 0.005193 0.001058 0 -0.011755 0 2650 
53 1 -0.000389 0.00637261 0.004762 0.000291 0 -0.011755 0 2650 
238 1 -0.009207 0.00852061 0.004742 0.001058 0 -0.011755 0 2650 
77 1 -0.00370546 0.00851519 0.00403675 0.000291 -0.0659618 0.0071766 0.0150346 2650 
164 1 -0.003894 0.00867061 0.005467 0.001058 0 -0.011755 0 2650 
291 1 -0.008194 0.0130446 0.004767 0.000291 0 -0.011755 0 2650 
235 1 -0.001066 0.000911612 0.007831 0.000291 0 -0.011755 0 2650 
64 1 -0.001837 0.00133661 0.007035 0.000105 0 -0.011755 0 2650 
266 1 -0.0128405 0.00203381 0.00775768 0.001058 0.00105428 -0.0117776 0.00184446 2650 
254 1 -0.006211 0.00390761 0.006905 0.000291 0 -0.011755 0 2650 
98 1 -0.001703 0.00623361 0.00616 0.001058 0 -0.011755 0 2650 
186 1 -0.006177 0.0109866 0.006545 0.001058 0 -0.011755 0 2650 
111 1 -0.009474 0.000981612 0.008964 0.000291 0 -0.011755 0 2650 
44 1 -0.007195 0.00312361 0.008791 0.001058 0 -0.011755 0 2650 
251 1 -0.00334564 0.00967269 0.0090399 0.001058 -0.031714 -0.0278746 0.036794 2650 
71 1 -0.000425188 0.0117589 0.00963359 0.000291 -0.0104586 -0.0101041 0.055119 2650 
304 1 -0.012709 0.0123256 0.009818 0.000291 0 -0.011755 0 2650 
4 1 -0.013492 0.0122046 0.008313 0.001058 0 -0.011755 0 2650 
12 1 -0.00184558 0.0548628 0.00978695 0.001058 0.0647213 0.549795 -0.169615 2650 
97 1 -0.00942079 0.000747389 0.0119585 0.00164 -0.0275123 -0.0132882 -0.0225105 2650 
38 1 -0.000348 0.000744612 0.010029 0.000291 0 -0.011755 0 2650 
233 1 -0.001796 0.00366961 0.010436 0.000291 0 -0.011755 0 2650 
285 1 -0.00570357 0.00705878 0.0117179 0.001058 -0.00795457 0.0243574 0.0656623 2650 
35 1 -0.002198 0.00713061 0.010984 0.001058 0 -0.011755 0 2650 
217 1 -0.00767282 0.00832555 0.0114907 0.001058 -0.0106168 0.0279099 0.00374771 2650 
224 1 -0.00541792 0.00930434 0.0114949 0.001058 0.00642458 -0.00461224 0.0070675 2650 
299 1 -0.010562 0.0107666 0.010709 0.001058 0 -0.011755 0 2650 
68 1 -0.00489168 0.0112879 0.0109617 0.001058 0.00272783 -0.00342387 -0.00169301 2650 
55 1 -0.01171 0.0127936 0.01034 0.000291 0 -0.011755 0 2650 
73 1 -0.00549134 0.000308684 0.0133849 0.00164 0.00700172 -0.0344738 0.0838982 2650 
226 1 -0.009224 0.00464161 0.012787 0.000291 0 -0.011755 0 2650 
300 1 -0.00886373 0.0072612 0.0130132 0.001058 -0.0070311 -0.00989347 -0.0019089 2650 
249 1 -0.00703144 0.00858187 0.0128471 0.000291 0.00734877 0.000399267 0.0242708 2650 
100 1 -0.00109243 0.00808812 0.0128115 0.001058 0.00171616 -0.0143968 0.000728218 2650 
153 1 -0.00264408 0.0102737 0.0124815 0.00164 -0.0163422 -0.018073 0.0437888 2650 
202 1 -0.00437596 0.00607453 0.0150053 0.001058 0.0436761 0.0285453 -0.0430067 2650 
29 1 -0.0052 0.00844461 0.014245 0.000291 0 -0.011755 0 2650 
265 1 -0.000465 0.00929761 0.015551 0.001058 0 -0.011755 0 2650 
156 1 -0.00104971 0.0119507 0.0142017 0.001058 0.0105273 0.00111324 0.0241494 2650 
133 1 0.0226373 -0.00699219 -0.0648768 0.000291 -3.16066 -0.174309 -1.1414 2650 
297 1 0.029918 -0.00709588 -0.0396995 0.000291 4.45491 -0.339431 -5.87402 2650 
148 1 0.0638966 -0.0226805 -0.0231283 0.001058 -1.3756 -0.314143 -3.82266 2650 
172 1 0.001341 -0.00256239 -0.014713 0.001058 0 -0.011755 0 2650 
292 1 0.002958 -0.00111539 -0.012416 0.001058 0 -0.011755 0 2650 
165 1 0.001742 -0.00320139 -0.011536 0.000291 0 -0.011755 0 2650 
83 1 0.007342 -0.000303388 -0.011981 0.001058 0 -0.011755 0 2650 
188 1 0.003247 -0.00216139 -0.009042 0.001058 0 -0.011755 0 2650 
162 1 0.010619 -0.000609388 -0.009864 0.001058 0 -0.011755 0 2650 
109 1 0.0089 -0.00234539 -0.006999 0.000291 0 -0.011755 0 2650 
40 1 0.002884 -0.000397388 -0.006462 0.000105 0 -0.011755 0 2650 
185 1 0.007006 -0.000922388 -0.006884 0.00164 0 -0.011755 0 2650 
290 1 0.0684708 -0.0305168 -0.00570672 0.000291 -0.30883 -0.421992 -3.25492 2650 
221 1 0.006551 -0.00238539 -0.004504 0.000291 0 -0.011755 0 2650 
62 1 0.005002 -0.00153839 -0.004312 0.000291 0 -0.011755 0 2650 
16 1 0.006364 -0.000269388 -0.005251 0.000105 0 -0.011755 0 2650 
39 1 0.011011 -0.000582388 -0.005294 0.000291 0 -0.011755 0 2650 
8 1 0.000989 -0.000544388 -0.00369 0.000105 0 -0.011755 0 2650 
20 1 0.013152 -0.00151339 -0.002682 0.001058 0 -0.011755 0 2650 
239 1 0.008697 -0.00172639 -0.000945 0.001058 0 -0.011755 0 2650 
248 1 0.008036 -0.000675388 -0.000368 0.000291 0 -0.011755 0 2650 
87 1 0.010454 -0.00154439 -0.001717 0.000291 0 -0.011755 0 2650 
255 1 0.005303 -0.000372388 0.000727 0.000291 0 -0.011755 0 2650 
288 1 0.006653 -0.00171939 0.001326 0.000291 0 -0.011755 0 2650 
179 1 0.002629 -0.00202439 0.002938 0.001058 0 -0.011755 0 2650 
21 1 0.0104087 -0.00332958 0.00286825 0.000291 0.434736 -0.022349 0.119797 2650 
121 1 0.013566 -0.00109739 0.003132 0.00164 0 -0.011755 0 2650 
247 1 0.001401 -0.000523388 0.005706 0.000291 0 -0.011755 0 2650 
22 1 0.0682892 -0.0256881 0.00752755 0.000291 0.419657 -0.526111 -3.36146 2650 
192 1 0.012227 -0.00276839 0.006398 0.000105 0 -0.011755 0 2650 
236 1 0.00654731 -0.00321742 0.00951343 0.001058 -0.00254317 -0.0480338 -0.00128433 2650 
15 1 0.012888 -0.00232439 0.009988 0.000291 0 -0.011755 0 2650 
193 1 0.00630676 -0.000167769 0.00893625 0.00164 -0.00920003 -0.0416499 -0.0118576 2650 
281 1 0.006175 -0.00282739 0.011215 0.000291 0 -0.011755 0 2650 
181 1 0.012465 -0.00158439 0.010211 0.000291 0 -0.011755 0 2650 
69 1 0.0661276 -0.0129263 0.0187226 0.000291 0.926806 -0.272467 -3.16774 2650 
169 1 0.0355975 -0.0446161 0.0572078 0.00164 4.1802 -0.720144 -2.48042 2650 
119 1 0.0251161 -0.0327584 0.0639483 0.000291 3.07283 -1.02401 -1.20194 2650 
155 1 0.005921 0.000564612 -0.01427 0.001058 0 -0.011755 0 2650 
46 1 0.007499 0.00376861 -0.014091 0.000291 0 -0.011755 0 2650 
303 1 0.001598 0.00433161 -0.015917 0.000291 0 -0.011755 0 2650 
160 1 0.004468 0.00545461 -0.014641 0.000105 0 -0.011755 0 2650 
130 1 1.4e-05 0.00642261 -0.015674 0.001058 0 -0.011755 0 2650 
269 1 0.002277 0.00659561 -0.015181 0.000291 0 -0.011755 0 2650 
37 1 0.006156 0.0123576 -0.015157 0.000291 0 -0.011755 0 2650 
237 1 0.005321 0.00303161 -0.012467 0.001058 0 -0.011755 0 2650 
263 1 0.006877 0.00585161 -0.012319 0.000291 0 -0.011755 0 2650 
289 1 0.001465 0.00701861 -0.012477 0.000291 0 -0.011755 0 2650 
142 1 0.002378 0.00743361 -0.013184 0.000291 0 -0.011755 0 2650 
252 1 0.00245 0.0107286 -0.01336 0.001058 0 -0.011755 0 2650 
78 1 0.001258 0.0123436 -0.012517 0.000291 0 -0.011755 0 2650 
141 1 0.004693 0.000519612 -0.010381 0.000291 0 -0.011755 0 2650 
196 1 0.002599 0.00432461 -0.011929 0.001058 0 -0.011755 0 2650 
201 1 0.008831 0.00584761 -0.010349 0.00164 0 -0.011755 0 2650 
105 1 0.003632 0.0110116 -0.010703 0.00164 0 -0.011755 0 2650 
275 1 0.012705 0.0100906 -0.010476 0.000291 0 -0.011755 0 2650 
110 1 0.010451 0.0126346 -0.010748 0.000291 0 -0.011755 0 2650 
216 1 0.00487661 0.0641305 -0.010154 0.001058 0.440243 0.523777 0.144223 2650 
213 1 0.001757 0.00135661 -0.008127 0.000291 0 -0.011755 0 2650 
259 1 0.006357 0.00228561 -0.00938 0.001058 0 -0.011755 0 2650 
54 1 0.00693969 0.0115791 -0.00844175 0.000291 0.0454566 0.0504589 -0.210549 2650 
30 1 0.005625 0.00103461 -0.00604 0.000291 0 -0.011755 0 2650 
67 1 0.00898 0.00371961 -0.006049 0.001058 0 -0.011755 0 2650 
102 1 0.003423 0.00575661 -0.006065 0.000291 0 -0.011755 0 2650 
134 1 0.011983 0.00577061 -0.006239 0.000291 0 -0.011755 0 2650 
117 1 0.004754 0.00601861 -0.007063 0.000291 0 -0.011755 0 2650 
60 1 0.007579 0.00865961 -0.006312 0.001058 0 -0.011755 0 2650 
45 1 0.010575 0.00857961 -0.007722 0.000291 0 -0.011755 0 2650 
271 1 0.001328 0.0104836 -0.00636 0.001058 0 -0.011755 0 2650 
197 1 0.007512 0.00117261 -0.004043 0.000291 0 -0.011755 0 2650 
92 1 0.010471 0.00122361 -0.004542 0.001058 0 -0.011755 0 2650 
178 1 0.003641 0.00283861 -0.005569 0.001058 0 -0.011755 0 2650 
260 1 0.010685 0.00336661 -0.004932 0.000291 0 -0.011755 0 2650 
161 1 0.013129 0.00344961 -0.005759 0.00164 0 -0.011755 0 2650 
246 1 0.001376 0.00525761 -0.005453 0.001058 0 -0.011755 0 2650 
279 1 0.011818 0.00771361 -0.00556 0.001058 0 -0.011755 0 2650 
199 1 0.014464 0.00907061 -0.004562 0.000291 0 -0.011755 0 2650 
278 1 7.4e-05 0.0111706 -0.004448 0.001058 0 -0.011755 0 2650 
19 1 0.013799 0.0102426 -0.005439 0.001058 0 -0.011755 0 2650 
284 1 0.014191 0.0119506 -0.005949 0.000291 0 -0.011755 0 2650 
173 1 0.002644 0.000679612 -0.002982 0.000291 0 -0.011755 0 2650 
171 1 0.000459 0.00217361 -0.002783 0.001058 0 -0.011755 0 2650 
88 1 0.002864 0.00388361 -0.002457 0.000105 0 -0.011755 0 2650 
177 1 0.007332 0.00374961 -0.003583 0.00164 0 -0.011755 0 2650 
205 1 0.005264 0.00425261 -0.002386 0.000291 0 -0.011755 0 2650 
253 1 0.014729 0.00742861 -0.002617 0.000291 0 -0.011755 0 2650 
227 1 0.00944 0.00925761 -0.002109 0.000291 0 -0.011755 0 2650 
262 1 0.00145695 0.047802 -0.00355795 0.000291 0.355793 0.466335 -0.0703264 2650 
6 1 0.004141 0.00160561 -0.001643 0.000291 0 -0.011755 0 2650 
72 1 0.013289 0.000359612 -0.000624 0.000105 0 -0.011755 0 2650 
113 1 0.010337 0.00688361 -0.001708 0.00164 0 -0.011755 0 2650 
190 1 0.005899 0.0119596 -0.000534 0.000291 0 -0.011755 0 2650 
56 1 0.00459 0.000384612 0.000864 0.000105 0 -0.011755 0 2650 
277 1 0.015014 0.00262461 0.001212 0.000291 0 -0.011755 0 2650 
183 1 0.01481 0.00224661 0.000242 0.000291 0 -0.011755 0 2650 
81 1 0.007451 0.00537661 7.8e-05 0.00164 0 -0.011755 0 2650 
96 1 0.009869 0.00401361 0.000788 0.000105 0 -0.011755 0 2650 
261 1 0.011218 0.00555261 0.000328 0.000291 0 -0.011755 0 2650 
48 1 0.009671 0.00985161 0.000233 0.000105 0 -0.011755 0 2650 
128 1 0.00361 0.0115586 0.000511 0.000105 0 -0.011755 0 2650 
9 1 0.012984 0.0115966 0.000468 0.00164 0 -0.011755 0 2650 
286 1 0.015584 0.0122646 0.000132 0.001058 0 -0.011755 0 2650 
264 1 0.003305 0.00158961 0.003449 0.001058 0 -0.011755 0 2650 
225 1 0.001446 0.00244361 0.002203 0.001058 0 -0.011755 0 2650 
143 1 0.013105 0.00271361 0.003332 0.000291 0 -0.011755 0 2650 
210 1 0.010971 0.00470661 0.002357 0.001058 0 -0.011755 0 2650 
294 1 0.006997 0.00956561 0.003581 0.001058 0 -0.011755 0 2650 
101 1 0.004812 0.0102816 0.002517 0.000291 0 -0.011755 0 2650 
267 1 0.007574 0.00181061 0.005778 0.000291 0 -0.011755 0 2650 
50 1 0.006699 0.00379361 0.005883 0.001058 0 -0.011755 0 2650 
305 1 0.007934 0.00255261 0.005234 0.000105 0 -0.011755 0 2650 
150 1 0.010064 0.00389461 0.004311 0.000291 0 -0.011755 0 2650 
24 1 0.005464 0.00964761 0.005551 0.000105 0 -0.011755 0 2650 
212 1 0.001087 0.0100756 0.005915 0.000291 0 -0.011755 0 2650 
51 1 0.009662 0.0107206 0.004577 0.001058 0 -0.011755 0 2650 
244 1 0.014869 0.0101336 0.00421 0.001058 0 -0.011755 0 2650 
79 1 0.014214 0.0125606 0.005058 0.000291 0 -0.011755 0 2650 
118 1 0.001179 0.00197561 0.007467 0.000291 0 -0.011755 0 2650 
174 1 0.002361 0.00354661 0.006466 0.000291 0 -0.011755 0 2650 
207 1 0.000324 0.00523261 0.006532 0.000291 0 -0.011755 0 2650 
232 1 0.003256 0.00454461 0.007333 0.001058 0 -0.011755 0 2650 
208 1 0.009461 0.00590861 0.007837 0.001058 0 -0.011755 0 2650 
231 1 0.006459 0.00927261 0.007445 0.001058 0 -0.011755 0 2650 
222 1 0.009219 0.0119196 0.006833 0.001058 0 -0.011755 0 2650 
112 1 0.013668 0.0128836 0.007002 0.000105 0 -0.011755 0 2650 
243 1 0.01084 4.46117e-05 0.008454 0.001058 0 -0.011755 0 2650 
145 1 0.003739 0.0110046 0.008626 0.00164 0 -0.011755 0 2650 
194 1 0.007709 0.0100516 0.009989 0.001058 0 -0.011755 0 2650 
301 1 0.00138603 0.0124774 0.00822999 0.001058 0.0261893 0.0102774 0.0529802 2650 
1 1 0.002172 0.00254861 0.010007 0.00164 0 -0.011755 0 2650 
228 1 0.010294 0.00305561 0.01009 0.000291 0 -0.011755 0 2650 
103 1 0.005979 0.00625061 0.01127 0.000291 0 -0.011755 0 2650 
258 1 0.009255 0.00734161 0.010506 0.001058 0 -0.011755 0 2650 
66 1 0.001767 0.00993261 0.01167 0.001058 0 -0.011755 0 2650 
298 1 0.003487 0.0109826 0.011695 0.000105 0 -0.011755 0 2650 
126 1 0.001803 0.0126966 0.01041 0.000291 0 -0.011755 0 2650 
184 1 0.009563 0.000852612 0.012192 0.000105 0 -0.011755 0 2650 
3 1 0.001912 0.00263561 0.013741 0.001058 0 -0.011755 0 2650 
287 1 0.006558 0.00563661 0.013233 0.001058 0 -0.011755 0 2650 
95 1 0.006942 0.00769761 0.013027 0.000291 0 -0.011755 0 2650 
82 1 0.000755 0.00521961 0.014898 0.001058 0 -0.011755 0 2650 
