ITEM: TIMESTEP
17410499
ITEM: NUMBER OF ATOMS
269
ITEM: BOX BOUNDS ff ff ff
-0.15 0.15
-0.15 0.15
-0.15 0.15
ITEM: ATOMS id type x y z radius vx vy vz density 
141 1 -0.0016591 -0.0337075 -0.0686766 0.000291 -10.3913 0.399458 0.25049 2650 
248 1 -0.00806017 -0.0259965 -0.0682335 0.000291 -10.4774 0.316357 1.23716 2650 
184 1 -0.00551301 -0.0187377 -0.0686739 0.000105 -8.05864 -0.415742 0.639227 2650 
118 1 -0.00475988 -0.0196644 -0.0685431 0.000291 -9.17214 0.0616885 0.642836 2650 
138 1 -0.00810919 -0.052762 -0.0674662 0.001058 -10.5374 -0.108474 1.2787 2650 
146 1 -0.00999008 -0.0488515 -0.0672158 0.001058 -10.5528 -0.0114743 1.56824 2650 
47 1 -0.0136604 -0.00588531 -0.0673385 0.000291 -7.93202 -0.102786 1.61183 2650 
255 1 -0.0184051 -0.00201048 -0.0661937 0.000291 -8.26983 0.0352324 2.29956 2650 
40 1 -0.016778 -0.000481661 -0.0668179 0.000105 -8.0424 -0.0668241 2.02617 2650 
93 1 -0.0198787 -0.0491598 -0.0657903 0.000291 -10.3121 -0.0484198 3.1157 2650 
253 1 -0.0206672 -0.0205892 -0.0655422 0.000291 -9.20769 -0.221024 2.90195 2650 
179 1 -0.0261444 -0.0485263 -0.0627412 0.001058 -10.0139 0.048506 4.17371 2650 
165 1 -0.0267595 -0.0454845 -0.063311 0.000291 -10.1221 0.299018 4.27859 2650 
49 1 -0.0306143 -0.0488591 -0.0600417 0.00164 -9.4419 0.0185285 4.81402 2650 
59 1 -0.0286078 -0.0463871 -0.0616597 0.001058 -9.69367 0.011767 4.49749 2650 
302 1 -0.0326437 -0.0140395 -0.0604834 0.000291 -7.95689 0.104825 4.29154 2650 
128 1 -0.031707 -0.00999302 -0.0611814 0.000105 -7.06252 1.71459 3.64485 2650 
257 1 -0.0340988 -0.0481121 -0.0587957 0.001058 -9.26731 0.0781025 5.37466 2650 
125 1 -0.0542255 -0.0430507 -0.042176 0.000291 -6.56161 0.452907 8.431 2650 
39 1 -0.0530953 -0.0429277 -0.0435662 0.000291 -6.9138 -0.296179 8.40973 2650 
228 1 -0.0601033 -0.0208343 -0.0333087 0.000291 -4.52636 0.597332 8.20691 2650 
212 1 -0.0603502 -0.00774615 -0.0328543 0.000291 -3.48592 0.0930564 6.42173 2650 
90 1 -0.0638476 -0.0496831 -0.0233098 0.001058 -3.65673 0.0724637 10.0152 2650 
171 1 -0.0638703 -0.0465724 -0.0232576 0.001058 -3.6153 0.078868 9.92812 2650 
21 1 -0.0650971 -0.0465435 -0.0220597 0.000291 -3.48069 -0.0808742 10.2728 2650 
225 1 -0.0654133 -0.044998 -0.0184634 0.001058 -2.90116 0.00168108 10.2782 2650 
94 1 -0.0115081 -0.00278139 -0.0118071 0.000291 8.5498e-05 -0.0117385 8.5498e-05 2650 
135 1 -0.00815196 -0.00183931 -0.0119639 0.000291 0.00330025 -0.00264717 0.00636962 2650 
100 1 -0.0672626 -0.0161538 -0.00968335 0.001058 -1.37857 0.0109693 9.5341 2650 
227 1 -0.068601 -0.0454256 -0.00383285 0.000291 -0.607541 0.0788728 10.8831 2650 
159 1 -0.012707 -0.00269442 -0.00588 0.000291 0 -0.011755 0 2650 
61 1 -0.016439 -0.00297642 -0.001038 0.000291 0 -0.011755 0 2650 
58 1 -0.0106076 -0.00213589 -0.00152807 0.001058 0.020455 0.00490158 -0.0306807 2650 
291 1 -0.008194 -0.00258942 0.004767 0.000291 0 -0.011755 0 2650 
110 1 -0.00272444 -0.00296653 0.00798075 0.000291 -0.00381615 -0.00836552 -0.0245093 2650 
304 1 -0.0127896 -0.00330999 0.00988025 0.000291 -0.225161 -0.0161315 0.173942 2650 
289 1 -0.0678966 -0.0350264 0.0105215 0.000291 1.23964 -0.000698588 8.04584 2650 
55 1 -0.01171 -0.00284042 0.01034 0.000291 0 -0.011755 0 2650 
122 1 -0.0664443 -0.0274022 0.0141976 0.001058 1.71845 -0.0447001 8.15262 2650 
300 1 -0.0336344 -0.00710874 0.0152608 0.001058 -4.78157 -0.384747 2.10608 2650 
197 1 -0.0672127 -0.00317669 0.0142517 0.000291 1.14788 -0.14125 5.44437 2650 
250 1 -0.00291947 -0.000525841 0.0155851 0.001058 0.0161046 -0.00542442 -0.00110725 2650 
278 1 -0.0649965 -0.029212 0.0197959 0.001058 2.43509 -0.0941129 8.04625 2650 
29 1 -0.0634475 -0.00702056 0.0263798 0.000291 2.33847 0.0988827 5.56594 2650 
107 1 -0.0605373 -0.0463916 0.0309041 0.001058 4.92573 0.143785 9.65156 2650 
104 1 -0.0596977 -0.0272918 0.0343801 0.000105 4.0464 0.435874 7.03239 2650 
186 1 -0.0540494 -0.0123939 0.0411876 0.001058 4.21528 -0.552634 5.54278 2650 
175 1 -0.0552401 -0.00644564 0.0408598 0.000291 5.38375 -0.223726 7.2892 2650 
117 1 -0.0532343 -0.00961447 0.0434413 0.000291 5.75605 -0.0519749 7.05824 2650 
169 1 -0.046098 -0.0611601 0.0491351 0.00164 7.71806 4.57195e-07 7.241 2650 
246 1 -0.0463855 -0.0585276 0.0496513 0.001058 7.7994 -1.66615e-05 7.28639 2650 
206 1 -0.046659 -0.062509 0.0504377 0.000291 7.9227 2.01704e-09 7.32914 2650 
25 1 -0.043839 -0.0588005 0.0511587 0.00164 8.03608 -0.000168132 6.88629 2650 
208 1 -0.045205 -0.0313302 0.0507262 0.001058 7.1249 -0.143786 6.33216 2650 
178 1 -0.0432938 -0.0564518 0.0523692 0.001058 8.22608 -6.58635e-05 6.80052 2650 
22 1 -0.0440076 -0.020159 0.0527653 0.000291 6.85437 -0.0611733 5.72257 2650 
76 1 -0.0358803 -0.0444904 0.0577235 0.001058 8.51759 0.0335188 5.31124 2650 
102 1 -0.0349876 -0.0121919 0.0591545 0.000291 7.75544 -0.0830407 4.5813 2650 
96 1 -0.0303356 -0.00863209 0.0618677 0.000105 7.46322 -0.240643 3.66122 2650 
137 1 -0.0164869 -0.0611601 0.0653246 0.00164 10.2607 -8.16476e-07 2.58963 2650 
164 1 -0.0217978 -0.0363538 0.0643555 0.001058 9.59154 -0.168816 3.25973 2650 
103 1 -0.0142861 -0.0463693 0.0672078 0.000291 10.3074 0.265855 2.18998 2650 
226 1 -0.0175752 -0.035539 0.066418 0.000291 10.699 0.0484066 2.83099 2650 
30 1 -0.0104139 -0.031028 0.0679207 0.000291 10.2722 0.0676363 1.56773 2650 
132 1 -0.00751804 -0.0183887 0.0675113 0.001058 8.11292 0.063155 0.881391 2650 
252 1 -0.00533423 -0.015101 0.0677277 0.001058 8.14387 0.0362049 0.689585 2650 
200 1 -0.0159374 -0.00768829 0.0670289 0.000105 8.97469 0.151863 2.1265 2650 
24 1 -0.00975523 -0.0335076 0.0681957 0.000105 9.26254 1.15186 1.32742 2650 
14 1 -0.00405385 -0.0256271 0.0685706 0.000291 9.6423 -0.209582 0.577419 2650 
64 1 -0.00973794 -0.013897 0.0682041 0.000105 8.38322 -0.222154 1.1517 2650 
134 1 -0.00176049 0.00655703 -0.0136713 0.000291 -0.0128132 0.00355392 -0.00692922 2650 
80 1 -0.010818 0.0158703 -0.0127726 0.000105 0.0137546 0.0232676 -0.0199154 2650 
157 1 -0.00156548 0.0704182 -0.0137611 0.000291 0.0079085 0.0606548 0.000918149 2650 
74 1 -0.0105263 0.000573093 -0.0116841 0.001058 0.00552843 -0.00502923 -0.00272883 2650 
130 1 -0.0054605 0.00232315 -0.0115569 0.001058 -0.00692202 0.00347734 0.00595777 2650 
97 1 -0.00893448 0.00749056 -0.0109643 0.00164 0.0106628 0.00973926 -0.0203866 2650 
67 1 -0.0107056 0.017765 -0.0100092 0.001058 -0.0104976 0.0129104 0.0114407 2650 
10 1 -0.0133299 0.00828533 -0.00791312 0.001058 0.0053433 0.0061558 -0.0070677 2650 
114 1 -0.00336593 0.00963106 -0.00627355 0.001058 0.0187062 0.0117361 -0.00752779 2650 
71 1 -0.000730769 0.00144543 -0.00566869 0.000291 0.000861808 -0.00718564 -0.0173142 2650 
205 1 -0.00748624 0.00238958 -0.0052056 0.000291 -0.00881861 0.00364628 0.0236275 2650 
129 1 -0.000195512 0.00854866 -0.00220642 0.00164 -0.00374589 0.0128173 -0.00288427 2650 
234 1 -0.0130115 0.0104065 -0.00229248 0.000291 -0.00131366 0.00431637 0.0126772 2650 
7 1 -0.00360154 0.0296953 -0.00329992 0.000291 0.00378858 0.0136367 -0.000251809 2650 
65 1 -0.0142469 0.0272366 -0.00118101 0.00164 -0.00447342 0.0138222 0.00034274 2650 
198 1 -0.0164869 0.00915598 0.00111233 0.000291 -0.00334926 -0.0169389 -0.0797911 2650 
106 1 -0.00114705 0.029378 0.00289039 0.001058 0.0119634 0.0223893 -0.0027555 2650 
209 1 -0.0148576 0.00709504 0.00401993 0.001058 0.00584419 -0.0188996 0.0174994 2650 
211 1 -0.0124024 0.00643981 0.00512074 0.001058 0.000982608 0.00314487 0.00709992 2650 
244 1 -0.0150686 0.0130173 0.00486004 0.001058 0.0147268 0.0226051 0.0350285 2650 
115 1 -0.0150184 0.0163703 0.00452384 0.001058 0.00236141 0.0122312 0.0092361 2650 
256 1 -0.0158897 0.0197917 0.00428846 0.000291 0.000881351 0.0216623 0.00465977 2650 
187 1 -0.0149642 0.025372 0.00513853 0.001058 0.00500069 0.0154788 0.0119088 2650 
266 1 -0.0132749 0.0119346 0.0074394 0.001058 0.0170435 0.00901701 0.0432948 2650 
220 1 -0.0140175 0.0257861 0.0062584 0.000291 0.00991537 0.0130183 0.0124552 2650 
217 1 -0.00929328 0.0439628 0.00626555 0.001058 0.000747792 0.0265619 -0.00553463 2650 
68 1 -0.0012637 0.00673416 0.00871001 0.001058 0.00272783 -0.00342387 -0.00169301 2650 
28 1 -0.0102743 0.0560449 0.0088168 0.001058 0.00734507 0.0503926 0.00344867 2650 
224 1 -0.00855343 0.0157211 0.0119335 0.001058 -0.00111942 0.00491513 -0.00282362 2650 
242 1 -0.000291187 0.0333345 0.0104992 0.000291 0.0116924 0.0265357 0.00697501 2650 
124 1 -0.00758981 0.0436407 0.0112018 0.001058 0.0225448 0.0380641 0.0162983 2650 
116 1 -0.00264565 0.0533997 0.0117222 0.001058 -0.0278213 0.0454338 0.0115295 2650 
299 1 -0.00659097 0.00193426 0.0126084 0.001058 0.00581403 -0.00322581 0.00124072 2650 
4 1 -0.00841426 0.00860511 0.0133566 0.001058 0.0064118 0.000915196 0.00341804 2650 
147 1 -0.00858321 0.0385088 0.0128245 0.001058 0.0275772 0.016189 0.0275411 2650 
273 1 -0.00196108 0.0503889 0.0123655 0.001058 0.00511 0.0387776 -0.00978519 2650 
144 1 -0.00459074 0.0214895 0.0153951 0.000105 0.0152864 0.0109644 -0.00695946 2650 
154 1 -0.0156147 0.124156 -0.00142245 0.001058 -0.025218 0.0914679 0.0181079 2650 
85 1 0.00512528 -0.00965266 -0.0684736 0.000291 -3.74915 -0.212239 -0.432094 2650 
192 1 0.00320269 -0.000105445 -0.068819 0.000105 -9.0156 0.00144611 -0.412705 2650 
247 1 0.0162119 -0.0490995 -0.0667875 0.000291 -10.5694 0.177457 -2.5664 2650 
294 1 0.00499058 -0.0302867 -0.0677623 0.001058 -10.3174 0.0514926 -0.758868 2650 
236 1 0.0176358 -0.0616314 -0.0656184 0.001058 -10.2997 -0.0401935 -2.76716 2650 
168 1 0.0250148 -0.0105436 -0.0642112 0.000105 -8.18468 0.347668 -3.19168 2650 
254 1 0.0300761 -0.0506526 -0.061798 0.000291 -9.76779 -0.121851 -4.75397 2650 
218 1 0.0279646 -0.0492309 -0.0619517 0.001058 -9.73027 0.0123301 -4.39227 2650 
188 1 0.0329504 -0.0616596 -0.0594221 0.001058 -9.48022 0.0279374 -5.25853 2650 
148 1 0.0328938 -0.0529316 -0.0594663 0.001058 -9.29562 -0.031141 -5.14001 2650 
35 1 0.0319991 -0.0509516 -0.0599606 0.001058 -9.4193 -0.00965993 -5.02651 2650 
20 1 0.0361504 -0.0554212 -0.0575373 0.001058 -9.03388 0.00739161 -5.67606 2650 
43 1 0.035682 -0.053378 -0.0578352 0.001058 -9.1635 -0.0185077 -5.65169 2650 
48 1 0.0385215 -0.0497406 -0.0571338 0.000105 -8.75745 -1.09487 -5.90237 2650 
172 1 0.0382867 -0.0541981 -0.0561411 0.001058 -8.83942 0.00444421 -6.02834 2650 
42 1 0.0400956 -0.0549812 -0.0548572 0.001058 -8.58581 -0.030879 -6.2753 2650 
193 1 0.0374333 -0.0505888 -0.0560316 0.00164 -8.74407 0.0898877 -5.84483 2650 
81 1 0.0420075 -0.0498958 -0.0526745 0.00164 -8.30629 -0.0135293 -6.62529 2650 
162 1 0.0421579 -0.0470851 -0.0532951 0.001058 -8.29402 0.00293355 -6.56024 2650 
270 1 0.0425346 -0.0135211 -0.0539646 0.000291 -6.05249 0.302302 -4.76794 2650 
152 1 0.0427633 -0.0125992 -0.0540212 0.000105 -6.73139 -0.448811 -5.31801 2650 
185 1 0.0451708 -0.0516535 -0.049987 0.00164 -7.81118 -0.0218127 -7.05865 2650 
158 1 0.0480494 -0.0138475 -0.049113 0.000291 -5.8717 -0.289961 -5.74754 2650 
34 1 0.0482259 -0.030875 -0.0480593 0.001058 -7.54914 -2.12764e-08 -7.57531 2650 
82 1 0.0515442 -0.0348769 -0.0442613 0.001058 -6.74668 0.0105268 -7.86106 2650 
190 1 0.0550814 -0.00681106 -0.04105 0.000291 -1.86496 -0.193375 -2.66036 2650 
86 1 0.055827 -0.0209469 -0.0400606 0.000291 -5.73742 -1.02484 -8.01763 2650 
140 1 0.0591622 -0.0403231 -0.0334394 0.001058 -4.88485 -0.0137562 -8.62759 2650 
112 1 0.060605 -0.0236235 -0.0327659 0.000105 -1.55259 -0.611018 -2.91818 2650 
201 1 0.0608746 -0.0337919 -0.0288596 0.00164 -4.18463 -0.103273 -8.83874 2650 
167 1 0.06241 -0.0127882 -0.0287913 0.000291 -3.78566 -0.0559326 -8.19473 2650 
50 1 0.0621784 -0.030531 -0.0274031 0.001058 -3.96918 -0.0813626 -9.10976 2650 
267 1 0.0650724 -0.0199936 -0.0221066 0.000291 -2.88588 0.272618 -8.49889 2650 
26 1 0.0657577 -0.0495431 -0.0171837 0.001058 -2.69774 0.0105918 -10.3249 2650 
221 1 0.0664031 -0.0143427 -0.0177324 0.000291 -2.01705 0.48573 -7.5127 2650 
87 1 0.00330426 -0.00306912 -0.0151325 0.000291 -0.0161388 -0.0140939 0.00495742 2650 
37 1 0.006156 -0.00327642 -0.015157 0.000291 0 -0.011755 0 2650 
78 1 0.001258 -0.00329042 -0.012517 0.000291 0 -0.011755 0 2650 
16 1 0.0682783 -0.00648245 -0.00920268 0.000105 -1.16959 -0.211222 -8.65769 2650 
173 1 0.0687094 -0.0086923 -3.57099e-05 0.000291 -0.00245299 -0.0873902 -9.24753 2650 
240 1 0.0685501 -0.0281328 0.00465198 0.000291 0.546086 -0.512217 -8.0944 2650 
271 1 0.0143092 -0.00318963 0.00432912 0.001058 -0.0068558 -0.00685944 0.00631681 2650 
79 1 0.0138622 -0.0028679 0.00570168 0.000291 -0.00529203 -0.00866348 0.00968208 2650 
131 1 0.0673856 -0.0481314 0.00877456 0.001058 1.37911 -0.0159649 -10.5906 2650 
268 1 0.0681981 -0.0239523 0.00836371 0.000291 0.746831 0.584308 -5.94423 2650 
223 1 0.0672876 -0.020048 0.00949001 0.001058 1.38425 -0.0294882 -9.6124 2650 
6 1 0.0681345 -0.0166917 0.00891765 0.000291 1.05482 0.48993 -7.90791 2650 
285 1 0.0669365 -0.0301598 0.0116855 0.001058 1.62695 -0.265158 -9.3858 2650 
18 1 0.06673 -0.0206446 0.0128538 0.001058 1.87053 -0.29892 -9.83561 2650 
13 1 0.0676578 -0.0216428 0.0120096 0.000291 1.6628 -0.459267 -9.43315 2650 
235 1 0.0673897 -0.012503 0.0134697 0.000291 1.66733 -0.0744063 -8.33768 2650 
222 1 0.00513112 -7.95336e-05 0.0137441 0.001058 -0.0324875 0.00467874 -0.0112895 2650 
170 1 0.000193345 -0.00103732 0.0158934 0.001058 0.0180597 -0.0050796 -0.00136401 2650 
95 1 0.00599368 -0.000265439 0.0150516 0.000291 -0.0190214 0.000188354 -0.00919676 2650 
239 1 0.0654774 -0.0493952 0.0182305 0.001058 2.86573 -0.0119711 -10.2935 2650 
230 1 0.0641861 -0.0485859 0.0223666 0.001058 3.50817 -0.000539903 -10.0662 2650 
288 1 0.0649807 -0.0468174 0.0223992 0.000291 3.51749 0.0261266 -10.2041 2650 
213 1 0.0646121 -0.0455707 0.0234403 0.000291 3.57963 -0.84708 -9.87037 2650 
182 1 0.0645271 -0.0261585 0.0235926 0.000291 3.22113 -0.253568 -8.7961 2650 
145 1 0.0622634 -0.033561 0.0257088 0.00164 3.49442 -0.203102 -8.44216 2650 
259 1 0.0635561 -0.0297175 0.0240188 0.001058 3.68054 0.337204 -9.73921 2650 
36 1 0.061576 -0.0435198 0.0287799 0.001058 4.53367 0.0505033 -9.70047 2650 
121 1 0.0603695 -0.0466599 0.0299569 0.00164 4.69651 -0.0041414 -9.46426 2650 
295 1 0.0611628 -0.0260559 0.0312972 0.000291 4.2021 -0.232415 -8.20904 2650 
2 1 0.0593841 -0.0458382 0.0330663 0.001058 5.16601 -0.0819227 -9.2787 2650 
99 1 0.0590061 -0.0438411 0.0337312 0.001058 5.19432 -0.112185 -9.08209 2650 
60 1 0.0598667 -0.0422311 0.0321749 0.001058 4.98027 -0.0556895 -9.26709 2650 
281 1 0.0594311 -0.0623362 0.0345189 0.000291 5.39554 -0.0389634 -9.29319 2650 
243 1 0.0580885 -0.0515142 0.0352686 0.001058 5.70365 0.421469 -9.38876 2650 
119 1 0.0590123 -0.0491821 0.035215 0.000291 5.75868 -0.35039 -9.64728 2650 
196 1 0.0582967 -0.0459339 0.0349363 0.001058 5.43122 0.0729776 -9.06324 2650 
133 1 0.0597677 -0.0238573 0.0338988 0.000291 5.09354 -0.0916101 -8.98066 2650 
296 1 0.0597597 -0.00490187 0.0339048 0.000291 4.0949 -0.042904 -7.24078 2650 
191 1 0.0584909 -0.047049 0.0360846 0.000291 5.79025 -0.129409 -9.39058 2650 
108 1 0.0566051 -0.0401549 0.0376001 0.001058 5.79831 0.0313342 -8.72551 2650 
261 1 0.05749 -0.0337754 0.0376205 0.000291 4.84349 0.138164 -7.41942 2650 
15 1 0.0581753 -0.0173706 0.0365901 0.000291 4.7275 -0.0241761 -7.50913 2650 
73 1 0.0544627 -0.0578987 0.0396556 0.00164 6.20948 -0.0828106 -8.52878 2650 
3 1 0.0509358 -0.0256531 0.0449686 0.001058 6.65492 -0.14604 -7.47067 2650 
204 1 0.0495812 -0.0308858 0.0464611 0.001058 7.4373 0.0706873 -7.93964 2650 
229 1 0.0482642 -0.0616382 0.0478252 0.001058 7.38006 0.0408053 -7.45089 2650 
214 1 0.0482141 -0.0481977 0.0489524 0.000291 7.11019 0.322422 -6.99622 2650 
231 1 0.0463357 -0.0361858 0.049698 0.001058 7.6242 0.00286147 -7.10646 2650 
174 1 0.0478483 -0.0337868 0.0493093 0.000291 5.96678 0.612575 -5.79057 2650 
280 1 0.0480599 -0.0308702 0.0482271 0.001058 7.58788 -0.0673319 -7.54614 2650 
303 1 0.0487329 -0.0179635 0.0484353 0.000291 6.55698 -0.457984 -6.60682 2650 
207 1 0.0472883 -0.0120755 0.0498046 0.000291 6.5742 0.0399788 -6.2873 2650 
46 1 0.0477188 -0.0126273 0.0494114 0.000291 6.22382 0.0166686 -6.09116 2650 
202 1 0.0441414 -0.0290894 0.0516548 0.001058 7.3607 -0.11975 -6.28624 2650 
98 1 0.0445422 -0.0192808 0.0512414 0.001058 7.74906 0.15505 -6.72614 2650 
272 1 0.0428004 -0.0363172 0.052772 0.001058 7.78904 -0.451348 -6.31555 2650 
150 1 0.0449279 -0.0345527 0.0519827 0.000291 7.83537 0.142292 -6.77405 2650 
275 1 0.0444951 -0.00661801 0.0523338 0.000291 7.50853 0.0170228 -6.36696 2650 
89 1 0.0377101 -0.0611601 0.0558307 0.00164 8.75287 -0.00149103 -5.91117 2650 
277 1 0.0422862 -0.0351389 0.0541541 0.000291 7.93668 -0.364126 -6.19467 2650 
210 1 0.0391185 -0.031871 0.0555569 0.001058 8.27771 -0.106719 -5.82845 2650 
177 1 0.0401855 -0.0210689 0.0540675 0.00164 7.89484 -0.209949 -5.84928 2650 
251 1 0.0357107 -0.0279895 0.0578006 0.001058 8.4948 -0.247289 -5.25589 2650 
44 1 0.0358119 -0.0196229 0.0577536 0.001058 8.11787 0.34914 -5.03184 2650 
219 1 0.0378448 -0.000290973 0.057346 0.000291 7.06683 0.000103435 -4.65165 2650 
83 1 0.0322884 -0.050065 0.0598079 0.001058 9.41275 0.0957046 -5.07971 2650 
23 1 0.0358079 -0.0430405 0.0586589 0.000291 8.54314 -0.630825 -5.21673 2650 
276 1 0.0349124 -0.0371744 0.0591788 0.000291 8.97516 0.824899 -5.29812 2650 
282 1 0.0341821 -0.0267413 0.0595976 0.000291 8.72374 0.0806503 -4.99676 2650 
269 1 0.0362705 -0.0153002 0.0583694 0.000291 8.15792 0.0380166 -5.0435 2650 
45 1 0.0340924 -0.0121174 0.0596723 0.000291 8.23258 0.184799 -4.70288 2650 
287 1 0.0287997 -0.0470215 0.061568 0.001058 9.668 -0.0901366 -4.52031 2650 
215 1 0.0232225 -0.0485564 0.0638806 0.001058 10.0238 -0.00350865 -3.6438 2650 
84 1 0.0176552 -0.051053 0.0656308 0.001058 10.3105 0.0058006 -2.77355 2650 
264 1 0.0195411 -0.0468262 0.0651021 0.001058 10.2202 0.0188206 -3.06783 2650 
126 1 0.0228961 -0.0363861 0.0647782 0.000291 9.62259 0.036654 -3.39935 2650 
109 1 0.0153391 -0.0516764 0.0669877 0.000291 10.5153 -0.107189 -2.40825 2650 
181 1 0.0115674 -0.0478692 0.0677407 0.000291 10.6765 0.0289607 -1.82298 2650 
290 1 0.0183864 -0.0474747 0.0662252 0.000291 10.4032 -0.0508177 -2.88846 2650 
241 1 0.0177201 -0.0416967 0.0663993 0.000291 10.5827 -0.399513 -2.81315 2650 
88 1 0.00468402 -0.00185837 0.0687347 0.000105 8.52622 -0.355824 -0.581166 2650 
232 1 0.000256763 0.0307654 -0.0152856 0.001058 -0.0291023 0.0299794 -0.00774462 2650 
33 1 0.00154363 0.0266369 -0.0125176 0.00164 0.00603998 0.0215627 0.00352792 2650 
286 1 0.00888459 0.0332191 -0.0132284 0.001058 -0.02115 0.0482903 -0.0107899 2650 
301 1 0.00408119 0.0395829 -0.0135766 0.001058 -0.0176549 0.0163122 0.00371725 2650 
75 1 0.00686637 0.0701185 -0.0127987 0.001058 0.0240155 0.0510522 0.00788599 2650 
260 1 0.00790115 0.00619635 -0.0118233 0.000291 0.00264513 0.00634623 -0.0220501 2650 
54 1 0.0124904 0.0329209 -0.0107543 0.000291 -0.0306339 -0.00115888 -0.0366828 2650 
153 1 0.0079936 0.00472812 -0.00971965 0.00164 0.00901504 -0.00371715 -0.0192614 2650 
77 1 0.0114709 0.0117088 -0.00894763 0.000291 -0.0117356 0.000913058 0.0103562 2650 
292 1 0.00551895 0.0469272 -0.00835399 0.001058 -0.0104367 0.0376087 -0.0291473 2650 
195 1 0.0140498 0.000645057 -0.00723459 0.001058 -0.0122984 0.00202165 -0.0283738 2650 
19 1 0.0134075 0.0104985 -0.00705555 0.001058 -0.00189711 0.0050805 -0.00113271 2650 
284 1 0.012516 0.0124754 -0.00786294 0.000291 -0.00371053 0.00586111 -0.00129449 2650 
176 1 0.0134372 0.000221076 -0.00477174 0.000105 0.0200199 0.000256501 -0.0124767 2650 
199 1 0.0147911 0.00526628 -0.00412677 0.000291 -0.0066469 0.00203541 -0.00705897 2650 
161 1 0.0136844 0.00719414 -0.00436599 0.00164 -0.000454856 0.00568005 -0.00417258 2650 
123 1 0.0134292 0.0331207 -0.00583846 0.001058 -0.0069266 0.0381635 -0.00768552 2650 
101 1 0.0110517 0.000526848 -0.00298165 0.000291 0.0107852 -0.0015929 -0.0095042 2650 
113 1 0.0018648 0.00589884 -0.00213635 0.00164 -0.0131936 -0.00156564 -0.00033725 2650 
203 1 0.010128 0.0220903 -0.00303302 0.001058 0.0105265 0.0334803 0.00411967 2650 
57 1 0.00574645 0.0263385 -0.00252985 0.00164 -0.000919831 0.00616449 -0.024056 2650 
1 1 0.0144631 0.0057042 -0.00135913 0.00164 -0.00396175 0.00352346 -0.00443708 2650 
279 1 0.0105419 0.00612171 -0.00124977 0.001058 0.00690887 -0.00122776 0.0071413 2650 
92 1 0.0122941 0.00755438 -0.000643538 0.001058 0.00298746 0.00292354 0.00546929 2650 
194 1 0.0127931 0.0303105 -0.000458407 0.001058 -0.00717738 0.0355954 0.00284246 2650 
249 1 0.00480065 0.0331 -0.00146449 0.000291 0.00987628 0.0185258 -0.0129358 2650 
258 1 0.0131516 0.0338258 -0.00102172 0.001058 -0.00702738 0.0458888 -0.00817646 2650 
51 1 0.00598277 0.00904608 0.00047662 0.001058 -0.0414136 0.0415048 -0.0353246 2650 
38 1 0.00869132 0.017623 0.000587038 0.000291 0.0290333 0.00993382 0.0254358 2650 
70 1 0.00405484 0.046503 0.000613194 0.000291 0.000986621 0.0559838 -0.0454673 2650 
9 1 0.0135822 0.0318795 0.00395414 0.00164 -0.00067168 0.0470366 0.00650688 2650 
52 1 0.012717 0.0468261 0.00423642 0.001058 0.0258261 0.0380708 0.00407144 2650 
263 1 0.0120432 0.0502738 0.00442969 0.000291 -0.0276857 0.0691876 -0.0511194 2650 
238 1 0.0118911 0.045571 0.0078679 0.001058 0.0185997 0.0286204 -0.0105297 2650 
17 1 0.0134184 0.048593 0.00698303 0.00164 0.0176403 0.0372415 -0.034093 2650 
298 1 0.0125611 0.00323611 0.00807786 0.000105 0.00377194 -0.00442838 -0.00799766 2650 
156 1 0.0121317 0.00794731 0.00918395 0.001058 0.0124006 -0.0116374 0.00559452 2650 
139 1 0.0109181 0.0239587 0.0090495 0.001058 -0.0138539 0.00679752 0.0124887 2650 
66 1 0.0107949 0.00803992 0.010824 0.001058 0.00109107 -0.000952032 -0.00287426 2650 
265 1 0.0109822 0.011701 0.0111416 0.001058 0.011667 0.00657701 -0.00499144 2650 
105 1 0.00868945 0.0178217 0.0121893 0.00164 0.000597876 0.0137471 0.023702 2650 
41 1 0.0020336 0.0197432 0.0146523 0.00164 0.0102042 0.00860529 0.0210319 2650 
293 1 0.00291368 0.0423019 0.0154659 0.001058 0.106206 0.0118059 -0.0198874 2650 
245 1 0.00795806 0.0904131 -0.0100963 0.001058 0.013355 0.0538623 -0.0223836 2650 
127 1 0.0133705 0.0803693 -0.00704569 0.000291 0.0147798 0.0618117 0.0201086 2650 
