ITEM: TIMESTEP
19756581
ITEM: NUMBER OF ATOMS
264
ITEM: BOX BOUNDS ff ff ff
-0.15 0.15
-0.15 0.15
-0.15 0.15
ITEM: ATOMS id type x y z radius vx vy vz density 
214 1 -0.00746396 -0.0540006 -0.0683027 0.000291 -10.1284 0.0745349 1.10854 2650 
23 1 -0.0044234 -0.0515135 -0.0685659 0.000291 -9.99281 0.382923 0.646168 2650 
39 1 -0.00694447 -0.0368427 -0.0683561 0.000291 -11.0118 -0.0564373 1.11884 2650 
87 1 -0.00344221 -0.0174557 -0.0685814 0.000291 -9.29249 -0.0272686 0.478969 2650 
184 1 -0.0176325 -0.0336822 -0.0665946 0.000105 -9.33647 -0.64714 2.46916 2650 
44 1 -0.0072099 -0.0311356 -0.067567 0.001058 -10.1928 0.08622 1.106 2650 
107 1 -0.0204172 -0.049166 -0.0648303 0.001058 -10.1533 -0.0580042 3.19923 2650 
295 1 -0.0223161 -0.0281506 -0.0649781 0.000291 -9.6034 -0.057064 3.29423 2650 
227 1 -0.0297746 -0.0452425 -0.0619478 0.000291 -10.0181 -0.0586726 4.81524 2650 
302 1 -0.0336362 -0.0435359 -0.0599306 0.000291 -8.86112 -0.67395 4.97776 2650 
277 1 -0.0315495 -0.0428865 -0.061056 0.000291 -9.07644 -0.251256 4.68668 2650 
228 1 -0.0321417 -0.0162179 -0.0607529 0.000291 -7.6415 0.324499 4.04611 2650 
186 1 -0.0378499 -0.0187278 -0.056444 0.001058 -8.1925 0.0522342 5.48977 2650 
267 1 -0.0462005 -0.024346 -0.0508551 0.000291 -7.42479 0.0599232 6.74856 2650 
118 1 -0.0454739 -0.0225035 -0.0515052 0.000291 -6.422 0.167638 5.66586 2650 
98 1 -0.0447261 -0.0196733 -0.0511489 0.001058 -7.67218 -0.0226369 6.65895 2650 
255 1 -0.0453239 -0.0167214 -0.0516389 0.000291 -7.53622 -0.241895 6.63471 2650 
167 1 -0.0451333 -0.00964663 -0.0518051 0.000291 -6.23753 -0.192726 5.43169 2650 
210 1 -0.0472728 -0.038218 -0.0487999 0.001058 -7.52067 0.0662429 7.28905 2650 
300 1 -0.0467194 -0.0257697 -0.0493351 0.001058 -6.2421 -0.171453 5.95801 2650 
206 1 -0.0504187 -0.062509 -0.0466795 0.000291 -7.33237 1.86283e-09 7.91972 2650 
169 1 -0.0491163 -0.0611601 -0.0461179 0.00164 -7.24414 4.57202e-07 7.71512 2650 
246 1 -0.0496324 -0.0585276 -0.0464057 0.001058 -7.28956 -1.66622e-05 7.79644 2650 
177 1 -0.0486783 -0.0186081 -0.0465705 0.00164 -7.11503 -0.116663 7.44002 2650 
64 1 -0.0500171 -0.0169569 -0.0473754 0.000105 -5.8572 0.0625753 6.18678 2650 
282 1 -0.0510041 -0.0155128 -0.0460352 0.000291 -7.04052 0.0996803 7.79986 2650 
96 1 -0.0507343 -0.00757475 -0.0466073 0.000105 -5.78939 -0.204361 6.30318 2650 
25 1 -0.0511406 -0.0587931 -0.0438603 0.00164 -6.88886 0.00290076 8.03226 2650 
164 1 -0.0515175 -0.0427263 -0.0443045 0.001058 -7.02118 0.0699498 8.15934 2650 
241 1 -0.0512167 -0.0358938 -0.0457981 0.000291 -6.87986 -0.0341009 7.6963 2650 
178 1 -0.0525884 -0.0566726 -0.0430269 0.001058 -6.76586 -0.00622076 8.26951 2650 
226 1 -0.0539234 -0.0489274 -0.0425893 0.000291 -6.73271 -0.119744 8.52443 2650 
291 1 -0.0552895 -0.043184 -0.0408066 0.000291 -6.48412 -0.655223 8.77664 2650 
223 1 -0.0548011 -0.0151691 -0.0401882 0.001058 -5.69145 0.277536 7.78177 2650 
231 1 -0.0562903 -0.0416065 -0.0380708 0.001058 -6.06751 -0.067579 8.94747 2650 
251 1 -0.0563435 -0.0309396 -0.0380005 0.001058 -5.81056 -0.0140191 8.58246 2650 
103 1 -0.0583292 -0.0526376 -0.0363315 0.000291 -5.89689 -0.00667616 9.4709 2650 
271 1 -0.056819 -0.0160523 -0.03729 0.001058 -4.73456 -0.195795 7.21 2650 
276 1 -0.0596988 -0.0347467 -0.0340066 0.000291 -5.13688 0.0782444 9.01702 2650 
145 1 -0.0590938 -0.0336512 -0.0323529 0.00164 -4.88933 0.0539156 8.92846 2650 
117 1 -0.0603732 -0.0153212 -0.0328509 0.000291 -5.26827 -0.774823 9.68245 2650 
268 1 -0.0623819 -0.0215292 -0.0288241 0.000291 -3.50375 0.0225183 7.56981 2650 
137 1 -0.0653179 -0.0611601 -0.0165135 0.00164 -2.5938 -8.16431e-07 10.2596 2650 
74 1 -0.00947593 -0.000382447 -0.0122025 0.001058 0.00552843 -0.00502923 -0.00272883 2650 
202 1 -0.0671721 -0.0304314 -0.0102447 0.001058 -1.60042 0.0535306 10.5004 2650 
135 1 -0.00752492 -0.00234227 -0.0107537 0.000291 0.00330025 -0.00264717 0.00636962 2650 
3 1 -0.0674643 -0.0228287 -0.00807154 0.001058 -1.25447 -0.178127 10.4687 2650 
22 1 -0.0683138 -0.0218522 -0.00706594 0.000291 -1.08098 0.502553 10.5043 2650 
58 1 -0.00672117 -0.0012046 -0.00735732 0.001058 0.020455 0.00490158 -0.0306807 2650 
219 1 -0.0685285 -0.000290972 -0.00497428 0.000291 -0.632011 -6.56966e-05 8.54113 2650 
133 1 -0.0686071 -0.0279528 -0.00372657 0.000291 -0.566444 -0.182395 10.4401 2650 
285 1 -0.0680839 -0.030875 -0.000145496 0.001058 -0.0228547 -2.18979e-08 10.6946 2650 
88 1 -0.0688937 -0.00744978 0.000165817 0.000105 0.0311318 -0.488549 8.50278 2650 
270 1 -0.0687084 -0.0202502 0.000241896 0.000291 0.0487986 0.580702 8.09872 2650 
150 1 -0.0680107 -0.029182 0.00975821 0.000291 1.53419 0.00488658 10.6924 2650 
272 1 -0.0668898 -0.0435526 0.0120081 0.001058 1.91664 -0.161688 10.684 2650 
61 1 -0.0677963 -0.00231568 0.0111417 0.000291 1.43661 0.112029 8.78486 2650 
109 1 -0.066992 -0.0512256 0.0153248 0.000291 2.41642 0.00660166 10.564 2650 
84 1 -0.0656329 -0.0511889 0.0176458 0.001058 2.77109 0.0180684 10.3072 2650 
290 1 -0.0667105 -0.0486271 0.0165291 0.000291 2.59849 -0.0352938 10.4874 2650 
287 1 -0.0651056 -0.0499396 0.019517 0.001058 3.07221 0.00323645 10.2473 2650 
264 1 -0.0654671 -0.0482485 0.0182738 0.001058 2.87003 -0.00278455 10.2819 2650 
100 1 -0.0642546 -0.0192773 0.0221502 0.001058 2.93623 -0.045676 8.46086 2650 
181 1 -0.0648026 -0.0475691 0.0229116 0.000291 3.63152 0.0732646 10.2697 2650 
215 1 -0.0639002 -0.0485458 0.0231703 0.001058 3.64056 -0.00237459 10.0399 2650 
83 1 -0.0595408 -0.0498838 0.0327784 0.001058 5.14785 -0.00182314 9.35095 2650 
253 1 -0.0594522 -0.0276569 0.0344349 0.000291 4.77107 0.0650919 8.24723 2650 
235 1 -0.0591339 -0.0136003 0.035009 0.000291 5.64734 0.243315 9.53612 2650 
252 1 -0.0575801 -0.0127792 0.0360909 0.001058 4.91179 0.0743418 7.82569 2650 
89 1 -0.0558555 -0.0611601 0.0376743 0.00164 5.91803 2.86429e-07 8.77399 2650 
229 1 -0.049143 -0.0616319 0.0469244 0.001058 7.37704 0.00336566 7.72607 2650 
280 1 -0.0482464 -0.0308793 0.0480404 0.001058 7.54616 1.03337e-05 7.57852 2650 
50 1 -0.0449604 -0.0350142 0.0509326 0.001058 7.9597 -0.120902 7.02683 2650 
18 1 -0.0441377 -0.0193137 0.0516609 0.001058 8.05742 0.446636 6.8845 2650 
175 1 -0.0465171 -0.00478875 0.0505653 0.000291 6.79935 0.351951 6.24888 2650 
204 1 -0.0427626 -0.0306598 0.0528065 0.001058 8.23158 0.0184493 6.66542 2650 
37 1 -0.0437005 -0.0273151 0.0530176 0.000291 6.05875 -0.768666 4.99696 2650 
73 1 -0.039398 -0.0580918 0.0546468 0.00164 8.58412 -0.00746451 6.18877 2650 
196 1 -0.0357723 -0.0487407 0.0577866 0.001058 9.05769 -0.063994 5.60773 2650 
141 1 -0.0373549 -0.0435808 0.0576796 0.000291 8.82376 0.440288 5.71748 2650 
125 1 -0.0393113 -0.0333152 0.0563481 0.000291 8.86737 0.0168771 6.18625 2650 
86 1 -0.037619 -0.0324944 0.0574924 0.000291 8.88199 -0.48626 5.80835 2650 
85 1 -0.0380757 -0.00824299 0.0572006 0.000291 6.30332 -0.228315 4.19989 2650 
281 1 -0.0345034 -0.0622793 0.0594426 0.000291 9.33473 -3.79489e-05 5.41833 2650 
99 1 -0.0339764 -0.0483415 0.0588652 0.001058 9.2386 -0.0339818 5.33229 2650 
121 1 -0.0311933 -0.0457975 0.0597423 0.00164 9.35459 0.0248424 4.88323 2650 
6 1 -0.036241 -0.00999391 0.0583874 0.000291 7.60928 -0.197761 4.7342 2650 
243 1 -0.0297728 -0.0507507 0.0610988 0.001058 9.61361 -0.00106162 4.68305 2650 
191 1 -0.0323079 -0.048426 0.0606626 0.000291 9.51959 0.0630264 5.07027 2650 
2 1 -0.0311609 -0.0493127 0.0604046 0.001058 9.48633 -0.00438376 4.89366 2650 
201 1 -0.0281369 -0.0455508 0.0612422 0.00164 9.62272 0.0181666 4.42141 2650 
152 1 -0.0312851 -0.031553 0.0613807 0.000105 9.13139 0.0695426 4.65075 2650 
259 1 -0.0290495 -0.0310339 0.0614416 0.001058 9.70849 0.103088 4.5918 2650 
45 1 -0.0306808 -0.00207998 0.0614735 0.000291 7.67724 0.139359 3.8316 2650 
213 1 -0.0290266 -0.0495376 0.0622997 0.000291 9.82628 0.349572 4.58016 2650 
36 1 -0.0236772 -0.0475417 0.0637157 0.001058 9.9982 0.044395 3.71545 2650 
140 1 -0.0253438 -0.0460591 0.0630716 0.001058 9.97443 0.121686 4.0078 2650 
60 1 -0.0272467 -0.0432205 0.0622698 0.001058 9.74838 0.0389159 4.26552 2650 
108 1 -0.0252917 -0.0426625 0.0630868 0.001058 9.93035 -0.101924 3.98154 2650 
296 1 -0.0284774 -0.00224293 0.0625246 0.000291 7.65764 0.118395 3.49832 2650 
119 1 -0.0197103 -0.0503942 0.0658401 0.000291 10.2805 0.0601766 3.07805 2650 
239 1 -0.0182607 -0.0499555 0.0654674 0.001058 10.2745 0.0245029 2.8662 2650 
230 1 -0.0215517 -0.0490254 0.0644625 0.001058 10.1333 0.0214936 3.38794 2650 
288 1 -0.0206841 -0.0465683 0.0655463 0.000291 10.3919 0.0474816 3.27941 2650 
79 1 -0.0237755 -0.0317088 0.064464 0.000291 10.1602 0.158441 3.74756 2650 
102 1 -0.0198301 -0.0140373 0.0658071 0.000291 8.93322 -0.0737466 2.68652 2650 
131 1 -0.0087249 -0.0484729 0.0673918 0.001058 10.5848 -0.00673465 1.37025 2650 
82 1 -0.000437508 -0.0390464 0.0679476 0.001058 10.5794 -0.0111953 0.0681659 2650 
122 1 -0.00975909 -0.0301743 0.0672433 0.001058 9.95126 -0.0756507 1.46686 2650 
132 1 -0.0143932 -0.0248202 0.0664056 0.001058 9.39009 -0.0517811 2.00385 2650 
48 1 -0.00711468 -0.0466146 0.0685294 0.000105 10.93 -0.0954722 1.14057 2650 
182 1 -0.00447377 -0.0213428 0.0685614 0.000291 8.58125 -0.10219 0.565031 2650 
304 1 -0.00571449 -0.0126002 0.0684715 0.000291 8.55256 -0.244132 0.721085 2650 
134 1 -0.00419496 0.00723226 -0.0149879 0.000291 -0.0128132 0.00355392 -0.00692922 2650 
80 1 -0.00720154 0.0200944 -0.0145841 0.000105 0.0200167 0.0220396 -0.007602 2650 
232 1 -0.00488659 0.0362263 -0.0147553 0.001058 -0.0260744 0.0281349 0.00795724 2650 
198 1 -0.0110545 0.00572708 -0.0122595 0.000291 0.058758 -0.0185524 -0.0511083 2650 
97 1 -0.00621011 0.00928244 -0.0135888 0.00164 0.0189231 0.00904729 -0.00561719 2650 
130 1 -0.00677567 0.00298384 -0.010425 0.001058 -0.00692202 0.00347734 0.00595777 2650 
71 1 -0.000567028 8.01738e-05 -0.00895835 0.000291 0.000861808 -0.00718564 -0.0173142 2650 
10 1 -0.0123147 0.00945492 -0.00925597 0.001058 0.0053433 0.0061558 -0.0070677 2650 
51 1 -0.0018857 0.0169319 -0.00623497 0.001058 -0.0414136 0.0415048 -0.0353246 2650 
67 1 -0.0127001 0.020218 -0.00783546 0.001058 -0.0104976 0.0129104 0.0114407 2650 
113 1 -0.000641951 0.00560137 -0.00220042 0.00164 -0.0131936 -0.00156564 -0.00033725 2650 
129 1 -0.000907222 0.0109839 -0.00275442 0.00164 -0.00374589 0.0128173 -0.00288427 2650 
7 1 -0.00288172 0.0322862 -0.00334776 0.000291 0.00378858 0.0136367 -0.000251809 2650 
205 1 -0.00916175 0.00308236 -0.000716442 0.000291 -0.00881861 0.00364628 0.0236275 2650 
65 1 -0.0150968 0.0298628 -0.00111589 0.00164 -0.00447342 0.0138222 0.00034274 2650 
234 1 -0.0132611 0.0112266 0.000116157 0.000291 -0.00131366 0.00431637 0.0126772 2650 
256 1 -0.0157222 0.0239075 0.00517381 0.000291 0.000881351 0.0216623 0.00465977 2650 
217 1 -0.0091512 0.0490095 0.00521398 0.001058 0.000747792 0.0265619 -0.00553463 2650 
209 1 -0.0137472 0.00350417 0.00734476 0.001058 0.00584419 -0.0188996 0.0174994 2650 
211 1 -0.0122157 0.00703733 0.00646971 0.001058 0.000982608 0.00314487 0.00709992 2650 
115 1 -0.0145698 0.0186942 0.00627867 0.001058 0.00236141 0.0122312 0.0092361 2650 
187 1 -0.0140141 0.0283129 0.00740117 0.001058 0.00500069 0.0154788 0.0119088 2650 
68 1 -0.000745422 0.00608363 0.00838834 0.001058 0.00272783 -0.00342387 -0.00169301 2650 
220 1 -0.0121336 0.0282596 0.00862485 0.000291 0.00991537 0.0130183 0.0124552 2650 
28 1 -0.00887874 0.0656193 0.00947204 0.001058 0.00734507 0.0503926 0.00344867 2650 
222 1 -0.00104143 0.000809415 0.0115992 0.001058 -0.0324875 0.00467874 -0.0112895 2650 
244 1 -0.0113873 0.017243 0.0110741 0.001058 0.02945 0.0212834 0.025832 2650 
224 1 -0.00876611 0.016655 0.0113971 0.001058 -0.00111942 0.00491513 -0.00282362 2650 
273 1 -0.000990194 0.0577566 0.0105063 0.001058 0.00511 0.0387776 -0.00978519 2650 
299 1 -0.00548632 0.00132137 0.0128442 0.001058 0.00581403 -0.00322581 0.00124072 2650 
266 1 -0.00797794 0.0137785 0.0129358 0.001058 0.0336072 0.0100687 0.0213347 2650 
116 1 -0.00793163 0.062032 0.0139128 0.001058 -0.0278213 0.0454338 0.0115295 2650 
4 1 -0.00719603 0.00877899 0.014006 0.001058 0.0064118 0.000915196 0.00341804 2650 
144 1 -0.00168636 0.0235727 0.0140728 0.000105 0.0152864 0.0109644 -0.00695946 2650 
147 1 -0.00202355 0.0411898 0.0157063 0.001058 0.0386005 0.0120241 0.00142267 2650 
124 1 -0.00330635 0.0508728 0.0142985 0.001058 0.0225448 0.0380641 0.0162983 2650 
157 1 -6.28866e-05 0.0819424 -0.0135867 0.000291 0.0079085 0.0606548 0.000918149 2650 
104 1 0.00295467 -0.0257592 -0.0688286 0.000105 -8.96481 0.367051 -0.385948 2650 
14 1 0.0135246 -0.0468561 -0.0673799 0.000291 -10.5936 0.0824807 -2.12626 2650 
76 1 0.00506983 -0.0439418 -0.0677587 0.001058 -10.3939 -0.101957 -0.777785 2650 
303 1 0.0153164 -0.0170184 -0.0669979 0.000291 -9.69946 -0.0960952 -2.21439 2650 
197 1 0.016758 -0.00273349 -0.0666296 0.000291 -6.50193 0.299428 -1.61884 2650 
225 1 0.0184817 -0.0449998 -0.0654083 0.001058 -10.2732 -0.00011435 -2.90277 2650 
90 1 0.0232255 -0.0493981 -0.0638795 0.001058 -10.0342 -0.000775429 -3.64827 2650 
171 1 0.0252418 -0.0495252 -0.0631096 0.001058 -9.90984 0.0122761 -3.96394 2650 
112 1 0.026131 -0.0504418 -0.0637678 0.000105 -11.2003 0.676336 -4.58566 2650 
21 1 0.0295562 -0.0479167 -0.0620544 0.000291 -9.71227 -0.0764468 -4.62607 2650 
192 1 0.0385683 -0.000104996 -0.0570855 0.000105 -7.44586 -9.82809e-07 -5.03656 2650 
40 1 0.0443378 -0.000105046 -0.0527318 0.000105 -6.91687 -0.00209489 -5.794 2650 
190 1 0.0471791 -0.0136092 -0.0498986 0.000291 -5.71742 -0.0177768 -5.45911 2650 
208 1 0.0482462 -0.0308698 -0.0480403 0.001058 -7.54616 -8.47005e-07 -7.57849 2650 
110 1 0.0511393 -0.00332307 -0.0458861 0.000291 -3.74904 -0.0232588 -4.18754 2650 
269 1 0.0538823 -0.0108013 -0.0426394 0.000291 -6.07714 -0.0551069 -7.69043 2650 
168 1 0.05661 -0.0315601 -0.0392632 0.000105 -5.63152 0.109367 -8.1146 2650 
257 1 0.0591628 -0.0486625 -0.0334595 0.001058 -5.25548 0.00334565 -9.2927 2650 
49 1 0.0600304 -0.0490844 -0.030635 0.00164 -4.81279 -0.00324016 -9.43074 2650 
93 1 0.0619148 -0.0499171 -0.0298365 0.000291 -4.68239 -0.0106513 -9.71654 2650 
165 1 0.0621724 -0.045694 -0.0293081 0.000291 -4.59694 0.0160837 -9.75139 2650 
59 1 0.0617594 -0.0465984 -0.0283928 0.001058 -4.46024 0.00163837 -9.7019 2650 
179 1 0.0619904 -0.0495626 -0.0278745 0.001058 -4.37752 -0.0165835 -9.73506 2650 
240 1 0.0676372 -0.0312063 -0.0121122 0.000291 -1.65518 0.275181 -9.29181 2650 
146 1 0.0672225 -0.0488595 -0.00994641 0.001058 -1.56233 -0.000509432 -10.559 2650 
55 1 0.0681689 -0.0139217 -0.0086486 0.000291 -0.702359 0.117494 -5.11617 2650 
138 1 0.0674655 -0.0557952 -0.00807179 0.001058 -1.26657 -0.0187285 -10.5852 2650 
126 1 0.0684231 -0.0171593 -0.00628499 0.000291 -0.867827 0.00794749 -9.26158 2650 
248 1 0.0685576 -0.0270266 -0.0045391 0.000291 -0.722248 -0.156013 -10.9159 2650 
47 1 0.06776 -0.0113157 0.0114219 0.000291 1.41698 -0.132526 -8.54157 2650 
95 1 0.00237965 -0.000229652 0.0133043 0.000291 -0.0190214 0.000188354 -0.00919676 2650 
170 1 0.00358498 -0.0019929 0.0154745 0.001058 0.0178138 -0.00502054 -0.00235441 2650 
250 1 0.000140373 -0.00155647 0.0153747 0.001058 0.0161046 -0.00542442 -0.00110725 2650 
236 1 0.0656754 -0.0616398 0.0174233 0.001058 2.73495 0.00315659 -10.3087 2650 
254 1 0.0632595 -0.0503296 0.0268664 0.000291 4.23136 -0.0167316 -9.96361 2650 
247 1 0.063348 -0.0492015 0.0266652 0.000291 4.18073 -0.0377646 -9.93231 2650 
94 1 0.0630626 -0.0178602 0.027332 0.000291 3.06085 -0.0252683 -7.05462 2650 
261 1 0.0635717 -0.0183936 0.0261238 0.000291 2.98968 -0.427768 -7.26082 2650 
188 1 0.0615292 -0.0616254 0.0288291 0.001058 4.53027 -0.0016358 -9.66888 2650 
218 1 0.0619395 -0.049207 0.0279918 0.001058 4.3968 0.000360368 -9.72913 2650 
148 1 0.0595466 -0.0531179 0.0327506 0.001058 5.1421 -0.0012066 -9.34928 2650 
35 1 0.0599777 -0.0508727 0.0319682 0.001058 5.01892 0.00140295 -9.4161 2650 
43 1 0.0585163 -0.0501809 0.0345671 0.001058 5.41153 0.0113881 -9.16004 2650 
128 1 0.05999 -0.00382645 0.0338692 0.000105 4.08286 0.303978 -7.25768 2650 
20 1 0.0571216 -0.0554333 0.0368039 0.001058 5.78004 -0.00512344 -8.97101 2650 
172 1 0.0560846 -0.0544551 0.0383686 0.001058 6.03664 -0.00321294 -8.82388 2650 
193 1 0.055554 -0.049867 0.0381399 0.00164 5.99788 -0.0139809 -8.73694 2650 
42 1 0.0542031 -0.054768 0.040979 0.001058 6.44224 0.00202001 -8.52073 2650 
46 1 0.0558206 -0.0196383 0.0400761 0.000291 5.22221 0.149553 -7.26801 2650 
16 1 0.0561688 -0.00511652 0.0398927 0.000105 5.16415 -0.101096 -7.28421 2650 
81 1 0.0527708 -0.0500142 0.0418927 0.00164 6.58074 0.00139806 -8.28946 2650 
162 1 0.0533438 -0.0473857 0.0420967 0.001058 6.60568 0.0022228 -8.37006 2650 
24 1 0.0536884 -0.00480692 0.043171 0.000105 6.05442 0.801446 -7.51947 2650 
185 1 0.0502295 -0.0518726 0.0449008 0.00164 7.05144 0.00417619 -7.88808 2650 
159 1 0.0493822 -0.0492583 0.0477722 0.000291 7.67961 0.535986 -7.93753 2650 
221 1 0.0497773 -0.0197279 0.0473603 0.000291 6.38227 0.359513 -6.72476 2650 
34 1 0.0480397 -0.030875 0.0482455 0.001058 7.57838 -2.13192e-08 -7.54606 2650 
29 1 0.0466013 -0.00548512 0.0504643 0.000291 6.2473 0.161108 -5.81032 2650 
158 1 0.0439395 -0.0155435 0.0528105 0.000291 6.70862 0.0891896 -5.63119 2650 
78 1 0.0368979 -0.0400053 0.0579658 0.000291 8.94724 0.916748 -5.69468 2650 
173 1 0.0337125 -0.0134662 0.0598914 0.000291 6.97139 0.114011 -3.93226 2650 
207 1 0.0300768 -0.0172495 0.0618013 0.000291 7.7787 -0.184942 -3.79725 2650 
212 1 0.0328857 -0.0161725 0.0603521 0.000291 7.64277 -0.408125 -4.17364 2650 
26 1 0.0171026 -0.0495454 0.0657799 0.001058 10.3321 -0.00280855 -2.68638 2650 
294 1 0.0204873 -0.0325494 0.0647801 0.001058 9.83416 0.0413272 -3.1133 2650 
275 1 0.0227602 -0.0274861 0.0648256 0.000291 8.3383 0.382832 -2.93117 2650 
15 1 0.0247212 -0.0185504 0.0641298 0.000291 7.96048 -0.0701654 -3.06423 2650 
278 1 0.0150464 -0.0331419 0.0662578 0.001058 9.95798 -0.105173 -2.26162 2650 
174 1 0.0187031 -0.0325026 0.0661113 0.000291 9.78294 0.256575 -2.76392 2650 
200 1 0.0195109 -0.00488659 0.066073 0.000105 9.02277 -0.153244 -2.67299 2650 
260 1 0.00750488 0.00728433 -0.0140934 0.000291 -0.00996736 0.00469349 0.00488237 2650 
54 1 0.00523794 0.0326473 -0.0158071 0.000291 -0.0454148 -0.00172676 -0.0115357 2650 
286 1 0.00478606 0.0423544 -0.0150197 0.001058 -0.0227563 0.047494 -0.00559967 2650 
301 1 0.000726809 0.0426822 -0.0128703 0.001058 -0.0176549 0.0163122 0.00371725 2650 
292 1 0.00353601 0.0540728 -0.0138919 0.001058 -0.0104367 0.0376087 -0.0291473 2650 
195 1 0.0104486 0.00112555 -0.0117676 0.001058 -0.023068 0.0028628 -0.0200038 2650 
153 1 0.00871131 0.00415754 -0.0118076 0.00164 -0.00763413 -0.0014489 0.00703428 2650 
33 1 0.00269121 0.0307338 -0.0118473 0.00164 0.00603998 0.0215627 0.00352792 2650 
284 1 0.011811 0.013589 -0.00810889 0.000291 -0.00371053 0.00586111 -0.00129449 2650 
70 1 0.00424229 0.0571398 -0.00802548 0.000291 0.000986621 0.0559838 -0.0454673 2650 
176 1 0.014713 0.000384651 -0.00607833 0.000105 -0.0113334 0.00168079 0.000719247 2650 
19 1 0.0130471 0.0114638 -0.00727077 0.001058 -0.00189711 0.0050805 -0.00113271 2650 
114 1 0.000188196 0.0118609 -0.00770381 0.001058 0.0187062 0.0117361 -0.00752779 2650 
77 1 0.00924118 0.0118823 -0.00697999 0.000291 -0.0117356 0.000913058 0.0103562 2650 
57 1 0.00557168 0.0275098 -0.00710043 0.00164 -0.000919831 0.00616449 -0.024056 2650 
123 1 0.0121132 0.0403717 -0.00729869 0.001058 -0.0069266 0.0381635 -0.00768552 2650 
101 1 0.0131009 0.000224202 -0.00478742 0.000291 0.0107852 -0.0015929 -0.0095042 2650 
199 1 0.0135282 0.00565301 -0.00546796 0.000291 -0.0066469 0.00203541 -0.00705897 2650 
161 1 0.013598 0.00827334 -0.00515877 0.00164 -0.000454856 0.00568005 -0.00417258 2650 
263 1 0.00678298 0.0634192 -0.00528286 0.000291 -0.0276857 0.0691876 -0.0511194 2650 
1 1 0.0137104 0.00637365 -0.00220217 0.00164 -0.00396175 0.00352346 -0.00443708 2650 
203 1 0.012128 0.0284515 -0.0022503 0.001058 0.0105265 0.0334803 0.00411967 2650 
249 1 0.00667712 0.0366198 -0.00392225 0.000291 0.00987628 0.0185258 -0.0129358 2650 
258 1 0.0118164 0.0425446 -0.00257522 0.001058 -0.00702738 0.0458888 -0.00817646 2650 
279 1 0.0118546 0.00588844 0.00010706 0.001058 0.00690887 -0.00122776 0.0071413 2650 
92 1 0.0128618 0.00810985 0.000395614 0.001058 0.00298746 0.00292354 0.00546929 2650 
194 1 0.0114294 0.0370736 8.16543e-05 0.001058 -0.00717738 0.0355954 0.00284246 2650 
293 1 0.0157016 0.0432093 0.00173514 0.001058 0.00440617 -0.00310892 -0.103934 2650 
52 1 0.0152998 0.0511657 0.00135251 0.001058 -0.00702953 0.0194323 -0.0174178 2650 
17 1 0.0151912 0.0561323 0.000835278 0.00164 0.00701424 0.0397619 -0.0326359 2650 
106 1 0.00112596 0.033632 0.00236685 0.001058 0.0119634 0.0223893 -0.0027555 2650 
38 1 0.0142076 0.0195104 0.00541977 0.000291 0.0290333 0.00993382 0.0254358 2650 
9 1 0.0134546 0.0408163 0.00519044 0.00164 -0.00067168 0.0470366 0.00650688 2650 
238 1 0.014471 0.0508699 0.0055787 0.001058 -0.00137728 0.0257105 -0.0165728 2650 
298 1 0.0132777 0.00239472 0.00655833 0.000105 0.00377194 -0.00442838 -0.00799766 2650 
156 1 0.0122044 0.00612542 0.00861311 0.001058 -0.00386139 -0.00886559 -0.00604091 2650 
265 1 0.0124287 0.0128589 0.00956358 0.001058 0.00631372 0.00593974 -0.00936806 2650 
66 1 0.0110022 0.00785904 0.0102779 0.001058 0.00109107 -0.000952032 -0.00287426 2650 
139 1 0.00828592 0.0252502 0.0114223 0.001058 -0.0138539 0.00679752 0.0124887 2650 
242 1 0.00193034 0.0383762 0.0118245 0.000291 0.0116924 0.0265357 0.00697501 2650 
105 1 0.00612871 0.0197068 0.0123979 0.00164 -0.00344466 0.00582004 -0.00613861 2650 
41 1 0.00307376 0.0207723 0.0133584 0.00164 -0.00672013 0.00866437 -0.0057422 2650 
75 1 0.0114293 0.0798182 -0.0113003 0.001058 0.0240155 0.0510522 0.00788599 2650 
127 1 0.0161786 0.0921134 -0.0032251 0.000291 0.0147798 0.0618117 0.0201086 2650 
