ITEM: TIMESTEP
1358260
ITEM: NUMBER OF ATOMS
304
ITEM: BOX BOUNDS ff ff ff
-0.15 0.15
-0.15 0.15
-0.15 0.15
ITEM: ATOMS id type x y z radius vx vy vz density 
290 1 -0.0105083 -0.042568 -0.067907 0.000291 -3.84848 -0.359214 0.614379 2650 
297 1 -0.0403958 -0.00965367 -0.0555235 0.000291 -2.73098 -0.211844 1.85234 2650 
148 1 -0.0439843 -0.0286949 -0.0517857 0.001058 -3.60398 -0.0851875 2.98653 2650 
133 1 -0.0638495 -0.0138014 -0.025446 0.000291 -1.35799 -0.253654 3.36132 2650 
5 1 -0.0179236 -0.0049976 -0.0234853 0.000291 -2.43075 -0.22663 -3.22759 2650 
215 1 -0.00280506 -0.00731352 -0.0201196 0.001058 -0.12091 -0.551116 -2.13619 2650 
26 1 -0.00107222 -0.000329619 -0.0145072 0.001058 0.0227551 -0.049422 -0.0315508 2650 
93 1 -0.0111183 -0.00181276 -0.0120008 0.000291 -0.0556851 -0.0305292 -0.0421019 2650 
241 1 -0.008593 -0.00131703 -0.012306 0.000291 0 -0.011755 0 2650 
167 1 -0.007283 -0.00317703 -0.00514 0.000291 0 -0.011755 0 2650 
59 1 -0.00673114 -0.00181342 -0.0044685 0.001058 0.00115799 -0.0116141 0.00139237 2650 
23 1 -0.005085 -0.00228303 -0.002724 0.000291 0 -0.011755 0 2650 
90 1 -0.0108176 -6.61855e-05 -0.00271854 0.001058 0.00769491 -0.0700265 0.031251 2650 
107 1 -0.003706 -0.00196203 -0.003027 0.001058 0 -0.011755 0 2650 
282 1 -0.001816 -0.00102103 -0.002164 0.000291 0 -0.011755 0 2650 
89 1 -0.00169925 -0.00249524 0.00150623 0.00164 -0.0058431 -0.0117287 -0.0183195 2650 
99 1 -0.011672 -1.90336e-05 9.8e-05 0.001058 0 -0.011755 0 2650 
229 1 -0.0046183 -0.00258859 0.00265733 0.001058 9.1281e-05 -0.0149163 0.00350247 2650 
127 1 -0.006868 -0.00178003 0.0035 0.000291 0 -0.011755 0 2650 
158 1 -0.007297 -5.80336e-05 0.003049 0.000291 0 -0.011755 0 2650 
149 1 -0.004792 -0.000104034 0.002724 0.000291 0 -0.011755 0 2650 
151 1 -0.0684907 -0.01104 0.00546263 0.000291 0.257814 -0.252228 3.34819 2650 
2 1 -0.013701 -0.00197803 0.005224 0.001058 0 -0.011755 0 2650 
63 1 -0.010157 -0.00196903 0.004282 0.000291 0 -0.011755 0 2650 
157 1 -0.011403 -0.00202803 0.006122 0.000291 0 -0.011755 0 2650 
42 1 -0.008546 -0.000724034 0.006756 0.001058 0 -0.011755 0 2650 
283 1 -0.03815 -0.00547274 0.00869781 0.000291 -5.83397 -0.195337 1.31444 2650 
36 1 -0.012004 -0.00249503 0.009853 0.001058 0 -0.011755 0 2650 
257 1 -0.009847 -0.00205803 0.008559 0.001058 0 -0.011755 0 2650 
204 1 -0.00156 -0.000910034 0.010678 0.001058 0 -0.011755 0 2650 
84 1 -0.000959 -0.00283403 0.012417 0.001058 0 -0.011755 0 2650 
73 1 -0.00484387 -0.000702483 0.0137 0.00164 0.0292965 -0.0332995 -0.0283386 2650 
86 1 -0.0532044 -0.021599 0.0434556 0.000291 2.01203 -0.392541 2.38083 2650 
125 1 -0.0200854 -0.0407528 0.0657218 0.000291 4.55356 0.628547 1.33349 2650 
219 1 -0.0137933 -0.0148955 0.0673123 0.000291 4.27493 0.151858 0.852308 2650 
17 1 -0.00435813 0.00338371 -0.0143558 0.00164 0.00275872 -0.00783162 0.0103761 2650 
85 1 -0.003548 0.00555897 -0.015444 0.000291 0 -0.011755 0 2650 
70 1 -0.002345 0.00736097 -0.015511 0.000291 0 -0.011755 0 2650 
189 1 -0.004115 0.00175397 -0.01297 0.000291 0 -0.011755 0 2650 
280 1 -0.00221014 0.00126474 -0.0136745 0.001058 0.0146824 -0.0476139 -0.0422255 2650 
295 1 -0.006507 0.00207597 -0.01264 0.000291 0 -0.011755 0 2650 
115 1 -0.009032 0.00740797 -0.012506 0.001058 0 -0.011755 0 2650 
32 1 -0.00498578 0.00810578 -0.0120217 0.000105 0.00408433 -0.0405512 -0.0362068 2650 
33 1 -0.003866 0.010424 -0.012959 0.00164 0 -0.011755 0 2650 
57 1 -0.0077616 0.0126465 -0.0127193 0.00164 0.0230994 0.0154402 0.0436737 2650 
91 1 -0.00221101 0.0212391 -0.0126403 0.001058 -0.0674224 0.148351 -0.200163 2650 
163 1 -0.005911 0.000530966 -0.010628 0.001058 0 -0.011755 0 2650 
138 1 -0.00325814 0.00227759 -0.0118944 0.001058 -0.00785657 -0.0461065 -0.0441548 2650 
198 1 -0.01006 0.00670497 -0.011926 0.000291 0 -0.011755 0 2650 
234 1 -0.003052 0.00680197 -0.010232 0.000291 0 -0.011755 0 2650 
273 1 -0.00119 0.00676397 -0.010246 0.001058 0 -0.011755 0 2650 
47 1 -0.011528 0.00800897 -0.010748 0.000291 0 -0.011755 0 2650 
94 1 -0.011581 0.012486 -0.01188 0.000291 0 -0.011755 0 2650 
166 1 -0.005567 2.59664e-05 -0.009051 0.000291 0 -0.011755 0 2650 
108 1 -0.007031 0.00276497 -0.009032 0.001058 0 -0.011755 0 2650 
175 1 -0.013247 0.00804897 -0.008751 0.000291 0 -0.011755 0 2650 
41 1 -0.00726675 0.0080786 -0.0093487 0.00164 -0.0426201 0.0149708 -0.0234718 2650 
144 1 -0.011054 0.012607 -0.008779 0.000105 0 -0.011755 0 2650 
220 1 -0.00862359 0.0133701 -0.00881606 0.000291 -0.0258814 0.00931039 0.00803739 2650 
200 1 -0.012172 0.00130897 -0.006974 0.000105 0 -0.011755 0 2650 
293 1 -0.009422 0.000595966 -0.006923 0.001058 0 -0.011755 0 2650 
218 1 -0.00562153 0.00144947 -0.00751072 0.001058 0.00591971 -0.0159874 -0.00632168 2650 
137 1 -0.001323 9.89664e-05 -0.006126 0.00164 0 -0.011755 0 2650 
250 1 -0.013194 0.00370197 -0.006197 0.001058 0 -0.011755 0 2650 
214 1 -0.008446 0.00101897 -0.004092 0.000291 0 -0.011755 0 2650 
203 1 -0.00661892 0.00264089 -0.00591198 0.001058 0.0108298 -0.0118951 -0.00146797 2650 
76 1 -0.003173 0.00310697 -0.005708 0.001058 0 -0.011755 0 2650 
276 1 -0.013674 0.00959297 -0.004231 0.000291 0 -0.011755 0 2650 
240 1 -0.010392 0.00865097 -0.005262 0.000291 0 -0.011755 0 2650 
74 1 -0.012237 0.00999097 -0.004721 0.001058 0 -0.011755 0 2650 
159 1 -0.012707 0.012587 -0.00588 0.000291 0 -0.011755 0 2650 
187 1 -0.00981428 0.0124666 -0.00540624 0.001058 -0.0112156 -0.0033076 -0.00319333 2650 
116 1 -0.013496 0.00111897 -0.003353 0.001058 0 -0.011755 0 2650 
43 1 -0.00788739 0.00226089 -0.00357728 0.001058 0.021172 -0.0262086 0.0149909 2650 
270 1 -0.006476 0.00253397 -0.003483 0.000291 0 -0.011755 0 2650 
211 1 -0.013621 0.00433297 -0.002856 0.001058 0 -0.011755 0 2650 
274 1 -0.016349 0.00645797 -0.002509 0.000291 0 -0.011755 0 2650 
114 1 -0.012867 0.00698897 -0.002401 0.001058 0 -0.011755 0 2650 
13 1 -0.014201 0.00869297 -0.003882 0.000291 0 -0.011755 0 2650 
104 1 -0.014089 0.00937497 -0.003012 0.000105 0 -0.011755 0 2650 
256 1 -0.0104822 0.0109652 -0.00384831 0.000291 -0.0123982 -0.000129637 -0.00545733 2650 
65 1 -0.00885603 0.0101068 -0.0029975 0.00164 -0.00345901 0.0120485 0.00345367 2650 
7 1 -0.008475 0.012314 -0.002976 0.000291 0 -0.011755 0 2650 
180 1 -0.015098 0.000367966 -0.001623 0.001058 0 -0.011755 0 2650 
123 1 -0.014683 0.00186297 -0.000117 0.001058 0 -0.011755 0 2650 
131 1 -0.0125777 0.00273739 -9.30894e-05 0.001058 -0.0285413 -0.0462991 0.0286753 2650 
140 1 -0.00867517 0.00223816 -0.000605091 0.001058 0.00884369 -0.039642 0.00959408 2650 
195 1 -0.00925858 0.00470048 -0.000107529 0.001058 0.0113575 -0.0204345 0.047058 2650 
223 1 -0.00595187 0.00495696 -0.00113087 0.001058 0.0415501 -0.0223204 0.0172409 2650 
10 1 -0.012845 0.010077 -0.000712 0.001058 0 -0.011755 0 2650 
61 1 -0.016439 0.012305 -0.001038 0.000291 0 -0.011755 0 2650 
136 1 -0.00404202 0.0181472 -0.00177858 0.000105 -0.0729053 0.12081 -0.0484832 2650 
75 1 -0.008381 7.09664e-05 0.001024 0.001058 0 -0.011755 0 2650 
135 1 -0.00305749 0.000352375 0.000229721 0.000291 -0.0060505 -0.00140209 -0.0140303 2650 
122 1 -0.00178094 0.000797423 0.00034401 0.001058 0.000509879 -0.0115361 4.72204e-06 2650 
206 1 -0.013164 0.00236497 0.001584 0.000291 0 -0.011755 0 2650 
14 1 -0.006378 0.00339997 0.001478 0.000291 0 -0.011755 0 2650 
296 1 -0.005879 0.00387797 0.000521 0.000291 0 -0.011755 0 2650 
191 1 -0.0108 0.00473197 0.001549 0.000291 0 -0.011755 0 2650 
168 1 -0.007536 0.00574297 0.001389 0.000105 0 -0.011755 0 2650 
209 1 -0.010932 0.00785697 0.001176 0.001058 0 -0.011755 0 2650 
120 1 -0.016055 0.00794497 0.000189 0.000105 0 -0.011755 0 2650 
80 1 -0.014935 0.010643 0.00039 0.000105 0 -0.011755 0 2650 
268 1 -0.011054 0.011167 0.000789 0.000291 0 -0.011755 0 2650 
129 1 -0.008713 0.010981 0.001908 0.00164 0 -0.011755 0 2650 
132 1 -0.01481 0.000798966 0.003327 0.001058 0 -0.011755 0 2650 
106 1 -0.009716 0.000398966 0.002779 0.001058 0 -0.011755 0 2650 
272 1 -0.001203 0.000802966 0.002609 0.001058 0 -0.011755 0 2650 
124 1 -0.014115 0.00343597 0.003875 0.001058 0 -0.011755 0 2650 
302 1 -0.008928 0.00362997 0.003809 0.000291 0 -0.011755 0 2650 
18 1 -0.005138 0.00493697 0.00212 0.001058 0 -0.011755 0 2650 
52 1 -0.00466806 0.00721749 0.0032011 0.001058 -0.0709318 -0.0184059 -0.0080994 2650 
176 1 -0.003983 0.00928197 0.002552 0.000105 0 -0.011755 0 2650 
242 1 -0.00402582 0.0089434 0.00359912 0.000291 -0.00954886 0.00781474 0.00295974 2650 
245 1 -0.00496552 0.0181925 0.00380636 0.001058 -0.00877598 0.0648343 0.053396 2650 
11 1 -0.0125649 0.0200871 0.0038274 0.001058 -0.086582 0.108675 0.069531 2650 
49 1 -0.007469 0.00106597 0.004859 0.00164 0 -0.011755 0 2650 
182 1 -0.007428 0.00321597 0.005665 0.000291 0 -0.011755 0 2650 
58 1 -0.009725 0.00489697 0.005089 0.001058 0 -0.011755 0 2650 
28 1 -0.013611 0.00727997 0.005538 0.001058 0 -0.011755 0 2650 
170 1 -0.01149 0.00741497 0.005193 0.001058 0 -0.011755 0 2650 
53 1 -0.000389 0.00601997 0.004762 0.000291 0 -0.011755 0 2650 
238 1 -0.009207 0.00816797 0.004742 0.001058 0 -0.011755 0 2650 
77 1 -0.00568429 0.00873048 0.00448779 0.000291 -0.0659618 0.0071766 0.0150346 2650 
164 1 -0.003894 0.00831797 0.005467 0.001058 0 -0.011755 0 2650 
291 1 -0.008194 0.012692 0.004767 0.000291 0 -0.011755 0 2650 
266 1 -0.0128088 0.00168049 0.00781301 0.001058 0.00105428 -0.0117776 0.00184446 2650 
235 1 -0.001066 0.000558966 0.007831 0.000291 0 -0.011755 0 2650 
64 1 -0.001837 0.000983966 0.007035 0.000105 0 -0.011755 0 2650 
254 1 -0.006211 0.00355497 0.006905 0.000291 0 -0.011755 0 2650 
98 1 -0.001703 0.00588097 0.00616 0.001058 0 -0.011755 0 2650 
186 1 -0.006177 0.010634 0.006545 0.001058 0 -0.011755 0 2650 
111 1 -0.009474 0.000628966 0.008964 0.000291 0 -0.011755 0 2650 
44 1 -0.007195 0.00277097 0.008791 0.001058 0 -0.011755 0 2650 
304 1 -0.012709 0.011973 0.009818 0.000291 0 -0.011755 0 2650 
4 1 -0.013492 0.011852 0.008313 0.001058 0 -0.011755 0 2650 
97 1 -0.0102461 0.000348747 0.0112832 0.00164 -0.0275123 -0.0132882 -0.0225105 2650 
38 1 -0.000348 0.000391966 0.010029 0.000291 0 -0.011755 0 2650 
233 1 -0.001796 0.00331697 0.010436 0.000291 0 -0.011755 0 2650 
35 1 -0.002198 0.00677797 0.010984 0.001058 0 -0.011755 0 2650 
217 1 -0.00799133 0.00916284 0.0116031 0.001058 -0.0106168 0.0279099 0.00374771 2650 
251 1 -0.00420053 0.0088306 0.0100158 0.001058 -0.0165425 -0.0287939 0.0166856 2650 
224 1 -0.0053217 0.00917184 0.0118348 0.001058 -0.00874698 -0.00369295 0.0271759 2650 
299 1 -0.010562 0.010414 0.010709 0.001058 0 -0.011755 0 2650 
68 1 -0.00480985 0.0111851 0.0109109 0.001058 0.00272783 -0.00342387 -0.00169301 2650 
71 1 -0.000738943 0.0114558 0.0112871 0.000291 -0.0104586 -0.0101041 0.055119 2650 
55 1 -0.01171 0.012441 0.01034 0.000291 0 -0.011755 0 2650 
154 1 -0.00088999 0.00034825 0.013943 0.001058 0.0729568 0.102823 -0.0740162 2650 
226 1 -0.009224 0.00428897 0.012787 0.000291 0 -0.011755 0 2650 
300 1 -0.00907466 0.0069644 0.0129559 0.001058 -0.0070311 -0.00989347 -0.0019089 2650 
285 1 -0.00594374 0.00778202 0.0136793 0.001058 -0.00807966 0.023201 0.0644381 2650 
202 1 -0.0030657 0.00693088 0.0137151 0.001058 0.0436761 0.0285453 -0.0430067 2650 
100 1 -0.00104095 0.00765622 0.0128334 0.001058 0.00171616 -0.0143968 0.000728218 2650 
249 1 -0.00695119 0.00873781 0.0136092 0.000291 -0.0170241 0.0254249 0.0301815 2650 
153 1 -0.00313434 0.00973149 0.0137952 0.00164 -0.0163422 -0.018073 0.0437888 2650 
29 1 -0.00498631 0.00830682 0.0146172 0.000291 0.0303844 0.0187966 0.0529268 2650 
265 1 -0.000465 0.00894497 0.015551 0.001058 0 -0.011755 0 2650 
156 1 -0.000733897 0.0119841 0.0149262 0.001058 0.0105273 0.00111324 0.0241494 2650 
22 1 0.00777408 -0.0372894 -0.0682605 0.000291 -3.71995 -0.205885 -0.535603 2650 
165 1 0.00468133 -0.00968833 -0.0684984 0.000291 -3.17421 -0.170563 -0.343737 2650 
169 1 0.0138488 -0.0549517 -0.0659296 0.00164 -5.61548 -0.0374851 -1.23158 2650 
69 1 0.0229967 -0.020351 -0.0647608 0.000291 -3.37472 -0.16651 -1.21837 2650 
25 1 0.0620431 -0.0495321 -0.0263155 0.00164 -2.05736 0.107353 -4.9211 2650 
21 1 0.0630393 -0.0348289 -0.0273208 0.000291 -1.54221 -1.12621 -3.50755 2650 
119 1 0.0655486 -0.0590567 -0.0205787 0.000291 -1.04784 -0.618713 -3.4132 2650 
172 1 0.00119794 -0.00278081 -0.0149097 0.001058 -0.00810001 -0.00415547 -0.0111362 2650 
292 1 0.002958 -0.00146803 -0.012416 0.001058 0 -0.011755 0 2650 
83 1 0.007342 -0.000656034 -0.011981 0.001058 0 -0.011755 0 2650 
188 1 0.003247 -0.00251403 -0.009042 0.001058 0 -0.011755 0 2650 
162 1 0.010619 -0.000962034 -0.009864 0.001058 0 -0.011755 0 2650 
109 1 0.0089 -0.00269803 -0.006999 0.000291 0 -0.011755 0 2650 
40 1 0.002884 -0.000750034 -0.006462 0.000105 0 -0.011755 0 2650 
185 1 0.007006 -0.00127503 -0.006884 0.00164 0 -0.011755 0 2650 
221 1 0.006551 -0.00273803 -0.004504 0.000291 0 -0.011755 0 2650 
62 1 0.005002 -0.00189103 -0.004312 0.000291 0 -0.011755 0 2650 
16 1 0.006364 -0.000622034 -0.005251 0.000105 0 -0.011755 0 2650 
39 1 0.011011 -0.000935034 -0.005294 0.000291 0 -0.011755 0 2650 
8 1 0.000989 -0.000897034 -0.00369 0.000105 0 -0.011755 0 2650 
20 1 0.013152 -0.00186603 -0.002682 0.001058 0 -0.011755 0 2650 
239 1 0.008697 -0.00207903 -0.000945 0.001058 0 -0.011755 0 2650 
248 1 0.008036 -0.00102803 -0.000368 0.000291 0 -0.011755 0 2650 
87 1 0.010454 -0.00189703 -0.001717 0.000291 0 -0.011755 0 2650 
288 1 0.006653 -0.00207203 0.001326 0.000291 0 -0.011755 0 2650 
255 1 0.005303 -0.000725034 0.000727 0.000291 0 -0.011755 0 2650 
34 1 0.0678478 -0.00961031 0.00364786 0.001058 0.326533 -0.104133 -5.2454 2650 
179 1 0.002629 -0.00237703 0.002938 0.001058 0 -0.011755 0 2650 
121 1 0.013566 -0.00145003 0.003132 0.00164 0 -0.011755 0 2650 
247 1 0.001401 -0.000876034 0.005706 0.000291 0 -0.011755 0 2650 
192 1 0.012227 -0.00312103 0.006398 0.000105 0 -0.011755 0 2650 
15 1 0.012888 -0.00267703 0.009988 0.000291 0 -0.011755 0 2650 
193 1 0.00603076 -0.00141725 0.00858053 0.00164 -0.00920003 -0.0416499 -0.0118576 2650 
243 1 0.01084 -0.000308034 0.008454 0.001058 0 -0.011755 0 2650 
281 1 0.006175 -0.00318003 0.011215 0.000291 0 -0.011755 0 2650 
181 1 0.012465 -0.00193703 0.010211 0.000291 0 -0.011755 0 2650 
147 1 0.0022679 -0.000852518 0.0140766 0.001058 0.136028 0.0197028 -0.0352369 2650 
146 1 0.0647788 -0.0398874 0.0205365 0.001058 1.24924 -0.521848 -3.90346 2650 
236 1 0.0577238 -0.0206983 0.03584 0.001058 1.81091 -0.794275 -3.03401 2650 
152 1 0.0574673 -0.0243499 0.0379842 0.000105 1.92032 -0.00698274 -3.10253 2650 
230 1 0.0220327 -0.0157293 0.0643017 0.001058 3.73909 -0.598098 -1.24696 2650 
155 1 0.005921 0.000211966 -0.01427 0.001058 0 -0.011755 0 2650 
46 1 0.007499 0.00341597 -0.014091 0.000291 0 -0.011755 0 2650 
303 1 0.001598 0.00397897 -0.015917 0.000291 0 -0.011755 0 2650 
160 1 0.004468 0.00510197 -0.014641 0.000105 0 -0.011755 0 2650 
130 1 1.4e-05 0.00606997 -0.015674 0.001058 0 -0.011755 0 2650 
269 1 0.002277 0.00624297 -0.015181 0.000291 0 -0.011755 0 2650 
37 1 0.006156 0.012005 -0.015157 0.000291 0 -0.011755 0 2650 
54 1 0.00810242 0.0130801 -0.0144155 0.000291 -0.10531 0.0409555 0.046421 2650 
237 1 0.005321 0.00267897 -0.012467 0.001058 0 -0.011755 0 2650 
263 1 0.006877 0.00549897 -0.012319 0.000291 0 -0.011755 0 2650 
289 1 0.001465 0.00666597 -0.012477 0.000291 0 -0.011755 0 2650 
142 1 0.002378 0.00708097 -0.013184 0.000291 0 -0.011755 0 2650 
252 1 0.00245 0.010376 -0.01336 0.001058 0 -0.011755 0 2650 
78 1 0.001258 0.011991 -0.012517 0.000291 0 -0.011755 0 2650 
141 1 0.004693 0.000166966 -0.010381 0.000291 0 -0.011755 0 2650 
196 1 0.002599 0.00397197 -0.011929 0.001058 0 -0.011755 0 2650 
201 1 0.008831 0.00549497 -0.010349 0.00164 0 -0.011755 0 2650 
275 1 0.012705 0.00973797 -0.010476 0.000291 0 -0.011755 0 2650 
105 1 0.003632 0.010659 -0.010703 0.00164 0 -0.011755 0 2650 
139 1 0.000474891 0.0130679 -0.0113799 0.001058 0.0288724 0.0119708 -0.0425505 2650 
110 1 0.010451 0.012282 -0.010748 0.000291 0 -0.011755 0 2650 
213 1 0.001757 0.00100397 -0.008127 0.000291 0 -0.011755 0 2650 
259 1 0.006357 0.00193297 -0.00938 0.001058 0 -0.011755 0 2650 
30 1 0.005625 0.000681966 -0.00604 0.000291 0 -0.011755 0 2650 
67 1 0.00898 0.00336697 -0.006049 0.001058 0 -0.011755 0 2650 
102 1 0.003423 0.00540397 -0.006065 0.000291 0 -0.011755 0 2650 
117 1 0.004754 0.00566597 -0.007063 0.000291 0 -0.011755 0 2650 
134 1 0.011983 0.00541797 -0.006239 0.000291 0 -0.011755 0 2650 
60 1 0.007579 0.00830697 -0.006312 0.001058 0 -0.011755 0 2650 
45 1 0.010575 0.00822697 -0.007722 0.000291 0 -0.011755 0 2650 
271 1 0.001328 0.010131 -0.00636 0.001058 0 -0.011755 0 2650 
197 1 0.007512 0.000819966 -0.004043 0.000291 0 -0.011755 0 2650 
92 1 0.010471 0.000870966 -0.004542 0.001058 0 -0.011755 0 2650 
178 1 0.003641 0.00248597 -0.005569 0.001058 0 -0.011755 0 2650 
260 1 0.010685 0.00301397 -0.004932 0.000291 0 -0.011755 0 2650 
161 1 0.013129 0.00309697 -0.005759 0.00164 0 -0.011755 0 2650 
246 1 0.001376 0.00490497 -0.005453 0.001058 0 -0.011755 0 2650 
279 1 0.011818 0.00736097 -0.00556 0.001058 0 -0.011755 0 2650 
199 1 0.014464 0.00871797 -0.004562 0.000291 0 -0.011755 0 2650 
278 1 7.4e-05 0.010818 -0.004448 0.001058 0 -0.011755 0 2650 
19 1 0.013799 0.00988997 -0.005439 0.001058 0 -0.011755 0 2650 
284 1 0.014191 0.011598 -0.005949 0.000291 0 -0.011755 0 2650 
262 1 0.0121306 0.0617918 -0.00566771 0.000291 0.355793 0.466335 -0.0703264 2650 
171 1 0.000459 0.00182097 -0.002783 0.001058 0 -0.011755 0 2650 
173 1 0.002644 0.000326966 -0.002982 0.000291 0 -0.011755 0 2650 
88 1 0.002864 0.00353097 -0.002457 0.000105 0 -0.011755 0 2650 
205 1 0.005264 0.00389997 -0.002386 0.000291 0 -0.011755 0 2650 
177 1 0.007332 0.00339697 -0.003583 0.00164 0 -0.011755 0 2650 
253 1 0.014729 0.00707597 -0.002617 0.000291 0 -0.011755 0 2650 
227 1 0.00944 0.00890497 -0.002109 0.000291 0 -0.011755 0 2650 
6 1 0.004141 0.00125297 -0.001643 0.000291 0 -0.011755 0 2650 
72 1 0.013289 6.9664e-06 -0.000624 0.000105 0 -0.011755 0 2650 
113 1 0.010337 0.00653097 -0.001708 0.00164 0 -0.011755 0 2650 
190 1 0.005899 0.011607 -0.000534 0.000291 0 -0.011755 0 2650 
27 1 0.00664303 0.0669537 -0.000752784 0.001058 0.284186 0.519902 -0.0815966 2650 
56 1 0.00459 3.19664e-05 0.000864 0.000105 0 -0.011755 0 2650 
183 1 0.01481 0.00189397 0.000242 0.000291 0 -0.011755 0 2650 
96 1 0.009869 0.00366097 0.000788 0.000105 0 -0.011755 0 2650 
277 1 0.015014 0.00227197 0.001212 0.000291 0 -0.011755 0 2650 
81 1 0.007451 0.00502397 7.8e-05 0.00164 0 -0.011755 0 2650 
261 1 0.011218 0.00519997 0.000328 0.000291 0 -0.011755 0 2650 
48 1 0.009671 0.00949897 0.000233 0.000105 0 -0.011755 0 2650 
128 1 0.00361 0.011206 0.000511 0.000105 0 -0.011755 0 2650 
9 1 0.012984 0.011244 0.000468 0.00164 0 -0.011755 0 2650 
286 1 0.015584 0.011912 0.000132 0.001058 0 -0.011755 0 2650 
264 1 0.003305 0.00123697 0.003449 0.001058 0 -0.011755 0 2650 
225 1 0.001446 0.00209097 0.002203 0.001058 0 -0.011755 0 2650 
143 1 0.013105 0.00236097 0.003332 0.000291 0 -0.011755 0 2650 
210 1 0.010971 0.00435397 0.002357 0.001058 0 -0.011755 0 2650 
294 1 0.006997 0.00921297 0.003581 0.001058 0 -0.011755 0 2650 
101 1 0.004812 0.00992897 0.002517 0.000291 0 -0.011755 0 2650 
267 1 0.007574 0.00145797 0.005778 0.000291 0 -0.011755 0 2650 
50 1 0.006699 0.00344097 0.005883 0.001058 0 -0.011755 0 2650 
305 1 0.007934 0.00219997 0.005234 0.000105 0 -0.011755 0 2650 
150 1 0.010064 0.00354197 0.004311 0.000291 0 -0.011755 0 2650 
212 1 0.001087 0.00972297 0.005915 0.000291 0 -0.011755 0 2650 
24 1 0.005464 0.00929497 0.005551 0.000105 0 -0.011755 0 2650 
244 1 0.014869 0.00978097 0.00421 0.001058 0 -0.011755 0 2650 
51 1 0.009662 0.010368 0.004577 0.001058 0 -0.011755 0 2650 
79 1 0.014214 0.012208 0.005058 0.000291 0 -0.011755 0 2650 
12 1 9.60328e-05 0.0713564 0.00469856 0.001058 0.0647213 0.549795 -0.169615 2650 
118 1 0.001179 0.00162297 0.007467 0.000291 0 -0.011755 0 2650 
174 1 0.002361 0.00319397 0.006466 0.000291 0 -0.011755 0 2650 
207 1 0.000324 0.00487997 0.006532 0.000291 0 -0.011755 0 2650 
232 1 0.003256 0.00419197 0.007333 0.001058 0 -0.011755 0 2650 
208 1 0.009461 0.00555597 0.007837 0.001058 0 -0.011755 0 2650 
231 1 0.006459 0.00891997 0.007445 0.001058 0 -0.011755 0 2650 
222 1 0.009219 0.011567 0.006833 0.001058 0 -0.011755 0 2650 
112 1 0.013668 0.012531 0.007002 0.000105 0 -0.011755 0 2650 
194 1 0.007709 0.00969897 0.009989 0.001058 0 -0.011755 0 2650 
145 1 0.00375974 0.0106371 0.00862668 0.00164 0.000993456 -0.0124671 3.24591e-05 2650 
301 1 0.00209463 0.012844 0.00980044 0.001058 0.022503 0.0131388 0.0516978 2650 
1 1 0.002172 0.00219597 0.010007 0.00164 0 -0.011755 0 2650 
228 1 0.010294 0.00270297 0.01009 0.000291 0 -0.011755 0 2650 
103 1 0.005979 0.00589797 0.01127 0.000291 0 -0.011755 0 2650 
258 1 0.009255 0.00698897 0.010506 0.001058 0 -0.011755 0 2650 
66 1 0.001767 0.00957997 0.01167 0.001058 0 -0.011755 0 2650 
298 1 0.003487 0.01063 0.011695 0.000105 0 -0.011755 0 2650 
126 1 0.00179354 0.0122019 0.011199 0.000291 -0.000669393 -0.021809 0.0558205 2650 
184 1 0.009563 0.000499966 0.012192 0.000105 0 -0.011755 0 2650 
3 1 0.001912 0.00228297 0.013741 0.001058 0 -0.011755 0 2650 
287 1 0.006558 0.00528397 0.013233 0.001058 0 -0.011755 0 2650 
95 1 0.006942 0.00734497 0.013027 0.000291 0 -0.011755 0 2650 
82 1 0.000755 0.00486697 0.014898 0.001058 0 -0.011755 0 2650 
216 1 0.0246431 0.0797508 -0.00836555 0.001058 3.02147 0.490109 -0.815751 2650 
