ITEM: TIMESTEP
9013896
ITEM: NUMBER OF ATOMS
295
ITEM: BOX BOUNDS ff ff ff
-0.15 0.15
-0.15 0.15
-0.15 0.15
ITEM: ATOMS id type x y z radius vx vy vz density 
184 1 -0.00333621 -0.00959932 -0.0688117 0.000105 -4.72003 -0.518501 0.252678 2650 
188 1 -0.0155653 -0.0616834 -0.0661389 0.001058 -9.91878 0.0303718 2.3353 2650 
172 1 -0.0153496 -0.0481978 -0.0662098 0.001058 -10.7913 -0.179589 2.53048 2650 
20 1 -0.00803273 -0.0457214 -0.0674586 0.001058 -10.7755 0.167751 1.28009 2650 
8 1 -0.0134674 -0.0328582 -0.0675619 0.000105 -10.9648 0.147433 2.18743 2650 
36 1 -0.00561622 -0.0319173 -0.067713 0.001058 -9.94891 -0.0539953 0.811877 2650 
259 1 -0.0123664 -0.025575 -0.0668089 0.001058 -8.19723 -0.00677564 1.49119 2650 
218 1 -0.0179085 -0.0337149 -0.0655415 0.001058 -9.696 -0.00886454 2.64919 2650 
281 1 -0.0388694 -0.0307185 -0.0566683 0.000291 -7.12115 0.360918 4.94056 2650 
280 1 -0.0363895 -0.0171143 -0.0574 0.001058 -7.2482 0.0389016 4.54369 2650 
119 1 -0.0438073 -0.0501605 -0.0529343 0.000291 -7.25543 0.171361 6.01723 2650 
183 1 -0.0452075 -0.0227104 -0.0517391 0.000291 -6.54355 -0.389485 5.71421 2650 
148 1 -0.0450488 -0.0461898 -0.0508652 0.001058 -7.61368 -0.00554375 6.6844 2650 
221 1 -0.0489562 -0.0193252 -0.0482052 0.000291 -6.2556 0.25016 6.25795 2650 
255 1 -0.0509811 -0.018872 -0.0459564 0.000291 -6.21306 -0.215975 6.87724 2650 
236 1 -0.0526536 -0.0492575 -0.0429334 0.001058 -6.42784 0.00365856 7.87931 2650 
138 1 -0.0552823 -0.0468358 -0.0394912 0.001058 -5.70124 0.0293069 7.98891 2650 
76 1 -0.0561875 -0.0148629 -0.0382269 0.001058 -2.1992 -0.395164 3.10463 2650 
133 1 -0.057913 -0.0213996 -0.0369833 0.000291 -4.37173 -0.013424 6.83061 2650 
26 1 -0.060599 -0.034216 -0.0307233 0.001058 -4.16095 -0.0469437 8.17762 2650 
214 1 -0.0622371 -0.0592371 -0.0290977 0.000291 -3.07636 0.431301 6.57248 2650 
34 1 -0.0623189 -0.031377 -0.0270763 0.001058 -3.69218 -0.0524189 8.48127 2650 
146 1 -0.0634593 -0.0499294 -0.0243462 0.001058 -3.5638 0.0747044 9.29851 2650 
179 1 -0.0647492 -0.0505131 -0.020664 0.001058 -3.08229 0.0473016 9.50874 2650 
143 1 -0.0652311 -0.00454961 -0.0215763 0.000291 -2.68297 1.33189 8.16596 2650 
303 1 -0.00247763 -0.0026486 -0.0161446 0.000291 -0.0398004 -0.00495339 0.00662732 2650 
85 1 -0.003548 -0.00172904 -0.015444 0.000291 0 -0.011755 0 2650 
130 1 -0.00063077 -4.07546e-05 -0.0156027 0.001058 -0.00730232 0.00347522 0.00594057 2650 
84 1 -0.0668615 -0.025974 -0.0121023 0.001058 -1.68621 -0.199625 9.42702 2650 
135 1 -0.00680875 -0.000516909 -0.00846893 0.000291 -0.0060505 -0.00140209 -0.0140303 2650 
274 1 -0.016349 -0.000830036 -0.002509 0.000291 0 -0.011755 0 2650 
205 1 -0.000153196 -0.00120013 -0.00373527 0.000291 -0.0212393 0.00831856 -0.0510728 2650 
296 1 -0.0134651 -0.00367764 0.00119329 0.000291 -1.90285 -0.0689315 0.168631 2650 
191 1 -0.0108 -0.00255604 0.001549 0.000291 0 -0.011755 0 2650 
98 1 -0.00210015 -0.00275699 0.00165711 0.001058 -0.000872989 -0.0147225 -0.00989819 2650 
168 1 -0.007536 -0.00154504 0.001389 0.000105 0 -0.011755 0 2650 
18 1 -0.005138 -0.00235104 0.00212 0.001058 0 -0.011755 0 2650 
97 1 -0.0136963 -0.00012056 0.00260432 0.00164 0.00016333 0.00117645 -0.00616736 2650 
53 1 -0.000389 -0.00126804 0.004762 0.000291 0 -0.011755 0 2650 
58 1 -0.00960822 -1.21228e-05 0.00813499 0.001058 0.00939797 -0.00814862 -0.00719036 2650 
226 1 -0.009224 -0.00299904 0.012787 0.000291 0 -0.011755 0 2650 
150 1 -0.0656777 -0.0447015 0.0202576 0.000291 1.82964 0.214952 5.94561 2650 
49 1 -0.0634117 -0.040894 0.0227917 0.00164 3.11913 0.00974648 8.68226 2650 
213 1 -0.0647619 -0.0116783 0.0230112 0.000291 2.01407 0.113176 5.56495 2650 
90 1 -0.0630776 -0.0567451 0.0252554 0.001058 3.75328 0.208128 9.39374 2650 
283 1 -0.0633033 -0.034533 0.0266968 0.000291 2.49035 0.2441 5.93337 2650 
15 1 -0.0628025 -0.0180229 0.0279234 0.000291 2.50606 -0.0549774 5.60213 2650 
46 1 -0.0618748 -0.0130355 -0.0299211 0.000291 -1.52192 -0.273386 3.14738 2650 
42 1 -0.0389839 -0.0459327 0.0556674 0.001058 7.47368 -0.00585011 5.24208 2650 
181 1 -0.0363228 -0.0334759 0.0583202 0.000291 8.05762 -0.769224 5.01666 2650 
69 1 -0.0356463 -0.0279506 0.0587358 0.000291 8.15194 0.59809 4.9486 2650 
200 1 -0.0310003 -0.0121044 0.0615481 0.000105 7.49872 -0.761099 3.77539 2650 
43 1 -0.0260552 -0.0325635 0.06275 0.001058 9.20378 0.00225793 3.82242 2650 
219 1 -0.0259358 -0.000291164 0.0636254 0.000291 7.61985 -0.00279801 3.09412 2650 
137 1 -0.0151984 -0.0611304 0.0656316 0.00164 10.1855 0.0337345 2.35701 2650 
169 1 -0.0175561 -0.0587791 0.0650429 0.00164 9.93959 -0.101196 2.66541 2650 
192 1 -0.021888 -0.000105499 0.0653243 0.000105 7.39984 -0.00470834 2.46371 2650 
272 1 -0.00819721 -0.0242913 0.0674507 0.001058 8.52825 -0.0520328 1.07432 2650 
254 1 -0.0133031 -0.0216084 0.0674085 0.000291 6.44199 0.202547 1.22329 2650 
118 1 -0.0148326 -0.015658 0.0670919 0.000291 6.35686 0.269483 1.4326 2650 
165 1 -0.00874257 -0.0302168 0.0681496 0.000291 8.28783 -0.273669 1.04935 2650 
282 1 -0.00249095 -0.0203065 0.0685838 0.000291 6.19448 0.21653 0.0984323 2650 
295 1 -0.00889417 -0.0183523 0.0681167 0.000291 8.49204 0.363781 1.13409 2650 
70 1 -0.00213546 0.00182533 -0.0150586 0.000291 0.0174831 0.0757361 0.0937803 2650 
237 1 -0.00374404 0.00460701 -0.0152072 0.001058 -0.0605016 0.23489 0.0571334 2650 
33 1 -0.00256356 0.0119743 -0.0149166 0.00164 0.00603998 0.0215627 0.00352792 2650 
147 1 -0.00452792 0.0208528 -0.0151983 0.001058 -0.0603085 0.0389225 0.0107591 2650 
157 1 -0.00694325 0.0291729 -0.0143854 0.000291 0.0079085 0.0606548 0.000918149 2650 
127 1 -0.00210709 0.0374753 -0.0136666 0.000291 0.0331404 0.0647284 -0.0037516 2650 
47 1 -0.0128036 0.000945911 -0.0102482 0.000291 -0.00125586 -0.0105028 0.00427205 2650 
94 1 -0.0115663 0.0052008 -0.0118653 0.000291 8.5498e-05 -0.0117385 8.5498e-05 2650 
234 1 -0.0121182 0.00747138 -0.010913 0.000291 -0.00131366 0.00431637 0.0126772 2650 
67 1 -0.000592499 0.00859064 -0.0117428 0.001058 -0.020884 0.0142907 -0.00966941 2650 
175 1 -0.013247 0.000760964 -0.008751 0.000291 0 -0.011755 0 2650 
74 1 -0.0117964 0.00441145 -0.00683517 0.001058 0.00156258 -0.00569596 -0.00749774 2650 
38 1 -0.00562948 0.00968832 -0.00761733 0.000291 -0.0300402 0.0227875 -0.0736261 2650 
75 1 -0.00842322 0.0339611 -0.00798538 0.001058 0.0206685 0.0556886 -0.0248334 2650 
240 1 -0.010392 0.00136296 -0.005262 0.000291 0 -0.011755 0 2650 
276 1 -0.013674 0.00230496 -0.004231 0.000291 0 -0.011755 0 2650 
159 1 -0.012707 0.00529896 -0.00588 0.000291 0 -0.011755 0 2650 
115 1 -0.0150163 0.0104681 -0.00431565 0.001058 -0.00642897 0.00526235 0.0171425 2650 
13 1 -0.014201 0.00140496 -0.003882 0.000291 0 -0.011755 0 2650 
104 1 -0.014089 0.00208696 -0.003012 0.000105 0 -0.011755 0 2650 
114 1 -0.0117914 0.00480617 -0.00308481 0.001058 0.00263798 -7.05089e-05 -0.000306371 2650 
10 1 -0.0154022 0.00682187 -0.00367539 0.001058 0.00366734 -0.00257496 -0.00408264 2650 
256 1 -0.0162567 0.0104605 -0.00376697 0.000291 -0.00948508 -0.00137399 0.0132207 2650 
187 1 -0.0152337 0.0144314 -0.0039699 0.001058 -0.00403483 0.0166064 0.0136562 2650 
7 1 -0.00617777 0.0204223 -0.00312869 0.000291 0.00378858 0.0136367 -0.000251809 2650 
61 1 -0.016439 0.00501696 -0.001038 0.000291 0 -0.011755 0 2650 
77 1 -0.0020046 0.0106186 -0.00130383 0.000291 0.0279429 0.00178097 -0.016803 2650 
144 1 -0.0105802 0.012375 -0.00134668 0.000105 0.00807853 0.0136784 0.0281765 2650 
220 1 -0.013086 0.0183932 -0.00148403 0.000291 0.00605419 0.00724476 0.0145131 2650 
65 1 -0.0112048 0.0178375 -0.00141405 0.00164 -0.00454877 0.0138432 0.000335664 2650 
120 1 -0.016055 0.000656964 0.000189 0.000105 0 -0.011755 0 2650 
80 1 -0.014935 0.00335496 0.00039 0.000105 0 -0.011755 0 2650 
268 1 -0.011054 0.00387896 0.000789 0.000291 0 -0.011755 0 2650 
176 1 -0.00155648 0.00231262 0.00198924 0.000105 0.0253113 -0.0084311 -0.00587015 2650 
211 1 -0.0130706 0.0043013 0.000292806 0.001058 0.000982608 0.00314487 0.00709992 2650 
209 1 -0.0140915 0.00680253 0.000566574 0.001058 -0.00415633 0.00564878 0.00501433 2650 
129 1 -0.00572754 0.00746442 0.000280611 0.00164 0.00886763 0.000928435 -0.00531986 2650 
41 1 -0.00490522 0.0138916 0.000350636 0.00164 0.0102042 0.00860529 0.0210319 2650 
52 1 -0.00484475 0.020938 0.00146784 0.001058 0.0258261 0.0380708 0.00407144 2650 
250 1 -0.010854 0.00189348 0.00249835 0.001058 0.00273404 -0.00245883 0.0388004 2650 
126 1 -0.00304116 0.000558105 0.00312687 0.000291 -0.00909177 -0.0182309 -0.0255133 2650 
99 1 -0.00276332 0.00194616 0.00310012 0.001058 0.0243572 -0.0114204 0.00238608 2650 
164 1 -0.003894 0.00102996 0.005467 0.001058 0 -0.011755 0 2650 
291 1 -0.008194 0.00540396 0.004767 0.000291 0 -0.011755 0 2650 
266 1 -0.0148247 0.00786 0.0051528 0.001058 -0.00293207 0.00740435 -0.00807451 2650 
106 1 -0.00928216 0.0141533 0.00476413 0.001058 0.0119634 0.0223893 -0.0027555 2650 
242 1 -0.008242 0.0152903 0.00575625 0.000291 0.0116924 0.0265357 0.00697501 2650 
124 1 -0.0146846 0.0194803 0.00583288 0.001058 0.00450723 0.0342902 0.00378394 2650 
28 1 -0.0134058 0.0214976 0.00585755 0.001058 -0.0100166 0.0530053 0.00917185 2650 
273 1 -0.00215585 0.0235497 0.00564438 0.001058 -0.00402366 0.037385 0.0311551 2650 
245 1 -0.00112335 0.0537869 0.0051245 0.001058 0.013355 0.0538623 -0.0223836 2650 
186 1 -0.00618726 0.00339572 0.00656008 0.001058 -4.15282e-05 -0.0115536 6.1062e-05 2650 
71 1 -0.0013168 0.00633165 0.00610494 0.000291 0.000861808 -0.00718564 -0.0173142 2650 
249 1 -0.00191522 0.0205025 0.00733184 0.000291 0.00987628 0.0185258 -0.0129358 2650 
170 1 -0.00912457 0.00291657 0.00996185 0.001058 0.00813908 -0.00598064 0.0087017 2650 
304 1 -0.012709 0.00468496 0.009818 0.000291 0 -0.011755 0 2650 
4 1 -0.0122348 0.00794153 0.00995852 0.001058 0.00473149 0.00103266 0.00625096 2650 
68 1 -0.00311862 0.00906238 0.00986125 0.001058 0.00272783 -0.00342387 -0.00169301 2650 
17 1 -0.0101223 0.0201281 0.00887845 0.00164 0.00413739 0.0508387 0.0645068 2650 
285 1 -0.0105763 0.000135956 0.0117074 0.001058 -0.00447436 -0.0137973 -0.00560016 2650 
300 1 -0.0118351 0.00170757 0.0105061 0.001058 -0.00371667 -0.00768461 -0.00400106 2650 
299 1 -0.0105445 0.00412781 0.0117647 0.001058 0.00581403 -0.00322581 0.00124072 2650 
55 1 -0.01171 0.00515296 0.01034 0.000291 0 -0.011755 0 2650 
217 1 -0.00980178 0.0259007 0.0100291 0.001058 0.000747792 0.0265619 -0.00553463 2650 
224 1 -0.00778504 0.0123771 0.0138399 0.001058 -0.00376938 0.00554818 0.00221201 2650 
238 1 -0.00200025 0.0238849 0.0132027 0.001058 0.0207771 0.0325148 -0.00733364 2650 
29 1 0.00211221 -0.00726897 -0.0686538 0.000291 -8.11034 -0.19064 -0.195417 2650 
88 1 0.00293477 -0.00486668 -0.0688158 0.000105 -3.77106 0.16712 -0.114414 2650 
248 1 0.0107023 -0.0561191 -0.0678706 0.000291 -8.5673 0.43965 -1.34746 2650 
193 1 0.00732311 -0.048391 -0.0669766 0.00164 -10.2484 -0.0684754 -1.11918 2650 
23 1 0.0148978 -0.0453603 -0.0670918 0.000291 -10.0145 0.00364843 -2.22668 2650 
56 1 0.0161122 -0.0327226 -0.0669813 0.000105 -8.21943 0.922253 -1.99371 2650 
132 1 0.0141096 -0.0180777 -0.0664715 0.001058 -8.87733 0.132291 -1.88225 2650 
174 1 0.0175999 -0.0158511 -0.0664344 0.000291 -3.67386 -0.262383 -1.06461 2650 
182 1 0.0214462 -0.0144674 -0.0652967 0.000291 -8.42948 -0.00288266 -2.77233 2650 
235 1 0.0204843 -0.000790694 -0.0655826 0.000291 -6.72537 -0.237992 -2.11267 2650 
302 1 0.0260361 -0.0177594 -0.0636086 0.000291 -7.18657 -0.367052 -2.93139 2650 
270 1 0.0259683 -0.00597803 -0.0636127 0.000291 -2.92882 -0.204886 -1.24393 2650 
229 1 0.028458 -0.0498099 -0.0617223 0.001058 -9.18298 -0.0487024 -4.23007 2650 
22 1 0.0330884 -0.0329138 -0.0602133 0.000291 -8.18996 0.345649 -4.50291 2650 
162 1 0.0301997 -0.023047 -0.0608748 0.001058 -6.71511 0.0960055 -3.30541 2650 
158 1 0.0320908 -0.0233708 -0.0607602 0.000291 -6.31424 0.386774 -3.35633 2650 
50 1 0.0327144 -0.0292138 -0.0595479 0.001058 -5.83742 -0.616981 -3.18143 2650 
288 1 0.0390481 -0.0461474 -0.0565504 0.000291 -8.28796 -0.120781 -5.72077 2650 
151 1 0.0375788 -0.0397983 -0.0575302 0.000291 -4.97405 -1.63989 -3.23421 2650 
185 1 0.0400309 -0.0376385 -0.054186 0.00164 -8.10259 -0.0712924 -5.97774 2650 
243 1 0.0544425 -0.0453187 -0.0406546 0.001058 -6.13144 0.0937566 -8.20031 2650 
277 1 0.0549191 -0.0193848 -0.0412502 0.000291 -5.03857 0.739505 -6.76731 2650 
233 1 0.0552225 -0.0122097 -0.0408794 0.000291 -3.58107 1.92749 -4.55139 2650 
257 1 0.0556047 -0.0461628 -0.0390395 0.001058 -5.82172 0.116573 -8.30067 2650 
149 1 0.0560432 -0.0307975 -0.0397615 0.000291 -5.0114 -0.0901516 -6.98655 2650 
96 1 0.0562632 -0.00657468 -0.0397591 0.000105 -2.41982 -0.213516 -3.5758 2650 
44 1 0.0589714 -0.0178211 -0.0337929 0.001058 -4.24952 0.0362002 -7.45198 2650 
40 1 0.0605644 -0.00291235 -0.0328275 0.000105 -3.2866 -0.33213 -6.05167 2650 
189 1 0.0608611 -0.0215626 -0.0319078 0.000291 -3.93615 -0.0608618 -7.51988 2650 
32 1 0.0617575 -0.0203852 -0.0305712 0.000105 -3.88922 -0.414656 -7.77973 2650 
131 1 0.0649615 -0.0307335 -0.0199547 0.001058 -2.81513 0.125362 -9.31766 2650 
305 1 0.0664889 -0.0247266 -0.018051 0.000105 -1.09109 -0.549486 -4.19888 2650 
173 1 0.0664578 -0.0241999 -0.0174492 0.000291 -2.12697 0.513826 -8.10369 2650 
160 1 0.004468 -0.00218604 -0.014641 0.000105 0 -0.011755 0 2650 
269 1 0.002277 -0.00104504 -0.015181 0.000291 0 -0.011755 0 2650 
141 1 0.0675929 -0.0101175 -0.012379 0.000291 -1.18364 -0.358334 -6.38718 2650 
196 1 0.0026589 -0.00332172 -0.0122039 0.001058 0.088151 -0.0200874 -0.404599 2650 
289 1 0.001465 -0.000622036 -0.012477 0.000291 0 -0.011755 0 2650 
142 1 0.002378 -0.000207036 -0.013184 0.000291 0 -0.011755 0 2650 
263 1 0.006877 -0.00178904 -0.012319 0.000291 0 -0.011755 0 2650 
267 1 0.0678951 -0.0150147 -0.0106129 0.000291 -1.16236 0.100645 -7.30415 2650 
201 1 0.00938154 -0.00165791 -0.0119026 0.00164 0.00137105 -0.0114185 -0.003869 2650 
89 1 0.0666832 -0.0534951 -0.00960547 0.00164 -1.41832 0.0968617 -9.74921 2650 
39 1 0.0681709 -0.0134486 -0.00863219 0.000291 -1.20388 0.588567 -9.45581 2650 
203 1 0.000264163 -0.000363617 -0.00625422 0.001058 0.0222717 0.0321229 0.00594202 2650 
102 1 0.003423 -0.00188404 -0.006065 0.000291 0 -0.011755 0 2650 
117 1 0.004754 -0.00162204 -0.007063 0.000291 0 -0.011755 0 2650 
246 1 0.001376 -0.00238304 -0.005453 0.001058 0 -0.011755 0 2650 
59 1 0.0002422 -0.0029346 -0.00238684 0.001058 -0.0198666 -0.0100501 -0.0494142 2650 
253 1 0.014729 -0.000212036 -0.002617 0.000291 0 -0.011755 0 2650 
177 1 0.00274513 -0.00121455 -0.00160382 0.00164 -0.00966503 -0.00602483 0.00423439 2650 
113 1 0.0102837 -0.000308225 -0.000803288 0.00164 -0.000152922 -0.0104668 0.00259679 2650 
81 1 0.007451 -0.00226404 7.8e-05 0.00164 0 -0.011755 0 2650 
261 1 0.011218 -0.00208804 0.000328 0.000291 0 -0.011755 0 2650 
208 1 0.0154795 -0.00129928 0.00177963 0.001058 0.00528618 -0.0283184 -0.0333125 2650 
290 1 0.06863 -0.0533815 0.00323621 0.000291 0.476862 0.365513 -10.0815 2650 
21 1 0.0686271 -0.0444411 0.00331506 0.000291 0.470078 0.37602 -9.61385 2650 
210 1 0.010971 -0.00293404 0.002357 0.001058 0 -0.011755 0 2650 
35 1 0.00160161 -0.000199168 0.00377024 0.001058 0.00654177 -0.0105187 -0.00962265 2650 
223 1 0.0117285 -0.00231406 0.00518614 0.001058 0.0244252 -0.00835069 0.00805578 2650 
239 1 0.0675627 -0.0489207 0.00724191 0.001058 1.09271 -0.0704713 -9.9251 2650 
207 1 0.000324 -0.00240804 0.006532 0.000291 0 -0.011755 0 2650 
72 1 0.0682714 -0.0313141 0.0092453 0.000105 1.36991 0.155812 -10.0837 2650 
178 1 0.0672064 -0.0584842 0.00999932 0.001058 1.43075 0.34994 -9.60931 2650 
25 1 0.0664071 -0.0562918 0.0113735 0.00164 1.6502 0.415845 -9.62582 2650 
230 1 0.0671534 -0.0489372 0.0104219 0.001058 1.48493 -0.0456862 -9.78372 2650 
103 1 0.005979 -0.00139004 0.01127 0.000291 0 -0.011755 0 2650 
215 1 0.0666755 -0.0455744 0.0131608 0.001058 1.923 -0.0180844 -9.73188 2650 
3 1 0.0090722 -0.00125831 0.0126964 0.001058 -0.00211489 -0.0052299 0.000123346 2650 
82 1 0.000755 -0.00242104 0.014898 0.001058 0 -0.011755 0 2650 
171 1 0.0654008 -0.043849 0.0185022 0.001058 2.73157 0.577055 -9.64099 2650 
121 1 0.0648462 -0.0368259 0.0182814 0.00164 2.73104 -0.0910825 -9.69145 2650 
16 1 0.0658206 -0.00686179 0.0203591 0.000105 2.30903 -0.166337 -7.47699 2650 
93 1 0.0642437 -0.0459043 0.0244361 0.000291 3.44109 -0.303489 -9.06842 2650 
2 1 0.0622661 -0.029108 0.027191 0.001058 3.87089 -0.0881404 -8.8593 2650 
73 1 0.0603529 -0.0519998 0.0299777 0.00164 4.55775 0.156934 -9.17323 2650 
83 1 0.0597927 -0.0332009 0.0322672 0.001058 4.69394 -0.0555238 -8.69393 2650 
206 1 0.0572922 -0.02411 0.0379327 0.000291 4.42841 -0.28401 -6.70851 2650 
204 1 0.056398 -0.0210653 0.0379109 0.001058 4.54642 -0.00307097 -6.77099 2650 
140 1 0.0541126 -0.0332915 0.0410884 0.001058 6.01132 0.0203859 -7.91404 2650 
264 1 0.0534227 -0.0471121 0.041949 0.001058 6.24476 -0.173879 -7.96542 2650 
108 1 0.0526229 -0.0239792 0.0429784 0.001058 4.00092 0.0121718 -4.8648 2650 
63 1 0.052406 -0.023659 0.0443205 0.000291 3.58626 0.698583 -4.66958 2650 
251 1 0.0513564 -0.0176347 0.0444864 0.001058 5.32459 -0.0288505 -6.11213 2650 
197 1 0.0502351 -0.00263678 0.0468745 0.000291 5.23191 -0.0448787 -5.60093 2650 
125 1 0.046086 -0.0165217 0.0509026 0.000291 6.8986 0.112105 -6.23681 2650 
228 1 0.0451003 -0.011349 0.0517319 0.000291 4.14796 0.919873 -3.61872 2650 
62 1 0.0406574 -0.0307835 0.0553948 0.000291 7.00192 0.846255 -5.18267 2650 
247 1 0.038895 -0.0516302 0.056651 0.000291 7.90887 0.457089 -5.4291 2650 
6 1 0.0400822 -0.0203992 0.0558133 0.000291 7.45831 -0.641787 -5.32428 2650 
30 1 0.03862 -0.016933 0.0568353 0.000291 4.61932 -0.531545 -3.1071 2650 
152 1 0.0370259 -0.0210858 0.0581044 0.000105 4.504 0.402392 -2.83378 2650 
64 1 0.0204163 -0.017428 0.0658214 0.000105 4.25225 -0.127319 -1.31199 2650 
167 1 0.0213181 -0.0112632 0.0653364 0.000291 7.42298 0.863408 -2.43075 2650 
109 1 0.0139384 -0.0573787 0.0672795 0.000291 10.8661 -0.226301 -2.25112 2650 
225 1 0.00867761 -0.0394767 0.0673929 0.001058 9.26936 -0.0997719 -1.23926 2650 
107 1 0.0117395 -0.030431 0.0669277 0.001058 9.74568 0.0761859 -1.70816 2650 
122 1 0.0123028 -0.0165078 0.0668364 0.001058 7.72224 0.0816958 -1.44256 2650 
86 1 0.0191657 -0.0158573 0.0660043 0.000291 6.79215 -0.125511 -2.00369 2650 
241 1 0.000373859 -0.0199025 0.0687085 0.000291 6.8867 -0.452847 -0.0376528 2650 
14 1 0.00874542 -0.0110727 0.0681552 0.000291 3.40646 -0.257375 -0.534086 2650 
166 1 0.00269221 -0.00810098 0.0686533 0.000291 7.79109 0.00389436 -0.300373 2650 
37 1 0.006156 0.00471696 -0.015157 0.000291 0 -0.011755 0 2650 
252 1 0.00245 0.00308796 -0.01336 0.001058 0 -0.011755 0 2650 
78 1 0.001258 0.00470296 -0.012517 0.000291 0 -0.011755 0 2650 
180 1 0.00768184 0.0299598 -0.0129621 0.001058 0.0523606 0.0717115 0.0275313 2650 
154 1 0.00153351 0.0619578 -0.0137358 0.001058 -0.025218 0.0914679 0.0181079 2650 
275 1 0.012705 0.00244996 -0.010476 0.000291 0 -0.011755 0 2650 
155 1 0.00120205 0.0565873 -0.0114078 0.001058 0.04057 0.188533 0.00265111 2650 
134 1 0.00695244 0.00414037 -0.00895947 0.000291 -0.0128132 0.00355392 -0.00692922 2650 
60 1 0.007579 0.00101896 -0.006312 0.001058 0 -0.011755 0 2650 
45 1 0.010575 0.000938964 -0.007722 0.000291 0 -0.011755 0 2650 
260 1 0.0098454 0.00315346 -0.00684508 0.000291 -0.00392275 0.00411325 -0.00447499 2650 
19 1 0.0143736 0.00699887 -0.00615367 0.001058 0.0022695 0.00565847 -0.00282567 2650 
284 1 0.0150392 0.00848984 -0.00698269 0.000291 -0.00371053 0.00586111 -0.00129449 2650 
278 1 7.4e-05 0.00352996 -0.004448 0.001058 0 -0.011755 0 2650 
161 1 0.0134988 0.00394501 -0.00425986 0.00164 0.000907452 0.00399164 0.00334652 2650 
92 1 0.0102627 0.00556638 -0.00436265 0.001058 0.00298746 0.00292354 0.00546929 2650 
279 1 0.00866983 0.00667925 -0.00566128 0.001058 -0.00585416 -0.000170086 0.00510934 2650 
105 1 0.00817068 0.00957089 -0.00561967 0.00164 0.00091231 0.0106728 0.0284417 2650 
198 1 0.0155425 0.0109196 -0.0058266 0.000291 0.0224302 0.0143083 0.0848683 2650 
227 1 0.00944 0.00161696 -0.002109 0.000291 0 -0.011755 0 2650 
271 1 0.00766014 0.00341132 -0.00201851 0.001058 0.0150184 -0.010407 0.010297 2650 
199 1 0.0161883 0.00442352 -0.0035778 0.000291 -0.00149126 0.000541054 0.0056379 2650 
87 1 0.00128333 0.00674065 -0.00365413 0.000291 0.0457248 -0.00314239 -0.013726 2650 
123 1 0.0050727 0.0115655 -0.0021239 0.001058 0.0354386 0.020018 -0.000637314 2650 
139 1 0.00997895 0.0186765 -0.00355325 0.001058 0.0127696 0.00849352 0.0230521 2650 
293 1 0.0155565 0.0179057 -0.00290086 0.001058 -0.0276676 0.0651909 -0.103145 2650 
190 1 0.005899 0.00431896 -0.000534 0.000291 0 -0.011755 0 2650 
286 1 0.015592 0.00508986 -0.000248904 0.001058 0.000169261 -0.00185674 -0.00809275 2650 
232 1 0.0155896 0.00949183 -0.000847452 0.001058 -0.0167248 0.0324446 -0.0332171 2650 
128 1 0.00361 0.00391796 0.000511 0.000105 0 -0.011755 0 2650 
48 1 0.009671 0.00221096 0.000233 0.000105 0 -0.011755 0 2650 
244 1 0.0155095 0.00253292 5.35684e-05 0.001058 -0.00138261 -0.0193058 -0.0273647 2650 
110 1 0.00420186 0.00444626 0.000423639 0.000291 -0.0169259 -0.0135844 0.0488079 2650 
9 1 0.012981 0.00395388 0.000463947 0.00164 -0.0019278 -0.0130915 -0.00260825 2650 
301 1 0.00586675 0.0255953 0.000308807 0.001058 0.00272587 0.0220862 -0.0290146 2650 
294 1 0.006997 0.00192496 0.003581 0.001058 0 -0.011755 0 2650 
101 1 0.004812 0.00264096 0.002517 0.000291 0 -0.011755 0 2650 
194 1 0.0144101 0.00521533 0.00237818 0.001058 -0.000659826 0.0163472 -0.0190404 2650 
153 1 0.00184247 0.00724866 0.00343403 0.00164 0.00905173 -0.00370467 -0.0193596 2650 
116 1 0.0140381 0.0223849 0.00301221 0.001058 0.0382435 0.0489782 0.0372506 2650 
202 1 0.00304708 0.00160932 0.00473077 0.001058 0.00953014 -0.00871599 -0.0138173 2650 
212 1 0.001087 0.00243496 0.005915 0.000291 0 -0.011755 0 2650 
24 1 0.005464 0.00200696 0.005551 0.000105 0 -0.011755 0 2650 
51 1 0.009662 0.00307996 0.004577 0.001058 0 -0.011755 0 2650 
1 1 0.0125657 0.0023557 0.0052689 0.00164 0.00588729 0.00743877 -0.0258753 2650 
79 1 0.014214 0.00491996 0.005058 0.000291 0 -0.011755 0 2650 
231 1 0.00687844 0.00134838 0.00725462 0.001058 0.00167534 -0.0128877 -0.000760445 2650 
145 1 0.00467955 0.00301013 0.00776808 0.00164 0.00142123 -0.0121074 -0.00172265 2650 
222 1 0.009219 0.00427896 0.006833 0.001058 0 -0.011755 0 2650 
112 1 0.013668 0.00524296 0.007002 0.000105 0 -0.011755 0 2650 
258 1 0.0133141 0.00877184 0.00717072 0.001058 0.00615004 0.0226911 -0.0182162 2650 
100 1 0.00840612 0.000312134 0.00897846 0.001058 0.00912399 -0.0117578 -0.00681185 2650 
287 1 0.0105497 0.000980558 0.00947416 0.001058 0.00844674 -0.013594 -0.029996 2650 
292 1 0.0104018 0.0209487 0.00891245 0.001058 0.0469404 0.0480946 0.0370303 2650 
195 1 0.00954734 0.00117882 0.0113723 0.001058 0.0320017 -0.00521772 -0.00993454 2650 
66 1 0.00690714 0.00858129 0.0118994 0.001058 0.00846641 -0.000759158 0.00162513 2650 
156 1 0.00523987 0.0118531 0.0101889 0.001058 0.00957299 -0.000303602 -0.00985815 2650 
163 1 0.00753773 0.0522875 0.0112869 0.001058 -0.0646454 0.16688 0.0888818 2650 
95 1 0.00678609 0.00294431 0.0139645 0.000291 -0.000366951 -0.00495937 0.00220646 2650 
298 1 0.00999615 0.0062474 0.0135163 0.000105 0.00377194 -0.00442838 -0.00799766 2650 
57 1 0.00637193 0.0221467 0.0138282 0.00164 -0.000919831 0.00616449 -0.024056 2650 
265 1 0.0030486 0.00722865 0.0145357 0.001058 0.011667 0.00657701 -0.00499144 2650 
54 1 0.000437131 0.0301271 0.0146253 0.000291 0.0526685 0.00955407 -0.0227648 2650 
136 1 0.00348493 0.0839196 0.000836727 0.000105 0.0375902 0.10168 0.0199891 2650 
