LIGGGHTS (Version LIGGGHTS-PUBLIC 3.8.0, compiled 2022-11-07-16:55:38 by serperd1, git commit 86544c3f1215bc9744d7929e3eacf53ba086af9e)
units si #
dimension 3 #
newton off #
boundary f f f #
atom_style sphere #
pair_style gran model hertz tangential history #
communicate single vel yes #
region outer_basket cylinder y 0 0 0.15 -0.15 0.15 #
create_box 3 outer_basket #
Created orthogonal box = (-0.15 -0.15 -0.15) to (0.15 0.15 0.15)
  2 by 4 by 5 MPI processor grid
variable my_omega equal 157.0796 #
fix cone_mesh all mesh/surface file cone.stl type 3 scale 1 #
fix rotating_wall_1 all move/mesh mesh cone_mesh rotate/variable origin 0 0 0 axis 0 1 0 omega v_my_omega #
fix filter_mesh_walls all mesh/surface file dem_walls_75X_14micronpore_mod_mesh.stl type 2 scale 1e-3 curvature 1e-5 #
fix rotating_wall_2 all move/mesh mesh filter_mesh_walls rotate/variable origin 0 0 0 axis 0 1 0 omega v_my_omega #
fix inlet_cyl_wall_mesh all mesh/surface file in_cyl.stl type 3 scale 1 #
fix top_cyl_wall_mesh all mesh/surface file top_cyl.stl type 3 scale 1 #
fix rotating_wall_4 all move/mesh mesh top_cyl_wall_mesh rotate/variable origin 0 0 0 axis 0 1 0 omega v_my_omega #
fix bot_cyl_wall_mesh all mesh/surface file bot_cyl.stl type 3 scale 1 #
fix rotating_wall_5 all move/mesh mesh bot_cyl_wall_mesh rotate/variable origin 0 0 0 axis 0 1 0 omega v_my_omega #
fix bot_disk_wall_mesh all mesh/surface file bottom_disk.stl type 3 scale 1 #
fix rotating_wall_6 all move/mesh mesh bot_disk_wall_mesh rotate/variable origin 0 0 0 axis 0 1 0 omega v_my_omega #
fix top_disk_wall_mesh all mesh/surface file top_disk.stl type 3 scale 1 #
fix rotating_wall_7 all move/mesh mesh top_disk_wall_mesh rotate/variable origin 0 0 0 axis 0 1 0 omega v_my_omega #
fix GMSH_mesh_walls all wall/gran model hertz tangential history mesh n_meshes 7 meshes cone_mesh filter_mesh_walls top_cyl_wall_mesh bot_cyl_wall_mesh bot_disk_wall_mesh inlet_cyl_wall_mesh top_disk_wall_mesh #
fix Young_mod all property/global youngsModulus peratomtype 375000000 46000000 1000000000 #
fix Poisson_rat all property/global poissonsRatio peratomtype 0.32 0.42 0.29 #
fix Coeff_rest all property/global coefficientRestitution peratomtypepair 3 0.15 0.32 0.475 0.32 0.49 0.645 0.475 0.645 0.8 #
fix Coeff_fric all property/global coefficientFriction peratomtypepair 3 0.04 0.145 0.12 0.145 0.25 0.225 0.12 0.225 0.2 #

neighbor 0.0006561 bin #
neigh_modify delay 0 one 100000 page 5000000 #
fix r_0to10p all particletemplate/sphere 12345787 atom_type 1 density constant 2650 radius constant 0.000105 #
fix r_10to50p all particletemplate/sphere 15485863 atom_type 1 density constant 2650 radius constant 0.000291 #
fix r_50to90p all particletemplate/sphere 15485867 atom_type 1 density constant 2650 radius constant 0.0010582 #
fix r_90to100p all particletemplate/sphere 32452843 atom_type 1 density constant 2650 radius constant 0.0016402 #
fix prob_par all particledistribution/discrete 32452867 4 r_0to10p 0.1 r_10to50p 0.4 r_50to90p 0.4 r_90to100p 0.1 #
pair_coeff * * #
timestep 8.0985e-08 #

fix nve_group all nve/sphere #
fix grav_fix all gravity 6.1081 vector 0.017 -0.0033 0 -1 0 #
fix cent_fix all centrifugal 157.0796 0.017 -0.0033 0.069 #

variable step equal step #
variable mycount equal count(all) #
fix print_amount_of_atoms all print 25 "${step} ${mycount}" file numatoms.txt screen no #
run 0 #
Setting up run at Wed Nov 23 15:05:57 2022

Memory usage per processor = 1078.21 Mbytes
    Step    Atoms         KinEng            CPU 
       0        0              0              0 
Loop time of 6.9658e-05 on 40 procs for 0 steps with 0 atoms, finish time Wed Nov 23 15:05:57 2022


Pair  time (%) = 0 (0)
Neigh time (%) = 0 (0)
Comm  time (%) = 0 (0)
Outpt time (%) = 0 (0)
Other time (%) = 6.9658e-05 (100)

Nlocal:    0 ave 0 max 0 min
Histogram: 40 0 0 0 0 0 0 0 0 0
Nghost:    0 ave 0 max 0 min
Histogram: 40 0 0 0 0 0 0 0 0 0
Neighs:    0 ave 0 max 0 min
Histogram: 40 0 0 0 0 0 0 0 0 0

Total # of neighbors = 0
Neighbor list builds = 0
Dangerous builds = 0
run 1 #
Setting up run at Wed Nov 23 15:05:57 2022

Memory usage per processor = 1078.21 Mbytes
    Step    Atoms         KinEng            CPU 
       0        0              0              0 
       1        0              0    0.012777948 
Loop time of 0.0127883 on 40 procs for 1 steps with 0 atoms, finish time Wed Nov 23 15:05:57 2022


Pair  time (%) = 2.91715e-06 (0.0228111)
Neigh time (%) = 0 (0)
Comm  time (%) = 0.000196841 (1.53923)
Outpt time (%) = 0.000201565 (1.57617)
Other time (%) = 0.012387 (96.8618)

Nlocal:    0 ave 0 max 0 min
Histogram: 40 0 0 0 0 0 0 0 0 0
Nghost:    0 ave 0 max 0 min
Histogram: 40 0 0 0 0 0 0 0 0 0
Neighs:    0 ave 0 max 0 min
Histogram: 40 0 0 0 0 0 0 0 0 0

Total # of neighbors = 0
Neighbor list builds = 0
Dangerous builds = 0
read_dump dump.atom_info_1 1 x y z radius vx vy vz box no add yes replace no #
  orthogonal box = (-0.15 -0.15 -0.15) to (0.15 0.15 0.15)
  0 atoms before read
  305 atoms in snapshot
  0 atoms purged
  0 atoms replaced
  0 atoms trimmed
  305 atoms added
  305 atoms after read
set atom * type 1 density 2650 vy -0.011755 #
  305 settings made for type
  305 settings made for density
  305 settings made for vy
write_dump all mesh/stl filter_mesh_scaled*.stl filter_mesh_walls #
run 1 #
Setting up run at Wed Nov 23 15:05:58 2022

Memory usage per processor = 1082.6 Mbytes
    Step    Atoms         KinEng            CPU 
       1      305  2.0479885e-07              0 
       2      305  2.4141415e-07    0.012254937 
Loop time of 0.0122763 on 40 procs for 1 steps with 305 atoms, finish time Wed Nov 23 15:05:58 2022


Pair  time (%) = 2.47335e-06 (0.0201474)
Neigh time (%) = 0 (0)
Comm  time (%) = 4.43958e-06 (0.0361639)
Outpt time (%) = 0.000218403 (1.77907)
Other time (%) = 0.012051 (98.1646)

Nlocal:    7.625 ave 134 max 0 min
Histogram: 36 2 0 0 0 0 0 0 0 2
Nghost:    5.125 ave 59 max 0 min
Histogram: 36 0 0 0 0 0 0 2 0 2
Neighs:    2.375 ave 54 max 0 min
Histogram: 37 1 0 0 0 1 0 0 0 1

Total # of neighbors = 95
Ave neighs/atom = 0.311475
Neighbor list builds = 0
Dangerous builds = 0
write_dump all custom dump.atom_info_ac_* id type x y z radius vx vy vz density #
run 123478
Setting up run at Wed Nov 23 15:05:58 2022

Memory usage per processor = 1082.6 Mbytes
    Step    Atoms         KinEng            CPU 
       2      305  2.4141415e-07              0 
  123480      305  6.0833846e-05      1667.5071 
Loop time of 1667.51 on 40 procs for 123478 steps with 305 atoms, finish time Wed Nov 23 15:33:45 2022


Pair  time (%) = 0.284007 (0.0170318)
Neigh time (%) = 0.0578459 (0.003469)
Comm  time (%) = 0.605556 (0.036315)
Outpt time (%) = 0.000308543 (1.85033e-05)
Other time (%) = 1666.56 (99.9432)

Nlocal:    7.625 ave 136 max 0 min
Histogram: 36 2 0 0 0 0 0 0 1 1
Nghost:    5.15 ave 59 max 0 min
Histogram: 36 0 0 0 0 0 0 2 0 2
Neighs:    2.5 ave 57 max 0 min
Histogram: 36 2 0 0 1 0 0 0 0 1

Total # of neighbors = 100
Ave neighs/atom = 0.327869
Neighbor list builds = 330
Dangerous builds = 0
write_dump all custom dump.atom_info_ac_* id type x y z radius vx vy vz density #
run 123478
Setting up run at Wed Nov 23 15:33:45 2022

Memory usage per processor = 1082.6 Mbytes
    Step    Atoms         KinEng            CPU 
  123480      305  6.0833846e-05              0 
  246958      305  4.3791858e-05      1735.4555 
Loop time of 1735.46 on 40 procs for 123478 steps with 305 atoms, finish time Wed Nov 23 16:02:41 2022


Pair  time (%) = 0.285991 (0.0164793)
Neigh time (%) = 0.058624 (0.00337802)
Comm  time (%) = 0.657023 (0.0378588)
Outpt time (%) = 0.000271766 (1.56596e-05)
Other time (%) = 1734.45 (99.9423)

Nlocal:    7.625 ave 138 max 0 min
Histogram: 36 2 0 0 0 0 0 0 1 1
Nghost:    5.125 ave 56 max 0 min
Histogram: 36 0 0 0 0 0 0 0 2 2
Neighs:    2.475 ave 57 max 0 min
Histogram: 36 2 0 0 1 0 0 0 0 1

Total # of neighbors = 99
Ave neighs/atom = 0.32459
Neighbor list builds = 330
Dangerous builds = 0
write_dump all custom dump.atom_info_ac_* id type x y z radius vx vy vz density #
run 123478
Setting up run at Wed Nov 23 16:02:41 2022

Memory usage per processor = 1082.6 Mbytes
    Step    Atoms         KinEng            CPU 
  246958      305  4.3791858e-05              0 
  370436      305  0.00038094199      1771.3453 
Loop time of 1771.35 on 40 procs for 123478 steps with 305 atoms, finish time Wed Nov 23 16:32:12 2022


Pair  time (%) = 0.28481 (0.0160787)
Neigh time (%) = 0.0588359 (0.00332154)
Comm  time (%) = 0.658635 (0.0371828)
Outpt time (%) = 0.000615849 (3.47673e-05)
Other time (%) = 1770.34 (99.9434)

Nlocal:    7.625 ave 134 max 0 min
Histogram: 36 0 2 0 0 0 0 0 1 1
Nghost:    5.025 ave 61 max 0 min
Histogram: 36 0 0 0 0 0 0 2 1 1
Neighs:    2.475 ave 57 max 0 min
Histogram: 36 2 0 0 1 0 0 0 0 1

Total # of neighbors = 99
Ave neighs/atom = 0.32459
Neighbor list builds = 330
Dangerous builds = 0
write_dump all custom dump.atom_info_ac_* id type x y z radius vx vy vz density #
run 123478
Setting up run at Wed Nov 23 16:32:12 2022

Memory usage per processor = 1082.6 Mbytes
    Step    Atoms         KinEng            CPU 
  370436      305  0.00038094199              0 
  493914      305  0.00028933811      1728.6329 
Loop time of 1728.63 on 40 procs for 123478 steps with 305 atoms, finish time Wed Nov 23 17:01:01 2022


Pair  time (%) = 0.286723 (0.0165867)
Neigh time (%) = 0.0585013 (0.00338425)
Comm  time (%) = 0.678258 (0.0392367)
Outpt time (%) = 0.000674503 (3.90195e-05)
Other time (%) = 1727.61 (99.9408)

Nlocal:    7.625 ave 134 max 0 min
Histogram: 36 0 2 0 0 0 0 0 1 1
Nghost:    5.025 ave 59 max 0 min
Histogram: 36 0 0 0 0 0 0 2 0 2
Neighs:    2.425 ave 54 max 0 min
Histogram: 36 1 1 0 1 0 0 0 0 1

Total # of neighbors = 97
Ave neighs/atom = 0.318033
Neighbor list builds = 330
Dangerous builds = 0
write_dump all custom dump.atom_info_ac_* id type x y z radius vx vy vz density #
run 123478
Setting up run at Wed Nov 23 17:01:01 2022

Memory usage per processor = 1082.6 Mbytes
    Step    Atoms         KinEng            CPU 
  493914      305  0.00028933811              0 
  617392      305   0.0020121835      1694.2872 
Loop time of 1694.29 on 40 procs for 123478 steps with 305 atoms, finish time Wed Nov 23 17:29:15 2022


Pair  time (%) = 0.286073 (0.0168846)
Neigh time (%) = 0.0592235 (0.00349548)
Comm  time (%) = 0.679954 (0.0401322)
Outpt time (%) = 0.000370875 (2.18898e-05)
Other time (%) = 1693.26 (99.9395)

Nlocal:    7.625 ave 134 max 0 min
Histogram: 36 0 2 0 0 0 0 1 0 1
Nghost:    5 ave 59 max 0 min
Histogram: 36 0 0 0 0 0 1 1 0 2
Neighs:    2.5 ave 55 max 0 min
Histogram: 36 1 1 0 1 0 0 0 0 1

Total # of neighbors = 100
Ave neighs/atom = 0.327869
Neighbor list builds = 330
Dangerous builds = 0
write_dump all custom dump.atom_info_ac_* id type x y z radius vx vy vz density #
run 123478
Setting up run at Wed Nov 23 17:29:16 2022

Memory usage per processor = 1082.6 Mbytes
    Step    Atoms         KinEng            CPU 
  617392      305   0.0020121835              0 
  740870      305   0.0010940179      1759.0556 
Loop time of 1759.06 on 40 procs for 123478 steps with 305 atoms, finish time Wed Nov 23 17:58:35 2022


Pair  time (%) = 0.291201 (0.0165544)
Neigh time (%) = 0.05788 (0.0032904)
Comm  time (%) = 0.727419 (0.0413528)
Outpt time (%) = 0.000685568 (3.89736e-05)
Other time (%) = 1757.98 (99.9388)

Nlocal:    7.625 ave 133 max 0 min
Histogram: 36 0 2 0 0 0 0 1 0 1
Nghost:    5 ave 58 max 0 min
Histogram: 36 0 0 0 0 0 1 1 0 2
Neighs:    2.375 ave 54 max 0 min
Histogram: 36 1 1 1 0 0 0 0 0 1

Total # of neighbors = 95
Ave neighs/atom = 0.311475
Neighbor list builds = 330
Dangerous builds = 0
write_dump all custom dump.atom_info_ac_* id type x y z radius vx vy vz density #
run 123478
Setting up run at Wed Nov 23 17:58:35 2022

Memory usage per processor = 1082.6 Mbytes
    Step    Atoms         KinEng            CPU 
  740870      305   0.0010940179              0 
  864348      304   0.0016630154      1809.3048 
Loop time of 1809.31 on 40 procs for 123478 steps with 304 atoms, finish time Wed Nov 23 18:28:44 2022


Pair  time (%) = 0.288677 (0.0159551)
Neigh time (%) = 0.0585935 (0.00323845)
Comm  time (%) = 0.647955 (0.0358123)
Outpt time (%) = 0.000392939 (2.17177e-05)
Other time (%) = 1808.31 (99.945)

Nlocal:    7.6 ave 132 max 0 min
Histogram: 36 1 1 0 0 0 0 1 0 1
Nghost:    5.225 ave 60 max 0 min
Histogram: 36 0 0 0 0 0 1 0 1 2
Neighs:    2.4 ave 54 max 0 min
Histogram: 36 1 1 1 0 0 0 0 0 1

Total # of neighbors = 96
Ave neighs/atom = 0.315789
Neighbor list builds = 330
Dangerous builds = 0
write_dump all custom dump.atom_info_ac_* id type x y z radius vx vy vz density #
run 123478
Setting up run at Wed Nov 23 18:28:44 2022

Memory usage per processor = 1082.6 Mbytes
    Step    Atoms         KinEng            CPU 
  864348      304   0.0016630154              0 
  987826      304   0.0014661475       1672.331 
Loop time of 1672.33 on 40 procs for 123478 steps with 304 atoms, finish time Wed Nov 23 18:56:36 2022


Pair  time (%) = 0.286703 (0.0171439)
Neigh time (%) = 0.0582353 (0.00348228)
Comm  time (%) = 0.63726 (0.0381061)
Outpt time (%) = 0.000674747 (4.03477e-05)
Other time (%) = 1671.35 (99.9412)

Nlocal:    7.6 ave 132 max 0 min
Histogram: 36 1 1 0 0 0 0 1 0 1
Nghost:    5.325 ave 62 max 0 min
Histogram: 36 0 0 0 0 0 1 0 1 2
Neighs:    2.4 ave 57 max 0 min
Histogram: 36 2 0 1 0 0 0 0 0 1

Total # of neighbors = 96
Ave neighs/atom = 0.315789
Neighbor list builds = 330
Dangerous builds = 0
write_dump all custom dump.atom_info_ac_* id type x y z radius vx vy vz density #
run 123478
Setting up run at Wed Nov 23 18:56:36 2022

Memory usage per processor = 1082.6 Mbytes
    Step    Atoms         KinEng            CPU 
  987826      304   0.0014661475              0 
 1111304      304   0.0016762741      1695.8309 
Loop time of 1695.83 on 40 procs for 123478 steps with 304 atoms, finish time Wed Nov 23 19:24:52 2022


Pair  time (%) = 0.287167 (0.0169337)
Neigh time (%) = 0.0584882 (0.00344894)
Comm  time (%) = 0.66308 (0.0391006)
Outpt time (%) = 0.000368716 (2.17425e-05)
Other time (%) = 1694.82 (99.9405)

Nlocal:    7.6 ave 129 max 0 min
Histogram: 36 0 2 0 0 0 0 1 0 1
Nghost:    5.3 ave 59 max 0 min
Histogram: 36 0 0 0 0 0 0 1 1 2
Neighs:    2.375 ave 57 max 0 min
Histogram: 36 2 0 1 0 0 0 0 0 1

Total # of neighbors = 95
Ave neighs/atom = 0.3125
Neighbor list builds = 330
Dangerous builds = 0
write_dump all custom dump.atom_info_ac_* id type x y z radius vx vy vz density #
run 123478
Setting up run at Wed Nov 23 19:24:52 2022

Memory usage per processor = 1082.6 Mbytes
    Step    Atoms         KinEng            CPU 
 1111304      304   0.0016762741              0 
 1234782      304   0.0022455948       1665.889 
Loop time of 1665.89 on 40 procs for 123478 steps with 304 atoms, finish time Wed Nov 23 19:52:38 2022


Pair  time (%) = 0.285626 (0.0171456)
Neigh time (%) = 0.0581986 (0.00349355)
Comm  time (%) = 0.84386 (0.0506552)
Outpt time (%) = 0.000345988 (2.07689e-05)
Other time (%) = 1664.7 (99.9287)

Nlocal:    7.6 ave 128 max 0 min
Histogram: 36 1 1 0 0 0 0 0 1 1
Nghost:    5.3 ave 55 max 0 min
Histogram: 36 0 0 0 0 0 0 0 1 3
Neighs:    2.425 ave 59 max 0 min
Histogram: 36 2 0 1 0 0 0 0 0 1

Total # of neighbors = 97
Ave neighs/atom = 0.319079
Neighbor list builds = 330
Dangerous builds = 0
write_dump all custom dump.atom_info_ac_* id type x y z radius vx vy vz density #
run 123478
Setting up run at Wed Nov 23 19:52:38 2022

Memory usage per processor = 1082.6 Mbytes
    Step    Atoms         KinEng            CPU 
 1234782      304   0.0022455948              0 
 1358260      304   0.0022692441      1670.3802 
Loop time of 1670.38 on 40 procs for 123478 steps with 304 atoms, finish time Wed Nov 23 20:20:29 2022


Pair  time (%) = 0.2871 (0.0171877)
Neigh time (%) = 0.0581214 (0.00347953)
Comm  time (%) = 0.668135 (0.039999)
Outpt time (%) = 0.000721271 (4.318e-05)
Other time (%) = 1669.37 (99.9393)

Nlocal:    7.6 ave 123 max 0 min
Histogram: 36 0 2 0 0 0 0 0 1 1
Nghost:    5.225 ave 60 max 0 min
Histogram: 36 0 0 0 0 0 0 1 2 1
Neighs:    2.475 ave 60 max 0 min
Histogram: 36 2 0 1 0 0 0 0 0 1

Total # of neighbors = 99
Ave neighs/atom = 0.325658
Neighbor list builds = 330
Dangerous builds = 0
write_dump all custom dump.atom_info_ac_* id type x y z radius vx vy vz density #
run 123478
Setting up run at Wed Nov 23 20:20:29 2022

Memory usage per processor = 1082.6 Mbytes
    Step    Atoms         KinEng            CPU 
 1358260      304   0.0022692441              0 
 1481738      304   0.0032236714      1673.2783 
Loop time of 1673.28 on 40 procs for 123478 steps with 304 atoms, finish time Wed Nov 23 20:48:22 2022


Pair  time (%) = 0.286625 (0.0171296)
Neigh time (%) = 0.0578565 (0.00345767)
Comm  time (%) = 0.973765 (0.058195)
Outpt time (%) = 0.000321585 (1.92188e-05)
Other time (%) = 1671.96 (99.9212)

Nlocal:    7.6 ave 120 max 0 min
Histogram: 36 0 2 0 0 0 0 0 1 1
Nghost:    5.35 ave 62 max 0 min
Histogram: 36 0 0 0 0 0 1 0 1 2
Neighs:    2.575 ave 59 max 0 min
Histogram: 36 1 1 1 0 0 0 0 0 1

Total # of neighbors = 103
Ave neighs/atom = 0.338816
Neighbor list builds = 330
Dangerous builds = 0
write_dump all custom dump.atom_info_ac_* id type x y z radius vx vy vz density #
run 123478
Setting up run at Wed Nov 23 20:48:22 2022

Memory usage per processor = 1082.6 Mbytes
    Step    Atoms         KinEng            CPU 
 1481738      304   0.0032236714              0 
 1605216      303   0.0027218172      1667.5962 
Loop time of 1667.6 on 40 procs for 123478 steps with 303 atoms, finish time Wed Nov 23 21:16:10 2022


Pair  time (%) = 0.286022 (0.0171517)
Neigh time (%) = 0.0580496 (0.00348104)
Comm  time (%) = 0.873871 (0.052403)
Outpt time (%) = 0.000700958 (4.2034e-05)
Other time (%) = 1666.38 (99.9269)

Nlocal:    7.575 ave 119 max 0 min
Histogram: 36 0 2 0 0 0 0 0 1 1
Nghost:    5.35 ave 62 max 0 min
Histogram: 36 0 0 0 0 0 1 1 0 2
Neighs:    2.625 ave 59 max 0 min
Histogram: 36 1 1 1 0 0 0 0 0 1

Total # of neighbors = 105
Ave neighs/atom = 0.346535
Neighbor list builds = 330
Dangerous builds = 0
write_dump all custom dump.atom_info_ac_* id type x y z radius vx vy vz density #
run 123478
Setting up run at Wed Nov 23 21:16:10 2022

Memory usage per processor = 1082.6 Mbytes
    Step    Atoms         KinEng            CPU 
 1605216      303   0.0027218172              0 
 1728694      303   0.0029629887      1675.6096 
Loop time of 1675.61 on 40 procs for 123478 steps with 303 atoms, finish time Wed Nov 23 21:44:05 2022


Pair  time (%) = 0.287527 (0.0171595)
Neigh time (%) = 0.0586934 (0.00350281)
Comm  time (%) = 0.715995 (0.0427304)
Outpt time (%) = 0.000385844 (2.30271e-05)
Other time (%) = 1674.55 (99.9366)

Nlocal:    7.575 ave 116 max 0 min
Histogram: 36 0 1 1 0 0 0 0 1 1
Nghost:    5.275 ave 64 max 0 min
Histogram: 36 0 0 0 0 0 1 1 1 1
Neighs:    2.625 ave 54 max 0 min
Histogram: 36 1 0 1 1 0 0 0 0 1

Total # of neighbors = 105
Ave neighs/atom = 0.346535
Neighbor list builds = 330
Dangerous builds = 0
write_dump all custom dump.atom_info_ac_* id type x y z radius vx vy vz density #
run 123478
Setting up run at Wed Nov 23 21:44:06 2022

Memory usage per processor = 1082.6 Mbytes
    Step    Atoms         KinEng            CPU 
 1728694      303   0.0029629887              0 
 1852172      302   0.0032349941      1681.1278 
Loop time of 1681.13 on 40 procs for 123478 steps with 302 atoms, finish time Wed Nov 23 22:12:07 2022


Pair  time (%) = 0.2853 (0.0169707)
Neigh time (%) = 0.0588174 (0.00349869)
Comm  time (%) = 0.684771 (0.0407328)
Outpt time (%) = 0.000723042 (4.30094e-05)
Other time (%) = 1680.1 (99.9388)

Nlocal:    7.55 ave 113 max 0 min
Histogram: 36 0 1 1 0 0 0 0 1 1
Nghost:    5.275 ave 66 max 0 min
Histogram: 36 0 0 0 0 0 2 0 1 1
Neighs:    2.6 ave 51 max 0 min
Histogram: 36 1 0 0 2 0 0 0 0 1

Total # of neighbors = 104
Ave neighs/atom = 0.344371
Neighbor list builds = 330
Dangerous builds = 0
write_dump all custom dump.atom_info_ac_* id type x y z radius vx vy vz density #
run 123478
Setting up run at Wed Nov 23 22:12:07 2022

Memory usage per processor = 1082.6 Mbytes
    Step    Atoms         KinEng            CPU 
 1852172      302   0.0032349941              0 
 1975650      302   0.0042327486      1671.8911 
Loop time of 1671.9 on 40 procs for 123478 steps with 302 atoms, finish time Wed Nov 23 22:39:59 2022


Pair  time (%) = 0.284691 (0.017028)
Neigh time (%) = 0.0589292 (0.00352468)
Comm  time (%) = 0.781027 (0.0467149)
Outpt time (%) = 0.00010197 (6.09904e-06)
Other time (%) = 1670.78 (99.9327)

Nlocal:    7.55 ave 110 max 0 min
Histogram: 36 0 0 2 0 0 0 0 1 1
Nghost:    5.175 ave 65 max 0 min
Histogram: 36 0 0 0 0 0 2 0 1 1
Neighs:    2.575 ave 51 max 0 min
Histogram: 36 1 0 0 2 0 0 0 0 1

Total # of neighbors = 103
Ave neighs/atom = 0.34106
Neighbor list builds = 330
Dangerous builds = 0
write_dump all custom dump.atom_info_ac_* id type x y z radius vx vy vz density #
run 123478
Setting up run at Wed Nov 23 22:39:59 2022

Memory usage per processor = 1082.6 Mbytes
    Step    Atoms         KinEng            CPU 
 1975650      302   0.0042327486              0 
 2099128      301   0.0041075267      1677.7841 
Loop time of 1677.78 on 40 procs for 123478 steps with 301 atoms, finish time Wed Nov 23 23:07:57 2022


Pair  time (%) = 0.284667 (0.0169668)
Neigh time (%) = 0.0589933 (0.00351615)
Comm  time (%) = 0.854277 (0.0509169)
Outpt time (%) = 0.000668722 (3.98575e-05)
Other time (%) = 1676.59 (99.9286)

Nlocal:    7.525 ave 107 max 0 min
Histogram: 36 0 0 2 0 0 0 0 0 2
Nghost:    5.025 ave 66 max 0 min
Histogram: 36 0 0 0 0 1 1 1 0 1
Neighs:    2.775 ave 53 max 0 min
Histogram: 36 1 0 0 1 1 0 0 0 1

Total # of neighbors = 111
Ave neighs/atom = 0.368771
Neighbor list builds = 330
Dangerous builds = 0
write_dump all custom dump.atom_info_ac_* id type x y z radius vx vy vz density #
run 123478
Setting up run at Wed Nov 23 23:07:57 2022

Memory usage per processor = 1082.6 Mbytes
    Step    Atoms         KinEng            CPU 
 2099128      301   0.0041075267              0 
 2222606      301   0.0048891352      1680.1489 
Loop time of 1680.15 on 40 procs for 123478 steps with 301 atoms, finish time Wed Nov 23 23:35:57 2022


Pair  time (%) = 0.282397 (0.0168079)
Neigh time (%) = 0.059209 (0.00352403)
Comm  time (%) = 0.772285 (0.0459653)
Outpt time (%) = 0.000434641 (2.58692e-05)
Other time (%) = 1679.03 (99.9337)

Nlocal:    7.525 ave 106 max 0 min
Histogram: 36 0 0 2 0 0 0 0 0 2
Nghost:    5.05 ave 67 max 0 min
Histogram: 36 0 0 0 0 1 1 1 0 1
Neighs:    2.675 ave 50 max 0 min
Histogram: 36 1 0 0 1 1 0 0 0 1

Total # of neighbors = 107
Ave neighs/atom = 0.355482
Neighbor list builds = 330
Dangerous builds = 0
write_dump all custom dump.atom_info_ac_* id type x y z radius vx vy vz density #
run 123478
Setting up run at Wed Nov 23 23:35:57 2022

Memory usage per processor = 1082.6 Mbytes
    Step    Atoms         KinEng            CPU 
 2222606      301   0.0048891352              0 
 2346084      301   0.0052031567      1676.6658 
Loop time of 1676.67 on 40 procs for 123478 steps with 301 atoms, finish time Thu Nov 24 00:03:54 2022


Pair  time (%) = 0.282886 (0.016872)
Neigh time (%) = 0.059094 (0.00352449)
Comm  time (%) = 0.674117 (0.0402058)
Outpt time (%) = 0.000433658 (2.58643e-05)
Other time (%) = 1675.65 (99.9394)

Nlocal:    7.525 ave 104 max 0 min
Histogram: 36 0 0 2 0 0 0 0 0 2
Nghost:    5.1 ave 66 max 0 min
Histogram: 36 0 0 0 0 0 2 1 0 1
Neighs:    2.4 ave 41 max 0 min
Histogram: 36 1 0 0 0 1 1 0 0 1

Total # of neighbors = 96
Ave neighs/atom = 0.318937
Neighbor list builds = 330
Dangerous builds = 0
write_dump all custom dump.atom_info_ac_* id type x y z radius vx vy vz density #
run 123478
Setting up run at Thu Nov 24 00:03:54 2022

Memory usage per processor = 1082.6 Mbytes
    Step    Atoms         KinEng            CPU 
 2346084      301   0.0052031567              0 
 2469562      301   0.0063381852      1678.9754 
Loop time of 1678.98 on 40 procs for 123478 steps with 301 atoms, finish time Thu Nov 24 00:31:53 2022


Pair  time (%) = 0.282727 (0.0168393)
Neigh time (%) = 0.0593069 (0.00353233)
Comm  time (%) = 0.827878 (0.0493085)
Outpt time (%) = 0.000776283 (4.62355e-05)
Other time (%) = 1677.8 (99.9303)

Nlocal:    7.525 ave 102 max 0 min
Histogram: 36 0 0 1 1 0 0 0 0 2
Nghost:    4.975 ave 65 max 0 min
Histogram: 36 0 0 0 0 0 2 1 0 1
Neighs:    2.4 ave 42 max 0 min
Histogram: 36 1 0 0 0 2 0 0 0 1

Total # of neighbors = 96
Ave neighs/atom = 0.318937
Neighbor list builds = 330
Dangerous builds = 0
write_dump all custom dump.atom_info_ac_* id type x y z radius vx vy vz density #
run 123478
Setting up run at Thu Nov 24 00:31:53 2022

Memory usage per processor = 1082.6 Mbytes
    Step    Atoms         KinEng            CPU 
 2469562      301   0.0063381852              0 
 2593040      301   0.0067979857      1678.3907 
Loop time of 1678.39 on 40 procs for 123478 steps with 301 atoms, finish time Thu Nov 24 00:59:51 2022


Pair  time (%) = 0.281569 (0.0167761)
Neigh time (%) = 0.0600138 (0.00357567)
Comm  time (%) = 0.843169 (0.0502368)
Outpt time (%) = 0.000423962 (2.526e-05)
Other time (%) = 1677.21 (99.9294)

Nlocal:    7.525 ave 101 max 0 min
Histogram: 35 1 0 1 1 0 0 0 0 2
Nghost:    5 ave 66 max 0 min
Histogram: 36 0 0 0 0 1 1 1 0 1
Neighs:    2.125 ave 33 max 0 min
Histogram: 36 1 0 0 0 0 1 1 0 1

Total # of neighbors = 85
Ave neighs/atom = 0.282392
Neighbor list builds = 330
Dangerous builds = 0
write_dump all custom dump.atom_info_ac_* id type x y z radius vx vy vz density #
run 123478
Setting up run at Thu Nov 24 00:59:51 2022

Memory usage per processor = 1082.6 Mbytes
    Step    Atoms         KinEng            CPU 
 2593040      301   0.0067979857              0 
 2716518      301   0.0072391243      1669.7882 
Loop time of 1669.79 on 40 procs for 123478 steps with 301 atoms, finish time Thu Nov 24 01:27:41 2022


Pair  time (%) = 0.281698 (0.0168703)
Neigh time (%) = 0.0593312 (0.00355322)
Comm  time (%) = 0.798404 (0.0478147)
Outpt time (%) = 0.000820876 (4.91605e-05)
Other time (%) = 1668.65 (99.9317)

Nlocal:    7.525 ave 101 max 0 min
Histogram: 36 0 0 1 1 0 0 0 0 2
Nghost:    4.8 ave 62 max 0 min
Histogram: 36 0 0 0 0 0 2 1 0 1
Neighs:    2.125 ave 36 max 0 min
Histogram: 36 0 1 0 1 0 1 0 0 1

Total # of neighbors = 85
Ave neighs/atom = 0.282392
Neighbor list builds = 330
Dangerous builds = 0
write_dump all custom dump.atom_info_ac_* id type x y z radius vx vy vz density #
run 123478
Setting up run at Thu Nov 24 01:27:41 2022

Memory usage per processor = 1082.6 Mbytes
    Step    Atoms         KinEng            CPU 
 2716518      301   0.0072391243              0 
 2839996      301   0.0080912444      1693.4119 
Loop time of 1693.41 on 40 procs for 123478 steps with 301 atoms, finish time Thu Nov 24 01:55:54 2022


Pair  time (%) = 0.27956 (0.0165087)
Neigh time (%) = 0.0591371 (0.00349218)
Comm  time (%) = 0.677375 (0.0400006)
Outpt time (%) = 0.000590171 (3.4851e-05)
Other time (%) = 1692.4 (99.94)

Nlocal:    7.525 ave 100 max 0 min
Histogram: 35 1 0 1 1 0 0 0 0 2
Nghost:    4.875 ave 61 max 0 min
Histogram: 36 0 0 0 0 0 2 0 1 1
Neighs:    2.1 ave 36 max 0 min
Histogram: 36 1 0 0 1 0 1 0 0 1

Total # of neighbors = 84
Ave neighs/atom = 0.27907
Neighbor list builds = 330
Dangerous builds = 0
write_dump all custom dump.atom_info_ac_* id type x y z radius vx vy vz density #
run 123478
Setting up run at Thu Nov 24 01:55:54 2022

Memory usage per processor = 1082.6 Mbytes
    Step    Atoms         KinEng            CPU 
 2839996      301   0.0080912444              0 
 2963474      301   0.0096488742       1688.499 
Loop time of 1688.5 on 40 procs for 123478 steps with 301 atoms, finish time Thu Nov 24 02:24:03 2022


Pair  time (%) = 0.280335 (0.0166026)
Neigh time (%) = 0.0591239 (0.00350157)
Comm  time (%) = 0.929981 (0.0550774)
Outpt time (%) = 0.000819651 (4.85432e-05)
Other time (%) = 1687.23 (99.9248)

Nlocal:    7.525 ave 98 max 0 min
Histogram: 35 1 0 1 1 0 0 0 0 2
Nghost:    4.875 ave 62 max 0 min
Histogram: 36 0 0 0 0 1 1 1 0 1
Neighs:    2.125 ave 36 max 0 min
Histogram: 36 0 0 2 0 0 1 0 0 1

Total # of neighbors = 85
Ave neighs/atom = 0.282392
Neighbor list builds = 330
Dangerous builds = 0
write_dump all custom dump.atom_info_ac_* id type x y z radius vx vy vz density #
run 123478
Setting up run at Thu Nov 24 02:24:03 2022

Memory usage per processor = 1082.6 Mbytes
    Step    Atoms         KinEng            CPU 
 2963474      301   0.0096488742              0 
 3086952      300   0.0092599893      1680.2879 
Loop time of 1680.29 on 40 procs for 123478 steps with 300 atoms, finish time Thu Nov 24 02:52:03 2022


Pair  time (%) = 0.279902 (0.016658)
Neigh time (%) = 0.0588291 (0.00350113)
Comm  time (%) = 0.946531 (0.0563315)
Outpt time (%) = 0.00053339 (3.1744e-05)
Other time (%) = 1679 (99.9235)

Nlocal:    7.5 ave 98 max 0 min
Histogram: 35 1 0 2 0 0 0 0 0 2
Nghost:    4.85 ave 61 max 0 min
Histogram: 36 0 0 0 0 0 1 2 0 1
Neighs:    2.1 ave 32 max 0 min
Histogram: 36 0 1 1 0 0 0 0 0 2

Total # of neighbors = 84
Ave neighs/atom = 0.28
Neighbor list builds = 330
Dangerous builds = 0
write_dump all custom dump.atom_info_ac_* id type x y z radius vx vy vz density #
run 123478
Setting up run at Thu Nov 24 02:52:03 2022

Memory usage per processor = 1082.6 Mbytes
    Step    Atoms         KinEng            CPU 
 3086952      300   0.0092599893              0 
 3210430      300   0.0098263471       1682.882 
Loop time of 1682.88 on 40 procs for 123478 steps with 300 atoms, finish time Thu Nov 24 03:20:06 2022


Pair  time (%) = 0.278343 (0.0165396)
Neigh time (%) = 0.0595003 (0.00353562)
Comm  time (%) = 0.860546 (0.0511352)
Outpt time (%) = 0.000440435 (2.61715e-05)
Other time (%) = 1681.68 (99.9288)

Nlocal:    7.5 ave 97 max 0 min
Histogram: 34 2 0 2 0 0 0 0 0 2
Nghost:    4.775 ave 62 max 0 min
Histogram: 36 0 0 0 0 0 2 1 0 1
Neighs:    1.975 ave 31 max 0 min
Histogram: 36 0 1 1 0 0 0 0 0 2

Total # of neighbors = 79
Ave neighs/atom = 0.263333
Neighbor list builds = 330
Dangerous builds = 0
write_dump all custom dump.atom_info_ac_* id type x y z radius vx vy vz density #
run 123478
Setting up run at Thu Nov 24 03:20:06 2022

Memory usage per processor = 1082.6 Mbytes
    Step    Atoms         KinEng            CPU 
 3210430      300   0.0098263471              0 
 3333908      300    0.010849935      1682.4835 
Loop time of 1682.48 on 40 procs for 123478 steps with 300 atoms, finish time Thu Nov 24 03:48:09 2022


Pair  time (%) = 0.27789 (0.0165167)
Neigh time (%) = 0.0592583 (0.00352208)
Comm  time (%) = 0.778819 (0.0462898)
Outpt time (%) = 0.000771689 (4.58661e-05)
Other time (%) = 1681.37 (99.9336)

Nlocal:    7.5 ave 95 max 0 min
Histogram: 34 2 0 1 1 0 0 0 0 2
Nghost:    4.675 ave 62 max 0 min
Histogram: 36 0 0 0 0 0 3 0 0 1
Neighs:    1.975 ave 29 max 0 min
Histogram: 36 0 1 0 1 0 0 0 0 2

Total # of neighbors = 79
Ave neighs/atom = 0.263333
Neighbor list builds = 330
Dangerous builds = 0
write_dump all custom dump.atom_info_ac_* id type x y z radius vx vy vz density #
run 123478
Setting up run at Thu Nov 24 03:48:09 2022

Memory usage per processor = 1082.6 Mbytes
    Step    Atoms         KinEng            CPU 
 3333908      300    0.010849935              0 
 3457386      300    0.011165682      1683.8992 
Loop time of 1683.9 on 40 procs for 123478 steps with 300 atoms, finish time Thu Nov 24 04:16:13 2022


Pair  time (%) = 0.278115 (0.0165161)
Neigh time (%) = 0.0594186 (0.00352863)
Comm  time (%) = 0.933698 (0.0554486)
Outpt time (%) = 0.000513851 (3.05156e-05)
Other time (%) = 1682.63 (99.9245)

Nlocal:    7.5 ave 95 max 0 min
Histogram: 35 1 0 0 2 0 0 0 0 2
Nghost:    4.725 ave 59 max 0 min
Histogram: 36 0 0 0 0 0 2 1 0 1
Neighs:    1.925 ave 29 max 0 min
Histogram: 36 0 0 1 1 0 0 0 1 1

Total # of neighbors = 77
Ave neighs/atom = 0.256667
Neighbor list builds = 330
Dangerous builds = 0
write_dump all custom dump.atom_info_ac_* id type x y z radius vx vy vz density #
run 123478
Setting up run at Thu Nov 24 04:16:13 2022

Memory usage per processor = 1082.6 Mbytes
    Step    Atoms         KinEng            CPU 
 3457386      300    0.011165682              0 
 3580864      300    0.012033035      1675.6434 
Loop time of 1675.64 on 40 procs for 123478 steps with 300 atoms, finish time Thu Nov 24 04:44:09 2022


Pair  time (%) = 0.275437 (0.0164377)
Neigh time (%) = 0.0590175 (0.00352208)
Comm  time (%) = 0.946992 (0.0565151)
Outpt time (%) = 0.000783277 (4.67448e-05)
Other time (%) = 1674.36 (99.9235)

Nlocal:    7.5 ave 94 max 0 min
Histogram: 34 2 0 1 1 0 0 0 0 2
Nghost:    4.725 ave 60 max 0 min
Histogram: 36 0 0 0 0 0 2 1 0 1
Neighs:    1.85 ave 27 max 0 min
Histogram: 36 0 0 1 1 0 0 0 0 2

Total # of neighbors = 74
Ave neighs/atom = 0.246667
Neighbor list builds = 330
Dangerous builds = 0
write_dump all custom dump.atom_info_ac_* id type x y z radius vx vy vz density #
run 123478
Setting up run at Thu Nov 24 04:44:09 2022

Memory usage per processor = 1082.6 Mbytes
    Step    Atoms         KinEng            CPU 
 3580864      300    0.012033035              0 
 3704342      300    0.013133949      1685.5136 
Loop time of 1685.51 on 40 procs for 123478 steps with 300 atoms, finish time Thu Nov 24 05:12:14 2022


Pair  time (%) = 0.276394 (0.0163982)
Neigh time (%) = 0.0594101 (0.00352475)
Comm  time (%) = 0.965066 (0.0572565)
Outpt time (%) = 0.000553426 (3.28343e-05)
Other time (%) = 1684.21 (99.9228)

Nlocal:    7.5 ave 94 max 0 min
Histogram: 35 0 1 1 1 0 0 0 0 2
Nghost:    4.7 ave 60 max 0 min
Histogram: 36 0 0 0 0 0 2 1 0 1
Neighs:    1.95 ave 28 max 0 min
Histogram: 36 0 0 2 0 0 0 0 0 2

Total # of neighbors = 78
Ave neighs/atom = 0.26
Neighbor list builds = 330
Dangerous builds = 0
write_dump all custom dump.atom_info_ac_* id type x y z radius vx vy vz density #
run 123478
Setting up run at Thu Nov 24 05:12:14 2022

Memory usage per processor = 1082.6 Mbytes
    Step    Atoms         KinEng            CPU 
 3704342      300    0.013133949              0 
 3827820      300    0.014452237      1689.3064 
Loop time of 1689.31 on 40 procs for 123478 steps with 300 atoms, finish time Thu Nov 24 05:40:24 2022


Pair  time (%) = 0.277208 (0.0164095)
Neigh time (%) = 0.0590626 (0.00349627)
Comm  time (%) = 0.803056 (0.0475376)
Outpt time (%) = 0.000891405 (5.27675e-05)
Other time (%) = 1688.17 (99.9325)

Nlocal:    7.5 ave 94 max 0 min
Histogram: 34 2 0 0 1 1 0 0 0 2
Nghost:    4.7 ave 59 max 0 min
Histogram: 35 1 0 0 0 0 2 1 0 1
Neighs:    1.875 ave 28 max 0 min
Histogram: 36 0 0 1 0 1 0 0 1 1

Total # of neighbors = 75
Ave neighs/atom = 0.25
Neighbor list builds = 330
Dangerous builds = 0
write_dump all custom dump.atom_info_ac_* id type x y z radius vx vy vz density #
run 123478
Setting up run at Thu Nov 24 05:40:24 2022

Memory usage per processor = 1082.6 Mbytes
    Step    Atoms         KinEng            CPU 
 3827820      300    0.014452237              0 
 3951298      300    0.015211396      1683.8291 
Loop time of 1683.83 on 40 procs for 123478 steps with 300 atoms, finish time Thu Nov 24 06:08:28 2022


Pair  time (%) = 0.276562 (0.0164246)
Neigh time (%) = 0.0593566 (0.0035251)
Comm  time (%) = 0.885559 (0.052592)
Outpt time (%) = 0.000486104 (2.88689e-05)
Other time (%) = 1682.61 (99.9274)

Nlocal:    7.5 ave 93 max 0 min
Histogram: 33 3 0 0 2 0 0 0 0 2
Nghost:    4.6 ave 57 max 0 min
Histogram: 36 0 0 0 0 0 1 2 0 1
Neighs:    2 ave 28 max 0 min
Histogram: 36 0 0 1 0 1 0 0 0 2

Total # of neighbors = 80
Ave neighs/atom = 0.266667
Neighbor list builds = 330
Dangerous builds = 0
write_dump all custom dump.atom_info_ac_* id type x y z radius vx vy vz density #
run 123478
Setting up run at Thu Nov 24 06:08:28 2022

Memory usage per processor = 1082.6 Mbytes
    Step    Atoms         KinEng            CPU 
 3951298      300    0.015211396              0 
 4074776      300     0.01576884      1694.2141 
Loop time of 1694.22 on 40 procs for 123478 steps with 300 atoms, finish time Thu Nov 24 06:36:42 2022


Pair  time (%) = 0.276727 (0.0163335)
Neigh time (%) = 0.0594424 (0.00350853)
Comm  time (%) = 1.06496 (0.0628582)
Outpt time (%) = 0.0124788 (0.000736549)
Other time (%) = 1692.81 (99.9166)

Nlocal:    7.5 ave 94 max 0 min
Histogram: 33 3 0 1 1 0 0 0 1 1
Nghost:    4.625 ave 53 max 0 min
Histogram: 36 0 0 0 0 0 0 2 1 1
Neighs:    2.05 ave 30 max 0 min
Histogram: 36 0 1 0 0 1 0 0 0 2

Total # of neighbors = 82
Ave neighs/atom = 0.273333
Neighbor list builds = 330
Dangerous builds = 0
write_dump all custom dump.atom_info_ac_* id type x y z radius vx vy vz density #
run 123478
Setting up run at Thu Nov 24 06:36:42 2022

Memory usage per processor = 1082.6 Mbytes
    Step    Atoms         KinEng            CPU 
 4074776      300     0.01576884              0 
 4198254      300    0.016652534      1683.1467 
Loop time of 1683.15 on 40 procs for 123478 steps with 300 atoms, finish time Thu Nov 24 07:04:45 2022


Pair  time (%) = 0.27836 (0.0165381)
Neigh time (%) = 0.0595294 (0.00353679)
Comm  time (%) = 1.00624 (0.0597833)
Outpt time (%) = 0.000837052 (4.97314e-05)
Other time (%) = 1681.8 (99.9201)

Nlocal:    7.5 ave 93 max 0 min
Histogram: 33 3 0 0 2 0 0 0 1 1
Nghost:    4.675 ave 55 max 0 min
Histogram: 36 0 0 0 0 0 0 2 1 1
Neighs:    1.95 ave 29 max 0 min
Histogram: 36 0 1 1 0 0 0 0 0 2

Total # of neighbors = 78
Ave neighs/atom = 0.26
Neighbor list builds = 330
Dangerous builds = 0
write_dump all custom dump.atom_info_ac_* id type x y z radius vx vy vz density #
run 123478
Setting up run at Thu Nov 24 07:04:45 2022

Memory usage per processor = 1082.6 Mbytes
    Step    Atoms         KinEng            CPU 
 4198254      300    0.016652534              0 
 4321732      300    0.018230287      1692.4098 
Loop time of 1692.41 on 40 procs for 123478 steps with 300 atoms, finish time Thu Nov 24 07:32:58 2022


Pair  time (%) = 0.278372 (0.0164483)
Neigh time (%) = 0.0592482 (0.00350081)
Comm  time (%) = 0.938142 (0.0554323)
Outpt time (%) = 0.000654227 (3.86566e-05)
Other time (%) = 1691.13 (99.9246)

Nlocal:    7.5 ave 94 max 0 min
Histogram: 33 3 0 0 2 0 0 0 1 1
Nghost:    4.6 ave 51 max 0 min
Histogram: 36 0 0 0 0 0 0 1 1 2
Neighs:    2.05 ave 31 max 0 min
Histogram: 36 0 1 0 1 0 0 0 0 2

Total # of neighbors = 82
Ave neighs/atom = 0.273333
Neighbor list builds = 330
Dangerous builds = 0
write_dump all custom dump.atom_info_ac_* id type x y z radius vx vy vz density #
run 123478
Setting up run at Thu Nov 24 07:32:58 2022

Memory usage per processor = 1082.6 Mbytes
    Step    Atoms         KinEng            CPU 
 4321732      300    0.018230287              0 
 4445210      300    0.018457567      1697.1123 
Loop time of 1697.11 on 40 procs for 123478 steps with 300 atoms, finish time Thu Nov 24 08:01:15 2022


Pair  time (%) = 0.279444 (0.0164658)
Neigh time (%) = 0.0593773 (0.00349873)
Comm  time (%) = 0.943882 (0.0556169)
Outpt time (%) = 0.000897212 (5.2867e-05)
Other time (%) = 1695.83 (99.9244)

Nlocal:    7.5 ave 94 max 0 min
Histogram: 34 2 0 1 1 0 0 0 1 1
Nghost:    4.55 ave 50 max 0 min
Histogram: 36 0 0 0 0 0 0 1 1 2
Neighs:    2.25 ave 37 max 0 min
Histogram: 36 0 2 0 0 0 0 0 1 1

Total # of neighbors = 90
Ave neighs/atom = 0.3
Neighbor list builds = 330
Dangerous builds = 0
write_dump all custom dump.atom_info_ac_* id type x y z radius vx vy vz density #
run 123478
Setting up run at Thu Nov 24 08:01:15 2022

Memory usage per processor = 1082.6 Mbytes
    Step    Atoms         KinEng            CPU 
 4445210      300    0.018457567              0 
 4568688      300     0.01925143      1688.0064 
Loop time of 1688.01 on 40 procs for 123478 steps with 300 atoms, finish time Thu Nov 24 08:29:23 2022


Pair  time (%) = 0.277982 (0.016468)
Neigh time (%) = 0.0595244 (0.00352631)
Comm  time (%) = 0.910139 (0.0539179)
Outpt time (%) = 0.000552599 (3.27368e-05)
Other time (%) = 1686.76 (99.9261)

Nlocal:    7.5 ave 93 max 0 min
Histogram: 32 4 0 2 0 0 0 0 1 1
Nghost:    4.425 ave 49 max 0 min
Histogram: 36 0 0 0 0 0 0 1 2 1
Neighs:    1.95 ave 33 max 0 min
Histogram: 36 0 1 1 0 0 0 0 1 1

Total # of neighbors = 78
Ave neighs/atom = 0.26
Neighbor list builds = 330
Dangerous builds = 0
write_dump all custom dump.atom_info_ac_* id type x y z radius vx vy vz density #
run 123478
Setting up run at Thu Nov 24 08:29:23 2022

Memory usage per processor = 1082.6 Mbytes
    Step    Atoms         KinEng            CPU 
 4568688      300     0.01925143              0 
 4692166      300    0.020446257      1679.5117 
Loop time of 1679.51 on 40 procs for 123478 steps with 300 atoms, finish time Thu Nov 24 08:57:23 2022


Pair  time (%) = 0.277913 (0.0165472)
Neigh time (%) = 0.059495 (0.0035424)
Comm  time (%) = 0.964744 (0.057442)
Outpt time (%) = 0.000883715 (5.26174e-05)
Other time (%) = 1678.21 (99.9224)

Nlocal:    7.5 ave 93 max 0 min
Histogram: 33 2 1 1 1 0 0 0 1 1
Nghost:    4.375 ave 47 max 0 min
Histogram: 36 0 0 0 0 0 0 1 0 3
Neighs:    1.75 ave 31 max 0 min
Histogram: 36 0 2 0 0 0 0 1 0 1

Total # of neighbors = 70
Ave neighs/atom = 0.233333
Neighbor list builds = 330
Dangerous builds = 0
write_dump all custom dump.atom_info_ac_* id type x y z radius vx vy vz density #
run 123478
Setting up run at Thu Nov 24 08:57:23 2022

Memory usage per processor = 1082.6 Mbytes
    Step    Atoms         KinEng            CPU 
 4692166      300    0.020446257              0 
 4815644      300    0.021076633      1694.8607 
Loop time of 1694.86 on 40 procs for 123478 steps with 300 atoms, finish time Thu Nov 24 09:25:38 2022


Pair  time (%) = 0.277542 (0.0163755)
Neigh time (%) = 0.0607404 (0.0035838)
Comm  time (%) = 1.06154 (0.062633)
Outpt time (%) = 0.000584072 (3.44614e-05)
Other time (%) = 1693.46 (99.9174)

Nlocal:    7.5 ave 92 max 0 min
Histogram: 33 3 0 1 1 0 0 0 1 1
Nghost:    4.175 ave 44 max 0 min
Histogram: 36 0 0 0 0 0 0 1 0 3
Neighs:    1.6 ave 27 max 0 min
Histogram: 36 1 1 0 0 0 0 0 1 1

Total # of neighbors = 64
Ave neighs/atom = 0.213333
Neighbor list builds = 336
Dangerous builds = 0
write_dump all custom dump.atom_info_ac_* id type x y z radius vx vy vz density #
run 123478
Setting up run at Thu Nov 24 09:25:38 2022

Memory usage per processor = 1082.6 Mbytes
    Step    Atoms         KinEng            CPU 
 4815644      300    0.021076633              0 
 4939122      300    0.021836866      1694.5332 
Loop time of 1694.53 on 40 procs for 123478 steps with 300 atoms, finish time Thu Nov 24 09:53:52 2022


Pair  time (%) = 0.276467 (0.0163152)
Neigh time (%) = 0.0598795 (0.00353368)
Comm  time (%) = 0.99762 (0.0588729)
Outpt time (%) = 0.000581056 (3.429e-05)
Other time (%) = 1693.2 (99.9212)

Nlocal:    7.5 ave 90 max 0 min
Histogram: 32 3 1 1 1 0 0 0 0 2
Nghost:    4.075 ave 46 max 0 min
Histogram: 36 0 0 0 0 0 1 0 1 2
Neighs:    1.6 ave 25 max 0 min
Histogram: 36 1 0 1 0 0 0 0 0 2

Total # of neighbors = 64
Ave neighs/atom = 0.213333
Neighbor list builds = 330
Dangerous builds = 0
write_dump all custom dump.atom_info_ac_* id type x y z radius vx vy vz density #
run 123478
Setting up run at Thu Nov 24 09:53:52 2022

Memory usage per processor = 1082.6 Mbytes
    Step    Atoms         KinEng            CPU 
 4939122      300    0.021836866              0 
 5062600      300    0.022674826      1698.9679 
Loop time of 1698.97 on 40 procs for 123478 steps with 300 atoms, finish time Thu Nov 24 10:22:11 2022


Pair  time (%) = 0.276495 (0.0162743)
Neigh time (%) = 0.0599112 (0.00352633)
Comm  time (%) = 0.929063 (0.0546839)
Outpt time (%) = 0.000841482 (4.9529e-05)
Other time (%) = 1697.7 (99.9255)

Nlocal:    7.5 ave 89 max 0 min
Histogram: 32 3 1 0 2 0 0 0 0 2
Nghost:    4.2 ave 46 max 0 min
Histogram: 36 0 0 0 0 0 1 0 1 2
Neighs:    1.775 ave 28 max 0 min
Histogram: 36 0 1 1 0 0 0 0 1 1

Total # of neighbors = 71
Ave neighs/atom = 0.236667
Neighbor list builds = 330
Dangerous builds = 0
write_dump all custom dump.atom_info_ac_* id type x y z radius vx vy vz density #
run 123478
Setting up run at Thu Nov 24 10:22:11 2022

Memory usage per processor = 1082.6 Mbytes
    Step    Atoms         KinEng            CPU 
 5062600      300    0.022674826              0 
 5186078      300    0.023336105      1682.3854 
Loop time of 1682.39 on 40 procs for 123478 steps with 300 atoms, finish time Thu Nov 24 10:50:14 2022


Pair  time (%) = 0.275516 (0.0163765)
Neigh time (%) = 0.0599438 (0.00356302)
Comm  time (%) = 1.04666 (0.0622127)
Outpt time (%) = 0.000516992 (3.07297e-05)
Other time (%) = 1681 (99.9178)

Nlocal:    7.5 ave 88 max 0 min
Histogram: 32 3 1 1 1 0 0 0 0 2
Nghost:    3.975 ave 41 max 0 min
Histogram: 36 0 0 0 0 0 1 0 0 3
Neighs:    1.725 ave 28 max 0 min
Histogram: 36 0 2 0 0 0 0 0 1 1

Total # of neighbors = 69
Ave neighs/atom = 0.23
Neighbor list builds = 330
Dangerous builds = 0
write_dump all custom dump.atom_info_ac_* id type x y z radius vx vy vz density #
run 123478
Setting up run at Thu Nov 24 10:50:14 2022

Memory usage per processor = 1082.6 Mbytes
    Step    Atoms         KinEng            CPU 
 5186078      300    0.023336105              0 
 5309556      300     0.02424989      1688.8694 
Loop time of 1688.99 on 40 procs for 123478 steps with 300 atoms, finish time Thu Nov 24 11:18:23 2022


Pair  time (%) = 0.276342 (0.0163613)
Neigh time (%) = 0.0599485 (0.00354936)
Comm  time (%) = 0.970555 (0.0574635)
Outpt time (%) = 0.000859934 (5.0914e-05)
Other time (%) = 1687.69 (99.9226)

Nlocal:    7.5 ave 87 max 0 min
Histogram: 32 3 1 1 1 0 0 0 1 1
Nghost:    3.925 ave 40 max 0 min
Histogram: 34 2 0 0 0 0 1 0 0 3
Neighs:    1.7 ave 26 max 0 min
Histogram: 36 1 1 0 0 0 0 0 0 2

Total # of neighbors = 68
Ave neighs/atom = 0.226667
Neighbor list builds = 330
Dangerous builds = 0
write_dump all custom dump.atom_info_ac_* id type x y z radius vx vy vz density #
run 123478
Setting up run at Thu Nov 24 11:18:23 2022

Memory usage per processor = 1082.6 Mbytes
    Step    Atoms         KinEng            CPU 
 5309556      300     0.02424989              0 
 5433034      300    0.025803269       1682.095 
Loop time of 1682.1 on 40 procs for 123478 steps with 300 atoms, finish time Thu Nov 24 11:46:25 2022


Pair  time (%) = 0.275362 (0.0163702)
Neigh time (%) = 0.0602265 (0.00358045)
Comm  time (%) = 0.894829 (0.0531973)
Outpt time (%) = 0.000574799 (3.41716e-05)
Other time (%) = 1680.86 (99.9268)

Nlocal:    7.5 ave 84 max 0 min
Histogram: 32 2 2 0 2 0 0 0 0 2
Nghost:    3.7 ave 40 max 0 min
Histogram: 35 1 0 0 0 0 1 0 0 3
Neighs:    1.55 ave 25 max 0 min
Histogram: 36 1 1 0 0 0 0 0 0 2

Total # of neighbors = 62
Ave neighs/atom = 0.206667
Neighbor list builds = 330
Dangerous builds = 0
write_dump all custom dump.atom_info_ac_* id type x y z radius vx vy vz density #
run 123478
Setting up run at Thu Nov 24 11:46:25 2022

Memory usage per processor = 1082.6 Mbytes
    Step    Atoms         KinEng            CPU 
 5433034      300    0.025803269              0 
 5556512      299       0.027219      1694.6869 
Loop time of 1694.71 on 40 procs for 123478 steps with 299 atoms, finish time Thu Nov 24 12:14:40 2022


Pair  time (%) = 0.273556 (0.0161418)
Neigh time (%) = 0.0596916 (0.00352224)
Comm  time (%) = 0.85053 (0.0501874)
Outpt time (%) = 0.000950902 (5.61102e-05)
Other time (%) = 1693.52 (99.9301)

Nlocal:    7.475 ave 85 max 0 min
Histogram: 32 1 3 1 1 0 0 0 0 2
Nghost:    3.65 ave 40 max 0 min
Histogram: 36 0 0 0 0 0 0 1 0 3
Neighs:    1.625 ave 28 max 0 min
Histogram: 36 1 1 0 0 0 0 0 0 2

Total # of neighbors = 65
Ave neighs/atom = 0.217391
Neighbor list builds = 330
Dangerous builds = 0
write_dump all custom dump.atom_info_ac_* id type x y z radius vx vy vz density #
run 123478
Setting up run at Thu Nov 24 12:14:40 2022

Memory usage per processor = 1082.6 Mbytes
    Step    Atoms         KinEng            CPU 
 5556512      299       0.027219              0 
 5679990      299    0.027014045       1692.146 
Loop time of 1692.15 on 40 procs for 123478 steps with 299 atoms, finish time Thu Nov 24 12:42:52 2022


Pair  time (%) = 0.273421 (0.0161583)
Neigh time (%) = 0.0601344 (0.00355374)
Comm  time (%) = 0.93414 (0.0552044)
Outpt time (%) = 0.000620564 (3.66732e-05)
Other time (%) = 1690.88 (99.925)

Nlocal:    7.475 ave 86 max 0 min
Histogram: 32 2 2 1 0 1 0 0 1 1
Nghost:    3.7 ave 38 max 0 min
Histogram: 36 0 0 0 0 0 0 1 0 3
Neighs:    1.7 ave 32 max 0 min
Histogram: 37 1 0 0 0 0 0 1 0 1

Total # of neighbors = 68
Ave neighs/atom = 0.227425
Neighbor list builds = 330
Dangerous builds = 0
write_dump all custom dump.atom_info_ac_* id type x y z radius vx vy vz density #
run 123478
Setting up run at Thu Nov 24 12:42:52 2022

Memory usage per processor = 1082.6 Mbytes
    Step    Atoms         KinEng            CPU 
 5679990      299    0.027014045              0 
 5803468      299    0.027783288      1697.6194 
Loop time of 1697.62 on 40 procs for 123478 steps with 299 atoms, finish time Thu Nov 24 13:11:10 2022


Pair  time (%) = 0.273672 (0.0161209)
Neigh time (%) = 0.0602855 (0.00355118)
Comm  time (%) = 0.919487 (0.0541633)
Outpt time (%) = 0.000675263 (3.97771e-05)
Other time (%) = 1696.37 (99.9261)

Nlocal:    7.475 ave 85 max 0 min
Histogram: 32 2 2 1 1 0 0 0 0 2
Nghost:    3.45 ave 34 max 0 min
Histogram: 36 0 0 0 0 0 0 0 1 3
Neighs:    1.75 ave 35 max 0 min
Histogram: 37 1 0 0 0 0 0 1 0 1

Total # of neighbors = 70
Ave neighs/atom = 0.234114
Neighbor list builds = 330
Dangerous builds = 0
write_dump all custom dump.atom_info_ac_* id type x y z radius vx vy vz density #
run 123478
Setting up run at Thu Nov 24 13:11:10 2022

Memory usage per processor = 1082.6 Mbytes
    Step    Atoms         KinEng            CPU 
 5803468      299    0.027783288              0 
 5926946      299    0.028706726      1751.7746 
Loop time of 1751.77 on 40 procs for 123478 steps with 299 atoms, finish time Thu Nov 24 13:40:22 2022


Pair  time (%) = 0.272693 (0.0155667)
Neigh time (%) = 0.0600674 (0.00342895)
Comm  time (%) = 1.05769 (0.0603779)
Outpt time (%) = 0.000852753 (4.86794e-05)
Other time (%) = 1750.38 (99.9206)

Nlocal:    7.475 ave 84 max 0 min
Histogram: 32 2 2 0 2 0 0 0 0 2
Nghost:    3.575 ave 39 max 0 min
Histogram: 36 0 0 0 0 0 0 1 2 1
Neighs:    1.725 ave 35 max 0 min
Histogram: 37 1 0 0 0 0 0 1 0 1

Total # of neighbors = 69
Ave neighs/atom = 0.230769
Neighbor list builds = 330
Dangerous builds = 0
write_dump all custom dump.atom_info_ac_* id type x y z radius vx vy vz density #
run 123478
Setting up run at Thu Nov 24 13:40:22 2022

Memory usage per processor = 1082.6 Mbytes
    Step    Atoms         KinEng            CPU 
 5926946      299    0.028706726              0 
 6050424      299    0.029673557      1727.2584 
Loop time of 1727.26 on 40 procs for 123478 steps with 299 atoms, finish time Thu Nov 24 14:09:09 2022


Pair  time (%) = 0.272489 (0.0157758)
Neigh time (%) = 0.0601218 (0.00348076)
Comm  time (%) = 7.7631 (0.449446)
Outpt time (%) = 0.000657752 (3.80807e-05)
Other time (%) = 1719.16 (99.5313)

Nlocal:    7.475 ave 84 max 0 min
Histogram: 32 2 1 2 1 0 0 0 0 2
Nghost:    3.45 ave 38 max 0 min
Histogram: 36 0 0 0 0 0 0 2 1 1
Neighs:    1.7 ave 35 max 0 min
Histogram: 37 1 0 0 0 0 1 0 0 1

Total # of neighbors = 68
Ave neighs/atom = 0.227425
Neighbor list builds = 330
Dangerous builds = 0
write_dump all custom dump.atom_info_ac_* id type x y z radius vx vy vz density #
run 123478
Setting up run at Thu Nov 24 14:09:09 2022

Memory usage per processor = 1082.6 Mbytes
    Step    Atoms         KinEng            CPU 
 6050424      299    0.029673557              0 
 6173902      299    0.030767538      1689.3626 
Loop time of 1689.36 on 40 procs for 123478 steps with 299 atoms, finish time Thu Nov 24 14:37:19 2022


Pair  time (%) = 0.272028 (0.0161024)
Neigh time (%) = 0.0602055 (0.0035638)
Comm  time (%) = 1.06941 (0.0633023)
Outpt time (%) = 0.000954053 (5.64741e-05)
Other time (%) = 1687.96 (99.917)

Nlocal:    7.475 ave 83 max 0 min
Histogram: 32 1 3 2 0 0 0 0 0 2
Nghost:    3.7 ave 37 max 0 min
Histogram: 36 0 0 0 0 0 0 0 0 4
Neighs:    1.675 ave 33 max 0 min
Histogram: 36 1 1 0 0 0 1 0 0 1

Total # of neighbors = 67
Ave neighs/atom = 0.22408
Neighbor list builds = 330
Dangerous builds = 0
write_dump all custom dump.atom_info_ac_* id type x y z radius vx vy vz density #
run 123478
Setting up run at Thu Nov 24 14:37:19 2022

Memory usage per processor = 1082.6 Mbytes
    Step    Atoms         KinEng            CPU 
 6173902      299    0.030767538              0 
 6297380      299     0.03129418      1712.3353 
Loop time of 1712.34 on 40 procs for 123478 steps with 299 atoms, finish time Thu Nov 24 15:05:51 2022


Pair  time (%) = 0.269853 (0.0157594)
Neigh time (%) = 0.0600908 (0.00350929)
Comm  time (%) = 0.951958 (0.0555941)
Outpt time (%) = 0.000667832 (3.90012e-05)
Other time (%) = 1711.05 (99.9251)

Nlocal:    7.475 ave 80 max 0 min
Histogram: 32 2 2 1 0 0 1 0 0 2
Nghost:    3.55 ave 36 max 0 min
Histogram: 36 0 0 0 0 0 0 0 2 2
Neighs:    1.625 ave 33 max 0 min
Histogram: 37 0 1 0 0 0 1 0 0 1

Total # of neighbors = 65
Ave neighs/atom = 0.217391
Neighbor list builds = 330
Dangerous builds = 0
write_dump all custom dump.atom_info_ac_* id type x y z radius vx vy vz density #
run 123478
Setting up run at Thu Nov 24 15:05:51 2022

Memory usage per processor = 1082.6 Mbytes
    Step    Atoms         KinEng            CPU 
 6297380      299     0.03129418              0 
 6420858      299    0.032154084      1748.2074 
Loop time of 1748.21 on 40 procs for 123478 steps with 299 atoms, finish time Thu Nov 24 15:34:59 2022


Pair  time (%) = 0.27071 (0.015485)
Neigh time (%) = 0.0598387 (0.00342286)
Comm  time (%) = 0.896737 (0.0512946)
Outpt time (%) = 0.000922392 (5.27621e-05)
Other time (%) = 1746.98 (99.9297)

Nlocal:    7.475 ave 81 max 0 min
Histogram: 32 1 4 0 1 0 0 0 0 2
Nghost:    3.725 ave 37 max 0 min
Histogram: 35 1 0 0 0 0 0 1 0 3
Neighs:    1.575 ave 32 max 0 min
Histogram: 37 1 0 0 0 0 1 0 0 1

Total # of neighbors = 63
Ave neighs/atom = 0.210702
Neighbor list builds = 330
Dangerous builds = 0
write_dump all custom dump.atom_info_ac_* id type x y z radius vx vy vz density #
run 123478
Setting up run at Thu Nov 24 15:34:59 2022

Memory usage per processor = 1082.6 Mbytes
    Step    Atoms         KinEng            CPU 
 6420858      299    0.032154084              0 
 6544336      299    0.033000805      1756.9947 
Loop time of 1757 on 40 procs for 123478 steps with 299 atoms, finish time Thu Nov 24 16:04:16 2022


Pair  time (%) = 0.269628 (0.015346)
Neigh time (%) = 0.0600438 (0.00341742)
Comm  time (%) = 1.07137 (0.0609771)
Outpt time (%) = 0.000598183 (3.40458e-05)
Other time (%) = 1755.59 (99.9202)

Nlocal:    7.475 ave 79 max 0 min
Histogram: 32 2 1 1 1 1 0 0 0 2
Nghost:    3.525 ave 40 max 0 min
Histogram: 36 0 0 0 0 0 0 2 1 1
Neighs:    1.475 ave 27 max 0 min
Histogram: 37 0 0 1 0 0 0 1 0 1

Total # of neighbors = 59
Ave neighs/atom = 0.197324
Neighbor list builds = 330
Dangerous builds = 0
write_dump all custom dump.atom_info_ac_* id type x y z radius vx vy vz density #
run 123478
Setting up run at Thu Nov 24 16:04:16 2022

Memory usage per processor = 1082.6 Mbytes
    Step    Atoms         KinEng            CPU 
 6544336      299    0.033000805              0 
 6667814      299    0.033908605      1732.6721 
Loop time of 1732.67 on 40 procs for 123478 steps with 299 atoms, finish time Thu Nov 24 16:33:09 2022


Pair  time (%) = 0.26736 (0.0154305)
Neigh time (%) = 0.0600839 (0.0034677)
Comm  time (%) = 1.10733 (0.0639089)
Outpt time (%) = 0.000885462 (5.11038e-05)
Other time (%) = 1731.24 (99.9171)

Nlocal:    7.475 ave 78 max 0 min
Histogram: 32 1 3 1 0 0 1 0 0 2
Nghost:    3.575 ave 37 max 0 min
Histogram: 36 0 0 0 0 0 0 1 1 2
Neighs:    1.325 ave 21 max 0 min
Histogram: 37 0 0 0 1 0 0 0 0 2

Total # of neighbors = 53
Ave neighs/atom = 0.177258
Neighbor list builds = 330
Dangerous builds = 0
write_dump all custom dump.atom_info_ac_* id type x y z radius vx vy vz density #
run 123478
Setting up run at Thu Nov 24 16:33:09 2022

Memory usage per processor = 1082.6 Mbytes
    Step    Atoms         KinEng            CPU 
 6667814      299    0.033908605              0 
 6791292      299    0.034837706      1690.3984 
Loop time of 1690.4 on 40 procs for 123478 steps with 299 atoms, finish time Thu Nov 24 17:01:20 2022


Pair  time (%) = 0.266957 (0.0157926)
Neigh time (%) = 0.0602671 (0.00356526)
Comm  time (%) = 0.957742 (0.0566578)
Outpt time (%) = 0.000514519 (3.04377e-05)
Other time (%) = 1689.11 (99.924)

Nlocal:    7.475 ave 75 max 0 min
Histogram: 32 0 3 2 0 1 0 0 0 2
Nghost:    3.45 ave 39 max 0 min
Histogram: 36 0 0 0 0 0 0 2 0 2
Neighs:    1.35 ave 21 max 0 min
Histogram: 36 1 0 1 0 0 0 0 0 2

Total # of neighbors = 54
Ave neighs/atom = 0.180602
Neighbor list builds = 330
Dangerous builds = 0
write_dump all custom dump.atom_info_ac_* id type x y z radius vx vy vz density #
run 123478
Setting up run at Thu Nov 24 17:01:20 2022

Memory usage per processor = 1082.6 Mbytes
    Step    Atoms         KinEng            CPU 
 6791292      299    0.034837706              0 
 6914770      299    0.035776074       1692.505 
Loop time of 1692.51 on 40 procs for 123478 steps with 299 atoms, finish time Thu Nov 24 17:29:32 2022


Pair  time (%) = 0.2685 (0.015864)
Neigh time (%) = 0.0602572 (0.00356022)
Comm  time (%) = 1.12728 (0.0666037)
Outpt time (%) = 0.0132371 (0.000782099)
Other time (%) = 1691.04 (99.9132)

Nlocal:    7.475 ave 75 max 0 min
Histogram: 32 0 3 2 0 1 0 0 0 2
Nghost:    3.425 ave 38 max 0 min
Histogram: 36 0 0 0 0 0 0 2 0 2
Neighs:    1.3 ave 20 max 0 min
Histogram: 35 2 0 0 1 0 0 0 0 2

Total # of neighbors = 52
Ave neighs/atom = 0.173913
Neighbor list builds = 330
Dangerous builds = 0
write_dump all custom dump.atom_info_ac_* id type x y z radius vx vy vz density #
run 123478
Setting up run at Thu Nov 24 17:29:32 2022

Memory usage per processor = 1082.6 Mbytes
    Step    Atoms         KinEng            CPU 
 6914770      299    0.035776074              0 
 7038248      299    0.037033595      1701.8751 
Loop time of 1701.88 on 40 procs for 123478 steps with 299 atoms, finish time Thu Nov 24 17:57:54 2022


Pair  time (%) = 0.267337 (0.0157084)
Neigh time (%) = 0.0601487 (0.00353426)
Comm  time (%) = 1.05889 (0.062219)
Outpt time (%) = 0.000864607 (5.08032e-05)
Other time (%) = 1700.49 (99.9185)

Nlocal:    7.475 ave 75 max 0 min
Histogram: 32 1 2 1 1 0 1 0 0 2
Nghost:    3.5 ave 40 max 0 min
Histogram: 36 0 0 0 0 0 1 1 1 1
Neighs:    1.25 ave 19 max 0 min
Histogram: 35 2 0 0 1 0 0 0 0 2

Total # of neighbors = 50
Ave neighs/atom = 0.167224
Neighbor list builds = 330
Dangerous builds = 0
write_dump all custom dump.atom_info_ac_* id type x y z radius vx vy vz density #
run 123478
Setting up run at Thu Nov 24 17:57:54 2022

Memory usage per processor = 1082.6 Mbytes
    Step    Atoms         KinEng            CPU 
 7038248      299    0.037033595              0 
 7161726      299    0.037536146      1688.3878 
Loop time of 1688.39 on 40 procs for 123478 steps with 299 atoms, finish time Thu Nov 24 18:26:03 2022


Pair  time (%) = 0.267406 (0.0158379)
Neigh time (%) = 0.0602828 (0.00357044)
Comm  time (%) = 1.03209 (0.0611288)
Outpt time (%) = 0.00066122 (3.91628e-05)
Other time (%) = 1687.03 (99.9194)

Nlocal:    7.475 ave 75 max 0 min
Histogram: 32 0 3 2 0 1 0 0 0 2
Nghost:    3.7 ave 44 max 0 min
Histogram: 36 0 0 0 0 0 1 2 0 1
Neighs:    1.275 ave 20 max 0 min
Histogram: 36 1 0 0 1 0 0 0 0 2

Total # of neighbors = 51
Ave neighs/atom = 0.170569
Neighbor list builds = 330
Dangerous builds = 0
write_dump all custom dump.atom_info_ac_* id type x y z radius vx vy vz density #
run 123478
Setting up run at Thu Nov 24 18:26:03 2022

Memory usage per processor = 1082.6 Mbytes
    Step    Atoms         KinEng            CPU 
 7161726      299    0.037536146              0 
 7285204      299    0.038579833      1691.1698 
Loop time of 1691.17 on 40 procs for 123478 steps with 299 atoms, finish time Thu Nov 24 18:54:14 2022


Pair  time (%) = 0.265826 (0.0157185)
Neigh time (%) = 0.0601438 (0.00355634)
Comm  time (%) = 1.02966 (0.0608844)
Outpt time (%) = 0.000883527 (5.22435e-05)
Other time (%) = 1689.81 (99.9198)

Nlocal:    7.475 ave 72 max 0 min
Histogram: 32 0 3 0 2 1 0 0 0 2
Nghost:    3.65 ave 40 max 0 min
Histogram: 36 0 0 0 0 0 0 1 1 2
Neighs:    1.275 ave 20 max 0 min
Histogram: 35 1 1 1 0 0 0 0 1 1

Total # of neighbors = 51
Ave neighs/atom = 0.170569
Neighbor list builds = 330
Dangerous builds = 0
write_dump all custom dump.atom_info_ac_* id type x y z radius vx vy vz density #
run 123478
Setting up run at Thu Nov 24 18:54:14 2022

Memory usage per processor = 1082.6 Mbytes
    Step    Atoms         KinEng            CPU 
 7285204      299    0.038579833              0 
 7408682      299    0.039435804      1693.8515 
Loop time of 1693.85 on 40 procs for 123478 steps with 299 atoms, finish time Thu Nov 24 19:22:28 2022


Pair  time (%) = 0.266639 (0.0157416)
Neigh time (%) = 0.0607538 (0.00358672)
Comm  time (%) = 1.0115 (0.059716)
Outpt time (%) = 0.000599313 (3.53817e-05)
Other time (%) = 1692.51 (99.9209)

Nlocal:    7.475 ave 71 max 0 min
Histogram: 32 0 3 2 0 0 0 1 0 2
Nghost:    3.55 ave 40 max 0 min
Histogram: 36 0 0 0 0 0 1 1 0 2
Neighs:    1.275 ave 17 max 0 min
Histogram: 36 0 1 0 0 1 0 0 0 2

Total # of neighbors = 51
Ave neighs/atom = 0.170569
Neighbor list builds = 332
Dangerous builds = 0
write_dump all custom dump.atom_info_ac_* id type x y z radius vx vy vz density #
run 123478
Setting up run at Thu Nov 24 19:22:28 2022

Memory usage per processor = 1082.6 Mbytes
    Step    Atoms         KinEng            CPU 
 7408682      299    0.039435804              0 
 7532160      298    0.040036082       1682.855 
Loop time of 1682.85 on 40 procs for 123478 steps with 298 atoms, finish time Thu Nov 24 19:50:31 2022


Pair  time (%) = 0.265159 (0.0157565)
Neigh time (%) = 0.0607485 (0.00360985)
Comm  time (%) = 0.823193 (0.0489165)
Outpt time (%) = 0.000863556 (5.13149e-05)
Other time (%) = 1681.71 (99.9317)

Nlocal:    7.45 ave 71 max 0 min
Histogram: 32 0 1 4 0 1 0 0 0 2
Nghost:    3.55 ave 40 max 0 min
Histogram: 36 0 0 0 0 0 1 1 0 2
Neighs:    1.225 ave 18 max 0 min
Histogram: 34 2 1 1 0 0 0 0 1 1

Total # of neighbors = 49
Ave neighs/atom = 0.16443
Neighbor list builds = 332
Dangerous builds = 0
write_dump all custom dump.atom_info_ac_* id type x y z radius vx vy vz density #
run 123478
Setting up run at Thu Nov 24 19:50:31 2022

Memory usage per processor = 1082.6 Mbytes
    Step    Atoms         KinEng            CPU 
 7532160      298    0.040036082              0 
 7655638      298      0.0406359       1745.446 
Loop time of 1745.45 on 40 procs for 123478 steps with 298 atoms, finish time Thu Nov 24 20:19:36 2022


Pair  time (%) = 0.264317 (0.0151433)
Neigh time (%) = 0.0604484 (0.00346321)
Comm  time (%) = 0.959515 (0.0549725)
Outpt time (%) = 0.000620256 (3.55357e-05)
Other time (%) = 1744.16 (99.9264)

Nlocal:    7.45 ave 71 max 0 min
Histogram: 32 2 1 1 1 0 0 1 0 2
Nghost:    3.675 ave 39 max 0 min
Histogram: 36 0 0 0 0 0 0 1 1 2
Neighs:    1.3 ave 21 max 0 min
Histogram: 36 1 0 0 1 0 0 1 0 1

Total # of neighbors = 52
Ave neighs/atom = 0.174497
Neighbor list builds = 330
Dangerous builds = 0
write_dump all custom dump.atom_info_ac_* id type x y z radius vx vy vz density #
run 123478
Setting up run at Thu Nov 24 20:19:37 2022

Memory usage per processor = 1082.6 Mbytes
    Step    Atoms         KinEng            CPU 
 7655638      298      0.0406359              0 
 7779116      298    0.041314859      1759.8211 
Loop time of 1759.82 on 40 procs for 123478 steps with 298 atoms, finish time Thu Nov 24 20:48:56 2022


Pair  time (%) = 0.265965 (0.0151132)
Neigh time (%) = 0.0598698 (0.00340204)
Comm  time (%) = 1.33578 (0.0759045)
Outpt time (%) = 0.000885766 (5.03327e-05)
Other time (%) = 1758.16 (99.9055)

Nlocal:    7.45 ave 69 max 0 min
Histogram: 32 0 2 2 1 1 0 0 0 2
Nghost:    3.65 ave 38 max 0 min
Histogram: 35 1 0 0 0 0 1 0 1 2
Neighs:    1.225 ave 22 max 0 min
Histogram: 36 1 0 0 1 1 0 0 0 1

Total # of neighbors = 49
Ave neighs/atom = 0.16443
Neighbor list builds = 330
Dangerous builds = 0
write_dump all custom dump.atom_info_ac_* id type x y z radius vx vy vz density #
run 123478
Setting up run at Thu Nov 24 20:48:56 2022

Memory usage per processor = 1082.6 Mbytes
    Step    Atoms         KinEng            CPU 
 7779116      298    0.041314859              0 
 7902594      298    0.042610605      1718.6035 
Loop time of 1718.6 on 40 procs for 123478 steps with 298 atoms, finish time Thu Nov 24 21:17:35 2022


Pair  time (%) = 0.265069 (0.0154235)
Neigh time (%) = 0.0626548 (0.00364568)
Comm  time (%) = 1.50851 (0.0877755)
Outpt time (%) = 0.000683506 (3.9771e-05)
Other time (%) = 1716.77 (99.8931)

Nlocal:    7.45 ave 70 max 0 min
Histogram: 32 0 3 1 1 0 0 1 0 2
Nghost:    3.675 ave 39 max 0 min
Histogram: 35 1 0 0 0 0 1 1 0 2
Neighs:    1.325 ave 20 max 0 min
Histogram: 35 2 0 0 0 0 1 1 0 1

Total # of neighbors = 53
Ave neighs/atom = 0.177852
Neighbor list builds = 341
Dangerous builds = 0
write_dump all custom dump.atom_info_ac_* id type x y z radius vx vy vz density #
run 123478
Setting up run at Thu Nov 24 21:17:35 2022

Memory usage per processor = 1082.6 Mbytes
    Step    Atoms         KinEng            CPU 
 7902594      298    0.042610605              0 
 8026072      297    0.043356878      1710.0836 
Loop time of 1710.08 on 40 procs for 123478 steps with 297 atoms, finish time Thu Nov 24 21:46:05 2022


Pair  time (%) = 0.265566 (0.0155294)
Neigh time (%) = 0.0609609 (0.00356479)
Comm  time (%) = 1.13578 (0.0664165)
Outpt time (%) = 0.000519031 (3.03512e-05)
Other time (%) = 1708.62 (99.9145)

Nlocal:    7.425 ave 68 max 0 min
Histogram: 32 0 2 1 2 0 1 0 0 2
Nghost:    3.6 ave 38 max 0 min
Histogram: 36 0 0 0 0 0 1 0 1 2
Neighs:    1.425 ave 21 max 0 min
Histogram: 35 2 0 0 0 1 0 1 0 1

Total # of neighbors = 57
Ave neighs/atom = 0.191919
Neighbor list builds = 334
Dangerous builds = 0
write_dump all custom dump.atom_info_ac_* id type x y z radius vx vy vz density #
run 123478
Setting up run at Thu Nov 24 21:46:05 2022

Memory usage per processor = 1082.6 Mbytes
    Step    Atoms         KinEng            CPU 
 8026072      297    0.043356878              0 
 8149550      296    0.043516472      1693.3472 
Loop time of 1693.35 on 40 procs for 123478 steps with 296 atoms, finish time Thu Nov 24 22:14:19 2022


Pair  time (%) = 0.265198 (0.0156611)
Neigh time (%) = 0.060471 (0.00357109)
Comm  time (%) = 1.00516 (0.0593596)
Outpt time (%) = 0.000758151 (4.47723e-05)
Other time (%) = 1692.02 (99.9214)

Nlocal:    7.4 ave 68 max 0 min
Histogram: 32 1 2 0 1 1 1 0 0 2
Nghost:    3.8 ave 41 max 0 min
Histogram: 36 0 0 0 0 0 1 1 0 2
Neighs:    1.5 ave 22 max 0 min
Histogram: 35 1 1 0 0 1 1 0 0 1

Total # of neighbors = 60
Ave neighs/atom = 0.202703
Neighbor list builds = 330
Dangerous builds = 0
write_dump all custom dump.atom_info_ac_* id type x y z radius vx vy vz density #
run 123478
Setting up run at Thu Nov 24 22:14:19 2022

Memory usage per processor = 1082.6 Mbytes
    Step    Atoms         KinEng            CPU 
 8149550      296    0.043516472              0 
 8273028      296    0.044095704      1694.5566 
Loop time of 1694.56 on 40 procs for 123478 steps with 296 atoms, finish time Thu Nov 24 22:42:33 2022


Pair  time (%) = 0.266272 (0.0157134)
Neigh time (%) = 0.0602775 (0.00355712)
Comm  time (%) = 0.889619 (0.0524986)
Outpt time (%) = 0.000615098 (3.62984e-05)
Other time (%) = 1693.34 (99.9282)

Nlocal:    7.4 ave 68 max 0 min
Histogram: 32 1 0 2 2 0 1 0 0 2
Nghost:    3.45 ave 39 max 0 min
Histogram: 36 0 0 0 0 0 1 1 0 2
Neighs:    1.4 ave 20 max 0 min
Histogram: 34 1 1 1 1 0 0 1 0 1

Total # of neighbors = 56
Ave neighs/atom = 0.189189
Neighbor list builds = 330
Dangerous builds = 0
write_dump all custom dump.atom_info_ac_* id type x y z radius vx vy vz density #
run 123478
Setting up run at Thu Nov 24 22:42:33 2022

Memory usage per processor = 1082.6 Mbytes
    Step    Atoms         KinEng            CPU 
 8273028      296    0.044095704              0 
 8396506      296    0.044826796      1691.2494 
Loop time of 1691.25 on 40 procs for 123478 steps with 296 atoms, finish time Thu Nov 24 23:10:45 2022


Pair  time (%) = 0.268188 (0.0158574)
Neigh time (%) = 0.0618892 (0.00365938)
Comm  time (%) = 0.991283 (0.0586125)
Outpt time (%) = 0.000992136 (5.86629e-05)
Other time (%) = 1689.93 (99.9218)

Nlocal:    7.4 ave 68 max 0 min
Histogram: 32 1 0 3 1 0 1 0 0 2
Nghost:    3.6 ave 42 max 0 min
Histogram: 36 0 0 0 0 0 2 0 1 1
Neighs:    1.35 ave 18 max 0 min
Histogram: 33 3 1 0 0 0 1 0 1 1

Total # of neighbors = 54
Ave neighs/atom = 0.182432
Neighbor list builds = 335
Dangerous builds = 0
write_dump all custom dump.atom_info_ac_* id type x y z radius vx vy vz density #
run 123478
Setting up run at Thu Nov 24 23:10:45 2022

Memory usage per processor = 1082.6 Mbytes
    Step    Atoms         KinEng            CPU 
 8396506      296    0.044826796              0 
 8519984      296    0.045277035      1708.9217 
Loop time of 1708.92 on 40 procs for 123478 steps with 296 atoms, finish time Thu Nov 24 23:39:14 2022


Pair  time (%) = 0.267004 (0.0156241)
Neigh time (%) = 0.0616983 (0.00361036)
Comm  time (%) = 1.13519 (0.0664271)
Outpt time (%) = 0.000721068 (4.21943e-05)
Other time (%) = 1707.46 (99.9143)

Nlocal:    7.4 ave 68 max 0 min
Histogram: 32 2 1 1 0 1 0 0 1 2
Nghost:    3.45 ave 42 max 0 min
Histogram: 36 0 0 0 0 1 1 0 1 1
Neighs:    1.325 ave 17 max 0 min
Histogram: 35 1 1 0 0 0 0 1 0 2

Total # of neighbors = 53
Ave neighs/atom = 0.179054
Neighbor list builds = 335
Dangerous builds = 0
write_dump all custom dump.atom_info_ac_* id type x y z radius vx vy vz density #
run 123478
Setting up run at Thu Nov 24 23:39:14 2022

Memory usage per processor = 1082.6 Mbytes
    Step    Atoms         KinEng            CPU 
 8519984      296    0.045277035              0 
 8643462      295    0.045936389      1703.1393 
Loop time of 1703.14 on 40 procs for 123478 steps with 295 atoms, finish time Fri Nov 25 00:07:37 2022


Pair  time (%) = 0.267842 (0.0157264)
Neigh time (%) = 0.0615021 (0.0036111)
Comm  time (%) = 1.0734 (0.0630245)
Outpt time (%) = 0.000953122 (5.59627e-05)
Other time (%) = 1701.74 (99.9176)

Nlocal:    7.375 ave 68 max 0 min
Histogram: 32 0 2 2 0 1 1 0 0 2
Nghost:    3.575 ave 40 max 0 min
Histogram: 34 2 0 0 0 0 2 0 1 1
Neighs:    1.35 ave 18 max 0 min
Histogram: 32 5 0 0 0 1 0 0 1 1

Total # of neighbors = 54
Ave neighs/atom = 0.183051
Neighbor list builds = 335
Dangerous builds = 0
write_dump all custom dump.atom_info_ac_* id type x y z radius vx vy vz density #
run 123478
Setting up run at Fri Nov 25 00:07:37 2022

Memory usage per processor = 1082.6 Mbytes
    Step    Atoms         KinEng            CPU 
 8643462      295    0.045936389              0 
 8766940      295    0.046717048      1696.7415 
Loop time of 1696.74 on 40 procs for 123478 steps with 295 atoms, finish time Fri Nov 25 00:35:54 2022


Pair  time (%) = 0.266588 (0.0157117)
Neigh time (%) = 0.0619834 (0.00365309)
Comm  time (%) = 1.00991 (0.0595206)
Outpt time (%) = 0.000698107 (4.1144e-05)
Other time (%) = 1695.4 (99.9211)

Nlocal:    7.375 ave 67 max 0 min
Histogram: 32 1 0 3 0 2 0 0 0 2
Nghost:    3.55 ave 42 max 0 min
Histogram: 36 0 0 0 0 0 1 1 1 1
Neighs:    1.3 ave 17 max 0 min
Histogram: 34 2 1 0 0 1 0 0 1 1

Total # of neighbors = 52
Ave neighs/atom = 0.176271
Neighbor list builds = 336
Dangerous builds = 0
write_dump all custom dump.atom_info_ac_* id type x y z radius vx vy vz density #
run 123478
Setting up run at Fri Nov 25 00:35:54 2022

Memory usage per processor = 1082.6 Mbytes
    Step    Atoms         KinEng            CPU 
 8766940      295    0.046717048              0 
 8890418      295    0.047027604      1707.7906 
Loop time of 1707.79 on 40 procs for 123478 steps with 295 atoms, finish time Fri Nov 25 01:04:22 2022


Pair  time (%) = 0.264992 (0.0155167)
Neigh time (%) = 0.0618872 (0.00362382)
Comm  time (%) = 1.07878 (0.0631683)
Outpt time (%) = 0.000650208 (3.8073e-05)
Other time (%) = 1706.38 (99.9177)

Nlocal:    7.375 ave 68 max 0 min
Histogram: 32 1 2 0 1 1 0 1 0 2
Nghost:    3.7 ave 44 max 0 min
Histogram: 36 0 0 0 0 0 1 2 0 1
Neighs:    1.075 ave 17 max 0 min
Histogram: 37 0 0 0 0 1 0 0 1 1

Total # of neighbors = 43
Ave neighs/atom = 0.145763
Neighbor list builds = 337
Dangerous builds = 0
write_dump all custom dump.atom_info_ac_* id type x y z radius vx vy vz density #
run 123478
Setting up run at Fri Nov 25 01:04:22 2022

Memory usage per processor = 1082.6 Mbytes
    Step    Atoms         KinEng            CPU 
 8890418      295    0.047027604              0 
 9013896      295     0.04762227      1697.6267 
Loop time of 1697.63 on 40 procs for 123478 steps with 295 atoms, finish time Fri Nov 25 01:32:39 2022


Pair  time (%) = 0.264408 (0.0155752)
Neigh time (%) = 0.0622361 (0.00366607)
Comm  time (%) = 1.07747 (0.0634692)
Outpt time (%) = 0.000845093 (4.97808e-05)
Other time (%) = 1696.22 (99.9172)

Nlocal:    7.375 ave 66 max 0 min
Histogram: 32 0 1 1 3 0 1 0 0 2
Nghost:    3.7 ave 42 max 0 min
Histogram: 36 0 0 0 0 0 0 2 1 1
Neighs:    1.05 ave 16 max 0 min
Histogram: 36 1 0 0 0 0 1 1 0 1

Total # of neighbors = 42
Ave neighs/atom = 0.142373
Neighbor list builds = 339
Dangerous builds = 0
write_dump all custom dump.atom_info_ac_* id type x y z radius vx vy vz density #
run 123478
Setting up run at Fri Nov 25 01:32:39 2022

Memory usage per processor = 1082.6 Mbytes
    Step    Atoms         KinEng            CPU 
 9013896      295     0.04762227              0 
 9137374      295    0.048118401      1695.2669 
Loop time of 1695.27 on 40 procs for 123478 steps with 295 atoms, finish time Fri Nov 25 02:00:55 2022


Pair  time (%) = 0.265343 (0.015652)
Neigh time (%) = 0.0628401 (0.00370679)
Comm  time (%) = 1.21283 (0.0715424)
Outpt time (%) = 0.000598657 (3.53134e-05)
Other time (%) = 1693.73 (99.9091)

Nlocal:    7.375 ave 65 max 0 min
Histogram: 32 0 2 0 3 0 1 0 0 2
Nghost:    3.675 ave 41 max 0 min
Histogram: 36 0 0 0 0 0 0 2 1 1
Neighs:    1.175 ave 16 max 0 min
Histogram: 34 3 0 0 0 0 1 1 0 1

Total # of neighbors = 47
Ave neighs/atom = 0.159322
Neighbor list builds = 342
Dangerous builds = 0
write_dump all custom dump.atom_info_ac_* id type x y z radius vx vy vz density #
run 123478
Setting up run at Fri Nov 25 02:00:55 2022

Memory usage per processor = 1082.6 Mbytes
    Step    Atoms         KinEng            CPU 
 9137374      295    0.048118401              0 
 9260852      295    0.048639373      1690.6308 
Loop time of 1690.63 on 40 procs for 123478 steps with 295 atoms, finish time Fri Nov 25 02:29:05 2022


Pair  time (%) = 0.26583 (0.0157237)
Neigh time (%) = 0.0632436 (0.00374083)
Comm  time (%) = 0.995971 (0.0589112)
Outpt time (%) = 0.000936787 (5.54105e-05)
Other time (%) = 1689.3 (99.9216)

Nlocal:    7.375 ave 66 max 0 min
Histogram: 32 0 1 2 2 0 1 0 0 2
Nghost:    3.7 ave 40 max 0 min
Histogram: 34 2 0 0 0 0 0 2 1 1
Neighs:    1.075 ave 16 max 0 min
Histogram: 35 1 0 0 1 1 1 0 0 1

Total # of neighbors = 43
Ave neighs/atom = 0.145763
Neighbor list builds = 345
Dangerous builds = 0
write_dump all custom dump.atom_info_ac_* id type x y z radius vx vy vz density #
run 123478
Setting up run at Fri Nov 25 02:29:05 2022

Memory usage per processor = 1082.6 Mbytes
    Step    Atoms         KinEng            CPU 
 9260852      295    0.048639373              0 
 9384330      295    0.049418001      1700.8551 
Loop time of 1700.86 on 40 procs for 123478 steps with 295 atoms, finish time Fri Nov 25 02:57:26 2022


Pair  time (%) = 0.265874 (0.0156318)
Neigh time (%) = 0.0630592 (0.0037075)
Comm  time (%) = 1.10082 (0.0647217)
Outpt time (%) = 0.000763359 (4.48809e-05)
Other time (%) = 1699.43 (99.9159)

Nlocal:    7.375 ave 66 max 0 min
Histogram: 32 0 2 1 1 1 1 0 0 2
Nghost:    3.45 ave 39 max 0 min
Histogram: 36 0 0 0 0 0 0 2 1 1
Neighs:    1 ave 16 max 0 min
Histogram: 35 2 0 0 0 2 0 0 0 1

Total # of neighbors = 40
Ave neighs/atom = 0.135593
Neighbor list builds = 344
Dangerous builds = 0
write_dump all custom dump.atom_info_ac_* id type x y z radius vx vy vz density #
run 123478
Setting up run at Fri Nov 25 02:57:26 2022

Memory usage per processor = 1082.6 Mbytes
    Step    Atoms         KinEng            CPU 
 9384330      295    0.049418001              0 
 9507808      295    0.050151657      1692.8966 
Loop time of 1692.9 on 40 procs for 123478 steps with 295 atoms, finish time Fri Nov 25 03:25:39 2022


Pair  time (%) = 0.266801 (0.01576)
Neigh time (%) = 0.0628563 (0.00371294)
Comm  time (%) = 1.22674 (0.0724637)
Outpt time (%) = 0.000880657 (5.20207e-05)
Other time (%) = 1691.34 (99.908)

Nlocal:    7.375 ave 65 max 0 min
Histogram: 32 0 0 3 1 2 0 0 0 2
Nghost:    3.25 ave 36 max 0 min
Histogram: 36 0 0 0 0 0 0 1 1 2
Neighs:    1.025 ave 15 max 0 min
Histogram: 35 0 1 0 2 0 1 0 0 1

Total # of neighbors = 41
Ave neighs/atom = 0.138983
Neighbor list builds = 343
Dangerous builds = 0
write_dump all custom dump.atom_info_ac_* id type x y z radius vx vy vz density #
run 123478
Setting up run at Fri Nov 25 03:25:39 2022

Memory usage per processor = 1082.6 Mbytes
    Step    Atoms         KinEng            CPU 
 9507808      295    0.050151657              0 
 9631286      295    0.050896144      1692.2841 
Loop time of 1692.28 on 40 procs for 123478 steps with 295 atoms, finish time Fri Nov 25 03:53:52 2022


Pair  time (%) = 0.266339 (0.0157384)
Neigh time (%) = 0.0634288 (0.00374812)
Comm  time (%) = 1.19673 (0.0707168)
Outpt time (%) = 0.000536057 (3.16765e-05)
Other time (%) = 1690.76 (99.9098)

Nlocal:    7.375 ave 65 max 0 min
Histogram: 32 0 1 1 2 2 0 0 0 2
Nghost:    3.225 ave 35 max 0 min
Histogram: 36 0 0 0 0 0 0 1 2 1
Neighs:    1 ave 15 max 0 min
Histogram: 35 0 2 0 1 0 1 0 0 1

Total # of neighbors = 40
Ave neighs/atom = 0.135593
Neighbor list builds = 344
Dangerous builds = 0
write_dump all custom dump.atom_info_ac_* id type x y z radius vx vy vz density #
run 123478
Setting up run at Fri Nov 25 03:53:52 2022

Memory usage per processor = 1082.6 Mbytes
    Step    Atoms         KinEng            CPU 
 9631286      295    0.050896144              0 
 9754764      295    0.051639281      1684.2145 
Loop time of 1684.21 on 40 procs for 123478 steps with 295 atoms, finish time Fri Nov 25 04:21:56 2022


Pair  time (%) = 0.265661 (0.0157736)
Neigh time (%) = 0.063423 (0.00376573)
Comm  time (%) = 1.16783 (0.0693395)
Outpt time (%) = 0.00084315 (5.00619e-05)
Other time (%) = 1682.72 (99.9111)

Nlocal:    7.375 ave 64 max 0 min
Histogram: 32 0 2 0 1 2 1 0 0 2
Nghost:    3.15 ave 38 max 0 min
Histogram: 36 0 0 0 0 0 1 2 0 1
Neighs:    0.85 ave 13 max 0 min
Histogram: 35 1 1 0 0 1 1 0 0 1

Total # of neighbors = 34
Ave neighs/atom = 0.115254
Neighbor list builds = 344
Dangerous builds = 0
write_dump all custom dump.atom_info_ac_* id type x y z radius vx vy vz density #
run 123478
Setting up run at Fri Nov 25 04:21:56 2022

Memory usage per processor = 1082.6 Mbytes
    Step    Atoms         KinEng            CPU 
 9754764      295    0.051639281              0 
 9878242      295    0.052127065      1704.8229 
Loop time of 1705.12 on 40 procs for 123478 steps with 295 atoms, finish time Fri Nov 25 04:50:21 2022


Pair  time (%) = 0.267772 (0.015704)
Neigh time (%) = 0.062714 (0.00367798)
Comm  time (%) = 1.05751 (0.0620197)
Outpt time (%) = 0.000658194 (3.8601e-05)
Other time (%) = 1703.73 (99.9186)

Nlocal:    7.375 ave 63 max 0 min
Histogram: 32 0 2 0 2 1 1 0 0 2
Nghost:    3.35 ave 36 max 0 min
Histogram: 34 2 0 0 0 0 0 2 1 1
Neighs:    1.05 ave 14 max 0 min
Histogram: 35 1 0 1 0 1 0 0 1 1

Total # of neighbors = 42
Ave neighs/atom = 0.142373
Neighbor list builds = 341
Dangerous builds = 0
[...]


Pair  time (%) = 0.296727 (0.0171965)
Neigh time (%) = 0.0637184 (0.00369273)
Comm  time (%) = 1.16974 (0.0677908)
Outpt time (%) = 0.000817733 (4.73908e-05)
Other time (%) = 1723.98 (99.9113)

Nlocal:    6.5 ave 52 max 0 min
Histogram: 32 0 0 0 3 2 0 2 0 1
Nghost:    1.575 ave 14 max 0 min
Histogram: 31 3 1 1 0 1 0 1 0 2
Neighs:    1.225 ave 18 max 0 min
Histogram: 34 1 0 3 1 0 0 0 0 1

Total # of neighbors = 49
Ave neighs/atom = 0.188462
Neighbor list builds = 342
Dangerous builds = 0
write_dump all custom dump.atom_info_ac_* id type x y z radius vx vy vz density #
run 123478
Setting up run at Sun Nov 27 04:21:30 2022

Memory usage per processor = 1082.6 Mbytes
    Step    Atoms         KinEng            CPU 
22226141      260     0.08781664              0 
22349619      259    0.087877074      1715.4835 
Loop time of 1715.48 on 40 procs for 123478 steps with 259 atoms, finish time Sun Nov 27 04:50:05 2022


Pair  time (%) = 0.294631 (0.0171748)
Neigh time (%) = 0.0633566 (0.00369322)
Comm  time (%) = 1.10622 (0.0644842)
Outpt time (%) = 0.000670876 (3.91071e-05)
Other time (%) = 1714.02 (99.9146)

Nlocal:    6.475 ave 39 max 0 min
Histogram: 32 0 0 0 0 2 0 1 2 3
Nghost:    1.575 ave 15 max 0 min
Histogram: 31 2 2 1 0 0 1 2 0 1
Neighs:    1.225 ave 13 max 0 min
Histogram: 33 1 0 1 2 0 2 0 0 1

Total # of neighbors = 49
Ave neighs/atom = 0.189189
Neighbor list builds = 341
Dangerous builds = 0
write_dump all custom dump.atom_info_ac_* id type x y z radius vx vy vz density #
run 123478
Setting up run at Sun Nov 27 04:50:05 2022

Memory usage per processor = 1082.6 Mbytes
    Step    Atoms         KinEng            CPU 
22349619      259    0.087877074              0 
22473097      259    0.087831249      1711.2135 
Loop time of 1711.21 on 40 procs for 123478 steps with 259 atoms, finish time Sun Nov 27 05:18:36 2022


Pair  time (%) = 0.293544 (0.0171542)
Neigh time (%) = 0.0630377 (0.0036838)
Comm  time (%) = 1.08741 (0.0635463)
Outpt time (%) = 0.00108677 (6.35086e-05)
Other time (%) = 1709.77 (99.9156)

Nlocal:    6.475 ave 48 max 0 min
Histogram: 32 0 0 0 2 1 2 1 1 1
Nghost:    1.425 ave 17 max 0 min
Histogram: 33 1 2 1 0 2 0 0 0 1
Neighs:    1.275 ave 16 max 0 min
Histogram: 33 2 0 1 2 0 1 0 0 1

Total # of neighbors = 51
Ave neighs/atom = 0.196911
Neighbor list builds = 341
Dangerous builds = 0
write_dump all custom dump.atom_info_ac_* id type x y z radius vx vy vz density #
run 123478
Setting up run at Sun Nov 27 05:18:37 2022

Memory usage per processor = 1082.6 Mbytes
    Step    Atoms         KinEng            CPU 
22473097      259    0.087831249              0 
22596575      259    0.087832933      1713.3138 
Loop time of 1713.31 on 40 procs for 123478 steps with 259 atoms, finish time Sun Nov 27 05:47:10 2022


Pair  time (%) = 0.293988 (0.017159)
Neigh time (%) = 0.0633063 (0.00369496)
Comm  time (%) = 1.07242 (0.0625932)
Outpt time (%) = 9.38004e-05 (5.47479e-06)
Other time (%) = 1711.88 (99.9165)

Nlocal:    6.475 ave 41 max 0 min
Histogram: 32 0 0 0 0 2 0 2 1 3
Nghost:    1.525 ave 15 max 0 min
Histogram: 31 2 3 0 0 0 2 0 1 1
Neighs:    1.325 ave 13 max 0 min
Histogram: 33 1 0 1 2 0 1 0 0 2

Total # of neighbors = 53
Ave neighs/atom = 0.204633
Neighbor list builds = 341
Dangerous builds = 0
write_dump all custom dump.atom_info_ac_* id type x y z radius vx vy vz density #
run 123478
Setting up run at Sun Nov 27 05:47:10 2022

Memory usage per processor = 1082.6 Mbytes
    Step    Atoms         KinEng            CPU 
22596575      259    0.087832933              0 
22720053      259    0.087874853      1719.9094 
Loop time of 1719.91 on 40 procs for 123478 steps with 259 atoms, finish time Sun Nov 27 06:15:50 2022


Pair  time (%) = 0.296103 (0.0172162)
Neigh time (%) = 0.0633449 (0.00368303)
Comm  time (%) = 1.10545 (0.0642738)
Outpt time (%) = 0.00106552 (6.19523e-05)
Other time (%) = 1718.44 (99.9148)

Nlocal:    6.475 ave 53 max 0 min
Histogram: 32 0 0 1 2 2 1 1 0 1
Nghost:    1.475 ave 14 max 0 min
Histogram: 33 1 1 1 1 0 0 1 0 2
Neighs:    1.325 ave 19 max 0 min
Histogram: 33 2 0 2 2 0 0 0 0 1

Total # of neighbors = 53
Ave neighs/atom = 0.204633
Neighbor list builds = 342
Dangerous builds = 0
write_dump all custom dump.atom_info_ac_* id type x y z radius vx vy vz density #
run 123478
Setting up run at Sun Nov 27 06:15:50 2022

Memory usage per processor = 1082.6 Mbytes
    Step    Atoms         KinEng            CPU 
22720053      259    0.087874853              0 
22843531      258    0.087800907      1714.4767 
Loop time of 1714.48 on 40 procs for 123478 steps with 258 atoms, finish time Sun Nov 27 06:44:24 2022


Pair  time (%) = 0.294966 (0.0172044)
Neigh time (%) = 0.0638613 (0.00372483)
Comm  time (%) = 1.03644 (0.0604524)
Outpt time (%) = 0.000769284 (4.48699e-05)
Other time (%) = 1713.08 (99.9186)

Nlocal:    6.45 ave 40 max 0 min
Histogram: 32 0 0 0 0 1 1 2 1 3
Nghost:    1.475 ave 13 max 0 min
Histogram: 34 1 0 1 0 0 0 0 1 3
Neighs:    1.4 ave 16 max 0 min
Histogram: 33 1 0 3 0 1 1 0 0 1

Total # of neighbors = 56
Ave neighs/atom = 0.217054
Neighbor list builds = 344
Dangerous builds = 0
write_dump all custom dump.atom_info_ac_* id type x y z radius vx vy vz density #
run 123478
Setting up run at Sun Nov 27 06:44:24 2022

Memory usage per processor = 1082.6 Mbytes
    Step    Atoms         KinEng            CPU 
22843531      258    0.087800907              0 
22967009      258    0.087696913      1707.9166 
Loop time of 1707.92 on 40 procs for 123478 steps with 258 atoms, finish time Sun Nov 27 07:12:52 2022


Pair  time (%) = 0.293716 (0.0171973)
Neigh time (%) = 0.0639098 (0.00374198)
Comm  time (%) = 1.07765 (0.0630976)
Outpt time (%) = 0.00108129 (6.33103e-05)
Other time (%) = 1706.48 (99.9159)

Nlocal:    6.45 ave 51 max 0 min
Histogram: 32 0 0 1 1 2 1 2 0 1
Nghost:    1.45 ave 14 max 0 min
Histogram: 33 0 2 0 2 0 0 1 1 1
Neighs:    1.325 ave 17 max 0 min
Histogram: 33 2 0 0 3 1 0 0 0 1

Total # of neighbors = 53
Ave neighs/atom = 0.205426
Neighbor list builds = 345
Dangerous builds = 0
write_dump all custom dump.atom_info_ac_* id type x y z radius vx vy vz density #
run 123478
Setting up run at Sun Nov 27 07:12:53 2022

Memory usage per processor = 1082.6 Mbytes
    Step    Atoms         KinEng            CPU 
22967009      258    0.087696913              0 
23090487      258    0.087826947      1709.7195 
Loop time of 1709.72 on 40 procs for 123478 steps with 258 atoms, finish time Sun Nov 27 07:41:22 2022


Pair  time (%) = 0.293667 (0.0171763)
Neigh time (%) = 0.0638518 (0.00373464)
Comm  time (%) = 1.05428 (0.0616638)
Outpt time (%) = 0.000729334 (4.26581e-05)
Other time (%) = 1708.31 (99.9174)

Nlocal:    6.45 ave 42 max 0 min
Histogram: 32 0 0 0 0 2 1 2 0 3
Nghost:    1.35 ave 14 max 0 min
Histogram: 34 1 0 0 0 3 0 1 0 1
Neighs:    1.3 ave 14 max 0 min
Histogram: 33 1 0 2 1 1 0 0 0 2

Total # of neighbors = 52
Ave neighs/atom = 0.20155
Neighbor list builds = 344
Dangerous builds = 0
write_dump all custom dump.atom_info_ac_* id type x y z radius vx vy vz density #
run 123478
Setting up run at Sun Nov 27 07:41:22 2022

Memory usage per processor = 1082.6 Mbytes
    Step    Atoms         KinEng            CPU 
23090487      258    0.087826947              0 
23213965      258       0.087762      1720.5087 
Loop time of 1720.51 on 40 procs for 123478 steps with 258 atoms, finish time Sun Nov 27 08:10:03 2022


Pair  time (%) = 0.29528 (0.0171624)
Neigh time (%) = 0.0639199 (0.00371518)
Comm  time (%) = 1.04745 (0.0608804)
Outpt time (%) = 0.00109365 (6.35657e-05)
Other time (%) = 1719.1 (99.9182)

Nlocal:    6.45 ave 48 max 0 min
Histogram: 32 0 0 1 1 1 2 0 2 1
Nghost:    1.55 ave 14 max 0 min
Histogram: 33 1 0 1 1 0 0 3 0 1
Neighs:    1.325 ave 16 max 0 min
Histogram: 33 2 0 0 2 2 0 0 0 1

Total # of neighbors = 53
Ave neighs/atom = 0.205426
Neighbor list builds = 345
Dangerous builds = 0
write_dump all custom dump.atom_info_ac_* id type x y z radius vx vy vz density #
run 123478
Setting up run at Sun Nov 27 08:10:03 2022

Memory usage per processor = 1082.6 Mbytes
    Step    Atoms         KinEng            CPU 
23213965      258       0.087762              0 
23337443      258    0.087945339         1814.2 
Loop time of 1814.2 on 40 procs for 123478 steps with 258 atoms, finish time Sun Nov 27 08:40:17 2022


Pair  time (%) = 0.293547 (0.0161805)
Neigh time (%) = 0.0641761 (0.00353743)
Comm  time (%) = 1.04504 (0.0576033)
Outpt time (%) = 0.000668655 (3.68567e-05)
Other time (%) = 1812.8 (99.9226)

Nlocal:    6.45 ave 41 max 0 min
Histogram: 32 0 0 0 0 0 2 3 1 2
Nghost:    1.325 ave 12 max 0 min
Histogram: 34 0 1 0 0 1 1 1 0 2
Neighs:    1.325 ave 13 max 0 min
Histogram: 33 1 0 0 3 0 1 0 1 1

Total # of neighbors = 53
Ave neighs/atom = 0.205426
Neighbor list builds = 346
Dangerous builds = 0
write_dump all custom dump.atom_info_ac_* id type x y z radius vx vy vz density #
run 123478
Setting up run at Sun Nov 27 08:40:17 2022

Memory usage per processor = 1082.6 Mbytes
    Step    Atoms         KinEng            CPU 
23337443      258    0.087945339              0 
23460921      258    0.087885611      1698.6539 
Loop time of 1698.65 on 40 procs for 123478 steps with 258 atoms, finish time Sun Nov 27 09:08:36 2022


Pair  time (%) = 0.294321 (0.0173267)
Neigh time (%) = 0.064154 (0.00377675)
Comm  time (%) = 1.01151 (0.0595478)
Outpt time (%) = 0.000717033 (4.22119e-05)
Other time (%) = 1697.28 (99.9193)

Nlocal:    6.45 ave 43 max 0 min
Histogram: 32 0 0 0 1 1 1 2 0 3
Nghost:    1.4 ave 11 max 0 min
Histogram: 32 1 1 0 1 1 0 1 1 2
Neighs:    1.275 ave 17 max 0 min
Histogram: 34 1 0 1 2 1 0 0 0 1

Total # of neighbors = 51
Ave neighs/atom = 0.197674
Neighbor list builds = 345
Dangerous builds = 0
write_dump all custom dump.atom_info_ac_* id type x y z radius vx vy vz density #
run 123478
Setting up run at Sun Nov 27 09:08:36 2022

Memory usage per processor = 1082.6 Mbytes
    Step    Atoms         KinEng            CPU 
23460921      258    0.087885611              0 
23584399      258    0.087964467      1715.3528 
Loop time of 1715.35 on 40 procs for 123478 steps with 258 atoms, finish time Sun Nov 27 09:37:11 2022


Pair  time (%) = 0.293538 (0.0171124)
Neigh time (%) = 0.0638307 (0.00372114)
Comm  time (%) = 1.07521 (0.0626817)
Outpt time (%) = 0.000960298 (5.59825e-05)
Other time (%) = 1713.92 (99.9164)

Nlocal:    6.45 ave 44 max 0 min
Histogram: 32 0 0 0 0 1 3 2 0 2
Nghost:    1.375 ave 13 max 0 min
Histogram: 33 1 1 0 0 2 0 2 0 1
Neighs:    1.3 ave 13 max 0 min
Histogram: 34 0 0 0 2 1 1 0 1 1

Total # of neighbors = 52
Ave neighs/atom = 0.20155
Neighbor list builds = 345
Dangerous builds = 0
write_dump all custom dump.atom_info_ac_* id type x y z radius vx vy vz density #
run 123478
Setting up run at Sun Nov 27 09:37:11 2022

Memory usage per processor = 1082.6 Mbytes
    Step    Atoms         KinEng            CPU 
23584399      258    0.087964467              0 
23707877      258    0.087869984      1709.0532 
Loop time of 1709.05 on 40 procs for 123478 steps with 258 atoms, finish time Sun Nov 27 10:05:40 2022


Pair  time (%) = 0.293513 (0.017174)
Neigh time (%) = 0.0636639 (0.0037251)
Comm  time (%) = 1.03965 (0.0608321)
Outpt time (%) = 0.000781521 (4.57283e-05)
Other time (%) = 1707.66 (99.9182)

Nlocal:    6.45 ave 42 max 0 min
Histogram: 32 0 0 0 0 3 0 2 0 3
Nghost:    1.45 ave 11 max 0 min
Histogram: 32 1 1 0 1 0 2 0 0 3
Neighs:    1.3 ave 15 max 0 min
Histogram: 33 1 1 1 1 0 2 0 0 1

Total # of neighbors = 52
Ave neighs/atom = 0.20155
Neighbor list builds = 343
Dangerous builds = 0
write_dump all custom dump.atom_info_ac_* id type x y z radius vx vy vz density #
run 123478
Setting up run at Sun Nov 27 10:05:41 2022

Memory usage per processor = 1082.6 Mbytes
    Step    Atoms         KinEng            CPU 
23707877      258    0.087869984              0 
23831355      258     0.08796973      1710.2446 
Loop time of 1710.24 on 40 procs for 123478 steps with 258 atoms, finish time Sun Nov 27 10:34:11 2022


Pair  time (%) = 0.293304 (0.0171499)
Neigh time (%) = 0.0637664 (0.00372849)
Comm  time (%) = 1.00709 (0.0588859)
Outpt time (%) = 0.00103879 (6.07393e-05)
Other time (%) = 1708.88 (99.9202)

Nlocal:    6.45 ave 44 max 0 min
Histogram: 32 0 0 0 0 2 3 1 0 2
Nghost:    1.5 ave 12 max 0 min
Histogram: 32 2 1 0 0 0 1 1 1 2
Neighs:    1.275 ave 13 max 0 min
Histogram: 33 0 1 1 2 1 0 0 0 2

Total # of neighbors = 51
Ave neighs/atom = 0.197674
Neighbor list builds = 344
Dangerous builds = 0
write_dump all custom dump.atom_info_ac_* id type x y z radius vx vy vz density #
run 123478
Setting up run at Sun Nov 27 10:34:11 2022

Memory usage per processor = 1082.6 Mbytes
    Step    Atoms         KinEng            CPU 
23831355      258     0.08796973              0 
23954833      258     0.08857902      1709.4809 
Loop time of 1709.48 on 40 procs for 123478 steps with 258 atoms, finish time Sun Nov 27 11:02:40 2022


Pair  time (%) = 0.293678 (0.0171793)
Neigh time (%) = 0.063948 (0.00374078)
Comm  time (%) = 1.07998 (0.0631761)
Outpt time (%) = 0.000804043 (4.70343e-05)
Other time (%) = 1708.04 (99.9159)

Nlocal:    6.45 ave 47 max 0 min
Histogram: 32 0 0 0 1 3 1 0 1 2
Nghost:    1.325 ave 11 max 0 min
Histogram: 33 1 0 0 1 0 2 1 0 2
Neighs:    1.45 ave 15 max 0 min
Histogram: 33 0 2 0 2 0 1 0 1 1

Total # of neighbors = 58
Ave neighs/atom = 0.224806
Neighbor list builds = 345
Dangerous builds = 0
write_dump all custom dump.atom_info_ac_* id type x y z radius vx vy vz density #
run 123478
Setting up run at Sun Nov 27 11:02:40 2022

Memory usage per processor = 1082.6 Mbytes
    Step    Atoms         KinEng            CPU 
23954833      258     0.08857902              0 
24078311      258    0.087996864      1708.5131 
Loop time of 1708.51 on 40 procs for 123478 steps with 258 atoms, finish time Sun Nov 27 11:31:09 2022


Pair  time (%) = 0.294688 (0.0172482)
Neigh time (%) = 0.0639034 (0.00374029)
Comm  time (%) = 1.04117 (0.06094)
Outpt time (%) = 0.00103424 (6.05343e-05)
Other time (%) = 1707.11 (99.918)

Nlocal:    6.45 ave 45 max 0 min
Histogram: 32 0 0 0 0 3 2 0 1 2
Nghost:    1.325 ave 13 max 0 min
Histogram: 32 3 0 0 0 1 2 1 0 1
Neighs:    1.45 ave 14 max 0 min
Histogram: 33 0 1 0 3 1 0 0 0 2

Total # of neighbors = 58
Ave neighs/atom = 0.224806
Neighbor list builds = 345
Dangerous builds = 0
write_dump all custom dump.atom_info_ac_* id type x y z radius vx vy vz density #
run 123478
Setting up run at Sun Nov 27 11:31:09 2022

Memory usage per processor = 1082.6 Mbytes
    Step    Atoms         KinEng            CPU 
24078311      258    0.087996864              0 
24201789      258    0.088064407       1721.941 
Loop time of 1721.95 on 40 procs for 123478 steps with 258 atoms, finish time Sun Nov 27 11:59:51 2022


Pair  time (%) = 0.296203 (0.0172016)
Neigh time (%) = 0.0639987 (0.00371665)
Comm  time (%) = 1.13626 (0.0659869)
Outpt time (%) = 0.000823425 (4.78195e-05)
Other time (%) = 1720.45 (99.913)

Nlocal:    6.45 ave 45 max 0 min
Histogram: 32 0 0 0 1 2 2 0 0 3
Nghost:    1.35 ave 13 max 0 min
Histogram: 33 1 0 1 1 1 1 1 0 1
Neighs:    1.4 ave 15 max 0 min
Histogram: 32 1 2 0 1 2 1 0 0 1

Total # of neighbors = 56
Ave neighs/atom = 0.217054
Neighbor list builds = 345
Dangerous builds = 0
write_dump all custom dump.atom_info_ac_* id type x y z radius vx vy vz density #
run 123478
Setting up run at Sun Nov 27 11:59:51 2022

Memory usage per processor = 1082.6 Mbytes
    Step    Atoms         KinEng            CPU 
24201789      258    0.088064407              0 
24325267      258    0.088088956      1705.2043 
Loop time of 1705.2 on 40 procs for 123478 steps with 258 atoms, finish time Sun Nov 27 12:28:17 2022


Pair  time (%) = 0.295017 (0.017301)
Neigh time (%) = 0.06388 (0.00374618)
Comm  time (%) = 1.45663 (0.0854228)
Outpt time (%) = 0.00100631 (5.90141e-05)
Other time (%) = 1703.39 (99.8935)

Nlocal:    6.45 ave 43 max 0 min
Histogram: 32 0 0 0 0 2 2 1 1 2
Nghost:    1.475 ave 13 max 0 min
Histogram: 33 1 1 0 0 1 2 0 1 1
Neighs:    1.375 ave 14 max 0 min
Histogram: 33 0 1 0 3 1 0 1 0 1

Total # of neighbors = 55
Ave neighs/atom = 0.213178
Neighbor list builds = 345
Dangerous builds = 0
write_dump all custom dump.atom_info_ac_* id type x y z radius vx vy vz density #
run 123478
Setting up run at Sun Nov 27 12:28:18 2022

Memory usage per processor = 1082.6 Mbytes
    Step    Atoms         KinEng            CPU 
24325267      258    0.088088956              0 
24448745      258    0.088187583       1710.436 
Loop time of 1710.44 on 40 procs for 123478 steps with 258 atoms, finish time Sun Nov 27 12:56:48 2022


Pair  time (%) = 0.293746 (0.0171738)
Neigh time (%) = 0.0635032 (0.00371269)
Comm  time (%) = 1.37529 (0.0804059)
Outpt time (%) = 0.000777543 (4.54587e-05)
Other time (%) = 1708.7 (99.8987)

Nlocal:    6.45 ave 50 max 0 min
Histogram: 32 0 0 2 0 3 0 0 1 2
Nghost:    1.45 ave 13 max 0 min
Histogram: 33 1 0 2 0 1 1 0 0 2
Neighs:    1.4 ave 14 max 0 min
Histogram: 33 0 2 1 0 2 0 0 0 2

Total # of neighbors = 56
Ave neighs/atom = 0.217054
Neighbor list builds = 343
Dangerous builds = 0
write_dump all custom dump.atom_info_ac_* id type x y z radius vx vy vz density #
run 123478
Setting up run at Sun Nov 27 12:56:48 2022

Memory usage per processor = 1082.6 Mbytes
    Step    Atoms         KinEng            CPU 
24448745      258    0.088187583              0 
24572223      258    0.088465356      1711.7522 
Loop time of 1711.75 on 40 procs for 123478 steps with 258 atoms, finish time Sun Nov 27 13:25:20 2022


Pair  time (%) = 0.293868 (0.0171677)
Neigh time (%) = 0.0635022 (0.00370978)
Comm  time (%) = 1.45239 (0.0848479)
Outpt time (%) = 0.000659295 (3.85158e-05)
Other time (%) = 1709.94 (99.8942)

Nlocal:    6.45 ave 43 max 0 min
Histogram: 32 0 0 0 0 2 3 0 1 2
Nghost:    1.425 ave 12 max 0 min
Histogram: 31 4 0 0 1 0 1 0 0 3
Neighs:    1.45 ave 17 max 0 min
Histogram: 33 1 1 1 2 0 0 1 0 1

Total # of neighbors = 58
Ave neighs/atom = 0.224806
Neighbor list builds = 343
Dangerous builds = 0
write_dump all custom dump.atom_info_ac_* id type x y z radius vx vy vz density #
run 123478
Setting up run at Sun Nov 27 13:25:20 2022

Memory usage per processor = 1082.6 Mbytes
    Step    Atoms         KinEng            CPU 
24572223      258    0.088465356              0 
24695701      258     0.08832749      1721.5484 
Loop time of 1721.55 on 40 procs for 123478 steps with 258 atoms, finish time Sun Nov 27 13:54:02 2022


Pair  time (%) = 0.297218 (0.0172646)
Neigh time (%) = 0.063362 (0.00368052)
Comm  time (%) = 1.39724 (0.0811616)
Outpt time (%) = 0.00111192 (6.45885e-05)
Other time (%) = 1719.79 (99.8978)

Nlocal:    6.45 ave 49 max 0 min
Histogram: 32 0 0 1 2 2 0 0 2 1
Nghost:    1.45 ave 14 max 0 min
Histogram: 32 1 2 0 1 2 0 1 0 1
Neighs:    1.25 ave 14 max 0 min
Histogram: 33 0 2 1 0 2 1 0 0 1

Total # of neighbors = 50
Ave neighs/atom = 0.193798
Neighbor list builds = 342
Dangerous builds = 0
write_dump all custom dump.atom_info_ac_* id type x y z radius vx vy vz density #
run 99
Setting up run at Sun Nov 27 13:54:02 2022

Memory usage per processor = 1082.6 Mbytes
    Step    Atoms         KinEng            CPU 
24695701      258     0.08832749              0 
24695800      258    0.088218852      1.3174056 
Loop time of 1.31742 on 40 procs for 99 steps with 258 atoms, finish time Sun Nov 27 13:54:03 2022


Pair  time (%) = 0.000232167 (0.0176229)
Neigh time (%) = 0 (0)
Comm  time (%) = 0.000355961 (0.0270195)
Outpt time (%) = 2.8934e-05 (0.00219626)
Other time (%) = 1.3168 (99.9532)

Nlocal:    6.45 ave 49 max 0 min
Histogram: 32 0 0 1 2 2 0 0 2 1
Nghost:    1.45 ave 13 max 0 min
Histogram: 32 1 1 1 1 1 1 0 1 1
Neighs:    1.275 ave 14 max 0 min
Histogram: 33 0 2 1 0 2 1 0 0 1

Total # of neighbors = 51
Ave neighs/atom = 0.197674
Neighbor list builds = 0
Dangerous builds = 0
write_dump all custom dump.atom_info_ac_* id type x y z radius vx vy vz density #
