ITEM: TIMESTEP
4526744
ITEM: NUMBER OF ATOMS
1273
ITEM: BOX BOUNDS ff ff ff
-0.15 0.15
-0.15 0.15
-0.15 0.15
ITEM: ATOMS id type x y z radius vx vy vz density 
1320 1 -0.000345148 -0.0073983 -0.0688214 0.000175 -0.0146872 -0.208594 -0.0518714 2650 
1001 1 -0.00835964 -0.00559776 -0.0676847 6.3e-05 -0.0751428 -0.13158 -0.190707 2650 
1087 1 -0.0176653 -0.0370287 -0.0665193 0.000175 -16.7295 2.96782 4.4428 2650 
423 1 -0.0167203 -0.00854089 -0.0662888 0.000635 -0.0851953 -0.204192 0.0213552 2650 
678 1 -0.0215089 -0.017455 -0.0648933 0.000635 -3.11186 1.40856 1.03141 2650 
1185 1 -0.0208148 -0.00280019 -0.0649658 0.000175 -36.3116 -12.2891 5.50765 2650 
235 1 -0.0263784 -0.0170939 -0.0636906 6.3e-05 -7.20633 0.41093 2.98358 2650 
1083 1 -0.0234942 -0.0149182 -0.064201 0.000635 -18.2343 4.9204 6.69696 2650 
573 1 -0.0227824 -0.0102317 -0.064108 0.000984 -41.6095 2.80341 14.7775 2650 
546 1 -0.0238472 -0.00475398 -0.0640709 0.000635 -7.66569 -0.560523 2.85317 2650 
575 1 -0.0276106 -0.0234611 -0.0621662 0.000984 -23.2025 -1.51852 10.2988 2650 
37 1 -0.02667 -0.00664699 -0.0625691 0.000984 -7.57551 -0.478853 3.22904 2650 
765 1 -0.0279681 -0.0004702 -0.0628535 0.000175 -6.56188 -1.69424 2.76115 2650 
1038 1 -0.030472 -0.0274357 -0.0611983 0.000635 -6.06331 -0.803316 3.02006 2650 
653 1 -0.0292671 -0.00315901 -0.0617836 0.000635 -4.93235 -0.585043 2.32167 2650 
934 1 -0.0308009 -0.00215117 -0.0612978 6.3e-05 -10.8436 -1.85519 7.21543 2650 
382 1 -0.0296942 -0.00173025 -0.0615797 0.000635 -7.7981 0.13329 3.7567 2650 
930 1 -0.0341243 -0.0549733 -0.0597697 0.000175 -17.6102 -1.50664 10.0542 2650 
732 1 -0.0335955 -0.00669251 -0.0600685 0.000175 -7.64295 3.38612 4.27814 2650 
970 1 -0.0344266 -0.0126971 -0.0586603 0.000984 -7.94094 2.01038 4.65972 2650 
1329 1 -0.0367691 -0.0576958 -0.0583125 6.3e-05 -16.5679 -0.281494 10.4465 2650 
189 1 -0.0162706 -0.00506991 -0.0584343 0.000175 -2.49194 -0.170782 -8.92761 2650 
864 1 -0.0399122 -0.0517953 -0.0560704 0.000175 -7.56144 0.714337 5.38241 2650 
717 1 -0.0398221 -0.0321648 -0.0555701 0.000635 -9.70918 -1.58168 6.95599 2650 
1178 1 -0.0419019 -0.0548038 -0.0540193 0.000635 -8.01021 0.0773201 6.21129 2650 
40 1 -0.0405215 -0.0145652 -0.0550617 0.000635 -2.793 -1.01925 2.05539 2650 
1018 1 -0.0436087 -0.0521223 -0.0532462 0.000175 -7.05682 0.861888 5.77954 2650 
245 1 -0.0436714 -0.0100295 -0.0518722 0.000635 -3.12536 -4.87554 5.09474 2650 
684 1 -0.0478816 -0.0069077 -0.0488304 0.000635 -50.7756 18.6329 49.31 2650 
647 1 -0.0507133 -0.0412489 -0.0458025 0.000635 -4.77581 1.78837 5.48891 2650 
72 1 -0.0510547 -0.0575792 -0.0449579 0.000984 -11.7552 3.47439 13.3389 2650 
578 1 -0.0521284 -0.0519014 -0.0442382 0.000635 -4.39485 3.57474 5.17505 2650 
1299 1 -0.0512404 -0.0435762 -0.04475 0.000984 -11.6806 -3.48534 13.4298 2650 
800 1 -0.0538499 -0.0595491 -0.0428631 0.000175 -9.0294 2.0841 11.3416 2650 
1208 1 -0.0542687 -0.0605053 -0.0415865 0.000635 -3.63686 -1.99813 4.74279 2650 
1249 1 -0.0550639 -0.0529442 -0.0412922 0.000175 -9.17288 -5.16148 12.2299 2650 
1019 1 -0.056124 -0.01341 -0.0398395 0.000175 -0.107643 -0.401944 0.151613 2650 
1045 1 -0.0594116 -0.0171075 -0.0338436 0.000635 -8.4572 0.133627 14.8378 2650 
185 1 -0.0608272 -0.0104511 -0.0310427 0.000635 -0.368566 -0.377893 -0.0161132 2650 
444 1 -0.0608436 -0.0375047 -0.0304412 0.000984 -6.89039 -8.13994 13.7606 2650 
228 1 -0.0627216 -0.0388126 -0.0283413 0.000175 -2.52443 -5.66025 5.58582 2650 
581 1 -0.0629438 -0.0606093 -0.0267063 0.000635 -1.02281 0.169933 2.40919 2650 
1314 1 -0.0653886 -0.0248406 -0.0200043 0.000635 -7.85565 -0.660681 25.6646 2650 
426 1 -0.0666601 -0.00188881 -0.0171397 0.000175 -4.32468 -0.275131 16.817 2650 
563 1 -0.0669753 -0.0189903 -0.0158637 0.000175 -5.18357 -7.9062 21.881 2650 
290 1 -0.00541361 -0.0013377 -0.0157002 0.000175 -0.0436565 -0.0708781 0.0201988 2650 
953 1 -0.003071 -0.001463 -0.015998 0.000175 0 -0.01175 0 2650 
437 1 -0.007215 -0.002831 -0.015053 0.000175 0 -0.01175 0 2650 
935 1 -0.003652 -0.001981 -0.014751 6.3e-05 0 -0.01175 0 2650 
1264 1 -0.001323 -0.001277 -0.014658 6.3e-05 0 -0.01175 0 2650 
915 1 -0.00609298 -0.00055394 -0.0148145 0.000635 -0.0111714 -0.0192567 -0.0150978 2650 
376 1 -0.00441574 -0.000430627 -0.0150655 0.000984 -0.0240316 -0.040994 0.00444837 2650 
730 1 -0.00440139 -0.0038639 -0.0138351 0.000175 -0.643182 -0.0864585 -2.00809 2650 
949 1 -0.00650457 -0.00127406 -0.0137256 0.000635 0.00546906 -0.0297344 0.0013529 2650 
106 1 -0.00948711 -0.0019182 -0.0122927 0.000984 0.000793157 -0.00757218 0.00456492 2650 
861 1 -0.000382238 -4.86691e-05 -0.0131638 0.000175 0.0121353 -0.00422997 0.0442874 2650 
1303 1 -0.010977 -0.00169351 -0.0113437 0.000635 -0.00647681 -0.017933 0.00686798 2650 
903 1 -0.00623946 -0.00155998 -0.0118674 0.000984 0.00522635 -0.03647 -0.0169384 2650 
9 1 -0.000215665 -0.00207487 -0.0118139 0.000635 -0.0157361 -0.0210375 -0.0124794 2650 
826 1 -0.0138489 -0.00376666 -0.0107646 0.000175 -1.80071 -0.086525 -1.35492 2650 
348 1 -0.0100146 -0.00284507 -0.0107545 0.000635 0.00476587 -0.0292307 -0.00240932 2650 
607 1 -0.0040713 -0.00111203 -0.00984482 0.000984 0.0156908 -0.409141 0.216289 2650 
1317 1 -0.00180346 -0.00018213 -0.00980891 0.000175 -0.270108 0.0438101 -0.00552383 2650 
611 1 -0.000634518 -0.000579786 -0.0104633 0.000635 -0.0208888 -0.00775716 0.0826262 2650 
3 1 -0.0674325 -0.0143113 -0.00904397 0.000984 -0.00685409 -0.461023 0.0510598 2650 
137 1 -0.00146012 -0.00162601 -0.00893898 0.000984 0.0239082 -0.00922033 0.0209167 2650 
323 1 -0.0127151 -0.00261257 -0.00839911 0.000635 -0.012461 -0.0236768 -0.00318665 2650 
47 1 -0.00672621 -0.00239631 -0.00821007 0.000635 -0.00501693 -0.0112669 0.0157963 2650 
368 1 -0.004505 -0.001804 -0.007819 0.000175 0 -0.01175 0 2650 
995 1 -0.002163 -0.001118 -0.007759 0.000175 0 -0.01175 0 2650 
988 1 -0.01321 -0.002448 -0.006532 0.000175 0 -0.01175 0 2650 
312 1 -0.0101793 -0.00292411 -0.00660495 0.000635 0.0291266 -0.0172431 -0.0144297 2650 
671 1 -0.00593 -0.002903 -0.006945 6.3e-05 0 -0.01175 0 2650 
333 1 -0.00313217 -0.00346343 -0.00684239 0.000175 0.0444918 -0.490213 0.261973 2650 
152 1 -0.0141824 -0.000713892 -0.00691209 0.000635 -0.0106802 0.00713189 0.0312302 2650 
180 1 -0.068272 -0.0277613 -0.00380732 0.000635 -0.167495 -0.892677 3.00177 2650 
593 1 -0.0687295 -0.00262089 -0.0036913 0.000175 -0.350323 0.0738784 6.52174 2650 
339 1 -0.000842 -0.002817 -0.003927 6.3e-05 0 -0.01175 0 2650 
262 1 -0.010012 -0.000605997 -0.004412 0.000175 0 -0.01175 0 2650 
377 1 -0.00614501 -0.000947062 -0.00384301 0.000984 -0.0415245 -0.0306192 0.0542031 2650 
646 1 -0.00949071 -0.00259987 -0.00296906 0.000635 0.0686158 -0.195199 -0.201585 2650 
484 1 -0.015137 -0.0018884 -0.00301039 0.000635 -0.00940357 -0.0178962 0.0483625 2650 
473 1 -0.005032 -8.49966e-05 -0.003319 6.3e-05 0 -0.01175 0 2650 
127 1 -0.0688108 -0.0171223 -0.00156285 0.000175 -0.204342 0.848081 8.99554 2650 
366 1 -0.013218 -0.00241208 -0.00139993 0.000175 -0.0241763 -0.00297612 -0.0095027 2650 
22 1 -0.0116726 -0.00498767 -0.000317286 0.000175 -2.32992 -0.468796 0.0691126 2650 
1227 1 -0.0157817 -0.00319882 -0.000575205 0.000175 -0.039777 -0.0134929 -0.00755233 2650 
168 1 -0.013999 -0.001187 -0.000719 6.3e-05 0 -0.01175 0 2650 
528 1 -0.011736 -0.000682997 -0.000357 0.000175 0 -0.01175 0 2650 
613 1 -0.0683754 -0.0460076 0.000629903 0.000635 0.0538348 0.640243 5.84056 2650 
99 1 -0.0688204 -0.0433296 0.00105952 0.000175 0.140694 1.20013 9.13727 2650 
955 1 -0.0132058 -0.00157856 0.000959975 0.000175 0.0168349 -0.0341751 0.0204226 2650 
416 1 -0.00716185 -0.00179331 0.00115962 0.000635 0.169413 -0.191733 -0.0808586 2650 
1257 1 -0.0154348 -0.000847244 0.000913076 0.000175 -0.0252155 -0.0122193 -0.0136539 2650 
103 1 -0.0135619 -0.000497858 0.00168471 0.000984 -0.030186 0.00272151 0.00255106 2650 
199 1 -0.00621 -5.79966e-05 0.001824 0.000175 0 -0.01175 0 2650 
25 1 -0.0187668 -0.00461002 0.00276992 0.000175 -1.38418 -0.436408 0.242853 2650 
381 1 -0.0131021 -0.00320104 0.00261925 0.000635 -0.000748167 -0.0111512 -0.000394316 2650 
633 1 -0.01447 -0.001462 0.00281 0.000175 0 -0.01175 0 2650 
278 1 -0.0141671 -7.35124e-05 0.00323828 0.000635 -0.0312806 0.0070394 0.00496129 2650 
913 1 -0.0136018 -0.00203666 0.00366639 0.000635 0.00077612 -0.0207098 -0.00656089 2650 
430 1 -0.003544 -0.001992 0.0041 0.000175 0 -0.01175 0 2650 
1183 1 -0.005753 -0.000402997 0.004546 0.000175 0 -0.01175 0 2650 
998 1 -0.003639 -0.000317997 0.003846 0.000175 0 -0.01175 0 2650 
477 1 -0.0677582 -0.00622177 0.00615455 0.000984 0.599165 1.602 6.59082 2650 
50 1 -0.009914 -0.001384 0.005617 0.000635 0 -0.01175 0 2650 
356 1 -0.011435 -0.00109 0.007193 0.000635 0 -0.01175 0 2650 
834 1 -0.003213 -7.19966e-05 0.00673 6.3e-05 0 -0.01175 0 2650 
796 1 -0.0207259 -0.00805667 0.0076712 0.000175 -2.12024 -1.00965 0.79743 2650 
802 1 -0.014838 -0.003109 0.007965 6.3e-05 0 -0.01175 0 2650 
441 1 -0.0103923 -0.00261531 0.00742245 0.000984 -0.00052337 -0.0109993 0.000231177 2650 
435 1 -0.005343 -0.002488 0.007666 0.000175 0 -0.01175 0 2650 
1085 1 -0.011737 -0.002896 0.009033 0.000175 0 -0.01175 0 2650 
291 1 -0.0133893 -0.0018043 0.00866809 0.000175 0.0323958 0.0018307 -0.00427381 2650 
833 1 -0.006267 -0.001719 0.010174 0.000175 0 -0.01175 0 2650 
486 1 -0.00161503 -0.000333522 0.00968798 0.000635 0.00192039 -0.0213472 0.00252639 2650 
1226 1 -0.0677272 -0.0200044 0.0122626 0.000175 2.03107 -4.01629 11.216 2650 
1218 1 -0.0677628 -0.00385654 0.0120644 0.000175 1.52383 -0.365179 8.55762 2650 
1251 1 -0.001546 -0.000186997 0.010836 0.000175 0 -0.01175 0 2650 
88 1 -0.0675546 -0.0150213 0.0131799 0.000175 1.39064 2.17191 7.12666 2650 
643 1 -0.00678316 -0.00334654 0.0123195 0.000635 -0.385112 -0.026685 0.700183 2650 
688 1 -0.00690602 -0.00151031 0.0122801 0.000635 0.000122552 -0.0117607 0.00027863 2650 
446 1 -0.001174 -0.001669 0.01258 0.000635 0 -0.01175 0 2650 
503 1 -0.010169 -0.000199997 0.013181 0.000175 0 -0.01175 0 2650 
1103 1 -0.0664565 -0.0103467 0.0146375 0.000984 7.67239 -5.38381 34.8075 2650 
223 1 -0.0168559 -0.00603225 0.0142424 0.000175 -1.77875 -0.470934 1.43247 2650 
636 1 -0.0565274 -0.00406742 0.0137783 6.3e-05 -8.58124 -0.0987981 2.0884 2650 
825 1 -0.001412 -0.002685 0.014398 0.000175 0 -0.01175 0 2650 
1174 1 -0.00572 -0.002117 0.01399 0.000635 0 -0.01175 0 2650 
249 1 -0.003145 -4.49966e-05 0.013922 0.000635 0 -0.01175 0 2650 
306 1 -0.002003 -0.0022 0.015202 6.3e-05 0 -0.01175 0 2650 
232 1 -0.00666 -0.000505997 0.015081 0.000175 0 -0.01175 0 2650 
46 1 -0.000728 -0.000574997 0.014694 0.000635 0 -0.01175 0 2650 
996 1 -0.00225 -0.002899 0.016025 0.000175 0 -0.01175 0 2650 
387 1 -0.0656189 -0.0303945 0.0192236 0.000635 1.85196 -1.28359 6.31793 2650 
658 1 -0.0657988 -0.0241393 0.0201943 0.000175 -0.14884 -1.37094 -0.484886 2650 
1309 1 -0.0643257 -0.0333941 0.0231832 0.000635 0.716681 -1.65848 1.98738 2650 
400 1 -0.0636048 -0.000174998 0.0262997 0.000175 1.75641 4.83106e-10 4.24708 2650 
997 1 -0.0627844 -0.00427075 0.0282024 0.000175 7.94524 -2.97473 17.6848 2650 
429 1 -0.0624183 -0.0449932 -0.0290057 0.000175 -20.9747 11.6878 45.1289 2650 
1084 1 -0.0497917 -0.0593968 0.0309392 0.000175 -7.38178 0.264838 3.66421 2650 
1311 1 -0.0582134 -0.00921463 0.0314721 0.000635 -1.36303 -0.356675 0.494198 2650 
1112 1 -0.0600772 -0.0011315 0.0326458 0.000635 4.62115 -0.0612318 8.49904 2650 
264 1 -0.0599752 -0.0352826 0.0337663 0.000175 6.05175 1.76262 10.7471 2650 
529 1 -0.0583112 -0.00545917 0.0362146 0.000175 -0.037101 -0.120671 -0.210271 2650 
1171 1 -0.0566794 -0.0177165 0.0382377 0.000635 -0.110148 -0.427973 -0.163163 2650 
1184 1 -0.056149 -0.00794839 0.0398042 0.000175 -0.117904 -0.215797 -0.166286 2650 
604 1 -0.0535961 -0.0409973 0.0433569 6.3e-05 2.79933 2.86432 3.46015 2650 
239 1 -0.0508571 -0.061069 0.0451746 0.000984 4.47087 0.0481206 5.02812 2650 
627 1 -0.0504986 -0.0550894 0.0467639 0.000175 4.58079 0.090973 4.94548 2650 
1318 1 -0.0469885 -0.027991 0.0502898 0.000175 21.3141 0.867808 19.9113 2650 
1162 1 -0.0471018 -0.0128989 0.0501834 0.000175 16.2691 -3.92632 15.2671 2650 
2 1 -0.0460862 -0.00858723 0.0500272 0.000984 4.10977 0.632269 3.78207 2650 
821 1 -0.0409461 -0.0622355 0.0512371 0.000175 4.96268 4.41479 1.28439 2650 
105 1 -0.0413688 -0.0527902 0.0539898 0.000984 4.00376 0.441704 3.13172 2650 
470 1 -0.043519 -0.0161413 0.0533197 0.000175 16.3694 -4.14368 13.3593 2650 
468 1 -0.0429819 -0.0166375 0.0537535 0.000175 7.37534 -1.51036 5.89739 2650 
954 1 -0.0406683 -0.0617478 0.0549802 0.000175 5.91816 -6.50007 4.743 2650 
693 1 -0.0345445 -0.00604246 0.0554274 0.000175 0.325264 -0.195698 -0.914135 2650 
1122 1 -0.0327904 -0.0542693 0.0572589 0.000175 16.3004 10.2058 8.97653 2650 
918 1 -0.0376454 -0.0139848 0.0570666 0.000635 5.37933 -1.59236 3.54854 2650 
38 1 -0.03279 -0.0359115 0.0595904 0.000984 7.27509 2.81759 4.00288 2650 
188 1 -0.0307681 -0.0120674 0.0615647 0.000175 4.23174 -0.844467 2.11489 2650 
1009 1 -0.0215149 -0.0153369 0.0648913 0.000635 1.20495 0.726442 0.393277 2650 
1301 1 -0.0175811 -0.0100725 0.0657046 0.000984 9.5917 1.55744 2.56649 2650 
1191 1 -0.0227962 -0.00863942 0.0649401 0.000175 7.33569 -0.662799 2.57507 2650 
621 1 -0.0197754 -0.00222874 0.0654424 0.000635 6.07227 -0.282436 1.83492 2650 
81 1 -0.0126045 -0.0485481 0.067193 0.000635 3.56369 -6.74038 0.674974 2650 
926 1 -0.00837164 -0.0539993 0.068314 0.000175 12.94 1.21754 1.58575 2650 
352 1 -0.00541182 -0.0361207 0.0681505 0.000635 8.9761 -1.98461 0.71279 2650 
724 1 -0.0098976 -0.0324661 0.0681096 0.000175 8.07152 -2.04056 1.17294 2650 
580 1 -0.0105598 -0.0234436 0.0675445 0.000635 7.39189 -2.87466 1.15089 2650 
100 1 -0.0114663 -0.0124227 0.0679767 6.3e-05 7.3415 -1.4041 1.24027 2650 
6 1 -0.0110503 -0.0104144 0.067466 0.000635 2.4826 1.26049 0.406628 2650 
350 1 -0.0111276 -0.00535321 0.0674533 0.000635 6.86239 -0.472286 1.13207 2650 
240 1 -0.0020114 -0.0022723 0.0679863 0.000984 6.18343 1.05625 0.183144 2650 
1287 1 -0.000700476 -0.0191691 0.0688214 0.000175 -2.34223 -1.68698 -0.0238465 2650 
675 1 -0.0021446 0.000317323 -0.0159038 0.000635 0.106159 -0.239662 0.037296 2650 
359 1 -0.00125659 0.00199712 -0.0157162 0.000175 0.223084 -0.297897 -0.00755244 2650 
883 1 -0.00227202 0.00641404 -0.0156692 0.000635 -0.0245792 -0.00664048 0.00341506 2650 
771 1 -0.00152923 0.00874392 -0.0158315 0.000984 -0.00541822 0.00052129 0.000818116 2650 
555 1 -0.00177799 0.0304014 -0.0161045 0.000635 0.174715 0.112114 0.0484907 2650 
773 1 -0.00161463 0.0424919 -0.0156198 0.000984 0.0652245 0.40011 0.0645191 2650 
561 1 -0.00763051 0.00288906 -0.0148468 0.000175 0.0842938 0.0837209 -0.0486675 2650 
396 1 -0.00657685 0.00859921 -0.0150137 0.000175 -0.0020055 -0.0118629 0.0117813 2650 
1204 1 -0.00240506 0.00998689 -0.0149523 0.000635 0.00759898 -0.00509382 -0.00370724 2650 
831 1 -0.000738278 0.0118425 -0.0148545 0.000175 0.085269 0.0888926 0.0872852 2650 
518 1 -0.00629008 0.0126234 -0.0147955 0.000635 -0.0194663 0.023483 0.0104424 2650 
680 1 -0.00582913 0.0189928 -0.014693 0.000635 -0.00568904 0.014153 -0.0260769 2650 
1050 1 -0.00659548 0.0204884 -0.0149787 0.000635 -0.0160191 0.0541091 0.00645513 2650 
844 1 -0.00506927 0.0203847 -0.0154139 0.000635 -0.0203706 0.0742489 0.00849049 2650 
109 1 -0.00280389 0.0265739 -0.0153694 0.000635 0.000498826 0.0507076 0.0410947 2650 
277 1 -0.00494193 0.0403395 -0.0148821 0.000635 0.178883 0.398371 -0.0155867 2650 
243 1 -0.00147621 0.0010971 -0.014223 0.000635 0.0111983 0.0134728 0.0304032 2650 
229 1 -0.00833672 0.00128559 -0.0138162 0.000175 -0.0455475 -0.0188703 0.0164459 2650 
1278 1 -0.00728089 0.00201501 -0.0140758 0.000635 -0.033927 -0.0116517 0.0149411 2650 
1114 1 -0.0058462 0.00150456 -0.013636 0.000635 -0.0254935 -0.00981183 0.0158232 2650 
1214 1 -0.00731061 0.00374466 -0.013873 0.000635 0.0127198 0.0268069 -0.000703937 2650 
727 1 -0.0079408 0.00412313 -0.0142133 0.000175 -0.00465064 -0.0162245 -0.0285531 2650 
686 1 -0.00109907 0.0046109 -0.0139509 0.000635 0.102167 -0.047818 0.00319047 2650 
618 1 -0.00850997 0.00578418 -0.0137575 0.000635 0.0315678 0.0150529 -0.00684248 2650 
1005 1 -0.00603328 0.00568773 -0.0141133 0.000635 0.0381454 -0.0511273 -0.0199149 2650 
905 1 -0.00713929 0.00760965 -0.0134537 0.000984 -0.0217256 -0.0331314 0.0318945 2650 
1068 1 -0.0015207 0.00906106 -0.0137337 0.000984 0.00763297 0.00543365 0.00559738 2650 
428 1 -0.00994033 0.00988373 -0.0132927 0.000175 -0.0237651 0.0252946 0.0304902 2650 
872 1 -0.00788362 0.0123143 -0.0133837 0.000984 -0.012862 0.00725919 0.00556897 2650 
1065 1 -0.00703654 0.0168163 -0.0132893 6.3e-05 0.0653174 0.179357 0.0451092 2650 
296 1 -0.00807674 0.0194312 -0.0137544 0.000175 -0.048575 0.0857829 0.0163618 2650 
971 1 -0.00669845 0.024143 -0.0138081 0.000984 0.11514 0.138012 -0.0348257 2650 
873 1 -0.00531098 0.00314415 -0.0131937 0.000635 -0.0211671 0.00349308 0.0422177 2650 
1059 1 -0.0103054 0.00385722 -0.0122092 0.000175 0.0360598 0.026744 -0.0147718 2650 
1243 1 -0.00816544 0.00374132 -0.0127091 0.000635 0.0173969 0.0155807 -0.00283016 2650 
692 1 -0.00101415 0.00404852 -0.0128664 0.000175 0.0737083 -0.04383 0.067183 2650 
1069 1 -0.00641 0.00478813 -0.0123324 0.000984 0.022981 -0.0259465 0.0292796 2650 
824 1 -0.00474339 0.00654896 -0.0120439 0.000175 -0.0124417 0.0417286 -0.0257294 2650 
1254 1 -0.00712742 0.00722593 -0.0123082 0.000175 0.00280201 -0.026969 0.0534111 2650 
1039 1 -0.000450651 0.00745825 -0.0121756 0.000635 0.0647865 0.0407325 -0.00654479 2650 
704 1 -0.00718882 0.0108592 -0.0121672 6.3e-05 0.0025916 -0.0151485 0.07129 2650 
217 1 -0.00523722 0.0109081 -0.0127358 0.000635 -0.0131585 0.0230736 0.0267555 2650 
133 1 -5.13842e-05 0.0115638 -0.0129763 6.3e-05 0.0534865 0.0110327 -0.0782002 2650 
880 1 -0.00555272 0.0121683 -0.0129472 0.000635 -0.00643565 0.0282952 0.0126318 2650 
1169 1 -0.00583915 0.0171922 -0.0124352 0.000984 0.0218962 0.0265211 -0.0523091 2650 
1210 1 -0.00911589 0.0183627 -0.0130028 0.000635 -0.0262534 0.0555355 -0.0446005 2650 
1159 1 -0.0096836 0.0210386 -0.0129722 0.000175 -0.0192816 0.0842457 -0.0774794 2650 
315 1 -0.00202469 0.0248262 -0.0125268 0.000635 0.0203317 0.0783487 0.0303094 2650 
754 1 -0.00441166 0.0460655 -0.0125233 0.000635 0.00621309 0.149098 0.0468521 2650 
602 1 -0.00734172 0.0539698 -0.0125526 0.000175 -0.0858132 0.175238 0.104648 2650 
612 1 -0.0105823 0.00109749 -0.0116248 0.000635 -0.00203533 -0.0179132 -0.00206904 2650 
285 1 -0.0103848 0.0049351 -0.0114261 0.000635 0.02063 0.012162 -0.0090356 2650 
1139 1 -0.00827545 0.00611462 -0.0119129 0.000635 0.00342696 0.00624955 -0.0661926 2650 
492 1 -0.00401876 0.00631613 -0.0109584 0.000175 0.0155447 -0.00543734 0.000308721 2650 
1025 1 -0.00779616 0.0075988 -0.011943 0.000175 -0.0324203 -0.0256319 0.0551938 2650 
443 1 -0.00624585 0.00868085 -0.0113485 0.000984 -0.00689095 0.00458619 0.00948616 2650 
928 1 -0.0045146 0.00842481 -0.0120004 0.000175 0.0355814 -0.0224331 -0.0120127 2650 
481 1 -0.0046071 0.00924954 -0.0118517 0.000635 0.00738789 -0.014847 0.00531553 2650 
1165 1 -0.00447894 0.00854456 -0.0117318 6.3e-05 0.00779492 -0.0183421 0.0047819 2650 
751 1 -0.000741086 0.0085889 -0.0114338 0.000635 0.00685447 0.0529852 -0.000448894 2650 
57 1 -0.012547 0.010336 -0.01103 0.000175 0 -0.01175 0 2650 
642 1 -0.0085621 0.00961114 -0.0114727 0.000635 -0.00357159 -0.00205773 0.0550839 2650 
1099 1 -0.00293847 0.0142574 -0.011493 6.3e-05 0.0402421 0.0783653 -0.151098 2650 
590 1 -0.00744694 0.0146556 -0.0113958 0.000175 0.0201695 0.0377371 -0.0273363 2650 
780 1 -0.00509145 0.0186451 -0.010931 0.000635 -0.0143452 0.0438692 -0.0440428 2650 
424 1 -0.0070516 0.0223027 -0.0117442 0.000635 0.00793162 0.056283 0.0290702 2650 
911 1 -0.00223692 0.0632145 -0.0115823 0.000635 0.0875907 0.279235 -0.0574424 2650 
83 1 -0.00148919 0.0010809 -0.0105605 0.000635 -0.0283734 0.03225 0.0462311 2650 
548 1 -0.0122642 0.00128817 -0.00963365 0.000635 0.0692292 -0.0824322 -0.0584598 2650 
16 1 -0.0123986 0.00282499 -0.0104438 0.000635 -0.00304465 0.0183615 0.00606804 2650 
924 1 -0.0120589 0.00285278 -0.00961427 0.000175 -0.00712658 0.0107156 -0.0104127 2650 
579 1 -0.0113532 0.0034866 -0.0100333 0.000635 -0.000272576 0.0256814 -0.00377972 2650 
117 1 -0.00723024 0.00315028 -0.00980372 0.000635 0.0803245 -0.0104656 -0.000659722 2650 
404 1 -0.00544377 0.0040714 -0.00983255 0.000175 0.0952656 0.00527255 -0.00104816 2650 
851 1 -0.00803804 0.00652382 -0.00968675 0.000635 -0.0145473 0.0599055 -0.0362522 2650 
459 1 -0.00173147 0.00710325 -0.0104677 0.000175 0.0477058 0.040821 0.0553829 2650 
204 1 -0.00158016 0.00635924 -0.0104927 6.3e-05 -0.0116162 -0.189036 0.0723797 2650 
1003 1 -0.0122674 0.0101665 -0.00975373 0.000984 -0.00684812 0.0122706 -0.017893 2650 
571 1 -0.008585 0.010255 -0.010244 6.3e-05 0 -0.01175 0 2650 
1279 1 -0.00766377 0.01024 -0.00967929 0.000635 0.0180811 0.000136708 -0.0116982 2650 
786 1 -0.00256235 0.0121058 -0.00969281 0.000635 0.00807324 0.0606063 0.0409693 2650 
1237 1 -0.0033721 0.0297044 -0.0100933 0.000635 -0.0227761 0.0982746 0.0642584 2650 
211 1 -0.0107396 0.0412285 -0.0101344 0.000635 -0.069013 0.12141 0.111451 2650 
963 1 -0.0128194 0.00432207 -0.00852599 0.000175 0.255695 -0.0283311 -0.0989661 2650 
55 1 -0.0134458 0.00536772 -0.00951512 0.000175 -0.00844198 0.0116145 0.0161683 2650 
859 1 -0.013502 0.006537 -0.009599 0.000175 0 -0.01175 0 2650 
1172 1 -0.00962788 0.00698421 -0.00858788 0.000635 0.037795 0.0122038 0.00931997 2650 
890 1 -0.008469 0.006768 -0.008886 0.000175 0 -0.01175 0 2650 
807 1 -0.0110378 0.00847771 -0.0087424 0.000635 -0.0262871 0.0269722 -0.0202547 2650 
868 1 -0.005513 0.008413 -0.008425 6.3e-05 0 -0.01175 0 2650 
474 1 -0.00193766 0.00868381 -0.00857841 0.000984 -0.00212846 0.0262482 0.0233058 2650 
17 1 -0.000430707 0.00942399 -0.00889972 0.000635 -0.00570988 -0.0186336 -0.0364728 2650 
1033 1 -0.013396 0.009537 -0.009423 6.3e-05 0 -0.01175 0 2650 
735 1 -0.00943389 0.010584 -0.00915897 6.3e-05 -0.0499153 0.0604112 0.486706 2650 
664 1 -0.0117779 0.0119563 -0.00929879 0.000175 0.0328329 -0.00917 0.0193451 2650 
1094 1 -0.00293835 0.015994 -0.00916156 0.000175 -0.0149594 0.0229072 -0.0355042 2650 
799 1 -0.0043605 0.025687 -0.00945476 0.000175 0.083817 0.068905 -0.0576597 2650 
1275 1 -0.00583334 0.0358198 -0.00940237 0.000635 0.0386924 0.134404 0.0559071 2650 
300 1 -0.00853188 0.0436646 -0.00941226 0.000175 0.00170115 0.148187 0.035275 2650 
409 1 -0.0134678 0.000347927 -0.00826433 0.000984 -0.0144864 -0.0307501 0.024729 2650 
462 1 -0.0122355 0.00111817 -0.00792733 0.000175 -0.0945984 -0.00228514 -0.0690115 2650 
43 1 -0.0140236 0.00167985 -0.0074643 0.000635 -0.0475881 -0.176752 0.194478 2650 
1027 1 -0.00975987 0.00249802 -0.00763667 0.000175 0.0431382 0.00519206 -0.00630585 2650 
289 1 -0.00553258 0.00327485 -0.00787775 0.000635 -0.0077595 -0.0173322 -0.00287025 2650 
660 1 -0.00639991 0.00408925 -0.00797931 0.000175 -0.00881201 -0.00590314 -0.00252555 2650 
778 1 -0.00506377 0.00589327 -0.00777769 0.000635 -0.0394082 0.0220972 0.0148203 2650 
916 1 -0.0144111 0.00648085 -0.00741499 0.000635 0.0653011 -0.0789807 0.0644945 2650 
177 1 -0.0130144 0.00729803 -0.00766508 0.000635 0.017264 -0.0147807 0.0714856 2650 
1296 1 -0.00604092 0.00736917 -0.0082011 6.3e-05 -0.0686027 0.0466338 0.0152209 2650 
804 1 -0.013634 0.00933372 -0.00771387 0.000984 -0.00899164 0.0937489 -0.0345175 2650 
101 1 -0.0142874 0.0101899 -0.00769624 6.3e-05 -0.0529352 0.0828849 -0.00712412 2650 
937 1 -0.010381 0.00972031 -0.00745719 0.000984 -0.00528842 0.0285884 -0.0268341 2650 
383 1 -0.00726095 0.0101505 -0.00732137 0.000635 0.00587361 0.0192026 -0.00126337 2650 
79 1 -0.013203 0.0113469 -0.00771413 0.000635 -0.0178494 0.0324197 -0.0494201 2650 
478 1 -0.0111212 0.0118694 -0.00726171 0.000635 0.00311815 0.017849 -0.00716209 2650 
1189 1 -0.0109954 0.0137205 -0.00779088 0.000175 -0.0504427 0.0137227 -0.0357066 2650 
740 1 -4.42523e-05 0.0156053 -0.00808689 0.000984 0.0511146 0.037697 0.0155809 2650 
30 1 -0.00785495 0.0191822 -0.00818672 0.000175 0.00508837 0.0479793 -0.0136002 2650 
1188 1 -0.00642874 0.0192869 -0.00804568 0.000175 -0.0819665 0.047981 0.0486728 2650 
910 1 -0.0136981 0.0210591 -0.0081189 0.000635 0.037205 0.0362043 -0.0167545 2650 
574 1 -0.00352487 0.0222594 -0.00777978 0.000984 0.088406 0.144267 0.0267064 2650 
547 1 -0.0121558 0.001893 -0.00715934 0.000635 0.0191458 0.00757962 0.00811308 2650 
1225 1 -0.00239529 0.00143552 -0.00679472 0.000175 0.00781821 -0.0300283 0.00476585 2650 
149 1 -0.0100606 0.00283645 -0.00696407 0.000635 0.0781171 -0.014638 0.0277328 2650 
337 1 -0.00831422 0.00337928 -0.00679586 6.3e-05 -0.0510987 -0.0298048 0.03168 2650 
968 1 -0.00519589 0.00304859 -0.00632951 6.3e-05 0.232333 -0.0213637 -0.349017 2650 
1286 1 -0.0034619 0.00306346 -0.00672683 0.000175 0.0227006 -0.0327908 -0.0401411 2650 
768 1 -0.011304 0.004298 -0.00657 6.3e-05 0 -0.01175 0 2650 
1146 1 -0.00977088 0.00427803 -0.00634993 0.000635 0.0549191 0.0373992 -0.0138955 2650 
1224 1 -0.0111982 0.00799346 -0.00661008 0.000175 -0.0594036 -0.0172456 -0.0268443 2650 
544 1 -0.0083536 0.0088558 -0.00624853 0.000635 0.00575313 0.0161171 0.00906377 2650 
125 1 -0.0151858 0.00985746 -0.00695458 0.000175 0.0199313 0.0020861 0.00791044 2650 
410 1 -0.0122181 0.0113716 -0.00602189 0.000984 0.0062975 0.0464896 -0.0430524 2650 
1128 1 -0.0124073 0.0137626 -0.00659785 0.000175 0.0159663 0.0131063 0.0418398 2650 
908 1 -0.0111878 0.0150547 -0.006415 0.000635 0.00506579 0.0654423 -0.0184362 2650 
1260 1 -0.00881708 0.0214925 -0.00661749 0.000175 -0.134157 0.0500737 -0.045327 2650 
319 1 -0.0137263 0.00267 -0.00590473 0.000635 -0.0226213 -0.025607 0.218581 2650 
750 1 -0.013153 0.00454413 -0.0055855 0.000635 0.0111268 0.0279858 0.0302127 2650 
1015 1 -0.0106304 0.00400119 -0.00506002 0.000635 -0.048075 -0.0242191 -0.0290653 2650 
164 1 -0.00183491 0.00486263 -0.00528181 0.000175 -0.0176431 0.022443 -0.0037286 2650 
742 1 -0.015197 0.006537 -0.005059 0.000635 0 -0.01175 0 2650 
85 1 -0.0106983 0.00653953 -0.00600334 0.000635 0.0784121 0.102539 -0.163696 2650 
34 1 -0.00381673 0.00825746 -0.00561219 6.3e-05 0.0197294 -0.000602108 -0.0140475 2650 
49 1 -0.00241075 0.00823554 -0.00528886 0.000635 0.0160331 -0.00168048 -0.00312856 2650 
123 1 -0.00946153 0.0120279 -0.00566487 0.000175 0.219732 0.163669 0.240662 2650 
15 1 -0.00539202 0.0326779 -0.00495697 0.000635 0.0516139 0.112596 0.0455837 2650 
438 1 -0.007838 0.000597003 -0.003829 6.3e-05 0 -0.01175 0 2650 
923 1 -0.001619 0.000187003 -0.004172 0.000175 0 -0.01175 0 2650 
1273 1 -0.0157067 0.00164094 -0.00423267 0.000635 -0.00277325 0.00434328 0.0223919 2650 
816 1 -0.0144114 0.0014306 -0.00434399 0.000635 0.00064838 0.0231276 0.0381905 2650 
1283 1 -0.0158285 0.00272292 -0.00453522 0.000175 0.00117273 -0.00479478 0.00864331 2650 
838 1 -0.0112583 0.00262731 -0.00421383 0.000984 0.0433196 -0.0201223 -0.0333284 2650 
899 1 -0.00998529 0.00258383 -0.00460371 0.000175 -0.0237637 -0.0349018 -0.016551 2650 
156 1 -0.01202 0.004622 -0.004783 0.000175 0 -0.01175 0 2650 
944 1 -0.00653232 0.00525398 -0.00381267 0.000635 -0.00752083 -0.0153986 0.0245163 2650 
403 1 -0.000132 0.004851 -0.004486 0.000175 0 -0.01175 0 2650 
788 1 -0.006237 0.00607 -0.003705 0.000175 0 -0.01175 0 2650 
31 1 -0.00324864 0.00636529 -0.00380375 0.000175 0.00679493 -0.0268576 0.0173567 2650 
1310 1 -0.0031346 0.00709357 -0.00436341 0.000635 0.0252298 -0.0151044 0.0183018 2650 
1022 1 -0.002244 0.006564 -0.00401 0.000175 0 -0.01175 0 2650 
1205 1 -0.014019 0.00891114 -0.00386525 0.000635 -0.0743978 0.0313799 0.00699803 2650 
1270 1 -0.00751087 0.00851861 -0.00453566 0.000635 -0.00819168 0.0244441 -0.0229346 2650 
927 1 -0.00201822 0.00834732 -0.00446726 0.000175 0.00660316 -0.0332752 -0.0039115 2650 
288 1 -0.00412479 0.0106404 -0.00474349 0.000635 0.111133 0.024626 -0.23267 2650 
121 1 -0.0151276 0.0129999 -0.0046939 0.000175 -0.0281631 0.0566047 -0.0302699 2650 
809 1 -0.00750273 0.0123953 -0.00362701 0.000635 -0.0280736 0.00799469 -0.0144073 2650 
762 1 -0.0144293 0.0338623 -0.00375474 0.000175 0.0534165 0.0961609 0.0211901 2650 
1163 1 -0.0164935 0.00324115 -0.00277947 0.000175 0.0290723 -0.0649176 -0.0481011 2650 
895 1 -0.0135064 0.00269355 -0.00285876 0.000175 0.0088004 0.0239878 0.0114595 2650 
11 1 -0.0138672 0.00362664 -0.002429 0.000635 0.0307643 -0.0109252 -0.0596224 2650 
224 1 -0.00432664 0.00404083 -0.00261522 0.000175 0.0977866 0.230986 0.0827369 2650 
625 1 -0.014766 0.00511604 -0.00331437 0.000175 0.145202 0.0256319 -0.0873292 2650 
787 1 -0.0132195 0.00520038 -0.00241177 0.000175 0.041897 -0.0239361 -0.025225 2650 
709 1 -0.00288944 0.00499966 -0.00279123 0.000635 0.0756341 0.00479959 -0.036743 2650 
355 1 -0.0157631 0.00638679 -0.00341244 0.000635 -0.00564003 -0.0122374 -0.00457916 2650 
979 1 -0.0146922 0.00649896 -0.0027288 0.000635 0.00648334 -0.00814042 -0.0193546 2650 
406 1 -0.003114 0.006576 -0.002553 6.3e-05 0 -0.01175 0 2650 
1222 1 -0.005802 0.008657 -0.002479 0.000175 0 -0.01175 0 2650 
488 1 -0.00438038 0.00892056 -0.00307776 0.000635 0.00891006 -0.0177729 0.0393175 2650 
1180 1 -0.000619248 0.0088031 -0.00244905 0.000635 0.0616975 -0.0359586 0.103791 2650 
102 1 -0.014214 0.01037 -0.002419 6.3e-05 0 -0.01175 0 2650 
665 1 -0.0112192 0.0108488 -0.00243495 0.000175 0.017994 -0.0016948 0.000401512 2650 
521 1 -0.00120481 0.0154365 -0.00332658 0.000635 0.0327158 0.0236046 -0.0300256 2650 
1120 1 -0.00998842 0.0198414 -0.0031034 0.000175 -0.352585 0.297201 -0.253856 2650 
1040 1 -0.0152735 0.0238203 -0.00294111 0.000635 0.0028768 0.114858 0.0243803 2650 
173 1 -0.001958 0.0387338 -0.00356555 0.000984 0.0125269 0.119634 0.076154 2650 
552 1 -0.0145042 0.000481659 -0.00191263 0.000635 0.00870557 -0.00535465 -0.00433301 2650 
1154 1 -0.014477 0.002904 -0.002251 0.000175 0 -0.01175 0 2650 
886 1 -0.008763 0.003446 -0.001992 0.000175 0 -0.01175 0 2650 
349 1 -0.00963013 0.00367583 -0.00138251 0.000635 -0.0112915 -0.03183 0.00471897 2650 