ITEM: TIMESTEP
29629616
ITEM: NUMBER OF ATOMS
490
ITEM: BOX BOUNDS ff ff ff
-0.15 0.15
-0.15 0.15
-0.15 0.15
ITEM: ATOMS id type x y z radius vx vy vz density 
147 1 -0.00356552 -0.029503 -0.0682722 0.000635 -22.7695 2.60876 1.18907 2650 
779 1 -0.00449321 -0.025804 -0.0682181 0.000635 -28.8381 0.919395 1.89906 2650 
39 1 -0.0168665 -0.0344608 -0.0662522 0.000635 -22.5569 0.25576 5.74198 2650 
252 1 -0.00868527 -0.030094 -0.0660452 0.000635 -31.9173 4.82312 10.2559 2650 
1319 1 -0.0187129 -0.014945 -0.0662322 0.000175 -18.3413 -1.65281 5.18207 2650 
943 1 -0.0191273 -0.026376 -0.0656348 0.000635 -15.6602 -1.78481 4.56364 2650 
776 1 -0.0312064 -0.037433 -0.0608273 0.000635 -13.7457 3.20616 7.05153 2650 
207 1 -0.036658 -0.0616999 -0.0572946 0.000984 -12.1353 -0.0661057 7.75955 2650 
118 1 -0.0430346 -0.0103811 -0.0531252 0.000635 -16.0993 -3.65293 13.034 2650 
960 1 -0.0468292 -0.0319184 -0.0501245 0.000175 -23.8033 11.1482 22.3223 2650 
58 1 -0.049722 -0.000369286 -0.0475887 0.000175 -8.92454 -0.0183749 9.32256 2650 
6 1 -0.0507451 -0.0234549 -0.0458187 0.000635 -8.81923 -2.45116 9.76328 2650 
1312 1 -0.0512094 -0.00888583 -0.0452988 0.000635 -6.81497 -1.22825 7.69901 2650 
174 1 -0.0512533 -0.00145549 -0.0447283 0.000984 -8.76431 0.0137774 10.0335 2650 
562 1 -0.0565951 -0.0459575 -0.0391687 0.000175 -19.5226 2.39985 28.2036 2650 
581 1 -0.0566907 -0.00684333 -0.0382286 0.000635 -14.7752 -1.25421 21.8989 2650 
1015 1 -0.0598888 -0.0531677 -0.0329961 0.000635 -12.0033 1.00815 21.7745 2650 
250 1 -0.0592551 -0.0141715 -0.0341153 0.000635 -6.65549 -1.31239 11.553 2650 
686 1 -0.060328 -0.0612169 -0.0321892 0.000635 -13.9299 1.68979 26.093 2650 
7 1 -0.0604919 -0.0512548 -0.0318776 0.000635 -11.5901 2.82366 21.9818 2650 
868 1 -0.0004545 -0.0603146 -0.0689382 6.3e-05 -285.64 7.60959 1.88312 2650 
137 1 -0.0616869 -0.0341142 -0.0287065 0.000984 -10.5845 1.57248 22.7269 2650 
979 1 -0.0619353 -0.00883939 -0.0289712 0.000635 -7.41232 0.703048 15.8369 2650 
253 1 -0.0626179 -0.00956932 -0.0274659 0.000635 -7.16626 -0.980386 16.329 2650 
519 1 -0.0634654 -0.0332401 -0.0254538 0.000635 -10.3113 0.652578 25.6964 2650 
348 1 -0.0661766 -0.0465949 -0.0172108 0.000635 -3.63496 1.49269 13.9688 2650 
1171 1 -0.0662444 -0.0331057 -0.0169504 0.000635 -4.52106 -2.06859 17.6592 2650 
688 1 -0.066305 -0.00691871 -0.0167099 0.000635 -3.68721 -0.0633387 14.6227 2650 
449 1 -0.0668286 -0.0586079 -0.0144799 0.000635 -4.20517 2.21577 19.3975 2650 
310 1 -0.00427179 -0.000672066 -0.0120734 0.000984 -0.0182289 -0.00585316 0.0129841 2650 
936 1 -0.067407 -0.0606937 -0.00927028 0.000984 -2.86072 0.344075 20.7845 2650 
1174 1 -0.0679448 -0.0537457 -0.00771611 0.000635 -3.03982 3.36592 26.7535 2650 
287 1 -0.0679939 -0.0295301 -0.00726165 0.000635 -2.41295 3.08067 22.5814 2650 
660 1 -0.0124476 -0.00279418 -0.00832233 0.000175 0.00235722 -0.00514697 0.00397736 2650 
162 1 -0.000592269 -0.0150329 -0.00628569 0.000175 -1.19361 -0.0305541 0.106578 2650 
753 1 -0.0681547 -0.0170777 -0.00553158 0.000635 -1.01251 0.639266 12.469 2650 
785 1 -0.00760326 -0.00167401 -0.00535873 0.000635 -0.00359679 -0.00218862 -0.0388642 2650 
609 1 -0.0682676 -0.0410602 -0.00394987 0.000635 -1.58456 2.07159 27.3724 2650 
334 1 -0.0105212 -0.0012216 -0.00355047 0.000175 0.0175892 -0.00997971 0.0038427 2650 
396 1 -0.0688251 -0.00415163 -0.000702551 0.000175 -0.24304 6.99539 23.8055 2650 
722 1 -0.0687698 -0.0595227 0.00284693 0.000175 0.890909 2.24043 21.5173 2650 
141 1 -0.0682907 -0.043541 0.00349726 0.000635 1.03521 2.36095 20.2047 2650 
852 1 -0.0121218 -0.00233261 0.00493567 0.000635 -0.000257534 -0.00684049 0.0230594 2650 
1100 1 -0.0125895 -0.000634223 0.00687115 6.3e-05 0.00751211 -0.00540216 0.0362273 2650 
411 1 -0.0675626 -0.0108704 0.00809001 0.000984 3.30961 -0.592488 27.6194 2650 
314 1 -0.0677238 -0.0128672 0.00945347 0.000635 3.12101 2.39911 22.347 2650 
1219 1 -0.0679213 -0.0174638 0.011139 0.000175 4.41059 4.01458 26.89 2650 
1193 1 -0.00013559 -0.00330807 0.0110039 0.000175 -0.00198494 -0.0153845 0.161089 2650 
404 1 -0.0109931 -0.000591153 0.0124435 0.000175 0.0384085 0.00126441 0.033251 2650 
311 1 -0.0668434 -0.0342184 0.0144257 0.000635 6.74899 -7.28791 31.257 2650 
710 1 -0.0263464 -0.0592496 0.013377 0.000635 -29.9734 -1.46141 -60.6759 2650 
279 1 -0.00115249 -0.00111983 0.0154278 0.000635 0.00472285 -0.00869389 -0.00122587 2650 
813 1 -0.0427917 -0.0432314 0.0167912 0.000635 46.5136 -23.1302 21.1853 2650 
513 1 -0.0661395 -0.0385477 0.017359 0.000635 5.74934 -11.8574 21.8941 2650 
812 1 -0.0650386 -0.00277576 0.0211038 0.000635 3.08716 -0.770478 9.5087 2650 
1077 1 -0.0644922 -0.0347113 0.0227317 0.000635 10.4857 4.95886 29.734 2650 
512 1 -0.0120837 -0.0541653 0.0261882 0.000635 3.08083 -3.92682e-06 1.53653 2650 
1060 1 -0.0613353 -0.052249 0.0312283 0.000175 8.66918 3.07464 17.0242 2650 
208 1 -0.055542 -0.0469719 0.0392877 0.000984 11.7385 -2.92614 16.5811 2650 
1132 1 -0.0565784 -0.007477 0.0393861 6.3e-05 -0.125613 -0.182648 -0.180432 2650 
1268 1 -0.0524307 -0.0290087 0.0433582 0.000984 18.6456 -1.07604 22.5298 2650 
218 1 -0.0493176 -0.0228462 0.0473565 0.000635 18.4143 4.36933 19.1671 2650 
917 1 -0.0478915 -0.0271482 0.0487964 0.000635 17.1477 2.59668 16.8195 2650 
47 1 -0.0463262 -0.011364 0.0502826 0.000635 22.6659 -0.484312 20.821 2650 
509 1 -0.0451689 -0.0481407 0.0508661 0.000984 15.5462 3.68184 13.7932 2650 
732 1 -0.0461274 -0.0111769 0.051053 0.000175 26.1248 0.334029 20.7086 2650 
824 1 -0.00374886 -0.0614251 0.0530487 0.000175 104.171 1.53515 28.7451 2650 
839 1 -0.0435529 -0.0341568 0.0522554 0.000984 16.0885 -0.812279 13.3978 2650 
359 1 -0.0392018 -0.0566457 0.0565732 0.000175 71.3882 6.41737 49.4613 2650 
342 1 -0.0393725 -0.0189662 0.0554781 0.000984 24.0247 -2.74873 17.0372 2650 
969 1 -0.037806 -0.0240081 0.0565506 0.000984 18.8813 2.07402 12.6128 2650 
453 1 -0.0389843 -0.0126384 0.0561668 0.000635 23.8138 1.96337 16.5201 2650 
445 1 -0.0346288 -0.0243531 0.0589551 0.000635 33.5572 9.67116 19.6998 2650 
1105 1 -0.0326901 -0.0362101 0.0600549 0.000635 41.0007 -8.31438 22.3102 2650 
817 1 -0.0306681 -0.0554263 0.0610463 0.000635 1.10026 1.36849 0.373943 2650 
1081 1 -0.0317696 -0.020356 0.0605362 0.000635 19.5084 -0.885259 10.2349 2650 
59 1 -0.029409 -0.0576976 0.0619779 0.000175 23.6277 2.33594 14.2713 2650 
1313 1 -0.0285856 -0.0445977 0.0621022 0.000635 19.8912 -2.33592 9.10697 2650 
573 1 -0.0269333 -0.0429527 0.0624601 0.000984 19.5701 0.0129699 8.43634 2650 
1245 1 -0.0269521 -0.0123653 0.0628286 0.000635 19.7594 -3.27325 8.47494 2650 
946 1 -0.0193978 -0.00435656 0.065559 0.000635 33.599 6.48062 9.93741 2650 
475 1 -0.0111861 -0.050226 0.0670912 0.000984 20.8644 1.92915 3.47782 2650 
152 1 -0.0130508 -0.00605455 0.0671078 0.000635 18.8124 -0.477531 3.65847 2650 
481 1 -0.0115515 -0.052933 0.0673823 0.000635 22.8363 1.81079 3.91468 2650 
377 1 -0.00378922 -0.0474391 0.0679108 0.000984 17.5234 1.75926 0.977679 2650 
719 1 -0.00328174 -0.0254422 0.0682862 0.000635 19.5854 -3.36419 0.946516 2650 
1215 1 -0.00208933 -0.024201 0.0683332 0.000635 18.132 -1.69142 0.54852 2650 
543 1 -0.00550726 -0.0172508 0.0681433 0.000635 25.5162 -1.341 2.062 2650 
678 1 -0.00850548 -0.00706688 0.0678339 0.000635 19.586 -0.555534 2.45578 2650 
659 1 -0.00734215 -0.00429375 0.0684323 0.000175 16.4739 4.52698 1.7675 2650 
427 1 -0.020978 0.0592 -0.06555 0.000175 -0.149628 -0.135707 0.0476254 2650 
394 1 -0.000760234 0.00405425 -0.0166531 0.000175 0.0177713 -0.00269008 -0.000814864 2650 
128 1 -0.00410026 0.0213155 -0.0161699 0.000175 -0.0167694 0.00976592 -0.00144946 2650 
1160 1 -0.00488081 0.0606083 -0.0163441 0.000175 -0.0151899 0.0923138 -0.22484 2650 
153 1 -0.0018431 0.0693758 -0.0167681 0.000635 0.0175533 0.0404337 -0.0461142 2650 
606 1 -0.0050046 0.00514004 -0.0148779 0.000984 -0.0160108 -0.0134964 -0.00388439 2650 
450 1 -0.00549641 0.00742481 -0.0152738 0.000635 -0.015395 -0.00590562 0.0049261 2650 
557 1 -0.00602112 0.0185962 -0.0152776 0.000175 -0.0188961 0.00570312 0.0140032 2650 
1121 1 -0.00248177 0.0256397 -0.0149494 0.000175 0.0447034 0.00915895 -0.0141619 2650 
787 1 -0.00386312 0.0489706 -0.0152282 0.000175 -0.0222741 0.0518681 0.0089216 2650 
17 1 -0.00781052 0.0235051 -0.0137805 0.000635 -0.00925211 0.0193733 -0.00955197 2650 
1183 1 -0.00473501 0.00138792 -0.0122688 0.000175 -0.0249075 0.000848185 -0.0223452 2650 
929 1 -0.00153947 0.0163509 -0.0122952 0.000175 0.0104847 0.00179892 0.000661394 2650 
263 1 -0.0111668 0.0201731 -0.0123369 0.000175 -0.0211951 0.0194797 0.0160359 2650 
182 1 -0.00973043 0.0247006 -0.0125531 0.000635 -0.00177311 0.0178325 0.0101764 2650 
1270 1 -0.00853139 0.0515306 -0.0130706 0.000635 0.0136541 0.0578399 -0.00207981 2650 
744 1 -0.00875806 0.0363639 -0.0117324 0.000635 0.00529143 0.0224478 0.00671831 2650 
544 1 -0.00825855 0.0657861 -0.0117597 0.000635 0.00103098 0.0514941 -0.00390016 2650 
270 1 -0.00479777 0.0261256 -0.0099772 6.3e-05 0.000631057 0.0149424 -0.0171158 2650 
741 1 -0.0100971 0.0507395 -0.0106796 0.000635 0.027262 0.0330796 -0.00299885 2650 
538 1 -0.0116932 0.00271145 -0.00946541 6.3e-05 0.0103241 -0.00409487 0.00939318 2650 
1254 1 -0.00907349 0.00878537 -0.00933169 0.000175 0.0186143 0.00956199 0.0139469 2650 
988 1 -0.0121939 0.024486 -0.00877602 0.000175 -0.00102292 0.0262001 -0.0340903 2650 
655 1 -0.0132754 0.0384745 -0.00928341 0.000635 0.049807 0.0306391 -0.0660752 2650 
628 1 -0.0120811 0.0510046 -0.00896794 0.000175 -0.00471146 0.0486702 0.018084 2650 
177 1 -0.0105217 0.0621354 -0.00874287 0.000635 0.0241682 0.0459931 -0.0189381 2650 
616 1 -0.00668662 0.0128786 -0.00836018 0.000635 0.000113414 -0.00205097 -0.00110098 2650 
80 1 -0.0139878 0.0141506 -0.00807615 0.000635 -0.0150043 -0.0131219 0.0286317 2650 
850 1 -0.00262737 0.021913 -0.00831643 0.000635 -0.0219301 0.0051258 0.00978965 2650 
615 1 -0.00992069 0.0274997 -0.00727187 0.000635 0.0192703 0.0210394 -0.0552808 2650 
811 1 -0.00216893 0.0350818 -0.00806225 0.000635 0.0258309 0.026631 0.00818599 2650 
1234 1 -0.01364 0.0470314 -0.00773631 0.000984 0.00968473 0.0282548 -0.0122412 2650 
556 1 -0.00964305 0.0617861 -0.00775853 0.000635 -0.00135213 0.0713436 0.00339628 2650 
952 1 -0.0153022 0.00116176 -0.00662545 0.000175 -0.02923 0.00157972 0.0543164 2650 
549 1 -0.0123269 0.0141564 -0.00658415 0.000635 0.0049784 0.00763864 -0.00249761 2650 
135 1 -0.0157029 0.0195587 -0.00626544 6.3e-05 -0.0402541 0.0378968 0.160633 2650 
537 1 -0.0101041 0.0351814 -0.00616336 6.3e-05 -0.00520579 0.0105909 0.0263937 2650 
694 1 -0.0151379 0.0124816 -0.00577183 0.000175 -0.0158221 -0.00576723 0.0261001 2650 
102 1 -0.00836947 0.0086463 -0.00435485 6.3e-05 0.00334847 -0.0040666 0.000832772 2650 
1165 1 -0.00534739 0.0232607 -0.00360684 6.3e-05 -0.0251296 0.0122005 -0.0197042 2650 
603 1 -0.00865193 0.0292024 -0.00363847 6.3e-05 -0.0228969 0.0261059 -0.0124792 2650 
164 1 -0.0126993 0.0337439 -0.00427849 0.000175 0.00437004 0.0255422 0.00773665 2650 
1118 1 -0.00510499 0.0586867 -0.00394288 0.000175 -0.0171479 0.0473491 -0.00170642 2650 
471 1 -0.0152851 0.00408171 -0.00271421 6.3e-05 -0.0133306 0.00124693 0.030301 2650 
46 1 -0.015211 0.0245283 -0.00357575 0.000635 -0.005517 0.0307783 -0.0172735 2650 
440 1 -0.0157539 0.03424 -0.00257255 6.3e-05 0.0234182 0.112197 -0.0919771 2650 
793 1 -0.00366887 0.00365258 -0.00129048 0.000175 -0.01302 -0.00534085 0.00471118 2650 
745 1 -0.0114118 0.00888065 -0.00194909 0.000635 0.00790379 0.00464696 -0.00402345 2650 
273 1 -0.014298 0.0378321 -0.00206616 0.000984 -0.00246442 0.014433 0.00366859 2650 
610 1 -0.00154958 0.0437388 -0.00212184 0.000635 -0.0163302 0.0241764 0.0111607 2650 
380 1 -0.0135055 0.0516811 -0.00187295 0.000635 -0.00523874 0.0333881 0.0264326 2650 
490 1 -0.00994639 0.0647832 -0.00148076 0.000635 0.010878 0.0421144 0.0175208 2650 
432 1 -0.0134974 0.025536 -0.000741621 0.000175 -0.013381 0.0143138 -0.0070222 2650 
673 1 -0.013447 0.0358167 -0.000884157 0.000984 0.0196155 0.120307 0.0657807 2650 
640 1 -0.01456 0.0473964 -0.00098756 0.000984 0.00256987 0.043477 0.0132492 2650 
1229 1 -0.0136891 0.0495445 -0.001136 0.000175 -0.0128407 0.0378451 -0.000284162 2650 
234 1 -0.0164937 0.0535951 -1.19871e-06 0.000175 -0.00282341 0.0233628 0.0287787 2650 
987 1 -0.0688283 0.0741251 -0.000180118 0.000175 -3.23445e-06 -0.328364 0.00123577 2650 
21 1 -0.0134978 0.00403918 0.00102234 0.000175 -0.0344482 -0.00229089 0.000569705 2650 
276 1 -0.0159015 0.00692057 0.000871419 0.000984 -0.00192886 0.00125841 0.0442575 2650 
809 1 -0.00324278 0.0186385 0.000451449 0.000635 0.011989 0.00465869 0.00803123 2650 
459 1 -0.0165705 0.0422043 0.000176888 0.000175 -0.00133566 0.0413572 0.0420744 2650 
364 1 -0.0162734 0.0449546 0.000616091 0.000175 0.00213022 0.0338876 0.0270931 2650 
160 1 -0.0122027 0.0446484 0.000220066 0.000175 0.0150958 0.031605 0.00405289 2650 
859 1 -0.0144471 0.000862575 0.00153934 0.000175 -0.000660815 -0.00390032 0.0101657 2650 
94 1 -0.00582305 0.003085 0.00210555 0.000175 -0.00172904 -0.00895857 0.0161042 2650 
956 1 -0.0123884 0.00795288 0.00206065 0.000175 -0.00560381 0.00631663 0.0087735 2650 
1070 1 -0.0155432 0.0317719 0.00207262 0.000984 0.00817889 0.021007 0.0323177 2650 
1203 1 -0.00765467 0.057735 0.00162574 0.000635 -0.0144295 0.0434262 0.00817106 2650 
815 1 -0.0148476 0.0166337 0.00254637 0.000635 -0.00690602 0.000126092 0.0122429 2650 
1147 1 -0.0141417 0.0186107 0.00291035 0.000635 0.00543897 0.0275218 -0.0309502 2650 
1094 1 -0.00150608 0.0358721 0.00258195 0.000175 0.00407957 0.0151024 0.0177536 2650 
553 1 -0.0682905 0.0438389 0.00354764 0.000635 1.58033 -6.62335 30.406 2650 
154 1 -0.00509755 0.00832925 0.00426772 0.000175 -0.0122071 -7.75424e-06 0.0130802 2650 
980 1 -0.00571752 0.0216316 0.00393835 0.000635 -0.0192344 0.0152837 0.000752438 2650 
592 1 -0.0160724 0.0264223 0.00391868 0.000175 0.013664 0.0108302 -0.00477251 2650 
457 1 -0.009469 0.0390034 0.00363479 0.000635 0.00864996 0.0203684 -0.0187352 2650 
594 1 -0.00808709 0.0474664 0.00469274 0.000175 -0.0347055 0.048214 0.0318325 2650 
309 1 -0.0147995 0.00320306 0.00503996 0.000984 0.0138203 -0.00227847 0.0246908 2650 
1035 1 -0.0147596 0.00620986 0.00559164 0.000984 0.0150924 0.00309708 0.0341274 2650 
944 1 -0.0112859 0.00935198 0.0050337 0.000635 0.0028811 0.0120114 -0.0172351 2650 
880 1 -0.00192103 0.0522539 0.00500564 0.000635 0.00718633 0.0348972 0.0156473 2650 
1290 1 -0.0143969 0.00943199 0.00618603 0.000175 -0.00391473 0.00241023 0.00420642 2650 
284 1 -0.00358695 0.0197398 0.00601213 0.000635 -0.0203698 0.0114504 -0.000379486 2650 
1281 1 -0.0109002 0.021932 0.00677739 0.000635 -0.0137882 0.00812184 0.0123998 2650 
945 1 -0.00557669 0.0351034 0.00670321 0.000635 0.0285537 -0.00985895 0.0929483 2650 
1197 1 -0.0151472 0.0389092 0.00653184 6.3e-05 0.0179987 0.0284419 0.0353923 2650 
915 1 -0.00602477 0.0476491 0.00707114 0.000635 0.00218725 0.0319934 0.0147181 2650 
1056 1 -0.0156781 0.0591173 0.00601069 0.000175 0.0120841 0.117152 0.060999 2650 
331 1 -0.0149677 0.00594369 0.00755393 0.000175 0.0200784 -0.0170562 0.0487703 2650 
542 1 -0.0135769 0.00821525 0.00815774 0.000984 0.0316731 0.000262803 0.0418198 2650 
372 1 -0.0147832 0.0104882 0.0078585 6.3e-05 0.00247308 0.00146638 -0.00565257 2650 
711 1 -0.00225401 0.0241784 0.00735824 0.000635 -0.00909642 0.00887011 -0.00805635 2650 
87 1 -0.00832828 0.031029 0.00819397 0.000175 -0.0153827 0.0288846 -0.0108285 2650 
1188 1 -0.0128325 0.0442072 0.00723048 0.000175 0.0285944 0.0228297 0.0185948 2650 
1305 1 -0.00963804 0.0563733 0.00800601 0.000635 0.0687382 0.0375122 0.306572 2650 
1150 1 -0.0138594 0.000878254 0.00916818 0.000175 0.0034102 -0.00514617 0.0232732 2650 
1066 1 -0.0127863 0.00326051 0.00941469 6.3e-05 0.0195632 -0.0015488 0.0403923 2650 
875 1 -0.00684642 0.0304025 0.0093943 0.000635 -0.0314893 0.0186528 -0.0143778 2650 
1055 1 -0.00412396 0.0508621 0.00910687 0.000175 0.0114005 0.0341613 0.0308116 2650 
184 1 -0.00151105 0.000674879 0.00991788 0.000635 0.0124831 0.00109035 -0.00872167 2650 
670 1 -0.0129643 0.0163464 0.0106862 6.3e-05 0.24764 -0.0748988 0.331187 2650 
415 1 -0.0112862 0.0229356 0.00961419 0.000635 0.0161237 0.0100808 -0.00558767 2650 
1088 1 -0.00645136 0.00564237 0.0109695 0.000175 0.0234908 -0.0238346 0.0240117 2650 
705 1 -0.00772004 0.0480683 0.0113591 0.000984 -0.0081655 0.0332307 -0.0188099 2650 
217 1 -0.00234458 0.0536533 0.0114542 0.000635 0.0127131 0.0335024 -0.0108977 2650 
5 1 -0.00915956 0.0549629 0.0109623 0.000635 0.01061 0.0221247 0.0433528 2650 
742 1 -0.00063652 0.00489706 0.0129969 0.000635 0.0140396 0.00776509 0.000639 2650 
1017 1 -0.00963334 0.011629 0.0131732 0.000635 0.062139 -0.00409508 0.054454 2650 
516 1 -0.00992363 0.0141577 0.0124391 0.000635 0.0715769 0.00860346 0.0540579 2650 
158 1 -0.0106106 0.0398024 0.0128803 0.000175 0.0487036 0.0319186 0.0418933 2650 
98 1 -0.00887122 0.00613038 0.0132017 0.000175 0.0310111 0.00881371 0.0263511 2650 
1283 1 -0.00899242 0.0147672 0.0139715 0.000175 0.100132 0.0207068 0.0496082 2650 
260 1 -0.00757118 0.0277083 0.0140413 0.000175 0.0086238 0.0203435 0.0332592 2650 
837 1 -0.00609354 0.0553745 0.0143914 0.000984 0.0231919 0.0309858 0.0109167 2650 
181 1 -0.00492217 0.0641015 0.0150794 0.000635 -0.0198467 0.0502194 -0.0016065 2650 
44 1 -0.00243543 0.0164023 0.0157049 0.000635 0.00871009 0.0312332 -0.00223402 2650 
133 1 -0.00262251 0.0240353 0.0165604 6.3e-05 -0.0321478 0.00579 -0.0067134 2650 
505 1 -0.00476261 0.0251945 0.0160946 6.3e-05 0.216653 -0.0169702 0.0535771 2650 
746 1 -0.000745141 0.02813 0.0160893 0.000635 0.0104337 0.0146177 0.00726368 2650 
61 1 -0.00287505 0.0345773 0.0163262 0.000175 0.025075 0.0793578 0.00589687 2650 
792 1 -0.045081 0.0382005 0.0520062 0.000175 20.0645 6.44834 17.3897 2650 
588 1 -0.0304266 0.0418786 0.0612209 0.000635 0.0927988 -0.427999 0.0461207 2650 
474 1 -0.0131362 0.0714076 0.0667354 0.000984 -0.0757601 -0.344438 -0.0149126 2650 
493 1 -0.0472124 0.0857822 -0.0500822 0.000175 -48.218 2.72248 45.4486 2650 
1137 1 -0.00871425 0.0779483 -0.0131898 0.000635 0.0245564 0.0811173 -0.0315333 2650 
676 1 -0.00247394 0.0896376 -0.0102999 0.000635 0.00527264 0.0630703 -0.0122838 2650 
1221 1 -0.0166742 0.0763759 -0.00317181 0.000175 -0.0332855 0.0516174 0.0180834 2650 
121 1 -0.00846832 0.0794472 0.00398341 0.000175 0.00697799 0.0548975 0.0138093 2650 
507 1 -0.00513444 0.0955473 0.0119123 0.000984 -0.0250295 0.067087 -0.00162142 2650 
797 1 -0.00334585 0.0992593 0.0113778 0.000175 0.0118864 0.0790411 -0.00359162 2650 
1240 1 -0.0636431 0.0827184 0.0249951 0.000635 -0.0580053 -0.265799 -0.147606 2650 
140 1 -0.0373639 0.143311 0.0568415 0.000984 17.0252 -0.300648 11.1823 2650 
180 1 0.061016 -0.00379363 -0.0308586 0.000635 -6.84653 -3.13971 -13.5295 2650 
463 1 0.00201785 -0.0506977 -0.0687954 0.000175 -14.3242 -0.97534 -0.420145 2650 
995 1 0.00354565 -0.0107479 -0.0687336 0.000175 -21.8881 -1.85913 -1.12911 2650 
81 1 0.00826909 -0.0550571 -0.0678632 0.000635 -21.0269 1.49613 -2.56203 2650 
1002 1 0.00395199 -0.0418245 -0.0679036 0.000984 -24.6346 3.75772 -1.4332 2650 
355 1 0.00321579 -0.0353352 -0.0682895 0.000635 -22.161 1.12238 -1.04354 2650 
376 1 0.0217698 -0.0503745 -0.0644423 0.000984 -23.0752 -0.7432 -7.79069 2650 
346 1 0.0218425 -0.0141567 -0.0647822 0.000635 -20.8177 -1.956 -7.01835 2650 
842 1 0.0141172 -0.0217366 -0.0626092 0.000635 3.9375 0.121851 3.63412 2650 
625 1 0.0327366 -0.0172653 -0.0605409 0.000175 -18.887 0.00982392 -10.2128 2650 
72 1 0.0340847 -0.00680624 -0.0588639 0.000984 -16.5301 2.97447 -9.56477 2650 
447 1 0.0371018 -0.0313811 -0.0574424 0.000635 -34.678 -8.43148 -19.2431 2650 
999 1 0.0402004 -0.0619628 -0.0560021 6.3e-05 -16.1693 -0.246947 -11.607 2650 
249 1 0.0400112 -0.0524542 -0.0554338 0.000635 -7.28133 6.01345 -5.2549 2650 
2 1 0.0380273 -0.0304645 -0.0563752 0.000984 -34.9003 3.69 -23.1716 2650 
1038 1 0.0390464 -0.0031894 -0.0561193 0.000635 -14.9698 -0.0553578 -10.4106 2650 
150 1 0.0401696 -0.0497759 -0.0553326 0.000635 -34.9476 -16.0197 -25.3588 2650 
1308 1 0.0423989 -0.0377828 -0.0536305 0.000635 -8.86043 3.60981 -7.00147 2650 
886 1 0.0448611 -0.0219301 -0.0521955 0.000175 -11.8348 -2.13905 -10.1711 2650 
1036 1 0.044304 -0.00734587 -0.0516172 0.000984 -12.6232 -1.93218 -10.8251 2650 
1316 1 0.0415789 -0.0150853 -0.0495131 0.000175 -1.69493 -5.79898 -6.80382 2650 
51 1 0.0475022 -0.0294427 -0.0491738 0.000635 -14.8493 0.847011 -14.336 2650 
1180 1 0.051183 -0.0163463 -0.0453306 0.000635 -10.7234 -2.55978 -12.1004 2650 
278 1 0.0512941 -0.0416412 -0.0445141 0.000635 -7.05226 -1.68739 -4.03808 2650 
476 1 0.0538931 -0.0492275 -0.0415229 0.000984 -14.9395 1.83211 -19.3746 2650 
146 1 0.0556745 -0.0612864 -0.0396887 0.000635 -8.88095 1.29573 -12.4505 2650 
914 1 0.0554163 -0.0284548 -0.0400527 0.000635 -15.1292 -6.73097 -20.9211 2650 
1037 1 0.055803 -0.000983861 -0.0389076 0.000984 -4.87864 0.000705913 -6.99049 2650 
607 1 0.0567149 -0.0592637 -0.0375745 0.000984 -10.2858 1.95745 -15.5122 2650 
1236 1 0.058752 -0.00349396 -0.0349721 0.000635 -1.20743 -0.722343 -2.02716 2650 
210 1 0.0596644 -0.00869529 -0.0333957 0.000635 -7.4953 -2.01237 -13.3832 2650 
50 1 0.0593504 -0.00175262 -0.0339516 0.000635 -9.14805 -2.31022 -15.9821 2650 
1301 1 0.0599176 -0.0327174 -0.0322203 0.000984 -4.68419 -6.73922 -8.70318 2650 
1168 1 0.0613083 -0.0372836 -0.029497 0.000984 -7.4279 2.20862 -15.4256 2650 
972 1 0.0614889 -0.0351357 -0.0299038 0.000635 -4.21144 -7.20808 -8.65461 2650 
916 1 0.0622529 -0.0244103 -0.0282863 0.000635 -9.75372 -1.47643 -21.4546 2650 
622 1 0.0619701 -0.00400969 -0.028896 0.000635 -6.54883 8.99356 -14.0365 2650 
1021 1 0.0634194 -0.0369077 -0.0267438 0.000175 -3.07605 -7.66774 -7.29323 2650 
1217 1 0.0636676 -0.0130074 -0.0261475 0.000175 -2.31433 -2.90557 -5.63429 2650 
515 1 0.0629621 -0.0090199 -0.0266662 0.000635 -5.51467 -1.33074 -13.0136 2650 
320 1 0.063483 -0.0181651 -0.0254041 0.000635 -6.7716 -2.42391 -16.9124 2650 
612 1 0.0642789 -0.0121123 -0.0233206 0.000635 -7.51057 4.51449 -20.6904 2650 
540 1 0.064594 -0.0469361 -0.0213628 0.000984 -2.84377 1.14504 -8.59279 2650 
1131 1 0.0653085 -0.0444374 -0.019664 6.3e-05 -3.41996 8.91742 -3.54201 2650 
41 1 0.0469065 -0.0264952 -0.0186937 0.000635 12.0061 0.751356 7.61804 2650 
375 1 0.0656632 -0.00543522 -0.0178317 0.000984 -6.07189 -3.59482 -22.3408 2650 
1208 1 0.0666784 -0.0430338 -0.0151484 0.000635 -1.82584 1.97018 -8.03218 2650 
410 1 0.0660846 -0.0044187 -0.016202 0.000984 -5.58532 -3.11565 -22.7656 2650 
913 1 0.067047 -0.0405729 -0.0134309 0.000635 -3.37702 -5.55875 -16.8489 2650 
713 1 0.0673433 -0.00488012 -0.011862 0.000635 -3.75429 -2.59534 -21.3013 2650 
492 1 0.0085006 -0.00109261 -0.0113009 0.000175 -0.00654968 -0.00660409 0.00812618 2650 
1006 1 0.0674035 -0.0426319 -0.0115614 0.000635 -8.09642 -13.0587 -47.1814 2650 
301 1 0.00809178 -0.00108284 -0.0106762 0.000175 -0.0144327 -0.00789387 -0.00395534 2650 
75 1 0.0677963 -0.0607503 -0.00891802 0.000635 -2.88995 0.636388 -21.9581 2650 
68 1 0.0144284 -0.00245819 -0.00836846 6.3e-05 -0.00667709 -0.00873419 0.00304509 2650 
351 1 0.0679682 -0.0380964 -0.00750262 0.000635 -2.73734 -3.08658 -24.7857 2650 
1074 1 0.0682986 -0.0143118 -0.00335099 0.000635 -1.13458 3.63409 -23.113 2650 
1276 1 0.0683047 -0.0123101 -0.00318535 0.000635 -0.59567 -1.54554 -12.7663 2650 
906 1 0.0683457 -0.0294345 -0.00225885 0.000635 -1.04586 -0.4498 -31.6296 2650 
1091 1 0.0688038 -0.0158035 -0.00185542 0.000175 -0.764322 2.84203 -28.3388 2650 
42 1 0.00447803 -0.0031808 -0.000822136 0.000635 -0.00374146 -0.00261923 -0.00175196 2650 
131 1 0.0106211 -0.00255992 0.00277292 0.000175 -0.00484968 -0.0101609 -0.0058065 2650 
1299 1 0.0679645 -0.0601 0.00333632 0.000984 1.4329 1.53224 -29.1672 2650 
738 1 0.0679106 -0.0262911 0.00433996 0.000984 2.16472 8.43477 -33.8478 2650 
974 1 0.00808347 -0.00117007 0.00597098 0.000635 0.00256668 -0.00558816 -0.00744259 2650 
119 1 0.0681623 -0.019768 0.00547114 0.000635 2.1303 -0.819584 -26.5265 2650 
13 1 0.0680185 -0.041843 0.00704523 0.000635 3.11736 0.440384 -30.0814 2650 
577 1 0.0322936 -0.0403291 0.00781929 0.000635 -1.36087 -11.0297 1.49612 2650 
1123 1 0.0111626 -0.000409006 0.0080908 0.000175 -0.00415936 -0.0029465 -0.00832163 2650 
510 1 0.062123 -0.0151991 0.0092156 0.000635 5.58992 -3.97973 -3.35492 2650 
905 1 0.0675568 -0.0101877 0.00811708 0.000984 2.76625 -0.485353 -23.0048 2650 
1224 1 0.012419 -0.00121221 0.00929985 0.000175 0.0222858 -0.00121497 0.0118473 2650 
103 1 0.0673634 -0.0379429 0.00960304 0.000984 3.79501 0.802773 -26.6002 2650 
185 1 0.0676283 -0.0346319 0.0101239 0.000635 4.28862 5.23327 -28.6337 2650 
239 1 0.0672345 -0.0112299 0.0104539 0.000984 3.53753 -0.102855 -22.7338 2650 
1167 1 0.0105329 -0.00171908 0.011938 0.000984 0.0146962 -0.00454979 -0.015412 2650 
144 1 0.0671056 -0.0461414 0.013141 0.000635 4.43625 -1.68576 -22.6421 2650 
677 1 0.0666779 -0.0336064 0.0151571 0.000635 4.0592 3.53088 -17.8472 2650 
1302 1 0.0667365 -0.0242679 0.0149118 0.000635 6.96713 8.60003 -31.1652 2650 
838 1 0.0654673 -0.0453408 0.0185308 0.000984 5.3751 1.69735 -18.9742 2650 
248 1 0.0653726 -0.0473041 0.0200526 0.000635 6.36092 2.1551 -20.7258 2650 
1206 1 0.0648675 -0.0269607 0.0216368 0.000635 9.67525 0.943372 -28.9919 2650 
1045 1 0.064845 -0.0227298 0.0217002 0.000635 4.34681 -2.52382 -7.57538 2650 
795 1 0.0652666 -0.0183953 0.021854 0.000175 8.63859 -7.73619 -25.7949 2650 
966 1 0.0649525 -0.0293486 0.0231005 6.3e-05 7.5174 -2.10019 -21.1357 2650 
1263 1 0.0643445 -0.0200735 0.0247434 6.3e-05 7.32939 4.25577 -19.0587 2650 
416 1 0.063721 -0.0134814 0.024806 0.000635 9.42496 -6.34294 -24.1977 2650 
319 1 0.0637812 -0.00547365 0.0246497 0.000635 8.80169 0.0764494 -22.7623 2650 
682 1 0.0404645 -0.0101973 0.0270301 0.000635 6.04428 -0.600675 4.12581 2650 
149 1 0.0615234 -0.0362143 0.0294975 0.000635 6.59671 8.59078 -14.0981 2650 
1307 1 0.0617554 -0.000973912 0.0293567 0.000635 10.8942 6.02716 -22.905 2650 
283 1 0.0109724 -0.00534869 0.0674789 0.000635 20.8679 0.36911 -3.39307 2650 
582 1 0.060035 -0.0145131 0.0327284 0.000635 10.9781 1.04829 -20.1265 2650 
240 1 0.05816 -0.0522891 0.0352976 0.000984 9.47302 -1.34304 -15.5954 2650 
307 1 0.0572333 -0.0179457 0.0367875 0.000984 13.9008 -3.37117 -21.6095 2650 
1238 1 0.0566547 -0.0494925 0.0382783 0.000635 10.4876 1.55263 -15.5133 2650 
179 1 0.0540738 -0.0064674 0.0418469 0.000635 16.6971 -0.0440993 -21.564 2650 
558 1 0.0547504 -0.00509618 0.0417074 0.000175 15.8258 -4.12419 -20.7712 2650 
245 1 0.0531761 -0.00477944 0.042982 0.000635 18.0149 -2.0418 -22.2746 2650 
608 1 0.0527681 -0.00136324 0.0429427 0.000984 16.0073 0.810346 -19.6554 2650 
925 1 0.0523206 -0.0227816 0.044717 0.000175 15.2463 -3.42571 -17.8354 2650 
38 1 0.0273503 -0.0472662 0.0480863 0.000984 -4.4561 3.30953 -1.51684 2650 
1112 1 0.0490641 -0.041646 0.0476199 0.000635 20.2652 -0.90629 -20.8695 2650 
178 1 0.0487746 -0.0369151 0.0479174 0.000635 22.1534 4.61976 -22.5368 2650 
67 1 0.0470303 -0.0572771 0.050403 6.3e-05 15.3376 -3.91995 -14.3105 2650 
317 1 0.035605 -0.0569538 0.0583666 0.000635 25.4302 -2.77073 -15.5055 2650 
716 1 0.0336055 -0.019709 0.0595376 0.000635 20.995 0.818253 -11.8456 2650 
1271 1 0.0301575 -0.0173066 0.0613556 0.000635 22.0144 -1.01418 -10.8168 2650 
117 1 0.0146254 -0.034951 0.0630353 0.000635 29.2842 -10.8996 -13.3629 2650 
649 1 0.0237091 -0.0603819 0.0638521 0.000635 -6.59684 0.627567 2.16266 2650 
766 1 0.0263137 -0.0284704 0.0635961 0.000175 23.8583 1.17697 -9.87166 2650 
1300 1 0.0163062 -0.0300571 0.066034 0.000984 20.2257 -2.7322 -4.99289 2650 
646 1 0.0179884 -0.0270872 0.0659563 0.000635 21.642 -2.06436 -5.90198 2650 
545 1 0.00568524 -0.0428076 0.0681283 0.000635 19.581 2.4709 -1.63398 2650 
482 1 0.00963104 -0.0382148 0.0676833 0.000635 20.1178 -1.47198 -2.86259 2650 
654 1 0.00502384 -0.0276764 0.0681802 0.000635 23.5097 1.38908 -1.7222 2650 
962 1 0.0556906 0.0495136 -0.0404462 0.000175 -37.0479 -9.6392 -51.0042 2650 
791 1 0.00410912 0.0264422 -0.0161719 0.000175 0.0388104 0.00191052 0.00679099 2650 
931 1 0.00122525 0.0305306 -0.0164337 0.000175 -0.00456496 0.0283649 -0.0339532 2650 
1177 1 0.00347243 0.0300048 -0.01583 0.000635 -0.3622 0.0165074 -0.0905013 2650 
683 1 0.00540348 0.00540165 -0.0145203 0.000635 -0.00248969 -0.000409653 -0.0121039 2650 
305 1 0.00507698 0.0319524 -0.0150667 6.3e-05 -0.00824593 0.01902 -0.0195072 2650 
568 1 0.00848048 0.00017963 -0.0143089 0.000175 -0.00921848 -0.00326409 -0.00112218 2650 
167 1 0.00349969 0.00715232 -0.0136239 6.3e-05 -0.00408398 -0.00216563 0.000702262 2650 
269 1 0.00870166 0.0183631 -0.0144001 6.3e-05 -0.499299 0.0372163 -0.264385 2650 
781 1 0.00720611 0.0442045 -0.0137973 0.000635 -0.0615706 -0.023768 0.0466707 2650 
55 1 0.00854565 0.0539421 -0.0141083 0.000175 0.0454 0.0819081 0.0144963 2650 
923 1 0.00352669 0.00204969 -0.0123634 0.000175 -0.0136853 -0.0131155 -0.00228702 2650 
645 1 0.00995237 0.0223541 -0.0129484 0.000635 -0.0872487 0.0206731 -0.0760395 2650 
1080 1 0.00760472 0.0466099 -0.0131359 0.000635 -0.0165962 0.0230996 0.0156249 2650 
1164 1 0.010937 0.0493674 -0.0126508 6.3e-05 -0.0948702 0.0126237 -0.082459 2650 
689 1 0.0122271 0.0188102 -0.0114685 0.000175 0.00301123 0.00224218 0.023792 2650 
1315 1 0.0128255 0.00831885 -0.0107666 0.000175 -0.0287165 -0.000644442 -0.0236247 2650 
272 1 0.0132655 0.00754131 -0.0102657 6.3e-05 0.0220549 0.00277119 0.0252981 2650 
755 1 0.00783879 0.0216333 -0.0106615 0.000175 -0.0131343 0.00978216 -0.0134545 2650 
729 1 0.0112066 0.0285767 -0.00966851 0.000175 0.0132296 0.0247771 -0.114709 2650 
313 1 0.0127065 0.0507657 -0.00979904 0.000635 0.00040577 0.0365128 -0.00443533 2650 
829 1 0.00504113 0.0202666 -0.0095793 0.000175 0.0220791 0.0345281 -0.0297629 2650 
1063 1 0.0087129 0.0205714 -0.00930399 0.000175 0.000820305 0.010769 0.00318228 2650 
303 1 0.00142661 0.0249391 -0.00941814 6.3e-05 0.00873389 0.00534622 0.0221488 2650 
879 1 0.00369842 0.0377436 -0.00904746 0.000635 0.0136167 0.0204472 -0.00788415 2650 