ITEM: TIMESTEP
14814800
ITEM: NUMBER OF ATOMS
72
ITEM: BOX BOUNDS ff ff ff
-0.15 0.15
-0.15 0.15
-0.15 0.15
ITEM: ATOMS id type x y z radius vx vy vz density 
130 1 -0.030563 -0.0113605 -0.0607504 0.001058 -70.952 4.66814 35.6743 2650 
110 1 -0.0665905 -0.0437137 -0.016989 0.000291 -26.2597 -8.60319 102.909 2650 
135 1 -0.00169367 -0.000189051 -0.0156801 0.000291 0.0022501 0.000177671 -0.0146391 2650 
268 1 -0.0149035 -0.00104644 -0.00505694 0.000291 0.00750004 -0.00919407 -0.00294177 2650 
291 1 -0.008194 -0.000114985 0.004767 0.000291 0 -0.01175 0 2650 
186 1 -0.006177 -0.00217298 0.006545 0.001058 0 -0.01175 0 2650 
97 1 -0.0527369 -0.0394484 0.0420421 0.00164 31.2197 -2.13323 39.1228 2650 
299 1 -0.0600363 -0.0247454 0.0318986 0.001058 22.141 -7.94487 41.6425 2650 
28 1 -0.0525885 0.0716639 -0.0431021 0.001058 39.4942 0.945229 -48.1557 2650 
154 1 -0.00327665 0.0549254 -0.0142476 0.001058 0.0492559 0.0169081 -0.0128616 2650 
71 1 -0.00151296 0.00163977 -0.0101247 0.000291 0.00030078 -0.00911555 -0.0267516 2650 
300 1 -0.00545963 0.00787261 -0.0113497 0.001058 0.0250946 0.0210871 -0.0511145 2650 
164 1 -0.00961799 0.00742232 -0.00816695 0.001058 0.0138938 0.0171277 -0.0310947 2650 
18 1 -0.0121044 0.000499362 -0.00286281 0.001058 0.00685967 0.00591706 -0.0265147 2650 
7 1 -0.00439226 0.0268184 -0.00318134 0.000291 0.00379351 0.0136266 -0.000190797 2650 
224 1 -0.0100242 0.0409344 -0.000934056 0.001058 -0.00447147 0.0341032 -0.0147251 2650 
129 1 -0.0104357 0.00673413 0.00112556 0.00164 0.00953657 0.00766358 -0.0054588 2650 
123 1 -0.00586156 0.0688037 0.00880025 0.001058 -0.10646 0.245211 -0.0271225 2650 
303 1 -0.0116294 0.0453227 0.0118134 0.000291 -0.0728444 0.0996459 -0.0844904 2650 
1 1 -0.00971614 0.0471266 0.0110673 0.00164 0.0739651 0.0016646 0.0332003 2650 
256 1 -0.00529565 0.0173116 0.015757 0.000291 -0.113032 -0.0210469 -0.046979 2650 
242 1 -0.00735517 0.0295146 0.015105 0.000291 -0.0767911 -0.00747043 -0.0587995 2650 
265 1 -0.000654807 0.0781237 0.00616878 0.001058 -0.0204402 0.112542 -0.0187481 2650 
122 1 0.0655595 -0.0204567 -0.017972 0.001058 -9.39755 -1.174 -34.2554 2650 
37 1 0.006156 -0.000801985 -0.015157 0.000291 0 -0.01175 0 2650 
78 1 0.001258 -0.000815985 -0.012517 0.000291 0 -0.01175 0 2650 
275 1 0.012705 -0.00306898 -0.010476 0.000291 0 -0.01175 0 2650 
266 1 0.0670129 -0.0581062 -0.00230438 0.001058 -9.26735 10.8515 -45.8174 2650 
67 1 0.00311481 -0.00261027 0.000612517 0.001058 -0.000444379 -0.0122145 0.0155727 2650 
48 1 0.00972615 -0.0033094 0.000234329 0.000105 0.162464 -0.0159008 0.00391418 2650 
128 1 0.00366702 -0.0014803 0.000565321 0.000105 0.00192707 -0.00767127 0.00183588 2650 
101 1 0.004812 -0.00287798 0.002517 0.000291 0 -0.01175 0 2650 
212 1 0.001087 -0.00308398 0.005915 0.000291 0 -0.01175 0 2650 
271 1 0.0668335 -0.0229115 0.0124773 0.001058 8.58527 -11.7374 -45.9535 2650 
208 1 0.0668377 -0.00749877 0.0124904 0.001058 9.90976 13.0161 -52.9922 2650 
79 1 0.0197368 -0.00583174 0.0177201 0.000291 2.57092 -0.397204 2.0204 2650 
99 1 0.0620133 -0.039447 0.0279137 0.001058 28.8878 -4.26927 -63.6602 2650 
25 1 0.0611966 -0.0347533 0.0284897 0.00164 32.3726 8.04685 -69.2501 2650 
231 1 0.00205432 -0.0124667 0.067928 0.001058 40.7039 -0.18028 -1.23016 2650 
202 1 0.0140207 -0.0335936 0.0664811 0.001058 15.3705 9.73193 -3.19227 2650 
24 1 0.0466371 -0.00450604 0.0473797 0.000105 7.27528 -0.121948 7.39112 2650 
103 1 0.0441694 -0.0623251 0.0525594 0.000291 20.2968 3.70073 -17.8917 2650 
33 1 0.0229956 -0.058908 0.0519166 0.00164 6.07469 6.17076 -6.55154 2650 
140 1 0.0433044 -0.0562522 0.0523775 0.001058 24.3583 3.52119 -20.1228 2650 
100 1 0.0395048 -0.0569599 0.0553133 0.001058 37.3345 -9.40558 -26.6412 2650 
285 1 0.0253116 -0.0359382 0.0630549 0.001058 20.1871 -1.81531 -8.09236 2650 
260 1 0.0165185 0.0481721 -0.0666946 0.000291 -44.3186 -13.131 -10.9752 2650 
106 1 0.0107908 0.00177635 -0.0114878 0.001058 -0.215544 -0.146131 -0.189061 2650 
134 1 0.00177955 0.00592734 -0.0114681 0.000291 -0.0118829 0.00375813 -0.00608975 2650 
187 1 0.0097993 0.0342365 -0.0119854 0.001058 0.00550104 0.0678549 0.00577126 2650 
144 1 0.012744 0.0359126 -0.0109353 0.000105 0.0987944 -0.0186572 0.113399 2650 
127 1 0.00904581 0.058966 -0.010392 0.000291 0.0287766 0.0561217 0.00113528 2650 
77 1 0.0109531 0.011804 -0.00929513 0.000291 0.0277953 0.00207908 -0.016867 2650 
278 1 0.00712794 0.00147435 -0.00382212 0.001058 0.0220425 -0.000154396 0.00155272 2650 
9 1 0.0147141 0.0127208 -0.00393095 0.00164 -0.117751 -0.00681431 -0.641455 2650 
195 1 0.0157726 0.0150614 -0.00122837 0.001058 -0.0240679 -0.0700637 -0.129872 2650 
126 1 0.0164774 0.0283575 -0.00198019 0.000291 -0.0473339 0.215819 -0.275779 2650 
294 1 0.00772069 0.00361126 0.00157274 0.001058 -0.1379 0.0658135 -0.069033 2650 
105 1 0.00592987 0.00618082 0.00150676 0.00164 0.00389757 0.000354559 0.0188776 2650 
75 1 0.0153997 0.0225143 0.00111176 0.001058 -0.00693239 -0.0413752 -0.0758672 2650 
249 1 0.00250853 0.028997 0.00125627 0.000291 0.00967839 0.0183331 -0.0129307 2650 
217 1 0.0154379 0.0165771 0.00254682 0.001058 0.056285 0.0555044 -0.262103 2650 
41 1 0.0143355 0.0254438 0.0035183 0.00164 0.0113555 0.000536849 -0.087445 2650 
142 1 0.015375 0.00476233 0.00621946 0.000291 0.054248 -0.150086 -0.175957 2650 
139 1 0.0139643 0.0225356 0.00659735 0.001058 -0.0136668 0.00686955 0.0124231 2650 
203 1 0.0132924 0.0325988 0.00758145 0.001058 -0.0259184 0.0342383 0.00359995 2650 
204 1 0.00716174 0.00728488 0.0130075 0.001058 0.0905287 0.000134738 -0.072046 2650 
113 1 0.000357433 0.0435671 0.0152681 0.00164 -0.0810008 0.0747603 -0.00343076 2650 
87 1 0.002286 0.0314946 0.0163783 0.000291 0.145135 -0.033344 -0.025481 2650 
245 1 0.00503597 0.0786487 -0.00517488 0.001058 0.0132501 0.0534812 -0.0221989 2650 
276 1 0.0149816 0.0803001 -0.00338941 0.000291 0.0440419 0.101223 0.0171379 2650 
47 1 0.0666954 0.115937 0.0165685 0.000291 -23.8345 14.651 95.9261 2650 
