ITEM: TIMESTEP
18518480
ITEM: NUMBER OF ATOMS
45
ITEM: BOX BOUNDS ff ff ff
-0.15 0.15
-0.15 0.15
-0.15 0.15
ITEM: ATOMS id type x y z radius vx vy vz density 
97 1 -0.0182595 -0.053387 -0.0648888 0.00164 -40.6417 3.60389 11.4247 2650 
71 1 -0.0206642 -0.0138334 -0.065528 0.000291 -0.123717 -0.298784 0.0388284 2650 
99 1 -0.0128869 -0.0574587 -0.0617916 0.001058 3.9975 -10.2561 0.798632 2650 
294 1 -0.0512576 -0.0221551 -0.044607 0.001058 -0.14039 -0.481486 0.161138 2650 
78 1 -0.0566479 -0.0192126 -0.0388975 0.000291 -38.1919 -4.54373 55.6083 2650 
195 1 -0.0247943 -0.00785227 -0.0412699 0.001058 -3.6782 -0.396879 -6.10997 2650 
75 1 -0.0587027 -0.0118678 -0.0342346 0.001058 -0.582921 0.168042 0.998516 2650 
186 1 -0.0582913 -0.00433547 -0.0349305 0.001058 -2.55002 -1.55899 4.25096 2650 
285 1 -0.065793 -0.0589102 0.0170424 0.001058 -2.95363 6.96642 -11.3924 2650 
291 1 -0.0605823 -0.0266367 0.0324227 0.000291 -0.0889942 -1.01821 -0.166238 2650 
164 1 -0.00422307 0.0120676 -0.0140929 0.001058 0.026273 0.0121525 0.00323796 2650 
134 1 -0.00178529 0.00705477 -0.013295 0.000291 -0.0118829 0.00375813 -0.00608975 2650 
18 1 -0.0100465 0.00227447 -0.0108172 0.001058 0.00685967 0.00591706 -0.0265147 2650 
242 1 -0.0126469 0.0335149 -0.00625092 0.000291 0.0409837 0.0577114 -0.0566962 2650 
224 1 -0.0113657 0.0511653 -0.00535156 0.001058 -0.00447147 0.0341032 -0.0147251 2650 
7 1 -0.00325421 0.0309064 -0.00323858 0.000291 0.00379351 0.0136266 -0.000190797 2650 
129 1 -0.00757476 0.00903319 -0.000512074 0.00164 0.00953657 0.00766358 -0.0054588 2650 
1 1 -0.00497251 0.0480702 0.00774418 0.00164 0.00440942 0.00343467 -0.0197597 2650 
113 1 -0.00345053 0.0648019 0.00993185 0.00164 0.000748363 0.070038 -0.0197834 2650 
9 1 -0.00496351 0.0169734 0.0144177 0.00164 0.416754 -0.0251318 0.106009 2650 
217 1 -0.00252134 0.026368 0.0156289 0.001058 0.226929 -0.0229926 0.0560413 2650 
144 1 -0.00501956 0.0319917 0.016079 0.000105 -0.128703 -0.0029604 -0.0530752 2650 
265 1 -0.00678684 0.111886 0.00054439 0.001058 -0.0204402 0.112542 -0.0187481 2650 
135 1 0.0258463 -0.0444222 -0.0636624 0.000291 -20.0978 2.56714 -8.15948 2650 
110 1 0.0415459 -0.00679463 -0.0547286 0.000291 -34.5301 -4.54994 -26.2063 2650 
268 1 0.0554784 -0.0208638 -0.0405422 0.000291 -21.4581 1.03383 -29.3559 2650 
79 1 0.0649123 -0.0147625 -0.0225468 0.000291 16.5473 10.1653 47.6289 2650 
208 1 0.06297 -0.0611119 -0.0256778 0.001058 -24.9931 2.25982 -61.2755 2650 
128 1 0.0677064 -0.012656 0.0127529 0.000105 0.0149179 -0.276989 -0.0791931 2650 
37 1 0.0668266 -0.045725 0.0160579 0.000291 33.1816 14.8047 -138.066 2650 
154 1 0.0391053 0.0601145 -0.0535655 0.001058 -1.29876 -0.0261607 2.13521 2650 
126 1 0.0548726 0.0161238 -0.0413973 0.000291 -119.556 -5.49311 -158.449 2650 
204 1 0.00418223 0.00945835 -0.0151791 0.001058 -0.133485 0.0126926 -0.0354328 2650 
87 1 0.00712249 0.0220001 -0.0149995 0.000291 -0.121441 -0.0209647 -0.0639127 2650 
41 1 0.00160473 0.0281391 -0.0151723 0.00164 -0.0856612 0.0173845 -0.00360041 2650 
300 1 0.00193478 0.0130469 -0.011174 0.001058 0.0244794 0.0157965 0.0201304 2650 
187 1 0.0111137 0.0544812 -0.0101166 0.001058 0.00420245 0.0674233 0.0063026 2650 
278 1 0.0137407 0.00142804 -0.00335631 0.001058 0.0220425 -0.000154396 0.00155272 2650 
249 1 0.00541203 0.0344969 -0.00262291 0.000291 0.00967839 0.0183331 -0.0129307 2650 
256 1 0.009942 0.0226943 -0.000280173 0.000291 -0.0198245 -0.0337187 0.102994 2650 
105 1 0.0028093 0.0136568 0.00727257 0.00164 -0.0105664 0.0252026 0.0192234 2650 
203 1 0.00551692 0.0428703 0.00866143 0.001058 -0.0259184 0.0342383 0.00359995 2650 
139 1 0.00986423 0.0245964 0.0103243 0.001058 -0.0136668 0.00686955 0.0124231 2650 
28 1 0.0416821 0.0745206 0.0537137 0.001058 -48.5835 -1.97131 37.6766 2650 
245 1 0.00901099 0.094693 -0.0118345 0.001058 0.0132501 0.0534812 -0.0221989 2650 
