LIGGGHTS (Version LIGGGHTS-PUBLIC 3.8.0, compiled 2022-11-07-16:55:38 by serperd1, git commit 86544c3f1215bc9744d7929e3eacf53ba086af9e)
units si #
dimension 3 #
newton off #
boundary f f f #
atom_style sphere #
pair_style gran model hertz tangential history #
communicate single vel yes #
region outer_basket cylinder y 0 0 0.15 -0.15 0.15 #
create_box 3 outer_basket #
Created orthogonal box = (-0.15 -0.15 -0.15) to (0.15 0.15 0.15)
  2 by 4 by 5 MPI processor grid
variable my_omega equal 157.0796 #
fix cone_mesh all mesh/surface file cone.stl type 3 scale 1 #
fix rotating_wall_1 all move/mesh mesh cone_mesh rotate/variable origin 0 0 0 axis 0 1 0 omega v_my_omega #
fix filter_mesh_walls all wall/gran model hertz tangential history primitive type 2 ycylinder_filtermesh 0.069 0 0 2 8 -0.0628 0 0.030932 0.017922 0.068432 0.055422 shear x 10.8385 #

fix inlet_cyl_wall_mesh all mesh/surface file in_cyl.stl type 3 scale 1 #
fix top_cyl_wall_mesh all mesh/surface file top_cyl.stl type 3 scale 1 #
fix rotating_wall_4 all move/mesh mesh top_cyl_wall_mesh rotate/variable origin 0 0 0 axis 0 1 0 omega v_my_omega #
fix bot_cyl_wall_mesh all mesh/surface file bot_cyl.stl type 3 scale 1 #
fix rotating_wall_5 all move/mesh mesh bot_cyl_wall_mesh rotate/variable origin 0 0 0 axis 0 1 0 omega v_my_omega #
fix bot_disk_wall_mesh all mesh/surface file bottom_disk.stl type 3 scale 1 #
fix rotating_wall_6 all move/mesh mesh bot_disk_wall_mesh rotate/variable origin 0 0 0 axis 0 1 0 omega v_my_omega #
fix top_disk_wall_mesh all mesh/surface file top_disk.stl type 3 scale 1 #
fix rotating_wall_7 all move/mesh mesh top_disk_wall_mesh rotate/variable origin 0 0 0 axis 0 1 0 omega v_my_omega #
fix GMSH_mesh_walls all wall/gran model hertz tangential history mesh n_meshes 6 meshes cone_mesh top_cyl_wall_mesh bot_cyl_wall_mesh bot_disk_wall_mesh inlet_cyl_wall_mesh top_disk_wall_mesh #
fix Young_mod all property/global youngsModulus peratomtype 375000000 46000000 1000000000 #
fix Poisson_rat all property/global poissonsRatio peratomtype 0.32 0.42 0.29 #
fix Coeff_rest all property/global coefficientRestitution peratomtypepair 3 0.15 0.32 0.475 0.32 0.49 0.645 0.475 0.645 0.8 #
fix Coeff_fric all property/global coefficientFriction peratomtypepair 3 0.04 0.145 0.12 0.145 0.25 0.225 0.12 0.225 0.2 #

neighbor 0.0006561 bin #
neigh_modify delay 0 one 100000 page 5000000 #
fix r_0to10p all particletemplate/sphere 12345787 atom_type 1 density constant 2650 radius constant 0.000105 #
fix r_10to50p all particletemplate/sphere 15485863 atom_type 1 density constant 2650 radius constant 0.000291 #
fix r_50to90p all particletemplate/sphere 15485867 atom_type 1 density constant 2650 radius constant 0.0010582 #
fix r_90to100p all particletemplate/sphere 32452843 atom_type 1 density constant 2650 radius constant 0.0016402 #
fix prob_par all particledistribution/discrete 32452867 4 r_0to10p 0.1 r_10to50p 0.4 r_50to90p 0.4 r_90to100p 0.1 #
pair_coeff * * #
timestep 8.1e-08 #

fix nve_group all nve/sphere #
fix grav_fix all gravity 6.1081 vector 0.017 -0.0033 0 -1 0 #
fix cent_fix all centrifugal 157.0796 0.017 -0.0033 0.069 #

variable step equal step #
variable mycount equal count(all) #
fix print_amount_of_atoms all print 25 "${step} ${mycount}" file numatoms.txt screen no #
run 0 #
Setting up run at Fri Jan  6 04:51:49 2023

Memory usage per processor = 954.231 Mbytes
    Step    Atoms         KinEng            CPU 
       0        0              0              0 
Loop time of 7.39261e-05 on 40 procs for 0 steps with 0 atoms, finish time Fri Jan  6 04:51:50 2023


Pair  time (%) = 0 (0)
Neigh time (%) = 0 (0)
Comm  time (%) = 0 (0)
Outpt time (%) = 0 (0)
Other time (%) = 7.39261e-05 (100)

Nlocal:    0 ave 0 max 0 min
Histogram: 40 0 0 0 0 0 0 0 0 0
Nghost:    0 ave 0 max 0 min
Histogram: 40 0 0 0 0 0 0 0 0 0
Neighs:    0 ave 0 max 0 min
Histogram: 40 0 0 0 0 0 0 0 0 0

Total # of neighbors = 0
Neighbor list builds = 0
Dangerous builds = 0
run 1 #
Setting up run at Fri Jan  6 04:51:50 2023

Memory usage per processor = 954.231 Mbytes
    Step    Atoms         KinEng            CPU 
       0        0              0              0 
       1        0              0    0.009706011 
Loop time of 0.00972191 on 40 procs for 1 steps with 0 atoms, finish time Fri Jan  6 04:51:50 2023


Pair  time (%) = 2.5541e-06 (0.0262716)
Neigh time (%) = 0 (0)
Comm  time (%) = 0.000195447 (2.01038)
Outpt time (%) = 9.80036e-05 (1.00807)
Other time (%) = 0.00942591 (96.9553)

Nlocal:    0 ave 0 max 0 min
Histogram: 40 0 0 0 0 0 0 0 0 0
Nghost:    0 ave 0 max 0 min
Histogram: 40 0 0 0 0 0 0 0 0 0
Neighs:    0 ave 0 max 0 min
Histogram: 40 0 0 0 0 0 0 0 0 0

Total # of neighbors = 0
Neighbor list builds = 0
Dangerous builds = 0
read_dump dump.atom_info_1 1 x y z radius vx vy vz box no add yes replace no #
  orthogonal box = (-0.15 -0.15 -0.15) to (0.15 0.15 0.15)
  0 atoms before read
  305 atoms in snapshot
  0 atoms purged
  0 atoms replaced
  0 atoms trimmed
  305 atoms added
  305 atoms after read
set atom * type 1 density 2650 vy -0.01175 #
  305 settings made for type
  305 settings made for density
  305 settings made for vy
run 1 #
Setting up run at Fri Jan  6 04:51:50 2023

Memory usage per processor = 958.583 Mbytes
    Step    Atoms         KinEng            CPU 
       1      305  2.0462467e-07              0 
       2      305  2.4125357e-07    0.009168788 
Loop time of 0.00919402 on 40 procs for 1 steps with 305 atoms, finish time Fri Jan  6 04:51:50 2023


Pair  time (%) = 1.9767e-06 (0.0214998)
Neigh time (%) = 0 (0)
Comm  time (%) = 4.80742e-06 (0.0522886)
Outpt time (%) = 0.000118674 (1.29078)
Other time (%) = 0.00906856 (98.6354)

Nlocal:    7.625 ave 134 max 0 min
Histogram: 36 2 0 0 0 0 0 0 0 2
Nghost:    5.125 ave 59 max 0 min
Histogram: 36 0 0 0 0 0 0 2 0 2
Neighs:    2.375 ave 54 max 0 min
Histogram: 37 1 0 0 0 1 0 0 0 1

Total # of neighbors = 95
Ave neighs/atom = 0.311475
Neighbor list builds = 0
Dangerous builds = 0
write_dump all custom dump.atom_info_ac_* id type x y z radius vx vy vz density #
run 123456
Setting up run at Fri Jan  6 04:51:50 2023

Memory usage per processor = 958.583 Mbytes
    Step    Atoms         KinEng            CPU 
       2      305  2.4125357e-07              0 
  123458      305  6.0816412e-05      1179.0072 
Loop time of 1179.01 on 40 procs for 123456 steps with 305 atoms, finish time Fri Jan  6 05:11:29 2023


Pair  time (%) = 0.260468 (0.0220922)
Neigh time (%) = 0.0576395 (0.00488881)
Comm  time (%) = 0.394633 (0.0334717)
Outpt time (%) = 0.000187467 (1.59004e-05)
Other time (%) = 1178.29 (99.9395)

Nlocal:    7.625 ave 136 max 0 min
Histogram: 36 2 0 0 0 0 0 0 1 1
Nghost:    5.15 ave 59 max 0 min
Histogram: 36 0 0 0 0 0 0 2 0 2
Neighs:    2.5 ave 57 max 0 min
Histogram: 36 2 0 0 1 0 0 0 0 1

Total # of neighbors = 100
Ave neighs/atom = 0.327869
Neighbor list builds = 330
Dangerous builds = 0
write_dump all custom dump.atom_info_ac_* id type x y z radius vx vy vz density #
run 123456
Setting up run at Fri Jan  6 05:11:29 2023

Memory usage per processor = 958.583 Mbytes
    Step    Atoms         KinEng            CPU 
  123458      305  6.0816412e-05              0 
  246914      305  4.3842796e-05      1173.6699 
Loop time of 1173.67 on 40 procs for 123456 steps with 305 atoms, finish time Fri Jan  6 05:31:03 2023


Pair  time (%) = 0.260829 (0.0222234)
Neigh time (%) = 0.0584441 (0.0049796)
Comm  time (%) = 0.403537 (0.0343825)
Outpt time (%) = 0.000150672 (1.28377e-05)
Other time (%) = 1172.95 (99.9384)

Nlocal:    7.625 ave 138 max 0 min
Histogram: 36 2 0 0 0 0 0 0 1 1
Nghost:    5.125 ave 56 max 0 min
Histogram: 36 0 0 0 0 0 0 0 2 2
Neighs:    2.475 ave 57 max 0 min
Histogram: 36 2 0 0 1 0 0 0 0 1

Total # of neighbors = 99
Ave neighs/atom = 0.32459
Neighbor list builds = 330
Dangerous builds = 0
write_dump all custom dump.atom_info_ac_* id type x y z radius vx vy vz density #
run 123456
Setting up run at Fri Jan  6 05:31:03 2023

Memory usage per processor = 958.583 Mbytes
    Step    Atoms         KinEng            CPU 
  246914      305  4.3842796e-05              0 
  370370      305  0.00038250452      1180.2655 
Loop time of 1180.27 on 40 procs for 123456 steps with 305 atoms, finish time Fri Jan  6 05:50:43 2023


Pair  time (%) = 0.258723 (0.0219208)
Neigh time (%) = 0.0585027 (0.00495674)
Comm  time (%) = 0.406375 (0.0344308)
Outpt time (%) = 0.000370963 (3.14304e-05)
Other time (%) = 1179.54 (99.9387)

Nlocal:    7.625 ave 134 max 0 min
Histogram: 36 0 2 0 0 0 0 0 1 1
Nghost:    5.025 ave 61 max 0 min
Histogram: 36 0 0 0 0 0 0 2 1 1
Neighs:    2.475 ave 57 max 0 min
Histogram: 36 2 0 0 1 0 0 0 0 1

Total # of neighbors = 99
Ave neighs/atom = 0.32459
Neighbor list builds = 330
Dangerous builds = 0
write_dump all custom dump.atom_info_ac_* id type x y z radius vx vy vz density #
run 123456
Setting up run at Fri Jan  6 05:50:43 2023

Memory usage per processor = 958.583 Mbytes
    Step    Atoms         KinEng            CPU 
  370370      305  0.00038250452              0 
  493826      305   0.0002185812      1177.7811 
Loop time of 1177.78 on 40 procs for 123456 steps with 305 atoms, finish time Fri Jan  6 06:10:21 2023


Pair  time (%) = 0.251582 (0.0213607)
Neigh time (%) = 0.0586657 (0.00498104)
Comm  time (%) = 0.446628 (0.0379211)
Outpt time (%) = 0.00050578 (4.29435e-05)
Other time (%) = 1177.02 (99.9357)

Nlocal:    7.625 ave 134 max 0 min
Histogram: 36 0 2 0 0 0 0 0 1 1
Nghost:    5.025 ave 59 max 0 min
Histogram: 36 0 0 0 0 0 0 2 0 2
Neighs:    2.425 ave 54 max 0 min
Histogram: 36 1 1 0 1 0 0 0 0 1

Total # of neighbors = 97
Ave neighs/atom = 0.318033
Neighbor list builds = 330
Dangerous builds = 0
write_dump all custom dump.atom_info_ac_* id type x y z radius vx vy vz density #
run 123456
Setting up run at Fri Jan  6 06:10:21 2023

Memory usage per processor = 958.583 Mbytes
    Step    Atoms         KinEng            CPU 
  493826      305   0.0002185812              0 
  617282      304   0.0017968766      1176.1761 
Loop time of 1176.18 on 40 procs for 123456 steps with 304 atoms, finish time Fri Jan  6 06:29:57 2023


Pair  time (%) = 0.254603 (0.0216467)
Neigh time (%) = 0.0588798 (0.00500604)
Comm  time (%) = 0.433695 (0.0368733)
Outpt time (%) = 0.000201496 (1.71315e-05)
Other time (%) = 1175.43 (99.9365)

Nlocal:    7.6 ave 134 max 0 min
Histogram: 36 0 2 0 0 0 0 1 0 1
Nghost:    4.95 ave 59 max 0 min
Histogram: 36 0 0 0 0 0 1 1 0 2
Neighs:    2.5 ave 55 max 0 min
Histogram: 36 1 1 0 1 0 0 0 0 1

Total # of neighbors = 100
Ave neighs/atom = 0.328947
Neighbor list builds = 335
Dangerous builds = 5
write_dump all custom dump.atom_info_ac_* id type x y z radius vx vy vz density #
run 123456
Setting up run at Fri Jan  6 06:29:57 2023

Memory usage per processor = 958.583 Mbytes
    Step    Atoms         KinEng            CPU 
  617282      304   0.0017968766              0 
  740738      304  0.00020950689      1172.8711 
Loop time of 1172.87 on 40 procs for 123456 steps with 304 atoms, finish time Fri Jan  6 06:49:30 2023


Pair  time (%) = 0.25447 (0.0216963)
Neigh time (%) = 0.0580326 (0.00494791)
Comm  time (%) = 0.421774 (0.0359608)
Outpt time (%) = 0.00044082 (3.75847e-05)
Other time (%) = 1172.14 (99.9374)

Nlocal:    7.6 ave 133 max 0 min
Histogram: 36 0 2 0 0 0 0 1 0 1
Nghost:    4.975 ave 58 max 0 min
Histogram: 36 0 0 0 0 0 1 1 0 2
Neighs:    2.4 ave 54 max 0 min
Histogram: 36 1 1 0 1 0 0 0 0 1

Total # of neighbors = 96
Ave neighs/atom = 0.315789
Neighbor list builds = 331
Dangerous builds = 0
write_dump all custom dump.atom_info_ac_* id type x y z radius vx vy vz density #
run 123456
Setting up run at Fri Jan  6 06:49:30 2023

Memory usage per processor = 958.583 Mbytes
    Step    Atoms         KinEng            CPU 
  740738      304  0.00020950689              0 
  864194      303    0.062785512      1181.0148 
Loop time of 1181.02 on 40 procs for 123456 steps with 303 atoms, finish time Fri Jan  6 07:09:11 2023


Pair  time (%) = 0.256011 (0.0216771)
Neigh time (%) = 0.317255 (0.0268628)
Comm  time (%) = 0.797713 (0.0675444)
Outpt time (%) = 0.000209235 (1.77165e-05)
Other time (%) = 1179.65 (99.8839)

Nlocal:    7.575 ave 131 max 0 min
Histogram: 36 0 2 0 0 0 0 1 0 1
Nghost:    5.2 ave 60 max 0 min
Histogram: 36 0 0 0 0 0 1 0 1 2
Neighs:    2.4 ave 54 max 0 min
Histogram: 36 1 1 1 0 0 0 0 0 1

Total # of neighbors = 96
Ave neighs/atom = 0.316832
Neighbor list builds = 1800
Dangerous builds = 2
write_dump all custom dump.atom_info_ac_* id type x y z radius vx vy vz density #
run 123456
Setting up run at Fri Jan  6 07:09:11 2023

Memory usage per processor = 958.583 Mbytes
    Step    Atoms         KinEng            CPU 
  864194      303    0.062785512              0 
  987650      303     0.05247526      1173.1358 
Loop time of 1173.14 on 40 procs for 123456 steps with 303 atoms, finish time Fri Jan  6 07:28:44 2023


Pair  time (%) = 0.25402 (0.0216531)
Neigh time (%) = 0.245608 (0.020936)
Comm  time (%) = 0.689164 (0.0587455)
Outpt time (%) = 4.2905e-05 (3.65729e-06)
Other time (%) = 1171.95 (99.8987)

Nlocal:    7.575 ave 132 max 0 min
Histogram: 36 1 1 0 0 0 0 1 0 1
Nghost:    5.3 ave 61 max 0 min
Histogram: 36 0 0 0 0 0 1 0 1 2
Neighs:    2.375 ave 56 max 0 min
Histogram: 36 2 0 1 0 0 0 0 0 1

Total # of neighbors = 95
Ave neighs/atom = 0.313531
Neighbor list builds = 1404
Dangerous builds = 0
write_dump all custom dump.atom_info_ac_* id type x y z radius vx vy vz density #
run 123456
Setting up run at Fri Jan  6 07:28:44 2023

Memory usage per processor = 958.583 Mbytes
    Step    Atoms         KinEng            CPU 
  987650      303     0.05247526              0 
 1111106      302     0.54095247      1179.3823 
Loop time of 1179.4 on 40 procs for 123456 steps with 302 atoms, finish time Fri Jan  6 07:48:24 2023


Pair  time (%) = 0.256208 (0.0217236)
Neigh time (%) = 0.345299 (0.0292776)
Comm  time (%) = 0.903638 (0.0766186)
Outpt time (%) = 0.000468382 (3.97136e-05)
Other time (%) = 1177.89 (99.8723)

Nlocal:    7.55 ave 129 max 0 min
Histogram: 36 0 2 0 0 0 0 1 0 1
Nghost:    5.35 ave 59 max 0 min
Histogram: 36 0 0 0 0 0 0 1 0 3
Neighs:    2.4 ave 57 max 0 min
Histogram: 36 2 0 1 0 0 0 0 0 1

Total # of neighbors = 96
Ave neighs/atom = 0.317881
Neighbor list builds = 1966
Dangerous builds = 5
write_dump all custom dump.atom_info_ac_* id type x y z radius vx vy vz density #
run 123456
Setting up run at Fri Jan  6 07:48:24 2023

Memory usage per processor = 958.583 Mbytes
    Step    Atoms         KinEng            CPU 
 1111106      302     0.54095247              0 
 1234562      302     0.10862612      1204.5528 
Loop time of 1204.55 on 40 procs for 123456 steps with 302 atoms, finish time Fri Jan  6 08:08:29 2023


Pair  time (%) = 0.263448 (0.021871)
Neigh time (%) = 1.07971 (0.0896356)
Comm  time (%) = 3.07423 (0.255217)
Outpt time (%) = 0.000232144 (1.92722e-05)
Other time (%) = 1200.14 (99.6333)

Nlocal:    7.55 ave 128 max 0 min
Histogram: 36 1 1 0 0 0 0 0 1 1
Nghost:    5.3 ave 55 max 0 min
Histogram: 36 0 0 0 0 0 0 0 1 3
Neighs:    2.425 ave 58 max 0 min
Histogram: 36 2 0 1 0 0 0 0 0 1

Total # of neighbors = 97
Ave neighs/atom = 0.321192
Neighbor list builds = 6188
Dangerous builds = 0
write_dump all custom dump.atom_info_ac_* id type x y z radius vx vy vz density #
run 123456
Setting up run at Fri Jan  6 08:08:29 2023

Memory usage per processor = 958.583 Mbytes
    Step    Atoms         KinEng            CPU 
 1234562      302     0.10862612              0 
 1358018      302    0.083993237       1203.202 
Loop time of 1203.2 on 40 procs for 123456 steps with 302 atoms, finish time Fri Jan  6 08:28:32 2023


Pair  time (%) = 0.263094 (0.0218661)
Neigh time (%) = 1.07655 (0.0894735)
Comm  time (%) = 3.25206 (0.270284)
Outpt time (%) = 0.00237171 (0.000197117)
Other time (%) = 1198.61 (99.6182)

Nlocal:    7.55 ave 123 max 0 min
Histogram: 36 0 2 0 0 0 0 0 1 1
Nghost:    5.25 ave 59 max 0 min
Histogram: 36 0 0 0 0 0 0 1 2 1
Neighs:    2.5 ave 60 max 0 min
Histogram: 36 2 0 1 0 0 0 0 0 1

Total # of neighbors = 100
Ave neighs/atom = 0.331126
Neighbor list builds = 6153
Dangerous builds = 0
write_dump all custom dump.atom_info_ac_* id type x y z radius vx vy vz density #
run 123456
Setting up run at Fri Jan  6 08:28:32 2023

Memory usage per processor = 958.583 Mbytes
    Step    Atoms         KinEng            CPU 
 1358018      302    0.083993237              0 
 1481474      300    0.079372428      1202.5642 
Loop time of 1202.56 on 40 procs for 123456 steps with 300 atoms, finish time Fri Jan  6 08:48:34 2023


Pair  time (%) = 0.260991 (0.0217029)
Neigh time (%) = 1.03371 (0.0859585)
Comm  time (%) = 3.62267 (0.301246)
Outpt time (%) = 0.000516111 (4.29176e-05)
Other time (%) = 1197.65 (99.591)

Nlocal:    7.5 ave 120 max 0 min
Histogram: 36 0 2 0 0 0 0 0 1 1
Nghost:    5.35 ave 61 max 0 min
Histogram: 36 0 0 0 0 0 0 1 1 2
Neighs:    2.6 ave 60 max 0 min
Histogram: 36 1 1 1 0 0 0 0 0 1

Total # of neighbors = 104
Ave neighs/atom = 0.346667
Neighbor list builds = 5962
Dangerous builds = 47
write_dump all custom dump.atom_info_ac_* id type x y z radius vx vy vz density #
run 123456
Setting up run at Fri Jan  6 08:48:34 2023

Memory usage per processor = 958.583 Mbytes
    Step    Atoms         KinEng            CPU 
 1481474      300    0.079372428              0 
 1604930      299      0.1627683      1211.2991 
Loop time of 1211.3 on 40 procs for 123456 steps with 299 atoms, finish time Fri Jan  6 09:08:46 2023


Pair  time (%) = 0.265005 (0.0218778)
Neigh time (%) = 0.997925 (0.0823847)
Comm  time (%) = 2.56366 (0.211645)
Outpt time (%) = 0.000257115 (2.12264e-05)
Other time (%) = 1207.47 (99.6841)

Nlocal:    7.475 ave 119 max 0 min
Histogram: 36 0 1 1 0 0 0 0 1 1
Nghost:    5.3 ave 61 max 0 min
Histogram: 36 0 0 0 0 0 1 0 1 2
Neighs:    2.65 ave 59 max 0 min
Histogram: 36 1 1 1 0 0 0 0 0 1

Total # of neighbors = 106
Ave neighs/atom = 0.354515
Neighbor list builds = 5690
Dangerous builds = 1
write_dump all custom dump.atom_info_ac_* id type x y z radius vx vy vz density #
run 123456
Setting up run at Fri Jan  6 09:08:46 2023

Memory usage per processor = 958.583 Mbytes
    Step    Atoms         KinEng            CPU 
 1604930      299      0.1627683              0 
 1728386      295     0.20703324      1203.5252 
Loop time of 1203.53 on 40 procs for 123456 steps with 295 atoms, finish time Fri Jan  6 09:28:49 2023


Pair  time (%) = 0.264301 (0.0219606)
Neigh time (%) = 1.19625 (0.0993956)
Comm  time (%) = 3.75598 (0.312082)
Outpt time (%) = 0.000176921 (1.47002e-05)
Other time (%) = 1198.31 (99.5665)

Nlocal:    7.375 ave 116 max 0 min
Histogram: 36 0 2 0 0 0 0 0 1 1
Nghost:    5.275 ave 62 max 0 min
Histogram: 36 0 0 0 0 0 1 1 0 2
Neighs:    2.725 ave 56 max 0 min
Histogram: 36 1 0 1 1 0 0 0 0 1

Total # of neighbors = 109
Ave neighs/atom = 0.369492
Neighbor list builds = 7159
Dangerous builds = 385
write_dump all custom dump.atom_info_ac_* id type x y z radius vx vy vz density #
run 123456
Setting up run at Fri Jan  6 09:28:49 2023

Memory usage per processor = 958.583 Mbytes
    Step    Atoms         KinEng            CPU 
 1728386      295     0.20703324              0 
 1851842      295     0.11564504      1249.6725 
Loop time of 1249.67 on 40 procs for 123456 steps with 295 atoms, finish time Fri Jan  6 09:49:39 2023


Pair  time (%) = 0.274516 (0.021967)
Neigh time (%) = 2.21054 (0.176889)
Comm  time (%) = 6.93895 (0.555261)
Outpt time (%) = 0.000132581 (1.06092e-05)
Other time (%) = 1240.25 (99.2459)

Nlocal:    7.375 ave 113 max 0 min
Histogram: 36 0 1 1 0 0 0 0 1 1
Nghost:    5.25 ave 65 max 0 min
Histogram: 36 0 0 0 0 0 2 0 1 1
Neighs:    2.6 ave 50 max 0 min
Histogram: 36 1 0 0 2 0 0 0 0 1

Total # of neighbors = 104
Ave neighs/atom = 0.352542
Neighbor list builds = 12678
Dangerous builds = 0
write_dump all custom dump.atom_info_ac_* id type x y z radius vx vy vz density #
run 123456
Setting up run at Fri Jan  6 09:49:39 2023

Memory usage per processor = 958.583 Mbytes
    Step    Atoms         KinEng            CPU 
 1851842      295     0.11564504              0 
 1975298      295    0.081209349      1224.5294 
Loop time of 1224.53 on 40 procs for 123456 steps with 295 atoms, finish time Fri Jan  6 10:10:04 2023


Pair  time (%) = 0.272172 (0.0222267)
Neigh time (%) = 1.85898 (0.151812)
Comm  time (%) = 5.53357 (0.451894)
Outpt time (%) = 0.000501432 (4.0949e-05)
Other time (%) = 1216.86 (99.374)

Nlocal:    7.375 ave 110 max 0 min
Histogram: 36 0 0 2 0 0 0 0 1 1
Nghost:    5 ave 63 max 0 min
Histogram: 36 0 0 0 0 0 2 0 1 1
Neighs:    2.525 ave 51 max 0 min
Histogram: 36 1 0 0 2 0 0 0 0 1

Total # of neighbors = 101
Ave neighs/atom = 0.342373
Neighbor list builds = 10676
Dangerous builds = 0
write_dump all custom dump.atom_info_ac_* id type x y z radius vx vy vz density #
run 123456
Setting up run at Fri Jan  6 10:10:04 2023

Memory usage per processor = 958.583 Mbytes
    Step    Atoms         KinEng            CPU 
 1975298      295    0.081209349              0 
 2098754      294      0.2231177      1217.8419 
Loop time of 1217.86 on 40 procs for 123456 steps with 294 atoms, finish time Fri Jan  6 10:30:22 2023


Pair  time (%) = 0.268671 (0.0220609)
Neigh time (%) = 1.45888 (0.11979)
Comm  time (%) = 3.68025 (0.302189)
Outpt time (%) = 0.000221839 (1.82155e-05)
Other time (%) = 1212.45 (99.5559)

Nlocal:    7.35 ave 106 max 0 min
Histogram: 36 0 0 2 0 0 0 0 0 2
Nghost:    5.05 ave 68 max 0 min
Histogram: 36 0 0 0 0 1 1 1 0 1
Neighs:    2.675 ave 52 max 0 min
Histogram: 36 1 0 1 0 1 0 0 0 1

Total # of neighbors = 107
Ave neighs/atom = 0.363946
Neighbor list builds = 8287
Dangerous builds = 1
write_dump all custom dump.atom_info_ac_* id type x y z radius vx vy vz density #
run 123456
Setting up run at Fri Jan  6 10:30:22 2023

Memory usage per processor = 958.583 Mbytes
    Step    Atoms         KinEng            CPU 
 2098754      294      0.2231177              0 
 2222210      293       0.186264      1206.8227 
Loop time of 1206.82 on 40 procs for 123456 steps with 293 atoms, finish time Fri Jan  6 10:50:29 2023


Pair  time (%) = 0.264157 (0.0218886)
Neigh time (%) = 1.20702 (0.100016)
Comm  time (%) = 2.93992 (0.243608)
Outpt time (%) = 0.000159413 (1.32093e-05)
Other time (%) = 1202.41 (99.6345)

Nlocal:    7.325 ave 105 max 0 min
Histogram: 36 0 0 2 0 0 0 0 0 2
Nghost:    5.125 ave 68 max 0 min
Histogram: 36 0 0 0 0 0 2 1 0 1
Neighs:    2.6 ave 49 max 0 min
Histogram: 36 1 0 0 1 1 0 0 0 1

Total # of neighbors = 104
Ave neighs/atom = 0.354949
Neighbor list builds = 6834
Dangerous builds = 0
write_dump all custom dump.atom_info_ac_* id type x y z radius vx vy vz density #
run 123456
Setting up run at Fri Jan  6 10:50:29 2023

Memory usage per processor = 958.583 Mbytes
    Step    Atoms         KinEng            CPU 
 2222210      293       0.186264              0 
 2345666      293     0.13009018      1197.4017 
Loop time of 1197.4 on 40 procs for 123456 steps with 293 atoms, finish time Fri Jan  6 11:10:26 2023


Pair  time (%) = 0.259828 (0.0216993)
Neigh time (%) = 1.11741 (0.0933194)
Comm  time (%) = 3.07725 (0.256994)
Outpt time (%) = 0.000481133 (4.01814e-05)
Other time (%) = 1192.95 (99.6279)

Nlocal:    7.325 ave 103 max 0 min
Histogram: 36 0 0 1 1 0 0 0 0 2
Nghost:    5.125 ave 68 max 0 min
Histogram: 36 0 0 0 0 1 1 1 0 1
Neighs:    2.325 ave 40 max 0 min
Histogram: 36 1 0 0 0 1 1 0 0 1

Total # of neighbors = 93
Ave neighs/atom = 0.317406
Neighbor list builds = 6330
Dangerous builds = 0
write_dump all custom dump.atom_info_ac_* id type x y z radius vx vy vz density #
run 123456
Setting up run at Fri Jan  6 11:10:26 2023

Memory usage per processor = 958.583 Mbytes
    Step    Atoms         KinEng            CPU 
 2345666      293     0.13009018              0 
 2469122      292    0.093040769      1199.6666 
Loop time of 1199.67 on 40 procs for 123456 steps with 292 atoms, finish time Fri Jan  6 11:30:26 2023


Pair  time (%) = 0.257836 (0.0214923)
Neigh time (%) = 0.748666 (0.0624062)
Comm  time (%) = 2.57768 (0.214866)
Outpt time (%) = 0.000245178 (2.04372e-05)
Other time (%) = 1196.08 (99.7012)

Nlocal:    7.3 ave 102 max 0 min
Histogram: 36 0 0 2 0 0 0 0 0 2
Nghost:    5.075 ave 66 max 0 min
Histogram: 36 0 0 0 0 0 2 1 0 1
Neighs:    2.325 ave 42 max 0 min
Histogram: 36 1 0 0 0 2 0 0 0 1

Total # of neighbors = 93
Ave neighs/atom = 0.318493
Neighbor list builds = 4302
Dangerous builds = 100
write_dump all custom dump.atom_info_ac_* id type x y z radius vx vy vz density #
run 123456
Setting up run at Fri Jan  6 11:30:26 2023

Memory usage per processor = 958.583 Mbytes
    Step    Atoms         KinEng            CPU 
 2469122      292    0.093040769              0 
 2592578      290     0.31235664      1193.4499 
Loop time of 1193.45 on 40 procs for 123456 steps with 290 atoms, finish time Fri Jan  6 11:50:19 2023


Pair  time (%) = 0.255695 (0.0214248)
Neigh time (%) = 0.785069 (0.0657814)
Comm  time (%) = 2.03768 (0.170738)
Outpt time (%) = 0.000189821 (1.59052e-05)
Other time (%) = 1190.37 (99.742)

Nlocal:    7.25 ave 100 max 0 min
Histogram: 36 0 0 1 1 0 0 0 0 2
Nghost:    5.025 ave 67 max 0 min
Histogram: 36 0 0 0 0 1 1 1 0 1
Neighs:    2.15 ave 35 max 0 min
Histogram: 36 0 1 0 0 1 1 0 0 1

Total # of neighbors = 86
Ave neighs/atom = 0.296552
Neighbor list builds = 4450
Dangerous builds = 37
write_dump all custom dump.atom_info_ac_* id type x y z radius vx vy vz density #
run 123456
Setting up run at Fri Jan  6 11:50:19 2023

Memory usage per processor = 958.583 Mbytes
    Step    Atoms         KinEng            CPU 
 2592578      290     0.31235664              0 
 2716034      289      0.2812894       1229.002 
Loop time of 1229 on 40 procs for 123456 steps with 289 atoms, finish time Fri Jan  6 12:10:48 2023


Pair  time (%) = 0.255842 (0.0208171)
Neigh time (%) = 0.911191 (0.0741407)
Comm  time (%) = 2.26271 (0.18411)
Outpt time (%) = 0.000524499 (4.26768e-05)
Other time (%) = 1225.57 (99.7209)

Nlocal:    7.225 ave 100 max 0 min
Histogram: 36 0 0 1 1 0 0 0 0 2
Nghost:    4.85 ave 63 max 0 min
Histogram: 36 0 0 0 0 0 2 1 0 1
Neighs:    2.125 ave 36 max 0 min
Histogram: 36 0 1 0 1 0 1 0 0 1

Total # of neighbors = 85
Ave neighs/atom = 0.294118
Neighbor list builds = 5167
Dangerous builds = 2
write_dump all custom dump.atom_info_ac_* id type x y z radius vx vy vz density #
run 123456
Setting up run at Fri Jan  6 12:10:48 2023

Memory usage per processor = 958.583 Mbytes
    Step    Atoms         KinEng            CPU 
 2716034      289      0.2812894              0 
 2839490      289     0.17993067      1215.3183 
Loop time of 1215.32 on 40 procs for 123456 steps with 289 atoms, finish time Fri Jan  6 12:31:04 2023


Pair  time (%) = 0.253544 (0.0208623)
Neigh time (%) = 0.939991 (0.0773452)
Comm  time (%) = 2.35418 (0.193709)
Outpt time (%) = 0.000180692 (1.48679e-05)
Other time (%) = 1211.77 (99.7081)

Nlocal:    7.225 ave 100 max 0 min
Histogram: 35 1 0 2 0 0 0 0 0 2
Nghost:    4.8 ave 61 max 0 min
Histogram: 36 0 0 0 0 0 2 0 1 1
Neighs:    2.025 ave 34 max 0 min
Histogram: 36 0 1 0 1 0 1 0 0 1

Total # of neighbors = 81
Ave neighs/atom = 0.280277
Neighbor list builds = 5292
Dangerous builds = 0
write_dump all custom dump.atom_info_ac_* id type x y z radius vx vy vz density #
run 123456
Setting up run at Fri Jan  6 12:31:04 2023

Memory usage per processor = 958.583 Mbytes
    Step    Atoms         KinEng            CPU 
 2839490      289     0.17993067              0 
 2962946      287     0.21902937      1235.8382 
Loop time of 1235.84 on 40 procs for 123456 steps with 287 atoms, finish time Fri Jan  6 12:51:40 2023


Pair  time (%) = 0.259221 (0.0209754)
Neigh time (%) = 1.08943 (0.0881532)
Comm  time (%) = 2.75483 (0.222912)
Outpt time (%) = 0.000202679 (1.64001e-05)
Other time (%) = 1231.73 (99.6679)

Nlocal:    7.175 ave 97 max 0 min
Histogram: 36 0 0 1 1 0 0 0 0 2
Nghost:    4.7 ave 62 max 0 min
Histogram: 36 0 0 0 0 1 1 1 0 1
Neighs:    2 ave 32 max 0 min
Histogram: 36 0 0 1 1 0 0 1 0 1

Total # of neighbors = 80
Ave neighs/atom = 0.278746
Neighbor list builds = 6131
Dangerous builds = 37
write_dump all custom dump.atom_info_ac_* id type x y z radius vx vy vz density #
run 123456
Setting up run at Fri Jan  6 12:51:40 2023

Memory usage per processor = 958.583 Mbytes
    Step    Atoms         KinEng            CPU 
 2962946      287     0.21902937              0 
 3086402      286      0.1562618      1274.0561 
Loop time of 1274.06 on 40 procs for 123456 steps with 286 atoms, finish time Fri Jan  6 13:12:54 2023


Pair  time (%) = 0.25544 (0.0200493)
Neigh time (%) = 0.853061 (0.0669563)
Comm  time (%) = 2.05171 (0.161038)
Outpt time (%) = 0.000457275 (3.58912e-05)
Other time (%) = 1270.9 (99.7519)

Nlocal:    7.15 ave 98 max 0 min
Histogram: 36 0 0 1 1 0 0 0 0 2
Nghost:    4.725 ave 60 max 0 min
Histogram: 36 0 0 0 0 0 1 2 0 1
Neighs:    2.05 ave 33 max 0 min
Histogram: 36 0 1 1 0 0 0 0 0 2

Total # of neighbors = 82
Ave neighs/atom = 0.286713
Neighbor list builds = 4803
Dangerous builds = 0
write_dump all custom dump.atom_info_ac_* id type x y z radius vx vy vz density #
run 123456
Setting up run at Fri Jan  6 13:12:54 2023

Memory usage per processor = 958.583 Mbytes
    Step    Atoms         KinEng            CPU 
 3086402      286      0.1562618              0 
 3209858      284     0.15436924      1290.7487 
Loop time of 1290.75 on 40 procs for 123456 steps with 284 atoms, finish time Fri Jan  6 13:34:25 2023


Pair  time (%) = 0.253558 (0.0196442)
Neigh time (%) = 0.81207 (0.0629147)
Comm  time (%) = 2.1047 (0.16306)
Outpt time (%) = 0.000185181 (1.43468e-05)
Other time (%) = 1287.58 (99.7544)

Nlocal:    7.1 ave 97 max 0 min
Histogram: 36 0 0 1 1 0 0 0 0 2
Nghost:    4.55 ave 59 max 0 min
Histogram: 36 0 0 0 0 0 2 1 0 1
Neighs:    1.925 ave 30 max 0 min
Histogram: 36 0 1 0 1 0 0 0 0 2

Total # of neighbors = 77
Ave neighs/atom = 0.271127
Neighbor list builds = 4582
Dangerous builds = 1
write_dump all custom dump.atom_info_ac_* id type x y z radius vx vy vz density #
run 123456
Setting up run at Fri Jan  6 13:34:25 2023

Memory usage per processor = 958.583 Mbytes
    Step    Atoms         KinEng            CPU 
 3209858      284     0.15436924              0 
 3333314      283      0.2023995      1234.1506 
Loop time of 1234.15 on 40 procs for 123456 steps with 283 atoms, finish time Fri Jan  6 13:54:59 2023


Pair  time (%) = 0.251898 (0.0204106)
Neigh time (%) = 0.779427 (0.0631549)
Comm  time (%) = 2.31999 (0.187983)
Outpt time (%) = 0.000164791 (1.33526e-05)
Other time (%) = 1230.8 (99.7284)

Nlocal:    7.075 ave 96 max 0 min
Histogram: 35 1 0 2 0 0 0 0 0 2
Nghost:    4.475 ave 59 max 0 min
Histogram: 36 0 0 0 0 0 3 0 0 1
Neighs:    1.975 ave 30 max 0 min
Histogram: 36 1 0 0 1 0 0 0 0 2

Total # of neighbors = 79
Ave neighs/atom = 0.279152
Neighbor list builds = 4381
Dangerous builds = 0
write_dump all custom dump.atom_info_ac_* id type x y z radius vx vy vz density #
run 123456
Setting up run at Fri Jan  6 13:54:59 2023

Memory usage per processor = 958.583 Mbytes
    Step    Atoms         KinEng            CPU 
 3333314      283      0.2023995              0 
 3456770      282      0.2092953      1189.4884 
Loop time of 1189.49 on 40 procs for 123456 steps with 282 atoms, finish time Fri Jan  6 14:14:48 2023


Pair  time (%) = 0.250667 (0.0210735)
Neigh time (%) = 0.776191 (0.0652542)
Comm  time (%) = 2.41489 (0.203019)
Outpt time (%) = 0.0205512 (0.00172774)
Other time (%) = 1186.03 (99.7089)

Nlocal:    7.05 ave 95 max 0 min
Histogram: 36 0 0 1 1 0 0 0 0 2
Nghost:    4.55 ave 60 max 0 min
Histogram: 36 0 0 0 0 0 2 1 0 1
Neighs:    1.9 ave 29 max 0 min
Histogram: 36 0 1 0 1 0 0 0 0 2

Total # of neighbors = 76
Ave neighs/atom = 0.269504
Neighbor list builds = 4369
Dangerous builds = 1
write_dump all custom dump.atom_info_ac_* id type x y z radius vx vy vz density #
run 123456
Setting up run at Fri Jan  6 14:14:49 2023

Memory usage per processor = 958.583 Mbytes
    Step    Atoms         KinEng            CPU 
 3456770      282      0.2092953              0 
 3580226      281       0.486117       1216.049 
Loop time of 1216.05 on 40 procs for 123456 steps with 281 atoms, finish time Fri Jan  6 14:35:05 2023


Pair  time (%) = 0.257083 (0.0211408)
Neigh time (%) = 0.864577 (0.0710972)
Comm  time (%) = 2.08453 (0.171418)
Outpt time (%) = 0.000173306 (1.42516e-05)
Other time (%) = 1212.84 (99.7363)

Nlocal:    7.025 ave 95 max 0 min
Histogram: 36 0 0 1 1 0 0 0 0 2
Nghost:    4.425 ave 59 max 0 min
Histogram: 36 0 0 0 0 1 1 1 0 1
Neighs:    2.025 ave 32 max 0 min
Histogram: 36 1 0 1 0 0 0 0 0 2

Total # of neighbors = 81
Ave neighs/atom = 0.288256
Neighbor list builds = 4870
Dangerous builds = 0
write_dump all custom dump.atom_info_ac_* id type x y z radius vx vy vz density #
run 123456
Setting up run at Fri Jan  6 14:35:05 2023

Memory usage per processor = 958.583 Mbytes
    Step    Atoms         KinEng            CPU 
 3580226      281       0.486117              0 
 3703682      281     0.35583109      1188.5063 
Loop time of 1188.53 on 40 procs for 123456 steps with 281 atoms, finish time Fri Jan  6 14:54:53 2023


Pair  time (%) = 0.252522 (0.0212465)
Neigh time (%) = 0.596609 (0.0501971)
Comm  time (%) = 1.6808 (0.141418)
Outpt time (%) = 0.0100489 (0.000845486)
Other time (%) = 1185.99 (99.7863)

Nlocal:    7.025 ave 93 max 0 min
Histogram: 36 0 0 1 1 0 0 0 0 2
Nghost:    4.475 ave 61 max 0 min
Histogram: 36 0 0 0 0 1 1 1 0 1
Neighs:    2.1 ave 32 max 0 min
Histogram: 36 0 1 1 0 0 0 0 0 2

Total # of neighbors = 84
Ave neighs/atom = 0.298932
Neighbor list builds = 3351
Dangerous builds = 0
write_dump all custom dump.atom_info_ac_* id type x y z radius vx vy vz density #
run 123456
Setting up run at Fri Jan  6 14:54:53 2023

Memory usage per processor = 958.583 Mbytes
    Step    Atoms         KinEng            CPU 
 3703682      281     0.35583109              0 
 3827138      280      0.7224805        1187.38 
Loop time of 1187.38 on 40 procs for 123456 steps with 280 atoms, finish time Fri Jan  6 15:14:41 2023


Pair  time (%) = 0.255411 (0.0215105)
Neigh time (%) = 0.626756 (0.0527848)
Comm  time (%) = 1.76126 (0.148332)
Outpt time (%) = 0.000156749 (1.32012e-05)
Other time (%) = 1184.74 (99.7774)

Nlocal:    7 ave 93 max 0 min
Histogram: 35 1 0 2 0 0 0 0 0 2
Nghost:    4.475 ave 59 max 0 min
Histogram: 36 0 0 0 0 1 1 1 0 1
Neighs:    1.925 ave 30 max 0 min
Histogram: 36 0 1 0 1 0 0 0 0 2

Total # of neighbors = 77
Ave neighs/atom = 0.275
Neighbor list builds = 3549
Dangerous builds = 1
write_dump all custom dump.atom_info_ac_* id type x y z radius vx vy vz density #
run 123456
Setting up run at Fri Jan  6 15:14:41 2023

Memory usage per processor = 958.583 Mbytes
    Step    Atoms         KinEng            CPU 
 3827138      280      0.7224805              0 
 3950594      277     0.33763878      1189.3312 
Loop time of 1189.33 on 40 procs for 123456 steps with 277 atoms, finish time Fri Jan  6 15:34:30 2023


Pair  time (%) = 0.255248 (0.0214614)
Neigh time (%) = 0.567279 (0.0476973)
Comm  time (%) = 1.68163 (0.141393)
Outpt time (%) = 0.000546678 (4.59652e-05)
Other time (%) = 1186.83 (99.7894)

Nlocal:    6.925 ave 92 max 0 min
Histogram: 36 0 0 2 0 0 0 0 0 2
Nghost:    4.425 ave 57 max 0 min
Histogram: 36 0 0 0 0 0 2 1 0 1
Neighs:    2.05 ave 30 max 0 min
Histogram: 36 0 0 1 0 1 0 0 0 2

Total # of neighbors = 82
Ave neighs/atom = 0.296029
Neighbor list builds = 3197
Dangerous builds = 46
write_dump all custom dump.atom_info_ac_* id type x y z radius vx vy vz density #
run 123456
Setting up run at Fri Jan  6 15:34:30 2023

Memory usage per processor = 958.583 Mbytes
    Step    Atoms         KinEng            CPU 
 3950594      277     0.33763878              0 
 4074050      276     0.31070762      1213.3021 
Loop time of 1213.3 on 40 procs for 123456 steps with 276 atoms, finish time Fri Jan  6 15:54:44 2023


Pair  time (%) = 0.256606 (0.0211494)
Neigh time (%) = 0.717602 (0.0591445)
Comm  time (%) = 2.25969 (0.186243)
Outpt time (%) = 8.89091e-05 (7.32786e-06)
Other time (%) = 1210.07 (99.7335)

Nlocal:    6.9 ave 95 max 0 min
Histogram: 36 0 0 1 1 0 0 0 0 2
Nghost:    4.425 ave 52 max 0 min
Histogram: 36 0 0 0 0 0 1 1 1 1
Neighs:    1.95 ave 31 max 0 min
Histogram: 36 1 0 1 0 0 0 0 0 2

Total # of neighbors = 78
Ave neighs/atom = 0.282609
Neighbor list builds = 4182
Dangerous builds = 285
write_dump all custom dump.atom_info_ac_* id type x y z radius vx vy vz density #
run 123456
Setting up run at Fri Jan  6 15:54:55 2023

Memory usage per processor = 958.583 Mbytes
    Step    Atoms         KinEng            CPU 
 4074050      276     0.31070762              0 
 4197506      274     0.49807754      1198.3906 
Loop time of 1198.39 on 40 procs for 123456 steps with 274 atoms, finish time Fri Jan  6 16:14:53 2023


Pair  time (%) = 0.254466 (0.021234)
Neigh time (%) = 0.664557 (0.0554542)
Comm  time (%) = 1.88955 (0.157674)
Outpt time (%) = 0.000195493 (1.6313e-05)
Other time (%) = 1195.58 (99.7656)

Nlocal:    6.85 ave 94 max 0 min
Histogram: 35 1 0 2 0 0 0 0 1 1
Nghost:    4.45 ave 52 max 0 min
Histogram: 36 0 0 0 0 0 1 0 2 1
Neighs:    1.925 ave 32 max 0 min
Histogram: 36 1 1 0 0 0 0 0 0 2

Total # of neighbors = 77
Ave neighs/atom = 0.281022
Neighbor list builds = 3812
Dangerous builds = 64
write_dump all custom dump.atom_info_ac_* id type x y z radius vx vy vz density #
run 123456
Setting up run at Fri Jan  6 16:14:53 2023

Memory usage per processor = 958.583 Mbytes
    Step    Atoms         KinEng            CPU 
 4197506      274     0.49807754              0 
 4320962      272     0.56048619      1206.2486 
Loop time of 1206.25 on 40 procs for 123456 steps with 272 atoms, finish time Fri Jan  6 16:35:00 2023


Pair  time (%) = 0.255935 (0.0212175)
Neigh time (%) = 0.579515 (0.0480427)
Comm  time (%) = 1.85279 (0.153599)
Outpt time (%) = 0.0004759 (3.94529e-05)
Other time (%) = 1203.56 (99.7771)

Nlocal:    6.8 ave 93 max 0 min
Histogram: 36 0 0 2 0 0 0 0 1 1
Nghost:    4.45 ave 52 max 0 min
Histogram: 36 0 0 0 0 0 1 0 1 2
Neighs:    2 ave 32 max 0 min
Histogram: 36 0 2 0 0 0 0 0 0 2

Total # of neighbors = 80
Ave neighs/atom = 0.294118
Neighbor list builds = 3260
Dangerous builds = 2
write_dump all custom dump.atom_info_ac_* id type x y z radius vx vy vz density #
run 123456
Setting up run at Fri Jan  6 16:39:17 2023

Memory usage per processor = 958.583 Mbytes
    Step    Atoms         KinEng            CPU 
 4320962      272     0.56048619              0 
 4444418      270     0.56148021      1241.0415 
Loop time of 1241.04 on 40 procs for 123456 steps with 270 atoms, finish time Fri Jan  6 16:59:58 2023


Pair  time (%) = 0.254738 (0.0205261)
Neigh time (%) = 0.705697 (0.0568633)
Comm  time (%) = 2.26768 (0.182724)
Outpt time (%) = 0.00021402 (1.72452e-05)
Other time (%) = 1237.81 (99.7399)

Nlocal:    6.75 ave 92 max 0 min
Histogram: 35 1 0 2 0 0 0 0 0 2
Nghost:    4.45 ave 52 max 0 min
Histogram: 36 0 0 0 0 0 1 0 2 1
Neighs:    1.95 ave 34 max 0 min
Histogram: 36 1 1 0 0 0 0 0 0 2

Total # of neighbors = 78
Ave neighs/atom = 0.288889
Neighbor list builds = 4086
Dangerous builds = 188
write_dump all custom dump.atom_info_ac_* id type x y z radius vx vy vz density #
run 123456
Setting up run at Fri Jan  6 16:59:58 2023

Memory usage per processor = 958.583 Mbytes
    Step    Atoms         KinEng            CPU 
 4444418      270     0.56148021              0 
 4567874      267     0.54645962      1261.0998 
Loop time of 1261.1 on 40 procs for 123456 steps with 267 atoms, finish time Fri Jan  6 17:20:59 2023


Pair  time (%) = 0.256161 (0.0203125)
Neigh time (%) = 0.852893 (0.0676309)
Comm  time (%) = 2.30814 (0.183026)
Outpt time (%) = 0.000203596 (1.61443e-05)
Other time (%) = 1257.68 (99.729)

Nlocal:    6.675 ave 92 max 0 min
Histogram: 36 0 0 2 0 0 0 0 0 2
Nghost:    4.3 ave 50 max 0 min
Histogram: 36 0 0 0 0 0 0 1 2 1
Neighs:    2 ave 36 max 0 min
Histogram: 36 1 1 0 0 0 0 0 1 1

Total # of neighbors = 80
Ave neighs/atom = 0.299625
Neighbor list builds = 4802
Dangerous builds = 1
write_dump all custom dump.atom_info_ac_* id type x y z radius vx vy vz density #
run 123456
Setting up run at Fri Jan  6 17:20:59 2023

Memory usage per processor = 958.583 Mbytes
    Step    Atoms         KinEng            CPU 
 4567874      267     0.54645962              0 
 4691330      267     0.90153277      1308.6473 
Loop time of 1308.65 on 40 procs for 123456 steps with 267 atoms, finish time Fri Jan  6 17:42:48 2023


Pair  time (%) = 0.251237 (0.0191982)
Neigh time (%) = 0.718959 (0.0549391)
Comm  time (%) = 2.04749 (0.156459)
Outpt time (%) = 0.000504824 (3.8576e-05)
Other time (%) = 1305.63 (99.7694)

Nlocal:    6.675 ave 92 max 0 min
Histogram: 35 1 1 1 0 0 0 0 0 2
Nghost:    4.1 ave 46 max 0 min
Histogram: 36 0 0 0 0 0 0 1 2 1
Neighs:    1.85 ave 33 max 0 min
Histogram: 36 1 1 0 0 0 0 0 1 1

Total # of neighbors = 74
Ave neighs/atom = 0.277154
Neighbor list builds = 4012
Dangerous builds = 0
write_dump all custom dump.atom_info_ac_* id type x y z radius vx vy vz density #
run 123456
Setting up run at Fri Jan  6 17:42:48 2023

Memory usage per processor = 958.583 Mbytes
    Step    Atoms         KinEng            CPU 
 4691330      267     0.90153277              0 
 4814786      263     0.74282266      1205.7105 
Loop time of 1205.71 on 40 procs for 123456 steps with 263 atoms, finish time Fri Jan  6 18:02:53 2023


Pair  time (%) = 0.259 (0.0214811)
Neigh time (%) = 1.28049 (0.106202)
Comm  time (%) = 3.24717 (0.269316)
Outpt time (%) = 0.000179374 (1.4877e-05)
Other time (%) = 1200.92 (99.603)

Nlocal:    6.575 ave 92 max 0 min
Histogram: 35 1 1 1 0 0 0 0 1 1
Nghost:    4.15 ave 45 max 0 min
Histogram: 36 0 0 0 0 0 0 1 1 2
Neighs:    1.75 ave 31 max 0 min
Histogram: 36 1 1 0 0 0 0 0 1 1

Total # of neighbors = 70
Ave neighs/atom = 0.26616
Neighbor list builds = 7495
Dangerous builds = 248
write_dump all custom dump.atom_info_ac_* id type x y z radius vx vy vz density #
run 123456
Setting up run at Fri Jan  6 18:02:54 2023

Memory usage per processor = 958.583 Mbytes
    Step    Atoms         KinEng            CPU 
 4814786      263     0.74282266              0 
 4938242      262     0.53262801      1230.4284 
Loop time of 1230.43 on 40 procs for 123456 steps with 262 atoms, finish time Fri Jan  6 18:23:24 2023


Pair  time (%) = 0.253718 (0.0206203)
Neigh time (%) = 0.870502 (0.0707479)
Comm  time (%) = 2.20821 (0.179467)
Outpt time (%) = 0.0002792 (2.26912e-05)
Other time (%) = 1227.1 (99.7291)

Nlocal:    6.55 ave 90 max 0 min
Histogram: 36 0 0 2 0 0 0 0 0 2
Nghost:    3.8 ave 43 max 0 min
Histogram: 36 0 0 0 0 0 1 0 0 3
Neighs:    1.9 ave 33 max 0 min
Histogram: 36 0 2 0 0 0 0 0 1 1

Total # of neighbors = 76
Ave neighs/atom = 0.290076
Neighbor list builds = 4902
Dangerous builds = 1
write_dump all custom dump.atom_info_ac_* id type x y z radius vx vy vz density #
run 123456
Setting up run at Fri Jan  6 18:23:24 2023

Memory usage per processor = 958.583 Mbytes
    Step    Atoms         KinEng            CPU 
 4938242      262     0.53262801              0 
 5061698      260     0.41236042       1195.858 
Loop time of 1195.86 on 40 procs for 123456 steps with 260 atoms, finish time Fri Jan  6 18:43:20 2023


Pair  time (%) = 0.254193 (0.0212561)
Neigh time (%) = 0.85056 (0.0711255)
Comm  time (%) = 2.25208 (0.188323)
Outpt time (%) = 0.000492917 (4.12187e-05)
Other time (%) = 1192.5 (99.7193)

Nlocal:    6.5 ave 91 max 0 min
Histogram: 36 0 0 2 0 0 0 0 1 1
Nghost:    3.875 ave 41 max 0 min
Histogram: 36 0 0 0 0 0 0 0 1 3
Neighs:    1.8 ave 30 max 0 min
Histogram: 36 0 2 0 0 0 0 0 1 1

Total # of neighbors = 72
Ave neighs/atom = 0.276923
Neighbor list builds = 4838
Dangerous builds = 2
write_dump all custom dump.atom_info_ac_* id type x y z radius vx vy vz density #
run 123456
Setting up run at Fri Jan  6 18:43:20 2023

Memory usage per processor = 958.583 Mbytes
    Step    Atoms         KinEng            CPU 
 5061698      260     0.41236042              0 
 5185154      258     0.29506357      1190.0027 
Loop time of 1190 on 40 procs for 123456 steps with 258 atoms, finish time Fri Jan  6 19:03:10 2023


Pair  time (%) = 0.253966 (0.0213417)
Neigh time (%) = 0.838682 (0.0704773)
Comm  time (%) = 2.11014 (0.177322)
Outpt time (%) = 0.000347915 (2.92365e-05)
Other time (%) = 1186.8 (99.7308)

Nlocal:    6.45 ave 89 max 0 min
Histogram: 35 1 0 2 0 0 0 0 0 2
Nghost:    3.725 ave 40 max 0 min
Histogram: 36 0 0 0 0 0 1 0 0 3
Neighs:    1.65 ave 28 max 0 min
Histogram: 36 0 2 0 0 0 0 1 0 1

Total # of neighbors = 66
Ave neighs/atom = 0.255814
Neighbor list builds = 4710
Dangerous builds = 0
write_dump all custom dump.atom_info_ac_* id type x y z radius vx vy vz density #
run 123456
Setting up run at Fri Jan  6 19:03:10 2023

Memory usage per processor = 958.583 Mbytes
    Step    Atoms         KinEng            CPU 
 5185154      258     0.29506357              0 
 5308610      254     0.24020448      1194.3852 
Loop time of 1194.39 on 40 procs for 123456 steps with 254 atoms, finish time Fri Jan  6 19:23:05 2023


Pair  time (%) = 0.2518 (0.0210819)
Neigh time (%) = 0.705441 (0.0590631)
Comm  time (%) = 2.20886 (0.184937)
Outpt time (%) = 0.000227025 (1.90077e-05)
Other time (%) = 1191.22 (99.7349)

Nlocal:    6.35 ave 88 max 0 min
Histogram: 36 0 1 0 1 0 0 0 0 2
Nghost:    3.7 ave 40 max 0 min
Histogram: 36 0 0 0 0 0 0 1 0 3
Neighs:    1.65 ave 28 max 0 min
Histogram: 36 0 2 0 0 0 0 0 0 2

Total # of neighbors = 66
Ave neighs/atom = 0.259843
Neighbor list builds = 4247
Dangerous builds = 423
write_dump all custom dump.atom_info_ac_* id type x y z radius vx vy vz density #
run 123456
Setting up run at Fri Jan  6 19:23:05 2023

Memory usage per processor = 958.583 Mbytes
    Step    Atoms         KinEng            CPU 
 5308610      254     0.24020448              0 
 5432066      252     0.30652858      1189.2988 
Loop time of 1189.3 on 40 procs for 123456 steps with 252 atoms, finish time Fri Jan  6 19:42:54 2023


Pair  time (%) = 0.24908 (0.0209434)
Neigh time (%) = 0.605815 (0.0509388)
Comm  time (%) = 1.51045 (0.127003)
Outpt time (%) = 0.0130535 (0.00109758)
Other time (%) = 1186.92 (99.8)

Nlocal:    6.3 ave 86 max 0 min
Histogram: 36 0 0 2 0 0 0 0 0 2
Nghost:    3.325 ave 39 max 0 min
Histogram: 36 0 0 0 0 0 1 0 2 1
Neighs:    1.6 ave 28 max 0 min
Histogram: 36 1 1 0 0 0 0 0 1 1

Total # of neighbors = 64
Ave neighs/atom = 0.253968
Neighbor list builds = 3456
Dangerous builds = 22
write_dump all custom dump.atom_info_ac_* id type x y z radius vx vy vz density #
run 123456
Setting up run at Fri Jan  6 19:42:54 2023

Memory usage per processor = 958.583 Mbytes
    Step    Atoms         KinEng            CPU 
 5432066      252     0.30652858              0 
 5555522      248     0.34538684      1190.4366 
Loop time of 1190.44 on 40 procs for 123456 steps with 248 atoms, finish time Fri Jan  6 20:02:45 2023


Pair  time (%) = 0.248652 (0.0208875)
Neigh time (%) = 0.695924 (0.0584596)
Comm  time (%) = 1.81378 (0.152362)
Outpt time (%) = 0.000203303 (1.7078e-05)
Other time (%) = 1187.68 (99.7683)

Nlocal:    6.2 ave 85 max 0 min
Histogram: 35 1 1 1 0 0 0 0 0 2
Nghost:    3.3 ave 38 max 0 min
Histogram: 36 0 0 0 0 0 1 1 0 2
Neighs:    1.5 ave 30 max 0 min
Histogram: 36 2 0 0 0 0 1 0 0 1

Total # of neighbors = 60
Ave neighs/atom = 0.241935
Neighbor list builds = 3975
Dangerous builds = 28
write_dump all custom dump.atom_info_ac_* id type x y z radius vx vy vz density #
run 123456
Setting up run at Fri Jan  6 20:02:45 2023

Memory usage per processor = 958.583 Mbytes
    Step    Atoms         KinEng            CPU 
 5555522      248     0.34538684              0 
 5678978      247     0.19872178      1182.9798 
Loop time of 1182.98 on 40 procs for 123456 steps with 247 atoms, finish time Fri Jan  6 20:22:28 2023


Pair  time (%) = 0.249324 (0.0210759)
Neigh time (%) = 0.593252 (0.0501489)
Comm  time (%) = 1.48543 (0.125566)
Outpt time (%) = 0.000173897 (1.46999e-05)
Other time (%) = 1180.65 (99.8032)

Nlocal:    6.175 ave 85 max 0 min
Histogram: 35 1 1 0 1 0 0 0 1 1
Nghost:    3.3 ave 37 max 0 min
Histogram: 36 0 0 0 0 0 0 1 1 2
Neighs:    1.325 ave 26 max 0 min
Histogram: 36 2 0 0 0 0 1 0 0 1

Total # of neighbors = 53
Ave neighs/atom = 0.214575
Neighbor list builds = 3281
Dangerous builds = 0
write_dump all custom dump.atom_info_ac_* id type x y z radius vx vy vz density #
run 123456
Setting up run at Fri Jan  6 20:22:28 2023

Memory usage per processor = 958.583 Mbytes
    Step    Atoms         KinEng            CPU 
 5678978      247     0.19872178              0 
 5802434      242     0.48394582      1202.0905 
Loop time of 1202.09 on 40 procs for 123456 steps with 242 atoms, finish time Fri Jan  6 20:42:31 2023


Pair  time (%) = 0.253412 (0.021081)
Neigh time (%) = 0.919503 (0.076492)
Comm  time (%) = 2.2453 (0.186783)
Outpt time (%) = 0.00055031 (4.57794e-05)
Other time (%) = 1198.67 (99.7156)

Nlocal:    6.05 ave 85 max 0 min
Histogram: 36 0 1 1 0 0 0 0 1 1
Nghost:    3.075 ave 35 max 0 min
Histogram: 36 0 0 0 0 0 0 1 2 1
Neighs:    1.475 ave 28 max 0 min
Histogram: 36 2 0 0 0 0 0 1 0 1

Total # of neighbors = 59
Ave neighs/atom = 0.243802
Neighbor list builds = 5221
Dangerous builds = 41
write_dump all custom dump.atom_info_ac_* id type x y z radius vx vy vz density #
run 123456
Setting up run at Fri Jan  6 20:42:31 2023

Memory usage per processor = 958.583 Mbytes
    Step    Atoms         KinEng            CPU 
 5802434      242     0.48394582              0 
 5925890      241     0.34843907      1190.5897 
Loop time of 1190.59 on 40 procs for 123456 steps with 241 atoms, finish time Fri Jan  6 21:02:21 2023


Pair  time (%) = 0.248662 (0.0208856)
Neigh time (%) = 0.531317 (0.0446264)
Comm  time (%) = 1.39369 (0.117059)
Outpt time (%) = 0.000213996 (1.7974e-05)
Other time (%) = 1188.42 (99.8174)

Nlocal:    6.025 ave 84 max 0 min
Histogram: 34 2 1 1 0 0 0 0 1 1
Nghost:    3.25 ave 38 max 0 min
Histogram: 36 0 0 0 0 0 1 1 1 1
Neighs:    1.35 ave 26 max 0 min
Histogram: 37 0 1 0 0 0 0 1 0 1

Total # of neighbors = 54
Ave neighs/atom = 0.224066
Neighbor list builds = 2992
Dangerous builds = 2
write_dump all custom dump.atom_info_ac_* id type x y z radius vx vy vz density #
run 123456
Setting up run at Fri Jan  6 21:02:21 2023

Memory usage per processor = 958.583 Mbytes
    Step    Atoms         KinEng            CPU 
 5925890      241     0.34843907              0 
 6049346      240     0.27685459      1186.7193 
Loop time of 1186.72 on 40 procs for 123456 steps with 240 atoms, finish time Fri Jan  6 21:22:08 2023


Pair  time (%) = 0.247314 (0.0208402)
Neigh time (%) = 0.590019 (0.0497184)
Comm  time (%) = 1.66485 (0.14029)
Outpt time (%) = 0.000205311 (1.73007e-05)
Other time (%) = 1184.22 (99.7891)

Nlocal:    6 ave 83 max 0 min
Histogram: 35 1 1 1 0 0 0 0 1 1
Nghost:    3.2 ave 37 max 0 min
Histogram: 36 0 0 0 0 0 1 1 1 1
Neighs:    1.475 ave 29 max 0 min
Histogram: 37 0 1 0 0 0 0 1 0 1

Total # of neighbors = 59
Ave neighs/atom = 0.245833
Neighbor list builds = 3262
Dangerous builds = 0
write_dump all custom dump.atom_info_ac_* id type x y z radius vx vy vz density #
run 123456
Setting up run at Fri Jan  6 21:22:55 2023

Memory usage per processor = 958.583 Mbytes
    Step    Atoms         KinEng            CPU 
 6049346      240     0.27685459              0 
 6172802      238     0.48157335      1199.4604 
Loop time of 1199.46 on 40 procs for 123456 steps with 238 atoms, finish time Fri Jan  6 21:42:55 2023


Pair  time (%) = 0.251768 (0.0209901)
Neigh time (%) = 0.627478 (0.0523133)
Comm  time (%) = 1.8344 (0.152935)
Outpt time (%) = 0.000198864 (1.65794e-05)
Other time (%) = 1196.75 (99.7737)

Nlocal:    5.95 ave 83 max 0 min
Histogram: 35 1 1 1 0 0 0 0 0 2
Nghost:    3.325 ave 38 max 0 min
Histogram: 36 0 0 0 0 0 0 2 0 2
Neighs:    1.6 ave 30 max 0 min
Histogram: 36 2 0 0 0 0 0 0 0 2

Total # of neighbors = 64
Ave neighs/atom = 0.268908
Neighbor list builds = 3489
Dangerous builds = 16
write_dump all custom dump.atom_info_ac_* id type x y z radius vx vy vz density #
run 123456
Setting up run at Fri Jan  6 21:42:55 2023

Memory usage per processor = 958.583 Mbytes
    Step    Atoms         KinEng            CPU 
 6172802      238     0.48157335              0 
 6296258      233     0.56895002      1291.2778 
Loop time of 1291.28 on 40 procs for 123456 steps with 233 atoms, finish time Fri Jan  6 22:04:26 2023


Pair  time (%) = 0.254059 (0.019675)
Neigh time (%) = 1.0379 (0.0803776)
Comm  time (%) = 3.01787 (0.233712)
Outpt time (%) = 0.000499914 (3.87147e-05)
Other time (%) = 1286.97 (99.6662)

Nlocal:    5.825 ave 89 max 0 min
Histogram: 36 1 0 0 1 0 0 1 0 1
Nghost:    3.2 ave 40 max 0 min
Histogram: 36 0 0 0 0 1 1 0 0 2
Neighs:    1.5 ave 36 max 0 min
Histogram: 38 0 0 0 0 1 0 0 0 1

Total # of neighbors = 60
Ave neighs/atom = 0.257511
Neighbor list builds = 5846
Dangerous builds = 3
write_dump all custom dump.atom_info_ac_* id type x y z radius vx vy vz density #
run 123456
Setting up run at Fri Jan  6 22:04:26 2023

Memory usage per processor = 958.583 Mbytes
    Step    Atoms         KinEng            CPU 
 6296258      233     0.56895002              0 
 6419714      230     0.64329586      1248.8098 
Loop time of 1248.81 on 40 procs for 123456 steps with 230 atoms, finish time Fri Jan  6 22:25:15 2023


Pair  time (%) = 0.2529 (0.0202512)
Neigh time (%) = 1.02264 (0.0818894)
Comm  time (%) = 2.89238 (0.231611)
Outpt time (%) = 0.00022974 (1.83967e-05)
Other time (%) = 1244.64 (99.6662)

Nlocal:    5.75 ave 98 max 0 min
Histogram: 35 1 1 1 0 1 0 0 0 1
Nghost:    3.225 ave 40 max 0 min
Histogram: 36 0 0 0 0 1 1 0 0 2
Neighs:    1.5 ave 38 max 0 min
Histogram: 36 2 0 1 0 0 0 0 0 1

Total # of neighbors = 60
Ave neighs/atom = 0.26087
Neighbor list builds = 5750
Dangerous builds = 2
write_dump all custom dump.atom_info_ac_* id type x y z radius vx vy vz density #
run 123456
Setting up run at Fri Jan  6 22:25:15 2023

Memory usage per processor = 958.583 Mbytes
    Step    Atoms         KinEng            CPU 
 6419714      230     0.64329586              0 
 6543170      225     0.59702012      1202.4417 
Loop time of 1202.44 on 40 procs for 123456 steps with 225 atoms, finish time Fri Jan  6 22:45:17 2023


Pair  time (%) = 0.252167 (0.0209713)
Neigh time (%) = 1.03605 (0.0861618)
Comm  time (%) = 3.4114 (0.283706)
Outpt time (%) = 0.000194342 (1.61623e-05)
Other time (%) = 1197.74 (99.6091)

Nlocal:    5.625 ave 93 max 0 min
Histogram: 35 1 2 0 0 0 1 0 0 1
Nghost:    3.125 ave 35 max 0 min
Histogram: 36 0 0 0 0 0 1 1 0 2
Neighs:    1.35 ave 38 max 0 min
Histogram: 38 0 1 0 0 0 0 0 0 1

Total # of neighbors = 54
Ave neighs/atom = 0.24
Neighbor list builds = 5978
Dangerous builds = 355
write_dump all custom dump.atom_info_ac_* id type x y z radius vx vy vz density #
run 123456
Setting up run at Fri Jan  6 22:45:17 2023

Memory usage per processor = 958.583 Mbytes
    Step    Atoms         KinEng            CPU 
 6543170      225     0.59702012              0 
 6666626      225     0.58109694      1310.1446 
Loop time of 1310.14 on 40 procs for 123456 steps with 225 atoms, finish time Fri Jan  6 23:07:08 2023


Pair  time (%) = 0.254269 (0.0194077)
Neigh time (%) = 1.48414 (0.113281)
Comm  time (%) = 4.63973 (0.354139)
Outpt time (%) = 0.00284173 (0.000216902)
Other time (%) = 1303.76 (99.513)

Nlocal:    5.625 ave 89 max 0 min
Histogram: 34 2 2 0 0 0 1 0 0 1
Nghost:    3.125 ave 37 max 0 min
Histogram: 36 0 0 0 0 1 1 0 0 2
Neighs:    1.075 ave 23 max 0 min
Histogram: 37 0 1 0 0 1 0 0 0 1

Total # of neighbors = 43
Ave neighs/atom = 0.191111
Neighbor list builds = 8312
Dangerous builds = 0
write_dump all custom dump.atom_info_ac_* id type x y z radius vx vy vz density #
run 123456
Setting up run at Fri Jan  6 23:07:08 2023

Memory usage per processor = 958.583 Mbytes
    Step    Atoms         KinEng            CPU 
 6666626      225     0.58109694              0 
 6790082      222     0.51617144      1206.1794 
Loop time of 1206.18 on 40 procs for 123456 steps with 222 atoms, finish time Fri Jan  6 23:27:14 2023


Pair  time (%) = 0.254267 (0.0210804)
Neigh time (%) = 1.21012 (0.100327)
Comm  time (%) = 3.70744 (0.30737)
Outpt time (%) = 0.000266235 (2.20726e-05)
Other time (%) = 1201.01 (99.5712)

Nlocal:    5.55 ave 82 max 0 min
Histogram: 34 2 1 1 0 0 1 0 0 1
Nghost:    2.85 ave 34 max 0 min
Histogram: 36 0 0 0 0 1 0 1 1 1
Neighs:    0.9 ave 16 max 0 min
Histogram: 36 1 0 1 0 0 1 0 0 1

Total # of neighbors = 36
Ave neighs/atom = 0.162162
Neighbor list builds = 6721
Dangerous builds = 6
write_dump all custom dump.atom_info_ac_* id type x y z radius vx vy vz density #
run 123456
Setting up run at Fri Jan  6 23:27:14 2023

Memory usage per processor = 958.583 Mbytes
    Step    Atoms         KinEng            CPU 
 6790082      222     0.51617144              0 
 6913538      220     0.64328302      1198.5924 
Loop time of 1198.59 on 40 procs for 123456 steps with 220 atoms, finish time Fri Jan  6 23:47:13 2023


Pair  time (%) = 0.247264 (0.0206295)
Neigh time (%) = 0.797537 (0.0665395)
Comm  time (%) = 2.53012 (0.211091)
Outpt time (%) = 0.000213222 (1.77894e-05)
Other time (%) = 1195.02 (99.7017)

Nlocal:    5.5 ave 74 max 0 min
Histogram: 33 3 0 1 1 0 0 1 0 1
Nghost:    3.05 ave 38 max 0 min
Histogram: 36 0 0 0 0 1 1 0 1 1
Neighs:    0.925 ave 11 max 0 min
Histogram: 36 0 0 0 0 0 0 2 0 2

Total # of neighbors = 37
Ave neighs/atom = 0.168182
Neighbor list builds = 4423
Dangerous builds = 1
write_dump all custom dump.atom_info_ac_* id type x y z radius vx vy vz density #
run 123456
Setting up run at Fri Jan  6 23:47:13 2023

Memory usage per processor = 958.583 Mbytes
    Step    Atoms         KinEng            CPU 
 6913538      220     0.64328302              0 
 7036994      216     0.55170023      1208.9418 
Loop time of 1208.94 on 40 procs for 123456 steps with 216 atoms, finish time Sat Jan  7 00:07:22 2023


Pair  time (%) = 0.252788 (0.0209099)
Neigh time (%) = 0.992122 (0.0820653)
Comm  time (%) = 2.82977 (0.23407)
Outpt time (%) = 0.000506757 (4.19174e-05)
Other time (%) = 1204.87 (99.6629)

Nlocal:    5.4 ave 69 max 0 min
Histogram: 34 1 1 1 0 1 0 1 0 1
Nghost:    3.05 ave 45 max 0 min
Histogram: 36 0 0 0 2 0 0 1 0 1
Neighs:    0.675 ave 9 max 0 min
Histogram: 35 1 0 1 0 0 1 0 1 1

Total # of neighbors = 27
Ave neighs/atom = 0.125
Neighbor list builds = 6152
Dangerous builds = 368
write_dump all custom dump.atom_info_ac_* id type x y z radius vx vy vz density #
run 123456
Setting up run at Sat Jan  7 00:07:22 2023

Memory usage per processor = 958.583 Mbytes
    Step    Atoms         KinEng            CPU 
 7036994      216     0.55170023              0 
 7160450      213     0.54405931      1202.9692 
Loop time of 1202.97 on 40 procs for 123456 steps with 213 atoms, finish time Sat Jan  7 00:27:25 2023


Pair  time (%) = 0.245095 (0.0203742)
Neigh time (%) = 0.722272 (0.0600408)
Comm  time (%) = 2.45528 (0.204102)
Outpt time (%) = 9.52789e-05 (7.92031e-06)
Other time (%) = 1199.55 (99.7155)

Nlocal:    5.325 ave 64 max 0 min
Histogram: 34 2 0 1 0 1 0 0 1 1
Nghost:    2.875 ave 40 max 0 min
Histogram: 36 0 0 0 1 1 0 1 0 1
Neighs:    0.5 ave 6 max 0 min
Histogram: 36 0 0 0 0 0 2 0 0 2

Total # of neighbors = 20
Ave neighs/atom = 0.0938967
Neighbor list builds = 4166
Dangerous builds = 13
write_dump all custom dump.atom_info_ac_* id type x y z radius vx vy vz density #
run 123456
Setting up run at Sat Jan  7 00:27:25 2023

Memory usage per processor = 958.583 Mbytes
    Step    Atoms         KinEng            CPU 
 7160450      213     0.54405931              0 
 7283906      209     0.50444736      1217.3352 
Loop time of 1217.34 on 40 procs for 123456 steps with 209 atoms, finish time Sat Jan  7 00:47:42 2023


Pair  time (%) = 0.247207 (0.0203073)
Neigh time (%) = 1.34935 (0.110845)
Comm  time (%) = 4.48876 (0.368736)
Outpt time (%) = 0.000235569 (1.93512e-05)
Other time (%) = 1211.25 (99.5001)

Nlocal:    5.225 ave 63 max 0 min
Histogram: 33 2 1 1 0 1 0 1 0 1
Nghost:    2.65 ave 40 max 0 min
Histogram: 36 0 0 1 0 1 1 0 0 1
Neighs:    0.325 ave 4 max 0 min
Histogram: 36 0 0 0 0 0 0 3 0 1

Total # of neighbors = 13
Ave neighs/atom = 0.062201
Neighbor list builds = 7662
Dangerous builds = 231
write_dump all custom dump.atom_info_ac_* id type x y z radius vx vy vz density #
run 123456
Setting up run at Sat Jan  7 00:47:42 2023

Memory usage per processor = 958.583 Mbytes
    Step    Atoms         KinEng            CPU 
 7283906      209     0.50444736              0 
 7407362      205     0.48512992      1205.6209 
Loop time of 1205.62 on 40 procs for 123456 steps with 205 atoms, finish time Sat Jan  7 01:07:48 2023


Pair  time (%) = 0.242798 (0.0201388)
Neigh time (%) = 1.18146 (0.0979959)
Comm  time (%) = 4.68485 (0.388584)
Outpt time (%) = 0.000479755 (3.97932e-05)
Other time (%) = 1199.51 (99.4932)

Nlocal:    5.125 ave 59 max 0 min
Histogram: 32 2 2 1 1 0 0 0 1 1
Nghost:    2.85 ave 35 max 0 min
Histogram: 35 0 1 0 0 2 0 0 1 1
Neighs:    0.325 ave 5 max 0 min
Histogram: 35 0 1 0 2 0 1 0 0 1

Total # of neighbors = 13
Ave neighs/atom = 0.0634146
Neighbor list builds = 6490
Dangerous builds = 93
write_dump all custom dump.atom_info_ac_* id type x y z radius vx vy vz density #
run 123456
Setting up run at Sat Jan  7 01:07:48 2023

Memory usage per processor = 958.583 Mbytes
    Step    Atoms         KinEng            CPU 
 7407362      205     0.48512992              0 
 7530818      203     0.45366806      1203.5803 
Loop time of 1203.58 on 40 procs for 123456 steps with 203 atoms, finish time Sat Jan  7 01:27:51 2023


Pair  time (%) = 0.241649 (0.0200775)
Neigh time (%) = 0.702359 (0.0583558)
Comm  time (%) = 2.36749 (0.196704)
Outpt time (%) = 0.000235027 (1.95273e-05)
Other time (%) = 1200.27 (99.7248)

Nlocal:    5.075 ave 60 max 0 min
Histogram: 32 2 2 2 0 0 0 0 1 1
Nghost:    2.575 ave 30 max 0 min
Histogram: 35 1 0 0 0 0 1 1 1 1
Neighs:    0.4 ave 6 max 0 min
Histogram: 35 2 0 0 0 0 2 0 0 1

Total # of neighbors = 16
Ave neighs/atom = 0.0788177
Neighbor list builds = 3851
Dangerous builds = 0
write_dump all custom dump.atom_info_ac_* id type x y z radius vx vy vz density #
run 123456
Setting up run at Sat Jan  7 01:27:51 2023

Memory usage per processor = 958.583 Mbytes
    Step    Atoms         KinEng            CPU 
 7530818      203     0.45366806              0 
 7654274      199     0.71245775      1193.6691 
Loop time of 1193.67 on 40 procs for 123456 steps with 199 atoms, finish time Sat Jan  7 01:47:45 2023


Pair  time (%) = 0.238207 (0.0199558)
Neigh time (%) = 0.747146 (0.0625923)
Comm  time (%) = 3.15735 (0.264508)
Outpt time (%) = 0.000234958 (1.96837e-05)
Other time (%) = 1189.53 (99.6529)

Nlocal:    4.975 ave 59 max 0 min
Histogram: 32 2 2 2 0 0 0 0 1 1
Nghost:    2.35 ave 30 max 0 min
Histogram: 36 0 0 0 0 1 1 1 0 1
Neighs:    0.4 ave 5 max 0 min
Histogram: 34 0 2 0 2 0 0 0 0 2

Total # of neighbors = 16
Ave neighs/atom = 0.080402
Neighbor list builds = 4158
Dangerous builds = 101
write_dump all custom dump.atom_info_ac_* id type x y z radius vx vy vz density #
run 123456
Setting up run at Sat Jan  7 01:47:45 2023

Memory usage per processor = 958.583 Mbytes
    Step    Atoms         KinEng            CPU 
 7654274      199     0.71245775              0 
 7777730      197     0.64646814      1198.5124 
Loop time of 1198.52 on 40 procs for 123456 steps with 197 atoms, finish time Sat Jan  7 02:07:44 2023


Pair  time (%) = 0.240367 (0.0200554)
Neigh time (%) = 0.763136 (0.0636733)
Comm  time (%) = 3.44883 (0.287758)
Outpt time (%) = 0.0218118 (0.0018199)
Other time (%) = 1194.04 (99.6267)

Nlocal:    4.925 ave 56 max 0 min
Histogram: 32 3 1 1 1 0 0 0 1 1
Nghost:    2.175 ave 26 max 0 min
Histogram: 36 0 0 0 0 1 1 0 1 1
Neighs:    0.45 ave 6 max 0 min
Histogram: 34 3 0 0 0 0 1 0 1 1

Total # of neighbors = 18
Ave neighs/atom = 0.0913706
Neighbor list builds = 4209
Dangerous builds = 10
write_dump all custom dump.atom_info_ac_* id type x y z radius vx vy vz density #
run 123456
Setting up run at Sat Jan  7 02:07:44 2023

Memory usage per processor = 958.583 Mbytes
    Step    Atoms         KinEng            CPU 
 7777730      197     0.64646814              0 
 7901186      195     0.65347393      1203.1401 
Loop time of 1203.14 on 40 procs for 123456 steps with 195 atoms, finish time Sat Jan  7 02:27:47 2023


Pair  time (%) = 0.239031 (0.0198672)
Neigh time (%) = 0.868701 (0.0722028)
Comm  time (%) = 4.13143 (0.343387)
Outpt time (%) = 0.00022176 (1.84318e-05)
Other time (%) = 1197.9 (99.5645)

Nlocal:    4.875 ave 54 max 0 min
Histogram: 34 1 1 1 0 1 0 0 0 2
Nghost:    2.125 ave 25 max 0 min
Histogram: 35 1 0 0 0 1 1 0 1 1
Neighs:    0.475 ave 8 max 0 min
Histogram: 35 2 0 1 0 0 0 1 0 1

Total # of neighbors = 19
Ave neighs/atom = 0.0974359
Neighbor list builds = 5064
Dangerous builds = 451
write_dump all custom dump.atom_info_ac_* id type x y z radius vx vy vz density #
run 123456
Setting up run at Sat Jan  7 02:27:47 2023

Memory usage per processor = 958.583 Mbytes
    Step    Atoms         KinEng            CPU 
 7901186      195     0.65347393              0 
 8024642      190     0.57843789      1207.9533 
Loop time of 1207.95 on 40 procs for 123456 steps with 190 atoms, finish time Sat Jan  7 02:47:55 2023


Pair  time (%) = 0.238628 (0.0197547)
Neigh time (%) = 0.858937 (0.0711068)
Comm  time (%) = 2.76866 (0.229203)
Outpt time (%) = 0.000231427 (1.91586e-05)
Other time (%) = 1204.09 (99.6799)

Nlocal:    4.75 ave 54 max 0 min
Histogram: 33 2 1 1 1 0 0 0 1 1
Nghost:    2.05 ave 25 max 0 min
Histogram: 36 0 0 0 0 2 0 0 1 1
Neighs:    0.475 ave 7 max 0 min
Histogram: 36 0 1 0 1 0 0 0 0 2

Total # of neighbors = 19
Ave neighs/atom = 0.1
Neighbor list builds = 4776
Dangerous builds = 47
write_dump all custom dump.atom_info_ac_* id type x y z radius vx vy vz density #
run 123456
Setting up run at Sat Jan  7 02:47:55 2023

Memory usage per processor = 958.583 Mbytes
    Step    Atoms         KinEng            CPU 
 8024642      190     0.57843789              0 
 8148098      188      6.1337216       1195.731 
Loop time of 1195.73 on 40 procs for 123456 steps with 188 atoms, finish time Sat Jan  7 03:07:51 2023


Pair  time (%) = 0.23657 (0.0197845)
Neigh time (%) = 0.894719 (0.0748261)
Comm  time (%) = 3.36974 (0.281814)
Outpt time (%) = 0.00234794 (0.00019636)
Other time (%) = 1191.23 (99.6234)

Nlocal:    4.7 ave 50 max 0 min
Histogram: 31 4 1 0 2 0 0 0 0 2
Nghost:    2.075 ave 28 max 0 min
Histogram: 36 0 0 0 2 0 0 0 1 1
Neighs:    0.3 ave 4 max 0 min
Histogram: 35 0 2 0 0 0 0 2 0 1

Total # of neighbors = 12
Ave neighs/atom = 0.0638298
Neighbor list builds = 4940
Dangerous builds = 0
write_dump all custom dump.atom_info_ac_* id type x y z radius vx vy vz density #
run 123456
Setting up run at Sat Jan  7 03:07:51 2023

Memory usage per processor = 958.583 Mbytes
    Step    Atoms         KinEng            CPU 
 8148098      188      6.1337216              0 
 8271554      184     0.87598499      1204.4226 
Loop time of 1204.42 on 40 procs for 123456 steps with 184 atoms, finish time Sat Jan  7 03:27:55 2023


Pair  time (%) = 0.23762 (0.0197289)
Neigh time (%) = 0.963979 (0.0800366)
Comm  time (%) = 3.02138 (0.250857)
Outpt time (%) = 0.000536359 (4.45324e-05)
Other time (%) = 1200.2 (99.6493)

Nlocal:    4.6 ave 49 max 0 min
Histogram: 33 1 2 0 2 0 0 0 0 2
Nghost:    2.075 ave 24 max 0 min
Histogram: 35 1 0 0 0 2 0 0 1 1
Neighs:    0.25 ave 3 max 0 min
Histogram: 35 0 0 2 0 0 1 0 0 2

Total # of neighbors = 10
Ave neighs/atom = 0.0543478
Neighbor list builds = 5321
Dangerous builds = 4
write_dump all custom dump.atom_info_ac_* id type x y z radius vx vy vz density #
run 123456
Setting up run at Sat Jan  7 03:27:55 2023

Memory usage per processor = 958.583 Mbytes
    Step    Atoms         KinEng            CPU 
 8271554      184     0.87598499              0 
 8395010      182      1.0709349      1203.5044 
Loop time of 1203.5 on 40 procs for 123456 steps with 182 atoms, finish time Sat Jan  7 03:47:59 2023


Pair  time (%) = 0.229833 (0.019097)
Neigh time (%) = 0.812629 (0.0675219)
Comm  time (%) = 3.30256 (0.274412)
Outpt time (%) = 0.00023919 (1.98744e-05)
Other time (%) = 1199.16 (99.6389)

Nlocal:    4.55 ave 50 max 0 min
Histogram: 31 4 1 0 2 0 0 0 0 2
Nghost:    1.975 ave 25 max 0 min
Histogram: 36 0 0 0 2 0 0 0 0 2
Neighs:    0.225 ave 3 max 0 min
Histogram: 36 0 0 1 0 0 1 0 0 2

Total # of neighbors = 9
Ave neighs/atom = 0.0494505
Neighbor list builds = 4544
Dangerous builds = 0
write_dump all custom dump.atom_info_ac_* id type x y z radius vx vy vz density #
run 123456
Setting up run at Sat Jan  7 03:47:59 2023

Memory usage per processor = 958.583 Mbytes
    Step    Atoms         KinEng            CPU 
 8395010      182      1.0709349              0 
 8518466      181      1.2047671      1190.8684 
Loop time of 1190.87 on 40 procs for 123456 steps with 181 atoms, finish time Sat Jan  7 04:07:50 2023


Pair  time (%) = 0.227478 (0.0191018)
Neigh time (%) = 0.82365 (0.0691638)
Comm  time (%) = 2.45007 (0.205738)
Outpt time (%) = 0.000225549 (1.89399e-05)
Other time (%) = 1187.37 (99.706)

Nlocal:    4.525 ave 48 max 0 min
Histogram: 32 2 2 1 1 0 0 0 0 2
Nghost:    1.85 ave 24 max 0 min
Histogram: 36 0 0 0 1 1 0 0 0 2
Neighs:    0.25 ave 5 max 0 min
Histogram: 37 0 0 0 1 0 1 0 0 1

Total # of neighbors = 10
Ave neighs/atom = 0.0552486
Neighbor list builds = 4553
Dangerous builds = 0
write_dump all custom dump.atom_info_ac_* id type x y z radius vx vy vz density #
run 123456
Setting up run at Sat Jan  7 04:07:50 2023

Memory usage per processor = 958.583 Mbytes
    Step    Atoms         KinEng            CPU 
 8518466      181      1.2047671              0 
 8641922      176     0.69391709      1198.0471 
Loop time of 1198.05 on 40 procs for 123456 steps with 176 atoms, finish time Sat Jan  7 04:27:48 2023


Pair  time (%) = 0.22731 (0.0189734)
Neigh time (%) = 0.783848 (0.0654271)
Comm  time (%) = 2.1058 (0.175769)
Outpt time (%) = 0.000498888 (4.16418e-05)
Other time (%) = 1194.93 (99.7398)

Nlocal:    4.4 ave 50 max 0 min
Histogram: 32 3 1 1 0 1 0 0 1 1
Nghost:    2 ave 20 max 0 min
Histogram: 31 5 0 0 0 0 1 0 1 2
Neighs:    0.325 ave 6 max 0 min
Histogram: 36 0 0 2 0 1 0 0 0 1

Total # of neighbors = 13
Ave neighs/atom = 0.0738636
Neighbor list builds = 4374
Dangerous builds = 3
write_dump all custom dump.atom_info_ac_* id type x y z radius vx vy vz density #
run 123456
Setting up run at Sat Jan  7 04:27:48 2023

Memory usage per processor = 958.583 Mbytes
    Step    Atoms         KinEng            CPU 
 8641922      176     0.69391709              0 
 8765378      175     0.65350901      1195.7555 
Loop time of 1195.76 on 40 procs for 123456 steps with 175 atoms, finish time Sat Jan  7 04:47:44 2023


Pair  time (%) = 0.226451 (0.0189379)
Neigh time (%) = 0.760794 (0.0636245)
Comm  time (%) = 2.19147 (0.183271)
Outpt time (%) = 0.00023518 (1.96679e-05)
Other time (%) = 1192.58 (99.7341)

Nlocal:    4.375 ave 49 max 0 min
Histogram: 32 3 0 3 0 0 0 0 1 1
Nghost:    1.775 ave 19 max 0 min
Histogram: 34 2 0 0 0 0 0 2 0 2
Neighs:    0.25 ave 4 max 0 min
Histogram: 35 0 3 0 0 0 0 1 0 1

Total # of neighbors = 10
Ave neighs/atom = 0.0571429
Neighbor list builds = 4151
Dangerous builds = 0
write_dump all custom dump.atom_info_ac_* id type x y z radius vx vy vz density #
run 123456
Setting up run at Sat Jan  7 04:47:44 2023

Memory usage per processor = 958.583 Mbytes
    Step    Atoms         KinEng            CPU 
 8765378      175     0.65350901              0 
 8888834      171      0.6712706      1208.2907 
Loop time of 1208.29 on 40 procs for 123456 steps with 171 atoms, finish time Sat Jan  7 05:07:52 2023


Pair  time (%) = 0.2292 (0.018969)
Neigh time (%) = 0.949824 (0.0786088)
Comm  time (%) = 3.39371 (0.280868)
Outpt time (%) = 0.000144668 (1.1973e-05)
Other time (%) = 1203.72 (99.6215)

Nlocal:    4.275 ave 48 max 0 min
Histogram: 32 3 1 1 1 0 0 0 1 1
Nghost:    1.925 ave 20 max 0 min
Histogram: 32 3 1 0 0 1 0 1 0 2
Neighs:    0.275 ave 7 max 0 min
Histogram: 37 1 0 0 1 0 0 0 0 1

Total # of neighbors = 11
Ave neighs/atom = 0.0643275
Neighbor list builds = 5435
Dangerous builds = 408
write_dump all custom dump.atom_info_ac_* id type x y z radius vx vy vz density #
run 123456
Setting up run at Sat Jan  7 05:07:52 2023

Memory usage per processor = 958.583 Mbytes
    Step    Atoms         KinEng            CPU 
 8888834      171      0.6712706              0 
 9012290      168     0.71812398      1209.8006 
Loop time of 1209.8 on 40 procs for 123456 steps with 168 atoms, finish time Sat Jan  7 05:28:02 2023


Pair  time (%) = 0.232714 (0.0192357)
Neigh time (%) = 1.18682 (0.0981003)
Comm  time (%) = 4.22351 (0.349108)
Outpt time (%) = 0.000501707 (4.14702e-05)
Other time (%) = 1204.16 (99.5335)

Nlocal:    4.2 ave 44 max 0 min
Histogram: 32 2 2 1 1 0 0 0 0 2
Nghost:    2.2 ave 25 max 0 min
Histogram: 36 0 0 0 0 1 1 0 1 1
Neighs:    0.25 ave 5 max 0 min
Histogram: 37 0 0 0 1 0 1 0 0 1

Total # of neighbors = 10
Ave neighs/atom = 0.0595238
Neighbor list builds = 6626
Dangerous builds = 5
write_dump all custom dump.atom_info_ac_* id type x y z radius vx vy vz density #
run 123456
Setting up run at Sat Jan  7 05:28:02 2023

Memory usage per processor = 958.583 Mbytes
    Step    Atoms         KinEng            CPU 
 9012290      168     0.71812398              0 
 9135746      165     0.86727564      1216.7869 
Loop time of 1216.79 on 40 procs for 123456 steps with 165 atoms, finish time Sat Jan  7 05:48:19 2023


Pair  time (%) = 0.233138 (0.0191601)
Neigh time (%) = 1.37701 (0.113168)
Comm  time (%) = 5.63024 (0.462713)
Outpt time (%) = 0.000226098 (1.85816e-05)
Other time (%) = 1209.55 (99.4049)

Nlocal:    4.125 ave 47 max 0 min
Histogram: 32 2 2 1 1 0 0 0 1 1
Nghost:    1.875 ave 24 max 0 min
Histogram: 36 0 0 0 1 0 1 1 0 1
Neighs:    0.375 ave 4 max 0 min
Histogram: 35 0 0 0 0 2 0 1 0 2

Total # of neighbors = 15
Ave neighs/atom = 0.0909091
Neighbor list builds = 7615
Dangerous builds = 1
write_dump all custom dump.atom_info_ac_* id type x y z radius vx vy vz density #
run 123456
Setting up run at Sat Jan  7 05:48:19 2023

Memory usage per processor = 958.583 Mbytes
    Step    Atoms         KinEng            CPU 
 9135746      165     0.86727564              0 
 9259202      162     0.70632841      1204.5956 
Loop time of 1204.6 on 40 procs for 123456 steps with 162 atoms, finish time Sat Jan  7 06:08:24 2023


Pair  time (%) = 0.231715 (0.0192359)
Neigh time (%) = 0.959386 (0.0796438)
Comm  time (%) = 3.07341 (0.25514)
Outpt time (%) = 0.000233637 (1.93954e-05)
Other time (%) = 1200.33 (99.646)

Nlocal:    4.05 ave 47 max 0 min
Histogram: 33 1 2 2 0 0 0 0 1 1
Nghost:    1.825 ave 21 max 0 min
Histogram: 36 0 0 0 0 1 0 0 2 1
Neighs:    0.4 ave 5 max 0 min
Histogram: 35 0 1 0 1 0 1 0 0 2

Total # of neighbors = 16
Ave neighs/atom = 0.0987654
Neighbor list builds = 5412
Dangerous builds = 51
write_dump all custom dump.atom_info_ac_* id type x y z radius vx vy vz density #
run 123456
Setting up run at Sat Jan  7 06:08:24 2023

Memory usage per processor = 958.583 Mbytes
    Step    Atoms         KinEng            CPU 
 9259202      162     0.70632841              0 
 9382658      162     0.73416873      1201.2049 
Loop time of 1201.2 on 40 procs for 123456 steps with 162 atoms, finish time Sat Jan  7 06:28:25 2023


Pair  time (%) = 0.232552 (0.0193599)
Neigh time (%) = 0.874406 (0.0727941)
Comm  time (%) = 2.54535 (0.2119)
Outpt time (%) = 0.000520421 (4.33249e-05)
Other time (%) = 1197.55 (99.6959)

Nlocal:    4.05 ave 47 max 0 min
Histogram: 32 4 0 1 0 1 0 1 0 1
Nghost:    1.825 ave 22 max 0 min
Histogram: 36 0 0 0 1 0 0 1 1 1
Neighs:    0.375 ave 6 max 0 min
Histogram: 36 1 0 0 0 0 2 0 0 1

Total # of neighbors = 15
Ave neighs/atom = 0.0925926
Neighbor list builds = 4788
Dangerous builds = 0
write_dump all custom dump.atom_info_ac_* id type x y z radius vx vy vz density #
run 123456
Setting up run at Sat Jan  7 06:28:25 2023

Memory usage per processor = 958.583 Mbytes
    Step    Atoms         KinEng            CPU 
 9382658      162     0.73416873              0 
 9506114      157     0.84515027      1215.8697 
Loop time of 1215.87 on 40 procs for 123456 steps with 157 atoms, finish time Sat Jan  7 06:48:41 2023


Pair  time (%) = 0.235843 (0.0193971)
Neigh time (%) = 1.3045 (0.107289)
Comm  time (%) = 5.18669 (0.426583)
Outpt time (%) = 0.000233145 (1.91752e-05)
Other time (%) = 1209.14 (99.4467)

Nlocal:    3.925 ave 47 max 0 min
Histogram: 32 1 4 1 0 0 0 1 0 1
Nghost:    1.8 ave 22 max 0 min
Histogram: 36 0 0 0 1 0 0 2 0 1
Neighs:    0.35 ave 6 max 0 min
Histogram: 36 1 0 0 0 1 1 0 0 1

Total # of neighbors = 14
Ave neighs/atom = 0.089172
Neighbor list builds = 7344
Dangerous builds = 6
write_dump all custom dump.atom_info_ac_* id type x y z radius vx vy vz density #
run 123456
Setting up run at Sat Jan  7 06:48:41 2023

Memory usage per processor = 958.583 Mbytes
    Step    Atoms         KinEng            CPU 
 9506114      157     0.84515027              0 
 9629570      156     0.76924241       1196.018 
Loop time of 1196.02 on 40 procs for 123456 steps with 156 atoms, finish time Sat Jan  7 07:08:37 2023


Pair  time (%) = 0.232433 (0.0194339)
Neigh time (%) = 0.893823 (0.0747332)
Comm  time (%) = 2.67797 (0.223907)
Outpt time (%) = 0.000218716 (1.8287e-05)
Other time (%) = 1192.21 (99.6819)

Nlocal:    3.9 ave 44 max 0 min
Histogram: 32 2 2 1 0 1 0 1 0 1
Nghost:    1.75 ave 18 max 0 min
Histogram: 35 1 0 0 0 1 0 0 0 3
Neighs:    0.35 ave 6 max 0 min
Histogram: 35 2 0 0 0 2 0 0 0 1

Total # of neighbors = 14
Ave neighs/atom = 0.0897436
Neighbor list builds = 4893
Dangerous builds = 0
write_dump all custom dump.atom_info_ac_* id type x y z radius vx vy vz density #
run 123456
Setting up run at Sat Jan  7 07:08:37 2023

Memory usage per processor = 958.583 Mbytes
    Step    Atoms         KinEng            CPU 
 9629570      156     0.76924241              0 
 9753026      153      0.5947771      1213.3971 
Loop time of 1213.4 on 40 procs for 123456 steps with 153 atoms, finish time Sat Jan  7 07:28:50 2023


Pair  time (%) = 0.234648 (0.0193381)
Neigh time (%) = 1.01731 (0.0838396)
Comm  time (%) = 3.95516 (0.325958)
Outpt time (%) = 0.000491334 (4.04924e-05)
Other time (%) = 1208.19 (99.5708)

Nlocal:    3.825 ave 44 max 0 min
Histogram: 33 1 2 1 1 0 0 1 0 1
Nghost:    1.65 ave 18 max 0 min
Histogram: 35 0 1 0 1 0 0 0 2 1
Neighs:    0.325 ave 6 max 0 min
Histogram: 35 2 0 1 0 1 0 0 0 1

Total # of neighbors = 13
Ave neighs/atom = 0.0849673
Neighbor list builds = 5607
Dangerous builds = 1
write_dump all custom dump.atom_info_ac_* id type x y z radius vx vy vz density #
run 123456
Setting up run at Sat Jan  7 07:28:50 2023

Memory usage per processor = 958.583 Mbytes
    Step    Atoms         KinEng            CPU 
 9753026      153      0.5947771              0 
 9876482      150     0.87842807      1204.5663 
Loop time of 1204.57 on 40 procs for 123456 steps with 150 atoms, finish time Sat Jan  7 07:48:55 2023


Pair  time (%) = 0.233585 (0.0193916)
Neigh time (%) = 0.936619 (0.0777557)
Comm  time (%) = 2.93198 (0.243405)
Outpt time (%) = 0.000224759 (1.86589e-05)
Other time (%) = 1200.46 (99.6594)

Nlocal:    3.75 ave 47 max 0 min
Histogram: 32 2 3 1 0 0 1 0 0 1
Nghost:    1.65 ave 19 max 0 min
Histogram: 35 1 0 0 0 1 0 0 2 1
Neighs:    0.325 ave 8 max 0 min
Histogram: 37 1 0 0 0 1 0 0 0 1

Total # of neighbors = 13
Ave neighs/atom = 0.0866667
Neighbor list builds = 5122
Dangerous builds = 2
write_dump all custom dump.atom_info_ac_* id type x y z radius vx vy vz density #
run 123456
Setting up run at Sat Jan  7 07:48:55 2023

Memory usage per processor = 958.583 Mbytes
    Step    Atoms         KinEng            CPU 
 9876482      150     0.87842807              0 
[...]

Memory usage per processor = 958.583 Mbytes
    Step    Atoms         KinEng            CPU 
19506128       38      0.3915102              0 
19629584       37     0.38335573      1201.3855 
Loop time of 1201.39 on 40 procs for 123456 steps with 37 atoms, finish time Sun Jan  8 10:22:33 2023


Pair  time (%) = 0.214308 (0.0178384)
Neigh time (%) = 0.960629 (0.0799601)
Comm  time (%) = 0.740108 (0.0616045)
Outpt time (%) = 0.000186451 (1.55196e-05)
Other time (%) = 1199.47 (99.8406)

Nlocal:    0.925 ave 14 max 0 min
Histogram: 36 0 2 0 0 0 0 1 0 1
Nghost:    0.25 ave 2 max 0 min
Histogram: 32 0 0 0 0 6 0 0 0 2
Neighs:    0 ave 0 max 0 min
Histogram: 40 0 0 0 0 0 0 0 0 0

Total # of neighbors = 0
Ave neighs/atom = 0
Neighbor list builds = 5276
Dangerous builds = 179
write_dump all custom dump.atom_info_ac_* id type x y z radius vx vy vz density #
run 123456
Setting up run at Sun Jan  8 10:22:33 2023

Memory usage per processor = 958.583 Mbytes
    Step    Atoms         KinEng            CPU 
19629584       37     0.38335573              0 
19753040       36     0.37766311      1186.5388 
Loop time of 1186.54 on 40 procs for 123456 steps with 36 atoms, finish time Sun Jan  8 10:42:19 2023


Pair  time (%) = 0.208361 (0.0175604)
Neigh time (%) = 0.640823 (0.0540078)
Comm  time (%) = 0.749025 (0.0631269)
Outpt time (%) = 0.0237516 (0.00200175)
Other time (%) = 1184.92 (99.8633)

Nlocal:    0.9 ave 13 max 0 min
Histogram: 35 1 2 0 0 0 0 1 0 1
Nghost:    0.3 ave 3 max 0 min
Histogram: 31 0 0 7 0 0 1 0 0 1
Neighs:    0 ave 0 max 0 min
Histogram: 40 0 0 0 0 0 0 0 0 0

Total # of neighbors = 0
Ave neighs/atom = 0
Neighbor list builds = 3473
Dangerous builds = 0
write_dump all custom dump.atom_info_ac_* id type x y z radius vx vy vz density #
run 123456
Setting up run at Sun Jan  8 10:42:20 2023

Memory usage per processor = 958.583 Mbytes
    Step    Atoms         KinEng            CPU 
19753040       36     0.37766311              0 
19876496       35     0.38847634      1184.5135 
Loop time of 1184.51 on 40 procs for 123456 steps with 35 atoms, finish time Sun Jan  8 11:02:04 2023


Pair  time (%) = 0.206426 (0.0174271)
Neigh time (%) = 0.660083 (0.055726)
Comm  time (%) = 0.850601 (0.0718101)
Outpt time (%) = 0.000186515 (1.57461e-05)
Other time (%) = 1182.8 (99.855)

Nlocal:    0.875 ave 13 max 0 min
Histogram: 35 3 0 0 0 0 0 1 0 1
Nghost:    0.25 ave 2 max 0 min
Histogram: 32 0 0 0 0 6 0 0 0 2
Neighs:    0 ave 0 max 0 min
Histogram: 40 0 0 0 0 0 0 0 0 0

Total # of neighbors = 0
Ave neighs/atom = 0
Neighbor list builds = 3594
Dangerous builds = 55
write_dump all custom dump.atom_info_ac_* id type x y z radius vx vy vz density #
run 123456
Setting up run at Sun Jan  8 11:02:04 2023

Memory usage per processor = 958.583 Mbytes
    Step    Atoms         KinEng            CPU 
19876496       35     0.38847634              0 
19999952       35     0.37547259      1189.4506 
Loop time of 1189.45 on 40 procs for 123456 steps with 35 atoms, finish time Sun Jan  8 11:21:54 2023


Pair  time (%) = 0.207583 (0.017452)
Neigh time (%) = 0.654549 (0.0550295)
Comm  time (%) = 0.932833 (0.0784255)
Outpt time (%) = 0.00111257 (9.35367e-05)
Other time (%) = 1187.66 (99.849)

Nlocal:    0.875 ave 14 max 0 min
Histogram: 35 2 1 0 0 0 0 1 0 1
Nghost:    0.25 ave 3 max 0 min
Histogram: 34 0 0 3 0 0 2 0 0 1
Neighs:    0 ave 0 max 0 min
Histogram: 40 0 0 0 0 0 0 0 0 0

Total # of neighbors = 0
Ave neighs/atom = 0
Neighbor list builds = 3525
Dangerous builds = 0
write_dump all custom dump.atom_info_ac_* id type x y z radius vx vy vz density #
run 123456
Setting up run at Sun Jan  8 11:21:54 2023

Memory usage per processor = 958.583 Mbytes
    Step    Atoms         KinEng            CPU 
19999952       35     0.37547259              0 
20123408       34     0.36710151      1188.3521 
Loop time of 1188.35 on 40 procs for 123456 steps with 34 atoms, finish time Sun Jan  8 11:41:42 2023


Pair  time (%) = 0.211822 (0.0178249)
Neigh time (%) = 0.730997 (0.0615135)
Comm  time (%) = 0.776569 (0.0653484)
Outpt time (%) = 0.000525897 (4.42543e-05)
Other time (%) = 1186.63 (99.8553)

Nlocal:    0.85 ave 14 max 0 min
Histogram: 34 4 0 0 0 0 1 0 0 1
Nghost:    0.25 ave 3 max 0 min
Histogram: 34 0 0 4 0 0 0 0 0 2
Neighs:    0.025 ave 1 max 0 min
Histogram: 39 0 0 0 0 0 0 0 0 1

Total # of neighbors = 1
Ave neighs/atom = 0.0294118
Neighbor list builds = 3949
Dangerous builds = 1
write_dump all custom dump.atom_info_ac_* id type x y z radius vx vy vz density #
run 123456
Setting up run at Sun Jan  8 11:41:42 2023

Memory usage per processor = 958.583 Mbytes
    Step    Atoms         KinEng            CPU 
20123408       34     0.36710151              0 
20246864       34     0.35855312      1209.5158 
Loop time of 1209.52 on 40 procs for 123456 steps with 34 atoms, finish time Sun Jan  8 12:01:52 2023


Pair  time (%) = 0.217053 (0.0179454)
Neigh time (%) = 1.17282 (0.0969662)
Comm  time (%) = 1.21938 (0.100815)
Outpt time (%) = 0.000177389 (1.46661e-05)
Other time (%) = 1206.91 (99.7843)

Nlocal:    0.85 ave 14 max 0 min
Histogram: 36 0 2 0 0 0 1 0 0 1
Nghost:    0.25 ave 2 max 0 min
Histogram: 32 0 0 0 0 6 0 0 0 2
Neighs:    0 ave 0 max 0 min
Histogram: 40 0 0 0 0 0 0 0 0 0

Total # of neighbors = 0
Ave neighs/atom = 0
Neighbor list builds = 6320
Dangerous builds = 0
write_dump all custom dump.atom_info_ac_* id type x y z radius vx vy vz density #
run 123456
Setting up run at Sun Jan  8 12:01:52 2023

Memory usage per processor = 958.583 Mbytes
    Step    Atoms         KinEng            CPU 
20246864       34     0.35855312              0 
20370320       34     0.34044016      1212.8954 
Loop time of 1212.9 on 40 procs for 123456 steps with 34 atoms, finish time Sun Jan  8 12:22:05 2023


Pair  time (%) = 0.217756 (0.0179534)
Neigh time (%) = 1.30763 (0.107811)
Comm  time (%) = 1.00016 (0.0824602)
Outpt time (%) = 0.000160591 (1.32403e-05)
Other time (%) = 1210.37 (99.7918)

Nlocal:    0.85 ave 13 max 0 min
Histogram: 35 1 1 1 0 0 1 0 0 1
Nghost:    0.175 ave 3 max 0 min
Histogram: 35 0 0 4 0 0 0 0 0 1
Neighs:    0 ave 0 max 0 min
Histogram: 40 0 0 0 0 0 0 0 0 0

Total # of neighbors = 0
Ave neighs/atom = 0
Neighbor list builds = 7055
Dangerous builds = 0
write_dump all custom dump.atom_info_ac_* id type x y z radius vx vy vz density #
run 123456
Setting up run at Sun Jan  8 12:22:05 2023

Memory usage per processor = 958.583 Mbytes
    Step    Atoms         KinEng            CPU 
20370320       34     0.34044016              0 
20493776       33     0.33322517      1192.0286 
Loop time of 1192.03 on 40 procs for 123456 steps with 33 atoms, finish time Sun Jan  8 12:41:57 2023


Pair  time (%) = 0.210561 (0.0176641)
Neigh time (%) = 0.658424 (0.0552356)
Comm  time (%) = 0.52881 (0.0443622)
Outpt time (%) = 0.000413453 (3.46848e-05)
Other time (%) = 1190.63 (99.8827)

Nlocal:    0.825 ave 13 max 0 min
Histogram: 35 1 1 1 0 0 1 0 0 1
Nghost:    0.2 ave 3 max 0 min
Histogram: 34 0 0 5 0 0 0 0 0 1
Neighs:    0 ave 0 max 0 min
Histogram: 40 0 0 0 0 0 0 0 0 0

Total # of neighbors = 0
Ave neighs/atom = 0
Neighbor list builds = 3632
Dangerous builds = 187
write_dump all custom dump.atom_info_ac_* id type x y z radius vx vy vz density #
run 123456
Setting up run at Sun Jan  8 12:41:57 2023

Memory usage per processor = 958.583 Mbytes
    Step    Atoms         KinEng            CPU 
20493776       33     0.33322517              0 
20617232       33     0.33998668      1189.7386 
Loop time of 1189.74 on 40 procs for 123456 steps with 33 atoms, finish time Sun Jan  8 13:01:47 2023


Pair  time (%) = 0.209339 (0.0175954)
Neigh time (%) = 0.687067 (0.0577494)
Comm  time (%) = 0.475975 (0.0400067)
Outpt time (%) = 0.000235132 (1.97633e-05)
Other time (%) = 1188.37 (99.8846)

Nlocal:    0.825 ave 13 max 0 min
Histogram: 34 4 0 0 0 0 1 0 0 1
Nghost:    0.225 ave 3 max 0 min
Histogram: 33 0 0 6 0 0 0 0 0 1
Neighs:    0 ave 0 max 0 min
Histogram: 40 0 0 0 0 0 0 0 0 0

Total # of neighbors = 0
Ave neighs/atom = 0
Neighbor list builds = 3691
Dangerous builds = 0
write_dump all custom dump.atom_info_ac_* id type x y z radius vx vy vz density #
run 123456
Setting up run at Sun Jan  8 13:01:47 2023

Memory usage per processor = 958.583 Mbytes
    Step    Atoms         KinEng            CPU 
20617232       33     0.33998668              0 
20740688       31     0.27683969       1192.663 
Loop time of 1192.66 on 40 procs for 123456 steps with 31 atoms, finish time Sun Jan  8 13:21:39 2023


Pair  time (%) = 0.209339 (0.0175522)
Neigh time (%) = 0.78787 (0.0660597)
Comm  time (%) = 0.592632 (0.0496898)
Outpt time (%) = 0.000149636 (1.25464e-05)
Other time (%) = 1191.07 (99.8667)

Nlocal:    0.775 ave 13 max 0 min
Histogram: 35 3 0 0 0 0 1 0 0 1
Nghost:    0.225 ave 3 max 0 min
Histogram: 35 0 0 2 0 0 2 0 0 1
Neighs:    0 ave 0 max 0 min
Histogram: 40 0 0 0 0 0 0 0 0 0

Total # of neighbors = 0
Ave neighs/atom = 0
Neighbor list builds = 4248
Dangerous builds = 0
write_dump all custom dump.atom_info_ac_* id type x y z radius vx vy vz density #
run 123456
Setting up run at Sun Jan  8 13:21:39 2023

Memory usage per processor = 958.583 Mbytes
    Step    Atoms         KinEng            CPU 
20740688       31     0.27683969              0 
20864144       31     0.27206253      1188.2836 
Loop time of 1188.28 on 40 procs for 123456 steps with 31 atoms, finish time Sun Jan  8 13:41:28 2023


Pair  time (%) = 0.2095 (0.0176305)
Neigh time (%) = 0.536612 (0.0451586)
Comm  time (%) = 0.529205 (0.0445352)
Outpt time (%) = 0.000151279 (1.27309e-05)
Other time (%) = 1187.01 (99.8927)

Nlocal:    0.775 ave 13 max 0 min
Histogram: 35 1 2 0 0 0 1 0 0 1
Nghost:    0.2 ave 4 max 0 min
Histogram: 36 0 2 0 0 1 0 0 0 1
Neighs:    0 ave 0 max 0 min
Histogram: 40 0 0 0 0 0 0 0 0 0

Total # of neighbors = 0
Ave neighs/atom = 0
Neighbor list builds = 2884
Dangerous builds = 0
write_dump all custom dump.atom_info_ac_* id type x y z radius vx vy vz density #
run 123456
Setting up run at Sun Jan  8 13:41:28 2023

Memory usage per processor = 958.583 Mbytes
    Step    Atoms         KinEng            CPU 
20864144       31     0.27206253              0 
20987600       31     0.36220454       1191.952 
Loop time of 1191.95 on 40 procs for 123456 steps with 31 atoms, finish time Sun Jan  8 14:01:20 2023


Pair  time (%) = 0.212898 (0.0178613)
Neigh time (%) = 0.703649 (0.0590334)
Comm  time (%) = 0.543047 (0.0455594)
Outpt time (%) = 0.000718141 (6.02492e-05)
Other time (%) = 1190.49 (99.8775)

Nlocal:    0.775 ave 13 max 0 min
Histogram: 36 2 0 0 0 0 1 0 0 1
Nghost:    0.175 ave 3 max 0 min
Histogram: 36 0 0 2 0 0 1 0 0 1
Neighs:    0 ave 0 max 0 min
Histogram: 40 0 0 0 0 0 0 0 0 0

Total # of neighbors = 0
Ave neighs/atom = 0
Neighbor list builds = 3785
Dangerous builds = 0
write_dump all custom dump.atom_info_ac_* id type x y z radius vx vy vz density #
run 123456
Setting up run at Sun Jan  8 14:01:20 2023

Memory usage per processor = 958.583 Mbytes
    Step    Atoms         KinEng            CPU 
20987600       31     0.36220454              0 
21111056       31     0.36056305      1196.6838 
Loop time of 1196.68 on 40 procs for 123456 steps with 31 atoms, finish time Sun Jan  8 14:21:17 2023


Pair  time (%) = 0.214958 (0.0179628)
Neigh time (%) = 0.753941 (0.0630025)
Comm  time (%) = 0.504608 (0.0421672)
Outpt time (%) = 0.000223641 (1.86884e-05)
Other time (%) = 1195.21 (99.8768)

Nlocal:    0.775 ave 13 max 0 min
Histogram: 35 2 1 0 0 0 1 0 0 1
Nghost:    0.225 ave 3 max 0 min
Histogram: 33 0 0 6 0 0 0 0 0 1
Neighs:    0.025 ave 1 max 0 min
Histogram: 39 0 0 0 0 0 0 0 0 1

Total # of neighbors = 1
Ave neighs/atom = 0.0322581
Neighbor list builds = 4058
Dangerous builds = 0
write_dump all custom dump.atom_info_ac_* id type x y z radius vx vy vz density #
run 123456
Setting up run at Sun Jan  8 14:21:17 2023

Memory usage per processor = 958.583 Mbytes
    Step    Atoms         KinEng            CPU 
21111056       31     0.36056305              0 
21234512       31      0.3183092       1190.124 
Loop time of 1190.12 on 40 procs for 123456 steps with 31 atoms, finish time Sun Jan  8 14:41:07 2023


Pair  time (%) = 0.210406 (0.0176793)
Neigh time (%) = 0.675336 (0.056745)
Comm  time (%) = 0.538138 (0.045217)
Outpt time (%) = 0.000211408 (1.77636e-05)
Other time (%) = 1188.7 (99.8803)

Nlocal:    0.775 ave 14 max 0 min
Histogram: 36 2 0 0 0 1 0 0 0 1
Nghost:    0.225 ave 3 max 0 min
Histogram: 33 0 0 6 0 0 0 0 0 1
Neighs:    0.025 ave 1 max 0 min
Histogram: 39 0 0 0 0 0 0 0 0 1

Total # of neighbors = 1
Ave neighs/atom = 0.0322581
Neighbor list builds = 3631
Dangerous builds = 0
write_dump all custom dump.atom_info_ac_* id type x y z radius vx vy vz density #
run 123456
Setting up run at Sun Jan  8 14:41:07 2023

Memory usage per processor = 958.583 Mbytes
    Step    Atoms         KinEng            CPU 
21234512       31      0.3183092              0 
21357968       31     0.28300642       1189.678 
Loop time of 1189.68 on 40 procs for 123456 steps with 31 atoms, finish time Sun Jan  8 15:00:56 2023


Pair  time (%) = 0.209845 (0.0176388)
Neigh time (%) = 0.647952 (0.0544645)
Comm  time (%) = 0.500217 (0.0420464)
Outpt time (%) = 0.000467065 (3.92598e-05)
Other time (%) = 1188.32 (99.8858)

Nlocal:    0.775 ave 14 max 0 min
Histogram: 35 2 1 0 0 1 0 0 0 1
Nghost:    0.2 ave 3 max 0 min
Histogram: 34 0 0 5 0 0 0 0 0 1
Neighs:    0 ave 0 max 0 min
Histogram: 40 0 0 0 0 0 0 0 0 0

Total # of neighbors = 0
Ave neighs/atom = 0
Neighbor list builds = 3482
Dangerous builds = 0
write_dump all custom dump.atom_info_ac_* id type x y z radius vx vy vz density #
run 123456
Setting up run at Sun Jan  8 15:00:57 2023

Memory usage per processor = 958.583 Mbytes
    Step    Atoms         KinEng            CPU 
21357968       31     0.28300642              0 
21481424       31     0.27172625      1185.5791 
Loop time of 1185.58 on 40 procs for 123456 steps with 31 atoms, finish time Sun Jan  8 15:20:42 2023


Pair  time (%) = 0.210816 (0.0177817)
Neigh time (%) = 0.618666 (0.0521826)
Comm  time (%) = 0.501835 (0.0423283)
Outpt time (%) = 0.000197862 (1.66891e-05)
Other time (%) = 1184.25 (99.8877)

Nlocal:    0.775 ave 14 max 0 min
Histogram: 35 1 2 0 0 1 0 0 0 1
Nghost:    0.2 ave 4 max 0 min
Histogram: 36 0 2 0 0 1 0 0 0 1
Neighs:    0 ave 0 max 0 min
Histogram: 40 0 0 0 0 0 0 0 0 0

Total # of neighbors = 0
Ave neighs/atom = 0
Neighbor list builds = 3333
Dangerous builds = 0
write_dump all custom dump.atom_info_ac_* id type x y z radius vx vy vz density #
run 123456
Setting up run at Sun Jan  8 15:20:42 2023

Memory usage per processor = 958.583 Mbytes
    Step    Atoms         KinEng            CPU 
21481424       31     0.27172625              0 
21604880       30     0.25438528      1194.5045 
Loop time of 1194.5 on 40 procs for 123456 steps with 30 atoms, finish time Sun Jan  8 15:40:37 2023


Pair  time (%) = 0.212761 (0.0178117)
Neigh time (%) = 0.664382 (0.0556199)
Comm  time (%) = 0.516088 (0.0432051)
Outpt time (%) = 0.00202034 (0.000169136)
Other time (%) = 1193.11 (99.8832)

Nlocal:    0.75 ave 14 max 0 min
Histogram: 36 2 0 0 0 1 0 0 0 1
Nghost:    0.275 ave 4 max 0 min
Histogram: 33 0 5 0 0 1 0 0 0 1
Neighs:    0 ave 0 max 0 min
Histogram: 40 0 0 0 0 0 0 0 0 0

Total # of neighbors = 0
Ave neighs/atom = 0
Neighbor list builds = 3557
Dangerous builds = 0
write_dump all custom dump.atom_info_ac_* id type x y z radius vx vy vz density #
run 123456
Setting up run at Sun Jan  8 15:40:37 2023

Memory usage per processor = 958.583 Mbytes
    Step    Atoms         KinEng            CPU 
21604880       30     0.25438528              0 
21728336       30     0.28358746      1197.6486 
Loop time of 1197.65 on 40 procs for 123456 steps with 30 atoms, finish time Sun Jan  8 16:00:34 2023


Pair  time (%) = 0.210912 (0.0176105)
Neigh time (%) = 0.635895 (0.0530953)
Comm  time (%) = 0.535629 (0.0447234)
Outpt time (%) = 0.000489479 (4.087e-05)
Other time (%) = 1196.27 (99.8845)

Nlocal:    0.75 ave 13 max 0 min
Histogram: 35 3 0 0 0 0 1 0 0 1
Nghost:    0.3 ave 4 max 0 min
Histogram: 34 0 3 0 0 1 0 1 0 1
Neighs:    0 ave 0 max 0 min
Histogram: 40 0 0 0 0 0 0 0 0 0

Total # of neighbors = 0
Ave neighs/atom = 0
Neighbor list builds = 3411
Dangerous builds = 0
write_dump all custom dump.atom_info_ac_* id type x y z radius vx vy vz density #
run 123456
Setting up run at Sun Jan  8 16:00:34 2023

Memory usage per processor = 958.583 Mbytes
    Step    Atoms         KinEng            CPU 
21728336       30     0.28358746              0 
21851792       30     0.16535012      1191.8002 
Loop time of 1191.8 on 40 procs for 123456 steps with 30 atoms, finish time Sun Jan  8 16:20:26 2023


Pair  time (%) = 0.214318 (0.0179827)
Neigh time (%) = 0.73303 (0.0615061)
Comm  time (%) = 0.71233 (0.0597692)
Outpt time (%) = 0.000207425 (1.74043e-05)
Other time (%) = 1190.14 (99.8607)

Nlocal:    0.75 ave 14 max 0 min
Histogram: 36 2 0 0 0 0 1 0 0 1
Nghost:    0.35 ave 5 max 0 min
Histogram: 34 0 2 0 2 0 1 0 0 1
Neighs:    0 ave 0 max 0 min
Histogram: 40 0 0 0 0 0 0 0 0 0

Total # of neighbors = 0
Ave neighs/atom = 0
Neighbor list builds = 3932
Dangerous builds = 0
write_dump all custom dump.atom_info_ac_* id type x y z radius vx vy vz density #
run 123456
Setting up run at Sun Jan  8 16:20:26 2023

Memory usage per processor = 958.583 Mbytes
    Step    Atoms         KinEng            CPU 
21851792       30     0.16535012              0 
21975248       29     0.13925658      1192.1012 
Loop time of 1192.1 on 40 procs for 123456 steps with 29 atoms, finish time Sun Jan  8 16:40:18 2023


Pair  time (%) = 0.21036 (0.0176461)
Neigh time (%) = 0.696833 (0.0584541)
Comm  time (%) = 0.658933 (0.0552749)
Outpt time (%) = 0.000184505 (1.54773e-05)
Other time (%) = 1190.54 (99.8686)

Nlocal:    0.725 ave 14 max 0 min
Histogram: 36 1 1 0 0 1 0 0 0 1
Nghost:    0.325 ave 5 max 0 min
Histogram: 35 0 2 0 1 0 0 0 1 1
Neighs:    0.05 ave 1 max 0 min
Histogram: 38 0 0 0 0 0 0 0 0 2

Total # of neighbors = 2
Ave neighs/atom = 0.0689655
Neighbor list builds = 3841
Dangerous builds = 178
write_dump all custom dump.atom_info_ac_* id type x y z radius vx vy vz density #
run 123456
Setting up run at Sun Jan  8 16:40:19 2023

Memory usage per processor = 958.583 Mbytes
    Step    Atoms         KinEng            CPU 
21975248       29     0.13925658              0 
22098704       29     0.14298429      1188.8718 
Loop time of 1188.88 on 40 procs for 123456 steps with 29 atoms, finish time Sun Jan  8 17:00:07 2023


Pair  time (%) = 0.207066 (0.0174168)
Neigh time (%) = 0.659141 (0.055442)
Comm  time (%) = 0.690492 (0.0580791)
Outpt time (%) = 0.000156301 (1.31469e-05)
Other time (%) = 1187.33 (99.869)

Nlocal:    0.725 ave 15 max 0 min
Histogram: 35 3 0 0 1 0 0 0 0 1
Nghost:    0.325 ave 6 max 0 min
Histogram: 34 3 0 2 0 0 0 0 0 1
Neighs:    0 ave 0 max 0 min
Histogram: 40 0 0 0 0 0 0 0 0 0

Total # of neighbors = 0
Ave neighs/atom = 0
Neighbor list builds = 3544
Dangerous builds = 0
write_dump all custom dump.atom_info_ac_* id type x y z radius vx vy vz density #
run 123456
Setting up run at Sun Jan  8 17:00:08 2023

Memory usage per processor = 958.583 Mbytes
    Step    Atoms         KinEng            CPU 
22098704       29     0.14298429              0 
WARNING: Forced restart written (../output.cpp:427)
22190225       29     0.13523538      905.71684 
Loop time of 905.717 on 40 procs for 123456 steps with 29 atoms, finish time Sun Jan  8 17:15:13 2023


Pair  time (%) = 0.154372 (0.0170442)
Neigh time (%) = 0.470068 (0.0519001)
Comm  time (%) = 0.452149 (0.0499217)
Outpt time (%) = 0.0949272 (0.0104809)
Other time (%) = 904.545 (99.8707)

Nlocal:    0.725 ave 15 max 0 min
Histogram: 36 1 1 0 0 1 0 0 0 1
Nghost:    0.3 ave 6 max 0 min
Histogram: 35 3 0 0 0 1 0 0 0 1
Neighs:    0 ave 0 max 0 min
Histogram: 40 0 0 0 0 0 0 0 0 0

Total # of neighbors = 0
Ave neighs/atom = 0
Neighbor list builds = 2541
Dangerous builds = 0
