ITEM: TIMESTEP
8148098
ITEM: NUMBER OF ATOMS
197
ITEM: BOX BOUNDS ff ff ff
-0.15 0.15
-0.15 0.15
-0.15 0.15
ITEM: ATOMS id type x y z radius vx vy vz density 
108 1 -0.0500667 -0.0145685 -0.0459381 0.001058 -0.193631 -0.424425 0.210789 2650 
232 1 -0.0628548 -0.0106222 -0.0258767 0.001058 -12.0048 -2.57927 29.1366 2650 
141 1 -0.0655354 -0.0121665 -0.0206574 0.000291 -1.53854 -0.680729 4.87967 2650 
184 1 -0.0106695 -0.00301353 -0.0128734 0.000105 -0.0752633 -0.00302714 0.0552319 2650 
135 1 -0.00290873 -0.000284994 -0.00777501 0.000291 0.0022501 0.000177671 -0.0146391 2650 
76 1 -0.00080239 -0.00285593 -0.00541613 0.001058 0.00564796 -0.0105611 0.000695373 2650 
198 1 -0.0162741 -0.00209564 -0.00306783 0.000291 -0.00877366 -0.0177289 0.0346228 2650 
211 1 -0.013621 -0.00212895 -0.002856 0.001058 0 -0.01175 0 2650 
274 1 -0.016431 -0.000352827 -0.00231857 0.000291 0.000761315 -0.0225968 0.00643577 2650 
229 1 -0.0679845 -0.0402281 3.83651e-06 0.001058 0.00224155 5.67836 41.2383 2650 
228 1 -0.0687193 -0.0367181 9.43191e-05 0.000291 0.0956848 3.4558 69.7153 2650 
14 1 -0.006378 -0.00306195 0.001478 0.000291 0 -0.01175 0 2650 
296 1 -0.005879 -0.00258395 0.000521 0.000291 0 -0.01175 0 2650 
191 1 -0.0108 -0.00172995 0.001549 0.000291 0 -0.01175 0 2650 
168 1 -0.007536 -0.000718951 0.001389 0.000105 0 -0.01175 0 2650 
18 1 -0.005138 -0.00152495 0.00212 0.001058 0 -0.01175 0 2650 
98 1 -0.00204404 -0.00169465 0.00238027 0.001058 -0.000888658 -0.0146521 -0.00984914 2650 
53 1 -0.000389 -0.000441951 0.004762 0.000291 0 -0.01175 0 2650 
38 1 -0.00186636 -0.00104209 0.00707945 0.000291 -0.00540624 -0.00234689 -0.00641771 2650 
259 1 -0.0671542 -0.0357882 0.0105394 0.001058 4.82532 6.78292 30.722 2650 
233 1 -0.001796 -0.00314495 0.010436 0.000291 0 -0.01175 0 2650 
226 1 -0.009224 -0.00217295 0.012787 0.000291 0 -0.01175 0 2650 
143 1 -0.0643325 -0.0263189 0.0241508 0.000291 16.9952 -11.2318 45.2611 2650 
225 1 -0.0481707 -0.0024301 0.0479644 0.001058 35.6549 -6.50437 35.8211 2650 
73 1 -0.0445443 -0.0266393 0.050599 0.00164 27.6882 5.62085 24.3483 2650 
85 1 -0.000521756 0.00356697 -0.0165108 0.000291 0.00302158 0.0132939 0.000274953 2650 
70 1 -0.002345 0.000899049 -0.015511 0.000291 0 -0.01175 0 2650 
33 1 -0.00357482 0.00495024 -0.0117249 0.00164 0.00139121 -0.00702858 0.00589607 2650 
94 1 -0.0115723 0.00602573 -0.0118713 0.000291 8.54657e-05 -0.0117335 8.54657e-05 2650 
234 1 -0.0107739 0.00663669 -0.0115291 0.000291 -0.0198056 0.0044 -0.0033269 2650 
127 1 -0.00649366 0.0286601 -0.0110051 0.000291 0.0287766 0.0561217 0.00113528 2650 
154 1 -0.00635871 0.037658 -0.00747402 0.001058 -0.0457969 0.0551383 0.0326121 2650 
114 1 -0.0123616 0.00105755 -0.00598517 0.001058 0.00321985 -0.00836985 -0.0228365 2650 
104 1 -0.0146622 0.00349039 -0.00435497 0.000105 -0.00937326 -0.00230838 -0.0219625 2650 
276 1 -0.0119612 0.00388963 -0.00463735 0.000291 0.0231998 -0.00215193 -0.0242449 2650 
159 1 -0.012707 0.00612505 -0.00588 0.000291 0 -0.01175 0 2650 
74 1 -0.00849907 0.00633414 -0.00427123 0.001058 0.0197531 0.00277685 0.00564839 2650 
256 1 -0.016002 0.0107133 -0.00452613 0.000291 -0.0112313 0.0027271 0.0150657 2650 
115 1 -0.0149411 0.0102341 -0.00521534 0.001058 -0.00515652 0.00617691 0.0191123 2650 
187 1 -0.014147 0.0129639 -0.00491447 0.001058 0.00220575 0.0137802 0.0133562 2650 
75 1 -0.011087 0.0330313 -0.00457225 0.001058 0.0171891 0.064434 -0.0211867 2650 
13 1 -0.014201 0.00223105 -0.003882 0.000291 0 -0.01175 0 2650 
17 1 -0.0147644 0.0060272 -0.00248288 0.00164 0.00532388 0.0101532 0.0126939 2650 
209 1 -0.010804 0.00639655 -0.00291388 0.001058 0.0134316 0.00655067 0.00545932 2650 
47 1 -0.0163346 0.0098025 -0.00330276 0.000291 -0.00010115 0.0117239 0.0355766 2650 
144 1 -0.0110902 0.011833 -0.00341415 0.000105 0.00862261 0.0155448 0.0270904 2650 
220 1 -0.0134132 0.0180442 -0.00240279 0.000291 0.00621602 0.00749286 0.0146849 2650 
7 1 -0.00644076 0.01946 -0.00307831 0.000291 0.00379351 0.0136266 -0.000190797 2650 
175 1 -0.0164796 0.000644753 -0.00183437 0.000291 -0.00891713 -0.00738117 0.029378 2650 
97 1 -0.0131514 0.00295054 -0.00173314 0.00164 0.00587724 -0.00270027 -0.00409197 2650 
61 1 -0.016439 0.00584305 -0.001038 0.000291 0 -0.01175 0 2650 
80 1 -0.0133125 0.00574466 -0.00142219 0.000105 0.0101478 -0.00197038 -0.0113343 2650 
99 1 -0.0112359 0.00704152 -0.000193555 0.001058 0.0112842 0.0140299 -0.00166045 2650 
10 1 -0.0155561 0.008929 -0.00044575 0.001058 -0.00943025 0.0189231 0.0230423 2650 
240 1 -0.0118249 0.0090674 -0.000345873 0.000291 -0.00215606 0.0297587 0.00899639 2650 
77 1 -0.00405649 0.0106813 -0.000186928 0.000291 0.0277953 0.00207908 -0.016867 2650 
41 1 -0.00564255 0.0134206 -0.00112483 0.00164 0.0101493 0.00903205 0.0210511 2650 
65 1 -0.0107806 0.0166474 -0.00114781 0.00164 -0.00350053 0.0118922 0.00337463 2650 
120 1 -0.016055 0.00148305 0.000189 0.000105 0 -0.01175 0 2650 
268 1 -0.011054 0.00470505 0.000789 0.000291 0 -0.01175 0 2650 
52 1 -0.0152908 0.0065077 0.00020449 0.001058 -0.00152778 0.00892288 0.016201 2650 
206 1 -0.0163827 0.0605795 0.00165309 0.000291 -0.00229865 0.236368 -0.00599883 2650 
176 1 -0.003983 0.00282005 0.002552 0.000105 0 -0.01175 0 2650 
129 1 -0.00866225 0.00445355 0.00200175 0.00164 0.000219449 -0.0120332 0.000405385 2650 
273 1 -0.00178804 0.0210197 0.00343624 0.001058 -0.00378567 0.0376334 0.0311204 2650 
170 1 -0.01149 0.000953049 0.005193 0.001058 0 -0.01175 0 2650 
164 1 -0.003894 0.00185605 0.005467 0.001058 0 -0.01175 0 2650 
126 1 -0.00164303 0.00308983 0.00524499 0.000291 -0.00813257 -0.0158529 -0.0248811 2650 
291 1 -0.008194 0.00623005 0.004767 0.000291 0 -0.01175 0 2650 
242 1 -0.0087408 0.0125096 0.00503341 0.000291 -0.0086111 0.00654042 0.00262129 2650 
124 1 -0.0149832 0.0180443 0.00481345 0.001058 0.000501626 0.0410145 -0.000846304 2650 
58 1 -0.0124732 8.93049e-05 0.00785156 0.001058 -0.00593126 -0.00817978 0.00596219 2650 
186 1 -0.006177 0.00417205 0.006545 0.001058 0 -0.01175 0 2650 
4 1 -0.0136821 0.00720495 0.00768001 0.001058 -0.000962198 -0.00289426 -0.00306323 2650 
71 1 -0.00204745 0.0073904 0.00608987 0.000291 -0.00101545 -0.00618567 -0.020495 2650 
28 1 -0.0140414 0.0206063 0.00625225 0.001058 0.00321107 0.0436165 0.0028608 2650 
245 1 -0.00211914 0.0497687 0.00681257 0.001058 0.0132501 0.0534812 -0.0221989 2650 
304 1 -0.0126618 0.00836383 0.00992059 0.000291 0.00483691 0.00442522 -0.0020989 2650 
68 1 -0.00330428 0.00930777 0.00997873 0.001058 0.0027366 -0.00341554 -0.0016946 2650 
249 1 -0.00271783 0.0190971 0.00823887 0.000291 0.00967839 0.0183331 -0.0129307 2650 
106 1 -0.00950397 0.0227547 0.00884616 0.001058 0.0168325 0.0449922 -0.00167347 2650 
300 1 -0.0119023 0.00177927 0.0104274 0.001058 -0.00474694 -0.00935107 -0.00498779 2650 
266 1 -0.010689 0.00815012 0.0114128 0.001058 0.00827004 0.0106193 0.0111365 2650 
217 1 -0.00987617 0.0241071 0.0104598 0.001058 -0.00233988 0.0370461 0.00790606 2650 
285 1 -0.0101681 0.00112955 0.0121683 0.001058 -0.00567287 -0.013081 -0.00684475 2650 
299 1 -0.00813505 0.00404066 0.0126431 0.001058 0.0133133 -0.0112639 0.0106099 2650 
55 1 -0.0108857 0.00977749 0.0125376 0.000291 0.0117878 0.0126004 0.00705877 2650 
224 1 -0.00785006 0.0118821 0.0136234 0.001058 -0.00433066 0.00534585 0.00205423 2650 
87 1 -0.00936129 0.016275 0.0130885 0.000291 0.0466638 0.0283577 0.0402066 2650 
238 1 -0.00339815 0.0180551 0.0142082 0.001058 0.0206406 0.0247492 -0.00648467 2650 
54 1 -0.00324188 0.0294092 0.0162215 0.000291 0.0527092 0.00944275 -0.0227616 2650 
272 1 0.0130609 -0.0494156 -0.0666787 0.001058 -24.0531 4.96342 -4.70914 2650 
1 1 0.0197303 -0.0493291 -0.0644147 0.00164 -18.425 -0.158268 -5.6378 2650 
303 1 0.00593063 -0.00557646 -0.0383032 0.000291 0.852876 -0.256669 -5.43067 2650 
270 1 0.0601691 -0.00722604 -0.033183 0.000291 0.0904455 -0.171783 0.163952 2650 
178 1 0.0206288 -0.0132446 -0.0233567 0.001058 2.84044 -1.05643 -3.11576 2650 
88 1 0.0657627 -0.00793735 -0.0205434 0.000105 0.0375076 -0.189311 0.120056 2650 
46 1 0.007499 -0.00304595 -0.014091 0.000291 0 -0.01175 0 2650 
180 1 0.00286617 -0.00170805 -0.0155826 0.001058 0.033368 -0.0170825 0.000537216 2650 
160 1 0.004468 -0.00135995 -0.014641 0.000105 0 -0.01175 0 2650 
269 1 0.00676562 -0.000348597 -0.0135002 0.000291 0.0371977 -0.0128243 0.0139292 2650 
263 1 0.006877 -0.000962951 -0.012319 0.000291 0 -0.01175 0 2650 
196 1 0.002599 -0.00248995 -0.011929 0.001058 0 -0.01175 0 2650 
201 1 0.0092869 -0.000853225 -0.0116367 0.00164 0.00137504 -0.011407 -0.00388383 2650 
102 1 0.003423 -0.00105795 -0.006065 0.000291 0 -0.01175 0 2650 
117 1 0.004754 -0.000795951 -0.007063 0.000291 0 -0.01175 0 2650 
246 1 0.001376 -0.00155695 -0.005453 0.001058 0 -0.01175 0 2650 
172 1 0.0679221 -0.0557854 -0.00330816 0.001058 -2.98161 0.89656 -61.181 2650 
131 1 0.0678761 -0.0407878 -0.00398255 0.001058 -2.98487 -0.238705 -50.8395 2650 
205 1 0.00132105 -0.00176819 -0.000181243 0.000291 -0.0110845 -0.00951857 0.00619805 2650 
177 1 0.00341455 -0.00078388 -0.00190012 0.00164 -0.00972365 -0.00599557 0.0042022 2650 
50 1 0.0679642 -0.00454235 0.000302521 0.001058 -0.023794 -1.3572 5.3287 2650 
96 1 0.009869 -0.00280095 0.000788 0.000105 0 -0.01175 0 2650 
81 1 0.007451 -0.00143795 7.8e-05 0.00164 0 -0.01175 0 2650 
261 1 0.011218 -0.00126195 0.000328 0.000291 0 -0.01175 0 2650 
210 1 0.0102039 -0.00173423 0.00211368 0.001058 -0.0106222 -0.00657497 -0.00336931 2650 
150 1 0.0101524 -0.00300594 0.00425867 0.000291 0.00639996 -0.0179725 -0.00378652 2650 
223 1 0.00957613 -0.00196661 0.00500456 0.001058 0.0234053 -0.008914 0.00888968 2650 
174 1 0.002361 -0.00326795 0.006466 0.000291 0 -0.01175 0 2650 
207 1 0.00205443 -0.000238668 0.00963645 0.000291 -0.0197991 -0.0328905 -0.0312262 2650 
103 1 0.00594978 -0.000600018 0.0113874 0.000291 -0.00204212 -0.0142702 0.00820261 2650 
3 1 0.0120942 -0.00113166 0.0102652 0.001058 0.0101497 -0.00645758 -0.00609925 2650 
251 1 0.0667611 -0.00357244 0.0127287 0.001058 1.03682 -1.74311 -5.43293 2650 
82 1 0.000755 -0.00159495 0.014898 0.001058 0 -0.01175 0 2650 
111 1 0.0553448 -0.00479896 0.0407072 0.000291 1.85765 -0.777216 -3.01524 2650 
218 1 0.0428833 -0.035664 0.049778 0.001058 9.51893 1.05326 -8.74584 2650 
277 1 0.0244189 -0.0037326 0.064224 0.000291 37.7071 -1.81777 -14.3364 2650 
237 1 0.00465417 -0.0412084 0.067783 0.001058 17.685 4.40591 -1.21413 2650 
146 1 0.0142832 -0.0262057 0.0664516 0.001058 46.905 9.83793 -10.0868 2650 
130 1 0.00547399 0.00119115 -0.0147902 0.001058 0.0334764 -0.000891143 0.014443 2650 
37 1 0.006156 0.00554305 -0.015157 0.000291 0 -0.01175 0 2650 
147 1 0.00172054 0.0170128 -0.0157241 0.001058 -0.0564064 0.0386996 -0.00225891 2650 
289 1 0.001465 0.000204049 -0.012477 0.000291 0 -0.01175 0 2650 
142 1 0.002378 0.000619049 -0.013184 0.000291 0 -0.01175 0 2650 
252 1 0.00219592 0.00383806 -0.0139461 0.001058 -0.00166999 -0.0122494 -0.00385255 2650 
78 1 0.001258 0.00552905 -0.012517 0.000291 0 -0.01175 0 2650 
110 1 0.00477106 0.00423541 -0.0120676 0.000291 -0.00350107 -0.0220031 -0.0105184 2650 
260 1 0.00735589 0.00217667 -0.0107758 0.000291 -0.0126887 0.00194451 -0.0180502 2650 
275 1 0.012705 0.00327605 -0.010476 0.000291 0 -0.01175 0 2650 
105 1 0.00288193 0.00523365 -0.0114364 0.00164 -0.0038398 -0.00644756 -0.00346238 2650 
203 1 0.0010124 0.00951209 -0.0114705 0.001058 0.0258377 0.0432949 0.0372977 2650 
155 1 0.0104795 0.0124685 -0.0118068 0.001058 0.0562611 0.0350797 0.0421039 2650 
134 1 0.00819634 0.00389794 -0.00817959 0.000291 -0.0118829 0.00375813 -0.00608975 2650 
60 1 0.007579 0.00184505 -0.006312 0.001058 0 -0.01175 0 2650 
45 1 0.010575 0.00176505 -0.007722 0.000291 0 -0.01175 0 2650 
67 1 0.00388265 0.00379329 -0.00773314 0.001058 -0.00558703 -0.00493479 0.00721537 2650 
161 1 0.0123611 0.00248423 -0.00614889 0.00164 -0.00276466 0.000958617 -0.00216536 2650 
284 1 0.0143286 0.00583926 -0.00622768 0.000291 0.00198088 -0.00162967 -0.00401056 2650 
279 1 0.00989885 0.00645443 -0.0062593 0.001058 -0.00655734 0.00883723 -0.00295144 2650 
250 1 0.00349636 0.0186027 -0.00648469 0.001058 0.056604 0.0605666 -0.00107285 2650 
199 1 0.014464 0.00225605 -0.004562 0.000291 0 -0.01175 0 2650 
278 1 7.4e-05 0.00435605 -0.004448 0.001058 0 -0.01175 0 2650 
92 1 0.00989095 0.00475213 -0.00440155 0.001058 -0.00319297 0.00820736 -7.57342e-07 2650 
19 1 0.0143041 0.00467149 -0.00527826 0.001058 0.00435807 -0.00106563 0.00142516 2650 
139 1 0.00886991 0.0180622 -0.00518115 0.001058 0.0124295 0.00846741 0.0230295 2650 
253 1 0.014729 0.000614049 -0.002617 0.000291 0 -0.01175 0 2650 
227 1 0.00944 0.00244305 -0.002109 0.000291 0 -0.01175 0 2650 
113 1 0.0103002 0.000485976 -0.000907387 0.00164 -0.000131046 -0.0102654 0.00285074 2650 
190 1 0.005899 0.00514505 -0.000534 0.000291 0 -0.01175 0 2650 
48 1 0.009671 0.00303705 0.000233 0.000105 0 -0.01175 0 2650 
128 1 0.00361 0.00474405 0.000511 0.000105 0 -0.01175 0 2650 
271 1 0.00958801 0.00466937 0.00174369 0.001058 0.0289317 -0.00785113 0.0310685 2650 
9 1 0.012984 0.00478205 0.000468 0.00164 0 -0.01175 0 2650 
286 1 0.015584 0.00545005 0.000132 0.001058 0 -0.01175 0 2650 
59 1 0.00323272 0.0111981 0.000810688 0.001058 -0.0130035 0.0428294 -0.0492223 2650 
101 1 0.004812 0.00346705 0.002517 0.000291 0 -0.01175 0 2650 
294 1 0.006997 0.00275105 0.003581 0.001058 0 -0.01175 0 2650 
116 1 0.00895626 0.0218789 0.00259244 0.001058 -0.0193078 0.0669284 0.0834163 2650 
35 1 0.00115496 0.000428202 0.00451385 0.001058 0.00657044 -0.0107373 -0.00948648 2650 
202 1 0.00223798 0.00312608 0.00558235 0.001058 0.00927578 -0.00719028 -0.0138109 2650 
24 1 0.005464 0.00283305 0.005551 0.000105 0 -0.01175 0 2650 
51 1 0.009662 0.00390605 0.004577 0.001058 0 -0.01175 0 2650 
244 1 0.014869 0.00331905 0.00421 0.001058 0 -0.01175 0 2650 
212 1 0.00102818 0.00412679 0.00446241 0.000291 -0.000536105 -0.00385845 -0.0132408 2650 
79 1 0.014214 0.00574605 0.005058 0.000291 0 -0.01175 0 2650 
153 1 0.00127741 0.00729038 0.00456042 0.00164 0.00916448 -0.00410288 -0.0197232 2650 
208 1 0.0125691 0.00135831 0.00727164 0.001058 0.015057 -0.000780944 -0.00273884 2650 
231 1 0.006459 0.00245805 0.007445 0.001058 0 -0.01175 0 2650 
222 1 0.009219 0.00510505 0.006833 0.001058 0 -0.01175 0 2650 
112 1 0.013668 0.00606905 0.007002 0.000105 0 -0.01175 0 2650 
100 1 0.00940573 0.00169177 0.00816212 0.001058 0.0225976 -0.000995176 -0.0107968 2650 
258 1 0.0109964 0.000459274 0.00931212 0.001058 0.00491568 -0.0083083 -0.00709192 2650 
194 1 0.0107051 0.00355941 0.00992889 0.001058 0.00965479 -0.00844737 -0.00170701 2650 
195 1 0.00338897 0.00653437 0.00977957 0.001058 0.0216865 0.00727933 -0.0225594 2650 
145 1 0.00897561 0.00615555 0.00997815 0.00164 0.0110313 -0.00631937 0.0021615 2650 
204 1 0.00636085 9.05442e-05 0.0102576 0.001058 0.00309304 0.0005573 0.0141749 2650 
287 1 0.00927625 0.00208787 0.0116163 0.001058 0.00682141 -0.00787141 0.000922002 2650 
66 1 0.00557379 0.0091444 0.0113157 0.001058 0.00619263 0.00109789 0.000884431 2650 
156 1 0.00466373 0.0119535 0.0107763 0.001058 0.00972231 -0.000191895 -0.0100171 2650 
57 1 0.00487504 0.0211041 0.0112417 0.00164 0.0229902 0.0153792 0.043586 2650 
95 1 0.00705677 0.00407076 0.0138631 0.000291 0.000317815 -0.00292264 0.00231518 2650 
298 1 0.00925019 0.00674528 0.0133114 0.000105 0.0129991 -0.00593697 0.0036458 2650 
292 1 0.000766433 0.0128228 0.0128551 0.001058 0.0192322 0.0276757 0.064947 2650 
265 1 0.00502036 0.00558537 0.014805 0.001058 0.0199912 -0.000128115 -0.00515531 2650 
163 1 0.0663683 0.0863711 -0.0146358 0.001058 0.0189841 0.17945 0.0860047 2650 
136 1 0.0005232 0.0768944 -0.000477489 0.000105 0.0370802 0.101801 0.0201257 2650 
11 1 0.053339 0.0849323 0.0420989 0.001058 0.13592 -0.108146 -0.172019 2650 
