ITEM: TIMESTEP
18024656
ITEM: NUMBER OF ATOMS
100
ITEM: BOX BOUNDS ff ff ff
-0.15 0.15
-0.15 0.15
-0.15 0.15
ITEM: ATOMS id type x y z radius vx vy vz density 
186 1 -0.0456374 -0.0518491 -0.0504177 0.001058 -55.6517 -9.18962 50.3448 2650 
78 1 -0.00297255 -0.00278693 -0.0154271 0.000291 -0.00533626 -0.0103826 -0.00367069 2650 
135 1 -0.0015316 -0.000375036 -0.015582 0.000291 -0.00685495 -0.00391328 -0.00415534 2650 
94 1 -0.0123761 -0.00385465 -0.0127562 0.000291 -0.672084 -0.189139 -0.707043 2650 
33 1 -0.00245942 -0.000664673 -0.00699387 0.00164 0.0013962 -0.00701225 0.00592525 2650 
159 1 -0.012707 -0.00327497 -0.00588 0.000291 0 -0.01175 0 2650 
61 1 -0.0686556 -0.00768711 -0.00285311 0.000291 -0.00158047 -0.252899 0.0380215 2650 
67 1 -0.00934117 -0.00232739 -0.00354763 0.001058 -0.0251403 -0.00934789 0.00339681 2650 
291 1 -0.008194 -0.00316997 0.004767 0.000291 0 -0.01175 0 2650 
108 1 -0.0669841 -0.0517985 0.0116463 0.001058 8.11808 -1.86559 46.6596 2650 
300 1 -0.00983196 -8.83064e-07 0.012176 0.001058 0.00506621 -0.000103925 0.00433634 2650 
231 1 -0.0267895 -0.0595952 0.0211953 0.001058 4.85559 7.41327 32.8262 2650 
268 1 -0.0584357 -0.0462515 0.0361481 0.000291 -8.01088 3.66738 -12.9463 2650 
129 1 -0.0511999 -0.0506965 0.0437937 0.00164 -1.89181 1.14619 -2.20811 2650 
105 1 -0.000164546 7.02696e-05 -0.0141879 0.00164 -0.00376222 -0.00643515 -0.0033816 2650 
104 1 -0.00706404 0.00216416 -0.0141539 0.000105 0.011981 -0.00157217 -0.0109702 2650 
260 1 -0.00245808 0.00373207 -0.0130999 0.000291 -0.0120055 0.0019441 0.00651081 2650 
134 1 -0.00130998 0.00690445 -0.0130514 0.000291 -0.0118829 0.00375813 -0.00608975 2650 
71 1 -0.00285981 0.00244185 -0.0103061 0.000291 -0.00101545 -0.00618567 -0.020495 2650 
115 1 -0.0091041 0.00442259 -0.0113039 0.001058 0.025864 -0.0131007 0.0178439 2650 
51 1 -0.0106994 0.00839464 -0.0116377 0.001058 -0.0410995 0.0410674 -0.0333315 2650 
80 1 -0.00292772 0.003541 -0.00924382 0.000105 0.0130288 -0.0027678 -0.00975077 2650 
113 1 -0.00678099 0.0121708 -0.00735524 0.00164 0.00941407 0.0202967 0.0118449 2650 
97 1 -0.00844956 0.000790314 -0.00500672 0.00164 0.00587724 -0.00270027 -0.00409197 2650 
59 1 -0.00471151 0.0406707 -0.00433899 0.001058 -0.0076843 0.032464 0.0248311 2650 
234 1 -0.0121607 0.00925009 -0.00309966 0.000291 -0.000530972 0.00319134 0.0114593 2650 
7 1 -0.00340595 0.0303613 -0.00323095 0.000291 0.00379351 0.0136266 -0.000190797 2650 
99 1 -0.00220854 0.0182654 -0.00152192 0.001058 0.0112842 0.0140299 -0.00166045 2650 
209 1 -5.87528e-05 0.0116371 0.00145358 0.001058 0.0134316 0.00655067 0.00545932 2650 
263 1 -0.0111826 0.00851829 0.00254854 0.000291 0.0144724 0.0136007 0.0456324 2650 
4 1 -0.0144519 0.00488954 0.00522943 0.001058 -0.000962198 -0.00289426 -0.00306323 2650 
187 1 -0.0123824 0.0239881 0.00577053 0.001058 0.00220575 0.0137802 0.0133562 2650 
273 1 -0.01524 0.0416187 0.00419611 0.001058 0.101391 0.038398 0.549547 2650 
242 1 -0.0150136 0.017653 0.00692036 0.000291 0.0039053 0.00473342 -0.00164707 2650 
68 1 -0.001115 0.00657533 0.00862305 0.001058 0.0027366 -0.00341554 -0.0016946 2650 
304 1 -0.00879226 0.011904 0.00824148 0.000291 0.00483691 0.00442522 -0.0020989 2650 
220 1 -0.0133756 0.0268704 0.00919061 0.000291 0.0157719 0.00202815 0.0239202 2650 
224 1 -0.00908281 0.0158019 0.0112347 0.001058 -0.00136791 0.00490756 -0.00324686 2650 
85 1 -0.0122862 0.0339942 0.0110182 0.000291 0.0312244 0.0589779 0.0391946 2650 
170 1 -0.00467698 0.000876848 0.012098 0.001058 0.0120343 0.00223595 0.00751203 2650 
204 1 -0.00128201 0.00127652 0.0152767 0.001058 -0.0166233 0.00491542 0.00355489 2650 
55 1 -0.00644067 0.0154105 0.0149089 0.000291 0.00439797 0.00637099 0.00132786 2650 
144 1 -0.0036351 0.0240436 0.0156467 0.000105 0.0157353 0.0126694 -0.00626058 2650 
240 1 -0.0471718 0.0790796 -0.0499577 0.000291 -0.269825 -0.0346115 0.2547 2650 
82 1 0.00206027 -0.0584089 -0.0679173 0.001058 -29.1296 -6.67451 -0.883118 2650 
278 1 0.0320536 -0.0270907 -0.0599478 0.001058 -48.6667 -8.95815 -26.0043 2650 
177 1 0.0631648 -0.0596709 -0.023746 0.00164 -22.3905 -3.84574 -59.5054 2650 
210 1 0.000292398 -0.00311267 -0.0142917 0.001058 -0.0432544 -0.0029717 -0.00730567 2650 
269 1 0.00338307 -0.00262386 -0.0118637 0.000291 -0.00749531 -0.00226906 0.00353502 2650 
190 1 0.00784397 -0.00327245 -0.00528687 0.000291 0.00500936 -0.00921948 -0.0122412 2650 
202 1 0.00790603 -0.00276632 -0.00300648 0.001058 0.00631943 -0.00744818 -0.0096127 2650 
160 1 0.0157846 -0.0012033 -0.000300531 0.000105 -0.00597896 0.000269468 0.0180444 2650 
208 1 0.0124173 -0.00124597 0.00952563 0.001058 -0.00892627 -0.00353222 0.0157348 2650 
37 1 0.0647799 -0.0536981 0.0229256 0.000291 18.0816 -3.25927 -51.0809 2650 
164 1 0.0574706 -0.0434235 0.0363281 0.001058 29.3434 -14.4487 -46.3898 2650 
244 1 0.0175438 -0.0105487 0.0656908 0.001058 68.8794 8.25522 -18.3842 2650 
276 1 0.00639526 0.00175087 -0.0143183 0.000291 0.0225313 -0.00352277 0.00767648 2650 
54 1 0.0109452 0.0327094 -0.0126026 0.000291 -0.0306405 -0.00128986 -0.0366903 2650 
153 1 0.0085617 0.00422656 -0.0111399 0.00164 0.00688556 -0.00248427 -0.020361 2650 
279 1 0.00465296 0.0135242 -0.00862046 0.001058 -0.00655734 0.00883723 -0.00295144 2650 
77 1 0.0116591 0.0119307 -0.00825687 0.000291 -0.019582 -0.00741499 -0.0133594 2650 
292 1 0.0128153 0.0255416 -0.00936326 0.001058 -0.0249092 0.0104633 -0.0123747 2650 
87 1 0.013517 0.0298295 -0.00963409 0.000291 -0.034594 0.0105252 -0.0464502 2650 
212 1 0.000599299 0.00104003 -0.00613027 0.000291 -0.000536105 -0.00385845 -0.0132408 2650 
161 1 0.0103951 0.00286708 -0.00771644 0.00164 -7.93358e-05 -0.00093771 -0.00106179 2650 
258 1 0.0144762 0.0060371 -0.00635762 0.001058 -0.0146191 0.0159202 -0.0482768 2650 
195 1 0.0124186 0.0127435 -0.00723046 0.001058 -0.0132264 0.00906577 -0.0176249 2650 
92 1 0.00733656 0.011318 -0.00440215 0.001058 -0.00319297 0.00820736 -7.57342e-07 2650 
194 1 0.0151776 0.0106413 -0.00456254 0.001058 -0.0150749 0.0203877 -0.0353057 2650 
284 1 0.0161454 0.0220717 -0.00357919 0.000291 0.117197 0.0972293 0.473664 2650 
57 1 0.00564945 0.0265976 -0.00362825 0.00164 -0.000944415 0.00612769 -0.0239867 2650 
249 1 0.0050249 0.0337636 -0.00210569 0.000291 0.00967839 0.0183331 -0.0129307 2650 
79 1 0.00963662 0.00406714 -0.000750462 0.000291 -0.0098558 -0.00054128 -0.00920898 2650 
287 1 0.0158602 0.00719943 0.000298212 0.001058 0.0100732 0.0888486 -0.197307 2650 
261 1 0.000203725 0.0511244 0.00171513 0.000291 -0.0331787 0.0880567 -0.0379557 2650 
47 1 0.0153239 0.000815089 0.00324917 0.000291 0.0483825 -0.0206912 0.00775174 2650 
100 1 0.0112627 0.00779984 0.00256647 0.001058 -0.00743452 0.0179258 -0.00017026 2650 
74 1 0.00301317 0.0112964 0.003044 0.001058 0.0121094 0.00774007 0.0105312 2650 
156 1 0.0124416 0.0118 0.0027626 0.001058 0.00972231 -0.000191895 -0.0100171 2650 
271 1 0.00425616 0.000259486 0.00483946 0.001058 -0.0143022 -0.00514114 -0.00504971 2650 
130 1 0.0149693 0.00103156 0.00476807 0.001058 -0.00808664 0.0023794 0.0155566 2650 
298 1 0.0152788 0.00282336 0.00514858 0.000105 0.00504241 -0.00484656 -0.0145413 2650 
199 1 0.0132981 0.0106826 0.00561934 0.000291 -0.00284998 0.142463 -0.0862257 2650 
286 1 0.0141985 0.0169994 0.00430683 0.001058 -0.00338656 0.0414287 0.00321694 2650 
124 1 0.0149732 0.055117 0.00508183 0.001058 -0.0669838 0.0696018 0.154115 2650 
250 1 0.00198676 0.0606137 0.00520478 0.001058 -0.0207209 0.0499207 0.0196622 2650 
201 1 0.0135194 0.000223977 0.00706028 0.00164 -0.011245 0.000493898 0.0131207 2650 
145 1 0.0100008 0.00471588 0.0067601 0.00164 -0.00532232 0.00423563 -0.00576845 2650 
106 1 0.00396207 0.0587485 0.00750739 0.001058 0.0168325 0.0449922 -0.00167347 2650 
139 1 0.0104109 0.0243216 0.00982735 0.001058 -0.0136668 0.00686955 0.0124231 2650 
203 1 0.00655365 0.0415007 0.00851743 0.001058 -0.0259184 0.0342383 0.00359995 2650 
9 1 0.0048285 0.0443935 0.00995177 0.00164 -0.0171223 0.0604307 0.00649366 2650 
95 1 0.013067 0.00499043 0.0100898 0.000291 0.037787 0.0211165 -0.04418 2650 
66 1 0.0104095 0.0100098 0.0119279 0.001058 0.000417165 0.000469974 -0.00376546 2650 
238 1 0.00747272 0.0432348 0.0115373 0.001058 -0.0120908 0.0456875 -0.00995371 2650 
222 1 0.00251903 0.00462544 0.0139367 0.001058 -0.030215 0.0188938 -0.00627839 2650 
112 1 0.00845706 0.00429234 0.013122 0.000105 -0.0109427 -0.000159124 0.00547551 2650 
41 1 0.00238077 0.0205242 0.0148028 0.00164 0.00675228 0.00472229 -0.0112217 2650 
256 1 0.0060019 0.0293557 0.0155527 0.000291 -0.182554 -0.000826462 0.0450973 2650 
245 1 0.00848099 0.0925538 -0.0109466 0.001058 0.0132501 0.0534812 -0.0221989 2650 
