ITEM: TIMESTEP
15925904
ITEM: NUMBER OF ATOMS
114
ITEM: BOX BOUNDS ff ff ff
-0.15 0.15
-0.15 0.15
-0.15 0.15
ITEM: ATOMS id type x y z radius vx vy vz density 
135 1 -0.00150888 -0.000189161 -0.0163173 0.000291 0.00169601 -0.000325767 0.00663364 2650 
78 1 -0.0020654 -0.00102189 -0.0148031 0.000291 -0.00533626 -0.0103826 -0.00367069 2650 
94 1 -0.0115184 -0.00136643 -0.0118174 0.000291 8.54657e-05 -0.0117335 8.54657e-05 2650 
1 1 -0.0671383 -0.00275655 -0.00590454 0.00164 -0.648216 0.207271 7.36159 2650 
227 1 -0.0685944 -0.0442735 0.00426616 0.000291 8.3137 -18.5719 132.55 2650 
159 1 -0.012707 -0.00127748 -0.00588 0.000291 0 -0.01175 0 2650 
67 1 -0.00506734 -0.000738262 -0.00412509 0.001058 -0.0251403 -0.00934789 0.00339681 2650 
244 1 -0.0681391 -0.0129723 0.00353781 0.001058 -10.0498 -17.8748 68.5379 2650 
61 1 -0.016439 -0.00155948 -0.001038 0.000291 0 -0.01175 0 2650 
268 1 -0.011054 -0.00269748 0.000789 0.000291 0 -0.01175 0 2650 
129 1 -0.008524 -0.00312741 0.00225714 0.00164 0.000219449 -0.0120332 0.000405385 2650 
291 1 -0.008194 -0.00117248 0.004767 0.000291 0 -0.01175 0 2650 
186 1 -0.006177 -0.00323048 0.006545 0.001058 0 -0.01175 0 2650 
19 1 -0.00282682 -0.00298573 0.00688737 0.001058 -0.124828 -0.0209476 0.0118944 2650 
164 1 -0.066123 -0.0566579 0.0158302 0.001058 11.8285 7.55169 49.3878 2650 
108 1 -0.0120042 -0.0113505 0.0669071 0.001058 54.9394 4.18755 9.85046 2650 
75 1 -0.00420861 0.0682609 -0.0678115 0.001058 -0.0185577 -0.156445 0.00115176 2650 
260 1 -0.000417152 0.00340158 -0.0142067 0.000291 -0.0120055 0.0019441 0.00651081 2650 
104 1 -0.0091008 0.00243142 -0.0122889 0.000105 0.011981 -0.00157217 -0.0109702 2650 
115 1 -0.0106181 0.00691223 -0.0111236 0.001058 0.012171 -0.0146173 0.0016615 2650 
33 1 -0.00269677 0.000527402 -0.00800115 0.00164 0.0013962 -0.00701225 0.00592525 2650 
113 1 -0.00838137 0.00872041 -0.00936887 0.00164 0.00941407 0.0202967 0.0118449 2650 
59 1 -0.00340519 0.0351518 -0.00856024 0.001058 -0.0076843 0.032464 0.0248311 2650 
71 1 -0.00268718 0.00349341 -0.00682202 0.000291 -0.00101545 -0.00618567 -0.020495 2650 
80 1 -0.0051426 0.00401152 -0.0075862 0.000105 0.0130288 -0.0027678 -0.00975077 2650 
97 1 -0.00944869 0.00124936 -0.00431109 0.00164 0.00587724 -0.00270027 -0.00409197 2650 
263 1 -0.0136429 0.00620618 -0.00520892 0.000291 0.0144724 0.0136007 0.0456324 2650 
234 1 -0.0120705 0.00870756 -0.00504773 0.000291 -0.000530972 0.00319134 0.0114593 2650 
7 1 -0.00405084 0.0280448 -0.00319852 0.000291 0.00379351 0.0136266 -0.000190797 2650 
99 1 -0.00412685 0.0158804 -0.00123964 0.001058 0.0112842 0.0140299 -0.00166045 2650 
273 1 -0.0157636 0.0451306 -0.000182281 0.001058 -0.0284971 -0.0387671 0.672877 2650 
209 1 -0.00234211 0.0105235 0.000525498 0.001058 0.0134316 0.00655067 0.00545932 2650 
187 1 -0.0127574 0.0216455 0.00349998 0.001058 0.00220575 0.0137802 0.0133562 2650 
85 1 -0.016245 0.0244859 0.0023487 0.000291 -0.00661201 0.0485382 0.077306 2650 
4 1 -0.0142883 0.00538156 0.00575017 0.001058 -0.000962198 -0.00289426 -0.00306323 2650 
220 1 -0.0155346 0.0260126 0.00589668 0.000291 -0.00515653 0.0136107 0.0128916 2650 
242 1 -0.0141658 0.0166301 0.00668483 0.000291 -0.0086111 0.00654042 0.00262129 2650 
68 1 -0.00158022 0.00715597 0.00891113 0.001058 0.0027366 -0.00341554 -0.0016946 2650 
304 1 -0.00961453 0.0111517 0.00859829 0.000291 0.00483691 0.00442522 -0.0020989 2650 
300 1 -0.0106932 1.6784e-05 0.0114388 0.001058 0.00506621 -0.000103925 0.00433634 2650 
170 1 -0.0067228 0.000496739 0.010821 0.001058 0.0120343 0.00223595 0.00751203 2650 
224 1 -0.00885026 0.0149676 0.0117866 0.001058 -0.00136791 0.00490756 -0.00324686 2650 
144 1 -0.0056579 0.0216262 0.0136529 0.000105 0.00862261 0.0155448 0.0270904 2650 
55 1 -0.00718832 0.0143275 0.0146832 0.000291 0.00439797 0.00637099 0.00132786 2650 
266 1 -0.00373263 0.0151965 0.0149184 0.001058 0.0115643 0.0112563 0.00452569 2650 
176 1 0.0131004 -0.0613346 -0.0676382 0.000105 -72.3835 -3.25 -14.0191 2650 
81 1 0.00346069 -0.0510158 -0.0673611 0.00164 -62.0966 8.72917 -3.18709 2650 
252 1 0.0014271 -0.0173005 -0.067927 0.001058 -0.0287901 -0.466838 -0.000605939 2650 
278 1 0.0364098 -0.0302902 -0.0574543 0.001058 -66.386 -3.42085 -42.8419 2650 
48 1 0.00471217 -0.0108536 -0.0479726 0.000105 -6.55514 -7.26804 5.65942 2650 
37 1 0.006156 -0.00185948 -0.015157 0.000291 0 -0.01175 0 2650 
269 1 0.00465727 -0.00223813 -0.0124647 0.000291 -0.00749531 -0.00226906 0.00353502 2650 
210 1 0.00764561 -0.00260749 -0.0130497 0.001058 -0.0432544 -0.0029717 -0.00730567 2650 
190 1 0.00699238 -0.00170515 -0.00320587 0.000291 0.00500936 -0.00921948 -0.0122412 2650 
160 1 0.0159014 -0.00126459 -0.00339093 0.000105 0.0189834 0.00069911 0.018679 2650 
202 1 0.00683174 -0.00150014 -0.00137233 0.001058 0.00631943 -0.00744818 -0.0096127 2650 
208 1 0.0139347 -0.0006455 0.00685074 0.001058 -0.00892627 -0.00353222 0.0157348 2650 
82 1 0.00207675 -0.00284338 0.0127296 0.001058 -0.00376702 -0.00667189 -0.00778752 2650 
299 1 0.000977252 -0.00273148 0.0157493 0.001058 0.0138235 -0.00992905 -0.00360137 2650 
287 1 0.00309526 -0.00229413 0.0153003 0.001058 -0.0219367 -0.0125578 0.00527135 2650 
177 1 0.0638641 -0.00799213 0.0215204 0.00164 2.12444 -0.931779 -6.29541 2650 
231 1 0.0272488 -0.0543284 0.0622812 0.001058 53.9433 12.0427 -23.5994 2650 
294 1 0.0118612 -0.0088926 0.0669436 0.001058 64.9037 1.33307 -11.4927 2650 
13 1 0.000733882 -0.0195852 0.0687136 0.000291 105.792 2.49832 -1.1297 2650 
276 1 0.00256497 0.00234974 -0.0156233 0.000291 0.0225313 -0.00352277 0.00767648 2650 
124 1 0.000536108 0.0388638 -0.0158123 0.001058 0.183033 0.128763 -0.00790842 2650 
105 1 0.000481411 0.00116692 -0.0136049 0.00164 -0.00380999 -0.0064552 -0.00344187 2650 
134 1 0.000710096 0.00626557 -0.0120161 0.000291 -0.0118829 0.00375813 -0.00608975 2650 
77 1 0.0128977 0.0119717 -0.0102618 0.000291 -0.00528679 0.000925745 0.0158841 2650 
256 1 0.0118646 0.0253527 -0.0117318 0.000291 0.131229 0.0426193 0.151367 2650 
127 1 0.0116357 0.0640169 -0.0102899 0.000291 0.0287766 0.0561217 0.00113528 2650 
279 1 0.00576771 0.0120219 -0.00811872 0.001058 -0.00655734 0.00883723 -0.00295144 2650 
161 1 0.0105656 0.00294102 -0.00747911 0.00164 -0.00289702 0.000596184 -0.0020817 2650 
153 1 0.00723416 0.00473435 -0.0077354 0.00164 0.00970325 -0.00401816 -0.0193411 2650 
92 1 0.00787937 0.00992278 -0.00440202 0.001058 -0.00319297 0.00820736 -7.57342e-07 2650 
195 1 0.0147106 0.0112277 -0.00414527 0.001058 -0.0135239 0.00889222 -0.0182334 2650 
54 1 0.015166 0.0329047 -0.00576717 0.000291 -0.0134846 -0.000873254 -0.0470759 2650 
212 1 0.000690436 0.00169596 -0.00387934 0.000291 -0.000536105 -0.00385845 -0.0132408 2650 
292 1 0.0105477 0.0229874 -0.00383995 0.001058 0.0152425 0.0152519 -0.0334915 2650 
51 1 0.00168335 0.00174903 -0.000487088 0.001058 -0.0934969 0.0378063 -0.086588 2650 
87 1 0.0165581 0.0281864 -0.000414214 0.000291 0.00224233 0.0106885 -0.0577375 2650 
130 1 0.0158023 0.000811681 0.00111504 0.001058 -0.00525903 -0.000106491 0.0274758 2650 
47 1 0.00709897 0.00433258 0.00193138 0.000291 0.0483825 -0.0206912 0.00775174 2650 
79 1 0.0113121 0.00415915 0.000815055 0.000291 -0.0098558 -0.00054128 -0.00920898 2650 
74 1 0.000954596 0.00998055 0.00125371 0.001058 0.0121094 0.00774007 0.0105312 2650 
57 1 0.00581 0.0255559 0.000449456 0.00164 -0.000944415 0.00612769 -0.0239867 2650 
249 1 0.00337958 0.030647 9.25157e-05 0.000291 0.00967839 0.0183331 -0.0129307 2650 
250 1 0.00550928 0.0521272 0.00186223 0.001058 -0.0207209 0.0499207 0.0196622 2650 
258 1 0.0145051 0.00324189 0.00247983 0.001058 0.0128857 0.0169145 -0.0553362 2650 
100 1 0.0125266 0.00475248 0.00259541 0.001058 -0.00743452 0.0179258 -0.00017026 2650 
194 1 0.015656 0.0070319 0.00226702 0.001058 0.0128834 0.0220552 -0.0414054 2650 
286 1 0.0147742 0.00995653 0.00375996 0.001058 -0.00338656 0.0414287 0.00321694 2650 
240 1 0.0164402 0.0446292 0.00233015 0.000291 0.0292084 -0.021493 -0.689301 2650 
271 1 0.00668752 0.00113347 0.00569791 0.001058 -0.0143022 -0.00514114 -0.00504971 2650 
201 1 0.0144172 8.71869e-05 0.00418706 0.00164 -0.00419331 0.00116769 0.0159595 2650 
156 1 0.0107888 0.0118326 0.0044655 0.001058 0.00972231 -0.000191895 -0.0100171 2650 
199 1 0.0148671 0.00199608 0.00733445 0.000291 -0.00882111 0.0112233 0.0267114 2650 
298 1 0.0144216 0.00364727 0.00762057 0.000105 0.00504241 -0.00484656 -0.0145413 2650 
145 1 0.0109056 0.00399582 0.00774073 0.00164 -0.00532232 0.00423563 -0.00576845 2650 
139 1 0.0127342 0.0231538 0.00771543 0.001058 -0.0136668 0.00686955 0.0124231 2650 
203 1 0.0109597 0.0356802 0.00790545 0.001058 -0.0259184 0.0342383 0.00359995 2650 
106 1 0.00110056 0.0510999 0.00779187 0.001058 0.0168325 0.0449922 -0.00167347 2650 
9 1 0.00773926 0.0341204 0.00884786 0.00164 -0.0171223 0.0604307 0.00649366 2650 
261 1 0.00584406 0.0361549 0.00816756 0.000291 -0.0331787 0.0880567 -0.0379557 2650 
66 1 0.00947517 0.00983607 0.0118729 0.001058 0.00619263 0.00109789 0.000884431 2650 
284 1 0.0128862 0.024214 0.0104843 0.000291 -0.340126 -0.123451 0.457082 2650 
222 1 0.00691408 0.00117135 0.0121731 0.001058 -0.0156318 0.0235091 0.0469214 2650 
112 1 0.0103173 0.00431939 0.0121912 0.000105 -0.0109427 -0.000159124 0.00547551 2650 
41 1 0.000751534 0.0191108 0.0121374 0.00164 0.0101493 0.00903205 0.0210511 2650 
238 1 0.00897727 0.0353062 0.012267 0.001058 0.0102303 0.05224 0.0290441 2650 
204 1 0.00154394 0.000440906 0.0146724 0.001058 -0.0166233 0.00491542 0.00355489 2650 
95 1 0.00713185 0.00228586 0.0149418 0.000291 -0.000739003 -0.00244661 -0.000892357 2650 
175 1 0.0130164 0.0555616 0.0674648 0.000291 0.00552826 -0.212667 -0.000823479 2650 
245 1 0.00622848 0.083462 -0.00717277 0.001058 0.0132501 0.0534812 -0.0221989 2650 
