LIGGGHTS (Version LIGGGHTS-PUBLIC 3.8.0, compiled 2022-11-07-16:55:38 by serperd1, git commit 86544c3f1215bc9744d7929e3eacf53ba086af9e)
units si #
dimension 3 #
newton off #
boundary f f f #
atom_style sphere #
pair_style gran model hertz tangential history #
communicate single vel yes #
region outer_basket cylinder y 0 0 0.15 -0.15 0.15 #
create_box 3 outer_basket #
Created orthogonal box = (-0.15 -0.15 -0.15) to (0.15 0.15 0.15)
  2 by 4 by 5 MPI processor grid
variable my_omega equal 157.0796 #
fix cone_mesh all mesh/surface file cone.stl type 3 scale 1 #
fix rotating_wall_1 all move/mesh mesh cone_mesh rotate/variable origin 0 0 0 axis 0 1 0 omega v_my_omega #
fix filter_mesh_walls all wall/gran model hertz tangential history primitive type 2 ycylinder_filtermesh 0.069 0 0 2 8 -0.0628 0 0.030096 0.017438 0.080096 0.067438 shear x 10.8385 #

fix inlet_cyl_wall_mesh all mesh/surface file in_cyl.stl type 3 scale 1 #
fix top_cyl_wall_mesh all mesh/surface file top_cyl.stl type 3 scale 1 #
fix rotating_wall_4 all move/mesh mesh top_cyl_wall_mesh rotate/variable origin 0 0 0 axis 0 1 0 omega v_my_omega #
fix bot_cyl_wall_mesh all mesh/surface file bot_cyl.stl type 3 scale 1 #
fix rotating_wall_5 all move/mesh mesh bot_cyl_wall_mesh rotate/variable origin 0 0 0 axis 0 1 0 omega v_my_omega #
fix bot_disk_wall_mesh all mesh/surface file bottom_disk.stl type 3 scale 1 #
fix rotating_wall_6 all move/mesh mesh bot_disk_wall_mesh rotate/variable origin 0 0 0 axis 0 1 0 omega v_my_omega #
fix top_disk_wall_mesh all mesh/surface file top_disk.stl type 3 scale 1 #
fix rotating_wall_7 all move/mesh mesh top_disk_wall_mesh rotate/variable origin 0 0 0 axis 0 1 0 omega v_my_omega #
fix GMSH_mesh_walls all wall/gran model hertz tangential history mesh n_meshes 6 meshes cone_mesh top_cyl_wall_mesh bot_cyl_wall_mesh bot_disk_wall_mesh inlet_cyl_wall_mesh top_disk_wall_mesh #
fix Young_mod all property/global youngsModulus peratomtype 375000000 46000000 1000000000 #
fix Poisson_rat all property/global poissonsRatio peratomtype 0.32 0.42 0.29 #
fix Coeff_rest all property/global coefficientRestitution peratomtypepair 3 0.15 0.32 0.475 0.32 0.49 0.645 0.475 0.645 0.8 #
fix Coeff_fric all property/global coefficientFriction peratomtypepair 3 0.04 0.145 0.12 0.145 0.25 0.225 0.12 0.225 0.2 #

neighbor 0.0006561 bin #
neigh_modify delay 0 one 100000 page 5000000 #
fix r_0to10p all particletemplate/sphere 12345787 atom_type 1 density constant 2650 radius constant 0.000105 #
fix r_10to50p all particletemplate/sphere 15485863 atom_type 1 density constant 2650 radius constant 0.000291 #
fix r_50to90p all particletemplate/sphere 15485867 atom_type 1 density constant 2650 radius constant 0.0010582 #
fix r_90to100p all particletemplate/sphere 32452843 atom_type 1 density constant 2650 radius constant 0.0016402 #
fix prob_par all particledistribution/discrete 32452867 4 r_0to10p 0.1 r_10to50p 0.4 r_50to90p 0.4 r_90to100p 0.1 #
pair_coeff * * #
timestep 8.1e-08 #

fix nve_group all nve/sphere #
fix grav_fix all gravity 6.1081 vector 0.017 -0.0033 0 -1 0 #
fix cent_fix all centrifugal 157.0796 0.017 -0.0033 0.069 #

variable step equal step #
variable mycount equal count(all) #
fix print_amount_of_atoms all print 25 "${step} ${mycount}" file numatoms.txt screen no #
run 0 #
Setting up run at Thu Nov 24 06:05:28 2022

Memory usage per processor = 954.231 Mbytes
    Step    Atoms         KinEng            CPU 
       0        0              0              0 
Loop time of 4.85257e-05 on 40 procs for 0 steps with 0 atoms, finish time Thu Nov 24 06:05:28 2022


Pair  time (%) = 0 (0)
Neigh time (%) = 0 (0)
Comm  time (%) = 0 (0)
Outpt time (%) = 0 (0)
Other time (%) = 4.85257e-05 (100)

Nlocal:    0 ave 0 max 0 min
Histogram: 40 0 0 0 0 0 0 0 0 0
Nghost:    0 ave 0 max 0 min
Histogram: 40 0 0 0 0 0 0 0 0 0
Neighs:    0 ave 0 max 0 min
Histogram: 40 0 0 0 0 0 0 0 0 0

Total # of neighbors = 0
Neighbor list builds = 0
Dangerous builds = 0
run 1 #
Setting up run at Thu Nov 24 06:05:28 2022

Memory usage per processor = 954.231 Mbytes
    Step    Atoms         KinEng            CPU 
       0        0              0              0 
       1        0              0    0.009679126 
Loop time of 0.00969116 on 40 procs for 1 steps with 0 atoms, finish time Thu Nov 24 06:05:28 2022


Pair  time (%) = 2.2316e-06 (0.0230272)
Neigh time (%) = 0 (0)
Comm  time (%) = 0.00018712 (1.93083)
Outpt time (%) = 0.000128822 (1.32927)
Other time (%) = 0.00937299 (96.7169)

Nlocal:    0 ave 0 max 0 min
Histogram: 40 0 0 0 0 0 0 0 0 0
Nghost:    0 ave 0 max 0 min
Histogram: 40 0 0 0 0 0 0 0 0 0
Neighs:    0 ave 0 max 0 min
Histogram: 40 0 0 0 0 0 0 0 0 0

Total # of neighbors = 0
Neighbor list builds = 0
Dangerous builds = 0
read_dump dump.atom_info_1 1 x y z radius vx vy vz box no add yes replace no #
  orthogonal box = (-0.15 -0.15 -0.15) to (0.15 0.15 0.15)
  0 atoms before read
  305 atoms in snapshot
  0 atoms purged
  0 atoms replaced
  0 atoms trimmed
  305 atoms added
  305 atoms after read
set atom * type 1 density 2650 vy -0.01175 #
  305 settings made for type
  305 settings made for density
  305 settings made for vy
run 1 #
Setting up run at Thu Nov 24 06:05:29 2022

Memory usage per processor = 958.583 Mbytes
    Step    Atoms         KinEng            CPU 
       1      305  2.0462467e-07              0 
       2      305  2.4125357e-07    0.009161887 
Loop time of 0.0091758 on 40 procs for 1 steps with 305 atoms, finish time Thu Nov 24 06:05:29 2022


Pair  time (%) = 2.34628e-06 (0.0255703)
Neigh time (%) = 0 (0)
Comm  time (%) = 4.47375e-06 (0.048756)
Outpt time (%) = 0.000170141 (1.85423)
Other time (%) = 0.00899883 (98.0714)

Nlocal:    7.625 ave 134 max 0 min
Histogram: 36 2 0 0 0 0 0 0 0 2
Nghost:    5.125 ave 59 max 0 min
Histogram: 36 0 0 0 0 0 0 2 0 2
Neighs:    2.375 ave 54 max 0 min
Histogram: 37 1 0 0 0 1 0 0 0 1

Total # of neighbors = 95
Ave neighs/atom = 0.311475
Neighbor list builds = 0
Dangerous builds = 0
write_dump all custom dump.atom_info_ac_* id type x y z radius vx vy vz density #
run 123456
Setting up run at Thu Nov 24 06:05:29 2022

Memory usage per processor = 958.583 Mbytes
    Step    Atoms         KinEng            CPU 
       2      305  2.4125357e-07              0 
  123458      305  6.0816412e-05       1158.723 
Loop time of 1158.72 on 40 procs for 123456 steps with 305 atoms, finish time Thu Nov 24 06:24:47 2022


Pair  time (%) = 0.248407 (0.021438)
Neigh time (%) = 0.0570362 (0.00492233)
Comm  time (%) = 0.422644 (0.036475)
Outpt time (%) = 0.000230661 (1.99065e-05)
Other time (%) = 1157.99 (99.9371)

Nlocal:    7.625 ave 136 max 0 min
Histogram: 36 2 0 0 0 0 0 0 1 1
Nghost:    5.15 ave 59 max 0 min
Histogram: 36 0 0 0 0 0 0 2 0 2
Neighs:    2.5 ave 57 max 0 min
Histogram: 36 2 0 0 1 0 0 0 0 1

Total # of neighbors = 100
Ave neighs/atom = 0.327869
Neighbor list builds = 330
Dangerous builds = 0
write_dump all custom dump.atom_info_ac_* id type x y z radius vx vy vz density #
run 123456
Setting up run at Thu Nov 24 06:24:47 2022

Memory usage per processor = 958.583 Mbytes
    Step    Atoms         KinEng            CPU 
  123458      305  6.0816412e-05              0 
  246914      305  4.3842796e-05      1159.5696 
Loop time of 1159.57 on 40 procs for 123456 steps with 305 atoms, finish time Thu Nov 24 06:44:07 2022


Pair  time (%) = 0.249455 (0.0215127)
Neigh time (%) = 0.0580531 (0.00500644)
Comm  time (%) = 0.392173 (0.0338205)
Outpt time (%) = 0.000240753 (2.07623e-05)
Other time (%) = 1158.87 (99.9396)

Nlocal:    7.625 ave 138 max 0 min
Histogram: 36 2 0 0 0 0 0 0 1 1
Nghost:    5.125 ave 56 max 0 min
Histogram: 36 0 0 0 0 0 0 0 2 2
Neighs:    2.475 ave 57 max 0 min
Histogram: 36 2 0 0 1 0 0 0 0 1

Total # of neighbors = 99
Ave neighs/atom = 0.32459
Neighbor list builds = 330
Dangerous builds = 0
write_dump all custom dump.atom_info_ac_* id type x y z radius vx vy vz density #
run 123456
Setting up run at Thu Nov 24 06:44:07 2022

Memory usage per processor = 958.583 Mbytes
    Step    Atoms         KinEng            CPU 
  246914      305  4.3842796e-05              0 
  370370      305  0.00038250452      1158.9488 
Loop time of 1158.95 on 40 procs for 123456 steps with 305 atoms, finish time Thu Nov 24 07:03:26 2022


Pair  time (%) = 0.247922 (0.0213919)
Neigh time (%) = 0.0578196 (0.00498897)
Comm  time (%) = 0.401353 (0.0346308)
Outpt time (%) = 0.000227273 (1.96103e-05)
Other time (%) = 1158.24 (99.939)

Nlocal:    7.625 ave 134 max 0 min
Histogram: 36 0 2 0 0 0 0 0 1 1
Nghost:    5.025 ave 61 max 0 min
Histogram: 36 0 0 0 0 0 0 2 1 1
Neighs:    2.475 ave 57 max 0 min
Histogram: 36 2 0 0 1 0 0 0 0 1

Total # of neighbors = 99
Ave neighs/atom = 0.32459
Neighbor list builds = 330
Dangerous builds = 0
write_dump all custom dump.atom_info_ac_* id type x y z radius vx vy vz density #
run 123456
Setting up run at Thu Nov 24 07:03:26 2022

Memory usage per processor = 958.583 Mbytes
    Step    Atoms         KinEng            CPU 
  370370      305  0.00038250452              0 
  493826      305   0.0002185812      1156.8271 
Loop time of 1156.83 on 40 procs for 123456 steps with 305 atoms, finish time Thu Nov 24 07:22:43 2022


Pair  time (%) = 0.248902 (0.0215159)
Neigh time (%) = 0.0578254 (0.00499862)
Comm  time (%) = 0.407868 (0.0352574)
Outpt time (%) = 0.000573583 (4.95824e-05)
Other time (%) = 1156.11 (99.9382)

Nlocal:    7.625 ave 134 max 0 min
Histogram: 36 0 2 0 0 0 0 0 1 1
Nghost:    5.025 ave 59 max 0 min
Histogram: 36 0 0 0 0 0 0 2 0 2
Neighs:    2.425 ave 54 max 0 min
Histogram: 36 1 1 0 1 0 0 0 0 1

Total # of neighbors = 97
Ave neighs/atom = 0.318033
Neighbor list builds = 330
Dangerous builds = 0
write_dump all custom dump.atom_info_ac_* id type x y z radius vx vy vz density #
run 123456
Setting up run at Thu Nov 24 07:22:43 2022

Memory usage per processor = 958.583 Mbytes
    Step    Atoms         KinEng            CPU 
  493826      305   0.0002185812              0 
  617282      305     0.39405918      1165.0986 
Loop time of 1165.1 on 40 procs for 123456 steps with 305 atoms, finish time Thu Nov 24 07:42:08 2022


Pair  time (%) = 0.257178 (0.0220735)
Neigh time (%) = 0.610626 (0.0524098)
Comm  time (%) = 1.25384 (0.107617)
Outpt time (%) = 0.000307712 (2.64108e-05)
Other time (%) = 1162.98 (99.8179)

Nlocal:    7.625 ave 134 max 0 min
Histogram: 36 0 2 0 0 0 0 1 0 1
Nghost:    4.95 ave 59 max 0 min
Histogram: 36 0 0 0 0 0 1 1 0 2
Neighs:    2.5 ave 55 max 0 min
Histogram: 36 1 1 0 1 0 0 0 0 1

Total # of neighbors = 100
Ave neighs/atom = 0.327869
Neighbor list builds = 3553
Dangerous builds = 0
write_dump all custom dump.atom_info_ac_* id type x y z radius vx vy vz density #
run 123456
Setting up run at Thu Nov 24 07:42:08 2022

Memory usage per processor = 958.583 Mbytes
    Step    Atoms         KinEng            CPU 
  617282      305     0.39405918              0 
  740738      303    0.074254817      1186.8247 
Loop time of 1186.83 on 40 procs for 123456 steps with 303 atoms, finish time Thu Nov 24 08:01:55 2022


Pair  time (%) = 0.261726 (0.0220526)
Neigh time (%) = 1.06191 (0.0894745)
Comm  time (%) = 2.16287 (0.18224)
Outpt time (%) = 0.000230957 (1.94601e-05)
Other time (%) = 1183.34 (99.7062)

Nlocal:    7.575 ave 133 max 0 min
Histogram: 36 0 2 0 0 0 0 1 0 1
Nghost:    5.025 ave 58 max 0 min
Histogram: 36 0 0 0 0 0 1 1 0 2
Neighs:    2.4 ave 54 max 0 min
Histogram: 36 1 1 0 1 0 0 0 0 1

Total # of neighbors = 96
Ave neighs/atom = 0.316832
Neighbor list builds = 6175
Dangerous builds = 1
write_dump all custom dump.atom_info_ac_* id type x y z radius vx vy vz density #
run 123456
Setting up run at Thu Nov 24 08:01:55 2022

Memory usage per processor = 958.583 Mbytes
    Step    Atoms         KinEng            CPU 
  740738      303    0.074254817              0 
  864194      302       0.371768      1179.3803 
Loop time of 1179.38 on 40 procs for 123456 steps with 302 atoms, finish time Thu Nov 24 08:21:34 2022


Pair  time (%) = 0.258633 (0.0219296)
Neigh time (%) = 0.730666 (0.0619534)
Comm  time (%) = 1.42964 (0.12122)
Outpt time (%) = 0.000526731 (4.46617e-05)
Other time (%) = 1176.96 (99.7949)

Nlocal:    7.55 ave 131 max 0 min
Histogram: 36 1 1 0 0 0 0 1 0 1
Nghost:    5.25 ave 60 max 0 min
Histogram: 36 0 0 0 0 0 1 0 1 2
Neighs:    2.4 ave 54 max 0 min
Histogram: 36 1 1 1 0 0 0 0 0 1

Total # of neighbors = 96
Ave neighs/atom = 0.317881
Neighbor list builds = 4169
Dangerous builds = 0
write_dump all custom dump.atom_info_ac_* id type x y z radius vx vy vz density #
run 123456
Setting up run at Thu Nov 24 08:21:34 2022

Memory usage per processor = 958.583 Mbytes
    Step    Atoms         KinEng            CPU 
  864194      302       0.371768              0 
  987650      299    0.099084135      1168.3805 
Loop time of 1168.38 on 40 procs for 123456 steps with 299 atoms, finish time Thu Nov 24 08:41:03 2022


Pair  time (%) = 0.256067 (0.0219164)
Neigh time (%) = 0.692306 (0.0592535)
Comm  time (%) = 1.43566 (0.122876)
Outpt time (%) = 0.000109768 (9.39485e-06)
Other time (%) = 1166 (99.7959)

Nlocal:    7.475 ave 132 max 0 min
Histogram: 36 1 1 0 0 0 0 1 0 1
Nghost:    5.325 ave 61 max 0 min
Histogram: 36 0 0 0 0 0 1 0 1 2
Neighs:    2.375 ave 56 max 0 min
Histogram: 36 2 0 1 0 0 0 0 0 1

Total # of neighbors = 95
Ave neighs/atom = 0.317726
Neighbor list builds = 4003
Dangerous builds = 1
write_dump all custom dump.atom_info_ac_* id type x y z radius vx vy vz density #
run 123456
Setting up run at Thu Nov 24 08:41:03 2022

Memory usage per processor = 958.583 Mbytes
    Step    Atoms         KinEng            CPU 
  987650      299    0.099084135              0 
 1111106      299    0.099632354      1172.4442 
Loop time of 1172.44 on 40 procs for 123456 steps with 299 atoms, finish time Thu Nov 24 09:00:35 2022


Pair  time (%) = 0.254189 (0.0216802)
Neigh time (%) = 0.60741 (0.0518072)
Comm  time (%) = 1.24018 (0.105777)
Outpt time (%) = 0.000255904 (2.18265e-05)
Other time (%) = 1170.34 (99.8207)

Nlocal:    7.475 ave 129 max 0 min
Histogram: 36 0 2 0 0 0 0 1 0 1
Nghost:    5.4 ave 59 max 0 min
Histogram: 36 0 0 0 0 0 0 1 0 3
Neighs:    2.4 ave 57 max 0 min
Histogram: 36 2 0 1 0 0 0 0 0 1

Total # of neighbors = 96
Ave neighs/atom = 0.32107
Neighbor list builds = 3470
Dangerous builds = 0
write_dump all custom dump.atom_info_ac_* id type x y z radius vx vy vz density #
run 123456
Setting up run at Thu Nov 24 09:00:35 2022

Memory usage per processor = 958.583 Mbytes
    Step    Atoms         KinEng            CPU 
 1111106      299    0.099632354              0 
 1234562      299    0.091234854      1170.0946 
Loop time of 1170.1 on 40 procs for 123456 steps with 299 atoms, finish time Thu Nov 24 09:20:06 2022


Pair  time (%) = 0.254149 (0.0217204)
Neigh time (%) = 0.5468 (0.0467312)
Comm  time (%) = 1.72616 (0.147523)
Outpt time (%) = 0.000252953 (2.16182e-05)
Other time (%) = 1167.57 (99.784)

Nlocal:    7.475 ave 128 max 0 min
Histogram: 36 1 1 0 0 0 0 0 1 1
Nghost:    5.35 ave 56 max 0 min
Histogram: 36 0 0 0 0 0 0 0 1 3
Neighs:    2.425 ave 58 max 0 min
Histogram: 36 2 0 1 0 0 0 0 0 1

Total # of neighbors = 97
Ave neighs/atom = 0.324415
Neighbor list builds = 3133
Dangerous builds = 0
write_dump all custom dump.atom_info_ac_* id type x y z radius vx vy vz density #
run 123456
Setting up run at Thu Nov 24 09:20:06 2022

Memory usage per processor = 958.583 Mbytes
    Step    Atoms         KinEng            CPU 
 1234562      299    0.091234854              0 
 1358018      297    0.077666283      1166.5259 
Loop time of 1166.53 on 40 procs for 123456 steps with 297 atoms, finish time Thu Nov 24 09:39:32 2022


Pair  time (%) = 0.250796 (0.0214994)
Neigh time (%) = 0.449017 (0.0384918)
Comm  time (%) = 1.59638 (0.136849)
Outpt time (%) = 0.000568643 (4.87467e-05)
Other time (%) = 1164.23 (99.8031)

Nlocal:    7.425 ave 123 max 0 min
Histogram: 36 0 2 0 0 0 0 0 1 1
Nghost:    5.175 ave 59 max 0 min
Histogram: 36 0 0 0 0 0 0 1 2 1
Neighs:    2.5 ave 60 max 0 min
Histogram: 36 2 0 1 0 0 0 0 0 1

Total # of neighbors = 100
Ave neighs/atom = 0.3367
Neighbor list builds = 2589
Dangerous builds = 45
write_dump all custom dump.atom_info_ac_* id type x y z radius vx vy vz density #
run 123456
Setting up run at Thu Nov 24 09:39:32 2022

Memory usage per processor = 958.583 Mbytes
    Step    Atoms         KinEng            CPU 
 1358018      297    0.077666283              0 
 1481474      297    0.075692606      1171.9279 
Loop time of 1171.93 on 40 procs for 123456 steps with 297 atoms, finish time Thu Nov 24 09:59:04 2022


Pair  time (%) = 0.253374 (0.0216203)
Neigh time (%) = 0.887583 (0.075737)
Comm  time (%) = 2.65078 (0.22619)
Outpt time (%) = 0.000269908 (2.30311e-05)
Other time (%) = 1168.14 (99.6764)

Nlocal:    7.425 ave 120 max 0 min
Histogram: 36 0 2 0 0 0 0 0 1 1
Nghost:    5.325 ave 61 max 0 min
Histogram: 36 0 0 0 0 0 0 1 1 2
Neighs:    2.6 ave 60 max 0 min
Histogram: 36 1 1 1 0 0 0 0 0 1

Total # of neighbors = 104
Ave neighs/atom = 0.350168
Neighbor list builds = 5095
Dangerous builds = 0
write_dump all custom dump.atom_info_ac_* id type x y z radius vx vy vz density #
run 123456
Setting up run at Thu Nov 24 09:59:04 2022

Memory usage per processor = 958.583 Mbytes
    Step    Atoms         KinEng            CPU 
 1481474      297    0.075692606              0 
 1604930      295     0.31520315      1178.6455 
Loop time of 1178.65 on 40 procs for 123456 steps with 295 atoms, finish time Thu Nov 24 10:18:43 2022


Pair  time (%) = 0.252911 (0.0214578)
Neigh time (%) = 0.827746 (0.0702285)
Comm  time (%) = 2.28323 (0.193716)
Outpt time (%) = 0.000289571 (2.45681e-05)
Other time (%) = 1175.28 (99.7146)

Nlocal:    7.375 ave 119 max 0 min
Histogram: 36 0 1 1 0 0 0 0 1 1
Nghost:    5.25 ave 61 max 0 min
Histogram: 36 0 0 0 0 0 1 0 1 2
Neighs:    2.65 ave 59 max 0 min
Histogram: 36 1 1 1 0 0 0 0 0 1

Total # of neighbors = 106
Ave neighs/atom = 0.359322
Neighbor list builds = 4899
Dangerous builds = 31
write_dump all custom dump.atom_info_ac_* id type x y z radius vx vy vz density #
run 123456
Setting up run at Thu Nov 24 10:18:43 2022

Memory usage per processor = 958.583 Mbytes
    Step    Atoms         KinEng            CPU 
 1604930      295     0.31520315              0 
 1728386      294     0.29789919      1172.3177 
Loop time of 1172.32 on 40 procs for 123456 steps with 294 atoms, finish time Thu Nov 24 10:38:15 2022


Pair  time (%) = 0.250011 (0.0213262)
Neigh time (%) = 0.624499 (0.0532704)
Comm  time (%) = 2.0996 (0.179098)
Outpt time (%) = 0.000530298 (4.5235e-05)
Other time (%) = 1169.34 (99.7463)

Nlocal:    7.35 ave 116 max 0 min
Histogram: 36 0 2 0 0 0 0 0 1 1
Nghost:    5.225 ave 62 max 0 min
Histogram: 36 0 0 0 0 0 1 1 0 2
Neighs:    2.725 ave 56 max 0 min
Histogram: 36 1 0 1 1 0 0 0 0 1

Total # of neighbors = 109
Ave neighs/atom = 0.370748
Neighbor list builds = 3627
Dangerous builds = 1
write_dump all custom dump.atom_info_ac_* id type x y z radius vx vy vz density #
run 123456
Setting up run at Thu Nov 24 10:38:15 2022

Memory usage per processor = 958.583 Mbytes
    Step    Atoms         KinEng            CPU 
 1728386      294     0.29789919              0 
 1851842      294     0.31059707      1169.4525 
Loop time of 1169.45 on 40 procs for 123456 steps with 294 atoms, finish time Thu Nov 24 10:57:45 2022


Pair  time (%) = 0.252667 (0.0216056)
Neigh time (%) = 0.764446 (0.0653678)
Comm  time (%) = 2.50582 (0.214273)
Outpt time (%) = 0.000266822 (2.2816e-05)
Other time (%) = 1165.93 (99.6987)

Nlocal:    7.35 ave 113 max 0 min
Histogram: 36 0 2 0 0 0 0 0 1 1
Nghost:    5.25 ave 65 max 0 min
Histogram: 36 0 0 0 0 0 2 0 1 1
Neighs:    2.6 ave 50 max 0 min
Histogram: 36 1 0 0 2 0 0 0 0 1

Total # of neighbors = 104
Ave neighs/atom = 0.353741
Neighbor list builds = 4360
Dangerous builds = 0
write_dump all custom dump.atom_info_ac_* id type x y z radius vx vy vz density #
run 123456
Setting up run at Thu Nov 24 10:57:45 2022

Memory usage per processor = 958.583 Mbytes
    Step    Atoms         KinEng            CPU 
 1851842      294     0.31059707              0 
 1975298      292     0.32864755      1175.4213 
Loop time of 1175.42 on 40 procs for 123456 steps with 292 atoms, finish time Thu Nov 24 11:17:20 2022


Pair  time (%) = 0.252499 (0.0214816)
Neigh time (%) = 0.734153 (0.0624587)
Comm  time (%) = 2.48683 (0.211569)
Outpt time (%) = 0.000238642 (2.03027e-05)
Other time (%) = 1171.95 (99.7045)

Nlocal:    7.3 ave 110 max 0 min
Histogram: 36 0 0 2 0 0 0 0 1 1
Nghost:    5.05 ave 63 max 0 min
Histogram: 36 0 0 0 0 0 2 0 1 1
Neighs:    2.525 ave 51 max 0 min
Histogram: 36 1 0 0 2 0 0 0 0 1

Total # of neighbors = 101
Ave neighs/atom = 0.34589
Neighbor list builds = 4184
Dangerous builds = 22
write_dump all custom dump.atom_info_ac_* id type x y z radius vx vy vz density #
run 123456
Setting up run at Thu Nov 24 11:17:20 2022

Memory usage per processor = 958.583 Mbytes
    Step    Atoms         KinEng            CPU 
 1975298      292     0.32864755              0 
 2098754      289     0.32292853      1183.8783 
Loop time of 1183.88 on 40 procs for 123456 steps with 289 atoms, finish time Thu Nov 24 11:37:04 2022


Pair  time (%) = 0.254508 (0.0214979)
Neigh time (%) = 1.032 (0.0871708)
Comm  time (%) = 2.66262 (0.224906)
Outpt time (%) = 0.00265774 (0.000224494)
Other time (%) = 1179.93 (99.6662)

Nlocal:    7.225 ave 106 max 0 min
Histogram: 36 0 0 2 0 0 0 0 0 2
Nghost:    5 ave 68 max 0 min
Histogram: 36 0 0 0 0 1 1 1 0 1
Neighs:    2.675 ave 52 max 0 min
Histogram: 36 1 0 1 0 1 0 0 0 1

Total # of neighbors = 107
Ave neighs/atom = 0.370242
Neighbor list builds = 5854
Dangerous builds = 10
write_dump all custom dump.atom_info_ac_* id type x y z radius vx vy vz density #
run 123456
Setting up run at Thu Nov 24 11:37:04 2022

Memory usage per processor = 958.583 Mbytes
    Step    Atoms         KinEng            CPU 
 2098754      289     0.32292853              0 
 2222210      289     0.29701138      1166.9408 
Loop time of 1166.94 on 40 procs for 123456 steps with 289 atoms, finish time Thu Nov 24 11:56:31 2022


Pair  time (%) = 0.249984 (0.0214222)
Neigh time (%) = 0.701159 (0.0600852)
Comm  time (%) = 1.7377 (0.148911)
Outpt time (%) = 0.000297071 (2.54573e-05)
Other time (%) = 1164.25 (99.7696)

Nlocal:    7.225 ave 105 max 0 min
Histogram: 36 0 0 2 0 0 0 0 0 2
Nghost:    5.075 ave 68 max 0 min
Histogram: 36 0 0 0 0 0 2 1 0 1
Neighs:    2.6 ave 49 max 0 min
Histogram: 36 1 0 0 1 1 0 0 0 1

Total # of neighbors = 104
Ave neighs/atom = 0.359862
Neighbor list builds = 3964
Dangerous builds = 0
write_dump all custom dump.atom_info_ac_* id type x y z radius vx vy vz density #
run 123456
Setting up run at Thu Nov 24 11:56:31 2022

Memory usage per processor = 958.583 Mbytes
    Step    Atoms         KinEng            CPU 
 2222210      289     0.29701138              0 
 2345666      288     0.23217471      1173.4489 
Loop time of 1173.45 on 40 procs for 123456 steps with 288 atoms, finish time Thu Nov 24 12:16:05 2022


Pair  time (%) = 0.248146 (0.0211467)
Neigh time (%) = 0.649385 (0.0553399)
Comm  time (%) = 1.86984 (0.159346)
Outpt time (%) = 0.000224041 (1.90926e-05)
Other time (%) = 1170.68 (99.7641)

Nlocal:    7.2 ave 103 max 0 min
Histogram: 36 0 0 2 0 0 0 0 0 2
Nghost:    5.075 ave 68 max 0 min
Histogram: 36 0 0 0 0 1 1 1 0 1
Neighs:    2.35 ave 40 max 0 min
Histogram: 36 1 0 0 0 1 1 0 0 1

Total # of neighbors = 94
Ave neighs/atom = 0.326389
Neighbor list builds = 3739
Dangerous builds = 2
write_dump all custom dump.atom_info_ac_* id type x y z radius vx vy vz density #
run 123456
Setting up run at Thu Nov 24 12:16:05 2022

Memory usage per processor = 958.583 Mbytes
    Step    Atoms         KinEng            CPU 
 2345666      288     0.23217471              0 
 2469122      287     0.19586315      1170.9071 
Loop time of 1170.91 on 40 procs for 123456 steps with 287 atoms, finish time Thu Nov 24 12:35:36 2022


Pair  time (%) = 0.247058 (0.0210997)
Neigh time (%) = 0.60301 (0.0514994)
Comm  time (%) = 1.85539 (0.158457)
Outpt time (%) = 0.000218511 (1.86617e-05)
Other time (%) = 1168.2 (99.7689)

Nlocal:    7.175 ave 102 max 0 min
Histogram: 36 0 0 1 1 0 0 0 0 2
Nghost:    4.95 ave 66 max 0 min
Histogram: 36 0 0 0 0 0 2 1 0 1
Neighs:    2.325 ave 42 max 0 min
Histogram: 36 1 0 0 0 2 0 0 0 1

Total # of neighbors = 93
Ave neighs/atom = 0.324042
Neighbor list builds = 3419
Dangerous builds = 1
write_dump all custom dump.atom_info_ac_* id type x y z radius vx vy vz density #
run 123456
Setting up run at Thu Nov 24 12:35:36 2022

Memory usage per processor = 958.583 Mbytes
    Step    Atoms         KinEng            CPU 
 2469122      287     0.19586315              0 
 2592578      286     0.23844518      1183.1248 
Loop time of 1183.12 on 40 procs for 123456 steps with 286 atoms, finish time Thu Nov 24 12:55:19 2022


Pair  time (%) = 0.245199 (0.0207247)
Neigh time (%) = 0.640327 (0.0541217)
Comm  time (%) = 1.50296 (0.127033)
Outpt time (%) = 0.000554808 (4.68935e-05)
Other time (%) = 1180.74 (99.7981)

Nlocal:    7.15 ave 100 max 0 min
Histogram: 36 0 0 1 1 0 0 0 0 2
Nghost:    5 ave 67 max 0 min
Histogram: 36 0 0 0 0 1 1 1 0 1
Neighs:    2.15 ave 35 max 0 min
Histogram: 36 0 1 0 0 1 1 0 0 1

Total # of neighbors = 86
Ave neighs/atom = 0.300699
Neighbor list builds = 3615
Dangerous builds = 1
write_dump all custom dump.atom_info_ac_* id type x y z radius vx vy vz density #
run 123456
Setting up run at Thu Nov 24 12:55:19 2022

Memory usage per processor = 958.583 Mbytes
    Step    Atoms         KinEng            CPU 
 2592578      286     0.23844518              0 
 2716034      286     0.25899449      1169.4836 
Loop time of 1169.48 on 40 procs for 123456 steps with 286 atoms, finish time Thu Nov 24 13:14:48 2022


Pair  time (%) = 0.245183 (0.0209651)
Neigh time (%) = 0.607802 (0.0519718)
Comm  time (%) = 1.37056 (0.117194)
Outpt time (%) = 0.000239501 (2.04792e-05)
Other time (%) = 1167.26 (99.8098)

Nlocal:    7.15 ave 100 max 0 min
Histogram: 36 0 0 1 1 0 0 0 0 2
Nghost:    4.75 ave 63 max 0 min
Histogram: 36 0 0 0 0 0 2 1 0 1
Neighs:    2.125 ave 36 max 0 min
Histogram: 36 0 1 0 1 0 1 0 0 1

Total # of neighbors = 85
Ave neighs/atom = 0.297203
Neighbor list builds = 3426
Dangerous builds = 0
write_dump all custom dump.atom_info_ac_* id type x y z radius vx vy vz density #
run 123456
Setting up run at Thu Nov 24 13:14:48 2022

Memory usage per processor = 958.583 Mbytes
    Step    Atoms         KinEng            CPU 
 2716034      286     0.25899449              0 
 2839490      286      0.2639972      1214.7713 
Loop time of 1214.77 on 40 procs for 123456 steps with 286 atoms, finish time Thu Nov 24 13:35:03 2022


Pair  time (%) = 0.243265 (0.0200255)
Neigh time (%) = 0.607781 (0.0500325)
Comm  time (%) = 1.42638 (0.117419)
Outpt time (%) = 0.000253222 (2.08453e-05)
Other time (%) = 1212.49 (99.8125)

Nlocal:    7.15 ave 99 max 0 min
Histogram: 36 0 0 2 0 0 0 0 0 2
Nghost:    4.775 ave 61 max 0 min
Histogram: 36 0 0 0 0 0 2 0 1 1
Neighs:    2.025 ave 34 max 0 min
Histogram: 36 0 1 0 1 0 1 0 0 1

Total # of neighbors = 81
Ave neighs/atom = 0.283217
Neighbor list builds = 3406
Dangerous builds = 0
write_dump all custom dump.atom_info_ac_* id type x y z radius vx vy vz density #
run 123456
Setting up run at Thu Nov 24 13:35:03 2022

Memory usage per processor = 958.583 Mbytes
    Step    Atoms         KinEng            CPU 
 2839490      286      0.2639972              0 
 2962946      282     0.22788353      1175.4133 
Loop time of 1175.41 on 40 procs for 123456 steps with 282 atoms, finish time Thu Nov 24 13:54:39 2022


Pair  time (%) = 0.245953 (0.0209248)
Neigh time (%) = 0.779658 (0.0663305)
Comm  time (%) = 1.91081 (0.162565)
Outpt time (%) = 0.000538179 (4.57863e-05)
Other time (%) = 1172.48 (99.7501)

Nlocal:    7.05 ave 97 max 0 min
Histogram: 36 0 0 1 1 0 0 0 0 2
Nghost:    4.75 ave 62 max 0 min
Histogram: 36 0 0 0 0 1 1 1 0 1
Neighs:    2.075 ave 32 max 0 min
Histogram: 36 0 0 1 1 0 0 0 1 1

Total # of neighbors = 83
Ave neighs/atom = 0.294326
Neighbor list builds = 4500
Dangerous builds = 61
write_dump all custom dump.atom_info_ac_* id type x y z radius vx vy vz density #
run 123456
Setting up run at Thu Nov 24 13:54:39 2022

Memory usage per processor = 958.583 Mbytes
    Step    Atoms         KinEng            CPU 
 2962946      282     0.22788353              0 
 3086402      281     0.61595903      1157.9989 
Loop time of 1158 on 40 procs for 123456 steps with 281 atoms, finish time Thu Nov 24 14:13:57 2022


Pair  time (%) = 0.240861 (0.0207998)
Neigh time (%) = 0.670675 (0.0579167)
Comm  time (%) = 1.53066 (0.132181)
Outpt time (%) = 0.000227836 (1.9675e-05)
Other time (%) = 1155.56 (99.7891)

Nlocal:    7.025 ave 97 max 0 min
Histogram: 36 0 0 2 0 0 0 0 0 2
Nghost:    4.725 ave 61 max 0 min
Histogram: 36 0 0 0 0 0 1 2 0 1
Neighs:    2.1 ave 31 max 0 min
Histogram: 36 0 0 2 0 0 0 0 0 2

Total # of neighbors = 84
Ave neighs/atom = 0.298932
Neighbor list builds = 3781
Dangerous builds = 1
write_dump all custom dump.atom_info_ac_* id type x y z radius vx vy vz density #
run 123456
Setting up run at Thu Nov 24 14:14:49 2022

Memory usage per processor = 958.583 Mbytes
    Step    Atoms         KinEng            CPU 
 3086402      281     0.61595903              0 
 3209858      280     0.57681301      1203.5026 
Loop time of 1203.5 on 40 procs for 123456 steps with 280 atoms, finish time Thu Nov 24 14:34:53 2022


Pair  time (%) = 0.241214 (0.0200426)
Neigh time (%) = 0.648934 (0.0539204)
Comm  time (%) = 1.50867 (0.125357)
Outpt time (%) = 0.00023639 (1.96418e-05)
Other time (%) = 1201.1 (99.8007)

Nlocal:    7 ave 96 max 0 min
Histogram: 36 0 0 1 1 0 0 0 0 2
Nghost:    4.65 ave 60 max 0 min
Histogram: 36 0 0 0 0 0 2 1 0 1
Neighs:    2 ave 31 max 0 min
Histogram: 36 0 1 1 0 0 0 0 0 2

Total # of neighbors = 80
Ave neighs/atom = 0.285714
Neighbor list builds = 3641
Dangerous builds = 0
write_dump all custom dump.atom_info_ac_* id type x y z radius vx vy vz density #
run 123456
Setting up run at Thu Nov 24 14:34:53 2022

Memory usage per processor = 958.583 Mbytes
    Step    Atoms         KinEng            CPU 
 3209858      280     0.57681301              0 
 3333314      277     0.46027541      1171.1047 
Loop time of 1171.1 on 40 procs for 123456 steps with 277 atoms, finish time Thu Nov 24 14:54:24 2022


Pair  time (%) = 0.240524 (0.0205382)
Neigh time (%) = 0.682588 (0.0582858)
Comm  time (%) = 1.85364 (0.158282)
Outpt time (%) = 0.000509622 (4.35163e-05)
Other time (%) = 1168.33 (99.7629)

Nlocal:    6.925 ave 94 max 0 min
Histogram: 36 0 0 1 1 0 0 0 0 2
Nghost:    4.575 ave 61 max 0 min
Histogram: 36 0 0 0 0 1 2 0 0 1
Neighs:    2 ave 30 max 0 min
Histogram: 36 0 1 0 1 0 0 0 0 2

Total # of neighbors = 80
Ave neighs/atom = 0.288809
Neighbor list builds = 3843
Dangerous builds = 2
write_dump all custom dump.atom_info_ac_* id type x y z radius vx vy vz density #
run 123456
Setting up run at Thu Nov 24 14:54:24 2022

Memory usage per processor = 958.583 Mbytes
    Step    Atoms         KinEng            CPU 
 3333314      277     0.46027541              0 
 3456770      276     0.46414663      1177.0235 
Loop time of 1177.02 on 40 procs for 123456 steps with 276 atoms, finish time Thu Nov 24 15:14:01 2022


Pair  time (%) = 0.239182 (0.0203209)
Neigh time (%) = 0.741272 (0.0629785)
Comm  time (%) = 2.11078 (0.179332)
Outpt time (%) = 0.000291658 (2.47792e-05)
Other time (%) = 1173.93 (99.7373)

Nlocal:    6.9 ave 94 max 0 min
Histogram: 36 0 0 2 0 0 0 0 0 2
Nghost:    4.575 ave 60 max 0 min
Histogram: 36 0 0 0 0 0 2 1 0 1
Neighs:    1.9 ave 29 max 0 min
Histogram: 36 0 1 0 1 0 0 0 1 1

Total # of neighbors = 76
Ave neighs/atom = 0.275362
Neighbor list builds = 4203
Dangerous builds = 1
write_dump all custom dump.atom_info_ac_* id type x y z radius vx vy vz density #
run 123456
Setting up run at Thu Nov 24 15:14:01 2022

Memory usage per processor = 958.583 Mbytes
    Step    Atoms         KinEng            CPU 
 3456770      276     0.46414663              0 
 3580226      269     0.41424814      1178.5204 
Loop time of 1178.52 on 40 procs for 123456 steps with 269 atoms, finish time Thu Nov 24 15:33:39 2022


Pair  time (%) = 0.238991 (0.0202789)
Neigh time (%) = 0.935296 (0.0793619)
Comm  time (%) = 2.20046 (0.186714)
Outpt time (%) = 0.000208009 (1.765e-05)
Other time (%) = 1175.15 (99.7136)

Nlocal:    6.725 ave 94 max 0 min
Histogram: 36 0 0 1 1 0 0 0 0 2
Nghost:    4.6 ave 60 max 0 min
Histogram: 36 0 0 0 0 0 2 1 0 1
Neighs:    1.85 ave 28 max 0 min
Histogram: 36 0 1 0 1 0 0 0 0 2

Total # of neighbors = 74
Ave neighs/atom = 0.275093
Neighbor list builds = 5386
Dangerous builds = 87
write_dump all custom dump.atom_info_ac_* id type x y z radius vx vy vz density #
run 123456
Setting up run at Thu Nov 24 15:33:39 2022

Memory usage per processor = 958.583 Mbytes
    Step    Atoms         KinEng            CPU 
 3580226      269     0.41424814              0 
 3703682      266      0.4613805       1229.464 
Loop time of 1229.46 on 40 procs for 123456 steps with 266 atoms, finish time Thu Nov 24 15:54:09 2022


Pair  time (%) = 0.240223 (0.0195388)
Neigh time (%) = 1.01937 (0.0829114)
Comm  time (%) = 2.11659 (0.172156)
Outpt time (%) = 0.000209331 (1.70262e-05)
Other time (%) = 1226.09 (99.7254)

Nlocal:    6.65 ave 92 max 0 min
Histogram: 36 0 0 2 0 0 0 0 0 2
Nghost:    4.525 ave 62 max 0 min
Histogram: 36 0 0 0 0 1 1 1 0 1
Neighs:    1.85 ave 27 max 0 min
Histogram: 36 0 0 1 1 0 0 0 0 2

Total # of neighbors = 74
Ave neighs/atom = 0.278195
Neighbor list builds = 5820
Dangerous builds = 17
write_dump all custom dump.atom_info_ac_* id type x y z radius vx vy vz density #
run 123456
Setting up run at Thu Nov 24 15:54:09 2022

Memory usage per processor = 958.583 Mbytes
    Step    Atoms         KinEng            CPU 
 3703682      266      0.4613805              0 
 3827138      266     0.48488688      1237.3958 
Loop time of 1237.4 on 40 procs for 123456 steps with 266 atoms, finish time Thu Nov 24 16:14:46 2022


Pair  time (%) = 0.236472 (0.0191105)
Neigh time (%) = 0.544665 (0.044017)
Comm  time (%) = 1.32012 (0.106685)
Outpt time (%) = 0.000545386 (4.40753e-05)
Other time (%) = 1235.29 (99.8301)

Nlocal:    6.65 ave 92 max 0 min
Histogram: 36 0 0 0 2 0 0 0 0 2
Nghost:    4.525 ave 60 max 0 min
Histogram: 36 0 0 0 0 0 2 1 0 1
Neighs:    1.85 ave 27 max 0 min
Histogram: 36 0 0 1 1 0 0 0 0 2

Total # of neighbors = 74
Ave neighs/atom = 0.278195
Neighbor list builds = 3066
Dangerous builds = 0
write_dump all custom dump.atom_info_ac_* id type x y z radius vx vy vz density #
run 123456
Setting up run at Thu Nov 24 16:14:46 2022

Memory usage per processor = 958.583 Mbytes
    Step    Atoms         KinEng            CPU 
 3827138      266     0.48488688              0 
 3950594      265     0.36024356      1188.9312 
Loop time of 1188.93 on 40 procs for 123456 steps with 265 atoms, finish time Thu Nov 24 16:34:35 2022


Pair  time (%) = 0.239778 (0.0201675)
Neigh time (%) = 0.667034 (0.0561037)
Comm  time (%) = 1.44439 (0.121486)
Outpt time (%) = 0.000275656 (2.31852e-05)
Other time (%) = 1186.58 (99.8022)

Nlocal:    6.625 ave 92 max 0 min
Histogram: 36 0 0 1 1 0 0 0 0 2
Nghost:    4.5 ave 57 max 0 min
Histogram: 36 0 0 0 0 0 1 2 0 1
Neighs:    2 ave 27 max 0 min
Histogram: 36 0 0 0 1 1 0 0 0 2

Total # of neighbors = 80
Ave neighs/atom = 0.301887
Neighbor list builds = 3772
Dangerous builds = 0
write_dump all custom dump.atom_info_ac_* id type x y z radius vx vy vz density #
run 123456
Setting up run at Thu Nov 24 16:34:35 2022

Memory usage per processor = 958.583 Mbytes
    Step    Atoms         KinEng            CPU 
 3950594      265     0.36024356              0 
 4074050      262     0.42028909      1206.4804 
Loop time of 1206.48 on 40 procs for 123456 steps with 262 atoms, finish time Thu Nov 24 16:54:42 2022


Pair  time (%) = 0.242099 (0.0200666)
Neigh time (%) = 0.940792 (0.0779782)
Comm  time (%) = 2.10977 (0.174869)
Outpt time (%) = 0.00010377 (8.60103e-06)
Other time (%) = 1203.19 (99.7271)

Nlocal:    6.55 ave 95 max 0 min
Histogram: 36 0 0 2 0 0 0 0 1 1
Nghost:    4.525 ave 52 max 0 min
Histogram: 36 0 0 0 0 0 1 0 1 2
Neighs:    1.875 ave 28 max 0 min
Histogram: 36 0 1 1 0 0 0 0 0 2

Total # of neighbors = 75
Ave neighs/atom = 0.28626
Neighbor list builds = 5406
Dangerous builds = 7
write_dump all custom dump.atom_info_ac_* id type x y z radius vx vy vz density #
run 123456
Setting up run at Thu Nov 24 16:54:42 2022

Memory usage per processor = 958.583 Mbytes
    Step    Atoms         KinEng            CPU 
 4074050      262     0.42028909              0 
 4197506      261     0.38080483      1218.1499 
Loop time of 1218.15 on 40 procs for 123456 steps with 261 atoms, finish time Thu Nov 24 17:15:00 2022


Pair  time (%) = 0.239319 (0.0196461)
Neigh time (%) = 0.713734 (0.0585916)
Comm  time (%) = 1.79706 (0.147523)
Outpt time (%) = 0.00269894 (0.000221561)
Other time (%) = 1215.4 (99.774)

Nlocal:    6.525 ave 94 max 0 min
Histogram: 35 1 0 2 0 0 0 0 1 1
Nghost:    4.65 ave 52 max 0 min
Histogram: 36 0 0 0 0 0 0 1 1 2
Neighs:    1.85 ave 28 max 0 min
Histogram: 36 0 1 1 0 0 0 0 0 2

Total # of neighbors = 74
Ave neighs/atom = 0.283525
Neighbor list builds = 4037
Dangerous builds = 1
write_dump all custom dump.atom_info_ac_* id type x y z radius vx vy vz density #
run 123456
Setting up run at Thu Nov 24 17:15:00 2022

Memory usage per processor = 958.583 Mbytes
    Step    Atoms         KinEng            CPU 
 4197506      261     0.38080483              0 
 4320962      260     0.37028516      1161.0641 
Loop time of 1161.06 on 40 procs for 123456 steps with 260 atoms, finish time Thu Nov 24 17:34:21 2022


Pair  time (%) = 0.238107 (0.0205077)
Neigh time (%) = 0.577599 (0.0497474)
Comm  time (%) = 1.4974 (0.128968)
Outpt time (%) = 0.0131613 (0.00113355)
Other time (%) = 1158.74 (99.7996)

Nlocal:    6.5 ave 93 max 0 min
Histogram: 36 0 0 2 0 0 0 0 1 1
Nghost:    4.475 ave 52 max 0 min
Histogram: 36 0 0 0 0 0 1 0 1 2
Neighs:    1.975 ave 30 max 0 min
Histogram: 36 0 0 2 0 0 0 0 0 2

Total # of neighbors = 79
Ave neighs/atom = 0.303846
Neighbor list builds = 3290
Dangerous builds = 1
write_dump all custom dump.atom_info_ac_* id type x y z radius vx vy vz density #
run 123456
Setting up run at Thu Nov 24 17:34:21 2022

Memory usage per processor = 958.583 Mbytes
    Step    Atoms         KinEng            CPU 
 4320962      260     0.37028516              0 
 4444418      258      0.3217406      1165.6195 
Loop time of 1165.62 on 40 procs for 123456 steps with 258 atoms, finish time Thu Nov 24 17:53:47 2022


Pair  time (%) = 0.236797 (0.0203151)
Neigh time (%) = 0.491029 (0.042126)
Comm  time (%) = 1.16072 (0.0995799)
Outpt time (%) = 0.000208249 (1.7866e-05)
Other time (%) = 1163.73 (99.838)

Nlocal:    6.45 ave 92 max 0 min
Histogram: 36 0 0 2 0 0 0 0 1 1
Nghost:    4.45 ave 52 max 0 min
Histogram: 36 0 0 0 0 0 1 0 2 1
Neighs:    1.925 ave 32 max 0 min
Histogram: 36 0 2 0 0 0 0 0 0 2

Total # of neighbors = 77
Ave neighs/atom = 0.29845
Neighbor list builds = 2765
Dangerous builds = 1
write_dump all custom dump.atom_info_ac_* id type x y z radius vx vy vz density #
run 123456
Setting up run at Thu Nov 24 17:53:47 2022

Memory usage per processor = 958.583 Mbytes
    Step    Atoms         KinEng            CPU 
 4444418      258      0.3217406              0 
 4567874      255     0.43206846      1169.3872 
Loop time of 1169.39 on 40 procs for 123456 steps with 255 atoms, finish time Thu Nov 24 18:13:16 2022


Pair  time (%) = 0.237825 (0.0203375)
Neigh time (%) = 0.600394 (0.0513426)
Comm  time (%) = 1.64855 (0.140976)
Outpt time (%) = 0.000567612 (4.85393e-05)
Other time (%) = 1166.9 (99.7873)

Nlocal:    6.375 ave 92 max 0 min
Histogram: 36 0 0 2 0 0 0 0 1 1
Nghost:    4.325 ave 50 max 0 min
Histogram: 36 0 0 0 0 0 0 1 1 2
Neighs:    1.975 ave 35 max 0 min
Histogram: 36 1 1 0 0 0 0 0 1 1

Total # of neighbors = 79
Ave neighs/atom = 0.309804
Neighbor list builds = 3494
Dangerous builds = 12
write_dump all custom dump.atom_info_ac_* id type x y z radius vx vy vz density #
run 123456
Setting up run at Thu Nov 24 18:13:16 2022

Memory usage per processor = 958.583 Mbytes
    Step    Atoms         KinEng            CPU 
 4567874      255     0.43206846              0 
 4691330      254     0.45878912      1179.2612 
Loop time of 1179.26 on 40 procs for 123456 steps with 254 atoms, finish time Thu Nov 24 18:32:56 2022


Pair  time (%) = 0.241576 (0.0204854)
Neigh time (%) = 0.956697 (0.0811268)
Comm  time (%) = 2.62431 (0.222538)
Outpt time (%) = 0.000278457 (2.36128e-05)
Other time (%) = 1175.44 (99.6758)

Nlocal:    6.35 ave 92 max 0 min
Histogram: 36 0 0 2 0 0 0 0 1 1
Nghost:    4.175 ave 46 max 0 min
Histogram: 36 0 0 0 0 0 0 1 1 2
Neighs:    1.825 ave 33 max 0 min
Histogram: 36 1 1 0 0 0 0 1 0 1

Total # of neighbors = 73
Ave neighs/atom = 0.287402
Neighbor list builds = 5401
Dangerous builds = 1
write_dump all custom dump.atom_info_ac_* id type x y z radius vx vy vz density #
run 123456
Setting up run at Thu Nov 24 18:32:56 2022

Memory usage per processor = 958.583 Mbytes
    Step    Atoms         KinEng            CPU 
 4691330      254     0.45878912              0 
 4814786      253     0.28060859        1164.68 
Loop time of 1164.68 on 40 procs for 123456 steps with 253 atoms, finish time Thu Nov 24 18:52:20 2022


Pair  time (%) = 0.238845 (0.0205074)
Neigh time (%) = 0.667678 (0.0573271)
Comm  time (%) = 1.65682 (0.142255)
Outpt time (%) = 0.00183531 (0.000157581)
Other time (%) = 1162.12 (99.7798)

Nlocal:    6.325 ave 92 max 0 min
Histogram: 36 0 1 1 0 0 0 0 1 1
Nghost:    4.075 ave 45 max 0 min
Histogram: 36 0 0 0 0 0 0 1 1 2
Neighs:    1.675 ave 31 max 0 min
Histogram: 36 1 1 0 0 0 0 1 0 1

Total # of neighbors = 67
Ave neighs/atom = 0.264822
Neighbor list builds = 3768
Dangerous builds = 0
write_dump all custom dump.atom_info_ac_* id type x y z radius vx vy vz density #
run 123456
Setting up run at Thu Nov 24 18:52:20 2022

Memory usage per processor = 958.583 Mbytes
    Step    Atoms         KinEng            CPU 
 4814786      253     0.28060859              0 
 4938242      251     0.37008876      1165.4692 
Loop time of 1165.47 on 40 procs for 123456 steps with 251 atoms, finish time Thu Nov 24 19:11:46 2022


Pair  time (%) = 0.244487 (0.0209776)
Neigh time (%) = 0.74978 (0.0643329)
Comm  time (%) = 1.84861 (0.158615)
Outpt time (%) = 0.00054415 (4.66893e-05)
Other time (%) = 1162.63 (99.756)

Nlocal:    6.275 ave 90 max 0 min
Histogram: 36 0 0 2 0 0 0 0 1 1
Nghost:    4 ave 43 max 0 min
Histogram: 36 0 0 0 0 0 1 0 0 3
Neighs:    1.825 ave 33 max 0 min
Histogram: 36 0 2 0 0 0 0 1 0 1

Total # of neighbors = 73
Ave neighs/atom = 0.290837
Neighbor list builds = 4218
Dangerous builds = 3
write_dump all custom dump.atom_info_ac_* id type x y z radius vx vy vz density #
run 123456
Setting up run at Thu Nov 24 19:11:46 2022

Memory usage per processor = 958.583 Mbytes
    Step    Atoms         KinEng            CPU 
 4938242      251     0.37008876              0 
 5061698      247      0.3670655      1173.2982 
Loop time of 1173.3 on 40 procs for 123456 steps with 247 atoms, finish time Thu Nov 24 19:31:19 2022


Pair  time (%) = 0.248864 (0.0212107)
Neigh time (%) = 0.787521 (0.0671203)
Comm  time (%) = 1.91906 (0.163562)
Outpt time (%) = 0.000230589 (1.9653e-05)
Other time (%) = 1170.34 (99.7481)

Nlocal:    6.175 ave 90 max 0 min
Histogram: 35 1 1 1 0 0 0 0 1 1
Nghost:    3.975 ave 42 max 0 min
Histogram: 36 0 0 0 0 0 0 1 0 3
Neighs:    1.75 ave 30 max 0 min
Histogram: 36 0 2 0 0 0 0 0 1 1

Total # of neighbors = 70
Ave neighs/atom = 0.283401
Neighbor list builds = 4458
Dangerous builds = 56
write_dump all custom dump.atom_info_ac_* id type x y z radius vx vy vz density #
run 123456
Setting up run at Thu Nov 24 19:31:19 2022

Memory usage per processor = 958.583 Mbytes
    Step    Atoms         KinEng            CPU 
 5061698      247      0.3670655              0 
 5185154      246     0.35461036      1165.2706 
Loop time of 1165.27 on 40 procs for 123456 steps with 246 atoms, finish time Thu Nov 24 19:50:45 2022


Pair  time (%) = 0.248795 (0.0213508)
Neigh time (%) = 0.510594 (0.0438176)
Comm  time (%) = 1.20859 (0.103717)
Outpt time (%) = 0.000242094 (2.07758e-05)
Other time (%) = 1163.3 (99.8311)

Nlocal:    6.15 ave 88 max 0 min
Histogram: 36 0 0 2 0 0 0 0 0 2
Nghost:    3.85 ave 41 max 0 min
Histogram: 36 0 0 0 0 0 0 1 0 3
Neighs:    1.675 ave 29 max 0 min
Histogram: 36 0 2 0 0 0 0 1 0 1

Total # of neighbors = 67
Ave neighs/atom = 0.272358
Neighbor list builds = 2849
Dangerous builds = 2
write_dump all custom dump.atom_info_ac_* id type x y z radius vx vy vz density #
run 123456
Setting up run at Thu Nov 24 19:50:45 2022

Memory usage per processor = 958.583 Mbytes
    Step    Atoms         KinEng            CPU 
 5185154      246     0.35461036              0 
 5308610      244        0.44033      1172.1378 
Loop time of 1172.14 on 40 procs for 123456 steps with 244 atoms, finish time Thu Nov 24 20:10:17 2022


Pair  time (%) = 0.247098 (0.021081)
Neigh time (%) = 0.72617 (0.0619526)
Comm  time (%) = 1.61263 (0.13758)
Outpt time (%) = 0.000556767 (4.75001e-05)
Other time (%) = 1169.55 (99.7793)

Nlocal:    6.1 ave 87 max 0 min
Histogram: 36 0 1 1 0 0 0 0 0 2
Nghost:    3.775 ave 41 max 0 min
Histogram: 36 0 0 0 0 0 0 1 0 3
Neighs:    1.675 ave 29 max 0 min
Histogram: 36 0 2 0 0 0 0 0 1 1

Total # of neighbors = 67
Ave neighs/atom = 0.27459
Neighbor list builds = 4175
Dangerous builds = 132
write_dump all custom dump.atom_info_ac_* id type x y z radius vx vy vz density #
run 123456
Setting up run at Thu Nov 24 20:10:17 2022

Memory usage per processor = 958.583 Mbytes
    Step    Atoms         KinEng            CPU 
 5308610      244        0.44033              0 
 5432066      243     0.45131147      1174.5129 
Loop time of 1174.51 on 40 procs for 123456 steps with 243 atoms, finish time Thu Nov 24 20:29:51 2022


Pair  time (%) = 0.249961 (0.0212821)
Neigh time (%) = 1.02833 (0.0875538)
Comm  time (%) = 2.20903 (0.188081)
Outpt time (%) = 0.000219454 (1.86847e-05)
Other time (%) = 1171.03 (99.7031)

Nlocal:    6.075 ave 85 max 0 min
Histogram: 36 0 0 2 0 0 0 0 0 2
Nghost:    3.525 ave 40 max 0 min
Histogram: 36 0 0 0 0 0 0 1 0 3
Neighs:    1.7 ave 29 max 0 min
Histogram: 36 1 1 0 0 0 0 0 1 1

Total # of neighbors = 68
Ave neighs/atom = 0.279835
Neighbor list builds = 5992
Dangerous builds = 537
write_dump all custom dump.atom_info_ac_* id type x y z radius vx vy vz density #
run 123456
Setting up run at Thu Nov 24 20:29:51 2022

Memory usage per processor = 958.583 Mbytes
    Step    Atoms         KinEng            CPU 
 5432066      243     0.45131147              0 
 5555522      241     0.36207269      1164.7618 
Loop time of 1164.76 on 40 procs for 123456 steps with 241 atoms, finish time Thu Nov 24 20:49:16 2022


Pair  time (%) = 0.244764 (0.0210141)
Neigh time (%) = 0.704908 (0.0605195)
Comm  time (%) = 1.67868 (0.144122)
Outpt time (%) = 0.000254241 (2.18278e-05)
Other time (%) = 1162.13 (99.7743)

Nlocal:    6.025 ave 83 max 0 min
Histogram: 36 0 0 2 0 0 0 0 0 2
Nghost:    3.575 ave 40 max 0 min
Histogram: 36 0 0 0 0 0 1 0 1 2
Neighs:    1.625 ave 31 max 0 min
Histogram: 36 2 0 0 0 0 0 1 0 1

Total # of neighbors = 65
Ave neighs/atom = 0.26971
Neighbor list builds = 3960
Dangerous builds = 2
write_dump all custom dump.atom_info_ac_* id type x y z radius vx vy vz density #
run 123456
Setting up run at Thu Nov 24 20:49:16 2022

Memory usage per processor = 958.583 Mbytes
    Step    Atoms         KinEng            CPU 
 5555522      241     0.36207269              0 
 5678978      237     0.43813349      1167.7156 
Loop time of 1167.72 on 40 procs for 123456 steps with 237 atoms, finish time Thu Nov 24 21:08:44 2022


Pair  time (%) = 0.241867 (0.0207128)
Neigh time (%) = 0.582289 (0.0498656)
Comm  time (%) = 1.46468 (0.125431)
Outpt time (%) = 0.000206229 (1.76609e-05)
Other time (%) = 1165.43 (99.804)

Nlocal:    5.925 ave 85 max 0 min
Histogram: 36 0 1 1 0 0 0 0 1 1
Nghost:    3.55 ave 39 max 0 min
Histogram: 36 0 0 0 0 0 0 1 1 2
Neighs:    1.575 ave 29 max 0 min
Histogram: 36 2 0 0 0 0 0 0 1 1

Total # of neighbors = 63
Ave neighs/atom = 0.265823
Neighbor list builds = 3242
Dangerous builds = 3
write_dump all custom dump.atom_info_ac_* id type x y z radius vx vy vz density #
run 123456
Setting up run at Thu Nov 24 21:08:45 2022

Memory usage per processor = 958.583 Mbytes
    Step    Atoms         KinEng            CPU 
 5678978      237     0.43813349              0 
 5802434      236     0.58840521      1193.7843 
Loop time of 1193.78 on 40 procs for 123456 steps with 236 atoms, finish time Thu Nov 24 21:28:38 2022


Pair  time (%) = 0.244584 (0.0204881)
Neigh time (%) = 0.910525 (0.0762722)
Comm  time (%) = 2.05051 (0.171765)
Outpt time (%) = 0.000554532 (4.64516e-05)
Other time (%) = 1190.58 (99.7314)

Nlocal:    5.9 ave 86 max 0 min
Histogram: 36 0 1 1 0 0 0 0 1 1
Nghost:    3.325 ave 39 max 0 min
Histogram: 36 0 0 0 0 0 0 2 1 1
Neighs:    1.65 ave 29 max 0 min
Histogram: 36 2 0 0 0 0 0 0 0 2

Total # of neighbors = 66
Ave neighs/atom = 0.279661
Neighbor list builds = 5073
Dangerous builds = 0
write_dump all custom dump.atom_info_ac_* id type x y z radius vx vy vz density #
run 123456
Setting up run at Thu Nov 24 21:28:38 2022

Memory usage per processor = 958.583 Mbytes
    Step    Atoms         KinEng            CPU 
 5802434      236     0.58840521              0 
 5925890      234     0.54234981      1207.0463 
Loop time of 1207.05 on 40 procs for 123456 steps with 234 atoms, finish time Thu Nov 24 21:48:45 2022


Pair  time (%) = 0.245055 (0.020302)
Neigh time (%) = 1.17119 (0.0970296)
Comm  time (%) = 2.50394 (0.207444)
Outpt time (%) = 0.000519182 (4.30126e-05)
Other time (%) = 1203.13 (99.6752)

Nlocal:    5.85 ave 84 max 0 min
Histogram: 36 0 1 0 1 0 0 0 1 1
Nghost:    3.475 ave 41 max 0 min
Histogram: 36 0 0 0 0 0 0 2 1 1
Neighs:    1.625 ave 29 max 0 min
Histogram: 37 0 1 0 0 0 0 0 0 2

Total # of neighbors = 65
Ave neighs/atom = 0.277778
Neighbor list builds = 6532
Dangerous builds = 2
write_dump all custom dump.atom_info_ac_* id type x y z radius vx vy vz density #
run 123456
Setting up run at Thu Nov 24 21:48:46 2022

Memory usage per processor = 958.583 Mbytes
    Step    Atoms         KinEng            CPU 
 5925890      234     0.54234981              0 
 6049346      232     0.50895537      1190.7762 
Loop time of 1190.78 on 40 procs for 123456 steps with 232 atoms, finish time Thu Nov 24 22:08:36 2022


Pair  time (%) = 0.240181 (0.0201701)
Neigh time (%) = 0.673518 (0.0565612)
Comm  time (%) = 1.63555 (0.137352)
Outpt time (%) = 0.000233593 (1.96169e-05)
Other time (%) = 1188.23 (99.7859)

Nlocal:    5.8 ave 83 max 0 min
Histogram: 35 1 1 1 0 0 0 0 1 1
Nghost:    3.425 ave 42 max 0 min
Histogram: 36 0 0 0 0 0 2 0 1 1
Neighs:    1.575 ave 29 max 0 min
Histogram: 36 1 1 0 0 0 0 0 1 1

Total # of neighbors = 63
Ave neighs/atom = 0.271552
Neighbor list builds = 3793
Dangerous builds = 2
write_dump all custom dump.atom_info_ac_* id type x y z radius vx vy vz density #
run 123456
Setting up run at Thu Nov 24 22:08:37 2022

Memory usage per processor = 958.583 Mbytes
    Step    Atoms         KinEng            CPU 
 6049346      232     0.50895537              0 
 6172802      229     0.40059479      1160.8827 
Loop time of 1160.88 on 40 procs for 123456 steps with 229 atoms, finish time Thu Nov 24 22:27:57 2022


Pair  time (%) = 0.234979 (0.0202414)
Neigh time (%) = 0.716201 (0.0616945)
Comm  time (%) = 1.93734 (0.166885)
Outpt time (%) = 0.000499604 (4.30366e-05)
Other time (%) = 1157.99 (99.7511)

Nlocal:    5.725 ave 83 max 0 min
Histogram: 35 2 0 0 1 0 0 0 1 1
Nghost:    3.65 ave 44 max 0 min
Histogram: 36 0 0 0 0 0 1 2 0 1
Neighs:    1.675 ave 30 max 0 min
Histogram: 37 0 1 0 0 0 0 0 0 2

Total # of neighbors = 67
Ave neighs/atom = 0.292576
Neighbor list builds = 4159
Dangerous builds = 270
write_dump all custom dump.atom_info_ac_* id type x y z radius vx vy vz density #
run 123456
Setting up run at Thu Nov 24 22:27:58 2022

Memory usage per processor = 958.583 Mbytes
    Step    Atoms         KinEng            CPU 
 6172802      229     0.40059479              0 
 6296258      228      2.1641458      1161.9704 
Loop time of 1161.97 on 40 procs for 123456 steps with 228 atoms, finish time Thu Nov 24 22:47:20 2022


Pair  time (%) = 0.231353 (0.0199104)
Neigh time (%) = 0.680476 (0.0585622)
Comm  time (%) = 1.81738 (0.156405)
Outpt time (%) = 0.000228521 (1.96667e-05)
Other time (%) = 1159.24 (99.7651)

Nlocal:    5.7 ave 81 max 0 min
Histogram: 36 0 1 1 0 0 0 0 0 2
Nghost:    3.475 ave 40 max 0 min
Histogram: 36 0 0 0 0 0 0 1 1 2
Neighs:    1.65 ave 29 max 0 min
Histogram: 37 0 1 0 0 0 0 0 0 2

Total # of neighbors = 66
Ave neighs/atom = 0.289474
Neighbor list builds = 3874
Dangerous builds = 0
write_dump all custom dump.atom_info_ac_* id type x y z radius vx vy vz density #
run 123456
Setting up run at Thu Nov 24 22:47:20 2022

Memory usage per processor = 958.583 Mbytes
    Step    Atoms         KinEng            CPU 
 6296258      228      2.1641458              0 
 6419714      223     0.40379107      1163.1635 
Loop time of 1163.16 on 40 procs for 123456 steps with 223 atoms, finish time Thu Nov 24 23:06:43 2022


Pair  time (%) = 0.230194 (0.0197903)
Neigh time (%) = 0.606195 (0.052116)
Comm  time (%) = 1.43968 (0.123773)
Outpt time (%) = 0.000177955 (1.52992e-05)
Other time (%) = 1160.89 (99.8043)

Nlocal:    5.575 ave 79 max 0 min
Histogram: 36 0 1 0 1 0 0 0 0 2
Nghost:    3.675 ave 39 max 0 min
Histogram: 36 0 0 0 0 0 0 0 2 2
Neighs:    1.75 ave 31 max 0 min
Histogram: 37 0 1 0 0 0 0 0 0 2

Total # of neighbors = 70
Ave neighs/atom = 0.313901
Neighbor list builds = 3616
Dangerous builds = 450
write_dump all custom dump.atom_info_ac_* id type x y z radius vx vy vz density #
run 123456
Setting up run at Thu Nov 24 23:06:43 2022

Memory usage per processor = 958.583 Mbytes
    Step    Atoms         KinEng            CPU 
 6419714      223     0.40379107              0 
 6543170      222     0.39398955      1158.4728 
Loop time of 1158.47 on 40 procs for 123456 steps with 222 atoms, finish time Thu Nov 24 23:26:01 2022


Pair  time (%) = 0.229788 (0.0198354)
Neigh time (%) = 0.49251 (0.0425137)
Comm  time (%) = 1.54661 (0.133504)
Outpt time (%) = 0.000478665 (4.13186e-05)
Other time (%) = 1156.2 (99.8041)

Nlocal:    5.55 ave 78 max 0 min
Histogram: 35 1 1 0 1 0 0 0 0 2
Nghost:    3.55 ave 40 max 0 min
Histogram: 36 0 0 0 0 0 0 1 1 2
Neighs:    1.625 ave 27 max 0 min
Histogram: 37 0 0 1 0 0 0 0 0 2

Total # of neighbors = 65
Ave neighs/atom = 0.292793
Neighbor list builds = 2790
Dangerous builds = 0
write_dump all custom dump.atom_info_ac_* id type x y z radius vx vy vz density #
run 123456
Setting up run at Thu Nov 24 23:26:01 2022

Memory usage per processor = 958.583 Mbytes
    Step    Atoms         KinEng            CPU 
 6543170      222     0.39398955              0 
 6666626      221     0.39658012      1155.7562 
Loop time of 1155.76 on 40 procs for 123456 steps with 221 atoms, finish time Thu Nov 24 23:45:17 2022


Pair  time (%) = 0.231195 (0.0200038)
Neigh time (%) = 0.623973 (0.0539883)
Comm  time (%) = 2.12069 (0.183489)
Outpt time (%) = 0.000170601 (1.4761e-05)
Other time (%) = 1152.78 (99.7425)

Nlocal:    5.525 ave 77 max 0 min
Histogram: 36 0 1 0 1 0 0 0 0 2
Nghost:    3.575 ave 40 max 0 min
Histogram: 36 0 0 0 0 0 0 2 0 2
Neighs:    1.675 ave 29 max 0 min
Histogram: 37 0 0 1 0 0 0 0 1 1

Total # of neighbors = 67
Ave neighs/atom = 0.303167
Neighbor list builds = 3530
Dangerous builds = 1
write_dump all custom dump.atom_info_ac_* id type x y z radius vx vy vz density #
run 123456
Setting up run at Thu Nov 24 23:45:17 2022

Memory usage per processor = 958.583 Mbytes
    Step    Atoms         KinEng            CPU 
 6666626      221     0.39658012              0 
 6790082      220     0.55158833      1160.4634 
Loop time of 1160.46 on 40 procs for 123456 steps with 220 atoms, finish time Fri Nov 25 00:04:38 2022


Pair  time (%) = 0.232895 (0.0200691)
Neigh time (%) = 0.781335 (0.0673295)
Comm  time (%) = 2.64359 (0.227804)
Outpt time (%) = 0.00016396 (1.41289e-05)
Other time (%) = 1156.81 (99.6848)

Nlocal:    5.5 ave 75 max 0 min
Histogram: 36 0 1 0 1 0 0 0 0 2
Nghost:    3.4 ave 41 max 0 min
Histogram: 36 0 0 0 0 0 1 1 1 1
Neighs:    1.65 ave 30 max 0 min
Histogram: 37 0 0 0 1 0 0 1 0 1

Total # of neighbors = 66
Ave neighs/atom = 0.3
Neighbor list builds = 4368
Dangerous builds = 21
write_dump all custom dump.atom_info_ac_* id type x y z radius vx vy vz density #
run 123456
Setting up run at Fri Nov 25 00:04:38 2022

Memory usage per processor = 958.583 Mbytes
    Step    Atoms         KinEng            CPU 
 6790082      220     0.55158833              0 
 6913538      220      0.5737889       1168.493 
Loop time of 1168.49 on 40 procs for 123456 steps with 220 atoms, finish time Fri Nov 25 00:24:06 2022


Pair  time (%) = 0.235482 (0.0201527)
Neigh time (%) = 0.879063 (0.0752305)
Comm  time (%) = 2.03838 (0.174446)
Outpt time (%) = 0.000198075 (1.69513e-05)
Other time (%) = 1165.34 (99.7302)

Nlocal:    5.5 ave 75 max 0 min
Histogram: 35 1 1 0 1 0 0 0 0 2
Nghost:    3.375 ave 42 max 0 min
Histogram: 36 0 0 0 0 0 2 0 1 1
Neighs:    1.55 ave 28 max 0 min
Histogram: 37 0 0 1 0 0 0 0 1 1

Total # of neighbors = 62
Ave neighs/atom = 0.281818
Neighbor list builds = 4867
Dangerous builds = 0
write_dump all custom dump.atom_info_ac_* id type x y z radius vx vy vz density #
run 123456
Setting up run at Fri Nov 25 00:24:06 2022

Memory usage per processor = 958.583 Mbytes
    Step    Atoms         KinEng            CPU 
 6913538      220      0.5737889              0 
 7036994      218     0.50994295      1169.2281 
Loop time of 1169.23 on 40 procs for 123456 steps with 218 atoms, finish time Fri Nov 25 00:43:36 2022


Pair  time (%) = 0.236012 (0.0201853)
Neigh time (%) = 0.86845 (0.0742755)
Comm  time (%) = 1.96332 (0.167916)
Outpt time (%) = 0.000493611 (4.22168e-05)
Other time (%) = 1166.16 (99.7376)

Nlocal:    5.45 ave 74 max 0 min
Histogram: 36 0 1 0 1 0 0 0 0 2
Nghost:    3.325 ave 42 max 0 min
Histogram: 36 0 0 0 0 1 1 0 1 1
Neighs:    1.525 ave 28 max 0 min
Histogram: 37 0 0 1 0 0 0 1 0 1

Total # of neighbors = 61
Ave neighs/atom = 0.279817
Neighbor list builds = 4799
Dangerous builds = 1
write_dump all custom dump.atom_info_ac_* id type x y z radius vx vy vz density #
run 123456
Setting up run at Fri Nov 25 00:43:36 2022

Memory usage per processor = 958.583 Mbytes
    Step    Atoms         KinEng            CPU 
 7036994      218     0.50994295              0 
 7160450      217     0.42039411      1169.1974 
Loop time of 1169.2 on 40 procs for 123456 steps with 217 atoms, finish time Fri Nov 25 01:03:05 2022


Pair  time (%) = 0.235811 (0.0201686)
Neigh time (%) = 0.854194 (0.0730581)
Comm  time (%) = 2.03331 (0.173906)
Outpt time (%) = 8.96118e-05 (7.66439e-06)
Other time (%) = 1166.07 (99.7329)

Nlocal:    5.425 ave 74 max 0 min
Histogram: 35 1 1 0 1 0 0 0 0 2
Nghost:    3.325 ave 41 max 0 min
Histogram: 36 0 0 0 0 0 2 0 1 1
Neighs:    1.45 ave 25 max 0 min
Histogram: 37 0 0 0 1 0 0 0 1 1

Total # of neighbors = 58
Ave neighs/atom = 0.267281
Neighbor list builds = 4715
Dangerous builds = 0
write_dump all custom dump.atom_info_ac_* id type x y z radius vx vy vz density #
run 123456
Setting up run at Fri Nov 25 01:03:05 2022

Memory usage per processor = 958.583 Mbytes
    Step    Atoms         KinEng            CPU 
 7160450      217     0.42039411              0 
 7283906      216     0.44772299       1165.929 
Loop time of 1165.93 on 40 procs for 123456 steps with 216 atoms, finish time Fri Nov 25 01:22:31 2022


Pair  time (%) = 0.236592 (0.0202921)
Neigh time (%) = 0.701809 (0.0601931)
Comm  time (%) = 1.62211 (0.139126)
Outpt time (%) = 0.000200903 (1.72312e-05)
Other time (%) = 1163.37 (99.7804)

Nlocal:    5.4 ave 74 max 0 min
Histogram: 36 0 1 0 1 0 0 0 0 2
Nghost:    3.225 ave 43 max 0 min
Histogram: 36 0 0 0 0 1 1 1 0 1
Neighs:    1.45 ave 24 max 0 min
Histogram: 37 0 0 0 1 0 0 0 0 2

Total # of neighbors = 58
Ave neighs/atom = 0.268519
Neighbor list builds = 3869
Dangerous builds = 1
write_dump all custom dump.atom_info_ac_* id type x y z radius vx vy vz density #
run 123456
Setting up run at Fri Nov 25 01:22:31 2022

Memory usage per processor = 958.583 Mbytes
    Step    Atoms         KinEng            CPU 
 7283906      216     0.44772299              0 
 7407362      214     0.62328277      1178.2982 
Loop time of 1178.3 on 40 procs for 123456 steps with 214 atoms, finish time Fri Nov 25 01:42:09 2022


Pair  time (%) = 0.237427 (0.02015)
Neigh time (%) = 1.08945 (0.0924593)
Comm  time (%) = 2.21798 (0.188235)
Outpt time (%) = 0.0231151 (0.00196174)
Other time (%) = 1174.73 (99.6972)

Nlocal:    5.35 ave 72 max 0 min
Histogram: 36 0 1 0 0 1 0 0 0 2
Nghost:    3.125 ave 40 max 0 min
Histogram: 36 0 0 0 0 0 2 0 1 1
Neighs:    1.4 ave 25 max 0 min
Histogram: 37 0 1 0 0 0 0 0 0 2

Total # of neighbors = 56
Ave neighs/atom = 0.261682
Neighbor list builds = 6105
Dangerous builds = 0
write_dump all custom dump.atom_info_ac_* id type x y z radius vx vy vz density #
run 123456
Setting up run at Fri Nov 25 01:42:09 2022

Memory usage per processor = 958.583 Mbytes
    Step    Atoms         KinEng            CPU 
 7407362      214     0.62328277              0 
 7530818      211     0.32847136      1163.0238 
Loop time of 1163.02 on 40 procs for 123456 steps with 211 atoms, finish time Fri Nov 25 02:01:32 2022


Pair  time (%) = 0.234578 (0.0201697)
Neigh time (%) = 0.821202 (0.0706092)
Comm  time (%) = 1.83855 (0.158083)
Outpt time (%) = 0.000216236 (1.85925e-05)
Other time (%) = 1160.13 (99.7511)

Nlocal:    5.275 ave 72 max 0 min
Histogram: 36 0 1 0 1 0 0 0 0 2
Nghost:    3.075 ave 37 max 0 min
Histogram: 36 0 0 0 0 0 1 1 0 2
Neighs:    1.35 ave 25 max 0 min
Histogram: 37 0 1 0 0 0 0 0 1 1

Total # of neighbors = 54
Ave neighs/atom = 0.255924
Neighbor list builds = 4673
Dangerous builds = 178
write_dump all custom dump.atom_info_ac_* id type x y z radius vx vy vz density #
run 123456
Setting up run at Fri Nov 25 02:01:32 2022

Memory usage per processor = 958.583 Mbytes
    Step    Atoms         KinEng            CPU 
 7530818      211     0.32847136              0 
 7654274      208     0.27036837      1171.9514 
Loop time of 1171.95 on 40 procs for 123456 steps with 208 atoms, finish time Fri Nov 25 02:21:04 2022


Pair  time (%) = 0.235459 (0.0200912)
Neigh time (%) = 1.04856 (0.0894716)
Comm  time (%) = 2.80884 (0.239672)
Outpt time (%) = 0.000248653 (2.1217e-05)
Other time (%) = 1167.86 (99.6507)

Nlocal:    5.2 ave 73 max 0 min
Histogram: 36 0 1 1 0 0 0 0 0 2
Nghost:    3.1 ave 37 max 0 min
Histogram: 36 0 0 0 0 0 2 0 1 1
Neighs:    1.4 ave 25 max 0 min
Histogram: 37 0 0 1 0 0 0 0 1 1

Total # of neighbors = 56
Ave neighs/atom = 0.269231
Neighbor list builds = 6065
Dangerous builds = 0
write_dump all custom dump.atom_info_ac_* id type x y z radius vx vy vz density #
run 123456
Setting up run at Fri Nov 25 02:21:04 2022

Memory usage per processor = 958.583 Mbytes
    Step    Atoms         KinEng            CPU 
 7654274      208     0.27036837              0 
 7777730      203      0.2349769      1173.2844 
Loop time of 1173.28 on 40 procs for 123456 steps with 203 atoms, finish time Fri Nov 25 02:40:38 2022


Pair  time (%) = 0.233945 (0.0199393)
Neigh time (%) = 0.910463 (0.0775995)
Comm  time (%) = 3.57172 (0.30442)
Outpt time (%) = 0.000538803 (4.59226e-05)
Other time (%) = 1168.57 (99.598)

Nlocal:    5.075 ave 69 max 0 min
Histogram: 36 0 1 0 1 0 0 0 0 2
Nghost:    3.05 ave 33 max 0 min
Histogram: 36 0 0 0 0 0 0 2 0 2
Neighs:    1.425 ave 24 max 0 min
Histogram: 36 1 0 1 0 0 0 0 1 1

Total # of neighbors = 57
Ave neighs/atom = 0.280788
Neighbor list builds = 5332
Dangerous builds = 268
write_dump all custom dump.atom_info_ac_* id type x y z radius vx vy vz density #
run 123456
Setting up run at Fri Nov 25 02:40:38 2022

Memory usage per processor = 958.583 Mbytes
    Step    Atoms         KinEng            CPU 
 7777730      203      0.2349769              0 
 7901186      202     0.24612807      1164.0893 
Loop time of 1164.09 on 40 procs for 123456 steps with 202 atoms, finish time Fri Nov 25 03:00:02 2022


Pair  time (%) = 0.230734 (0.019821)
Neigh time (%) = 0.578393 (0.0496863)
Comm  time (%) = 2.26728 (0.194769)
Outpt time (%) = 0.000275057 (2.36285e-05)
Other time (%) = 1161.01 (99.7357)

Nlocal:    5.05 ave 69 max 0 min
Histogram: 36 0 1 0 1 0 0 0 0 2
Nghost:    3.075 ave 35 max 0 min
Histogram: 36 0 0 0 0 0 0 2 1 1
Neighs:    1.275 ave 23 max 0 min
Histogram: 36 1 0 1 0 0 1 0 0 1

Total # of neighbors = 51
Ave neighs/atom = 0.252475
Neighbor list builds = 3223
Dangerous builds = 1
write_dump all custom dump.atom_info_ac_* id type x y z radius vx vy vz density #
run 123456
Setting up run at Fri Nov 25 03:00:02 2022

Memory usage per processor = 958.583 Mbytes
    Step    Atoms         KinEng            CPU 
 7901186      202     0.24612807              0 
 8024642      198     0.18380887      1173.3411 
Loop time of 1173.34 on 40 procs for 123456 steps with 198 atoms, finish time Fri Nov 25 03:19:35 2022


Pair  time (%) = 0.2338 (0.019926)
Neigh time (%) = 0.85637 (0.0729856)
Comm  time (%) = 1.96696 (0.167638)
Outpt time (%) = 0.000241417 (2.05752e-05)
Other time (%) = 1170.28 (99.7394)

Nlocal:    4.95 ave 67 max 0 min
Histogram: 35 1 1 1 0 0 0 0 0 2
Nghost:    3 ave 36 max 0 min
Histogram: 36 0 0 0 0 0 1 1 1 1
Neighs:    1.25 ave 22 max 0 min
Histogram: 36 1 0 0 1 0 1 0 0 1

Total # of neighbors = 50
Ave neighs/atom = 0.252525
Neighbor list builds = 4941
Dangerous builds = 2
write_dump all custom dump.atom_info_ac_* id type x y z radius vx vy vz density #
run 123456
Setting up run at Fri Nov 25 03:19:35 2022

Memory usage per processor = 958.583 Mbytes
    Step    Atoms         KinEng            CPU 
 8024642      198     0.18380887              0 
 8148098      197     0.15150641      1152.9092 
Loop time of 1152.91 on 40 procs for 123456 steps with 197 atoms, finish time Fri Nov 25 03:38:48 2022


Pair  time (%) = 0.227919 (0.0197691)
Neigh time (%) = 0.404199 (0.0350591)
Comm  time (%) = 1.02939 (0.089286)
Outpt time (%) = 0.000207144 (1.79671e-05)
Other time (%) = 1151.25 (99.8559)

Nlocal:    4.925 ave 66 max 0 min
Histogram: 36 0 0 1 1 0 0 0 0 2
Nghost:    2.975 ave 35 max 0 min
Histogram: 36 0 0 0 0 0 1 1 0 2
Neighs:    1.2 ave 22 max 0 min
Histogram: 36 1 0 1 0 0 1 0 0 1

Total # of neighbors = 48
Ave neighs/atom = 0.243655
Neighbor list builds = 2244
Dangerous builds = 0
write_dump all custom dump.atom_info_ac_* id type x y z radius vx vy vz density #
run 123456
Setting up run at Fri Nov 25 03:38:48 2022

Memory usage per processor = 958.583 Mbytes
    Step    Atoms         KinEng            CPU 
 8148098      197     0.15150641              0 
 8271554      197     0.36138477      1165.7247 
Loop time of 1165.72 on 40 procs for 123456 steps with 197 atoms, finish time Fri Nov 25 03:58:14 2022


Pair  time (%) = 0.229775 (0.0197109)
Neigh time (%) = 0.6141 (0.0526797)
Comm  time (%) = 1.41611 (0.121479)
Outpt time (%) = 0.000516157 (4.42778e-05)
Other time (%) = 1163.46 (99.8061)

Nlocal:    4.925 ave 66 max 0 min
Histogram: 36 0 0 1 1 0 0 0 0 2
Nghost:    2.925 ave 33 max 0 min
Histogram: 36 0 0 0 0 0 1 0 1 2
Neighs:    1.175 ave 20 max 0 min
Histogram: 36 1 0 0 0 1 1 0 0 1

Total # of neighbors = 47
Ave neighs/atom = 0.238579
Neighbor list builds = 3400
Dangerous builds = 0
write_dump all custom dump.atom_info_ac_* id type x y z radius vx vy vz density #
run 123456
Setting up run at Fri Nov 25 03:58:14 2022

Memory usage per processor = 958.583 Mbytes
    Step    Atoms         KinEng            CPU 
 8271554      197     0.36138477              0 
 8395010      196      0.2308241      1167.4964 
Loop time of 1167.5 on 40 procs for 123456 steps with 196 atoms, finish time Fri Nov 25 04:17:42 2022


Pair  time (%) = 0.229238 (0.019635)
Neigh time (%) = 0.661332 (0.0566453)
Comm  time (%) = 1.52161 (0.130331)
Outpt time (%) = 0.000173211 (1.48361e-05)
Other time (%) = 1165.08 (99.7934)

Nlocal:    4.9 ave 65 max 0 min
Histogram: 36 0 0 1 1 0 0 0 0 2
Nghost:    2.975 ave 35 max 0 min
Histogram: 36 0 0 0 0 1 0 1 0 2
Neighs:    1.15 ave 20 max 0 min
Histogram: 36 1 0 0 0 1 1 0 0 1

Total # of neighbors = 46
Ave neighs/atom = 0.234694
Neighbor list builds = 3665
Dangerous builds = 1
write_dump all custom dump.atom_info_ac_* id type x y z radius vx vy vz density #
run 123456
Setting up run at Fri Nov 25 04:17:42 2022

Memory usage per processor = 958.583 Mbytes
    Step    Atoms         KinEng            CPU 
 8395010      196      0.2308241              0 
 8518466      196     0.46120048       1167.365 
Loop time of 1167.37 on 40 procs for 123456 steps with 196 atoms, finish time Fri Nov 25 04:37:09 2022


Pair  time (%) = 0.228655 (0.0195873)
Neigh time (%) = 0.667463 (0.0571768)
Comm  time (%) = 1.4406 (0.123406)
Outpt time (%) = 0.000196526 (1.6835e-05)
Other time (%) = 1165.03 (99.7998)

Nlocal:    4.9 ave 65 max 0 min
Histogram: 35 1 1 0 1 0 0 0 0 2
Nghost:    2.9 ave 35 max 0 min
Histogram: 36 0 0 0 0 1 0 1 0 2
Neighs:    1.05 ave 19 max 0 min
Histogram: 37 0 0 0 0 2 0 0 0 1

Total # of neighbors = 42
Ave neighs/atom = 0.214286
Neighbor list builds = 3688
Dangerous builds = 0
write_dump all custom dump.atom_info_ac_* id type x y z radius vx vy vz density #
run 123456
Setting up run at Fri Nov 25 04:37:09 2022

Memory usage per processor = 958.583 Mbytes
    Step    Atoms         KinEng            CPU 
 8518466      196     0.46120048              0 
 8641922      194     0.27092037      1163.0514 
Loop time of 1163.05 on 40 procs for 123456 steps with 194 atoms, finish time Fri Nov 25 04:56:32 2022


Pair  time (%) = 0.230388 (0.019809)
Neigh time (%) = 0.693379 (0.0596173)
Comm  time (%) = 1.62289 (0.139537)
Outpt time (%) = 0.0111503 (0.000958713)
Other time (%) = 1160.49 (99.7801)

Nlocal:    4.85 ave 66 max 0 min
Histogram: 35 1 0 2 0 0 0 0 0 2
Nghost:    3.125 ave 37 max 0 min
Histogram: 36 0 0 0 0 0 1 1 1 1
Neighs:    1 ave 18 max 0 min
Histogram: 36 1 0 0 0 1 1 0 0 1

Total # of neighbors = 40
Ave neighs/atom = 0.206186
Neighbor list builds = 3986
Dangerous builds = 0
write_dump all custom dump.atom_info_ac_* id type x y z radius vx vy vz density #
run 123456
Setting up run at Fri Nov 25 04:56:32 2022

Memory usage per processor = 958.583 Mbytes
    Step    Atoms         KinEng            CPU 
 8641922      194     0.27092037              0 
 8765378      193      0.6717157      1182.1874 
Loop time of 1182.19 on 40 procs for 123456 steps with 193 atoms, finish time Fri Nov 25 05:16:15 2022


Pair  time (%) = 0.230327 (0.0194831)
Neigh time (%) = 1.22298 (0.10345)
Comm  time (%) = 2.42627 (0.205235)
Outpt time (%) = 0.000252387 (2.13492e-05)
Other time (%) = 1178.31 (99.6718)

Nlocal:    4.825 ave 66 max 0 min
Histogram: 35 1 1 1 0 0 0 0 0 2
Nghost:    3.025 ave 37 max 0 min
Histogram: 36 0 0 0 0 0 1 2 0 1
Neighs:    0.925 ave 15 max 0 min
Histogram: 37 0 0 0 0 0 1 1 0 1

Total # of neighbors = 37
Ave neighs/atom = 0.19171
Neighbor list builds = 6828
Dangerous builds = 1
write_dump all custom dump.atom_info_ac_* id type x y z radius vx vy vz density #
run 123456
Setting up run at Fri Nov 25 05:16:15 2022

Memory usage per processor = 958.583 Mbytes
    Step    Atoms         KinEng            CPU 
 8765378      193      0.6717157              0 
 8888834      191     0.65623699      1183.6697 
Loop time of 1183.67 on 40 procs for 123456 steps with 191 atoms, finish time Fri Nov 25 05:35:58 2022


Pair  time (%) = 0.235498 (0.0198956)
Neigh time (%) = 1.41115 (0.119219)
Comm  time (%) = 3.77628 (0.319032)
Outpt time (%) = 0.000330775 (2.79448e-05)
Other time (%) = 1178.25 (99.5418)

Nlocal:    4.775 ave 66 max 0 min
Histogram: 36 0 0 1 1 0 0 0 1 1
Nghost:    3.1 ave 41 max 0 min
Histogram: 36 0 0 0 0 1 1 1 0 1
Neighs:    0.925 ave 15 max 0 min
Histogram: 37 0 0 0 0 0 1 1 0 1

Total # of neighbors = 37
Ave neighs/atom = 0.193717
Neighbor list builds = 7976
Dangerous builds = 277
write_dump all custom dump.atom_info_ac_* id type x y z radius vx vy vz density #
run 123456
Setting up run at Fri Nov 25 05:35:58 2022

Memory usage per processor = 958.583 Mbytes
    Step    Atoms         KinEng            CPU 
 8888834      191     0.65623699              0 
 9012290      189     0.73212208      1187.0291 
Loop time of 1187.03 on 40 procs for 123456 steps with 189 atoms, finish time Fri Nov 25 05:55:45 2022


Pair  time (%) = 0.235559 (0.0198444)
Neigh time (%) = 1.44464 (0.121702)
Comm  time (%) = 3.06609 (0.258299)
Outpt time (%) = 0.00044219 (3.72518e-05)
Other time (%) = 1182.28 (99.6001)

Nlocal:    4.725 ave 64 max 0 min
Histogram: 36 0 1 0 1 0 0 0 0 2
Nghost:    3.15 ave 40 max 0 min
Histogram: 36 0 0 0 0 0 2 1 0 1
Neighs:    0.825 ave 12 max 0 min
Histogram: 37 0 0 0 0 0 0 1 0 2

Total # of neighbors = 33
Ave neighs/atom = 0.174603
Neighbor list builds = 8264
Dangerous builds = 455
write_dump all custom dump.atom_info_ac_* id type x y z radius vx vy vz density #
run 123456
Setting up run at Fri Nov 25 05:55:45 2022

Memory usage per processor = 958.583 Mbytes
    Step    Atoms         KinEng            CPU 
 9012290      189     0.73212208              0 
 9135746      187     0.70302958      1187.7889 
Loop time of 1187.79 on 40 procs for 123456 steps with 187 atoms, finish time Fri Nov 25 06:15:33 2022


Pair  time (%) = 0.234685 (0.0197582)
Neigh time (%) = 1.41096 (0.118789)
Comm  time (%) = 2.70534 (0.227762)
Outpt time (%) = 0.00026578 (2.23761e-05)
Other time (%) = 1183.44 (99.6337)

Nlocal:    4.675 ave 63 max 0 min
Histogram: 35 1 0 1 1 0 0 0 0 2
Nghost:    3.175 ave 38 max 0 min
Histogram: 36 0 0 0 0 0 1 2 0 1
Neighs:    0.825 ave 12 max 0 min
Histogram: 37 0 0 0 0 0 0 1 0 2

Total # of neighbors = 33
Ave neighs/atom = 0.176471
Neighbor list builds = 7866
Dangerous builds = 40
write_dump all custom dump.atom_info_ac_* id type x y z radius vx vy vz density #
run 123456
Setting up run at Fri Nov 25 06:15:33 2022

Memory usage per processor = 958.583 Mbytes
    Step    Atoms         KinEng            CPU 
 9135746      187     0.70302958              0 
 9259202      185     0.65610604      1191.5012 
Loop time of 1191.5 on 40 procs for 123456 steps with 185 atoms, finish time Fri Nov 25 06:35:25 2022


Pair  time (%) = 0.236786 (0.0198729)
Neigh time (%) = 1.54685 (0.129823)
Comm  time (%) = 2.9799 (0.250097)
Outpt time (%) = 0.000163574 (1.37284e-05)
Other time (%) = 1186.74 (99.6002)

Nlocal:    4.625 ave 61 max 0 min
Histogram: 36 0 0 1 1 0 0 0 0 2
Nghost:    3.1 ave 37 max 0 min
Histogram: 36 0 0 0 0 0 0 2 1 1
Neighs:    0.8 ave 11 max 0 min
Histogram: 36 1 0 0 0 0 0 0 1 2

Total # of neighbors = 32
Ave neighs/atom = 0.172973
Neighbor list builds = 8611
Dangerous builds = 1
write_dump all custom dump.atom_info_ac_* id type x y z radius vx vy vz density #
run 123456
Setting up run at Fri Nov 25 06:35:25 2022

Memory usage per processor = 958.583 Mbytes
    Step    Atoms         KinEng            CPU 
 9259202      185     0.65610604              0 
 9382658      183     0.73570494      1192.0764 
Loop time of 1192.08 on 40 procs for 123456 steps with 183 atoms, finish time Fri Nov 25 06:55:17 2022


Pair  time (%) = 0.239955 (0.0201292)
Neigh time (%) = 1.59225 (0.133569)
Comm  time (%) = 3.07568 (0.25801)
Outpt time (%) = 0.00236943 (0.000198765)
Other time (%) = 1187.17 (99.5881)

Nlocal:    4.575 ave 60 max 0 min
Histogram: 36 0 0 1 1 0 0 0 0 2
Nghost:    3.025 ave 35 max 0 min
Histogram: 36 0 0 0 0 0 1 0 2 1
Neighs:    0.75 ave 11 max 0 min
Histogram: 36 1 0 0 0 0 0 1 1 1

Total # of neighbors = 30
Ave neighs/atom = 0.163934
Neighbor list builds = 8840
Dangerous builds = 0
write_dump all custom dump.atom_info_ac_* id type x y z radius vx vy vz density #
run 123456
Setting up run at Fri Nov 25 06:55:17 2022

Memory usage per processor = 958.583 Mbytes
    Step    Atoms         KinEng            CPU 
 9382658      183     0.73570494              0 
 9506114      181     0.49557918      1185.9273 
Loop time of 1185.93 on 40 procs for 123456 steps with 181 atoms, finish time Fri Nov 25 07:15:03 2022


Pair  time (%) = 0.236087 (0.0199073)
Neigh time (%) = 1.31482 (0.110868)
Comm  time (%) = 2.77689 (0.234154)
Outpt time (%) = 0.000465104 (3.92186e-05)
Other time (%) = 1181.6 (99.635)

Nlocal:    4.525 ave 60 max 0 min
Histogram: 34 2 1 0 1 0 0 0 0 2
Nghost:    3.025 ave 35 max 0 min
Histogram: 36 0 0 0 0 0 1 0 2 1
Neighs:    0.75 ave 11 max 0 min
Histogram: 36 1 0 0 0 0 0 1 1 1

Total # of neighbors = 30
Ave neighs/atom = 0.165746
Neighbor list builds = 7375
Dangerous builds = 154
write_dump all custom dump.atom_info_ac_* id type x y z radius vx vy vz density #
run 123456
Setting up run at Fri Nov 25 07:15:03 2022

Memory usage per processor = 958.583 Mbytes
    Step    Atoms         KinEng            CPU 
 9506114      181     0.49557918              0 
 9629570      180     0.61577787      1175.1229 
Loop time of 1175.12 on 40 procs for 123456 steps with 180 atoms, finish time Fri Nov 25 07:34:38 2022


Pair  time (%) = 0.233592 (0.0198781)
Neigh time (%) = 0.995081 (0.0846787)
Comm  time (%) = 1.89626 (0.161367)
Outpt time (%) = 0.000192703 (1.63985e-05)
Other time (%) = 1172 (99.7341)

Nlocal:    4.5 ave 60 max 0 min
Histogram: 36 0 0 1 1 0 0 0 0 2
Nghost:    2.75 ave 32 max 0 min
Histogram: 36 0 0 0 0 0 1 0 1 2
Neighs:    0.75 ave 11 max 0 min
Histogram: 36 0 0 1 0 0 1 1 0 1

Total # of neighbors = 30
Ave neighs/atom = 0.166667
Neighbor list builds = 5503
Dangerous builds = 0
write_dump all custom dump.atom_info_ac_* id type x y z radius vx vy vz density #
run 123456
Setting up run at Fri Nov 25 07:34:38 2022

Memory usage per processor = 958.583 Mbytes
    Step    Atoms         KinEng            CPU 
 9629570      180     0.61577787              0 
 9753026      180     0.47830229      1171.0733 
Loop time of 1171.07 on 40 procs for 123456 steps with 180 atoms, finish time Fri Nov 25 07:54:09 2022


Pair  time (%) = 0.230526 (0.019685)
Neigh time (%) = 0.859166 (0.0733657)
Comm  time (%) = 1.6891 (0.144235)
Outpt time (%) = 0.000243172 (2.07649e-05)
Other time (%) = 1168.29 (99.7627)

Nlocal:    4.5 ave 59 max 0 min
Histogram: 35 1 0 2 0 0 0 0 0 2
Nghost:    2.725 ave 33 max 0 min
Histogram: 36 0 0 0 0 1 0 0 1 2
Neighs:    0.775 ave 13 max 0 min
Histogram: 36 0 1 0 0 1 1 0 0 1

Total # of neighbors = 31
Ave neighs/atom = 0.172222
Neighbor list builds = 4748
Dangerous builds = 0
write_dump all custom dump.atom_info_ac_* id type x y z radius vx vy vz density #
run 123456
Setting up run at Fri Nov 25 07:54:09 2022

Memory usage per processor = 958.583 Mbytes
    Step    Atoms         KinEng            CPU 
 9753026      180     0.47830229              0 
 9876482      177     0.40288175      1179.8887 
Loop time of 1179.89 on 40 procs for 123456 steps with 177 atoms, finish time Fri Nov 25 08:13:49 2022


Pair  time (%) = 0.230429 (0.0195297)
Neigh time (%) = 1.03307 (0.0875565)
Comm  time (%) = 1.96844 (0.166833)
Outpt time (%) = 0.000493647 (4.18385e-05)
Other time (%) = 1176.66 (99.726)

Nlocal:    4.425 ave 59 max 0 min
Histogram: 35 1 0 2 0 0 0 0 0 2
Nghost:    2.65 ave 30 max 0 min
Histogram: 36 0 0 0 0 0 1 0 0 3
Neighs:    0.75 ave 13 max 0 min
Histogram: 36 0 1 0 0 2 0 0 0 1

Total # of neighbors = 30
Ave neighs/atom = 0.169492
Neighbor list builds = 5767
Dangerous builds = 2
write_dump all custom dump.atom_info_ac_* id type x y z radius vx vy vz density #
run 123456
Setting up run at Fri Nov 25 08:13:49 2022

Memory usage per processor = 958.583 Mbytes
    Step    Atoms         KinEng            CPU 
[...]
Loop time of 1159.02 on 40 procs for 123456 steps with 79 atoms, finish time Sat Nov 26 16:47:06 2022


Pair  time (%) = 0.217789 (0.0187908)
Neigh time (%) = 0.660926 (0.0570245)
Comm  time (%) = 1.64089 (0.141576)
Outpt time (%) = 0.000181535 (1.56628e-05)
Other time (%) = 1156.5 (99.7826)

Nlocal:    1.975 ave 35 max 0 min
Histogram: 36 1 1 0 0 0 0 1 0 1
Nghost:    1.15 ave 16 max 0 min
Histogram: 36 0 0 1 0 0 1 0 1 1
Neighs:    0.125 ave 2 max 0 min
Histogram: 37 0 0 0 0 1 0 0 0 2

Total # of neighbors = 5
Ave neighs/atom = 0.0632911
Neighbor list builds = 3812
Dangerous builds = 314
write_dump all custom dump.atom_info_ac_* id type x y z radius vx vy vz density #
run 123456
Setting up run at Sat Nov 26 16:47:07 2022

Memory usage per processor = 958.583 Mbytes
    Step    Atoms         KinEng            CPU 
22222160       79    0.091353347              0 
22345616       79    0.076535863      1159.9524 
Loop time of 1159.95 on 40 procs for 123456 steps with 79 atoms, finish time Sat Nov 26 17:06:27 2022


Pair  time (%) = 0.215931 (0.0186155)
Neigh time (%) = 0.47304 (0.040781)
Comm  time (%) = 1.21899 (0.10509)
Outpt time (%) = 0.000220349 (1.89964e-05)
Other time (%) = 1158.04 (99.8355)

Nlocal:    1.975 ave 35 max 0 min
Histogram: 36 1 1 0 0 0 0 1 0 1
Nghost:    1.275 ave 19 max 0 min
Histogram: 36 0 0 1 0 1 0 1 0 1
Neighs:    0.125 ave 2 max 0 min
Histogram: 37 0 0 0 0 1 0 0 0 2

Total # of neighbors = 5
Ave neighs/atom = 0.0632911
Neighbor list builds = 2598
Dangerous builds = 0
write_dump all custom dump.atom_info_ac_* id type x y z radius vx vy vz density #
run 123456
Setting up run at Sat Nov 26 17:06:27 2022

Memory usage per processor = 958.583 Mbytes
    Step    Atoms         KinEng            CPU 
22345616       79    0.076535863              0 
22469072       77    0.083461502       1168.112 
Loop time of 1168.11 on 40 procs for 123456 steps with 77 atoms, finish time Sat Nov 26 17:25:55 2022


Pair  time (%) = 0.218697 (0.0187223)
Neigh time (%) = 0.73834 (0.063208)
Comm  time (%) = 1.7579 (0.150491)
Outpt time (%) = 0.000544296 (4.65962e-05)
Other time (%) = 1165.4 (99.7675)

Nlocal:    1.925 ave 33 max 0 min
Histogram: 36 2 0 0 0 0 0 0 1 1
Nghost:    1.25 ave 16 max 0 min
Histogram: 36 0 0 0 1 0 1 0 0 2
Neighs:    0.1 ave 1 max 0 min
Histogram: 36 0 0 0 0 0 0 0 0 4

Total # of neighbors = 4
Ave neighs/atom = 0.0519481
Neighbor list builds = 4243
Dangerous builds = 236
write_dump all custom dump.atom_info_ac_* id type x y z radius vx vy vz density #
run 123456
Setting up run at Sat Nov 26 17:25:55 2022

Memory usage per processor = 958.583 Mbytes
    Step    Atoms         KinEng            CPU 
22469072       77    0.083461502              0 
22592528       77     0.07307913      1168.3263 
Loop time of 1168.33 on 40 procs for 123456 steps with 77 atoms, finish time Sat Nov 26 17:45:23 2022


Pair  time (%) = 0.219551 (0.0187919)
Neigh time (%) = 0.756302 (0.0647338)
Comm  time (%) = 1.28162 (0.109697)
Outpt time (%) = 0.000200289 (1.71433e-05)
Other time (%) = 1166.07 (99.8068)

Nlocal:    1.925 ave 32 max 0 min
Histogram: 36 1 1 0 0 0 0 0 1 1
Nghost:    1.2 ave 16 max 0 min
Histogram: 36 0 0 0 1 0 1 0 0 2
Neighs:    0.075 ave 1 max 0 min
Histogram: 37 0 0 0 0 0 0 0 0 3

Total # of neighbors = 3
Ave neighs/atom = 0.038961
Neighbor list builds = 4159
Dangerous builds = 0
write_dump all custom dump.atom_info_ac_* id type x y z radius vx vy vz density #
run 123456
Setting up run at Sat Nov 26 17:45:23 2022

Memory usage per processor = 958.583 Mbytes
    Step    Atoms         KinEng            CPU 
22592528       77     0.07307913              0 
22715984       77     0.13902036      1166.0996 
Loop time of 1166.1 on 40 procs for 123456 steps with 77 atoms, finish time Sat Nov 26 18:04:49 2022


Pair  time (%) = 0.218402 (0.0187292)
Neigh time (%) = 0.704069 (0.0603781)
Comm  time (%) = 1.16789 (0.100153)
Outpt time (%) = 0.000220985 (1.89508e-05)
Other time (%) = 1164.01 (99.8207)

Nlocal:    1.925 ave 32 max 0 min
Histogram: 36 2 0 0 0 0 0 0 1 1
Nghost:    1.275 ave 15 max 0 min
Histogram: 36 0 0 0 0 1 1 0 0 2
Neighs:    0.1 ave 2 max 0 min
Histogram: 37 0 0 0 0 2 0 0 0 1

Total # of neighbors = 4
Ave neighs/atom = 0.0519481
Neighbor list builds = 3864
Dangerous builds = 0
write_dump all custom dump.atom_info_ac_* id type x y z radius vx vy vz density #
run 123456
Setting up run at Sat Nov 26 18:04:49 2022

Memory usage per processor = 958.583 Mbytes
    Step    Atoms         KinEng            CPU 
22715984       77     0.13902036              0 
22839440       77     0.18398002      1161.2688 
Loop time of 1161.27 on 40 procs for 123456 steps with 77 atoms, finish time Sat Nov 26 18:24:11 2022


Pair  time (%) = 0.219525 (0.0189039)
Neigh time (%) = 0.700877 (0.0603544)
Comm  time (%) = 1.20005 (0.10334)
Outpt time (%) = 0.000195973 (1.68758e-05)
Other time (%) = 1159.15 (99.8174)

Nlocal:    1.925 ave 33 max 0 min
Histogram: 36 1 1 0 0 0 0 1 0 1
Nghost:    1.15 ave 14 max 0 min
Histogram: 36 0 0 0 0 0 2 0 1 1
Neighs:    0.125 ave 3 max 0 min
Histogram: 37 0 0 2 0 0 0 0 0 1

Total # of neighbors = 5
Ave neighs/atom = 0.0649351
Neighbor list builds = 3832
Dangerous builds = 0
write_dump all custom dump.atom_info_ac_* id type x y z radius vx vy vz density #
run 123456
Setting up run at Sat Nov 26 18:24:11 2022

Memory usage per processor = 958.583 Mbytes
    Step    Atoms         KinEng            CPU 
22839440       77     0.18398002              0 
22962896       77     0.17762606      1163.3173 
Loop time of 1163.32 on 40 procs for 123456 steps with 77 atoms, finish time Sat Nov 26 18:43:34 2022


Pair  time (%) = 0.217616 (0.0187065)
Neigh time (%) = 0.652886 (0.0561228)
Comm  time (%) = 1.14382 (0.0983244)
Outpt time (%) = 0.000521449 (4.48243e-05)
Other time (%) = 1161.3 (99.8268)

Nlocal:    1.925 ave 32 max 0 min
Histogram: 36 2 0 0 0 0 0 0 1 1
Nghost:    1.125 ave 14 max 0 min
Histogram: 36 0 0 0 0 1 1 0 0 2
Neighs:    0.125 ave 3 max 0 min
Histogram: 37 0 0 2 0 0 0 0 0 1

Total # of neighbors = 5
Ave neighs/atom = 0.0649351
Neighbor list builds = 3580
Dangerous builds = 0
write_dump all custom dump.atom_info_ac_* id type x y z radius vx vy vz density #
run 123456
Setting up run at Sat Nov 26 18:43:34 2022

Memory usage per processor = 958.583 Mbytes
    Step    Atoms         KinEng            CPU 
22962896       77     0.17762606              0 
23086352       77        0.11095      1179.8517 
Loop time of 1179.85 on 40 procs for 123456 steps with 77 atoms, finish time Sat Nov 26 19:03:14 2022


Pair  time (%) = 0.218402 (0.0185109)
Neigh time (%) = 0.639106 (0.0541684)
Comm  time (%) = 1.06078 (0.0899082)
Outpt time (%) = 0.0093592 (0.000793252)
Other time (%) = 1177.92 (99.8366)

Nlocal:    1.925 ave 34 max 0 min
Histogram: 36 1 1 0 0 0 0 1 0 1
Nghost:    1.05 ave 14 max 0 min
Histogram: 36 0 0 0 0 1 1 0 1 1
Neighs:    0.125 ave 3 max 0 min
Histogram: 37 0 0 2 0 0 0 0 0 1

Total # of neighbors = 5
Ave neighs/atom = 0.0649351
Neighbor list builds = 3487
Dangerous builds = 0
write_dump all custom dump.atom_info_ac_* id type x y z radius vx vy vz density #
run 123456
Setting up run at Sat Nov 26 19:03:14 2022

Memory usage per processor = 958.583 Mbytes
    Step    Atoms         KinEng            CPU 
23086352       77        0.11095              0 
23209808       77    0.069674542      1185.2918 
Loop time of 1185.29 on 40 procs for 123456 steps with 77 atoms, finish time Sat Nov 26 19:22:59 2022


Pair  time (%) = 0.217528 (0.0183523)
Neigh time (%) = 0.528706 (0.0446056)
Comm  time (%) = 0.926738 (0.0781865)
Outpt time (%) = 0.000218509 (1.8435e-05)
Other time (%) = 1183.62 (99.8588)

Nlocal:    1.925 ave 32 max 0 min
Histogram: 36 1 1 0 0 0 0 1 0 1
Nghost:    1.1 ave 14 max 0 min
Histogram: 36 0 0 0 1 0 0 1 0 2
Neighs:    0.1 ave 3 max 0 min
Histogram: 38 0 0 1 0 0 0 0 0 1

Total # of neighbors = 4
Ave neighs/atom = 0.0519481
Neighbor list builds = 2892
Dangerous builds = 0
write_dump all custom dump.atom_info_ac_* id type x y z radius vx vy vz density #
run 123456
Setting up run at Sat Nov 26 19:22:59 2022

Memory usage per processor = 958.583 Mbytes
    Step    Atoms         KinEng            CPU 
23209808       77    0.069674542              0 
23333264       77     0.17095362      1159.3292 
Loop time of 1159.33 on 40 procs for 123456 steps with 77 atoms, finish time Sat Nov 26 19:42:19 2022


Pair  time (%) = 0.217203 (0.0187352)
Neigh time (%) = 0.445217 (0.038403)
Comm  time (%) = 0.849049 (0.0732362)
Outpt time (%) = 0.000505233 (4.35797e-05)
Other time (%) = 1157.82 (99.8696)

Nlocal:    1.925 ave 32 max 0 min
Histogram: 36 1 1 0 0 0 0 1 0 1
Nghost:    1.1 ave 14 max 0 min
Histogram: 36 0 0 0 1 0 0 1 0 2
Neighs:    0.05 ave 1 max 0 min
Histogram: 38 0 0 0 0 0 0 0 0 2

Total # of neighbors = 2
Ave neighs/atom = 0.025974
Neighbor list builds = 2431
Dangerous builds = 0
write_dump all custom dump.atom_info_ac_* id type x y z radius vx vy vz density #
run 123456
Setting up run at Sat Nov 26 19:42:19 2022

Memory usage per processor = 958.583 Mbytes
    Step    Atoms         KinEng            CPU 
23333264       77     0.17095362              0 
23456720       77     0.30217241      1236.8444 
Loop time of 1236.85 on 40 procs for 123456 steps with 77 atoms, finish time Sat Nov 26 20:02:56 2022


Pair  time (%) = 0.2152 (0.017399)
Neigh time (%) = 0.435328 (0.0351965)
Comm  time (%) = 0.828167 (0.0669578)
Outpt time (%) = 0.000222895 (1.80212e-05)
Other time (%) = 1235.37 (99.8804)

Nlocal:    1.925 ave 32 max 0 min
Histogram: 36 1 1 0 0 0 0 1 0 1
Nghost:    1.075 ave 13 max 0 min
Histogram: 36 0 0 0 1 0 0 1 0 2
Neighs:    0.05 ave 1 max 0 min
Histogram: 38 0 0 0 0 0 0 0 0 2

Total # of neighbors = 2
Ave neighs/atom = 0.025974
Neighbor list builds = 2375
Dangerous builds = 0
write_dump all custom dump.atom_info_ac_* id type x y z radius vx vy vz density #
run 123456
Setting up run at Sat Nov 26 20:02:56 2022

Memory usage per processor = 958.583 Mbytes
    Step    Atoms         KinEng            CPU 
23456720       77     0.30217241              0 
23580176       77     0.13132492      1162.0163 
Loop time of 1162.02 on 40 procs for 123456 steps with 77 atoms, finish time Sat Nov 26 20:22:18 2022


Pair  time (%) = 0.216803 (0.0186575)
Neigh time (%) = 0.53942 (0.046421)
Comm  time (%) = 1.60936 (0.138497)
Outpt time (%) = 0.000199288 (1.71502e-05)
Other time (%) = 1159.65 (99.7964)

Nlocal:    1.925 ave 32 max 0 min
Histogram: 36 1 1 0 0 0 0 1 0 1
Nghost:    1.1 ave 13 max 0 min
Histogram: 36 0 0 1 0 0 0 1 0 2
Neighs:    0.075 ave 2 max 0 min
Histogram: 38 0 0 0 0 1 0 0 0 1

Total # of neighbors = 3
Ave neighs/atom = 0.038961
Neighbor list builds = 2953
Dangerous builds = 0
write_dump all custom dump.atom_info_ac_* id type x y z radius vx vy vz density #
run 123456
Setting up run at Sat Nov 26 20:22:18 2022

Memory usage per processor = 958.583 Mbytes
    Step    Atoms         KinEng            CPU 
23580176       77     0.13132492              0 
23703632       76     0.11517795      1173.0695 
Loop time of 1173.07 on 40 procs for 123456 steps with 76 atoms, finish time Sat Nov 26 20:41:51 2022


Pair  time (%) = 0.21883 (0.0186545)
Neigh time (%) = 0.955161 (0.0814241)
Comm  time (%) = 2.68633 (0.229)
Outpt time (%) = 0.00048122 (4.10223e-05)
Other time (%) = 1169.21 (99.6709)

Nlocal:    1.9 ave 33 max 0 min
Histogram: 36 1 1 0 0 0 0 1 0 1
Nghost:    1.15 ave 13 max 0 min
Histogram: 35 1 0 1 0 0 0 0 1 2
Neighs:    0.075 ave 2 max 0 min
Histogram: 38 0 0 0 0 1 0 0 0 1

Total # of neighbors = 3
Ave neighs/atom = 0.0394737
Neighbor list builds = 5361
Dangerous builds = 0
write_dump all custom dump.atom_info_ac_* id type x y z radius vx vy vz density #
run 123456
Setting up run at Sat Nov 26 20:41:51 2022

Memory usage per processor = 958.583 Mbytes
    Step    Atoms         KinEng            CPU 
23703632       76     0.11517795              0 
23827088       76    0.082571168      1173.0363 
Loop time of 1173.04 on 40 procs for 123456 steps with 76 atoms, finish time Sat Nov 26 21:01:24 2022


Pair  time (%) = 0.218842 (0.018656)
Neigh time (%) = 0.96759 (0.0824859)
Comm  time (%) = 2.85409 (0.243308)
Outpt time (%) = 0.000265823 (2.26611e-05)
Other time (%) = 1169 (99.6555)

Nlocal:    1.9 ave 32 max 0 min
Histogram: 36 1 1 0 0 0 0 1 0 1
Nghost:    1.225 ave 15 max 0 min
Histogram: 36 0 0 0 1 0 0 1 1 1
Neighs:    0.075 ave 2 max 0 min
Histogram: 38 0 0 0 0 1 0 0 0 1

Total # of neighbors = 3
Ave neighs/atom = 0.0394737
Neighbor list builds = 5315
Dangerous builds = 0
write_dump all custom dump.atom_info_ac_* id type x y z radius vx vy vz density #
run 123456
Setting up run at Sat Nov 26 21:01:24 2022

Memory usage per processor = 958.583 Mbytes
    Step    Atoms         KinEng            CPU 
23827088       76    0.082571168              0 
23950544       76     0.10395436      1187.0614 
Loop time of 1187.06 on 40 procs for 123456 steps with 76 atoms, finish time Sat Nov 26 21:21:11 2022


Pair  time (%) = 0.260007 (0.0219034)
Neigh time (%) = 0.555668 (0.0468104)
Comm  time (%) = 1.49564 (0.125995)
Outpt time (%) = 0.0632278 (0.00532642)
Other time (%) = 1184.69 (99.8)

Nlocal:    1.9 ave 32 max 0 min
Histogram: 36 1 1 0 0 0 0 1 0 1
Nghost:    1.175 ave 14 max 0 min
Histogram: 36 0 0 1 0 0 0 1 0 2
Neighs:    0.05 ave 2 max 0 min
Histogram: 39 0 0 0 0 0 0 0 0 1

Total # of neighbors = 2
Ave neighs/atom = 0.0263158
Neighbor list builds = 2385
Dangerous builds = 0
write_dump all custom dump.atom_info_ac_* id type x y z radius vx vy vz density #
run 123456
Setting up run at Sat Nov 26 21:21:12 2022

Memory usage per processor = 958.583 Mbytes
    Step    Atoms         KinEng            CPU 
23950544       76     0.10395436              0 
24074000       76     0.20302283      1153.9992 
Loop time of 1154 on 40 procs for 123456 steps with 76 atoms, finish time Sat Nov 26 21:40:26 2022


Pair  time (%) = 0.210099 (0.0182061)
Neigh time (%) = 0.409143 (0.0354542)
Comm  time (%) = 1.35904 (0.117767)
Outpt time (%) = 0.000663498 (5.74953e-05)
Other time (%) = 1152.02 (99.8285)

Nlocal:    1.9 ave 32 max 0 min
Histogram: 36 1 1 0 0 0 0 1 0 1
Nghost:    1.125 ave 13 max 0 min
Histogram: 36 0 0 1 0 0 0 0 1 2
Neighs:    0.05 ave 2 max 0 min
Histogram: 39 0 0 0 0 0 0 0 0 1

Total # of neighbors = 2
Ave neighs/atom = 0.0263158
Neighbor list builds = 2233
Dangerous builds = 0
write_dump all custom dump.atom_info_ac_* id type x y z radius vx vy vz density #
run 123456
Setting up run at Sat Nov 26 21:40:26 2022

Memory usage per processor = 958.583 Mbytes
    Step    Atoms         KinEng            CPU 
24074000       76     0.20302283              0 
24197456       76     0.19133593      1158.8037 
Loop time of 1158.8 on 40 procs for 123456 steps with 76 atoms, finish time Sat Nov 26 21:59:45 2022


Pair  time (%) = 0.211733 (0.0182717)
Neigh time (%) = 0.441667 (0.038114)
Comm  time (%) = 1.48672 (0.128298)
Outpt time (%) = 0.000219437 (1.89365e-05)
Other time (%) = 1156.66 (99.8153)

Nlocal:    1.9 ave 33 max 0 min
Histogram: 36 2 0 0 0 0 1 0 0 1
Nghost:    1.05 ave 12 max 0 min
Histogram: 36 0 0 1 0 0 0 0 0 3
Neighs:    0.05 ave 2 max 0 min
Histogram: 39 0 0 0 0 0 0 0 0 1

Total # of neighbors = 2
Ave neighs/atom = 0.0263158
Neighbor list builds = 2426
Dangerous builds = 0
write_dump all custom dump.atom_info_ac_* id type x y z radius vx vy vz density #
run 123456
Setting up run at Sat Nov 26 21:59:45 2022

Memory usage per processor = 958.583 Mbytes
    Step    Atoms         KinEng            CPU 
24197456       76     0.19133593              0 
24320912       74     0.24553425       1161.107 
Loop time of 1161.11 on 40 procs for 123456 steps with 74 atoms, finish time Sat Nov 26 22:19:06 2022


Pair  time (%) = 0.21278 (0.0183256)
Neigh time (%) = 0.5231 (0.0450518)
Comm  time (%) = 1.44633 (0.124565)
Outpt time (%) = 0.000211008 (1.8173e-05)
Other time (%) = 1158.92 (99.812)

Nlocal:    1.85 ave 34 max 0 min
Histogram: 36 2 0 0 0 0 1 0 0 1
Nghost:    1.075 ave 14 max 0 min
Histogram: 36 0 1 0 0 0 0 1 0 2
Neighs:    0.025 ave 1 max 0 min
Histogram: 39 0 0 0 0 0 0 0 0 1

Total # of neighbors = 1
Ave neighs/atom = 0.0135135
Neighbor list builds = 2857
Dangerous builds = 2
write_dump all custom dump.atom_info_ac_* id type x y z radius vx vy vz density #
run 123456
Setting up run at Sat Nov 26 22:19:06 2022

Memory usage per processor = 958.583 Mbytes
    Step    Atoms         KinEng            CPU 
24320912       74     0.24553425              0 
24444368       74      0.1854429      1162.4574 
Loop time of 1162.46 on 40 procs for 123456 steps with 74 atoms, finish time Sat Nov 26 22:38:29 2022


Pair  time (%) = 0.212023 (0.0182392)
Neigh time (%) = 0.54302 (0.0467131)
Comm  time (%) = 0.954954 (0.0821496)
Outpt time (%) = 0.000215951 (1.85772e-05)
Other time (%) = 1160.75 (99.8529)

Nlocal:    1.85 ave 33 max 0 min
Histogram: 35 3 0 0 0 0 1 0 0 1
Nghost:    1.075 ave 15 max 0 min
Histogram: 36 0 1 0 0 0 0 1 1 1
Neighs:    0 ave 0 max 0 min
Histogram: 40 0 0 0 0 0 0 0 0 0

Total # of neighbors = 0
Ave neighs/atom = 0
Neighbor list builds = 2964
Dangerous builds = 0
write_dump all custom dump.atom_info_ac_* id type x y z radius vx vy vz density #
run 123456
Setting up run at Sat Nov 26 22:38:29 2022

Memory usage per processor = 958.583 Mbytes
    Step    Atoms         KinEng            CPU 
24444368       74      0.1854429              0 
24567824       73     0.18944838      1162.6461 
Loop time of 1162.66 on 40 procs for 123456 steps with 73 atoms, finish time Sat Nov 26 22:57:51 2022


Pair  time (%) = 0.213006 (0.0183207)
Neigh time (%) = 0.55594 (0.0478164)
Comm  time (%) = 0.994822 (0.0855645)
Outpt time (%) = 0.0114634 (0.000985968)
Other time (%) = 1160.88 (99.8473)

Nlocal:    1.825 ave 33 max 0 min
Histogram: 36 2 0 0 0 0 1 0 0 1
Nghost:    1.05 ave 14 max 0 min
Histogram: 36 0 1 0 0 0 0 1 0 2
Neighs:    0 ave 0 max 0 min
Histogram: 40 0 0 0 0 0 0 0 0 0

Total # of neighbors = 0
Ave neighs/atom = 0
Neighbor list builds = 3051
Dangerous builds = 1
write_dump all custom dump.atom_info_ac_* id type x y z radius vx vy vz density #
run 123456
Setting up run at Sat Nov 26 22:57:51 2022

Memory usage per processor = 958.583 Mbytes
    Step    Atoms         KinEng            CPU 
24567824       73     0.18944838              0 
24691280       73       0.278395      1162.9267 
Loop time of 1162.93 on 40 procs for 123456 steps with 73 atoms, finish time Sat Nov 26 23:17:14 2022


Pair  time (%) = 0.214747 (0.018466)
Neigh time (%) = 0.74062 (0.0636859)
Comm  time (%) = 1.24054 (0.106674)
Outpt time (%) = 0.000281458 (2.42026e-05)
Other time (%) = 1160.73 (99.8112)

Nlocal:    1.825 ave 34 max 0 min
Histogram: 36 2 0 0 0 1 0 0 0 1
Nghost:    1.025 ave 15 max 0 min
Histogram: 36 0 0 1 0 0 1 1 0 1
Neighs:    0.025 ave 1 max 0 min
Histogram: 39 0 0 0 0 0 0 0 0 1

Total # of neighbors = 1
Ave neighs/atom = 0.0136986
Neighbor list builds = 4053
Dangerous builds = 0
write_dump all custom dump.atom_info_ac_* id type x y z radius vx vy vz density #
run 78
Setting up run at Sat Nov 26 23:17:14 2022

Memory usage per processor = 958.583 Mbytes
    Step    Atoms         KinEng            CPU 
24691280       73       0.278395              0 
24691358       73     0.27840883      0.7112262 
Loop time of 0.711249 on 40 procs for 78 steps with 73 atoms, finish time Sat Nov 26 23:17:15 2022


Pair  time (%) = 0.000133131 (0.018718)
Neigh time (%) = 0.000360388 (0.0506697)
Comm  time (%) = 0.000542414 (0.0762622)
Outpt time (%) = 0.000183922 (0.0258591)
Other time (%) = 0.710029 (99.8285)

Nlocal:    1.825 ave 34 max 0 min
Histogram: 36 2 0 0 0 1 0 0 0 1
Nghost:    1.025 ave 15 max 0 min
Histogram: 36 0 0 1 0 0 1 1 0 1
Neighs:    0.025 ave 1 max 0 min
Histogram: 39 0 0 0 0 0 0 0 0 1

Total # of neighbors = 1
Ave neighs/atom = 0.0136986
Neighbor list builds = 2
Dangerous builds = 0
write_dump all custom dump.atom_info_ac_* id type x y z radius vx vy vz density #
