ITEM: TIMESTEP
12654283
ITEM: NUMBER OF ATOMS
3351
ITEM: BOX BOUNDS ff ff ff
-0.15 0.15
-0.15 0.15
-0.15 0.15
ITEM: ATOMS id type x y z radius vx vy vz density 
3440 1 -0.0614161 -0.138479 -0.0307312 0.000423 -140.573 -3.37576 281.743 2650 
104 1 -0.00317754 -0.0418039 -0.0688848 4.2e-05 -20.3566 -4.60932 0.938998 2650 
2594 1 -0.00233278 -0.0345689 -0.0688445 0.000116 -22.4816 -4.22109 0.761784 2650 
3759 1 -0.00345642 -0.0603947 -0.06849 0.000423 -30.3958 0.427228 1.53388 2650 
1275 1 -0.00588746 -0.0563161 -0.0686076 0.000116 -22.2822 -9.82122 3.42724 2650 
2446 1 -0.000288274 -0.0496226 -0.0685766 0.000423 -30.7913 1.77601 0.129552 2650 
2666 1 -0.00134453 -0.047005 -0.0685639 0.000423 -24.1156 1.3774 0.472899 2650 
4113 1 -0.0115773 -0.0464111 -0.0679042 0.000116 -47.1486 3.38651 8.03855 2650 
1642 1 -0.0120563 -0.0334319 -0.0678959 4.2e-05 -28.452 0.986014 5.05225 2650 
580 1 -0.00036585 -0.0207189 -0.0682424 0.000423 -18.6167 -9.15589 11.9573 2650 
1082 1 -0.00693614 -0.0155412 -0.068533 0.000116 -0.20913 -0.461029 0.0122597 2650 
1444 1 -0.00684286 -0.0141666 -0.068235 0.000423 -13.4549 1.19699 1.34043 2650 
2987 1 -0.00410042 -0.0135749 -0.0684543 0.000423 -9.93354 0.297775 0.592632 2650 
2976 1 -0.000963521 -0.00588647 -0.0683374 0.000656 -5.9088 1.33558 0.00438553 2650 
3581 1 -0.00544239 -0.000975336 -0.0686577 0.000116 -20.3586 -2.55176 2.05376 2650 
3648 1 -0.013076 -0.0623438 -0.0672771 0.000423 -22.3144 0.646243 4.49608 2650 
1150 1 -0.0117498 -0.0619831 -0.0673228 0.000423 -22.9035 -0.560494 6.40809 2650 
696 1 -0.0132161 -0.0596871 -0.0672915 0.000423 -18.0482 -1.00508 3.54506 2650 
2131 1 -0.0121635 -0.053957 -0.0674917 0.000423 -19.6029 3.05942 3.59654 2650 
2489 1 -0.00376279 -0.0498532 -0.0674963 0.000116 -28.5773 -2.73343 -7.1915 2650 
3767 1 -0.0134081 -0.0382392 -0.0672535 0.000423 -21.3058 4.89447 4.24764 2650 
4110 1 -0.00997329 -0.00650937 -0.067559 0.000423 -10.1351 2.67043 -0.175329 2650 
3530 1 -0.0112929 -0.00419428 -0.0676394 0.000423 -6.88223 -2.16291 1.12898 2650 
359 1 -0.0123905 -0.00102718 -0.0674285 0.000423 -10.8831 -1.20532 2.08085 2650 
3419 1 -0.015191 -0.0623008 -0.0668731 0.000423 -10.9287 -4.12282 2.5003 2650 
2509 1 -0.0158836 -0.0612546 -0.0666625 0.000116 -23.7071 2.71837 2.23688 2650 
4173 1 -0.0151901 -0.0566107 -0.0666346 0.000656 -19.7295 0.413678 4.48928 2650 
3237 1 -0.0160437 -0.03094 -0.066674 0.000423 -13.1846 0.807347 3.17825 2650 
3156 1 -0.0064298 -0.0155043 -0.0665173 0.000116 -11.3845 -2.12585 4.09618 2650 
4249 1 -0.0195566 -0.0559808 -0.0653108 0.000116 -109.134 77.7592 32.7159 2650 
1845 1 -0.0212017 -0.054708 -0.06554 0.000116 -18.8446 2.4127 6.09609 2650 
2862 1 -0.0194375 -0.033333 -0.0655217 0.000656 -14.0216 -0.50573 4.15826 2650 
1971 1 -0.0190543 -0.0332968 -0.0662732 4.2e-05 -12.8072 -6.5621 3.65274 2650 
1502 1 -0.0228495 -0.0625005 -0.0649841 0.000116 -25.5172 0.793596 8.91257 2650 
3331 1 -0.0219906 -0.0581551 -0.0649556 0.000423 -20.3107 -0.678743 6.87614 2650 
3094 1 -0.0223646 -0.0528591 -0.0648277 0.000423 -19.0687 5.13956 6.57868 2650 
200 1 -0.02175 -0.0529632 -0.06536 0.000116 -17.8715 3.00064 5.9792 2650 
2129 1 -0.0219039 -0.0349085 -0.0649848 0.000423 -20.4586 2.76111 6.89579 2650 
2866 1 -0.0213373 -0.0261549 -0.0649284 0.000656 -21.7433 0.797977 7.14442 2650 
797 1 -0.0217825 -0.0167354 -0.0650256 0.000423 -15.6433 -3.30851 5.24023 2650 
2771 1 -0.0234428 -0.0577501 -0.0644456 0.000423 -13.882 -3.70926 5.04191 2650 
2246 1 -0.0231935 -0.0369297 -0.0645358 0.000423 -17.0198 -1.62113 6.11686 2650 
329 1 -0.025104 -0.0316027 -0.0642261 4.2e-05 -20.4811 -0.559297 8.00615 2650 
2541 1 -0.0240367 -0.00178037 -0.0639787 0.000656 -7.44031 -2.39095 2.74204 2650 
2376 1 -0.0237239 -0.000674072 -0.0646698 0.000116 -14.7115 1.89747 5.40416 2650 
1024 1 -0.0266512 -0.0438779 -0.0631867 0.000423 -25.0914 -1.78286 10.55 2650 
3839 1 -0.0250227 -0.0418882 -0.0630793 0.000656 -20.8086 -2.12988 15.5661 2650 
3110 1 -0.0257809 -0.0245572 -0.0635542 0.000423 -57.5369 -2.93746 23.3353 2650 
3441 1 -0.025967 -0.0233931 -0.0634707 0.000423 -17.9628 4.39409 7.34879 2650 
338 1 -0.000886585 -0.0231864 -0.0638787 0.000656 -26.54 14.7396 -4.12357 2650 
1804 1 -0.0269105 -0.0227845 -0.0630766 0.000423 -23.5171 2.47013 10.0324 2650 
2064 1 -0.0053883 -0.0094821 -0.0634765 0.000116 -9.28354 -3.15458 -11.1798 2650 
377 1 -0.0284212 -0.0596528 -0.0624103 0.000423 -18.4423 1.51593 8.39829 2650 
3378 1 -0.0249167 -0.0468281 -0.0624802 0.000116 -18.653 7.83707 8.61063 2650 
2607 1 -0.0290448 -0.0409388 -0.0624612 0.000116 -14.7923 -3.32609 6.87841 2650 
1798 1 -0.0285694 -0.0268824 -0.0623429 0.000423 -23.6808 0.158541 10.8509 2650 
3737 1 -0.0311984 -0.0495103 -0.0608081 0.000656 -16.1682 1.26779 8.29415 2650 
951 1 -0.032161 -0.0487789 -0.0609147 0.000116 -31.9139 4.31236 16.9116 2650 
1343 1 -0.0104942 -0.0419755 -0.05958 0.000423 -159.706 -5.71779 139.908 2650 
2104 1 -0.0304808 -0.0355301 -0.0614307 0.000423 -13.9482 -6.4446 6.92028 2650 
3118 1 -0.0322936 -0.00771997 -0.0604418 0.000423 -11.4616 8.21637 5.55529 2650 
3968 1 -0.0334756 -0.00286557 -0.0598514 0.000423 -10.4588 -1.04307 5.84972 2650 
4132 1 -0.0361001 -0.048403 -0.0586668 0.000116 -19.3412 1.52998 11.9055 2650 
2043 1 -0.022391 -0.037689 -0.0586123 0.000116 -16.8934 -2.07109 4.78369 2650 
4066 1 -0.0347633 -0.0271908 -0.0587752 0.000656 -13.8307 -7.82713 9.11593 2650 
339 1 -0.0365956 -0.0443913 -0.0577272 0.000656 -26.2755 -1.60057 16.6486 2650 
440 1 -0.0376508 -0.0339025 -0.0577722 4.2e-05 -19.5314 0.754473 12.7284 2650 
2296 1 -0.0366638 -0.0114242 -0.0583161 0.000116 -9.28358 -1.07929 5.83657 2650 
245 1 -0.0366558 -0.00959792 -0.0579586 0.000423 -16.6523 -1.83699 10.5304 2650 
3905 1 -0.038043 -0.0411915 -0.0574259 0.000116 -22.5444 -12.5009 14.9278 2650 
1568 1 -0.0385059 -0.0379028 -0.0567465 0.000423 -16.3591 -3.59935 11.0985 2650 
4206 1 -0.0377302 -0.0278896 -0.0572661 0.000423 -21.8115 -3.12621 14.3664 2650 
3087 1 -0.0381901 -0.0158724 -0.0569594 0.000423 -19.9162 -7.01552 13.3969 2650 
854 1 -0.038623 -0.00418128 -0.0570375 0.000116 -21.7686 -6.63821 14.75 2650 
688 1 -0.0391536 -0.0508935 -0.0563021 0.000423 -19.0626 1.55342 13.2526 2650 
3986 1 -0.0387374 -0.0403126 -0.0565886 0.000423 -15.3451 -8.3092 10.5026 2650 
3532 1 -0.0393321 -0.0165907 -0.0561788 0.000423 -23.4548 -4.62989 16.4156 2650 
1323 1 -0.0386539 -0.0150434 -0.0563651 0.000656 -18.6665 -4.69801 12.7544 2650 
487 1 -0.0378711 -0.0139222 -0.0566068 0.000423 -18.0133 -0.39446 14.2128 2650 
350 1 -0.0407366 -0.0487791 -0.0551675 0.000423 -16.4931 0.326924 12.1751 2650 
2531 1 -0.0392786 -0.011055 -0.0558743 0.000656 -27.4731 6.3559 17.1634 2650 
3289 1 -0.0347012 -0.0105691 -0.0557335 4.2e-05 -0.832053 -0.391292 -1.03695 2650 
4287 1 -0.023846 -0.00614391 -0.0560174 0.000423 -3.72222 -0.20769 -8.75808 2650 
3161 1 -0.042046 -0.0621183 -0.0545632 0.000116 -14.6372 -1.04528 11.2793 2650 
1119 1 -0.042669 -0.0277164 -0.0536864 0.000423 -11.9956 0.215049 9.53116 2650 
3535 1 -0.0430759 -0.0579141 -0.053361 0.000423 -13.4622 -4.54192 10.8636 2650 
1791 1 -0.0435609 -0.0499737 -0.0529669 0.000423 -17.281 2.70666 14.2067 2650 
2681 1 -0.0444822 -0.0421214 -0.0522563 0.000423 -146.955 6.07324 125.102 2650 
3625 1 -0.0428708 -0.00943184 -0.0532304 0.000656 -15.4507 8.07117 12.4367 2650 
1102 1 -0.0441459 -0.00679683 -0.0521778 0.000656 -14.1214 1.20972 11.9401 2650 
4199 1 -0.0451971 -0.0408464 -0.0515791 0.000423 -19.0497 -1.08535 16.689 2650 
2336 1 -0.0449171 -0.0366645 -0.0518222 0.000423 -16.75 4.02596 14.5123 2650 
2318 1 -0.0451019 -0.0217489 -0.0513501 0.000656 -6.91072 -3.67333 6.0627 2650 
1946 1 -0.00567944 -0.00675615 -0.0514428 0.000116 -0.875426 -0.292772 -7.86623 2650 
255 1 -0.0464848 -0.058507 -0.0504211 0.000423 -15.6946 0.30516 14.4634 2650 
3958 1 -0.0453896 -0.0418917 -0.0495101 0.000423 -22.5283 -1.46484 55.28 2650 
3875 1 -0.0472186 -0.0239892 -0.0497332 0.000423 -8.45451 -0.879654 8.02334 2650 
711 1 -0.0285329 -0.00724968 -0.0502384 0.000423 -4.27725 -0.348779 -7.57464 2650 
709 1 -0.0274803 -0.00779031 -0.0501495 0.000423 -4.9958 -4.74298 -6.63836 2650 
1467 1 -0.0477123 -0.060816 -0.0492618 0.000423 -15.6642 -1.22582 15.1652 2650 
596 1 -0.0474288 -0.0574682 -0.0495347 0.000423 -15.9637 0.378055 15.2787 2650 
892 1 -0.0484126 -0.061404 -0.0482491 0.000656 -15.2568 1.13285 15.2994 2650 
3393 1 -0.0489879 -0.0465838 -0.0485325 4.2e-05 -13.2042 1.03556 13.3273 2650 
830 1 -0.0488761 -0.0133095 -0.0485404 0.000116 -13.7306 -5.84799 13.8235 2650 
151 1 -0.0484312 -0.00323092 -0.0485534 0.000423 -7.36133 3.85328 7.3387 2650 
2343 1 -0.0484819 -0.000894908 -0.0485044 0.000423 -13.9119 -0.308748 13.8995 2650 
1742 1 -0.0496746 -0.0207395 -0.0477231 0.000116 -11.6306 -5.24971 12.1044 2650 
913 1 -0.0495348 -0.0112125 -0.0474291 0.000423 -13.5658 -3.05745 14.1903 2650 
2363 1 -0.0494539 -0.00804001 -0.0475127 0.000423 -10.8517 7.2678 11.288 2650 
3770 1 -0.0490405 -0.0474751 -0.0470839 0.000423 -8.18859 1.02798 11.1878 2650 
4338 1 -0.0504597 -0.0399524 -0.0468924 0.000116 -13.4495 -0.680214 14.4706 2650 
996 1 -0.0499646 -0.0284569 -0.0466436 0.000656 -18.4796 -7.57082 19.7857 2650 
1332 1 -0.0498218 -0.0257702 -0.0468001 0.000656 -23.8109 -1.01146 25.335 2650 
2642 1 -0.0494425 -0.0186428 -0.0471962 0.000656 -18.3973 0.538417 19.2628 2650 
2208 1 -0.0500544 -0.016852 -0.0465522 0.000656 -24.9133 -2.43971 26.7671 2650 
3644 1 -0.0502021 -0.0115219 -0.0467236 0.000423 -15.9195 -0.0638648 17.0842 2650 
1297 1 -0.0504793 -0.00196519 -0.0468711 0.000116 -10.1059 -0.992802 10.8822 2650 
3536 1 -0.0506885 -0.00713776 -0.0461956 0.000423 -16.4131 -3.12642 18.0022 2650 
2707 1 -0.0370212 -0.0540102 -0.0448482 0.000116 2.17402 0.990266 -0.769883 2650 
2838 1 -0.0430246 -0.00922874 -0.0446493 0.000116 -6.67224 -0.547903 -6.78562 2650 
1578 1 -0.052593 -0.0586774 -0.0440158 0.000423 -14.8554 3.03309 17.7431 2650 
420 1 -0.0533762 -0.000576306 -0.0435442 0.000116 -14.5955 -0.718947 17.8888 2650 
2711 1 -0.0536968 -0.0116034 -0.0431483 0.000116 -13.46 -4.72999 16.7484 2650 
725 1 -0.0542732 -0.0498019 -0.0424212 0.000116 -14.064 1.81002 17.9911 2650 
3995 1 -0.0541399 -0.00632875 -0.0420977 0.000423 -8.89714 -3.35929 11.4373 2650 
15 1 -0.0538557 -0.00412354 -0.0424597 0.000423 -5.37499 -2.23497 6.81451 2650 
805 1 -0.0545915 -0.0616077 -0.0415129 0.000423 -15.8917 0.822037 20.8903 2650 
3849 1 -0.0549129 -0.028775 -0.0410847 0.000423 -8.84529 1.27508 11.8173 2650 
2610 1 -0.0551047 -0.013492 -0.0413353 0.000116 -10.5109 -3.13209 14.0105 2650 
384 1 -0.0545863 -0.0142041 -0.0415166 0.000423 -4.52952 -1.07868 5.95273 2650 
2455 1 -0.0551369 -0.0378819 -0.0407848 0.000423 -11.8986 4.21791 16.0794 2650 
482 1 -0.0554541 -0.0199282 -0.0403526 0.000423 -11.8324 2.56599 16.2539 2650 
2966 1 -0.0554902 -0.057927 -0.0399103 0.000656 -9.0007 -0.36396 12.5065 2650 
3046 1 -0.0563874 -0.0362124 -0.0395128 0.000116 -8.33153 -10.045 14.8452 2650 
3411 1 -0.05613 -0.0373002 -0.0390081 0.000656 -11.8064 -0.982831 16.9786 2650 
1008 1 -0.0563995 -0.0358286 -0.0390182 0.000423 -9.12564 4.19356 13.1289 2650 
1130 1 -0.0562388 -0.0346061 -0.0392518 0.000423 -10.9017 1.10999 15.6133 2650 
4018 1 -0.0565979 -0.0221828 -0.0392663 0.000116 -12.9463 0.580166 18.6583 2650 
2715 1 -0.0420068 -0.0324638 -0.0384096 0.000116 -7.35146 -2.62995 -6.03292 2650 
3680 1 -0.0572325 -0.0318431 -0.0383357 0.000116 -14.4042 -2.91964 21.5018 2650 
1023 1 -0.0568531 -0.0191781 -0.0383565 0.000423 -9.33602 -0.824295 13.8324 2650 
2755 1 -0.0358632 -0.0460412 -0.0372652 0.000656 -4.81248 -4.80504 -12.2497 2650 
3172 1 -0.0557193 -0.00992348 -0.0375597 0.000116 -1.82042 -0.339941 -1.06554 2650 
3207 1 -0.0575769 -0.00661207 -0.0372602 0.000423 -0.107837 -0.153422 0.166563 2650 
2873 1 -0.0578122 -0.0558144 -0.0368954 0.000423 -7.6132 1.65062 11.9244 2650 
3168 1 -0.0587754 -0.0378622 -0.0359256 0.000116 -12.0764 2.75743 19.755 2650 
2659 1 -0.0501425 -0.00417109 -0.0357436 0.000423 -5.30741 9.58243 5.41189 2650 
3507 1 -0.0598895 -0.0614546 -0.0341837 4.2e-05 -11.0679 -2.09904 19.39 2650 
366 1 -0.05968 -0.0608186 -0.0337944 0.000423 -12.8074 1.55624 22.5823 2650 
2883 1 -0.0600557 -0.0614549 -0.0331227 0.000423 -12.4242 -1.04282 22.5491 2650 
37 1 -0.0600282 -0.0602302 -0.0331706 0.000423 -8.9547 1.20135 16.1987 2650 
4128 1 -0.012056 -0.0567647 -0.0339471 0.000116 -7.06494 2.84242 -8.16395 2650 
3188 1 -0.0596054 -0.00548073 -0.0334579 0.000656 -6.77434 -0.280193 12.0611 2650 
2378 1 -0.0605187 -0.0564952 -0.0329045 0.000116 -9.51489 1.8394 17.498 2650 
3079 1 -0.0606372 -0.0543496 -0.0315536 0.000656 -9.38989 -1.06618 18.0343 2650 
3631 1 -0.0592688 -0.0367047 -0.030984 0.000423 -37.7819 42.5674 86.1336 2650 
3477 1 -0.0610024 -0.035961 -0.0319989 0.000116 -9.61604 -1.72955 18.3298 2650 
2805 1 -0.0609643 -0.0084764 -0.0320714 0.000116 -9.41936 1.0273 17.9031 2650 
3897 1 -0.0458108 -0.0388651 -0.0310985 0.000116 5.13969 38.7977 32.9935 2650 
1203 1 -0.0624543 -0.0542114 -0.0292361 4.2e-05 -9.07052 4.99232 19.3757 2650 
140 1 -0.0613298 -0.0476119 -0.0273527 0.000423 -65.48 -35.2216 124.715 2650 
3833 1 -0.0630507 -0.0327026 -0.0279268 4.2e-05 -14.4631 -16.7298 32.6523 2650 
1217 1 -0.0629106 -0.046705 -0.026741 0.000656 -9.87592 0.877794 23.2213 2650 
902 1 -0.0636182 -0.0430178 -0.0257106 0.000423 -57.2478 -7.48484 141.779 2650 
3454 1 -0.0630331 -0.0166421 -0.0270321 0.000423 -9.73885 0.270608 22.7004 2650 
299 1 -0.0206871 -0.0245101 -0.0265695 0.000116 26.0113 -2.40377 -34.9053 2650 
786 1 -0.0212206 -0.00738541 -0.0264661 0.000423 -2.95709 -0.4406 -3.61538 2650 
2603 1 -0.0639757 -0.0176467 -0.0255417 0.000116 -7.22075 4.88251 18.0842 2650 
150 1 -0.0134947 -0.00569103 -0.0260153 0.000423 -1.89096 -0.329005 -3.31009 2650 
4382 1 -0.0644724 -0.032229 -0.0244664 4.2e-05 -3.9546 -7.70279 10.4205 2650 
2905 1 -0.0639882 -0.00609603 -0.0246865 0.000423 -7.70664 -3.29845 19.9684 2650 
922 1 -0.0189858 -0.00606793 -0.0246078 0.000423 -2.77333 -0.295647 -3.57957 2650 
2793 1 -0.0641771 -0.0538266 -0.0241909 0.000423 -7.28615 1.07637 19.3224 2650 
1356 1 -0.0643507 -0.0106718 -0.0237233 0.000423 -3.98559 5.59133 10.8068 2650 
2900 1 -0.0642794 -0.0031993 -0.0239166 0.000423 -5.20752 1.64691 13.9906 2650 
2329 1 -0.0647064 -0.0567713 -0.0227377 0.000423 -6.82656 -0.820033 19.4196 2650 
4312 1 -0.064616 -0.0507578 -0.0229943 0.000423 -7.8098 1.622 21.9381 2650 
1939 1 -0.0650086 -0.0487555 -0.0227852 0.000116 -8.4284 5.74666 24.0445 2650 
2298 1 -0.0647179 -0.020542 -0.0233804 0.000116 -5.5748 -3.61426 14.3262 2650 
1920 1 -0.0646698 -0.0200068 -0.0228396 0.000423 -4.591 -1.44553 12.8387 2650 
2928 1 -0.0652245 -0.0474979 -0.0221596 0.000116 -7.90463 2.1392 23.2639 2650 
48 1 -0.0649349 -0.0203084 -0.0220751 0.000423 -4.44465 -2.33843 13.2342 2650 
3935 1 -0.0653543 -0.0335953 -0.0217737 0.000116 -4.88371 -8.40676 14.657 2650 
3278 1 -0.000713068 -0.00620283 -0.0220069 0.000116 -0.0567864 -0.335477 -3.0567 2650 
468 1 -0.0652983 -0.0364382 -0.0209797 0.000423 -7.39621 2.40018 23.0119 2650 
2721 1 -0.0655309 -0.0107946 -0.0206863 0.000116 -6.61931 4.32554 17.583 2650 
1352 1 -0.0658563 -0.00200607 -0.0191542 0.000423 -4.60001 -2.06184 15.8101 2650 
2555 1 -0.0661779 -0.0445313 -0.0180179 0.000423 -8.0485 1.88851 29.5508 2650 
2111 1 -0.0661111 -0.00552241 -0.0182553 0.000423 -4.04319 -5.21932 14.6369 2650 
2022 1 -0.0090642 -0.00439702 -0.0183952 0.000423 -1.0253 -0.24041 -1.76649 2650 
371 1 -0.00183231 -0.00458469 -0.0182995 0.000423 -0.2396 -0.189518 -2.3519 2650 
2859 1 -0.0661399 -0.0423803 -0.017288 0.000656 -8.32724 2.90987 31.8417 2650 
454 1 -0.0663716 -0.0408391 -0.0172864 0.000423 -5.26358 -3.13216 20.2021 2650 
1334 1 -0.00573856 -0.0046475 -0.0175543 0.000423 -0.689315 -0.432271 -1.13472 2650 
1859 1 -0.032662 -0.00911565 -0.0164666 4.2e-05 -4.59407 -0.663184 -2.25751 2650 
765 1 -0.00542042 -1.56866e-05 -0.0159189 4.2e-05 0.177227 0.0800816 -0.0537249 2650 
671 1 -0.0666707 -0.0363234 -0.0151036 0.000656 -5.62184 -4.59172 24.8027 2650 
5 1 -0.0123113 -0.00442738 -0.0150497 0.000656 -1.68835 -0.159498 -2.08804 2650 
4060 1 -0.0062127 -0.00375552 -0.015109 0.000656 -0.198981 -0.318784 -0.132269 2650 
2413 1 -0.00408377 -0.00293375 -0.0156379 4.2e-05 0.0174081 -0.077923 0.0672101 2650 
102 1 -0.00652434 -0.00216607 -0.0152811 4.2e-05 0.645054 -0.912068 -0.315492 2650 
1690 1 -0.0053804 -0.0011511 -0.0151004 0.000423 -0.00887356 0.000717429 0.0329458 2650 
691 1 -0.0670097 -0.0614756 -0.0146217 0.000423 -5.1844 -2.3865 23.7509 2650 
3785 1 -0.0672581 -0.0110574 -0.0148878 0.000116 -2.6755 -1.69745 12.0857 2650 
2112 1 -0.00778159 -0.00375885 -0.0146248 0.000423 -0.127983 -0.20099 -0.422086 2650 
4180 1 -0.0655426 -0.00181355 -0.0139319 0.000423 -6.54998 -7.89063 31.9889 2650 
2543 1 -0.0070211 -0.00208206 -0.0146344 0.000423 0.0690083 -0.0337334 -0.0181799 2650 
3239 1 -0.00382732 -0.00229546 -0.0149508 0.000116 -0.0157477 -0.00651411 -0.00479162 2650 
3778 1 -0.00213827 -0.00208287 -0.014689 0.000423 0.0706558 0.0267608 0.0560321 2650 
4010 1 -0.0652294 -0.00632027 -0.0137833 0.000116 -10.1318 -0.230855 -2.18574 2650 
3022 1 -0.0115349 -0.00646326 -0.0137797 0.000116 -1.25055 -0.434635 -2.29426 2650 
497 1 -0.00512661 -0.00281251 -0.0128688 0.000116 0.0953991 -0.0458605 0.071654 2650 
1422 1 -0.00246825 -0.00226206 -0.0127969 4.2e-05 0.0140454 -0.00708304 -0.00445321 2650 
4371 1 -0.000719 -0.00195149 -0.012831 0.000116 0 -0.01175 0 2650 
2283 1 -0.000701 -0.00163649 -0.012847 0.000116 0 -0.01175 0 2650 
2617 1 -0.0105967 -0.00125396 -0.013073 0.000116 -0.141911 -0.273035 0.0825506 2650 
2525 1 -0.004063 -0.00126349 -0.013231 4.2e-05 0 -0.01175 0 2650 
386 1 -0.0104811 -0.000431078 -0.0129421 0.000116 -0.103417 -0.174737 0.114772 2650 
193 1 -0.0678845 -0.0408566 -0.0117061 0.000116 -6.1152 3.70359 35.4587 2650 
2813 1 -1e-05 -0.00206449 -0.012237 0.000116 0 -0.01175 0 2650 
680 1 -0.0676953 -0.0583389 -0.0110233 0.000423 -4.29733 -1.09937 26.382 2650 
2355 1 -0.0676614 -0.0557642 -0.0112309 0.000423 -4.72896 3.98943 28.4783 2650 
3860 1 -0.0676199 -0.00652933 -0.0114748 0.000423 -4.09949 -1.51908 24.1482 2650 
645 1 -0.00656947 -0.00267732 -0.0114626 0.000116 -0.0101647 -0.0260544 -0.0119958 2650 
1063 1 -0.009531 -0.000541485 -0.011683 0.000116 0 -0.01175 0 2650 
4258 1 -0.0660342 -0.0326757 -0.0106585 0.000116 4.9486 1.51949 1.59909 2650 
4104 1 -0.0109568 -0.00256264 -0.0107724 0.000423 -0.00880485 -0.0229724 0.000918429 2650 
2579 1 -0.00735959 -0.00259473 -0.0103528 0.000423 0.0193318 -0.0113196 0.00866157 2650 
2912 1 -0.0025253 -0.00160841 -0.0108534 0.000116 0.208455 -0.145736 0.000288885 2650 
3135 1 -0.00110044 -0.000772862 -0.0110335 0.000116 -0.00559594 0.000239985 -0.00684714 2650 
330 1 -0.00949964 -0.00314976 -0.01009 4.2e-05 -0.0287728 -0.00339391 0.0201625 2650 
2279 1 -0.00560264 -0.00238215 -0.010212 0.000116 0.233063 -0.387736 -0.0287975 2650 
3011 1 -0.00248961 -0.00282739 -0.0100366 0.000423 -0.0445456 -0.033898 0.0646731 2650 
3745 1 -0.0679741 -0.0539502 -0.0091492 0.000423 -3.57967 0.17013 26.5857 2650 
450 1 -0.0678247 -0.0141352 -0.00853265 0.000656 -2.42791 0.750668 19.2898 2650 
608 1 -0.01048 -0.00215249 -0.008875 0.000116 0 -0.01175 0 2650 
124 1 -0.00610384 -0.00193117 -0.0090318 0.000423 -0.0109276 -0.0185408 0.0150808 2650 
1093 1 -0.00441232 -0.00188239 -0.00911088 4.2e-05 -0.0251532 -0.00968098 0.00910645 2650 
3310 1 -0.00369783 -0.00132206 -0.00876722 0.000423 0.00864465 -0.01466 0.0244395 2650 
1589 1 -0.00639655 -0.000131101 -0.00930686 0.000423 0.119181 -0.0620858 -0.11245 2650 
3664 1 -0.0615508 -0.0233689 -0.00836998 0.000423 -5.13107 -3.59464 -0.335712 2650 
3405 1 -0.0224285 -0.00685423 -0.00807445 0.000656 -2.78642 -0.86232 -1.03315 2650 
3398 1 -0.0137961 -0.000836655 -0.00794456 4.2e-05 0.0873338 -0.0809277 -0.0967228 2650 
4115 1 -0.00809781 -4.10252e-05 -0.0081596 0.000116 0.0376854 -0.0383697 -0.130229 2650 
4336 1 -0.00604971 -0.000347903 -0.00842463 0.000116 -0.0129257 -0.02362 0.035693 2650 
2797 1 -0.00172912 -0.000276722 -0.00819276 0.000423 -0.036143 -0.00240704 -0.0305823 2650 
2084 1 -0.0685988 -0.0570229 -0.00703737 4.2e-05 -2.49031 2.36712 24.2741 2650 
116 1 -0.0440295 -0.0421396 -0.0095608 0.000656 -9.01056 -2.33496 -257.715 2650 
3193 1 -0.0679609 -0.0147389 -0.00736176 0.000656 -1.55931 1.01159 14.3867 2650 
1274 1 -0.00149054 -0.00439651 -0.00766389 0.000116 -0.41455 -0.205833 -1.00651 2650 
1215 1 -0.0121809 -8.14857e-05 -0.00711768 0.000656 0.0174514 -0.0762825 -0.0315054 2650 
1451 1 -0.0002172 -0.000274383 -0.00741767 0.000423 -0.0181548 -0.0113192 -0.00999002 2650 
119 1 -0.0659368 -0.00276325 -0.00632995 0.000656 -2.42074 -1.08816 -0.303913 2650 
1054 1 -0.0137183 -0.00295757 -0.00641477 0.000116 0.000963333 -0.0117879 -8.57294e-05 2650 
137 1 -0.00189658 -0.00259462 -0.00659144 0.000423 -0.0361855 -0.0187605 -0.0102511 2650 
3539 1 -0.0118823 -0.00190274 -0.0067231 0.000423 -0.0141526 -0.0186009 0.0139804 2650 
882 1 -0.00498898 -0.00180621 -0.00632095 0.000656 -0.277962 -0.0674143 -0.118375 2650 
1085 1 -0.000590773 -0.00158829 -0.00684623 0.000116 -0.026146 -0.0810042 0.053815 2650 
2832 1 -0.00991306 -0.00107557 -0.00634154 0.000116 0.0144637 -0.0149169 0.000456457 2650 
500 1 -0.00973 -0.000960485 -0.006857 0.000116 0 -0.01175 0 2650 
1234 1 -0.0149158 -0.000572262 -0.00709911 0.000423 0.0116722 -0.0350743 -0.0184999 2650 
2975 1 -0.0138294 -0.000696833 -0.00691823 0.000656 0.017996 -0.0590554 -0.0319094 2650 
1454 1 -0.0130794 -0.000127217 -0.00632853 0.000423 -0.0013013 -0.0273929 -0.020454 2650 
2649 1 -0.00828936 -0.000564689 -0.00697045 0.000656 0.0373172 -0.0708488 -0.106914 2650 
2732 1 -0.0669672 -0.0615114 -0.00504321 0.000116 -19.1902 1.39757 58.0522 2650 
380 1 -0.0683453 -0.0493096 -0.00575635 0.000423 -2.33936 -1.86368 27.7651 2650 
3339 1 -0.0683339 -0.0370322 -0.00588935 0.000423 -2.31386 3.50555 26.8393 2650 
674 1 -0.0683398 -0.0325777 -0.00581021 0.000423 -1.54577 -0.893969 18.1746 2650 
1233 1 -0.0415253 -0.00563318 -0.00581141 0.000423 -6.00617 -0.240475 -0.839415 2650 
1948 1 -0.0195675 -0.00403787 -0.00612879 0.000116 -2.70456 -0.109907 -0.901823 2650 
1842 1 -0.003424 -0.00268149 -0.005978 0.000116 0 -0.01175 0 2650 
3134 1 -0.0117912 -0.00150727 -0.0055455 0.000116 -0.0134848 -0.02038 -0.0531132 2650 
879 1 -0.004264 -0.000960485 -0.005549 4.2e-05 0 -0.01175 0 2650 
2177 1 -0.0687089 -0.0595067 -0.00494238 0.000116 -1.63245 2.03016 22.6919 2650 
3225 1 -0.0115958 -0.00403486 -0.0052658 0.000423 -1.2927 -0.161588 -0.47893 2650 
3116 1 -0.0148029 -0.00281163 -0.00487381 0.000423 0.0575703 -0.0933107 -0.0669161 2650 
2922 1 -0.00974165 -0.000903119 -0.0048073 0.000116 -0.0126279 -0.0113095 0.0423572 2650 
3731 1 -0.0085784 -0.000222559 -0.00481798 0.000656 0.0813345 -0.0772318 -0.0445449 2650 
2790 1 -0.068458 -0.0495634 -0.00421342 0.000423 -1.79619 -0.945685 29.1761 2650 
933 1 -0.0205288 -0.0046511 -0.00405117 0.000423 -2.01044 -0.312862 -0.446755 2650 
1321 1 -0.00692427 -0.00327551 -0.00460708 0.000656 -0.0299473 -0.0693705 -0.0365003 2650 
1151 1 -0.0159987 -0.00273622 -0.00411462 0.000423 0.0251149 -0.114152 -0.061533 2650 
3772 1 -0.0153147 -0.000825561 -0.00434067 0.000423 -0.0430977 -0.0570788 0.00837679 2650 
63 1 -0.008476 -0.000869485 -0.004409 0.000116 0 -0.01175 0 2650 
4300 1 -0.0160314 -4.61239e-05 -0.00402449 0.000423 0.0165886 -0.064534 -0.0487005 2650 
1983 1 -0.068285 -0.0413061 -0.00324213 0.000656 -1.37092 -5.0254 28.8671 2650 
2130 1 -0.0685077 -0.0117822 -0.0032843 0.000423 -0.871236 -1.5824 18.166 2650 
934 1 -0.0684853 -0.0096928 -0.00371988 0.000423 -0.925585 -0.561501 17.0342 2650 
2747 1 -0.0163839 -0.00176993 -0.00347896 4.2e-05 0.0207438 -0.127619 -0.0534985 2650 
1369 1 -0.0105835 -0.00172999 -0.00320351 0.000423 0.0437659 -0.0417051 -0.11308 2650 
514 1 -0.00582421 -0.00136296 -0.00374197 0.000116 0.122386 -0.0461241 -0.0665334 2650 
3324 1 -0.0103488 -0.000414034 -0.00387255 0.000423 0.0156229 -0.00783776 0.0328521 2650 
520 1 -0.00267375 -0.000648262 -0.00332476 0.000116 -0.0386794 -0.00367711 -0.0337205 2650 
2916 1 -0.000727291 -1.14897e-05 -0.00341483 0.000116 -0.0175911 0.00421933 -0.0365474 2650 
3796 1 -0.00042768 -0.000751047 -0.00389449 0.000116 -0.146451 -0.0662032 -0.340691 2650 
160 1 -0.068531 -0.0526102 -0.00278617 0.000423 -1.22905 -0.454512 30.2126 2650 
1930 1 -0.068865 -0.024204 -0.00178028 0.000116 -2.72745 -42.4008 105.49 2650 
4067 1 -0.0685434 -0.0148407 -0.00242859 0.000423 -0.673957 -0.753272 19.0145 2650 
3985 1 -0.0685252 -0.0125335 -0.00289632 0.000423 -0.760578 -1.67664 17.9886 2650 
932 1 -0.0147253 -0.00193195 -0.00281937 0.000423 0.0224227 -0.134917 -0.0446537 2650 
4158 1 -0.0140819 -0.000123184 -0.00286174 4.2e-05 -0.117006 -0.199749 0.278679 2650 
365 1 -0.0684463 -0.0180928 -0.00195247 0.000423 -0.352957 -2.26489 -20.872 2650 
3479 1 -0.00217876 -0.00259816 -0.00219445 0.000116 -0.0259396 -0.0145749 0.0031237 2650 
156 1 -0.015517 -0.00236033 -0.00184218 0.000423 0.0136582 -0.0410603 -0.0548602 2650 
3511 1 -0.0154548 -0.000737989 -0.0017189 0.000656 0.0322093 -0.145657 -0.0627876 2650 
3755 1 -0.0106486 -0.000164717 -0.00233045 0.000423 0.0261075 -0.0139331 -0.100042 2650 
1121 1 -0.0119849 -0.00308794 -0.00126361 0.000423 -0.00352416 -0.0174748 0.0188406 2650 
1192 1 -0.0111417 -0.00281871 -0.00135236 0.000116 -0.00579248 -0.022817 0.0524564 2650 
912 1 -0.0159227 -0.00200571 -0.000893514 0.000423 -0.028508 -0.00544846 -0.0625436 2650 
2001 1 -0.0145615 -0.00159226 -0.00103492 0.000423 0.0330456 -0.131038 -0.0292549 2650 
346 1 -0.0137871 -0.00210709 -0.00150412 0.000423 -0.0110916 -0.029111 -0.0299645 2650 
2694 1 -0.009088 -0.00108549 -0.001077 0.000116 0 -0.01175 0 2650 
3235 1 -0.0140189 -0.000621651 -0.00142584 0.000423 0.0201937 -0.0469219 -0.0396955 2650 
518 1 -0.0688845 -0.0556205 -0.000508317 0.000116 -0.0893878 1.72425 12.1119 2650 
3931 1 -0.0688861 -0.00891393 -0.000189418 0.000116 -0.056315 -0.800174 20.4779 2650 
403 1 -0.00999933 -0.00240895 -9.34076e-05 0.000116 0.0146302 -0.0543233 -0.0598247 2650 
2150 1 -0.00894521 -0.00238604 -0.000246623 0.000116 -0.0236867 -0.0492584 0.0117664 2650 
1681 1 -0.0137591 -0.00181148 -0.000701535 0.000423 0.0566657 -0.0843519 0.0081188 2650 
153 1 -0.00973721 -0.00229062 -0.000603093 0.000423 -0.0498941 -0.0389277 0.0165102 2650 
2313 1 -0.0162794 -0.00079622 -0.000376691 0.000656 0.0061004 -0.0379364 0.00361898 2650 
98 1 -0.0132766 -0.0011191 -0.000418063 0.000116 -0.0671502 -0.163082 0.0731028 2650 
2871 1 -0.0129063 -0.000805337 -0.000100492 0.000423 0.0464564 -0.0484239 -0.0351567 2650 
3410 1 -0.0139582 -0.000362066 -0.000367927 0.000656 0.0343373 -0.0558892 -0.0242909 2650 
2325 1 -0.06858 -0.0407646 0.000935448 0.000423 0.252185 -1.3749 18.482 2650 
907 1 -0.0161749 -0.00297723 0.00049264 0.000423 0.0288516 -0.0116773 -0.0246326 2650 
1246 1 -0.0152928 -0.00188955 0.000671274 0.000423 0.00941743 -0.0466447 -0.0137847 2650 
3476 1 -0.0120513 -0.0021576 0.000112609 0.000116 0.0318884 -0.00717673 -0.0614992 2650 
293 1 -0.0087747 -0.00187069 0.000585761 0.000116 -0.0160992 -0.00609611 -0.0749465 2650 
1142 1 -0.0164371 -0.00145839 0.000556544 0.000423 0.00642289 -0.033572 -0.0105436 2650 
1590 1 -0.0100007 -0.00120114 8.02838e-05 0.000423 0.0164448 -0.0265871 -0.0678239 2650 
1559 1 -0.0152223 -0.000210108 0.000155405 0.000423 0.0134514 -0.0807058 0.013614 2650 
472 1 -0.0112433 -0.00275147 0.00112903 0.000423 0.0214531 -0.0334157 0.0255606 2650 
1693 1 -0.00577167 -0.00288202 0.000817463 0.000423 0.0197193 -0.117074 -0.0882798 2650 
4192 1 -0.0163067 -0.00163622 0.00144745 0.000423 -0.0091686 -0.0169519 -0.00174784 2650 
609 1 -0.0161294 -0.0010085 0.00141922 0.000116 0.00539664 -0.0257813 0.0116387 2650 
3446 1 -0.0145678 -0.00130564 0.000931792 0.000423 0.0127216 -0.034204 -0.022457 2650 
3128 1 -0.0123326 -0.000936397 0.000812773 0.000423 0.0636589 0.00417801 0.0173334 2650 
409 1 -0.0122518 -0.00124804 0.00129644 0.000116 0.0664551 -0.0401653 -0.00418288 2650 
4275 1 -0.0161506 -0.000440796 0.000880407 0.000656 0.00344477 -0.0313114 0.002123 2650 
1128 1 -0.0152029 -0.000652716 0.00137689 0.000423 0.0219502 -0.0267252 -0.023185 2650 
103 1 -0.0151638 -0.000129617 0.00133426 4.2e-05 0.0239953 -0.02376 -0.0196644 2650 
562 1 -0.0136293 -0.000758103 0.00128964 0.000656 0.0204291 -0.0344412 -0.0300506 2650 
3206 1 -0.0113676 -0.00322854 0.00229983 0.000423 0.00957455 -0.0262894 0.00740456 2650 
2960 1 -0.0165838 -0.00291033 0.00207495 4.2e-05 0.00152917 -0.0437522 -0.0133861 2650 
2530 1 -0.0149864 -0.00244728 0.00215354 0.000656 0.0029846 -0.0175236 -0.0132258 2650 
3290 1 -0.0113179 -0.00227931 0.00188794 4.2e-05 -0.0107563 -0.0265242 -0.00423337 2650 
3657 1 -0.0163059 -0.00145902 0.00231318 0.000423 0.00013029 -0.0391581 -0.00618128 2650 
2436 1 -0.0155807 -0.00139978 0.00182397 0.000423 0.0039747 -0.0297954 -0.0133249 2650 
1570 1 -0.0163587 -0.000721216 0.00190172 0.000423 0.000185342 -0.0350104 0.000511969 2650 
3158 1 -0.0147834 -0.00034135 0.00204295 0.000116 0.0250417 0.00480772 0.00208615 2650 
3215 1 -0.00074273 -0.00036154 0.00198962 0.000423 0.0325285 -0.0199892 0.00447339 2650 
1107 1 -0.0613214 -0.0166434 0.00215085 0.000656 -13.8137 1.35924 -38.473 2650 
1773 1 -0.0196555 -0.00453234 0.00296137 0.000423 -1.704 -0.278645 0.291184 2650 
2810 1 -0.00233243 -0.0033385 0.00260963 0.000116 -0.0641453 -0.0347541 0.0869956 2650 
2275 1 -0.016044 -0.00298177 0.00293826 0.000116 0.0125627 -0.0309419 0.0146135 2650 
2364 1 -0.00756604 -0.00244974 0.00277448 0.000423 -0.0141317 -0.0223208 0.0017303 2650 
3709 1 -0.00485283 -0.00279362 0.00289477 0.000116 -0.0130536 -0.0648026 -0.0614707 2650 
3463 1 -0.0159141 -0.0021552 0.00252264 0.000116 0.126071 0.0854411 -0.0582678 2650 
2884 1 -0.0161639 -0.0021996 0.00309013 0.000423 -0.0045395 -0.025783 -0.0284744 2650 
2473 1 -0.0154956 -0.00166311 0.00279459 0.000423 0.00876856 -0.0131417 -0.00562834 2650 
99 1 -0.003414 -0.00213649 0.002827 0.000116 0 -0.01175 0 2650 