LIGGGHTS (Version LIGGGHTS-PUBLIC 3.8.0, compiled 2022-11-07-16:55:38 by serperd1, git commit 86544c3f1215bc9744d7929e3eacf53ba086af9e)
Created orthogonal box = (-0.15 -0.15 -0.15) to (0.15 0.15 0.15)
  2 by 4 by 5 MPI processor grid

Reading STL file 'cone.stl' (mesh processing step 1/3) 

Reading STL file 'in_cyl.stl' (mesh processing step 1/3) 

Reading STL file 'top_cyl.stl' (mesh processing step 1/3) 

Reading STL file 'bot_cyl.stl' (mesh processing step 1/3) 

Reading STL file 'bottom_disk.stl' (mesh processing step 1/3) 

Reading STL file 'top_disk.stl' (mesh processing step 1/3) 
Fix particledistribution/discrete (id prob_par): distribution based on mass%:
    r_0to10p: d=8.400000e-05 (max. bounding sphere) mass%=10.000000%
    r_10to50p: d=2.328000e-04 (max. bounding sphere) mass%=40.000000%
    r_50to90p: d=8.466000e-04 (max. bounding sphere) mass%=40.000000%
    r_90to100p: d=1.312200e-03 (max. bounding sphere) mass%=10.000000%
Fix particledistribution/discrete (id prob_par): distribution based on number%:
    r_0to10p: d=8.400000e-05 (max. bounding sphere) number%=83.887052%
    r_10to50p: d=2.328000e-04 (max. bounding sphere) number%=15.763181%
    r_50to90p: d=8.466000e-04 (max. bounding sphere) number%=0.327762%
    r_90to100p: d=1.312200e-03 (max. bounding sphere) number%=0.022006%
Setting up run at Wed Nov 23 17:23:33 2022

Import and parallelization of mesh cone_mesh containing 868 triangle(s) successful
Import and parallelization of mesh inlet_cyl_wall_mesh containing 1064 triangle(s) successful
Import and parallelization of mesh top_cyl_wall_mesh containing 682 triangle(s) successful
Import and parallelization of mesh bot_cyl_wall_mesh containing 1280 triangle(s) successful
Import and parallelization of mesh bot_disk_wall_mesh containing 1682 triangle(s) successful
Import and parallelization of mesh top_disk_wall_mesh containing 1144 triangle(s) successful
Memory usage per processor = 960.256 Mbytes
    Step    Atoms         KinEng            CPU 
       0        0              0              0 
Loop time of 6.10945e-05 on 40 procs for 0 steps with 0 atoms, finish time Wed Nov 23 17:23:33 2022


Pair  time (%) = 0 (0)
Neigh time (%) = 0 (0)
Comm  time (%) = 0 (0)
Outpt time (%) = 0 (0)
Other time (%) = 6.10945e-05 (100)

Nlocal:    0 ave 0 max 0 min
Histogram: 40 0 0 0 0 0 0 0 0 0
Nghost:    0 ave 0 max 0 min
Histogram: 40 0 0 0 0 0 0 0 0 0
Neighs:    0 ave 0 max 0 min
Histogram: 40 0 0 0 0 0 0 0 0 0

Total # of neighbors = 0
Neighbor list builds = 0
Dangerous builds = 0
Setting up run at Wed Nov 23 17:23:33 2022

Memory usage per processor = 960.256 Mbytes
    Step    Atoms         KinEng            CPU 
       0        0              0              0 
       1        0              0     0.00970481 
Loop time of 0.00971572 on 40 procs for 1 steps with 0 atoms, finish time Wed Nov 23 17:23:33 2022


Pair  time (%) = 2.38455e-06 (0.0245432)
Neigh time (%) = 0 (0)
Comm  time (%) = 0.000237007 (2.43942)
Outpt time (%) = 8.29446e-05 (0.853716)
Other time (%) = 0.00939338 (96.6823)

Nlocal:    0 ave 0 max 0 min
Histogram: 40 0 0 0 0 0 0 0 0 0
Nghost:    0 ave 0 max 0 min
Histogram: 40 0 0 0 0 0 0 0 0 0
Neighs:    0 ave 0 max 0 min
Histogram: 40 0 0 0 0 0 0 0 0 0

Total # of neighbors = 0
Neighbor list builds = 0
Dangerous builds = 0
Scanning dump file ...
Reading snapshot from dump file ...
  orthogonal box = (-0.15 -0.15 -0.15) to (0.15 0.15 0.15)
  0 atoms before read
  4382 atoms in snapshot
  0 atoms purged
  0 atoms replaced
  0 atoms trimmed
  4382 atoms added
  4382 atoms after read
Setting atom values ...
  4382 settings made for type
  4382 settings made for density
  4382 settings made for vy
Setting up run at Wed Nov 23 17:23:33 2022

Memory usage per processor = 964.609 Mbytes
    Step    Atoms         KinEng            CPU 
       1     4382  2.0405663e-07              0 
       2     4382  2.5286639e-06    0.009339636 
Loop time of 0.00935576 on 40 procs for 1 steps with 4382 atoms, finish time Wed Nov 23 17:23:33 2022


Pair  time (%) = 4.47657e-06 (0.0478484)
Neigh time (%) = 0 (0)
Comm  time (%) = 9.05413e-06 (0.096776)
Outpt time (%) = 0.00025945 (2.77316)
Other time (%) = 0.00908277 (97.0822)

Nlocal:    109.55 ave 1816 max 0 min
Histogram: 36 0 2 0 0 0 0 0 0 2
Nghost:    27.3 ave 345 max 0 min
Histogram: 36 0 0 0 0 1 1 0 0 2
Neighs:    35.525 ave 600 max 0 min
Histogram: 36 0 2 0 0 0 0 0 0 2

Total # of neighbors = 1421
Ave neighs/atom = 0.324281
Neighbor list builds = 0
Dangerous builds = 0
Setting up run at Wed Nov 23 17:23:33 2022

Memory usage per processor = 964.609 Mbytes
    Step    Atoms         KinEng            CPU 
       2     4382  2.5286639e-06              0 
  308643     4382  0.00030849076      3140.8241 
Loop time of 3140.82 on 40 procs for 308641 steps with 4382 atoms, finish time Wed Nov 23 18:15:54 2022


Pair  time (%) = 1.24865 (0.0397553)
Neigh time (%) = 4.14947 (0.132114)
Comm  time (%) = 4.10649 (0.130746)
Outpt time (%) = 0.000377558 (1.2021e-05)
Other time (%) = 3131.32 (99.6974)

Nlocal:    109.55 ave 1780 max 0 min
Histogram: 36 0 2 0 0 0 0 0 0 2
Nghost:    28.15 ave 360 max 0 min
Histogram: 36 0 0 0 0 1 1 0 0 2
Neighs:    39.35 ave 668 max 0 min
Histogram: 36 0 2 0 0 0 0 0 0 2

Total # of neighbors = 1574
Ave neighs/atom = 0.359197
Neighbor list builds = 1630
Dangerous builds = 0
Setting up run at Wed Nov 23 18:15:54 2022

Memory usage per processor = 964.609 Mbytes
    Step    Atoms         KinEng            CPU 
  308643     4382  0.00030849076              0 
  617284     4380   0.0003596636      3072.8339 
Loop time of 3072.83 on 40 procs for 308641 steps with 4380 atoms, finish time Wed Nov 23 19:07:07 2022


Pair  time (%) = 1.27091 (0.0413596)
Neigh time (%) = 3.2743 (0.106556)
Comm  time (%) = 4.30315 (0.140038)
Outpt time (%) = 0.000650419 (2.11667e-05)
Other time (%) = 3063.99 (99.712)

Nlocal:    109.5 ave 1746 max 0 min
Histogram: 36 0 2 0 0 0 0 0 0 2
Nghost:    26.65 ave 328 max 0 min
Histogram: 36 0 0 0 0 0 2 0 0 2
Neighs:    41.125 ave 672 max 0 min
Histogram: 36 0 2 0 0 0 0 0 0 2

Total # of neighbors = 1645
Ave neighs/atom = 0.375571
Neighbor list builds = 1289
Dangerous builds = 0
Setting up run at Wed Nov 23 19:07:07 2022

Memory usage per processor = 964.609 Mbytes
    Step    Atoms         KinEng            CPU 
  617284     4380   0.0003596636              0 
  925925     4375  0.00059908021      3044.9077 
Loop time of 3044.91 on 40 procs for 308641 steps with 4375 atoms, finish time Wed Nov 23 19:57:52 2022


Pair  time (%) = 1.25356 (0.0411689)
Neigh time (%) = 2.72891 (0.0896222)
Comm  time (%) = 4.52277 (0.148536)
Outpt time (%) = 0.000756069 (2.48306e-05)
Other time (%) = 3036.4 (99.7206)

Nlocal:    109.375 ave 1729 max 0 min
Histogram: 36 0 2 0 0 0 0 0 0 2
Nghost:    24.525 ave 304 max 0 min
Histogram: 36 0 0 0 0 1 1 0 0 2
Neighs:    40.45 ave 656 max 0 min
Histogram: 36 0 2 0 0 0 0 0 0 2

Total # of neighbors = 1618
Ave neighs/atom = 0.369829
Neighbor list builds = 1075
Dangerous builds = 0
Setting up run at Wed Nov 23 19:57:52 2022

Memory usage per processor = 964.609 Mbytes
    Step    Atoms         KinEng            CPU 
  925925     4375  0.00059908021              0 
 1234566     4371  0.00075944732      3062.1679 
Loop time of 3062.17 on 40 procs for 308641 steps with 4371 atoms, finish time Wed Nov 23 20:48:54 2022


Pair  time (%) = 1.2374 (0.0404091)
Neigh time (%) = 5.48015 (0.178963)
Comm  time (%) = 5.8161 (0.189934)
Outpt time (%) = 0.000680985 (2.22387e-05)
Other time (%) = 3049.63 (99.5907)

Nlocal:    109.275 ave 1704 max 0 min
Histogram: 36 0 2 0 0 0 0 0 0 2
Nghost:    23.725 ave 295 max 0 min
Histogram: 36 0 0 0 0 1 1 0 0 2
Neighs:    37.95 ave 630 max 0 min
Histogram: 36 1 1 0 0 0 0 0 0 2

Total # of neighbors = 1518
Ave neighs/atom = 0.347289
Neighbor list builds = 2115
Dangerous builds = 1026
Setting up run at Wed Nov 23 20:48:54 2022

Memory usage per processor = 964.609 Mbytes
    Step    Atoms         KinEng            CPU 
 1234566     4371  0.00075944732              0 
 1543207     4360   0.0032377774      3114.9474 
Loop time of 3114.95 on 40 procs for 308641 steps with 4360 atoms, finish time Wed Nov 23 21:40:49 2022


Pair  time (%) = 1.22974 (0.0394787)
Neigh time (%) = 18.1676 (0.58324)
Comm  time (%) = 11.1295 (0.357295)
Outpt time (%) = 0.000666598 (2.14e-05)
Other time (%) = 3084.42 (99.02)

Nlocal:    109 ave 1666 max 0 min
Histogram: 36 0 2 0 0 0 0 0 0 2
Nghost:    23.125 ave 300 max 0 min
Histogram: 36 0 0 0 0 2 0 0 0 2
Neighs:    38.675 ave 638 max 0 min
Histogram: 36 0 2 0 0 0 0 0 0 2

Total # of neighbors = 1547
Ave neighs/atom = 0.354817
Neighbor list builds = 6901
Dangerous builds = 865
Setting up run at Wed Nov 23 21:40:50 2022

Memory usage per processor = 964.609 Mbytes
    Step    Atoms         KinEng            CPU 
 1543207     4360   0.0032377774              0 
 1851848     4358   0.0035115513      3630.7909 
Loop time of 3630.79 on 40 procs for 308641 steps with 4358 atoms, finish time Wed Nov 23 22:41:20 2022


Pair  time (%) = 1.33571 (0.0367885)
Neigh time (%) = 121.67 (3.35106)
Comm  time (%) = 61.6517 (1.69802)
Outpt time (%) = 0.000671623 (1.8498e-05)
Other time (%) = 3446.13 (94.9141)

Nlocal:    108.95 ave 1652 max 0 min
Histogram: 36 0 2 0 0 0 0 0 0 2
Nghost:    22.9 ave 292 max 0 min
Histogram: 36 0 0 0 0 2 0 0 0 2
Neighs:    38.625 ave 628 max 0 min
Histogram: 36 1 1 0 0 0 0 0 0 2

Total # of neighbors = 1545
Ave neighs/atom = 0.35452
Neighbor list builds = 46140
Dangerous builds = 1081
Setting up run at Wed Nov 23 22:41:21 2022

Memory usage per processor = 964.609 Mbytes
    Step    Atoms         KinEng            CPU 
 1851848     4358   0.0035115513              0 
 2160489     4353   0.0094606059      4366.2592 
Loop time of 4366.26 on 40 procs for 308641 steps with 4353 atoms, finish time Wed Nov 23 23:54:07 2022


Pair  time (%) = 1.46849 (0.0336328)
Neigh time (%) = 272.371 (6.23808)
Comm  time (%) = 159.185 (3.64581)
Outpt time (%) = 0.000636918 (1.45873e-05)
Other time (%) = 3933.23 (90.0825)

Nlocal:    108.825 ave 1649 max 0 min
Histogram: 36 0 2 0 0 0 0 0 0 2
Nghost:    22.1 ave 272 max 0 min
Histogram: 36 0 0 0 0 1 1 0 0 2
Neighs:    36.55 ave 622 max 0 min
Histogram: 36 0 2 0 0 0 0 0 0 2

Total # of neighbors = 1462
Ave neighs/atom = 0.33586
Neighbor list builds = 103279
Dangerous builds = 297
Setting up run at Wed Nov 23 23:54:07 2022

Memory usage per processor = 964.609 Mbytes
    Step    Atoms         KinEng            CPU 
 2160489     4353   0.0094606059              0 
 2469130     4345    0.019505659      4376.1082 
Loop time of 4376.11 on 40 procs for 308641 steps with 4345 atoms, finish time Thu Nov 24 01:07:03 2022


Pair  time (%) = 1.43863 (0.0328745)
Neigh time (%) = 272.425 (6.22527)
Comm  time (%) = 177.332 (4.05226)
Outpt time (%) = 0.000650974 (1.48756e-05)
Other time (%) = 3924.92 (89.6896)

Nlocal:    108.625 ave 1633 max 0 min
Histogram: 36 0 2 0 0 0 0 0 0 2
Nghost:    22.175 ave 280 max 0 min
Histogram: 36 0 0 0 0 2 0 0 0 2
Neighs:    36.65 ave 628 max 0 min
Histogram: 36 1 1 0 0 0 0 0 0 2

Total # of neighbors = 1466
Ave neighs/atom = 0.337399
Neighbor list builds = 103297
Dangerous builds = 229
Setting up run at Thu Nov 24 01:07:03 2022

Memory usage per processor = 964.609 Mbytes
    Step    Atoms         KinEng            CPU 
 2469130     4345    0.019505659              0 
 2777771     4335    0.021683556      4379.6953 
Loop time of 4379.7 on 40 procs for 308641 steps with 4335 atoms, finish time Thu Nov 24 02:20:03 2022


Pair  time (%) = 1.44252 (0.0329365)
Neigh time (%) = 274.147 (6.25949)
Comm  time (%) = 198.855 (4.54037)
Outpt time (%) = 0.000639058 (1.45913e-05)
Other time (%) = 3905.26 (89.1672)

Nlocal:    108.375 ave 1625 max 0 min
Histogram: 36 0 2 0 0 0 0 0 0 2
Nghost:    21.725 ave 260 max 0 min
Histogram: 36 0 0 0 0 0 2 0 0 2
Neighs:    36.725 ave 630 max 0 min
Histogram: 36 1 1 0 0 0 0 0 0 2

Total # of neighbors = 1469
Ave neighs/atom = 0.33887
Neighbor list builds = 103867
Dangerous builds = 629
Setting up run at Thu Nov 24 02:20:03 2022

Memory usage per processor = 964.609 Mbytes
    Step    Atoms         KinEng            CPU 
 2777771     4335    0.021683556              0 
 3086412     4316     0.03490913      4399.8385 
Loop time of 4399.84 on 40 procs for 308641 steps with 4316 atoms, finish time Thu Nov 24 03:33:23 2022


Pair  time (%) = 1.4393 (0.0327127)
Neigh time (%) = 277.309 (6.30271)
Comm  time (%) = 199.347 (4.53078)
Outpt time (%) = 0.000655256 (1.48927e-05)
Other time (%) = 3921.74 (89.1338)

Nlocal:    107.9 ave 1619 max 0 min
Histogram: 36 0 2 0 0 0 0 0 0 2
Nghost:    21.55 ave 267 max 0 min
Histogram: 36 0 0 0 0 1 1 0 0 2
Neighs:    37.175 ave 643 max 0 min
Histogram: 36 2 0 0 0 0 0 0 0 2

Total # of neighbors = 1487
Ave neighs/atom = 0.344532
Neighbor list builds = 105075
Dangerous builds = 2802
Setting up run at Thu Nov 24 03:33:23 2022

Memory usage per processor = 964.609 Mbytes
    Step    Atoms         KinEng            CPU 
 3086412     4316     0.03490913              0 
 3395053     4304    0.033730098      4395.4132 
Loop time of 4395.41 on 40 procs for 308641 steps with 4304 atoms, finish time Thu Nov 24 04:46:38 2022


Pair  time (%) = 1.40968 (0.0320716)
Neigh time (%) = 274.604 (6.24752)
Comm  time (%) = 244.704 (5.56725)
Outpt time (%) = 0.00653828 (0.000148752)
Other time (%) = 3874.69 (88.153)

Nlocal:    107.6 ave 1615 max 0 min
Histogram: 36 0 2 0 0 0 0 0 0 2
Nghost:    21.3 ave 261 max 0 min
Histogram: 36 0 0 0 0 1 1 0 0 2
Neighs:    36.425 ave 613 max 0 min
Histogram: 36 1 1 0 0 0 0 0 0 2

Total # of neighbors = 1457
Ave neighs/atom = 0.338522
Neighbor list builds = 104188
Dangerous builds = 1410
Setting up run at Thu Nov 24 04:46:39 2022

Memory usage per processor = 964.609 Mbytes
    Step    Atoms         KinEng            CPU 
 3395053     4304    0.033730098              0 
 3703694     4284    0.067385666      4394.6309 
Loop time of 4394.63 on 40 procs for 308641 steps with 4284 atoms, finish time Thu Nov 24 05:59:53 2022


Pair  time (%) = 1.39619 (0.0317703)
Neigh time (%) = 276.669 (6.29562)
Comm  time (%) = 261.654 (5.95395)
Outpt time (%) = 0.000723514 (1.64636e-05)
Other time (%) = 3854.91 (87.7186)

Nlocal:    107.1 ave 1590 max 0 min
Histogram: 36 0 2 0 0 0 0 0 0 2
Nghost:    20.55 ave 250 max 0 min
Histogram: 36 0 0 0 0 1 1 0 0 2
Neighs:    35.125 ave 592 max 0 min
Histogram: 36 1 1 0 0 0 0 0 0 2

Total # of neighbors = 1405
Ave neighs/atom = 0.327965
Neighbor list builds = 104941
Dangerous builds = 2651
Setting up run at Thu Nov 24 05:59:53 2022

Memory usage per processor = 964.609 Mbytes
    Step    Atoms         KinEng            CPU 
 3703694     4284    0.067385666              0 
 4012335     4267    0.062513348      4394.2667 
Loop time of 4394.27 on 40 procs for 308641 steps with 4267 atoms, finish time Thu Nov 24 07:13:08 2022


Pair  time (%) = 1.40984 (0.0320835)
Neigh time (%) = 276.533 (6.29303)
Comm  time (%) = 226.906 (5.16367)
Outpt time (%) = 0.00067732 (1.54137e-05)
Other time (%) = 3889.42 (88.5112)

Nlocal:    106.675 ave 1579 max 0 min
Histogram: 36 0 2 0 0 0 0 0 0 2
Nghost:    20.175 ave 246 max 0 min
Histogram: 36 0 0 0 0 1 1 0 0 2
Neighs:    35.45 ave 604 max 0 min
Histogram: 36 2 0 0 0 0 0 0 0 2

Total # of neighbors = 1418
Ave neighs/atom = 0.332318
Neighbor list builds = 104787
Dangerous builds = 2004
Setting up run at Thu Nov 24 07:13:08 2022

Memory usage per processor = 964.609 Mbytes
    Step    Atoms         KinEng            CPU 
 4012335     4267    0.062513348              0 
 4320976     4251     0.09814039      4398.4483 
Loop time of 4398.45 on 40 procs for 308641 steps with 4251 atoms, finish time Thu Nov 24 08:26:26 2022


Pair  time (%) = 1.41085 (0.0320762)
Neigh time (%) = 277.623 (6.31183)
Comm  time (%) = 225.846 (5.13468)
Outpt time (%) = 0.000653961 (1.4868e-05)
Other time (%) = 3893.57 (88.5214)

Nlocal:    106.275 ave 1566 max 0 min
Histogram: 36 0 2 0 0 0 0 0 0 2
Nghost:    19.5 ave 240 max 0 min
Histogram: 36 0 0 0 0 1 1 0 0 2
Neighs:    35.525 ave 614 max 0 min
Histogram: 36 1 1 0 0 0 0 0 0 2

Total # of neighbors = 1421
Ave neighs/atom = 0.334274
Neighbor list builds = 105175
Dangerous builds = 2782
Setting up run at Thu Nov 24 08:26:26 2022

Memory usage per processor = 964.609 Mbytes
    Step    Atoms         KinEng            CPU 
 4320976     4251     0.09814039              0 
 4629617     4235     0.16718733       4409.797 
Loop time of 4409.8 on 40 procs for 308641 steps with 4235 atoms, finish time Thu Nov 24 09:39:56 2022


Pair  time (%) = 1.39533 (0.0316416)
Neigh time (%) = 278.418 (6.31363)
Comm  time (%) = 241.417 (5.47456)
Outpt time (%) = 0.00652525 (0.000147972)
Other time (%) = 3888.56 (88.18)

Nlocal:    105.875 ave 1560 max 0 min
Histogram: 36 0 2 0 0 0 0 0 0 2
Nghost:    19.075 ave 225 max 0 min
Histogram: 36 0 0 0 0 0 2 0 0 2
Neighs:    35.025 ave 601 max 0 min
Histogram: 36 1 1 0 0 0 0 0 0 2

Total # of neighbors = 1401
Ave neighs/atom = 0.330815
Neighbor list builds = 105572
Dangerous builds = 3573
Setting up run at Thu Nov 24 09:39:56 2022

Memory usage per processor = 964.609 Mbytes
    Step    Atoms         KinEng            CPU 
 4629617     4235     0.16718733              0 
 4938258     4214     0.17519221      4401.8711 
Loop time of 4401.87 on 40 procs for 308641 steps with 4214 atoms, finish time Thu Nov 24 10:53:18 2022


Pair  time (%) = 1.38776 (0.0315265)
Neigh time (%) = 279.395 (6.34719)
Comm  time (%) = 246.734 (5.60521)
Outpt time (%) = 0.000660694 (1.50094e-05)
Other time (%) = 3874.35 (88.0161)

Nlocal:    105.35 ave 1547 max 0 min
Histogram: 36 0 2 0 0 0 0 0 0 2
Nghost:    19.825 ave 227 max 0 min
Histogram: 36 0 0 0 0 0 1 1 0 2
Neighs:    34.175 ave 573 max 0 min
Histogram: 36 1 1 0 0 0 0 0 0 2

Total # of neighbors = 1367
Ave neighs/atom = 0.324395
Neighbor list builds = 106021
Dangerous builds = 3139
Setting up run at Thu Nov 24 10:53:18 2022

Memory usage per processor = 964.609 Mbytes
    Step    Atoms         KinEng            CPU 
 4938258     4214     0.17519221              0 
 5246899     4191      0.2590112      4394.8588 
Loop time of 4394.86 on 40 procs for 308641 steps with 4191 atoms, finish time Thu Nov 24 12:06:33 2022


Pair  time (%) = 1.36931 (0.031157)
Neigh time (%) = 275.46 (6.26777)
Comm  time (%) = 260.883 (5.93609)
Outpt time (%) = 0.00640268 (0.000145686)
Other time (%) = 3857.14 (87.7648)

Nlocal:    104.775 ave 1525 max 0 min
Histogram: 36 0 2 0 0 0 0 0 0 2
Nghost:    19.7 ave 224 max 0 min
Histogram: 36 0 0 0 0 0 1 1 0 2
Neighs:    32.975 ave 577 max 0 min
Histogram: 36 2 0 0 0 0 0 0 0 2

Total # of neighbors = 1319
Ave neighs/atom = 0.314722
Neighbor list builds = 104652
Dangerous builds = 1584
Setting up run at Thu Nov 24 12:06:33 2022

Memory usage per processor = 964.609 Mbytes
    Step    Atoms         KinEng            CPU 
 5246899     4191      0.2590112              0 
 5555540     4168     0.26934111      4523.9957 
Loop time of 4524.01 on 40 procs for 308641 steps with 4168 atoms, finish time Thu Nov 24 13:21:57 2022


Pair  time (%) = 1.33755 (0.0295657)
Neigh time (%) = 279.497 (6.17808)
Comm  time (%) = 281.821 (6.22945)
Outpt time (%) = 0.0240591 (0.000531809)
Other time (%) = 3961.33 (87.5624)

Nlocal:    104.2 ave 1525 max 0 min
Histogram: 36 0 2 0 0 0 0 0 0 2
Nghost:    19.65 ave 245 max 0 min
Histogram: 36 0 0 0 0 1 1 0 1 1
Neighs:    30.1 ave 525 max 0 min
Histogram: 36 2 0 0 0 0 0 0 0 2

Total # of neighbors = 1204
Ave neighs/atom = 0.288868
Neighbor list builds = 106207
Dangerous builds = 3920
Setting up run at Thu Nov 24 13:21:58 2022

Memory usage per processor = 964.609 Mbytes
    Step    Atoms         KinEng            CPU 
 5555540     4168     0.26934111              0 
 5864181     4140     0.14659348      4476.5299 
Loop time of 4476.53 on 40 procs for 308641 steps with 4140 atoms, finish time Thu Nov 24 14:36:34 2022


Pair  time (%) = 1.31394 (0.0293517)
Neigh time (%) = 277.325 (6.19508)
Comm  time (%) = 276.816 (6.18372)
Outpt time (%) = 0.0063751 (0.000142412)
Other time (%) = 3921.07 (87.5917)

Nlocal:    103.5 ave 1513 max 0 min
Histogram: 36 0 2 0 0 0 0 0 0 2
Nghost:    19.025 ave 223 max 0 min
Histogram: 36 0 0 0 0 0 1 1 1 1
Neighs:    29.325 ave 494 max 0 min
Histogram: 36 1 1 0 0 0 0 0 0 2

Total # of neighbors = 1173
Ave neighs/atom = 0.283333
Neighbor list builds = 105324
Dangerous builds = 2167
Setting up run at Thu Nov 24 14:36:34 2022

Memory usage per processor = 964.609 Mbytes
    Step    Atoms         KinEng            CPU 
 5864181     4140     0.14659348              0 
 6172822     4111      0.1639011      4740.1517 
Loop time of 4740.17 on 40 procs for 308641 steps with 4111 atoms, finish time Thu Nov 24 15:55:35 2022


Pair  time (%) = 1.2901 (0.0272163)
Neigh time (%) = 279.861 (5.90403)
Comm  time (%) = 304.02 (6.4137)
Outpt time (%) = 0.00627577 (0.000132396)
Other time (%) = 4154.99 (87.6549)

Nlocal:    102.775 ave 1511 max 0 min
Histogram: 36 0 2 0 0 0 0 0 0 2
Nghost:    19.45 ave 214 max 0 min
Histogram: 36 0 0 0 0 0 1 1 0 2
Neighs:    29.325 ave 497 max 0 min
Histogram: 36 1 1 0 0 0 0 0 0 2

Total # of neighbors = 1173
Ave neighs/atom = 0.285332
Neighbor list builds = 106169
Dangerous builds = 3751
Setting up run at Thu Nov 24 15:55:35 2022

Memory usage per processor = 964.609 Mbytes
    Step    Atoms         KinEng            CPU 
 6172822     4111      0.1639011              0 
 6481463     4085      0.2042564      4495.6727 
Loop time of 4495.67 on 40 procs for 308641 steps with 4085 atoms, finish time Thu Nov 24 17:10:30 2022


Pair  time (%) = 1.29782 (0.0288683)
Neigh time (%) = 277.468 (6.17189)
Comm  time (%) = 304.198 (6.76647)
Outpt time (%) = 0.000621491 (1.38242e-05)
Other time (%) = 3912.71 (87.0328)

Nlocal:    102.125 ave 1468 max 0 min
Histogram: 35 1 2 0 0 0 0 0 0 2
Nghost:    19.9 ave 235 max 0 min
Histogram: 36 0 0 0 0 1 0 1 1 1
Neighs:    27.65 ave 459 max 0 min
Histogram: 36 1 1 0 0 0 0 0 0 2

Total # of neighbors = 1106
Ave neighs/atom = 0.270747
Neighbor list builds = 105224
Dangerous builds = 2133
Setting up run at Thu Nov 24 17:10:31 2022

Memory usage per processor = 964.609 Mbytes
    Step    Atoms         KinEng            CPU 
 6481463     4085      0.2042564              0 
 6790104     4064     0.22254699      4437.3198 
Loop time of 4437.32 on 40 procs for 308641 steps with 4064 atoms, finish time Thu Nov 24 18:24:28 2022


Pair  time (%) = 1.28149 (0.0288799)
Neigh time (%) = 279.793 (6.30545)
Comm  time (%) = 295.332 (6.65564)
Outpt time (%) = 0.000630702 (1.42136e-05)
Other time (%) = 3860.92 (87.01)

Nlocal:    101.6 ave 1439 max 0 min
Histogram: 36 0 2 0 0 0 0 0 0 2
Nghost:    19.85 ave 224 max 0 min
Histogram: 36 0 0 0 0 0 1 1 0 2
Neighs:    25.625 ave 521 max 0 min
Histogram: 36 2 0 0 0 0 1 0 0 1

Total # of neighbors = 1025
Ave neighs/atom = 0.252215
Neighbor list builds = 106178
Dangerous builds = 2854
Setting up run at Thu Nov 24 18:24:28 2022

Memory usage per processor = 964.609 Mbytes
    Step    Atoms         KinEng            CPU 
 6790104     4064     0.22254699              0 
 7098745     4040     0.40189897      4392.5232 
Loop time of 4392.52 on 40 procs for 308641 steps with 4040 atoms, finish time Thu Nov 24 19:37:41 2022


Pair  time (%) = 1.26976 (0.0289073)
Neigh time (%) = 275.768 (6.27812)
Comm  time (%) = 292.524 (6.65958)
Outpt time (%) = 0.00639817 (0.00014566)
Other time (%) = 3822.96 (87.0332)

Nlocal:    101 ave 1460 max 0 min
Histogram: 36 0 2 0 0 0 0 0 1 1
Nghost:    18.325 ave 205 max 0 min
Histogram: 36 0 0 0 0 0 1 1 0 2
Neighs:    25.075 ave 534 max 0 min
Histogram: 36 1 1 0 1 0 0 0 0 1

Total # of neighbors = 1003
Ave neighs/atom = 0.248267
Neighbor list builds = 104535
Dangerous builds = 2054
Setting up run at Thu Nov 24 19:37:41 2022

Memory usage per processor = 964.609 Mbytes
    Step    Atoms         KinEng            CPU 
 7098745     4040     0.40189897              0 
 7407386     4023     0.19130746       4518.252 
Loop time of 4518.25 on 40 procs for 308641 steps with 4023 atoms, finish time Thu Nov 24 20:52:59 2022


Pair  time (%) = 1.25145 (0.0276976)
Neigh time (%) = 277.342 (6.13826)
Comm  time (%) = 300.586 (6.65271)
Outpt time (%) = 0.000649548 (1.43761e-05)
Other time (%) = 3939.07 (87.1813)

Nlocal:    100.575 ave 1455 max 0 min
Histogram: 36 0 2 0 0 0 0 0 1 1
Nghost:    18.05 ave 210 max 0 min
Histogram: 36 0 0 0 0 0 2 0 0 2
Neighs:    24.1 ave 521 max 0 min
Histogram: 36 1 1 0 1 0 0 0 0 1

Total # of neighbors = 964
Ave neighs/atom = 0.239622
Neighbor list builds = 105045
Dangerous builds = 1782
Setting up run at Thu Nov 24 20:52:59 2022

Memory usage per processor = 964.609 Mbytes
    Step    Atoms         KinEng            CPU 
 7407386     4023     0.19130746              0 
 7716027     3990      1.1203955      4524.7025 
Loop time of 4524.7 on 40 procs for 308641 steps with 3990 atoms, finish time Thu Nov 24 22:08:24 2022


Pair  time (%) = 1.24191 (0.0274474)
Neigh time (%) = 275.619 (6.09143)
Comm  time (%) = 289.153 (6.39054)
Outpt time (%) = 0.00641543 (0.000141787)
Other time (%) = 3958.68 (87.4904)

Nlocal:    99.75 ave 1458 max 0 min
Histogram: 35 1 2 0 0 0 0 0 1 1
Nghost:    17.6 ave 198 max 0 min
Histogram: 36 0 0 0 0 0 1 1 0 2
Neighs:    25.675 ave 577 max 0 min
Histogram: 36 1 1 1 0 0 0 0 0 1

Total # of neighbors = 1027
Ave neighs/atom = 0.257393
Neighbor list builds = 104547
Dangerous builds = 1537
Setting up run at Thu Nov 24 22:08:24 2022

Memory usage per processor = 964.609 Mbytes
    Step    Atoms         KinEng            CPU 
 7716027     3990      1.1203955              0 
 8024668     3953     0.19014764      4357.5336 
Loop time of 4357.53 on 40 procs for 308641 steps with 3953 atoms, finish time Thu Nov 24 23:21:02 2022


Pair  time (%) = 1.23344 (0.0283059)
Neigh time (%) = 271.691 (6.23497)
Comm  time (%) = 306.641 (7.03703)
Outpt time (%) = 0.000642411 (1.47425e-05)
Other time (%) = 3777.97 (86.6997)

Nlocal:    98.825 ave 1427 max 0 min
Histogram: 34 2 2 0 0 0 0 0 1 1
Nghost:    17.7 ave 205 max 0 min
Histogram: 36 0 0 0 0 1 0 1 1 1
Neighs:    25.175 ave 566 max 0 min
Histogram: 36 1 1 1 0 0 0 0 0 1

Total # of neighbors = 1007
Ave neighs/atom = 0.254743
Neighbor list builds = 102892
Dangerous builds = 7662
Setting up run at Thu Nov 24 23:21:02 2022

Memory usage per processor = 964.609 Mbytes
    Step    Atoms         KinEng            CPU 
 8024668     3953     0.19014764              0 
 8333309     3927     0.26614086      4097.3138 
Loop time of 4097.32 on 40 procs for 308641 steps with 3927 atoms, finish time Fri Nov 25 00:29:19 2022


Pair  time (%) = 1.16718 (0.0284863)
Neigh time (%) = 219.79 (5.36423)
Comm  time (%) = 230.174 (5.61766)
Outpt time (%) = 0.000665993 (1.62543e-05)
Other time (%) = 3646.19 (88.9896)

Nlocal:    98.175 ave 1418 max 0 min
Histogram: 35 1 2 0 0 0 0 0 1 1
Nghost:    17.325 ave 201 max 0 min
Histogram: 36 0 0 0 0 1 0 1 1 1
Neighs:    23.65 ave 528 max 0 min
Histogram: 36 1 1 1 0 0 0 0 0 1

Total # of neighbors = 946
Ave neighs/atom = 0.240896
Neighbor list builds = 83035
Dangerous builds = 5089
Setting up run at Fri Nov 25 00:29:19 2022

Memory usage per processor = 964.609 Mbytes
    Step    Atoms         KinEng            CPU 
 8333309     3927     0.26614086              0 
 8641950     3901     0.27768582      4098.6254 
Loop time of 4098.63 on 40 procs for 308641 steps with 3901 atoms, finish time Fri Nov 25 01:37:38 2022


Pair  time (%) = 1.15793 (0.0282516)
Neigh time (%) = 219.884 (5.36481)
Comm  time (%) = 226.548 (5.52742)
Outpt time (%) = 0.000682666 (1.6656e-05)
Other time (%) = 3651.04 (89.0795)

Nlocal:    97.525 ave 1421 max 0 min
Histogram: 34 2 2 0 0 0 0 1 0 1
Nghost:    17.2 ave 194 max 0 min
Histogram: 36 0 0 0 0 1 0 0 1 2
Neighs:    23.375 ave 549 max 0 min
Histogram: 36 1 2 0 0 0 0 0 0 1

Total # of neighbors = 935
Ave neighs/atom = 0.239682
Neighbor list builds = 83007
Dangerous builds = 3505
Setting up run at Fri Nov 25 01:37:38 2022

Memory usage per processor = 964.609 Mbytes
    Step    Atoms         KinEng            CPU 
 8641950     3901     0.27768582              0 
 8950591     3862      0.2353758      4010.1301 
Loop time of 4010.13 on 40 procs for 308641 steps with 3862 atoms, finish time Fri Nov 25 02:44:28 2022


Pair  time (%) = 1.13226 (0.0282351)
Neigh time (%) = 203.14 (5.06566)
Comm  time (%) = 215.454 (5.37274)
Outpt time (%) = 0.000584768 (1.45823e-05)
Other time (%) = 3590.4 (89.5333)

Nlocal:    96.55 ave 1416 max 0 min
Histogram: 33 3 2 0 0 0 0 1 0 1
Nghost:    16.525 ave 197 max 0 min
Histogram: 36 0 0 0 0 1 0 1 1 1
Neighs:    23.125 ave 536 max 0 min
Histogram: 36 1 2 0 0 0 0 0 0 1

Total # of neighbors = 925
Ave neighs/atom = 0.239513
Neighbor list builds = 76611
Dangerous builds = 7529
Setting up run at Fri Nov 25 02:44:28 2022

Memory usage per processor = 964.609 Mbytes
    Step    Atoms         KinEng            CPU 
 8950591     3862      0.2353758              0 
 9259232     3830      0.3907473      3893.9773 
Loop time of 3893.98 on 40 procs for 308641 steps with 3830 atoms, finish time Fri Nov 25 03:49:22 2022


Pair  time (%) = 1.11237 (0.0285663)
Neigh time (%) = 179.386 (4.60675)
Comm  time (%) = 192.665 (4.94777)
Outpt time (%) = 0.000611899 (1.5714e-05)
Other time (%) = 3520.81 (90.4169)

Nlocal:    95.75 ave 1406 max 0 min
Histogram: 34 2 2 0 0 0 0 1 0 1
Nghost:    16.675 ave 199 max 0 min
Histogram: 36 0 0 0 0 1 0 1 1 1
Neighs:    22.05 ave 508 max 0 min
Histogram: 36 1 2 0 0 0 0 0 0 1

Total # of neighbors = 882
Ave neighs/atom = 0.230287
Neighbor list builds = 67516
Dangerous builds = 12044
Setting up run at Fri Nov 25 03:49:23 2022

Memory usage per processor = 964.609 Mbytes
    Step    Atoms         KinEng            CPU 
 9259232     3830      0.3907473              0 
 9567873     3789     0.31371357      4068.6606 
Loop time of 4068.66 on 40 procs for 308641 steps with 3789 atoms, finish time Fri Nov 25 04:57:11 2022


Pair  time (%) = 1.12436 (0.0276346)
Neigh time (%) = 215.979 (5.30836)
Comm  time (%) = 236.689 (5.81737)
Outpt time (%) = 0.000582917 (1.4327e-05)
Other time (%) = 3614.87 (88.8466)

Nlocal:    94.725 ave 1393 max 0 min
Histogram: 34 2 2 0 0 0 0 1 0 1
Nghost:    16.275 ave 204 max 0 min
Histogram: 36 0 0 0 1 0 1 0 1 1
Neighs:    22.325 ave 510 max 0 min
Histogram: 36 1 2 0 0 0 0 0 0 1

Total # of neighbors = 893
Ave neighs/atom = 0.235682
Neighbor list builds = 81467
Dangerous builds = 11333
Setting up run at Fri Nov 25 04:57:11 2022

Memory usage per processor = 964.609 Mbytes
    Step    Atoms         KinEng            CPU 
 9567873     3789     0.31371357              0 
 9876514     3753     0.42263468      3784.1755 
Loop time of 3784.18 on 40 procs for 308641 steps with 3753 atoms, finish time Fri Nov 25 06:00:16 2022


Pair  time (%) = 1.07523 (0.0284138)
Neigh time (%) = 157.029 (4.14963)
Comm  time (%) = 167.619 (4.42948)
Outpt time (%) = 0.000631801 (1.66959e-05)
Other time (%) = 3458.45 (91.3925)

Nlocal:    93.825 ave 1384 max 0 min
Histogram: 34 2 2 0 0 0 0 1 0 1
Nghost:    16.125 ave 205 max 0 min
Histogram: 36 0 0 0 1 0 1 0 1 1
Neighs:    21.5 ave 506 max 0 min
Histogram: 36 1 2 0 0 0 0 0 0 1

Total # of neighbors = 860
Ave neighs/atom = 0.22915
Neighbor list builds = 59209
Dangerous builds = 3160
Setting up run at Fri Nov 25 06:00:16 2022

Memory usage per processor = 964.609 Mbytes
    Step    Atoms         KinEng            CPU 
 9876514     3753     0.42263468              0 
10185155     3718     0.35100952      3601.9383 
Loop time of 3601.94 on 40 procs for 308641 steps with 3718 atoms, finish time Fri Nov 25 07:00:18 2022


Pair  time (%) = 1.04942 (0.0291349)
Neigh time (%) = 116.733 (3.24085)
Comm  time (%) = 127.324 (3.53487)
Outpt time (%) = 0.00590237 (0.000163867)
Other time (%) = 3356.83 (93.195)

Nlocal:    92.95 ave 1386 max 0 min
Histogram: 33 4 0 1 0 0 1 0 0 1
Nghost:    16.625 ave 209 max 0 min
Histogram: 36 0 0 1 0 0 1 0 1 1
Neighs:    22.8 ave 561 max 0 min
Histogram: 36 2 1 0 0 0 0 0 0 1

Total # of neighbors = 912
Ave neighs/atom = 0.245293
Neighbor list builds = 43947
Dangerous builds = 10332
Setting up run at Fri Nov 25 07:00:18 2022

Memory usage per processor = 964.609 Mbytes
    Step    Atoms         KinEng            CPU 
10185155     3718     0.35100952              0 
10493796     3676     0.36861708      3978.8351 
Loop time of 3978.84 on 40 procs for 308641 steps with 3676 atoms, finish time Fri Nov 25 08:06:37 2022


Pair  time (%) = 1.09928 (0.0276282)
Neigh time (%) = 195.419 (4.91146)
Comm  time (%) = 245.737 (6.17611)
Outpt time (%) = 0.00066472 (1.67064e-05)
Other time (%) = 3536.58 (88.8848)

Nlocal:    91.9 ave 1344 max 0 min
Histogram: 34 2 2 0 0 0 0 1 0 1
Nghost:    15.15 ave 187 max 0 min
Histogram: 36 0 0 0 1 0 1 0 1 1
Neighs:    18.8 ave 422 max 0 min
Histogram: 36 0 2 1 0 0 0 0 0 1

Total # of neighbors = 752
Ave neighs/atom = 0.20457
Neighbor list builds = 73610
Dangerous builds = 32284
Setting up run at Fri Nov 25 08:06:37 2022

Memory usage per processor = 964.609 Mbytes
    Step    Atoms         KinEng            CPU 
10493796     3676     0.36861708              0 
10802437     3622      0.3724072      3518.0843 
Loop time of 3518.08 on 40 procs for 308641 steps with 3622 atoms, finish time Fri Nov 25 09:05:15 2022


Pair  time (%) = 1.01029 (0.0287172)
Neigh time (%) = 101.767 (2.89268)
Comm  time (%) = 114.91 (3.26627)
Outpt time (%) = 0.000492745 (1.40061e-05)
Other time (%) = 3300.4 (93.8123)

Nlocal:    90.55 ave 1249 max 0 min
Histogram: 34 2 1 1 0 0 0 1 0 1
Nghost:    15.1 ave 194 max 0 min
Histogram: 36 0 0 1 0 0 1 0 1 1
Neighs:    18.4 ave 330 max 0 min
Histogram: 36 0 2 0 0 1 0 0 0 1

Total # of neighbors = 736
Ave neighs/atom = 0.203203
Neighbor list builds = 38247
Dangerous builds = 4172
Setting up run at Fri Nov 25 09:05:15 2022

Memory usage per processor = 964.609 Mbytes
    Step    Atoms         KinEng            CPU 
10802437     3622      0.3724072              0 
11111078     3575     0.33825675      3617.8619 
Loop time of 3617.86 on 40 procs for 308641 steps with 3575 atoms, finish time Fri Nov 25 10:05:33 2022


Pair  time (%) = 1.01108 (0.0279468)
Neigh time (%) = 123.878 (3.42406)
Comm  time (%) = 144.637 (3.99785)
Outpt time (%) = 0.000666343 (1.84181e-05)
Other time (%) = 3348.34 (92.5501)

Nlocal:    89.375 ave 1180 max 0 min
Histogram: 34 2 0 2 0 0 0 1 0 1
Nghost:    14.475 ave 185 max 0 min
Histogram: 36 0 0 0 1 1 0 0 1 1
Neighs:    15.775 ave 271 max 0 min
Histogram: 36 0 1 1 0 0 1 0 0 1

Total # of neighbors = 631
Ave neighs/atom = 0.176503
Neighbor list builds = 46643
Dangerous builds = 6056
Setting up run at Fri Nov 25 10:05:33 2022

Memory usage per processor = 964.609 Mbytes
    Step    Atoms         KinEng            CPU 
11111078     3575     0.33825675              0 
11419719     3538     0.35215175      3510.1372 
Loop time of 3510.14 on 40 procs for 308641 steps with 3538 atoms, finish time Fri Nov 25 11:04:03 2022


Pair  time (%) = 0.975859 (0.0278012)
Neigh time (%) = 102.955 (2.93307)
Comm  time (%) = 120.728 (3.43941)
Outpt time (%) = 0.000676689 (1.92781e-05)
Other time (%) = 3285.48 (93.5997)

Nlocal:    88.45 ave 1155 max 0 min
Histogram: 32 4 0 2 0 0 0 1 0 1
Nghost:    13.05 ave 155 max 0 min
Histogram: 36 0 0 0 0 1 1 0 0 2
Neighs:    13.225 ave 256 max 0 min
Histogram: 36 0 2 0 0 1 0 0 0 1

Total # of neighbors = 529
Ave neighs/atom = 0.14952
Neighbor list builds = 38728
Dangerous builds = 5141
Setting up run at Fri Nov 25 11:04:03 2022

Memory usage per processor = 964.609 Mbytes
    Step    Atoms         KinEng            CPU 
11419719     3538     0.35215175              0 
11728360     3489     0.37839483      3599.2329 
Loop time of 3599.23 on 40 procs for 308641 steps with 3489 atoms, finish time Fri Nov 25 12:04:03 2022


Pair  time (%) = 0.971694 (0.0269972)
Neigh time (%) = 122.977 (3.41675)
Comm  time (%) = 146.174 (4.06124)
Outpt time (%) = 0.000654189 (1.81758e-05)
Other time (%) = 3329.11 (92.495)

Nlocal:    87.225 ave 1129 max 0 min
Histogram: 33 3 0 2 0 0 0 1 0 1
Nghost:    13.35 ave 156 max 0 min
Histogram: 36 0 0 0 1 0 1 0 0 2
Neighs:    13.175 ave 232 max 0 min
Histogram: 36 0 2 0 0 0 1 0 0 1

Total # of neighbors = 527
Ave neighs/atom = 0.151046
Neighbor list builds = 46207
Dangerous builds = 5722
Setting up run at Fri Nov 25 12:04:03 2022

Memory usage per processor = 964.609 Mbytes
    Step    Atoms         KinEng            CPU 
11728360     3489     0.37839483              0 
12037001     3437     0.34710334      3627.4645 
Loop time of 3627.47 on 40 procs for 308641 steps with 3437 atoms, finish time Fri Nov 25 13:04:30 2022


Pair  time (%) = 0.977389 (0.0269441)
Neigh time (%) = 127.653 (3.51907)
Comm  time (%) = 144.183 (3.97476)
Outpt time (%) = 0.000681614 (1.87904e-05)
Other time (%) = 3354.65 (92.4792)

Nlocal:    85.925 ave 1103 max 0 min
Histogram: 32 3 1 2 0 0 0 1 0 1
Nghost:    13 ave 144 max 0 min
Histogram: 36 0 0 0 0 1 1 0 0 2
Neighs:    12.8 ave 200 max 0 min
Histogram: 36 0 1 1 0 0 0 0 1 1

Total # of neighbors = 512
Ave neighs/atom = 0.148967
Neighbor list builds = 47933
Dangerous builds = 12879
Setting up run at Fri Nov 25 13:04:30 2022

Memory usage per processor = 964.609 Mbytes
    Step    Atoms         KinEng            CPU 
12037001     3437     0.34710334              0 
12345642     3396     0.36866179      3555.7514 
Loop time of 3555.75 on 40 procs for 308641 steps with 3396 atoms, finish time Fri Nov 25 14:03:46 2022


Pair  time (%) = 0.958292 (0.0269505)
Neigh time (%) = 113.635 (3.19581)
Comm  time (%) = 137.668 (3.8717)
Outpt time (%) = 0.00586964 (0.000165074)
Other time (%) = 3303.48 (92.9054)

Nlocal:    84.9 ave 1067 max 0 min
Histogram: 32 4 1 1 0 0 0 1 0 1
Nghost:    12.775 ave 153 max 0 min
Histogram: 36 0 0 0 0 1 1 0 1 1
Neighs:    12.1 ave 189 max 0 min
Histogram: 36 1 1 0 0 0 0 0 0 2

Total # of neighbors = 484
Ave neighs/atom = 0.142521
Neighbor list builds = 42576
Dangerous builds = 10223
Setting up run at Fri Nov 25 14:05:01 2022

Memory usage per processor = 964.609 Mbytes
    Step    Atoms         KinEng            CPU 
12345642     3396     0.36866179              0 
12654283     3351     0.50899224      3634.6926 
Loop time of 3634.69 on 40 procs for 308641 steps with 3351 atoms, finish time Fri Nov 25 15:05:36 2022


Pair  time (%) = 0.963241 (0.0265013)
Neigh time (%) = 133.322 (3.66803)
Comm  time (%) = 165.891 (4.56411)
Outpt time (%) = 0.000640954 (1.76344e-05)
Other time (%) = 3334.52 (91.7413)

Nlocal:    83.775 ave 1024 max 0 min
Histogram: 32 3 1 2 0 0 0 1 0 1
Nghost:    13.1 ave 146 max 0 min
Histogram: 36 0 0 0 0 1 1 0 1 1
Neighs:    11.25 ave 166 max 0 min
Histogram: 34 3 1 0 0 0 0 0 0 2

Total # of neighbors = 450
Ave neighs/atom = 0.134288
Neighbor list builds = 50020
Dangerous builds = 9880
Setting up run at Fri Nov 25 15:05:36 2022

Memory usage per processor = 964.609 Mbytes
    Step    Atoms         KinEng            CPU 
12654283     3351     0.50899224              0 
12962924     3300     0.43187854      3695.9201 
Loop time of 3695.92 on 40 procs for 308641 steps with 3300 atoms, finish time Fri Nov 25 16:07:12 2022


Pair  time (%) = 0.957869 (0.0259169)
Neigh time (%) = 144.703 (3.9152)
Comm  time (%) = 177.268 (4.79633)
Outpt time (%) = 0.000606101 (1.63992e-05)
Other time (%) = 3372.99 (91.2625)

Nlocal:    82.5 ave 979 max 0 min
Histogram: 32 2 3 1 0 0 0 1 0 1
Nghost:    12.25 ave 140 max 0 min
Histogram: 36 0 0 0 1 1 0 0 1 1
Neighs:    10.6 ave 163 max 0 min
Histogram: 34 3 1 0 0 0 0 0 1 1

Total # of neighbors = 424
Ave neighs/atom = 0.128485
Neighbor list builds = 54189
Dangerous builds = 4958
Setting up run at Fri Nov 25 16:07:12 2022

Memory usage per processor = 964.609 Mbytes
    Step    Atoms         KinEng            CPU 
12962924     3300     0.43187854              0 
13271565     3250     0.46946265      3622.5049 
Loop time of 3622.51 on 40 procs for 308641 steps with 3250 atoms, finish time Fri Nov 25 17:07:35 2022


Pair  time (%) = 0.918147 (0.0253456)
Neigh time (%) = 111.856 (3.08782)
Comm  time (%) = 137.659 (3.8001)
Outpt time (%) = 0.000649356 (1.79256e-05)
Other time (%) = 3372.07 (93.0867)

Nlocal:    81.25 ave 944 max 0 min
Histogram: 32 2 3 1 0 0 0 1 0 1
Nghost:    11.05 ave 131 max 0 min
Histogram: 35 1 0 1 0 1 0 0 1 1
Neighs:    9.1 ave 134 max 0 min
Histogram: 33 3 2 0 0 0 0 0 1 1

Total # of neighbors = 364
Ave neighs/atom = 0.112
Neighbor list builds = 41821
Dangerous builds = 3957
Setting up run at Fri Nov 25 17:07:35 2022

Memory usage per processor = 964.609 Mbytes
    Step    Atoms         KinEng            CPU 
13271565     3250     0.46946265              0 
13580206     3198      0.3992224      3642.2179 
Loop time of 3642.22 on 40 procs for 308641 steps with 3198 atoms, finish time Fri Nov 25 18:08:17 2022


Pair  time (%) = 0.937075 (0.0257281)
Neigh time (%) = 136.983 (3.76096)
Comm  time (%) = 162.762 (4.46876)
Outpt time (%) = 0.000716318 (1.96671e-05)
Other time (%) = 3341.54 (91.7445)

Nlocal:    79.95 ave 887 max 0 min
Histogram: 32 1 3 1 1 0 0 1 0 1
Nghost:    10.275 ave 123 max 0 min
Histogram: 36 0 0 1 0 1 0 0 0 2
Neighs:    8.475 ave 133 max 0 min
Histogram: 34 2 1 1 0 0 1 0 0 1

Total # of neighbors = 339
Ave neighs/atom = 0.106004
Neighbor list builds = 51226
Dangerous builds = 10087
Setting up run at Fri Nov 25 18:08:17 2022

Memory usage per processor = 964.609 Mbytes
    Step    Atoms         KinEng            CPU 
13580206     3198      0.3992224              0 
13888847     3147     0.39697539      3987.2678 
Loop time of 3987.27 on 40 procs for 308641 steps with 3147 atoms, finish time Fri Nov 25 19:14:45 2022


Pair  time (%) = 0.906879 (0.0227444)
Neigh time (%) = 112.407 (2.81916)
Comm  time (%) = 130.862 (3.28199)
Outpt time (%) = 0.000614858 (1.54205e-05)
Other time (%) = 3743.09 (93.8761)

Nlocal:    78.675 ave 828 max 0 min
Histogram: 32 0 5 0 1 0 0 0 1 1
Nghost:    11.575 ave 130 max 0 min
Histogram: 34 2 0 0 1 0 1 0 1 1
Neighs:    7.15 ave 118 max 0 min
Histogram: 34 2 2 0 0 1 0 0 0 1

Total # of neighbors = 286
Ave neighs/atom = 0.0908802
Neighbor list builds = 42022
Dangerous builds = 4653
Setting up run at Fri Nov 25 19:14:45 2022

Memory usage per processor = 964.609 Mbytes
    Step    Atoms         KinEng            CPU 
13888847     3147     0.39697539              0 
14197488     3095     0.51297622      3522.1114 
Loop time of 3522.11 on 40 procs for 308641 steps with 3095 atoms, finish time Fri Nov 25 20:13:27 2022


Pair  time (%) = 0.889457 (0.0252535)
Neigh time (%) = 99.9858 (2.8388)
Comm  time (%) = 119.529 (3.39368)
Outpt time (%) = 0.000628022 (1.78308e-05)
Other time (%) = 3301.71 (93.7423)

Nlocal:    77.375 ave 796 max 0 min
Histogram: 32 0 4 1 1 0 0 0 1 1
Nghost:    11.75 ave 120 max 0 min
Histogram: 30 6 0 0 1 0 1 0 1 1
Neighs:    6.475 ave 80 max 0 min
Histogram: 32 3 1 2 0 0 1 0 0 1

Total # of neighbors = 259
Ave neighs/atom = 0.0836834
Neighbor list builds = 37324
Dangerous builds = 5529
Setting up run at Fri Nov 25 20:13:27 2022

Memory usage per processor = 964.609 Mbytes
    Step    Atoms         KinEng            CPU 
14197488     3095     0.51297622              0 
14506129     3041     0.46070351      3518.8957 
Loop time of 3518.9 on 40 procs for 308641 steps with 3041 atoms, finish time Fri Nov 25 21:12:06 2022


Pair  time (%) = 0.892984 (0.0253768)
Neigh time (%) = 111.572 (3.17066)
Comm  time (%) = 134.766 (3.82977)
Outpt time (%) = 0.00565205 (0.00016062)
Other time (%) = 3271.66 (92.974)

Nlocal:    76.025 ave 749 max 0 min
Histogram: 31 1 3 2 1 0 0 0 1 1
Nghost:    10.925 ave 122 max 0 min
Histogram: 34 2 0 1 0 0 1 0 1 1
Neighs:    5.9 ave 74 max 0 min
Histogram: 32 3 1 2 0 0 0 0 1 1

Total # of neighbors = 236
Ave neighs/atom = 0.0776061
Neighbor list builds = 41622
Dangerous builds = 5648
Setting up run at Fri Nov 25 21:12:06 2022

Memory usage per processor = 964.609 Mbytes
    Step    Atoms         KinEng            CPU 
14506129     3041     0.46070351              0 
14814770     2995     0.39386798      4258.9724 
Loop time of 4258.97 on 40 procs for 308641 steps with 2995 atoms, finish time Fri Nov 25 22:23:05 2022


Pair  time (%) = 0.985608 (0.0231419)
Neigh time (%) = 272 (6.38652)
Comm  time (%) = 341.761 (8.02449)
Outpt time (%) = 0.00061532 (1.44476e-05)
Other time (%) = 3644.23 (85.5658)

Nlocal:    74.875 ave 703 max 0 min
Histogram: 32 0 3 1 2 0 0 0 0 2
Nghost:    10.775 ave 114 max 0 min
Histogram: 36 0 0 0 1 0 1 0 0 2
Neighs:    5.15 ave 59 max 0 min
Histogram: 32 1 1 3 0 2 0 0 0 1

Total # of neighbors = 206
Ave neighs/atom = 0.0687813
Neighbor list builds = 101851
Dangerous builds = 9074
Setting up run at Fri Nov 25 22:23:05 2022

Memory usage per processor = 964.609 Mbytes
    Step    Atoms         KinEng            CPU 
14814770     2995     0.39386798              0 
15123411     2935     0.48362875       3694.402 
Loop time of 3694.4 on 40 procs for 308641 steps with 2935 atoms, finish time Fri Nov 25 23:24:39 2022


Pair  time (%) = 0.881793 (0.0238684)
Neigh time (%) = 150.624 (4.0771)
Comm  time (%) = 189.368 (5.12581)
Outpt time (%) = 0.000662987 (1.79457e-05)
Other time (%) = 3353.53 (90.7732)

Nlocal:    73.375 ave 669 max 0 min
Histogram: 32 0 3 2 0 1 0 0 0 2
Nghost:    9.85 ave 115 max 0 min
Histogram: 34 2 0 1 0 1 1 0 0 1
Neighs:    5.05 ave 48 max 0 min
Histogram: 32 0 3 2 0 0 0 0 1 2

Total # of neighbors = 202
Ave neighs/atom = 0.0688245
Neighbor list builds = 56221
Dangerous builds = 9313
Setting up run at Fri Nov 25 23:24:40 2022

Memory usage per processor = 964.609 Mbytes
    Step    Atoms         KinEng            CPU 
15123411     2935     0.48362875              0 
15432052     2883     0.51205985      3596.8155 
Loop time of 3596.82 on 40 procs for 308641 steps with 2883 atoms, finish time Sat Nov 26 00:24:36 2022


Pair  time (%) = 0.862488 (0.0239792)
Neigh time (%) = 128.525 (3.5733)
Comm  time (%) = 159.912 (4.44592)
Outpt time (%) = 0.000631113 (1.75464e-05)
Other time (%) = 3307.52 (91.9568)

Nlocal:    72.075 ave 638 max 0 min
Histogram: 31 1 2 2 2 0 0 0 0 2
Nghost:    9.2 ave 118 max 0 min
Histogram: 34 2 0 1 1 0 1 0 0 1
Neighs:    4.35 ave 36 max 0 min
Histogram: 32 0 1 2 0 0 1 2 1 1

Total # of neighbors = 174
Ave neighs/atom = 0.0603538
Neighbor list builds = 47978
Dangerous builds = 7217
Setting up run at Sat Nov 26 00:24:37 2022

Memory usage per processor = 964.609 Mbytes
    Step    Atoms         KinEng            CPU 
15432052     2883     0.51205985              0 
15740693     2814     0.54673566      3600.0003 
Loop time of 3600 on 40 procs for 308641 steps with 2814 atoms, finish time Sat Nov 26 01:24:37 2022


Pair  time (%) = 0.862029 (0.0239452)
Neigh time (%) = 131.856 (3.66267)
Comm  time (%) = 154.052 (4.27922)
Outpt time (%) = 0.000651617 (1.81005e-05)
Other time (%) = 3313.23 (92.0341)

Nlocal:    70.35 ave 632 max 0 min
Histogram: 31 1 1 4 1 0 0 0 0 2
Nghost:    9 ave 101 max 0 min
Histogram: 35 1 0 0 1 1 0 0 1 1
Neighs:    4.05 ave 40 max 0 min
Histogram: 32 0 1 4 0 1 0 0 1 1

Total # of neighbors = 162
Ave neighs/atom = 0.0575693
Neighbor list builds = 49216
Dangerous builds = 10166
Setting up run at Sat Nov 26 01:24:37 2022

Memory usage per processor = 964.609 Mbytes
    Step    Atoms         KinEng            CPU 
15740693     2814     0.54673566              0 
16049334     2752     0.49548609      3612.7539 
Loop time of 3612.75 on 40 procs for 308641 steps with 2752 atoms, finish time Sat Nov 26 02:24:50 2022


Pair  time (%) = 0.852298 (0.0235914)
Neigh time (%) = 133.333 (3.69063)
Comm  time (%) = 165.066 (4.56899)
Outpt time (%) = 0.000368063 (1.01879e-05)
Other time (%) = 3313.5 (91.7168)

Nlocal:    68.8 ave 612 max 0 min
Histogram: 30 2 3 1 1 1 0 0 0 2
Nghost:    9.2 ave 106 max 0 min
Histogram: 36 0 0 0 1 1 0 0 1 1
Neighs:    3.95 ave 46 max 0 min
Histogram: 32 4 1 0 0 0 1 0 1 1

Total # of neighbors = 158
Ave neighs/atom = 0.0574128
Neighbor list builds = 49747
Dangerous builds = 8503
Setting up run at Sat Nov 26 02:24:50 2022

Memory usage per processor = 964.609 Mbytes
    Step    Atoms         KinEng            CPU 
16049334     2752     0.49548609              0 
16357975     2682     0.43132189      3645.2405 
Loop time of 3645.24 on 40 procs for 308641 steps with 2682 atoms, finish time Sat Nov 26 03:25:35 2022


Pair  time (%) = 0.863902 (0.0236994)
Neigh time (%) = 140.423 (3.85224)
Comm  time (%) = 174.047 (4.77463)
Outpt time (%) = 0.000699903 (1.92005e-05)
Other time (%) = 3329.91 (91.3494)

Nlocal:    67.05 ave 589 max 0 min
Histogram: 31 1 3 0 2 1 0 0 0 2
Nghost:    9.6 ave 97 max 0 min
Histogram: 32 4 0 0 1 1 0 0 0 2
Neighs:    4.9 ave 50 max 0 min
Histogram: 32 1 1 1 2 0 2 0 0 1

Total # of neighbors = 196
Ave neighs/atom = 0.0730798
Neighbor list builds = 52423
Dangerous builds = 20312
Setting up run at Sat Nov 26 03:25:35 2022

Memory usage per processor = 964.609 Mbytes
    Step    Atoms         KinEng            CPU 
16357975     2682     0.43132189              0 
16666616     2614      0.4837498      3453.0019 
Loop time of 3453 on 40 procs for 308641 steps with 2614 atoms, finish time Sat Nov 26 04:23:08 2022


Pair  time (%) = 0.834223 (0.0241594)
Neigh time (%) = 100.333 (2.90568)
Comm  time (%) = 124.176 (3.59618)
Outpt time (%) = 0.00062295 (1.80408e-05)
Other time (%) = 3227.66 (93.474)

Nlocal:    65.35 ave 550 max 0 min
Histogram: 30 2 1 3 0 2 0 0 0 2
Nghost:    9.425 ave 91 max 0 min
Histogram: 30 5 1 1 0 0 1 0 0 2
Neighs:    3.55 ave 33 max 0 min
Histogram: 32 0 1 1 1 2 2 0 0 1

Total # of neighbors = 142
Ave neighs/atom = 0.0543229
Neighbor list builds = 37458
Dangerous builds = 4565
Setting up run at Sat Nov 26 04:23:08 2022

Memory usage per processor = 964.609 Mbytes
    Step    Atoms         KinEng            CPU 
16666616     2614      0.4837498              0 
16975257     2554     0.46239315      3490.8129 
Loop time of 3490.81 on 40 procs for 308641 steps with 2554 atoms, finish time Sat Nov 26 05:21:19 2022


Pair  time (%) = 0.81873 (0.0234539)
Neigh time (%) = 106.148 (3.04079)
Comm  time (%) = 123.636 (3.54174)
Outpt time (%) = 0.000604479 (1.73163e-05)
Other time (%) = 3260.21 (93.394)

Nlocal:    63.85 ave 542 max 0 min
Histogram: 30 2 1 1 4 0 0 0 0 2
Nghost:    8.025 ave 83 max 0 min
Histogram: 32 3 1 1 0 0 1 1 0 1
Neighs:    2.9 ave 38 max 0 min
Histogram: 33 0 4 1 0 1 0 0 0 1

Total # of neighbors = 116
Ave neighs/atom = 0.045419
Neighbor list builds = 39580
Dangerous builds = 5338
Setting up run at Sat Nov 26 05:21:19 2022

Memory usage per processor = 964.609 Mbytes
    Step    Atoms         KinEng            CPU 
16975257     2554     0.46239315              0 
17283898     2499     0.66471695      3556.7125 
Loop time of 3556.71 on 40 procs for 308641 steps with 2499 atoms, finish time Sat Nov 26 06:20:36 2022


Pair  time (%) = 0.820006 (0.0230551)
Neigh time (%) = 124.032 (3.48725)
Comm  time (%) = 148.017 (4.16164)
Outpt time (%) = 0.000571688 (1.60735e-05)
Other time (%) = 3283.84 (92.328)

Nlocal:    62.475 ave 539 max 0 min
Histogram: 30 2 1 1 4 0 0 0 1 1
Nghost:    7.675 ave 72 max 0 min
Histogram: 32 3 1 0 0 2 0 0 0 2
Neighs:    3.475 ave 36 max 0 min
Histogram: 32 0 1 3 1 2 0 0 0 1

Total # of neighbors = 139
Ave neighs/atom = 0.0556222
Neighbor list builds = 46279
Dangerous builds = 8715
Setting up run at Sat Nov 26 06:20:36 2022

Memory usage per processor = 964.609 Mbytes
    Step    Atoms         KinEng            CPU 
17283898     2499     0.66471695              0 
17592539     2449     0.37690968      3517.6843 
Loop time of 3517.68 on 40 procs for 308641 steps with 2449 atoms, finish time Sat Nov 26 07:19:14 2022


Pair  time (%) = 0.822009 (0.0233679)
Neigh time (%) = 115.414 (3.28097)
Comm  time (%) = 138.396 (3.93429)
Outpt time (%) = 0.00549806 (0.000156298)
Other time (%) = 3263.05 (92.7612)

Nlocal:    61.225 ave 522 max 0 min
Histogram: 30 2 0 4 1 1 0 0 1 1
Nghost:    7.475 ave 85 max 0 min
Histogram: 33 3 0 1 1 0 0 1 0 1
Neighs:    3.7 ave 54 max 0 min
Histogram: 32 3 2 2 0 0 0 0 0 1

Total # of neighbors = 148
Ave neighs/atom = 0.0604328
Neighbor list builds = 43020
Dangerous builds = 8642
Setting up run at Sat Nov 26 07:19:14 2022

Memory usage per processor = 964.609 Mbytes
    Step    Atoms         KinEng            CPU 
17592539     2449     0.37690968              0 
17901180     2388     0.60743694      3573.0193 
Loop time of 3573.02 on 40 procs for 308641 steps with 2388 atoms, finish time Sat Nov 26 08:18:47 2022


Pair  time (%) = 0.820042 (0.0229509)
Neigh time (%) = 125.803 (3.52091)
Comm  time (%) = 152.525 (4.2688)
Outpt time (%) = 0.000674093 (1.88662e-05)
Other time (%) = 3293.87 (92.1873)

Nlocal:    59.7 ave 508 max 0 min
Histogram: 30 2 1 2 3 0 0 0 1 1
Nghost:    6.575 ave 63 max 0 min
Histogram: 29 7 0 0 2 0 0 0 0 2
Neighs:    3.375 ave 37 max 0 min
Histogram: 32 0 2 2 2 1 0 0 0 1

Total # of neighbors = 135
Ave neighs/atom = 0.0565327
Neighbor list builds = 46933
Dangerous builds = 5648
Setting up run at Sat Nov 26 08:18:47 2022

Memory usage per processor = 964.609 Mbytes
    Step    Atoms         KinEng            CPU 
17901180     2388     0.60743694              0 
18209821     2334      0.7534093      3481.9358 
Loop time of 3481.94 on 40 procs for 308641 steps with 2334 atoms, finish time Sat Nov 26 09:16:49 2022


Pair  time (%) = 0.792928 (0.0227726)
Neigh time (%) = 107.009 (3.07325)
Comm  time (%) = 130.203 (3.73939)
Outpt time (%) = 0.00569942 (0.000163685)
Other time (%) = 3243.93 (93.1644)

Nlocal:    58.35 ave 508 max 0 min
Histogram: 30 2 2 1 2 1 0 0 1 1
Nghost:    6.95 ave 63 max 0 min
Histogram: 29 6 1 0 1 0 1 0 1 1
Neighs:    3.55 ave 62 max 0 min
Histogram: 32 4 2 1 0 0 0 0 0 1

Total # of neighbors = 142
Ave neighs/atom = 0.0608398
Neighbor list builds = 39889
Dangerous builds = 3966
Setting up run at Sat Nov 26 09:16:50 2022

Memory usage per processor = 964.609 Mbytes
    Step    Atoms         KinEng            CPU 
18209821     2334      0.7534093              0 
18518462     2268     0.61990223      3522.2247 
Loop time of 3522.23 on 40 procs for 308641 steps with 2268 atoms, finish time Sat Nov 26 10:15:32 2022


Pair  time (%) = 0.801042 (0.0227425)
Neigh time (%) = 115.371 (3.27552)
Comm  time (%) = 143.45 (4.07271)
Outpt time (%) = 0.000669524 (1.90086e-05)
Other time (%) = 3262.6 (92.629)

Nlocal:    56.7 ave 507 max 0 min
Histogram: 31 1 1 3 1 1 0 1 0 1
Nghost:    6.575 ave 63 max 0 min
Histogram: 30 5 1 1 0 1 0 0 0 2
Neighs:    4.075 ave 69 max 0 min
Histogram: 33 3 2 1 0 0 0 0 0 1

Total # of neighbors = 163
Ave neighs/atom = 0.0718695
Neighbor list builds = 43038
Dangerous builds = 6211
Setting up run at Sat Nov 26 10:15:32 2022

Memory usage per processor = 964.609 Mbytes
    Step    Atoms         KinEng            CPU 
18518462     2268     0.61990223              0 
18827103     2195     0.53043666      3433.9601 
Loop time of 3433.96 on 40 procs for 308641 steps with 2195 atoms, finish time Sat Nov 26 11:12:46 2022


Pair  time (%) = 0.787064 (0.02292)
Neigh time (%) = 96.7784 (2.81827)
Comm  time (%) = 115.031 (3.34979)
Outpt time (%) = 0.000635826 (1.85158e-05)
Other time (%) = 3221.36 (93.809)

Nlocal:    54.875 ave 475 max 0 min
Histogram: 30 2 2 1 1 2 0 1 0 1
Nghost:    6.375 ave 58 max 0 min
Histogram: 30 4 2 1 0 0 1 0 0 2
Neighs:    2.875 ave 39 max 0 min
Histogram: 32 4 1 0 0 1 1 0 0 1

Total # of neighbors = 115
Ave neighs/atom = 0.0523918
Neighbor list builds = 36100
Dangerous builds = 7165
Setting up run at Sat Nov 26 11:12:46 2022

Memory usage per processor = 964.609 Mbytes
    Step    Atoms         KinEng            CPU 
18827103     2195     0.53043666              0 
19135744     2141     0.46369994      3554.6469 
Loop time of 3554.65 on 40 procs for 308641 steps with 2141 atoms, finish time Sat Nov 26 12:12:01 2022


Pair  time (%) = 0.793278 (0.0223166)
Neigh time (%) = 123.171 (3.46507)
Comm  time (%) = 127.791 (3.59503)
Outpt time (%) = 0.000339624 (9.55437e-06)
Other time (%) = 3302.89 (92.9176)

Nlocal:    53.525 ave 464 max 0 min
Histogram: 31 1 2 2 1 0 1 1 0 1
Nghost:    6.1 ave 63 max 0 min
Histogram: 32 2 1 2 0 1 0 1 0 1
Neighs:    3.6 ave 58 max 0 min
Histogram: 35 2 1 0 0 0 0 1 0 1

Total # of neighbors = 144
Ave neighs/atom = 0.0672583
Neighbor list builds = 46018
Dangerous builds = 9156
Setting up run at Sat Nov 26 12:12:01 2022

Memory usage per processor = 964.609 Mbytes
    Step    Atoms         KinEng            CPU 
19135744     2141     0.46369994              0 
19444385     2091     0.46586098      3880.1626 
Loop time of 3880.16 on 40 procs for 308641 steps with 2091 atoms, finish time Sat Nov 26 13:16:41 2022


Pair  time (%) = 0.820982 (0.0211584)
Neigh time (%) = 184.035 (4.74297)
Comm  time (%) = 193.411 (4.9846)
Outpt time (%) = 0.000570103 (1.46928e-05)
Other time (%) = 3501.9 (90.2513)

Nlocal:    52.275 ave 438 max 0 min
Histogram: 30 2 2 1 1 0 2 0 1 1
Nghost:    6.05 ave 62 max 0 min
Histogram: 30 4 3 0 1 0 0 1 0 1
Neighs:    3.975 ave 68 max 0 min
Histogram: 36 1 1 0 0 0 0 1 0 1

Total # of neighbors = 159
Ave neighs/atom = 0.0760402
Neighbor list builds = 68860
Dangerous builds = 14912
Setting up run at Sat Nov 26 13:16:41 2022

Memory usage per processor = 964.609 Mbytes
    Step    Atoms         KinEng            CPU 
19444385     2091     0.46586098              0 
19753026     2049     0.51208531      3650.2216 
Loop time of 3650.22 on 40 procs for 308641 steps with 2049 atoms, finish time Sat Nov 26 14:17:31 2022


Pair  time (%) = 0.794453 (0.0217645)
Neigh time (%) = 146.219 (4.00576)
Comm  time (%) = 155.758 (4.26708)
Outpt time (%) = 0.000563345 (1.54332e-05)
Other time (%) = 3347.45 (91.7054)

Nlocal:    51.225 ave 431 max 0 min
Histogram: 30 3 1 2 0 0 2 0 1 1
Nghost:    5.525 ave 49 max 0 min
Histogram: 28 6 1 1 1 1 0 0 0 2
Neighs:    3.275 ave 47 max 0 min
Histogram: 33 4 1 0 0 0 0 0 0 2

Total # of neighbors = 131
Ave neighs/atom = 0.0639336
Neighbor list builds = 54611
Dangerous builds = 4874
Setting up run at Sat Nov 26 14:17:32 2022

Memory usage per processor = 964.609 Mbytes
    Step    Atoms         KinEng            CPU 
19753026     2049     0.51208531              0 
20061667     2008     0.80296345      3531.3068 
Loop time of 3531.31 on 40 procs for 308641 steps with 2008 atoms, finish time Sat Nov 26 15:16:23 2022


Pair  time (%) = 0.783417 (0.0221849)
Neigh time (%) = 119.68 (3.38913)
Comm  time (%) = 132.076 (3.74016)
Outpt time (%) = 0.000580798 (1.64471e-05)
Other time (%) = 3278.77 (92.8485)

Nlocal:    50.2 ave 415 max 0 min
Histogram: 30 2 3 0 1 0 1 1 1 1
Nghost:    5.575 ave 53 max 0 min
Histogram: 30 4 1 2 0 1 0 0 1 1
Neighs:    3.7 ave 84 max 0 min
Histogram: 36 2 0 1 0 0 0 0 0 1

Total # of neighbors = 148
Ave neighs/atom = 0.0737052
Neighbor list builds = 44755
Dangerous builds = 4176
Setting up run at Sat Nov 26 15:16:23 2022

Memory usage per processor = 964.609 Mbytes
    Step    Atoms         KinEng            CPU 
20061667     2008     0.80296345              0 
20370308     1966     0.50384141      3537.8926 
Loop time of 3537.89 on 40 procs for 308641 steps with 1966 atoms, finish time Sat Nov 26 16:15:21 2022


Pair  time (%) = 0.777151 (0.0219665)
Neigh time (%) = 119.66 (3.38224)
Comm  time (%) = 127.427 (3.60179)
Outpt time (%) = 0.000568368 (1.60652e-05)
Other time (%) = 3290.03 (92.994)

Nlocal:    49.15 ave 390 max 0 min
Histogram: 30 3 1 1 0 1 2 0 1 1
Nghost:    4.375 ave 47 max 0 min
Histogram: 32 4 0 0 2 0 0 0 0 2
Neighs:    3.1 ave 52 max 0 min
Histogram: 36 1 0 1 0 0 0 1 0 1

Total # of neighbors = 124
Ave neighs/atom = 0.0630722
Neighbor list builds = 44782
Dangerous builds = 5460
Setting up run at Sat Nov 26 16:15:21 2022

Memory usage per processor = 964.609 Mbytes
    Step    Atoms         KinEng            CPU 
20370308     1966     0.50384141              0 
20678949     1925     0.44502464      3467.2319 
Loop time of 3467.23 on 40 procs for 308641 steps with 1925 atoms, finish time Sat Nov 26 17:13:08 2022


Pair  time (%) = 0.78188 (0.0225505)
Neigh time (%) = 107.111 (3.08923)
Comm  time (%) = 111.937 (3.22843)
Outpt time (%) = 0.000621899 (1.79365e-05)
Other time (%) = 3247.4 (93.6598)

Nlocal:    48.125 ave 374 max 0 min
Histogram: 30 2 2 0 1 1 2 0 0 2
Nghost:    4.675 ave 43 max 0 min
Histogram: 32 1 2 1 2 0 0 0 0 2
Neighs:    3.55 ave 57 max 0 min
Histogram: 34 3 0 1 0 1 0 0 0 1

Total # of neighbors = 142
Ave neighs/atom = 0.0737662
Neighbor list builds = 40100
Dangerous builds = 6515
Setting up run at Sat Nov 26 17:13:08 2022

Memory usage per processor = 964.609 Mbytes
    Step    Atoms         KinEng            CPU 
20678949     1925     0.44502464              0 
20987590     1888      0.4453265      3487.1552 
Loop time of 3487.16 on 40 procs for 308641 steps with 1888 atoms, finish time Sat Nov 26 18:11:16 2022


Pair  time (%) = 0.766363 (0.0219767)
Neigh time (%) = 108.448 (3.10993)
Comm  time (%) = 114.074 (3.27126)
Outpt time (%) = 0.000547185 (1.56914e-05)
Other time (%) = 3263.87 (93.5968)

Nlocal:    47.2 ave 367 max 0 min
Histogram: 30 2 1 1 1 3 0 0 0 2
Nghost:    4.725 ave 52 max 0 min
Histogram: 31 4 1 1 1 0 0 1 0 1
Neighs:    2.925 ave 40 max 0 min
Histogram: 34 1 1 2 0 0 0 1 0 1

Total # of neighbors = 117
Ave neighs/atom = 0.0619703
Neighbor list builds = 40581
Dangerous builds = 2615
Setting up run at Sat Nov 26 18:11:16 2022

Memory usage per processor = 964.609 Mbytes
    Step    Atoms         KinEng            CPU 
20987590     1888      0.4453265              0 
21296231     1851     0.49713363      3811.9874 
Loop time of 3811.99 on 40 procs for 308641 steps with 1851 atoms, finish time Sat Nov 26 19:14:48 2022


Pair  time (%) = 0.788311 (0.0206798)
Neigh time (%) = 173.462 (4.55042)
Comm  time (%) = 175.161 (4.595)
Outpt time (%) = 0.000869853 (2.28189e-05)
Other time (%) = 3462.58 (90.8339)

Nlocal:    46.275 ave 366 max 0 min
Histogram: 30 2 1 2 0 2 1 0 1 1
Nghost:    4.875 ave 44 max 0 min
Histogram: 30 4 1 1 2 0 0 0 0 2
Neighs:    3.175 ave 53 max 0 min
Histogram: 34 3 1 0 0 0 1 0 0 1

Total # of neighbors = 127
Ave neighs/atom = 0.0686116
Neighbor list builds = 64942
Dangerous builds = 10863
Setting up run at Sat Nov 26 19:14:48 2022

Memory usage per processor = 964.609 Mbytes
    Step    Atoms         KinEng            CPU 
21296231     1851     0.49713363              0 
21604872     1826     0.55096601      3456.7121 
Loop time of 3456.71 on 40 procs for 308641 steps with 1826 atoms, finish time Sat Nov 26 20:12:24 2022


Pair  time (%) = 0.759889 (0.021983)
Neigh time (%) = 103.052 (2.98122)
Comm  time (%) = 106.347 (3.07653)
Outpt time (%) = 0.000571508 (1.65333e-05)
Other time (%) = 3246.55 (93.9202)

Nlocal:    45.65 ave 361 max 0 min
Histogram: 30 2 0 2 3 0 1 0 1 1
Nghost:    4.55 ave 49 max 0 min
Histogram: 31 4 1 2 0 0 0 0 0 2
Neighs:    2.5 ave 41 max 0 min
Histogram: 35 2 1 0 0 1 0 0 0 1

Total # of neighbors = 100
Ave neighs/atom = 0.0547645
Neighbor list builds = 38525
Dangerous builds = 1359
Setting up run at Sat Nov 26 20:12:25 2022

Memory usage per processor = 964.609 Mbytes
    Step    Atoms         KinEng            CPU 
21604872     1826     0.55096601              0 
21913513     1802     0.77690588      5139.3148 
Loop time of 5139.32 on 40 procs for 308641 steps with 1802 atoms, finish time Sat Nov 26 21:38:04 2022


Pair  time (%) = 1.06726 (0.0207665)
Neigh time (%) = 474.724 (9.23711)
Comm  time (%) = 484.264 (9.42273)
Outpt time (%) = 0.00617853 (0.000120221)
Other time (%) = 4179.25 (81.3193)

Nlocal:    45.05 ave 362 max 0 min
Histogram: 30 2 0 2 3 0 1 0 1 1
Nghost:    4.8 ave 44 max 0 min
Histogram: 30 3 2 1 2 0 0 0 0 2
Neighs:    2.725 ave 48 max 0 min
Histogram: 33 2 3 1 0 0 0 0 0 1

Total # of neighbors = 109
Ave neighs/atom = 0.0604883
Neighbor list builds = 178057
Dangerous builds = 165021
Setting up run at Sat Nov 26 21:38:04 2022

Memory usage per processor = 964.609 Mbytes
    Step    Atoms         KinEng            CPU 
21913513     1802     0.77690588              0 
22222154     1768     0.41627288      4577.7319 
Loop time of 4577.73 on 40 procs for 308641 steps with 1768 atoms, finish time Sat Nov 26 22:54:22 2022


Pair  time (%) = 0.959945 (0.0209699)
Neigh time (%) = 357.401 (7.80737)
Comm  time (%) = 396.726 (8.66642)
Outpt time (%) = 0.00600803 (0.000131245)
Other time (%) = 3822.64 (83.5051)

Nlocal:    44.2 ave 354 max 0 min
Histogram: 30 2 0 4 0 0 1 1 1 1
Nghost:    3.975 ave 42 max 0 min
Histogram: 33 3 0 0 1 1 0 0 1 1
Neighs:    2.425 ave 28 max 0 min
Histogram: 32 2 2 2 0 0 0 0 0 2

Total # of neighbors = 97
Ave neighs/atom = 0.0548643
Neighbor list builds = 134046
Dangerous builds = 111840
Setting up run at Sat Nov 26 22:54:22 2022

Memory usage per processor = 964.609 Mbytes
    Step    Atoms         KinEng            CPU 
22222154     1768     0.41627288              0 
22530795     1735     0.58499223      3775.2462 
Loop time of 3775.25 on 40 procs for 308641 steps with 1735 atoms, finish time Sat Nov 26 23:57:17 2022


Pair  time (%) = 0.77645 (0.0205669)
Neigh time (%) = 174.656 (4.62636)
Comm  time (%) = 176.358 (4.67143)
Outpt time (%) = 0.000581704 (1.54084e-05)
Other time (%) = 3423.45 (90.6816)

Nlocal:    43.375 ave 353 max 0 min
Histogram: 30 2 0 4 0 1 1 1 0 1
Nghost:    4.425 ave 52 max 0 min
Histogram: 34 1 2 0 0 1 0 1 0 1
Neighs:    2.75 ave 44 max 0 min
Histogram: 33 4 1 0 0 0 1 0 0 1

Total # of neighbors = 110
Ave neighs/atom = 0.0634006
Neighbor list builds = 65446
Dangerous builds = 3715
Setting up run at Sat Nov 26 23:57:17 2022

Memory usage per processor = 964.609 Mbytes
    Step    Atoms         KinEng            CPU 
22530795     1735     0.58499223              0 
22839436     1706     0.48811554      3693.5842 
Loop time of 3693.58 on 40 procs for 308641 steps with 1706 atoms, finish time Sun Nov 27 00:58:51 2022


Pair  time (%) = 0.758371 (0.0205321)
Neigh time (%) = 156.374 (4.23367)
Comm  time (%) = 151.916 (4.11298)
Outpt time (%) = 0.000654435 (1.77182e-05)
Other time (%) = 3384.54 (91.6328)

Nlocal:    42.65 ave 350 max 0 min
Histogram: 30 2 2 1 1 0 2 1 0 1
Nghost:    3.95 ave 42 max 0 min
Histogram: 31 3 2 2 0 0 0 1 0 1
Neighs:    2.475 ave 38 max 0 min
Histogram: 34 3 0 1 0 0 0 1 0 1

Total # of neighbors = 99
Ave neighs/atom = 0.0580305
Neighbor list builds = 58497
Dangerous builds = 3799
Setting up run at Sun Nov 27 00:58:51 2022

Memory usage per processor = 964.609 Mbytes
    Step    Atoms         KinEng            CPU 
22839436     1706     0.48811554              0 
23148077     1663      0.4564255      3731.6712 
Loop time of 3731.67 on 40 procs for 308641 steps with 1663 atoms, finish time Sun Nov 27 02:01:03 2022


Pair  time (%) = 0.767127 (0.0205572)
Neigh time (%) = 167.192 (4.48034)
Comm  time (%) = 175.463 (4.702)
Outpt time (%) = 0.000588339 (1.57661e-05)
Other time (%) = 3388.25 (90.7971)

Nlocal:    41.575 ave 332 max 0 min
Histogram: 30 2 0 3 1 1 1 0 1 1
Nghost:    3.75 ave 37 max 0 min
Histogram: 30 4 2 1 1 0 0 0 1 1
Neighs:    2.275 ave 41 max 0 min
Histogram: 36 2 0 0 0 0 1 0 0 1

Total # of neighbors = 91
Ave neighs/atom = 0.0547204
Neighbor list builds = 62629
Dangerous builds = 12004
Setting up run at Sun Nov 27 02:01:03 2022

Memory usage per processor = 964.609 Mbytes
    Step    Atoms         KinEng            CPU 
23148077     1663      0.4564255              0 
23456718     1633     0.48748297      3458.6849 
Loop time of 3458.69 on 40 procs for 308641 steps with 1633 atoms, finish time Sun Nov 27 02:58:41 2022


Pair  time (%) = 0.727504 (0.0210341)
Neigh time (%) = 103.651 (2.99684)
Comm  time (%) = 110.22 (3.18677)
Outpt time (%) = 0.000581349 (1.68084e-05)
Other time (%) = 3244.09 (93.7953)

Nlocal:    40.825 ave 317 max 0 min
Histogram: 30 2 2 1 0 1 1 0 2 1
Nghost:    4.125 ave 45 max 0 min
Histogram: 30 4 3 1 0 0 0 1 0 1
Neighs:    2.3 ave 43 max 0 min
Histogram: 36 1 0 1 1 0 0 0 0 1

Total # of neighbors = 92
Ave neighs/atom = 0.056338
Neighbor list builds = 38709
Dangerous builds = 1655
Setting up run at Sun Nov 27 02:58:42 2022

Memory usage per processor = 964.609 Mbytes
    Step    Atoms         KinEng            CPU 
23456718     1633     0.48748297              0 
23765359     1608     0.43333156      3589.7383 
Loop time of 3589.74 on 40 procs for 308641 steps with 1608 atoms, finish time Sun Nov 27 03:58:31 2022


Pair  time (%) = 0.7455 (0.0207675)
Neigh time (%) = 131.85 (3.67297)
Comm  time (%) = 135.427 (3.77262)
Outpt time (%) = 0.000519502 (1.44719e-05)
Other time (%) = 3321.72 (92.5336)

Nlocal:    40.2 ave 319 max 0 min
Histogram: 30 2 2 0 2 1 0 0 2 1
Nghost:    4.05 ave 39 max 0 min
Histogram: 31 3 1 1 2 0 0 0 0 2
Neighs:    2.375 ave 48 max 0 min
Histogram: 36 1 0 2 0 0 0 0 0 1

Total # of neighbors = 95
Ave neighs/atom = 0.0590796
Neighbor list builds = 49453
Dangerous builds = 6293
Setting up run at Sun Nov 27 03:58:32 2022

Memory usage per processor = 964.609 Mbytes
    Step    Atoms         KinEng            CPU 
23765359     1608     0.43333156              0 
24074000     1577     0.50884358      3667.6177 
Loop time of 3667.62 on 40 procs for 308641 steps with 1577 atoms, finish time Sun Nov 27 04:59:39 2022


Pair  time (%) = 0.757867 (0.0206637)
Neigh time (%) = 149.724 (4.08231)
Comm  time (%) = 142.754 (3.89229)
Outpt time (%) = 0.000711546 (1.94008e-05)
Other time (%) = 3374.38 (92.0047)

Nlocal:    39.425 ave 305 max 0 min
Histogram: 30 2 2 2 0 0 0 1 2 1
Nghost:    4.525 ave 41 max 0 min
Histogram: 29 5 2 1 0 0 0 1 1 1
Neighs:    2.325 ave 45 max 0 min
Histogram: 36 2 0 0 0 0 1 0 0 1

Total # of neighbors = 93
Ave neighs/atom = 0.0589727
Neighbor list builds = 56216
Dangerous builds = 3854
Setting up run at Sun Nov 27 04:59:39 2022

Memory usage per processor = 964.609 Mbytes
    Step    Atoms         KinEng            CPU 
24074000     1577     0.50884358              0 
24382641     1548     0.45120416       3687.989 
Loop time of 3687.99 on 40 procs for 308641 steps with 1548 atoms, finish time Sun Nov 27 06:01:07 2022


Pair  time (%) = 0.747256 (0.0202619)
Neigh time (%) = 154.201 (4.18116)
Comm  time (%) = 143.873 (3.90112)
Outpt time (%) = 0.00067401 (1.82758e-05)
Other time (%) = 3389.17 (91.8974)

Nlocal:    38.7 ave 289 max 0 min
Histogram: 30 2 2 1 0 1 0 1 1 2
Nghost:    4.1 ave 37 max 0 min
Histogram: 30 4 1 2 0 1 0 0 0 2
Neighs:    2.475 ave 42 max 0 min
Histogram: 37 0 0 0 1 0 0 1 0 1

Total # of neighbors = 99
Ave neighs/atom = 0.0639535
Neighbor list builds = 57867
Dangerous builds = 4909
Setting up run at Sun Nov 27 06:01:07 2022

Memory usage per processor = 964.609 Mbytes
    Step    Atoms         KinEng            CPU 
24382641     1548     0.45120416              0 
24691282     1517     0.71223301       3702.606 
Loop time of 3702.61 on 40 procs for 308641 steps with 1517 atoms, finish time Sun Nov 27 07:02:50 2022


Pair  time (%) = 0.759822 (0.0205213)
Neigh time (%) = 156.214 (4.21903)
Comm  time (%) = 155.399 (4.19703)
Outpt time (%) = 0.000566152 (1.52906e-05)
Other time (%) = 3390.23 (91.5634)

Nlocal:    37.925 ave 280 max 0 min
Histogram: 30 2 1 2 0 1 0 2 0 2
Nghost:    4.125 ave 45 max 0 min
Histogram: 30 5 2 0 1 0 0 0 1 1
Neighs:    2.575 ave 36 max 0 min
Histogram: 36 0 1 0 0 1 0 0 1 1

Total # of neighbors = 103
Ave neighs/atom = 0.0678972
Neighbor list builds = 58696
Dangerous builds = 8025
Setting up run at Sun Nov 27 07:02:50 2022

Memory usage per processor = 964.609 Mbytes
    Step    Atoms         KinEng            CPU 
24691282     1517     0.71223301              0 
24999923     1486     0.64376962       3514.562 
Loop time of 3514.56 on 40 procs for 308641 steps with 1486 atoms, finish time Sun Nov 27 08:01:25 2022


Pair  time (%) = 0.732887 (0.0208529)
Neigh time (%) = 117.414 (3.3408)
Comm  time (%) = 116.737 (3.32152)
Outpt time (%) = 0.000689895 (1.96296e-05)
Other time (%) = 3279.68 (93.3168)

Nlocal:    37.15 ave 265 max 0 min
Histogram: 31 1 0 2 1 0 2 1 0 2
Nghost:    3.625 ave 43 max 0 min
Histogram: 30 5 3 0 0 0 0 1 0 1
Neighs:    1.325 ave 17 max 0 min
Histogram: 32 2 2 1 2 0 0 0 0 1

Total # of neighbors = 53
Ave neighs/atom = 0.0356662
Neighbor list builds = 44027
Dangerous builds = 6000
Setting up run at Sun Nov 27 08:01:25 2022

Memory usage per processor = 964.609 Mbytes
    Step    Atoms         KinEng            CPU 
24999923     1486     0.64376962              0 
25308564     1460      2.4253346      3457.2048 
Loop time of 3457.21 on 40 procs for 308641 steps with 1460 atoms, finish time Sun Nov 27 08:59:02 2022


Pair  time (%) = 0.721984 (0.0208834)
Neigh time (%) = 103.24 (2.98623)
Comm  time (%) = 106.936 (3.09314)
Outpt time (%) = 0.00262363 (7.58887e-05)
Other time (%) = 3246.3 (93.8997)

Nlocal:    36.5 ave 262 max 0 min
Histogram: 30 2 1 1 0 2 1 0 1 2
Nghost:    3.375 ave 38 max 0 min
Histogram: 30 5 2 0 1 0 0 1 0 1
Neighs:    1.575 ave 26 max 0 min
Histogram: 34 4 0 0 0 1 0 0 0 1

Total # of neighbors = 63
Ave neighs/atom = 0.0431507
Neighbor list builds = 38771
Dangerous builds = 2519
Setting up run at Sun Nov 27 08:59:02 2022

Memory usage per processor = 964.609 Mbytes
    Step    Atoms         KinEng            CPU 
25308564     1460      2.4253346              0 
25617205     1434       0.709662      3729.0872 
Loop time of 3729.09 on 40 procs for 308641 steps with 1434 atoms, finish time Sun Nov 27 10:01:11 2022


Pair  time (%) = 0.741265 (0.0198779)
Neigh time (%) = 165.684 (4.44302)
Comm  time (%) = 171.48 (4.59843)
Outpt time (%) = 0.000571432 (1.53236e-05)
Other time (%) = 3391.18 (90.9387)

Nlocal:    35.85 ave 257 max 0 min
Histogram: 30 2 1 1 1 1 0 2 0 2
Nghost:    3.35 ave 35 max 0 min
Histogram: 30 4 2 1 1 0 0 1 0 1
Neighs:    1.775 ave 26 max 0 min
Histogram: 34 2 0 0 2 1 0 0 0 1

Total # of neighbors = 71
Ave neighs/atom = 0.0495119
Neighbor list builds = 62216
Dangerous builds = 6063
Setting up run at Sun Nov 27 10:01:11 2022

Memory usage per processor = 964.609 Mbytes
    Step    Atoms         KinEng            CPU 
25617205     1434       0.709662              0 
25925846     1408      0.5257904      3517.3222 
Loop time of 3517.32 on 40 procs for 308641 steps with 1408 atoms, finish time Sun Nov 27 10:59:49 2022


Pair  time (%) = 0.713111 (0.0202743)
Neigh time (%) = 115.751 (3.2909)
Comm  time (%) = 117.118 (3.32975)
Outpt time (%) = 0.000689503 (1.96031e-05)
Other time (%) = 3283.74 (93.3591)

Nlocal:    35.2 ave 256 max 0 min
Histogram: 30 2 0 0 4 0 1 1 0 2
Nghost:    3.5 ave 35 max 0 min
Histogram: 31 3 1 1 2 0 0 1 0 1
Neighs:    1.575 ave 15 max 0 min
Histogram: 32 0 2 1 1 2 0 0 0 2

Total # of neighbors = 63
Ave neighs/atom = 0.0447443
Neighbor list builds = 43418
Dangerous builds = 1713
Setting up run at Sun Nov 27 10:59:49 2022

Memory usage per processor = 964.609 Mbytes
    Step    Atoms         KinEng            CPU 
25925846     1408      0.5257904              0 
26234487     1385      0.3996311      3632.1733 
Loop time of 3632.17 on 40 procs for 308641 steps with 1385 atoms, finish time Sun Nov 27 12:00:21 2022


Pair  time (%) = 0.738321 (0.0203272)
Neigh time (%) = 142.849 (3.93289)
Comm  time (%) = 141.637 (3.89952)
Outpt time (%) = 0.000362656 (9.98455e-06)
Other time (%) = 3346.95 (92.1473)

Nlocal:    34.625 ave 249 max 0 min
Histogram: 30 2 0 0 3 2 0 1 0 2
Nghost:    3.775 ave 34 max 0 min
Histogram: 29 3 4 0 2 0 0 0 1 1
Neighs:    1.75 ave 27 max 0 min
Histogram: 32 4 2 0 1 0 0 0 0 1

Total # of neighbors = 70
Ave neighs/atom = 0.0505415
Neighbor list builds = 53702
Dangerous builds = 8002
Setting up run at Sun Nov 27 12:00:21 2022

Memory usage per processor = 964.609 Mbytes
    Step    Atoms         KinEng            CPU 
26234487     1385      0.3996311              0 
26543128     1358     0.57806636      3385.0163 
Loop time of 3385.02 on 40 procs for 308641 steps with 1358 atoms, finish time Sun Nov 27 12:56:46 2022


Pair  time (%) = 0.699896 (0.0206763)
Neigh time (%) = 88.996 (2.62912)
Comm  time (%) = 86.7723 (2.56342)
Outpt time (%) = 0.000653842 (1.93158e-05)
Other time (%) = 3208.55 (94.7868)

Nlocal:    33.95 ave 244 max 0 min
Histogram: 30 2 0 1 2 2 0 1 0 2
Nghost:    3.3 ave 35 max 0 min
Histogram: 33 1 2 0 1 1 0 0 1 1
Neighs:    1.175 ave 16 max 0 min
Histogram: 33 4 0 0 1 0 0 1 0 1

Total # of neighbors = 47
Ave neighs/atom = 0.0346097
Neighbor list builds = 33393
Dangerous builds = 2107
Setting up run at Sun Nov 27 12:56:46 2022

Memory usage per processor = 964.609 Mbytes
    Step    Atoms         KinEng            CPU 
26543128     1358     0.57806636              0 
26851769     1329     0.77613563      3431.8043 
Loop time of 3431.8 on 40 procs for 308641 steps with 1329 atoms, finish time Sun Nov 27 13:53:58 2022


Pair  time (%) = 0.699664 (0.0203876)
Neigh time (%) = 97.6038 (2.8441)
Comm  time (%) = 97.5327 (2.84202)
Outpt time (%) = 0.000658159 (1.91782e-05)
Other time (%) = 3235.97 (94.2935)

Nlocal:    33.225 ave 240 max 0 min
Histogram: 30 2 0 1 2 2 0 1 0 2
Nghost:    2.85 ave 31 max 0 min
Histogram: 32 3 1 1 1 0 1 0 0 1
Neighs:    1.275 ave 17 max 0 min
Histogram: 32 2 4 0 0 0 0 1 0 1

Total # of neighbors = 51
Ave neighs/atom = 0.0383747
Neighbor list builds = 36647
Dangerous builds = 1994
Setting up run at Sun Nov 27 13:53:58 2022

Memory usage per processor = 964.609 Mbytes
    Step    Atoms         KinEng            CPU 
26851769     1329     0.77613563              0 
27160410     1307     0.53944069      3866.1662 
Loop time of 3866.17 on 40 procs for 308641 steps with 1307 atoms, finish time Sun Nov 27 14:58:25 2022


Pair  time (%) = 0.739208 (0.0191199)
Neigh time (%) = 197.7 (5.1136)
Comm  time (%) = 192.224 (4.97195)
Outpt time (%) = 0.00057936 (1.49854e-05)
Other time (%) = 3475.5 (89.8953)

Nlocal:    32.675 ave 236 max 0 min
Histogram: 30 2 0 0 4 1 0 1 0 2
Nghost:    3.275 ave 30 max 0 min
Histogram: 28 6 1 1 1 1 0 0 0 2
Neighs:    1.025 ave 16 max 0 min
Histogram: 33 2 1 3 0 0 0 0 0 1

Total # of neighbors = 41
Ave neighs/atom = 0.0313695
Neighbor list builds = 74345
Dangerous builds = 6116
Setting up run at Sun Nov 27 14:58:25 2022

Memory usage per processor = 964.609 Mbytes
    Step    Atoms         KinEng            CPU 
27160410     1307     0.53944069              0 
27469051     1286      4.4870628      3953.4207 
Loop time of 3953.42 on 40 procs for 308641 steps with 1286 atoms, finish time Sun Nov 27 16:04:18 2022


Pair  time (%) = 0.741912 (0.0187663)
Neigh time (%) = 217.06 (5.49043)
Comm  time (%) = 244.755 (6.19097)
Outpt time (%) = 0.000608893 (1.54017e-05)
Other time (%) = 3490.86 (88.2998)

Nlocal:    32.15 ave 229 max 0 min
Histogram: 30 2 0 1 2 1 1 1 0 2
Nghost:    3.275 ave 31 max 0 min
Histogram: 30 4 3 0 0 0 1 0 1 1
Neighs:    1.075 ave 14 max 0 min
Histogram: 33 0 4 0 1 1 0 0 0 1

Total # of neighbors = 43
Ave neighs/atom = 0.033437
Neighbor list builds = 81679
Dangerous builds = 4621
Setting up run at Sun Nov 27 16:04:18 2022

Memory usage per processor = 964.609 Mbytes
    Step    Atoms         KinEng            CPU 
27469051     1286      4.4870628              0 
27777692     1265     0.64027041      3812.2891 
Loop time of 3812.29 on 40 procs for 308641 steps with 1265 atoms, finish time Sun Nov 27 17:07:50 2022


Pair  time (%) = 0.729616 (0.0191385)
Neigh time (%) = 182.254 (4.7807)
Comm  time (%) = 183.194 (4.80537)
Outpt time (%) = 0.000612619 (1.60696e-05)
Other time (%) = 3446.11 (90.3948)

Nlocal:    31.625 ave 229 max 0 min
Histogram: 30 2 0 3 0 0 2 1 0 2
Nghost:    2.95 ave 27 max 0 min
Histogram: 28 8 0 0 1 1 0 0 0 2
Neighs:    1.65 ave 20 max 0 min
Histogram: 32 1 4 0 0 1 0 1 0 1

Total # of neighbors = 66
Ave neighs/atom = 0.0521739
Neighbor list builds = 68525
Dangerous builds = 2049
Setting up run at Sun Nov 27 17:07:51 2022

Memory usage per processor = 964.609 Mbytes
    Step    Atoms         KinEng            CPU 
27777692     1265     0.64027041              0 
28086333     1244     0.53976863      3759.3149 
[...]
Histogram: 34 2 2 0 0 0 1 0 0 1
Neighs:    0.075 ave 1 max 0 min
Histogram: 37 0 0 0 0 0 0 0 0 3

Total # of neighbors = 3
Ave neighs/atom = 0.00728155
Neighbor list builds = 18669
Dangerous builds = 0
Setting up run at Thu Dec  1 02:36:06 2022

Memory usage per processor = 964.609 Mbytes
    Step    Atoms         KinEng            CPU 
54629555      412     0.28635673              0 
54938196      406      0.2216886      3241.0311 
Loop time of 3241.03 on 40 procs for 308641 steps with 406 atoms, finish time Thu Dec  1 03:30:07 2022


Pair  time (%) = 0.584036 (0.0180201)
Neigh time (%) = 56.0711 (1.73004)
Comm  time (%) = 33.1556 (1.023)
Outpt time (%) = 0.000675715 (2.08488e-05)
Other time (%) = 3151.22 (97.2289)

Nlocal:    10.15 ave 85 max 0 min
Histogram: 31 1 1 2 1 2 0 0 1 1
Nghost:    1 ave 9 max 0 min
Histogram: 28 4 3 0 2 1 0 0 1 1
Neighs:    0.15 ave 2 max 0 min
Histogram: 35 0 0 0 0 4 0 0 0 1

Total # of neighbors = 6
Ave neighs/atom = 0.0147783
Neighbor list builds = 21256
Dangerous builds = 142
Setting up run at Thu Dec  1 03:30:07 2022

Memory usage per processor = 964.609 Mbytes
    Step    Atoms         KinEng            CPU 
54938196      406      0.2216886              0 
55246837      400     0.22706521      3169.2921 
Loop time of 3169.31 on 40 procs for 308641 steps with 400 atoms, finish time Thu Dec  1 04:22:56 2022


Pair  time (%) = 0.58426 (0.018435)
Neigh time (%) = 43.0961 (1.3598)
Comm  time (%) = 26.2117 (0.827049)
Outpt time (%) = 0.000563385 (1.77763e-05)
Other time (%) = 3099.41 (97.7947)

Nlocal:    10 ave 85 max 0 min
Histogram: 31 1 1 2 2 0 0 2 0 1
Nghost:    0.8 ave 9 max 0 min
Histogram: 29 5 2 0 2 0 1 0 0 1
Neighs:    0.15 ave 3 max 0 min
Histogram: 36 0 0 3 0 0 0 0 0 1

Total # of neighbors = 6
Ave neighs/atom = 0.015
Neighbor list builds = 16351
Dangerous builds = 429
Setting up run at Thu Dec  1 04:22:56 2022

Memory usage per processor = 964.609 Mbytes
    Step    Atoms         KinEng            CPU 
55246837      400     0.22706521              0 
55555478      395     0.22073863      3220.8412 
Loop time of 3220.84 on 40 procs for 308641 steps with 395 atoms, finish time Thu Dec  1 05:16:37 2022


Pair  time (%) = 0.592062 (0.0183822)
Neigh time (%) = 53.7891 (1.67003)
Comm  time (%) = 29.8016 (0.925272)
Outpt time (%) = 0.000624782 (1.93981e-05)
Other time (%) = 3136.66 (97.3863)

Nlocal:    9.875 ave 79 max 0 min
Histogram: 31 1 0 2 2 2 0 0 1 1
Nghost:    0.9 ave 7 max 0 min
Histogram: 27 7 0 0 2 1 0 1 0 2
Neighs:    0.175 ave 4 max 0 min
Histogram: 36 0 3 0 0 0 0 0 0 1

Total # of neighbors = 7
Ave neighs/atom = 0.0177215
Neighbor list builds = 20410
Dangerous builds = 1088
Setting up run at Thu Dec  1 05:16:37 2022

Memory usage per processor = 964.609 Mbytes
    Step    Atoms         KinEng            CPU 
55555478      395     0.22073863              0 
55864119      392     0.19327148      3213.6615 
Loop time of 3213.66 on 40 procs for 308641 steps with 392 atoms, finish time Thu Dec  1 06:10:11 2022


Pair  time (%) = 0.583554 (0.0181585)
Neigh time (%) = 51.8191 (1.61246)
Comm  time (%) = 31.6605 (0.985184)
Outpt time (%) = 0.000357077 (1.11112e-05)
Other time (%) = 3129.6 (97.3842)

Nlocal:    9.8 ave 79 max 0 min
Histogram: 31 1 0 1 2 3 0 0 1 1
Nghost:    0.75 ave 6 max 0 min
Histogram: 29 4 0 1 0 3 1 0 1 1
Neighs:    0.1 ave 2 max 0 min
Histogram: 37 0 0 0 0 2 0 0 0 1

Total # of neighbors = 4
Ave neighs/atom = 0.0102041
Neighbor list builds = 19665
Dangerous builds = 453
Setting up run at Thu Dec  1 06:10:11 2022

Memory usage per processor = 964.609 Mbytes
    Step    Atoms         KinEng            CPU 
55864119      392     0.19327148              0 
56172760      390     0.20515855      3195.7983 
Loop time of 3195.8 on 40 procs for 308641 steps with 390 atoms, finish time Thu Dec  1 07:03:27 2022


Pair  time (%) = 0.587835 (0.018394)
Neigh time (%) = 48.3011 (1.51139)
Comm  time (%) = 26.782 (0.838038)
Outpt time (%) = 0.000685538 (2.14512e-05)
Other time (%) = 3120.13 (97.6322)

Nlocal:    9.75 ave 77 max 0 min
Histogram: 31 1 0 1 3 1 0 1 1 1
Nghost:    1 ave 7 max 0 min
Histogram: 29 2 1 0 4 0 0 2 0 2
Neighs:    0.1 ave 2 max 0 min
Histogram: 37 0 0 0 0 2 0 0 0 1

Total # of neighbors = 4
Ave neighs/atom = 0.0102564
Neighbor list builds = 18327
Dangerous builds = 1
Setting up run at Thu Dec  1 07:03:27 2022

Memory usage per processor = 964.609 Mbytes
    Step    Atoms         KinEng            CPU 
56172760      390     0.20515855              0 
56481401      387     0.20434941      3199.7723 
Loop time of 3199.78 on 40 procs for 308641 steps with 387 atoms, finish time Thu Dec  1 07:56:47 2022


Pair  time (%) = 0.578908 (0.0180921)
Neigh time (%) = 47.9656 (1.49903)
Comm  time (%) = 29.7175 (0.928736)
Outpt time (%) = 0.000585743 (1.83057e-05)
Other time (%) = 3121.52 (97.5541)

Nlocal:    9.675 ave 75 max 0 min
Histogram: 31 1 0 0 5 0 1 0 1 1
Nghost:    0.85 ave 7 max 0 min
Histogram: 29 4 2 0 1 1 0 1 0 2
Neighs:    0.15 ave 2 max 0 min
Histogram: 36 0 0 0 0 2 0 0 0 2

Total # of neighbors = 6
Ave neighs/atom = 0.0155039
Neighbor list builds = 18187
Dangerous builds = 0
Setting up run at Thu Dec  1 07:56:47 2022

Memory usage per processor = 964.609 Mbytes
    Step    Atoms         KinEng            CPU 
56481401      387     0.20434941              0 
56790042      386     0.21781005      3298.7419 
Loop time of 3298.74 on 40 procs for 308641 steps with 386 atoms, finish time Thu Dec  1 08:51:46 2022


Pair  time (%) = 0.591174 (0.0179212)
Neigh time (%) = 72.5333 (2.19882)
Comm  time (%) = 44.575 (1.35127)
Outpt time (%) = 0.00604794 (0.000183341)
Other time (%) = 3181.04 (96.4318)

Nlocal:    9.65 ave 76 max 0 min
Histogram: 31 1 0 2 2 1 1 0 1 1
Nghost:    1 ave 9 max 0 min
Histogram: 28 4 2 2 1 1 0 0 1 1
Neighs:    0.025 ave 1 max 0 min
Histogram: 39 0 0 0 0 0 0 0 0 1

Total # of neighbors = 1
Ave neighs/atom = 0.00259067
Neighbor list builds = 27536
Dangerous builds = 680
Setting up run at Thu Dec  1 08:51:46 2022

Memory usage per processor = 964.609 Mbytes
    Step    Atoms         KinEng            CPU 
56790042      386     0.21781005              0 
57098683      379     0.25006713      3310.9928 
Loop time of 3310.99 on 40 procs for 308641 steps with 379 atoms, finish time Thu Dec  1 09:46:57 2022


Pair  time (%) = 0.589828 (0.0178142)
Neigh time (%) = 73.2944 (2.21367)
Comm  time (%) = 44.4141 (1.34141)
Outpt time (%) = 0.000580529 (1.75334e-05)
Other time (%) = 3192.69 (96.4271)

Nlocal:    9.475 ave 75 max 0 min
Histogram: 32 0 0 1 4 0 1 0 1 1
Nghost:    0.9 ave 10 max 0 min
Histogram: 29 4 3 1 0 1 0 0 1 1
Neighs:    0.1 ave 1 max 0 min
Histogram: 36 0 0 0 0 0 0 0 0 4

Total # of neighbors = 4
Ave neighs/atom = 0.0105541
Neighbor list builds = 27773
Dangerous builds = 439
Setting up run at Thu Dec  1 09:46:57 2022

Memory usage per processor = 964.609 Mbytes
    Step    Atoms         KinEng            CPU 
57098683      379     0.25006713              0 
57407324      374     0.24963646      3212.4197 
Loop time of 3212.42 on 40 procs for 308641 steps with 374 atoms, finish time Thu Dec  1 10:40:29 2022


Pair  time (%) = 0.581813 (0.0181114)
Neigh time (%) = 51.1649 (1.59272)
Comm  time (%) = 37.6333 (1.17149)
Outpt time (%) = 0.000585514 (1.82266e-05)
Other time (%) = 3123.04 (97.2177)

Nlocal:    9.35 ave 72 max 0 min
Histogram: 32 0 1 2 1 1 0 0 1 2
Nghost:    0.975 ave 10 max 0 min
Histogram: 28 6 2 1 0 0 0 0 2 1
Neighs:    0.225 ave 4 max 0 min
Histogram: 36 0 1 0 0 2 0 0 0 1

Total # of neighbors = 9
Ave neighs/atom = 0.0240642
Neighbor list builds = 19434
Dangerous builds = 490
Setting up run at Thu Dec  1 10:40:29 2022

Memory usage per processor = 964.609 Mbytes
    Step    Atoms         KinEng            CPU 
57407324      374     0.24963646              0 
57715965      368     0.41927662      3177.9965 
Loop time of 3178 on 40 procs for 308641 steps with 368 atoms, finish time Thu Dec  1 11:33:27 2022


Pair  time (%) = 0.585738 (0.0184311)
Neigh time (%) = 46.0149 (1.44792)
Comm  time (%) = 24.8332 (0.781411)
Outpt time (%) = 0.012704 (0.00039975)
Other time (%) = 3106.55 (97.7518)

Nlocal:    9.2 ave 70 max 0 min
Histogram: 32 0 0 1 2 1 2 0 0 2
Nghost:    0.95 ave 9 max 0 min
Histogram: 28 5 2 2 0 0 1 0 1 1
Neighs:    0.15 ave 2 max 0 min
Histogram: 36 0 0 0 0 2 0 0 0 2

Total # of neighbors = 6
Ave neighs/atom = 0.0163043
Neighbor list builds = 17489
Dangerous builds = 689
Setting up run at Thu Dec  1 11:33:28 2022

Memory usage per processor = 964.609 Mbytes
    Step    Atoms         KinEng            CPU 
57715965      368     0.41927662              0 
58024606      365     0.46081316      3672.1464 
Loop time of 3672.15 on 40 procs for 308641 steps with 365 atoms, finish time Thu Dec  1 12:34:40 2022


Pair  time (%) = 0.586528 (0.0159723)
Neigh time (%) = 55.0467 (1.49903)
Comm  time (%) = 27.9534 (0.761228)
Outpt time (%) = 0.000667924 (1.81889e-05)
Other time (%) = 3588.56 (97.7237)

Nlocal:    9.125 ave 70 max 0 min
Histogram: 32 0 1 0 3 1 0 1 0 2
Nghost:    1.05 ave 11 max 0 min
Histogram: 32 2 2 1 0 0 1 1 0 1
Neighs:    0.15 ave 2 max 0 min
Histogram: 36 0 0 0 0 2 0 0 0 2

Total # of neighbors = 6
Ave neighs/atom = 0.0164384
Neighbor list builds = 20898
Dangerous builds = 0
Setting up run at Thu Dec  1 12:34:40 2022

Memory usage per processor = 964.609 Mbytes
    Step    Atoms         KinEng            CPU 
58024606      365     0.46081316              0 
58333247      361       0.277199      3305.9083 
Loop time of 3305.91 on 40 procs for 308641 steps with 361 atoms, finish time Thu Dec  1 13:29:46 2022


Pair  time (%) = 0.586745 (0.0177484)
Neigh time (%) = 66.9919 (2.02643)
Comm  time (%) = 41.8985 (1.26738)
Outpt time (%) = 0.000672083 (2.03297e-05)
Other time (%) = 3196.43 (96.6884)

Nlocal:    9.025 ave 72 max 0 min
Histogram: 31 1 0 1 4 0 1 0 1 1
Nghost:    0.975 ave 10 max 0 min
Histogram: 28 5 2 1 1 0 1 1 0 1
Neighs:    0.1 ave 1 max 0 min
Histogram: 36 0 0 0 0 0 0 0 0 4

Total # of neighbors = 4
Ave neighs/atom = 0.0110803
Neighbor list builds = 25417
Dangerous builds = 2070
Setting up run at Thu Dec  1 13:29:46 2022

Memory usage per processor = 964.609 Mbytes
    Step    Atoms         KinEng            CPU 
58333247      361       0.277199              0 
58641888      357     0.23863059      3438.3536 
Loop time of 3438.35 on 40 procs for 308641 steps with 357 atoms, finish time Thu Dec  1 14:27:04 2022


Pair  time (%) = 0.584298 (0.0169935)
Neigh time (%) = 48.4044 (1.40778)
Comm  time (%) = 65.4885 (1.90465)
Outpt time (%) = 0.000623853 (1.81439e-05)
Other time (%) = 3323.88 (96.6706)

Nlocal:    8.925 ave 68 max 0 min
Histogram: 31 1 0 2 0 3 1 0 0 2
Nghost:    1 ave 8 max 0 min
Histogram: 28 3 2 1 0 3 2 0 0 1
Neighs:    0.175 ave 2 max 0 min
Histogram: 35 0 0 0 0 3 0 0 0 2

Total # of neighbors = 7
Ave neighs/atom = 0.0196078
Neighbor list builds = 18393
Dangerous builds = 1
Setting up run at Thu Dec  1 14:27:04 2022

Memory usage per processor = 964.609 Mbytes
    Step    Atoms         KinEng            CPU 
58641888      357     0.23863059              0 
58950529      355      0.3132201      3310.8326 
Loop time of 3310.83 on 40 procs for 308641 steps with 355 atoms, finish time Thu Dec  1 15:22:15 2022


Pair  time (%) = 0.582373 (0.0175899)
Neigh time (%) = 51.6621 (1.56039)
Comm  time (%) = 37.0895 (1.12025)
Outpt time (%) = 0.000608234 (1.8371e-05)
Other time (%) = 3221.5 (97.3018)

Nlocal:    8.875 ave 67 max 0 min
Histogram: 31 1 0 1 2 3 0 0 0 2
Nghost:    1.025 ave 8 max 0 min
Histogram: 28 3 3 2 0 0 1 1 1 1
Neighs:    0.075 ave 3 max 0 min
Histogram: 39 0 0 0 0 0 0 0 0 1

Total # of neighbors = 3
Ave neighs/atom = 0.0084507
Neighbor list builds = 19618
Dangerous builds = 16
Setting up run at Thu Dec  1 15:22:15 2022

Memory usage per processor = 964.609 Mbytes
    Step    Atoms         KinEng            CPU 
58950529      355      0.3132201              0 
59259170      348      0.2345174       3530.235 
Loop time of 3530.24 on 40 procs for 308641 steps with 348 atoms, finish time Thu Dec  1 16:21:06 2022


Pair  time (%) = 0.642608 (0.018203)
Neigh time (%) = 56.0508 (1.58774)
Comm  time (%) = 41.6369 (1.17944)
Outpt time (%) = 0.0337282 (0.00095541)
Other time (%) = 3431.87 (97.2137)

Nlocal:    8.7 ave 68 max 0 min
Histogram: 31 1 0 2 2 1 1 0 0 2
Nghost:    0.95 ave 7 max 0 min
Histogram: 27 5 3 0 2 0 0 0 0 3
Neighs:    0.15 ave 2 max 0 min
Histogram: 35 0 0 0 0 4 0 0 0 1

Total # of neighbors = 6
Ave neighs/atom = 0.0172414
Neighbor list builds = 21261
Dangerous builds = 581
Setting up run at Thu Dec  1 16:21:06 2022

Memory usage per processor = 964.609 Mbytes
    Step    Atoms         KinEng            CPU 
59259170      348      0.2345174              0 
59567811      344     0.23264488      3798.3408 
Loop time of 3798.34 on 40 procs for 308641 steps with 344 atoms, finish time Thu Dec  1 17:24:25 2022


Pair  time (%) = 0.583596 (0.0153645)
Neigh time (%) = 63.4864 (1.67142)
Comm  time (%) = 44.1051 (1.16117)
Outpt time (%) = 0.000613183 (1.61435e-05)
Other time (%) = 3690.17 (97.152)

Nlocal:    8.6 ave 70 max 0 min
Histogram: 31 1 0 2 3 1 0 0 1 1
Nghost:    1.1 ave 11 max 0 min
Histogram: 32 2 0 2 2 0 1 0 0 1
Neighs:    0.1 ave 2 max 0 min
Histogram: 37 0 0 0 0 2 0 0 0 1

Total # of neighbors = 4
Ave neighs/atom = 0.0116279
Neighbor list builds = 24114
Dangerous builds = 1
Setting up run at Thu Dec  1 17:24:25 2022

Memory usage per processor = 964.609 Mbytes
    Step    Atoms         KinEng            CPU 
59567811      344     0.23264488              0 
59876452      338     0.29087711      3428.5628 
Loop time of 3428.56 on 40 procs for 308641 steps with 338 atoms, finish time Thu Dec  1 18:21:33 2022


Pair  time (%) = 0.58187 (0.0169712)
Neigh time (%) = 55.3712 (1.615)
Comm  time (%) = 34.5489 (1.00768)
Outpt time (%) = 0.000562587 (1.64088e-05)
Other time (%) = 3338.06 (97.3603)

Nlocal:    8.45 ave 72 max 0 min
Histogram: 31 2 0 1 1 2 1 0 1 1
Nghost:    1.05 ave 10 max 0 min
Histogram: 27 6 1 2 0 1 1 1 0 1
Neighs:    0.05 ave 1 max 0 min
Histogram: 38 0 0 0 0 0 0 0 0 2

Total # of neighbors = 2
Ave neighs/atom = 0.00591716
Neighbor list builds = 21035
Dangerous builds = 308
Setting up run at Thu Dec  1 18:21:33 2022

Memory usage per processor = 964.609 Mbytes
    Step    Atoms         KinEng            CPU 
59876452      338     0.29087711              0 
60185093      334     0.27019398      4403.1202 
Loop time of 4403.12 on 40 procs for 308641 steps with 334 atoms, finish time Thu Dec  1 19:34:57 2022


Pair  time (%) = 0.580754 (0.0131896)
Neigh time (%) = 62.4726 (1.41883)
Comm  time (%) = 45.7347 (1.03869)
Outpt time (%) = 0.000618348 (1.40434e-05)
Other time (%) = 4294.33 (97.5293)

Nlocal:    8.35 ave 71 max 0 min
Histogram: 32 0 0 3 1 2 0 0 1 1
Nghost:    0.85 ave 8 max 0 min
Histogram: 28 4 4 1 0 0 1 1 0 1
Neighs:    0.1 ave 2 max 0 min
Histogram: 37 0 0 0 0 2 0 0 0 1

Total # of neighbors = 4
Ave neighs/atom = 0.011976
Neighbor list builds = 23712
Dangerous builds = 302
Setting up run at Thu Dec  1 19:34:57 2022

Memory usage per processor = 964.609 Mbytes
    Step    Atoms         KinEng            CPU 
60185093      334     0.27019398              0 
60493734      332     0.23146025      3362.1243 
Loop time of 3362.12 on 40 procs for 308641 steps with 332 atoms, finish time Thu Dec  1 20:30:59 2022


Pair  time (%) = 0.581026 (0.0172815)
Neigh time (%) = 59.1083 (1.75806)
Comm  time (%) = 43.4723 (1.293)
Outpt time (%) = 0.000577653 (1.71812e-05)
Other time (%) = 3258.96 (96.9316)

Nlocal:    8.3 ave 69 max 0 min
Histogram: 31 1 0 3 1 1 1 0 1 1
Nghost:    0.9 ave 8 max 0 min
Histogram: 26 5 3 4 0 0 1 0 0 1
Neighs:    0.175 ave 3 max 0 min
Histogram: 36 0 0 2 0 0 1 0 0 1

Total # of neighbors = 7
Ave neighs/atom = 0.0210843
Neighbor list builds = 22446
Dangerous builds = 0
Setting up run at Thu Dec  1 20:30:59 2022

Memory usage per processor = 964.609 Mbytes
    Step    Atoms         KinEng            CPU 
60493734      332     0.23146025              0 
60802375      322     0.81618048      3268.2282 
Loop time of 3268.23 on 40 procs for 308641 steps with 322 atoms, finish time Thu Dec  1 21:25:27 2022


Pair  time (%) = 0.579925 (0.0177443)
Neigh time (%) = 48.4735 (1.48317)
Comm  time (%) = 37.57 (1.14955)
Outpt time (%) = 5.49945e-05 (1.6827e-06)
Other time (%) = 3181.61 (97.3495)

Nlocal:    8.05 ave 69 max 0 min
Histogram: 31 1 1 3 0 1 1 0 1 1
Nghost:    0.9 ave 11 max 0 min
Histogram: 33 2 1 2 0 1 0 0 0 1
Neighs:    0.125 ave 2 max 0 min
Histogram: 36 0 0 0 0 3 0 0 0 1

Total # of neighbors = 5
Ave neighs/atom = 0.015528
Neighbor list builds = 18423
Dangerous builds = 1168
Setting up run at Thu Dec  1 21:25:27 2022

Memory usage per processor = 964.609 Mbytes
    Step    Atoms         KinEng            CPU 
60802375      322     0.81618048              0 
61111016      317     0.17284666      3209.9123 
Loop time of 3209.91 on 40 procs for 308641 steps with 317 atoms, finish time Thu Dec  1 22:18:57 2022


Pair  time (%) = 0.575516 (0.0179293)
Neigh time (%) = 52.0064 (1.62018)
Comm  time (%) = 33.6679 (1.04887)
Outpt time (%) = 0.000640078 (1.99407e-05)
Other time (%) = 3123.66 (97.313)

Nlocal:    7.925 ave 63 max 0 min
Histogram: 31 1 2 1 0 0 3 0 0 2
Nghost:    1.125 ave 10 max 0 min
Histogram: 30 2 2 0 1 0 3 1 0 1
Neighs:    0.075 ave 2 max 0 min
Histogram: 38 0 0 0 0 1 0 0 0 1

Total # of neighbors = 3
Ave neighs/atom = 0.00946372
Neighbor list builds = 19760
Dangerous builds = 0
Setting up run at Thu Dec  1 22:18:57 2022

Memory usage per processor = 964.609 Mbytes
    Step    Atoms         KinEng            CPU 
61111016      317     0.17284666              0 
61419657      312     0.23097082      3197.4666 
Loop time of 3197.47 on 40 procs for 308641 steps with 312 atoms, finish time Thu Dec  1 23:12:15 2022


Pair  time (%) = 0.573054 (0.0179221)
Neigh time (%) = 49.3715 (1.54408)
Comm  time (%) = 36.2878 (1.13489)
Outpt time (%) = 0.000551667 (1.72533e-05)
Other time (%) = 3111.23 (97.3031)

Nlocal:    7.8 ave 62 max 0 min
Histogram: 31 1 0 1 3 2 0 0 0 2
Nghost:    0.975 ave 7 max 0 min
Histogram: 28 2 3 0 4 0 0 0 2 1
Neighs:    0.025 ave 1 max 0 min
Histogram: 39 0 0 0 0 0 0 0 0 1

Total # of neighbors = 1
Ave neighs/atom = 0.00320513
Neighbor list builds = 18759
Dangerous builds = 256
Setting up run at Thu Dec  1 23:12:15 2022

Memory usage per processor = 964.609 Mbytes
    Step    Atoms         KinEng            CPU 
61419657      312     0.23097082              0 
61728298      311     0.18742829      3192.6014 
Loop time of 3192.61 on 40 procs for 308641 steps with 311 atoms, finish time Fri Dec  2 00:05:28 2022


Pair  time (%) = 0.568492 (0.0178065)
Neigh time (%) = 48.7474 (1.52688)
Comm  time (%) = 38.823 (1.21603)
Outpt time (%) = 0.0123183 (0.000385838)
Other time (%) = 3104.46 (97.2389)

Nlocal:    7.775 ave 64 max 0 min
Histogram: 31 1 1 1 2 2 0 0 1 1
Nghost:    1.1 ave 11 max 0 min
Histogram: 28 8 1 1 0 0 0 1 0 1
Neighs:    0.05 ave 2 max 0 min
Histogram: 39 0 0 0 0 0 0 0 0 1

Total # of neighbors = 2
Ave neighs/atom = 0.00643087
Neighbor list builds = 18519
Dangerous builds = 234
Setting up run at Fri Dec  2 00:05:28 2022

Memory usage per processor = 964.609 Mbytes
    Step    Atoms         KinEng            CPU 
61728298      311     0.18742829              0 
61728394      311     0.18738886     0.95153453 
Loop time of 0.951552 on 40 procs for 96 steps with 311 atoms, finish time Fri Dec  2 00:05:29 2022


Pair  time (%) = 0.000174739 (0.0183635)
Neigh time (%) = 0.0131764 (1.38473)
Comm  time (%) = 0.0114473 (1.20301)
Outpt time (%) = 0.000236538 (0.0248581)
Other time (%) = 0.926517 (97.369)

Nlocal:    7.775 ave 64 max 0 min
Histogram: 31 1 1 1 2 2 0 0 1 1
Nghost:    1.125 ave 11 max 0 min
Histogram: 28 7 2 1 0 0 0 1 0 1
Neighs:    0.05 ave 2 max 0 min
Histogram: 39 0 0 0 0 0 0 0 0 1

Total # of neighbors = 2
Ave neighs/atom = 0.00643087
Neighbor list builds = 5
Dangerous builds = 0
