ITEM: TIMESTEP
12345602
ITEM: NUMBER OF ATOMS
80
ITEM: BOX BOUNDS ff ff ff
-0.15 0.15
-0.15 0.15
-0.15 0.15
ITEM: ATOMS id type x y z radius vx vy vz density 
70 1 -0.002345 -0.00309593 -0.015511 0.000291 0 -0.01175 0 2650 
231 1 -0.00149447 -0.00291369 -0.0144188 0.001058 -0.0128488 -0.00869434 -0.0217783 2650 
234 1 -0.00479533 -0.00136004 -0.0157648 0.000291 -0.063361 -0.0313494 0.0126007 2650 
135 1 -0.0021437 -0.000224586 -0.0127523 0.000291 0.0022501 0.000177671 -0.0146391 2650 
274 1 -0.0680745 -0.0202406 -0.00935816 0.000291 -0.00586495 -0.415906 0.0426524 2650 
271 1 -0.00290469 -0.000694288 -0.00348062 0.001058 -0.00599571 -0.0123375 0.00397335 2650 
164 1 -0.0679617 -0.0409282 -0.000645361 0.001058 -0.0428501 0.189244 4.50805 2650 
129 1 -0.00891058 -1.83997e-05 0.00346566 0.00164 -0.000567965 -0.0132688 0.0044317 2650 
176 1 -0.003983 -0.00117493 0.002552 0.000105 0 -0.01175 0 2650 
153 1 -0.014254 -0.00242579 0.00524723 0.00164 0.0485237 -0.0172797 0.11197 2650 
177 1 -0.00899319 -0.00241719 0.00771313 0.00164 0.0602581 -0.00527483 -0.0708804 2650 
120 1 -0.0673806 -0.00864881 0.0143753 0.000105 -0.0108448 -0.273315 -0.0508272 2650 
59 1 -0.00533733 0.0225584 -0.0148889 0.001058 -0.0296259 0.0510009 0.0123749 2650 
76 1 -0.00447713 0.026483 -0.0143021 0.001058 -0.050707 -0.0314315 0.0225266 2650 
79 1 -0.00476605 0.034682 -0.0156183 0.000291 -0.0591234 0.112197 0.0277122 2650 
9 1 -0.00843573 0.0132605 -0.0126427 0.00164 -0.104323 0.0245604 0.0792209 2650 
18 1 -0.00563525 0.0139173 -0.0125712 0.001058 -0.106666 0.0381411 0.0202578 2650 
45 1 -0.00881776 0.0163551 -0.0139152 0.000291 -0.0836926 0.0685501 0.0548488 2650 
99 1 -0.00919273 0.0696416 -0.0122444 0.001058 -0.0645236 0.0859374 0.0117872 2650 
78 1 -0.00191011 0.000891772 -0.0113515 0.000291 -0.0110108 -0.0151313 0.00526005 2650 
94 1 -0.0115432 0.00203635 -0.0118422 0.000291 8.54657e-05 -0.0117335 8.54657e-05 2650 
50 1 -0.010698 0.0108548 -0.011621 0.001058 0.208885 -0.044995 -0.181536 2650 
105 1 -0.00459747 0.0106327 -0.0112889 0.00164 -0.0287986 0.0232051 0.00970683 2650 
19 1 -0.0111157 0.0184493 -0.0112637 0.001058 -0.0347414 0.0397761 0.0459688 2650 
208 1 -0.0123583 0.0310005 -0.00987783 0.001058 -0.226058 0.0252314 0.26326 2650 
47 1 -0.0141427 0.00327966 -0.00705417 0.000291 -0.00116017 0.000499626 0.00624202 2650 
252 1 -0.0138161 0.0367539 -0.00717864 0.001058 -0.00854993 0.0613244 0.033011 2650 
37 1 -0.0158141 0.00403762 -0.00469456 0.000291 -0.0241342 0.00220702 0.0900288 2650 
256 1 -0.0124131 0.0114177 -0.00535318 0.000291 0.00631325 0.000997536 0.00140548 2650 
298 1 -0.0098836 0.0166891 -0.00308251 0.000105 0.0240274 0.00422781 0.0149468 2650 
7 1 -0.00515098 0.024093 -0.00314318 0.000291 0.00379351 0.0136266 -0.000190797 2650 
61 1 -0.016439 0.00184807 -0.001038 0.000291 0 -0.01175 0 2650 
115 1 -0.0157369 0.00970911 -0.000250054 0.001058 -0.00109926 0.00611254 0.0195305 2650 
268 1 -0.011054 0.000710074 0.000789 0.000291 0 -0.01175 0 2650 
278 1 -0.00276899 0.00172024 6.30183e-05 0.001058 -0.00422146 -0.00973183 0.00669825 2650 
60 1 -0.0136158 0.0217074 0.00163358 0.001058 -0.0236585 0.0280959 0.0191437 2650 
33 1 -0.0147275 0.00681013 0.00369487 0.00164 0.0168615 0.0107778 0.0749802 2650 
292 1 -0.0131222 0.00930748 0.00273227 0.001058 0.00554724 0.0313527 0.0202309 2650 
220 1 -0.0112862 0.0207913 0.00319468 0.000291 0.00640109 0.010212 0.0229274 2650 
65 1 -0.00213755 0.0283776 0.00242684 0.00164 0.0281321 0.0366204 0.0111831 2650 
242 1 -0.0116686 0.0147333 0.00592464 0.000291 -0.0086111 0.00654042 0.00262129 2650 
190 1 -0.0145723 0.0109717 0.00678244 0.000291 0.0330722 0.017508 -0.00902836 2650 
41 1 -0.0022147 0.0164803 0.00611155 0.00164 0.0100989 0.00909472 0.0212118 2650 
295 1 -0.00925926 0.0104657 0.0112452 0.000291 0.023278 0.00635196 0.00540017 2650 
246 1 -0.0104849 0.0136359 0.0101022 0.001058 0.0139049 0.0108142 -0.00742869 2650 
161 1 -0.00759846 0.0155086 0.0117858 0.00164 -0.0466088 0.0340485 0.0393723 2650 
260 1 -0.010183 0.027133 0.0117666 0.000291 0.00153684 0.0518001 -0.0362863 2650 
227 1 -0.0051869 0.0129761 0.012831 0.000291 -0.00583406 0.0231799 -0.0375374 2650 
17 1 0.0562752 -0.0129347 -0.0371169 0.00164 -17.4799 2.00449 -26.4722 2650 
52 1 0.0625699 -0.0111318 -0.0147715 0.001058 -0.67266 -10.5998 -31.9234 2650 
244 1 0.0118573 -0.000163795 -0.0104026 0.001058 -0.0123708 -0.0103065 -0.00843406 2650 
48 1 0.009671 -0.000957926 0.000233 0.000105 0 -0.01175 0 2650 
101 1 0.004812 -0.000527926 0.002517 0.000291 0 -0.01175 0 2650 
258 1 0.0127633 -0.00284941 0.00872889 0.001058 0.000575798 -0.0105578 -0.00393769 2650 
95 1 0.006942 -0.00311193 0.013027 0.000291 0 -0.01175 0 2650 
110 1 0.00316214 0.00294484 -0.0153351 0.000291 -0.0245805 -0.00801908 -0.00579878 2650 
275 1 0.00822569 0.00199758 -0.0142946 0.000291 -0.0100785 -0.00614145 -0.00536609 2650 
66 1 0.00370324 0.0158211 -0.0149225 0.001058 -0.0269655 0.0218227 -0.0042522 2650 
123 1 0.00156026 0.0342785 -0.0157218 0.001058 -0.202367 0.0481724 -0.00802495 2650 
266 1 0.00208937 0.0377133 -0.0151393 0.001058 0.0116987 0.0360248 0.0175764 2650 
209 1 0.00659278 0.0396961 -0.0143745 0.001058 -0.102132 0.0260038 -0.0543197 2650 
184 1 0.00950259 0.0301836 -0.0139572 0.000105 -0.114637 -0.0293295 -0.0604711 2650 
299 1 0.0116442 0.0403723 -0.0107639 0.001058 -0.237049 -0.0194361 -0.317876 2650 
127 1 0.00329033 0.0477414 -0.0106191 0.000291 0.0287766 0.0561217 0.00113528 2650 
57 1 0.00845724 0.0165865 -0.00726518 0.00164 0.0165718 -0.0263383 -0.0961621 2650 
273 1 0.00130679 0.0416987 -0.00747033 0.001058 0.00321875 0.0482271 0.00329301 2650 
284 1 0.014191 0.00114107 -0.005949 0.000291 0 -0.01175 0 2650 
77 1 0.00539386 0.0113882 -0.00592166 0.000291 0.0277953 0.00207908 -0.016867 2650 
195 1 0.0141306 0.00686911 -0.0030479 0.001058 -0.0127467 0.00851768 -0.0346344 2650 
259 1 0.0154209 0.0146859 -0.00146932 0.001058 -0.0403684 0.000893033 -0.107224 2650 
128 1 0.00361 0.000749074 0.000511 0.000105 0 -0.01175 0 2650 
223 1 0.00365541 0.0217086 0.00326865 0.001058 -0.0124478 0.0517165 0.00051577 2650 
186 1 0.00058128 0.00147737 0.00486713 0.001058 0.0173039 0.014243 0.0129603 2650 
293 1 0.0141722 0.00887627 0.00704557 0.001058 0.0335528 0.0110096 -0.0614959 2650 
291 1 0.0142778 0.0230717 0.00771283 0.000291 -0.00702108 0.0156679 -0.0185607 2650 
163 1 0.0109723 0.0134583 0.00901191 0.001058 -0.0131464 0.0116812 0.0450427 2650 
277 1 0.0138789 0.021586 0.00916023 0.000291 -0.0182594 0.0426064 0.0251229 2650 
54 1 0.0143779 0.0325669 0.00828375 0.000291 0.0125375 0.00240004 -0.049284 2650 
304 1 0.00291733 0.0526541 0.0124104 0.000291 0.0093205 0.0549334 0.0198118 2650 
136 1 0.0131304 0.111506 0.00636519 0.000105 0.0370802 0.101801 0.0201257 2650 
