ITEM: TIMESTEP
51851786
ITEM: NUMBER OF ATOMS
277
ITEM: BOX BOUNDS ff ff ff
-0.15 0.15
-0.15 0.15
-0.15 0.15
ITEM: ATOMS id type x y z radius vx vy vz density 
1204 1 -0.012534 -0.00582695 -0.0675773 4.2e-05 0.0633686 -0.132294 1.29005 2650 
570 1 -0.00178456 -0.00171955 -0.0163064 0.000423 -0.0711844 -0.00654043 0.0136379 2650 
57 1 -0.0156019 -0.00048637 -0.00597686 0.000116 -0.005289 -0.00564105 0.0259013 2650 
1199 1 -0.0102044 -0.000807347 -0.00437889 0.000116 0.00688135 -0.00474951 0.0194322 2650 
2091 1 -0.00908545 -0.00319018 0.00232878 0.000656 -0.01766 -0.00104755 -0.012435 2650 
3844 1 -0.0142918 -0.00294313 0.00763298 0.000656 0.0284665 -0.00664736 0.0657306 2650 
317 1 -0.000901956 -0.000196506 0.0080628 0.000116 -0.0108569 -0.00956559 0.0119626 2650 
3942 1 -0.0361117 0.0520292 -0.0587465 4.2e-05 -0.186117 -0.24172 0.113865 2650 
3940 1 -0.0012444 0.0539564 -0.0168157 4.2e-05 -0.134422 0.00784712 0.0253272 2650 
685 1 -0.00137281 0.00407962 -0.0163396 0.000423 -0.0579568 0.017462 0.0114253 2650 
1681 1 -0.0039499 0.0123574 -0.0159281 0.000423 -0.103489 -0.0110321 0.0191047 2650 
3990 1 -0.00370735 0.021082 -0.0160033 0.000423 -0.160718 -0.00779948 0.0281762 2650 
3347 1 -0.000274352 0.037237 -0.0164283 0.000423 -0.136895 0.0165259 -0.005608 2650 
313 1 -0.00502792 0.0556009 -0.0159416 0.000116 -0.0640221 0.00910234 0.0125874 2650 
4060 1 -0.00537695 0.0102237 -0.0152126 0.000656 -0.131562 0.0127052 0.0570999 2650 
766 1 -0.00686688 0.0134215 -0.0151146 4.2e-05 -0.0318367 -0.0103512 0.019489 2650 
2207 1 -0.00570555 0.0142666 -0.0151689 0.000656 -0.0801406 -0.0106069 0.0336383 2650 
1506 1 -0.0077683 0.0172602 -0.0150047 0.000116 -0.07271 -0.00503345 0.0565037 2650 
446 1 -0.00478102 0.0211074 -0.0155724 0.000656 -0.161361 0.000288257 0.0284036 2650 
2011 1 -0.0057652 0.0365391 -0.0153942 0.000423 -0.0955924 0.000300723 0.0402253 2650 
2452 1 -0.00799787 0.00944007 -0.0144214 0.000423 -0.150349 0.00148471 0.0642491 2650 
1805 1 -0.00699476 0.00958338 -0.0149693 0.000423 -0.14031 -0.00663768 0.0589181 2650 
3361 1 -0.00875842 0.026959 -0.014389 0.000116 -0.100175 -0.0157263 0.0743808 2650 
591 1 -0.00726162 0.0565124 -0.0147042 0.000423 -0.13955 -0.00627079 0.060507 2650 
2344 1 -0.00326256 0.00344439 -0.0135566 0.000423 -0.0624104 -0.00441767 -0.00747006 2650 
4054 1 -0.00153718 0.00484077 -0.0136573 4.2e-05 0.00320047 0.000636437 -0.00375303 2650 
162 1 -0.0091173 0.0121056 -0.0136577 0.000423 -0.105243 0.011822 0.0783465 2650 
3664 1 -0.00869102 0.0180126 -0.0139561 0.000423 -0.0917758 0.00320056 0.0692873 2650 
810 1 -0.00671087 0.0219032 -0.0138195 0.000423 0.0096428 0.0096266 0.00551936 2650 
2321 1 -0.0085285 0.0376907 -0.0138237 0.000656 -0.105461 -0.0155493 0.0785147 2650 
1083 1 -0.00751732 0.0437821 -0.0136777 0.000116 -0.0177756 0.0183745 0.010473 2650 
4140 1 -0.0101032 0.00549995 -0.0132378 0.000116 -0.110337 -0.00371566 0.0822377 2650 
2333 1 -0.0103017 0.00943713 -0.0127336 0.000423 -0.0938236 -0.00533305 0.0701309 2650 
1251 1 -0.010534 0.0110299 -0.0127822 0.000423 -0.125375 0.0198381 0.0881184 2650 
2590 1 -0.0106827 0.0175388 -0.0129273 0.000116 -0.052973 0.00774154 0.0393245 2650 
2735 1 -0.0115652 0.00864889 -0.0120748 0.000116 -0.0783666 -0.0223257 0.0909858 2650 
68 1 -0.0118174 0.0156697 -0.0119713 0.000116 -0.0878803 -0.00901698 0.10098 2650 
3894 1 -0.0112455 0.0478172 -0.012449 0.000116 -0.0906038 0.00440561 0.0670366 2650 
1077 1 -0.0110758 0.0498539 -0.0124503 0.000116 -0.094794 0.0216099 0.0712045 2650 
1624 1 -0.00815149 0.0229292 -0.0111148 0.000116 -0.0174541 0.00472328 0.00100737 2650 
1248 1 -0.0120621 0.0320203 -0.0112881 0.000423 -0.11278 -0.0161976 0.129426 2650 
2466 1 -0.0126456 0.00963919 -0.0104646 0.000423 -0.0851821 -0.0117925 0.0977942 2650 
2861 1 -0.0127247 0.00245255 -0.00993074 0.000656 -0.0827875 -0.00493797 0.0953546 2650 
3138 1 -0.0132641 0.00118985 -0.00925771 0.000116 0.0108685 0.00146338 -0.0169839 2650 
2064 1 -0.0133988 0.0569605 -0.00879764 0.000116 0.00950051 0.0367371 0.00226635 2650 
4283 1 -0.0138363 0.0108475 -0.00839096 0.000656 -0.0604903 0.00813449 0.113101 2650 
1292 1 -0.0144644 0.0316123 -0.00850667 0.000116 -0.0867256 -0.0362177 0.164479 2650 
2474 1 -0.0130364 0.00966397 -0.0076687 0.000423 0.019266 0.0041538 0.00841316 2650 
1352 1 -0.0147961 0.0283754 -0.00723791 0.000423 -0.0602664 -0.0215097 0.114668 2650 
1355 1 -0.0148862 0.00833257 -0.00688233 0.000423 -0.0488926 -0.00362911 0.0912253 2650 
738 1 -0.0143881 0.00930551 -0.00667972 0.000116 0.0199057 -0.0231709 -0.0221462 2650 
3804 1 -0.00433472 0.0266522 -0.00667577 0.000116 -0.00330571 0.0169929 0.0102127 2650 
3368 1 -0.00808942 0.00122212 -0.00569618 0.000116 0.0163233 0.000748713 -0.00590334 2650 
3255 1 -0.00382629 0.000795204 -0.00557441 0.000116 -0.018233 0.00101224 0.0116604 2650 
2710 1 -0.015754 0.0189253 -0.00586012 0.000116 -0.0356717 0.0154714 0.142244 2650 
1532 1 -0.0087397 0.0252494 -0.00564517 4.2e-05 -0.0166518 0.0147981 -0.00613731 2650 
3071 1 -0.00698293 0.0542733 -0.00605082 4.2e-05 0.0235727 0.0162314 -0.0128367 2650 
1749 1 -0.0159266 0.0075409 -0.0054496 4.2e-05 -0.0335609 -0.0122489 0.101913 2650 
592 1 -0.0156411 0.00800632 -0.0048865 0.000423 -0.0343094 0.0179189 0.129678 2650 
626 1 -0.0158034 0.0312754 -0.00548407 0.000116 -0.0134756 0.007261 0.0555279 2650 
1260 1 -0.0106052 0.0100666 -0.00429576 0.000423 0.00551836 0.000196719 0.0105701 2650 
3184 1 -0.0115344 0.0284038 -0.0046508 0.000656 -0.0112005 0.0154797 -0.00461868 2650 
1036 1 -0.0158105 0.0419599 -0.00432314 0.000423 -0.0439529 0.000214206 0.166823 2650 
1822 1 -0.0162291 0.0435092 -0.0039782 0.000116 -0.0307566 0.0440259 0.117202 2650 
1847 1 -0.0160445 0.0529558 -0.00455754 0.000116 -0.014292 0.0158351 0.0524828 2650 
216 1 -0.0105075 0.0300059 -0.00371084 4.2e-05 0.0166845 -0.000314635 0.00595105 2650 
407 1 -0.0143391 0.0639001 -0.00253567 0.000116 -0.0390157 0.0450448 0.0727464 2650 
2621 1 -0.0166214 0.00610154 -0.00204733 0.000116 -0.00693867 0.0175849 0.163712 2650 
2960 1 -0.0167054 0.0458037 -0.00180174 4.2e-05 -0.0092911 -0.0384104 0.21918 2650 
1738 1 -0.0166835 0.0236917 -0.00115578 0.000116 -0.00631786 -0.0037655 0.16194 2650 
2300 1 -0.0159559 0.0361908 -0.00107208 4.2e-05 -0.0117418 0.0168767 0.00628655 2650 
1188 1 -0.00897931 0.0706734 -0.00108508 0.000116 0.00366394 0.0320202 -0.0103986 2650 
3746 1 -0.00968756 0.0200768 -0.000774094 0.000423 0.0145105 -0.000577005 0.0140633 2650 
1726 1 -0.0130158 0.0019409 0.000351014 0.000116 0.0067969 -0.0044196 0.00453897 2650 
1968 1 -0.0133509 0.0331973 0.000625431 0.000116 -0.00332427 0.0184555 -0.0151829 2650 
86 1 -0.0167629 0.0123446 0.00107581 0.000116 -0.0054165 -0.001578 0.129274 2650 
4364 1 -0.00722645 0.0522179 0.00137503 0.000116 0.0137697 0.0183935 -0.0198533 2650 
3755 1 -0.0162196 0.0349531 0.00241918 0.000423 0.0263364 -0.00101249 0.147814 2650 
2995 1 -0.015953 0.00585752 0.00372802 0.000423 0.024888 -0.00937995 0.131317 2650 
3795 1 -0.0163095 0.00943316 0.0035626 0.000116 0.0188608 -0.00976806 0.0999519 2650 
709 1 -0.0160677 0.0118348 0.003165 0.000423 0.0236559 -0.00135949 0.128194 2650 
899 1 -0.00626014 0.0252124 0.00371987 0.000423 0.000282915 0.0179577 -0.0240002 2650 
2043 1 -0.0157222 0.0374503 0.00489399 0.000116 0.038509 -0.0152318 0.152017 2650 
4043 1 -0.000405297 0.0432046 0.0050515 0.000116 -0.0296318 0.0129292 0.00512173 2650 
2089 1 -0.0113297 0.00185753 0.00565327 4.2e-05 -0.00594497 -0.00279759 -0.00800736 2650 
48 1 -0.0153692 0.0200404 0.00589902 0.000423 0.0707894 -0.0229285 0.170264 2650 
519 1 -0.00254558 0.0296997 0.00619628 0.000116 -0.0185546 0.00843586 -0.0126822 2650 
3098 1 -0.0154315 0.0512595 0.00556882 0.000423 0.0630157 0.00420385 0.144744 2650 
3988 1 -0.0151237 0.0161674 0.00646094 0.000423 0.0570216 -0.00913793 0.136276 2650 
2093 1 -0.0146371 0.0304567 0.00707015 0.000656 0.0529716 -0.00317847 0.127967 2650 
4092 1 -0.0127405 0.0602233 0.0067302 0.000423 0.0243547 0.0302025 0.0308319 2650 
645 1 -0.0144748 0.028836 0.00838825 0.000116 0.0638984 -0.0260219 0.144057 2650 
693 1 -0.013756 0.0141812 0.00899721 0.000423 0.0819864 -0.000176204 0.109776 2650 
1754 1 -0.0127952 0.00264898 0.0108139 4.2e-05 -0.013776 -0.0786897 -0.0156997 2650 
993 1 -0.0119468 0.00964767 0.0109717 0.000656 0.0907577 -0.00374374 0.121463 2650 
1426 1 -0.0129181 0.0124664 0.0107236 4.2e-05 0.073456 0.00471048 0.0984192 2650 
3520 1 -0.0122104 0.017442 0.0107196 0.000656 0.0994611 -0.0299455 0.133119 2650 
873 1 -0.0113207 0.00705808 0.0124332 4.2e-05 -0.0122301 -0.134012 -0.0149031 2650 
1149 1 -0.0107997 0.0256463 0.0124842 0.000423 0.0834237 0.00480176 0.0715118 2650 
761 1 -0.0113226 0.0331373 0.0125251 4.2e-05 0.108265 0.00832784 0.0941068 2650 
657 1 -0.0114986 0.0335332 0.0123667 4.2e-05 0.154901 -0.0444209 0.135128 2650 
257 1 -0.00295341 0.0484853 0.0125625 0.000423 -0.0158303 0.0107517 0.011139 2650 
3003 1 -0.0104969 0.0248726 0.0127769 0.000423 0.0762059 -0.00434362 0.0671221 2650 
3699 1 -0.0107601 0.030613 0.0129317 0.000116 0.120477 0.0199934 0.104617 2650 
3457 1 -0.0106092 0.0331086 0.0130476 0.000116 0.11783 -0.0219361 0.102742 2650 
1321 1 -0.00937616 0.0555675 0.0132337 0.000656 0.084044 0.0236956 0.0730545 2650 
237 1 -0.00830473 0.00784327 0.0141087 0.000423 0.104973 0.0377026 0.0556476 2650 
3490 1 -0.00887177 0.0126049 0.0139608 0.000116 0.0928339 0.0360176 0.0405105 2650 
4155 1 -0.00916225 0.0225612 0.0142052 4.2e-05 0.147472 0.00201217 0.0776509 2650 
1926 1 -0.00901253 0.0323429 0.0141214 0.000116 0.0709106 0.0256826 0.035834 2650 
2203 1 -0.00893836 0.0467347 0.0135178 0.000656 0.256318 -0.0126297 0.137913 2650 
1019 1 -0.00524213 0.0511678 0.0134211 0.000423 0.0105649 0.0286446 -0.00430724 2650 
3750 1 -0.00798078 0.00588858 0.0143138 0.000423 0.140563 -0.00951887 0.0765727 2650 
3493 1 -0.00655806 0.0293766 0.0146483 0.000116 0.0462719 -0.00698145 0.0214572 2650 
3672 1 -0.00749339 0.0315128 0.0146141 0.000423 0.0863173 0.00923856 0.0450267 2650 
33 1 -0.0071435 0.0342088 0.014824 0.000423 0.108746 -0.0135175 0.0575187 2650 
2643 1 -0.00749552 0.0360091 0.014378 0.000656 0.0894064 -0.040088 0.0477984 2650 
2656 1 -0.00656868 0.00962796 0.0150638 0.000423 0.109405 0.0127477 0.0587515 2650 
425 1 -0.00664756 0.0124247 0.0154179 0.000116 0.115461 0.0404513 0.0628282 2650 
1571 1 -0.00311767 0.0170891 0.0154758 0.000423 -0.0235883 0.00674907 0.0245463 2650 
3484 1 -0.006988 0.0245289 0.015401 0.000116 0.0337885 -0.00954214 -0.0145014 2650 
3846 1 -0.00507697 0.0280929 0.0154031 0.000656 0.0897211 0.00241927 0.0221336 2650 
3428 1 -0.00499685 0.0326997 0.0150937 0.000423 0.00469127 0.00432005 -0.00636301 2650 
2204 1 -0.00260464 0.0646825 0.0152694 0.000656 -0.0226749 0.0292507 -0.00216139 2650 
1340 1 -0.000447432 0.013006 0.0163947 0.000423 0.111217 0.00449051 0.00467074 2650 
1806 1 -0.00176496 0.0139498 0.0163435 0.000423 0.103219 0.00553051 0.00434683 2650 
3923 1 -0.00383692 0.0156599 0.016255 0.000116 0.153147 0.0134164 0.0389955 2650 
1414 1 -0.00429424 0.0186045 0.0161454 0.000116 0.176618 -0.040417 0.0441537 2650 
3488 1 -0.00386384 0.0205055 0.0162624 0.000116 0.159456 0.0354336 0.0401689 2650 
848 1 -0.00546827 0.0256134 0.0158657 0.000116 0.090852 -0.00906545 0.0224472 2650 
3045 1 -0.00215389 0.0156317 0.0166314 0.000116 0.159667 0.0202023 0.0065214 2650 
3463 1 -0.00245274 0.0189552 0.0166082 0.000116 0.167007 -0.0332764 0.0417729 2650 
2036 1 -0.000120517 0.0354202 0.0167203 0.000116 0.154665 -0.00433047 0.00621317 2650 
3212 1 -0.0045793 0.00780235 0.0684254 0.000423 42.1484 0.953781 2.82018 2650 
2459 1 -0.00118537 0.0803725 -0.00559286 0.000423 -0.0271873 0.0486796 -0.0169366 2650 
3462 1 -0.0138087 0.126746 -0.00374905 0.000116 -0.021591 0.116512 0.0169291 2650 
2937 1 -0.00451795 0.12732 -0.003247 0.000116 -0.0211895 0.0776623 0.00167704 2650 
3636 1 -0.0135842 0.0863526 -0.000840056 0.000423 -0.00489238 0.0530946 -0.0205961 2650 
3548 1 0.0136151 -0.0543772 -0.0257878 0.000423 -3.87808 4.1021e-06 -2.03007 2650 
1590 1 0.0188043 -0.0543772 -0.0223237 0.000423 -3.70931 -1.14793e-06 -3.15665 2650 
4163 1 0.0105317 -0.00016502 -0.0130271 4.2e-05 -0.0967992 -0.0163966 -0.0839327 2650 
4141 1 0.00628315 -0.00301251 -0.00657314 0.000116 0.00224774 -0.00271218 -0.00497942 2650 
2394 1 0.0147104 -0.00228218 -0.00184456 0.000116 0.0170815 -0.00380473 -0.00869004 2650 
1406 1 0.0032967 -0.00129676 -0.000889754 0.000116 0.00394878 0.00104937 -0.0164593 2650 
1434 1 0.01622 -0.00111944 -0.00103742 0.000656 -0.0105118 -0.00706286 -0.0552155 2650 
113 1 0.0161793 -0.00302374 -0.000108747 0.000656 0.0036367 -0.00289815 -0.0883495 2650 
541 1 0.00668613 -0.00143757 -0.000584002 4.2e-05 -0.0111057 -0.00586421 0.00231721 2650 
1982 1 0.0160722 -0.000193911 0.00188509 0.000656 0.00230265 0.00667026 -0.0628509 2650 
4225 1 0.00757022 -0.00113378 0.00993426 0.000116 0.00487293 -0.000276347 -3.71761e-05 2650 
1461 1 0.0268252 -0.0543772 0.0113633 0.000423 1.74473 3.64309e-07 -4.0989 2650 
3578 1 0.00461994 -0.00156781 0.0131334 0.000116 0.0134144 -0.00213052 -0.0041374 2650 
1694 1 0.0171359 -0.0590742 0.0243226 0.000423 4.60842 0.0736319 -3.24875 2650 
826 1 0.000779574 0.0469317 -0.0166769 0.000116 -0.225907 -0.0154909 -0.0096386 2650 
2391 1 0.00382834 0.0158179 -0.016272 0.000116 -0.122193 -0.030784 -0.0312656 2650 
1999 1 0.00379325 0.0182805 -0.0159492 0.000423 -0.162463 0.0248167 -0.0405221 2650 
3077 1 0.0014493 0.0195287 -0.0161286 0.000656 -0.209514 0.018305 -0.00840653 2650 
3341 1 0.00364496 0.023551 -0.015997 0.000423 -0.160894 0.0333993 -0.0397701 2650 
1627 1 0.00434284 0.0260058 -0.0161434 0.000116 -0.143101 -0.0213387 -0.035346 2650 
44 1 0.00562341 0.00752743 -0.015446 0.000423 -0.0866491 -0.0113821 -0.0227708 2650 
3473 1 0.007287 0.00811762 -0.0150178 0.000116 -0.137658 -0.01889 -0.0737052 2650 
2184 1 0.00677845 0.0201826 -0.0154504 0.000116 -0.120904 0.0258174 -0.0648804 2650 
2751 1 0.00504542 0.0414876 -0.0153798 0.000656 -0.149223 -0.00316619 -0.0386164 2650 
3004 1 0.00486064 0.050152 -0.0156435 0.000423 -0.134587 -0.00175633 -0.0365525 2650 
4358 1 0.00746474 0.000615289 -0.0148978 0.000116 -0.110522 -0.0671949 -0.0594733 2650 
3214 1 0.00804034 0.0106993 -0.0142879 0.000423 -0.132298 -0.021618 -0.0705037 2650 
2456 1 0.00791851 0.0324904 -0.0142415 0.000423 -0.0506256 0.00648528 -0.0239014 2650 
1283 1 0.00789222 0.0334707 -0.0147803 0.000116 -0.160562 0.00501285 -0.0848452 2650 
115 1 0.00688061 0.0388688 -0.0146762 0.000656 -0.155553 0.0116223 -0.0829464 2650 
63 1 0.00233248 0.0405308 -0.014842 0.000116 0.0102138 0.0255979 0.00254809 2650 
1789 1 0.00729297 0.0559369 -0.0146642 0.000423 -0.139293 0.0128457 -0.0741654 2650 
3461 1 0.0095002 0.0271957 -0.0139531 0.000116 -0.169054 -0.00776458 -0.0888002 2650 
1449 1 0.00643092 0.0333071 -0.0141895 0.000423 0.00231854 0.0195765 -0.0161346 2650 
2925 1 0.00916142 0.0377443 -0.0139392 0.000116 -0.102657 -0.000323744 -0.0841882 2650 
1879 1 0.00775578 0.0492168 -0.0141469 0.000656 -0.139381 -0.0248795 -0.0749632 2650 
3830 1 0.010653 0.000222667 -0.0129263 4.2e-05 -0.0711017 -0.0189967 -0.0618511 2650 
2177 1 0.0107327 0.0382748 -0.012723 0.000116 -0.100961 0.002524 -0.0862445 2650 
653 1 0.0110202 0.0142062 -0.0125772 4.2e-05 -0.144667 0.0087701 -0.125564 2650 
147 1 0.00992148 0.0255963 -0.012062 0.000423 -0.0234366 0.0142358 -0.0107778 2650 
2073 1 0.0114136 0.0298501 -0.0123686 0.000116 -0.0788557 0.00426689 -0.0685518 2650 
4030 1 0.00735776 0.0419897 -0.0121279 0.000116 0.00620615 0.0185751 -0.0245126 2650 
2125 1 0.0104598 0.0483527 -0.0122578 0.000423 -0.0695374 -0.00176438 -0.0515877 2650 
722 1 0.00554655 0.0522196 -0.0126262 0.000116 0.025322 0.0229652 -0.018499 2650 
1048 1 0.0129522 0.00524505 -0.0104844 0.000116 -0.0492542 -0.00312178 -0.0660751 2650 
1887 1 0.0125262 0.0108162 -0.0106165 0.000423 -0.0848089 0.000779129 -0.113894 2650 
1542 1 0.0121624 0.0177064 -0.0108328 0.000656 -0.0818522 0.00164853 -0.110309 2650 
2757 1 0.0123217 0.019623 -0.0105679 0.000656 -0.0922772 0.0107309 -0.123675 2650 
2703 1 0.0131406 0.042247 -0.0102928 0.000116 -0.137231 -0.00829433 -0.183887 2650 
2625 1 0.0135101 0.00963949 -0.00968149 0.000116 -0.0731804 -0.0206885 -0.0977009 2650 
296 1 0.01342 0.0104488 -0.00965214 0.000116 -0.0698874 0.00239128 -0.0888729 2650 
2518 1 0.0101964 0.00811337 -0.00873232 0.000116 0.0180409 -2.45251e-05 0.015384 2650 
2463 1 0.0139438 0.0100606 -0.0087633 0.000423 -0.0648739 0.0079808 -0.100789 2650 
155 1 0.0144176 0.010126 -0.0080132 0.000423 -0.04395 0.00837611 -0.101685 2650 
4267 1 0.013402 0.0543574 -0.00834163 4.2e-05 -0.0310862 -0.00105533 -0.0341112 2650 
2038 1 0.00900301 0.0521166 -0.00771451 0.000116 -0.0111632 0.0285646 0.0109935 2650 
3751 1 0.00298368 0.0628016 -0.00758957 0.000423 0.00814082 0.0278495 -0.0202437 2650 
1497 1 0.00748975 0.00131942 -0.00666989 0.000116 0.0062726 -0.000731408 0.0198265 2650 
1209 1 0.015165 0.0107287 -0.00669033 4.2e-05 -0.0156963 -0.0173224 -0.0565024 2650 
2181 1 0.0152165 0.0110894 -0.00671141 0.000116 -0.0320847 0.0139228 -0.0748658 2650 
2285 1 0.0155986 0.0160662 -0.00610747 0.000116 -0.0719303 0.000714999 -0.171808 2650 
3208 1 0.0151017 0.0294526 -0.00568188 0.000423 -0.0282144 0.0347485 -0.0967 2650 
4152 1 0.00685319 0.0578536 -0.00593236 0.000116 -0.0112282 0.0300022 -0.0175136 2650 
2153 1 0.0160108 0.00961495 -0.0050441 0.000116 -0.0434445 -0.0207534 -0.100727 2650 
87 1 0.0160524 0.0223564 -0.00506564 0.000116 -0.076076 0.00711897 -0.184399 2650 
3734 1 0.0128024 0.0507662 -0.005267 0.000656 -0.015148 0.0275284 -0.022511 2650 
3951 1 0.0158909 0.0179945 -0.00326568 0.000656 -0.0126798 -0.0281133 -0.0723793 2650 
481 1 0.0106565 0.0243118 -0.00332495 0.000423 0.00525407 0.0137572 0.00279763 2650 
4227 1 0.0164512 0.0107491 -0.00277097 0.000116 -0.0308237 -0.015324 -0.166987 2650 
3122 1 0.0160169 0.0370884 -0.00260241 0.000423 -0.00289725 0.0683254 -0.0767898 2650 
861 1 0.0164305 0.0421823 -0.00284908 0.000116 -0.0403538 0.0133597 -0.215612 2650 
3025 1 0.000158018 0.00284866 -0.00163249 0.000116 0.000434812 -0.00202592 -0.0174407 2650 
1271 1 0.00859616 0.0210051 -0.00203889 0.000116 0.0228668 -0.0470901 -0.0519934 2650 
2742 1 0.0166758 0.0252256 -0.00175514 4.2e-05 -0.0190388 0.0688792 -0.101845 2650 
4158 1 0.00116509 0.0309151 -0.00115297 4.2e-05 0.0110241 -0.00998242 -0.01107 2650 
1875 1 0.0055979 0.00604401 -0.00066582 0.000656 -0.00140744 0.00281579 -0.0229514 2650 
589 1 0.0116892 0.0343922 -0.000252718 0.000423 0.0276608 0.0194302 -0.00412096 2650 
2397 1 0.0089053 0.0421489 0.000593801 0.000116 0.0227168 0.0263662 0.0149459 2650 
382 1 0.0163726 0.0422507 0.00074921 0.000423 0.00498775 0.00322774 -0.118523 2650 
303 1 0.0165308 0.0127253 0.00149858 0.000116 -0.003115 0.0356291 -0.114909 2650 
1473 1 0.0162951 0.00956025 0.00239967 0.000423 0.00409588 0.0122502 -0.09821 2650 
2155 1 0.0164246 0.0143479 0.0024482 0.000116 0.0110757 0.0107051 -0.0469417 2650 
2876 1 0.0155786 0.0382416 0.00245312 0.000423 0.0187149 0.0028265 -0.0652994 2650 
737 1 0.0165025 0.0441091 0.00293706 0.000116 0.019264 -0.00946539 -0.0830654 2650 
2516 1 0.0120446 0.0630104 0.00245311 0.000116 -0.0185673 0.0304786 -0.000817471 2650 
158 1 0.0157413 0.0435949 0.00322185 0.000423 0.01953 -0.021543 -0.0616476 2650 
1057 1 0.0159561 0.00400484 0.00399123 0.000116 0.0218817 0.00652805 -0.106041 2650 
1396 1 0.0162191 0.0311842 0.00407446 0.000116 0.031921 0.00161301 -0.128274 2650 
908 1 0.0157762 0.0388168 0.00441948 0.000423 0.0146836 0.019385 -0.0578563 2650 
2137 1 0.0154911 0.00343998 0.0051468 0.000423 0.0134695 -0.013651 -0.0685926 2650 
540 1 0.0131627 0.0171952 0.00628394 4.2e-05 -0.00191139 0.00734688 -0.00939248 2650 
1709 1 0.0156731 0.0165959 0.00611938 0.000116 0.0225061 0.0136573 -0.0883957 2650 
3995 1 0.00165845 0.0338089 0.0061318 0.000423 0.0304287 -0.00499328 -0.00157784 2650 
1643 1 8.83015e-05 0.0445508 0.00620945 4.2e-05 -0.00583507 0.0218137 0.017945 2650 
2561 1 0.0149567 0.0459726 0.00674974 0.000423 0.0724384 0.00657742 -0.134945 2650 
1618 1 0.013854 0.000152768 0.00758322 0.000116 0.00986926 0.00047594 0.00202929 2650 
2721 1 0.0117227 0.00506478 0.0083809 0.000116 -0.00289532 0.00407688 0.0313564 2650 
3299 1 0.0138872 0.0121472 0.0083086 0.000656 0.0609572 -0.0322442 -0.115792 2650 
3678 1 0.0146676 0.0121698 0.00822583 0.000116 0.0621849 -0.0386169 -0.104991 2650 
3513 1 0.00607442 0.0175895 0.00801055 0.000656 0.0105925 0.0125942 -0.000895867 2650 
380 1 0.0134571 0.0452738 0.0086762 0.000423 0.0307448 0.0132016 0.00402546 2650 
1113 1 0.0136405 0.0331989 0.00888155 0.000423 0.085257 -0.00935802 -0.107844 2650 
2892 1 0.013684 0.0345942 0.00922845 0.000423 0.0987882 0.023484 -0.119805 2650 
1739 1 0.0138264 0.0245341 0.00973574 0.000116 0.0849421 -0.0392868 -0.162115 2650 
557 1 0.012859 0.0466956 0.00982267 0.000656 0.139352 -0.00830564 -0.15999 2650 
3660 1 0.0123077 0.00299942 0.0106293 0.000423 0.119297 -0.00265552 -0.102703 2650 
3087 1 0.0103562 0.0187387 0.0106466 0.000423 -0.0104531 -0.0206261 -0.003601 2650 
4052 1 0.00588552 0.0372851 0.0103269 4.2e-05 -0.0166248 0.0147617 -0.00696895 2650 
1201 1 0.0131013 0.0458579 0.0104839 4.2e-05 0.11631 -0.0244028 -0.133329 2650 
2730 1 0.0111716 0.00103365 0.0118177 0.000116 0.147689 0.027686 -0.0954217 2650 
278 1 0.00617042 0.0312236 0.0114943 0.000116 -0.0188817 0.0141605 0.00822503 2650 
1761 1 0.0104838 0.000617262 0.0122865 0.000656 0.129446 -0.0141498 -0.0960542 2650 
2667 1 0.0103503 0.0150417 0.0123926 0.000423 0.094468 0.00755039 -0.0815684 2650 
1605 1 0.0116893 0.0368886 0.0121199 0.000116 0.0855129 0.0159488 -0.0984423 2650 
1545 1 0.0110972 0.0411888 0.0118826 0.000656 0.130532 -0.035488 -0.0970813 2650 
2303 1 0.010737 0.0103411 0.0128935 4.2e-05 0.116774 0.0370303 -0.0866664 2650 
2748 1 0.00941744 0.0319027 0.0132419 0.000656 0.0566387 0.0165552 -0.0282239 2650 
2713 1 0.0090629 0.0294333 0.0141866 0.000116 0.114764 -0.0419072 -0.0500066 2650 
3715 1 0.00860461 0.0329413 0.014477 0.000116 0.0779198 0.00383677 -0.0669269 2650 
2260 1 0.00585084 0.00567522 0.0154595 0.000116 0.112713 -0.0018735 -0.0588951 2650 
2324 1 0.00491568 0.0108117 0.0157444 0.000423 0.129136 0.000382918 -0.0545863 2650 
1819 1 0.00600421 0.0256407 0.0156669 0.000116 0.137705 0.0274884 -0.0566786 2650 
2158 1 0.00401173 0.0356874 0.0154938 0.000116 0.0198199 0.0110733 0.0278906 2650 
310 1 0.00737407 0.0438908 0.0150165 0.000116 0.175754 0.005679 -0.0751703 2650 
477 1 0.000744321 0.00840417 0.0158195 0.000423 -0.0125558 -0.00101127 0.0162692 2650 
1715 1 0.00376965 0.0084273 0.0162593 0.000116 0.219002 -0.023953 -0.0410763 2650 
3235 1 0.00093283 0.013507 0.0164377 0.000423 0.114623 0.00902828 0.00473112 2650 
3416 1 0.00215331 0.0322609 0.0162651 0.000423 0.152213 -0.0175621 -0.0270905 2650 
841 1 0.00568993 0.0330526 0.0157894 0.000116 0.122414 -0.0345204 -0.0507083 2650 
2077 1 0.00205181 0.0185334 0.0165941 0.000116 0.141395 0.0112035 -0.0251906 2650 
3401 1 0.000620881 0.0480363 0.0168079 4.2e-05 0.151462 0.0105946 0.00641411 2650 
526 1 0.00155718 0.0588508 0.0260819 0.000116 0.148077 -0.00176992 3.11375 2650 
4108 1 0.0281224 0.0577469 0.0625455 0.000423 0.130551 -0.155803 -0.0586995 2650 
3359 1 0.000167938 0.0784694 -0.0163062 0.000116 -0.0184904 0.0499002 -0.00605484 2650 
496 1 0.00100342 0.0875763 -0.00428628 0.000116 -0.00218426 0.0499029 -0.0107527 2650 
3588 1 0.0153526 0.137091 0.00283713 0.000116 0.00876556 0.0608668 -0.000217249 2650 
4109 1 0.00581171 0.0935667 0.00669235 0.000423 -0.0060496 0.0581436 -0.00547312 2650 
3729 1 0.013183 0.0812625 0.00739187 0.000656 0.0337539 0.0447259 0.0103477 2650 
172 1 0.0141339 0.0900351 0.00755755 0.000116 0.00286513 0.0543241 -0.00512154 2650 
