LIGGGHTS (Version LIGGGHTS-PUBLIC 3.8.0, compiled 2022-11-07-16:55:38 by serperd1, git commit 86544c3f1215bc9744d7929e3eacf53ba086af9e)
units si #
dimension 3 #
newton off #
boundary f f f #
atom_style sphere #
pair_style gran model hertz tangential history #
communicate single vel yes #
region outer_basket cylinder y 0 0 0.15 -0.15 0.15 #
create_box 3 outer_basket #
Created orthogonal box = (-0.15 -0.15 -0.15) to (0.15 0.15 0.15)
  2 by 4 by 5 MPI processor grid
variable my_omega equal 157.0796 #
fix cone_mesh all mesh/surface file cone.stl type 3 scale 1 #
fix rotating_wall_1 all move/mesh mesh cone_mesh rotate/variable origin 0 0 0 axis 0 1 0 omega v_my_omega #
fix filter_mesh_walls all wall/gran model hertz tangential history primitive type 2 ycylinder_filtermesh 0.069 0 0 3 18 -0.0628 0 0.015048 0.013078 0.14005 0.13808 shear x 10.8385 #

fix inlet_cyl_wall_mesh all mesh/surface file in_cyl.stl type 3 scale 1 #
fix top_cyl_wall_mesh all mesh/surface file top_cyl.stl type 3 scale 1 #
fix rotating_wall_4 all move/mesh mesh top_cyl_wall_mesh rotate/variable origin 0 0 0 axis 0 1 0 omega v_my_omega #
fix bot_cyl_wall_mesh all mesh/surface file bot_cyl.stl type 3 scale 1 #
fix rotating_wall_5 all move/mesh mesh bot_cyl_wall_mesh rotate/variable origin 0 0 0 axis 0 1 0 omega v_my_omega #
fix bot_disk_wall_mesh all mesh/surface file bottom_disk.stl type 3 scale 1 #
fix rotating_wall_6 all move/mesh mesh bot_disk_wall_mesh rotate/variable origin 0 0 0 axis 0 1 0 omega v_my_omega #
fix top_disk_wall_mesh all mesh/surface file top_disk.stl type 3 scale 1 #
fix rotating_wall_7 all move/mesh mesh top_disk_wall_mesh rotate/variable origin 0 0 0 axis 0 1 0 omega v_my_omega #
fix GMSH_mesh_walls all wall/gran model hertz tangential history mesh n_meshes 6 meshes cone_mesh top_cyl_wall_mesh bot_cyl_wall_mesh bot_disk_wall_mesh inlet_cyl_wall_mesh top_disk_wall_mesh #
fix Young_mod all property/global youngsModulus peratomtype 375000000 46000000 1000000000 #
fix Poisson_rat all property/global poissonsRatio peratomtype 0.32 0.42 0.29 #
fix Coeff_rest all property/global coefficientRestitution peratomtypepair 3 0.15 0.32 0.475 0.32 0.49 0.645 0.475 0.645 0.8 #
fix Coeff_fric all property/global coefficientFriction peratomtypepair 3 0.04 0.145 0.12 0.145 0.25 0.225 0.12 0.225 0.2 #

neighbor 0.00026244 bin #
neigh_modify delay 0 one 100000 page 5000000 #
fix r_0to10p all particletemplate/sphere 12345787 atom_type 1 density constant 2650 radius constant 4.2e-05 #
fix r_10to50p all particletemplate/sphere 15485863 atom_type 1 density constant 2650 radius constant 0.0001164 #
fix r_50to90p all particletemplate/sphere 15485867 atom_type 1 density constant 2650 radius constant 0.0004233 #
fix r_90to100p all particletemplate/sphere 32452843 atom_type 1 density constant 2650 radius constant 0.0006561 #
fix prob_par all particledistribution/discrete 32452867 4 r_0to10p 0.1 r_10to50p 0.4 r_50to90p 0.4 r_90to100p 0.1 #
pair_coeff * * #
timestep 3.24e-08 #

fix nve_group all nve/sphere #
fix grav_fix all gravity 6.1081 vector 0.017 -0.0033 0 -1 0 #
fix cent_fix all centrifugal 157.0796 0.017 -0.0033 0.069 #

variable step equal step #
variable mycount equal count(all) #
fix print_amount_of_atoms all print 25 "${step} ${mycount}" file numatoms.txt screen no #
run 0 #
Setting up run at Sat Dec 24 04:42:27 2022

Memory usage per processor = 960.256 Mbytes
    Step    Atoms         KinEng            CPU 
       0        0              0              0 
Loop time of 6.46505e-05 on 40 procs for 0 steps with 0 atoms, finish time Sat Dec 24 04:42:27 2022


Pair  time (%) = 0 (0)
Neigh time (%) = 0 (0)
Comm  time (%) = 0 (0)
Outpt time (%) = 0 (0)
Other time (%) = 6.46505e-05 (100)

Nlocal:    0 ave 0 max 0 min
Histogram: 40 0 0 0 0 0 0 0 0 0
Nghost:    0 ave 0 max 0 min
Histogram: 40 0 0 0 0 0 0 0 0 0
Neighs:    0 ave 0 max 0 min
Histogram: 40 0 0 0 0 0 0 0 0 0

Total # of neighbors = 0
Neighbor list builds = 0
Dangerous builds = 0
run 1 #
Setting up run at Sat Dec 24 04:42:27 2022

Memory usage per processor = 960.256 Mbytes
    Step    Atoms         KinEng            CPU 
       0        0              0              0 
       1        0              0    0.009643471 
Loop time of 0.00966448 on 40 procs for 1 steps with 0 atoms, finish time Sat Dec 24 04:42:27 2022


Pair  time (%) = 6.38997e-06 (0.0661181)
Neigh time (%) = 0 (0)
Comm  time (%) = 0.000190034 (1.96632)
Outpt time (%) = 0.000116624 (1.20672)
Other time (%) = 0.00935143 (96.7608)

Nlocal:    0 ave 0 max 0 min
Histogram: 40 0 0 0 0 0 0 0 0 0
Nghost:    0 ave 0 max 0 min
Histogram: 40 0 0 0 0 0 0 0 0 0
Neighs:    0 ave 0 max 0 min
Histogram: 40 0 0 0 0 0 0 0 0 0

Total # of neighbors = 0
Neighbor list builds = 0
Dangerous builds = 0
read_dump dump.atom_info_1 1 x y z radius vx vy vz box no add yes replace no #
  orthogonal box = (-0.15 -0.15 -0.15) to (0.15 0.15 0.15)
  0 atoms before read
  4382 atoms in snapshot
  0 atoms purged
  0 atoms replaced
  0 atoms trimmed
  4382 atoms added
  4382 atoms after read
set atom * type 1 density 2650 vy -0.01175 #
  4382 settings made for type
  4382 settings made for density
  4382 settings made for vy
run 1 #
Setting up run at Sat Dec 24 04:42:27 2022

Memory usage per processor = 964.609 Mbytes
    Step    Atoms         KinEng            CPU 
       1     4382  2.0405663e-07              0 
       2     4382  2.5286639e-06    0.009333468 
Loop time of 0.00934901 on 40 procs for 1 steps with 4382 atoms, finish time Sat Dec 24 04:42:27 2022


Pair  time (%) = 4.15602e-06 (0.0444542)
Neigh time (%) = 0 (0)
Comm  time (%) = 9.48925e-06 (0.1015)
Outpt time (%) = 0.000297379 (3.18086)
Other time (%) = 0.00903799 (96.6732)

Nlocal:    109.55 ave 1816 max 0 min
Histogram: 36 0 2 0 0 0 0 0 0 2
Nghost:    27.3 ave 345 max 0 min
Histogram: 36 0 0 0 0 1 1 0 0 2
Neighs:    35.525 ave 600 max 0 min
Histogram: 36 0 2 0 0 0 0 0 0 2

Total # of neighbors = 1421
Ave neighs/atom = 0.324281
Neighbor list builds = 0
Dangerous builds = 0
write_dump all custom dump.atom_info_ac_* id type x y z radius vx vy vz density #
run 308641
Setting up run at Sat Dec 24 04:42:27 2022

Memory usage per processor = 964.609 Mbytes
    Step    Atoms         KinEng            CPU 
       2     4382  2.5286639e-06              0 
  308643     4382  0.00030849076       2964.917 
Loop time of 2964.92 on 40 procs for 308641 steps with 4382 atoms, finish time Sat Dec 24 05:31:52 2022


Pair  time (%) = 1.24192 (0.0418872)
Neigh time (%) = 4.16535 (0.140488)
Comm  time (%) = 4.0528 (0.136692)
Outpt time (%) = 0.00064265 (2.16751e-05)
Other time (%) = 2955.46 (99.6809)

Nlocal:    109.55 ave 1780 max 0 min
Histogram: 36 0 2 0 0 0 0 0 0 2
Nghost:    28.15 ave 360 max 0 min
Histogram: 36 0 0 0 0 1 1 0 0 2
Neighs:    39.35 ave 668 max 0 min
Histogram: 36 0 2 0 0 0 0 0 0 2

Total # of neighbors = 1574
Ave neighs/atom = 0.359197
Neighbor list builds = 1630
Dangerous builds = 0
write_dump all custom dump.atom_info_ac_* id type x y z radius vx vy vz density #
run 308641
Setting up run at Sat Dec 24 05:31:52 2022

Memory usage per processor = 964.609 Mbytes
    Step    Atoms         KinEng            CPU 
  308643     4382  0.00030849076              0 
  617284     4377  0.00036428061      2978.3517 
Loop time of 2978.35 on 40 procs for 308641 steps with 4377 atoms, finish time Sat Dec 24 06:21:30 2022


Pair  time (%) = 1.26699 (0.0425401)
Neigh time (%) = 6.61991 (0.222268)
Comm  time (%) = 5.24284 (0.176031)
Outpt time (%) = 0.000670369 (2.25081e-05)
Other time (%) = 2965.22 (99.5591)

Nlocal:    109.425 ave 1746 max 0 min
Histogram: 36 0 2 0 0 0 0 0 0 2
Nghost:    26.65 ave 328 max 0 min
Histogram: 36 0 0 0 0 0 2 0 0 2
Neighs:    41.1 ave 672 max 0 min
Histogram: 36 0 2 0 0 0 0 0 0 2

Total # of neighbors = 1644
Ave neighs/atom = 0.3756
Neighbor list builds = 2548
Dangerous builds = 3
write_dump all custom dump.atom_info_ac_* id type x y z radius vx vy vz density #
run 308641
Setting up run at Sat Dec 24 06:21:30 2022

Memory usage per processor = 964.609 Mbytes
    Step    Atoms         KinEng            CPU 
  617284     4377  0.00036428061              0 
  925925     4369  0.00076418356      3007.0687 
Loop time of 3007.07 on 40 procs for 308641 steps with 4369 atoms, finish time Sat Dec 24 07:11:37 2022


Pair  time (%) = 1.26708 (0.0421368)
Neigh time (%) = 14.5838 (0.484984)
Comm  time (%) = 8.95012 (0.297636)
Outpt time (%) = 0.000120881 (4.0199e-06)
Other time (%) = 2982.27 (99.1752)

Nlocal:    109.225 ave 1729 max 0 min
Histogram: 36 0 2 0 0 0 0 0 0 2
Nghost:    24.5 ave 304 max 0 min
Histogram: 36 0 0 0 0 1 1 0 0 2
Neighs:    40.525 ave 658 max 0 min
Histogram: 36 0 2 0 0 0 0 0 0 2

Total # of neighbors = 1621
Ave neighs/atom = 0.371023
Neighbor list builds = 5537
Dangerous builds = 6
write_dump all custom dump.atom_info_ac_* id type x y z radius vx vy vz density #
run 308641
Setting up run at Sat Dec 24 07:11:37 2022

Memory usage per processor = 964.609 Mbytes
    Step    Atoms         KinEng            CPU 
  925925     4369  0.00076418356              0 
 1234566     4357     0.15585351       3213.612 
Loop time of 3213.61 on 40 procs for 308641 steps with 4357 atoms, finish time Sat Dec 24 08:05:11 2022


Pair  time (%) = 1.30929 (0.040742)
Neigh time (%) = 55.5919 (1.72989)
Comm  time (%) = 26.458 (0.823311)
Outpt time (%) = 0.000650119 (2.02301e-05)
Other time (%) = 3130.25 (97.406)

Nlocal:    108.925 ave 1704 max 0 min
Histogram: 36 0 2 0 0 0 0 0 0 2
Nghost:    23.65 ave 293 max 0 min
Histogram: 36 0 0 0 0 1 1 0 0 2
Neighs:    37.95 ave 630 max 0 min
Histogram: 36 1 1 0 0 0 0 0 0 2

Total # of neighbors = 1518
Ave neighs/atom = 0.348405
Neighbor list builds = 20943
Dangerous builds = 351
write_dump all custom dump.atom_info_ac_* id type x y z radius vx vy vz density #
run 308641
Setting up run at Sat Dec 24 08:05:11 2022

Memory usage per processor = 964.609 Mbytes
    Step    Atoms         KinEng            CPU 
 1234566     4357     0.15585351              0 
 1543207     4337    0.085229534      3165.5908 
Loop time of 3165.59 on 40 procs for 308641 steps with 4337 atoms, finish time Sat Dec 24 08:57:57 2022


Pair  time (%) = 1.28467 (0.0405824)
Neigh time (%) = 49.0523 (1.54955)
Comm  time (%) = 25.4036 (0.802492)
Outpt time (%) = 0.00066686 (2.10659e-05)
Other time (%) = 3089.85 (97.6074)

Nlocal:    108.425 ave 1670 max 0 min
Histogram: 36 0 2 0 0 0 0 0 0 2
Nghost:    23.125 ave 298 max 0 min
Histogram: 36 0 0 0 0 2 0 0 0 2
Neighs:    38.7 ave 642 max 0 min
Histogram: 36 0 2 0 0 0 0 0 0 2

Total # of neighbors = 1548
Ave neighs/atom = 0.356929
Neighbor list builds = 18514
Dangerous builds = 57
write_dump all custom dump.atom_info_ac_* id type x y z radius vx vy vz density #
run 308641
Setting up run at Sat Dec 24 08:57:57 2022

Memory usage per processor = 964.609 Mbytes
    Step    Atoms         KinEng            CPU 
 1543207     4337    0.085229534              0 
 1851848     4307    0.078812987      3213.0275 
Loop time of 3213.03 on 40 procs for 308641 steps with 4307 atoms, finish time Sat Dec 24 09:51:30 2022


Pair  time (%) = 1.30449 (0.0406)
Neigh time (%) = 56.2767 (1.75152)
Comm  time (%) = 33.2732 (1.03557)
Outpt time (%) = 0.000657746 (2.04712e-05)
Other time (%) = 3122.17 (97.1723)

Nlocal:    107.675 ave 1655 max 0 min
Histogram: 36 0 2 0 0 0 0 0 0 2
Nghost:    22.825 ave 290 max 0 min
Histogram: 36 0 0 0 0 1 1 0 0 2
Neighs:    38.65 ave 631 max 0 min
Histogram: 36 0 2 0 0 0 0 0 0 2

Total # of neighbors = 1546
Ave neighs/atom = 0.358951
Neighbor list builds = 21242
Dangerous builds = 3161
write_dump all custom dump.atom_info_ac_* id type x y z radius vx vy vz density #
run 308641
Setting up run at Sat Dec 24 09:51:30 2022

Memory usage per processor = 964.609 Mbytes
    Step    Atoms         KinEng            CPU 
 1851848     4307    0.078812987              0 
 2160489     4277     0.12704408      3229.5719 
Loop time of 3229.59 on 40 procs for 308641 steps with 4277 atoms, finish time Sat Dec 24 10:45:20 2022


Pair  time (%) = 1.28792 (0.0398788)
Neigh time (%) = 60.4958 (1.87317)
Comm  time (%) = 36.193 (1.12067)
Outpt time (%) = 0.000643036 (1.99108e-05)
Other time (%) = 3131.62 (96.9663)

Nlocal:    106.925 ave 1647 max 0 min
Histogram: 36 0 2 0 0 0 0 0 0 2
Nghost:    22 ave 270 max 0 min
Histogram: 36 0 0 0 0 0 2 0 0 2
Neighs:    37.2 ave 629 max 0 min
Histogram: 36 0 2 0 0 0 0 0 0 2

Total # of neighbors = 1488
Ave neighs/atom = 0.347907
Neighbor list builds = 22792
Dangerous builds = 1450
write_dump all custom dump.atom_info_ac_* id type x y z radius vx vy vz density #
run 308641
Setting up run at Sat Dec 24 10:45:20 2022

Memory usage per processor = 964.609 Mbytes
    Step    Atoms         KinEng            CPU 
 2160489     4277     0.12704408              0 
 2469130     4231    0.088286578      3200.8937 
Loop time of 3200.89 on 40 procs for 308641 steps with 4231 atoms, finish time Sat Dec 24 11:38:41 2022


Pair  time (%) = 1.27114 (0.0397119)
Neigh time (%) = 54.2091 (1.69356)
Comm  time (%) = 32.449 (1.01375)
Outpt time (%) = 0.000403939 (1.26196e-05)
Other time (%) = 3112.96 (97.253)

Nlocal:    105.775 ave 1641 max 0 min
Histogram: 36 0 2 0 0 0 0 0 0 2
Nghost:    21.85 ave 274 max 0 min
Histogram: 36 0 0 0 0 2 0 0 0 2
Neighs:    37.775 ave 650 max 0 min
Histogram: 36 1 1 0 0 0 0 0 1 1

Total # of neighbors = 1511
Ave neighs/atom = 0.357126
Neighbor list builds = 20427
Dangerous builds = 1194
write_dump all custom dump.atom_info_ac_* id type x y z radius vx vy vz density #
run 308641
Setting up run at Sat Dec 24 11:38:41 2022

Memory usage per processor = 964.609 Mbytes
    Step    Atoms         KinEng            CPU 
 2469130     4231    0.088286578              0 
 2777771     4179     0.26397833      3276.0446 
Loop time of 3276.05 on 40 procs for 308641 steps with 4179 atoms, finish time Sat Dec 24 12:33:17 2022


Pair  time (%) = 1.28621 (0.0392611)
Neigh time (%) = 70.2393 (2.14403)
Comm  time (%) = 48.6158 (1.48398)
Outpt time (%) = 0.000642457 (1.96107e-05)
Other time (%) = 3155.9 (96.3327)

Nlocal:    104.475 ave 1635 max 0 min
Histogram: 36 0 2 0 0 0 0 0 0 2
Nghost:    20.95 ave 249 max 0 min
Histogram: 36 0 0 0 0 0 2 0 0 2
Neighs:    36.825 ave 650 max 0 min
Histogram: 36 1 1 0 0 0 0 0 1 1

Total # of neighbors = 1473
Ave neighs/atom = 0.352477
Neighbor list builds = 26446
Dangerous builds = 412
write_dump all custom dump.atom_info_ac_* id type x y z radius vx vy vz density #
run 308641
Setting up run at Sat Dec 24 12:33:17 2022

Memory usage per processor = 964.609 Mbytes
    Step    Atoms         KinEng            CPU 
 2777771     4179     0.26397833              0 
 3086412     4084     0.25263287      3358.7312 
Loop time of 3358.73 on 40 procs for 308641 steps with 4084 atoms, finish time Sat Dec 24 13:29:16 2022


Pair  time (%) = 1.27999 (0.0381094)
Neigh time (%) = 85.5904 (2.5483)
Comm  time (%) = 65.2254 (1.94196)
Outpt time (%) = 0.000610202 (1.81676e-05)
Other time (%) = 3206.64 (95.4716)

Nlocal:    102.1 ave 1589 max 0 min
Histogram: 36 0 2 0 0 0 0 0 0 2
Nghost:    20.75 ave 256 max 0 min
Histogram: 36 0 0 0 0 1 1 0 0 2
Neighs:    33.85 ave 583 max 0 min
Histogram: 36 0 2 0 0 0 0 0 1 1

Total # of neighbors = 1354
Ave neighs/atom = 0.331538
Neighbor list builds = 32264
Dangerous builds = 3937
write_dump all custom dump.atom_info_ac_* id type x y z radius vx vy vz density #
run 308641
Setting up run at Sat Dec 24 13:29:16 2022

Memory usage per processor = 964.609 Mbytes
    Step    Atoms         KinEng            CPU 
 3086412     4084     0.25263287              0 
 3395053     3981       0.216802      3355.0324 
Loop time of 3355.03 on 40 procs for 308641 steps with 3981 atoms, finish time Sat Dec 24 14:25:11 2022


Pair  time (%) = 1.26088 (0.0375817)
Neigh time (%) = 86.7044 (2.58431)
Comm  time (%) = 69.8757 (2.08271)
Outpt time (%) = 0.00055982 (1.6686e-05)
Other time (%) = 3197.19 (95.2954)

Nlocal:    99.525 ave 1510 max 0 min
Histogram: 36 0 2 0 0 0 0 0 0 2
Nghost:    20.2 ave 250 max 0 min
Histogram: 36 0 0 0 0 1 1 0 0 2
Neighs:    32.525 ave 556 max 0 min
Histogram: 36 0 2 0 0 0 0 0 0 2

Total # of neighbors = 1301
Ave neighs/atom = 0.326802
Neighbor list builds = 32729
Dangerous builds = 3923
write_dump all custom dump.atom_info_ac_* id type x y z radius vx vy vz density #
run 308641
Setting up run at Sat Dec 24 14:25:11 2022

Memory usage per processor = 964.609 Mbytes
    Step    Atoms         KinEng            CPU 
 3395053     3981       0.216802              0 
 3703694     3913     0.27862907      3356.0116 
Loop time of 3356.01 on 40 procs for 308641 steps with 3913 atoms, finish time Sat Dec 24 15:21:07 2022


Pair  time (%) = 1.21006 (0.0360564)
Neigh time (%) = 87.6881 (2.61286)
Comm  time (%) = 72.4963 (2.16019)
Outpt time (%) = 0.00056652 (1.68807e-05)
Other time (%) = 3194.62 (95.1909)

Nlocal:    97.825 ave 1454 max 0 min
Histogram: 36 0 2 0 0 0 0 0 0 2
Nghost:    19.275 ave 254 max 0 min
Histogram: 36 0 0 0 0 2 0 0 1 1
Neighs:    27.125 ave 457 max 0 min
Histogram: 36 0 2 0 0 0 0 0 0 2

Total # of neighbors = 1085
Ave neighs/atom = 0.277281
Neighbor list builds = 33080
Dangerous builds = 3675
write_dump all custom dump.atom_info_ac_* id type x y z radius vx vy vz density #
run 308641
Setting up run at Sat Dec 24 15:21:07 2022

Memory usage per processor = 964.609 Mbytes
    Step    Atoms         KinEng            CPU 
 3703694     3913     0.27862907              0 
 4012335     3828     0.31867282      3392.4215 
Loop time of 3392.42 on 40 procs for 308641 steps with 3828 atoms, finish time Sat Dec 24 16:17:39 2022


Pair  time (%) = 1.16644 (0.0343838)
Neigh time (%) = 84.1113 (2.47939)
Comm  time (%) = 69.9706 (2.06256)
Outpt time (%) = 0.000542267 (1.59847e-05)
Other time (%) = 3237.17 (95.4237)

Nlocal:    95.7 ave 1404 max 0 min
Histogram: 36 0 1 1 0 0 0 0 0 2
Nghost:    17.525 ave 212 max 0 min
Histogram: 36 0 0 0 0 1 1 0 0 2
Neighs:    23.325 ave 416 max 0 min
Histogram: 36 1 1 0 0 0 0 0 1 1

Total # of neighbors = 933
Ave neighs/atom = 0.24373
Neighbor list builds = 31728
Dangerous builds = 1740
write_dump all custom dump.atom_info_ac_* id type x y z radius vx vy vz density #
run 308641
Setting up run at Sat Dec 24 16:17:39 2022

Memory usage per processor = 964.609 Mbytes
    Step    Atoms         KinEng            CPU 
 4012335     3828     0.31867282              0 
 4320976     3732      0.3377407       3505.459 
Loop time of 3505.47 on 40 procs for 308641 steps with 3732 atoms, finish time Sat Dec 24 17:16:05 2022


Pair  time (%) = 1.14724 (0.0327272)
Neigh time (%) = 98.1358 (2.7995)
Comm  time (%) = 83.191 (2.37318)
Outpt time (%) = 0.0111006 (0.000316664)
Other time (%) = 3322.98 (94.7943)

Nlocal:    93.3 ave 1413 max 0 min
Histogram: 36 0 2 0 0 0 0 0 1 1
Nghost:    16 ave 193 max 0 min
Histogram: 36 0 0 0 0 1 1 0 0 2
Neighs:    20.175 ave 396 max 0 min
Histogram: 36 2 0 0 0 0 1 0 0 1

Total # of neighbors = 807
Ave neighs/atom = 0.216238
Neighbor list builds = 36990
Dangerous builds = 4715
write_dump all custom dump.atom_info_ac_* id type x y z radius vx vy vz density #
run 308641
Setting up run at Sat Dec 24 17:16:05 2022

Memory usage per processor = 964.609 Mbytes
    Step    Atoms         KinEng            CPU 
 4320976     3732      0.3377407              0 
 4629617     3637      4.6550686      3458.5221 
Loop time of 3458.52 on 40 procs for 308641 steps with 3637 atoms, finish time Sat Dec 24 18:13:44 2022


Pair  time (%) = 1.09003 (0.0315173)
Neigh time (%) = 93.7419 (2.71046)
Comm  time (%) = 91.3312 (2.64076)
Outpt time (%) = 0.00606525 (0.000175371)
Other time (%) = 3272.35 (94.6171)

Nlocal:    90.925 ave 1407 max 0 min
Histogram: 36 0 2 0 0 0 0 0 1 1
Nghost:    15.525 ave 202 max 0 min
Histogram: 36 0 0 0 1 0 1 0 1 1
Neighs:    16.8 ave 335 max 0 min
Histogram: 36 0 2 0 0 1 0 0 0 1

Total # of neighbors = 672
Ave neighs/atom = 0.184768
Neighbor list builds = 35313
Dangerous builds = 4080
write_dump all custom dump.atom_info_ac_* id type x y z radius vx vy vz density #
run 308641
Setting up run at Sat Dec 24 18:13:44 2022

Memory usage per processor = 964.609 Mbytes
    Step    Atoms         KinEng            CPU 
 4629617     3637      4.6550686              0 
 4938258     3526     0.40664758       3477.366 
Loop time of 3477.37 on 40 procs for 308641 steps with 3526 atoms, finish time Sat Dec 24 19:11:41 2022


Pair  time (%) = 1.06955 (0.0307576)
Neigh time (%) = 90.8411 (2.61235)
Comm  time (%) = 86.9214 (2.49963)
Outpt time (%) = 0.000255121 (7.33661e-06)
Other time (%) = 3298.53 (94.8573)

Nlocal:    88.15 ave 1329 max 0 min
Histogram: 36 0 2 0 0 0 0 0 1 1
Nghost:    14.925 ave 186 max 0 min
Histogram: 36 0 0 0 0 1 1 0 0 2
Neighs:    15.55 ave 310 max 0 min
Histogram: 36 1 0 1 1 0 0 0 0 1

Total # of neighbors = 622
Ave neighs/atom = 0.176404
Neighbor list builds = 34234
Dangerous builds = 4218
write_dump all custom dump.atom_info_ac_* id type x y z radius vx vy vz density #
run 308641
Setting up run at Sat Dec 24 19:11:41 2022

Memory usage per processor = 964.609 Mbytes
    Step    Atoms         KinEng            CPU 
 4938258     3526     0.40664758              0 
 5246899     3421     0.31988906      3566.5595 
Loop time of 3566.56 on 40 procs for 308641 steps with 3421 atoms, finish time Sat Dec 24 20:11:08 2022


Pair  time (%) = 1.03921 (0.0291375)
Neigh time (%) = 90.5793 (2.53968)
Comm  time (%) = 95.2806 (2.6715)
Outpt time (%) = 0.00060881 (1.707e-05)
Other time (%) = 3379.66 (94.7597)

Nlocal:    85.525 ave 1249 max 0 min
Histogram: 36 0 2 0 0 0 0 0 1 1
Nghost:    14.725 ave 180 max 0 min
Histogram: 36 0 0 0 0 2 0 0 0 2
Neighs:    12.5 ave 221 max 0 min
Histogram: 36 0 2 0 0 0 0 1 0 1

Total # of neighbors = 500
Ave neighs/atom = 0.146156
Neighbor list builds = 34125
Dangerous builds = 6922
write_dump all custom dump.atom_info_ac_* id type x y z radius vx vy vz density #
run 308641
Setting up run at Sat Dec 24 20:11:08 2022

Memory usage per processor = 964.609 Mbytes
    Step    Atoms         KinEng            CPU 
 5246899     3421     0.31988906              0 
 5555540     3281     0.16460193       3456.266 
Loop time of 3456.27 on 40 procs for 308641 steps with 3281 atoms, finish time Sat Dec 24 21:08:44 2022


Pair  time (%) = 1.01594 (0.0293943)
Neigh time (%) = 105.682 (3.05771)
Comm  time (%) = 102.477 (2.96495)
Outpt time (%) = 0.000575596 (1.66537e-05)
Other time (%) = 3247.09 (93.9479)

Nlocal:    82.025 ave 1177 max 0 min
Histogram: 36 0 2 0 0 0 0 0 1 1
Nghost:    13.1 ave 164 max 0 min
Histogram: 36 0 0 0 1 0 1 0 0 2
Neighs:    10.05 ave 171 max 0 min
Histogram: 36 0 0 2 0 1 0 0 0 1

Total # of neighbors = 402
Ave neighs/atom = 0.122524
Neighbor list builds = 39770
Dangerous builds = 6005
write_dump all custom dump.atom_info_ac_* id type x y z radius vx vy vz density #
run 308641
Setting up run at Sat Dec 24 21:08:44 2022

Memory usage per processor = 964.609 Mbytes
    Step    Atoms         KinEng            CPU 
 5555540     3281     0.16460193              0 
 5864181     3139     0.54835626      3598.4729 
Loop time of 3598.47 on 40 procs for 308641 steps with 3139 atoms, finish time Sat Dec 24 22:08:43 2022


Pair  time (%) = 0.985558 (0.0273882)
Neigh time (%) = 113.974 (3.16728)
Comm  time (%) = 122.993 (3.41792)
Outpt time (%) = 0.0150117 (0.000417169)
Other time (%) = 3360.51 (93.387)

Nlocal:    78.475 ave 1092 max 0 min
Histogram: 36 0 2 0 0 0 0 0 0 2
Nghost:    13.425 ave 168 max 0 min
Histogram: 36 0 0 0 1 1 0 0 0 2
Neighs:    7.75 ave 120 max 0 min
Histogram: 36 0 1 1 0 0 0 0 0 2

Total # of neighbors = 310
Ave neighs/atom = 0.0987576
Neighbor list builds = 42876
Dangerous builds = 5001
write_dump all custom dump.atom_info_ac_* id type x y z radius vx vy vz density #
run 308641
Setting up run at Sat Dec 24 22:08:43 2022

Memory usage per processor = 964.609 Mbytes
    Step    Atoms         KinEng            CPU 
 5864181     3139     0.54835626              0 
 6172822     3007     0.36757313      3470.6897 
Loop time of 3470.69 on 40 procs for 308641 steps with 3007 atoms, finish time Sat Dec 24 23:06:34 2022


Pair  time (%) = 0.946524 (0.0272719)
Neigh time (%) = 109.16 (3.14519)
Comm  time (%) = 112.94 (3.25409)
Outpt time (%) = 0.000505029 (1.45513e-05)
Other time (%) = 3247.64 (93.5734)

Nlocal:    75.175 ave 1044 max 0 min
Histogram: 36 0 2 0 0 0 0 0 0 2
Nghost:    11.675 ave 144 max 0 min
Histogram: 36 0 0 0 0 1 1 0 1 1
Neighs:    6.7 ave 111 max 0 min
Histogram: 36 0 1 1 0 0 0 0 1 1

Total # of neighbors = 268
Ave neighs/atom = 0.0891254
Neighbor list builds = 41162
Dangerous builds = 3228
write_dump all custom dump.atom_info_ac_* id type x y z radius vx vy vz density #
run 308641
Setting up run at Sat Dec 24 23:06:34 2022

Memory usage per processor = 964.609 Mbytes
    Step    Atoms         KinEng            CPU 
 6172822     3007     0.36757313              0 
 6481463     2848     0.40307001      3433.6814 
Loop time of 3433.68 on 40 procs for 308641 steps with 2848 atoms, finish time Sun Dec 25 00:03:47 2022


Pair  time (%) = 0.907093 (0.0264175)
Neigh time (%) = 114.629 (3.33837)
Comm  time (%) = 126.169 (3.67446)
Outpt time (%) = 0.000587853 (1.71202e-05)
Other time (%) = 3191.98 (92.9607)

Nlocal:    71.2 ave 971 max 0 min
Histogram: 36 0 2 0 0 0 0 0 0 2
Nghost:    10.875 ave 141 max 0 min
Histogram: 36 0 0 0 2 0 0 0 1 1
Neighs:    4.975 ave 80 max 0 min
Histogram: 36 0 1 1 0 0 0 0 1 1

Total # of neighbors = 199
Ave neighs/atom = 0.0698736
Neighbor list builds = 43168
Dangerous builds = 4178
write_dump all custom dump.atom_info_ac_* id type x y z radius vx vy vz density #
run 308641
Setting up run at Sun Dec 25 00:03:47 2022

Memory usage per processor = 964.609 Mbytes
    Step    Atoms         KinEng            CPU 
 6481463     2848     0.40307001              0 
 6790104     2692     0.63533791      3425.5945 
Loop time of 3425.59 on 40 procs for 308641 steps with 2692 atoms, finish time Sun Dec 25 01:00:53 2022


Pair  time (%) = 0.863274 (0.0252007)
Neigh time (%) = 114.429 (3.3404)
Comm  time (%) = 129.863 (3.79095)
Outpt time (%) = 0.000608976 (1.77772e-05)
Other time (%) = 3180.44 (92.8434)

Nlocal:    67.3 ave 903 max 0 min
Histogram: 36 0 2 0 0 0 0 0 0 2
Nghost:    10.6 ave 140 max 0 min
Histogram: 36 0 0 0 2 0 0 0 1 1
Neighs:    4.425 ave 68 max 0 min
Histogram: 36 0 1 0 1 0 0 0 1 1

Total # of neighbors = 177
Ave neighs/atom = 0.0657504
Neighbor list builds = 43095
Dangerous builds = 7018
write_dump all custom dump.atom_info_ac_* id type x y z radius vx vy vz density #
run 308641
Setting up run at Sun Dec 25 01:00:53 2022

Memory usage per processor = 964.609 Mbytes
    Step    Atoms         KinEng            CPU 
 6790104     2692     0.63533791              0 
 7098745     2540      1.0717029      3360.6191 
Loop time of 3360.62 on 40 procs for 308641 steps with 2540 atoms, finish time Sun Dec 25 01:56:54 2022


Pair  time (%) = 0.832207 (0.0247635)
Neigh time (%) = 102.958 (3.06367)
Comm  time (%) = 121.249 (3.60794)
Outpt time (%) = 0.000618619 (1.84079e-05)
Other time (%) = 3135.58 (93.3036)

Nlocal:    63.5 ave 830 max 0 min
Histogram: 36 0 2 0 0 0 0 0 0 2
Nghost:    9.3 ave 120 max 0 min
Histogram: 36 0 0 0 2 0 0 0 1 1
Neighs:    3.95 ave 59 max 0 min
Histogram: 36 0 1 0 1 0 0 0 0 2

Total # of neighbors = 158
Ave neighs/atom = 0.0622047
Neighbor list builds = 38755
Dangerous builds = 4114
write_dump all custom dump.atom_info_ac_* id type x y z radius vx vy vz density #
run 308641
Setting up run at Sun Dec 25 01:56:54 2022

Memory usage per processor = 964.609 Mbytes
    Step    Atoms         KinEng            CPU 
 7098745     2540      1.0717029              0 
 7407386     2387     0.41855312      3460.1452 
Loop time of 3460.15 on 40 procs for 308641 steps with 2387 atoms, finish time Sun Dec 25 02:54:34 2022


Pair  time (%) = 0.82044 (0.0237111)
Neigh time (%) = 123.303 (3.56351)
Comm  time (%) = 142.268 (4.11162)
Outpt time (%) = 0.000535925 (1.54885e-05)
Other time (%) = 3193.75 (92.3011)

Nlocal:    59.675 ave 788 max 0 min
Histogram: 36 0 2 0 0 0 0 0 0 2
Nghost:    8.75 ave 121 max 0 min
Histogram: 35 1 0 0 2 0 1 0 0 1
Neighs:    2.75 ave 48 max 0 min
Histogram: 36 1 0 1 0 0 0 1 0 1

Total # of neighbors = 110
Ave neighs/atom = 0.0460829
Neighbor list builds = 46419
Dangerous builds = 5720
write_dump all custom dump.atom_info_ac_* id type x y z radius vx vy vz density #
run 308641
Setting up run at Sun Dec 25 02:54:34 2022

Memory usage per processor = 964.609 Mbytes
    Step    Atoms         KinEng            CPU 
 7407386     2387     0.41855312              0 
 7716027     2258     0.36261392      3437.7958 
Loop time of 3437.8 on 40 procs for 308641 steps with 2258 atoms, finish time Sun Dec 25 03:51:52 2022


Pair  time (%) = 0.798374 (0.0232234)
Neigh time (%) = 120.366 (3.50125)
Comm  time (%) = 137.454 (3.99832)
Outpt time (%) = 0.000283783 (8.25479e-06)
Other time (%) = 3179.18 (92.4772)

Nlocal:    56.45 ave 789 max 0 min
Histogram: 36 1 1 0 0 0 0 0 1 1
Nghost:    8.85 ave 120 max 0 min
Histogram: 36 0 0 1 1 0 0 1 0 1
Neighs:    3.375 ave 48 max 0 min
Histogram: 36 0 0 1 0 1 0 0 1 1

Total # of neighbors = 135
Ave neighs/atom = 0.0597874
Neighbor list builds = 45345
Dangerous builds = 5131
write_dump all custom dump.atom_info_ac_* id type x y z radius vx vy vz density #
run 308641
Setting up run at Sun Dec 25 03:51:52 2022

Memory usage per processor = 964.609 Mbytes
    Step    Atoms         KinEng            CPU 
 7716027     2258     0.36261392              0 
 8024668     2149     0.62906701      3376.9556 
Loop time of 3376.96 on 40 procs for 308641 steps with 2149 atoms, finish time Sun Dec 25 04:48:09 2022


Pair  time (%) = 0.782686 (0.0231773)
Neigh time (%) = 107.239 (3.17561)
Comm  time (%) = 117.224 (3.4713)
Outpt time (%) = 0.000472478 (1.39912e-05)
Other time (%) = 3151.71 (93.3299)

Nlocal:    53.725 ave 763 max 0 min
Histogram: 36 0 2 0 0 0 0 0 1 1
Nghost:    8.05 ave 108 max 0 min
Histogram: 36 0 0 1 1 0 0 0 1 1
Neighs:    2.475 ave 39 max 0 min
Histogram: 36 1 0 0 0 1 0 0 1 1

Total # of neighbors = 99
Ave neighs/atom = 0.0460679
Neighbor list builds = 40425
Dangerous builds = 3020
write_dump all custom dump.atom_info_ac_* id type x y z radius vx vy vz density #
run 308641
Setting up run at Sun Dec 25 04:48:09 2022

Memory usage per processor = 964.609 Mbytes
    Step    Atoms         KinEng            CPU 
 8024668     2149     0.62906701              0 
 8333309     2019     0.35789415      3395.6713 
Loop time of 3395.67 on 40 procs for 308641 steps with 2019 atoms, finish time Sun Dec 25 05:44:45 2022


Pair  time (%) = 0.7647 (0.0225199)
Neigh time (%) = 111.606 (3.28671)
Comm  time (%) = 112.69 (3.31865)
Outpt time (%) = 0.00584669 (0.000172181)
Other time (%) = 3170.61 (93.372)

Nlocal:    50.475 ave 742 max 0 min
Histogram: 36 1 1 0 0 0 0 1 0 1
Nghost:    7.15 ave 97 max 0 min
Histogram: 35 1 1 0 1 0 0 0 1 1
Neighs:    2.2 ave 53 max 0 min
Histogram: 37 1 0 1 0 0 0 0 0 1

Total # of neighbors = 88
Ave neighs/atom = 0.0435859
Neighbor list builds = 41993
Dangerous builds = 2445
write_dump all custom dump.atom_info_ac_* id type x y z radius vx vy vz density #
run 308641
Setting up run at Sun Dec 25 05:44:45 2022

Memory usage per processor = 964.609 Mbytes
    Step    Atoms         KinEng            CPU 
 8333309     2019     0.35789415              0 
 8641950     1927     0.77441393      3347.0943 
Loop time of 3347.09 on 40 procs for 308641 steps with 1927 atoms, finish time Sun Dec 25 06:40:32 2022


Pair  time (%) = 0.74495 (0.0222566)
Neigh time (%) = 102.464 (3.06129)
Comm  time (%) = 106.644 (3.18616)
Outpt time (%) = 0.000682088 (2.03785e-05)
Other time (%) = 3137.24 (93.7303)

Nlocal:    48.175 ave 687 max 0 min
Histogram: 36 1 1 0 0 0 0 0 1 1
Nghost:    7.025 ave 108 max 0 min
Histogram: 36 0 1 0 1 0 1 0 0 1
Neighs:    1.825 ave 42 max 0 min
Histogram: 37 0 1 0 1 0 0 0 0 1

Total # of neighbors = 73
Ave neighs/atom = 0.0378827
Neighbor list builds = 38593
Dangerous builds = 3102
write_dump all custom dump.atom_info_ac_* id type x y z radius vx vy vz density #
run 308641
Setting up run at Sun Dec 25 06:40:32 2022

Memory usage per processor = 964.609 Mbytes
    Step    Atoms         KinEng            CPU 
 8641950     1927     0.77441393              0 
 8950591     1809     0.23078707      3264.0339 
Loop time of 3264.03 on 40 procs for 308641 steps with 1809 atoms, finish time Sun Dec 25 07:34:56 2022


Pair  time (%) = 0.726544 (0.0222591)
Neigh time (%) = 84.9026 (2.60116)
Comm  time (%) = 78.6185 (2.40863)
Outpt time (%) = 0.000526643 (1.61347e-05)
Other time (%) = 3099.79 (94.9679)

Nlocal:    45.225 ave 667 max 0 min
Histogram: 36 1 1 0 0 0 0 0 1 1
Nghost:    6.35 ave 80 max 0 min
Histogram: 36 0 0 0 2 0 0 0 1 1
Neighs:    2.075 ave 38 max 0 min
Histogram: 36 1 0 1 0 0 0 1 0 1

Total # of neighbors = 83
Ave neighs/atom = 0.0458817
Neighbor list builds = 32018
Dangerous builds = 2534
write_dump all custom dump.atom_info_ac_* id type x y z radius vx vy vz density #
run 308641
Setting up run at Sun Dec 25 07:34:56 2022

Memory usage per processor = 964.609 Mbytes
    Step    Atoms         KinEng            CPU 
 8950591     1809     0.23078707              0 
 9259232     1721     0.47231928      3314.8064 
Loop time of 3314.81 on 40 procs for 308641 steps with 1721 atoms, finish time Sun Dec 25 08:30:11 2022


Pair  time (%) = 0.721161 (0.0217557)
Neigh time (%) = 96.7949 (2.92008)
Comm  time (%) = 89.0356 (2.686)
Outpt time (%) = 0.000507662 (1.5315e-05)
Other time (%) = 3128.25 (94.3722)

Nlocal:    43.025 ave 640 max 0 min
Histogram: 36 1 1 0 0 0 0 0 1 1
Nghost:    5.65 ave 77 max 0 min
Histogram: 36 0 0 2 0 0 0 0 1 1
Neighs:    1.35 ave 27 max 0 min
Histogram: 37 0 0 0 2 0 0 0 0 1

Total # of neighbors = 54
Ave neighs/atom = 0.0313771
Neighbor list builds = 36485
Dangerous builds = 1977
write_dump all custom dump.atom_info_ac_* id type x y z radius vx vy vz density #
run 308641
Setting up run at Sun Dec 25 08:30:11 2022

Memory usage per processor = 964.609 Mbytes
    Step    Atoms         KinEng            CPU 
 9259232     1721     0.47231928              0 
 9567873     1639     0.37220524      3268.4274 
Loop time of 3268.43 on 40 procs for 308641 steps with 1639 atoms, finish time Sun Dec 25 09:24:39 2022


Pair  time (%) = 0.707583 (0.021649)
Neigh time (%) = 86.6103 (2.64991)
Comm  time (%) = 75.7752 (2.3184)
Outpt time (%) = 0.000495107 (1.51482e-05)
Other time (%) = 3105.33 (95.01)

Nlocal:    40.975 ave 602 max 0 min
Histogram: 36 1 1 0 0 0 0 0 1 1
Nghost:    5.575 ave 73 max 0 min
Histogram: 36 0 0 1 1 0 0 0 1 1
Neighs:    1.325 ave 25 max 0 min
Histogram: 36 1 1 0 0 0 1 0 0 1

Total # of neighbors = 53
Ave neighs/atom = 0.0323368
Neighbor list builds = 32687
Dangerous builds = 2812
write_dump all custom dump.atom_info_ac_* id type x y z radius vx vy vz density #
run 308641
Setting up run at Sun Dec 25 09:24:39 2022

Memory usage per processor = 964.609 Mbytes
    Step    Atoms         KinEng            CPU 
 9567873     1639     0.37220524              0 
 9876514     1553     0.39676289      3244.3877 
Loop time of 3244.4 on 40 procs for 308641 steps with 1553 atoms, finish time Sun Dec 25 10:18:44 2022


Pair  time (%) = 0.680972 (0.0209891)
Neigh time (%) = 74.199 (2.28699)
Comm  time (%) = 72.7501 (2.24233)
Outpt time (%) = 0.000344208 (1.06093e-05)
Other time (%) = 3096.77 (95.4497)

Nlocal:    38.825 ave 583 max 0 min
Histogram: 35 2 1 0 0 0 0 0 1 1
Nghost:    5.5 ave 72 max 0 min
Histogram: 35 1 0 1 1 0 0 0 1 1
Neighs:    1.175 ave 19 max 0 min
Histogram: 37 0 0 0 0 1 0 0 1 1

Total # of neighbors = 47
Ave neighs/atom = 0.030264
Neighbor list builds = 28022
Dangerous builds = 2081
write_dump all custom dump.atom_info_ac_* id type x y z radius vx vy vz density #
run 308641
Setting up run at Sun Dec 25 10:18:44 2022

Memory usage per processor = 964.609 Mbytes
    Step    Atoms         KinEng            CPU 
 9876514     1553     0.39676289              0 
10185155     1470     0.28015067      3188.7043 
Loop time of 3188.7 on 40 procs for 308641 steps with 1470 atoms, finish time Sun Dec 25 11:11:53 2022


Pair  time (%) = 0.667553 (0.0209349)
Neigh time (%) = 67.7029 (2.12321)
Comm  time (%) = 65.6934 (2.06019)
Outpt time (%) = 0.000546229 (1.71301e-05)
Other time (%) = 3054.64 (95.7956)

Nlocal:    36.75 ave 558 max 0 min
Histogram: 35 3 0 0 0 0 0 0 1 1
Nghost:    5.075 ave 64 max 0 min
Histogram: 35 1 0 0 2 0 0 0 1 1
Neighs:    1.05 ave 21 max 0 min
Histogram: 37 0 1 0 0 0 1 0 0 1

Total # of neighbors = 42
Ave neighs/atom = 0.0285714
Neighbor list builds = 25607
Dangerous builds = 3846
write_dump all custom dump.atom_info_ac_* id type x y z radius vx vy vz density #
run 308641
Setting up run at Sun Dec 25 11:11:53 2022

Memory usage per processor = 964.609 Mbytes
    Step    Atoms         KinEng            CPU 
10185155     1470     0.28015067              0 
10493796     1396     0.20157312      3330.7102 
Loop time of 3330.71 on 40 procs for 308641 steps with 1396 atoms, finish time Sun Dec 25 12:07:24 2022


Pair  time (%) = 0.674402 (0.020248)
Neigh time (%) = 98.444 (2.95565)
Comm  time (%) = 89.1724 (2.67728)
Outpt time (%) = 0.00051746 (1.5536e-05)
Other time (%) = 3142.42 (94.3468)

Nlocal:    34.9 ave 542 max 0 min
Histogram: 36 2 0 0 0 0 0 1 0 1
Nghost:    4.95 ave 57 max 0 min
Histogram: 34 2 0 0 2 0 0 0 0 2
Neighs:    0.975 ave 26 max 0 min
Histogram: 37 1 0 1 0 0 0 0 0 1

Total # of neighbors = 39
Ave neighs/atom = 0.027937
Neighbor list builds = 37251
Dangerous builds = 1944
write_dump all custom dump.atom_info_ac_* id type x y z radius vx vy vz density #
run 308641
Setting up run at Sun Dec 25 12:07:24 2022

Memory usage per processor = 964.609 Mbytes
    Step    Atoms         KinEng            CPU 
10493796     1396     0.20157312              0 
10802437     1321     0.19738155      3258.1945 
Loop time of 3258.19 on 40 procs for 308641 steps with 1321 atoms, finish time Sun Dec 25 13:01:42 2022


Pair  time (%) = 0.662017 (0.0203185)
Neigh time (%) = 83.143 (2.55181)
Comm  time (%) = 74.5923 (2.28938)
Outpt time (%) = 0.000544619 (1.67153e-05)
Other time (%) = 3099.8 (95.1385)

Nlocal:    33.025 ave 516 max 0 min
Histogram: 35 2 1 0 0 0 0 1 0 1
Nghost:    4.5 ave 49 max 0 min
Histogram: 34 1 1 0 1 1 0 0 0 2
Neighs:    1.15 ave 30 max 0 min
Histogram: 38 0 0 0 1 0 0 0 0 1

Total # of neighbors = 46
Ave neighs/atom = 0.0348221
Neighbor list builds = 31496
Dangerous builds = 3274
write_dump all custom dump.atom_info_ac_* id type x y z radius vx vy vz density #
run 308641
Setting up run at Sun Dec 25 13:01:42 2022

Memory usage per processor = 964.609 Mbytes
    Step    Atoms         KinEng            CPU 
10802437     1321     0.19738155              0 
11111078     1266     0.19006136      3160.6309 
Loop time of 3160.63 on 40 procs for 308641 steps with 1266 atoms, finish time Sun Dec 25 13:54:22 2022


Pair  time (%) = 0.642027 (0.0203132)
Neigh time (%) = 63.4425 (2.00727)
Comm  time (%) = 56.4797 (1.78697)
Outpt time (%) = 0.00052908 (1.67397e-05)
Other time (%) = 3040.07 (96.1854)

Nlocal:    31.65 ave 492 max 0 min
Histogram: 36 1 1 0 0 0 0 1 0 1
Nghost:    4.825 ave 54 max 0 min
Histogram: 35 0 1 0 1 1 0 0 0 2
Neighs:    0.6 ave 13 max 0 min
Histogram: 37 0 1 0 0 0 1 0 0 1

Total # of neighbors = 24
Ave neighs/atom = 0.0189573
Neighbor list builds = 24044
Dangerous builds = 1764
write_dump all custom dump.atom_info_ac_* id type x y z radius vx vy vz density #
run 308641
Setting up run at Sun Dec 25 13:54:23 2022

Memory usage per processor = 964.609 Mbytes
    Step    Atoms         KinEng            CPU 
11111078     1265     0.19002038              0 
11419719     1208     0.31087531      3310.4469 
Loop time of 3310.45 on 40 procs for 308641 steps with 1208 atoms, finish time Sun Dec 25 14:49:33 2022


Pair  time (%) = 0.645688 (0.0195045)
Neigh time (%) = 87.7641 (2.65112)
Comm  time (%) = 87.7171 (2.6497)
Outpt time (%) = 0.000450423 (1.36061e-05)
Other time (%) = 3134.32 (94.6797)

Nlocal:    30.2 ave 477 max 0 min
Histogram: 36 2 0 0 0 0 0 1 0 1
Nghost:    4.625 ave 62 max 0 min
Histogram: 35 1 0 1 1 0 0 1 0 1
Neighs:    0.775 ave 21 max 0 min
Histogram: 38 0 1 0 0 0 0 0 0 1

Total # of neighbors = 31
Ave neighs/atom = 0.0256623
Neighbor list builds = 33278
Dangerous builds = 4789
write_dump all custom dump.atom_info_ac_* id type x y z radius vx vy vz density #
run 308641
Setting up run at Sun Dec 25 14:49:33 2022

Memory usage per processor = 964.609 Mbytes
    Step    Atoms         KinEng            CPU 
11419719     1208     0.31087531              0 
11728360     1160     0.15454749      3445.7231 
Loop time of 3445.72 on 40 procs for 308641 steps with 1160 atoms, finish time Sun Dec 25 15:46:59 2022


Pair  time (%) = 0.626161 (0.0181721)
Neigh time (%) = 59.0406 (1.71345)
Comm  time (%) = 49.9128 (1.44854)
Outpt time (%) = 0.000189897 (5.51108e-06)
Other time (%) = 3336.14 (96.8198)

Nlocal:    29 ave 450 max 0 min
Histogram: 36 2 0 0 0 0 0 0 1 1
Nghost:    3.975 ave 48 max 0 min
Histogram: 34 2 0 0 1 1 0 0 0 2
Neighs:    0.625 ave 17 max 0 min
Histogram: 37 1 1 0 0 0 0 0 0 1

Total # of neighbors = 25
Ave neighs/atom = 0.0215517
Neighbor list builds = 22396
Dangerous builds = 1829
write_dump all custom dump.atom_info_ac_* id type x y z radius vx vy vz density #
run 308641
Setting up run at Sun Dec 25 15:46:59 2022

Memory usage per processor = 964.609 Mbytes
    Step    Atoms         KinEng            CPU 
11728360     1160     0.15454749              0 
12037001     1125     0.24314516      3567.8079 
Loop time of 3567.81 on 40 procs for 308641 steps with 1125 atoms, finish time Sun Dec 25 16:46:27 2022


Pair  time (%) = 0.62072 (0.0173978)
Neigh time (%) = 49.4719 (1.38662)
Comm  time (%) = 34.8516 (0.976836)
Outpt time (%) = 0.000472519 (1.3244e-05)
Other time (%) = 3482.86 (97.6191)

Nlocal:    28.125 ave 442 max 0 min
Histogram: 36 2 0 0 0 0 0 0 1 1
Nghost:    3.975 ave 53 max 0 min
Histogram: 36 0 0 0 2 0 0 0 1 1
Neighs:    0.875 ave 22 max 0 min
Histogram: 38 0 0 0 1 0 0 0 0 1

Total # of neighbors = 35
Ave neighs/atom = 0.0311111
Neighbor list builds = 18767
Dangerous builds = 299
write_dump all custom dump.atom_info_ac_* id type x y z radius vx vy vz density #
run 308641
Setting up run at Sun Dec 25 16:46:27 2022

Memory usage per processor = 964.609 Mbytes
    Step    Atoms         KinEng            CPU 
12037001     1125     0.24314516              0 
12345642     1090     0.24838504      3183.4056 
Loop time of 3183.41 on 40 procs for 308641 steps with 1090 atoms, finish time Sun Dec 25 17:39:30 2022


Pair  time (%) = 0.625378 (0.0196449)
Neigh time (%) = 56.4983 (1.77477)
Comm  time (%) = 36.2902 (1.13998)
Outpt time (%) = 0.00046456 (1.45932e-05)
Other time (%) = 3089.99 (97.0656)

Nlocal:    27.25 ave 431 max 0 min
Histogram: 36 2 0 0 0 0 0 0 1 1
Nghost:    3.65 ave 45 max 0 min
Histogram: 36 0 0 0 1 0 1 0 1 1
Neighs:    0.75 ave 19 max 0 min
Histogram: 38 0 0 0 0 1 0 0 0 1

Total # of neighbors = 30
Ave neighs/atom = 0.0275229
Neighbor list builds = 21433
Dangerous builds = 696
write_dump all custom dump.atom_info_ac_* id type x y z radius vx vy vz density #
run 308641
Setting up run at Sun Dec 25 17:39:30 2022

Memory usage per processor = 964.609 Mbytes
    Step    Atoms         KinEng            CPU 
12345642     1090     0.24838504              0 
12654283     1064     0.15587175      3408.1142 
Loop time of 3408.11 on 40 procs for 308641 steps with 1064 atoms, finish time Sun Dec 25 18:36:18 2022


Pair  time (%) = 0.618432 (0.0181459)
Neigh time (%) = 62.709 (1.83999)
Comm  time (%) = 56.2288 (1.64985)
Outpt time (%) = 0.000451629 (1.32516e-05)
Other time (%) = 3288.56 (96.492)

Nlocal:    26.6 ave 420 max 0 min
Histogram: 36 2 0 0 0 0 0 0 1 1
Nghost:    3.75 ave 46 max 0 min
Histogram: 35 1 0 0 1 0 0 2 0 1
Neighs:    0.625 ave 13 max 0 min
Histogram: 36 1 1 0 0 1 0 0 0 1

Total # of neighbors = 25
Ave neighs/atom = 0.0234962
Neighbor list builds = 23803
Dangerous builds = 29
write_dump all custom dump.atom_info_ac_* id type x y z radius vx vy vz density #
run 308641
Setting up run at Sun Dec 25 18:36:19 2022

Memory usage per processor = 964.609 Mbytes
    Step    Atoms         KinEng            CPU 
12654283     1064     0.15587175              0 
12962924     1032     0.21430851      3156.1941 
Loop time of 3156.19 on 40 procs for 308641 steps with 1032 atoms, finish time Sun Dec 25 19:28:55 2022


Pair  time (%) = 0.618683 (0.0196022)
Neigh time (%) = 51.7164 (1.63857)
Comm  time (%) = 32.3448 (1.0248)
Outpt time (%) = 0.000505295 (1.60096e-05)
Other time (%) = 3071.51 (97.317)

Nlocal:    25.8 ave 401 max 0 min
Histogram: 36 2 0 0 0 0 0 0 1 1
Nghost:    3.575 ave 45 max 0 min
Histogram: 35 0 1 0 1 0 1 1 0 1
Neighs:    0.575 ave 12 max 0 min
Histogram: 38 0 0 0 0 0 0 0 1 1

Total # of neighbors = 23
Ave neighs/atom = 0.0222868
Neighbor list builds = 19628
Dangerous builds = 1986
write_dump all custom dump.atom_info_ac_* id type x y z radius vx vy vz density #
run 308641
Setting up run at Sun Dec 25 19:28:55 2022

Memory usage per processor = 964.609 Mbytes
    Step    Atoms         KinEng            CPU 
12962924     1032     0.21430851              0 
13271565      999     0.14525114      3327.0469 
Loop time of 3327.05 on 40 procs for 308641 steps with 999 atoms, finish time Sun Dec 25 20:24:22 2022


Pair  time (%) = 0.621075 (0.0186675)
Neigh time (%) = 53.6136 (1.61145)
Comm  time (%) = 40.9627 (1.2312)
Outpt time (%) = 0.00049716 (1.4943e-05)
Other time (%) = 3231.85 (97.1387)

Nlocal:    24.975 ave 385 max 0 min
Histogram: 36 2 0 0 0 0 0 0 1 1
Nghost:    3.65 ave 51 max 0 min
Histogram: 36 0 0 1 0 1 0 1 0 1
Neighs:    0.75 ave 15 max 0 min
Histogram: 37 1 0 0 0 0 0 0 1 1

Total # of neighbors = 30
Ave neighs/atom = 0.03003
Neighbor list builds = 20365
Dangerous builds = 851
write_dump all custom dump.atom_info_ac_* id type x y z radius vx vy vz density #
run 308641
Setting up run at Sun Dec 25 20:24:22 2022

Memory usage per processor = 964.609 Mbytes
    Step    Atoms         KinEng            CPU 
13271565      999     0.14525114              0 
13580206      973    0.078180042      3130.1687 
Loop time of 3130.17 on 40 procs for 308641 steps with 973 atoms, finish time Sun Dec 25 21:16:32 2022


Pair  time (%) = 0.618115 (0.019747)
Neigh time (%) = 50.6909 (1.61943)
Comm  time (%) = 29.2191 (0.933466)
Outpt time (%) = 0.000229611 (7.33542e-06)
Other time (%) = 3049.64 (97.4273)

Nlocal:    24.325 ave 377 max 0 min
Histogram: 36 2 0 0 0 0 0 0 1 1
Nghost:    3.725 ave 47 max 0 min
Histogram: 36 0 0 1 0 1 0 0 0 2
Neighs:    0.875 ave 18 max 0 min
Histogram: 36 2 0 0 0 0 1 0 0 1

Total # of neighbors = 35
Ave neighs/atom = 0.0359712
Neighbor list builds = 19251
Dangerous builds = 453
write_dump all custom dump.atom_info_ac_* id type x y z radius vx vy vz density #
run 308641
Setting up run at Sun Dec 25 21:16:32 2022

Memory usage per processor = 964.609 Mbytes
    Step    Atoms         KinEng            CPU 
13580206      973    0.078180042              0 
13888847      942    0.041096234      3059.2749 
Loop time of 3059.28 on 40 procs for 308641 steps with 942 atoms, finish time Sun Dec 25 22:07:32 2022


Pair  time (%) = 0.604053 (0.019745)
Neigh time (%) = 41.5444 (1.35798)
Comm  time (%) = 25.7664 (0.842239)
Outpt time (%) = 0.000406794 (1.32971e-05)
Other time (%) = 2991.36 (97.78)

Nlocal:    23.55 ave 357 max 0 min
Histogram: 36 2 0 0 0 0 0 0 0 2
Nghost:    3.625 ave 41 max 0 min
Histogram: 36 0 0 0 0 1 0 1 0 2
Neighs:    0.875 ave 18 max 0 min
Histogram: 38 0 0 0 0 0 0 0 1 1

Total # of neighbors = 35
Ave neighs/atom = 0.037155
Neighbor list builds = 15806
Dangerous builds = 679
write_dump all custom dump.atom_info_ac_* id type x y z radius vx vy vz density #
run 308641
Setting up run at Sun Dec 25 22:07:32 2022

Memory usage per processor = 964.609 Mbytes
    Step    Atoms         KinEng            CPU 
13888847      942    0.041096234              0 
14197488      922      0.1075579      3092.6318 
Loop time of 3092.63 on 40 procs for 308641 steps with 922 atoms, finish time Sun Dec 25 22:59:04 2022


Pair  time (%) = 0.60321 (0.0195047)
Neigh time (%) = 49.0121 (1.5848)
Comm  time (%) = 24.0577 (0.777905)
Outpt time (%) = 0.000466165 (1.50734e-05)
Other time (%) = 3018.96 (97.6178)

Nlocal:    23.05 ave 341 max 0 min
Histogram: 36 2 0 0 0 0 0 0 0 2
Nghost:    3.35 ave 40 max 0 min
Histogram: 36 0 0 0 0 2 0 0 0 2
Neighs:    0.775 ave 19 max 0 min
Histogram: 37 1 0 0 1 0 0 0 0 1

Total # of neighbors = 31
Ave neighs/atom = 0.0336226
Neighbor list builds = 18638
Dangerous builds = 1876
write_dump all custom dump.atom_info_ac_* id type x y z radius vx vy vz density #
run 308641
Setting up run at Sun Dec 25 22:59:04 2022

Memory usage per processor = 964.609 Mbytes
    Step    Atoms         KinEng            CPU 
14197488      922      0.1075579              0 
14506129      905     0.07940452      3073.7978 
Loop time of 3073.8 on 40 procs for 308641 steps with 905 atoms, finish time Sun Dec 25 23:50:18 2022


Pair  time (%) = 0.598268 (0.0194635)
Neigh time (%) = 44.0496 (1.43307)
Comm  time (%) = 22.8843 (0.744495)
Outpt time (%) = 0.000506121 (1.64657e-05)
Other time (%) = 3006.27 (97.803)

Nlocal:    22.625 ave 344 max 0 min
Histogram: 36 2 0 0 0 0 0 0 0 2
Nghost:    3.3 ave 43 max 0 min
Histogram: 36 0 0 0 1 1 0 0 1 1
Neighs:    0.65 ave 18 max 0 min
Histogram: 37 0 2 0 0 0 0 0 0 1

Total # of neighbors = 26
Ave neighs/atom = 0.0287293
Neighbor list builds = 16757
Dangerous builds = 15
write_dump all custom dump.atom_info_ac_* id type x y z radius vx vy vz density #
run 308641
Setting up run at Sun Dec 25 23:50:18 2022

Memory usage per processor = 964.609 Mbytes
    Step    Atoms         KinEng            CPU 
14506129      905     0.07940452              0 
14814770      879    0.090993452      3025.2304 
Loop time of 3025.23 on 40 procs for 308641 steps with 879 atoms, finish time Mon Dec 26 00:40:43 2022


Pair  time (%) = 0.584539 (0.0193221)
Neigh time (%) = 34.6512 (1.14541)
Comm  time (%) = 19.1473 (0.632921)
Outpt time (%) = 0.000452281 (1.49503e-05)
Other time (%) = 2970.85 (98.2023)

Nlocal:    21.975 ave 337 max 0 min
Histogram: 36 2 0 0 0 0 0 0 1 1
Nghost:    3.5 ave 47 max 0 min
Histogram: 36 0 0 0 2 0 0 0 1 1
Neighs:    0.5 ave 11 max 0 min
Histogram: 37 0 1 0 1 0 0 0 0 1

Total # of neighbors = 20
Ave neighs/atom = 0.0227531
Neighbor list builds = 13194
Dangerous builds = 729
write_dump all custom dump.atom_info_ac_* id type x y z radius vx vy vz density #
run 308641
Setting up run at Mon Dec 26 00:40:43 2022

Memory usage per processor = 964.609 Mbytes
    Step    Atoms         KinEng            CPU 
14814770      879    0.090993452              0 
15123411      853    0.091025341      3075.9318 
Loop time of 3075.93 on 40 procs for 308641 steps with 853 atoms, finish time Mon Dec 26 01:31:59 2022


Pair  time (%) = 0.597049 (0.0194103)
Neigh time (%) = 44.838 (1.4577)
Comm  time (%) = 23.5246 (0.764794)
Outpt time (%) = 0.00024709 (8.03301e-06)
Other time (%) = 3006.97 (97.7581)

Nlocal:    21.325 ave 334 max 0 min
Histogram: 36 2 0 0 0 0 0 0 1 1
Nghost:    3.35 ave 54 max 0 min
Histogram: 36 0 1 1 0 0 1 0 0 1
Neighs:    0.575 ave 14 max 0 min
Histogram: 37 1 0 1 0 0 0 0 0 1

Total # of neighbors = 23
Ave neighs/atom = 0.0269637
Neighbor list builds = 17051
Dangerous builds = 957
write_dump all custom dump.atom_info_ac_* id type x y z radius vx vy vz density #
run 308641
Setting up run at Mon Dec 26 01:31:59 2022

Memory usage per processor = 964.609 Mbytes
    Step    Atoms         KinEng            CPU 
15123411      853    0.091025341              0 
15432052      828     0.11705933      3107.9111 
Loop time of 3107.91 on 40 procs for 308641 steps with 828 atoms, finish time Mon Dec 26 02:23:47 2022


Pair  time (%) = 0.589128 (0.0189557)
Neigh time (%) = 47.2109 (1.51905)
Comm  time (%) = 26.0361 (0.837736)
Outpt time (%) = 0.000520603 (1.67509e-05)
Other time (%) = 3034.07 (97.6242)

Nlocal:    20.7 ave 328 max 0 min
Histogram: 36 2 0 0 0 0 0 0 1 1
Nghost:    3.2 ave 42 max 0 min
Histogram: 35 1 0 0 2 0 1 0 0 1
Neighs:    0.45 ave 12 max 0 min
Histogram: 38 0 0 0 0 1 0 0 0 1

Total # of neighbors = 18
Ave neighs/atom = 0.0217391
Neighbor list builds = 17962
Dangerous builds = 268
write_dump all custom dump.atom_info_ac_* id type x y z radius vx vy vz density #
run 308641
Setting up run at Mon Dec 26 02:23:48 2022

Memory usage per processor = 964.609 Mbytes
    Step    Atoms         KinEng            CPU 
15432052      828     0.11705933              0 
15740693      807    0.094623562      3089.1938 
Loop time of 3089.22 on 40 procs for 308641 steps with 807 atoms, finish time Mon Dec 26 03:15:17 2022


Pair  time (%) = 0.594719 (0.0192515)
Neigh time (%) = 50.0974 (1.62169)
Comm  time (%) = 22.9888 (0.744163)
Outpt time (%) = 0.000469557 (1.51999e-05)
Other time (%) = 3015.54 (97.6149)

Nlocal:    20.175 ave 323 max 0 min
Histogram: 36 2 0 0 0 0 0 0 1 1
Nghost:    2.975 ave 41 max 0 min
Histogram: 36 0 0 0 2 0 0 0 1 1
Neighs:    0.425 ave 11 max 0 min
Histogram: 38 0 0 0 1 0 0 0 0 1

Total # of neighbors = 17
Ave neighs/atom = 0.0210657
Neighbor list builds = 19067
Dangerous builds = 782
write_dump all custom dump.atom_info_ac_* id type x y z radius vx vy vz density #
run 308641
Setting up run at Mon Dec 26 03:15:17 2022

Memory usage per processor = 964.609 Mbytes
    Step    Atoms         KinEng            CPU 
15740693      807    0.094623562              0 
16049334      792    0.037417235      3038.2369 
Loop time of 3038.24 on 40 procs for 308641 steps with 792 atoms, finish time Mon Dec 26 04:05:55 2022


Pair  time (%) = 0.586712 (0.0193109)
Neigh time (%) = 36.4077 (1.19832)
Comm  time (%) = 18.8458 (0.620286)
Outpt time (%) = 0.000482529 (1.58819e-05)
Other time (%) = 2982.4 (98.1621)

Nlocal:    19.8 ave 320 max 0 min
Histogram: 36 2 0 0 0 0 0 0 1 1
Nghost:    2.85 ave 37 max 0 min
Histogram: 34 2 0 2 0 0 0 0 0 2
Neighs:    0.55 ave 15 max 0 min
Histogram: 38 0 0 1 0 0 0 0 0 1

Total # of neighbors = 22
Ave neighs/atom = 0.0277778
Neighbor list builds = 13851
Dangerous builds = 153
write_dump all custom dump.atom_info_ac_* id type x y z radius vx vy vz density #
run 308641
Setting up run at Mon Dec 26 04:05:55 2022

Memory usage per processor = 964.609 Mbytes
    Step    Atoms         KinEng            CPU 
16049334      792    0.037417235              0 
16357975      768     0.79783506      3006.9673 
Loop time of 3006.97 on 40 procs for 308641 steps with 768 atoms, finish time Mon Dec 26 04:56:02 2022


Pair  time (%) = 0.580205 (0.0192953)
Neigh time (%) = 30.3052 (1.00783)
Comm  time (%) = 17.618 (0.585905)
Outpt time (%) = 0.000685924 (2.28111e-05)
Other time (%) = 2958.46 (98.3869)

Nlocal:    19.2 ave 317 max 0 min
Histogram: 36 2 0 0 0 0 0 0 1 1
Nghost:    2.725 ave 41 max 0 min
Histogram: 35 1 1 1 0 0 1 0 0 1
Neighs:    0.575 ave 14 max 0 min
Histogram: 37 1 0 0 0 1 0 0 0 1

Total # of neighbors = 23
Ave neighs/atom = 0.0299479
Neighbor list builds = 11544
Dangerous builds = 25
write_dump all custom dump.atom_info_ac_* id type x y z radius vx vy vz density #
run 308641
Setting up run at Mon Dec 26 04:56:02 2022

Memory usage per processor = 964.609 Mbytes
    Step    Atoms         KinEng            CPU 
16357975      768     0.79783506              0 
16666616      757    0.044422992      2999.9586 
Loop time of 2999.96 on 40 procs for 308641 steps with 757 atoms, finish time Mon Dec 26 05:46:02 2022


Pair  time (%) = 0.57488 (0.0191629)
Neigh time (%) = 28.5421 (0.951416)
Comm  time (%) = 17.9504 (0.598356)
Outpt time (%) = 0.000204868 (6.82902e-06)
Other time (%) = 2952.89 (98.4311)

Nlocal:    18.925 ave 304 max 0 min
Histogram: 36 2 0 0 0 0 0 0 1 1
Nghost:    2.8 ave 42 max 0 min
Histogram: 36 0 1 1 0 0 0 0 1 1
Neighs:    0.275 ave 9 max 0 min
Histogram: 37 2 0 0 0 0 0 0 0 1

Total # of neighbors = 11
Ave neighs/atom = 0.014531
Neighbor list builds = 10878
Dangerous builds = 204
write_dump all custom dump.atom_info_ac_* id type x y z radius vx vy vz density #
run 308641
Setting up run at Mon Dec 26 05:46:02 2022

Memory usage per processor = 964.609 Mbytes
    Step    Atoms         KinEng            CPU 
16666616      757    0.044422992              0 
16975257      734    0.015985535       3032.171 
Loop time of 3032.19 on 40 procs for 308641 steps with 734 atoms, finish time Mon Dec 26 06:36:35 2022


Pair  time (%) = 0.579349 (0.0191066)
Neigh time (%) = 36.1227 (1.19131)
Comm  time (%) = 18.0388 (0.594908)
Outpt time (%) = 0.000538549 (1.7761e-05)
Other time (%) = 2977.45 (98.1947)

Nlocal:    18.35 ave 301 max 0 min
Histogram: 36 2 0 0 0 0 0 0 1 1
Nghost:    2.625 ave 38 max 0 min
Histogram: 35 1 1 1 0 0 0 0 1 1
Neighs:    0.375 ave 14 max 0 min
Histogram: 39 0 0 0 0 0 0 0 0 1

Total # of neighbors = 15
Ave neighs/atom = 0.020436
Neighbor list builds = 13771
Dangerous builds = 543
write_dump all custom dump.atom_info_ac_* id type x y z radius vx vy vz density #
run 308641
Setting up run at Mon Dec 26 06:36:35 2022

Memory usage per processor = 964.609 Mbytes
    Step    Atoms         KinEng            CPU 
16975257      734    0.015985535              0 
17283898      714    0.041405785      3074.8728 
Loop time of 3074.87 on 40 procs for 308641 steps with 714 atoms, finish time Mon Dec 26 07:27:50 2022


Pair  time (%) = 0.585882 (0.0190539)
Neigh time (%) = 45.2011 (1.47001)
Comm  time (%) = 22.844 (0.742925)
Outpt time (%) = 0.00050627 (1.64647e-05)
Other time (%) = 3006.24 (97.768)

Nlocal:    17.85 ave 287 max 0 min
Histogram: 36 2 0 0 0 0 0 0 1 1
Nghost:    2.5 ave 35 max 0 min
Histogram: 36 0 1 0 0 1 0 0 1 1
Neighs:    0.3 ave 9 max 0 min
Histogram: 37 1 1 0 0 0 0 0 0 1

Total # of neighbors = 12
Ave neighs/atom = 0.0168067
Neighbor list builds = 17235
Dangerous builds = 1187
write_dump all custom dump.atom_info_ac_* id type x y z radius vx vy vz density #
run 308641
Setting up run at Mon Dec 26 07:27:50 2022

Memory usage per processor = 964.609 Mbytes
    Step    Atoms         KinEng            CPU 
17283898      714    0.041405785              0 
17592539      699    0.029289575      3101.2904 
Loop time of 3101.29 on 40 procs for 308641 steps with 699 atoms, finish time Mon Dec 26 08:19:31 2022


Pair  time (%) = 0.586461 (0.0189102)
Neigh time (%) = 50.3731 (1.62426)
Comm  time (%) = 34.0759 (1.09877)
Outpt time (%) = 0.000474008 (1.52842e-05)
Other time (%) = 3016.25 (97.258)

Nlocal:    17.475 ave 284 max 0 min
Histogram: 36 2 0 0 0 0 0 0 1 1
Nghost:    2.4 ave 32 max 0 min
Histogram: 34 2 1 0 1 0 0 1 0 1
Neighs:    0.325 ave 10 max 0 min
Histogram: 38 0 0 1 0 0 0 0 0 1

Total # of neighbors = 13
Ave neighs/atom = 0.018598
Neighbor list builds = 19184
Dangerous builds = 157
write_dump all custom dump.atom_info_ac_* id type x y z radius vx vy vz density #
run 308641
Setting up run at Mon Dec 26 08:19:31 2022

Memory usage per processor = 964.609 Mbytes
    Step    Atoms         KinEng            CPU 
17592539      699    0.029289575              0 
17901180      689    0.017005128      2986.3636 
Loop time of 2986.36 on 40 procs for 308641 steps with 689 atoms, finish time Mon Dec 26 09:09:17 2022


Pair  time (%) = 0.57142 (0.0191343)
Neigh time (%) = 26.9132 (0.901204)
Comm  time (%) = 14.8083 (0.495865)
Outpt time (%) = 0.000245647 (8.22563e-06)
Other time (%) = 2944.07 (98.5838)

Nlocal:    17.225 ave 279 max 0 min
Histogram: 36 2 0 0 0 0 0 0 1 1
Nghost:    2.1 ave 29 max 0 min
Histogram: 36 0 1 0 1 0 0 0 1 1
Neighs:    0.475 ave 13 max 0 min
Histogram: 38 0 0 0 1 0 0 0 0 1

Total # of neighbors = 19
Ave neighs/atom = 0.0275762
Neighbor list builds = 10257
Dangerous builds = 10
write_dump all custom dump.atom_info_ac_* id type x y z radius vx vy vz density #
run 308641
Setting up run at Mon Dec 26 09:09:18 2022

Memory usage per processor = 964.609 Mbytes
    Step    Atoms         KinEng            CPU 
17901180      689    0.017005128              0 
18209821      677    0.039601713      3208.4086 
Loop time of 3208.41 on 40 procs for 308641 steps with 677 atoms, finish time Mon Dec 26 10:02:46 2022


Pair  time (%) = 0.60874 (0.0189733)
Neigh time (%) = 74.926 (2.3353)
Comm  time (%) = 29.2817 (0.912655)
Outpt time (%) = 0.000472418 (1.47244e-05)
Other time (%) = 3103.59 (96.7331)

Nlocal:    16.925 ave 271 max 0 min
Histogram: 36 2 0 0 0 0 0 0 1 1
Nghost:    2.3 ave 32 max 0 min
Histogram: 36 0 1 0 1 0 0 0 0 2
Neighs:    0.35 ave 10 max 0 min
Histogram: 37 1 0 1 0 0 0 0 0 1

Total # of neighbors = 14
Ave neighs/atom = 0.0206795
Neighbor list builds = 28553
Dangerous builds = 448
write_dump all custom dump.atom_info_ac_* id type x y z radius vx vy vz density #
run 308641
Setting up run at Mon Dec 26 10:02:46 2022

Memory usage per processor = 964.609 Mbytes
    Step    Atoms         KinEng            CPU 
18209821      677    0.039601713              0 
18518462      662    0.022283489      3055.2317 
Loop time of 3055.23 on 40 procs for 308641 steps with 662 atoms, finish time Mon Dec 26 10:53:41 2022


Pair  time (%) = 0.580939 (0.0190146)
Neigh time (%) = 40.9061 (1.33889)
Comm  time (%) = 18.6015 (0.608842)
Outpt time (%) = 0.000470855 (1.54114e-05)
Other time (%) = 2995.14 (98.0332)

Nlocal:    16.55 ave 270 max 0 min
Histogram: 36 2 0 0 0 0 0 0 1 1
Nghost:    2.1 ave 33 max 0 min
Histogram: 36 0 0 1 1 0 1 0 0 1
Neighs:    0.4 ave 10 max 0 min
Histogram: 38 0 0 0 0 0 1 0 0 1

Total # of neighbors = 16
Ave neighs/atom = 0.0241692
Neighbor list builds = 15603
Dangerous builds = 583
write_dump all custom dump.atom_info_ac_* id type x y z radius vx vy vz density #
run 308641
Setting up run at Mon Dec 26 10:53:41 2022

Memory usage per processor = 964.609 Mbytes
    Step    Atoms         KinEng            CPU 
18518462      662    0.022283489              0 
18827103      653     0.01700728      2984.0405 
Loop time of 2984.04 on 40 procs for 308641 steps with 653 atoms, finish time Mon Dec 26 11:43:25 2022


Pair  time (%) = 0.564938 (0.018932)
Neigh time (%) = 24.341 (0.815705)
Comm  time (%) = 12.1097 (0.405816)
Outpt time (%) = 0.000473495 (1.58676e-05)
Other time (%) = 2947.02 (98.7595)

Nlocal:    16.325 ave 257 max 0 min
Histogram: 36 2 0 0 0 0 0 0 0 2
Nghost:    2.325 ave 32 max 0 min
Histogram: 36 0 0 0 1 1 0 0 0 2
Neighs:    0.45 ave 10 max 0 min
Histogram: 38 0 0 0 0 0 0 0 1 1

Total # of neighbors = 18
Ave neighs/atom = 0.0275651
Neighbor list builds = 9285
Dangerous builds = 17
write_dump all custom dump.atom_info_ac_* id type x y z radius vx vy vz density #
run 308641
Setting up run at Mon Dec 26 11:43:26 2022

Memory usage per processor = 964.609 Mbytes
    Step    Atoms         KinEng            CPU 
18827103      653     0.01700728              0 
19135744      640    0.081997817      3035.9998 
Loop time of 3036 on 40 procs for 308641 steps with 640 atoms, finish time Mon Dec 26 12:34:02 2022


Pair  time (%) = 0.572724 (0.0188644)
Neigh time (%) = 39.374 (1.2969)
Comm  time (%) = 19.6626 (0.647648)
Outpt time (%) = 0.00046517 (1.53218e-05)
Other time (%) = 2976.39 (98.0366)

Nlocal:    16 ave 251 max 0 min
Histogram: 36 2 0 0 0 0 0 0 0 2
Nghost:    2.525 ave 34 max 0 min
Histogram: 36 0 0 0 2 0 0 0 0 2
Neighs:    0.275 ave 8 max 0 min
Histogram: 38 0 0 1 0 0 0 0 0 1

Total # of neighbors = 11
Ave neighs/atom = 0.0171875
Neighbor list builds = 15027
Dangerous builds = 110
write_dump all custom dump.atom_info_ac_* id type x y z radius vx vy vz density #
run 308641
Setting up run at Mon Dec 26 12:34:02 2022

Memory usage per processor = 964.609 Mbytes
    Step    Atoms         KinEng            CPU 
19135744      640    0.081997817              0 
19444385      629    0.055771594      3062.4476 
Loop time of 3062.45 on 40 procs for 308641 steps with 629 atoms, finish time Mon Dec 26 13:25:04 2022


Pair  time (%) = 0.576998 (0.0188411)
Neigh time (%) = 42.774 (1.39672)
Comm  time (%) = 14.3338 (0.468051)
Outpt time (%) = 0.000165766 (5.41287e-06)
Other time (%) = 3004.76 (98.1164)

Nlocal:    15.725 ave 252 max 0 min
Histogram: 36 2 0 0 0 0 0 0 0 2
Nghost:    2.125 ave 28 max 0 min
Histogram: 36 0 0 0 1 1 0 0 0 2
Neighs:    0.45 ave 9 max 0 min
Histogram: 37 1 0 0 0 0 0 0 1 1

Total # of neighbors = 18
Ave neighs/atom = 0.0286169
Neighbor list builds = 16311
Dangerous builds = 514
write_dump all custom dump.atom_info_ac_* id type x y z radius vx vy vz density #
run 308641
Setting up run at Mon Dec 26 13:25:04 2022

Memory usage per processor = 964.609 Mbytes
    Step    Atoms         KinEng            CPU 
19444385      629    0.055771594              0 
19753026      621    0.011456413      3008.3087 
Loop time of 3008.31 on 40 procs for 308641 steps with 621 atoms, finish time Mon Dec 26 14:15:13 2022


Pair  time (%) = 0.567334 (0.0188589)
Neigh time (%) = 32.9756 (1.09615)
Comm  time (%) = 11.9315 (0.396619)
Outpt time (%) = 0.000489917 (1.62855e-05)
Other time (%) = 2962.83 (98.4884)

Nlocal:    15.525 ave 256 max 0 min
Histogram: 36 2 0 0 0 0 0 0 1 1
Nghost:    2.25 ave 32 max 0 min
Histogram: 36 0 0 0 2 0 0 0 1 1
Neighs:    0.4 ave 9 max 0 min
Histogram: 38 0 0 0 0 0 0 1 0 1

Total # of neighbors = 16
Ave neighs/atom = 0.0257649
Neighbor list builds = 12581
Dangerous builds = 15
write_dump all custom dump.atom_info_ac_* id type x y z radius vx vy vz density #
run 308641
Setting up run at Mon Dec 26 14:15:13 2022

Memory usage per processor = 964.609 Mbytes
    Step    Atoms         KinEng            CPU 
19753026      621    0.011456413              0 
20061667      609    0.017775919      2994.3541 
Loop time of 2994.35 on 40 procs for 308641 steps with 609 atoms, finish time Mon Dec 26 15:05:07 2022


Pair  time (%) = 0.567176 (0.0189415)
Neigh time (%) = 28.1017 (0.93849)
Comm  time (%) = 12.0199 (0.401417)
Outpt time (%) = 0.000486412 (1.62443e-05)
Other time (%) = 2953.66 (98.6411)

Nlocal:    15.225 ave 260 max 0 min
Histogram: 36 2 0 0 0 0 0 0 1 1
Nghost:    2.225 ave 31 max 0 min
Histogram: 36 0 0 1 1 0 0 1 0 1
Neighs:    0.275 ave 8 max 0 min
Histogram: 38 0 0 1 0 0 0 0 0 1

Total # of neighbors = 11
Ave neighs/atom = 0.0180624
Neighbor list builds = 10727
Dangerous builds = 276
write_dump all custom dump.atom_info_ac_* id type x y z radius vx vy vz density #
run 308641
Setting up run at Mon Dec 26 15:05:07 2022

Memory usage per processor = 964.609 Mbytes
    Step    Atoms         KinEng            CPU 
20061667      609    0.017775919              0 
20370308      601   0.0085736852      2967.6878 
Loop time of 2967.69 on 40 procs for 308641 steps with 601 atoms, finish time Mon Dec 26 15:54:35 2022


Pair  time (%) = 0.555653 (0.0187234)
Neigh time (%) = 21.6472 (0.72943)
Comm  time (%) = 10.2939 (0.346867)
Outpt time (%) = 0.000510374 (1.71977e-05)
Other time (%) = 2935.19 (98.905)

Nlocal:    15.025 ave 259 max 0 min
Histogram: 36 2 0 0 0 0 0 1 0 1
Nghost:    2.1 ave 35 max 0 min
Histogram: 36 0 1 0 1 0 1 0 0 1
Neighs:    0.35 ave 10 max 0 min
Histogram: 37 1 0 1 0 0 0 0 0 1

Total # of neighbors = 14
Ave neighs/atom = 0.0232945
Neighbor list builds = 8267
Dangerous builds = 6
write_dump all custom dump.atom_info_ac_* id type x y z radius vx vy vz density #
run 308641
Setting up run at Mon Dec 26 15:54:35 2022

Memory usage per processor = 964.609 Mbytes
    Step    Atoms         KinEng            CPU 
20370308      601   0.0085736852              0 
20678949      595   0.0079783113      3091.9698 
Loop time of 3091.97 on 40 procs for 308641 steps with 595 atoms, finish time Mon Dec 26 16:46:07 2022


Pair  time (%) = 0.58184 (0.0188178)
Neigh time (%) = 48.951 (1.58317)
Comm  time (%) = 14.952 (0.483574)
Outpt time (%) = 0.000210144 (6.79643e-06)
Other time (%) = 3027.49 (97.9144)

Nlocal:    14.875 ave 264 max 0 min
Histogram: 36 2 0 0 0 0 0 1 0 1
Nghost:    2.25 ave 34 max 0 min
Histogram: 36 0 1 0 1 0 0 0 0 2
Neighs:    0.225 ave 6 max 0 min
Histogram: 37 1 0 1 0 0 0 0 0 1

Total # of neighbors = 9
Ave neighs/atom = 0.0151261
Neighbor list builds = 18657
Dangerous builds = 24
write_dump all custom dump.atom_info_ac_* id type x y z radius vx vy vz density #
run 308641
Setting up run at Mon Dec 26 16:46:07 2022

Memory usage per processor = 964.609 Mbytes
    Step    Atoms         KinEng            CPU 
20678949      595   0.0079783113              0 
20987590      580    0.017133668      3140.6579 
Loop time of 3140.66 on 40 procs for 308641 steps with 580 atoms, finish time Mon Dec 26 17:38:28 2022


Pair  time (%) = 0.590082 (0.0187885)
Neigh time (%) = 61.4435 (1.95639)
Comm  time (%) = 26.3694 (0.839613)
Outpt time (%) = 0.000498752 (1.58805e-05)
Other time (%) = 3052.25 (97.1852)

Nlocal:    14.5 ave 261 max 0 min
Histogram: 36 2 0 0 0 0 0 1 0 1
Nghost:    2.1 ave 32 max 0 min
Histogram: 36 0 1 0 1 0 0 1 0 1
Neighs:    0.35 ave 8 max 0 min
Histogram: 37 0 0 2 0 0 0 0 0 1

Total # of neighbors = 14
Ave neighs/atom = 0.0241379
Neighbor list builds = 23422
Dangerous builds = 40
write_dump all custom dump.atom_info_ac_* id type x y z radius vx vy vz density #
run 308641
Setting up run at Mon Dec 26 17:38:28 2022

Memory usage per processor = 964.609 Mbytes
    Step    Atoms         KinEng            CPU 
20987590      580    0.017133668              0 
21296231      568    0.016827008      3144.8874 
Loop time of 3144.89 on 40 procs for 308641 steps with 568 atoms, finish time Mon Dec 26 18:30:53 2022


Pair  time (%) = 0.585193 (0.0186078)
Neigh time (%) = 61.2704 (1.94825)
Comm  time (%) = 26.3444 (0.83769)
Outpt time (%) = 0.00078818 (2.50623e-05)
Other time (%) = 3056.69 (97.1954)

Nlocal:    14.2 ave 264 max 0 min
Histogram: 36 2 0 0 0 0 1 0 0 1
Nghost:    1.975 ave 29 max 0 min
Histogram: 36 0 1 0 1 0 0 0 0 2
Neighs:    0.325 ave 9 max 0 min
Histogram: 37 0 2 0 0 0 0 0 0 1

Total # of neighbors = 13
Ave neighs/atom = 0.0228873
Neighbor list builds = 23363
Dangerous builds = 70
write_dump all custom dump.atom_info_ac_* id type x y z radius vx vy vz density #
run 308641
Setting up run at Mon Dec 26 18:30:53 2022

Memory usage per processor = 964.609 Mbytes
    Step    Atoms         KinEng            CPU 
21296231      568    0.016827008              0 
21604872      560    0.038826182      3145.3783 
Loop time of 3145.38 on 40 procs for 308641 steps with 560 atoms, finish time Mon Dec 26 19:23:18 2022


Pair  time (%) = 0.591157 (0.0187944)
Neigh time (%) = 61.3883 (1.9517)
Comm  time (%) = 19.2216 (0.611105)
Outpt time (%) = 0.000511171 (1.62515e-05)
Other time (%) = 3064.18 (97.4184)

Nlocal:    14 ave 262 max 0 min
Histogram: 36 2 0 0 0 0 1 0 0 1
Nghost:    1.9 ave 27 max 0 min
Histogram: 35 1 1 0 1 0 0 0 0 2
Neighs:    0.275 ave 7 max 0 min
Histogram: 37 0 2 0 0 0 0 0 0 1

Total # of neighbors = 11
Ave neighs/atom = 0.0196429
Neighbor list builds = 23411
Dangerous builds = 603
write_dump all custom dump.atom_info_ac_* id type x y z radius vx vy vz density #
run 308641
Setting up run at Mon Dec 26 19:23:18 2022

Memory usage per processor = 964.609 Mbytes
    Step    Atoms         KinEng            CPU 
21604872      560    0.038826182              0 
21913513      557    0.020930127      3139.3252 
Loop time of 3139.33 on 40 procs for 308641 steps with 557 atoms, finish time Mon Dec 26 20:15:37 2022


Pair  time (%) = 0.583948 (0.0186011)
Neigh time (%) = 59.5294 (1.89625)
Comm  time (%) = 24.431 (0.778226)
Outpt time (%) = 0.000502965 (1.60214e-05)
Other time (%) = 3054.78 (97.3069)

Nlocal:    13.925 ave 259 max 0 min
Histogram: 36 2 0 0 0 0 1 0 0 1
Nghost:    2.1 ave 28 max 0 min
Histogram: 35 1 1 0 0 1 0 0 0 2
Neighs:    0.175 ave 5 max 0 min
Histogram: 37 0 2 0 0 0 0 0 0 1

Total # of neighbors = 7
Ave neighs/atom = 0.0125673
Neighbor list builds = 22688
Dangerous builds = 6
write_dump all custom dump.atom_info_ac_* id type x y z radius vx vy vz density #
run 308641
Setting up run at Mon Dec 26 20:15:38 2022

Memory usage per processor = 964.609 Mbytes
    Step    Atoms         KinEng            CPU 
21913513      557    0.020930127              0 
22222154      548    0.018538656      3145.6144 
Loop time of 3145.61 on 40 procs for 308641 steps with 548 atoms, finish time Mon Dec 26 21:08:03 2022


Pair  time (%) = 0.585833 (0.0186238)
Neigh time (%) = 60.4461 (1.9216)
Comm  time (%) = 27.8987 (0.886909)
Outpt time (%) = 0.000223537 (7.1063e-06)
Other time (%) = 3056.68 (97.1729)

Nlocal:    13.7 ave 254 max 0 min
Histogram: 36 2 0 0 0 0 1 0 0 1
Nghost:    2.075 ave 30 max 0 min
Histogram: 35 1 1 0 1 0 0 1 0 1
Neighs:    0.225 ave 8 max 0 min
Histogram: 38 1 0 0 0 0 0 0 0 1

Total # of neighbors = 9
Ave neighs/atom = 0.0164234
Neighbor list builds = 23048
Dangerous builds = 23
write_dump all custom dump.atom_info_ac_* id type x y z radius vx vy vz density #
run 308641
Setting up run at Mon Dec 26 21:08:03 2022

Memory usage per processor = 964.609 Mbytes
    Step    Atoms         KinEng            CPU 
22222154      548    0.018538656              0 
22530795      537     0.03688516      3140.3962 
Loop time of 3140.4 on 40 procs for 308641 steps with 537 atoms, finish time Mon Dec 26 22:00:24 2022


Pair  time (%) = 0.581382 (0.018513)
Neigh time (%) = 58.9823 (1.87818)
Comm  time (%) = 25.0134 (0.796504)
Outpt time (%) = 0.00057434 (1.82888e-05)
Other time (%) = 3055.82 (97.3068)

Nlocal:    13.425 ave 249 max 0 min
Histogram: 36 2 0 0 0 0 0 1 0 1
Nghost:    1.65 ave 24 max 0 min
Histogram: 36 1 0 0 0 1 0 0 0 2
Neighs:    0.35 ave 8 max 0 min
Histogram: 38 0 0 0 0 0 0 1 0 1

Total # of neighbors = 14
Ave neighs/atom = 0.0260708
Neighbor list builds = 22494
Dangerous builds = 14
write_dump all custom dump.atom_info_ac_* id type x y z radius vx vy vz density #
run 308641
Setting up run at Mon Dec 26 22:00:24 2022

Memory usage per processor = 964.609 Mbytes
    Step    Atoms         KinEng            CPU 
22530795      537     0.03688516              0 
22839436      534      0.1256313      3150.8165 
Loop time of 3150.82 on 40 procs for 308641 steps with 534 atoms, finish time Mon Dec 26 22:52:55 2022


Pair  time (%) = 0.582677 (0.0184929)
Neigh time (%) = 60.6369 (1.92448)
Comm  time (%) = 24.7975 (0.787019)
Outpt time (%) = 0.000491149 (1.5588e-05)
Other time (%) = 3064.8 (97.27)

Nlocal:    13.35 ave 241 max 0 min
Histogram: 36 2 0 0 0 0 0 1 0 1
Nghost:    1.675 ave 25 max 0 min
Histogram: 36 1 0 0 1 0 0 0 1 1
Neighs:    0.25 ave 7 max 0 min
Histogram: 38 0 0 0 1 0 0 0 0 1

Total # of neighbors = 10
Ave neighs/atom = 0.0187266
Neighbor list builds = 23136
Dangerous builds = 3
write_dump all custom dump.atom_info_ac_* id type x y z radius vx vy vz density #
run 308641
Setting up run at Mon Dec 26 22:52:55 2022

Memory usage per processor = 964.609 Mbytes
    Step    Atoms         KinEng            CPU 
22839436      534      0.1256313              0 
23148077      528    0.045547576      3133.3945 
Loop time of 3133.39 on 40 procs for 308641 steps with 528 atoms, finish time Mon Dec 26 23:45:08 2022


Pair  time (%) = 0.578551 (0.018464)
Neigh time (%) = 59.6929 (1.90505)
Comm  time (%) = 25.2889 (0.807077)
Outpt time (%) = 0.00044182 (1.41004e-05)
Other time (%) = 3047.83 (97.2694)

Nlocal:    13.2 ave 239 max 0 min
Histogram: 36 2 0 0 0 0 0 1 0 1
Nghost:    1.65 ave 20 max 0 min
Histogram: 32 4 1 0 0 0 1 0 0 2
Neighs:    0.225 ave 9 max 0 min
Histogram: 39 0 0 0 0 0 0 0 0 1

Total # of neighbors = 9
Ave neighs/atom = 0.0170455
Neighbor list builds = 22773
Dangerous builds = 558
write_dump all custom dump.atom_info_ac_* id type x y z radius vx vy vz density #
run 308641
Setting up run at Mon Dec 26 23:45:08 2022

Memory usage per processor = 964.609 Mbytes
    Step    Atoms         KinEng            CPU 
23148077      528    0.045547576              0 
23456718      525    0.048655341        3135.77 
Loop time of 3135.77 on 40 procs for 308641 steps with 525 atoms, finish time Tue Dec 27 00:37:24 2022


Pair  time (%) = 0.580341 (0.0185071)
Neigh time (%) = 58.8493 (1.87671)
Comm  time (%) = 18.4772 (0.589241)
Outpt time (%) = 0.000542302 (1.72941e-05)
Other time (%) = 3057.86 (97.5155)

Nlocal:    13.125 ave 229 max 0 min
Histogram: 36 2 0 0 0 0 0 1 0 1
Nghost:    1.5 ave 23 max 0 min
Histogram: 36 0 1 0 0 1 0 1 0 1
Neighs:    0.225 ave 6 max 0 min
Histogram: 38 0 0 0 0 1 0 0 0 1

Total # of neighbors = 9
Ave neighs/atom = 0.0171429
Neighbor list builds = 22449
Dangerous builds = 3
write_dump all custom dump.atom_info_ac_* id type x y z radius vx vy vz density #
run 308641
Setting up run at Tue Dec 27 00:37:24 2022

Memory usage per processor = 964.609 Mbytes
    Step    Atoms         KinEng            CPU 
23456718      525    0.048655341              0 
23765359      511     0.03576342       3136.669 
Loop time of 3136.67 on 40 procs for 308641 steps with 511 atoms, finish time Tue Dec 27 01:29:41 2022


Pair  time (%) = 0.577731 (0.0184186)
Neigh time (%) = 58.1856 (1.85501)
Comm  time (%) = 17.5289 (0.558838)
Outpt time (%) = 0.000207339 (6.61018e-06)
Other time (%) = 3060.38 (97.5677)

Nlocal:    12.775 ave 223 max 0 min
Histogram: 36 2 0 0 0 0 0 0 1 1
Nghost:    1.425 ave 22 max 0 min
Histogram: 36 0 0 1 0 1 1 0 0 1
Neighs:    0.25 ave 6 max 0 min
Histogram: 37 1 0 0 0 1 0 0 0 1

Total # of neighbors = 10
Ave neighs/atom = 0.0195695
Neighbor list builds = 22207
Dangerous builds = 203
write_dump all custom dump.atom_info_ac_* id type x y z radius vx vy vz density #
run 308641
Setting up run at Tue Dec 27 01:29:41 2022

Memory usage per processor = 964.609 Mbytes
    Step    Atoms         KinEng            CPU 
23765359      511     0.03576342              0 
24074000      504    0.015137474      3014.2927 
Loop time of 3014.29 on 40 procs for 308641 steps with 504 atoms, finish time Tue Dec 27 02:19:55 2022


Pair  time (%) = 0.556635 (0.0184665)
Neigh time (%) = 32.1608 (1.06694)
Comm  time (%) = 9.72282 (0.322557)
Outpt time (%) = 0.000845253 (2.80415e-05)
Other time (%) = 2971.85 (98.592)

Nlocal:    12.6 ave 222 max 0 min
Histogram: 36 2 0 0 0 0 0 0 1 1
Nghost:    1.4 ave 21 max 0 min
Histogram: 36 0 1 0 0 1 0 1 0 1
Neighs:    0.275 ave 8 max 0 min
Histogram: 38 0 0 1 0 0 0 0 0 1

Total # of neighbors = 11
Ave neighs/atom = 0.0218254
Neighbor list builds = 12274
Dangerous builds = 21
write_dump all custom dump.atom_info_ac_* id type x y z radius vx vy vz density #
run 308641
Setting up run at Tue Dec 27 02:19:55 2022

Memory usage per processor = 964.609 Mbytes
    Step    Atoms         KinEng            CPU 
24074000      504    0.015137474              0 
24382641      501    0.015093398      2957.8886 
Loop time of 2957.89 on 40 procs for 308641 steps with 501 atoms, finish time Tue Dec 27 03:09:13 2022


Pair  time (%) = 0.546127 (0.0184634)
Neigh time (%) = 18.6219 (0.629568)
Comm  time (%) = 8.45056 (0.285696)
Outpt time (%) = 0.000474442 (1.60399e-05)
Other time (%) = 2930.27 (99.0663)

Nlocal:    12.525 ave 214 max 0 min
Histogram: 36 2 0 0 0 0 0 0 1 1
Nghost:    1.6 ave 27 max 0 min
Histogram: 36 0 1 0 0 2 0 0 0 1
Neighs:    0.375 ave 9 max 0 min
Histogram: 38 0 0 0 0 0 1 0 0 1

Total # of neighbors = 15
Ave neighs/atom = 0.0299401
Neighbor list builds = 7116
Dangerous builds = 7
write_dump all custom dump.atom_info_ac_* id type x y z radius vx vy vz density #
run 308641
Setting up run at Tue Dec 27 03:09:13 2022

Memory usage per processor = 964.609 Mbytes
    Step    Atoms         KinEng            CPU 
24382641      501    0.015093398              0 
24691282      497   0.0083550872      2955.7401 
Loop time of 2955.74 on 40 procs for 308641 steps with 497 atoms, finish time Tue Dec 27 03:58:29 2022


Pair  time (%) = 0.546097 (0.0184758)
Neigh time (%) = 18.7184 (0.633291)
Comm  time (%) = 7.42062 (0.251058)
Outpt time (%) = 0.000537561 (1.8187e-05)
Other time (%) = 2929.05 (99.0972)

Nlocal:    12.425 ave 213 max 0 min
Histogram: 36 2 0 0 0 0 0 0 1 1
Nghost:    1.75 ave 29 max 0 min
Histogram: 36 0 1 0 1 0 1 0 0 1
Neighs:    0.3 ave 7 max 0 min
Histogram: 38 0 0 0 0 0 0 1 0 1

Total # of neighbors = 12
Ave neighs/atom = 0.0241449
[...]
Loop time of 2910.68 on 40 procs for 308641 steps with 299 atoms, finish time Thu Dec 29 12:23:59 2022


Pair  time (%) = 0.522004 (0.0179341)
Neigh time (%) = 8.29923 (0.28513)
Comm  time (%) = 3.70736 (0.127371)
Outpt time (%) = 0.000454772 (1.56242e-05)
Other time (%) = 2898.15 (99.5695)

Nlocal:    7.475 ave 149 max 0 min
Histogram: 38 0 0 0 0 0 0 1 0 1
Nghost:    0.775 ave 13 max 0 min
Histogram: 36 0 0 2 0 0 1 0 0 1
Neighs:    0.375 ave 10 max 0 min
Histogram: 37 1 0 0 1 0 0 0 0 1

Total # of neighbors = 15
Ave neighs/atom = 0.0501672
Neighbor list builds = 3205
Dangerous builds = 0
write_dump all custom dump.atom_info_ac_* id type x y z radius vx vy vz density #
run 308641
Setting up run at Thu Dec 29 12:23:59 2022

Memory usage per processor = 964.609 Mbytes
    Step    Atoms         KinEng            CPU 
45987607      299  0.00078716704              0 
46296248      298  0.00078838946      2921.8881 
Loop time of 2921.89 on 40 procs for 308641 steps with 298 atoms, finish time Thu Dec 29 13:12:41 2022


Pair  time (%) = 0.525335 (0.0179793)
Neigh time (%) = 11.532 (0.394677)
Comm  time (%) = 4.01735 (0.137491)
Outpt time (%) = 0.00583409 (0.000199669)
Other time (%) = 2905.81 (99.4497)

Nlocal:    7.45 ave 145 max 0 min
Histogram: 38 0 0 0 0 0 0 0 1 1
Nghost:    0.775 ave 11 max 0 min
Histogram: 36 0 0 1 0 1 0 0 1 1
Neighs:    0.275 ave 7 max 0 min
Histogram: 37 1 0 0 1 0 0 0 0 1

Total # of neighbors = 11
Ave neighs/atom = 0.0369128
Neighbor list builds = 4435
Dangerous builds = 1
write_dump all custom dump.atom_info_ac_* id type x y z radius vx vy vz density #
run 308641
Setting up run at Thu Dec 29 13:12:41 2022

Memory usage per processor = 964.609 Mbytes
    Step    Atoms         KinEng            CPU 
46296248      298  0.00078838946              0 
46604889      296  0.00082043081      2923.5111 
Loop time of 2923.51 on 40 procs for 308641 steps with 296 atoms, finish time Thu Dec 29 14:01:24 2022


Pair  time (%) = 0.515895 (0.0176464)
Neigh time (%) = 11.6146 (0.397283)
Comm  time (%) = 4.79642 (0.164064)
Outpt time (%) = 0.000498066 (1.70366e-05)
Other time (%) = 2906.58 (99.421)

Nlocal:    7.4 ave 142 max 0 min
Histogram: 37 1 0 0 0 0 0 0 1 1
Nghost:    0.95 ave 14 max 0 min
Histogram: 35 1 1 0 0 1 1 0 0 1
Neighs:    0.25 ave 7 max 0 min
Histogram: 38 0 0 0 1 0 0 0 0 1

Total # of neighbors = 10
Ave neighs/atom = 0.0337838
Neighbor list builds = 4466
Dangerous builds = 1
write_dump all custom dump.atom_info_ac_* id type x y z radius vx vy vz density #
run 308641
Setting up run at Thu Dec 29 14:01:24 2022

Memory usage per processor = 964.609 Mbytes
    Step    Atoms         KinEng            CPU 
46604889      296  0.00082043081              0 
46913530      294  0.00078926568      2908.8479 
Loop time of 2908.85 on 40 procs for 308641 steps with 294 atoms, finish time Thu Dec 29 14:49:53 2022


Pair  time (%) = 0.52247 (0.0179614)
Neigh time (%) = 8.78442 (0.30199)
Comm  time (%) = 4.46066 (0.153348)
Outpt time (%) = 0.000452626 (1.55603e-05)
Other time (%) = 2895.08 (99.5267)

Nlocal:    7.35 ave 145 max 0 min
Histogram: 37 1 0 0 0 0 0 1 0 1
Nghost:    0.8 ave 13 max 0 min
Histogram: 36 0 1 1 0 0 0 0 1 1
Neighs:    0.275 ave 8 max 0 min
Histogram: 38 0 0 1 0 0 0 0 0 1

Total # of neighbors = 11
Ave neighs/atom = 0.037415
Neighbor list builds = 3385
Dangerous builds = 182
write_dump all custom dump.atom_info_ac_* id type x y z radius vx vy vz density #
run 308641
Setting up run at Thu Dec 29 14:49:53 2022

Memory usage per processor = 964.609 Mbytes
    Step    Atoms         KinEng            CPU 
46913530      294  0.00078926568              0 
47222171      293  0.00091760472      2911.7523 
Loop time of 2911.75 on 40 procs for 308641 steps with 293 atoms, finish time Thu Dec 29 15:38:25 2022


Pair  time (%) = 0.519001 (0.0178244)
Neigh time (%) = 9.01079 (0.309463)
Comm  time (%) = 5.58333 (0.191752)
Outpt time (%) = 0.000493339 (1.6943e-05)
Other time (%) = 2896.64 (99.4809)

Nlocal:    7.325 ave 147 max 0 min
Histogram: 38 0 0 0 0 0 0 1 0 1
Nghost:    0.7 ave 13 max 0 min
Histogram: 36 0 2 0 0 1 0 0 0 1
Neighs:    0.3 ave 7 max 0 min
Histogram: 38 0 0 0 0 0 0 1 0 1

Total # of neighbors = 12
Ave neighs/atom = 0.0409556
Neighbor list builds = 3470
Dangerous builds = 1
write_dump all custom dump.atom_info_ac_* id type x y z radius vx vy vz density #
run 308641
Setting up run at Thu Dec 29 15:38:25 2022

Memory usage per processor = 964.609 Mbytes
    Step    Atoms         KinEng            CPU 
47222171      293  0.00091760472              0 
47530812      290  0.00087739179      2926.4037 
Loop time of 2926.4 on 40 procs for 308641 steps with 290 atoms, finish time Thu Dec 29 16:27:12 2022


Pair  time (%) = 0.521138 (0.0178081)
Neigh time (%) = 11.0889 (0.378924)
Comm  time (%) = 4.97612 (0.170042)
Outpt time (%) = 0.00049603 (1.69502e-05)
Other time (%) = 2909.82 (99.4332)

Nlocal:    7.25 ave 142 max 0 min
Histogram: 38 0 0 0 0 0 0 0 1 1
Nghost:    0.65 ave 12 max 0 min
Histogram: 36 0 2 0 0 0 1 0 0 1
Neighs:    0.25 ave 5 max 0 min
Histogram: 38 0 0 0 0 0 0 0 0 2

Total # of neighbors = 10
Ave neighs/atom = 0.0344828
Neighbor list builds = 4262
Dangerous builds = 3
write_dump all custom dump.atom_info_ac_* id type x y z radius vx vy vz density #
run 308641
Setting up run at Thu Dec 29 16:27:12 2022

Memory usage per processor = 964.609 Mbytes
    Step    Atoms         KinEng            CPU 
47530812      290  0.00087739179              0 
47839453      290    0.001100543      2915.5462 
Loop time of 2915.55 on 40 procs for 308641 steps with 290 atoms, finish time Thu Dec 29 17:15:47 2022


Pair  time (%) = 0.52362 (0.0179596)
Neigh time (%) = 8.64598 (0.296548)
Comm  time (%) = 4.40861 (0.15121)
Outpt time (%) = 0.000485552 (1.66539e-05)
Other time (%) = 2901.97 (99.5343)

Nlocal:    7.25 ave 135 max 0 min
Histogram: 37 1 0 0 0 0 0 0 1 1
Nghost:    0.65 ave 13 max 0 min
Histogram: 37 0 1 0 0 0 1 0 0 1
Neighs:    0.2 ave 4 max 0 min
Histogram: 37 0 1 0 0 0 0 1 0 1

Total # of neighbors = 8
Ave neighs/atom = 0.0275862
Neighbor list builds = 3329
Dangerous builds = 0
write_dump all custom dump.atom_info_ac_* id type x y z radius vx vy vz density #
run 308641
Setting up run at Thu Dec 29 17:15:47 2022

Memory usage per processor = 964.609 Mbytes
    Step    Atoms         KinEng            CPU 
47839453      290    0.001100543              0 
48148094      289   0.0007906368      2914.7002 
Loop time of 2914.7 on 40 procs for 308641 steps with 289 atoms, finish time Thu Dec 29 18:04:22 2022


Pair  time (%) = 0.519846 (0.0178353)
Neigh time (%) = 8.31211 (0.285179)
Comm  time (%) = 4.50421 (0.154534)
Outpt time (%) = 0.000532571 (1.82719e-05)
Other time (%) = 2901.36 (99.5424)

Nlocal:    7.225 ave 135 max 0 min
Histogram: 37 1 0 0 0 0 0 0 1 1
Nghost:    0.75 ave 11 max 0 min
Histogram: 36 1 0 1 0 0 0 0 0 2
Neighs:    0.2 ave 4 max 0 min
Histogram: 37 0 1 0 0 0 0 1 0 1

Total # of neighbors = 8
Ave neighs/atom = 0.0276817
Neighbor list builds = 3202
Dangerous builds = 0
write_dump all custom dump.atom_info_ac_* id type x y z radius vx vy vz density #
run 308641
Setting up run at Thu Dec 29 18:04:22 2022

Memory usage per processor = 964.609 Mbytes
    Step    Atoms         KinEng            CPU 
48148094      289   0.0007906368              0 
48456735      289  0.00079512312      2907.3657 
Loop time of 2907.37 on 40 procs for 308641 steps with 289 atoms, finish time Thu Dec 29 18:52:50 2022


Pair  time (%) = 0.516005 (0.0177482)
Neigh time (%) = 8.31262 (0.285916)
Comm  time (%) = 4.59203 (0.157945)
Outpt time (%) = 0.000444849 (1.53008e-05)
Other time (%) = 2893.94 (99.5384)

Nlocal:    7.225 ave 130 max 0 min
Histogram: 38 0 0 0 0 0 0 0 0 2
Nghost:    0.675 ave 14 max 0 min
Histogram: 36 1 1 0 1 0 0 0 0 1
Neighs:    0.225 ave 4 max 0 min
Histogram: 37 0 1 0 0 0 0 0 0 2

Total # of neighbors = 9
Ave neighs/atom = 0.0311419
Neighbor list builds = 3202
Dangerous builds = 0
write_dump all custom dump.atom_info_ac_* id type x y z radius vx vy vz density #
run 308641
Setting up run at Thu Dec 29 18:52:50 2022

Memory usage per processor = 964.609 Mbytes
    Step    Atoms         KinEng            CPU 
48456735      289  0.00079512312              0 
48765376      289  0.00079721042      2964.6899 
Loop time of 2964.69 on 40 procs for 308641 steps with 289 atoms, finish time Thu Dec 29 19:42:14 2022


Pair  time (%) = 0.517195 (0.0174452)
Neigh time (%) = 8.30184 (0.280024)
Comm  time (%) = 3.73566 (0.126005)
Outpt time (%) = 0.000505288 (1.70435e-05)
Other time (%) = 2952.14 (99.5765)

Nlocal:    7.225 ave 129 max 0 min
Histogram: 38 0 0 0 0 0 0 0 0 2
Nghost:    0.625 ave 12 max 0 min
Histogram: 36 1 1 0 0 0 1 0 0 1
Neighs:    0.225 ave 5 max 0 min
Histogram: 38 0 0 0 0 0 0 0 1 1

Total # of neighbors = 9
Ave neighs/atom = 0.0311419
Neighbor list builds = 3201
Dangerous builds = 0
write_dump all custom dump.atom_info_ac_* id type x y z radius vx vy vz density #
run 308641
Setting up run at Thu Dec 29 19:42:14 2022

Memory usage per processor = 964.609 Mbytes
    Step    Atoms         KinEng            CPU 
48765376      289  0.00079721042              0 
49074017      287  0.00079640893      2956.1894 
Loop time of 2956.19 on 40 procs for 308641 steps with 287 atoms, finish time Thu Dec 29 20:31:31 2022


Pair  time (%) = 0.52286 (0.0176869)
Neigh time (%) = 10.9785 (0.371375)
Comm  time (%) = 4.08271 (0.138107)
Outpt time (%) = 0.000451555 (1.52749e-05)
Other time (%) = 2940.61 (99.4728)

Nlocal:    7.175 ave 128 max 0 min
Histogram: 37 1 0 0 0 0 0 0 0 2
Nghost:    0.85 ave 17 max 0 min
Histogram: 36 2 0 0 0 1 0 0 0 1
Neighs:    0.275 ave 6 max 0 min
Histogram: 38 0 0 0 0 0 0 0 1 1

Total # of neighbors = 11
Ave neighs/atom = 0.0383275
Neighbor list builds = 4220
Dangerous builds = 2
write_dump all custom dump.atom_info_ac_* id type x y z radius vx vy vz density #
run 308641
Setting up run at Thu Dec 29 20:31:31 2022

Memory usage per processor = 964.609 Mbytes
    Step    Atoms         KinEng            CPU 
49074017      287  0.00079640893              0 
49382658      287  0.00079954252      2910.6424 
Loop time of 2910.64 on 40 procs for 308641 steps with 287 atoms, finish time Thu Dec 29 21:20:01 2022


Pair  time (%) = 0.522498 (0.0179513)
Neigh time (%) = 8.31124 (0.285547)
Comm  time (%) = 5.01001 (0.172127)
Outpt time (%) = 0.000457078 (1.57037e-05)
Other time (%) = 2896.8 (99.5244)

Nlocal:    7.175 ave 129 max 0 min
Histogram: 37 1 0 0 0 0 0 0 0 2
Nghost:    0.9 ave 17 max 0 min
Histogram: 36 2 0 0 0 0 1 0 0 1
Neighs:    0.25 ave 8 max 0 min
Histogram: 38 0 1 0 0 0 0 0 0 1

Total # of neighbors = 10
Ave neighs/atom = 0.0348432
Neighbor list builds = 3201
Dangerous builds = 0
write_dump all custom dump.atom_info_ac_* id type x y z radius vx vy vz density #
run 308641
Setting up run at Thu Dec 29 21:20:01 2022

Memory usage per processor = 964.609 Mbytes
    Step    Atoms         KinEng            CPU 
49382658      287  0.00079954252              0 
49691299      285   0.0012552017      2953.9917 
Loop time of 2953.99 on 40 procs for 308641 steps with 285 atoms, finish time Thu Dec 29 22:09:15 2022


Pair  time (%) = 0.52421 (0.0177458)
Neigh time (%) = 16.533 (0.559684)
Comm  time (%) = 8.45513 (0.286227)
Outpt time (%) = 0.00592041 (0.000200421)
Other time (%) = 2928.47 (99.1361)

Nlocal:    7.125 ave 127 max 0 min
Histogram: 37 1 0 0 0 0 0 0 0 2
Nghost:    0.8 ave 14 max 0 min
Histogram: 36 2 0 0 0 0 0 1 0 1
Neighs:    0.175 ave 6 max 0 min
Histogram: 38 1 0 0 0 0 0 0 0 1

Total # of neighbors = 7
Ave neighs/atom = 0.0245614
Neighbor list builds = 6344
Dangerous builds = 2
write_dump all custom dump.atom_info_ac_* id type x y z radius vx vy vz density #
run 308641
Setting up run at Thu Dec 29 22:09:15 2022

Memory usage per processor = 964.609 Mbytes
    Step    Atoms         KinEng            CPU 
49691299      285   0.0012552017              0 
49999940      284  0.00079941183      2966.2984 
Loop time of 2966.3 on 40 procs for 308641 steps with 284 atoms, finish time Thu Dec 29 22:58:42 2022


Pair  time (%) = 0.519601 (0.0175168)
Neigh time (%) = 9.59061 (0.323319)
Comm  time (%) = 3.76862 (0.127048)
Outpt time (%) = 0.000483843 (1.63114e-05)
Other time (%) = 2952.42 (99.5321)

Nlocal:    7.1 ave 126 max 0 min
Histogram: 38 0 0 0 0 0 0 0 0 2
Nghost:    0.525 ave 9 max 0 min
Histogram: 35 1 2 0 0 0 0 1 0 1
Neighs:    0.225 ave 6 max 0 min
Histogram: 38 0 0 0 0 1 0 0 0 1

Total # of neighbors = 9
Ave neighs/atom = 0.0316901
Neighbor list builds = 3691
Dangerous builds = 1
write_dump all custom dump.atom_info_ac_* id type x y z radius vx vy vz density #
run 308641
Setting up run at Thu Dec 29 22:58:42 2022

Memory usage per processor = 964.609 Mbytes
    Step    Atoms         KinEng            CPU 
49999940      284  0.00079941183              0 
50308581      282  0.00081523615      2918.3859 
Loop time of 2918.39 on 40 procs for 308641 steps with 282 atoms, finish time Thu Dec 29 23:47:20 2022


Pair  time (%) = 0.51254 (0.0175624)
Neigh time (%) = 8.31273 (0.28484)
Comm  time (%) = 3.86916 (0.132579)
Outpt time (%) = 0.00047961 (1.64341e-05)
Other time (%) = 2905.69 (99.565)

Nlocal:    7.05 ave 127 max 0 min
Histogram: 37 1 0 0 0 0 0 0 0 2
Nghost:    0.675 ave 11 max 0 min
Histogram: 36 1 0 1 0 0 0 0 1 1
Neighs:    0.3 ave 7 max 0 min
Histogram: 38 0 0 0 0 0 0 1 0 1

Total # of neighbors = 12
Ave neighs/atom = 0.0425532
Neighbor list builds = 3204
Dangerous builds = 1
write_dump all custom dump.atom_info_ac_* id type x y z radius vx vy vz density #
run 308641
Setting up run at Thu Dec 29 23:47:20 2022

Memory usage per processor = 964.609 Mbytes
    Step    Atoms         KinEng            CPU 
50308581      282  0.00081523615              0 
50617222      281  0.00079815353      2909.9846 
Loop time of 2910 on 40 procs for 308641 steps with 281 atoms, finish time Fri Dec 30 00:35:50 2022


Pair  time (%) = 0.513932 (0.0176609)
Neigh time (%) = 8.32784 (0.286181)
Comm  time (%) = 3.46076 (0.118927)
Outpt time (%) = 0.0128308 (0.000440921)
Other time (%) = 2897.68 (99.5768)

Nlocal:    7.025 ave 126 max 0 min
Histogram: 37 1 0 0 0 0 0 0 0 2
Nghost:    0.775 ave 14 max 0 min
Histogram: 36 0 2 0 0 1 0 0 0 1
Neighs:    0.275 ave 7 max 0 min
Histogram: 38 0 0 0 0 1 0 0 0 1

Total # of neighbors = 11
Ave neighs/atom = 0.0391459
Neighbor list builds = 3209
Dangerous builds = 1
write_dump all custom dump.atom_info_ac_* id type x y z radius vx vy vz density #
run 308641
Setting up run at Fri Dec 30 00:35:50 2022

Memory usage per processor = 964.609 Mbytes
    Step    Atoms         KinEng            CPU 
50617222      281  0.00079815353              0 
50925863      281  0.00080198211      2912.1794 
Loop time of 2912.18 on 40 procs for 308641 steps with 281 atoms, finish time Fri Dec 30 01:24:23 2022


Pair  time (%) = 0.51247 (0.0175975)
Neigh time (%) = 8.3015 (0.285061)
Comm  time (%) = 3.83087 (0.131546)
Outpt time (%) = 0.000493163 (1.69345e-05)
Other time (%) = 2899.53 (99.5658)

Nlocal:    7.025 ave 126 max 0 min
Histogram: 37 1 0 0 0 0 0 0 0 2
Nghost:    0.725 ave 12 max 0 min
Histogram: 36 0 0 0 3 0 0 0 0 1
Neighs:    0.325 ave 7 max 0 min
Histogram: 38 0 0 0 0 0 0 0 1 1

Total # of neighbors = 13
Ave neighs/atom = 0.0462633
Neighbor list builds = 3199
Dangerous builds = 0
write_dump all custom dump.atom_info_ac_* id type x y z radius vx vy vz density #
run 308641
Setting up run at Fri Dec 30 01:24:23 2022

Memory usage per processor = 964.609 Mbytes
    Step    Atoms         KinEng            CPU 
50925863      281  0.00080198211              0 
51234504      279   0.0007981637      2929.8166 
Loop time of 2929.82 on 40 procs for 308641 steps with 279 atoms, finish time Fri Dec 30 02:13:13 2022


Pair  time (%) = 0.517196 (0.0176528)
Neigh time (%) = 12.7941 (0.436685)
Comm  time (%) = 5.08507 (0.173563)
Outpt time (%) = 0.000524859 (1.79144e-05)
Other time (%) = 2911.42 (99.3721)

Nlocal:    6.975 ave 127 max 0 min
Histogram: 37 1 0 0 0 0 0 0 0 2
Nghost:    0.775 ave 9 max 0 min
Histogram: 32 5 0 0 0 0 0 0 1 2
Neighs:    0.25 ave 5 max 0 min
Histogram: 38 0 0 0 0 0 0 0 0 2

Total # of neighbors = 10
Ave neighs/atom = 0.0358423
Neighbor list builds = 4918
Dangerous builds = 2
write_dump all custom dump.atom_info_ac_* id type x y z radius vx vy vz density #
run 308641
Setting up run at Fri Dec 30 02:13:13 2022

Memory usage per processor = 964.609 Mbytes
    Step    Atoms         KinEng            CPU 
51234504      279   0.0007981637              0 
51543145      278  0.00079337694      2928.0662 
Loop time of 2928.07 on 40 procs for 308641 steps with 278 atoms, finish time Fri Dec 30 03:02:01 2022


Pair  time (%) = 0.518708 (0.017715)
Neigh time (%) = 12.3851 (0.422979)
Comm  time (%) = 4.99314 (0.170527)
Outpt time (%) = 0.000499673 (1.70649e-05)
Other time (%) = 2910.17 (99.3888)

Nlocal:    6.95 ave 125 max 0 min
Histogram: 38 0 0 0 0 0 0 0 0 2
Nghost:    0.7 ave 10 max 0 min
Histogram: 34 2 1 0 0 0 1 0 1 1
Neighs:    0.175 ave 4 max 0 min
Histogram: 38 0 0 0 0 0 0 1 0 1

Total # of neighbors = 7
Ave neighs/atom = 0.0251799
Neighbor list builds = 4758
Dangerous builds = 1
write_dump all custom dump.atom_info_ac_* id type x y z radius vx vy vz density #
run 308641
Setting up run at Fri Dec 30 03:02:01 2022

Memory usage per processor = 964.609 Mbytes
    Step    Atoms         KinEng            CPU 
51543145      278  0.00079337694              0 
51851786      277  0.00079122182       2909.277 
Loop time of 2909.28 on 40 procs for 308641 steps with 277 atoms, finish time Fri Dec 30 03:50:30 2022


Pair  time (%) = 0.513493 (0.0176502)
Neigh time (%) = 8.30413 (0.285436)
Comm  time (%) = 3.67415 (0.126291)
Outpt time (%) = 0.000440247 (1.51325e-05)
Other time (%) = 2896.79 (99.5706)

Nlocal:    6.925 ave 125 max 0 min
Histogram: 37 1 0 0 0 0 0 0 0 2
Nghost:    0.7 ave 10 max 0 min
Histogram: 34 2 1 0 0 0 1 0 1 1
Neighs:    0.15 ave 4 max 0 min
Histogram: 38 0 0 0 0 1 0 0 0 1

Total # of neighbors = 6
Ave neighs/atom = 0.0216606
Neighbor list builds = 3199
Dangerous builds = 1
write_dump all custom dump.atom_info_ac_* id type x y z radius vx vy vz density #
run 308641
Setting up run at Fri Dec 30 03:50:30 2022

Memory usage per processor = 964.609 Mbytes
    Step    Atoms         KinEng            CPU 
51851786      277  0.00079122182              0 
52160427      277  0.00078901916      2904.1432 
Loop time of 2904.14 on 40 procs for 308641 steps with 277 atoms, finish time Fri Dec 30 04:38:54 2022


Pair  time (%) = 0.517412 (0.0178164)
Neigh time (%) = 8.30021 (0.285806)
Comm  time (%) = 3.55079 (0.122266)
Outpt time (%) = 0.00048316 (1.66369e-05)
Other time (%) = 2891.77 (99.5741)

Nlocal:    6.925 ave 125 max 0 min
Histogram: 37 1 0 0 0 0 0 0 0 2
Nghost:    0.6 ave 10 max 0 min
Histogram: 34 3 0 0 1 0 0 1 0 1
Neighs:    0.125 ave 3 max 0 min
Histogram: 38 0 0 0 0 0 1 0 0 1

Total # of neighbors = 5
Ave neighs/atom = 0.0180505
Neighbor list builds = 3198
Dangerous builds = 0
write_dump all custom dump.atom_info_ac_* id type x y z radius vx vy vz density #
run 308641
Setting up run at Fri Dec 30 04:38:54 2022

Memory usage per processor = 964.609 Mbytes
    Step    Atoms         KinEng            CPU 
52160427      277  0.00078901916              0 
WARNING: Forced restart written (../output.cpp:427)
52183223      277  0.00079566526       221.7739 
Loop time of 221.774 on 40 procs for 308641 steps with 277 atoms, finish time Fri Dec 30 04:42:36 2022


Pair  time (%) = 0.0379919 (0.0171309)
Neigh time (%) = 0.618233 (0.278767)
Comm  time (%) = 0.235417 (0.106152)
Outpt time (%) = 0.113068 (0.0509834)
Other time (%) = 220.769 (99.547)

Nlocal:    6.925 ave 125 max 0 min
Histogram: 37 1 0 0 0 0 0 0 0 2
Nghost:    0.6 ave 10 max 0 min
Histogram: 34 3 0 0 1 0 0 1 0 1
Neighs:    0.125 ave 3 max 0 min
Histogram: 38 0 0 0 0 0 1 0 0 1

Total # of neighbors = 5
Ave neighs/atom = 0.0180505
Neighbor list builds = 238
Dangerous builds = 0
