LIGGGHTS (Version LIGGGHTS-PUBLIC 3.8.0, compiled 2022-11-07-16:55:38 by serperd1, git commit 86544c3f1215bc9744d7929e3eacf53ba086af9e)
Created orthogonal box = (-0.15 -0.15 -0.15) to (0.15 0.15 0.15)
  2 by 4 by 5 MPI processor grid

Reading STL file 'cone.stl' (mesh processing step 1/3) 

Reading STL file 'in_cyl.stl' (mesh processing step 1/3) 

Reading STL file 'top_cyl.stl' (mesh processing step 1/3) 

Reading STL file 'bot_cyl.stl' (mesh processing step 1/3) 

Reading STL file 'bottom_disk.stl' (mesh processing step 1/3) 

Reading STL file 'top_disk.stl' (mesh processing step 1/3) 
Fix particledistribution/discrete (id prob_par): distribution based on mass%:
    r_0to10p: d=8.400000e-05 (max. bounding sphere) mass%=10.000000%
    r_10to50p: d=2.328000e-04 (max. bounding sphere) mass%=40.000000%
    r_50to90p: d=8.466000e-04 (max. bounding sphere) mass%=40.000000%
    r_90to100p: d=1.312200e-03 (max. bounding sphere) mass%=10.000000%
Fix particledistribution/discrete (id prob_par): distribution based on number%:
    r_0to10p: d=8.400000e-05 (max. bounding sphere) number%=83.887052%
    r_10to50p: d=2.328000e-04 (max. bounding sphere) number%=15.763181%
    r_50to90p: d=8.466000e-04 (max. bounding sphere) number%=0.327762%
    r_90to100p: d=1.312200e-03 (max. bounding sphere) number%=0.022006%
Setting up run at Fri Dec 23 19:23:12 2022

Import and parallelization of mesh cone_mesh containing 868 triangle(s) successful
Import and parallelization of mesh inlet_cyl_wall_mesh containing 1064 triangle(s) successful
Import and parallelization of mesh top_cyl_wall_mesh containing 682 triangle(s) successful
Import and parallelization of mesh bot_cyl_wall_mesh containing 1280 triangle(s) successful
Import and parallelization of mesh bot_disk_wall_mesh containing 1682 triangle(s) successful
Import and parallelization of mesh top_disk_wall_mesh containing 1144 triangle(s) successful
Memory usage per processor = 960.256 Mbytes
    Step    Atoms         KinEng            CPU 
       0        0              0              0 
Loop time of 7.34471e-05 on 40 procs for 0 steps with 0 atoms, finish time Fri Dec 23 19:23:12 2022


Pair  time (%) = 0 (0)
Neigh time (%) = 0 (0)
Comm  time (%) = 0 (0)
Outpt time (%) = 0 (0)
Other time (%) = 7.34471e-05 (100)

Nlocal:    0 ave 0 max 0 min
Histogram: 40 0 0 0 0 0 0 0 0 0
Nghost:    0 ave 0 max 0 min
Histogram: 40 0 0 0 0 0 0 0 0 0
Neighs:    0 ave 0 max 0 min
Histogram: 40 0 0 0 0 0 0 0 0 0

Total # of neighbors = 0
Neighbor list builds = 0
Dangerous builds = 0
Setting up run at Fri Dec 23 19:23:12 2022

Memory usage per processor = 960.256 Mbytes
    Step    Atoms         KinEng            CPU 
       0        0              0              0 
       1        0              0    0.009761609 
Loop time of 0.00978353 on 40 procs for 1 steps with 0 atoms, finish time Fri Dec 23 19:23:13 2022


Pair  time (%) = 2.64132e-06 (0.0269977)
Neigh time (%) = 0 (0)
Comm  time (%) = 0.000233012 (2.38168)
Outpt time (%) = 8.43649e-05 (0.862316)
Other time (%) = 0.00946351 (96.729)

Nlocal:    0 ave 0 max 0 min
Histogram: 40 0 0 0 0 0 0 0 0 0
Nghost:    0 ave 0 max 0 min
Histogram: 40 0 0 0 0 0 0 0 0 0
Neighs:    0 ave 0 max 0 min
Histogram: 40 0 0 0 0 0 0 0 0 0

Total # of neighbors = 0
Neighbor list builds = 0
Dangerous builds = 0
Scanning dump file ...
Reading snapshot from dump file ...
  orthogonal box = (-0.15 -0.15 -0.15) to (0.15 0.15 0.15)
  0 atoms before read
  4382 atoms in snapshot
  0 atoms purged
  0 atoms replaced
  0 atoms trimmed
  4382 atoms added
  4382 atoms after read
Setting atom values ...
  4382 settings made for type
  4382 settings made for density
  4382 settings made for vy
Setting up run at Fri Dec 23 19:23:13 2022

Memory usage per processor = 964.609 Mbytes
    Step    Atoms         KinEng            CPU 
       1     4382  2.0405663e-07              0 
       2     4382  2.5286639e-06    0.009384839 
Loop time of 0.00940439 on 40 procs for 1 steps with 4382 atoms, finish time Fri Dec 23 19:23:13 2022


Pair  time (%) = 4.14605e-06 (0.0440863)
Neigh time (%) = 0 (0)
Comm  time (%) = 8.51832e-06 (0.0905781)
Outpt time (%) = 0.000271655 (2.88859)
Other time (%) = 0.00912008 (96.9767)

Nlocal:    109.55 ave 1816 max 0 min
Histogram: 36 0 2 0 0 0 0 0 0 2
Nghost:    27.3 ave 345 max 0 min
Histogram: 36 0 0 0 0 1 1 0 0 2
Neighs:    35.525 ave 600 max 0 min
Histogram: 36 0 2 0 0 0 0 0 0 2

Total # of neighbors = 1421
Ave neighs/atom = 0.324281
Neighbor list builds = 0
Dangerous builds = 0
Setting up run at Fri Dec 23 19:23:13 2022

Memory usage per processor = 964.609 Mbytes
    Step    Atoms         KinEng            CPU 
       2     4382  2.5286639e-06              0 
  308643     4382  0.00030849076      3099.1646 
Loop time of 3099.16 on 40 procs for 308641 steps with 4382 atoms, finish time Fri Dec 23 20:14:52 2022


Pair  time (%) = 1.25025 (0.0403416)
Neigh time (%) = 4.22991 (0.136486)
Comm  time (%) = 4.01105 (0.129423)
Outpt time (%) = 0.000754727 (2.43526e-05)
Other time (%) = 3089.67 (99.6937)

Nlocal:    109.55 ave 1780 max 0 min
Histogram: 36 0 2 0 0 0 0 0 0 2
Nghost:    28.15 ave 360 max 0 min
Histogram: 36 0 0 0 0 1 1 0 0 2
Neighs:    39.35 ave 668 max 0 min
Histogram: 36 0 2 0 0 0 0 0 0 2

Total # of neighbors = 1574
Ave neighs/atom = 0.359197
Neighbor list builds = 1630
Dangerous builds = 0
Setting up run at Fri Dec 23 20:14:52 2022

Memory usage per processor = 964.609 Mbytes
    Step    Atoms         KinEng            CPU 
  308643     4382  0.00030849076              0 
  617284     4379  0.00035967355      3108.8376 
Loop time of 3108.84 on 40 procs for 308641 steps with 4379 atoms, finish time Fri Dec 23 21:06:41 2022


Pair  time (%) = 1.28206 (0.0412392)
Neigh time (%) = 4.7879 (0.154009)
Comm  time (%) = 4.65468 (0.149724)
Outpt time (%) = 0.000688385 (2.21428e-05)
Other time (%) = 3098.11 (99.655)

Nlocal:    109.475 ave 1746 max 0 min
Histogram: 36 0 2 0 0 0 0 0 0 2
Nghost:    26.65 ave 328 max 0 min
Histogram: 36 0 0 0 0 0 2 0 0 2
Neighs:    41.1 ave 672 max 0 min
Histogram: 36 0 2 0 0 0 0 0 0 2

Total # of neighbors = 1644
Ave neighs/atom = 0.375428
Neighbor list builds = 1825
Dangerous builds = 1
Setting up run at Fri Dec 23 21:06:41 2022

Memory usage per processor = 964.609 Mbytes
    Step    Atoms         KinEng            CPU 
  617284     4379  0.00035967355              0 
  925925     4372   0.0066757547       3178.341 
Loop time of 3178.34 on 40 procs for 308641 steps with 4372 atoms, finish time Fri Dec 23 21:59:39 2022


Pair  time (%) = 1.28802 (0.0405249)
Neigh time (%) = 20.7749 (0.653638)
Comm  time (%) = 11.6336 (0.366028)
Outpt time (%) = 0.000767356 (2.41433e-05)
Other time (%) = 3144.64 (98.9398)

Nlocal:    109.3 ave 1729 max 0 min
Histogram: 36 0 2 0 0 0 0 0 0 2
Nghost:    24.5 ave 304 max 0 min
Histogram: 36 0 0 0 0 1 1 0 0 2
Neighs:    40.525 ave 658 max 0 min
Histogram: 36 0 2 0 0 0 0 0 0 2

Total # of neighbors = 1621
Ave neighs/atom = 0.370769
Neighbor list builds = 7713
Dangerous builds = 1479
Setting up run at Fri Dec 23 21:59:39 2022

Memory usage per processor = 964.609 Mbytes
    Step    Atoms         KinEng            CPU 
  925925     4372   0.0066757547              0 
 1234566     4365     0.13006497      3363.6872 
Loop time of 3363.69 on 40 procs for 308641 steps with 4365 atoms, finish time Fri Dec 23 22:55:43 2022


Pair  time (%) = 1.3218 (0.0392962)
Neigh time (%) = 59.7086 (1.77509)
Comm  time (%) = 25.5758 (0.76035)
Outpt time (%) = 0.000694433 (2.0645e-05)
Other time (%) = 3277.08 (97.4252)

Nlocal:    109.125 ave 1704 max 0 min
Histogram: 36 0 2 0 0 0 0 0 0 2
Nghost:    23.725 ave 293 max 0 min
Histogram: 36 0 0 0 0 1 1 0 0 2
Neighs:    37.975 ave 632 max 0 min
Histogram: 36 1 1 0 0 0 0 0 0 2

Total # of neighbors = 1519
Ave neighs/atom = 0.347995
Neighbor list builds = 22039
Dangerous builds = 82
Setting up run at Fri Dec 23 22:55:43 2022

Memory usage per processor = 964.609 Mbytes
    Step    Atoms         KinEng            CPU 
 1234566     4365     0.13006497              0 
 1543207     4347     0.13918978      3416.8379 
Loop time of 3416.84 on 40 procs for 308641 steps with 4347 atoms, finish time Fri Dec 23 23:52:40 2022


Pair  time (%) = 1.31787 (0.03857)
Neigh time (%) = 71.0735 (2.08009)
Comm  time (%) = 34.5579 (1.0114)
Outpt time (%) = 0.000410951 (1.20272e-05)
Other time (%) = 3309.89 (96.8699)

Nlocal:    108.675 ave 1663 max 0 min
Histogram: 36 0 2 0 0 0 0 0 0 2
Nghost:    23.15 ave 299 max 0 min
Histogram: 36 0 0 0 0 2 0 0 0 2
Neighs:    38.55 ave 632 max 0 min
Histogram: 36 0 2 0 0 0 0 0 0 2

Total # of neighbors = 1542
Ave neighs/atom = 0.354727
Neighbor list builds = 26185
Dangerous builds = 789
Setting up run at Fri Dec 23 23:52:40 2022

Memory usage per processor = 964.609 Mbytes
    Step    Atoms         KinEng            CPU 
 1543207     4347     0.13918978              0 
 1851848     4328     0.17404704      3466.4449 
Loop time of 3466.45 on 40 procs for 308641 steps with 4328 atoms, finish time Sat Dec 24 00:50:27 2022


Pair  time (%) = 1.33159 (0.0384136)
Neigh time (%) = 82.8936 (2.39132)
Comm  time (%) = 46.9983 (1.35581)
Outpt time (%) = 0.00071224 (2.05467e-05)
Other time (%) = 3335.22 (96.2144)

Nlocal:    108.2 ave 1647 max 0 min
Histogram: 36 0 2 0 0 0 0 0 0 2
Nghost:    22.975 ave 294 max 0 min
Histogram: 36 0 0 0 0 2 0 0 0 2
Neighs:    38.45 ave 626 max 0 min
Histogram: 36 1 1 0 0 0 0 0 0 2

Total # of neighbors = 1538
Ave neighs/atom = 0.35536
Neighbor list builds = 30538
Dangerous builds = 1772
Setting up run at Sat Dec 24 00:50:27 2022

Memory usage per processor = 964.609 Mbytes
    Step    Atoms         KinEng            CPU 
 1851848     4328     0.17404704              0 
 2160489     4298     0.24601762      3666.8338 
Loop time of 3666.83 on 40 procs for 308641 steps with 4298 atoms, finish time Sat Dec 24 01:51:34 2022


Pair  time (%) = 1.35136 (0.0368536)
Neigh time (%) = 124.826 (3.4042)
Comm  time (%) = 77.229 (2.10615)
Outpt time (%) = 0.000771438 (2.10383e-05)
Other time (%) = 3463.43 (94.4528)

Nlocal:    107.45 ave 1644 max 0 min
Histogram: 36 0 2 0 0 0 0 0 0 2
Nghost:    22.15 ave 271 max 0 min
Histogram: 36 0 0 0 0 0 2 0 0 2
Neighs:    36.55 ave 625 max 0 min
Histogram: 36 0 2 0 0 0 0 0 0 2

Total # of neighbors = 1462
Ave neighs/atom = 0.340158
Neighbor list builds = 46005
Dangerous builds = 5352
Setting up run at Sat Dec 24 01:51:34 2022

Memory usage per processor = 964.609 Mbytes
    Step    Atoms         KinEng            CPU 
 2160489     4298     0.24601762              0 
 2469130     4264     0.26837809      3618.5766 
Loop time of 3618.58 on 40 procs for 308641 steps with 4264 atoms, finish time Sat Dec 24 02:51:52 2022


Pair  time (%) = 1.32739 (0.0366826)
Neigh time (%) = 114.076 (3.15251)
Comm  time (%) = 81.616 (2.25547)
Outpt time (%) = 0.00615693 (0.000170148)
Other time (%) = 3421.55 (94.5552)

Nlocal:    106.6 ave 1631 max 0 min
Histogram: 36 0 2 0 0 0 0 0 0 2
Nghost:    22.125 ave 279 max 0 min
Histogram: 36 0 0 0 0 2 0 0 0 2
Neighs:    36.6 ave 621 max 0 min
Histogram: 36 1 1 0 0 0 0 0 0 2

Total # of neighbors = 1464
Ave neighs/atom = 0.34334
Neighbor list builds = 41986
Dangerous builds = 5140
Setting up run at Sat Dec 24 02:51:52 2022

Memory usage per processor = 964.609 Mbytes
    Step    Atoms         KinEng            CPU 
 2469130     4264     0.26837809              0 
 2777771     4230      0.1979893      3496.0145 
Loop time of 3496.01 on 40 procs for 308641 steps with 4230 atoms, finish time Sat Dec 24 03:50:08 2022


Pair  time (%) = 1.29428 (0.0370217)
Neigh time (%) = 87.0299 (2.4894)
Comm  time (%) = 65.3667 (1.86975)
Outpt time (%) = 0.000833238 (2.38339e-05)
Other time (%) = 3342.32 (95.6038)

Nlocal:    105.75 ave 1628 max 0 min
Histogram: 36 0 2 0 0 0 0 0 0 2
Nghost:    21 ave 255 max 0 min
Histogram: 36 0 0 0 0 0 2 0 0 2
Neighs:    36.425 ave 629 max 0 min
Histogram: 36 1 1 0 0 0 0 0 0 2

Total # of neighbors = 1457
Ave neighs/atom = 0.344444
Neighbor list builds = 32015
Dangerous builds = 2728
Setting up run at Sat Dec 24 03:50:08 2022

Memory usage per processor = 964.609 Mbytes
    Step    Atoms         KinEng            CPU 
 2777771     4230      0.1979893              0 
 3086412     4184     0.28080592      3556.4611 
Loop time of 3556.46 on 40 procs for 308641 steps with 4184 atoms, finish time Sat Dec 24 04:49:25 2022


Pair  time (%) = 1.29245 (0.036341)
Neigh time (%) = 99.9735 (2.81104)
Comm  time (%) = 71.0864 (1.9988)
Outpt time (%) = 0.000719461 (2.02297e-05)
Other time (%) = 3384.11 (95.1538)

Nlocal:    104.6 ave 1631 max 0 min
Histogram: 36 0 2 0 0 0 0 0 0 2
Nghost:    21.1 ave 262 max 0 min
Histogram: 36 0 0 0 0 2 0 0 0 2
Neighs:    36.475 ave 644 max 0 min
Histogram: 36 2 0 0 0 0 0 0 0 2

Total # of neighbors = 1459
Ave neighs/atom = 0.348709
Neighbor list builds = 36779
Dangerous builds = 2377
Setting up run at Sat Dec 24 04:49:25 2022

Memory usage per processor = 964.609 Mbytes
    Step    Atoms         KinEng            CPU 
 3086412     4184     0.28080592              0 
 3395053     4143     0.30888158      3653.3907 
Loop time of 3653.39 on 40 procs for 308641 steps with 4143 atoms, finish time Sat Dec 24 05:50:18 2022


Pair  time (%) = 1.30082 (0.0356059)
Neigh time (%) = 121.81 (3.33415)
Comm  time (%) = 95.3511 (2.60993)
Outpt time (%) = 0.000724436 (1.98291e-05)
Other time (%) = 3434.93 (94.0203)

Nlocal:    103.575 ave 1636 max 0 min
Histogram: 36 0 2 0 0 0 0 0 0 2
Nghost:    20.825 ave 251 max 0 min
Histogram: 36 0 0 0 0 1 1 0 0 2
Neighs:    36.225 ave 630 max 0 min
Histogram: 36 2 0 0 0 0 0 0 0 2

Total # of neighbors = 1449
Ave neighs/atom = 0.349747
Neighbor list builds = 44839
Dangerous builds = 2082
Setting up run at Sat Dec 24 05:50:19 2022

Memory usage per processor = 964.609 Mbytes
    Step    Atoms         KinEng            CPU 
 3395053     4143     0.30888158              0 
 3703694     4074     0.38101246        3667.61 
Loop time of 3667.61 on 40 procs for 308641 steps with 4074 atoms, finish time Sat Dec 24 06:51:26 2022


Pair  time (%) = 1.29816 (0.0353953)
Neigh time (%) = 125.463 (3.42085)
Comm  time (%) = 103.512 (2.82234)
Outpt time (%) = 0.00073124 (1.99378e-05)
Other time (%) = 3437.34 (93.7214)

Nlocal:    101.85 ave 1676 max 0 min
Histogram: 36 0 2 0 0 0 0 0 1 1
Nghost:    20.4 ave 258 max 0 min
Histogram: 36 0 0 0 0 2 0 0 0 2
Neighs:    34.575 ave 682 max 0 min
Histogram: 36 2 0 0 0 0 0 1 0 1

Total # of neighbors = 1383
Ave neighs/atom = 0.33947
Neighbor list builds = 46144
Dangerous builds = 4494
Setting up run at Sat Dec 24 06:51:26 2022

Memory usage per processor = 964.609 Mbytes
    Step    Atoms         KinEng            CPU 
 3703694     4074     0.38101246              0 
 4012335     4013     0.38985927      3562.9361 
Loop time of 3562.94 on 40 procs for 308641 steps with 4013 atoms, finish time Sat Dec 24 07:50:49 2022


Pair  time (%) = 1.27131 (0.0356815)
Neigh time (%) = 103.334 (2.90025)
Comm  time (%) = 77.2434 (2.16797)
Outpt time (%) = 0.000697746 (1.95834e-05)
Other time (%) = 3381.09 (94.8961)

Nlocal:    100.325 ave 1640 max 0 min
Histogram: 36 0 2 0 0 0 0 0 1 1
Nghost:    19.525 ave 236 max 0 min
Histogram: 36 0 0 0 0 1 1 0 0 2
Neighs:    33.55 ave 684 max 0 min
Histogram: 36 2 0 0 0 0 1 0 0 1

Total # of neighbors = 1342
Ave neighs/atom = 0.334413
Neighbor list builds = 38005
Dangerous builds = 3339
Setting up run at Sat Dec 24 07:50:49 2022

Memory usage per processor = 964.609 Mbytes
    Step    Atoms         KinEng            CPU 
 4012335     4013     0.38985927              0 
 4320976     3939     0.39792577      3729.0835 
Loop time of 3729.08 on 40 procs for 308641 steps with 3939 atoms, finish time Sat Dec 24 08:52:58 2022


Pair  time (%) = 1.27138 (0.0340937)
Neigh time (%) = 141.132 (3.78462)
Comm  time (%) = 110.433 (2.96141)
Outpt time (%) = 0.006155 (0.000165054)
Other time (%) = 3476.24 (93.2197)

Nlocal:    98.475 ave 1538 max 0 min
Histogram: 36 0 2 0 0 0 0 0 1 1
Nghost:    18.3 ave 230 max 0 min
Histogram: 36 0 0 0 0 1 1 0 1 1
Neighs:    28.6 ave 576 max 0 min
Histogram: 36 1 1 0 0 0 1 0 0 1

Total # of neighbors = 1144
Ave neighs/atom = 0.290429
Neighbor list builds = 51859
Dangerous builds = 6195
Setting up run at Sat Dec 24 08:52:59 2022

Memory usage per processor = 964.609 Mbytes
    Step    Atoms         KinEng            CPU 
 4320976     3939     0.39792577              0 
 4629617     3852     0.54544245      3683.5506 
Loop time of 3683.55 on 40 procs for 308641 steps with 3852 atoms, finish time Sat Dec 24 09:54:22 2022


Pair  time (%) = 1.21844 (0.033078)
Neigh time (%) = 129.307 (3.51039)
Comm  time (%) = 113.295 (3.0757)
Outpt time (%) = 0.00631614 (0.000171469)
Other time (%) = 3439.72 (93.3807)

Nlocal:    96.3 ave 1452 max 0 min
Histogram: 36 0 2 0 0 0 0 0 1 1
Nghost:    18.175 ave 227 max 0 min
Histogram: 36 0 0 0 0 1 1 0 1 1
Neighs:    25.125 ave 493 max 0 min
Histogram: 36 1 1 0 0 0 1 0 0 1

Total # of neighbors = 1005
Ave neighs/atom = 0.260903
Neighbor list builds = 47450
Dangerous builds = 2567
Setting up run at Sat Dec 24 09:54:22 2022

Memory usage per processor = 964.609 Mbytes
    Step    Atoms         KinEng            CPU 
 4629617     3852     0.54544245              0 
 4938258     3766      2.2235439      3592.4038 
Loop time of 3592.4 on 40 procs for 308641 steps with 3766 atoms, finish time Sat Dec 24 10:54:15 2022


Pair  time (%) = 1.17277 (0.0326457)
Neigh time (%) = 113.408 (3.15687)
Comm  time (%) = 115.279 (3.20897)
Outpt time (%) = 0.000618312 (1.72116e-05)
Other time (%) = 3362.54 (93.6015)

Nlocal:    94.15 ave 1363 max 0 min
Histogram: 36 0 1 1 0 0 0 0 1 1
Nghost:    17 ave 214 max 0 min
Histogram: 36 0 0 0 0 1 1 0 1 1
Neighs:    22 ave 416 max 0 min
Histogram: 36 1 1 0 0 0 1 0 0 1

Total # of neighbors = 880
Ave neighs/atom = 0.23367
Neighbor list builds = 41592
Dangerous builds = 2450
Setting up run at Sat Dec 24 10:54:15 2022

Memory usage per processor = 964.609 Mbytes
    Step    Atoms         KinEng            CPU 
 4938258     3766      2.2235439              0 
 5246899     3667     0.54163063      3643.6176 
Loop time of 3643.62 on 40 procs for 308641 steps with 3667 atoms, finish time Sat Dec 24 11:54:58 2022


Pair  time (%) = 1.12024 (0.0307453)
Neigh time (%) = 124.201 (3.40872)
Comm  time (%) = 132.575 (3.63854)
Outpt time (%) = 0.00624915 (0.000171509)
Other time (%) = 3385.72 (92.9218)

Nlocal:    91.675 ave 1297 max 0 min
Histogram: 36 0 1 1 0 0 0 0 1 1
Nghost:    16.775 ave 211 max 0 min
Histogram: 36 0 0 0 0 0 2 0 1 1
Neighs:    16.575 ave 291 max 0 min
Histogram: 36 0 2 0 0 0 1 0 0 1

Total # of neighbors = 663
Ave neighs/atom = 0.180802
Neighbor list builds = 45502
Dangerous builds = 6470
Setting up run at Sat Dec 24 11:54:58 2022

Memory usage per processor = 964.609 Mbytes
    Step    Atoms         KinEng            CPU 
 5246899     3667     0.54163063              0 
 5555540     3547     0.78511299      3817.5068 
Loop time of 3817.51 on 40 procs for 308641 steps with 3547 atoms, finish time Sat Dec 24 12:58:36 2022


Pair  time (%) = 1.08334 (0.0283782)
Neigh time (%) = 166.63 (4.3649)
Comm  time (%) = 174.324 (4.56645)
Outpt time (%) = 0.000622508 (1.63067e-05)
Other time (%) = 3475.47 (91.0403)

Nlocal:    88.675 ave 1186 max 0 min
Histogram: 35 1 1 1 0 0 0 0 1 1
Nghost:    15.175 ave 178 max 0 min
Histogram: 36 0 0 0 0 1 1 0 0 2
Neighs:    11.475 ave 187 max 0 min
Histogram: 36 0 1 0 1 0 1 0 0 1

Total # of neighbors = 459
Ave neighs/atom = 0.129405
Neighbor list builds = 61089
Dangerous builds = 6961
Setting up run at Sat Dec 24 12:58:36 2022

Memory usage per processor = 964.609 Mbytes
    Step    Atoms         KinEng            CPU 
 5555540     3547     0.78511299              0 
 5864181     3405     0.58825829      3788.6109 
Loop time of 3788.61 on 40 procs for 308641 steps with 3405 atoms, finish time Sat Dec 24 14:01:45 2022


Pair  time (%) = 1.03097 (0.0272123)
Neigh time (%) = 160.07 (4.22503)
Comm  time (%) = 178.692 (4.71656)
Outpt time (%) = 0.000629723 (1.66215e-05)
Other time (%) = 3448.82 (91.0312)

Nlocal:    85.125 ave 1107 max 0 min
Histogram: 34 2 0 2 0 0 0 1 0 1
Nghost:    13.475 ave 154 max 0 min
Histogram: 36 0 0 0 0 1 1 0 0 2
Neighs:    9.175 ave 137 max 0 min
Histogram: 36 0 0 1 0 1 1 0 0 1

Total # of neighbors = 367
Ave neighs/atom = 0.107783
Neighbor list builds = 58676
Dangerous builds = 8285
Setting up run at Sat Dec 24 14:01:45 2022

Memory usage per processor = 964.609 Mbytes
    Step    Atoms         KinEng            CPU 
 5864181     3405     0.58825829              0 
 6172822     3263      1.1799252      3821.8576 
Loop time of 3821.86 on 40 procs for 308641 steps with 3263 atoms, finish time Sat Dec 24 15:05:27 2022


Pair  time (%) = 0.989585 (0.0258928)
Neigh time (%) = 168.664 (4.41315)
Comm  time (%) = 197 (5.15455)
Outpt time (%) = 0.000335556 (8.77993e-06)
Other time (%) = 3455.2 (90.4064)

Nlocal:    81.575 ave 998 max 0 min
Histogram: 32 4 0 2 0 0 0 0 1 1
Nghost:    11.6 ave 139 max 0 min
Histogram: 36 0 0 0 0 1 1 1 0 1
Neighs:    5.35 ave 85 max 0 min
Histogram: 36 0 0 1 1 0 0 1 0 1

Total # of neighbors = 214
Ave neighs/atom = 0.0655838
Neighbor list builds = 61722
Dangerous builds = 9030
Setting up run at Sat Dec 24 15:05:27 2022

Memory usage per processor = 964.609 Mbytes
    Step    Atoms         KinEng            CPU 
 6172822     3263      1.1799252              0 
 6481463     3091      1.0193886      3996.4822 
Loop time of 3996.48 on 40 procs for 308641 steps with 3091 atoms, finish time Sat Dec 24 16:12:03 2022


Pair  time (%) = 0.961731 (0.0240644)
Neigh time (%) = 171.256 (4.28516)
Comm  time (%) = 204.029 (5.10522)
Outpt time (%) = 0.000534431 (1.33725e-05)
Other time (%) = 3620.24 (90.5855)

Nlocal:    77.275 ave 859 max 0 min
Histogram: 32 4 0 2 0 0 0 0 0 2
Nghost:    10.975 ave 123 max 0 min
Histogram: 36 0 0 0 0 1 1 0 0 2
Neighs:    4.6 ave 68 max 0 min
Histogram: 36 0 0 2 0 0 0 0 0 2

Total # of neighbors = 184
Ave neighs/atom = 0.0595277
Neighbor list builds = 62525
Dangerous builds = 10694
Setting up run at Sat Dec 24 16:12:15 2022

Memory usage per processor = 964.609 Mbytes
    Step    Atoms         KinEng            CPU 
 6481463     3091      1.0193886              0 
 6790104     2926      1.2131686      4240.6296 
Loop time of 4240.63 on 40 procs for 308641 steps with 2926 atoms, finish time Sat Dec 24 17:22:55 2022


Pair  time (%) = 0.933991 (0.0220248)
Neigh time (%) = 177.234 (4.17943)
Comm  time (%) = 197.369 (4.65424)
Outpt time (%) = 0.000584198 (1.37762e-05)
Other time (%) = 3865.09 (91.1443)

Nlocal:    73.15 ave 797 max 0 min
Histogram: 32 4 0 2 0 0 0 0 0 2
Nghost:    10.1 ave 123 max 0 min
Histogram: 36 0 0 0 2 0 0 0 1 1
Neighs:    3.125 ave 41 max 0 min
Histogram: 35 1 0 1 1 0 0 0 1 1

Total # of neighbors = 125
Ave neighs/atom = 0.0427204
Neighbor list builds = 64673
Dangerous builds = 14866
Setting up run at Sat Dec 24 17:22:55 2022

Memory usage per processor = 964.609 Mbytes
    Step    Atoms         KinEng            CPU 
 6790104     2926      1.2131686              0 
 7098745     2744      1.1075478      3904.8535 
Loop time of 3904.85 on 40 procs for 308641 steps with 2744 atoms, finish time Sat Dec 24 18:28:00 2022


Pair  time (%) = 0.905895 (0.0231992)
Neigh time (%) = 181.241 (4.64144)
Comm  time (%) = 217.848 (5.5789)
Outpt time (%) = 0.000527427 (1.3507e-05)
Other time (%) = 3504.86 (89.7564)

Nlocal:    68.6 ave 744 max 0 min
Histogram: 32 4 0 2 0 0 0 0 0 2
Nghost:    9.55 ave 102 max 0 min
Histogram: 35 1 0 0 0 2 0 0 0 2
Neighs:    3.075 ave 48 max 0 min
Histogram: 35 1 1 1 0 0 0 1 0 1

Total # of neighbors = 123
Ave neighs/atom = 0.0448251
Neighbor list builds = 66132
Dangerous builds = 12366
Setting up run at Sat Dec 24 18:28:00 2022

Memory usage per processor = 964.609 Mbytes
    Step    Atoms         KinEng            CPU 
 7098745     2744      1.1075478              0 
 7407386     2556      1.2075721      4073.7306 
Loop time of 4073.73 on 40 procs for 308641 steps with 2556 atoms, finish time Sat Dec 24 19:35:54 2022


Pair  time (%) = 0.870673 (0.0213729)
Neigh time (%) = 164.699 (4.04295)
Comm  time (%) = 199.162 (4.88894)
Outpt time (%) = 0.000615499 (1.5109e-05)
Other time (%) = 3709 (91.0467)

Nlocal:    63.9 ave 661 max 0 min
Histogram: 32 2 2 1 1 0 0 0 0 2
Nghost:    8.2 ave 88 max 0 min
Histogram: 36 0 0 0 1 0 1 0 0 2
Neighs:    2.375 ave 31 max 0 min
Histogram: 33 2 2 1 0 0 0 0 1 1

Total # of neighbors = 95
Ave neighs/atom = 0.0371674
Neighbor list builds = 60114
Dangerous builds = 6371
Setting up run at Sat Dec 24 19:35:54 2022

Memory usage per processor = 964.609 Mbytes
    Step    Atoms         KinEng            CPU 
 7407386     2556      1.2075721              0 
 7716027     2372      1.0451027      3852.7246 
Loop time of 3852.72 on 40 procs for 308641 steps with 2372 atoms, finish time Sat Dec 24 20:40:07 2022


Pair  time (%) = 0.845024 (0.0219331)
Neigh time (%) = 165.431 (4.29388)
Comm  time (%) = 194.919 (5.05925)
Outpt time (%) = 0.000556025 (1.4432e-05)
Other time (%) = 3491.53 (90.6249)

Nlocal:    59.3 ave 626 max 0 min
Histogram: 32 2 2 2 0 0 0 0 0 2
Nghost:    7.025 ave 97 max 0 min
Histogram: 35 1 1 0 1 0 1 0 0 1
Neighs:    1.875 ave 23 max 0 min
Histogram: 33 2 1 2 0 0 0 0 0 2

Total # of neighbors = 75
Ave neighs/atom = 0.0316189
Neighbor list builds = 60439
Dangerous builds = 5736
Setting up run at Sat Dec 24 20:40:07 2022

Memory usage per processor = 964.609 Mbytes
    Step    Atoms         KinEng            CPU 
 7716027     2372      1.0451027              0 
 8024668     2218      1.4816898      3770.6542 
Loop time of 3770.65 on 40 procs for 308641 steps with 2218 atoms, finish time Sat Dec 24 21:42:58 2022


Pair  time (%) = 0.820491 (0.0217599)
Neigh time (%) = 156.058 (4.13874)
Comm  time (%) = 171.89 (4.55862)
Outpt time (%) = 0.000590934 (1.56719e-05)
Other time (%) = 3441.89 (91.2809)

Nlocal:    55.45 ave 579 max 0 min
Histogram: 32 2 2 2 0 0 0 0 0 2
Nghost:    6.575 ave 76 max 0 min
Histogram: 35 1 0 0 1 1 0 0 0 2
Neighs:    1.525 ave 22 max 0 min
Histogram: 33 4 1 0 0 0 0 0 1 1

Total # of neighbors = 61
Ave neighs/atom = 0.0275023
Neighbor list builds = 56973
Dangerous builds = 8478
Setting up run at Sat Dec 24 21:42:58 2022

Memory usage per processor = 964.609 Mbytes
    Step    Atoms         KinEng            CPU 
 8024668     2218      1.4816898              0 
 8333309     2074      1.4225141      3791.2831 
Loop time of 3791.28 on 40 procs for 308641 steps with 2074 atoms, finish time Sat Dec 24 22:46:09 2022


Pair  time (%) = 0.809517 (0.021352)
Neigh time (%) = 164.083 (4.32789)
Comm  time (%) = 178.879 (4.71815)
Outpt time (%) = 0.000529444 (1.39648e-05)
Other time (%) = 3447.51 (90.9326)

Nlocal:    51.85 ave 554 max 0 min
Histogram: 32 2 3 1 0 0 0 0 0 2
Nghost:    5.825 ave 63 max 0 min
Histogram: 33 3 0 1 0 0 1 0 0 2
Neighs:    1.5 ave 24 max 0 min
Histogram: 33 2 3 0 1 0 0 0 0 1

Total # of neighbors = 60
Ave neighs/atom = 0.0289296
Neighbor list builds = 59984
Dangerous builds = 8483
Setting up run at Sat Dec 24 22:46:09 2022

Memory usage per processor = 964.609 Mbytes
    Step    Atoms         KinEng            CPU 
 8333309     2074      1.4225141              0 
 8641950     1934      1.0600924      3857.9904 
Loop time of 3858 on 40 procs for 308641 steps with 1934 atoms, finish time Sat Dec 24 23:50:27 2022


Pair  time (%) = 0.806247 (0.0208981)
Neigh time (%) = 186.227 (4.82704)
Comm  time (%) = 206.067 (5.34129)
Outpt time (%) = 0.0131712 (0.000341401)
Other time (%) = 3464.89 (89.8104)

Nlocal:    48.35 ave 512 max 0 min
Histogram: 32 3 1 2 0 0 0 0 0 2
Nghost:    5.3 ave 62 max 0 min
Histogram: 33 3 0 0 0 2 1 0 0 1
Neighs:    1.325 ave 20 max 0 min
Histogram: 36 0 1 1 0 0 0 0 0 2

Total # of neighbors = 53
Ave neighs/atom = 0.0274043
Neighbor list builds = 68076
Dangerous builds = 12711
Setting up run at Sat Dec 24 23:50:27 2022

Memory usage per processor = 964.609 Mbytes
    Step    Atoms         KinEng            CPU 
 8641950     1934      1.0600924              0 
 8950591     1801      28.465278      3773.4019 
Loop time of 3773.4 on 40 procs for 308641 steps with 1801 atoms, finish time Sun Dec 25 00:53:21 2022


Pair  time (%) = 0.778075 (0.02062)
Neigh time (%) = 168.852 (4.4748)
Comm  time (%) = 178.999 (4.74371)
Outpt time (%) = 0.00602815 (0.000159754)
Other time (%) = 3424.77 (90.7607)

Nlocal:    45.025 ave 495 max 0 min
Histogram: 32 2 3 1 0 0 0 0 0 2
Nghost:    5.3 ave 58 max 0 min
Histogram: 34 2 0 0 0 1 1 0 0 2
Neighs:    0.775 ave 12 max 0 min
Histogram: 35 1 0 1 1 1 0 0 0 1

Total # of neighbors = 31
Ave neighs/atom = 0.0172127
Neighbor list builds = 61809
Dangerous builds = 11111
Setting up run at Sun Dec 25 00:53:21 2022

Memory usage per processor = 964.609 Mbytes
    Step    Atoms         KinEng            CPU 
 8950591     1801      28.465278              0 
 9259232     1692      1.1529446       3846.444 
Loop time of 3846.45 on 40 procs for 308641 steps with 1692 atoms, finish time Sun Dec 25 01:57:28 2022


Pair  time (%) = 0.748677 (0.0194641)
Neigh time (%) = 149.68 (3.89138)
Comm  time (%) = 156.204 (4.06098)
Outpt time (%) = 0.00250033 (6.50036e-05)
Other time (%) = 3539.81 (92.0281)

Nlocal:    42.3 ave 462 max 0 min
Histogram: 32 2 3 1 0 0 0 0 0 2
Nghost:    5.175 ave 56 max 0 min
Histogram: 34 2 0 0 0 2 0 0 0 2
Neighs:    1.35 ave 16 max 0 min
Histogram: 34 2 0 0 0 2 0 0 1 1

Total # of neighbors = 54
Ave neighs/atom = 0.0319149
Neighbor list builds = 54818
Dangerous builds = 6230
Setting up run at Sun Dec 25 01:57:28 2022

Memory usage per processor = 964.609 Mbytes
    Step    Atoms         KinEng            CPU 
 9259232     1692      1.1529446              0 
 9567873     1593     0.97654243      3692.4105 
Loop time of 3692.41 on 40 procs for 308641 steps with 1593 atoms, finish time Sun Dec 25 02:59:00 2022


Pair  time (%) = 0.737943 (0.0199854)
Neigh time (%) = 151.58 (4.10519)
Comm  time (%) = 155.233 (4.2041)
Outpt time (%) = 0.00568824 (0.000154052)
Other time (%) = 3384.85 (91.6706)

Nlocal:    39.825 ave 434 max 0 min
Histogram: 32 2 3 1 0 0 0 0 0 2
Nghost:    4.775 ave 50 max 0 min
Histogram: 34 2 0 0 0 1 1 0 0 2
Neighs:    0.675 ave 10 max 0 min
Histogram: 34 0 2 1 1 0 1 0 0 1

Total # of neighbors = 27
Ave neighs/atom = 0.0169492
Neighbor list builds = 55534
Dangerous builds = 6597
Setting up run at Sun Dec 25 02:59:00 2022

Memory usage per processor = 964.609 Mbytes
    Step    Atoms         KinEng            CPU 
 9567873     1593     0.97654243              0 
 9876514     1479      0.7829258      3849.1605 
Loop time of 3849.16 on 40 procs for 308641 steps with 1479 atoms, finish time Sun Dec 25 04:03:09 2022


Pair  time (%) = 0.71812 (0.0186565)
Neigh time (%) = 140.489 (3.64987)
Comm  time (%) = 143.914 (3.73884)
Outpt time (%) = 0.00587335 (0.000152588)
Other time (%) = 3564.03 (92.5925)

Nlocal:    36.975 ave 408 max 0 min
Histogram: 32 3 2 1 0 0 0 0 0 2
Nghost:    4.825 ave 56 max 0 min
Histogram: 35 1 0 0 2 0 0 0 0 2
Neighs:    0.6 ave 7 max 0 min
Histogram: 34 2 0 0 1 0 0 0 2 1

Total # of neighbors = 24
Ave neighs/atom = 0.0162272
Neighbor list builds = 51514
Dangerous builds = 4138
Setting up run at Sun Dec 25 04:03:09 2022

Memory usage per processor = 964.609 Mbytes
    Step    Atoms         KinEng            CPU 
 9876514     1479      0.7829258              0 
10185155     1370     0.73323933      3537.6779 
Loop time of 3537.68 on 40 procs for 308641 steps with 1370 atoms, finish time Sun Dec 25 05:02:07 2022


Pair  time (%) = 0.699743 (0.0197797)
Neigh time (%) = 117.693 (3.32683)
Comm  time (%) = 120.811 (3.41498)
Outpt time (%) = 0.000546237 (1.54406e-05)
Other time (%) = 3298.47 (93.2384)

Nlocal:    34.25 ave 403 max 0 min
Histogram: 32 4 2 0 0 0 0 0 0 2
Nghost:    4.325 ave 47 max 0 min
Histogram: 33 3 0 0 0 2 0 1 0 1
Neighs:    0.425 ave 7 max 0 min
Histogram: 34 1 3 0 1 0 0 0 0 1

Total # of neighbors = 17
Ave neighs/atom = 0.0124088
Neighbor list builds = 43177
Dangerous builds = 2823
Setting up run at Sun Dec 25 05:02:07 2022

Memory usage per processor = 964.609 Mbytes
    Step    Atoms         KinEng            CPU 
10185155     1370     0.73323933              0 
10493796     1295     0.98593001      3646.0016 
Loop time of 3646 on 40 procs for 308641 steps with 1295 atoms, finish time Sun Dec 25 06:02:53 2022


Pair  time (%) = 0.709313 (0.0194545)
Neigh time (%) = 141.729 (3.88726)
Comm  time (%) = 135.723 (3.72251)
Outpt time (%) = 0.00571613 (0.000156778)
Other time (%) = 3367.83 (92.3706)

Nlocal:    32.375 ave 378 max 0 min
Histogram: 32 4 2 0 0 0 0 0 0 2
Nghost:    4.225 ave 42 max 0 min
Histogram: 35 1 0 0 0 1 0 1 0 2
Neighs:    0.475 ave 6 max 0 min
Histogram: 34 2 0 1 0 0 1 0 1 1

Total # of neighbors = 19
Ave neighs/atom = 0.0146718
Neighbor list builds = 52010
Dangerous builds = 9606
Setting up run at Sun Dec 25 06:02:53 2022

Memory usage per processor = 964.609 Mbytes
    Step    Atoms         KinEng            CPU 
10493796     1295     0.98593001              0 
10802437     1228      0.8159502      3537.3815 
Loop time of 3537.38 on 40 procs for 308641 steps with 1228 atoms, finish time Sun Dec 25 07:01:51 2022


Pair  time (%) = 0.68741 (0.0194327)
Neigh time (%) = 116.96 (3.30639)
Comm  time (%) = 118.558 (3.35158)
Outpt time (%) = 0.000516626 (1.46047e-05)
Other time (%) = 3301.18 (93.3226)

Nlocal:    30.7 ave 366 max 0 min
Histogram: 32 4 2 0 0 0 0 0 0 2
Nghost:    3.65 ave 40 max 0 min
Histogram: 33 3 0 0 0 2 0 0 1 1
Neighs:    0.575 ave 8 max 0 min
Histogram: 34 2 1 1 0 0 0 0 0 2

Total # of neighbors = 23
Ave neighs/atom = 0.0187296
Neighbor list builds = 42961
Dangerous builds = 3049
Setting up run at Sun Dec 25 07:01:51 2022

Memory usage per processor = 964.609 Mbytes
    Step    Atoms         KinEng            CPU 
10802437     1228      0.8159502              0 
11111078     1166     0.86533505       3525.391 
Loop time of 3525.39 on 40 procs for 308641 steps with 1166 atoms, finish time Sun Dec 25 08:00:36 2022


Pair  time (%) = 0.692781 (0.0196512)
Neigh time (%) = 114.618 (3.2512)
Comm  time (%) = 92.8061 (2.6325)
Outpt time (%) = 0.00058418 (1.65707e-05)
Other time (%) = 3317.27 (94.0966)

Nlocal:    29.15 ave 344 max 0 min
Histogram: 32 4 2 0 0 0 0 0 0 2
Nghost:    3.425 ave 40 max 0 min
Histogram: 35 1 0 0 1 1 0 0 1 1
Neighs:    0.775 ave 14 max 0 min
Histogram: 37 0 0 1 0 0 0 1 0 1

Total # of neighbors = 31
Ave neighs/atom = 0.0265866
Neighbor list builds = 42075
Dangerous builds = 7346
Setting up run at Sun Dec 25 08:00:36 2022

Memory usage per processor = 964.609 Mbytes
    Step    Atoms         KinEng            CPU 
11111078     1166     0.86533505              0 
11419719     1103     0.83018729      3550.2671 
Loop time of 3550.27 on 40 procs for 308641 steps with 1103 atoms, finish time Sun Dec 25 08:59:47 2022


Pair  time (%) = 0.693911 (0.0195453)
Neigh time (%) = 122.219 (3.44253)
Comm  time (%) = 99.5834 (2.80495)
Outpt time (%) = 0.000488038 (1.37465e-05)
Other time (%) = 3327.77 (93.733)

Nlocal:    27.575 ave 335 max 0 min
Histogram: 32 4 2 0 0 0 0 0 0 2
Nghost:    3.525 ave 40 max 0 min
Histogram: 34 2 0 0 0 1 1 0 1 1
Neighs:    0.475 ave 9 max 0 min
Histogram: 35 3 0 0 0 0 0 1 0 1

Total # of neighbors = 19
Ave neighs/atom = 0.0172257
Neighbor list builds = 44923
Dangerous builds = 5717
Setting up run at Sun Dec 25 08:59:47 2022

Memory usage per processor = 964.609 Mbytes
    Step    Atoms         KinEng            CPU 
11419719     1103     0.83018729              0 
11728360     1054     0.75626529       3452.281 
Loop time of 3452.28 on 40 procs for 308641 steps with 1054 atoms, finish time Sun Dec 25 09:57:19 2022


Pair  time (%) = 0.675188 (0.0195577)
Neigh time (%) = 99.4136 (2.87965)
Comm  time (%) = 77.7455 (2.252)
Outpt time (%) = 0.00051364 (1.48783e-05)
Other time (%) = 3274.45 (94.8488)

Nlocal:    26.35 ave 328 max 0 min
Histogram: 32 4 2 0 0 0 0 0 0 2
Nghost:    3.15 ave 38 max 0 min
Histogram: 34 2 0 0 2 0 0 0 0 2
Neighs:    0.4 ave 5 max 0 min
Histogram: 33 0 4 0 0 0 1 0 1 1

Total # of neighbors = 16
Ave neighs/atom = 0.0151803
Neighbor list builds = 36541
Dangerous builds = 2144
Setting up run at Sun Dec 25 09:57:19 2022

Memory usage per processor = 964.609 Mbytes
    Step    Atoms         KinEng            CPU 
11728360     1054     0.75626529              0 
12037001      987     0.79190676      3556.4655 
Loop time of 3556.47 on 40 procs for 308641 steps with 987 atoms, finish time Sun Dec 25 10:56:36 2022


Pair  time (%) = 0.683454 (0.0192172)
Neigh time (%) = 122.404 (3.44172)
Comm  time (%) = 103.444 (2.90861)
Outpt time (%) = 0.000509938 (1.43383e-05)
Other time (%) = 3329.93 (93.6304)

Nlocal:    24.675 ave 310 max 0 min
Histogram: 33 3 2 0 0 0 0 0 0 2
Nghost:    3.45 ave 34 max 0 min
Histogram: 33 2 1 0 0 1 0 1 0 2
Neighs:    0.375 ave 8 max 0 min
Histogram: 37 0 1 0 0 0 1 0 0 1

Total # of neighbors = 15
Ave neighs/atom = 0.0151976
Neighbor list builds = 45035
Dangerous builds = 4549
Setting up run at Sun Dec 25 10:56:36 2022

Memory usage per processor = 964.609 Mbytes
    Step    Atoms         KinEng            CPU 
12037001      987     0.79190676              0 
12345642      944      0.6075432      3453.3758 
Loop time of 3453.38 on 40 procs for 308641 steps with 944 atoms, finish time Sun Dec 25 11:54:09 2022


Pair  time (%) = 0.667553 (0.0193305)
Neigh time (%) = 98.9287 (2.8647)
Comm  time (%) = 68.9282 (1.99597)
Outpt time (%) = 0.000592807 (1.7166e-05)
Other time (%) = 3284.85 (95.12)

Nlocal:    23.6 ave 292 max 0 min
Histogram: 33 3 2 0 0 0 0 0 0 2
Nghost:    3.225 ave 42 max 0 min
Histogram: 36 0 0 0 0 1 2 0 0 1
Neighs:    0.2 ave 4 max 0 min
Histogram: 36 0 2 0 0 1 0 0 0 1

Total # of neighbors = 8
Ave neighs/atom = 0.00847458
Neighbor list builds = 36366
Dangerous builds = 3452
Setting up run at Sun Dec 25 11:54:09 2022

Memory usage per processor = 964.609 Mbytes
    Step    Atoms         KinEng            CPU 
12345642      944      0.6075432              0 
12654283      903     0.55780667      3459.0018 
Loop time of 3459 on 40 procs for 308641 steps with 903 atoms, finish time Sun Dec 25 12:51:48 2022


Pair  time (%) = 0.666181 (0.0192593)
Neigh time (%) = 100.679 (2.91063)
Comm  time (%) = 53.702 (1.55253)
Outpt time (%) = 0.000587392 (1.69815e-05)
Other time (%) = 3303.95 (95.5176)

Nlocal:    22.575 ave 273 max 0 min
Histogram: 32 4 2 0 0 0 0 0 0 2
Nghost:    2.95 ave 36 max 0 min
Histogram: 36 0 0 0 1 1 0 0 1 1
Neighs:    0.325 ave 6 max 0 min
Histogram: 36 2 0 0 0 0 0 0 1 1

Total # of neighbors = 13
Ave neighs/atom = 0.0143965
Neighbor list builds = 37055
Dangerous builds = 668
Setting up run at Sun Dec 25 12:51:48 2022

Memory usage per processor = 964.609 Mbytes
    Step    Atoms         KinEng            CPU 
12654283      903     0.55780667              0 
12962924      858     0.61839204      3535.3207 
Loop time of 3535.32 on 40 procs for 308641 steps with 858 atoms, finish time Sun Dec 25 13:50:44 2022


Pair  time (%) = 0.662895 (0.0187506)
Neigh time (%) = 118.527 (3.35264)
Comm  time (%) = 92.3913 (2.61338)
Outpt time (%) = 0.000261188 (7.38794e-06)
Other time (%) = 3323.74 (94.0152)

Nlocal:    21.45 ave 265 max 0 min
Histogram: 33 3 2 0 0 0 0 0 0 2
Nghost:    2.9 ave 41 max 0 min
Histogram: 36 0 0 1 1 0 0 1 0 1
Neighs:    0.175 ave 3 max 0 min
Histogram: 36 0 0 2 0 0 1 0 0 1

Total # of neighbors = 7
Ave neighs/atom = 0.00815851
Neighbor list builds = 43585
Dangerous builds = 5173
Setting up run at Sun Dec 25 13:50:44 2022

Memory usage per processor = 964.609 Mbytes
    Step    Atoms         KinEng            CPU 
12962924      858     0.61839204              0 
13271565      810     0.68324278       3483.072 
Loop time of 3483.07 on 40 procs for 308641 steps with 810 atoms, finish time Sun Dec 25 14:48:47 2022


Pair  time (%) = 0.650131 (0.0186655)
Neigh time (%) = 94.598 (2.71593)
Comm  time (%) = 68.0065 (1.95248)
Outpt time (%) = 0.000569026 (1.63369e-05)
Other time (%) = 3319.82 (95.3129)

Nlocal:    20.25 ave 248 max 0 min
Histogram: 34 2 2 0 0 0 0 0 0 2
Nghost:    3 ave 31 max 0 min
Histogram: 34 2 0 0 0 1 1 0 0 2
Neighs:    0.3 ave 5 max 0 min
Histogram: 36 0 1 0 0 0 2 0 0 1

Total # of neighbors = 12
Ave neighs/atom = 0.0148148
Neighbor list builds = 34800
Dangerous builds = 4064
Setting up run at Sun Dec 25 14:48:47 2022

Memory usage per processor = 964.609 Mbytes
    Step    Atoms         KinEng            CPU 
13271565      810     0.68324278              0 
13580206      779     0.56467253      3534.4491 
Loop time of 3534.45 on 40 procs for 308641 steps with 779 atoms, finish time Sun Dec 25 15:47:41 2022


Pair  time (%) = 0.652141 (0.018451)
Neigh time (%) = 90.4404 (2.55882)
Comm  time (%) = 53.3001 (1.50802)
Outpt time (%) = 0.000532908 (1.50775e-05)
Other time (%) = 3390.06 (95.9147)

Nlocal:    19.475 ave 240 max 0 min
Histogram: 33 3 2 0 0 0 0 0 0 2
Nghost:    2.675 ave 29 max 0 min
Histogram: 35 1 0 0 1 0 0 1 0 2
Neighs:    0.225 ave 5 max 0 min
Histogram: 36 0 2 0 1 0 0 0 0 1

Total # of neighbors = 9
Ave neighs/atom = 0.0115533
Neighbor list builds = 33289
Dangerous builds = 536
Setting up run at Sun Dec 25 15:47:41 2022

Memory usage per processor = 964.609 Mbytes
    Step    Atoms         KinEng            CPU 
13580206      779     0.56467253              0 
13888847      733     0.46384636      3479.1698 
Loop time of 3479.18 on 40 procs for 308641 steps with 733 atoms, finish time Sun Dec 25 16:45:41 2022


Pair  time (%) = 0.650664 (0.0187016)
Neigh time (%) = 88.802 (2.55238)
Comm  time (%) = 58.5869 (1.68393)
Outpt time (%) = 0.000581066 (1.67012e-05)
Other time (%) = 3331.14 (95.745)

Nlocal:    18.325 ave 237 max 0 min
Histogram: 36 0 2 0 0 0 0 0 0 2
Nghost:    2.425 ave 28 max 0 min
Histogram: 35 1 0 0 1 0 1 0 0 2
Neighs:    0.175 ave 3 max 0 min
Histogram: 36 0 0 2 0 0 1 0 0 1

Total # of neighbors = 7
Ave neighs/atom = 0.0095498
Neighbor list builds = 32731
Dangerous builds = 2640
Setting up run at Sun Dec 25 16:45:41 2022

Memory usage per processor = 964.609 Mbytes
    Step    Atoms         KinEng            CPU 
13888847      733     0.46384636              0 
14197488      710     0.29440346      3652.5872 
Loop time of 3652.59 on 40 procs for 308641 steps with 710 atoms, finish time Sun Dec 25 17:46:33 2022


Pair  time (%) = 0.666984 (0.0182606)
Neigh time (%) = 119.556 (3.27319)
Comm  time (%) = 87.7785 (2.40319)
Outpt time (%) = 0.000516081 (1.41292e-05)
Other time (%) = 3444.59 (94.3053)

Nlocal:    17.75 ave 228 max 0 min
Histogram: 34 2 2 0 0 0 0 0 0 2
Nghost:    2.35 ave 25 max 0 min
Histogram: 34 2 0 0 0 1 0 0 2 1
Neighs:    0.125 ave 3 max 0 min
Histogram: 37 0 0 2 0 0 0 0 0 1

Total # of neighbors = 5
Ave neighs/atom = 0.00704225
Neighbor list builds = 44021
Dangerous builds = 15514
Setting up run at Sun Dec 25 17:46:34 2022

Memory usage per processor = 964.609 Mbytes
    Step    Atoms         KinEng            CPU 
14197488      710     0.29440346              0 
14506129      681     0.46233192      3941.5626 
Loop time of 3941.56 on 40 procs for 308641 steps with 681 atoms, finish time Sun Dec 25 18:52:15 2022


Pair  time (%) = 0.662077 (0.0167973)
Neigh time (%) = 168.657 (4.27895)
Comm  time (%) = 103.265 (2.61989)
Outpt time (%) = 0.000528706 (1.34136e-05)
Other time (%) = 3668.98 (93.0844)

Nlocal:    17.025 ave 214 max 0 min
Histogram: 34 2 2 0 0 0 0 0 0 2
Nghost:    2.15 ave 22 max 0 min
Histogram: 33 2 1 0 0 1 0 0 2 1
Neighs:    0.1 ave 2 max 0 min
Histogram: 37 0 0 0 0 2 0 0 0 1

Total # of neighbors = 4
Ave neighs/atom = 0.00587372
Neighbor list builds = 62164
Dangerous builds = 314
Setting up run at Sun Dec 25 18:52:18 2022

Memory usage per processor = 964.609 Mbytes
    Step    Atoms         KinEng            CPU 
14506129      681     0.46233192              0 
14814770      647     0.48253294      3795.3039 
Loop time of 3795.3 on 40 procs for 308641 steps with 647 atoms, finish time Sun Dec 25 19:55:34 2022


Pair  time (%) = 0.648276 (0.017081)
Neigh time (%) = 147.091 (3.87559)
Comm  time (%) = 93.5789 (2.46565)
Outpt time (%) = 0.000507491 (1.33716e-05)
Other time (%) = 3553.99 (93.6417)

Nlocal:    16.175 ave 206 max 0 min
Histogram: 33 3 2 0 0 0 0 0 0 2
Nghost:    2.075 ave 27 max 0 min
Histogram: 34 1 2 0 0 2 0 0 0 1
Neighs:    0.175 ave 3 max 0 min
Histogram: 37 0 0 1 0 0 0 0 0 2

Total # of neighbors = 7
Ave neighs/atom = 0.0108192
Neighbor list builds = 54139
Dangerous builds = 743
Setting up run at Sun Dec 25 19:55:34 2022

Memory usage per processor = 964.609 Mbytes
    Step    Atoms         KinEng            CPU 
14814770      647     0.48253294              0 
15123411      620     0.46565976      3866.0713 
Loop time of 3866.07 on 40 procs for 308641 steps with 620 atoms, finish time Sun Dec 25 21:00:00 2022


Pair  time (%) = 0.65136 (0.0168481)
Neigh time (%) = 152.524 (3.94519)
Comm  time (%) = 75.0243 (1.94058)
Outpt time (%) = 0.000553756 (1.43235e-05)
Other time (%) = 3637.87 (94.0974)

Nlocal:    15.5 ave 202 max 0 min
Histogram: 35 1 2 0 0 0 0 0 0 2
Nghost:    2.075 ave 26 max 0 min
Histogram: 35 1 0 1 0 0 2 0 0 1
Neighs:    0.075 ave 1 max 0 min
Histogram: 37 0 0 0 0 0 0 0 0 3

Total # of neighbors = 3
Ave neighs/atom = 0.00483871
Neighbor list builds = 56183
Dangerous builds = 186
Setting up run at Sun Dec 25 21:00:00 2022

Memory usage per processor = 964.609 Mbytes
    Step    Atoms         KinEng            CPU 
15123411      620     0.46565976              0 
15432052      593     0.37703851       3700.379 
Loop time of 3700.38 on 40 procs for 308641 steps with 593 atoms, finish time Sun Dec 25 22:01:40 2022


Pair  time (%) = 0.646475 (0.0174705)
Neigh time (%) = 159.003 (4.29695)
Comm  time (%) = 106.674 (2.88277)
Outpt time (%) = 0.00602705 (0.000162876)
Other time (%) = 3434.05 (92.8026)

Nlocal:    14.825 ave 194 max 0 min
Histogram: 33 3 2 0 0 0 0 0 0 2
Nghost:    1.6 ave 19 max 0 min
Histogram: 34 1 1 1 0 0 1 1 0 1
Neighs:    0.1 ave 2 max 0 min
Histogram: 37 0 0 0 0 2 0 0 0 1

Total # of neighbors = 4
Ave neighs/atom = 0.00674536
Neighbor list builds = 58601
Dangerous builds = 3646
Setting up run at Sun Dec 25 22:01:40 2022

Memory usage per processor = 964.609 Mbytes
    Step    Atoms         KinEng            CPU 
15432052      593     0.37703851              0 
15740693      568     0.35439091      3660.6265 
Loop time of 3660.63 on 40 procs for 308641 steps with 568 atoms, finish time Sun Dec 25 23:02:41 2022


Pair  time (%) = 0.648194 (0.0177072)
Neigh time (%) = 150.381 (4.10806)
Comm  time (%) = 83.5588 (2.28264)
Outpt time (%) = 0.000535622 (1.4632e-05)
Other time (%) = 3426.04 (93.5916)

Nlocal:    14.2 ave 192 max 0 min
Histogram: 34 2 2 0 0 0 0 0 0 2
Nghost:    1.6 ave 17 max 0 min
Histogram: 33 3 0 0 0 1 1 0 0 2
Neighs:    0.075 ave 2 max 0 min
Histogram: 38 0 0 0 0 1 0 0 0 1

Total # of neighbors = 3
Ave neighs/atom = 0.00528169
Neighbor list builds = 55426
Dangerous builds = 804
Setting up run at Sun Dec 25 23:02:41 2022

Memory usage per processor = 964.609 Mbytes
    Step    Atoms         KinEng            CPU 
15740693      568     0.35439091              0 
16049334      549     0.61505914      3639.2432 
Loop time of 3639.24 on 40 procs for 308641 steps with 549 atoms, finish time Mon Dec 26 00:03:20 2022


Pair  time (%) = 0.640413 (0.0175974)
Neigh time (%) = 144.242 (3.96353)
Comm  time (%) = 73.5162 (2.0201)
Outpt time (%) = 0.00056255 (1.54579e-05)
Other time (%) = 3420.84 (93.9988)

Nlocal:    13.725 ave 188 max 0 min
Histogram: 35 1 2 0 0 0 0 0 0 2
Nghost:    1.625 ave 16 max 0 min
Histogram: 34 1 0 1 0 0 1 0 0 3
Neighs:    0.05 ave 1 max 0 min
Histogram: 38 0 0 0 0 0 0 0 0 2

Total # of neighbors = 2
Ave neighs/atom = 0.00364299
Neighbor list builds = 53162
Dangerous builds = 799
Setting up run at Mon Dec 26 00:03:20 2022

Memory usage per processor = 964.609 Mbytes
    Step    Atoms         KinEng            CPU 
16049334      549     0.61505914              0 
16357975      532     0.24143204      3643.6835 
Loop time of 3643.68 on 40 procs for 308641 steps with 532 atoms, finish time Mon Dec 26 01:04:04 2022


Pair  time (%) = 0.643237 (0.0176535)
Neigh time (%) = 146.827 (4.02963)
Comm  time (%) = 81.7416 (2.24338)
Outpt time (%) = 0.000651679 (1.78852e-05)
Other time (%) = 3414.47 (93.7093)

Nlocal:    13.3 ave 186 max 0 min
Histogram: 35 1 2 0 0 0 0 0 0 2
Nghost:    2 ave 18 max 0 min
Histogram: 32 3 1 0 0 1 0 0 0 3
Neighs:    0.15 ave 4 max 0 min
Histogram: 38 0 0 0 0 1 0 0 0 1

Total # of neighbors = 6
Ave neighs/atom = 0.0112782
Neighbor list builds = 54159
Dangerous builds = 1290
Setting up run at Mon Dec 26 01:04:04 2022

Memory usage per processor = 964.609 Mbytes
    Step    Atoms         KinEng            CPU 
16357975      532     0.24143204              0 
16666616      515     0.22911557      3561.0983 
Loop time of 3561.1 on 40 procs for 308641 steps with 515 atoms, finish time Mon Dec 26 02:03:25 2022


Pair  time (%) = 0.632292 (0.0177555)
Neigh time (%) = 127.422 (3.57818)
Comm  time (%) = 79.9245 (2.24438)
Outpt time (%) = 0.0006148 (1.72643e-05)
Other time (%) = 3353.12 (94.1597)

Nlocal:    12.875 ave 177 max 0 min
Histogram: 36 2 0 0 0 0 0 0 0 2
Nghost:    1.975 ave 21 max 0 min
Histogram: 35 1 0 0 0 1 0 1 0 2
Neighs:    0.05 ave 2 max 0 min
Histogram: 39 0 0 0 0 0 0 0 0 1

Total # of neighbors = 2
Ave neighs/atom = 0.0038835
Neighbor list builds = 47052
Dangerous builds = 712
Setting up run at Mon Dec 26 02:03:25 2022

Memory usage per processor = 964.609 Mbytes
    Step    Atoms         KinEng            CPU 
16666616      515     0.22911557              0 
16975257      503     0.31410145      3550.7709 
Loop time of 3550.77 on 40 procs for 308641 steps with 503 atoms, finish time Mon Dec 26 03:02:36 2022


Pair  time (%) = 0.627843 (0.0176819)
Neigh time (%) = 125.073 (3.52241)
Comm  time (%) = 68.1735 (1.91996)
Outpt time (%) = 0.000570134 (1.60566e-05)
Other time (%) = 3356.9 (94.5399)

Nlocal:    12.575 ave 173 max 0 min
Histogram: 35 3 0 0 0 0 0 0 0 2
Nghost:    1.875 ave 20 max 0 min
Histogram: 32 3 1 0 1 0 1 0 1 1
Neighs:    0.075 ave 1 max 0 min
Histogram: 37 0 0 0 0 0 0 0 0 3

Total # of neighbors = 3
Ave neighs/atom = 0.00596421
Neighbor list builds = 46175
Dangerous builds = 988
Setting up run at Mon Dec 26 03:02:36 2022

Memory usage per processor = 964.609 Mbytes
    Step    Atoms         KinEng            CPU 
16975257      503     0.31410145              0 
17283898      492      0.1843734      3539.5663 
Loop time of 3539.57 on 40 procs for 308641 steps with 492 atoms, finish time Mon Dec 26 04:01:36 2022


Pair  time (%) = 0.627648 (0.0177323)
Neigh time (%) = 119.729 (3.38258)
Comm  time (%) = 63.7146 (1.80007)
Outpt time (%) = 0.000512756 (1.44864e-05)
Other time (%) = 3355.5 (94.7996)

Nlocal:    12.3 ave 166 max 0 min
Histogram: 34 4 0 0 0 0 0 0 0 2
Nghost:    1.8 ave 22 max 0 min
Histogram: 36 0 0 0 0 2 0 0 1 1
Neighs:    0.125 ave 2 max 0 min
Histogram: 36 0 0 0 0 3 0 0 0 1

Total # of neighbors = 5
Ave neighs/atom = 0.0101626
Neighbor list builds = 44198
Dangerous builds = 9
Setting up run at Mon Dec 26 04:01:36 2022

Memory usage per processor = 964.609 Mbytes
    Step    Atoms         KinEng            CPU 
17283898      492      0.1843734              0 
17592539      475     0.23637357      3571.2008 
Loop time of 3571.2 on 40 procs for 308641 steps with 475 atoms, finish time Mon Dec 26 05:01:07 2022


Pair  time (%) = 0.625084 (0.0175035)
Neigh time (%) = 128.201 (3.58985)
Comm  time (%) = 69.5578 (1.94774)
Outpt time (%) = 0.000243786 (6.82644e-06)
Other time (%) = 3372.82 (94.4449)

Nlocal:    11.875 ave 162 max 0 min
Histogram: 34 2 2 0 0 0 0 0 0 2
Nghost:    1.725 ave 23 max 0 min
Histogram: 36 0 0 1 1 0 0 0 1 1
Neighs:    0.125 ave 2 max 0 min
Histogram: 36 0 0 0 0 3 0 0 0 1

Total # of neighbors = 5
Ave neighs/atom = 0.0105263
Neighbor list builds = 47326
Dangerous builds = 1933
Setting up run at Mon Dec 26 05:01:07 2022

Memory usage per processor = 964.609 Mbytes
    Step    Atoms         KinEng            CPU 
17592539      475     0.23637357              0 
17901180      457     0.20126958      3554.5526 
Loop time of 3554.55 on 40 procs for 308641 steps with 457 atoms, finish time Mon Dec 26 06:00:22 2022


Pair  time (%) = 0.635747 (0.0178854)
Neigh time (%) = 125.708 (3.53654)
Comm  time (%) = 46.8852 (1.31902)
Outpt time (%) = 0.00583457 (0.000164144)
Other time (%) = 3381.32 (95.1264)

Nlocal:    11.425 ave 161 max 0 min
Histogram: 36 1 1 0 0 0 0 0 0 2
Nghost:    1.775 ave 24 max 0 min
Histogram: 35 1 1 0 0 1 1 0 0 1
Neighs:    0.075 ave 2 max 0 min
Histogram: 38 0 0 0 0 1 0 0 0 1

Total # of neighbors = 3
Ave neighs/atom = 0.00656455
Neighbor list builds = 46430
Dangerous builds = 1630
Setting up run at Mon Dec 26 06:00:22 2022

Memory usage per processor = 964.609 Mbytes
    Step    Atoms         KinEng            CPU 
17901180      457     0.20126958              0 
18209821      451     0.17203921      3535.4739 
Loop time of 3535.47 on 40 procs for 308641 steps with 451 atoms, finish time Mon Dec 26 06:59:17 2022


Pair  time (%) = 0.619365 (0.0175186)
Neigh time (%) = 120.226 (3.40057)
Comm  time (%) = 56.1157 (1.58722)
Outpt time (%) = 0.00580984 (0.00016433)
Other time (%) = 3358.51 (94.9945)

Nlocal:    11.275 ave 165 max 0 min
Histogram: 36 2 0 0 0 0 0 0 1 1
Nghost:    1.925 ave 28 max 0 min
Histogram: 35 1 0 1 1 1 0 0 0 1
Neighs:    0.05 ave 2 max 0 min
Histogram: 39 0 0 0 0 0 0 0 0 1

Total # of neighbors = 2
Ave neighs/atom = 0.00443459
Neighbor list builds = 44404
Dangerous builds = 6
Setting up run at Mon Dec 26 06:59:18 2022

Memory usage per processor = 964.609 Mbytes
    Step    Atoms         KinEng            CPU 
18209821      451     0.17203921              0 
18518462      443     0.27989541      3534.5439 
Loop time of 3534.54 on 40 procs for 308641 steps with 443 atoms, finish time Mon Dec 26 07:58:12 2022


Pair  time (%) = 0.625107 (0.0176856)
Neigh time (%) = 121.443 (3.4359)
Comm  time (%) = 50.3488 (1.42448)
Outpt time (%) = 0.000490938 (1.38897e-05)
Other time (%) = 3362.13 (95.1219)

Nlocal:    11.075 ave 165 max 0 min
Histogram: 36 1 1 0 0 0 0 0 1 1
Nghost:    1.8 ave 21 max 0 min
Histogram: 35 1 0 0 2 0 0 0 1 1
Neighs:    0.1 ave 2 max 0 min
Histogram: 38 0 0 0 0 0 0 0 0 2

Total # of neighbors = 4
Ave neighs/atom = 0.00902935
Neighbor list builds = 44886
Dangerous builds = 43
Setting up run at Mon Dec 26 07:58:12 2022

Memory usage per processor = 964.609 Mbytes
    Step    Atoms         KinEng            CPU 
18518462      443     0.27989541              0 
18827103      437     0.22553344       3537.063 
Loop time of 3537.06 on 40 procs for 308641 steps with 437 atoms, finish time Mon Dec 26 08:57:09 2022


Pair  time (%) = 0.620789 (0.017551)
Neigh time (%) = 119.471 (3.3777)
Comm  time (%) = 62.2552 (1.76008)
Outpt time (%) = 0.000552157 (1.56106e-05)
Other time (%) = 3354.72 (94.8447)

Nlocal:    10.925 ave 171 max 0 min
Histogram: 36 2 0 0 0 0 0 1 0 1
Nghost:    1.7 ave 20 max 0 min
Histogram: 32 3 1 0 0 2 0 1 0 1
Neighs:    0.075 ave 2 max 0 min
Histogram: 38 0 0 0 0 1 0 0 0 1

Total # of neighbors = 3
Ave neighs/atom = 0.00686499
Neighbor list builds = 44096
Dangerous builds = 4
Setting up run at Mon Dec 26 08:57:09 2022

Memory usage per processor = 964.609 Mbytes
    Step    Atoms         KinEng            CPU 
18827103      437     0.22553344              0 
19135744      431     0.21170955      3531.6684 
Loop time of 3531.67 on 40 procs for 308641 steps with 431 atoms, finish time Mon Dec 26 09:56:01 2022


Pair  time (%) = 0.626576 (0.0177416)
Neigh time (%) = 120.129 (3.40149)
Comm  time (%) = 46.8377 (1.32622)
Outpt time (%) = 0.000552819 (1.56532e-05)
Other time (%) = 3364.07 (95.2545)

Nlocal:    10.775 ave 169 max 0 min
Histogram: 35 3 0 0 0 0 0 1 0 1
Nghost:    1.55 ave 18 max 0 min
Histogram: 33 3 0 0 1 1 0 0 0 2
Neighs:    0.1 ave 2 max 0 min
Histogram: 37 0 0 0 0 2 0 0 0 1

Total # of neighbors = 4
Ave neighs/atom = 0.00928074
Neighbor list builds = 44364
Dangerous builds = 79
Setting up run at Mon Dec 26 09:56:01 2022

Memory usage per processor = 964.609 Mbytes
    Step    Atoms         KinEng            CPU 
19135744      431     0.21170955              0 
19444385      423     0.23225112      3534.8221 
Loop time of 3534.82 on 40 procs for 308641 steps with 423 atoms, finish time Mon Dec 26 10:54:56 2022


Pair  time (%) = 0.62313 (0.0176283)
Neigh time (%) = 120.027 (3.39557)
Comm  time (%) = 45.1126 (1.27623)
Outpt time (%) = 0.000518466 (1.46674e-05)
Other time (%) = 3369.06 (95.3106)

Nlocal:    10.575 ave 167 max 0 min
Histogram: 36 2 0 0 0 0 0 1 0 1
Nghost:    1.35 ave 16 max 0 min
Histogram: 33 3 0 0 1 1 0 0 0 2
Neighs:    0.05 ave 1 max 0 min
Histogram: 38 0 0 0 0 0 0 0 0 2

Total # of neighbors = 2
Ave neighs/atom = 0.00472813
Neighbor list builds = 44324
Dangerous builds = 269
Setting up run at Mon Dec 26 10:54:56 2022

Memory usage per processor = 964.609 Mbytes
    Step    Atoms         KinEng            CPU 
19444385      423     0.23225112              0 
19753026      416     0.20950414      3565.7111 
Loop time of 3565.71 on 40 procs for 308641 steps with 416 atoms, finish time Mon Dec 26 11:54:22 2022


Pair  time (%) = 0.618247 (0.0173387)
Neigh time (%) = 127.125 (3.56521)
Comm  time (%) = 66.8788 (1.87561)
Outpt time (%) = 0.000524246 (1.47024e-05)
Other time (%) = 3371.09 (94.5418)

Nlocal:    10.4 ave 166 max 0 min
Histogram: 36 2 0 0 0 0 0 1 0 1
Nghost:    1.35 ave 18 max 0 min
Histogram: 33 3 1 0 0 1 0 1 0 1
Neighs:    0 ave 0 max 0 min
Histogram: 40 0 0 0 0 0 0 0 0 0

Total # of neighbors = 0
Ave neighs/atom = 0
Neighbor list builds = 46919
Dangerous builds = 107
Setting up run at Mon Dec 26 11:54:22 2022

Memory usage per processor = 964.609 Mbytes
    Step    Atoms         KinEng            CPU 
19753026      416     0.20950414              0 
20061667      406     0.17463702      3538.9502 
Loop time of 3538.95 on 40 procs for 308641 steps with 406 atoms, finish time Mon Dec 26 12:53:21 2022


Pair  time (%) = 0.613956 (0.0173485)
Neigh time (%) = 121.025 (3.41979)
Comm  time (%) = 56.3047 (1.591)
Outpt time (%) = 0.000502769 (1.42067e-05)
Other time (%) = 3361.01 (94.9718)

Nlocal:    10.15 ave 159 max 0 min
Histogram: 36 2 0 0 0 0 0 1 0 1
Nghost:    1.45 ave 18 max 0 min
Histogram: 33 3 0 2 0 0 0 0 1 1
Neighs:    0.025 ave 1 max 0 min
Histogram: 39 0 0 0 0 0 0 0 0 1

Total # of neighbors = 1
Ave neighs/atom = 0.00246305
Neighbor list builds = 44695
Dangerous builds = 23
Setting up run at Mon Dec 26 12:53:21 2022

Memory usage per processor = 964.609 Mbytes
    Step    Atoms         KinEng            CPU 
20061667      406     0.17463702              0 
20370308      396     0.24702082      3541.7176 
Loop time of 3541.72 on 40 procs for 308641 steps with 396 atoms, finish time Mon Dec 26 13:52:23 2022


Pair  time (%) = 0.620153 (0.0175099)
Neigh time (%) = 122.493 (3.45857)
Comm  time (%) = 56.7514 (1.60237)
Outpt time (%) = 0.00055108 (1.55597e-05)
Other time (%) = 3361.85 (94.9215)

Nlocal:    9.9 ave 155 max 0 min
Histogram: 36 2 0 0 0 0 0 1 0 1
Nghost:    1.325 ave 18 max 0 min
Histogram: 33 3 2 0 0 0 0 0 1 1
Neighs:    0.05 ave 2 max 0 min
Histogram: 39 0 0 0 0 0 0 0 0 1

Total # of neighbors = 2
Ave neighs/atom = 0.00505051
Neighbor list builds = 45200
Dangerous builds = 683
Setting up run at Mon Dec 26 13:52:23 2022

Memory usage per processor = 964.609 Mbytes
    Step    Atoms         KinEng            CPU 
20370308      396     0.24702082              0 
20678949      388     0.19165602      3557.7701 
Loop time of 3557.77 on 40 procs for 308641 steps with 388 atoms, finish time Mon Dec 26 14:51:40 2022


Pair  time (%) = 0.619734 (0.0174192)
Neigh time (%) = 125.678 (3.5325)
Comm  time (%) = 65.3823 (1.83773)
Outpt time (%) = 0.00580755 (0.000163236)
Other time (%) = 3366.08 (94.6122)

Nlocal:    9.7 ave 153 max 0 min
Histogram: 36 2 0 0 0 0 0 1 0 1
Nghost:    1.35 ave 23 max 0 min
Histogram: 36 0 2 0 0 0 1 0 0 1
Neighs:    0.1 ave 3 max 0 min
Histogram: 38 0 0 1 0 0 0 0 0 1

Total # of neighbors = 4
Ave neighs/atom = 0.0103093
Neighbor list builds = 46408
Dangerous builds = 481
Setting up run at Mon Dec 26 14:51:40 2022

Memory usage per processor = 964.609 Mbytes
    Step    Atoms         KinEng            CPU 
20678949      388     0.19165602              0 
20987590      382     0.21688084       3528.693 
Loop time of 3528.7 on 40 procs for 308641 steps with 382 atoms, finish time Mon Dec 26 15:50:29 2022


Pair  time (%) = 0.622947 (0.0176537)
Neigh time (%) = 119.614 (3.38975)
Comm  time (%) = 45.8636 (1.29973)
Outpt time (%) = 0.0224172 (0.000635283)
Other time (%) = 3362.58 (95.2922)

Nlocal:    9.55 ave 149 max 0 min
Histogram: 36 2 0 0 0 0 0 1 0 1
Nghost:    1.2 ave 20 max 0 min
Histogram: 35 1 2 0 0 0 0 1 0 1
Neighs:    0.175 ave 3 max 0 min
Histogram: 37 0 0 1 0 0 0 0 0 2

Total # of neighbors = 7
Ave neighs/atom = 0.0183246
Neighbor list builds = 44165
Dangerous builds = 85
Setting up run at Mon Dec 26 15:50:29 2022

Memory usage per processor = 964.609 Mbytes
    Step    Atoms         KinEng            CPU 
20987590      382     0.21688084              0 
21296231      376     0.28160461       3546.144 
Loop time of 3546.14 on 40 procs for 308641 steps with 376 atoms, finish time Mon Dec 26 16:49:36 2022


Pair  time (%) = 0.624892 (0.0176217)
Neigh time (%) = 122.286 (3.44841)
Comm  time (%) = 43.665 (1.23134)
Outpt time (%) = 0.000525418 (1.48166e-05)
Other time (%) = 3379.57 (95.3026)

Nlocal:    9.4 ave 145 max 0 min
Histogram: 36 1 1 0 0 0 0 0 1 1
Nghost:    1.1 ave 19 max 0 min
Histogram: 35 2 1 0 0 0 0 1 0 1
Neighs:    0.1 ave 3 max 0 min
Histogram: 38 0 0 1 0 0 0 0 0 1

Total # of neighbors = 4
Ave neighs/atom = 0.0106383
Neighbor list builds = 45139
Dangerous builds = 34
Setting up run at Mon Dec 26 16:49:36 2022

Memory usage per processor = 964.609 Mbytes
    Step    Atoms         KinEng            CPU 
21296231      376     0.28160461              0 
21604872      370     0.19479655      3487.2252 
Loop time of 3487.23 on 40 procs for 308641 steps with 370 atoms, finish time Mon Dec 26 17:47:43 2022


Pair  time (%) = 0.618386 (0.0177329)
Neigh time (%) = 109.654 (3.14444)
Comm  time (%) = 49.0703 (1.40714)
Outpt time (%) = 0.00613023 (0.000175791)
Other time (%) = 3327.88 (95.4305)

Nlocal:    9.25 ave 143 max 0 min
Histogram: 36 1 1 0 0 0 0 0 1 1
Nghost:    1.15 ave 18 max 0 min
Histogram: 34 3 1 0 0 0 0 0 1 1
Neighs:    0.125 ave 3 max 0 min
Histogram: 37 0 0 2 0 0 0 0 0 1

Total # of neighbors = 5
Ave neighs/atom = 0.0135135
Neighbor list builds = 40500
Dangerous builds = 4
Setting up run at Mon Dec 26 17:47:43 2022

Memory usage per processor = 964.609 Mbytes
    Step    Atoms         KinEng            CPU 
21604872      370     0.19479655              0 
21913513      362     0.12038653      3385.3857 
Loop time of 3385.39 on 40 procs for 308641 steps with 362 atoms, finish time Mon Dec 26 18:44:08 2022


Pair  time (%) = 0.608132 (0.0179634)
Neigh time (%) = 87.1214 (2.57345)
Comm  time (%) = 41.7541 (1.23336)
Outpt time (%) = 0.00050052 (1.47847e-05)
Other time (%) = 3255.9 (96.1752)

Nlocal:    9.05 ave 137 max 0 min
Histogram: 36 1 1 0 0 0 0 0 1 1
Nghost:    1.25 ave 18 max 0 min
Histogram: 35 2 0 0 1 0 0 0 1 1
Neighs:    0.05 ave 1 max 0 min
Histogram: 38 0 0 0 0 0 0 0 0 2

Total # of neighbors = 2
Ave neighs/atom = 0.00552486
Neighbor list builds = 32222
Dangerous builds = 2
Setting up run at Mon Dec 26 18:44:08 2022

Memory usage per processor = 964.609 Mbytes
    Step    Atoms         KinEng            CPU 
21913513      362     0.12038653              0 
22222154      352     0.10782044      3362.8779 
Loop time of 3362.88 on 40 procs for 308641 steps with 352 atoms, finish time Mon Dec 26 19:40:11 2022


Pair  time (%) = 0.607345 (0.0180603)
Neigh time (%) = 80.5624 (2.39564)
Comm  time (%) = 42.1019 (1.25196)
Outpt time (%) = 0.000498792 (1.48323e-05)
Other time (%) = 3239.61 (96.3343)

Nlocal:    8.8 ave 137 max 0 min
Histogram: 36 1 1 0 0 0 0 0 1 1
Nghost:    1.2 ave 17 max 0 min
Histogram: 35 1 1 0 1 0 0 0 1 1
Neighs:    0.025 ave 1 max 0 min
Histogram: 39 0 0 0 0 0 0 0 0 1

Total # of neighbors = 1
Ave neighs/atom = 0.00284091
Neighbor list builds = 29817
Dangerous builds = 1082
Setting up run at Mon Dec 26 19:40:12 2022

Memory usage per processor = 964.609 Mbytes
    Step    Atoms         KinEng            CPU 
22222154      352     0.10782044              0 
22530795      343     0.10733125      3232.4538 
Loop time of 3232.45 on 40 procs for 308641 steps with 343 atoms, finish time Mon Dec 26 20:34:04 2022


Pair  time (%) = 0.595317 (0.0184169)
Neigh time (%) = 48.6362 (1.50462)
Comm  time (%) = 17.8291 (0.551565)
Outpt time (%) = 0.000620047 (1.91819e-05)
Other time (%) = 3165.39 (97.9254)

Nlocal:    8.575 ave 136 max 0 min
Histogram: 36 2 0 0 0 0 0 0 1 1
Nghost:    1.1 ave 18 max 0 min
Histogram: 35 2 1 0 0 0 0 1 0 1
Neighs:    0.025 ave 1 max 0 min
Histogram: 39 0 0 0 0 0 0 0 0 1

Total # of neighbors = 1
Ave neighs/atom = 0.00291545
Neighbor list builds = 17973
Dangerous builds = 70
Setting up run at Mon Dec 26 20:34:04 2022

Memory usage per processor = 964.609 Mbytes
    Step    Atoms         KinEng            CPU 
22530795      343     0.10733125              0 
22839436      337    0.099843181      3163.6387 
Loop time of 3163.64 on 40 procs for 308641 steps with 337 atoms, finish time Mon Dec 26 21:26:48 2022


Pair  time (%) = 0.587055 (0.0185563)
Neigh time (%) = 33.3974 (1.05566)
Comm  time (%) = 16.3279 (0.51611)
Outpt time (%) = 0.000591882 (1.87089e-05)
Other time (%) = 3113.33 (98.4097)

Nlocal:    8.425 ave 133 max 0 min
Histogram: 36 1 1 0 0 0 0 0 1 1
Nghost:    0.925 ave 16 max 0 min
Histogram: 35 2 0 1 0 0 1 0 0 1
Neighs:    0.05 ave 1 max 0 min
Histogram: 38 0 0 0 0 0 0 0 0 2

Total # of neighbors = 2
Ave neighs/atom = 0.00593472
Neighbor list builds = 12348
Dangerous builds = 117
Setting up run at Mon Dec 26 21:26:48 2022

Memory usage per processor = 964.609 Mbytes
    Step    Atoms         KinEng            CPU 
22839436      337    0.099843181              0 
23148077      329    0.070749614      3188.8587 
Loop time of 3188.86 on 40 procs for 308641 steps with 329 atoms, finish time Mon Dec 26 22:19:57 2022


Pair  time (%) = 0.586217 (0.0183833)
Neigh time (%) = 36.7614 (1.15281)
Comm  time (%) = 18.2094 (0.571032)
Outpt time (%) = 0.00023877 (7.48763e-06)
Other time (%) = 3133.3 (98.2578)

Nlocal:    8.225 ave 127 max 0 min
Histogram: 36 2 0 0 0 0 0 0 0 2
Nghost:    1.175 ave 15 max 0 min
Histogram: 33 3 1 1 0 0 0 0 1 1
Neighs:    0.025 ave 1 max 0 min
Histogram: 39 0 0 0 0 0 0 0 0 1

Total # of neighbors = 1
Ave neighs/atom = 0.00303951
Neighbor list builds = 13579
Dangerous builds = 5
Setting up run at Mon Dec 26 22:19:57 2022

Memory usage per processor = 964.609 Mbytes
    Step    Atoms         KinEng            CPU 
23148077      329    0.070749614              0 
23456718      328     0.06797217      3136.9449 
Loop time of 3136.95 on 40 procs for 308641 steps with 328 atoms, finish time Mon Dec 26 23:12:14 2022


Pair  time (%) = 0.583718 (0.0186078)
Neigh time (%) = 26.4991 (0.844743)
Comm  time (%) = 11.4243 (0.364185)
Outpt time (%) = 0.000756815 (2.41259e-05)
Other time (%) = 3098.44 (98.7724)

Nlocal:    8.2 ave 127 max 0 min
Histogram: 35 2 1 0 0 0 0 0 1 1
Nghost:    0.825 ave 11 max 0 min
Histogram: 36 0 1 0 1 0 0 0 0 2
Neighs:    0.075 ave 2 max 0 min
Histogram: 38 0 0 0 0 1 0 0 0 1

Total # of neighbors = 3
Ave neighs/atom = 0.00914634
Neighbor list builds = 9790
Dangerous builds = 1
Setting up run at Mon Dec 26 23:12:14 2022

Memory usage per processor = 964.609 Mbytes
    Step    Atoms         KinEng            CPU 
23456718      328     0.06797217              0 
23765359      325    0.097397409       3232.532 
Loop time of 3232.53 on 40 procs for 308641 steps with 325 atoms, finish time Tue Dec 27 00:06:06 2022


Pair  time (%) = 0.593848 (0.018371)
Neigh time (%) = 50.5734 (1.56451)
Comm  time (%) = 22.4702 (0.695127)
Outpt time (%) = 0.000542094 (1.67699e-05)
Other time (%) = 3158.89 (97.722)

Nlocal:    8.125 ave 126 max 0 min
Histogram: 36 1 1 0 0 0 0 0 0 2
Nghost:    0.85 ave 15 max 0 min
Histogram: 36 0 1 1 0 1 0 0 0 1
Neighs:    0.025 ave 1 max 0 min
Histogram: 39 0 0 0 0 0 0 0 0 1

Total # of neighbors = 1
Ave neighs/atom = 0.00307692
Neighbor list builds = 18703
Dangerous builds = 1
Setting up run at Tue Dec 27 00:06:06 2022

Memory usage per processor = 964.609 Mbytes
    Step    Atoms         KinEng            CPU 
23765359      325    0.097397409              0 
24074000      323    0.075684333      3207.2164 
Loop time of 3207.22 on 40 procs for 308641 steps with 323 atoms, finish time Tue Dec 27 00:59:34 2022


Pair  time (%) = 0.590691 (0.0184176)
Neigh time (%) = 42.997 (1.34063)
Comm  time (%) = 16.0182 (0.499441)
Outpt time (%) = 0.000654821 (2.04171e-05)
Other time (%) = 3147.61 (98.1415)

Nlocal:    8.075 ave 128 max 0 min
Histogram: 36 2 0 0 0 0 0 0 1 1
Nghost:    0.975 ave 13 max 0 min
Histogram: 35 1 1 0 0 1 0 1 0 1
Neighs:    0 ave 0 max 0 min
Histogram: 40 0 0 0 0 0 0 0 0 0

Total # of neighbors = 0
Ave neighs/atom = 0
Neighbor list builds = 15902
Dangerous builds = 1
Setting up run at Tue Dec 27 00:59:34 2022

Memory usage per processor = 964.609 Mbytes
    Step    Atoms         KinEng            CPU 
24074000      323    0.075684333              0 
24382641      320    0.092915363      3198.6132 
Loop time of 3198.61 on 40 procs for 308641 steps with 320 atoms, finish time Tue Dec 27 01:52:52 2022


Pair  time (%) = 0.592372 (0.0185197)
Neigh time (%) = 41.6684 (1.3027)
Comm  time (%) = 20.6353 (0.645133)
Outpt time (%) = 0.000520298 (1.62664e-05)
Other time (%) = 3135.72 (98.0336)

Nlocal:    8 ave 127 max 0 min
Histogram: 36 1 1 0 0 0 0 0 1 1
Nghost:    0.875 ave 11 max 0 min
Histogram: 35 1 1 0 0 1 0 0 1 1
Neighs:    0.1 ave 2 max 0 min
Histogram: 37 0 0 0 0 2 0 0 0 1

Total # of neighbors = 4
Ave neighs/atom = 0.0125
Neighbor list builds = 15406
Dangerous builds = 1
Setting up run at Tue Dec 27 01:52:52 2022

Memory usage per processor = 964.609 Mbytes
    Step    Atoms         KinEng            CPU 
24382641      320    0.092915363              0 
24691282      317    0.083348767      3153.5803 
Loop time of 3153.58 on 40 procs for 308641 steps with 317 atoms, finish time Tue Dec 27 02:45:26 2022


Pair  time (%) = 0.585231 (0.0185577)
Neigh time (%) = 31.9599 (1.01345)
Comm  time (%) = 11.9344 (0.378439)
Outpt time (%) = 0.000347053 (1.1005e-05)
Other time (%) = 3109.1 (98.5895)

Nlocal:    7.925 ave 126 max 0 min
Histogram: 36 1 1 0 0 0 0 0 1 1
Nghost:    0.825 ave 9 max 0 min
Histogram: 33 3 0 0 0 0 2 0 0 2
Neighs:    0.05 ave 2 max 0 min
Histogram: 39 0 0 0 0 0 0 0 0 1

Total # of neighbors = 2
Ave neighs/atom = 0.00630915
Neighbor list builds = 11827
Dangerous builds = 2
Setting up run at Tue Dec 27 02:45:26 2022

Memory usage per processor = 964.609 Mbytes
    Step    Atoms         KinEng            CPU 
24691282      317    0.083348767              0 
24999923      315     0.10357507      3167.4691 
Loop time of 3167.47 on 40 procs for 308641 steps with 315 atoms, finish time Tue Dec 27 03:38:14 2022


Pair  time (%) = 0.58448 (0.0184526)
Neigh time (%) = 33.128 (1.04588)
Comm  time (%) = 15.0564 (0.475345)
Outpt time (%) = 0.00056006 (1.76816e-05)
Other time (%) = 3118.7 (98.4603)

Nlocal:    7.875 ave 124 max 0 min
Histogram: 36 1 1 0 0 0 0 0 1 1
Nghost:    0.675 ave 7 max 0 min
Histogram: 32 4 0 0 0 0 0 2 1 1
Neighs:    0.025 ave 1 max 0 min
Histogram: 39 0 0 0 0 0 0 0 0 1

Total # of neighbors = 1
Ave neighs/atom = 0.0031746
Neighbor list builds = 12238
Dangerous builds = 1
Setting up run at Tue Dec 27 03:38:14 2022

Memory usage per processor = 964.609 Mbytes
    Step    Atoms         KinEng            CPU 
24999923      315     0.10357507              0 
25308564      313    0.071842034       3159.898 
Loop time of 3159.9 on 40 procs for 308641 steps with 313 atoms, finish time Tue Dec 27 04:30:54 2022


Pair  time (%) = 0.589632 (0.0186598)
Neigh time (%) = 32.4111 (1.0257)
Comm  time (%) = 15.9784 (0.505662)
Outpt time (%) = 0.000543557 (1.72017e-05)
Other time (%) = 3110.92 (98.45)

Nlocal:    7.825 ave 119 max 0 min
Histogram: 36 1 1 0 0 0 0 0 0 2
Nghost:    0.775 ave 8 max 0 min
Histogram: 29 7 0 1 0 0 0 1 1 1
Neighs:    0.05 ave 1 max 0 min
Histogram: 38 0 0 0 0 0 0 0 0 2

Total # of neighbors = 2
Ave neighs/atom = 0.00638978
Neighbor list builds = 11978
Dangerous builds = 5
Setting up run at Tue Dec 27 04:30:54 2022

Memory usage per processor = 964.609 Mbytes
    Step    Atoms         KinEng            CPU 
25308564      313    0.071842034              0 
25617205      308    0.077047934      3183.9833 
Loop time of 3183.98 on 40 procs for 308641 steps with 308 atoms, finish time Tue Dec 27 05:23:58 2022


Pair  time (%) = 0.589242 (0.0185064)
Neigh time (%) = 38.0363 (1.19461)
Comm  time (%) = 14.1616 (0.444776)
Outpt time (%) = 0.000506978 (1.59228e-05)
Other time (%) = 3131.2 (98.3421)

Nlocal:    7.7 ave 118 max 0 min
Histogram: 36 1 1 0 0 0 0 0 0 2
Nghost:    0.85 ave 8 max 0 min
Histogram: 32 1 2 1 0 0 1 1 1 1
Neighs:    0.05 ave 1 max 0 min
Histogram: 38 0 0 0 0 0 0 0 0 2

Total # of neighbors = 2
Ave neighs/atom = 0.00649351
Neighbor list builds = 14054
Dangerous builds = 1601
Setting up run at Tue Dec 27 05:23:58 2022

Memory usage per processor = 964.609 Mbytes
    Step    Atoms         KinEng            CPU 
25617205      308    0.077047934              0 
25925846      303    0.061635461      3158.8853 
Loop time of 3158.89 on 40 procs for 308641 steps with 303 atoms, finish time Tue Dec 27 06:16:37 2022


Pair  time (%) = 0.590534 (0.0186944)
Neigh time (%) = 32.3978 (1.02561)
Comm  time (%) = 10.9118 (0.345433)
Outpt time (%) = 0.000602271 (1.90659e-05)
Other time (%) = 3114.98 (98.6102)

Nlocal:    7.575 ave 119 max 0 min
Histogram: 36 1 1 0 0 0 0 0 1 1
Nghost:    0.775 ave 10 max 0 min
Histogram: 32 3 1 0 2 0 0 0 1 1
Neighs:    0 ave 0 max 0 min
Histogram: 40 0 0 0 0 0 0 0 0 0

Total # of neighbors = 0
Ave neighs/atom = 0
Neighbor list builds = 11985
Dangerous builds = 742
Setting up run at Tue Dec 27 06:16:37 2022

Memory usage per processor = 964.609 Mbytes
    Step    Atoms         KinEng            CPU 
25925846      303    0.061635461              0 
26234487      298    0.047228327      3155.0098 
Loop time of 3155.01 on 40 procs for 308641 steps with 298 atoms, finish time Tue Dec 27 07:09:12 2022


Pair  time (%) = 0.586848 (0.0186005)
Neigh time (%) = 30.2616 (0.959161)
Comm  time (%) = 14.4934 (0.459376)
Outpt time (%) = 0.00590285 (0.000187094)
Other time (%) = 3109.66 (98.5627)

Nlocal:    7.45 ave 122 max 0 min
Histogram: 36 2 0 0 0 0 0 0 1 1
Nghost:    0.75 ave 13 max 0 min
Histogram: 36 0 1 1 0 0 1 0 0 1
Neighs:    0.075 ave 2 max 0 min
Histogram: 38 0 0 0 0 1 0 0 0 1

Total # of neighbors = 3
Ave neighs/atom = 0.0100671
Neighbor list builds = 11180
Dangerous builds = 866
Setting up run at Tue Dec 27 07:09:12 2022

Memory usage per processor = 964.609 Mbytes
    Step    Atoms         KinEng            CPU 
26234487      298    0.047228327              0 
26543128      295     0.12622393      3231.2033 
Loop time of 3231.2 on 40 procs for 308641 steps with 295 atoms, finish time Tue Dec 27 08:03:03 2022


Pair  time (%) = 0.595472 (0.0184288)
Neigh time (%) = 48.7591 (1.50901)
Comm  time (%) = 17.7421 (0.549087)
Outpt time (%) = 0.000297669 (9.21234e-06)
Other time (%) = 3164.11 (97.9235)

Nlocal:    7.375 ave 120 max 0 min
Histogram: 36 1 1 0 0 0 0 0 1 1
Nghost:    0.75 ave 13 max 0 min
Histogram: 36 1 0 1 0 0 1 0 0 1
Neighs:    0 ave 0 max 0 min
Histogram: 40 0 0 0 0 0 0 0 0 0

Total # of neighbors = 0
Ave neighs/atom = 0
Neighbor list builds = 18014
Dangerous builds = 3
Setting up run at Tue Dec 27 08:03:03 2022

Memory usage per processor = 964.609 Mbytes
    Step    Atoms         KinEng            CPU 
26543128      295     0.12622393              0 
26851769      291     0.12467548      3306.4929 
Loop time of 3306.49 on 40 procs for 308641 steps with 291 atoms, finish time Tue Dec 27 08:58:10 2022


Pair  time (%) = 0.596513 (0.0180406)
Neigh time (%) = 62.5155 (1.89069)
Comm  time (%) = 25.175 (0.761382)
Outpt time (%) = 0.000589907 (1.78409e-05)
Other time (%) = 3218.21 (97.3299)

Nlocal:    7.275 ave 112 max 0 min
Histogram: 36 1 1 0 0 0 0 0 0 2
Nghost:    0.925 ave 14 max 0 min
Histogram: 36 0 2 0 0 0 0 1 0 1
Neighs:    0.025 ave 1 max 0 min
Histogram: 39 0 0 0 0 0 0 0 0 1

Total # of neighbors = 1
Ave neighs/atom = 0.00343643
Neighbor list builds = 23106
Dangerous builds = 3
Setting up run at Tue Dec 27 08:58:10 2022

Memory usage per processor = 964.609 Mbytes
    Step    Atoms         KinEng            CPU 
26851769      291     0.12467548              0 
27160410      288    0.097095204      3241.7328 
Loop time of 3241.73 on 40 procs for 308641 steps with 288 atoms, finish time Tue Dec 27 09:52:11 2022


Pair  time (%) = 0.59054 (0.0182168)
Neigh time (%) = 52.3351 (1.61442)
Comm  time (%) = 18.9807 (0.58551)
Outpt time (%) = 0.00233652 (7.20762e-05)
Other time (%) = 3169.82 (97.7818)

Nlocal:    7.2 ave 109 max 0 min
Histogram: 36 1 1 0 0 0 0 0 0 2
Nghost:    0.8 ave 12 max 0 min
Histogram: 36 0 0 2 0 0 1 0 0 1
Neighs:    0.05 ave 1 max 0 min
Histogram: 38 0 0 0 0 0 0 0 0 2

Total # of neighbors = 2
Ave neighs/atom = 0.00694444
Neighbor list builds = 19358
Dangerous builds = 3
Setting up run at Tue Dec 27 09:52:12 2022

Memory usage per processor = 964.609 Mbytes
    Step    Atoms         KinEng            CPU 
27160410      288    0.097095204              0 
27469051      282     0.07178191      3218.2207 
Loop time of 3218.22 on 40 procs for 308641 steps with 282 atoms, finish time Tue Dec 27 10:45:50 2022


Pair  time (%) = 0.590515 (0.0183491)
Neigh time (%) = 46.2236 (1.43631)
Comm  time (%) = 20.0124 (0.621848)
Outpt time (%) = 0.000594181 (1.8463e-05)
Other time (%) = 3151.39 (97.9235)

Nlocal:    7.05 ave 109 max 0 min
Histogram: 36 1 1 0 0 0 0 0 0 2
Nghost:    0.725 ave 11 max 0 min
Histogram: 36 0 1 0 1 0 0 0 1 1
Neighs:    0 ave 0 max 0 min
Histogram: 40 0 0 0 0 0 0 0 0 0

Total # of neighbors = 0
Ave neighs/atom = 0
Neighbor list builds = 17100
Dangerous builds = 2
Setting up run at Tue Dec 27 10:45:50 2022

Memory usage per processor = 964.609 Mbytes
    Step    Atoms         KinEng            CPU 
27469051      282     0.07178191              0 
27777692      276     0.07389627      3171.8459 
Loop time of 3171.85 on 40 procs for 308641 steps with 276 atoms, finish time Tue Dec 27 11:38:42 2022


Pair  time (%) = 0.583352 (0.0183916)
Neigh time (%) = 36.2028 (1.14138)
Comm  time (%) = 11.4981 (0.362505)
Outpt time (%) = 0.000514287 (1.62141e-05)
Other time (%) = 3123.56 (98.4777)

Nlocal:    6.9 ave 107 max 0 min
Histogram: 36 1 1 0 0 0 0 0 0 2
Nghost:    0.825 ave 13 max 0 min
Histogram: 35 1 0 2 0 0 1 0 0 1
Neighs:    0.025 ave 1 max 0 min
Histogram: 39 0 0 0 0 0 0 0 0 1

Total # of neighbors = 1
Ave neighs/atom = 0.00362319
Neighbor list builds = 13423
Dangerous builds = 3
Setting up run at Tue Dec 27 11:38:42 2022

Memory usage per processor = 964.609 Mbytes
    Step    Atoms         KinEng            CPU 
27777692      276     0.07389627              0 
28086333      272    0.051113567      3246.8694 
Loop time of 3246.87 on 40 procs for 308641 steps with 272 atoms, finish time Tue Dec 27 12:32:49 2022


Pair  time (%) = 0.584864 (0.0180132)
Neigh time (%) = 42.168 (1.29873)
Comm  time (%) = 14.4226 (0.444201)
Outpt time (%) = 0.000587559 (1.80962e-05)
Other time (%) = 3189.69 (98.239)

Nlocal:    6.8 ave 106 max 0 min
Histogram: 36 2 0 0 0 0 0 0 0 2
Nghost:    0.9 ave 13 max 0 min
Histogram: 36 0 1 0 0 1 0 0 1 1
Neighs:    0 ave 0 max 0 min
Histogram: 40 0 0 0 0 0 0 0 0 0

Total # of neighbors = 0
Ave neighs/atom = 0
[...]
Loop time of 3103.22 on 40 procs for 308641 steps with 199 atoms, finish time Wed Dec 28 19:02:12 2022


Pair  time (%) = 0.551473 (0.017771)
Neigh time (%) = 21.8946 (0.705545)
Comm  time (%) = 8.24961 (0.26584)
Outpt time (%) = 0.000534829 (1.72346e-05)
Other time (%) = 3072.53 (99.0108)

Nlocal:    4.975 ave 83 max 0 min
Histogram: 36 1 1 0 0 0 0 0 1 1
Nghost:    0.575 ave 9 max 0 min
Histogram: 35 0 2 0 1 0 1 0 0 1
Neighs:    0 ave 0 max 0 min
Histogram: 40 0 0 0 0 0 0 0 0 0

Total # of neighbors = 0
Ave neighs/atom = 0
Neighbor list builds = 8113
Dangerous builds = 6
Setting up run at Wed Dec 28 19:02:12 2022

Memory usage per processor = 964.609 Mbytes
    Step    Atoms         KinEng            CPU 
38888864      199    0.097630807              0 
39197505      198    0.018185315      3136.1212 
Loop time of 3136.12 on 40 procs for 308641 steps with 198 atoms, finish time Wed Dec 28 19:54:29 2022


Pair  time (%) = 0.557358 (0.0177722)
Neigh time (%) = 20.8621 (0.665221)
Comm  time (%) = 6.76497 (0.215711)
Outpt time (%) = 0.000275347 (8.77985e-06)
Other time (%) = 3107.94 (99.1013)

Nlocal:    4.95 ave 82 max 0 min
Histogram: 37 0 1 0 0 0 0 0 0 2
Nghost:    0.45 ave 6 max 0 min
Histogram: 32 5 0 0 0 1 1 0 0 1
Neighs:    0.05 ave 2 max 0 min
Histogram: 39 0 0 0 0 0 0 0 0 1

Total # of neighbors = 2
Ave neighs/atom = 0.010101
Neighbor list builds = 7742
Dangerous builds = 1
Setting up run at Wed Dec 28 19:54:29 2022

Memory usage per processor = 964.609 Mbytes
    Step    Atoms         KinEng            CPU 
39197505      198    0.018185315              0 
39506146      197    0.023047746      3105.1175 
Loop time of 3105.12 on 40 procs for 308641 steps with 197 atoms, finish time Wed Dec 28 20:46:14 2022


Pair  time (%) = 0.557575 (0.0179566)
Neigh time (%) = 20.0617 (0.646086)
Comm  time (%) = 8.06391 (0.259697)
Outpt time (%) = 0.000543565 (1.75054e-05)
Other time (%) = 3076.43 (99.0762)

Nlocal:    4.925 ave 79 max 0 min
Histogram: 36 2 0 0 0 0 0 0 0 2
Nghost:    0.375 ave 9 max 0 min
Histogram: 36 2 0 0 1 0 0 0 0 1
Neighs:    0.075 ave 2 max 0 min
Histogram: 38 0 0 0 0 1 0 0 0 1

Total # of neighbors = 3
Ave neighs/atom = 0.0152284
Neighbor list builds = 7442
Dangerous builds = 1
Setting up run at Wed Dec 28 20:46:14 2022

Memory usage per processor = 964.609 Mbytes
    Step    Atoms         KinEng            CPU 
39506146      197    0.023047746              0 
39814787      197    0.023518358      3120.2433 
Loop time of 3120.24 on 40 procs for 308641 steps with 197 atoms, finish time Wed Dec 28 21:38:14 2022


Pair  time (%) = 0.555392 (0.0177996)
Neigh time (%) = 19.5527 (0.626641)
Comm  time (%) = 7.15638 (0.229353)
Outpt time (%) = 0.000551715 (1.76818e-05)
Other time (%) = 3092.98 (99.1262)

Nlocal:    4.925 ave 81 max 0 min
Histogram: 36 1 1 0 0 0 0 0 0 2
Nghost:    0.5 ave 12 max 0 min
Histogram: 37 1 1 0 0 0 0 0 0 1
Neighs:    0 ave 0 max 0 min
Histogram: 40 0 0 0 0 0 0 0 0 0

Total # of neighbors = 0
Ave neighs/atom = 0
Neighbor list builds = 7248
Dangerous builds = 0
Setting up run at Wed Dec 28 21:38:14 2022

Memory usage per processor = 964.609 Mbytes
    Step    Atoms         KinEng            CPU 
39814787      197    0.023518358              0 
40123428      196    0.010572378      3101.4459 
Loop time of 3101.45 on 40 procs for 308641 steps with 196 atoms, finish time Wed Dec 28 22:29:56 2022


Pair  time (%) = 0.556744 (0.0179511)
Neigh time (%) = 20.7138 (0.667875)
Comm  time (%) = 8.5998 (0.277284)
Outpt time (%) = 0.000605731 (1.95306e-05)
Other time (%) = 3071.58 (99.0369)

Nlocal:    4.9 ave 81 max 0 min
Histogram: 37 0 1 0 0 0 0 0 0 2
Nghost:    0.475 ave 9 max 0 min
Histogram: 32 5 1 1 0 0 0 0 0 1
Neighs:    0 ave 0 max 0 min
Histogram: 40 0 0 0 0 0 0 0 0 0

Total # of neighbors = 0
Ave neighs/atom = 0
Neighbor list builds = 7684
Dangerous builds = 0
Setting up run at Wed Dec 28 22:29:56 2022

Memory usage per processor = 964.609 Mbytes
    Step    Atoms         KinEng            CPU 
40123428      196    0.010572378              0 
40432069      194    0.009266244      3089.0203 
Loop time of 3089.02 on 40 procs for 308641 steps with 194 atoms, finish time Wed Dec 28 23:21:25 2022


Pair  time (%) = 0.554077 (0.017937)
Neigh time (%) = 16.7665 (0.542776)
Comm  time (%) = 8.4199 (0.272575)
Outpt time (%) = 0.0112326 (0.00036363)
Other time (%) = 3063.27 (99.1663)

Nlocal:    4.85 ave 83 max 0 min
Histogram: 36 2 0 0 0 0 0 0 1 1
Nghost:    0.5 ave 12 max 0 min
Histogram: 37 0 2 0 0 0 0 0 0 1
Neighs:    0.025 ave 1 max 0 min
Histogram: 39 0 0 0 0 0 0 0 0 1

Total # of neighbors = 1
Ave neighs/atom = 0.00515464
Neighbor list builds = 6226
Dangerous builds = 24
Setting up run at Wed Dec 28 23:21:25 2022

Memory usage per processor = 964.609 Mbytes
    Step    Atoms         KinEng            CPU 
40432069      194    0.009266244              0 
40740710      194   0.0093717783      3079.8945 
Loop time of 3079.89 on 40 procs for 308641 steps with 194 atoms, finish time Thu Dec 29 00:12:45 2022


Pair  time (%) = 0.552331 (0.0179334)
Neigh time (%) = 15.3991 (0.499989)
Comm  time (%) = 6.95214 (0.225726)
Outpt time (%) = 0.000260186 (8.4479e-06)
Other time (%) = 3056.99 (99.2563)

Nlocal:    4.85 ave 83 max 0 min
Histogram: 36 2 0 0 0 0 0 0 1 1
Nghost:    0.5 ave 9 max 0 min
Histogram: 34 1 2 2 0 0 0 0 0 1
Neighs:    0 ave 0 max 0 min
Histogram: 40 0 0 0 0 0 0 0 0 0

Total # of neighbors = 0
Ave neighs/atom = 0
Neighbor list builds = 5715
Dangerous builds = 0
Setting up run at Thu Dec 29 00:12:45 2022

Memory usage per processor = 964.609 Mbytes
    Step    Atoms         KinEng            CPU 
40740710      194   0.0093717783              0 
41049351      194   0.0093027265      3077.3619 
Loop time of 3077.36 on 40 procs for 308641 steps with 194 atoms, finish time Thu Dec 29 01:04:02 2022


Pair  time (%) = 0.55113 (0.0179092)
Neigh time (%) = 15.384 (0.49991)
Comm  time (%) = 7.72845 (0.251139)
Outpt time (%) = 0.00056692 (1.84223e-05)
Other time (%) = 3053.7 (99.231)

Nlocal:    4.85 ave 84 max 0 min
Histogram: 37 0 1 0 0 0 0 0 1 1
Nghost:    0.55 ave 12 max 0 min
Histogram: 36 1 2 0 0 0 0 0 0 1
Neighs:    0 ave 0 max 0 min
Histogram: 40 0 0 0 0 0 0 0 0 0

Total # of neighbors = 0
Ave neighs/atom = 0
Neighbor list builds = 5715
Dangerous builds = 0
Setting up run at Thu Dec 29 01:04:03 2022

Memory usage per processor = 964.609 Mbytes
    Step    Atoms         KinEng            CPU 
41049351      194   0.0093027265              0 
41357992      193   0.0094469721       3068.311 
Loop time of 3068.31 on 40 procs for 308641 steps with 193 atoms, finish time Thu Dec 29 01:55:11 2022


Pair  time (%) = 0.546496 (0.017811)
Neigh time (%) = 15.4066 (0.502121)
Comm  time (%) = 8.53529 (0.278176)
Outpt time (%) = 0.000559312 (1.82287e-05)
Other time (%) = 3043.82 (99.2019)

Nlocal:    4.825 ave 82 max 0 min
Histogram: 36 1 1 0 0 0 0 0 1 1
Nghost:    0.575 ave 10 max 0 min
Histogram: 33 3 2 0 0 0 1 0 0 1
Neighs:    0 ave 0 max 0 min
Histogram: 40 0 0 0 0 0 0 0 0 0

Total # of neighbors = 0
Ave neighs/atom = 0
Neighbor list builds = 5726
Dangerous builds = 0
Setting up run at Thu Dec 29 01:55:11 2022

Memory usage per processor = 964.609 Mbytes
    Step    Atoms         KinEng            CPU 
41357992      193   0.0094469721              0 
41666633      191    0.009276257      3087.9665 
Loop time of 3087.97 on 40 procs for 308641 steps with 191 atoms, finish time Thu Dec 29 02:46:39 2022


Pair  time (%) = 0.548096 (0.0177494)
Neigh time (%) = 17.1762 (0.556231)
Comm  time (%) = 7.70415 (0.249489)
Outpt time (%) = 0.000555262 (1.79815e-05)
Other time (%) = 3062.54 (99.1765)

Nlocal:    4.775 ave 78 max 0 min
Histogram: 36 2 0 0 0 0 0 0 0 2
Nghost:    0.575 ave 8 max 0 min
Histogram: 34 1 2 1 0 0 0 0 1 1
Neighs:    0.05 ave 1 max 0 min
Histogram: 38 0 0 0 0 0 0 0 0 2

Total # of neighbors = 2
Ave neighs/atom = 0.0104712
Neighbor list builds = 6375
Dangerous builds = 0
Setting up run at Thu Dec 29 02:46:39 2022

Memory usage per processor = 964.609 Mbytes
    Step    Atoms         KinEng            CPU 
41666633      191    0.009276257              0 
41975274      190   0.0093833154      3078.1062 
Loop time of 3078.11 on 40 procs for 308641 steps with 190 atoms, finish time Thu Dec 29 03:37:57 2022


Pair  time (%) = 0.546692 (0.0177607)
Neigh time (%) = 17.2464 (0.560292)
Comm  time (%) = 8.72665 (0.283507)
Outpt time (%) = 0.000575443 (1.86947e-05)
Other time (%) = 3051.59 (99.1384)

Nlocal:    4.75 ave 79 max 0 min
Histogram: 36 1 1 0 0 0 0 0 0 2
Nghost:    0.475 ave 11 max 0 min
Histogram: 37 1 0 0 1 0 0 0 0 1
Neighs:    0.025 ave 1 max 0 min
Histogram: 39 0 0 0 0 0 0 0 0 1

Total # of neighbors = 1
Ave neighs/atom = 0.00526316
Neighbor list builds = 6407
Dangerous builds = 1
Setting up run at Thu Dec 29 03:37:57 2022

Memory usage per processor = 964.609 Mbytes
    Step    Atoms         KinEng            CPU 
41975274      190   0.0093833154              0 
42283915      190   0.0092593381      3076.9404 
Loop time of 3076.94 on 40 procs for 308641 steps with 190 atoms, finish time Thu Dec 29 04:29:14 2022


Pair  time (%) = 0.551745 (0.0179316)
Neigh time (%) = 15.3778 (0.499774)
Comm  time (%) = 7.27133 (0.236317)
Outpt time (%) = 0.000288234 (9.36754e-06)
Other time (%) = 3053.74 (99.246)

Nlocal:    4.75 ave 78 max 0 min
Histogram: 36 1 1 0 0 0 0 0 0 2
Nghost:    0.55 ave 8 max 0 min
Histogram: 32 3 3 0 0 0 1 0 0 1
Neighs:    0.05 ave 2 max 0 min
Histogram: 39 0 0 0 0 0 0 0 0 1

Total # of neighbors = 2
Ave neighs/atom = 0.0105263
Neighbor list builds = 5715
Dangerous builds = 0
Setting up run at Thu Dec 29 04:29:14 2022

Memory usage per processor = 964.609 Mbytes
    Step    Atoms         KinEng            CPU 
42283915      190   0.0092593381              0 
42592556      190   0.0093653228      3085.1811 
Loop time of 3085.18 on 40 procs for 308641 steps with 190 atoms, finish time Thu Dec 29 05:20:39 2022


Pair  time (%) = 0.549102 (0.0177981)
Neigh time (%) = 15.3993 (0.499137)
Comm  time (%) = 7.58504 (0.245854)
Outpt time (%) = 0.000535445 (1.73554e-05)
Other time (%) = 3061.65 (99.2372)

Nlocal:    4.75 ave 76 max 0 min
Histogram: 36 2 0 0 0 0 0 0 0 2
Nghost:    0.6 ave 7 max 0 min
Histogram: 33 2 2 0 0 1 0 0 0 2
Neighs:    0 ave 0 max 0 min
Histogram: 40 0 0 0 0 0 0 0 0 0

Total # of neighbors = 0
Ave neighs/atom = 0
Neighbor list builds = 5715
Dangerous builds = 0
Setting up run at Thu Dec 29 05:20:40 2022

Memory usage per processor = 964.609 Mbytes
    Step    Atoms         KinEng            CPU 
42592556      190   0.0093653228              0 
42901197      190    0.010349835      3104.1341 
Loop time of 3104.13 on 40 procs for 308641 steps with 190 atoms, finish time Thu Dec 29 06:12:24 2022


Pair  time (%) = 0.554519 (0.0178639)
Neigh time (%) = 18.2924 (0.589292)
Comm  time (%) = 8.39697 (0.270509)
Outpt time (%) = 0.000546043 (1.75908e-05)
Other time (%) = 3076.89 (99.1223)

Nlocal:    4.75 ave 77 max 0 min
Histogram: 36 1 1 0 0 0 0 0 0 2
Nghost:    0.475 ave 7 max 0 min
Histogram: 34 3 0 0 1 0 0 0 1 1
Neighs:    0 ave 0 max 0 min
Histogram: 40 0 0 0 0 0 0 0 0 0

Total # of neighbors = 0
Ave neighs/atom = 0
Neighbor list builds = 6774
Dangerous builds = 0
Setting up run at Thu Dec 29 06:12:24 2022

Memory usage per processor = 964.609 Mbytes
    Step    Atoms         KinEng            CPU 
42901197      190    0.010349835              0 
43209838      188    0.035838599      3207.3402 
Loop time of 3207.34 on 40 procs for 308641 steps with 188 atoms, finish time Thu Dec 29 07:05:51 2022


Pair  time (%) = 0.566012 (0.0176474)
Neigh time (%) = 44.8863 (1.39949)
Comm  time (%) = 13.5781 (0.423344)
Outpt time (%) = 0.000564071 (1.75869e-05)
Other time (%) = 3148.31 (98.1595)

Nlocal:    4.7 ave 79 max 0 min
Histogram: 36 1 1 0 0 0 0 0 1 1
Nghost:    0.525 ave 10 max 0 min
Histogram: 32 5 0 2 0 0 0 0 0 1
Neighs:    0.025 ave 1 max 0 min
Histogram: 39 0 0 0 0 0 0 0 0 1

Total # of neighbors = 1
Ave neighs/atom = 0.00531915
Neighbor list builds = 16610
Dangerous builds = 1
Setting up run at Thu Dec 29 07:05:51 2022

Memory usage per processor = 964.609 Mbytes
    Step    Atoms         KinEng            CPU 
43209838      188    0.035838599              0 
43518479      186    0.035580951      3233.3914 
Loop time of 3233.39 on 40 procs for 308641 steps with 186 atoms, finish time Thu Dec 29 07:59:45 2022


Pair  time (%) = 0.567998 (0.0175666)
Neigh time (%) = 49.6438 (1.53535)
Comm  time (%) = 18.7311 (0.579301)
Outpt time (%) = 0.000586602 (1.8142e-05)
Other time (%) = 3164.45 (97.8678)

Nlocal:    4.65 ave 79 max 0 min
Histogram: 36 2 0 0 0 0 0 0 1 1
Nghost:    0.45 ave 9 max 0 min
Histogram: 34 3 1 0 1 0 0 0 0 1
Neighs:    0.025 ave 1 max 0 min
Histogram: 39 0 0 0 0 0 0 0 0 1

Total # of neighbors = 1
Ave neighs/atom = 0.00537634
Neighbor list builds = 18373
Dangerous builds = 2
Setting up run at Thu Dec 29 07:59:45 2022

Memory usage per processor = 964.609 Mbytes
    Step    Atoms         KinEng            CPU 
43518479      186    0.035580951              0 
43827120      186    0.033324962      3236.8932 
Loop time of 3236.91 on 40 procs for 308641 steps with 186 atoms, finish time Thu Dec 29 08:53:42 2022


Pair  time (%) = 0.568554 (0.0175647)
Neigh time (%) = 48.7528 (1.50615)
Comm  time (%) = 16.4447 (0.508037)
Outpt time (%) = 0.000541925 (1.67421e-05)
Other time (%) = 3171.14 (97.9682)

Nlocal:    4.65 ave 78 max 0 min
Histogram: 36 1 1 0 0 0 0 0 1 1
Nghost:    0.675 ave 12 max 0 min
Histogram: 34 4 0 0 0 1 0 0 0 1
Neighs:    0.075 ave 2 max 0 min
Histogram: 38 0 0 0 0 1 0 0 0 1

Total # of neighbors = 3
Ave neighs/atom = 0.016129
Neighbor list builds = 18044
Dangerous builds = 0
Setting up run at Thu Dec 29 08:53:42 2022

Memory usage per processor = 964.609 Mbytes
    Step    Atoms         KinEng            CPU 
43827120      186    0.033324962              0 
44135761      183      0.0274243      3229.3233 
Loop time of 3229.32 on 40 procs for 308641 steps with 183 atoms, finish time Thu Dec 29 09:47:31 2022


Pair  time (%) = 0.569777 (0.0176439)
Neigh time (%) = 48.1082 (1.48973)
Comm  time (%) = 15.3366 (0.474918)
Outpt time (%) = 0.000477241 (1.47783e-05)
Other time (%) = 3165.31 (98.0177)

Nlocal:    4.575 ave 79 max 0 min
Histogram: 36 1 1 0 0 0 0 0 1 1
Nghost:    0.55 ave 12 max 0 min
Histogram: 36 2 1 0 0 0 0 0 0 1
Neighs:    0.025 ave 1 max 0 min
Histogram: 39 0 0 0 0 0 0 0 0 1

Total # of neighbors = 1
Ave neighs/atom = 0.00546448
Neighbor list builds = 17814
Dangerous builds = 558
Setting up run at Thu Dec 29 09:47:31 2022

Memory usage per processor = 964.609 Mbytes
    Step    Atoms         KinEng            CPU 
44135761      183      0.0274243              0 
44444402      183    0.027390426      3190.9458 
Loop time of 3190.95 on 40 procs for 308641 steps with 183 atoms, finish time Thu Dec 29 10:40:42 2022


Pair  time (%) = 0.568311 (0.0178101)
Neigh time (%) = 41.4948 (1.30039)
Comm  time (%) = 16.7922 (0.526246)
Outpt time (%) = 0.000510849 (1.60093e-05)
Other time (%) = 3132.09 (98.1555)

Nlocal:    4.575 ave 76 max 0 min
Histogram: 36 1 1 0 0 0 0 0 1 1
Nghost:    0.575 ave 9 max 0 min
Histogram: 31 6 1 0 0 0 1 0 0 1
Neighs:    0.1 ave 4 max 0 min
Histogram: 39 0 0 0 0 0 0 0 0 1

Total # of neighbors = 4
Ave neighs/atom = 0.0218579
Neighbor list builds = 15399
Dangerous builds = 0
Setting up run at Thu Dec 29 10:40:42 2022

Memory usage per processor = 964.609 Mbytes
    Step    Atoms         KinEng            CPU 
44444402      183    0.027390426              0 
44753043      183    0.015191316      3146.7615 
Loop time of 3146.76 on 40 procs for 308641 steps with 183 atoms, finish time Thu Dec 29 11:33:09 2022


Pair  time (%) = 0.564411 (0.0179363)
Neigh time (%) = 30.1494 (0.958109)
Comm  time (%) = 10.2963 (0.327203)
Outpt time (%) = 0.000527619 (1.6767e-05)
Other time (%) = 3105.75 (98.6967)

Nlocal:    4.575 ave 74 max 0 min
Histogram: 36 1 1 0 0 0 0 0 0 2
Nghost:    0.6 ave 8 max 0 min
Histogram: 30 8 0 0 0 0 0 0 0 2
Neighs:    0.1 ave 3 max 0 min
Histogram: 38 0 0 1 0 0 0 0 0 1

Total # of neighbors = 4
Ave neighs/atom = 0.0218579
Neighbor list builds = 11188
Dangerous builds = 0
Setting up run at Thu Dec 29 11:33:09 2022

Memory usage per processor = 964.609 Mbytes
    Step    Atoms         KinEng            CPU 
44753043      183    0.015191316              0 
45061684      183    0.025198342      3206.6276 
Loop time of 3206.63 on 40 procs for 308641 steps with 183 atoms, finish time Thu Dec 29 12:26:36 2022


Pair  time (%) = 0.565218 (0.0176266)
Neigh time (%) = 33.5406 (1.04598)
Comm  time (%) = 12.8735 (0.401464)
Outpt time (%) = 0.000545229 (1.70032e-05)
Other time (%) = 3159.65 (98.5349)

Nlocal:    4.575 ave 74 max 0 min
Histogram: 37 0 1 0 0 0 0 0 0 2
Nghost:    0.45 ave 7 max 0 min
Histogram: 33 5 0 0 0 0 0 0 1 1
Neighs:    0.05 ave 2 max 0 min
Histogram: 39 0 0 0 0 0 0 0 0 1

Total # of neighbors = 2
Ave neighs/atom = 0.010929
Neighbor list builds = 12425
Dangerous builds = 0
Setting up run at Thu Dec 29 12:26:36 2022

Memory usage per processor = 964.609 Mbytes
    Step    Atoms         KinEng            CPU 
45061684      183    0.025198342              0 
45370325      181    0.025178802      3180.7183 
Loop time of 3180.72 on 40 procs for 308641 steps with 181 atoms, finish time Thu Dec 29 13:19:37 2022


Pair  time (%) = 0.570244 (0.0179281)
Neigh time (%) = 38.3162 (1.20464)
Comm  time (%) = 13.0566 (0.410492)
Outpt time (%) = 0.00069923 (2.19834e-05)
Other time (%) = 3128.78 (98.3669)

Nlocal:    4.525 ave 75 max 0 min
Histogram: 37 1 0 0 0 0 0 0 0 2
Nghost:    0.575 ave 8 max 0 min
Histogram: 32 3 2 1 0 0 1 0 0 1
Neighs:    0.025 ave 1 max 0 min
Histogram: 39 0 0 0 0 0 0 0 0 1

Total # of neighbors = 1
Ave neighs/atom = 0.00552486
Neighbor list builds = 14184
Dangerous builds = 5
Setting up run at Thu Dec 29 13:19:37 2022

Memory usage per processor = 964.609 Mbytes
    Step    Atoms         KinEng            CPU 
45370325      181    0.025178802              0 
45678966      181    0.027471014      3183.6052 
Loop time of 3183.61 on 40 procs for 308641 steps with 181 atoms, finish time Thu Dec 29 14:12:40 2022


Pair  time (%) = 0.570017 (0.0179048)
Neigh time (%) = 37.859 (1.18919)
Comm  time (%) = 12.5024 (0.392711)
Outpt time (%) = 0.000531853 (1.6706e-05)
Other time (%) = 3132.67 (98.4002)

Nlocal:    4.525 ave 72 max 0 min
Histogram: 36 2 0 0 0 0 0 0 0 2
Nghost:    0.4 ave 7 max 0 min
Histogram: 36 1 0 0 1 0 0 1 0 1
Neighs:    0.05 ave 1 max 0 min
Histogram: 38 0 0 0 0 0 0 0 0 2

Total # of neighbors = 2
Ave neighs/atom = 0.0110497
Neighbor list builds = 14005
Dangerous builds = 0
Setting up run at Thu Dec 29 14:12:40 2022

Memory usage per processor = 964.609 Mbytes
    Step    Atoms         KinEng            CPU 
45678966      181    0.027471014              0 
45987607      179    0.028457864      3327.0647 
Loop time of 3327.07 on 40 procs for 308641 steps with 179 atoms, finish time Thu Dec 29 15:08:07 2022


Pair  time (%) = 0.564073 (0.0169541)
Neigh time (%) = 37.8891 (1.13881)
Comm  time (%) = 14.8228 (0.445521)
Outpt time (%) = 0.000552523 (1.66069e-05)
Other time (%) = 3273.79 (98.3987)

Nlocal:    4.475 ave 72 max 0 min
Histogram: 36 2 0 0 0 0 0 0 0 2
Nghost:    0.425 ave 10 max 0 min
Histogram: 35 2 1 1 0 0 0 0 0 1
Neighs:    0.025 ave 1 max 0 min
Histogram: 39 0 0 0 0 0 0 0 0 1

Total # of neighbors = 1
Ave neighs/atom = 0.00558659
Neighbor list builds = 14012
Dangerous builds = 69
Setting up run at Thu Dec 29 15:08:07 2022

Memory usage per processor = 964.609 Mbytes
    Step    Atoms         KinEng            CPU 
45987607      179    0.028457864              0 
slurmstepd: error: *** JOB 14676713 ON r02c06 CANCELLED AT 2022-12-29T19:23:07 DUE TO TIME LIMIT ***
srun: Job step aborted: Waiting up to 62 seconds for job step to finish.
slurmstepd: error: *** STEP 14676713.0 ON r02c06 CANCELLED AT 2022-12-29T19:23:07 DUE TO TIME LIMIT ***
