ITEM: TIMESTEP
9053486
ITEM: NUMBER OF ATOMS
1078
ITEM: BOX BOUNDS ff ff ff
-0.15 0.15
-0.15 0.15
-0.15 0.15
ITEM: ATOMS id type x y z radius vx vy vz density 
688 1 -0.0129732 -0.0525085 -0.0671292 0.000635 -42.6212 2.36908 8.23341 2650 
575 1 -0.00218542 -0.0483692 -0.0679885 0.000984 -32.3408 4.27241 1.0389 2650 
189 1 -0.0156941 -0.0240817 -0.0670118 0.000175 -37.7016 3.32479 8.82964 2650 
862 1 -0.0138759 -0.0222968 -0.0674118 0.000175 -41.4748 -4.32111 8.537 2650 
1208 1 -0.0156586 -0.0601514 -0.0665488 0.000635 -27.9138 2.09533 6.56594 2650 
351 1 -0.0133915 -0.0597439 -0.0670436 0.000635 -34.0002 4.25406 6.79014 2650 
423 1 -0.0181008 -0.0579331 -0.0659331 0.000635 -43.8723 5.07343 12.0392 2650 
37 1 -0.0116702 -0.0460596 -0.0670204 0.000984 -37.6042 6.60081 6.54298 2650 
1062 1 -0.0190379 -0.0401556 -0.0661396 0.000175 -40.7816 17.0427 11.804 2650 
621 1 -0.0165777 -0.0416322 -0.0663264 0.000635 -29.4166 0.202254 7.35028 2650 
1274 1 -0.017914 -0.0374631 -0.0659791 0.000635 -32.2823 1.6866 8.76179 2650 
782 1 -0.0171636 -0.0246794 -0.0661818 0.000635 -40.9507 -4.79644 10.6131 2650 
1195 1 -0.0189566 -0.0236546 -0.066163 0.000175 -43.5412 2.22263 12.4749 2650 
430 1 -0.0193892 -0.00140302 -0.0660374 0.000175 -30.8171 0.727073 9.04816 2650 
392 1 -0.0159128 -0.000913282 -0.0669357 0.000175 -36.7938 -7.27508 7.77954 2650 
194 1 -0.0200966 -0.0557996 -0.0653947 0.000175 -52.9637 0.161601 15.2626 2650 
806 1 -0.017582 -0.0551744 -0.0657239 0.000984 -42.5177 5.60655 11.4121 2650 
732 1 -0.0240829 -0.049221 -0.0644744 0.000175 -51.1475 -11.315 19.1035 2650 
669 1 -0.0238086 -0.0334186 -0.0646952 6.3e-05 -40.8255 1.97094 15.0243 2650 
330 1 -0.0124206 -0.0195101 -0.0657089 0.000175 -20.0756 14.4526 7.6573 2650 
566 1 -0.0228895 -0.012005 -0.0649073 0.000175 -22.1943 -3.39541 7.8268 2650 
81 1 -0.0252799 -0.0445907 -0.0635285 0.000635 -42.0361 6.64974 16.72 2650 
425 1 -0.0250046 -0.0384555 -0.0641227 0.000175 -51.8992 -14.3875 20.2363 2650 
1236 1 -0.0239624 -0.0253183 -0.0640312 0.000635 -30.2046 2.02431 11.299 2650 
1325 1 -0.0279731 -0.0385824 -0.062883 0.000175 -3.0269 -2.16073 1.05784 2650 
1179 1 -0.0272746 -0.0127685 -0.0626921 0.000635 -28.506 7.65753 12.3966 2650 
422 1 -0.0322167 -0.0408496 -0.0603015 0.000635 -24.6703 6.81656 13.1751 2650 
312 1 -0.0322069 -0.0236789 -0.0603071 0.000635 -25.6118 -4.26017 13.6718 2650 
295 1 -0.0357964 -0.0339215 -0.0587836 0.000175 -28.3051 1.33994 17.2358 2650 
551 1 -0.0342059 -0.00715948 -0.0591993 0.000635 -30.3648 -1.26362 17.5367 2650 
326 1 -0.0390637 -0.048837 -0.0566649 0.000175 -9.74629 -6.46683 6.71885 2650 
395 1 -0.0385403 -0.0316657 -0.0561961 0.000175 -33.6704 -1.948 28.0558 2650 
903 1 -0.0399938 -0.0521408 -0.0550399 0.000984 -30.6632 -1.10262 22.2652 2650 
1122 1 -0.0404536 -0.0504535 -0.0556812 0.000175 -20.0384 5.23332 14.5578 2650 
89 1 -0.0416588 -0.036802 -0.0547889 0.000175 -64.6868 -5.76935 49.1643 2650 
961 1 -0.0411825 -0.0266023 -0.0551463 0.000175 -48.7737 -7.81195 36.4183 2650 
186 1 -0.0458842 -0.0438938 -0.0506961 0.000635 -31.3804 3.47334 28.3884 2650 
104 1 -0.0476616 -0.0303843 -0.0485619 0.000984 -30.4672 6.60055 29.8819 2650 
376 1 -0.0483539 -0.0403776 -0.0478677 0.000984 -26.6572 3.80144 26.9088 2650 
636 1 -0.0502129 -0.0389582 -0.0472337 6.3e-05 -24.4379 -7.74252 25.9773 2650 
307 1 -0.0468301 -0.0336669 -0.0460716 0.000984 -12.9392 -13.6587 23.6819 2650 
36 1 -0.051675 -0.00272196 -0.0442677 0.000984 -29.1343 -6.63249 33.7431 2650 
546 1 -0.0537362 -0.0389369 -0.0422861 0.000635 -24.538 -1.45612 31.1672 2650 
1197 1 -0.057052 -0.0614753 -0.0386972 6.3e-05 -22.1615 5.58558 32.671 2650 
922 1 -0.0586306 -0.00737452 -0.0360508 0.000175 -16.6442 -3.80408 27.0645 2650 
380 1 -0.0488266 -0.0612904 -0.0322041 0.000635 -16.1289 12.5996 30.7248 2650 
1264 1 -0.0136434 -0.037588 -0.031986 6.3e-05 -3.04748 -8.4366 3.22931 2650 
954 1 -0.00015949 -0.0274339 -0.0688156 0.000175 -8.55494 7.25716 1.73021 2650 
1176 1 -9.85422e-05 -0.0408538 -0.0683671 0.000635 -33.8996 1.95523 0.0488174 2650 
314 1 -0.0622141 -0.00451396 -0.0284054 0.000635 -26.5949 0.144167 58.2243 2650 
163 1 -0.0627005 -0.0277993 -0.0283885 0.000175 -8.02209 4.42544 17.7151 2650 
821 1 -0.0631356 -0.0108684 -0.0274095 0.000175 -20.1264 -10.451 46.3528 2650 
63 1 -0.0634871 -0.0400213 -0.026585 0.000175 -17.9631 3.09412 42.8909 2650 
573 1 -0.063503 -0.0616236 -0.0244513 0.000984 -13.1075 -0.310098 34.0175 2650 
1285 1 -0.029536 -0.0597836 -0.0256163 0.000175 -8.50546 14.412 29.7164 2650 
528 1 -0.0644717 -0.0365575 -0.0240997 0.000175 -16.6829 1.88585 44.6238 2650 
230 1 -0.0654911 -0.00443029 -0.0211735 0.000175 -13.2843 -0.685272 41.083 2650 
13 1 -0.0649213 -0.00157304 -0.0214827 0.000635 -12.0782 -2.90153 36.4721 2650 
1301 1 -0.0615492 -0.0260289 -0.0184836 0.000984 -15.2577 1.91098 33.513 2650 
168 1 -0.0671936 -0.0155346 -0.0154108 6.3e-05 -5.43183 -1.9089 23.6823 2650 
883 1 -0.00316079 -0.00312702 -0.0157563 0.000635 0.42585 -0.843989 -0.113857 2650 
1156 1 -0.0676884 -0.0143972 -0.012478 0.000175 -6.92803 -1.2001 37.5764 2650 
259 1 -0.000490815 -0.00127278 -0.012149 0.000175 0.288734 -1.06985 0.301077 2650 
171 1 -0.0138995 -0.00762126 -0.0109344 0.000984 -1.34444 -1.43349 -0.339842 2650 
1019 1 -0.067971 -0.00602128 -0.0108332 0.000175 -5.40113 0.0529888 33.8832 2650 
661 1 -0.0685777 -0.0521679 -0.00587579 0.000175 -2.91745 1.66418 34.0451 2650 
486 1 -0.0681058 -0.0507783 -0.00615883 0.000635 -3.13703 4.17098 34.673 2650 
970 1 -0.0678573 -0.0552615 -0.00509321 0.000984 -2.4336 -0.92429 32.3989 2650 
11 1 -0.0158508 -0.00483911 -0.00549867 0.000635 -1.08834 -0.994229 0.730562 2650 
923 1 -0.001619 -0.00239799 -0.004172 0.000175 0 -0.01175 0 2650 
959 1 -0.0022609 -0.00227347 -0.00387393 0.000175 -0.0266319 -0.00346337 -0.0574665 2650 
366 1 -0.015493 -0.00289572 -0.00294011 0.000175 0.0123126 -0.000924957 -0.00290459 2650 
899 1 -0.0688285 -0.0516026 -0.00044911 0.000175 -0.416854 10.6944 63.8752 2650 
337 1 -0.0163627 -0.00278172 -0.00148857 6.3e-05 0.0108617 -0.0247881 0.0148592 2650 
152 1 -0.0154267 -0.00159649 -0.00226906 0.000635 0.00877723 -0.0180601 0.00773118 2650 
349 1 -0.01222 -0.00332891 -0.000347368 0.000635 -0.263173 -0.0369642 -0.00248471 2650 
622 1 -0.0100768 -0.00250114 -0.000915312 0.000635 0.0285047 -0.0461016 -0.0642707 2650 
289 1 -0.0148322 -0.000396378 -0.00017627 0.000635 -0.0212125 -0.0173193 -0.0281584 2650 
559 1 -0.014586 -0.00140899 0.0004 0.000175 0 -0.01175 0 2650 
710 1 -0.007499 -0.00144599 0.00032 0.000635 0 -0.01175 0 2650 
199 1 -0.00621 -0.00264299 0.001824 0.000175 0 -0.01175 0 2650 
1167 1 -0.00939291 -0.00155128 0.00156263 0.000984 0.0480571 -0.0450693 -0.0441601 2650 
55 1 -0.0162785 -0.00101345 0.00143974 0.000175 0.00459455 -0.0225604 0.00382689 2650 
699 1 -0.00539673 -0.000890421 0.00198923 0.000175 -0.0808683 0.0289197 -0.179188 2650 
1035 1 -0.00222367 -0.00110098 0.00206478 0.000984 -0.0577173 -0.0160787 0.00542147 2650 
564 1 -0.0687057 -0.0566107 0.00411671 0.000175 1.95631 -6.97921 32.6448 2650 
446 1 -0.00375399 -0.00137679 0.00266542 0.000635 -0.0289254 0.0154769 -0.179969 2650 
1130 1 -0.00329519 -0.0020747 0.00250467 0.000175 0.0177967 -0.0131406 -0.00928547 2650 
901 1 -0.0122606 -0.000489736 0.00276727 6.3e-05 0.0157792 -0.013704 0.0077238 2650 
103 1 -0.0153006 -0.00296906 0.00404162 0.000984 0.00845467 -0.0332364 0.0218604 2650 
1183 1 -0.005753 -0.00298799 0.004546 0.000175 0 -0.01175 0 2650 
998 1 -0.003639 -0.00290299 0.003846 0.000175 0 -0.01175 0 2650 
1101 1 -0.0139094 -0.00137405 0.00386942 0.000984 0.00643864 -0.0329488 0.013755 2650 
951 1 -0.000422933 -0.00171769 0.00396971 0.000635 -0.0495587 -0.0268749 0.0193898 2650 
95 1 -0.0684899 -0.0226706 0.00682823 0.000175 5.03307 -7.64963 50.4766 2650 
278 1 -0.0128815 -0.00285627 0.00514325 0.000635 0.020468 -0.0298724 0.0142245 2650 
985 1 -0.0153483 -0.00164224 0.00517619 0.000175 0.0199958 -0.0325175 0.0232157 2650 
938 1 -0.0018824 -0.00222435 0.00546434 0.000984 -0.0419077 -0.0291326 0.00945005 2650 
750 1 -0.015119 -6.39996e-05 0.00565789 0.000635 0.0136161 -0.00314075 0.0355848 2650 
1258 1 -0.0100059 -0.00412978 0.00683968 0.000175 -1.392 -0.125569 0.855821 2650 
73 1 -0.0144092 -0.000999816 0.00634324 0.000635 0.0169412 -0.0216883 0.0244427 2650 
812 1 -0.00994 -0.00172499 0.007318 0.000635 0 -0.01175 0 2650 
291 1 -0.00626228 -0.00140154 0.00772785 0.000175 0.0323958 0.0018307 -0.00427381 2650 
1158 1 -0.000161 -0.000370993 0.008128 0.000175 0 -0.01175 0 2650 
663 1 -0.005896 -0.00170199 0.008831 0.000175 0 -0.01175 0 2650 
919 1 -0.005478 -0.00146899 0.008424 0.000175 0 -0.01175 0 2650 
966 1 -0.004 -0.00160999 0.009261 6.3e-05 0 -0.01175 0 2650 
397 1 -0.00353909 -0.000610703 0.00907186 0.000175 0.00609463 -0.00186071 0.0226175 2650 
71 1 -0.00743987 -0.0019609 0.0100913 0.000984 0.000849558 -0.0121659 -0.000152108 2650 
91 1 -0.005157 -0.00202199 0.009962 0.000175 0 -0.01175 0 2650 
1215 1 -0.0017809 -0.000751175 0.00983671 0.000635 -0.00995676 -0.0109291 -0.01194 2650 
1251 1 -0.001546 -0.00277199 0.010836 0.000175 0 -0.01175 0 2650 
948 1 -0.0118255 -0.00132999 0.0109676 0.000635 0.0322718 -0.0260307 0.0213002 2650 
696 1 -0.00342 -0.00177199 0.01091 0.000175 0 -0.01175 0 2650 
525 1 -0.000122 -0.00211199 0.011471 0.000175 0 -0.01175 0 2650 
119 1 -0.00848981 -0.00087584 0.0112991 0.000635 0.00234309 -0.012147 -0.00911128 2650 
1293 1 -0.002756 -0.000160993 0.011457 0.000175 0 -0.01175 0 2650 
1306 1 -0.0100057 -0.0028884 0.012492 0.000635 -0.0105959 -0.0295766 -0.00614956 2650 
1078 1 -0.00583525 -0.00346589 0.0131007 0.000635 -0.330912 -0.12659 0.591774 2650 
249 1 -0.0102489 -0.00129576 0.01232 0.000635 -0.0809407 0.0131227 -0.0452803 2650 
746 1 -0.00337128 -0.00179844 0.0124876 0.000635 0.0169159 -0.0109699 -0.0305759 2650 
834 1 -0.00797622 -0.00415859 0.0141624 6.3e-05 -1.13331 -0.120213 1.99043 2650 
503 1 -0.010341 -0.0029617 0.0132361 0.000175 -1.93425e-05 -0.0144016 -0.00276545 2650 
187 1 -0.00545904 -0.00244076 0.0137582 0.000635 0.00314996 0.085077 0.135702 2650 
232 1 -0.00666 -0.00309099 0.015081 0.000175 0 -0.01175 0 2650 
175 1 -0.00198376 -0.00187308 0.0152813 0.000635 0.0159777 -0.0162439 0.0104665 2650 
1206 1 -0.00679351 -0.000100239 0.0147338 0.000635 -0.0116239 0.00155584 0.0113806 2650 
887 1 -0.00587 -3.29926e-05 0.015335 0.000175 0 -0.01175 0 2650 
513 1 -0.00234576 -0.000538936 0.0145503 0.000635 0.0011784 -0.0157182 0.000870408 2650 
600 1 -0.0666459 -0.0340035 0.0171957 0.000175 7.05507 -8.27063 27.3393 2650 
1300 1 -0.0653928 -0.0128044 0.0188123 0.000984 8.27286 -0.890247 28.7358 2650 
242 1 -0.0552066 -0.060411 0.0209838 0.000984 -6.1293 0.456255 -5.97402 2650 
1184 1 -0.0641774 -0.0456307 0.0248727 0.000175 17.141 1.52545 44.2213 2650 
897 1 -0.0623638 -0.0221233 -0.0291255 0.000175 -32.4655 -21.5087 69.5 2650 
244 1 -0.0616448 -0.0185153 -0.0296341 0.000635 -33.6531 -13.0957 69.9759 2650 
387 1 -0.0603516 -0.0366014 0.0321523 0.000635 18.7487 -0.686028 35.1754 2650 
294 1 -0.0600953 -0.0472694 0.033554 0.000175 23.0748 -4.39907 41.3208 2650 
881 1 -0.0572563 -0.0469141 0.0373891 0.000635 25.1177 -6.66643 38.4466 2650 
357 1 -0.0563706 -0.0520653 0.0387064 0.000635 22.0406 -0.537524 32.0836 2650 
534 1 -0.0545635 -0.0241748 0.0419531 0.000175 30.3724 7.84349 39.4958 2650 
763 1 -0.0551465 -0.02215 0.0411819 0.000175 8.51067 1.01441 11.3944 2650 
515 1 -0.0494785 -0.00948496 0.047192 0.000635 23.3604 -0.41148 24.4797 2650 
1120 1 -0.0138986 -0.0493435 0.0492138 0.000175 -11.0063 -8.08941 10.9238 2650 
1238 1 -0.0481886 -0.00907895 0.0485038 0.000635 18.1063 -2.21092 17.9786 2650 
1138 1 -0.0118395 -0.00548379 0.0490682 0.000635 -1.97834 12.0229 9.41993 2650 
1192 1 -0.0347434 -0.00191561 0.048655 0.000175 8.28626 -5.16717 15.0275 2650 
889 1 -0.0443559 -0.0464179 0.0526258 0.000175 19.1836 -4.49143 16.1665 2650 
776 1 -0.0436323 -0.0415027 0.0526426 0.000635 27.4153 -4.73714 22.7115 2650 
377 1 -0.0416404 -0.0502701 0.0537973 0.000984 22.6549 1.41235 17.5219 2650 
1077 1 -0.0412517 -0.0536728 0.0545234 0.000635 21.9197 -0.156115 16.5753 2650 
457 1 -0.0405067 -0.0499755 0.0550795 0.000635 23.3249 2.16316 17.1446 2650 
1171 1 -0.0366794 -0.0202223 0.057701 0.000635 30.6233 1.41267 19.4571 2650 
712 1 -0.0370665 -0.0156398 0.0574488 0.000635 22.2609 8.75554 14.3557 2650 
185 1 -0.0335801 -0.0275475 0.059629 0.000635 137.282 2.17774 79.2051 2650 
484 1 -0.035499 -0.00902525 0.0584319 0.000635 26.7036 -4.1695 16.2151 2650 
226 1 -0.032103 -0.0338856 0.0608794 0.000175 34.5652 3.20269 18.2262 2650 
279 1 -0.0288713 -0.0305181 0.0619876 0.000635 35.3927 -0.0260542 16.0823 2650 
965 1 -0.028009 -0.0618069 0.062868 0.000175 34.4366 -6.4112 15.3419 2650 
290 1 -0.0190616 -0.0408349 0.0661334 0.000175 61.3705 7.98237 17.6871 2650 
866 1 -0.0218712 -0.0303498 0.0652574 0.000175 29.6353 -4.13408 9.93235 2650 
400 1 -0.0204908 -0.0250403 0.065704 0.000175 33.0502 -5.00331 10.3072 2650 
983 1 -0.014375 -0.00973112 0.0657396 0.000635 -0.733459 -0.340923 3.10085 2650 
1214 1 -0.0206611 -0.00112519 0.065172 0.000635 33.3003 -1.49448 10.5526 2650 
1241 1 -0.0150062 -0.0574078 0.0666978 0.000635 17.3772 3.2117 3.90769 2650 
813 1 -0.0157717 -0.0484497 0.0665251 0.000635 36.32 1.47492 8.60728 2650 
894 1 -0.0153027 -0.0234141 0.0671023 0.000175 48.5574 -6.87659 11.0732 2650 
180 1 -0.000676547 -0.0529389 0.0683646 0.000635 36.2194 -5.19648 0.358335 2650 
297 1 -0.0291172 0.0542639 -0.0623669 0.000175 -101.202 1.82984 47.2425 2650 
971 1 -0.0668202 0.0349777 -0.0138048 0.000984 -40.5072 -13.7679 195.991 2650 
274 1 -0.00488057 0.0678409 -0.019171 0.000984 -1.5092 1.00882 -1.49764 2650 
1164 1 -0.00565468 0.0243019 -0.015835 6.3e-05 -0.0657679 0.0255307 0.0273002 2650 
1050 1 -0.00405665 0.0276769 -0.015613 0.000635 0.0676387 -0.46155 -0.00730723 2650 
462 1 -0.00791262 0.00867641 -0.0145926 0.000175 0.0341516 0.0326009 -0.0124835 2650 
1059 1 -0.00237228 0.00974089 -0.015459 0.000175 0.0360598 0.026744 -0.0147718 2650 
1094 1 -0.00558566 0.0207697 -0.0151717 0.000175 0.00407957 0.0151024 0.0177536 2650 
1043 1 -0.000374501 0.0448013 -0.0153875 0.000635 0.0585224 0.0793999 0.0013573 2650 
572 1 -0.00333453 0.0468697 -0.0150154 6.3e-05 -0.0271436 0.0812859 -0.0563504 2650 
675 1 -0.0039177 0.00105918 -0.013323 0.000635 -0.0185964 -0.0223538 -0.00114293 2650 
1292 1 -0.00883179 0.00941119 -0.0136908 0.000175 -0.0441416 0.0354105 0.02726 2650 
824 1 -0.00624924 0.0152381 -0.0143447 0.000175 0.0019145 0.0360025 0.0134415 2650 
704 1 -0.00205599 0.0143136 -0.0136106 6.3e-05 0.0256836 0.0192015 -0.0153918 2650 
880 1 -0.00483654 0.0209139 -0.0133183 0.000635 0.023577 0.0649101 -0.0388496 2650 
209 1 -0.00597503 0.0269799 -0.0140713 0.000635 -0.0680371 -0.0112221 0.0351566 2650 
587 1 -0.00526469 0.0284971 -0.0140939 0.000635 -0.0801307 0.0876146 0.113252 2650 
1149 1 -0.00045714 0.0303359 -0.0140102 0.000635 -0.109238 0.0440099 -0.00320712 2650 
614 1 -0.0076849 0.046497 -0.0142821 0.000635 -0.168589 0.221624 0.144057 2650 
1254 1 -4.21619e-05 0.0109189 -0.0126541 0.000175 0.0352223 0.0160003 0.0162151 2650 
1069 1 -0.00364199 0.0137416 -0.0120059 0.000984 0.0129455 0.0386024 0.00471936 2650 
478 1 -0.00437282 0.0162001 -0.0127705 0.000635 0.0404369 0.00988388 -0.0194382 2650 
915 1 -0.00213617 0.0162626 -0.0122113 0.000635 -0.0350641 -0.0170939 0.0493712 2650 
518 1 -0.0105867 0.0178769 -0.0124913 0.000635 -0.0196065 0.0243539 0.0105119 2650 
385 1 -0.0063939 0.0276628 -0.0123587 0.000635 -0.0957211 -0.00556572 0.0837838 2650 
844 1 -0.00974456 0.0344893 -0.0130747 0.000635 -0.0206486 0.0523469 0.0143628 2650 
848 1 -0.00537668 0.0349912 -0.0129523 0.000635 0.0182844 0.0726118 0.00445669 2650 
554 1 -0.00735622 0.0476964 -0.0124982 0.000635 -0.201513 0.24732 -0.157214 2650 
743 1 -0.00239362 0.0492847 -0.0123046 0.000635 -0.0428569 0.12334 0.0183228 2650 
110 1 -0.00220715 0.00489392 -0.0113828 0.000635 0.00783617 -0.0203685 0.0272439 2650 
492 1 -0.000598936 0.00511992 -0.0108905 0.000175 0.0155447 -0.00543734 0.000308721 2650 
57 1 -0.0120538 0.00707673 -0.0113893 0.000175 0.00417702 -0.0170393 -0.00250338 2650 
579 1 -0.0114274 0.0090728 -0.0108682 0.000635 -0.00237119 0.0162713 -0.00427286 2650 
405 1 -0.009473 0.00906601 -0.011251 6.3e-05 0 -0.01175 0 2650 
390 1 -0.000970998 0.0190644 -0.0116275 0.000635 -0.0323384 0.0402068 0.00544617 2650 
592 1 -0.00274185 0.0231893 -0.0118078 0.000175 -0.0612138 0.0872822 0.016138 2650 
780 1 -0.00653734 0.0260341 -0.0115823 0.000635 -0.0622202 -0.0648509 0.0956414 2650 
910 1 -0.00548262 0.0289816 -0.0114452 0.000635 0.0391718 0.0334328 0.00620133 2650 
1169 1 -0.00871828 0.0310505 -0.0119925 0.000984 -0.182805 0.160672 0.0815131 2650 
818 1 -0.00689749 0.0391228 -0.0115047 0.000635 -0.0812518 0.0285164 0.0349967 2650 
680 1 -0.00266178 0.0398605 -0.0117471 0.000635 0.0437137 0.343632 0.0382375 2650 
1278 1 -0.0125535 0.00391765 -0.0101428 0.000635 -0.0146079 0.0267053 0.0203084 2650 
1165 1 -0.00278103 0.00456425 -0.0106653 6.3e-05 0.0077224 -0.018109 0.00484478 2650 
751 1 -0.00372186 0.00537858 -0.0106483 0.000635 -0.00177656 -0.0147886 0.056467 2650 
571 1 -0.008585 0.00767001 -0.010244 6.3e-05 0 -0.01175 0 2650 
1243 1 -0.00835212 0.00907321 -0.0103399 0.000635 -0.064672 0.0532431 0.0176868 2650 
807 1 -0.0109824 0.0102734 -0.0106964 0.000635 0.0141118 0.0138544 7.45886e-05 2650 
1143 1 -0.00493611 0.0111212 -0.00966707 0.000635 0.0300547 0.014564 0.0270609 2650 
396 1 -0.0126893 0.0159783 -0.0100931 0.000175 -0.0414181 0.0133746 0.0354701 2650 
148 1 -0.0100745 0.0187727 -0.00992829 0.000635 -0.279234 -0.204479 0.37104 2650 
52 1 -0.00742064 0.0206718 -0.0107572 0.000175 -0.0407031 0.029557 -0.00511831 2650 
904 1 -0.00925288 0.0230502 -0.0103644 0.000984 -0.193831 0.0572896 0.194785 2650 
832 1 -0.0118912 0.0372978 -0.0100573 0.000175 -0.07945 0.129128 -0.0141466 2650 
134 1 -0.0140571 0.000623373 -0.00913261 6.3e-05 -0.0350772 0.00664574 0.0659608 2650 
243 1 -0.001234 0.00012587 -0.009292 0.000635 -0.00290392 -0.0115092 0.0192446 2650 
890 1 -0.008469 0.00418301 -0.008886 0.000175 0 -0.01175 0 2650 
868 1 -0.005513 0.00582801 -0.008425 6.3e-05 0 -0.01175 0 2650 
16 1 -0.0131023 0.00685961 -0.00918585 0.000635 -0.00318857 0.0183169 0.00571656 2650 
615 1 -0.00630223 0.00597196 -0.00857219 0.000635 -0.0329556 0.00436798 0.126527 2650 
1033 1 -0.0136515 0.00735063 -0.0095498 6.3e-05 -0.0154699 0.012388 -0.00767814 2650 
319 1 -0.0092193 0.00843932 -0.00931378 0.000635 0.0190323 0.0244757 -0.00759857 2650 
1172 1 -0.00334759 0.0131353 -0.00853563 0.000635 0.0187752 0.0507725 -0.00435819 2650 
140 1 -0.00088154 0.016431 -0.00957853 0.000984 -0.0380523 0.0253106 -0.00971415 2650 
367 1 -0.0136996 0.0180088 -0.00924758 0.000175 -0.426094 -0.1766 0.605364 2650 
1004 1 -0.00212686 0.0198867 -0.00927669 0.000984 0.0155141 0.0278929 0.0298656 2650 
310 1 -0.00136996 0.0244175 -0.00946896 0.000984 0.0824646 0.130202 -0.00109441 2650 
1047 1 -0.00726579 0.0271196 -0.00949817 0.000635 0.0216014 0.0450852 0.0130733 2650 
1013 1 -0.00350857 0.0362702 -0.00952773 0.000635 -0.0351761 0.00587527 0.053554 2650 
548 1 -0.0137308 0.00394934 -0.00790843 0.000635 -0.00397261 0.00844815 0.00483088 2650 
873 1 -0.0072984 0.00395864 -0.00767357 0.000635 0.04938 0.00472902 -0.054897 2650 
924 1 -0.0119945 0.00542579 -0.00822037 0.000175 0.000471034 0.011719 0.0067381 2650 
686 1 -0.00179239 0.0056832 -0.00733169 0.000635 0.00148705 0.00843511 0.0298522 2650 
443 1 -0.00752985 0.00836035 -0.00835165 0.000984 -0.00694912 -0.00743914 0.042457 2650 
544 1 -0.00870079 0.0130543 -0.00800814 0.000635 -0.00225997 0.0193602 -0.00958512 2650 
784 1 -0.00104308 0.0191733 -0.00778446 0.000635 0.00944523 0.027025 0.0329931 2650 
153 1 -0.00315791 0.033392 -0.00791897 0.000635 -0.0189449 0.0528589 -0.0196293 2650 
768 1 -0.00890584 0.00356906 -0.00672736 6.3e-05 0.0161304 0.000734114 -0.00105843 2650 
1146 1 -0.00396192 0.00364592 -0.00606334 0.000635 -0.00683227 -0.062499 0.0247444 2650 
804 1 -0.0137009 0.00795097 -0.00644448 0.000984 -0.000493017 -0.00294152 0.00413147 2650 
1150 1 -0.00130472 0.00820246 -0.00688943 0.000175 -0.0425076 0.0151674 -0.00519332 2650 
1281 1 -0.00304724 0.00951173 -0.00668546 0.000635 -0.0288257 0.00554158 0.00717828 2650 
176 1 -0.0045518 0.0102714 -0.00684171 0.000635 -0.0232488 0.00733138 0.0182182 2650 
809 1 -0.0136789 0.0141541 -0.00679662 0.000635 -0.0280736 0.00799469 -0.0144073 2650 
537 1 -0.00861265 0.0286013 -0.00646729 6.3e-05 0.0599387 0.19085 0.0443753 2650 
109 1 -0.00269415 0.0377296 -0.00632861 0.000635 0.000498826 0.0507076 0.0410947 2650 
1049 1 -0.0112769 0.0618945 -0.00602179 0.000635 0.0572864 0.246797 -0.130923 2650 
384 1 -0.0152072 0.00240698 -0.00562435 0.000635 -0.0108634 -0.487135 0.112953 2650 
169 1 -0.00705267 0.00346089 -0.00546281 6.3e-05 -0.043181 -0.039202 0.0189515 2650 
1224 1 -0.0106457 0.0046887 -0.00508536 0.000175 0.0244497 -0.0142337 0.0188983 2650 
229 1 -0.0155915 0.00574139 -0.00492394 0.000175 -0.0122826 0.0531435 0.0730471 2650 
545 1 -0.012072 0.00525017 -0.00495647 0.000635 -0.00177 0.0285948 0.0353721 2650 
552 1 -0.00729559 0.00829358 -0.00502367 0.000635 0.068647 0.116883 -0.0123465 2650 
1310 1 -0.000831382 0.00792572 -0.00551872 0.000635 -0.00334263 0.00513985 -0.0120541 2650 
481 1 -0.00521923 0.0086842 -0.00505734 0.000635 -0.0221652 0.0180601 0.0435649 2650 
94 1 -0.00678049 0.0100817 -0.00558117 0.000175 0.00952131 0.00318137 -0.0526846 2650 
164 1 -0.00529159 0.0106974 -0.0059013 0.000175 -0.00817663 0.0424392 0.000746277 2650 
1109 1 -0.00100941 0.0109445 -0.0052348 0.000635 -0.0109547 0.018133 -0.0132917 2650 
582 1 -0.00763603 0.0252613 -0.00584028 0.000635 0.0854918 0.115102 0.0468557 2650 
650 1 -0.000378403 0.0279767 -0.00537951 0.000635 -0.0146728 -0.042341 0.0912243 2650 
296 1 -0.00623055 0.0487451 -0.00548907 0.000175 0.00557145 0.130895 0.0365198 2650 
612 1 -0.0156329 0.00207797 -0.0044007 0.000635 -0.117895 -0.243451 0.245184 2650 
156 1 -0.01202 0.00203701 -0.004783 0.000175 0 -0.01175 0 2650 
31 1 -0.003356 0.00401901 -0.004078 0.000175 0 -0.01175 0 2650 
1022 1 -0.002244 0.00397901 -0.00401 0.000175 0 -0.01175 0 2650 
409 1 -0.0141966 0.00579796 -0.00467472 0.000984 -0.0150134 0.0417401 0.0228815 2650 
1317 1 -0.0114706 0.00618385 -0.00409024 0.000175 0.0159143 0.0353109 0.0284514 2650 
445 1 -0.00283501 0.00954213 -0.00369837 0.000635 -0.0225154 -0.0144886 0.0189508 2650 
1270 1 -0.00998754 0.0124658 -0.00461883 0.000635 -0.0333496 0.00339894 0.0134867 2650 
58 1 -0.00782744 0.0119244 -0.00435756 0.000175 -0.0095569 0.0175092 -0.027906 2650 
414 1 -0.00211921 0.0123342 -0.00391943 0.000635 -0.0476878 0.0175065 -0.00150814 2650 
851 1 -0.0153655 0.0178348 -0.00464215 0.000635 -0.0210195 0.0360701 0.0814039 2650 
433 1 -0.00957082 0.017117 -0.00378441 0.000175 0.00088447 0.0547409 -0.0210433 2650 
937 1 -0.0151219 0.0200394 -0.00416437 0.000984 0.00385997 0.066403 0.0852859 2650 
1189 1 -0.0161998 0.0223906 -0.00405371 0.000175 -0.0278554 0.0850269 0.0673928 2650 
51 1 -0.00954567 0.0234333 -0.00464228 0.000635 0.0150462 0.0408486 0.0450948 2650 
524 1 -0.0156272 0.0573517 -0.00462643 0.000175 0.0395263 0.150833 -0.0482859 2650 
624 1 -0.0107503 0.0661566 -0.00471958 0.000175 -0.0172083 0.127288 -0.0558989 2650 
416 1 -0.0159853 0.00134717 -0.00327753 0.000635 -0.00765026 -0.226147 0.300719 2650 
1283 1 -0.0163951 0.00319476 -0.0035963 0.000175 -0.0115481 0.0187558 -0.00620564 2650 
963 1 -0.0145163 0.00302402 -0.00269092 0.000175 -0.0102713 -0.0109943 -0.00815515 2650 
660 1 -0.00783391 0.00284969 -0.00275422 0.000175 -0.00465251 -0.00541571 0.0451231 2650 
406 1 -0.003114 0.00399101 -0.002553 6.3e-05 0 -0.01175 0 2650 
1015 1 -0.0145441 0.00517564 -0.00310976 0.000635 -0.000353199 0.00887287 0.0273492 2650 
475 1 -0.00318051 0.00635729 -0.0027719 0.000984 -0.00727884 -0.0284666 0.116463 2650 
251 1 -0.00120002 0.00616142 -0.00306568 0.000635 -0.011652 -0.0104385 -0.000438171 2650 
1010 1 -0.00969545 0.00875394 -0.0033606 0.000635 -0.00894252 -0.00464143 -0.0238981 2650 
285 1 -0.00509571 0.00857965 -0.00291435 0.000635 0.0021346 0.0111574 0.0740559 2650 
1330 1 -0.000226186 0.00957694 -0.0027395 6.3e-05 -0.00364568 -0.00301178 0.0105356 2650 
1003 1 -0.0136378 0.0123604 -0.00348358 0.000984 0.0113896 0.0122055 0.0472966 2650 
586 1 -0.00863266 0.020628 -0.00259979 0.000635 0.00674895 0.0649218 0.10476 2650 
64 1 -0.0131607 0.0219588 -0.00303838 0.000175 -0.243099 0.108771 -0.00424626 2650 
886 1 -0.008763 0.000861007 -0.001992 0.000175 0 -0.01175 0 2650 
541 1 -0.013303 0.00340597 -0.00166835 0.000984 -0.00914677 0.00459046 -0.00616235 2650 
956 1 -0.00771521 0.00348318 -0.00200702 0.000175 0.00205378 -0.00888039 -0.0299469 2650 
1295 1 -0.002608 0.00311301 -0.002004 0.000175 0 -0.01175 0 2650 
101 1 -0.0163031 0.00438784 -0.00187264 6.3e-05 0.098871 -0.446258 0.871765 2650 
309 1 -0.0154117 0.00461791 -0.00130225 0.000984 -0.00149735 -0.0166362 0.0175231 2650 
549 1 -0.0130497 0.00581236 -0.00229021 0.000635 -0.00559974 0.00841192 -0.00683677 2650 
542 1 -0.0151552 0.00678805 -0.00136533 0.000984 -0.0247706 -0.00165894 0.0176521 2650 
979 1 -0.00957776 0.00740996 -0.00197457 0.000635 0.0275541 0.0707269 0.0320262 2650 
1180 1 -0.000480946 0.00782365 -0.00203368 0.000635 0.00400461 -0.00392792 0.0113763 2650 
1061 1 -0.0126093 0.0107102 -0.00223689 0.000175 -0.000755913 0.0287146 -0.007194 2650 
665 1 -0.00726058 0.0104759 -0.00234662 0.000175 0.017994 -0.0016948 0.000401512 2650 
35 1 -0.00285788 0.00959953 -0.00150712 0.000984 -0.0158803 -0.00754673 -0.00409453 2650 
224 1 -0.0128842 0.0110762 -0.00160686 0.000175 0.0169022 0.00858263 -0.0246889 2650 
128 1 -0.00559984 0.0108046 -0.00209764 0.000175 0.0639743 -0.0445824 0.0159349 2650 
408 1 -0.00183011 0.0114018 -0.00148587 0.000984 -0.0193439 0.00802054 0.0296021 2650 
394 1 -0.0165258 0.0131478 -0.00187631 0.000175 -0.106713 0.392346 0.281385 2650 
797 1 -0.0102942 0.0136459 -0.00195446 0.000175 -0.00863712 0.0237636 -0.0110266 2650 
778 1 -0.0026274 0.0143034 -0.00196632 0.000635 0.0613446 0.0285745 0.0533514 2650 
102 1 -0.016326 0.0160253 -0.00239705 6.3e-05 0.00535097 0.00205152 0.0655895 2650 
949 1 -0.0159043 0.0173514 -0.00162796 0.000635 0.0055649 0.0312214 0.0973085 2650 
1296 1 -0.0147344 0.017054 -0.00216739 6.3e-05 0.0129042 0.0393147 0.0494218 2650 
246 1 -0.00595427 0.0182457 -0.00194257 0.000635 -0.00957988 0.0643251 0.0520806 2650 
1110 1 -0.00787811 0.0266852 -0.00210971 0.000635 0.0272725 0.033912 -0.0117328 2650 
1315 1 -0.008679 0.00333901 -0.000613 0.000175 0 -0.01175 0 2650 
562 1 -0.014138 0.00462201 -0.000311 0.000175 0 -0.01175 0 2650 
594 1 -0.0156131 0.00607038 -6.97997e-05 0.000175 -0.0128361 -0.0161053 0.0118384 2650 
1154 1 -0.0102992 0.00608813 -0.000108024 0.000175 0.03641 0.0396631 -0.0280173 2650 
83 1 -0.00770735 0.00824043 -0.000701439 0.000635 -0.0285984 0.0322153 0.0428884 2650 
179 1 -0.015829 0.00866847 -0.00105875 0.000635 -0.0211938 0.00910332 0.00433274 2650 
1279 1 -0.0129212 0.00848099 -0.000684439 0.000635 0.014129 0.00995929 0.0556895 2650 
1027 1 -0.00463304 0.0088645 -0.000481724 0.000175 0.023316 0.028924 0.0324985 2650 
589 1 -0.0154955 0.0101145 -0.000974149 0.000635 0.241659 -0.18603 0.287915 2650 
118 1 -0.0162157 0.0114884 -0.000442941 0.000635 -0.0352604 0.0311554 0.192198 2650 
177 1 -0.0144445 0.0107695 -0.000466738 0.000635 0.00698281 0.0199817 0.0116024 2650 
383 1 -0.00674906 0.0123837 -0.000393838 0.000635 0.00599152 -0.0101366 0.093668 2650 
707 1 -0.000284777 0.0124201 -0.000322803 0.000984 -0.032176 0.0143366 0.0987958 2650 
1140 1 -0.00285412 0.0214048 -0.0007452 0.000635 0.015393 0.0544493 -0.00105166 2650 
786 1 -0.00078624 0.0254391 -0.000679585 0.000635 0.00807324 0.0606063 0.0409693 2650 
1025 1 -0.0103556 0.0263552 -0.00110904 0.000175 -0.0108774 0.0879131 0.0435536 2650 
97 1 -0.00832293 0.0290952 -0.00114743 0.000175 0.230273 0.487815 0.281005 2650 
1011 1 -0.0120395 0.059505 -7.75419e-05 0.000635 0.025541 0.147793 0.0220454 2650 
875 1 -0.00865963 0.00205727 0.000190716 0.000635 0.0281151 -0.0434591 -0.0661233 2650 
265 1 -0.005736 0.00123501 0.001012 0.000175 0 -0.01175 0 2650 
317 1 -0.00263724 0.00128134 0.000178499 0.000635 0.00392449 -0.0107225 0.0012966 2650 
611 1 -0.00149797 0.0041878 0.000958334 0.000635 -0.0109419 0.0205533 0.0629893 2650 
359 1 -0.0164498 0.00502681 0.00111183 0.000175 0.00136708 -0.0225386 0.0257378 2650 
1091 1 -0.0143713 0.00538787 0.00112819 0.000175 -0.00973825 0.0040232 0.00629672 2650 
507 1 -0.0126422 0.00591154 0.00018281 0.000984 -0.00133596 -0.00360658 -0.0212081 2650 
670 1 -0.00604953 0.00478783 0.000691843 6.3e-05 0.0480864 -0.0035966 -0.0157973 2650 
1129 1 -0.00677401 0.00708803 0.000296507 0.000175 -0.00943017 0.00248151 0.0481015 2650 
878 1 -0.0161375 0.00791271 0.000735314 0.000635 0.00116559 -0.00328628 -0.00365727 2650 
1222 1 -0.00496757 0.00734042 8.39094e-05 0.000175 0.0146782 0.0105625 0.0450838 2650 
138 1 -0.0140532 0.00883606 0.000644065 0.000984 0.00834043 0.00464312 0.00580843 2650 
874 1 -0.0162055 0.00961746 1.90473e-05 0.000635 -0.0983556 -0.104681 0.24266 2650 
984 1 -0.0163357 0.0127138 0.0001417 0.000635 -0.0255534 0.155168 0.0996156 2650 
344 1 -0.0148396 0.0132033 0.000642241 0.000984 0.00147443 0.0259355 -0.0147928 2650 
195 1 -0.0126888 0.0180153 0.000938385 0.000175 -0.00225994 0.0287728 0.0133597 2650 
456 1 -0.0162307 0.0210009 0.000791953 0.000635 -0.112717 0.0783212 0.126242 2650 
472 1 -0.00138742 0.0235538 0.000320233 6.3e-05 0.0261976 0.0383011 0.0300944 2650 
762 1 -0.00267765 0.0550177 0.000907062 0.000175 0.0534165 0.0961609 0.0211901 2650 
262 1 -0.00786111 0.000501135 0.002378 0.000175 0.0785254 0.0123042 0.0539064 2650 
1186 1 -0.0158074 0.00270854 0.00166592 0.000175 0.0169681 -0.0230938 0.00996453 2650 
646 1 -0.0125185 0.00302264 0.00231363 0.000635 -0.00318095 0.00170569 0.000353632 2650 
219 1 -0.00502483 0.00311033 0.00158706 0.000635 -0.0047442 -0.0230468 0.00503248 2650 