ITEM: TIMESTEP
15432077
ITEM: NUMBER OF ATOMS
772
ITEM: BOX BOUNDS ff ff ff
-0.15 0.15
-0.15 0.15
-0.15 0.15
ITEM: ATOMS id type x y z radius vx vy vz density 
1053 1 -0.00562899 -0.0470627 -0.0685945 0.000175 -45.7735 1.50782 3.75621 2650 
1305 1 -0.00313237 -0.0613068 -0.0682946 0.000635 -30.7652 1.07803 1.41077 2650 
329 1 -0.00887112 -0.0497863 -0.0682509 0.000175 -7.4167 -3.16007 0.964008 2650 
273 1 -0.0102659 -0.0446265 -0.0672485 0.000984 -36.329 6.38251 5.54222 2650 
500 1 -0.0149415 -0.0429325 -0.0671836 0.000175 -42.3785 2.28074 9.42475 2650 
546 1 -0.00619018 -0.00758335 -0.0680854 0.000635 -29.8017 -2.90783 2.70889 2650 
714 1 -0.00358297 -0.00504082 -0.0682715 0.000635 -25.3785 -1.37331 1.332 2650 
1108 1 -0.0151739 -0.002403 -0.0666608 0.000635 -27.2415 -1.85496 6.19813 2650 
389 1 -0.0166365 -0.00173682 -0.0663109 0.000635 -26.3305 -0.385852 6.60579 2650 
46 1 -0.00574366 -0.0308784 -0.0656882 0.000635 -62.3205 4.92127 28.7868 2650 
9 1 -0.0247698 -0.0467 -0.0637206 0.000635 -21.2114 4.86369 8.24406 2650 
1273 1 -0.0245975 -0.0362375 -0.0637877 0.000635 -23.1819 3.6578 8.93722 2650 
1120 1 -0.0274724 -0.0192042 -0.0631043 0.000175 -32.8362 -5.78323 14.2951 2650 
342 1 -0.0256002 -0.0154797 -0.0630282 0.000984 -32.523 -1.97683 13.2008 2650 
1186 1 -0.0277078 -0.00783484 -0.0630013 0.000175 -26.6509 -2.213 11.7209 2650 
519 1 -0.0259137 -0.000736784 -0.0632641 0.000635 -20.8882 1.13275 8.55451 2650 
1300 1 -0.0293246 -0.0167523 -0.0613793 0.000984 -25.6419 -0.708292 12.242 2650 
709 1 -0.0339045 -0.0181554 -0.0593701 0.000635 -25.8286 -2.4122 14.743 2650 
180 1 -0.0367883 -0.00334949 -0.0576279 0.000635 -23.9161 3.01902 15.2599 2650 
675 1 -0.0379272 -0.0483086 -0.0568846 0.000635 -22.6489 -4.80037 15.0933 2650 
513 1 -0.0372695 -0.0280078 -0.0573428 0.000635 -63.8167 4.40088 41.4609 2650 
1182 1 -0.0391172 -0.0322386 -0.0560748 0.000635 -24.8859 0.421857 17.3513 2650 
174 1 -0.0396368 -0.0204349 -0.055295 0.000984 -28.8804 1.55894 20.6873 2650 
883 1 -0.0412424 -0.0420385 -0.0545334 0.000635 -27.4443 -5.22251 20.7451 2650 
13 1 -0.0434831 -0.0102205 -0.0527639 0.000635 -24.7391 -0.174282 20.3771 2650 
859 1 -0.0306459 -0.0046583 -0.0485643 0.000175 1.13803 -9.66023 7.76762 2650 
718 1 -0.0546474 -0.0076763 -0.0361321 0.000635 0.416428 0.826254 4.73319 2650 
1078 1 -0.0581978 -0.0465737 -0.0358961 0.000635 -15.8758 -3.22168 25.7263 2650 
1206 1 -0.0611024 -0.041514 -0.0306953 0.000635 -13.7128 -2.65404 27.2828 2650 
477 1 -0.0608438 -0.0240156 -0.0304562 0.000984 -12.8488 -1.69322 25.6491 2650 
515 1 -0.0611962 -0.0193864 -0.0305097 0.000635 -14.7982 1.43637 29.6673 2650 
905 1 -0.0618586 -0.0369494 -0.0283528 0.000984 -15.3346 -0.109345 33.4323 2650 
1208 1 -0.0639994 -0.0416208 -0.0240895 0.000635 -13.5694 0.478991 36.033 2650 
289 1 -0.0641048 -0.0396412 -0.0238038 0.000635 -11.9286 -1.88556 32.1085 2650 
279 1 -0.0655407 -0.0213668 -0.019504 0.000635 -8.68062 -0.938832 29.1552 2650 
1211 1 -0.0657227 -0.0117016 -0.0188812 0.000635 -8.16063 1.01982 28.3915 2650 
729 1 -0.0669635 -0.0496507 -0.0159135 0.000175 -4.7523 4.74639 19.9944 2650 
194 1 -0.0669785 -0.0198506 -0.0158501 0.000175 -4.57568 -1.00695 19.3326 2650 
309 1 -0.066448 -0.0153679 -0.014665 0.000984 -6.98103 -0.139305 31.6082 2650 
484 1 -0.0670139 -0.0353155 -0.0136265 0.000635 -8.22823 5.88348 40.4466 2650 
243 1 -0.00749713 -0.00390662 -0.0122088 0.000635 -1.13058 -0.0868511 -1.83434 2650 
1310 1 -0.00986814 -6.20765e-05 -0.0115835 0.000635 -0.00343823 -0.0359032 0.0387111 2650 
1130 1 -0.0374006 -0.0293424 -0.00995463 0.000175 -18.5587 9.14761 12.5134 2650 
387 1 -0.0675457 -0.0134522 -0.0106574 0.000635 -4.23405 1.54607 26.8212 2650 
549 1 -0.00598668 -0.0013568 -0.00785275 0.000635 0.0273969 -0.0287318 -0.0208236 2650 
1165 1 -0.00294301 -0.00228574 -0.00770243 6.3e-05 -0.00108737 -0.02237 0.00988041 2650 
401 1 -0.0020909 -0.00211269 -0.00797894 0.000175 -0.0308475 -0.00302738 -0.00784268 2650 
239 1 -0.0678954 -0.0165307 -0.00451606 0.000984 -1.84722 -0.934458 27.7501 2650 
298 1 -0.0553182 -0.0160282 -0.00358894 0.000175 -4.82861 8.78442 9.85407 2650 
366 1 -0.0116761 -0.00318246 -0.00384053 0.000175 0.0123126 -0.000924957 -0.00290459 2650 
156 1 -0.01202 -0.00160549 -0.004783 0.000175 0 -0.01175 0 2650 
963 1 -0.0153793 -9.26494e-05 -0.00417356 0.000175 0.00645246 -0.00889357 -0.000622593 2650 
398 1 -0.0687549 -0.014117 -0.0031881 0.000175 -1.15273 -2.61118 24.856 2650 
562 1 -0.0143037 -0.00238691 -0.00352386 0.000175 -0.0190277 -0.398413 -0.369031 2650 
788 1 -0.00671965 -0.00249241 -0.00281365 0.000175 0.0207901 -0.0256021 -0.0429457 2650 
322 1 -0.0103543 -0.00136031 -0.00270379 0.000635 0.432325 -0.352239 -0.33385 2650 
886 1 -0.008763 -0.00278149 -0.001992 0.000175 0 -0.01175 0 2650 
1295 1 -0.002608 -0.000529487 -0.002004 0.000175 0 -0.01175 0 2650 
1315 1 -0.008679 -0.000303487 -0.000613 0.000175 0 -0.01175 0 2650 
317 1 -0.0016336 -0.00174034 0.00146138 0.000635 0.00694486 -0.00289332 0.0153698 2650 
144 1 -0.000889088 -0.000441092 0.00142856 0.000635 0.00370651 0.00597337 0.0140765 2650 
564 1 -0.0687612 -0.0303468 0.00306147 0.000175 2.24747 6.93484 50.4648 2650 
1235 1 -0.0155441 -0.00106309 0.00300568 0.000984 0.0465088 -0.0997347 0.248744 2650 
1148 1 -0.0682012 -0.0451845 0.00500289 0.000635 2.7038 2.13568 36.842 2650 
916 1 -0.00285209 -0.0020341 0.00486577 0.000635 0.031306 -0.0172115 0.00302627 2650 
1152 1 -0.004408 -0.00108249 0.005639 0.000175 0 -0.01175 0 2650 
358 1 -0.001101 -0.000612487 0.005262 0.000175 0 -0.01175 0 2650 
1050 1 -0.0677875 -0.0483595 0.00900414 0.000635 4.27143 0.336151 32.1418 2650 
1167 1 -0.0673207 -0.0176739 0.00992122 0.000984 4.71151 2.41856 31.9472 2650 
1166 1 -0.0528395 -0.00711783 0.0103341 6.3e-05 24.68 -11.1099 6.99245 2650 
1223 1 -0.00487767 -0.00236133 0.0101551 0.000175 0.0105454 -0.0285419 0.00463055 2650 
1215 1 -0.0673525 -0.0513362 0.0118192 0.000635 4.93869 -0.9357 28.1294 2650 
171 1 -0.0671711 -0.020507 0.0108779 0.000984 4.77761 0.722266 29.4728 2650 
178 1 -0.0673433 -0.00490588 0.0118908 0.000635 6.92871 -2.29685 39.2223 2650 
76 1 -0.00301082 -0.00305457 0.0113474 0.000635 0.0274629 -0.0320607 0.006734 2650 
770 1 -0.0104354 -0.000494412 0.0116054 6.3e-05 0.0177318 -0.00820571 0.0081784 2650 
970 1 -0.0669355 -0.0539962 0.0122956 0.000984 7.89805 -0.159135 42.9676 2650 
948 1 -0.0669682 -0.0464454 0.0138398 0.000635 7.07951 3.84655 34.2398 2650 
1046 1 -0.0666058 -0.0207748 0.0154803 0.000635 6.58364 -0.962393 28.2738 2650 
1115 1 -0.00281431 -0.00266038 0.014521 0.000635 -0.0254095 -0.0241514 0.00695708 2650 
960 1 -0.0667676 -0.0514518 0.0167181 0.000175 9.14852 3.39479 36.5313 2650 
103 1 -0.0661162 -0.0192982 0.0160866 0.000984 7.0586 -1.31729 28.9372 2650 
632 1 -0.0661056 -0.0256109 0.0191678 0.000175 7.67948 3.78768 26.4808 2650 
1224 1 -0.0656969 -0.0253339 0.0205258 0.000175 12.1566 -0.178969 38.904 2650 
746 1 -0.0650574 -0.0121728 0.0210732 0.000635 13.4692 8.08548 41.5651 2650 
873 1 -0.0647354 -0.00448286 0.0220307 0.000635 10.433 -1.71786 30.6414 2650 
311 1 -0.0639613 -0.0464894 0.0241805 0.000635 9.28426 -3.92038 24.5452 2650 
812 1 -0.0638651 -0.0450299 0.0244348 0.000635 10.1288 -3.44882 26.4601 2650 
418 1 -0.011851 -0.054165 0.0262666 0.000635 5.58834 0.00791843 2.36891 2650 
253 1 -0.0622821 -0.00102237 0.0282331 0.000635 16.1954 -0.0486256 35.7099 2650 
654 1 -0.0619314 -0.0230592 0.0289908 0.000635 14.8431 -8.72448 31.6928 2650 
1069 1 -0.0590331 -0.0497086 0.0338396 0.000984 17.4862 -7.96158 30.4827 2650 
1138 1 -0.0567343 -0.0517341 0.0381735 0.000635 23.5062 -1.60416 34.9189 2650 
106 1 -0.055817 -0.0385822 0.0388982 0.000984 12.6744 3.88364 18.1722 2650 
1135 1 -0.0554812 -0.0201622 0.0394047 0.000984 26.7782 -10.55 37.6782 2650 
906 1 -0.0559888 -0.0140805 0.0392598 0.000635 25.5105 -3.71981 36.3638 2650 
73 1 -0.00731942 -0.043572 0.0403805 0.000635 31.8638 31.1081 42.9899 2650 
85 1 -0.0552044 -0.0427279 0.0403539 0.000635 25.2747 5.43382 34.5596 2650 
1141 1 -0.0548225 -0.00179628 0.0408653 0.000635 20.1131 -1.78103 26.9689 2650 
349 1 -0.0449333 -0.0526404 0.0439123 0.000635 10.8826 18.3555 58.7452 2650 
540 1 -0.0508456 -0.0561957 0.0452552 0.000984 45.6811 4.43653 51.2941 2650 
89 1 -0.0523204 -0.0376798 0.0447193 0.000175 36.2926 3.65792 42.455 2650 
159 1 -0.0512804 -0.0437068 0.0459069 0.000175 25.8132 2.0869 28.8299 2650 
80 1 -0.0508573 -0.0324242 0.0457025 0.000635 21.1753 -3.2223 23.5505 2650 
446 1 -0.0471576 -0.00462108 0.0467539 0.000635 -1.31638 0.388997 1.56288 2650 
1214 1 -0.0482507 -0.0475335 0.0484487 0.000635 27.4752 0.773277 27.3495 2650 
393 1 -0.0477575 -0.0376764 0.0494973 0.000175 35.9434 24.3028 37.3054 2650 
1077 1 -0.0470724 -0.0350157 0.0495902 0.000635 23.1196 2.76556 21.9343 2650 
569 1 -0.0466671 -0.0609752 0.0505947 0.000175 85.5509 -0.0922342 78.9005 2650 
250 1 -0.0449087 -0.0203444 0.0515465 0.000635 13.6402 1.41426 12.4212 2650 
1267 1 -0.0456373 -0.0136281 0.0504376 0.000984 5.824 -3.11745 5.26423 2650 
611 1 -0.0456227 -0.000627456 0.0509268 0.000635 24.4952 0.147998 21.9265 2650 
1023 1 -0.0450776 -0.0395886 0.0519749 0.000175 21.7054 2.57835 20.2647 2650 
219 1 -0.0444086 -0.0224848 0.0519745 0.000635 11.4265 -10.4601 9.89316 2650 
612 1 -0.0440314 -0.008884 0.0523101 0.000635 28.2852 5.65059 23.7969 2650 
307 1 -0.0425201 -0.0525842 0.0531255 0.000984 37.5559 -2.52323 30.0395 2650 
918 1 -0.042419 -0.0354574 0.0536246 0.000635 27.9765 2.82716 22.1194 2650 
1103 1 -0.0422153 -0.017705 0.0533479 0.000984 22.6089 0.606183 17.8771 2650 
1207 1 -0.039626 -0.0567453 0.0557325 0.000635 49.6059 -8.61647 35.2515 2650 
579 1 -0.0397518 -0.0499511 0.0556322 0.000635 33.2057 -0.392724 23.7156 2650 
312 1 -0.0393236 -0.0404867 0.0559485 0.000635 53.3706 25.6699 37.5029 2650 
739 1 -0.0378827 -0.0603487 0.0565042 0.000984 23.6249 -5.68811 15.827 2650 
1233 1 -0.0379214 -0.0486053 0.0564885 0.000984 32.5782 0.37233 21.8548 2650 
360 1 -0.0315368 -0.0304514 0.0571595 0.000175 33.5459 2.39672 16.7509 2650 
951 1 -0.0378745 -0.00737895 0.056921 0.000635 24.6475 2.64117 16.3918 2650 
1090 1 -0.036472 -0.0544534 0.0583667 0.000175 21.5832 4.33174 13.4867 2650 
747 1 -0.0332734 -0.0605615 0.0597287 0.000635 31.4035 -0.929429 17.4857 2650 
78 1 -0.0335096 -0.0220875 0.0595933 0.000635 30.3205 0.440449 17.2148 2650 
1071 1 -0.0329655 -0.020928 0.0599 0.000635 29.0981 3.0265 15.8216 2650 
850 1 -0.0337678 -0.00638942 0.0594441 0.000635 15.9868 -0.787004 9.07941 2650 
1060 1 -0.0332305 -0.0389823 0.0602712 0.000175 21.7979 -4.50313 12.0182 2650 
1002 1 -0.00236414 -0.00781206 0.0602508 0.000984 7.44981 2.03983 0.451541 2650 
44 1 -0.0326591 -0.00645307 0.0600602 0.000635 16.2091 0.446716 8.81221 2650 
185 1 -0.0284726 -0.0349435 0.0621645 0.000635 42.4168 -6.00486 19.4193 2650 
43 1 -0.0292444 -0.0308046 0.0618186 0.000635 55.3656 -2.93722 25.9873 2650 
2 1 -0.0241974 -0.0265777 0.0636159 0.000984 66.8212 -1.61755 25.4019 2650 
584 1 -0.0237106 -0.0559266 0.0641258 0.000635 32.2136 -3.72824 11.906 2650 
287 1 -0.0216184 -0.0465555 0.0648623 0.000635 36.1626 1.85186 12.0476 2650 
1074 1 -0.0198236 -0.0467198 0.0654283 0.000635 22.3708 3.35761 6.7771 2650 
512 1 -0.0193023 -0.0369727 0.0655857 0.000635 29.6166 -2.23626 8.71346 2650 
895 1 -0.0213198 -0.0323445 0.0654397 0.000175 25.2887 -8.25453 8.23888 2650 
926 1 -0.00118144 -0.0217103 0.0657492 0.000175 -1.08892 23.2446 -22.4675 2650 
199 1 -0.0210783 -0.0190632 0.0655178 0.000175 26.6961 -1.24383 8.58862 2650 
1274 1 -0.0191585 -0.0190506 0.0656284 0.000635 31.1381 2.39064 9.08667 2650 
532 1 -0.0217342 -0.0142344 0.0653032 0.000175 26.6629 -0.972213 8.87396 2650 
1285 1 -0.019036 -0.0356574 0.0661401 0.000175 36.8555 1.59143 10.6074 2650 
1017 1 -0.0176539 -0.01709 0.0660477 0.000635 26.4977 11.0944 7.06883 2650 
807 1 -0.00760566 -0.0507387 0.067945 0.000635 39.2317 1.09335 4.38982 2650 
384 1 -0.0110919 -0.0453888 0.0674623 0.000635 56.4863 -10.5149 9.14872 2650 
1301 1 -0.00487773 -0.0455181 0.0678517 0.000984 36.1204 -0.581906 2.59495 2650 
457 1 -0.0101772 -0.0443761 0.067625 0.000635 51.215 6.72774 7.62116 2650 
5 1 -0.00803528 -0.0357 0.0678938 0.000635 34.5269 0.855372 4.08494 2650 
915 1 -0.0108185 -0.0157869 0.0675042 0.000635 26.0739 1.93008 4.17815 2650 
21 1 -0.039657 0.0553346 -0.0562595 0.000175 -116.125 -7.31736 81.8469 2650 
220 1 -0.0451226 0.00901998 -0.0513652 0.000635 -16.7768 -2.0333 14.7294 2650 
1265 1 -0.0420838 0.0623919 -0.0507267 6.3e-05 -0.976624 -0.0367474 -0.844679 2650 
87 1 -0.0606645 0.0241405 -0.0325119 0.000175 -8.39771 -12.7458 15.6668 2650 
145 1 -0.0621088 0.0471366 -0.0285993 0.000635 -8.74193 -3.92827 18.9743 2650 
15 1 -0.0648028 0.0380214 -0.0218433 0.000635 -14.1055 -22.0316 41.8235 2650 
77 1 -0.0655014 0.0187078 -0.0196191 0.000635 -0.638305 -0.99574 2.12983 2650 
102 1 -0.00137141 0.00597948 -0.0167273 6.3e-05 -0.094904 0.0555053 -0.00340591 2650 
1066 1 -0.0033444 0.00926881 -0.0158412 6.3e-05 -0.0367507 0.00507242 0.0142332 2650 
263 1 -0.00200678 0.0631132 -0.016538 0.000175 0.208052 0.270396 -0.13899 2650 
1142 1 -0.00535345 0.0100028 -0.0153497 0.000635 -0.308997 -0.152726 0.134021 2650 
1280 1 -0.00581777 0.0283958 -0.0150885 0.000635 -0.0246184 0.0270555 0.0153536 2650 
981 1 -0.00232579 0.0353065 -0.0144517 0.000635 -0.0176921 0.0366995 0.0053596 2650 
972 1 -0.000238286 0.0232711 -0.0141326 0.000635 -0.0342624 0.0302498 -0.00380125 2650 
60 1 -0.00942237 0.0281962 -0.0137875 0.000175 -0.0327013 0.0368541 0.0244783 2650 
75 1 -0.00377903 0.0355141 -0.0135612 0.000635 -0.0562969 0.0751217 -0.0255666 2650 
153 1 -0.00868256 0.0496875 -0.0134836 0.000635 0.00313388 0.0471058 0.0133632 2650 
57 1 -0.010759 0.00179457 -0.0121653 0.000175 0.00417702 -0.0170393 -0.00250338 2650 
232 1 -0.0029978 0.00234218 -0.0129031 0.000175 0.0784934 -0.0202609 0.00892038 2650 
58 1 -0.0107565 0.0173473 -0.0129707 0.000175 0.0163643 0.0137378 0.00115129 2650 
108 1 -0.00357982 0.0312729 -0.0123081 0.000635 -0.00744415 0.165579 0.138738 2650 
956 1 -0.00707853 0.000730268 -0.0112906 0.000175 0.00205378 -0.00888039 -0.0299469 2650 
453 1 -0.0048876 0.00399975 -0.0118199 0.000635 0.00200198 0.0135122 -0.0835822 2650 
67 1 -0.00842099 0.0102668 -0.0112995 6.3e-05 -0.0419985 0.00937559 -0.0409127 2650 
544 1 -0.00940139 0.019056 -0.0109795 0.000635 -0.00225997 0.0193602 -0.00958512 2650 
140 1 -0.0108627 0.025283 -0.0113209 0.000984 -0.000836339 0.0245176 0.020616 2650 
164 1 -0.00567243 0.0392018 -0.0117035 0.000175 0.0200574 0.0901609 0.0230931 2650 
1212 1 -0.0015452 0.0475578 -0.0112806 0.000635 -1.07803 2.00791 0.578436 2650 
571 1 -0.008585 0.00402751 -0.010244 6.3e-05 0 -0.01175 0 2650 
1010 1 -0.0122847 0.00733126 -0.0105679 0.000635 0.0141551 -0.00260513 0.00148801 2650 
1033 1 -0.0135257 0.0106632 -0.00988554 6.3e-05 0.000458634 0.0107806 -0.00144215 2650 
1094 1 -0.00432099 0.0254514 -0.00966806 0.000175 0.00407957 0.0151024 0.0177536 2650 
824 1 -0.00565575 0.0263989 -0.0101779 0.000175 0.0019145 0.0360025 0.0134415 2650 
482 1 -0.0124998 0.0320551 -0.0103913 0.000635 1.08865 -0.257403 -1.46369 2650 
390 1 -0.0109959 0.0315285 -0.00993915 0.000635 -0.0323384 0.0402068 0.00544617 2650 
433 1 -0.00929663 0.0340867 -0.0103078 0.000175 0.00088447 0.0547409 -0.0210433 2650 
890 1 -0.008469 0.000540513 -0.008886 0.000175 0 -0.01175 0 2650 
868 1 -0.005513 0.00218551 -0.008425 6.3e-05 0 -0.01175 0 2650 
768 1 -0.00350594 0.00676508 -0.00912478 6.3e-05 0.0225666 0.0485592 -0.0343974 2650 
1150 1 -0.0144459 0.012902 -0.00848181 0.000175 0.00903208 0.0117264 0.0198422 2650 
1155 1 -0.0110301 0.0513996 -0.00868486 0.000175 0.0394362 0.0494461 -0.0526637 2650 
764 1 -0.00387464 0.00456704 -0.00816621 0.000175 -0.0236076 -0.00863151 -0.000229828 2650 
16 1 -0.0140893 0.0125374 -0.00741195 0.000635 -0.00318294 0.0183152 0.00572307 2650 
319 1 -0.00533598 0.0131677 -0.00787097 0.000635 0.0124192 0.0151002 0.00485699 2650 
817 1 -0.00725324 0.0175343 -0.00751109 0.000635 -0.128775 0.0516703 -0.00340659 2650 
572 1 -0.0025667 0.0683476 -0.00799641 6.3e-05 0.00506827 0.0682336 0.0295527 2650 
608 1 -0.00694501 0.010717 -0.0064558 0.000984 -0.0375577 0.0122403 -0.0274099 2650 
224 1 -0.00776107 0.0142432 -0.00605594 0.000175 0.0165055 0.0103061 -0.0137836 2650 
635 1 -0.0154028 0.0261421 -0.00627933 0.000175 0.109805 -0.0411842 -0.261751 2650 
52 1 -0.0130034 0.029142 -0.00677276 0.000175 -0.00310665 0.0258562 0.0246542 2650 
975 1 -0.0149656 0.0312258 -0.00655782 0.000635 -0.0374459 0.000763995 0.164581 2650 
694 1 -0.00808207 0.00474413 -0.00544379 0.000175 -0.0476267 -0.0118073 -0.0215962 2650 
804 1 -0.0138537 0.0070391 -0.00516373 0.000984 -0.000493017 -0.00294152 0.00413147 2650 
809 1 -0.0112581 0.0159761 -0.00507589 0.000635 0.0124385 0.00560447 0.00812582 2650 
797 1 -0.0129717 0.0210126 -0.00537271 0.000175 -0.00863712 0.0237636 -0.0110266 2650 
1068 1 -0.0147477 0.0255377 -0.00498567 0.000984 -0.0126273 0.0898995 -0.0656906 2650 
1075 1 -0.00812053 0.029442 -0.00551804 0.000635 -0.0420306 0.0428084 -0.0163088 2650 
879 1 -0.00912333 0.0307889 -0.0057607 0.000635 -0.0338517 0.0952397 -0.0142066 2650 
968 1 -0.0051121 0.000710335 -0.0041598 6.3e-05 0.0397455 -0.00374618 -0.028539 2650 
31 1 -0.003356 0.000376513 -0.004078 0.000175 0 -0.01175 0 2650 
1022 1 -0.002244 0.000336513 -0.00401 0.000175 0 -0.01175 0 2650 
1276 1 -0.00395037 0.0031127 -0.00421269 0.000635 -0.0143405 -0.0157683 -0.01197 2650 
1283 1 -0.0145177 0.0083181 -0.00452746 0.000175 0.00614045 0.0165163 -0.00298846 2650 
406 1 -0.003114 0.000348513 -0.002553 6.3e-05 0 -0.01175 0 2650 
251 1 -0.00531408 0.00266617 -0.00316403 0.000635 -0.0174844 -0.0134517 -2.60628e-06 2650 
445 1 -0.00993145 0.00411769 -0.00314442 0.000635 -0.0229261 -0.017773 0.000219983 2650 
1109 1 -0.00145043 0.0167406 -0.00290789 0.000635 0.00199804 0.0188995 0.0149697 2650 
711 1 -0.0155847 0.0346882 -0.00285538 0.000635 -0.437014 0.0709823 -0.756998 2650 
673 1 -0.0128454 0.00521845 -0.00203505 0.000984 0.0506155 -0.0307347 0.00141858 2650 
35 1 -0.00759442 0.0074561 -0.00131539 0.000984 -0.0152336 -0.00685328 0.0010469 2650 
1180 1 -0.00901587 0.0105977 -0.00132525 0.000635 -0.0399643 0.0121098 -0.000406633 2650 
801 1 -0.000722174 0.0148214 -0.00161364 6.3e-05 -0.00251979 0.0105448 0.0081294 2650 
1281 1 -0.00448354 0.023944 -0.00158451 0.000635 0.0487667 0.0302962 0.0353579 2650 
633 1 -0.000219995 0.031876 -0.00166659 0.000175 -0.0201665 0.0688397 -0.0147461 2650 
209 1 -0.0101874 0.0354513 -0.00215849 0.000635 0.277812 0.149522 -0.492533 2650 
507 1 -0.00676064 0.00254939 -0.000801333 0.000984 0.0244314 -0.0129169 0.00110565 2650 
1270 1 -0.0145487 0.013252 -0.000559645 0.000635 -0.085245 0.082681 -0.19771 2650 
1330 1 -0.00700423 0.0140676 -0.000377097 6.3e-05 -0.0340296 0.0261692 0.00567437 2650 
176 1 -0.0123882 0.0147948 -0.00097693 0.000635 -0.0270118 0.020789 0.0195166 2650 
442 1 -0.00738482 0.0196301 -0.00071697 0.000984 -0.0111617 0.0141303 -0.00946777 2650 
344 1 -0.00255751 0.0252687 -0.000111752 0.000984 0.0396716 0.038904 -0.0025056 2650 
786 1 -0.00904722 0.0575055 -0.000921895 0.000635 0.0358466 0.0786705 0.18855 2650 
686 1 -0.00196171 0.00950775 0.00102364 0.000635 -0.00237014 0.0158377 0.0243518 2650 
443 1 -0.0139542 0.0129544 0.000944841 0.000984 -0.149435 0.311182 -0.0571922 2650 
19 1 -0.0142027 0.0148647 0.00111551 0.000175 0.0851347 0.00895698 0.14055 2650 
832 1 -0.00765174 0.0730227 0.00100101 0.000175 0.0193937 0.114389 0.0387308 2650 
1290 1 -0.010208 0.00238751 0.001685 0.000175 0 -0.01175 0 2650 
115 1 -0.0051142 0.00987928 0.00175514 0.000635 0.0486936 0.0654743 -0.0236915 2650 
90 1 -0.0129555 0.0134769 0.00144173 0.000175 0.0561135 0.0802356 0.0132494 2650 
270 1 -0.0052332 0.0158154 0.00183273 6.3e-05 0.000631057 0.0149424 -0.0171158 2650 
665 1 -0.00058674 0.0171085 0.00173841 0.000175 0.0222844 0.0263336 0.0159099 2650 
526 1 -0.0165151 0.0201838 0.00121622 0.000175 0.0400308 -0.0295948 0.122452 2650 
364 1 -0.0163262 0.0313603 0.00209717 0.000175 0.0136113 0.0601306 -0.00379252 2650 
1188 1 -0.0166685 0.040532 0.00128323 0.000175 0.107816 0.00473233 0.584227 2650 
66 1 -0.00414079 0.00669071 0.00315299 6.3e-05 0.025289 0.00595111 -0.0193862 2650 
1256 1 -0.0130109 0.0113284 0.00275732 0.000175 0.00809504 0.00235426 -0.0024867 2650 
414 1 -0.00306376 0.0144752 0.00285748 0.000635 0.0105987 0.0419925 -0.0788149 2650 
61 1 -0.0045233 0.0159317 0.00335287 0.000175 -0.0389515 0.015901 0.0183545 2650 
347 1 -0.000272824 0.0173225 0.00279743 0.000635 -0.118512 -0.0100931 -0.00612867 2650 
438 1 -0.00619616 0.020988 0.0024264 6.3e-05 -0.0356185 0.0701935 0.0689506 2650 
466 1 -0.0163027 0.0232859 0.0032719 0.000175 -0.00922888 0.0443544 -0.038216 2650 
1080 1 -0.00623251 0.0253618 0.00339857 0.000635 -0.00211451 0.0224639 -0.00186769 2650 
987 1 -0.000921526 0.0519387 0.00312248 0.000175 -0.0264761 0.0565284 -0.00520713 2650 
234 1 -0.0687566 0.0720265 0.00314392 0.000175 0.0052074 0.296963 0.113866 2650 
542 1 -0.015149 0.00527757 0.00364962 0.000984 0.00353323 -0.00502472 0.0168529 2650 
1128 1 -0.00778029 0.0176046 0.00368722 0.000175 0.0315977 0.0130359 -0.00492581 2650 
1317 1 -0.00653719 0.0171302 0.00472968 0.000175 0.0159143 0.0353109 0.0284514 2650 
485 1 -0.00912806 0.0197292 0.00403932 0.000635 -0.00222684 0.0201803 -0.00630183 2650 
517 1 -0.0108964 0.0211244 0.00470231 0.000635 0.0169927 0.0358476 -0.000524821 2650 
937 1 -0.0152912 0.0359473 0.00445009 0.000984 0.0909091 -0.0447083 0.508792 2650 
1203 1 -0.00855294 0.0657337 0.00456603 0.000635 -0.0494655 0.159901 0.0381352 2650 
735 1 -0.010003 0.00246751 0.004837 6.3e-05 0 -0.01175 0 2650 
372 1 -0.00742317 0.00783993 0.00574201 6.3e-05 0.027035 -0.0227346 0.000817948 2650 
1113 1 -0.00280286 0.00819726 0.00576807 0.000635 0.0246175 0.0131149 0.000596817 2650 
408 1 -0.00871455 0.0161048 0.00562757 0.000984 -0.0311685 0.0375429 0.00212341 2650 
1289 1 -0.0157056 0.0211025 0.00535175 0.000175 -0.0923857 -0.535593 -0.800844 2650 
195 1 -0.0133893 0.0269349 0.0050799 0.000175 -0.00225994 0.0287728 0.0133597 2650 
1026 1 -0.00633991 0.0380691 0.0053873 0.000175 0.312387 0.0662862 0.124464 2650 
165 1 -0.0103099 0.041551 0.00508897 0.000175 -0.00634257 0.0588998 0.00980155 2650 
128 1 -0.0147152 0.00287086 0.00607411 0.000175 -0.0124766 -0.0544226 0.0748381 2650 
751 1 -0.000333655 0.00312909 0.00629471 0.000635 0.0276305 0.00264379 0.0522733 2650 
1021 1 -0.004268 0.00373551 0.006589 0.000175 0 -0.01175 0 2650 
1202 1 -0.0079665 0.00877253 0.00676374 0.000984 0.0551966 0.00812002 0.0830456 2650 
1061 1 -0.0149409 0.014495 0.00646687 0.000175 0.0117983 0.00812504 0.0536385 2650 
976 1 -0.0151378 0.0217804 0.00604399 0.000635 -0.168741 -0.506639 -0.788291 2650 
1229 1 -0.00331471 0.0342429 0.00694407 0.000175 -0.0168426 0.0405983 -0.0253622 2650 
505 1 -0.00229131 0.0338858 0.00600286 6.3e-05 -0.813875 -0.592874 -0.865758 2650 
1234 1 -0.0139858 0.0348379 0.00717696 0.000984 -0.40626 0.39496 -0.328892 2650 
450 1 -0.0147694 0.0461144 0.0065726 0.000635 0.192659 -0.0558394 0.347752 2650 
109 1 -0.00253951 0.0534489 0.00641074 0.000635 0.000498826 0.0507076 0.0410947 2650 
787 1 -0.0144682 0.0560468 0.00679122 0.000175 -0.0411525 0.0957467 -0.118951 2650 
744 1 -0.00124616 0.00231328 0.0079794 0.000635 -0.00048059 -0.0114962 -0.0151376 2650 
494 1 -0.00123565 0.00303368 0.00751683 0.000175 0.000422591 -0.00340331 -0.00920906 2650 
120 1 -0.0120651 0.00910637 0.0077145 0.000175 -0.00620908 -0.00336394 -0.00838937 2650 
235 1 -0.00656555 0.0118305 0.00731312 6.3e-05 0.0603832 0.010622 -0.034397 2650 
481 1 -0.0121134 0.014133 0.00836486 0.000635 -0.022255 0.0174734 0.0432403 2650 
721 1 -0.014332 0.0457954 0.00775201 0.000635 0.238715 0.0156752 0.442769 2650 
860 1 -0.00551561 0.0748993 0.00822772 0.000175 -0.0406262 0.183477 0.0474912 2650 
267 1 -0.00781935 0.00816263 0.00921917 0.000175 0.014904 0.00469267 -5.3787e-06 2650 
440 1 -0.00651273 0.0147011 0.00919522 6.3e-05 -0.0115646 0.0178358 -0.0101824 2650 
51 1 -0.00488134 0.0360964 0.00933708 0.000635 0.0150462 0.0408486 0.0450948 2650 
629 1 -0.0122109 0.0405426 0.00892279 0.000175 -1.24415 2.72232 -0.870752 2650 
637 1 -0.0025809 0.000436283 0.0102522 6.3e-05 -0.0011785 -0.011356 -0.000649709 2650 
1217 1 -0.0018424 0.00445467 0.0102131 0.000175 0.00897486 -0.00429675 0.0177703 2650 
412 1 -0.00609329 0.00785943 0.0106531 0.000635 -0.0090751 0.0160961 -0.0294044 2650 
1133 1 -0.00158668 0.00825008 0.0106056 6.3e-05 -0.0933855 0.0390197 -0.0465076 2650 
769 1 -0.00717204 0.0130391 0.00962344 6.3e-05 -0.0127636 0.0271472 0.024475 2650 
119 1 -0.00633373 0.0125262 0.0101087 0.000635 0.0172329 0.0395267 -0.0103726 2650 
1181 1 -0.0091036 0.0144915 0.00974663 0.000635 -0.0437771 0.0312793 0.043673 2650 
979 1 -0.00594544 0.0227291 0.010047 0.000635 0.00214733 0.0365394 0.0428601 2650 
973 1 -0.00343466 0.0248243 0.0104708 0.000635 -0.0180962 0.139686 -0.0286311 2650 
772 1 -0.00860809 0.000353228 0.0114557 0.000984 0.0183912 -0.0226715 0.0289372 2650 
785 1 -0.00200109 0.00066622 0.0108229 0.000635 -0.00123639 -0.00820286 0.00120478 2650 
1158 1 -0.000711983 0.00423537 0.0110115 0.000175 -0.0273739 0.0461119 0.00402313 2650 
138 1 -0.00496771 0.00714931 0.0119215 0.000984 0.0195502 0.00460198 -0.037054 2650 
1292 1 -0.011442 0.00839746 0.0108675 0.000175 0.134189 -0.267774 0.374914 2650 
1272 1 -0.00542209 0.00899938 0.0113686 0.000635 -0.00573613 -0.00411079 -0.00947651 2650 
1003 1 -0.00850829 0.0176851 0.0116279 0.000984 0.0275457 0.0233555 0.0515848 2650 
773 1 -0.00191303 0.0635345 0.0117632 0.000984 0.0334357 0.0594127 -0.0110591 2650 
320 1 -0.00202585 0.000416467 0.0125949 0.000635 0.0113391 -0.0548871 -0.0330962 2650 
479 1 -0.000769301 0.00082111 0.0126708 0.000635 -0.000459747 -0.00553786 0.00467509 2650 
132 1 -0.00566333 0.00172844 0.0131323 0.000175 -0.00114113 0.00100196 -0.00878588 2650 
902 1 -0.0110876 0.00667672 0.0125645 6.3e-05 -0.0770492 -0.019803 -0.0577334 2650 
403 1 -0.00534771 0.00879747 0.012598 0.000175 0.00463421 0.0189833 0.0016799 2650 
660 1 -0.00515039 0.00881838 0.0122716 0.000175 0.00709172 0.00948108 0.00209199 2650 
83 1 -0.00975411 0.0176461 0.0126706 0.000635 0.112975 0.0195634 0.0315036 2650 
814 1 -0.00602227 0.017125 0.0122738 0.000635 0.0106513 0.0144021 0.0176641 2650 
1205 1 -0.00921103 0.0222416 0.0131218 0.000635 0.0234268 0.0309373 -0.00213571 2650 
396 1 -0.011508 0.0246428 0.0122448 0.000175 0.157999 0.0899224 0.106114 2650 
846 1 -0.00825731 0.0261868 0.0125547 0.000635 0.0474826 0.132416 0.0538816 2650 
1296 1 -0.010734 0.0292415 0.0131534 6.3e-05 0.0129042 0.0393147 0.0494218 2650 
586 1 -0.00543495 0.0452858 0.0121426 0.000635 0.0324276 0.079885 -0.0132033 2650 
448 1 -0.00235875 0.00129471 0.0135327 0.000635 0.00713218 -0.0678196 0.0029024 2650 
777 1 -0.00631773 0.00466733 0.013582 0.000635 0.00676707 -0.0268354 0.0139808 2650 
662 1 -0.00393721 0.0051702 0.0132355 0.000175 0.00142251 -0.00347373 -0.00171211 2650 
405 1 -0.00985726 0.013814 0.0137105 6.3e-05 0.473787 -0.0669133 0.412643 2650 
498 1 -0.00867909 0.0177822 0.0143078 0.000175 -1.19505 -0.123466 -0.609228 2650 
64 1 -0.00552327 0.0176649 0.013423 0.000175 0.0460937 -0.0421742 0.0481405 2650 
589 1 -0.0026363 0.00363911 0.0151878 0.000635 0.0809053 -0.0150573 -0.0041606 2650 
550 1 -0.00416696 0.0177875 0.0154338 0.000635 0.22246 0.0981773 0.0740264 2650 
741 1 -0.00447808 0.0207946 0.014931 0.000635 -0.075297 0.0104321 0.0192409 2650 
1294 1 -0.00394541 0.0417507 0.0154853 0.000175 3.00202 3.38466 -0.264151 2650 
1161 1 -0.0021209 0.0655684 0.0150547 0.000175 0.0261999 0.0937445 0.0146854 2650 
94 1 -0.00440643 0.00619832 0.0159326 0.000175 0.137369 -0.114333 0.0615547 2650 
229 1 -0.00483853 0.00833479 0.0157067 0.000175 0.0741194 0.0026796 0.0329644 2650 
630 1 -0.00443195 0.0138996 0.0159769 0.000175 -0.217855 0.101032 -0.0425334 2650 
1124 1 -0.00478953 0.0198271 0.0159639 0.000175 0.583606 -0.020006 0.146226 2650 
432 1 -0.0387148 0.0449567 0.0569038 0.000175 13.2743 1.36438 9.03125 2650 
1194 1 -0.0498469 0.105949 -0.0474579 0.000175 -10.7394 3.52298 11.2776 2650 
191 1 -0.0528759 0.0758002 -0.0440585 0.000175 2.95957 -0.173255 -3.55111 2650 
488 1 -0.0561217 0.114131 -0.0390599 0.000635 -16.3456 6.88402 23.4741 2650 
1104 1 -0.00162185 0.144365 -0.0313437 0.000635 2.77163 23.0896 -11.2393 2650 
439 1 -0.0127296 0.0789456 -0.00798358 6.3e-05 -0.0243268 0.0803513 -0.0586153 2650 
743 1 -0.0157627 0.0875187 -0.00665989 0.000635 -0.297309 0.119326 -0.0893786 2650 
728 1 -0.00776053 0.0931395 -0.00436445 0.000175 -0.0401008 0.108387 0.00907622 2650 
849 1 -0.0471468 0.0847211 0.00576083 0.000635 -7.32012 2.46001 0.12103 2650 
296 1 -0.0045034 0.0893226 0.00583207 0.000175 0.00557145 0.130895 0.0365198 2650 
458 1 -0.00484512 0.0776208 0.00681669 0.000175 -0.0273517 0.0853488 0.0354585 2650 
598 1 -0.00507839 0.088452 0.00644914 0.000175 0.00414087 0.1476 -0.0321361 2650 
1011 1 -0.00412177 0.105321 0.00675652 0.000635 0.025541 0.147793 0.0220454 2650 
300 1 -0.00763026 0.122204 0.00928344 0.000175 0.00170115 0.148187 0.035275 2650 
687 1 -0.0673318 0.0852119 0.0119133 0.000635 0.536223 0.79492 3.02889 2650 
1275 1 -0.064091 0.0974108 0.0238287 0.000635 5.91674 0.41471 15.9052 2650 
676 1 -0.053165 0.122747 0.0430405 0.000635 58.9902 -15.5166 72.8399 2650 
1247 1 -0.0416739 0.135444 0.0542599 0.000635 98.089 -5.41291 75.3114 2650 
910 1 -0.00526123 0.0900107 0.0681625 0.000635 23.7349 -0.595867 1.83191 2650 
501 1 0.0145159 -0.0548814 -0.0672775 0.000175 -64.904 3.80577 -14.0025 2650 
314 1 0.00211981 -0.0511176 -0.0683327 0.000635 -26.6175 2.61003 -0.825645 2650 
573 1 0.00149568 -0.0239664 -0.0680063 0.000984 -31.3241 6.20566 -0.688528 2650 
497 1 0.0167566 -0.021362 -0.0661511 0.000175 -0.0691418 -0.941727 0.593261 2650 
25 1 0.0197008 -0.0355544 -0.0659451 0.000175 -29.3668 -2.67248 -8.77317 2650 
1241 1 0.0248758 -0.0530766 -0.0636838 0.000635 -33.8271 5.17291 -13.2088 2650 