ITEM: TIMESTEP
19444419
ITEM: NUMBER OF ATOMS
186
ITEM: BOX BOUNDS ff ff ff
-0.15 0.15
-0.15 0.15
-0.15 0.15
ITEM: ATOMS id type x y z radius vx vy vz density 
132 1 -0.00442305 -0.0615079 -0.0687728 8.4e-05 6.45657 1.39239 -0.433491 2650 
218 1 -0.00209486 -0.00106295 -0.0687083 0.000233 -30.1898 0.225378 2.44931 2650 
163 1 -0.0113606 -0.0348589 -0.0672349 0.000847 -72.4007 -4.17099 12.2274 2650 
268 1 -0.0230652 -0.0148396 -0.06415 0.000847 -45.6164 -10.2952 16.3922 2650 
392 1 -0.0304684 -0.00790736 -0.061815 8.4e-05 -0.155951 -0.193431 0.0766143 2650 
375 1 -0.032523 -0.0180607 -0.0605904 0.000233 -32.5794 -3.89775 17.485 2650 
150 1 -0.0323358 -0.0167684 -0.0600085 0.000847 -34.1923 -2.10547 18.4161 2650 
410 1 -0.0325675 -0.0053126 -0.0598714 0.000847 -18.6047 1.06481 10.1135 2650 
409 1 -0.034315 -0.00319154 -0.0588891 0.000847 -20.0433 -2.4226 11.672 2650 
59 1 -0.0387122 -0.0239535 -0.0561269 0.000847 -49.1383 -15.8584 33.8746 2650 
391 1 -0.0381725 -0.00554034 -0.0570287 0.000233 -20.8612 0.821955 14.1022 2650 
207 1 -0.000213239 -0.0101153 -0.0533613 0.000233 -0.0759187 -0.604018 -7.96031 2650 
82 1 -0.0441629 -0.0191766 -0.0513265 0.001312 -20.4583 2.78492 17.5854 2650 
290 1 -0.0446464 -0.00544118 -0.0515113 0.000847 -24.7922 -2.92181 21.4741 2650 
243 1 -0.0545072 -0.0278066 -0.0409454 0.000847 -21.2946 -7.15201 28.3296 2650 
486 1 -0.0569785 -0.0613743 -0.0374273 0.000847 -16.504 0.0525931 25.1085 2650 
32 1 -0.0607921 -0.0345631 -0.0308915 0.000847 -26.5422 -8.79151 52.2044 2650 
362 1 -0.0617328 -0.0617839 -0.0303069 0.000233 -13.4707 1.31189 27.433 2650 
272 1 -0.065577 -0.0320295 -0.0207198 0.000233 -13.6135 1.36251 43.0777 2650 
372 1 -0.00861094 -0.00204212 -0.0131951 0.000847 -0.0714189 -0.037052 0.0373277 2650 
201 1 -0.0278203 -0.0610406 -0.00884004 0.000847 -4.60256 0.768683 13.9418 2650 
422 1 -0.0680096 -0.0142771 -0.00474534 0.000847 -1.54366 0.722935 22.1081 2650 
128 1 -0.0686793 -0.00593694 -0.00358047 0.000233 -1.9236 -6.34663 36.8899 2650 
63 1 -0.000147 -0.00154798 -0.0027 0.000233 0 -0.01175 0 2650 
284 1 -0.0141565 -0.000886719 -0.00150082 0.000233 0.00751924 0.00111135 0.0219066 2650 
305 1 -0.00908635 -0.00169693 0.00444844 0.000847 -0.00613468 -0.00578691 0.00242692 2650 
339 1 -0.00174058 -0.000629709 0.0106473 0.000233 0.000995867 0.00136463 -0.0165392 2650 
294 1 -0.0670958 -0.0201595 0.0120846 0.000847 4.39877 1.09998 24.4065 2650 
39 1 -0.067232 -0.0378168 0.0144703 0.000233 3.40297 -0.221667 15.8076 2650 
510 1 -0.0640569 -0.00183496 0.0220155 0.001312 11.0648 -0.982036 32.165 2650 
164 1 -0.0621219 -0.0200638 0.0280887 0.000847 14.2648 1.81848 31.5286 2650 
70 1 -0.057 -0.0368974 0.0373983 0.000847 18.3767 -2.09853 27.9904 2650 
324 1 -0.055753 -0.0556578 0.0402618 0.000233 25.6637 -3.60793 35.531 2650 
405 1 -0.0547822 -0.000479791 0.041814 8.4e-05 9.80412 -0.0695794 12.8436 2650 
254 1 -0.0406954 -0.0333505 0.0546855 0.000847 27.07 6.43619 20.1317 2650 
228 1 -0.0403447 -0.00419298 0.054935 0.000847 16.1945 -0.812486 11.8848 2650 
116 1 -0.038489 -0.0195129 0.0569873 0.000233 26.1564 7.33979 17.6635 2650 
10 1 -0.0257263 -0.0140436 0.0637772 0.000233 73.3245 13.0506 29.5727 2650 
253 1 -0.0225064 -0.0465113 0.0643428 0.000847 38.6193 -5.63482 13.5007 2650 
351 1 -0.0247283 -0.0322732 0.0641704 0.000233 71.4308 17.5327 27.5216 2650 
167 1 -0.0220092 -0.0432432 0.06515 0.000233 38.6619 -3.55718 13.0603 2650 
503 1 -0.0130704 -0.0342816 0.0675134 0.000233 24.3334 -0.810353 4.71087 2650 
76 1 -0.015043 -0.0240034 0.0671023 0.000233 54.53 -16.7685 12.2231 2650 
122 1 -0.00947926 -0.0105514 0.0675003 0.000847 39.0758 5.52635 5.48443 2650 
48 1 -0.000771221 0.000221939 -0.0160079 0.000847 -0.132185 0.0085233 -0.00746623 2650 
108 1 -0.00502238 0.0350162 -0.014773 0.001312 -0.547835 0.0206001 0.227587 2650 
370 1 -0.00341185 0.00248729 -0.0115688 0.000847 -0.017839 0.00107421 -0.00812232 2650 
373 1 -0.0104054 0.00313651 -0.0102105 0.000847 0.00692355 -0.00211586 0.00791692 2650 
303 1 -0.00213088 0.0106254 -0.00996533 0.000847 0.00634002 0.0088215 0.0179982 2650 
506 1 -0.0137423 0.0243432 -0.00964761 0.000233 -0.250145 -0.00967507 0.476254 2650 
55 1 -0.00605916 0.00648214 -0.00938696 0.001312 0.00891338 5.00488e-05 0.0193161 2650 
219 1 -0.000806951 0.00651954 -0.00883016 0.000233 0.00849933 0.00349453 -0.0201485 2650 
347 1 -0.00771935 0.0087556 -0.00924071 0.000847 -0.0658938 0.0253868 -0.0472686 2650 
7 1 -0.00409887 0.00326524 -0.00702399 0.000847 0.0205857 0.00603231 0.00188761 2650 
31 1 -0.00585304 0.00582502 -0.00677048 0.000847 0.0106736 0.00376289 -0.00691615 2650 
244 1 -0.0131676 0.00992713 -0.00678713 0.000233 -0.0196005 0.00158311 0.0267808 2650 
216 1 -0.00591401 0.0248471 -0.00777935 0.000847 -0.113128 -0.0248304 -0.0291195 2650 
56 1 -0.00567822 0.00835564 -0.00554628 0.001312 0.0105583 0.00771617 -0.00757824 2650 
316 1 -0.00653145 0.0128185 -0.00544047 0.000847 0.013228 0.022246 -0.010569 2650 
445 1 -0.0144822 0.0248311 -0.00594878 0.001312 -0.408406 -0.185052 0.777498 2650 
147 1 -0.0146488 0.0153731 -0.00443462 0.001312 -0.0441195 0.0037041 0.05894 2650 
68 1 -0.00279704 0.00867524 -0.00258405 0.001312 0.013761 0.00680721 0.0224856 2650 
234 1 -0.014593 0.00878914 -0.00132447 0.000233 -0.0196854 0.0169433 0.0404318 2650 
476 1 -0.00589516 0.0143416 -1.16681e-05 0.000847 -0.0252403 0.00358607 -0.0286498 2650 
511 1 -0.0159074 0.0362088 -0.00134697 0.000847 -0.00675772 -0.100141 0.170913 2650 
105 1 -0.0155207 0.0173257 0.000467169 0.000233 0.0143983 0.0149541 0.00849708 2650 
383 1 -0.000965643 0.0198413 0.00149771 0.000847 -0.0180844 0.00999593 0.00334075 2650 
443 1 -0.0103863 0.0146974 0.0037253 0.000233 -0.00308493 0.00718174 -0.0127052 2650 
432 1 -0.011852 0.00374121 0.00559804 0.001312 0.00677409 0.0167771 0.00763661 2650 
203 1 -0.0106985 0.00889082 0.00610654 0.000847 -0.0131843 0.00957595 -0.00713462 2650 
198 1 -0.0112248 0.0561347 0.00562158 0.001312 -0.0022794 0.0423086 0.0116925 2650 
467 1 -0.00593435 0.0215076 0.00712223 0.000233 0.0125966 0.0187568 0.0155383 2650 
208 1 -0.00338158 0.0213586 0.00636051 0.000233 -0.0198422 0.00316466 0.0326517 2650 
493 1 -0.0110556 0.0380737 0.00714258 0.000233 -0.00107092 0.0171115 -0.0293051 2650 
482 1 -0.00311238 0.0492053 0.00794 0.000233 0.00469409 0.0342639 0.0260087 2650 
457 1 -5.34967e-05 0.0165468 0.0107952 8.4e-05 0.0444207 -0.0110293 0.145071 2650 
121 1 -0.00996648 0.0185781 0.0108032 0.001312 0.00514363 0.0158657 0.0264715 2650 
15 1 -0.00933758 0.00893008 0.0120236 0.001312 0.0391103 0.0172427 0.0287937 2650 
212 1 -0.00970661 0.0479241 0.0120796 0.001312 0.229826 -0.0566523 0.200024 2650 
417 1 -0.00774896 0.0062127 0.0146276 0.000233 0.110637 0.0139444 0.0595355 2650 
320 1 -0.00689148 0.00841718 0.0143309 0.000847 0.0536793 0.00142452 0.0363405 2650 
328 1 -0.0667877 0.105647 0.011193 0.001312 2.20678 -3.99914 13.1535 2650 
478 1 0.00434709 -0.0391834 -0.0686295 0.000233 -29.7509 -1.18086 -1.88446 2650 
158 1 0.0146189 -0.0585763 -0.0673476 8.4e-05 -24.854 -2.69301 -5.39496 2650 
301 1 0.0291491 -8.48871e-05 -0.0624548 8.4e-05 -127.185 -0.000158824 -60.627 2650 
4 1 0.0342161 -0.00268281 -0.0589506 0.000847 -25.188 1.57072 -14.6101 2650 
406 1 0.0356864 -0.0222382 -0.0575523 0.001312 -31.0879 -5.78875 -19.2591 2650 
136 1 0.0388195 -0.0205044 -0.0560331 0.000847 -29.126 -3.28521 -20.1655 2650 
214 1 0.0424257 -0.0383067 -0.0533555 0.000847 -26.8205 6.24597 -21.3126 2650 
426 1 0.0449009 -0.0263531 -0.052086 0.000233 -22.186 -7.26552 -19.1211 2650 
120 1 0.0436837 -0.0100118 -0.0517459 0.001312 -25.8389 -2.86698 -21.7928 2650 
259 1 0.0468372 -0.046301 -0.0503546 0.000233 -38.0227 1.46389 -35.3598 2650 
263 1 0.0465006 -0.037532 -0.0492235 0.001312 -20.55 -1.66515 -19.3941 2650 
143 1 0.0512009 -0.0345478 -0.0459089 0.000233 -17.7029 -0.489899 -19.7389 2650 
332 1 0.0551698 -0.0514362 -0.0400452 0.000847 -18.2101 3.88132 -25.0712 2650 
429 1 0.0567848 -0.049449 -0.0387911 0.000233 -10.9879 4.11476 -16.081 2650 
389 1 0.0565079 -0.0213834 -0.0391946 0.000233 -20.2357 -7.22135 -29.1835 2650 
160 1 0.0582077 -0.0127185 -0.0346294 0.001312 -17.4428 -7.08197 -29.1019 2650 
444 1 0.000432 -0.00089098 -0.014191 8.4e-05 0 -0.01175 0 2650 
224 1 0.00972626 -0.00265406 -0.00968095 0.001312 0.013442 -0.00447878 0.00326192 2650 
119 1 0.0685275 -0.00105574 -0.00732308 8.4e-05 -0.87163 6.10007 -8.15586 2650 
377 1 0.002656 -0.00108998 -0.00627 0.000233 0 -0.01175 0 2650 
27 1 0.00966 -0.00291998 -0.004536 8.4e-05 0 -0.01175 0 2650 
175 1 0.068084 -0.0216772 -0.00360661 0.000847 -1.71543 0.756765 -32.3634 2650 
80 1 0.000184 -0.00146498 -0.002772 8.4e-05 0 -0.01175 0 2650 
517 1 0.000452035 -0.000360474 -0.00227659 0.000233 0.0178494 -0.00500323 -0.00130069 2650 
245 1 0.0687637 -0.0283649 -0.001077 0.000233 -0.410158 -8.03436 -26.1826 2650 
103 1 0.0055312 -0.000952384 -0.000472675 0.000233 -0.00298319 -0.0096497 0.00373213 2650 
133 1 0.00726785 -0.00121443 -0.00141425 0.001312 0.00446647 -0.00612357 0.00447547 2650 
8 1 0.006698 -0.00247598 0.001482 0.000233 0 -0.01175 0 2650 
265 1 0.00802478 -0.000136725 0.000854632 0.000847 0.0019129 -0.000450941 0.0087881 2650 
270 1 0.013873 -0.000466798 0.000532661 0.000233 0.0263313 -0.00238223 0.0307239 2650 
435 1 0.0681662 -0.00238122 0.00121518 0.000847 0.484386 0.420866 -27.152 2650 
479 1 0.0685628 -0.0115269 0.0053622 0.000233 2.07851 3.47846 -26.5718 2650 
499 1 0.00548105 -0.00109589 0.00590203 0.000847 0.000266612 -0.00820113 0.000232395 2650 
74 1 0.0679153 -0.0596454 0.00604742 0.000847 3.67871 -0.451206 -41.2881 2650 
185 1 0.0671992 -0.00777781 0.00847352 0.001312 3.56048 -2.99259 -28.2087 2650 
472 1 0.0674737 -0.0526872 0.00974934 0.000847 3.0934 -5.84948 -21.3941 2650 
61 1 0.0673567 -0.0233105 0.0105763 0.000847 5.98616 2.81534 -38.1 2650 
394 1 0.067334 -0.0505423 0.0109519 0.000847 14.8064 7.81807 -90.9889 2650 
256 1 0.0662494 -0.00144155 0.0160848 0.000847 5.41138 -0.281936 -22.2747 2650 
85 1 0.0648203 -0.0547631 0.0211266 0.000847 9.40852 -6.32373 -28.8482 2650 
180 1 0.065667 -0.0288981 0.0204323 0.000233 12.5662 1.56893 -40.3783 2650 
149 1 0.0644855 -0.0343008 0.0221208 0.000847 8.41681 1.32169 -24.5196 2650 
62 1 0.0644623 -0.034445 0.0239601 0.000233 7.86782 -6.45342 -21.1631 2650 
277 1 0.0593545 -0.0567778 0.0287015 0.000847 6.83882 -10.5365 -18.8633 2650 
491 1 0.0599137 -0.0100782 0.0305229 0.000233 0.0562317 4.25886 0.711632 2650 
484 1 0.0574097 -0.0183562 0.0359341 0.001312 17.995 1.28304 -28.7228 2650 
223 1 0.0549727 -0.0125577 0.0399715 8.4e-05 1.34439 -5.31914 -1.47925 2650 
148 1 0.0537261 -0.0607208 0.0419619 0.000847 20.0699 -1.33657 -25.6797 2650 
423 1 0.05164 -0.0511736 0.0444926 0.000847 13.0483 -1.74764 -15.133 2650 
456 1 0.0521536 -0.00177278 0.0448241 0.000233 19.0769 -2.17165 -22.1911 2650 
251 1 0.0497337 -0.00323922 0.0466058 0.000847 5.22487 2.20848 -5.5705 2650 
469 1 0.0487746 -0.0556448 0.0484796 0.000233 29.659 -8.81417 -29.8332 2650 
371 1 0.0476151 -0.0508452 0.0487859 0.000847 26.7466 -2.51638 -26.0883 2650 
475 1 0.040869 -0.0145065 0.0545534 0.000847 24.7037 4.28451 -18.4947 2650 
285 1 0.0403175 -0.0179702 0.0557084 0.000233 19.8687 4.32251 -14.378 2650 
433 1 0.0386214 -0.0486281 0.0561808 0.000847 40.9844 5.67295 -28.1586 2650 
315 1 0.0300555 -0.00730751 0.0606619 0.001312 22.465 -4.06696 -11.1008 2650 
191 1 0.0264499 -0.00156994 0.0627716 0.000847 14.4261 -3.11097 -4.32023 2650 
123 1 0.0267184 -0.0199432 0.0627149 0.000847 41.746 -5.38327 -17.7748 2650 
287 1 0.0229077 -0.0613125 0.0648394 0.000233 32.0452 -3.15678 -11.3214 2650 
1 1 0.015089 -0.041537 0.0660064 0.001312 34.2334 -1.4264 -7.81885 2650 
448 1 0.0160864 -0.0460803 0.0662361 0.000847 35.7587 -0.870287 -8.67958 2650 
474 1 0.00972055 -0.0188989 0.0674623 0.000847 33.5674 -0.799595 -4.83411 2650 
350 1 0.000920067 -0.0578546 0.0687609 0.000233 33.0114 3.11232 -0.441713 2650 
364 1 0.00507374 -0.00609971 0.0685816 0.000233 32.3962 -1.20854 -2.78127 2650 
343 1 0.00422946 -0.00400907 0.0680241 0.000847 27.8167 2.82042 -1.7224 2650 
222 1 0.0217057 0.0620167 -0.0652516 0.000233 0.0616843 -0.00758225 0.0204303 2650 
515 1 0.0646806 0.0282139 -0.0217513 0.000847 -37.7043 4.663 -112.072 2650 
36 1 0.00420106 0.00910413 -0.0160565 0.000233 -0.154417 0.0462759 -0.0411418 2650 
49 1 0.000310597 0.0227217 -0.0165983 0.000233 -0.469065 0.0535461 -0.018412 2650 
69 1 0.00207074 0.000180661 -0.0153902 0.001312 -0.124526 0.0141869 -0.00460572 2650 
16 1 0.000875975 0.025477 -0.0155043 0.001312 -0.412198 -0.010605 -0.0160771 2650 
135 1 0.00951579 0.00520078 -0.0128235 0.000847 -0.062367 0.000350369 -0.0670626 2650 
430 1 0.01023 0.00700217 -0.0130974 0.000233 -0.007782 -0.0466067 -0.00593219 2650 
489 1 0.00858629 0.0123019 -0.0134298 0.000847 -0.0778226 0.00528797 -0.0350151 2650 
388 1 0.00777946 0.0160922 -0.0138264 0.000233 -0.222776 -0.00608441 -0.19375 2650 
96 1 0.00384232 0.0619479 -0.0117868 0.000847 0.00713071 0.0821639 -0.0519866 2650 
94 1 0.0034756 0.000941834 -0.0101309 0.001312 0.000237904 -0.00845303 0.00446709 2650 
95 1 0.00147144 0.0113901 -0.0105309 0.001312 0.0114944 0.0037926 0.000538071 2650 
260 1 0.0119492 0.0337303 -0.0102651 0.000233 -0.0178117 0.0172304 0.00105335 2650 
366 1 0.0124054 0.000481925 -0.0080175 8.4e-05 0.00781462 -0.00760013 0.00939002 2650 
235 1 0.00342482 0.0140634 -0.00829842 0.000233 0.00957308 0.00831343 -0.0211173 2650 
12 1 0.00620515 0.0030268 -0.00644306 0.000233 -9.2907e-05 -0.00146252 0.0101717 2650 
226 1 0.0107885 0.0194493 -0.00707951 0.000847 -0.264539 -0.119919 -0.375785 2650 
98 1 0.0121478 0.00173632 -0.00559243 0.000847 -0.0269123 -0.0160802 -0.0297099 2650 
512 1 0.00274575 0.0319748 -0.00383621 0.000847 0.00867512 0.0290047 0.0037544 2650 
374 1 0.00784295 0.0382728 -0.00466729 0.000233 0.0145183 0.0293797 -0.00883705 2650 
338 1 0.00612456 0.00213766 -0.00260105 0.000233 -0.00271292 -0.00171649 -0.0109378 2650 
495 1 0.00833326 0.0133517 -0.00302461 0.000233 0.00404857 0.00775653 0.0320607 2650 
66 1 0.016404 0.0319088 -0.00248342 0.000233 -0.0663368 0.0798176 -0.376392 2650 
292 1 0.00851717 0.00158016 -0.000928972 0.000847 0.00633071 -0.000286617 0.00678711 2650 
242 1 0.00375475 0.0170127 0.000448151 0.000847 0.0210544 0.00969789 -0.00499855 2650 
386 1 0.0158031 0.00209191 0.0027112 0.000847 0.00949406 -0.00132672 0.0175477 2650 
296 1 0.00814184 0.0110526 0.00299561 0.000233 0.0166346 0.00164492 -0.0186807 2650 
186 1 0.01402 0.0582081 0.00419778 0.001312 -0.00462654 0.04184 -0.0147005 2650 
22 1 0.000671217 0.0686503 0.00685872 0.000233 -0.00916307 0.0372144 -0.0289109 2650 
204 1 0.00772102 0.00213071 0.00829419 0.000847 0.0254012 -0.00769949 0.00783304 2650 
309 1 0.0143257 0.0276037 0.00854265 0.000233 0.335267 0.00829819 -0.638216 2650 
107 1 0.00865774 0.0292581 0.00920082 0.001312 0.00952862 -0.000121603 0.000848496 2650 
60 1 0.00255653 0.017932 0.0105705 0.000847 0.0266497 0.0171143 0.0170395 2650 
129 1 0.00751177 0.0101475 0.0148304 0.000233 0.0680415 -0.00383061 -0.0292272 2650 
459 1 0.0657981 0.0614422 0.0179758 0.000847 21.356 19.2727 -78.1324 2650 
455 1 0.00233228 0.143481 -0.0178382 0.000233 0.133122 0.115348 -0.915386 2650 
50 1 0.013164 0.0811052 -0.000319623 0.000233 0.0582666 0.0867012 -0.000404557 2650 
