ITEM: TIMESTEP
17592579
ITEM: NUMBER OF ATOMS
210
ITEM: BOX BOUNDS ff ff ff
-0.15 0.15
-0.15 0.15
-0.15 0.15
ITEM: ATOMS id type x y z radius vx vy vz density 
253 1 -0.00554727 -0.0597734 -0.0679295 0.000847 -27.8315 -6.77528 2.27187 2650 
92 1 -0.00466018 -0.0546717 -0.0686089 0.000233 -30.4126 -5.11641 2.06574 2650 
294 1 -0.0166573 -0.0133926 -0.0660897 0.000847 -27.402 -5.25374 6.90317 2650 
214 1 -0.0107039 -0.00614724 -0.0673101 0.000847 -27.555 1.68783 4.38007 2650 
74 1 -0.0158789 -0.00467628 -0.0662797 0.000847 -24.8596 2.94021 5.95344 2650 
160 1 -0.0226253 -0.0569771 -0.0637952 0.001312 -10.5143 -0.468815 3.72843 2650 
143 1 -0.0318086 -0.0545738 -0.0609682 0.000233 -25.5364 -5.62045 13.3226 2650 
478 1 -0.0423838 -0.0474355 -0.0541537 0.000233 -24.8464 -2.36183 19.4423 2650 
185 1 -0.0397749 -0.00574697 -0.0539285 0.001312 -6.07754 3.90491 3.71349 2650 
324 1 -0.0451315 -0.0258573 -0.0518863 0.000233 -22.1972 -6.4072 19.3032 2650 
122 1 -0.0452511 -0.0150137 -0.050983 0.000847 -26.1996 3.92598 23.2391 2650 
389 1 -0.0498578 -0.0268408 -0.0473662 0.000233 -35.6356 9.02866 37.5028 2650 
62 1 -0.0536974 -0.034975 -0.0429616 0.000233 -0.408556 -3.82225 0.51051 2650 
148 1 -0.0535863 -0.0161364 -0.0421452 0.000847 -23.5817 5.38841 29.9648 2650 
423 1 -0.0552915 -0.0172893 -0.0398848 0.000847 -23.2014 0.996393 32.1465 2650 
158 1 -0.0596118 -0.0035503 -0.0345832 8.4e-05 -13.5179 -0.252348 23.2991 2650 
233 1 -0.0575982 -0.00917817 -0.0328491 0.000233 -20.163 -11.5148 23.1476 2650 
472 1 -0.0597548 -0.00557625 -0.0328066 0.000847 -9.13924 0.46471 16.6343 2650 
332 1 -0.0611416 -0.0121587 -0.0301485 0.000847 -10.0188 -1.0258 20.304 2650 
201 1 -0.00294006 -0.0604747 -0.0290079 0.000847 -62.7817 3.86261 5.38373 2650 
116 1 -0.0646794 -0.00486658 -0.0233671 0.000233 -4.92602 12.9032 13.6321 2650 
140 1 -0.0671654 -0.0463606 -0.0147817 0.000233 -9.5913 -1.41192 43.5728 2650 
128 1 -0.00313164 -0.00232428 -0.0117599 0.000233 -0.00668717 -0.0157683 0.0142982 2650 
392 1 -0.003997 -0.00239099 -0.009609 8.4e-05 0 -0.01175 0 2650 
469 1 -0.00537374 -0.00250226 -0.00783683 0.000233 0.0113067 -0.0156393 -0.0237674 2650 
391 1 -0.001389 -0.00229799 -0.007809 0.000233 0 -0.01175 0 2650 
254 1 -0.0525739 -0.0577061 -0.00284046 0.000847 5.01292 -28.4517 34.0595 2650 
284 1 -0.0150588 -0.00102008 -0.00412959 0.000233 0.00751924 0.00111135 0.0219066 2650 
301 1 -0.000431 -0.00325799 -0.003081 8.4e-05 0 -0.01175 0 2650 
63 1 -0.000147 -0.000137989 -0.0027 0.000233 0 -0.01175 0 2650 
364 1 -0.068767 -0.0281451 -0.000809702 0.000233 -0.137081 -8.35743 11.6401 2650 
101 1 -0.0687157 -0.0268976 0.0028061 0.000233 1.74633 -5.2413 42.756 2650 
223 1 -2.90595e-05 -0.00161157 0.00035259 8.4e-05 0.0391297 -0.0180115 0.0278794 2650 
510 1 -0.0675769 -0.0103856 0.00442 0.001312 1.01416 0.469984 15.4893 2650 
251 1 -0.0154883 -0.000755021 0.00423987 0.000847 0.0210867 -0.0357163 0.050287 2650 
305 1 -0.0083502 -0.00100251 0.00415721 0.000847 -0.00613468 -0.00578691 0.00242692 2650 
243 1 -0.0679014 -0.055524 0.00618734 0.000847 3.55705 -2.10153 39.0247 2650 
70 1 -0.0677661 -0.0478875 0.00751181 0.000847 3.99937 5.29025 36.0451 2650 
1 1 -0.0134835 -0.00241081 0.00698861 0.001312 0.0330571 -0.0369665 0.0632973 2650 
422 1 -0.0129738 -0.00228838 0.00936176 0.000847 0.0399338 -0.0245393 0.0623126 2650 
339 1 -0.00186008 -0.000793464 0.012632 0.000233 0.000995867 0.00136463 -0.0165392 2650 
82 1 -0.065786 -0.0592992 0.0160819 0.001312 4.86554 1.33935 19.8804 2650 
218 1 -0.0655513 -0.047869 0.0207977 0.000233 7.84857 7.7338 24.7323 2650 
503 1 -0.0650238 -0.0560794 0.0223926 0.000233 8.97084 0.573455 26.044 2650 
47 1 -0.0103288 -0.00332775 0.0234618 0.000847 -14.0392 6.89689 3.19382 2650 
32 1 -0.0632048 -0.0600869 0.0255577 0.000847 12.198 -1.58386 30.1466 2650 
479 1 -0.0619286 -0.0305123 0.0299118 0.000233 32.6967 18.1119 67.6828 2650 
277 1 -0.0614523 -0.0218131 0.0295051 0.000847 6.84564 0.551055 14.2473 2650 
367 1 -0.0589858 -0.0335418 0.0332809 0.001312 15.2008 10.8319 26.9158 2650 
164 1 -0.0425312 -0.0349428 0.0403525 0.000847 5.41122 -16.9229 34.1433 2650 
132 1 -0.0554577 -0.0546218 0.0409144 8.4e-05 26.7795 -4.52102 36.2954 2650 
409 1 -0.05157 -0.0566311 0.0445749 0.000847 13.7912 2.29082 15.9436 2650 
448 1 -0.045683 -0.0447692 0.0505983 0.000847 27.0871 1.25762 24.4402 2650 
10 1 -0.0474015 -0.00367286 0.0498205 0.000233 11.4821 -3.65168 10.9216 2650 
175 1 -0.0440402 -0.0523339 0.0520203 0.000847 13.752 3.29149 11.6335 2650 
163 1 -0.0330399 -0.00203689 0.0596097 0.000847 13.2505 -0.0980172 7.34214 2650 
119 1 -0.0159644 -0.0319915 0.0670425 8.4e-05 127.177 -2.80625 30.282 2650 
511 1 -0.000371746 0.049269 -0.0156761 0.000847 -0.232228 -0.123576 -0.06084 2650 
212 1 -0.000566497 0.0532042 -0.0153293 0.001312 -0.322512 0.000591477 -0.0484793 2650 
373 1 -0.0112362 0.00339041 -0.0111605 0.000847 0.00692355 -0.00211586 0.00791692 2650 
55 1 -0.00712876 0.00647613 -0.0117049 0.001312 0.00891338 5.00488e-05 0.0193161 2650 
303 1 -0.00289167 0.00956684 -0.0121251 0.000847 0.00634002 0.0088215 0.0179982 2650 
147 1 -0.00935451 0.0149287 -0.0115074 0.001312 -0.0441195 0.0037041 0.05894 2650 
370 1 -0.00127118 0.00235838 -0.0105942 0.000847 -0.017839 0.00107421 -0.00812232 2650 
244 1 -0.0108155 0.00973715 -0.0100008 0.000233 -0.0196005 0.00158311 0.0267808 2650 
7 1 -0.00656913 0.00254136 -0.0072505 0.000847 0.0205857 0.00603231 0.00188761 2650 
219 1 -0.00182686 0.0061002 -0.00641236 0.000233 0.00849933 0.00349453 -0.0201485 2650 
457 1 -0.00538394 0.0178703 -0.00661318 8.4e-05 0.0444207 -0.0110293 0.145071 2650 
31 1 -0.00713387 0.00537348 -0.00594055 0.000847 0.0106736 0.00376289 -0.00691615 2650 
234 1 -0.0122307 0.00675596 -0.00617626 0.000233 -0.0196854 0.0169433 0.0404318 2650 
68 1 -0.00390722 0.007951 -0.00528483 0.001312 -0.00582103 0.00345543 0.0225763 2650 
56 1 -0.00748633 0.00733708 -0.00463438 0.001312 0.0301403 0.0110679 -0.00766892 2650 
316 1 -0.0081188 0.010149 -0.0041722 0.000847 0.013228 0.022246 -0.010569 2650 
517 1 -0.00168988 0.00023991 -0.00212051 0.000233 0.0178494 -0.00500323 -0.00130069 2650 
105 1 -0.0155676 0.0153364 -0.000509913 0.000233 -0.0330648 0.0204531 0.00729523 2650 
417 1 -0.0163237 0.00502075 0.00271602 0.000233 0.0241357 0.00559159 0.126564 2650 
208 1 -0.00100054 0.0209788 0.00244233 0.000233 -0.0198422 0.00316466 0.0326517 2650 
108 1 -0.0153579 0.0423166 0.00217939 0.001312 0.124129 -0.0700244 0.671749 2650 
432 1 -0.0126649 0.00172798 0.00468165 0.001312 0.00677409 0.0167771 0.00763661 2650 
191 1 -0.015666 0.00624189 0.00379842 0.000847 0.0791111 -0.110932 0.203704 2650 
476 1 -0.00286634 0.0139113 0.00342629 0.000847 -0.0252403 0.00358607 -0.0286498 2650 
198 1 -0.0109513 0.0510577 0.00421849 0.001312 -0.0022794 0.0423086 0.0116925 2650 
443 1 -0.0100161 0.0138356 0.00524991 0.000233 -0.00308493 0.00718174 -0.0127052 2650 
467 1 -0.00744594 0.0192568 0.00525764 0.000233 0.0125966 0.0187568 0.0155383 2650 
482 1 -0.00367567 0.0450936 0.00481898 0.000233 0.00469409 0.0342639 0.0260087 2650 
15 1 -0.0132873 0.00670573 0.00744874 0.001312 0.0288125 0.0256495 0.0549649 2650 
203 1 -0.00911643 0.00774171 0.00696269 0.000847 -0.0131843 0.00957595 -0.00713462 2650 
121 1 -0.0105837 0.0166742 0.00762669 0.001312 0.00514363 0.0158657 0.0264715 2650 
320 1 -0.0123368 0.00856382 0.00922464 0.000847 0.0161471 -0.0251117 0.0382406 2650 
49 1 -0.0142055 0.0131927 0.0086957 0.000233 0.435165 0.0499129 0.583351 2650 
60 1 -0.000641408 0.0158783 0.00852574 0.000847 0.0266497 0.0171143 0.0170395 2650 
226 1 -0.0118057 0.0215221 0.0109463 0.000847 0.237201 -0.00642284 0.316277 2650 
66 1 -0.0136877 0.0231275 0.0096307 0.000233 0.137381 0.0597498 0.302381 2650 
493 1 -0.0109271 0.0360204 0.0106592 0.000233 -0.00107092 0.0171115 -0.0293051 2650 
16 1 -0.0036373 0.0226849 0.0150865 0.001312 0.440527 0.0469257 0.109346 2650 
129 1 -0.00113759 0.0103787 0.0165477 0.000233 0.0749698 0.000321155 0.00317472 2650 
506 1 -0.00015614 0.0333071 0.0166031 0.000233 0.607525 -0.0687688 0.0244105 2650 
376 1 -0.0323488 0.0741317 0.0606832 0.000233 0.0604662 0.351233 0.0329631 2650 
328 1 -0.0259784 0.124408 0.061129 0.001312 18.5052 -6.74836 7.27536 2650 
438 1 -0.0200604 0.142239 0.0640056 0.000847 33.7839 26.6109 13.2836 2650 
85 1 0.00685296 -0.0558428 -0.0678163 0.000847 -38.0654 -2.52037 -3.84444 2650 
290 1 0.00619615 -0.025192 -0.0678805 0.000847 -39.7337 2.07469 -3.62487 2650 
315 1 0.0022022 -0.0165835 -0.067659 0.001312 -24.3821 0.414646 -0.793052 2650 
454 1 0.0108439 -0.00711946 -0.0679066 0.000233 -31.155 -4.93056 -4.97505 2650 
486 1 0.0163699 -0.0541241 -0.0661623 0.000847 -28.8227 5.04008 -7.12773 2650 
449 1 0.025532 -0.0408895 -0.0632 0.000847 -32.8704 -1.6238 -13.2712 2650 
475 1 0.0283573 -0.0435217 -0.0619823 0.000847 -29.3549 -0.50605 -13.4218 2650 
150 1 0.0345142 -0.0477414 -0.0587682 0.000847 -11.7115 1.6368 -6.87621 2650 
491 1 0.0470071 -0.00241081 -0.0501933 0.000233 -16.7273 -1.82627 -15.6616 2650 
385 1 0.0499337 -0.0162593 -0.0464154 0.000847 -27.9908 1.53919 -30.0941 2650 
429 1 0.0502563 -0.0181431 -0.0392491 0.000233 5.72605 -7.50876 4.90071 2650 
136 1 0.0567227 -0.0354301 -0.0378247 0.000847 -22.6208 7.38458 -33.9019 2650 
351 1 0.0101883 -0.0054502 -0.0376629 0.000233 1.599 -0.162497 -5.91099 2650 
435 1 0.0614243 -0.0526899 -0.0295974 0.000847 -20.061 4.65098 -41.6089 2650 
43 1 0.0620686 -0.0434637 -0.0270709 0.001312 -8.59456 2.44144 -20.0433 2650 
350 1 0.063167 -0.00777099 -0.0271924 0.000233 -12.4529 2.52757 -28.9218 2650 
149 1 0.0634437 -0.0571305 -0.0249445 0.000847 -7.44827 -0.0964664 -18.9306 2650 
180 1 0.0644095 -0.00102899 -0.0241004 0.000233 0.347853 10.8183 0.929444 2650 
167 1 0.0648792 -0.0589335 -0.0228109 0.000233 -15.6314 1.11179 -44.4512 2650 
361 1 0.065983 -0.0191228 -0.0193852 0.000233 -7.86992 -0.270161 -26.7821 2650 
4 1 0.0658929 -0.0460365 -0.0174736 0.000847 -7.84888 -5.18359 -29.9234 2650 
259 1 0.0668042 -0.0424007 -0.0159024 0.000233 -0.64501 65.2238 30.4128 2650 
394 1 0.0662425 -0.012374 -0.0161118 0.000847 -5.16694 -5.17997 -21.2285 2650 
120 1 0.0661912 -0.00735021 -0.0143314 0.001312 -4.70695 1.07771 -21.7164 2650 
207 1 0.007509 -0.000337989 -0.013163 0.000233 0 -0.01175 0 2650 
402 1 0.0677011 -0.024465 -0.0120865 0.000233 1.22216 -2.04394 6.84433 2650 
245 1 0.0675511 -0.0232057 -0.0129 0.000233 -4.09339 4.67828 -21.4306 2650 
61 1 0.067287 -0.0361694 -0.0109781 0.000847 -4.42993 4.4837 -27.1343 2650 
411 1 0.0671333 -0.0343603 -0.0119307 0.000847 -7.74014 -9.91228 -43.528 2650 
405 1 0.001255 -0.00278299 -0.009572 8.4e-05 0 -0.01175 0 2650 
224 1 0.00811323 -0.00211661 -0.0100724 0.001312 0.013442 -0.00447878 0.00326192 2650 
13 1 0.0676881 -0.0197901 -0.00803007 8.4e-05 -6.20199 -23.8175 0.695654 2650 
410 1 0.0675733 -0.0175127 -0.00900757 0.000847 -0.63519 -7.72449 -4.73177 2650 
123 1 0.0676267 -0.0254071 -0.00863084 0.000847 -2.97104 1.75265 -23.264 2650 
494 1 0.0684104 -0.0129123 -0.00704311 0.000233 -2.27899 -0.944341 -22.1315 2650 
69 1 0.0146789 -0.00163677 -0.00508195 0.001312 -0.0655554 0.0157008 -0.149823 2650 
59 1 0.0678964 -0.00287653 -0.00611287 0.000847 -0.658224 4.84587 -7.30604 2650 
39 1 0.0105401 -0.00256775 -0.00409818 0.000233 -0.00272155 -0.00885595 0.00246964 2650 
27 1 0.00966 -0.00150999 -0.004536 8.4e-05 0 -0.01175 0 2650 
80 1 0.000184 -5.49889e-05 -0.002772 8.4e-05 0 -0.01175 0 2650 
133 1 0.00667181 -0.000502693 -0.00205654 0.001312 0.00749386 -0.00495811 0.00978448 2650 
270 1 0.0107133 -0.000180933 -0.00315418 0.000233 0.0263313 -0.00238223 0.0307239 2650 
111 1 0.0681795 -0.0485218 -0.000229367 0.000847 -0.112238 3.99598 -33.3558 2650 
8 1 0.006698 -0.00106599 0.001482 0.000233 0 -0.01175 0 2650 
362 1 0.0687642 -0.0147147 0.00103935 0.000233 0.329231 -2.22708 -21.7776 2650 
426 1 0.00914346 -0.0022016 0.0020371 0.000233 0.00270092 -0.011541 -0.000995869 2650 
456 1 0.009608 -0.00306499 0.003179 0.000233 0 -0.01175 0 2650 
499 1 0.00544906 -0.000111759 0.00587414 0.000847 0.000266612 -0.00820113 0.000232395 2650 
484 1 0.0670577 -0.0486116 0.00956041 0.001312 4.6508 -5.07478 -32.5904 2650 
343 1 0.0672325 -0.0557537 0.0112671 0.000847 0.250825 -2.58525 -1.49557 2650 
375 1 0.0563706 -0.00632798 0.0375571 0.000233 12.6276 -7.41523 -16.9132 2650 
263 1 0.0544794 -0.0479426 0.0402241 0.001312 16.8053 -1.70713 -22.7386 2650 
268 1 0.0516014 -0.0550385 0.0445392 0.000847 14.734 2.00531 -17.0578 2650 
76 1 0.0489418 -0.000710386 0.0483096 0.000233 20.2126 -0.114035 -20.4723 2650 
142 1 0.0491594 -0.0167782 0.0481028 0.000233 98.8242 -30.926 -100.981 2650 
258 1 0.0418768 -0.00412209 0.0545463 0.000233 -21.8475 -2.06501 16.7697 2650 
474 1 0.0354172 -0.0338091 0.0582309 0.000847 16.8795 0.622351 -10.2284 2650 
272 1 0.0366598 -0.0320484 0.0579597 0.000233 22.7377 4.81464 -13.8894 2650 
287 1 0.0330556 -0.0293053 0.0576223 0.000233 -19.8953 87.0254 -82.6868 2650 
285 1 0.028519 -0.0488256 0.0625745 0.000233 26.9732 5.82386 -12.2931 2650 
335 1 0.0293357 -0.0345709 0.0621958 0.000233 17.1806 -0.751762 -8.10402 2650 
371 1 0.0178972 -0.0101778 0.0657692 0.000847 34.3074 -2.20689 -9.3308 2650 
433 1 0.0105313 -0.0390007 0.0673415 0.000847 34.9781 -0.521341 -5.46712 2650 
406 1 0.00795901 -0.0341777 0.0672198 0.001312 16.8385 -0.162196 -1.99311 2650 
515 1 0.0585308 0.0345102 -0.0349454 0.000847 -11.6346 -0.432498 -19.4732 2650 
48 1 0.00608597 0.000365946 -0.0142231 0.000847 0.00523778 -0.00998944 0.00223374 2650 
372 1 0.000365338 0.00233487 -0.0156986 0.000847 -0.0786305 -0.0358226 0.00223738 2650 
445 1 8.5389e-05 0.0179799 -0.0155795 0.001312 -1.08624 0.121302 -0.0481837 2650 
444 1 0.000432 0.000519011 -0.014191 8.4e-05 0 -0.01175 0 2650 
228 1 0.00468331 0.00694364 -0.0138202 0.000847 -0.00272244 0.00624097 0.000925884 2650 
256 1 0.00782814 0.0114876 -0.0130828 0.000847 -0.223017 -0.357013 -0.0367419 2650 
430 1 0.0111639 0.0125949 -0.0123855 0.000233 -0.007782 -0.0466067 -0.00593219 2650 
94 1 0.00344705 0.00195619 -0.0106669 0.001312 0.000237904 -0.00845303 0.00446709 2650 
95 1 9.21214e-05 0.010935 -0.0105955 0.001312 0.0114944 0.0037926 0.000538071 2650 
366 1 0.0114677 0.00139393 -0.0091443 8.4e-05 0.00781462 -0.00760013 0.00939002 2650 
36 1 0.0137673 0.0053769 -0.00932753 0.000233 0.0124431 -0.00113439 0.0231808 2650 
260 1 0.0123338 0.0313758 -0.00913622 0.000233 0.0215142 0.0236674 -0.0271095 2650 
12 1 0.0062163 0.0032023 -0.00766365 0.000233 -9.2907e-05 -0.00146252 0.0101717 2650 
495 1 0.00784743 0.0124209 -0.00687187 0.000233 0.00404857 0.00775653 0.0320607 2650 
377 1 0.002656 0.000320011 -0.00627 0.000233 0 -0.01175 0 2650 
489 1 0.0148486 0.0116112 -0.00534875 0.000847 -0.0224109 0.00595894 -0.087002 2650 
235 1 0.00227606 0.0130658 -0.00576437 0.000233 0.00957308 0.00831343 -0.0211173 2650 
222 1 0.014194 0.0436585 -0.00619396 0.000233 -0.0627083 0.185024 -0.137327 2650 
96 1 0.00298664 0.0520883 -0.00554846 0.000847 0.00713071 0.0821639 -0.0519866 2650 
347 1 0.000187848 0.00570921 -0.00356851 0.000847 -0.0658938 0.0253868 -0.0472686 2650 
512 1 0.00170474 0.0284942 -0.00428674 0.000847 0.00867512 0.0290047 0.0037544 2650 
216 1 0.00766123 0.0278267 -0.00428503 0.000847 -0.113128 -0.0248304 -0.0291195 2650 
374 1 0.00610076 0.0347472 -0.00360685 0.000233 0.0145183 0.0293797 -0.00883705 2650 
292 1 0.00775749 0.00161455 -0.00174342 0.000847 0.00633071 -0.000286617 0.00678711 2650 
98 1 0.0153773 0.00366594 -0.00202726 0.000847 -0.0269123 -0.0160802 -0.0297099 2650 
135 1 0.0142187 0.0051517 -0.00316089 0.000847 -0.00848635 0.000746024 -0.0996064 2650 
309 1 0.0164621 0.0200787 -0.00215849 0.000233 -0.146824 0.00100196 -0.834941 2650 
103 1 0.005836 0.000243011 -0.000854 0.000233 0 -0.01175 0 2650 
338 1 0.00645011 0.00234364 -0.00128853 0.000233 -0.00271292 -0.00171649 -0.0109378 2650 
50 1 0.00617209 0.0707012 -0.000271077 0.000233 0.0582666 0.0867012 -0.000404557 2650 
265 1 0.00801958 2.42469e-06 0.000189802 0.000847 -0.00940095 -0.0047388 -0.0108659 2650 
386 1 0.0146638 0.00225112 0.000605489 0.000847 0.00949406 -0.00132672 0.0175477 2650 
242 1 0.00122824 0.015849 0.00104797 0.000847 0.0210544 0.00969789 -0.00499855 2650 
383 1 0.00120447 0.0186418 0.00109683 0.000847 -0.0180844 0.00999593 0.00334075 2650 
296 1 0.00614571 0.0108552 0.00523729 0.000233 0.0166346 0.00164492 -0.0186807 2650 
186 1 0.0141347 0.0531499 0.00574453 0.001312 0.0215198 0.0440623 -0.00180283 2650 
204 1 0.0046729 0.00305464 0.00735423 0.000847 0.0254012 -0.00769949 0.00783304 2650 
107 1 0.00751431 0.0292727 0.009099 0.001312 0.00952862 -0.000121603 0.000848496 2650 
388 1 0.0133116 0.0138773 0.00963783 0.000233 0.0854404 0.0577204 -0.0599817 2650 
22 1 0.00177078 0.0641846 0.010328 0.000233 -0.00916307 0.0372144 -0.0289109 2650 
459 1 0.0146298 0.0643487 0.0539718 0.000847 2.35771 0.322223 8.05088 2650 
213 1 0.0583531 0.109019 -0.0353157 0.000847 -42.8623 4.14163 -70.7882 2650 
455 1 0.000113246 0.128115 -0.0138675 0.000233 0.0174931 0.128162 -0.025383 2650 
154 1 0.00366033 0.143374 -0.00848825 0.000233 -0.00924804 0.118602 0.00100956 2650 
408 1 0.0586252 0.128663 0.0347762 0.000847 1.31837 -0.170698 -2.22063 2650 
