ITEM: TIMESTEP
15740739
ITEM: NUMBER OF ATOMS
239
ITEM: BOX BOUNDS ff ff ff
-0.15 0.15
-0.15 0.15
-0.15 0.15
ITEM: ATOMS id type x y z radius vx vy vz density 
348 1 -0.0171452 -0.0187764 -0.0665977 0.000233 -69.0656 4.75695 17.7778 2650 
503 1 -0.0276289 -0.0206724 -0.0629727 0.000233 -31.0203 1.21635 13.6096 2650 
332 1 -0.0282316 -0.0290394 -0.0620368 0.000847 -25.7035 1.41178 11.6894 2650 
371 1 -0.0276423 -0.024805 -0.0623014 0.000847 -25.7072 -6.16766 11.3993 2650 
180 1 -0.0421792 -0.0190983 -0.054313 0.000233 -23.8129 -3.19365 18.4894 2650 
120 1 -0.0428098 -0.0491705 -0.0524629 0.001312 -22.8152 -0.792209 18.5992 2650 
119 1 -0.0491751 -0.029297 -0.0482833 8.4e-05 -23.3522 -5.925 23.7812 2650 
59 1 -0.045324 -0.00802948 -0.0491565 0.000847 -4.49201 7.22601 7.1589 2650 
491 1 -0.0533131 -0.0625669 -0.043449 0.000233 -51.3625 -0.009478 64.0854 2650 
92 1 -0.0538719 -0.00617777 -0.0427521 0.000233 -57.7083 -9.72146 72.7065 2650 
350 1 -0.056005 -0.0606632 -0.0399105 0.000233 -25.2621 3.08329 35.4423 2650 
233 1 -0.04645 -0.038754 -0.0414369 0.000233 -21.5105 -16.3848 24.3092 2650 
214 1 -0.0554488 -0.031997 -0.0396894 0.000847 -30.4522 -8.29081 42.2795 2650 
158 1 -0.0598603 -0.023128 -0.0341526 8.4e-05 -42.7978 22.8288 75.0078 2650 
310 1 -0.0605207 -0.0209535 -0.0326728 0.000233 -52.1086 -28.7526 96.5063 2650 
192 1 -0.0649513 -0.0327128 -0.0226026 0.000233 -11.1831 -3.24191 32.1295 2650 
287 1 -0.0630415 -0.0192545 -0.0205557 0.000233 -2.55394 6.4 14.9823 2650 
128 1 -0.00232918 -0.000432101 -0.0134757 0.000233 -0.00668717 -0.0157683 0.0142982 2650 
168 1 -0.068057 -0.029781 -0.00989131 0.000233 -3.85445 -4.19694 26.5151 2650 
435 1 -0.00539121 -0.00315002 -0.0106104 0.000847 0.000150908 -0.0115526 0.000677517 2650 
392 1 -0.003997 -0.000980998 -0.009609 8.4e-05 0 -0.01175 0 2650 
343 1 -0.0678982 -0.0349102 -0.00637695 0.000847 -5.84749 14.4775 62.2268 2650 
13 1 -0.0134304 -0.00236649 -0.00720043 8.4e-05 0.00214706 -0.0179005 0.0214414 2650 
391 1 -0.001389 -0.000887998 -0.007809 0.000233 0 -0.01175 0 2650 
167 1 -0.068735 -0.0032817 -0.00235564 0.000233 -2.69063 22.1183 78.4959 2650 
364 1 -0.0153249 -0.00227376 -0.00575172 0.000233 0.00431127 -0.013851 -0.00393932 2650 
284 1 -0.0140674 -0.00103808 -0.00609717 0.000233 -0.0346642 -0.00145897 0.00717769 2650 
469 1 -0.00673054 -0.000625556 -0.00498475 0.000233 0.0113067 -0.0156393 -0.0237674 2650 
272 1 -0.0687609 -0.0344631 -0.0012802 0.000233 -0.771532 -1.05625 41.4315 2650 
210 1 -0.0147596 -0.00203882 -0.00460272 8.4e-05 0.0140425 -0.0263433 0.0286459 2650 
365 1 -0.0683365 -0.059203 0.000702958 0.000233 -7.57966 3.91372 59.8676 2650 
164 1 -0.0681771 -0.0566199 -0.000279646 0.000847 -0.116771 0.410964 28.4408 2650 
301 1 -0.000431 -0.001848 -0.003081 8.4e-05 0 -0.01175 0 2650 
477 1 -0.0687718 -0.0161347 0.000241861 0.000233 0.0990571 2.16669 28.1618 2650 
305 1 -0.00761404 -0.000308083 0.00386598 0.000847 -0.00613468 -0.00578691 0.00242692 2650 
389 1 -0.0680284 -0.0520378 0.0100976 0.000233 8.43938 -6.4879 56.8464 2650 
362 1 -0.0682561 -0.0443683 0.00840692 0.000233 2.62103 0.831884 21.2759 2650 
143 1 -0.0677696 -0.0193498 0.0117039 0.000233 7.5845 -5.44463 43.9087 2650 
339 1 -0.00197958 -0.000957218 0.0146167 0.000233 0.000995867 0.00136463 -0.0165392 2650 
312 1 -0.0630317 -0.0517852 0.0275035 0.000233 9.02754 2.08945 20.6846 2650 
61 1 -0.0588067 -0.0403415 0.0344884 0.000847 16.3095 -8.32062 27.7915 2650 
501 1 -0.0575194 -0.0377076 0.0365914 0.000847 15.997 3.76282 25.1295 2650 
460 1 -0.0555925 -0.0438857 0.0394741 0.000847 27.9248 2.82781 39.3045 2650 
315 1 -0.0531568 -0.0119552 0.03751 0.001312 3.4458 -5.87203 5.24883 2650 
10 1 -0.0558217 -0.0539324 0.040167 0.000233 27.8428 -4.39182 38.6866 2650 
294 1 -0.0556056 -0.0347724 0.0394422 0.000847 20.391 -12.4183 28.7289 2650 
475 1 -0.0528116 -0.024512 0.0431132 0.000847 25.0215 6.57818 30.6311 2650 
243 1 -0.0464598 -0.0248305 0.0451786 0.000847 29.3718 17.4539 32.1419 2650 
474 1 -0.05179 -0.00290671 0.0443187 0.000847 13.1969 0.696675 15.4101 2650 
487 1 -0.0471245 -0.0440325 0.0492562 0.000847 23.4849 2.06658 22.4538 2650 
290 1 -0.0472304 -0.0170874 0.0491521 0.000847 21.091 -1.53338 20.2526 2650 
82 1 -0.000854871 -0.0266416 0.0677023 0.001312 35.0414 2.4352 0.442056 2650 
411 1 -0.0277362 -0.023004 0.0622631 0.000847 30.2104 -7.68536 13.4495 2650 
434 1 -0.0261943 -0.0215012 0.0629256 0.000847 28.6906 -3.3453 11.936 2650 
423 1 -0.0203281 -0.0137524 0.0650567 0.000847 29.645 -0.873655 9.25791 2650 
519 1 -0.0194307 -0.00653725 0.0659655 0.000233 42.1514 -8.77363 12.4728 2650 
142 1 -0.0193409 -0.00564068 0.0659909 0.000233 36.9934 2.53826 10.8071 2650 
438 1 -0.0248505 0.0723116 -0.0634611 0.000847 -12.4966 -2.7175 4.89326 2650 
309 1 -0.0016878 0.0275614 -0.0160197 0.000233 -0.0916212 0.0319739 0.0206614 2650 
231 1 -0.00428265 0.0521983 -0.0155116 0.000233 -58.1465 135.542 19.6757 2650 
303 1 -0.00365247 0.00850827 -0.0142849 0.000847 0.00634002 0.0088215 0.0179982 2650 
459 1 -0.0032047 0.0282231 -0.0156919 0.000847 -0.112144 0.0567403 0.0184983 2650 
376 1 -0.00468539 0.0379428 -0.0156125 0.000233 -0.230371 -0.0211132 0.0604382 2650 
244 1 -0.0084635 0.00954718 -0.0132145 0.000233 -0.0196005 0.00158311 0.0267808 2650 
147 1 -0.00035658 0.014306 -0.0126523 0.001312 -0.0875536 0.00579552 -0.0105793 2650 
417 1 -0.011755 0.0050094 -0.0116023 0.000233 -0.0861479 -0.00460138 0.100324 2650 
55 1 -0.00717174 0.00660414 -0.0122489 0.001312 -0.023898 -0.00423728 -0.0373833 2650 
289 1 -0.0101129 0.0123723 -0.0119537 0.001312 -0.0700099 0.0271324 0.0492357 2650 
234 1 -0.00986849 0.00472278 -0.011028 0.000233 -0.0196854 0.0169433 0.0404318 2650 
373 1 -0.00937984 0.00380915 -0.0100651 0.000847 -0.0192249 -0.00371979 -0.0119874 2650 
95 1 -0.0012872 0.0104799 -0.01066 0.001312 0.0114944 0.0037926 0.000538071 2650 
68 1 -0.0032087 0.00753635 -0.00799396 0.001312 -0.00582103 0.00345543 0.0225763 2650 
7 1 -0.0090394 0.00181749 -0.00747701 0.000847 0.0205857 0.00603231 0.00188761 2650 
31 1 -0.00841469 0.00492193 -0.00511062 0.000847 0.0106736 0.00376289 -0.00691615 2650 
160 1 -0.0138062 0.00523198 -0.00367112 0.001312 0.021967 -0.130267 0.0898882 2650 
56 1 -0.0111602 0.00583751 -0.00378816 0.001312 0.0316169 0.0155057 -0.00575204 2650 
219 1 -0.00284678 0.00568085 -0.00399455 0.000233 0.00849933 0.00349453 -0.0201485 2650 
251 1 -0.0151974 0.00669737 -0.00464017 0.000847 -0.00823622 -0.112728 0.111418 2650 
1 1 -0.0154139 0.000269972 -0.00168736 0.001312 -0.00176018 -0.00359413 0.0739305 2650 
223 1 -0.0047246 0.000549804 -0.00299292 8.4e-05 0.0391297 -0.0180115 0.0278794 2650 
517 1 -0.00383179 0.000840294 -0.00196442 0.000233 0.0178494 -0.00500323 -0.00130069 2650 
63 1 -0.000147 0.001272 -0.0027 0.000233 0 -0.01175 0 2650 
316 1 -0.00949416 0.00811667 -0.00262872 0.000847 0.00774 0.0057524 -0.0176933 2650 
422 1 -0.0140185 0.00062266 -6.77361e-05 0.000847 -0.00746201 -0.0241136 0.0870016 2650 
394 1 -0.0145218 0.00687232 -0.00126246 0.000847 -0.141939 -0.259699 0.63688 2650 
105 1 -0.0115998 0.0128821 -0.00138533 0.000233 -0.0330648 0.0204531 0.00729523 2650 
50 1 -0.000819853 0.0602971 -0.00022253 0.000233 0.0582666 0.0867012 -0.000404557 2650 
15 1 -0.0153329 0.00353807 0.000139325 0.001312 0.00384024 0.0272369 0.0675882 2650 
242 1 -0.00129828 0.0146852 0.0016478 0.000847 0.0210544 0.00969789 -0.00499855 2650 
482 1 -0.00423896 0.040982 0.00169796 0.000233 0.00469409 0.0342639 0.0260087 2650 
198 1 -0.0106777 0.0459807 0.00281539 0.001312 -0.0022794 0.0423086 0.0116925 2650 
432 1 -0.0113637 0.000983948 0.00469088 0.001312 -0.0250999 -0.00228668 -0.00642198 2650 
320 1 -0.0142744 0.0115772 0.0046358 0.000847 0.0161471 -0.0251117 0.0382406 2650 
121 1 -0.0112009 0.0147704 0.00445013 0.001312 0.00514363 0.0158657 0.0264715 2650 
467 1 -0.00895752 0.017006 0.00339306 0.000233 0.0125966 0.0187568 0.0155383 2650 
66 1 -0.0153775 0.0229503 0.00514921 0.000233 0.323972 0.286812 1.18319 2650 
203 1 -0.00753433 0.0065926 0.00781884 0.000847 -0.0131843 0.00957595 -0.00713462 2650 
443 1 -0.00964592 0.0129738 0.00677452 0.000233 -0.00308493 0.00718174 -0.0127052 2650 
60 1 -0.00383935 0.0138245 0.00648102 0.000847 0.0266497 0.0171143 0.0170395 2650 
430 1 -0.0145542 0.0153391 0.00825312 0.000233 0.475619 -0.186112 0.633819 2650 
445 1 -0.0122125 0.0186988 0.0096516 0.001312 1.00476 0.15836 1.35128 2650 
108 1 -0.0118059 0.0360274 0.0101835 0.001312 0.482578 0.0886191 0.646924 2650 
172 1 -0.00667894 0.0395387 0.0104637 0.001312 0.119573 -0.0866423 0.0292698 2650 
493 1 -0.00880523 0.0335401 0.0121976 0.000233 -0.0446942 0.0264551 0.0139846 2650 
129 1 -0.00960999 0.0100109 0.013647 0.000233 0.0575775 0.00661329 0.0502877 2650 
49 1 -0.00692414 0.0181539 0.0151494 0.000233 0.759492 -0.0614338 0.401124 2650 
104 1 -0.0499121 0.106171 -0.0473611 0.000233 -239.504 0.622261 252.379 2650 
455 1 -0.00198592 0.112735 -0.0108216 0.000233 0.0174931 0.128162 -0.025383 2650 
408 1 -0.0114611 0.126933 0.00994429 0.000847 -0.0344733 0.14315 0.0184004 2650 
328 1 -0.0560282 0.149039 0.0380076 0.001312 -0.0503101 -0.0343227 -0.0740675 2650 
225 1 -0.0144865 0.0758547 0.065754 0.001312 -2.07729 8.45378 -1.0333 2650 
321 1 -0.00507602 0.137301 0.068008 0.000847 84.6724 -10.3604 6.3167 2650 
140 1 0.000392716 -0.0589191 -0.0687688 0.000233 -82.1755 -4.38006 -0.469203 2650 
85 1 0.00487358 -0.055733 -0.0679857 0.000847 -36.0489 5.10446 -2.58279 2650 
335 1 0.0160963 -0.0502779 -0.0668567 0.000233 -34.6047 -1.34805 -8.33124 2650 
131 1 0.0111331 -0.00384777 -0.0678598 0.000233 -27.9036 -2.30918 -4.57787 2650 
433 1 0.0140496 -0.0347734 -0.0667072 0.000847 -49.1562 1.7086 -10.3473 2650 
409 1 0.017365 -0.00525614 -0.0659063 0.000847 -25.1747 -3.77048 -6.63028 2650 
32 1 0.0207068 -0.01238 -0.0649374 0.000847 -29.7662 -2.11417 -9.48627 2650 
76 1 0.0299895 -0.00528853 -0.0617514 0.000233 0.244303 -0.118734 -0.103226 2650 
200 1 0.0298846 -0.0364969 -0.0612657 0.000847 -34.9302 -1.83534 -17.0281 2650 
150 1 0.0325176 -0.0604759 -0.0599075 0.000847 -30.2557 2.85966 -16.4131 2650 
136 1 0.0343873 -0.0435027 -0.0588644 0.000847 -40.6552 7.39834 -23.736 2650 
494 1 0.0370698 -0.0520586 -0.0579224 0.000233 -45.0686 -21.4233 -28.8382 2650 
263 1 0.0360547 -0.0262976 -0.0573178 0.001312 -28.3371 -7.68166 -17.8083 2650 
148 1 0.0476945 -0.0412108 -0.0487071 0.000847 -25.2579 4.87304 -24.7169 2650 
4 1 0.0568411 -0.0144189 -0.0376251 0.000847 -9.13539 -6.34543 -13.7905 2650 
245 1 0.0579599 -0.0536892 -0.0370141 0.000233 -19.7938 -7.31989 -30.9885 2650 
448 1 0.0214309 -0.0212375 -0.0350594 0.000847 -14.808 -2.40227 -7.93856 2650 
367 1 0.0554673 -0.0520044 -0.0331355 0.001312 -1.25964 -20.1465 -6.32705 2650 
123 1 0.0619048 -0.0569517 -0.0285402 0.000847 -3.94721 -2.56422 -8.555 2650 
285 1 0.00964616 -0.00865749 -0.0200735 0.000233 0.922007 -1.17413 -2.12147 2650 
185 1 0.0660686 -0.0364835 -0.014947 0.001312 -7.90747 1.48598 -34.9214 2650 
149 1 0.0417246 -0.0168936 -0.0139264 0.000847 -1.32564 -24.9681 -47.286 2650 
405 1 0.001255 -0.001373 -0.009572 8.4e-05 0 -0.01175 0 2650 
224 1 0.00650019 -0.00157916 -0.0104638 0.001312 0.013442 -0.00447878 0.00326192 2650 
74 1 0.008324 -0.002915 -0.003253 0.000847 0 -0.01175 0 2650 
133 1 0.00571067 -2.07655e-06 -0.00327084 0.001312 0.00939825 -0.00205418 0.0110207 2650 
39 1 0.0108667 -0.00150504 -0.00439454 0.000233 -0.00272155 -0.00885595 0.00246964 2650 
27 1 0.00966 -9.99979e-05 -0.004536 8.4e-05 0 -0.01175 0 2650 
351 1 0.000422 -0.00218 -0.00156 0.000233 0 -0.01175 0 2650 
472 1 0.012143 -0.002235 0.001212 0.000847 0 -0.01175 0 2650 
116 1 8e-05 -0.003131 0.00308 0.000233 0 -0.01175 0 2650 
132 1 0.013326 -0.002574 0.002036 8.4e-05 0 -0.01175 0 2650 
426 1 0.00881935 -0.000816695 0.0021566 0.000233 0.00270092 -0.011541 -0.000995869 2650 
456 1 0.009608 -0.001655 0.003179 0.000233 0 -0.01175 0 2650 
111 1 0.0679688 -0.0251046 0.00537116 0.000847 2.78161 -0.371675 -35.1771 2650 
218 1 0.068327 -0.0164814 0.0078201 0.000233 5.33388 2.02055 -46.5952 2650 
462 1 0.0674853 -0.0176939 0.00970823 0.000847 4.90765 0.897224 -34.0931 2650 
69 1 0.00895426 -0.00283943 0.0126305 0.001312 0.13681 0.00418286 -0.1007 2650 
378 1 0.0653907 -0.0618758 0.00155238 0.000233 -59.1085 3.76143 -328.483 2650 
175 1 0.0641262 -0.0221421 0.0231538 0.000847 11.9242 5.87514 -33.0041 2650 
163 1 0.061811 -0.024537 0.0287629 0.000847 13.7626 -0.500866 -29.5564 2650 
478 1 0.00857509 -0.0116958 0.0682303 0.000233 29.7696 -2.44635 -3.74139 2650 
62 1 0.0611812 -0.0369418 0.031431 0.000233 24.4919 -5.33469 -36.2737 2650 
375 1 0.0610902 -0.0204299 0.0315824 0.000233 15.9352 -0.965795 -30.8173 2650 
406 1 0.0604228 -0.0531049 0.0307082 0.001312 31.3329 -10.1587 -61.6063 2650 
385 1 0.0602717 -0.0372662 0.0318699 0.000847 18.935 9.57933 -36.0726 2650 
268 1 0.0594227 -0.00796863 0.0334081 0.000847 11.8207 1.01605 -21.0106 2650 
410 1 0.055091 -0.0028042 0.0401467 0.000847 13.8459 0.250217 -18.9863 2650 
122 1 0.0537357 -0.0510582 0.0419598 0.000847 26.7338 -2.18094 -34.2166 2650 
297 1 0.0520658 -0.0468988 0.044927 0.000233 25.502 6.88337 -29.548 2650 
449 1 0.0455413 -0.00987482 0.0507142 0.000847 16.0217 -4.35909 -14.3768 2650 
254 1 0.0443233 -0.034251 0.0517851 0.000847 20.4822 -2.8059 -17.5187 2650 
43 1 0.0439474 -0.0182063 0.0515249 0.001312 27.3415 -1.46238 -23.2992 2650 
486 1 0.0422131 -0.0211496 0.0535226 0.000847 26.0931 -0.971051 -20.5662 2650 
258 1 0.0404275 -0.0542476 0.0556306 0.000233 38.2164 -8.7578 -27.7671 2650 
101 1 0.0401267 -0.0451105 0.0558471 0.000233 31.7965 -2.20564 -22.8417 2650 
70 1 0.0371798 -0.0196658 0.0571319 0.000847 28.1477 -2.94129 -18.3061 2650 
484 1 0.0261678 -0.0610554 0.0624433 0.001312 26.9942 -2.72743 -11.3019 2650 
253 1 0.0298963 -0.0386687 0.0612553 0.000847 29.322 -5.26657 -14.3022 2650 
402 1 0.00178445 -0.06165 0.0644361 0.000233 19.934 6.22991 -1.3017 2650 
454 1 0.021055 -0.0579892 0.0654644 0.000233 25.2968 -0.374017 -8.13282 2650 
277 1 0.0194388 -0.041032 0.0653465 0.000847 54.9978 -8.2783 -16.3516 2650 
479 1 0.023977 -0.0145575 0.0644516 0.000233 30.8866 -7.02333 -11.4901 2650 
47 1 0.020212 -0.0109842 0.0650896 0.000847 24.1938 4.63244 -7.5096 2650 
138 1 0.0126577 -0.0519896 0.0669688 0.000847 23.389 -1.80741 -4.41894 2650 
510 1 0.0143047 -0.04957 0.0661724 0.001312 27.3834 -1.12605 -5.90519 2650 
190 1 0.0165116 -0.0483287 0.0661252 0.000847 27.052 2.363 -6.81039 2650 
201 1 0.00934652 -0.0413342 0.0675232 0.000847 45.5386 0.582426 -6.29991 2650 
324 1 0.0169139 -0.0308263 0.0662839 0.000233 56.9623 -1.00905 -3.98211 2650 
361 1 0.00877291 -0.0555668 0.0682053 0.000233 45.8441 6.68328 -5.89641 2650 
429 1 0.00145066 -0.00688633 0.0538383 0.000233 70.8789 -38.3757 -77.0586 2650 
271 1 0.0408932 0.0577634 -0.0553052 0.000233 138.114 2.51202 102.109 2650 
48 1 0.00545744 0.00156467 -0.0144911 0.000847 0.00523778 -0.00998944 0.00223374 2650 
207 1 0.007509 0.001072 -0.013163 0.000233 0 -0.01175 0 2650 
444 1 0.000432 0.001929 -0.014191 8.4e-05 0 -0.01175 0 2650 
228 1 0.00501 0.00619472 -0.0139313 0.000847 -0.00272244 0.00624097 0.000925884 2650 
372 1 0.00906847 0.00662023 -0.0131548 0.000847 -0.0698716 -0.0356633 -0.031392 2650 
191 1 0.000713516 0.0184932 -0.0128707 0.000847 -0.065179 0.00913092 -0.0565508 2650 
94 1 0.0034185 0.00297055 -0.011203 0.001312 0.000237904 -0.00845303 0.00446709 2650 
36 1 0.01174 0.0055266 -0.0117618 0.000233 0.0174023 -0.00126043 0.0199558 2650 
226 1 0.0115541 0.0226172 -0.0112804 0.000847 -0.310488 -0.00509 -0.41328 2650 
511 1 0.00403407 0.0476494 -0.0113968 0.000847 0.00544893 0.0430587 -0.0302308 2650 
370 1 0.000869485 0.00222948 -0.00961949 0.000847 -0.017839 0.00107421 -0.00812232 2650 
366 1 0.0105299 0.00230595 -0.0102711 8.4e-05 0.00781462 -0.00760013 0.00939002 2650 
495 1 0.00736161 0.0114901 -0.0107191 0.000233 0.00404857 0.00775653 0.0320607 2650 
256 1 0.00921264 0.0142129 -0.0105414 0.000847 0.0162526 0.00805606 -0.0201253 2650 
16 1 0.012137 0.020662 -0.00978872 0.001312 -0.341292 -0.0526116 -0.459009 2650 
12 1 0.00622745 0.0033778 -0.00888424 0.000233 -9.2907e-05 -0.00146252 0.0101717 2650 
270 1 0.00755355 0.000104933 -0.00684102 0.000233 0.0263313 -0.00238223 0.0307239 2650 
377 1 0.002656 0.00173 -0.00627 0.000233 0 -0.01175 0 2650 
512 1 0.000663732 0.0250137 -0.00473726 0.000847 0.00867512 0.0290047 0.0037544 2650 
260 1 0.00975215 0.0285357 -0.0058831 0.000233 0.0215142 0.0236674 -0.0271095 2650 
235 1 0.0011273 0.0120682 -0.00323031 0.000233 0.00957308 0.00831343 -0.0211173 2650 
80 1 0.000184 0.001355 -0.002772 8.4e-05 0 -0.01175 0 2650 
292 1 0.00722778 0.00199962 -0.00240857 0.000847 -0.000747226 -0.0110795 0.00219246 2650 
457 1 0.00713599 0.0209705 -0.00161634 8.4e-05 -0.241359 -0.0394734 -0.213631 2650 
374 1 0.00435858 0.0312217 -0.00254641 0.000233 0.0145183 0.0293797 -0.00883705 2650 
103 1 0.005836 0.001653 -0.000854 0.000233 0 -0.01175 0 2650 
386 1 0.0135245 0.00241032 -0.00150022 0.000847 0.00949406 -0.00132672 0.0175477 2650 
208 1 0.00138051 0.0205991 -0.00147585 0.000233 -0.0198422 0.00316466 0.0326517 2650 
506 1 0.0166382 0.02818 -0.000640391 0.000233 0.0271712 0.119693 -0.694897 2650 
8 1 0.006698 0.000344002 0.001482 0.000233 0 -0.01175 0 2650 
265 1 0.00914769 0.000571077 0.0014937 0.000847 -0.00940095 -0.0047388 -0.0108659 2650 
338 1 0.00677566 0.00254961 2.39914e-05 0.000233 -0.00271292 -0.00171649 -0.0109378 2650 
98 1 0.0143636 0.004191 0.000987978 0.000847 0.0135438 0.000788741 -0.0212881 2650 
383 1 0.00337458 0.0174423 0.00069594 0.000847 -0.0180844 0.00999593 0.00334075 2650 
96 1 0.00213096 0.0422286 0.000689892 0.000847 0.00713071 0.0821639 -0.0519866 2650 
347 1 0.00809505 0.00266282 0.00210369 0.000847 -0.0658938 0.0253868 -0.0472686 2650 
216 1 0.00551236 0.0315313 0.00236382 0.000847 0.221795 -0.0402742 -0.0963161 2650 
499 1 0.00541707 0.00087237 0.00584625 0.000847 0.000266612 -0.00820113 0.000232395 2650 
489 1 0.0149957 0.0108877 0.00531629 0.000847 0.0169438 0.00608996 -0.0904825 2650 
186 1 0.0115523 0.0478624 0.00596086 0.001312 0.0215198 0.0440623 -0.00180283 2650 
204 1 0.00162478 0.00397857 0.00641427 0.000847 0.0254012 -0.00769949 0.00783304 2650 
296 1 0.00414957 0.0106578 0.00747896 0.000233 0.0166346 0.00164492 -0.0186807 2650 
476 1 0.000162479 0.013481 0.00686424 0.000847 -0.0252403 0.00358607 -0.0286498 2650 
107 1 0.00637089 0.0292872 0.00899718 0.001312 0.00952862 -0.000121603 0.000848496 2650 
515 1 0.0109966 0.051151 0.00796061 0.000847 0.104652 0.375793 -0.339664 2650 
135 1 0.0111969 0.00703409 0.0103851 0.000847 0.160022 -0.0258535 -0.063101 2650 
222 1 0.0099142 0.0215201 0.0113298 0.000233 0.0843826 0.184223 -0.150343 2650 
22 1 0.00287034 0.0597189 0.0137973 0.000233 -0.00916307 0.0372144 -0.0289109 2650 
212 1 0.00160423 0.0495504 0.0154065 0.001312 0.425786 0.100281 -0.111343 2650 
388 1 0.00279958 0.00684322 0.0161172 0.000233 0.115855 0.0703484 0.0243111 2650 
152 1 0.0424251 0.0192202 0.0533398 0.000847 12.8508 8.62509 -9.43699 2650 
252 1 0.0463997 0.0963418 -0.0499218 0.000847 0.974026 -0.825419 0.904461 2650 
213 1 0.0621477 0.0869563 -0.028116 0.000847 -35.4549 -11.5156 -78.3325 2650 
259 1 0.0118698 0.124497 -0.00980674 0.000233 0.0525523 0.141986 0.000142195 2650 
154 1 0.00477009 0.129142 -0.0086094 0.000233 -0.00924804 0.118602 0.00100956 2650 
