ITEM: TIMESTEP
22222179
ITEM: NUMBER OF ATOMS
146
ITEM: BOX BOUNDS ff ff ff
-0.15 0.15
-0.15 0.15
-0.15 0.15
ITEM: ATOMS id type x y z radius vx vy vz density 
63 1 -0.0038504 -0.0062782 -0.0679035 0.000233 -0.0366952 -0.143058 -0.203892 2650 
409 1 -0.0046892 -0.0027244 -0.0679912 0.000847 -21.4847 -1.70284 1.50941 2650 
76 1 -0.0237822 -0.0600708 -0.0645245 0.000233 -47.7201 -15.9927 17.5863 2650 
375 1 -0.0464169 -0.0418739 -0.0507402 0.000233 -24.1135 4.65069 22.0541 2650 
510 1 -0.0440736 -0.0154306 -0.0514172 0.001312 -27.3102 -1.50099 23.3882 2650 
128 1 -0.0470174 -0.0131712 -0.0501827 0.000233 -6.73221 -1.67142 6.30598 2650 
429 1 -0.0600601 -0.061296 -0.0335057 0.000233 -37.5492 -1.46384 67.2967 2650 
228 1 -0.0601457 -0.0168672 -0.0321095 0.000847 -20.045 -3.32075 37.5245 2650 
433 1 -0.06162 -0.0521981 -0.029178 0.000847 -16.8576 6.98237 35.579 2650 
74 1 -0.0641433 -0.0563866 -0.0231177 0.000847 -14.3062 6.08592 39.6706 2650 
478 1 -0.0649807 -0.0503106 -0.0225171 0.000233 -8.53026 2.07974 24.6118 2650 
284 1 -0.012803 -0.000686677 0.00244235 0.000233 0.00751924 0.00111135 0.0219066 2650 
305 1 -0.0101906 -0.00273857 0.00488528 0.000847 -0.00613468 -0.00578691 0.00242692 2650 
339 1 -0.00156132 -0.000384078 0.00767031 0.000233 0.000995867 0.00136463 -0.0165392 2650 
422 1 -0.0659205 -0.010174 0.0174259 0.000847 11.4605 1.8734 43.329 2650 
4 1 -0.0644036 -0.029226 0.022393 0.000847 15.5627 3.86906 44.7334 2650 
120 1 -0.0589694 -0.0586965 0.0333037 0.001312 13.8239 0.838455 24.4536 2650 
143 1 -0.0596934 -0.0226625 0.0341502 0.000233 23.7711 -5.40364 41.543 2650 
1 1 -0.0408713 -0.0291051 0.0540441 0.001312 50.2053 6.97196 37.9391 2650 
324 1 -0.0393862 -0.0136923 0.0563718 0.000233 32.4824 0.396838 22.6907 2650 
256 1 -0.0366636 -0.0594342 0.0574696 0.000847 33.8663 2.92339 21.5923 2650 
136 1 -0.0301405 -0.0452958 0.0611541 0.000847 50.8064 0.536047 25.0268 2650 
10 1 -0.0302023 -0.0217689 0.0617802 0.000233 37.7712 6.46558 18.4629 2650 
394 1 -0.0227432 -0.0549802 0.0642659 0.000847 46.7232 -2.86681 16.5256 2650 
243 1 -0.0172594 -0.0310451 0.0659454 0.000847 42.4059 4.17364 11.0922 2650 
391 1 -0.0132175 -0.0484937 0.0674848 0.000233 33.2479 4.89798 6.51184 2650 
268 1 -0.00596954 -0.0210405 0.0679034 0.000847 43.5862 1.36025 3.82959 2650 
506 1 -0.000926004 0.0337331 -0.0166476 0.000233 -0.463851 0.0313803 -0.0186308 2650 
135 1 -0.00560558 0.00599599 -0.0149174 0.000847 -0.0801448 0.00683047 0.0348886 2650 
489 1 -0.00581271 0.0131236 -0.0147787 0.000847 -0.0723825 0.00337087 0.0366412 2650 
370 1 -0.00662284 0.00268065 -0.0130308 0.000847 -0.017839 0.00107421 -0.00812232 2650 
373 1 -0.00915912 0.00275566 -0.00878546 0.000847 0.00692355 -0.00211586 0.00791692 2650 
7 1 -0.00039347 0.00435104 -0.00668422 0.000847 0.0205857 0.00603231 0.00188761 2650 
55 1 -0.00449131 0.00675305 -0.00688133 0.001312 0.00868353 0.00169741 0.0132069 2650 
56 1 -0.00377775 0.00974454 -0.00691035 0.001312 0.0105583 0.00771617 -0.00757824 2650 
303 1 -0.00098968 0.0122133 -0.00672567 0.000847 0.00634002 0.0088215 0.0179982 2650 
347 1 -0.00996447 0.0147488 -0.00641119 0.000847 0.00888029 0.0220926 0.00194979 2650 
316 1 -0.00415043 0.0168228 -0.00734287 0.000847 0.013228 0.022246 -0.010569 2650 
69 1 -0.0148926 0.00269988 -0.00425253 0.001312 -0.0312033 0.0124386 0.114862 2650 
31 1 -0.00379599 0.00552894 -0.00440555 0.000847 0.0115278 -0.00235978 0.0157898 2650 
36 1 -0.016043 0.0153006 -0.00418491 0.000233 -0.0344024 0.0226295 0.134699 2650 
476 1 -0.0104433 0.0151856 -0.00463431 0.000847 -0.0256342 0.0194341 0.0140134 2650 
48 1 -0.0158399 0.00113779 -0.00269707 0.000847 -0.00425083 0.00141406 0.111914 2650 
216 1 -0.0101357 0.0220885 -0.00256801 0.000847 0.0248257 -0.0102095 0.0602171 2650 
68 1 -0.000320084 0.00990053 0.00146333 0.001312 0.013761 0.00680721 0.0224856 2650 
443 1 -0.0109416 0.0159901 0.00143838 0.000233 -0.00308493 0.00718174 -0.0127052 2650 
105 1 -0.012929 0.0200174 0.00199663 0.000233 0.0143983 0.0149541 0.00849708 2650 
383 1 -0.00422081 0.0216405 0.00209905 0.000847 -0.0180844 0.00999593 0.00334075 2650 
493 1 -0.0112484 0.0411538 0.00186769 0.000233 -0.00107092 0.0171115 -0.0293051 2650 
203 1 -0.0130717 0.0106145 0.00482231 0.000847 -0.0131843 0.00957595 -0.00713462 2650 
432 1 -0.0106327 0.00676106 0.00697262 0.001312 0.00677409 0.0167771 0.00763661 2650 
147 1 -0.0136932 0.015579 0.00760475 0.001312 0.0264361 0.000355411 0.0636587 2650 
198 1 -0.0116351 0.0637502 0.00772622 0.001312 -0.0022794 0.0423086 0.0116925 2650 
388 1 -0.0146776 0.01299 0.00793157 0.000233 0.087927 -0.0190052 0.207558 2650 
467 1 -0.00366697 0.0248838 0.0099191 0.000233 0.0125966 0.0187568 0.0155383 2650 
208 1 -0.00695315 0.0219282 0.0122378 0.000233 -0.0198422 0.00316466 0.0326517 2650 
482 1 -0.00226745 0.0553727 0.0126215 0.000233 0.00469409 0.0342639 0.0260087 2650 
445 1 -0.00879296 0.0331324 0.0129554 0.001312 0.51339 -0.0756784 0.269557 2650 
15 1 -0.00186267 0.0119003 0.0151661 0.001312 0.0435425 0.0158832 0.00800933 2650 
66 1 -0.0074803 0.0345422 0.0148969 0.000233 0.673872 0.0877779 0.359273 2650 
107 1 -0.00080045 0.145629 -0.0676833 0.001312 -0.846903 1.56749 0.0100349 2650 
22 1 -0.000978126 0.0753489 0.00165479 0.000233 -0.00916307 0.0372144 -0.0289109 2650 
163 1 0.00973362 -0.03811 -0.0674659 0.000847 -41.6308 2.15706 -6.00286 2650 
121 1 0.0132392 -0.00173991 -0.0663817 0.001312 -17.956 -1.47182 -3.51493 2650 
224 1 0.0140613 -0.0356836 -0.0662119 0.001312 -13.767 -6.05224 -2.89828 2650 
290 1 0.0238607 -0.0496002 -0.0638475 0.000847 -30.5388 1.01077 -11.406 2650 
259 1 0.0248451 -0.0344652 -0.0641221 0.000233 -35.0356 4.83192 -13.5745 2650 
185 1 0.0200424 -0.0247328 -0.064768 0.001312 -87.0548 14.3213 -26.9207 2650 
426 1 0.0259302 -0.00591929 -0.0636909 0.000233 -29.2072 -0.367071 -11.8908 2650 
389 1 0.0322631 -0.0595107 -0.0607288 0.000233 -9.64878 1.32653 -5.12607 2650 
486 1 0.0299865 -0.0487699 -0.0612433 0.000847 -65.0407 -8.40898 -31.8192 2650 
251 1 0.0289972 -0.0393381 -0.0616883 0.000847 -32.5207 3.44628 -15.2773 2650 
315 1 0.0328487 -0.0333577 -0.0592081 0.001312 -27.0721 -0.0751455 -15.0054 2650 
80 1 0.00388576 -0.00531382 -0.0585398 8.4e-05 0.609689 -0.157287 -9.1851 2650 
214 1 0.0376892 -0.0235506 -0.0567935 0.000847 -23.1715 0.758588 -15.3667 2650 
8 1 0.0491897 -0.00578692 -0.0480574 0.000233 -21.1223 -4.2951 -21.615 2650 
62 1 0.0496541 -0.0521992 -0.0475163 0.000233 -24.7952 -11.7124 -24.6109 2650 
456 1 0.0525755 -0.019853 -0.0443317 0.000233 -37.6374 -17.9361 -44.6282 2650 
254 1 0.0600073 -0.0109454 -0.0323749 0.000847 -22.8533 -5.76561 -42.3344 2650 
122 1 0.0597904 -0.00121045 -0.0327459 0.000847 -11.2352 -0.907773 -20.4999 2650 
372 1 0.061822 -0.0123854 -0.0287551 0.000847 -18.6506 -2.30746 -40.0741 2650 
70 1 0.0641996 -0.0175549 -0.0229428 0.000847 -10.1323 8.44521 -28.3342 2650 
406 1 0.0639524 -0.0246197 -0.0222975 0.001312 -9.18152 4.81659 -26.3085 2650 
332 1 0.0655315 -0.0290888 -0.0188308 0.000847 -11.8278 -0.264143 -41.1366 2650 
475 1 0.066217 -0.00800846 -0.0162698 0.000847 -11.3093 0.685266 -46.0017 2650 
444 1 0.000432 -0.00300597 -0.014191 8.4e-05 0 -0.01175 0 2650 
85 1 0.066742 -0.00216906 -0.0139483 0.000847 -8.67681 -2.69765 -41.4917 2650 
430 1 0.0087855 -0.00138574 -0.0141123 0.000233 -0.00850757 -0.0465861 -0.0050558 2650 
253 1 0.0671511 -0.0241626 -0.0118047 0.000847 -6.26919 -7.59557 -35.6404 2650 
98 1 0.00730363 -0.00115809 -0.0109402 0.000847 -0.0269123 -0.0160802 -0.0297099 2650 
94 1 0.00351842 -0.000579701 -0.0093268 0.001312 0.000237904 -0.00845303 0.00446709 2650 
366 1 0.013812 -0.00088609 -0.00632731 8.4e-05 0.00781462 -0.00760013 0.00939002 2650 
377 1 0.002656 -0.00320497 -0.00627 0.000233 0 -0.01175 0 2650 
517 1 0.00366491 -0.00126105 -0.00251071 0.000233 0.0178494 -0.00500323 -0.00130069 2650 
423 1 0.0681551 -0.0334033 -0.00177637 0.000847 -0.774811 -4.22791 -29.6788 2650 
133 1 0.00807181 -0.00231666 -0.00060867 0.001312 0.00446647 -0.00612357 0.00447547 2650 
287 1 0.068295 -0.0540016 0.000499563 0.000233 -1.74445 -11.5292 -33.5729 2650 
103 1 0.00499423 -0.00268932 0.000199105 0.000233 -0.00298319 -0.0096497 0.00373213 2650 
265 1 0.0083691 -0.000217894 0.00243648 0.000847 0.0019129 -0.000450941 0.0087881 2650 
499 1 0.00552904 -0.00257208 0.00594386 0.000847 0.000266612 -0.00820113 0.000232395 2650 
270 1 0.0149183 -0.000607472 0.00566167 0.000233 -0.0171209 0.0010064 0.0260044 2650 
474 1 0.0660662 -0.0239179 0.0169099 0.000847 15.5089 17.093 -60.5583 2650 
362 1 0.0651446 -0.0300911 0.0220387 0.000233 9.08045 6.74854 -26.8355 2650 
201 1 0.00218615 -0.0617914 0.0290579 0.000847 8.19931 0.154603 -0.594419 2650 
364 1 0.0580166 -0.0376834 0.0369252 0.000233 19.4901 8.38802 -30.6162 2650 
469 1 0.0551264 -0.0238914 0.0395029 0.000233 42.4438 -16.8501 -53.1837 2650 
294 1 0.00330148 -0.0310367 0.044206 0.000847 -12.1083 7.7253 -12.3558 2650 
277 1 0.0451483 -0.0261326 0.046924 0.000847 25.3755 14.4746 -16.7768 2650 
472 1 0.0490434 -0.0119433 0.047341 0.000847 17.4817 -0.928815 -18.0975 2650 
435 1 0.0388082 -0.0195407 0.0560756 0.000847 62.4421 5.69969 -43.1927 2650 
150 1 0.0331574 -0.011017 0.055917 0.000847 44.0069 -13.6692 -8.05934 2650 
263 1 0.0348565 -0.0520557 0.0580447 0.001312 23.7417 0.192543 -14.2434 2650 
448 1 0.0355747 -0.0133052 0.0581454 0.000847 29.9377 1.95402 -18.3051 2650 
167 1 0.0303437 -0.0588332 0.0617135 0.000233 62.7806 -0.494612 -30.8632 2650 
82 1 0.0261636 -0.0572124 0.062444 0.001312 26.298 -6.97883 -11.0085 2650 
27 1 0.0285912 -0.0151238 0.0624118 8.4e-05 10.1144 1.51532 -4.48723 2650 
351 1 0.0105803 -0.0438902 0.0679482 0.000233 33.8407 -5.87414 -5.26934 2650 
320 1 0.00628421 -0.0284407 0.0678797 0.000847 50.1181 2.45748 -4.63479 2650 
108 1 0.000632406 0.0398119 -0.0155045 0.001312 -0.415879 -0.0520753 -0.0174779 2650 
212 1 0.00225768 0.0462284 -0.015414 0.001312 -0.345333 0.0586402 -0.014485 2650 
219 1 0.000722918 0.00714855 -0.0124569 0.000233 0.00849933 0.00349453 -0.0201485 2650 
235 1 0.00514796 0.0155598 -0.0120995 0.000233 0.00957308 0.00831343 -0.0211173 2650 
95 1 0.00354042 0.0120728 -0.0104341 0.001312 0.0114944 0.0037926 0.000538071 2650 
260 1 0.00874315 0.0368318 -0.0100755 0.000233 -0.0178117 0.0172304 0.00105335 2650 
374 1 0.0104562 0.0435611 -0.00625795 0.000233 0.0145183 0.0293797 -0.00883705 2650 
12 1 0.00618843 0.00276355 -0.00461217 0.000233 -9.2907e-05 -0.00146252 0.0101717 2650 
338 1 0.00563624 0.00182869 -0.00456984 0.000233 -0.00271292 -0.00171649 -0.0109378 2650 
512 1 0.00430726 0.0371956 -0.00316042 0.000847 0.00867512 0.0290047 0.0037544 2650 
296 1 0.011136 0.0113487 -0.000366899 0.000233 0.0166346 0.00164492 -0.0186807 2650 
242 1 0.00754453 0.0187583 -0.000451583 0.000847 0.0210544 0.00969789 -0.00499855 2650 
50 1 0.0687708 0.0665146 -0.000350669 0.000233 3.71545e-05 -0.425909 0.00728494 2650 
292 1 0.00965669 0.00152857 0.0002927 0.000847 0.00633071 -0.000286617 0.00678711 2650 
49 1 0.0165956 0.0149376 8.32529e-05 0.000233 0.0164018 -0.0757601 -0.410634 2650 
186 1 0.0131872 0.0657392 0.00155171 0.001312 -0.00462654 0.04184 -0.0147005 2650 
495 1 0.009062 0.0147479 0.00274628 0.000233 0.00404857 0.00775653 0.0320607 2650 
309 1 0.0163017 0.0154485 0.00338848 0.000233 0.111674 -0.0913664 -0.432487 2650 
386 1 0.0145569 0.00201186 0.00547613 0.000847 -0.00721105 -0.000429438 0.0153226 2650 
129 1 0.015786 0.00879451 0.00509236 0.000233 0.0183392 -0.0107039 -0.0698368 2650 
60 1 0.0128695 0.0169099 0.00596926 0.000847 0.168945 -0.0887189 -0.180773 2650 
457 1 0.00526862 0.0154065 0.00647862 8.4e-05 0.0252031 -0.0049558 -0.0736531 2650 
16 1 0.0141995 0.0211974 0.00631429 0.001312 0.149375 0.0034235 -0.286852 2650 
204 1 0.0122932 0.00074481 0.00970413 0.000847 0.0254012 -0.00769949 0.00783304 2650 
417 1 0.0124153 0.00936646 0.0110082 0.000233 0.0794556 0.0195888 -0.0909749 2650 
226 1 0.00223858 0.00829135 0.0158131 0.000847 0.334842 3.38732e-05 -0.0627091 2650 
234 1 0.00157361 0.0131081 0.0165767 0.000233 0.293723 0.0238182 -0.054378 2650 
511 1 0.00046793 0.020027 0.0160213 0.000847 0.135718 -0.0789925 0.00539799 2650 
