ITEM: TIMESTEP
16203699
ITEM: NUMBER OF ATOMS
228
ITEM: BOX BOUNDS ff ff ff
-0.15 0.15
-0.15 0.15
-0.15 0.15
ITEM: ATOMS id type x y z radius vx vy vz density 
142 1 -0.0031981 -0.0386998 -0.0686931 0.000233 -53.5138 -12.7526 2.49118 2650 
411 1 -0.00348351 -0.00740217 -0.0680856 0.000847 -56.6874 -4.38617 2.89882 2650 
315 1 -0.00501967 -0.0212393 -0.067547 0.001312 -52.7962 2.5949 3.92045 2650 
454 1 -0.0136331 -0.0316439 -0.0658846 0.000233 -36.6578 13.8339 -2.40636 2650 
158 1 -0.0272296 -0.0445258 -0.0633085 8.4e-05 -39.7459 -9.95794 17.0951 2650 
163 1 -0.029626 -0.0210789 -0.0613871 0.000847 -30.3087 -0.160607 14.6184 2650 
43 1 -0.0268899 -0.0196153 -0.0621415 0.001312 -30.5591 0.409792 13.2115 2650 
503 1 -0.0377382 -0.0405262 -0.0574881 0.000233 -35.826 7.59186 23.5138 2650 
70 1 -0.0421743 -0.0354165 -0.0535877 0.000847 -56.8593 -9.67349 44.7264 2650 
218 1 -0.0412457 -0.0299914 -0.055026 0.000233 -31.4047 4.8824 23.5351 2650 
367 1 -0.0414942 -0.0466022 -0.0535333 0.001312 -35.4179 0.909861 27.4294 2650 
519 1 -0.0434825 -0.0228874 -0.0532799 0.000233 -55.0514 -0.777446 44.9204 2650 
140 1 -0.0478574 -0.0522561 -0.0493849 0.000233 -28.7298 7.46957 27.8353 2650 
375 1 -0.0480045 -0.0177776 -0.0492414 0.000233 -24.2159 14.0542 23.6024 2650 
491 1 -0.050538 -0.0152362 -0.0466378 0.000233 -21.1623 -1.2615 22.9267 2650 
335 1 -0.0504749 -0.0144352 -0.046706 0.000233 -20.4402 -1.38789 22.0846 2650 
434 1 -0.0554858 -0.038824 -0.039614 0.000847 -22.9105 2.62808 32.07 2650 
475 1 -0.0584847 -0.0578165 -0.035038 0.000847 -20.0848 -1.51439 33.5043 2650 
92 1 -0.0584803 -0.0449664 -0.0361849 0.000233 -10.1023 4.2438 16.3231 2650 
435 1 -0.0141759 -0.00832703 -0.0356204 0.000847 -1.96901 -0.450612 -5.14997 2650 
120 1 -0.0620292 -0.0497097 -0.0271931 0.001312 -12.0585 0.245711 27.4799 2650 
175 1 -0.0650839 -0.0171966 -0.0203125 0.000847 -11.1203 -4.53042 35.6086 2650 
245 1 -0.0673125 -0.0352092 -0.0140998 0.000233 -11.1435 9.55889 53.1892 2650 
122 1 -0.0668605 -0.0255649 -0.0134086 0.000847 -10.8845 13.0729 54.2405 2650 
128 1 -0.00252979 -0.000905145 -0.0130467 0.000233 -0.00668717 -0.0157683 0.0142982 2650 
448 1 -0.0676624 -0.0555497 -0.00840548 0.000847 -4.81997 2.63853 38.7757 2650 
392 1 -0.003997 -0.0013335 -0.009609 8.4e-05 0 -0.01175 0 2650 
13 1 -0.013366 -0.0029035 -0.00655719 8.4e-05 0.00214706 -0.0179005 0.0214414 2650 
391 1 -0.001389 -0.0012405 -0.007809 0.000233 0 -0.01175 0 2650 
362 1 -0.0686096 -0.0109345 -0.00472947 0.000233 -2.22675 -2.88002 32.2966 2650 
364 1 -0.0151956 -0.00268929 -0.0058699 0.000233 0.00431127 -0.013851 -0.00393932 2650 
284 1 -0.0151073 -0.00108185 -0.00588185 0.000233 -0.0346642 -0.00145897 0.00717769 2650 
469 1 -0.00639134 -0.00109473 -0.00569777 0.000233 0.0113067 -0.0156393 -0.0237674 2650 
210 1 -0.0143383 -0.00282911 -0.00374335 8.4e-05 0.0140425 -0.0263433 0.0286459 2650 
429 1 -0.0687655 -0.0311468 -0.0010012 0.000233 -0.580184 -9.13237 39.8406 2650 
285 1 -0.0687642 -0.0118003 -0.00106534 0.000233 -0.513885 -6.17902 33.1626 2650 
301 1 -0.000431 -0.0022005 -0.003081 8.4e-05 0 -0.01175 0 2650 
433 1 -0.0681475 -0.0332758 0.00230144 0.000847 1.52932 -6.3638 45.2713 2650 
32 1 -0.0681013 -0.0279181 0.00336542 0.000847 2.07572 0.109291 41.9391 2650 
422 1 -0.0142424 -0.000100742 0.0025423 0.000847 -0.00746201 -0.0241136 0.0870016 2650 
305 1 -0.00779808 -0.000481689 0.00393879 0.000847 -0.00613468 -0.00578691 0.00242692 2650 
180 1 -0.067874 -0.0417302 0.0110789 0.000233 5.31101 -7.08037 32.5309 2650 
394 1 -0.00866016 -0.000103886 0.0128221 0.000847 0.318164 -0.222656 0.40856 2650 
339 1 -0.00194971 -0.000916279 0.0141206 0.000233 0.000995867 0.00136463 -0.0165392 2650 
185 1 -0.0655601 -0.019147 0.0171518 0.001312 14.7497 -3.17143 56.3349 2650 
214 1 -0.0623651 -0.0417026 0.0275545 0.000847 16.8499 6.7904 38.1141 2650 
149 1 -0.062432 -0.0360122 -0.0274602 0.000847 -30.7763 3.00857 69.9364 2650 
136 1 -0.0614348 -0.0593969 -0.0295547 0.000847 -13.0915 -1.78617 27.1951 2650 
272 1 -0.0611531 -0.00405822 0.0314595 0.000233 11.4695 0.875325 22.2903 2650 
101 1 -0.0580358 -0.0473011 0.0368955 0.000233 21.3127 7.00661 33.5176 2650 
365 1 -0.0570592 -0.041109 0.0383882 0.000233 22.2455 6.8057 33.0583 2650 
287 1 -0.0569329 -0.0104979 0.0385756 0.000233 24.3728 -8.00254 35.9641 2650 
494 1 -0.0544334 -0.0293009 0.0420268 0.000233 17.1065 3.49037 22.1515 2650 
4 1 -0.0517423 -0.0272229 0.0443787 0.000847 17.0908 -3.62162 19.9128 2650 
254 1 -0.0500429 -0.052334 0.0462813 0.000847 14.1024 -4.60987 15.2372 2650 
62 1 -0.0491309 -0.0589293 0.0480392 0.000233 17.1 -11.0086 17.1519 2650 
486 1 -0.0281979 -0.0289114 0.0558234 0.000847 0.0991017 -71.398 180.956 2650 
168 1 -0.0480951 -0.023906 0.0491529 0.000233 24.087 2.41627 23.5634 2650 
343 1 -0.0426744 -0.0407107 0.0531618 0.000847 31.4402 4.74987 25.2223 2650 
164 1 -0.0389402 -0.0464274 0.0559489 0.000847 28.5547 4.55951 19.8612 2650 
350 1 -0.0382586 -0.0499236 0.0571438 0.000233 40.8787 -1.54277 27.3637 2650 
378 1 -0.0168325 -0.0187487 0.0666758 0.000233 51.1495 4.14813 12.9114 2650 
332 1 -0.0154337 -0.00258976 0.0663903 0.000847 34.4765 1.23854 8.0102 2650 
389 1 -0.0131079 -0.00717182 0.0675062 0.000233 35.1629 -5.63356 6.82761 2650 
258 1 -0.00367418 -0.0414823 0.0686699 0.000233 61.401 -1.02479 3.28485 2650 
268 1 -0.00443496 -0.00967949 0.0680112 0.000847 28.0377 1.01035 1.82764 2650 
406 1 -0.0331076 -0.0327425 0.0320216 0.001312 -19.2811 -25.4653 51.0796 2650 
438 1 -0.0261202 0.00633366 -0.0629541 0.000847 -25.6829 -2.54731 10.6501 2650 
226 1 -0.00113998 0.0223741 -0.0160254 0.000847 -0.41697 -0.0117359 0.0740684 2650 
16 1 -0.00254358 0.0197133 -0.0151531 0.001312 -0.493062 0.00519832 0.110738 2650 
309 1 -0.00443642 0.0285206 -0.0153999 0.000233 -0.0916212 0.0319739 0.0206614 2650 
459 1 -0.00636983 0.0298749 -0.0146907 0.000847 -0.101354 0.0540108 0.0426745 2650 
55 1 -0.00788868 0.00647702 -0.0133704 0.001312 -0.023898 -0.00423728 -0.0373833 2650 
303 1 -0.00346227 0.00877291 -0.0137449 0.000847 0.00634002 0.0088215 0.0179982 2650 
147 1 -0.00298317 0.0144798 -0.0129696 0.001312 -0.0875536 0.00579552 -0.0105793 2650 
191 1 -0.00269352 0.0178166 -0.0134341 0.000847 -0.294259 -0.140865 0.122244 2650 
244 1 -0.00905151 0.00959467 -0.0124111 0.000233 -0.0196005 0.00158311 0.0267808 2650 
376 1 -0.0107388 0.0373387 -0.0123664 0.000233 -0.176215 -0.0192659 0.150918 2650 
373 1 -0.00995658 0.00369755 -0.0104247 0.000847 -0.0192249 -0.00371979 -0.0119874 2650 
234 1 -0.010459 0.00523108 -0.0098151 0.000233 -0.0196854 0.0169433 0.0404318 2650 
95 1 -0.000942368 0.0105936 -0.0106439 0.001312 0.0114944 0.0037926 0.000538071 2650 
417 1 -0.0142565 0.00488049 -0.00853877 0.000233 -0.062617 -0.0020162 0.115582 2650 
457 1 -0.000104745 0.0197863 -0.00802522 8.4e-05 -0.241359 -0.0394734 -0.213631 2650 
7 1 -0.00842183 0.00199846 -0.00742038 0.000847 0.0205857 0.00603231 0.00188761 2650 
68 1 -0.00338333 0.00764001 -0.00731668 0.001312 -0.00582103 0.00345543 0.0225763 2650 
31 1 -0.00809448 0.00503482 -0.0053181 0.000847 0.0106736 0.00376289 -0.00691615 2650 
56 1 -0.0102117 0.00630268 -0.00396072 0.001312 0.0316169 0.0155057 -0.00575204 2650 
219 1 -0.0025918 0.00578569 -0.004599 0.000233 0.00849933 0.00349453 -0.0201485 2650 
316 1 -0.00926196 0.00828924 -0.00315952 0.000847 0.00774 0.0057524 -0.0176933 2650 
223 1 -0.00355071 9.46113e-06 -0.00215654 8.4e-05 0.0391297 -0.0180115 0.0278794 2650 
517 1 -0.00329631 0.000690198 -0.00200345 0.000233 0.0178494 -0.00500323 -0.00130069 2650 
63 1 -0.000147 0.000919504 -0.0027 0.000233 0 -0.01175 0 2650 
160 1 -0.0131472 0.00132399 -0.000974494 0.001312 0.021967 -0.130267 0.0898882 2650 
251 1 -0.0154445 0.00331554 -0.00129765 0.000847 -0.00823622 -0.112728 0.111418 2650 
105 1 -0.0125918 0.0134957 -0.00116648 0.000233 -0.0330648 0.0204531 0.00729523 2650 
1 1 -0.0154667 0.000162149 0.00053054 0.001312 -0.00176018 -0.00359413 0.0739305 2650 
242 1 -0.000666648 0.0149761 0.00149784 0.000847 0.0210544 0.00969789 -0.00499855 2650 
15 1 -0.0152177 0.00435517 0.00216696 0.001312 0.00384024 0.0272369 0.0675882 2650 
482 1 -0.00409813 0.0420099 0.00247821 0.000233 0.00469409 0.0342639 0.0260087 2650 
432 1 -0.0121167 0.000915348 0.00449823 0.001312 -0.0250999 -0.00228668 -0.00642198 2650 
467 1 -0.00857963 0.0175687 0.0038592 0.000233 0.0125966 0.0187568 0.0155383 2650 
198 1 -0.0107461 0.04725 0.00316617 0.001312 -0.0022794 0.0423086 0.0116925 2650 
320 1 -0.01379 0.0108239 0.00578301 0.000847 0.0161471 -0.0251117 0.0382406 2650 
476 1 -0.000594725 0.0135885 0.00600475 0.000847 -0.0252403 0.00358607 -0.0286498 2650 
121 1 -0.0110466 0.0152463 0.00524427 0.001312 0.00514363 0.0158657 0.0264715 2650 
203 1 -0.00792986 0.00687988 0.0076048 0.000847 -0.0131843 0.00957595 -0.00713462 2650 
443 1 -0.00973846 0.0131892 0.00639336 0.000233 -0.00308493 0.00718174 -0.0127052 2650 
60 1 -0.00303986 0.014338 0.0069922 0.000847 0.0266497 0.0171143 0.0170395 2650 
493 1 -0.010146 0.0343337 0.0126172 0.000233 -0.0446942 0.0264551 0.0139846 2650 
172 1 -0.00309176 0.0369395 0.0113418 0.001312 0.119573 -0.0866423 0.0292698 2650 
289 1 -0.00623191 0.0336202 0.0129394 0.001312 4.74159 4.60968 1.45989 2650 
129 1 -0.00760535 0.0101493 0.0147295 0.000233 0.0669215 0.00459219 0.0359322 2650 
104 1 -0.0687819 0.112078 0.00189073 0.000233 9.53986 -13.5915 347.012 2650 
455 1 -0.00146113 0.11658 -0.0115831 0.000233 0.0174931 0.128162 -0.025383 2650 
408 1 -0.0124953 0.131228 0.0104963 0.000847 -0.0344733 0.14315 0.0184004 2650 
328 1 -0.0574426 0.146095 0.0358369 0.001312 -0.0440185 -0.161959 -0.0704668 2650 
213 1 -0.0141667 0.101195 0.066698 0.000847 68.7939 4.71441 14.6043 2650 
410 1 0.0124504 -0.0518218 -0.0670097 0.000847 -28.444 5.12049 -5.28247 2650 
82 1 0.00462916 -0.0119315 -0.0675492 0.001312 -34.7789 -1.03827 -2.38131 2650 
253 1 0.0233875 -0.0457221 -0.0640238 0.000847 -32.8834 2.91125 -12.005 2650 
484 1 0.0276982 -0.0353775 -0.061785 0.001312 -29.5038 3.12385 -13.2143 2650 
361 1 0.0324279 -0.0404501 -0.0606424 0.000233 -43.4311 4.06843 -23.2204 2650 
143 1 0.0340515 -0.0112832 -0.0597447 0.000233 -28.6475 -8.00799 -16.3263 2650 
167 1 0.036525 -0.024426 -0.0582657 0.000233 -30.1425 -1.72029 -18.8927 2650 
409 1 0.0401324 -0.0282732 -0.0550943 0.000847 -21.1793 -5.08388 -15.417 2650 
312 1 0.0457704 -0.0582522 -0.0513232 0.000233 -16.6388 -0.487639 -14.8351 2650 
479 1 0.0406375 -0.048719 -0.0554871 0.000233 -103.057 1.08984 -75.4657 2650 
243 1 0.0484725 -0.00967333 -0.0479426 0.000847 -32.1386 6.07399 -32.4746 2650 
277 1 0.0547028 -0.0379911 -0.040713 0.000847 -37.0103 10.8739 -49.7012 2650 
477 1 0.0570995 -0.0332644 -0.0383319 0.000233 -38.2398 1.75913 -56.9523 2650 
324 1 0.0609931 -0.0309283 -0.0317687 0.000233 -13.0598 5.32685 -25.0683 2650 
263 1 0.0084747 -0.0382609 -0.0294921 0.001312 -6.3636 6.15393 0.146183 2650 
10 1 0.0631691 -0.0494296 -0.0271875 0.000233 -12.7689 3.26879 -29.662 2650 
111 1 0.0656891 -0.00114603 -0.0182348 0.000847 -5.63785 0.983111 -20.2957 2650 
405 1 0.001255 -0.0017255 -0.009572 8.4e-05 0 -0.01175 0 2650 
224 1 0.00690345 -0.00171352 -0.0103659 0.001312 0.013442 -0.00447878 0.00326192 2650 
131 1 0.0683138 -0.0450759 -0.00794395 0.000233 -7.23355 -10.4926 -62.1938 2650 
74 1 0.008324 -0.0032675 -0.003253 0.000847 0 -0.01175 0 2650 
39 1 0.010785 -0.00177072 -0.00432045 0.000233 -0.00272155 -0.00885595 0.00246964 2650 
27 1 0.00966 -0.000452496 -0.004536 8.4e-05 0 -0.01175 0 2650 
133 1 0.00599262 -6.37015e-05 -0.00294022 0.001312 0.00939825 -0.00205418 0.0110207 2650 
76 1 0.0687316 -0.0196108 -0.00238791 0.000233 -1.58419 -7.76036 -45.5896 2650 
351 1 0.000422 -0.0025325 -0.00156 0.000233 0 -0.01175 0 2650 
472 1 0.012143 -0.0025875 0.001212 0.000847 0 -0.01175 0 2650 
8 1 0.006698 -8.49566e-06 0.001482 0.000233 0 -0.01175 0 2650 
132 1 0.013326 -0.0029265 0.002036 8.4e-05 0 -0.01175 0 2650 
426 1 0.00890038 -0.00116292 0.00212672 0.000233 0.00270092 -0.011541 -0.000995869 2650 
456 1 0.009608 -0.0020075 0.003179 0.000233 0 -0.01175 0 2650 
69 1 0.0125931 -0.0026749 0.00913356 0.001312 0.110431 0.00639008 -0.127676 2650 
501 1 0.0677264 -0.0448465 0.00790456 0.000847 5.27923 2.17525 -45.2056 2650 
478 1 0.0681162 -0.0166812 0.00947742 0.000233 4.73027 3.21045 -33.9907 2650 
123 1 0.0631898 -0.032521 0.0129346 0.000847 12.293 11.3093 -27.4038 2650 
116 1 0.000468393 -0.00422832 0.0180331 0.000233 0.072494 -0.107138 2.79102 2650 
61 1 0.065721 -0.0185722 0.0181554 0.000847 11.0355 5.32316 -39.9235 2650 
449 1 0.0630989 -0.0349385 0.025816 0.000847 11.9387 -5.23447 -29.1612 2650 
192 1 0.0549161 -0.0561775 0.0413959 0.000233 27.3581 2.21229 -36.2862 2650 
423 1 0.0503937 -0.0189616 0.0459068 0.000847 21.1033 -1.24314 -23.1505 2650 
294 1 0.0489975 -0.0339971 0.0473979 0.000847 25.7324 1.17048 -26.584 2650 
150 1 0.050145 -0.0332953 0.0461834 0.000847 25.3333 0.410794 -27.489 2650 
510 1 0.0452504 -0.0449728 0.0503829 0.001312 25.5468 2.31288 -22.923 2650 
148 1 0.0434633 -0.0261318 0.0525203 0.000847 32.4792 -2.26413 -26.862 2650 
487 1 0.0382305 -0.0464231 0.0564323 0.000847 25.1899 -7.09353 -17.054 2650 
474 1 0.0308582 -0.00754431 0.0607769 0.000847 29.3826 -1.71732 -14.9092 2650 
138 1 0.0292379 -0.024997 0.061576 0.000847 34.4874 0.791885 -16.3657 2650 
85 1 0.0265934 -0.0446249 0.0627938 0.000847 70.8751 18.989 -30.001 2650 
59 1 0.0253429 -0.0337374 0.0632769 0.000847 34.2978 1.93291 -13.7284 2650 
47 1 0.0238469 -0.0112641 0.0638613 0.000847 42.4084 0.454719 -15.8269 2650 
402 1 0.0272243 -0.0047518 0.0631487 0.000233 31.7666 1.05624 -13.6946 2650 
371 1 0.0187689 -0.0235017 0.0655273 0.000847 35.9012 -0.149903 -10.2772 2650 
290 1 0.019358 -0.0162813 0.0653575 0.000847 38.219 0.0870063 -11.3134 2650 
201 1 0.0209766 -0.000864971 0.0648568 0.000847 38.5372 0.0372365 -12.4568 2650 
119 1 0.0166743 -0.0594833 0.0668297 8.4e-05 12.3244 2.89066 -2.56586 2650 
385 1 0.00828563 -0.0310721 0.0676579 0.000847 40.4708 -9.66893 -4.95343 2650 
233 1 0.0208798 -0.00211288 0.065525 0.000233 86.6948 -6.22928 -27.6199 2650 
190 1 0.00446384 -0.0433643 0.0680098 0.000847 28.9399 -3.29537 -1.89865 2650 
506 1 0.00505619 0.0316883 -0.0158443 0.000233 -0.649118 0.103455 -0.161138 2650 
48 1 0.00561457 0.00126499 -0.0144241 0.000847 0.00523778 -0.00998944 0.00223374 2650 
444 1 0.000432 0.0015765 -0.014191 8.4e-05 0 -0.01175 0 2650 
207 1 0.007509 0.000719504 -0.013163 0.000233 0 -0.01175 0 2650 
228 1 0.00492833 0.00638195 -0.0139036 0.000847 -0.00272244 0.00624097 0.000925884 2650 
372 1 0.00697234 0.00555034 -0.0140966 0.000847 -0.0698716 -0.0356633 -0.031392 2650 
94 1 0.00342564 0.00271696 -0.011069 0.001312 0.000237904 -0.00845303 0.00446709 2650 
36 1 0.012262 0.00548879 -0.0111632 0.000233 0.0174023 -0.00126043 0.0199558 2650 
256 1 0.00970022 0.0144546 -0.0111451 0.000847 0.0162526 0.00805606 -0.0201253 2650 
511 1 0.00419754 0.0489411 -0.0123037 0.000847 0.00544893 0.0430587 -0.0302308 2650 
370 1 0.000334319 0.00226171 -0.00986316 0.000847 -0.017839 0.00107421 -0.00812232 2650 
366 1 0.0107643 0.00207794 -0.00998939 8.4e-05 0.00781462 -0.00760013 0.00939002 2650 
495 1 0.00748307 0.0117228 -0.00975731 0.000233 0.00404857 0.00775653 0.0320607 2650 
12 1 0.00622466 0.00333393 -0.00857909 0.000233 -9.2907e-05 -0.00146252 0.0101717 2650 
445 1 0.0127716 0.0270709 -0.00895865 0.001312 -0.91608 0.251784 -1.23369 2650 
260 1 0.0103976 0.0292458 -0.00669638 0.000233 0.0215142 0.0236674 -0.0271095 2650 
377 1 0.002656 0.0013775 -0.00627 0.000233 0 -0.01175 0 2650 
270 1 0.00834348 3.34666e-05 -0.00591931 0.000233 0.0263313 -0.00238223 0.0307239 2650 
235 1 0.00141449 0.0123176 -0.00386382 0.000233 0.00957308 0.00831343 -0.0211173 2650 
512 1 0.000923984 0.0258838 -0.00462463 0.000847 0.00867512 0.0290047 0.0037544 2650 
80 1 0.000184 0.0010025 -0.002772 8.4e-05 0 -0.01175 0 2650 
292 1 0.00720537 0.00166724 -0.0023428 0.000847 -0.000747226 -0.0110795 0.00219246 2650 
374 1 0.00479412 0.0321031 -0.00281152 0.000233 0.0145183 0.0293797 -0.00883705 2650 
515 1 0.0141362 0.0624247 -0.00222924 0.000847 0.104652 0.375793 -0.339664 2650 
103 1 0.005836 0.0013005 -0.000854 0.000233 0 -0.01175 0 2650 
338 1 0.00669427 0.00249812 -0.000304139 0.000233 -0.00271292 -0.00171649 -0.0109378 2650 
386 1 0.0138094 0.00237052 -0.000973792 0.000847 0.00949406 -0.00132672 0.0175477 2650 
208 1 0.000785248 0.020694 -0.000496306 0.000233 -0.0198422 0.00316466 0.0326517 2650 
216 1 0.0121662 0.030323 -0.000525644 0.000847 0.221795 -0.0402742 -0.0963161 2650 
96 1 0.00234488 0.0446936 -0.000869695 0.000847 0.00713071 0.0821639 -0.0519866 2650 
50 1 0.000928134 0.0628981 -0.000234667 0.000233 0.0582666 0.0867012 -0.000404557 2650 
265 1 0.00886566 0.000428914 0.00116773 0.000847 -0.00940095 -0.0047388 -0.0108659 2650 
347 1 0.00611825 0.00342442 0.000685637 0.000847 -0.0658938 0.0253868 -0.0472686 2650 
98 1 0.0147699 0.00421466 0.000349338 0.000847 0.0135438 0.000788741 -0.0212881 2650 
383 1 0.00283205 0.0177421 0.000796161 0.000847 -0.0180844 0.00999593 0.00334075 2650 
489 1 0.015504 0.0110704 0.00260183 0.000847 0.0169438 0.00608996 -0.0904825 2650 
499 1 0.00542507 0.000626338 0.00585322 0.000847 0.000266612 -0.00820113 0.000232395 2650 
186 1 0.0121979 0.0491843 0.00590678 0.001312 0.0215198 0.0440623 -0.00180283 2650 
204 1 0.00238681 0.00374759 0.00664926 0.000847 0.0254012 -0.00769949 0.00783304 2650 
135 1 0.0132517 0.00634475 0.00725485 0.000847 0.0220945 -0.0215205 -0.125249 2650 
296 1 0.00464861 0.0107072 0.00691854 0.000233 0.0166346 0.00164492 -0.0186807 2650 
49 1 0.0146566 0.0157164 0.00782555 0.000233 0.385348 -0.0878888 -0.725854 2650 
222 1 0.0124457 0.0270467 0.00681955 0.000233 0.0843826 0.184223 -0.150343 2650 
107 1 0.00665674 0.0292836 0.00902263 0.001312 0.00952862 -0.000121603 0.000848496 2650 
212 1 0.0126246 0.0521745 0.0091385 0.001312 0.324846 0.0781698 -0.279912 2650 
66 1 0.0120143 0.0292058 0.011159 0.000233 0.631081 0.0878165 -0.874104 2650 
108 1 0.00947933 0.0393825 0.0122906 0.001312 0.617556 0.118843 -0.463921 2650 
22 1 0.00259545 0.0608353 0.01293 0.000233 -0.00916307 0.0372144 -0.0289109 2650 
388 1 0.00562198 0.00868245 0.0150361 0.000233 0.0854404 0.0577204 -0.0599817 2650 
430 1 0.00564916 0.0117774 0.0156432 0.000233 0.700386 -0.0356256 -0.296351 2650 
259 1 0.0134464 0.128757 -0.00980247 0.000233 0.0525523 0.141986 0.000142195 2650 
154 1 0.00449265 0.1327 -0.00857911 0.000233 -0.00924804 0.118602 0.00100956 2650 
200 1 0.0641901 0.139007 0.0233731 0.000847 65.991 89.2397 -181.362 2650 
