ITEM: TIMESTEP
18827103
ITEM: NUMBER OF ATOMS
498
ITEM: BOX BOUNDS ff ff ff
-0.15 0.15
-0.15 0.15
-0.15 0.15
ITEM: ATOMS id type x y z radius vx vy vz density 
826 1 -0.00821236 -0.00833126 -0.0683927 0.000116 -0.0491755 -0.229116 0.00712177 2650 
1705 1 -0.0351741 -0.0284515 -0.0589154 0.000423 -147.241 -24.5085 87.8893 2650 
3894 1 -0.0201757 -0.00392109 -0.0401057 0.000116 -3.04544 -0.0878946 -6.05378 2650 
2461 1 -0.0600328 -0.0587163 -0.0331926 0.000423 -45.643 10.0378 82.5123 2650 
3272 1 -0.060503 -0.0552149 -0.0329332 0.000116 1.61239 0.115733 -2.96184 2650 
2806 1 -0.0145965 -0.0558305 -0.0261014 0.000116 -6.10922 -0.399941 3.43035 2650 
2134 1 -0.0165704 -0.0575819 -0.024674 0.000423 -8.21311 0.253287 5.61123 2650 
3484 1 -0.0650932 -0.01193 -0.0225451 0.000116 -24.2954 0.64953 70.1403 2650 
3067 1 -0.0673349 -0.0104572 -0.0148769 4.2e-05 -0.0224031 -0.256581 0.101395 2650 
104 1 -0.00218 -0.00225748 -0.014554 4.2e-05 0 -0.01175 0 2650 
2194 1 -0.002781 -0.00165948 -0.012701 4.2e-05 0 -0.01175 0 2650 
2840 1 -0.00344657 -0.000339792 -0.0129272 0.000116 -0.0077453 -0.00271094 0.0238504 2650 
760 1 -0.006943 -0.000580478 -0.010573 4.2e-05 0 -0.01175 0 2650 
861 1 -0.006339 -0.000406478 -0.010358 0.000116 0 -0.01175 0 2650 
6 1 -0.00305297 -0.000441989 -0.00914415 0.000656 0.016456 -0.0218107 0.0690851 2650 
503 1 -0.004804 -0.00226948 -0.007904 0.000116 0 -0.01175 0 2650 
3401 1 -0.010999 -0.000251478 -0.005898 4.2e-05 0 -0.01175 0 2650 
277 1 -0.000943 -0.00199448 -0.003531 0.000116 0 -0.01175 0 2650 
3135 1 -0.0092116 -0.00232848 -0.0011563 0.000116 -0.0219109 -0.00546023 0.0225941 2650 
193 1 -0.0127992 -0.00295205 -0.000557115 0.000116 0.00343621 -0.0658903 0.0745898 2650 
1866 1 -0.011355 -0.000939478 -0.000382 4.2e-05 0 -0.01175 0 2650 
3819 1 -0.007582 -0.000520478 -0.000425 0.000116 0 -0.01175 0 2650 
878 1 -0.000490098 -0.000206596 -0.000658736 4.2e-05 0.0140421 -0.0103181 0.0394259 2650 
1731 1 -0.010583 -0.00131448 0.001511 0.000116 0 -0.01175 0 2650 
3320 1 -0.00842563 -0.00257968 0.0027853 0.000423 0.0112989 -0.0237796 -0.0438907 2650 
3402 1 -0.00565042 -0.00040122 0.00247633 0.000656 0.0600573 -0.000229004 0.0381145 2650 
1983 1 -0.0149347 -0.00294609 0.00595825 0.000656 -0.00810526 -0.0155972 0.0805274 2650 
4375 1 -0.002331 -0.00149148 0.006369 4.2e-05 0 -0.01175 0 2650 
1063 1 -0.00330761 -0.00258942 0.00726201 0.000116 0.0180924 -0.0105609 0.0434077 2650 
973 1 -0.00308015 -0.00157058 0.00874942 0.000116 -0.0273808 -0.0163715 0.0404204 2650 
2739 1 -0.000433444 -0.00110248 0.00918868 4.2e-05 0.0665758 -0.0699208 0.000257051 2650 
545 1 -0.0103962 -0.00285676 0.0103368 4.2e-05 0.0177003 -0.00061084 0.0627465 2650 
305 1 -0.0082664 -0.00269099 0.0124008 0.000116 0.0355999 -0.0541714 -0.0227682 2650 
2431 1 -0.0667989 -0.0537253 0.0146792 0.000656 21.7026 11.6301 98.7237 2650 
52 1 -0.0108427 -0.0552643 0.0275248 0.000423 6.90216 0.334044 2.68722 2650 
3421 1 -0.0509932 -0.014879 0.0459505 0.000423 159.664 38.2878 177.204 2650 
1834 1 -0.0443108 -0.0562897 0.0504138 0.000116 3.09885 -5.14352 1.19156 2650 
3734 1 -0.0466366 -0.0226261 0.0499519 0.000656 -10.2688 2.74019 -9.46295 2650 
830 1 -0.0444391 -0.0487688 0.0526356 0.000116 -84.4335 3.28689 -71.2793 2650 
2672 1 -0.000363788 0.0677387 -0.068576 0.000423 -0.109891 0.178521 0.00120995 2650 
2676 1 -0.0333976 0.072842 -0.0403738 0.000423 -4.99044 0.0993009 -5.97711 2650 
3488 1 -0.0014992 0.0310057 -0.0165917 0.000116 -0.243731 0.0457458 0.0479147 2650 
2419 1 -0.00340317 0.000297588 -0.0164734 4.2e-05 -0.250086 0.00555118 0.0459008 2650 
1370 1 -7.96102e-05 0.00406468 -0.0165537 0.000423 -0.162431 0.0327999 -0.00921133 2650 
174 1 -0.00244436 0.0090737 -0.0165082 0.000116 -0.309512 0.0312636 0.0579997 2650 
1724 1 -0.00068908 0.0167462 -0.0160644 0.000116 0.0430939 0.00870165 -0.0603924 2650 
3115 1 -0.00352544 0.0250924 -0.0161134 0.000423 -0.123676 0.00484172 0.00259457 2650 
3186 1 -0.00115771 0.025351 -0.0161996 0.000656 -0.26087 0.0314948 -0.00910906 2650 
120 1 -0.00109618 0.0271424 -0.016184 0.000656 -0.378419 0.0319056 0.0011469 2650 
3857 1 -0.00172933 0.0317204 -0.016283 0.000423 -0.2716 0.0738462 0.0488405 2650 
3790 1 -0.00217203 0.0473478 -0.0164905 0.000116 -0.109569 0.0578167 0.0249277 2650 
3612 1 -0.00509275 0.0475143 -0.0160587 4.2e-05 -0.489154 -0.107053 0.210414 2650 
3575 1 -0.00625002 0.00756759 -0.0154964 0.000116 -0.52032 0.106197 0.221611 2650 
943 1 -0.00622877 0.0127211 -0.0155294 0.000116 -0.312187 0.0244829 0.131738 2650 
3023 1 -0.0028749 0.0171899 -0.0155262 0.000116 -0.044606 0.0228575 0.00349042 2650 
3175 1 -0.00750123 0.0221928 -0.0151264 4.2e-05 -0.674194 -0.024281 0.278302 2650 
4120 1 -0.00628657 0.0290986 -0.015551 0.000116 -0.538111 0.00440381 0.221362 2650 
2466 1 -0.00499027 0.0317371 -0.0157552 0.000423 -0.315382 0.0694199 0.130496 2650 
2751 1 -0.00536443 0.0338074 -0.015337 0.000656 -0.984907 -0.174094 0.408933 2650 
785 1 -0.00163002 0.0466149 -0.0155909 0.000423 -0.0187328 0.0927289 0.0213203 2650 
1413 1 -0.00781487 0.0397438 -0.0144252 0.000116 -0.231134 0.0783156 0.120283 2650 
589 1 -0.00679894 0.0490351 -0.0148241 0.000423 -0.379395 0.0146287 0.101661 2650 
1974 1 -0.0021 0.00288052 -0.01365 4.2e-05 0 -0.01175 0 2650 
1747 1 -0.00912573 0.0318743 -0.0141008 0.000116 -0.555775 0.00801615 0.413123 2650 
4172 1 -0.00771236 0.0277612 -0.0134045 0.000656 -0.00883228 0.0519268 0.0478411 2650 
651 1 -0.0112156 0.0299486 -0.0126479 4.2e-05 -0.533771 -0.0488571 0.396565 2650 
2464 1 -0.00437618 0.0549305 -0.0131624 0.000423 -3.9307e-05 0.11658 -0.0287192 2650 
3326 1 -0.00258198 0.0569558 -0.0131104 0.000423 0.0419925 0.171061 -0.0491593 2650 
1495 1 -0.004483 0.00281052 -0.012591 0.000116 0 -0.01175 0 2650 
2913 1 -0.00615582 0.00812888 -0.0115612 0.000116 -0.00361308 0.0296744 0.0528158 2650 
1887 1 -0.0105261 0.0192924 -0.0117985 0.000423 -0.0379252 0.0299193 0.00722095 2650 
3800 1 -0.00504508 0.0419095 -0.0116527 0.000116 0.0337176 0.0475029 0.0199999 2650 
2017 1 -0.00603654 0.00592499 -0.0106073 0.000423 -0.0142536 -0.00438762 -0.018525 2650 
963 1 -0.000669 0.00679352 -0.010387 0.000116 0 -0.01175 0 2650 
4156 1 -0.00203587 0.0178163 -0.0109074 4.2e-05 0.0233969 0.0112741 0.0713166 2650 
110 1 -0.0128183 0.023605 -0.0110055 4.2e-05 -0.444403 0.0383038 0.511228 2650 
4265 1 -0.00166828 0.0250871 -0.0109833 4.2e-05 -0.0923188 0.0407444 0.0213579 2650 
3430 1 -0.000438992 0.029313 -0.0102925 0.000423 0.0457525 0.0307314 -0.00231201 2650 
4054 1 -0.00506182 0.00429356 -0.00987832 4.2e-05 0.00301748 0.00087802 -0.00418378 2650 
2193 1 -0.0138879 0.019416 -0.00969545 4.2e-05 -0.138087 -0.0288384 0.159264 2650 
921 1 -0.00593079 0.0252405 -0.010129 0.000423 -0.0104169 0.0647428 0.0222015 2650 
2191 1 -0.011416 0.0380948 -0.0100628 4.2e-05 -0.0580895 0.100337 0.11028 2650 
3923 1 -0.0122308 0.000191284 -0.00901371 0.000116 0.00648382 -0.0132419 0.0287173 2650 
308 1 -0.0141649 0.00562131 -0.00885404 0.000116 -0.196771 0.0178353 0.365817 2650 
2946 1 -0.0138691 0.00631253 -0.00929607 0.000116 -0.0846118 0.00190645 0.102895 2650 
3795 1 -0.000155267 0.0119913 -0.00819345 0.000116 0.00904861 0.00170997 -0.0101672 2650 
3714 1 -0.00378017 0.0129685 -0.00815582 0.000116 -0.0635753 0.0266397 0.0202509 2650 
1420 1 -0.00487241 0.0391628 -0.00783997 4.2e-05 0.0178963 0.0867362 0.037392 2650 
2684 1 -0.0145248 0.0561227 -0.00753298 0.000423 -0.167072 0.0870111 0.31425 2650 
3499 1 -0.00424 0.00113452 -0.006869 0.000116 0 -0.01175 0 2650 
620 1 -0.00634305 0.0168585 -0.00678931 0.000116 -0.000424052 0.0113071 -0.00596347 2650 
2713 1 -0.00780032 0.0273276 -0.00635792 0.000116 -0.0131073 0.0363612 0.0162638 2650 
2822 1 -0.0156891 0.0316963 -0.00614533 0.000116 -0.232852 -0.18602 0.941405 2650 
965 1 -0.0156547 0.0355523 -0.0061619 0.000116 0.0561635 -0.00423297 -0.154177 2650 
3445 1 -0.0154634 0.0419338 -0.00565346 0.000423 -0.0996567 0.152693 0.384723 2650 
1444 1 -0.0154552 0.0223959 -0.00504565 0.000423 -0.0845216 0.0786507 0.193597 2650 
2310 1 -0.0129801 0.024376 -0.00542564 4.2e-05 -0.0654008 0.0358351 0.0303196 2650 
1359 1 -0.00583878 0.031549 -0.00531272 0.000423 0.0344179 0.0512334 0.0192478 2650 
3369 1 -0.007479 0.00113652 -0.004461 0.000116 0 -0.01175 0 2650 
1720 1 -0.00672 0.00139552 -0.004127 0.000116 0 -0.01175 0 2650 
2942 1 -0.011084 0.00596652 -0.004169 0.000116 0 -0.01175 0 2650 
4007 1 -0.00825525 0.00707369 -0.00443912 0.000116 -0.0147197 0.0209443 0.0168315 2650 
72 1 -0.0127584 0.0420926 -0.00413814 0.000116 -0.0138449 0.0790047 -0.0708554 2650 
2622 1 -0.00841 0.000969522 -0.003929 0.000116 0 -0.01175 0 2650 
3048 1 -0.002321 0.00469052 -0.003941 0.000116 0 -0.01175 0 2650 
3788 1 -0.010468 0.00498752 -0.003593 0.000116 0 -0.01175 0 2650 
3710 1 -0.00661167 0.00548396 -0.00379671 0.000116 -0.0552595 -0.00218048 0.0237494 2650 
92 1 -0.0163819 0.00591447 -0.00329529 0.000116 -0.104603 -0.00221762 0.390333 2650 
4277 1 -0.0156857 0.0425376 -0.00388221 0.000656 -0.166234 0.0653591 0.632402 2650 
1913 1 -0.016305 0.0194328 -0.00241339 0.000423 -0.0989493 0.0699143 0.393215 2650 
3765 1 -0.0103399 0.0210965 -0.0031019 0.000423 -0.103635 0.0419395 -0.0032572 2650 
3020 1 -0.0161732 0.0299109 -0.00243201 0.000423 -0.0614639 0.0720455 0.309162 2650 
2863 1 -0.0134219 0.0498371 -0.00290392 0.000656 -0.00901347 0.0732045 -0.0699138 2650 
3137 1 -0.0150596 0.0574206 -0.0026134 0.000116 0.0556195 0.0759866 -0.0164072 2650 
2158 1 -0.0164307 0.00200678 -0.0022549 0.000116 0.0311098 -0.075617 0.0594271 2650 
1201 1 -0.013313 0.00231552 -0.001793 4.2e-05 0 -0.01175 0 2650 
987 1 -0.00795995 0.00468148 -0.0019572 4.2e-05 -0.00569616 -0.00950948 0.0105456 2650 
722 1 -0.0157832 0.0231669 -0.00176008 0.000116 -0.0812265 0.0346667 -0.014211 2650 
1311 1 -0.0109952 0.0270724 -0.00219249 4.2e-05 -0.0303337 0.0300967 0.0843858 2650 
4096 1 -0.00767076 0.0384719 -0.00203034 0.000423 0.0613259 0.0555768 -0.00500745 2650 
252 1 -0.00465889 0.0441286 -0.00173093 0.000423 0.0208985 0.102101 -0.00147183 2650 
2825 1 -0.0146083 0.00991177 -0.000875795 0.000116 0.0231363 -0.112924 0.130375 2650 
1948 1 -0.0166895 0.0183902 -0.000899184 0.000116 -0.0248408 0.00277942 0.617748 2650 
1550 1 -0.0160468 0.0216712 -0.00111654 0.000656 -0.0479149 0.0433918 0.274341 2650 
3351 1 -0.00814408 0.0297432 -0.000798652 0.000116 -0.00773627 0.0569951 0.0338387 2650 
2050 1 -0.0166607 0.0349329 -0.00155969 0.000116 -0.0100707 0.154875 0.256999 2650 
961 1 -0.0150063 0.0462675 -0.000998129 0.000116 -0.074804 0.0779811 -0.0333459 2650 
533 1 -0.0166687 0.046663 -0.000904395 0.000116 -0.0313541 0.053122 0.740561 2650 
1227 1 -0.0141456 0.0581886 -0.000802063 0.000423 0.112595 0.100591 -0.0688244 2650 
622 1 -0.001275 0.000397522 -0.00065 0.000116 0 -0.01175 0 2650 
4232 1 -0.00174279 0.00534991 -0.000773257 0.000116 0.0355206 0.0171002 -0.00183782 2650 
1836 1 -0.0147159 0.00970649 -0.000203071 0.000116 -0.0151081 0.0048413 0.0423967 2650 
2823 1 -0.0167244 0.0300929 -0.000102773 0.000116 -0.0101898 -0.0166793 0.258372 2650 
2323 1 -0.0164164 0.0372741 -0.000403517 0.000423 -0.020167 -0.0398632 0.480412 2650 
481 1 -0.00185209 0.0451471 -0.000342944 0.000423 -0.0233611 0.0839418 0.0163222 2650 
2392 1 -0.00030321 0.0226125 9.11196e-05 0.000116 0.0476206 0.058682 0.0138313 2650 
1294 1 -0.00929171 0.0476247 0.000364944 0.000116 -0.0107965 0.0650035 0.00848386 2650 
3497 1 -0.00882545 0.0560865 0.000283705 0.000116 0.0597536 0.0941954 0.009557 2650 
613 1 -0.0136147 0.00678639 0.00125558 0.000116 -0.0713881 0.0080357 0.0130697 2650 
2962 1 -0.0128138 0.00798165 0.0011966 4.2e-05 0.0160494 0.0111382 -0.0435374 2650 
1749 1 -0.0168414 0.0313949 0.000968901 4.2e-05 -0.0204932 0.0213277 0.51925 2650 
2204 1 -0.00781316 0.0310973 0.00141583 0.000656 -0.0983437 0.0750785 -0.00757763 2650 
4371 1 -0.0167479 0.0376919 0.000855363 0.000116 -0.00792046 0.0932974 0.222298 2650 
41 1 -0.00484642 0.039321 0.00143995 0.000423 -0.0727165 0.0616742 0.00190405 2650 
1881 1 -0.0145611 0.046538 0.00101276 0.000656 0.0489712 0.13918 0.152874 2650 
1564 1 -0.0103334 0.00146025 0.00209796 0.000423 0.0454424 -0.00136489 0.019929 2650 
2041 1 -0.0163752 0.037849 0.00228196 0.000116 -0.00177865 0.10498 0.272374 2650 
2631 1 -0.00113581 0.00275002 0.00237921 4.2e-05 0.0606321 -0.0063784 0.0334899 2650 
407 1 -0.0102931 0.0133616 0.00281892 0.000116 -0.0638533 -0.0198825 -0.0117408 2650 
3203 1 -0.00208065 0.0276779 0.00251214 0.000423 0.043681 0.0158235 0.0410639 2650 
1036 1 -0.0161504 0.0439092 0.00306853 0.000423 0.0501662 0.183783 0.271507 2650 
3122 1 -0.0151064 0.00421438 0.00344825 0.000423 0.0360593 -0.00416166 0.0857845 2650 
1699 1 -0.0088701 0.00539475 0.00389948 0.000423 -0.048026 0.0127017 0.0467696 2650 
1430 1 -0.00695959 0.0142891 0.0036733 4.2e-05 0.0244308 0.0147002 0.0378165 2650 
1320 1 -0.00827156 0.0172347 0.00323388 4.2e-05 0.0285249 0.0381901 -0.0395435 2650 
3483 1 -0.00317746 0.0402636 0.00382145 0.000116 0.0170956 0.0496408 -0.0676065 2650 
2961 1 -0.00527911 0.0457787 0.00335209 4.2e-05 0.0872091 0.115047 -0.169556 2650 
1091 1 -0.000517018 0.0461853 0.00367668 4.2e-05 0.0378479 0.0824163 0.0309964 2650 
410 1 -0.0687972 0.049738 0.00350195 0.000116 0.0233089 -0.332916 0.457864 2650 
266 1 -0.0159028 0.0147489 0.00430794 0.000423 0.0643484 0.00177314 0.376968 2650 
1988 1 -0.0156154 0.0398118 0.00437393 0.000656 0.151036 -0.0616892 0.819514 2650 
1811 1 -0.00473678 0.0410919 0.00454997 0.000423 0.0502312 0.0777749 -0.0454502 2650 
3268 1 -0.00959923 0.0452455 0.00420087 0.000116 0.0308131 0.0903047 -0.0600762 2650 
2079 1 -0.000281 0.00479652 0.005134 4.2e-05 0 -0.01175 0 2650 
1932 1 -0.0135979 0.0141914 0.00552554 0.000116 0.0606304 0.0178414 0.0752528 2650 
1118 1 -0.0082067 0.0145987 0.00488363 0.000423 -0.0400374 -0.00784723 0.00979957 2650 
2621 1 -0.0123807 0.0200311 0.0054169 0.000116 0.00281061 0.0149464 0.00880132 2650 
2178 1 -0.00499686 0.0225589 0.00519217 0.000116 0.0473077 0.0231702 -0.0260136 2650 
88 1 -0.0159372 0.0319231 0.00536061 0.000116 0.112553 0.0856491 0.271795 2650 
1167 1 -0.0119973 0.034698 0.00474805 0.000116 -0.00962723 0.031679 -0.034924 2650 
3897 1 -0.00478311 0.0537986 0.00474352 0.000116 0.0575134 0.088392 0.0268831 2650 
1802 1 -0.0202331 0.0697795 0.00485001 0.000423 -1.82716 0.0965056 0.462116 2650 
1093 1 -0.0107092 0.00167516 0.00573088 4.2e-05 0.0512657 0.00793449 0.0113547 2650 
192 1 -0.00634215 0.0175674 0.00598362 0.000116 0.0763889 0.0316529 0.012705 2650 
913 1 -0.0152647 0.0417526 0.00562736 0.000423 0.0427604 0.098296 0.143343 2650 
3597 1 -0.00426141 0.0419743 0.00587858 0.000116 0.0466527 0.135672 0.0466137 2650 
3806 1 -0.0111325 0.00290113 0.00632863 0.000116 0.0232219 -0.0204167 0.0623871 2650 
1629 1 -0.013721 0.0480574 0.00675718 0.000116 0.0184397 0.0520766 0.00172875 2650 
2199 1 -0.0146178 0.00947972 0.0084114 4.2e-05 0.445068 -0.0577047 0.595194 2650 
1300 1 -0.0116619 0.00971499 0.00853827 0.000116 -0.0967051 -0.0205119 0.00900542 2650 
3761 1 -0.00796552 0.018951 0.00853541 0.000423 0.0283506 -0.00726883 0.000802828 2650 
2370 1 -0.00363092 0.0202735 0.0086219 0.000116 0.00501374 0.0174345 -0.0070289 2650 
3876 1 -0.00449986 0.0228136 0.00830961 0.000423 -0.0069941 0.0580759 0.0307902 2650 
3367 1 -0.014465 0.0290826 0.00864177 0.000116 0.205759 0.0187654 0.274092 2650 
3354 1 -0.016767 0.0581678 0.00833988 0.000116 -0.88082 0.224043 1.07509 2650 
2387 1 -0.000517902 0.00923698 0.00898676 0.000116 0.0149008 0.00466288 0.0168153 2650 
3022 1 -0.0136826 0.00858098 0.00953084 0.000116 0.291649 -0.0186672 0.390349 2650 
3674 1 -0.00383607 0.00973975 0.00958993 0.000423 0.0836889 0.0071576 0.00355521 2650 
2085 1 -0.00735912 0.0164531 0.00953404 4.2e-05 0.0138894 0.0267454 -0.0421663 2650 
2656 1 -0.00148276 0.0431365 0.00983862 0.000423 0.0487184 0.102633 -0.0639641 2650 
3246 1 -0.0134982 0.0453081 0.00976877 0.000116 0.259128 0.0707986 0.346013 2650 
1594 1 -0.0131658 0.0468845 0.00969867 0.000423 0.450085 0.0269931 0.603693 2650 
1789 1 -0.010287 0.0594346 0.00962227 0.000423 -0.00355953 0.0996617 0.0843912 2650 
3517 1 -0.0120651 0.033098 0.0108844 0.000656 0.097655 0.0523782 0.125357 2650 
2608 1 -0.00290271 0.0340084 0.0105121 0.000116 -0.0804205 0.0268277 0.0722091 2650 
3509 1 -0.00338388 0.0429357 0.0107789 4.2e-05 0.0464972 0.0342917 -0.0123952 2650 
458 1 -0.0123255 0.0453701 0.0108304 0.000423 0.459128 -0.0256606 0.615055 2650 
1337 1 -0.000670665 0.0693927 0.0104101 0.000423 0.101262 0.156261 -0.0348009 2650 
4168 1 -0.00212487 0.0119069 0.0117049 0.000656 0.0691749 -0.00829875 0.102332 2650 
2936 1 -0.00166444 0.0418784 0.0116135 0.000116 -0.0311839 0.0676981 -0.0330357 2650 
1732 1 -0.0108204 0.0124354 0.0124747 0.000116 -0.0584297 0.0216566 0.0890435 2650 
2078 1 -0.00758408 0.0165016 0.0119184 0.000116 0.0610955 -0.00949621 0.00283473 2650 
3450 1 -0.00396457 0.00691842 0.0131683 0.000423 0.022948 0.0178902 0.0450066 2650 
3262 1 -0.00071991 0.00229933 0.0135708 0.000116 0.0453506 -0.0290736 0.0156787 2650 
1956 1 -0.00630822 0.00344201 0.0140971 0.000116 0.0759815 0.0177166 -0.0349357 2650 
3400 1 -0.00411657 0.00799506 0.0137672 4.2e-05 0.0803284 -0.00112804 0.079523 2650 
1991 1 -0.00678901 0.0108744 0.0146941 0.000656 0.396547 -0.122266 0.21084 2650 
2190 1 -0.00546225 0.0113204 0.0148048 4.2e-05 -0.0745256 0.00158514 0.00641646 2650 
1369 1 -0.00700608 0.0166201 0.014887 0.000423 -0.179041 -0.167818 -0.0755317 2650 
3416 1 -0.0074915 0.0323118 0.0146508 0.000423 0.545187 0.171086 0.285633 2650 
411 1 -0.00537966 0.0662862 0.0149029 0.000116 0.0585069 0.157303 0.0303312 2650 
4241 1 -0.00482202 0.0106105 0.0152071 0.000116 0.0494924 -0.00664158 -0.0149938 2650 
278 1 -0.00105606 0.0125568 0.0156714 0.000116 -0.0472917 -0.0265132 -0.0578021 2650 
1365 1 -0.00263883 0.0145264 0.0156957 0.000423 -0.0120296 0.0539126 -0.0384466 2650 
2847 1 -0.00625382 0.0330597 0.0157227 4.2e-05 0.384465 0.0830604 0.201807 2650 
1077 1 -0.00459712 0.00191136 0.0160351 0.000116 0.578351 0.0438653 0.158137 2650 
2073 1 -0.0030918 0.0115377 0.0160121 0.000116 0.107566 0.0261918 0.00839619 2650 
846 1 -0.00350135 0.0375798 0.016222 0.000116 0.0658789 0.0534442 0.0363952 2650 
1179 1 -0.008263 0.0617972 0.0167263 0.000116 -0.463865 0.065825 1.12278 2650 
3976 1 -0.0486387 0.0643617 0.0309487 0.000423 -5.83832 -0.300586 -7.9441 2650 
346 1 -0.00675083 0.0517647 0.0682439 0.000423 0.224602 -0.257749 0.0222181 2650 
280 1 -0.00244064 0.0711892 0.0688407 0.000116 0.296269 -0.0358408 0.0106331 2650 
3569 1 -0.0468769 0.095025 -0.0504734 0.000116 -0.136643 -0.24186 0.126906 2650 
4248 1 -0.0568804 0.0924336 -0.0388558 0.000116 -0.128369 0.00677598 0.187894 2650 
462 1 -0.0659102 0.0886503 -0.0189655 0.000423 -0.0267106 -0.0947961 0.0927903 2650 
1281 1 -0.0148114 0.0778529 -0.00478672 0.000116 -0.0920018 0.155675 0.0403989 2650 
3045 1 -0.0683399 0.113862 -0.00434086 0.000116 2.58812 0.168809 0.237869 2650 
3818 1 -0.00941213 0.134542 -0.00383002 0.000116 0.0295006 0.315724 -0.0136313 2650 
3720 1 -0.00423702 0.115567 -0.00294061 4.2e-05 -0.0155722 0.180678 0.0308876 2650 
3207 1 -0.0127251 0.134249 -0.00181732 0.000423 -0.0850652 0.282315 -0.0109145 2650 
4347 1 -0.00496525 0.0787956 0.00143936 0.000116 0.101879 0.485786 0.0734319 2650 
434 1 -0.00586932 0.0814396 0.00303261 4.2e-05 -0.0537291 0.108696 -0.00962203 2650 
2262 1 -0.00888083 0.10177 0.00597882 0.000116 -0.0393484 0.22643 -0.0436562 2650 
2848 1 -0.000184508 0.116059 0.00648414 4.2e-05 0.0503648 0.304645 0.0150632 2650 
1184 1 -0.00069035 0.141477 0.00691847 0.000116 -0.0258468 0.461857 -0.04003 2650 
1277 1 -0.0105416 0.11994 0.00789563 0.000116 0.00521411 0.282212 0.0495193 2650 
4247 1 -0.00564094 0.138114 0.00912622 0.000116 -0.0247868 0.306505 0.054638 2650 
3721 1 -0.0389562 0.106827 0.0215888 4.2e-05 -5.65665 0.159855 3.13406 2650 
949 1 -0.00423672 0.0795938 0.0687536 0.000116 0.0144144 0.101566 0.000943491 2650 
2180 1 0.00459552 -0.00770805 -0.0687305 0.000116 0.0248635 -0.192611 0.00355557 2650 
2850 1 0.019435 -0.00588991 -0.0661626 4.2e-05 0.113881 -0.141805 0.0329667 2650 
426 1 0.0354802 -0.00133386 -0.0579646 0.000116 -38.1243 -11.6248 -62.4347 2650 
2640 1 0.0417326 -0.00515413 -0.0541842 0.000656 -89.8204 1.34908 -69.1551 2650 
886 1 0.0406995 -0.0251589 -0.0389736 0.000656 -5.24622 17.8518 -34.9948 2650 
435 1 0.0596085 -0.00470482 -0.0280704 4.2e-05 9.06871 -0.147735 -4.26247 2650 
2495 1 0.0585983 -0.0180062 -0.023963 0.000116 -20.3953 -24.2411 -23.4882 2650 
4184 1 0.00361012 -0.00249666 -0.0156917 0.000423 -0.0990391 -0.028694 -0.0660056 2650 
3967 1 0.00683574 -0.00229042 -0.0147604 0.000423 -0.0707596 -0.0288756 -0.0358161 2650 
409 1 0.00704476 -0.00139489 -0.014487 0.000116 -0.0843637 -0.0106102 -0.0282438 2650 
3167 1 0.0092693 -0.00133747 -0.0139254 0.000116 -0.210692 -0.132583 -0.113967 2650 
2959 1 0.005998 -0.00287948 -0.008596 4.2e-05 0 -0.01175 0 2650 
1377 1 0.0148375 -0.00193992 -0.00749057 0.000116 -0.0191092 -0.000711626 0.0174334 2650 
3770 1 0.00157097 -0.00238404 -0.0058382 0.000423 0.00528404 -0.00692981 -0.019877 2650 
3060 1 0.007713 -0.000217478 -0.003492 0.000116 0 -0.01175 0 2650 
1972 1 0.0689388 -0.00595878 -0.00166061 4.2e-05 0.000188391 -0.145817 0.0078206 2650 
2208 1 0.0286708 -0.0541444 -0.00156824 0.000656 -0.305199 4.14625e-06 -5.03189 2650 
527 1 0.00150727 -0.000357804 -0.000534668 0.000116 -0.00634733 -0.018331 0.00436591 2650 
2602 1 0.00405 -0.00182948 0.003061 0.000116 0 -0.01175 0 2650 
4231 1 0.0131307 -0.000342334 0.00368112 0.000116 -0.0454073 -0.00350074 0.0893724 2650 
4238 1 0.007844 -0.00232548 0.004645 0.000116 0 -0.01175 0 2650 
3253 1 0.004115 -0.00147448 0.00535 0.000116 0 -0.01175 0 2650 
1313 1 0.001088 -0.000964478 0.011652 4.2e-05 0 -0.01175 0 2650 
2571 1 0.00834423 -0.000896912 0.0141785 0.000423 0.2823 -0.0665072 -0.207429 2650 
453 1 0.00729219 -0.00227633 0.0146696 0.000423 0.404535 -0.0437413 -0.176973 2650 
2429 1 0.0482175 -0.00695576 0.0484846 0.000656 61.5836 15.0422 -61.2206 2650 
94 1 0.0434163 -0.0594205 0.0503036 0.000116 71.2469 2.22097 -38.4646 2650 
4218 1 0.0312151 -0.0179956 0.0610608 0.000423 -7.54804 -1.30929 3.85866 2650 
3427 1 0.0267839 -0.0204714 0.0632522 0.000423 117.986 26.8418 -62.3628 2650 
1298 1 0.0177629 -0.0104196 0.0665509 0.000116 0.256937 -0.271655 -0.00792583 2650 
1573 1 0.0286407 0.0708374 -0.0623098 0.000423 0.171439 -0.00806683 0.0798554 2650 
855 1 0.0363179 0.0487135 -0.0585322 0.000116 -3.3726 0.0216669 -2.09263 2650 
4162 1 0.0421123 0.0593331 -0.0546055 4.2e-05 0.0297773 -0.0826342 0.0235566 2650 
3833 1 0.0644039 0.0710403 -0.0246462 4.2e-05 0.0512469 -0.0909739 0.133909 2650 
234 1 0.0657646 0.0589624 -0.0194641 0.000423 0.010895 -0.100044 0.0367971 2650 
1310 1 2.46267e-05 0.0108521 -0.0167931 4.2e-05 -0.171066 0.0467683 -0.0072224 2650 
4235 1 0.000773627 0.015567 -0.016778 0.000116 -0.570283 -0.096843 -0.128159 2650 
3587 1 0.000136303 0.0189883 -0.0167415 0.000116 -0.594609 0.14854 -0.0246652 2650 
858 1 0.00172515 0.0314167 -0.0166602 0.000116 -0.493735 0.0115324 -0.0194731 2650 
2592 1 0.000332205 0.0353934 -0.0167453 0.000116 -0.230064 0.15142 -0.0101494 2650 
381 1 0.00285361 0.00136169 -0.0161546 0.000423 -0.109383 0.00398883 -0.0210473 2650 
3028 1 0.0019901 0.00311589 -0.0164577 0.000116 -0.284786 0.042034 0.00994232 2650 
2933 1 0.00384083 0.0118 -0.0162733 0.000116 -0.449213 -0.04896 -0.116821 2650 
494 1 0.00126476 0.0147287 -0.0163882 0.000423 -0.0858454 -0.0811861 0.00189583 2650 
2580 1 0.00255406 0.0176287 -0.0162262 0.000423 -0.549989 0.019299 -0.0158541 2650 
562 1 0.00173294 0.0184441 -0.0161189 0.000656 -0.495454 0.0522738 -0.0192625 2650 
3544 1 0.00264466 0.0261044 -0.0162458 0.000423 -0.517597 0.0611929 -0.127841 2650 
370 1 0.000479537 0.0269527 -0.016401 0.000423 -0.292405 -0.0178532 -0.00957421 2650 
1053 1 0.00466081 0.0269671 -0.0160679 0.000116 -0.729514 0.103089 -0.180244 2650 
952 1 0.00162344 0.0401742 -0.0165566 0.000116 -0.0978961 0.0640244 -0.0469599 2650 
550 1 0.00494899 0.0575917 -0.0159311 4.2e-05 0.07348 0.0708211 0.0366813 2650 
823 1 0.00198497 0.0148542 -0.0153082 0.000423 0.0075682 0.0241653 0.0621654 2650 
3200 1 0.00698856 0.0197715 -0.015055 0.000423 0.169589 0.00109746 0.0597447 2650 
3290 1 0.00665913 0.0223536 -0.0154789 4.2e-05 0.0853042 0.0458069 0.0347764 2650 
621 1 0.00612339 0.0275597 -0.0157 0.000116 -0.628029 0.104999 -0.155108 2650 
4382 1 0.00714072 0.027085 -0.0152758 4.2e-05 -0.569162 0.163905 -0.299089 2650 
2849 1 0.00582619 0.0435501 -0.0155841 4.2e-05 -0.718676 0.0815055 -0.1284 2650 
3889 1 0.00321092 0.0483774 -0.0157871 0.000423 -0.650618 -0.131906 -0.127515 2650 
424 1 0.00708778 0.0595332 -0.0153409 0.000116 -0.111272 0.0942432 -0.0852422 2650 
2299 1 0.00702476 0.00401381 -0.0149278 4.2e-05 -0.465278 -0.13786 -0.207588 2650 
2577 1 0.00797839 0.00396306 -0.0142886 0.000423 -0.540999 0.11662 -0.291139 2650 
539 1 0.00771861 0.00735035 -0.01477 0.000116 -0.391489 -0.0734437 -0.209291 2650 
1951 1 0.00666862 0.0187607 -0.0147725 0.000116 0.0811421 -0.106359 0.0503472 2650 
879 1 0.0085227 0.0296406 -0.0145471 4.2e-05 -0.275248 -0.0404214 -0.145119 2650 
3682 1 0.00591481 0.0385351 -0.0143828 0.000116 0.0142859 0.0520881 -0.0306175 2650 
1993 1 0.00765243 0.066825 -0.0143522 0.000423 -0.0886836 0.241501 -0.0657313 2650 
1272 1 0.00496771 0.00726063 -0.013542 0.000116 0.00629536 0.00680791 0.0215099 2650 
2093 1 0.00825843 0.0094681 -0.0138908 0.000656 -0.186403 -0.20365 -0.0972336 2650 
64 1 0.00858124 0.0388116 -0.0140107 0.000116 -0.42824 -0.0144833 -0.314552 2650 
2792 1 0.0106892 0.0617582 -0.0138465 0.000423 0.224556 0.191889 -0.651027 2650 
1976 1 0.001365 0.000705522 -0.013019 4.2e-05 0 -0.01175 0 2650 
1840 1 0.00637802 0.0120433 -0.0130884 0.000116 -0.0183241 0.0136789 0.0200175 2650 
2473 1 0.00244521 0.0257591 -0.01296 0.000423 0.0692358 0.0270627 0.0311495 2650 
1618 1 0.0104475 0.0284086 -0.0132134 0.000116 -0.191623 0.0751636 -0.166537 2650 
522 1 0.0109767 0.0393531 -0.0126663 0.000116 -0.0955864 0.0692402 -0.0824045 2650 
2138 1 0.00981581 0.0420911 -0.0132392 0.000423 -0.468703 0.00709872 -0.409088 2650 
743 1 0.00995148 0.00399001 -0.0124193 0.000116 -0.0558195 -0.0207312 -0.0303102 2650 
2453 1 0.0110914 0.034934 -0.0122309 0.000423 -0.346449 -0.0828286 -0.301968 2650 
2231 1 0.0107672 0.0361921 -0.0124788 0.000423 -0.640558 0.164352 -0.557252 2650 
1266 1 0.0104788 0.0534472 -0.0122248 0.000116 -0.0214949 0.133699 -0.144107 2650 
4155 1 0.00323145 0.0675982 -0.0119798 4.2e-05 0.0475811 0.104096 -0.0727638 2650 
3856 1 0.00846679 0.013365 -0.0116552 0.000423 -0.136514 -0.123471 -0.0377363 2650 
1391 1 0.00377982 0.0227626 -0.0115829 0.000116 -0.0123779 0.039624 -0.0900578 2650 
4202 1 0.00855543 0.034422 -0.0113634 0.000423 0.0190834 0.0656225 -0.0851068 2650 
1074 1 0.0059933 0.0686812 -0.010338 0.000116 -0.0555577 0.140148 -0.00905425 2650 
1315 1 0.002707 0.000225522 -0.009707 4.2e-05 0 -0.01175 0 2650 
577 1 0.00349522 0.00826451 -0.00953996 0.000423 -0.00211989 0.0202102 0.0105745 2650 
2719 1 0.00879735 0.0321838 -0.00956921 0.000116 -0.0100732 0.0400453 -0.0148195 2650 
2088 1 0.0111226 0.0276264 -0.00923688 4.2e-05 0.0104901 0.034795 0.0345361 2650 
3914 1 0.0115037 0.0302648 -0.00942631 0.000116 0.0891273 0.0408955 0.00596747 2650 
2724 1 0.00970631 0.0446218 -0.00899339 0.000116 0.0246901 0.055623 -0.058098 2650 
3180 1 0.0022 0.00406252 -0.0084 4.2e-05 0 -0.01175 0 2650 
3663 1 0.0141394 0.0172187 -0.00852361 0.000423 -0.490764 0.124262 -0.662315 2650 
4051 1 0.0148432 0.0258961 -0.00820843 4.2e-05 -0.472527 -0.00619296 -1.1495 2650 
754 1 0.00980438 0.0304164 -0.00840519 0.000116 0.0143961 0.0413942 -0.00450452 2650 
627 1 0.00676497 0.0480082 -0.00813595 0.000116 0.00936921 0.0704875 -0.0111478 2650 
489 1 0.00850792 0.0563599 -0.00862162 0.000423 0.037471 0.0252849 0.0563188 2650 
301 1 0.0132937 0.0675551 -0.00814265 0.000116 0.036415 0.109971 0.00341417 2650 
3438 1 0.00447231 0.00846002 -0.00734777 0.000423 -0.00660654 0.00193753 -0.0318953 2650 
3551 1 0.0146195 0.0329193 -0.00771235 0.000423 -0.197034 0.0814174 -0.476221 2650 
1041 1 0.0126247 0.0656491 -0.00724274 0.000423 0.0312577 0.188956 -0.020682 2650 
1180 1 0.0153516 0.00804888 -0.00675618 0.000116 -0.0443455 -0.0065504 -0.105196 2650 
1850 1 0.00162171 0.0282289 -0.00684752 0.000116 0.0293238 0.073889 0.0432271 2650 
3374 1 0.0110262 0.0295154 -0.00699155 0.000116 -0.0563402 0.0385799 -0.0650566 2650 
1186 1 0.0156124 0.000974368 -0.00592233 0.000116 -0.224616 0.000864898 -0.516005 2650 
196 1 0.000566402 0.00366782 -0.00586693 0.000116 0.00109538 -0.000168582 -0.0039897 2650 
3286 1 0.0157677 0.00945329 -0.00553161 4.2e-05 -0.0108519 0.000283369 -0.137171 2650 
69 1 0.00211461 0.0404803 -0.00623078 0.000116 0.0753705 0.0883599 0.0320408 2650 
429 1 0.00968531 0.0141282 -0.0046719 0.000116 -0.0270887 0.00653783 0.0803385 2650 
3904 1 0.0161428 0.0316766 -0.00466462 0.000116 -0.143605 0.0714426 -0.822925 2650 
2302 1 0.000883326 0.0426077 -0.00455648 4.2e-05 0.0212021 0.0804904 -0.0392467 2650 
1152 1 0.0150784 0.00926653 -0.00349962 0.000423 -0.0961951 -0.10855 -0.483792 2650 
4301 1 0.0159554 0.0105314 -0.00349037 0.000423 -0.0214039 0.0214669 -0.112975 2650 
2627 1 0.00564417 0.0160832 -0.00319827 0.000116 -0.0188907 0.0287311 -0.057755 2650 
3479 1 0.0162819 0.0223024 -0.00374306 0.000116 -0.144857 0.0276691 -0.820357 2650 
1271 1 0.0116965 0.0242873 -0.00329666 0.000116 -0.0163314 0.0197669 0.0283361 2650 
557 1 0.00451117 0.00382942 -0.00299879 0.000656 0.0141193 0.00785443 0.0527688 2650 
541 1 0.0125118 0.00511526 -0.00270094 4.2e-05 0.0240195 -0.00747706 0.000215373 2650 
3654 1 0.0161228 0.00961207 -0.00265438 0.000423 -0.0920451 -0.0548469 -0.479923 2650 
2738 1 0.0108909 0.014792 -0.00290119 4.2e-05 -0.00648258 -0.164081 -0.125719 2650 
536 1 0.00848697 0.0193765 -0.00291592 0.000116 -0.0931143 0.0323185 -0.0419997 2650 
3704 1 0.00836002 0.0317684 -0.00288067 0.000116 -0.0563034 0.0612969 -0.019861 2650 