ITEM: TIMESTEP
12345602
ITEM: NUMBER OF ATOMS
344
ITEM: BOX BOUNDS ff ff ff
-0.15 0.15
-0.15 0.15
-0.15 0.15
ITEM: ATOMS id type x y z radius vx vy vz density 
447 1 -0.0285557 -0.0459533 -0.0618822 0.000847 -7.73359 -1.53671 3.56864 2650 
202 1 -0.0404988 -0.00617819 -0.0548357 0.000847 -32.3219 3.61848 23.8567 2650 
370 1 -0.0567272 -0.00727609 -0.0339275 0.000847 -0.376773 -0.510718 1.15936 2650 
259 1 -0.0631408 -0.0560893 -0.0272535 0.000233 -13.8204 3.57278 32.0124 2650 
487 1 -0.0626862 -0.0135839 -0.0268274 0.000847 -26.4199 5.81875 61.7944 2650 
161 1 -0.0634223 -0.0136381 -0.025121 0.000847 -26.729 6.41601 68.5149 2650 
233 1 -0.00623092 -0.000737548 -0.0138186 0.000233 0.001282 -0.0107579 -0.00349916 2650 
289 1 -0.012111 -0.00258282 -0.00803254 0.001312 -0.00481764 -0.0212152 0.00718451 2650 
455 1 -0.006244 -0.00286794 -0.008207 0.000233 0 -0.01175 0 2650 
271 1 -0.0149242 -0.00050532 -0.00644695 0.000233 -0.0244346 -0.00736335 0.0131781 2650 
35 1 -0.0114711 -8.80081e-05 -0.00758222 0.000847 0.00287279 0.00111856 0.0652629 2650 
248 1 -0.00873532 -0.00137772 -0.00650323 0.000233 0.0126334 -0.00646132 0.00219922 2650 
158 1 -0.004052 -0.000823941 -0.007417 8.4e-05 0 -0.01175 0 2650 
136 1 -0.00348162 -0.00122851 -0.00526608 0.000847 -0.00462661 -0.0113595 0.00693803 2650 
237 1 -0.0014481 -0.00118242 -0.00341147 0.001312 0.00206689 -0.0077441 0.00656215 2650 
312 1 -0.00896583 -0.00273631 -0.00210823 0.000233 -0.0103024 -0.0278865 0.00176669 2650 
32 1 -0.0117682 -0.00151499 -0.00108647 0.000847 -0.0388901 -0.00867037 0.0380773 2650 
208 1 -0.003072 -0.00137794 -0.000554 0.000233 0 -0.01175 0 2650 
201 1 -0.017175 -0.00659591 6.17798e-05 0.000847 -0.843084 -1.43548 0.16407 2650 
505 1 -0.014198 -0.000607495 0.00198095 0.000233 -0.00378522 -0.00213289 0.00845565 2650 
501 1 -0.0117289 -0.00026001 0.00258159 0.000847 -0.0338157 -0.0121714 0.0533609 2650 
270 1 -0.0120765 -0.0031434 0.00378188 0.000233 -0.0377887 -0.0230306 0.00455896 2650 
387 1 -0.000232717 -0.000133643 0.00414513 0.000233 -0.011907 -0.0146708 -0.00429125 2650 
431 1 -0.007173 -0.00204894 0.006023 8.4e-05 0 -0.01175 0 2650 
56 1 -0.011864 -1.99406e-05 0.004858 0.001312 0 -0.01175 0 2650 
283 1 -0.00590084 -0.00120967 0.00514756 0.000233 0.00411522 -0.014298 -0.00503883 2650 
96 1 -6.22759e-05 -0.00309317 0.0069596 0.000847 7.55524e-05 -0.0137869 0.00196219 2650 
135 1 -0.00736751 -8.6341e-05 0.0065113 0.000847 0.00900114 -0.000763851 0.00963581 2650 
151 1 -0.0673898 -0.00331265 0.0104071 0.000847 7.60666 9.69284 49.2282 2650 
88 1 -0.010473 -0.000479941 0.008034 0.000233 0 -0.01175 0 2650 
206 1 -0.00790245 -0.00375728 0.00989081 0.000233 -1.15189 -0.0756592 1.44173 2650 
176 1 -0.003497 -0.00201794 0.009518 0.000847 0 -0.01175 0 2650 
355 1 -0.00519236 -0.00111949 0.00975581 0.000847 0.0145201 -0.023559 0.00106206 2650 
226 1 -0.00460101 -0.000371746 0.0113482 0.000847 0.00576426 -0.0105638 0.00651403 2650 
311 1 -0.00486587 -0.0023708 0.0158952 0.000233 -0.00423165 -0.00976559 -0.00272972 2650 
316 1 -0.065152 -0.0142754 0.0200725 0.000847 7.14867 -1.46544 23.1877 2650 
468 1 -0.0651399 -0.0125165 0.0220574 0.000233 17.914 2.25998 52.8926 2650 
364 1 -0.055683 -0.00298775 0.0292537 0.000233 5.16905 6.98851 10.7763 2650 
305 1 -0.056397 -0.0506802 0.0383238 0.000847 30.5821 -10.3255 44.9794 2650 
485 1 -0.0570547 -0.00210874 0.0373019 0.000847 8.45409 -8.41058 12.7894 2650 
344 1 -0.0484526 -0.020627 0.0479523 0.000847 23.8848 -6.0068 24.1202 2650 
306 1 -0.0467145 -0.00990905 0.049641 0.000847 19.9788 8.6878 18.7866 2650 
84 1 -0.0348186 -0.0195537 0.0586214 0.000847 51.7364 0.456065 30.7126 2650 
195 1 -0.0145661 -0.00830828 0.0645328 0.000233 -0.611614 -0.299139 2.20324 2650 
268 1 -0.0176751 -0.0203833 0.0658527 0.000847 64.3773 -1.21636 17.2701 2650 
432 1 -0.0079353 -0.023945 0.0672951 0.001312 70.0462 -5.82244 8.2535 2650 
286 1 -0.00962523 -0.0172633 0.0680901 0.000233 1.35945 4.49356 0.192118 2650 
279 1 -0.0556143 0.0483087 -0.0394088 0.000847 -1.7998 0.181056 2.53769 2650 
42 1 -0.0632392 0.0426906 -0.0242002 0.001312 -1.4831 0.107805 3.87098 2650 
34 1 -0.00138197 0.0493492 -0.0159608 0.000847 -0.10803 0.274141 0.0205334 2650 
37 1 -0.007724 0.000837059 -0.014299 0.000233 0 -0.01175 0 2650 
309 1 -0.00561662 0.00377541 -0.0150356 0.000233 0.00249485 -0.00716569 -0.0039835 2650 
246 1 -0.00429254 0.00447313 -0.014665 0.000233 -0.00467916 -0.00357864 0.0111576 2650 
198 1 -0.00420287 0.0101965 -0.0144544 0.001312 -0.0026866 0.0163793 -0.00434912 2650 
143 1 -0.00545591 0.0120413 -0.0156564 0.000233 0.0345024 -0.00482688 -0.0172306 2650 
177 1 -0.00397347 0.0269369 -0.0154001 0.000847 -0.0206217 0.0440002 0.00409799 2650 
36 1 -0.008519 0.000100059 -0.013643 0.000233 0 -0.01175 0 2650 
68 1 -0.00644536 0.0028464 -0.0140372 0.001312 -0.000428158 -0.00519233 -0.00255451 2650 
444 1 -0.00178444 0.0333327 -0.0134343 8.4e-05 -0.00448298 0.0465385 0.0015305 2650 
67 1 -0.0101448 0.0504381 -0.0132739 8.4e-05 -0.0293765 0.089247 0.016235 2650 
76 1 -0.005578 0.00126306 -0.011829 0.000233 0 -0.01175 0 2650 
209 1 -0.00364751 0.00299158 -0.0120479 0.000233 -0.00383887 -0.0114599 -0.0040431 2650 
13 1 -0.012448 0.00101306 -0.010914 8.4e-05 0 -0.01175 0 2650 
69 1 -0.0114277 0.00293858 -0.0104546 0.001312 -0.00151174 -0.0064257 0.00424939 2650 
324 1 -0.00634969 0.00313521 -0.00980685 0.000233 -0.00575995 0.00749029 -0.0114322 2650 
435 1 -0.00352976 0.00242205 -0.0110048 0.000847 0.00308602 -0.00815271 -0.000800526 2650 
392 1 -0.003997 0.00160406 -0.009609 8.4e-05 0 -0.01175 0 2650 
147 1 -0.00302788 0.0044672 -0.0104959 0.001312 0.00356658 -0.00751943 -0.000978103 2650 
284 1 -0.000701783 0.00395737 -0.0102571 0.000233 -0.0288039 0.00640103 -0.00556492 2650 
149 1 -0.00892305 0.0155664 -0.0106707 0.000847 0.014616 0.0129417 0.00365242 2650 
48 1 -0.0121256 0.0294233 -0.0106617 0.000847 -0.00477242 0.0320388 0.00629213 2650 
72 1 -0.00814048 0.0391469 -0.010982 0.000847 0.0131193 0.0325042 0.0089407 2650 
348 1 -0.0114033 0.00254328 -0.00895449 0.000233 -0.000115053 -0.0122641 0.0034287 2650 
332 1 -0.013253 0.00374406 -0.008686 0.000847 0 -0.01175 0 2650 
2 1 -0.00878254 0.00502437 -0.0088414 0.001312 0.00204268 -0.00183606 -0.00693412 2650 
95 1 -0.00585107 0.00490953 -0.00907103 0.001312 0.00877271 0.00207997 0.00269766 2650 
146 1 -0.00128607 0.00875939 -0.00837717 0.001312 -0.00180877 0.0104197 0.00851122 2650 
199 1 -0.00737189 0.0131927 -0.00865805 0.001312 -8.22847e-05 0.00621402 -0.00802024 2650 
502 1 -0.0135987 0.0202743 -0.00857856 0.000847 -0.0785799 0.0761663 0.149112 2650 
486 1 -0.0115472 0.0210924 -0.00855772 0.000847 0.0255687 0.0223711 0.000912143 2650 
16 1 -0.0063894 0.0274417 -0.00833764 0.001312 -0.0139168 0.0374299 0.012099 2650 
15 1 -0.0126425 0.0314512 -0.00870427 0.001312 -0.0228138 0.0625667 0.00380754 2650 
66 1 -0.0133265 0.038497 -0.00894307 0.000233 0.00377936 0.0342087 0.00385618 2650 
133 1 -0.0135151 0.00145146 -0.00764835 0.001312 -0.0227551 0.0155942 0.0252066 2650 
157 1 -0.0102555 0.000114367 -0.00721269 0.000233 -0.103567 0.00852575 0.0998673 2650 
79 1 -0.0055307 0.00348205 -0.00668932 0.000233 0.0116224 -0.00870638 -0.00201173 2650 
512 1 -0.0123679 0.00781116 -0.00736041 0.000847 -0.0166001 0.000849647 0.00116294 2650 
520 1 -0.00775642 0.00908388 -0.00651618 0.000233 -0.0408881 0.00975514 -0.0298724 2650 
343 1 -0.00294786 0.00169285 -0.00509522 0.000847 -0.00158726 -0.00166665 0.0147287 2650 
186 1 -0.0145045 0.0281397 -0.00489602 0.001312 0.0013415 0.0478018 -0.0115318 2650 
222 1 -0.00863207 0.0310383 -0.00591923 0.000233 -0.0404047 0.0139169 0.0287244 2650 
482 1 -0.00876281 0.041254 -0.00608981 0.000233 0.000351426 0.0488467 0.0205314 2650 
478 1 -0.0116993 0.000546414 -0.00348235 0.000233 -0.0250515 0.0125337 0.000998332 2650 
112 1 -0.00741362 0.00188642 -0.00419289 0.000847 0.00148736 -0.0115797 0.000193987 2650 
145 1 -0.007489 0.00199606 -0.00326 8.4e-05 0 -0.01175 0 2650 
386 1 -0.00403152 0.00657709 -0.00316738 0.000847 -0.0165994 0.00558365 0.0198342 2650 
216 1 -0.000210019 0.0216565 -0.0041743 0.000847 0.00347878 0.0283419 0.0066285 2650 
331 1 -0.0130735 0.0265486 -0.00395279 0.000847 0.00197423 0.0488455 0.0131955 2650 
285 1 -0.004117 0.00157906 -0.002186 0.000233 0 -0.01175 0 2650 
399 1 -0.00283 0.000624059 -0.001648 0.000847 0 -0.01175 0 2650 
301 1 -0.000431 0.000737059 -0.003081 8.4e-05 0 -0.01175 0 2650 
467 1 -0.0080573 0.00187952 -0.00209681 0.000233 0.00382581 -0.00558722 -0.00260078 2650 
160 1 -0.00605879 0.0050433 -0.00231872 0.001312 -0.00493711 0.0155139 0.0115191 2650 
405 1 -0.00474847 0.00932246 -0.00231032 8.4e-05 -0.0173842 0.0117352 0.0210276 2650 
7 1 -0.0123349 0.00962704 -0.00187526 0.000847 -0.0382432 0.0138591 0.0121269 2650 
225 1 -0.0125675 0.0126102 -0.00305254 0.001312 -0.0253179 0.0155982 0.00389156 2650 
413 1 -0.0137807 0.0146418 -0.00306361 0.000233 0.0279729 0.00948838 0.00565525 2650 
273 1 -0.0120344 0.0191204 -0.00300728 0.000233 -0.0289129 0.0305466 0.0127636 2650 
121 1 -0.00719368 0.0185219 -0.00171935 0.001312 -0.0131808 0.0329105 0.0147062 2650 
287 1 -0.0157078 0.00121898 -0.000163898 0.000233 0.0124311 -0.00100216 0.0248149 2650 
60 1 -0.00600758 0.000568052 -1.30707e-05 0.000847 -0.0009898 0.000428572 0.0136178 2650 
345 1 -0.00744122 0.00220369 -0.000565126 0.000847 0.00935123 0.0049538 0.0047907 2650 
75 1 -0.004976 0.00199006 -0.001105 0.000233 0 -0.01175 0 2650 
464 1 -0.00375381 0.00503996 -2.48897e-05 0.000233 -0.0138944 -0.0011629 0.028037 2650 
204 1 -0.0062948 0.00733011 -0.00111021 0.000847 -0.00395103 0.0194885 0.0133995 2650 
8 1 -0.0116161 0.00940211 -0.000568495 0.000233 -0.0377859 0.00117362 -0.00427534 2650 
228 1 -0.0158871 0.0200737 -0.00119196 0.000847 -0.00578167 0.0253723 0.0333152 2650 
440 1 -0.0130045 0.000447014 0.000949305 0.000233 0.00637766 0.0032616 -0.0067895 2650 
168 1 -0.0156903 0.00346624 0.00079669 0.000233 -0.0436247 0.00391053 0.00963217 2650 
22 1 -0.00208175 0.00419173 0.00079366 0.000233 0.00398177 -0.00836964 -0.0209856 2650 
245 1 -0.0127881 0.010998 0.00103817 0.000233 0.0180153 0.025065 0.0119947 2650 
242 1 -0.0106727 0.0011279 0.00292548 0.000847 0.00379592 -0.00439534 0.00459091 2650 
376 1 -0.005395 0.00148006 0.002758 0.000233 0 -0.01175 0 2650 
175 1 -0.0139702 0.00223845 0.00220315 0.000847 -0.0375168 -0.0077218 0.0233419 2650 
219 1 -0.00560551 0.00534764 0.00230816 0.000233 0.00888838 0.00217768 -0.0132951 2650 
214 1 -0.000493197 0.0203121 0.00189048 0.000847 0.00525677 0.0348171 0.020631 2650 
137 1 -0.00974537 0.0271357 0.00305391 0.000847 0.0202347 0.0234308 -0.000934137 2650 
131 1 -0.009967 0.00133006 0.004313 0.000233 0 -0.01175 0 2650 
256 1 -0.00401186 0.000282695 0.00315916 0.000847 0.00287093 -0.0109614 -0.0104852 2650 
296 1 -0.002285 0.00316906 0.004233 0.000233 0 -0.01175 0 2650 
470 1 -0.008539 0.00422806 0.004033 8.4e-05 0 -0.01175 0 2650 
374 1 -0.00739331 0.00454719 0.0034165 0.000233 -0.00450428 -0.00788516 -0.00181456 2650 
244 1 -0.00228763 0.00435219 0.00370367 0.000233 -0.00017938 -0.00850699 -0.011825 2650 
394 1 -0.00287045 0.00648052 0.00425545 0.000847 -0.0103893 -8.34416e-05 0.0121911 2650 
188 1 -0.00049466 0.0351402 0.003882 0.000847 0.00797073 0.0304807 0.00488408 2650 
223 1 -0.014414 0.000622059 0.005039 8.4e-05 0 -0.01175 0 2650 
469 1 -0.012765 0.00186906 0.005129 0.000233 0 -0.01175 0 2650 
90 1 -0.009269 0.00211206 0.005356 0.000233 0 -0.01175 0 2650 
172 1 -0.000554875 0.00189568 0.00475886 0.001312 -0.0010608 -0.012496 -0.00415505 2650 
475 1 -0.000224604 0.00487485 0.00591596 0.000847 0.00876737 -0.0038212 -0.00533181 2650 
515 1 -0.00892825 0.00981036 0.00522091 0.000847 -0.033504 0.00740605 0.0118993 2650 
329 1 -0.000223869 0.000850707 0.00716156 0.000847 0.000117514 -0.00626577 0.00157219 2650 
361 1 -0.0105627 0.00242396 0.00751525 0.000233 0.0202952 -0.0264446 0.0306205 2650 
369 1 -0.008047 0.00202706 0.006729 0.000847 0 -0.01175 0 2650 
45 1 -0.000832607 0.00239783 0.00785221 0.000847 0.000665558 -0.00317051 0.000643319 2650 
503 1 -6.30321e-05 0.00401092 0.00655786 0.000233 -0.00860643 -0.00470875 0.0018758 2650 
407 1 -0.0109199 0.00505951 0.0073235 0.000847 0.0233673 0.00360385 0.0388288 2650 
77 1 -0.00424378 0.0225066 0.00746786 0.000233 0.022645 0.0508553 0.0284117 2650 
71 1 -0.000687758 0.0466212 0.0065789 0.000847 -0.0134658 0.0469368 -0.000234284 2650 
462 1 -0.013341 0.00200406 0.008656 0.000847 0 -0.01175 0 2650 
235 1 -0.0136091 0.00389208 0.00881356 0.000233 -0.00202888 -0.00262455 -0.0155853 2650 
178 1 -0.00573435 0.0226491 0.00908028 0.000847 -0.0105802 0.0285637 -0.000816359 2650 
466 1 -0.0129403 0.0725097 0.00906545 0.000233 0.00860235 0.156793 0.028965 2650 
511 1 -0.0120426 0.034401 0.0103625 0.000847 0.00237263 0.0230573 -0.0255976 2650 
518 1 -0.011612 0.000843059 0.01181 0.000233 0 -0.01175 0 2650 
128 1 -0.003888 0.00126206 0.011415 0.000233 0 -0.01175 0 2650 
313 1 -0.004641 0.00390806 0.011299 0.000233 0 -0.01175 0 2650 
192 1 -0.009107 0.00112606 0.013183 0.000233 0 -0.01175 0 2650 
379 1 -0.006906 0.000493059 0.013866 8.4e-05 0 -0.01175 0 2650 
31 1 -0.00728041 0.0289491 0.0138818 0.000847 0.0378023 0.062892 0.00489831 2650 
180 1 -0.00200852 0.0393685 0.01292 0.000233 0.00860892 0.0812149 0.00119763 2650 
390 1 -0.000303608 0.00210262 0.0143427 0.000233 -0.00511716 -0.00910385 0.00447344 2650 
196 1 -0.00668145 0.0204047 0.0144838 0.000233 0.0126842 0.0305104 -0.000979182 2650 
229 1 -0.00062954 0.0582225 0.0154162 0.000847 0.0363744 0.115278 -0.0183095 2650 
441 1 -0.0598089 0.0946649 -0.0339674 0.000233 -76.1672 0.0241598 134.095 2650 
428 1 0.00663779 -0.0606074 -0.068457 0.000233 -153.332 -7.43296 -14.9143 2650 
250 1 0.0104897 -0.0254538 -0.0668759 0.001312 -22.2924 -1.64288 -3.4942 2650 
323 1 0.0328018 -0.0456503 -0.0604397 0.000233 -25.5609 7.6089 -13.8719 2650 
120 1 0.0363098 -0.0115582 -0.0571594 0.001312 -29.7442 3.46623 -18.8772 2650 
51 1 0.0608847 -0.00663189 -0.0319821 0.000233 -33.08 -5.77584 -62.9637 2650 
61 1 0.0608641 -0.0548462 -0.0307334 0.000847 -21.1657 7.99722 -41.892 2650 
509 1 8.87125e-05 -0.000944723 0.0165419 8.4e-05 -0.111581 0.00362007 -0.0414126 2650 
92 1 0.0634929 -0.0422818 0.0264283 0.000233 25.9546 6.33106 -62.3438 2650 
29 1 0.00646209 -0.00115687 -0.0139855 0.001312 -0.0127929 0.0170519 -0.00211442 2650 
404 1 0.009844 -0.00220594 -0.011142 0.000233 0 -0.01175 0 2650 
522 1 0.00601256 -0.00309514 -0.0104603 8.4e-05 -0.00153634 -0.0105192 -0.000356333 2650 
371 1 0.0132515 -0.0021461 -0.0088861 0.000847 -0.000435563 -0.00775908 -0.00237964 2650 
496 1 0.0129705 -0.00170448 -0.00804673 8.4e-05 0.00528888 -0.00200039 0.000223006 2650 
163 1 0.0144498 -0.000636795 -0.00677053 0.000847 0.00522803 -0.0109832 0.00969071 2650 
164 1 0.0678169 -0.0326358 -0.00695123 0.000847 -9.35679 -1.72566 -80.2252 2650 
142 1 0.000422 -0.00231294 -0.00166 0.000233 0 -0.01175 0 2650 
11 1 0.0118848 -0.00302553 -0.00212067 0.000233 -0.0271983 -0.0533447 0.0109781 2650 
408 1 0.00663497 -0.00217873 0.00127182 0.000847 -0.0122062 -0.00815859 0.00391405 2650 
47 1 0.0681533 -0.012307 0.00172396 0.000847 0.561824 4.85427 -22.1944 2650 
116 1 8e-05 -0.000545941 0.00308 0.000233 0 -0.01175 0 2650 
495 1 0.00185339 -0.00122392 0.00210603 0.000233 -0.0216097 -0.00536975 0.0219754 2650 
471 1 0.00677831 -4.42003e-06 0.00242441 0.001312 -0.0125985 -0.00838204 0.0121139 2650 
328 1 0.013135 -0.000827606 0.00210107 0.001312 0.00159597 -0.0088094 -0.00352873 2650 
220 1 0.0686452 -0.00647641 0.004168 0.000233 0.00162162 -0.151753 -0.0267017 2650 
122 1 0.00713066 -0.00198281 0.00471083 0.000847 -0.00783666 -0.0104526 0.01123 2650 
266 1 0.0463169 -0.0365068 0.00849835 0.000847 -31.0801 -10.3822 26.6017 2650 
384 1 0.000540691 -0.00106671 0.00726387 0.000847 0.00530226 -0.00861975 0.013456 2650 
167 1 0.009498 -0.00112094 0.007687 0.000233 0 -0.01175 0 2650 
338 1 0.008907 -0.00274794 0.008617 0.000233 0 -0.01175 0 2650 
119 1 0.00722 -0.000873941 0.008414 8.4e-05 0 -0.01175 0 2650 
98 1 0.00783814 -0.00311461 0.00991654 0.000847 0.00202454 -0.0128457 -0.0127253 2650 
150 1 0.00995495 -0.00279917 0.0102346 0.000847 0.00722568 -0.00399243 -0.0084384 2650 
492 1 0.00152724 -0.00150067 0.010741 0.000233 -0.0242115 -0.0260038 0.00690376 2650 
267 1 0.00505527 -0.00270553 0.011143 0.000847 0.026628 -0.0196938 0.0067696 2650 
381 1 0.00188478 -0.000875815 0.0115579 0.000847 -0.0116978 -0.0115946 -0.00414217 2650 
417 1 0.00794549 -0.00374944 0.0146576 0.000233 1.0927 -0.0789478 1.99893 2650 
70 1 0.000103205 -0.00240092 0.0155352 0.000847 -0.144532 -0.0607157 0.0608103 2650 
130 1 0.00532004 -0.00236856 0.0157225 0.000233 0.0113151 -0.0134611 -0.0161884 2650 
302 1 0.00787976 -0.0597485 0.067177 0.001312 6.79126 1.25549 -3.05663 2650 
110 1 0.00940229 -0.030986 0.0675815 0.000847 127.624 -10.9787 -18.0871 2650 
489 1 0.00464769 -0.0054619 0.068008 0.000847 45.6076 -5.58167 -3.11512 2650 
123 1 0.00312256 -0.0539555 0.0681237 0.000847 82.682 -7.07489 -3.78814 2650 
139 1 0.00110497 0.009695 -0.0159416 0.000847 -0.000340212 0.01234 0.00514233 2650 
342 1 0.00117619 0.00151686 -0.0154501 0.000847 -0.00195082 -0.0126776 -0.0110955 2650 
422 1 0.00553108 0.0047252 -0.0132709 0.000847 0.0192403 0.000774785 0.0156208 2650 
207 1 0.00748076 0.0047631 -0.0130858 0.000233 -0.000394386 0.0036987 0.00107871 2650 
395 1 0.00794615 0.00415067 -0.013911 0.000847 0.0215538 0.0068646 0.0157983 2650 
63 1 0.0057422 0.0105814 -0.012723 0.000233 0.015053 0.00544111 -0.0256247 2650 
30 1 0.00249586 0.0196513 -0.0135556 0.001312 -0.00353148 0.0092409 0.00816097 2650 
304 1 0.00946079 0.0224647 -0.012862 0.000847 0.0358613 0.0643261 0.0295423 2650 
425 1 0.00278987 0.0255934 -0.0141744 0.000847 -0.00178317 0.0169229 0.0136358 2650 
6 1 0.00146346 0.0280061 -0.0129193 0.000847 -0.0386172 0.0206024 -5.52892e-05 2650 
109 1 0.00620067 0.00202854 -0.0115874 0.000847 0.00130915 -0.00910576 -0.000850359 2650 
412 1 0.0111512 0.00229108 -0.0112487 0.000847 0.0194577 -0.00384225 0.0164424 2650 
224 1 0.00918793 0.00319692 -0.0123394 0.001312 0.0214401 0.00329236 0.0123192 2650 
251 1 0.00183723 0.0169564 -0.0120551 0.000847 0.0220363 0.0205447 0.0102673 2650 
234 1 0.00628318 0.000832306 -0.0109289 0.000233 0.0142985 -0.0153965 0.0078491 2650 
325 1 0.00700613 0.000587547 -0.0106579 0.000233 0.000908149 -0.0210759 0.0161098 2650 
65 1 0.00864799 0.000352112 -0.0107857 0.000233 0.0252582 -0.0169409 0.0125264 2650 
210 1 0.0112931 0.00199236 -0.0100404 8.4e-05 0.0164071 -0.00606224 0.0197285 2650 
449 1 0.00715469 0.00453137 -0.00952622 0.000847 0.031807 0.000640776 0.011097 2650 
12 1 0.0105982 0.00499892 -0.01008 0.000233 0.0238858 0.00893322 0.0191111 2650 
212 1 0.00232953 0.00752039 -0.0100009 0.001312 -0.00220798 -6.29498e-05 0.00245632 2650 
421 1 0.00527459 0.0104195 -0.0096628 0.000847 0.0151632 0.00622558 -0.0198916 2650 
5 1 0.00697272 0.0111055 -0.00970333 0.000847 0.00364242 0.00928126 -0.00293343 2650 
403 1 0.0126698 0.0224578 -0.0106127 0.000233 -0.00992673 0.0221863 -0.0117494 2650 
105 1 0.000368806 0.00249457 -0.00801931 0.000233 0.000474342 -0.0161422 -0.0120322 2650 
423 1 0.0109086 0.00191459 -0.00794316 0.000847 0.0216286 -0.00132724 0.0274812 2650 
81 1 0.0117382 0.0131766 -0.00862556 0.001312 -0.00733521 0.0116818 -0.000769902 2650 
94 1 0.00771922 0.0184148 -0.00895365 0.001312 0.00869302 0.0190936 0.0110526 2650 
211 1 0.000750023 0.0213304 -0.00861009 0.001312 -0.00854215 0.0127125 -0.0169799 2650 
368 1 0.0113643 0.0265071 -0.00868409 0.000847 0.0335713 0.0207598 0.00538703 2650 
400 1 0.008609 0.00446906 -0.006808 0.000233 0 -0.01175 0 2650 
74 1 0.0102026 0.011956 -0.00686351 0.000847 0.0105382 0.00506423 -0.0162822 2650 
420 1 0.00388175 0.0146545 -0.00766649 0.000847 -0.00768105 0.0159845 -0.0264652 2650 
363 1 0.014312 0.0144435 -0.00763115 0.000233 -0.00516116 0.0058541 -0.00751722 2650 
391 1 0.00754432 0.0171295 -0.00715405 0.000233 0.0111143 0.0144576 0.0136871 2650 
377 1 0.002656 0.00431506 -0.00627 0.000233 0 -0.01175 0 2650 
493 1 0.0125107 0.0124851 -0.00605707 0.000233 -0.0118703 0.00376708 0.00232476 2650 
437 1 0.0107688 0.0170947 -0.00524597 0.000847 0.0103713 0.0266912 -0.00142172 2650 
443 1 0.0141532 0.0504449 -0.00503952 0.000233 -0.0333644 0.0969571 -0.0301687 2650 
276 1 0.0144012 0.00117715 -0.00377197 0.001312 0.0113071 -0.00725202 0.0158368 2650 
27 1 0.0075714 0.00397747 -0.00405864 8.4e-05 -0.0165967 0.000109191 0.00379322 2650 
187 1 0.00892391 0.00372765 -0.00441979 0.000847 -0.0115529 0.00257543 0.00246599 2650 
80 1 0.0085872 0.00576282 -0.00441297 8.4e-05 0.0168056 -0.00846951 -0.00334929 2650 
356 1 0.0144391 0.0210998 -0.00462202 0.000847 0.00707095 0.0250902 0.022274 2650 
174 1 0.000230329 0.0292104 -0.00390172 0.000847 0.00404523 0.0418625 -0.0134125 2650 
3 1 0.0126382 0.0419658 -0.00455975 0.000847 0.0277643 0.0375434 0.0182655 2650 
17 1 0.00393885 0.00159846 -0.00166615 0.000847 -0.000232265 -0.01105 -0.00146143 2650 
494 1 0.0135162 0.0022516 -0.00294251 0.000233 -0.00704744 -0.0143221 0.0103924 2650 
144 1 0.0088309 0.00703361 -0.00245041 0.000233 0.0162694 0.00308379 0.0164097 2650 
255 1 0.0121074 0.007364 -0.00185709 0.000847 0.0155229 0.00362749 0.0110952 2650 
510 1 0.0150338 0.00640812 -0.00265139 0.001312 -0.00014416 -2.53583e-05 0.00667053 2650 
281 1 0.00446081 0.0166054 -0.0017615 0.000847 -0.00695836 0.0309939 -0.0195121 2650 
108 1 0.0150469 0.0162437 -0.00294608 0.001312 0.0057297 0.0115343 0.00599647 2650 
28 1 0.0159047 0.0269117 -0.00309498 8.4e-05 0.00684607 0.0440032 0.0211436 2650 
353 1 0.00681194 0.00333254 -0.000143514 8.4e-05 0.00908281 0.00118574 -0.0158319 2650 
227 1 0.0144081 0.00421221 -0.000894766 0.000847 0.00316871 -0.00459192 0.0078752 2650 
104 1 0.013691 0.00647328 -0.00123081 0.000233 -0.0127088 -0.00137457 -0.0290747 2650 
398 1 0.0145766 0.00987909 -0.00137225 0.000847 -0.00348009 0.00393025 0.0039623 2650 
351 1 0.00461297 0.0202223 -0.00148034 0.000233 0.00409184 0.0180406 0.0328294 2650 
457 1 0.00870744 0.0253333 -0.00142083 8.4e-05 0.00801527 0.0347161 0.0147456 2650 
165 1 0.01534 0.000583476 0.000387373 0.000847 0.00528732 -0.00208241 -0.00644445 2650 
292 1 0.00818173 0.00531892 0.000526994 0.000847 0.000789497 -0.00762925 0.0146941 2650 
375 1 0.0115453 0.00709272 0.00121295 0.000233 -0.0182452 -0.00353034 -0.0189375 2650 
215 1 0.000521444 0.0097909 0.00104025 0.000847 -0.00354284 0.0106929 0.0171768 2650 
217 1 0.00319972 0.0119269 0.0011699 0.000847 -0.00224131 0.0148287 0.0271684 2650 
383 1 0.00750133 0.0149645 0.000185739 0.000847 -0.0178103 0.00948738 0.00375842 2650 
50 1 0.0111 0.000107553 0.00171089 0.000233 -0.00146529 -0.00852389 -0.00218405 2650 
132 1 0.0135723 0.000678512 0.00175765 8.4e-05 0.00206523 -0.00615451 -0.00233351 2650 
433 1 0.0143963 0.00112897 0.00176573 0.000847 -0.00160246 -0.00311385 -0.00744232 2650 
426 1 0.00822514 0.00172237 0.0023757 0.000233 0.00270092 -0.011541 -0.000995869 2650 
438 1 0.0106286 0.00221432 0.001839 0.000847 -0.00469604 -0.00431271 0.00409818 2650 
14 1 0.0122882 0.0027371 0.00249265 8.4e-05 0.00372036 -0.00952606 0.0111418 2650 
83 1 0.0134086 0.0037928 0.00264022 0.000847 -0.000379633 -0.00951986 -0.000817454 2650 
388 1 0.0161487 0.00517036 0.00279108 0.000233 -0.00599918 -0.00238884 0.011479 2650 
366 1 0.0164631 0.00759616 0.00169676 8.4e-05 -0.00106009 -0.000326385 0.0377471 2650 
191 1 0.0116296 0.00838951 0.0029843 0.000847 -0.00436825 0.0301987 -0.0241671 2650 
293 1 0.00637228 0.0160072 0.0025251 0.000847 0.0120037 0.0137644 -0.0126971 2650 
372 1 0.00888913 0.0399385 0.00294658 0.000847 0.0235674 0.0821236 -0.0303315 2650 
303 1 0.00980593 0.00104382 0.00410432 0.000847 0.00415107 -0.0112633 0.00692361 2650 
282 1 0.00997393 0.00292015 0.00332505 0.000847 0.0419304 0.000656573 0.0228621 2650 
456 1 0.0107552 0.00206271 0.00463012 0.000233 0.0193669 -0.00817766 0.000901697 2650 
99 1 0.00962665 0.00590991 0.00372031 0.000847 -0.0110203 0.00375868 0.0128879 2650 
260 1 0.0149172 0.00767551 0.00432657 0.000233 0.0291177 -0.000979717 -0.0220271 2650 
299 1 0.0117933 0.00967454 0.00404047 0.000233 -0.00328546 0.0342169 -0.00371569 2650 
474 1 0.00521836 0.0236703 0.00387282 0.000847 0.0292048 0.0292379 0.00704819 2650 
156 1 0.0161502 0.0352501 0.00357697 0.000233 0.020841 0.054458 -0.085241 2650 
129 1 0.0159726 0.0549444 0.0044261 0.000233 0.0466348 0.0782995 -0.16964 2650 
499 1 0.00130632 0.000617666 0.00527118 0.000847 -0.00118106 -0.01608 -0.000149193 2650 
359 1 0.00943684 0.00264588 0.00501633 0.000847 0.00362679 -0.00693358 0.02576 2650 
261 1 0.000259058 0.00372476 0.00565421 0.000233 -0.00194867 -0.0092187 -0.0077316 2650 
472 1 0.0105699 0.00390751 0.0050692 0.000847 -0.000247584 -0.000358035 0.0116356 2650 
54 1 0.0116101 0.00380157 0.00521191 8.4e-05 -0.0136844 -0.00183931 -0.00696332 2650 
18 1 0.0127917 0.00646222 0.00609491 0.000847 -0.00191265 0.0646474 -0.0215184 2650 
254 1 0.00746315 0.0080612 0.00476192 0.000847 -0.0599218 0.044047 -0.0137715 2650 
427 1 0.0150241 0.0105581 0.00495144 0.000233 -0.0064393 0.0307872 0.00793576 2650 
126 1 0.00982446 0.020065 0.00615242 0.000847 -0.0189571 0.0169788 0.0158457 2650 
506 1 0.0148873 0.025957 0.00627686 0.000233 -0.00220319 0.0243737 0.0201119 2650 
38 1 0.0145435 0.0275208 0.00500998 0.000233 -0.0108563 0.0381487 0.00282041 2650 
517 1 0.00672653 0.029223 0.00500134 0.000233 0.0308496 0.037053 0.00878162 2650 
152 1 0.00069581 0.00317147 0.00756216 0.000847 0.00630245 -0.0104114 -0.000729287 2650 
333 1 0.00872602 0.00717836 0.00723042 0.000847 0.00473152 -0.00372576 0.00493378 2650 
476 1 0.0136609 0.00870854 0.00695632 0.000847 0.0262375 -0.00375313 -0.00175235 2650 
354 1 0.0124695 0.01928 0.00677211 0.001312 -0.00784634 0.00895772 0.00767836 2650 
58 1 0.0115204 0.0293439 0.00632267 0.000847 0.00301619 0.0499488 0.0452747 2650 
446 1 0.0107143 0.0323808 0.00765307 0.000847 0.0431759 0.0535511 -0.0370998 2650 
252 1 0.00119085 0.000854714 0.00815077 0.000847 0.00178238 -0.0110415 0.00112141 2650 
352 1 0.00911769 0.00565413 0.00833618 0.000233 -0.0011491 -0.00403828 -0.00747879 2650 
291 1 0.00172606 0.00688431 0.00905765 0.000847 0.0122958 -0.0014185 -0.000139055 2650 
295 1 0.0112437 0.011548 0.00878596 0.000847 -0.0169921 0.109523 0.0206326 2650 
516 1 0.014418 0.022496 0.00844131 0.000233 0.0357475 0.0294457 -0.0677509 2650 
319 1 0.00203456 0.049726 0.00893262 0.000847 0.0279455 0.0964513 0.00986285 2650 
265 1 0.00609381 0.00311471 0.0110181 0.000847 -0.0060608 -0.00538555 0.0133672 2650 
406 1 0.00956742 0.0054778 0.0108319 0.001312 -0.00308348 0.00292955 -0.0108613 2650 
200 1 0.011724 0.00507083 0.0108059 0.000847 -0.000673049 -0.00278038 -0.00559766 2650 
39 1 0.0124301 0.00934589 0.00995946 0.000233 -0.0189106 0.00477021 0.0179524 2650 
238 1 0.00837287 0.0107099 0.00961111 0.001312 0.00393038 0.00465132 -0.0110608 2650 
454 1 0.0122845 0.0124832 0.0107806 0.000233 -0.0617575 0.0284938 0.0717417 2650 
55 1 0.0106634 0.0187444 0.010972 0.001312 0.0217515 0.0211519 -0.00442956 2650 
97 1 0.0129449 0.0240683 0.00966801 0.000847 0.0515221 0.0302251 -0.0591225 2650 
479 1 0.00544961 0.000624664 0.0114469 0.000233 -0.00331952 -0.00530507 -0.00623275 2650 
89 1 0.003537 0.00449506 0.012461 0.000233 0 -0.01175 0 2650 
103 1 0.00882802 0.0084257 0.0120019 0.000233 -0.0110492 -0.00251187 -0.00895235 2650 
107 1 0.0102806 0.0128475 0.01142 0.001312 0.0139555 0.00419878 -0.00942809 2650 
450 1 0.011408 0.0314051 0.0112996 0.000847 0.0457715 0.0483526 -0.0373893 2650 
91 1 0.00413499 0.0338074 0.0121564 0.000233 -0.0363941 0.045077 -0.00579716 2650 
321 1 0.00691816 0.0417616 0.0113756 0.000847 0.0364837 0.0794391 0.00283765 2650 
263 1 0.00409173 0.00254698 0.0129586 0.001312 0.00539662 -0.00480208 -0.00516064 2650 
43 1 0.00620241 0.00382582 0.0140118 0.001312 -0.0233063 0.025523 0.00498377 2650 
1 1 0.00526908 0.00786899 0.0139947 0.001312 0.00100435 0.00512262 -0.00271948 2650 
514 1 0.00705751 0.00971292 0.0129344 0.000847 0.00515652 0.00249075 -0.00498333 2650 
277 1 0.00439251 0.019693 0.0136874 0.000847 -0.00836265 0.0344916 0.0291785 2650 
484 1 0.00829684 0.0205176 0.0128619 0.001312 0.0156445 0.0271737 -0.00746185 2650 
336 1 0.0075385 0.0117521 0.01487 0.000233 -0.0127757 0.0232112 -0.0223188 2650 
73 1 0.00417905 0.0211111 0.0149494 0.000847 0.0302851 0.029908 -0.0104796 2650 
504 1 0.00374308 0.012732 0.0160383 0.000233 0.056822 0.0154721 -0.0146413 2650 
418 1 0.00042639 0.0386139 0.0167653 8.4e-05 0.11723 0.031009 0.0047553 2650 
154 1 0.0068047 0.103049 -0.00883151 0.000233 -0.00924804 0.118602 0.00100956 2650 
