ITEM: TIMESTEP
16203699
ITEM: NUMBER OF ATOMS
290
ITEM: BOX BOUNDS ff ff ff
-0.15 0.15
-0.15 0.15
-0.15 0.15
ITEM: ATOMS id type x y z radius vx vy vz density 
151 1 -0.0204684 -0.0172445 -0.0650247 0.000847 -46.3085 11.1915 14.5687 2650 
233 1 -0.0136811 -0.0052907 -0.0322128 0.000233 -1.91409 -0.231074 -4.4527 2650 
37 1 -0.007724 -0.0021005 -0.014299 0.000233 0 -0.01175 0 2650 
36 1 -0.008519 -0.0028375 -0.013643 0.000233 0 -0.01175 0 2650 
76 1 -0.005578 -0.0016745 -0.011829 0.000233 0 -0.01175 0 2650 
13 1 -0.012448 -0.0019245 -0.010914 8.4e-05 0 -0.01175 0 2650 
392 1 -0.003997 -0.0013335 -0.009609 8.4e-05 0 -0.01175 0 2650 
348 1 -0.0114321 -0.000522803 -0.0080973 0.000233 -0.000115053 -0.0122641 0.0034287 2650 
112 1 -0.00704177 -0.00100855 -0.00414439 0.000847 0.00148736 -0.0115797 0.000193987 2650 
145 1 -0.007489 -0.000941496 -0.00326 8.4e-05 0 -0.01175 0 2650 
271 1 -0.0148835 -0.00208747 -0.00186332 0.000233 0.00268451 -0.00622237 0.0188628 2650 
399 1 -0.002954 -0.00222681 -0.00159051 0.000847 -0.00160863 -0.0106255 0.00074579 2650 
237 1 -0.000898004 -0.00314181 -0.00178637 0.001312 0.00249971 -0.00804667 0.00636149 2650 
301 1 -0.000431 -0.0022005 -0.003081 8.4e-05 0 -0.01175 0 2650 
285 1 -0.004117 -0.0013585 -0.002186 0.000233 0 -0.01175 0 2650 
75 1 -0.004976 -0.000947496 -0.001105 0.000233 0 -0.01175 0 2650 
256 1 -0.00329412 -0.0024577 0.000537822 0.000847 0.00287093 -0.0109614 -0.0104852 2650 
376 1 -0.005395 -0.0014575 0.002758 0.000233 0 -0.01175 0 2650 
131 1 -0.009967 -0.0016075 0.004313 0.000233 0 -0.01175 0 2650 
172 1 -0.00082008 -0.00122838 0.00372008 0.001312 -0.0010608 -0.012496 -0.00415505 2650 
147 1 -0.067598 -0.0283624 0.00440138 0.001312 -2.4245 0.533743 -37.2015 2650 
501 1 -0.0138406 -0.00233778 0.00585241 0.000847 0.014973 -0.00337273 0.011066 2650 
223 1 -0.0134411 -0.00114921 0.00522027 8.4e-05 0.0125399 0.00328235 0.00233646 2650 
469 1 -0.0141728 -0.00111361 0.00578605 0.000233 -0.0229613 0.00835257 0.0116557 2650 
90 1 -0.00925293 -0.00105359 0.00562711 0.000233 0.000324049 -0.0163501 0.00546747 2650 
495 1 -0.00354913 -0.00256638 0.00759998 0.000233 -0.0216097 -0.00536975 0.0219754 2650 
35 1 -0.0124823 -0.000423965 0.00695148 0.000847 -0.0127701 -0.00479047 0.0475034 2650 
369 1 -0.008047 -0.000910496 0.006729 0.000847 0 -0.01175 0 2650 
329 1 -0.00019449 -0.000715765 0.00755461 0.000847 0.000117514 -0.00626577 0.00157219 2650 
56 1 -0.0122083 -0.00276651 0.00789571 0.001312 -0.00372155 -0.0136448 0.00463435 2650 
462 1 -0.0134183 -0.000902921 0.00860586 0.000847 -0.00582134 -0.00944809 -0.00377474 2650 
135 1 -0.00511718 -0.000277307 0.00892029 0.000847 0.00900114 -0.000763851 0.00963581 2650 
355 1 -0.0119163 -0.000957495 0.00952319 0.000847 0.00490308 0.0174072 -0.00416863 2650 
128 1 -0.003888 -0.0016755 0.011415 0.000233 0 -0.01175 0 2650 
192 1 -0.009107 -0.0018115 0.013183 0.000233 0 -0.01175 0 2650 
379 1 -0.006906 -0.0024445 0.013866 8.4e-05 0 -0.01175 0 2650 
226 1 -0.00315992 -0.00301276 0.0129767 0.000847 0.00576426 -0.0105638 0.00651403 2650 
116 1 -0.00288457 -0.00485145 0.015639 0.000233 -0.512957 -0.173715 2.37298 2650 
390 1 -0.00158292 -0.000173387 0.0154611 0.000233 -0.00511716 -0.00910385 0.00447344 2650 
88 1 -0.0233456 -0.00480216 0.0210074 0.000233 -3.25021 -0.203873 3.05919 2650 
283 1 -0.0619764 -0.0281016 0.0298039 0.000233 -0.0751513 -0.458996 -0.156239 2650 
371 1 -0.0615354 -0.0297544 -0.0293276 0.000847 -14.72 -8.34705 29.704 2650 
435 1 -0.0589758 -0.060495 0.0341586 0.000847 14.1886 0.00385191 25.306 2650 
387 1 -0.0480504 -0.00671833 0.0491944 0.000233 -0.156946 -0.157888 -0.153248 2650 
325 1 -0.0253809 -0.0612972 0.0609982 0.000233 54.4041 -2.38043 23.8876 2650 
98 1 -0.0268195 -0.0236125 0.0626874 0.000847 59.4458 -9.39044 25.4192 2650 
361 1 -0.0315161 -0.0185779 0.0611198 0.000233 -0.174038 -0.533585 -0.0900554 2650 
328 1 -0.0243542 -0.0475089 0.0631559 0.001312 -11.7613 3.74688 -4.53444 2650 
250 1 -0.0142187 -0.0605347 0.0661784 0.001312 -13.3617 1.17632 -2.87075 2650 
309 1 -0.00494288 0.00200731 -0.0158463 0.000233 0.00362238 -0.00663915 0.000191931 2650 
311 1 -0.00153177 0.00488156 -0.0156204 0.000233 0.126233 -0.0425576 -0.125759 2650 
198 1 -0.00454945 0.0141511 -0.0146005 0.001312 -0.000304672 0.0153512 0.00254704 2650 
209 1 -0.00460725 0.000126543 -0.0130587 0.000233 -0.00383887 -0.0114599 -0.0040431 2650 
68 1 -0.00634314 0.00164234 -0.0140481 0.001312 0.000762409 -0.00465725 0.00101682 2650 
324 1 -0.00778971 0.00500782 -0.012665 0.000233 -0.00575995 0.00749029 -0.0114322 2650 
211 1 -0.00138555 0.0245086 -0.0128551 0.001312 -0.00854215 0.0127125 -0.0169799 2650 
6 1 -0.00819101 0.0331568 -0.0129331 0.000847 -0.0386172 0.0206024 -5.52892e-05 2650 
177 1 -0.00865319 0.0379468 -0.0134298 0.000847 -0.0160978 0.0436315 0.0124843 2650 
444 1 -0.00290521 0.0449675 -0.0130517 8.4e-05 -0.00448298 0.0465385 0.0015305 2650 
246 1 -0.00546235 0.00357846 -0.0118756 0.000233 -0.00467916 -0.00357864 0.0111576 2650 
69 1 -0.0116831 0.00129999 -0.00949406 0.001312 -0.000688818 -0.00664154 0.00356555 2650 
248 1 -0.00732584 0.000627841 -0.00984566 0.000233 0.0628821 -0.104703 0.0468825 2650 
2 1 -0.00821882 0.00466376 -0.0105978 0.001312 0.00338658 0.000420735 -0.00733581 2650 
157 1 -0.00958442 0.00790259 -0.00950243 0.000233 -0.0125257 0.0666126 -0.0123117 2650 
520 1 -0.00984973 0.0116294 -0.0103377 0.000233 0.0276435 0.0106542 0.000872001 2650 
199 1 -0.00739246 0.0147462 -0.0106631 0.001312 -8.22847e-05 0.00621402 -0.00802024 2650 
149 1 -0.005269 0.0188018 -0.00975761 0.000847 0.014616 0.0129417 0.00365242 2650 
332 1 -0.0137078 0.000925996 -0.00830737 0.000847 -0.00148053 -0.010701 0.00344427 2650 
95 1 -0.00365786 0.00542954 -0.0083966 0.001312 0.00877271 0.00207997 0.00269766 2650 
486 1 -0.00515492 0.0266853 -0.00832968 0.000847 0.0255687 0.0223711 0.000912143 2650 
66 1 -0.0123816 0.0470494 -0.00797901 0.000233 0.00377936 0.0342087 0.00385618 2650 
72 1 -0.00486061 0.0472731 -0.00874681 0.000847 0.0131193 0.0325042 0.0089407 2650 
79 1 -0.00262504 0.00130542 -0.00719226 0.000233 0.0116224 -0.00870638 -0.00201173 2650 
67 1 -0.0152228 0.0723971 -0.00717483 8.4e-05 -0.0193491 0.087684 0.0252624 2650 
512 1 -0.0142343 0.00791624 -0.00601769 0.000847 0.00150307 -1.20177e-06 0.00950204 2650 
146 1 -0.00173827 0.0113644 -0.00624932 0.001312 -0.00180877 0.0104197 0.00851122 2650 
16 1 -0.00986867 0.0367994 -0.00531283 0.001312 -0.0139168 0.0374299 0.012099 2650 
48 1 -0.0086594 0.0396972 -0.00493086 0.000847 0.0282751 0.0449354 0.0172238 2650 
15 1 -0.0131259 0.0462601 -0.00482603 0.001312 -0.000136065 0.0589477 0.0165203 2650 
22 1 -0.00108629 0.00209928 -0.00445285 0.000233 0.00398177 -0.00836964 -0.0209856 2650 
186 1 -0.0146994 0.0395469 -0.00334783 0.001312 -0.000822357 0.044321 0.0159023 2650 
467 1 -0.00710083 0.000482686 -0.00274702 0.000233 0.00382581 -0.00558722 -0.00260078 2650 
225 1 -0.0138376 0.0159151 -0.00194052 0.001312 0.0112501 0.0112996 0.00489696 2650 
413 1 -0.00678735 0.0170139 -0.00164977 0.000233 0.0279729 0.00948838 0.00565525 2650 
478 1 -0.0164075 0.00144125 -0.000940311 0.000233 0.00633427 -0.00249148 0.0171997 2650 
440 1 -0.0114101 0.00126243 -0.000748102 0.000233 0.00637766 0.0032616 -0.0067895 2650 
343 1 -0.00334468 0.00127618 -0.00141297 0.000847 -0.00158726 -0.00166665 0.0147287 2650 
133 1 -0.0155037 0.00504978 -0.000167362 0.001312 -0.00108618 0.0139012 0.0302433 2650 
219 1 -0.00338338 0.00589207 -0.00101568 0.000233 0.00888838 0.00217768 -0.0132951 2650 
8 1 -0.0145574 0.00949621 -0.00073283 0.000233 0.0177695 -0.00052839 0.00344916 2650 
331 1 -0.0126188 0.0386194 -0.000593734 0.000847 0.00171413 0.0479041 0.0135974 2650 
222 1 -0.016459 0.0412259 -0.00157064 0.000233 0.0113055 0.0535964 0.0148043 2650 
482 1 -0.00867495 0.0534659 -0.000956873 0.000233 0.000351426 0.0488467 0.0205314 2650 
244 1 -0.00233247 0.0022254 0.000747364 0.000233 -0.00017938 -0.00850699 -0.011825 2650 
345 1 -0.00510336 0.00344216 0.000632572 0.000847 0.00935123 0.0049538 0.0047907 2650 
160 1 -0.00803993 0.00845331 0.000790285 0.001312 -0.00834025 0.0133789 0.0125634 2650 
386 1 -0.00540571 0.00971439 0.000939465 0.000847 -0.00395113 0.0135185 0.0159528 2650 
7 1 -0.0134524 0.0129841 0.00125188 0.000847 0.0175225 0.0146643 0.0120912 2650 
273 1 -0.0156145 0.0263598 0.000235611 0.000233 0.0116795 0.0261254 0.0133414 2650 
505 1 -0.0161353 1.92097e-05 0.00292964 0.000233 0.00692847 0.0031658 0.000570197 2650 
374 1 -0.0085194 0.00257586 0.00296286 0.000233 -0.00450428 -0.00788516 -0.00181456 2650 
168 1 -0.0117416 0.00396872 0.00160554 0.000233 0.0215313 0.00182647 0.00261769 2650 
405 1 -0.0090946 0.0122563 0.00294669 8.4e-05 -0.0173842 0.0117352 0.0210276 2650 
204 1 -0.00728257 0.0122023 0.00223972 0.000847 -0.00395103 0.0194885 0.0133995 2650 
121 1 -0.0104889 0.0267497 0.00195728 0.001312 -0.0131808 0.0329105 0.0147062 2650 
137 1 -0.00468661 0.0329935 0.00282037 0.000847 0.0202347 0.0234308 -0.000934137 2650 
470 1 -0.008539 0.0012905 0.004033 8.4e-05 0 -0.01175 0 2650 
60 1 -0.00625504 0.000675197 0.00339145 0.000847 -0.0009898 0.000428572 0.0136178 2650 
296 1 -0.002285 0.000231504 0.004233 0.000233 0 -0.01175 0 2650 
261 1 -0.000228118 0.00142004 0.00372128 0.000233 -0.00194867 -0.0092187 -0.0077316 2650 
215 1 -0.00183869 0.010772 0.00442526 0.000847 -0.0137948 -0.00107304 0.0108544 2650 
245 1 -0.00828421 0.0172644 0.00403689 0.000233 0.0180153 0.025065 0.0119947 2650 
254 1 -0.00613205 0.0175908 0.0032273 0.000847 -0.0501827 0.0374938 -0.00168396 2650 
511 1 -0.0114494 0.0401654 0.003963 0.000847 0.00237263 0.0230573 -0.0255976 2650 
287 1 -0.0126425 0.000243786 0.00486521 0.000233 0.012023 -0.00793942 0.0135689 2650 
175 1 -0.0116724 0.00146698 0.00546037 0.000847 0.0202837 -0.00191546 0.0106933 2650 
242 1 -0.00834855 0.000570714 0.00561467 0.000847 0.0185229 0.00145193 0.0210495 2650 
235 1 -0.0141164 0.00323593 0.00491717 0.000233 -0.00202888 -0.00262455 -0.0155853 2650 
515 1 -0.0137415 0.0117288 0.00574353 0.000847 0.00857855 0.00819563 -0.0170642 2650 
503 1 -0.00221468 0.0028337 0.00702682 0.000233 -0.00860643 -0.00470875 0.0018758 2650 
464 1 -0.00722746 0.00474923 0.00698448 0.000233 -0.0138944 -0.0011629 0.028037 2650 
394 1 -0.00546781 0.00645966 0.00730328 0.000847 -0.0103893 -8.34416e-05 0.0121911 2650 
228 1 -0.0144863 0.026061 0.00689879 0.000847 0.00787678 0.0236645 0.0321721 2650 
71 1 -0.00405428 0.0583556 0.00652033 0.000847 -0.0134658 0.0469368 -0.000234284 2650 
45 1 -0.000666214 0.00160519 0.00801305 0.000847 0.000665558 -0.00317051 0.000643319 2650 
178 1 -0.00837946 0.0297902 0.00887618 0.000847 -0.0105802 0.0285637 -0.000816359 2650 
91 1 -0.00496371 0.0450769 0.0107071 0.000233 -0.0363941 0.045077 -0.00579716 2650 
518 1 -0.0111905 0.000952628 0.0118456 0.000233 0.0111488 0.0329764 0.00238491 2650 
313 1 -0.004641 0.000970504 0.011299 0.000233 0 -0.01175 0 2650 
407 1 -0.00439128 0.00601152 0.0145998 0.000847 0.0349896 0.00446715 -0.00231171 2650 
196 1 -0.00351034 0.0280325 0.014239 0.000233 0.0126842 0.0305104 -0.000979182 2650 
42 1 -0.0233574 0.0528558 0.0635303 0.001312 3.31418 0.223447 1.21847 2650 
305 1 0.0161243 -0.0128208 -0.0662186 0.000847 -18.6394 -5.2718 -4.53801 2650 
92 1 0.0358492 -0.0452432 -0.0586833 0.000233 11.6847 1.71619 7.13812 2650 
176 1 0.0407879 -0.0618152 -0.0546547 0.000847 -69.2586 6.89595 -51.9246 2650 
485 1 0.0172038 -0.047763 -0.050941 0.000847 -5.12072 6.88728 -7.9546 2650 
65 1 0.0620015 -0.00937858 -0.0297516 0.000233 0.0809954 -0.244616 0.168753 2650 
408 1 0.0661573 -0.0572935 -0.0164396 0.000847 -0.38679 -1.28141 -1.55536 2650 
342 1 0.000667736 -0.00135114 -0.0150487 0.000847 -0.00205548 -0.0111561 0.00493084 2650 
109 1 0.00652796 -0.000247944 -0.0118 0.000847 0.00130915 -0.00910576 -0.000850359 2650 
105 1 0.000487394 -0.00154106 -0.0110274 0.000233 0.000474342 -0.0161422 -0.0120322 2650 
234 1 0.00985787 -0.00301688 -0.00896664 0.000233 0.0142985 -0.0153965 0.0078491 2650 
496 1 0.0142927 -0.00220459 -0.00799098 8.4e-05 0.00528888 -0.00200039 0.000223006 2650 
163 1 0.0155404 -0.00339172 -0.00418776 0.000847 0.030281 -0.0604838 0.066594 2650 
17 1 0.00388078 -0.0011641 -0.00203151 0.000847 -0.000232265 -0.01105 -0.00146143 2650 
366 1 0.0157514 -0.000944013 -0.00221228 8.4e-05 -0.0169767 -0.0244642 -0.0145893 2650 
494 1 0.0117544 -0.00132901 -0.000344357 0.000233 -0.00704744 -0.0143221 0.0103924 2650 
276 1 0.014971 -0.000533311 -0.000844367 0.001312 -0.00193516 -0.00719349 0.00750844 2650 
50 1 0.0107337 -0.00202346 0.00116487 0.000233 -0.00146529 -0.00852389 -0.00218405 2650 
132 1 0.0136912 -0.00105315 0.00119284 8.4e-05 0.000444093 -0.00694166 -0.00225774 2650 
426 1 0.00890038 -0.00116292 0.00212672 0.000233 0.00270092 -0.011541 -0.000995869 2650 
471 1 0.00362861 -0.00209997 0.00545294 0.001312 -0.0125985 -0.00838204 0.0121139 2650 
303 1 0.0108437 -0.00177206 0.00583526 0.000847 0.00415107 -0.0112633 0.00692361 2650 
499 1 0.00157541 -0.00350258 0.00785963 0.000847 0.186524 -0.0518722 0.919165 2650 
252 1 0.00163645 -0.00190571 0.00843113 0.000847 0.00178238 -0.0110415 0.00112141 2650 
384 1 0.00186628 -0.00322169 0.0106279 0.000847 0.00530226 -0.00861975 0.013456 2650 
479 1 0.00461971 -0.000701628 0.00988867 0.000233 -0.00331952 -0.00530507 -0.00623275 2650 
136 1 0.0591158 -0.0521174 0.0339484 0.000847 12.251 -1.94588 -21.3182 2650 
61 1 0.0457921 -0.0412581 0.0414643 0.000847 -2.26829 7.56067 3.63665 2650 
158 1 0.0531706 -0.0274878 0.0438449 8.4e-05 -7.30587 -0.487072 8.85891 2650 
381 1 0.0516507 -0.00796241 0.0444844 0.000847 16.8205 -8.64166 -19.5176 2650 
208 1 0.00694387 -0.0130171 0.0654065 0.000233 -1.4632 -1.78469 1.67334 2650 
487 1 0.00184344 -0.0435577 0.0681708 0.000847 83.2667 0.911231 -2.25068 2650 
466 1 0.0212351 0.0593846 -0.0654062 0.000233 9.03377 -0.202078 2.933 2650 
143 1 0.00339796 0.011038 -0.0162566 0.000233 0.0340128 -0.0035414 0.00627664 2650 
29 1 0.0032638 0.00310618 -0.0145141 0.001312 -0.0127929 0.0170519 -0.00211442 2650 
139 1 0.00101992 0.01278 -0.014656 0.000847 -0.000340212 0.01234 0.00514233 2650 
63 1 0.00680315 0.0128575 -0.0152037 0.000233 -0.00825205 0.015092 0.00483952 2650 
420 1 0.00196145 0.0186507 -0.0142829 0.000847 -0.00768105 0.0159845 -0.0264652 2650 
207 1 0.00861391 0.00589493 -0.0135959 0.000233 0.00593865 0.00476369 -0.0029309 2650 
421 1 0.00771944 0.0114261 -0.0137219 0.000847 -0.00592506 -0.000206799 0.00905839 2650 
403 1 0.0101056 0.0279828 -0.0133949 0.000233 -0.0131932 0.0213296 -0.00560992 2650 
156 1 0.00869273 0.0471044 -0.0141093 0.000233 -0.0690496 0.0397949 -0.0366938 2650 
30 1 0.00161298 0.0219616 -0.0115153 0.001312 -0.00353148 0.0092409 0.00816097 2650 
443 1 0.00581192 0.0746846 -0.0125818 0.000233 -0.0333644 0.0969571 -0.0301687 2650 
284 1 0.000679421 0.00423868 -0.010385 0.000233 0.00926735 0.000549997 3.96422e-05 2650 
5 1 0.0086611 0.0138112 -0.0103787 0.000847 0.00697619 0.010933 -0.00268467 2650 
363 1 0.0130217 0.015907 -0.00951049 0.000233 -0.00516116 0.0058541 -0.00751722 2650 
251 1 0.00734642 0.0220927 -0.00948825 0.000847 0.0220363 0.0205447 0.0102673 2650 
425 1 0.00234407 0.0298242 -0.0107654 0.000847 -0.00178317 0.0169229 0.0136358 2650 
224 1 0.0130232 0.00399433 -0.00811408 0.001312 0.0137704 0.00316316 0.0180803 2650 
422 1 0.0103156 0.00491459 -0.0093494 0.000847 0.0191084 0.000752616 0.0157043 2650 
104 1 0.0105137 0.00612963 -0.00849962 0.000233 -0.0127088 -0.00137457 -0.0290747 2650 
395 1 0.0128964 0.00578389 -0.00946579 0.000847 0.01759 0.00611432 0.0202797 2650 
212 1 0.00177753 0.00750465 -0.00938685 0.001312 -0.00220798 -6.29498e-05 0.00245632 2650 
74 1 0.011539 0.0116594 -0.00930385 0.000847 0.00462142 -0.00205788 -0.00885179 2650 
81 1 0.0102536 0.0165175 -0.00925668 0.001312 -0.00574326 0.0135981 -0.00276911 2650 
516 1 0.0143718 0.0288865 -0.00864134 0.000233 -0.041082 0.00984816 -0.0619514 2650 
400 1 0.008609 0.0015315 -0.006808 0.000233 0 -0.01175 0 2650 
412 1 0.0142119 0.00139318 -0.00632154 0.000847 0.00905427 -0.00348073 0.0211514 2650 
449 1 0.0144714 0.00460274 -0.00655718 0.000847 -0.00534401 -0.00455473 0.0224851 2650 
150 1 0.0104908 0.00659567 -0.00710526 0.000847 -0.016467 0.0380506 -0.0652048 2650 
281 1 0.00272119 0.0243541 -0.00663962 0.000847 -0.00695836 0.0309939 -0.0195121 2650 
97 1 0.0142127 0.0291722 -0.0075569 0.000847 -0.0242981 0.0036191 -0.0567603 2650 
174 1 0.00124165 0.0396763 -0.0072549 0.000847 0.00404523 0.0418625 -0.0134125 2650 
377 1 0.002656 0.0013775 -0.00627 0.000233 0 -0.01175 0 2650 
210 1 0.015395 0.00047677 -0.00510817 8.4e-05 0.0164071 -0.00606224 0.0197285 2650 
80 1 0.0127887 0.00364541 -0.00525031 8.4e-05 0.0168056 -0.00846951 -0.00334929 2650 
12 1 0.0155077 0.00718227 -0.0050819 0.000233 0.000303612 0.00782301 0.0240019 2650 
493 1 0.00954302 0.0134269 -0.00547587 0.000233 -0.0118703 0.00376708 0.00232476 2650 
94 1 0.00989251 0.0231882 -0.00619045 0.001312 0.00869302 0.0190936 0.0110526 2650 
437 1 0.0133617 0.0237676 -0.0056014 0.000847 0.0103713 0.0266912 -0.00142172 2650 
418 1 0.0155379 0.0465327 -0.00620225 8.4e-05 -0.0555398 0.0324508 -0.128375 2650 
187 1 0.00603564 0.00437152 -0.00380328 0.000847 -0.0115529 0.00257543 0.00246599 2650 
353 1 0.00908268 0.00362898 -0.00410155 8.4e-05 0.00908281 0.00118574 -0.0158319 2650 
375 1 0.00698391 0.00621011 -0.0035215 0.000233 -0.0182452 -0.00353034 -0.0189375 2650 
391 1 0.0103229 0.020744 -0.00373221 0.000233 0.0111143 0.0144576 0.0136871 2650 
368 1 0.0132428 0.0313843 -0.00416801 0.000847 -0.0166136 0.028551 0.0195468 2650 
304 1 0.0156716 0.038056 -0.00344789 0.000847 0.0112019 0.0601068 0.0449028 2650 
372 1 0.0147811 0.0604698 -0.00463643 0.000847 0.0235674 0.0821236 -0.0303315 2650 
27 1 0.00342215 0.00400477 -0.00311032 8.4e-05 -0.0165967 0.000109191 0.00379322 2650 
191 1 0.0105375 0.0159393 -0.0030576 0.000847 -0.00436825 0.0301987 -0.0241671 2650 
216 1 0.000659692 0.0287421 -0.00251714 0.000847 0.00347878 0.0283419 0.0066285 2650 
450 1 0.0158433 0.0422758 -0.0021174 0.000847 -0.0106437 0.0392177 -0.0571454 2650 
446 1 0.0138712 0.0449042 -0.0017797 0.000847 -0.0144901 0.0470225 -0.03829 2650 
423 1 0.0158864 0.00159103 -0.00108421 0.000847 -0.00572488 -0.000801597 0.0267503 2650 
510 1 0.0149977 0.00640178 -0.000983721 0.001312 -0.00014416 -2.53583e-05 0.00667053 2650 
260 1 0.0164634 0.00836016 -0.000212644 0.000233 -0.00894505 0.0036873 -0.0117781 2650 
398 1 0.0137065 0.0108617 -0.000381658 0.000847 -0.00348009 0.00393025 0.0039623 2650 
108 1 0.0150873 0.0189483 -0.00137689 0.001312 -0.00168709 0.0105805 0.00636967 2650 
293 1 0.00937327 0.0194484 -0.000649248 0.000847 0.0120037 0.0137644 -0.0126971 2650 
433 1 0.0136013 0.000627103 0.000782722 0.000847 -0.00711441 0.000747813 0.00481573 2650 
165 1 0.0154759 4.62759e-05 0.00126422 0.000847 -0.00533979 -0.00218916 0.00846546 2650 
227 1 0.0152003 0.0030642 0.00107407 0.000847 0.00316871 -0.00459192 0.0078752 2650 
255 1 0.015958 0.00826995 0.000908865 0.000847 0.0149983 0.00361109 0.0109576 2650 
383 1 0.00304867 0.0173364 0.00112536 0.000847 -0.0178103 0.00948738 0.00375842 2650 
18 1 0.0123135 0.0226244 0.000715205 0.000847 -0.00191265 0.0646474 -0.0215184 2650 
356 1 0.0159794 0.0273485 0.000899847 0.000847 -0.0065132 0.0236585 0.0194829 2650 
3 1 0.0145747 0.0506395 0.000488356 0.000847 -0.00971456 0.032209 0.0218724 2650 
438 1 0.00945462 0.00113613 0.00286357 0.000847 -0.00469604 -0.00431271 0.00409818 2650 
144 1 0.0128983 0.00780457 0.00165209 0.000233 0.0162694 0.00308379 0.0164097 2650 
299 1 0.0109719 0.0182289 0.00311153 0.000233 -0.00328546 0.0342169 -0.00371569 2650 
457 1 0.0107113 0.0340125 0.00226565 8.4e-05 0.00801527 0.0347161 0.0147456 2650 
28 1 0.0162568 0.0377365 0.00205387 8.4e-05 -0.00639653 0.0422867 0.0198075 2650 
54 1 0.0117028 0.0029594 0.00362954 8.4e-05 0.000877911 -0.00342382 -0.00630648 2650 
475 1 0.00196728 0.00391953 0.00458298 0.000847 0.00876737 -0.0038212 -0.00533181 2650 
292 1 0.00837911 0.00341157 0.00420059 0.000847 0.000789497 -0.00762925 0.0146941 2650 
83 1 0.0145314 0.00518088 0.00321146 0.000847 0.00823789 0.0171455 0.00467116 2650 
14 1 0.0132183 0.000355539 0.00527815 8.4e-05 0.00372036 -0.00952606 0.0111418 2650 
456 1 0.015597 1.82593e-05 0.00485555 0.000233 0.0193669 -0.00817766 0.000901697 2650 
282 1 0.0120351 0.0037349 0.00515166 0.000847 -0.0214749 0.00555459 -0.00641743 2650 
388 1 0.0146488 0.00457313 0.00566088 0.000233 -0.00599918 -0.00238884 0.011479 2650 
476 1 0.0126605 0.00808556 0.00494231 0.000847 -0.00904268 -0.00228161 -0.00910678 2650 
39 1 0.015681 0.0144746 0.00569878 0.000233 0.0169548 0.0360083 -0.0663238 2650 
474 1 0.0125197 0.03098 0.0056349 0.000847 0.0292048 0.0292379 0.00704819 2650 
38 1 0.0118293 0.0370582 0.00571509 0.000233 -0.0108563 0.0381487 0.00282041 2650 
188 1 0.00149806 0.0427606 0.00510304 0.000847 0.00797073 0.0304807 0.00488408 2650 
152 1 0.00227145 0.000568576 0.00737983 0.000847 0.00630245 -0.0104114 -0.000729287 2650 
352 1 0.00883041 0.00464455 0.00646644 0.000233 -0.0011491 -0.00403828 -0.00747879 2650 
99 1 0.00687153 0.0068496 0.00694235 0.000847 -0.0110203 0.00375868 0.0128879 2650 
333 1 0.00990935 0.00711795 0.00641063 0.000847 0.00473452 0.00234827 -0.00938423 2650 
238 1 0.00935548 0.0118727 0.00684587 0.001312 0.00393038 0.00465132 -0.0110608 2650 
1 1 0.0134822 0.011873 0.00728039 0.001312 0.0312959 0.0162968 -0.0442243 2650 
514 1 0.011301 0.0142322 0.00747074 0.000847 0.00563829 0.0205024 -0.0296972 2650 
107 1 0.0135963 0.0150519 0.00760376 0.001312 0.0136864 0.0146099 -0.0222759 2650 
217 1 0.00272827 0.0188087 0.0069631 0.000847 -0.00172842 0.0331479 0.0214033 2650 
427 1 0.0134142 0.018255 0.00693541 0.000233 -0.0064393 0.0307872 0.00793576 2650 
354 1 0.0104532 0.0212628 0.00750793 0.001312 -0.00818483 0.00736963 0.000353378 2650 
351 1 0.00563595 0.0247325 0.00672718 0.000233 0.00409184 0.0180406 0.0328294 2650 
55 1 0.0128141 0.0256974 0.00788562 0.001312 0.00327531 0.0300995 -0.0138155 2650 
214 1 0.000821021 0.0290165 0.00704833 0.000847 0.00525677 0.0348171 0.020631 2650 
517 1 0.0144391 0.0384864 0.00719678 0.000233 0.0308496 0.037053 0.00878162 2650 
472 1 0.0105046 0.00381837 0.00797799 0.000847 -0.000261789 -0.000356489 0.0116349 2650 
200 1 0.0115557 0.00437572 0.00940648 0.000847 -0.000673049 -0.00278038 -0.00559766 2650 
406 1 0.00879642 0.00597583 0.00866893 0.001312 -0.00308428 0.00129528 -0.00700895 2650 
291 1 0.00480006 0.00652968 0.00902289 0.000847 0.0122958 -0.0014185 -0.000139055 2650 
504 1 0.0142785 0.0166241 0.00840282 0.000233 0.019423 0.0151279 -0.0439497 2650 
336 1 0.00434451 0.017555 0.0092902 0.000233 -0.0127757 0.0232112 -0.0223188 2650 
454 1 0.014576 0.0188086 0.00791984 0.000233 0.00895963 0.0257999 -0.0167563 2650 
103 1 0.00606568 0.00779772 0.00976375 0.000233 -0.0110492 -0.00251187 -0.00895235 2650 
126 1 0.00508509 0.0243098 0.0101139 0.000847 -0.0189571 0.0169788 0.0158457 2650 
484 1 0.0114757 0.0271668 0.0102689 0.001312 0.00968532 0.0259991 -0.013382 2650 
506 1 0.0126609 0.0319788 0.0101529 0.000233 -0.0128936 0.0239161 0.0127615 2650 
321 1 0.0106049 0.0604216 0.0109028 0.000847 -7.90839e-05 0.0713643 -0.00511667 2650 
263 1 0.00467912 0.00112261 0.0123728 0.001312 0.00188258 -0.0058435 -0.00190522 2650 
359 1 0.0103436 0.000912458 0.0114565 0.000847 0.00362679 -0.00693358 0.02576 2650 
89 1 0.00319795 0.00208213 0.0123443 0.000233 -0.0024345 -0.00798297 -0.000837693 2650 
265 1 0.00741697 0.00258926 0.0117444 0.000847 0.00705032 -0.00159336 0.00128536 2650 
73 1 0.0106928 0.0309802 0.0121238 0.000847 0.023541 0.0389623 -0.0165233 2650 
58 1 0.00715393 0.0407377 0.0122063 0.000847 -0.0318289 0.0425068 0.00828781 2650 
319 1 0.00902106 0.0738393 0.0113984 0.000847 0.0279455 0.0964513 0.00986285 2650 
295 1 0.00140082 0.0313058 0.01274 0.000847 -0.0468164 0.0688845 0.0142135 2650 
180 1 0.000143747 0.0596726 0.0132195 0.000233 0.00860892 0.0812149 0.00119763 2650 
43 1 0.000375719 0.0102067 0.0152577 0.001312 -0.0233063 0.025523 0.00498377 2650 
277 1 0.00249074 0.0254047 0.0144929 0.000847 -0.00724328 0.0220868 -0.00846919 2650 
502 1 0.00274552 0.0350337 0.0157246 0.000847 0.136737 0.0372329 -0.0245183 2650 
77 1 0.00141758 0.0352207 0.0145709 0.000233 0.022645 0.0508553 0.0284117 2650 
31 1 0.00217034 0.0446724 0.0151064 0.000847 0.0378023 0.062892 0.00489831 2650 
154 1 0.00449265 0.1327 -0.00857911 0.000233 -0.00924804 0.118602 0.00100956 2650 
229 1 0.00846424 0.0870426 0.0108387 0.000847 0.0363744 0.115278 -0.0183095 2650 
