LIGGGHTS (Version LIGGGHTS-PUBLIC 3.8.0, compiled 2022-11-07-16:55:38 by serperd1, git commit 86544c3f1215bc9744d7929e3eacf53ba086af9e)
Created orthogonal box = (-0.15 -0.15 -0.15) to (0.15 0.15 0.15)
  2 by 4 by 5 MPI processor grid

Reading STL file 'cone.stl' (mesh processing step 1/3) 

Reading STL file 'in_cyl.stl' (mesh processing step 1/3) 

Reading STL file 'top_cyl.stl' (mesh processing step 1/3) 

Reading STL file 'bot_cyl.stl' (mesh processing step 1/3) 

Reading STL file 'bottom_disk.stl' (mesh processing step 1/3) 

Reading STL file 'top_disk.stl' (mesh processing step 1/3) 
Fix particledistribution/discrete (id prob_par): distribution based on mass%:
    r_0to10p: d=1.680000e-04 (max. bounding sphere) mass%=10.000000%
    r_10to50p: d=4.656000e-04 (max. bounding sphere) mass%=40.000000%
    r_50to90p: d=1.693200e-03 (max. bounding sphere) mass%=40.000000%
    r_90to100p: d=2.624400e-03 (max. bounding sphere) mass%=10.000000%
Fix particledistribution/discrete (id prob_par): distribution based on number%:
    r_0to10p: d=1.680000e-04 (max. bounding sphere) number%=83.887052%
    r_10to50p: d=4.656000e-04 (max. bounding sphere) number%=15.763181%
    r_50to90p: d=1.693200e-03 (max. bounding sphere) number%=0.327762%
    r_90to100p: d=2.624400e-03 (max. bounding sphere) number%=0.022006%
Setting up run at Sun Nov 27 18:27:34 2022

Import and parallelization of mesh cone_mesh containing 868 triangle(s) successful
Import and parallelization of mesh inlet_cyl_wall_mesh containing 1064 triangle(s) successful
Import and parallelization of mesh top_cyl_wall_mesh containing 682 triangle(s) successful
Import and parallelization of mesh bot_cyl_wall_mesh containing 1280 triangle(s) successful
Import and parallelization of mesh bot_disk_wall_mesh containing 1682 triangle(s) successful
Import and parallelization of mesh top_disk_wall_mesh containing 1144 triangle(s) successful
Memory usage per processor = 954.637 Mbytes
    Step    Atoms         KinEng            CPU 
       0        0              0              0 
Loop time of 6.21358e-05 on 40 procs for 0 steps with 0 atoms, finish time Sun Nov 27 18:27:34 2022


Pair  time (%) = 0 (0)
Neigh time (%) = 0 (0)
Comm  time (%) = 0 (0)
Outpt time (%) = 0 (0)
Other time (%) = 6.21358e-05 (100)

Nlocal:    0 ave 0 max 0 min
Histogram: 40 0 0 0 0 0 0 0 0 0
Nghost:    0 ave 0 max 0 min
Histogram: 40 0 0 0 0 0 0 0 0 0
Neighs:    0 ave 0 max 0 min
Histogram: 40 0 0 0 0 0 0 0 0 0

Total # of neighbors = 0
Neighbor list builds = 0
Dangerous builds = 0
Setting up run at Sun Nov 27 18:27:34 2022

Memory usage per processor = 954.637 Mbytes
    Step    Atoms         KinEng            CPU 
       0        0              0              0 
       1        0              0    0.009712548 
Loop time of 0.00972449 on 40 procs for 1 steps with 0 atoms, finish time Sun Nov 27 18:27:34 2022


Pair  time (%) = 2.44302e-06 (0.0251224)
Neigh time (%) = 0 (0)
Comm  time (%) = 0.000233879 (2.40505)
Outpt time (%) = 0.000113975 (1.17204)
Other time (%) = 0.00937419 (96.3978)

Nlocal:    0 ave 0 max 0 min
Histogram: 40 0 0 0 0 0 0 0 0 0
Nghost:    0 ave 0 max 0 min
Histogram: 40 0 0 0 0 0 0 0 0 0
Neighs:    0 ave 0 max 0 min
Histogram: 40 0 0 0 0 0 0 0 0 0

Total # of neighbors = 0
Neighbor list builds = 0
Dangerous builds = 0
Scanning dump file ...
Reading snapshot from dump file ...
  orthogonal box = (-0.15 -0.15 -0.15) to (0.15 0.15 0.15)
  0 atoms before read
  522 atoms in snapshot
  0 atoms purged
  0 atoms replaced
  0 atoms trimmed
  522 atoms added
  522 atoms after read
Setting atom values ...
  522 settings made for type
  522 settings made for density
  522 settings made for vy
Setting up run at Sun Nov 27 18:27:34 2022

Memory usage per processor = 958.989 Mbytes
    Step    Atoms         KinEng            CPU 
       1      522  2.0467238e-07              0 
       2      522  2.2321206e-07    0.009213588 
Loop time of 0.00923018 on 40 procs for 1 steps with 522 atoms, finish time Sun Nov 27 18:27:34 2022


Pair  time (%) = 1.96592e-06 (0.0212989)
Neigh time (%) = 0 (0)
Comm  time (%) = 4.89788e-06 (0.0530637)
Outpt time (%) = 0.00014604 (1.5822)
Other time (%) = 0.00907727 (98.3434)

Nlocal:    13.05 ave 230 max 0 min
Histogram: 36 2 0 0 0 0 0 0 1 1
Nghost:    6.9 ave 88 max 0 min
Histogram: 36 0 0 0 0 1 1 0 0 2
Neighs:    4.05 ave 71 max 0 min
Histogram: 36 2 0 0 0 0 0 0 0 2

Total # of neighbors = 162
Ave neighs/atom = 0.310345
Neighbor list builds = 0
Dangerous builds = 0
Setting up run at Sun Nov 27 18:27:34 2022

Memory usage per processor = 958.989 Mbytes
    Step    Atoms         KinEng            CPU 
       2      522  2.2321206e-07              0 
  154322      522  2.5096779e-05      1483.4114 
Loop time of 1483.41 on 40 procs for 154320 steps with 522 atoms, finish time Sun Nov 27 18:52:18 2022


Pair  time (%) = 0.319821 (0.0215598)
Neigh time (%) = 0.13522 (0.00911546)
Comm  time (%) = 0.615264 (0.0414763)
Outpt time (%) = 0.000252391 (1.70142e-05)
Other time (%) = 1482.34 (99.9278)

Nlocal:    13.05 ave 225 max 0 min
Histogram: 36 0 2 0 0 0 0 0 0 2
Nghost:    6.975 ave 93 max 0 min
Histogram: 36 0 0 0 1 1 0 0 0 2
Neighs:    4.4 ave 82 max 0 min
Histogram: 36 2 0 0 0 0 0 0 1 1

Total # of neighbors = 176
Ave neighs/atom = 0.337165
Neighbor list builds = 412
Dangerous builds = 0
Setting up run at Sun Nov 27 18:52:18 2022

Memory usage per processor = 958.989 Mbytes
    Step    Atoms         KinEng            CPU 
  154322      522  2.5096779e-05              0 
  308642      522  0.00014274771      1486.7547 
Loop time of 1486.75 on 40 procs for 154320 steps with 522 atoms, finish time Sun Nov 27 19:17:05 2022


Pair  time (%) = 0.319141 (0.0214656)
Neigh time (%) = 0.135498 (0.00911369)
Comm  time (%) = 0.644039 (0.0433184)
Outpt time (%) = 0.000241383 (1.62355e-05)
Other time (%) = 1485.66 (99.9261)

Nlocal:    13.05 ave 215 max 0 min
Histogram: 36 0 2 0 0 0 0 0 0 2
Nghost:    7.05 ave 94 max 0 min
Histogram: 36 0 0 0 0 2 0 0 0 2
Neighs:    4.375 ave 75 max 0 min
Histogram: 36 1 1 0 0 0 0 0 0 2

Total # of neighbors = 175
Ave neighs/atom = 0.335249
Neighbor list builds = 412
Dangerous builds = 0
Setting up run at Sun Nov 27 19:17:05 2022

Memory usage per processor = 958.989 Mbytes
    Step    Atoms         KinEng            CPU 
  308642      522  0.00014274771              0 
  462962      522  0.00014423352      1486.0872 
Loop time of 1486.09 on 40 procs for 154320 steps with 522 atoms, finish time Sun Nov 27 19:41:51 2022


Pair  time (%) = 0.321676 (0.0216458)
Neigh time (%) = 0.135 (0.00908426)
Comm  time (%) = 0.712827 (0.0479667)
Outpt time (%) = 0.00068582 (4.61494e-05)
Other time (%) = 1484.92 (99.9213)

Nlocal:    13.05 ave 210 max 0 min
Histogram: 36 0 2 0 0 0 0 0 0 2
Nghost:    6.9 ave 92 max 0 min
Histogram: 36 0 0 0 1 1 0 0 0 2
Neighs:    4.275 ave 72 max 0 min
Histogram: 36 0 2 0 0 0 0 0 0 2

Total # of neighbors = 171
Ave neighs/atom = 0.327586
Neighbor list builds = 412
Dangerous builds = 0
Setting up run at Sun Nov 27 19:41:51 2022

Memory usage per processor = 958.989 Mbytes
    Step    Atoms         KinEng            CPU 
  462962      522  0.00014423352              0 
  617282      522  7.6652719e-05      1516.6034 
Loop time of 1516.6 on 40 procs for 154320 steps with 522 atoms, finish time Sun Nov 27 20:07:08 2022


Pair  time (%) = 0.319772 (0.0210847)
Neigh time (%) = 0.136308 (0.0089877)
Comm  time (%) = 0.627676 (0.0413869)
Outpt time (%) = 0.000660389 (4.3544e-05)
Other time (%) = 1515.52 (99.9285)

Nlocal:    13.05 ave 207 max 0 min
Histogram: 36 0 2 0 0 0 0 0 0 2
Nghost:    6.925 ave 90 max 0 min
Histogram: 36 0 0 0 0 1 1 0 0 2
Neighs:    4.1 ave 74 max 0 min
Histogram: 36 1 1 0 0 0 0 1 0 1

Total # of neighbors = 164
Ave neighs/atom = 0.314176
Neighbor list builds = 412
Dangerous builds = 0
Setting up run at Sun Nov 27 20:07:08 2022

Memory usage per processor = 958.989 Mbytes
    Step    Atoms         KinEng            CPU 
  617282      522  7.6652719e-05              0 
  771602      522   0.0003105504      1490.4987 
Loop time of 1490.5 on 40 procs for 154320 steps with 522 atoms, finish time Sun Nov 27 20:31:58 2022


Pair  time (%) = 0.317438 (0.0212974)
Neigh time (%) = 0.136473 (0.0091562)
Comm  time (%) = 0.655006 (0.0439454)
Outpt time (%) = 0.000358362 (2.40431e-05)
Other time (%) = 1489.39 (99.9256)

Nlocal:    13.05 ave 208 max 0 min
Histogram: 36 0 2 0 0 0 0 0 0 2
Nghost:    6.9 ave 91 max 0 min
Histogram: 36 0 0 0 0 1 1 0 1 1
Neighs:    4 ave 70 max 0 min
Histogram: 36 1 1 0 0 0 0 0 1 1

Total # of neighbors = 160
Ave neighs/atom = 0.306513
Neighbor list builds = 412
Dangerous builds = 0
Setting up run at Sun Nov 27 20:31:58 2022

Memory usage per processor = 958.989 Mbytes
    Step    Atoms         KinEng            CPU 
  771602      522   0.0003105504              0 
  925922      522   0.0034803611      1490.7191 
Loop time of 1490.72 on 40 procs for 154320 steps with 522 atoms, finish time Sun Nov 27 20:56:49 2022


Pair  time (%) = 0.321591 (0.0215729)
Neigh time (%) = 0.231076 (0.015501)
Comm  time (%) = 0.711753 (0.0477456)
Outpt time (%) = 0.000264432 (1.77385e-05)
Other time (%) = 1489.45 (99.9152)

Nlocal:    13.05 ave 206 max 0 min
Histogram: 36 0 2 0 0 0 0 0 0 2
Nghost:    6.775 ave 86 max 0 min
Histogram: 36 0 0 0 0 1 1 0 1 1
Neighs:    3.975 ave 74 max 0 min
Histogram: 36 2 0 0 0 0 0 1 0 1

Total # of neighbors = 159
Ave neighs/atom = 0.304598
Neighbor list builds = 694
Dangerous builds = 0
Setting up run at Sun Nov 27 20:56:49 2022

Memory usage per processor = 958.989 Mbytes
    Step    Atoms         KinEng            CPU 
  925922      522   0.0034803611              0 
 1080242      522    0.010464203      1489.1603 
Loop time of 1489.16 on 40 procs for 154320 steps with 522 atoms, finish time Sun Nov 27 21:21:38 2022


Pair  time (%) = 0.319647 (0.0214649)
Neigh time (%) = 0.450351 (0.030242)
Comm  time (%) = 1.02944 (0.0691289)
Outpt time (%) = 0.000597184 (4.0102e-05)
Other time (%) = 1487.36 (99.8791)

Nlocal:    13.05 ave 204 max 0 min
Histogram: 36 0 2 0 0 0 0 0 0 2
Nghost:    6.825 ave 84 max 0 min
Histogram: 36 0 0 0 0 0 2 0 0 2
Neighs:    4.05 ave 72 max 0 min
Histogram: 36 0 2 0 0 0 0 1 0 1

Total # of neighbors = 162
Ave neighs/atom = 0.310345
Neighbor list builds = 1358
Dangerous builds = 0
Setting up run at Sun Nov 27 21:21:38 2022

Memory usage per processor = 958.989 Mbytes
    Step    Atoms         KinEng            CPU 
 1080242      522    0.010464203              0 
 1234562      522    0.042089764       1524.182 
Loop time of 1524.18 on 40 procs for 154320 steps with 522 atoms, finish time Sun Nov 27 21:47:02 2022


Pair  time (%) = 0.335168 (0.02199)
Neigh time (%) = 1.665 (0.109239)
Comm  time (%) = 2.17082 (0.142425)
Outpt time (%) = 0.000392959 (2.57817e-05)
Other time (%) = 1520.01 (99.7263)

Nlocal:    13.05 ave 203 max 0 min
Histogram: 36 0 2 0 0 0 0 0 0 2
Nghost:    6.6 ave 85 max 0 min
Histogram: 36 0 0 0 0 2 0 0 0 2
Neighs:    4.35 ave 76 max 0 min
Histogram: 36 0 2 0 0 0 0 1 0 1

Total # of neighbors = 174
Ave neighs/atom = 0.333333
Neighbor list builds = 5005
Dangerous builds = 0
Setting up run at Sun Nov 27 21:47:02 2022

Memory usage per processor = 958.989 Mbytes
    Step    Atoms         KinEng            CPU 
 1234562      522    0.042089764              0 
 1388882      519    0.035920217      1520.2941 
Loop time of 1520.29 on 40 procs for 154320 steps with 519 atoms, finish time Sun Nov 27 22:12:23 2022


Pair  time (%) = 0.328921 (0.0216354)
Neigh time (%) = 1.67804 (0.110376)
Comm  time (%) = 2.67891 (0.17621)
Outpt time (%) = 0.000553833 (3.64294e-05)
Other time (%) = 1515.61 (99.6917)

Nlocal:    12.975 ave 200 max 0 min
Histogram: 36 0 2 0 0 0 0 0 0 2
Nghost:    6.425 ave 84 max 0 min
Histogram: 36 0 0 0 0 2 0 0 1 1
Neighs:    4.275 ave 78 max 0 min
Histogram: 36 0 2 0 0 0 1 0 0 1

Total # of neighbors = 171
Ave neighs/atom = 0.32948
Neighbor list builds = 5052
Dangerous builds = 22
Setting up run at Sun Nov 27 22:12:23 2022

Memory usage per processor = 958.989 Mbytes
    Step    Atoms         KinEng            CPU 
 1388882      519    0.035920217              0 
 1543202      513    0.010336733      1502.4477 
Loop time of 1502.45 on 40 procs for 154320 steps with 513 atoms, finish time Sun Nov 27 22:37:25 2022


Pair  time (%) = 0.324633 (0.021607)
Neigh time (%) = 1.06464 (0.0708605)
Comm  time (%) = 1.83783 (0.122323)
Outpt time (%) = 0.000363334 (2.41828e-05)
Other time (%) = 1499.22 (99.7852)

Nlocal:    12.825 ave 195 max 0 min
Histogram: 36 0 1 1 0 0 0 0 0 2
Nghost:    6.275 ave 85 max 0 min
Histogram: 36 0 0 0 0 2 0 0 1 1
Neighs:    4.2 ave 74 max 0 min
Histogram: 36 0 2 0 0 0 0 1 0 1

Total # of neighbors = 168
Ave neighs/atom = 0.327485
Neighbor list builds = 3288
Dangerous builds = 46
Setting up run at Sun Nov 27 22:37:25 2022

Memory usage per processor = 958.989 Mbytes
    Step    Atoms         KinEng            CPU 
 1543202      513    0.010336733              0 
 1697522      513     0.10533851      1515.3305 
Loop time of 1515.33 on 40 procs for 154320 steps with 513 atoms, finish time Sun Nov 27 23:02:41 2022


Pair  time (%) = 0.328003 (0.0216456)
Neigh time (%) = 1.73242 (0.114326)
Comm  time (%) = 2.12923 (0.140513)
Outpt time (%) = 0.000308571 (2.03633e-05)
Other time (%) = 1511.14 (99.7235)

Nlocal:    12.825 ave 195 max 0 min
Histogram: 36 0 1 1 0 0 0 0 0 2
Nghost:    6.325 ave 85 max 0 min
Histogram: 36 0 0 0 0 2 0 0 1 1
Neighs:    4.175 ave 71 max 0 min
Histogram: 36 0 1 1 0 0 0 1 0 1

Total # of neighbors = 167
Ave neighs/atom = 0.325536
Neighbor list builds = 5215
Dangerous builds = 0
Setting up run at Sun Nov 27 23:02:41 2022

Memory usage per processor = 958.989 Mbytes
    Step    Atoms         KinEng            CPU 
 1697522      513     0.10533851              0 
 1851842      512    0.093892438      1511.8013 
Loop time of 1511.8 on 40 procs for 154320 steps with 512 atoms, finish time Sun Nov 27 23:27:53 2022


Pair  time (%) = 0.328585 (0.0217347)
Neigh time (%) = 1.6705 (0.110498)
Comm  time (%) = 2.95537 (0.195487)
Outpt time (%) = 0.000654409 (4.32867e-05)
Other time (%) = 1506.85 (99.6722)

Nlocal:    12.8 ave 194 max 0 min
Histogram: 36 0 1 1 0 0 0 0 0 2
Nghost:    6.325 ave 87 max 0 min
Histogram: 36 0 0 0 0 2 0 0 1 1
Neighs:    4.05 ave 68 max 0 min
Histogram: 36 0 1 1 0 0 0 1 0 1

Total # of neighbors = 162
Ave neighs/atom = 0.316406
Neighbor list builds = 5011
Dangerous builds = 1
Setting up run at Sun Nov 27 23:27:53 2022

Memory usage per processor = 958.989 Mbytes
    Step    Atoms         KinEng            CPU 
 1851842      512    0.093892438              0 
 2006162      508     0.10514823      1525.7757 
Loop time of 1525.78 on 40 procs for 154320 steps with 508 atoms, finish time Sun Nov 27 23:53:18 2022


Pair  time (%) = 0.330578 (0.0216662)
Neigh time (%) = 2.00582 (0.131462)
Comm  time (%) = 3.11142 (0.203924)
Outpt time (%) = 0.000298467 (1.95617e-05)
Other time (%) = 1520.33 (99.6429)

Nlocal:    12.7 ave 196 max 0 min
Histogram: 36 0 1 1 0 0 0 0 0 2
Nghost:    6.35 ave 84 max 0 min
Histogram: 36 0 0 0 0 1 1 0 1 1
Neighs:    4.225 ave 68 max 0 min
Histogram: 36 0 1 0 1 0 0 1 0 1

Total # of neighbors = 169
Ave neighs/atom = 0.332677
Neighbor list builds = 6327
Dangerous builds = 710
Setting up run at Sun Nov 27 23:53:19 2022

Memory usage per processor = 958.989 Mbytes
    Step    Atoms         KinEng            CPU 
 2006162      508     0.10514823              0 
 2160482      508     0.04896401      1498.7313 
Loop time of 1498.73 on 40 procs for 154320 steps with 508 atoms, finish time Mon Nov 28 00:18:17 2022


Pair  time (%) = 0.326864 (0.0218094)
Neigh time (%) = 1.41692 (0.0945411)
Comm  time (%) = 2.62993 (0.175477)
Outpt time (%) = 0.000577548 (3.85358e-05)
Other time (%) = 1494.36 (99.7081)

Nlocal:    12.7 ave 193 max 0 min
Histogram: 36 0 1 1 0 0 0 0 0 2
Nghost:    6.55 ave 90 max 0 min
Histogram: 36 0 0 0 1 1 0 0 1 1
Neighs:    4.375 ave 75 max 0 min
Histogram: 36 0 1 1 0 0 0 1 0 1

Total # of neighbors = 175
Ave neighs/atom = 0.344488
Neighbor list builds = 4276
Dangerous builds = 0
Setting up run at Mon Nov 28 00:18:17 2022

Memory usage per processor = 958.989 Mbytes
    Step    Atoms         KinEng            CPU 
 2160482      508     0.04896401              0 
 2314802      506     0.16499994      1509.5111 
Loop time of 1509.51 on 40 procs for 154320 steps with 506 atoms, finish time Mon Nov 28 00:43:27 2022


Pair  time (%) = 0.331184 (0.0219398)
Neigh time (%) = 1.81528 (0.120256)
Comm  time (%) = 2.8349 (0.187803)
Outpt time (%) = 0.000322091 (2.13374e-05)
Other time (%) = 1504.53 (99.67)

Nlocal:    12.65 ave 194 max 0 min
Histogram: 36 0 2 0 0 0 0 0 0 2
Nghost:    6.475 ave 83 max 0 min
Histogram: 36 0 0 0 1 0 1 0 1 1
Neighs:    4.1 ave 74 max 0 min
Histogram: 36 0 2 0 0 0 1 0 0 1

Total # of neighbors = 164
Ave neighs/atom = 0.324111
Neighbor list builds = 5624
Dangerous builds = 415
Setting up run at Mon Nov 28 00:43:27 2022

Memory usage per processor = 958.989 Mbytes
    Step    Atoms         KinEng            CPU 
 2314802      506     0.16499994              0 
 2469122      505     0.33471393      1534.2447 
Loop time of 1534.25 on 40 procs for 154320 steps with 505 atoms, finish time Mon Nov 28 01:09:01 2022


Pair  time (%) = 0.336843 (0.0219549)
Neigh time (%) = 2.79184 (0.181968)
Comm  time (%) = 4.16746 (0.271629)
Outpt time (%) = 0.000225165 (1.46759e-05)
Other time (%) = 1526.95 (99.5244)

Nlocal:    12.625 ave 194 max 0 min
Histogram: 36 0 2 0 0 0 0 0 0 2
Nghost:    6.575 ave 81 max 0 min
Histogram: 36 0 0 0 1 0 0 1 0 2
Neighs:    4.275 ave 73 max 0 min
Histogram: 36 0 1 1 0 0 0 1 0 1

Total # of neighbors = 171
Ave neighs/atom = 0.338614
Neighbor list builds = 8424
Dangerous builds = 0
Setting up run at Mon Nov 28 01:09:01 2022

Memory usage per processor = 958.989 Mbytes
    Step    Atoms         KinEng            CPU 
 2469122      505     0.33471393              0 
 2623442      503     0.16496754      1514.7783 
Loop time of 1514.78 on 40 procs for 154320 steps with 503 atoms, finish time Mon Nov 28 01:34:16 2022


Pair  time (%) = 0.332533 (0.0219526)
Neigh time (%) = 2.39789 (0.1583)
Comm  time (%) = 3.75117 (0.247638)
Outpt time (%) = 0.00058491 (3.86136e-05)
Other time (%) = 1508.3 (99.5721)

Nlocal:    12.575 ave 194 max 0 min
Histogram: 36 0 2 0 0 0 0 0 0 2
Nghost:    6.725 ave 83 max 0 min
Histogram: 36 0 0 0 0 1 0 1 0 2
Neighs:    4.25 ave 71 max 0 min
Histogram: 36 0 1 1 0 0 0 1 0 1

Total # of neighbors = 170
Ave neighs/atom = 0.337972
Neighbor list builds = 7458
Dangerous builds = 406
Setting up run at Mon Nov 28 01:34:16 2022

Memory usage per processor = 958.989 Mbytes
    Step    Atoms         KinEng            CPU 
 2623442      503     0.16496754              0 
 2777762      502     0.22677961      1517.8211 
Loop time of 1517.82 on 40 procs for 154320 steps with 502 atoms, finish time Mon Nov 28 01:59:34 2022


Pair  time (%) = 0.329261 (0.021693)
Neigh time (%) = 1.99064 (0.131151)
Comm  time (%) = 3.38642 (0.223111)
Outpt time (%) = 0.000278611 (1.8356e-05)
Other time (%) = 1512.11 (99.624)

Nlocal:    12.55 ave 195 max 0 min
Histogram: 36 0 1 1 0 0 0 0 1 1
Nghost:    6.6 ave 82 max 0 min
Histogram: 36 0 0 0 0 1 0 1 0 2
Neighs:    4.25 ave 70 max 0 min
Histogram: 36 0 1 1 0 0 0 0 1 1

Total # of neighbors = 170
Ave neighs/atom = 0.338645
Neighbor list builds = 6186
Dangerous builds = 596
Setting up run at Mon Nov 28 01:59:34 2022

Memory usage per processor = 958.989 Mbytes
    Step    Atoms         KinEng            CPU 
 2777762      502     0.22677961              0 
 2932082      499     0.27721741      1517.7502 
Loop time of 1517.75 on 40 procs for 154320 steps with 499 atoms, finish time Mon Nov 28 02:24:52 2022


Pair  time (%) = 0.327466 (0.0215757)
Neigh time (%) = 2.15552 (0.14202)
Comm  time (%) = 3.95286 (0.260442)
Outpt time (%) = 0.000325654 (2.14563e-05)
Other time (%) = 1511.31 (99.5759)

Nlocal:    12.475 ave 194 max 0 min
Histogram: 36 0 2 0 0 0 0 0 1 1
Nghost:    6.725 ave 83 max 0 min
Histogram: 36 0 0 0 0 1 0 1 0 2
Neighs:    3.85 ave 68 max 0 min
Histogram: 36 1 0 1 0 0 0 1 0 1

Total # of neighbors = 154
Ave neighs/atom = 0.308617
Neighbor list builds = 6659
Dangerous builds = 0
Setting up run at Mon Nov 28 02:24:52 2022

Memory usage per processor = 958.989 Mbytes
    Step    Atoms         KinEng            CPU 
 2932082      499     0.27721741              0 
 3086402      496     0.26260263      1525.7045 
Loop time of 1525.7 on 40 procs for 154320 steps with 496 atoms, finish time Mon Nov 28 02:50:17 2022


Pair  time (%) = 0.329639 (0.0216057)
Neigh time (%) = 2.38933 (0.156605)
Comm  time (%) = 3.44712 (0.225936)
Outpt time (%) = 0.000548031 (3.59199e-05)
Other time (%) = 1519.54 (99.5958)

Nlocal:    12.4 ave 192 max 0 min
Histogram: 36 0 2 0 0 0 0 0 0 2
Nghost:    6.65 ave 79 max 0 min
Histogram: 36 0 0 0 0 1 0 0 1 2
Neighs:    4.35 ave 83 max 0 min
Histogram: 36 1 1 0 0 0 1 0 0 1

Total # of neighbors = 174
Ave neighs/atom = 0.350806
Neighbor list builds = 7239
Dangerous builds = 6
Setting up run at Mon Nov 28 02:50:18 2022

Memory usage per processor = 958.989 Mbytes
    Step    Atoms         KinEng            CPU 
 3086402      496     0.26260263              0 
 3240722      492     0.27863467      1507.9824 
Loop time of 1507.98 on 40 procs for 154320 steps with 492 atoms, finish time Mon Nov 28 03:15:26 2022


Pair  time (%) = 0.327266 (0.0217022)
Neigh time (%) = 1.84657 (0.122453)
Comm  time (%) = 3.13538 (0.207919)
Outpt time (%) = 0.000278029 (1.84371e-05)
Other time (%) = 1502.67 (99.6479)

Nlocal:    12.3 ave 190 max 0 min
Histogram: 36 0 2 0 0 0 0 0 0 2
Nghost:    6.4 ave 77 max 0 min
Histogram: 36 0 0 0 0 1 0 0 1 2
Neighs:    4.275 ave 85 max 0 min
Histogram: 36 1 1 0 0 0 1 0 0 1

Total # of neighbors = 171
Ave neighs/atom = 0.347561
Neighbor list builds = 5652
Dangerous builds = 83
Setting up run at Mon Nov 28 03:15:26 2022

Memory usage per processor = 958.989 Mbytes
    Step    Atoms         KinEng            CPU 
 3240722      492     0.27863467              0 
 3395042      489     0.66582654      1515.8773 
Loop time of 1515.88 on 40 procs for 154320 steps with 489 atoms, finish time Mon Nov 28 03:40:42 2022


Pair  time (%) = 0.332154 (0.0219117)
Neigh time (%) = 2.35831 (0.155574)
Comm  time (%) = 3.62242 (0.238965)
Outpt time (%) = 0.000585793 (3.86439e-05)
Other time (%) = 1509.56 (99.5835)

Nlocal:    12.225 ave 191 max 0 min
Histogram: 36 0 2 0 0 0 0 0 0 2
Nghost:    6.525 ave 79 max 0 min
Histogram: 36 0 0 0 1 0 0 0 1 2
Neighs:    4.35 ave 87 max 0 min
Histogram: 36 1 1 0 0 0 1 0 0 1

Total # of neighbors = 174
Ave neighs/atom = 0.355828
Neighbor list builds = 7151
Dangerous builds = 0
Setting up run at Mon Nov 28 03:40:42 2022

Memory usage per processor = 958.989 Mbytes
    Step    Atoms         KinEng            CPU 
 3395042      489     0.66582654              0 
 3549362      487     0.71081532      1517.8985 
Loop time of 1517.9 on 40 procs for 154320 steps with 487 atoms, finish time Mon Nov 28 04:05:59 2022


Pair  time (%) = 0.333257 (0.0219552)
Neigh time (%) = 2.3646 (0.155781)
Comm  time (%) = 3.57351 (0.235425)
Outpt time (%) = 0.000358016 (2.35863e-05)
Other time (%) = 1511.63 (99.5868)

Nlocal:    12.175 ave 190 max 0 min
Histogram: 36 0 2 0 0 0 0 0 0 2
Nghost:    6.475 ave 78 max 0 min
Histogram: 36 0 0 0 1 0 0 0 1 2
Neighs:    4.35 ave 84 max 0 min
Histogram: 36 1 0 1 0 0 1 0 0 1

Total # of neighbors = 174
Ave neighs/atom = 0.35729
Neighbor list builds = 7177
Dangerous builds = 1
Setting up run at Mon Nov 28 04:06:00 2022

Memory usage per processor = 958.989 Mbytes
    Step    Atoms         KinEng            CPU 
 3549362      487     0.71081532              0 
 3703682      483     0.63201231      1525.8582 
Loop time of 1525.86 on 40 procs for 154320 steps with 483 atoms, finish time Mon Nov 28 04:31:25 2022


Pair  time (%) = 0.334771 (0.0219399)
Neigh time (%) = 2.37214 (0.155463)
Comm  time (%) = 3.50641 (0.229799)
Outpt time (%) = 0.000293068 (1.92068e-05)
Other time (%) = 1519.65 (99.5928)

Nlocal:    12.075 ave 189 max 0 min
Histogram: 36 0 2 0 0 0 0 0 0 2
Nghost:    6.075 ave 74 max 0 min
Histogram: 36 0 0 0 0 1 0 1 0 2
Neighs:    4.175 ave 74 max 0 min
Histogram: 36 1 0 1 0 0 0 1 0 1

Total # of neighbors = 167
Ave neighs/atom = 0.345756
Neighbor list builds = 7229
Dangerous builds = 1
Setting up run at Mon Nov 28 04:31:26 2022

Memory usage per processor = 958.989 Mbytes
    Step    Atoms         KinEng            CPU 
 3703682      483     0.63201231              0 
 3858002      482     0.55401758      1507.0125 
Loop time of 1507.01 on 40 procs for 154320 steps with 482 atoms, finish time Mon Nov 28 04:56:33 2022


Pair  time (%) = 0.326531 (0.0216674)
Neigh time (%) = 1.80535 (0.119796)
Comm  time (%) = 3.09743 (0.205534)
Outpt time (%) = 0.000615125 (4.08175e-05)
Other time (%) = 1501.78 (99.653)

Nlocal:    12.05 ave 185 max 0 min
Histogram: 36 0 2 0 0 0 0 0 0 2
Nghost:    6.275 ave 78 max 0 min
Histogram: 36 0 0 0 1 0 0 1 0 2
Neighs:    4.225 ave 82 max 0 min
Histogram: 36 1 1 0 0 0 1 0 0 1

Total # of neighbors = 169
Ave neighs/atom = 0.350622
Neighbor list builds = 5458
Dangerous builds = 0
Setting up run at Mon Nov 28 04:56:33 2022

Memory usage per processor = 958.989 Mbytes
    Step    Atoms         KinEng            CPU 
 3858002      482     0.55401758              0 
 4012322      480      0.4479437      1520.7136 
Loop time of 1520.71 on 40 procs for 154320 steps with 480 atoms, finish time Mon Nov 28 05:21:53 2022


Pair  time (%) = 0.332067 (0.0218362)
Neigh time (%) = 2.51919 (0.165658)
Comm  time (%) = 4.13058 (0.271621)
Outpt time (%) = 0.000306164 (2.01329e-05)
Other time (%) = 1513.73 (99.5409)

Nlocal:    12 ave 184 max 0 min
Histogram: 36 0 2 0 0 0 0 0 0 2
Nghost:    6.225 ave 76 max 0 min
Histogram: 36 0 0 0 0 1 0 1 0 2
Neighs:    4.625 ave 88 max 0 min
Histogram: 36 1 1 0 0 0 1 0 0 1

Total # of neighbors = 185
Ave neighs/atom = 0.385417
Neighbor list builds = 7789
Dangerous builds = 0
Setting up run at Mon Nov 28 05:21:53 2022

Memory usage per processor = 958.989 Mbytes
    Step    Atoms         KinEng            CPU 
 4012322      480      0.4479437              0 
 4166642      479     0.39209854      1504.5467 
Loop time of 1504.55 on 40 procs for 154320 steps with 479 atoms, finish time Mon Nov 28 05:46:58 2022


Pair  time (%) = 0.323585 (0.0215072)
Neigh time (%) = 1.67858 (0.111567)
Comm  time (%) = 3.01893 (0.200654)
Outpt time (%) = 0.000593348 (3.9437e-05)
Other time (%) = 1499.53 (99.6662)

Nlocal:    11.975 ave 182 max 0 min
Histogram: 36 0 2 0 0 0 0 0 0 2
Nghost:    6.25 ave 73 max 0 min
Histogram: 36 0 0 0 0 1 0 0 1 2
Neighs:    4.425 ave 78 max 0 min
Histogram: 36 1 1 0 0 0 0 0 1 1

Total # of neighbors = 177
Ave neighs/atom = 0.36952
Neighbor list builds = 5057
Dangerous builds = 1
Setting up run at Mon Nov 28 05:46:58 2022

Memory usage per processor = 958.989 Mbytes
    Step    Atoms         KinEng            CPU 
 4166642      479     0.39209854              0 
 4320962      478     0.34167582      1529.5277 
Loop time of 1529.53 on 40 procs for 154320 steps with 478 atoms, finish time Mon Nov 28 06:12:28 2022


Pair  time (%) = 0.331244 (0.0216566)
Neigh time (%) = 2.56417 (0.167645)
Comm  time (%) = 4.02355 (0.263058)
Outpt time (%) = 0.000340634 (2.22705e-05)
Other time (%) = 1522.61 (99.5476)

Nlocal:    11.95 ave 181 max 0 min
Histogram: 36 0 2 0 0 0 0 0 0 2
Nghost:    6.175 ave 73 max 0 min
Histogram: 36 0 0 0 0 1 0 0 1 2
Neighs:    4.45 ave 77 max 0 min
Histogram: 36 1 1 0 0 0 0 0 1 1

Total # of neighbors = 178
Ave neighs/atom = 0.372385
Neighbor list builds = 7869
Dangerous builds = 2
Setting up run at Mon Nov 28 06:12:28 2022

Memory usage per processor = 958.989 Mbytes
    Step    Atoms         KinEng            CPU 
 4320962      478     0.34167582              0 
 4475282      475     0.34270414      1556.1744 
Loop time of 1556.17 on 40 procs for 154320 steps with 475 atoms, finish time Mon Nov 28 06:38:24 2022


Pair  time (%) = 0.334972 (0.0215253)
Neigh time (%) = 3.28992 (0.211411)
Comm  time (%) = 4.7161 (0.303057)
Outpt time (%) = 0.000586557 (3.76922e-05)
Other time (%) = 1547.83 (99.464)

Nlocal:    11.875 ave 177 max 0 min
Histogram: 36 0 1 1 0 0 0 0 0 2
Nghost:    6.1 ave 74 max 0 min
Histogram: 36 0 0 0 0 1 0 1 0 2
Neighs:    4.325 ave 75 max 0 min
Histogram: 36 1 1 0 0 0 0 0 1 1

Total # of neighbors = 173
Ave neighs/atom = 0.364211
Neighbor list builds = 10003
Dangerous builds = 0
Setting up run at Mon Nov 28 06:38:24 2022

Memory usage per processor = 958.989 Mbytes
    Step    Atoms         KinEng            CPU 
 4475282      475     0.34270414              0 
 4629602      473     0.45673691       1528.384 
Loop time of 1528.38 on 40 procs for 154320 steps with 473 atoms, finish time Mon Nov 28 07:03:52 2022


Pair  time (%) = 0.331536 (0.0216919)
Neigh time (%) = 2.8101 (0.183861)
Comm  time (%) = 4.19201 (0.274277)
Outpt time (%) = 0.000281509 (1.84188e-05)
Other time (%) = 1521.05 (99.5202)

Nlocal:    11.825 ave 174 max 0 min
Histogram: 36 0 2 0 0 0 0 0 0 2
Nghost:    5.875 ave 71 max 0 min
Histogram: 36 0 0 0 0 0 1 1 0 2
Neighs:    4.275 ave 75 max 0 min
Histogram: 36 1 1 0 0 0 0 0 1 1

Total # of neighbors = 171
Ave neighs/atom = 0.361522
Neighbor list builds = 8632
Dangerous builds = 167
Setting up run at Mon Nov 28 07:03:52 2022

Memory usage per processor = 958.989 Mbytes
    Step    Atoms         KinEng            CPU 
 4629602      473     0.45673691              0 
 4783922      466     0.32406948      1512.7124 
Loop time of 1512.71 on 40 procs for 154320 steps with 466 atoms, finish time Mon Nov 28 07:29:05 2022


Pair  time (%) = 0.324307 (0.0214388)
Neigh time (%) = 2.29852 (0.151947)
Comm  time (%) = 4.44074 (0.293562)
Outpt time (%) = 0.000658165 (4.35089e-05)
Other time (%) = 1505.65 (99.533)

Nlocal:    11.65 ave 174 max 0 min
Histogram: 36 0 2 0 0 0 0 0 0 2
Nghost:    5.75 ave 68 max 0 min
Histogram: 36 0 0 0 0 0 1 1 0 2
Neighs:    4.05 ave 74 max 0 min
Histogram: 36 1 1 0 0 0 0 0 1 1

Total # of neighbors = 162
Ave neighs/atom = 0.347639
Neighbor list builds = 7227
Dangerous builds = 840
Setting up run at Mon Nov 28 07:29:05 2022

Memory usage per processor = 958.989 Mbytes
    Step    Atoms         KinEng            CPU 
 4783922      466     0.32406948              0 
 4938242      461     0.33258765      1526.3258 
Loop time of 1526.33 on 40 procs for 154320 steps with 461 atoms, finish time Mon Nov 28 07:54:32 2022


Pair  time (%) = 0.327714 (0.0214708)
Neigh time (%) = 2.45857 (0.161078)
Comm  time (%) = 4.72002 (0.309241)
Outpt time (%) = 0.000309326 (2.0266e-05)
Other time (%) = 1518.82 (99.5082)

Nlocal:    11.525 ave 173 max 0 min
Histogram: 36 0 2 0 0 0 0 0 0 2
Nghost:    5.775 ave 66 max 0 min
Histogram: 36 0 0 0 0 0 0 2 0 2
Neighs:    3.975 ave 73 max 0 min
Histogram: 36 2 0 0 0 0 0 0 1 1

Total # of neighbors = 159
Ave neighs/atom = 0.344902
Neighbor list builds = 7485
Dangerous builds = 118
Setting up run at Mon Nov 28 07:54:32 2022

Memory usage per processor = 958.989 Mbytes
    Step    Atoms         KinEng            CPU 
 4938242      461     0.33258765              0 
 5092562      457     0.23371343      1524.4175 
Loop time of 1524.42 on 40 procs for 154320 steps with 457 atoms, finish time Mon Nov 28 08:19:56 2022


Pair  time (%) = 0.328306 (0.0215365)
Neigh time (%) = 2.54798 (0.167144)
Comm  time (%) = 4.30811 (0.282607)
Outpt time (%) = 0.000252319 (1.65519e-05)
Other time (%) = 1517.23 (99.5287)

Nlocal:    11.425 ave 173 max 0 min
Histogram: 36 0 2 0 0 0 0 0 0 2
Nghost:    5.675 ave 68 max 0 min
Histogram: 36 0 0 0 0 0 1 1 1 1
Neighs:    4.125 ave 73 max 0 min
Histogram: 36 2 0 0 0 0 0 0 0 2

Total # of neighbors = 165
Ave neighs/atom = 0.36105
Neighbor list builds = 7811
Dangerous builds = 58
Setting up run at Mon Nov 28 08:19:56 2022

Memory usage per processor = 958.989 Mbytes
    Step    Atoms         KinEng            CPU 
 5092562      457     0.23371343              0 
 5246882      456      0.3651413      1511.0882 
Loop time of 1511.09 on 40 procs for 154320 steps with 456 atoms, finish time Mon Nov 28 08:45:07 2022


Pair  time (%) = 0.320492 (0.0212093)
Neigh time (%) = 1.97686 (0.130824)
Comm  time (%) = 3.41563 (0.226038)
Outpt time (%) = 0.000619245 (4.098e-05)
Other time (%) = 1505.38 (99.6219)

Nlocal:    11.4 ave 174 max 0 min
Histogram: 36 0 2 0 0 0 0 0 0 2
Nghost:    5.675 ave 70 max 0 min
Histogram: 36 0 0 0 0 0 1 2 0 1
Neighs:    4.075 ave 69 max 0 min
Histogram: 36 1 1 0 0 0 0 0 0 2

Total # of neighbors = 163
Ave neighs/atom = 0.357456
Neighbor list builds = 5974
Dangerous builds = 0
Setting up run at Mon Nov 28 08:45:07 2022

Memory usage per processor = 958.989 Mbytes
    Step    Atoms         KinEng            CPU 
 5246882      456      0.3651413              0 
 5401202      453     0.28855616      1510.9868 
Loop time of 1510.99 on 40 procs for 154320 steps with 453 atoms, finish time Mon Nov 28 09:10:18 2022


Pair  time (%) = 0.318432 (0.0210745)
Neigh time (%) = 2.04192 (0.135138)
Comm  time (%) = 3.30795 (0.218927)
Outpt time (%) = 0.000287305 (1.90144e-05)
Other time (%) = 1505.32 (99.6248)

Nlocal:    11.325 ave 172 max 0 min
Histogram: 36 0 2 0 0 0 0 0 0 2
Nghost:    5.35 ave 63 max 0 min
Histogram: 36 0 0 0 0 0 1 1 1 1
Neighs:    4.125 ave 70 max 0 min
Histogram: 36 1 1 0 0 0 0 0 0 2

Total # of neighbors = 165
Ave neighs/atom = 0.364238
Neighbor list builds = 6216
Dangerous builds = 1
Setting up run at Mon Nov 28 09:10:18 2022

Memory usage per processor = 958.989 Mbytes
    Step    Atoms         KinEng            CPU 
 5401202      453     0.28855616              0 
 5555522      452     0.30291258      1548.1079 
Loop time of 1548.11 on 40 procs for 154320 steps with 452 atoms, finish time Mon Nov 28 09:36:06 2022


Pair  time (%) = 0.333749 (0.0215585)
Neigh time (%) = 3.87158 (0.250084)
Comm  time (%) = 5.50714 (0.355734)
Outpt time (%) = 0.000601731 (3.88688e-05)
Other time (%) = 1538.39 (99.3726)

Nlocal:    11.3 ave 172 max 0 min
Histogram: 36 0 2 0 0 0 0 0 0 2
Nghost:    5.375 ave 60 max 0 min
Histogram: 36 0 0 0 0 0 0 1 1 2
Neighs:    3.875 ave 68 max 0 min
Histogram: 37 0 1 0 0 0 0 0 0 2

Total # of neighbors = 155
Ave neighs/atom = 0.34292
Neighbor list builds = 11766
Dangerous builds = 0
Setting up run at Mon Nov 28 09:36:06 2022

Memory usage per processor = 958.989 Mbytes
    Step    Atoms         KinEng            CPU 
 5555522      452     0.30291258              0 
 5709842      448     0.27758081      1529.2079 
Loop time of 1529.21 on 40 procs for 154320 steps with 448 atoms, finish time Mon Nov 28 10:01:36 2022


Pair  time (%) = 0.323267 (0.0211395)
Neigh time (%) = 2.49457 (0.163128)
Comm  time (%) = 4.15345 (0.271608)
Outpt time (%) = 0.000286575 (1.87401e-05)
Other time (%) = 1522.24 (99.5441)

Nlocal:    11.2 ave 174 max 0 min
Histogram: 36 0 2 0 0 0 0 0 0 2
Nghost:    5.225 ave 63 max 0 min
Histogram: 36 0 0 0 0 0 1 1 1 1
Neighs:    3.625 ave 71 max 0 min
Histogram: 37 0 1 0 0 0 0 1 0 1

Total # of neighbors = 145
Ave neighs/atom = 0.323661
Neighbor list builds = 7561
Dangerous builds = 2
Setting up run at Mon Nov 28 10:01:36 2022

Memory usage per processor = 958.989 Mbytes
    Step    Atoms         KinEng            CPU 
 5709842      448     0.27758081              0 
 5864162      445     0.27179772      1513.1618 
Loop time of 1513.16 on 40 procs for 154320 steps with 445 atoms, finish time Mon Nov 28 10:26:49 2022


Pair  time (%) = 0.316698 (0.0209296)
Neigh time (%) = 2.12267 (0.14028)
Comm  time (%) = 3.17143 (0.20959)
Outpt time (%) = 0.000233389 (1.54239e-05)
Other time (%) = 1507.55 (99.6292)

Nlocal:    11.125 ave 173 max 0 min
Histogram: 36 1 0 1 0 0 0 0 0 2
Nghost:    5.025 ave 65 max 0 min
Histogram: 36 0 0 0 0 1 0 2 0 1
Neighs:    3.7 ave 76 max 0 min
Histogram: 37 0 1 0 0 0 1 0 0 1

Total # of neighbors = 148
Ave neighs/atom = 0.332584
Neighbor list builds = 6362
Dangerous builds = 1
Setting up run at Mon Nov 28 10:26:49 2022

Memory usage per processor = 958.989 Mbytes
    Step    Atoms         KinEng            CPU 
 5864162      445     0.27179772              0 
 6018482      441      0.2403354      1519.0046 
Loop time of 1519 on 40 procs for 154320 steps with 441 atoms, finish time Mon Nov 28 10:52:08 2022


Pair  time (%) = 0.320155 (0.0210766)
Neigh time (%) = 2.40328 (0.158214)
Comm  time (%) = 3.46961 (0.228414)
Outpt time (%) = 0.000582451 (3.83442e-05)
Other time (%) = 1512.81 (99.5923)

Nlocal:    11.025 ave 173 max 0 min
Histogram: 36 1 1 0 0 0 0 0 0 2
Nghost:    5.15 ave 67 max 0 min
Histogram: 36 0 0 0 0 1 1 1 0 1
Neighs:    3.475 ave 73 max 0 min
Histogram: 37 0 1 0 0 0 1 0 0 1

Total # of neighbors = 139
Ave neighs/atom = 0.315193
Neighbor list builds = 7242
Dangerous builds = 1
Setting up run at Mon Nov 28 10:52:08 2022

Memory usage per processor = 958.989 Mbytes
    Step    Atoms         KinEng            CPU 
 6018482      441      0.2403354              0 
 6172802      441     0.30424899       1502.998 
Loop time of 1503 on 40 procs for 154320 steps with 441 atoms, finish time Mon Nov 28 11:17:11 2022


Pair  time (%) = 0.315048 (0.0209613)
Neigh time (%) = 1.9359 (0.128803)
Comm  time (%) = 3.08173 (0.205039)
Outpt time (%) = 0.00158207 (0.000105261)
Other time (%) = 1497.66 (99.6451)

Nlocal:    11.025 ave 170 max 0 min
Histogram: 36 0 2 0 0 0 0 0 0 2
Nghost:    5.15 ave 65 max 0 min
Histogram: 36 0 0 0 0 1 0 2 0 1
Neighs:    3.55 ave 73 max 0 min
Histogram: 37 0 1 0 0 0 1 0 0 1

Total # of neighbors = 142
Ave neighs/atom = 0.321995
Neighbor list builds = 5789
Dangerous builds = 0
Setting up run at Mon Nov 28 11:17:11 2022

Memory usage per processor = 958.989 Mbytes
    Step    Atoms         KinEng            CPU 
 6172802      441     0.30424899              0 
 6327122      436     0.52004493      1532.5034 
Loop time of 1532.5 on 40 procs for 154320 steps with 436 atoms, finish time Mon Nov 28 11:42:44 2022


Pair  time (%) = 0.32207 (0.0210159)
Neigh time (%) = 2.81773 (0.183865)
Comm  time (%) = 4.83957 (0.315795)
Outpt time (%) = 0.00026243 (1.71243e-05)
Other time (%) = 1524.52 (99.4793)

Nlocal:    10.9 ave 171 max 0 min
Histogram: 36 0 2 0 0 0 0 0 0 2
Nghost:    4.95 ave 64 max 0 min
Histogram: 36 0 0 0 0 1 0 2 0 1
Neighs:    3.5 ave 75 max 0 min
Histogram: 37 1 0 0 0 0 1 0 0 1

Total # of neighbors = 140
Ave neighs/atom = 0.321101
Neighbor list builds = 8505
Dangerous builds = 3
Setting up run at Mon Nov 28 11:42:44 2022

Memory usage per processor = 958.989 Mbytes
    Step    Atoms         KinEng            CPU 
 6327122      436     0.52004493              0 
 6481442      435     0.41896149       1533.174 
Loop time of 1533.17 on 40 procs for 154320 steps with 435 atoms, finish time Mon Nov 28 12:08:17 2022


Pair  time (%) = 0.322428 (0.0210301)
Neigh time (%) = 2.60703 (0.170041)
Comm  time (%) = 4.23379 (0.276145)
Outpt time (%) = 0.000550441 (3.5902e-05)
Other time (%) = 1526.01 (99.5327)

Nlocal:    10.875 ave 168 max 0 min
Histogram: 36 0 2 0 0 0 0 0 0 2
Nghost:    4.95 ave 65 max 0 min
Histogram: 36 0 0 0 0 1 1 0 1 1
Neighs:    3.475 ave 69 max 0 min
Histogram: 37 1 0 0 0 0 0 1 0 1

Total # of neighbors = 139
Ave neighs/atom = 0.31954
Neighbor list builds = 7976
Dangerous builds = 402
Setting up run at Mon Nov 28 12:08:17 2022

Memory usage per processor = 958.989 Mbytes
    Step    Atoms         KinEng            CPU 
 6481442      435     0.41896149              0 
 6635762      432     0.41828366      1519.3537 
Loop time of 1519.35 on 40 procs for 154320 steps with 432 atoms, finish time Mon Nov 28 12:33:36 2022


Pair  time (%) = 0.3167 (0.0208444)
Neigh time (%) = 2.23873 (0.147348)
Comm  time (%) = 3.47065 (0.228429)
Outpt time (%) = 0.000312682 (2.05799e-05)
Other time (%) = 1513.33 (99.6034)

Nlocal:    10.8 ave 169 max 0 min
Histogram: 36 0 2 0 0 0 0 0 0 2
Nghost:    4.975 ave 66 max 0 min
Histogram: 36 0 0 0 1 0 1 0 1 1
Neighs:    3.45 ave 66 max 0 min
Histogram: 37 1 0 0 0 0 0 0 1 1

Total # of neighbors = 138
Ave neighs/atom = 0.319444
Neighbor list builds = 6833
Dangerous builds = 330
Setting up run at Mon Nov 28 12:33:36 2022

Memory usage per processor = 958.989 Mbytes
    Step    Atoms         KinEng            CPU 
 6635762      432     0.41828366              0 
 6790082      428     0.92646192       1538.952 
Loop time of 1538.95 on 40 procs for 154320 steps with 428 atoms, finish time Mon Nov 28 12:59:15 2022


Pair  time (%) = 0.318618 (0.0207036)
Neigh time (%) = 2.3996 (0.155924)
Comm  time (%) = 3.98427 (0.258895)
Outpt time (%) = 0.00307998 (0.000200135)
Other time (%) = 1532.25 (99.5643)

Nlocal:    10.7 ave 167 max 0 min
Histogram: 36 0 2 0 0 0 0 0 0 2
Nghost:    4.975 ave 66 max 0 min
Histogram: 36 0 0 0 0 1 1 0 1 1
Neighs:    3.325 ave 63 max 0 min
Histogram: 37 1 0 0 0 0 0 0 1 1

Total # of neighbors = 133
Ave neighs/atom = 0.310748
Neighbor list builds = 7504
Dangerous builds = 418
Setting up run at Mon Nov 28 12:59:15 2022

Memory usage per processor = 958.989 Mbytes
    Step    Atoms         KinEng            CPU 
 6790082      428     0.92646192              0 
 6944402      426     0.92047083      1571.2383 
Loop time of 1571.24 on 40 procs for 154320 steps with 426 atoms, finish time Mon Nov 28 13:25:27 2022


Pair  time (%) = 0.320082 (0.0203713)
Neigh time (%) = 2.74142 (0.174475)
Comm  time (%) = 4.76916 (0.303529)
Outpt time (%) = 0.00294962 (0.000187726)
Other time (%) = 1563.4 (99.5014)

Nlocal:    10.65 ave 164 max 0 min
Histogram: 36 0 2 0 0 0 0 0 0 2
Nghost:    5 ave 62 max 0 min
Histogram: 36 0 0 0 0 1 1 0 0 2
Neighs:    3.55 ave 66 max 0 min
Histogram: 37 0 1 0 0 0 0 0 1 1

Total # of neighbors = 142
Ave neighs/atom = 0.333333
Neighbor list builds = 8279
Dangerous builds = 1
Setting up run at Mon Nov 28 13:25:27 2022

Memory usage per processor = 958.989 Mbytes
    Step    Atoms         KinEng            CPU 
 6944402      426     0.92047083              0 
 7098722      425     0.84228978      1600.4042 
Loop time of 1600.4 on 40 procs for 154320 steps with 425 atoms, finish time Mon Nov 28 13:52:07 2022


Pair  time (%) = 0.320904 (0.0200514)
Neigh time (%) = 2.82715 (0.176652)
Comm  time (%) = 5.32211 (0.332548)
Outpt time (%) = 0.00036651 (2.29011e-05)
Other time (%) = 1591.93 (99.4707)

Nlocal:    10.625 ave 158 max 0 min
Histogram: 36 0 2 0 0 0 0 0 0 2
Nghost:    4.975 ave 60 max 0 min
Histogram: 36 0 0 0 0 0 2 0 0 2
Neighs:    3.475 ave 61 max 0 min
Histogram: 36 1 1 0 0 0 0 0 0 2

Total # of neighbors = 139
Ave neighs/atom = 0.327059
Neighbor list builds = 8572
Dangerous builds = 0
Setting up run at Mon Nov 28 13:52:07 2022

Memory usage per processor = 958.989 Mbytes
    Step    Atoms         KinEng            CPU 
 7098722      425     0.84228978              0 
 7253042      424     0.68153088      1527.4371 
Loop time of 1527.44 on 40 procs for 154320 steps with 424 atoms, finish time Mon Nov 28 14:17:35 2022


Pair  time (%) = 0.318246 (0.0208353)
Neigh time (%) = 2.21943 (0.145304)
Comm  time (%) = 3.44592 (0.225602)
Outpt time (%) = 0.000654204 (4.28301e-05)
Other time (%) = 1521.45 (99.6082)

Nlocal:    10.6 ave 159 max 0 min
Histogram: 36 0 2 0 0 0 0 0 0 2
Nghost:    4.775 ave 61 max 0 min
Histogram: 36 0 0 0 0 1 1 0 1 1
Neighs:    3.35 ave 61 max 0 min
Histogram: 36 2 0 0 0 0 0 0 1 1

Total # of neighbors = 134
Ave neighs/atom = 0.316038
Neighbor list builds = 6671
Dangerous builds = 1
Setting up run at Mon Nov 28 14:17:35 2022

Memory usage per processor = 958.989 Mbytes
    Step    Atoms         KinEng            CPU 
 7253042      424     0.68153088              0 
 7407362      422     0.58130076      1530.7822 
Loop time of 1530.78 on 40 procs for 154320 steps with 422 atoms, finish time Mon Nov 28 14:43:05 2022


Pair  time (%) = 0.316809 (0.0206959)
Neigh time (%) = 2.24813 (0.146861)
Comm  time (%) = 3.24971 (0.212291)
Outpt time (%) = 0.000304902 (1.9918e-05)
Other time (%) = 1524.97 (99.6201)

Nlocal:    10.55 ave 157 max 0 min
Histogram: 36 0 2 0 0 0 0 0 0 2
Nghost:    4.775 ave 56 max 0 min
Histogram: 36 0 0 0 0 0 1 1 0 2
Neighs:    3.25 ave 60 max 0 min
Histogram: 36 2 0 0 0 0 0 0 1 1

Total # of neighbors = 130
Ave neighs/atom = 0.308057
Neighbor list builds = 6892
Dangerous builds = 205
Setting up run at Mon Nov 28 14:43:05 2022

Memory usage per processor = 958.989 Mbytes
    Step    Atoms         KinEng            CPU 
 7407362      422     0.58130076              0 
 7561682      420     0.57489015      1536.7597 
Loop time of 1536.76 on 40 procs for 154320 steps with 420 atoms, finish time Mon Nov 28 15:08:42 2022


Pair  time (%) = 0.317068 (0.0206322)
Neigh time (%) = 2.32009 (0.150973)
Comm  time (%) = 3.42628 (0.222955)
Outpt time (%) = 0.0006277 (4.08457e-05)
Other time (%) = 1530.7 (99.6054)

Nlocal:    10.5 ave 158 max 0 min
Histogram: 36 0 2 0 0 0 0 0 0 2
Nghost:    4.775 ave 59 max 0 min
Histogram: 36 0 0 0 0 1 1 0 0 2
Neighs:    3 ave 56 max 0 min
Histogram: 36 1 1 0 0 0 0 1 0 1

Total # of neighbors = 120
Ave neighs/atom = 0.285714
Neighbor list builds = 7002
Dangerous builds = 111
Setting up run at Mon Nov 28 15:08:42 2022

Memory usage per processor = 958.989 Mbytes
    Step    Atoms         KinEng            CPU 
 7561682      420     0.57489015              0 
 7716002      419     0.51900148      1509.9943 
Loop time of 1509.99 on 40 procs for 154320 steps with 419 atoms, finish time Mon Nov 28 15:33:52 2022


Pair  time (%) = 0.315271 (0.020879)
Neigh time (%) = 2.0912 (0.138491)
Comm  time (%) = 3.67193 (0.243175)
Outpt time (%) = 0.000329677 (2.1833e-05)
Other time (%) = 1503.92 (99.5974)

Nlocal:    10.475 ave 158 max 0 min
Histogram: 36 0 2 0 0 0 0 0 0 2
Nghost:    4.675 ave 59 max 0 min
Histogram: 36 0 0 0 0 1 1 0 1 1
Neighs:    3.125 ave 56 max 0 min
Histogram: 36 1 1 0 0 0 0 0 1 1

Total # of neighbors = 125
Ave neighs/atom = 0.298329
Neighbor list builds = 6325
Dangerous builds = 120
Setting up run at Mon Nov 28 15:33:52 2022

Memory usage per processor = 958.989 Mbytes
    Step    Atoms         KinEng            CPU 
 7716002      419     0.51900148              0 
 7870322      416     0.58469498      1534.9732 
Loop time of 1534.97 on 40 procs for 154320 steps with 416 atoms, finish time Mon Nov 28 15:59:27 2022


Pair  time (%) = 0.31583 (0.0205756)
Neigh time (%) = 2.45769 (0.160113)
Comm  time (%) = 4.57976 (0.298361)
Outpt time (%) = 0.000296593 (1.93223e-05)
Other time (%) = 1527.62 (99.5209)

Nlocal:    10.4 ave 157 max 0 min
Histogram: 36 0 2 0 0 0 0 0 0 2
Nghost:    4.5 ave 57 max 0 min
Histogram: 36 0 0 0 0 1 1 0 1 1
Neighs:    2.85 ave 51 max 0 min
Histogram: 36 2 0 0 0 0 0 0 1 1

Total # of neighbors = 114
Ave neighs/atom = 0.274038
Neighbor list builds = 7613
Dangerous builds = 385
Setting up run at Mon Nov 28 15:59:27 2022

Memory usage per processor = 958.989 Mbytes
    Step    Atoms         KinEng            CPU 
 7870322      416     0.58469498              0 
 8024642      413     0.49281755      1530.0823 
Loop time of 1530.09 on 40 procs for 154320 steps with 413 atoms, finish time Mon Nov 28 16:24:57 2022


Pair  time (%) = 0.319052 (0.0208518)
Neigh time (%) = 2.84557 (0.185974)
Comm  time (%) = 4.88566 (0.319305)
Outpt time (%) = 0.000616997 (4.03242e-05)
Other time (%) = 1522.04 (99.4738)

Nlocal:    10.325 ave 155 max 0 min
Histogram: 36 0 2 0 0 0 0 0 0 2
Nghost:    4.675 ave 60 max 0 min
Histogram: 36 0 0 0 0 1 1 0 1 1
Neighs:    2.925 ave 50 max 0 min
Histogram: 36 0 2 0 0 0 0 0 1 1

Total # of neighbors = 117
Ave neighs/atom = 0.283293
Neighbor list builds = 8561
Dangerous builds = 2
Setting up run at Mon Nov 28 16:24:58 2022

Memory usage per processor = 958.989 Mbytes
    Step    Atoms         KinEng            CPU 
 8024642      413     0.49281755              0 
 8178962      412     0.38597075      1577.6364 
Loop time of 1577.64 on 40 procs for 154320 steps with 412 atoms, finish time Mon Nov 28 16:51:15 2022


Pair  time (%) = 0.312629 (0.0198163)
Neigh time (%) = 1.85127 (0.117345)
Comm  time (%) = 2.91669 (0.184877)
Outpt time (%) = 0.000344802 (2.18556e-05)
Other time (%) = 1572.56 (99.6779)

Nlocal:    10.3 ave 156 max 0 min
Histogram: 36 0 1 1 0 0 0 0 0 2
Nghost:    4.675 ave 64 max 0 min
Histogram: 36 0 0 0 0 2 0 1 0 1
Neighs:    2.85 ave 52 max 0 min
Histogram: 36 1 1 0 0 0 0 1 0 1

Total # of neighbors = 114
Ave neighs/atom = 0.276699
Neighbor list builds = 5573
Dangerous builds = 1
Setting up run at Mon Nov 28 16:51:15 2022

Memory usage per processor = 958.989 Mbytes
    Step    Atoms         KinEng            CPU 
 8178962      412     0.38597075              0 
 8333282      407      0.7243587      1524.2669 
Loop time of 1524.27 on 40 procs for 154320 steps with 407 atoms, finish time Mon Nov 28 17:16:39 2022


Pair  time (%) = 0.310435 (0.0203662)
Neigh time (%) = 1.79722 (0.117907)
Comm  time (%) = 2.95904 (0.194129)
Outpt time (%) = 0.00320898 (0.000210526)
Other time (%) = 1519.2 (99.6674)

Nlocal:    10.175 ave 158 max 0 min
Histogram: 36 0 2 0 0 0 0 0 1 1
Nghost:    4.6 ave 62 max 0 min
Histogram: 36 0 0 0 0 1 1 1 0 1
Neighs:    2.875 ave 55 max 0 min
Histogram: 36 1 1 0 0 0 1 0 0 1

Total # of neighbors = 115
Ave neighs/atom = 0.282555
Neighbor list builds = 5551
Dangerous builds = 230
Setting up run at Mon Nov 28 17:16:40 2022

Memory usage per processor = 958.989 Mbytes
    Step    Atoms         KinEng            CPU 
 8333282      407      0.7243587              0 
 8487602      403     0.31297396      1541.3505 
Loop time of 1541.35 on 40 procs for 154320 steps with 403 atoms, finish time Mon Nov 28 17:42:21 2022


Pair  time (%) = 0.315017 (0.0204377)
Neigh time (%) = 3.05441 (0.198165)
Comm  time (%) = 4.77358 (0.309701)
Outpt time (%) = 0.000288582 (1.87227e-05)
Other time (%) = 1533.21 (99.4717)

Nlocal:    10.075 ave 157 max 0 min
Histogram: 36 0 2 0 0 0 0 0 0 2
Nghost:    4.625 ave 63 max 0 min
Histogram: 36 0 0 0 0 2 0 1 0 1
Neighs:    2.65 ave 48 max 0 min
Histogram: 36 1 1 0 0 0 0 1 0 1

Total # of neighbors = 106
Ave neighs/atom = 0.263027
Neighbor list builds = 9274
Dangerous builds = 4
Setting up run at Mon Nov 28 17:42:21 2022

Memory usage per processor = 958.989 Mbytes
    Step    Atoms         KinEng            CPU 
 8487602      403     0.31297396              0 
 8641922      402     0.39071515      1634.9643 
Loop time of 1634.96 on 40 procs for 154320 steps with 402 atoms, finish time Mon Nov 28 18:09:36 2022


Pair  time (%) = 0.308274 (0.0188551)
Neigh time (%) = 2.06915 (0.126556)
Comm  time (%) = 4.26912 (0.261114)
Outpt time (%) = 0.000587071 (3.59073e-05)
Other time (%) = 1628.32 (99.5934)

Nlocal:    10.05 ave 151 max 0 min
Histogram: 36 0 2 0 0 0 0 0 0 2
Nghost:    4.5 ave 59 max 0 min
Histogram: 36 0 0 0 0 2 0 0 1 1
Neighs:    2.65 ave 45 max 0 min
Histogram: 36 1 1 0 0 0 0 0 1 1

Total # of neighbors = 106
Ave neighs/atom = 0.263682
Neighbor list builds = 6310
Dangerous builds = 0
Setting up run at Mon Nov 28 18:09:36 2022

Memory usage per processor = 958.989 Mbytes
    Step    Atoms         KinEng            CPU 
 8641922      402     0.39071515              0 
 8796242      402      0.3953418      1514.4446 
Loop time of 1514.45 on 40 procs for 154320 steps with 402 atoms, finish time Mon Nov 28 18:34:50 2022


Pair  time (%) = 0.304803 (0.0201264)
Neigh time (%) = 1.88453 (0.124437)
Comm  time (%) = 3.27933 (0.216537)
Outpt time (%) = 0.000363024 (2.39707e-05)
Other time (%) = 1508.98 (99.6389)

Nlocal:    10.05 ave 147 max 0 min
Histogram: 36 0 2 0 0 0 0 0 0 2
Nghost:    4.575 ave 61 max 0 min
Histogram: 36 0 0 0 0 2 0 0 1 1
Neighs:    2.675 ave 45 max 0 min
Histogram: 36 0 1 1 0 0 0 0 1 1

Total # of neighbors = 107
Ave neighs/atom = 0.266169
Neighbor list builds = 5645
Dangerous builds = 0
Setting up run at Mon Nov 28 18:34:51 2022

Memory usage per processor = 958.989 Mbytes
    Step    Atoms         KinEng            CPU 
 8796242      402      0.3953418              0 
 8950562      400      0.4775516      1520.4369 
Loop time of 1520.44 on 40 procs for 154320 steps with 400 atoms, finish time Mon Nov 28 19:00:11 2022


Pair  time (%) = 0.306365 (0.0201498)
Neigh time (%) = 1.63307 (0.107408)
Comm  time (%) = 2.60772 (0.171511)
Outpt time (%) = 0.000228504 (1.50289e-05)
Other time (%) = 1515.89 (99.7009)

Nlocal:    10 ave 145 max 0 min
Histogram: 36 0 2 0 0 0 0 0 0 2
Nghost:    4.675 ave 59 max 0 min
Histogram: 36 0 0 0 0 1 1 0 0 2
Neighs:    2.625 ave 43 max 0 min
Histogram: 36 0 2 0 0 0 0 0 1 1

Total # of neighbors = 105
Ave neighs/atom = 0.2625
Neighbor list builds = 5010
Dangerous builds = 3
Setting up run at Mon Nov 28 19:00:11 2022

Memory usage per processor = 958.989 Mbytes
    Step    Atoms         KinEng            CPU 
 8950562      400      0.4775516              0 
 9104882      397     0.40143943      1551.1178 
Loop time of 1551.12 on 40 procs for 154320 steps with 397 atoms, finish time Mon Nov 28 19:26:02 2022


Pair  time (%) = 0.307584 (0.0198298)
Neigh time (%) = 1.87721 (0.121023)
Comm  time (%) = 3.15214 (0.203217)
Outpt time (%) = 0.000608632 (3.92383e-05)
Other time (%) = 1545.78 (99.6559)

Nlocal:    9.925 ave 144 max 0 min
Histogram: 36 0 2 0 0 0 0 0 0 2
Nghost:    4.625 ave 57 max 0 min
Histogram: 36 0 0 0 0 1 1 0 0 2
Neighs:    2.475 ave 46 max 0 min
Histogram: 36 0 2 0 0 0 1 0 0 1

Total # of neighbors = 99
Ave neighs/atom = 0.24937
Neighbor list builds = 5795
Dangerous builds = 2
Setting up run at Mon Nov 28 19:26:02 2022

Memory usage per processor = 958.989 Mbytes
    Step    Atoms         KinEng            CPU 
 9104882      397     0.40143943              0 
 9259202      396     0.42187748       1496.716 
Loop time of 1496.72 on 40 procs for 154320 steps with 396 atoms, finish time Mon Nov 28 19:50:59 2022


Pair  time (%) = 0.302674 (0.0202225)
Neigh time (%) = 1.21575 (0.0812276)
Comm  time (%) = 2.05486 (0.137291)
Outpt time (%) = 0.000293246 (1.95926e-05)
Other time (%) = 1493.14 (99.7612)

Nlocal:    9.9 ave 146 max 0 min
Histogram: 36 0 2 0 0 0 0 0 0 2
Nghost:    4.525 ave 54 max 0 min
Histogram: 36 0 0 0 0 0 2 0 0 2
Neighs:    2.425 ave 49 max 0 min
Histogram: 36 1 1 0 0 1 0 0 0 1

Total # of neighbors = 97
Ave neighs/atom = 0.244949
Neighbor list builds = 3685
Dangerous builds = 82
Setting up run at Mon Nov 28 19:50:59 2022

Memory usage per processor = 958.989 Mbytes
    Step    Atoms         KinEng            CPU 
 9259202      396     0.42187748              0 
 9413522      391     0.49264619      1516.1188 
Loop time of 1516.12 on 40 procs for 154320 steps with 391 atoms, finish time Mon Nov 28 20:16:15 2022


Pair  time (%) = 0.307512 (0.0202829)
Neigh time (%) = 1.99818 (0.131796)
Comm  time (%) = 3.53374 (0.233078)
Outpt time (%) = 0.000292056 (1.92634e-05)
Other time (%) = 1510.28 (99.6148)

Nlocal:    9.775 ave 145 max 0 min
Histogram: 36 0 2 0 0 0 0 0 0 2
Nghost:    4.55 ave 54 max 0 min
Histogram: 36 0 0 0 0 0 2 0 0 2
Neighs:    2.3 ave 44 max 0 min
Histogram: 36 0 2 0 0 0 1 0 0 1

Total # of neighbors = 92
Ave neighs/atom = 0.235294
Neighbor list builds = 6071
Dangerous builds = 5
Setting up run at Mon Nov 28 20:16:15 2022

Memory usage per processor = 958.989 Mbytes
    Step    Atoms         KinEng            CPU 
 9413522      391     0.49264619              0 
 9567842      389     0.58478614      1518.2983 
Loop time of 1518.3 on 40 procs for 154320 steps with 389 atoms, finish time Mon Nov 28 20:41:34 2022


Pair  time (%) = 0.305763 (0.0201385)
Neigh time (%) = 2.02534 (0.133395)
Comm  time (%) = 3.65076 (0.240451)
Outpt time (%) = 0.00060708 (3.99842e-05)
Other time (%) = 1512.32 (99.606)

Nlocal:    9.725 ave 145 max 0 min
Histogram: 36 0 2 0 0 0 0 0 0 2
Nghost:    4.25 ave 51 max 0 min
Histogram: 36 0 0 0 0 0 2 0 0 2
Neighs:    2.2 ave 38 max 0 min
Histogram: 36 0 2 0 0 0 0 0 1 1

Total # of neighbors = 88
Ave neighs/atom = 0.226221
Neighbor list builds = 6248
Dangerous builds = 359
Setting up run at Mon Nov 28 20:41:34 2022

Memory usage per processor = 958.989 Mbytes
    Step    Atoms         KinEng            CPU 
 9567842      389     0.58478614              0 
 9722162      385     0.42104265       1520.878 
Loop time of 1520.88 on 40 procs for 154320 steps with 385 atoms, finish time Mon Nov 28 21:06:55 2022


Pair  time (%) = 0.30492 (0.020049)
Neigh time (%) = 2.07846 (0.136662)
Comm  time (%) = 3.08909 (0.203112)
Outpt time (%) = 0.000268969 (1.76851e-05)
Other time (%) = 1515.41 (99.6402)

Nlocal:    9.625 ave 146 max 0 min
Histogram: 36 0 2 0 0 0 0 0 0 2
Nghost:    4.125 ave 50 max 0 min
Histogram: 36 0 0 0 0 0 2 0 0 2
Neighs:    1.975 ave 34 max 0 min
Histogram: 36 0 2 0 0 0 0 1 0 1

Total # of neighbors = 79
Ave neighs/atom = 0.205195
Neighbor list builds = 6245
Dangerous builds = 2
Setting up run at Mon Nov 28 21:06:55 2022

Memory usage per processor = 958.989 Mbytes
    Step    Atoms         KinEng            CPU 
 9722162      385     0.42104265              0 
 9876482      384     0.38741259      1501.9125 
Loop time of 1501.91 on 40 procs for 154320 steps with 384 atoms, finish time Mon Nov 28 21:31:56 2022


Pair  time (%) = 0.301418 (0.0200689)
Neigh time (%) = 1.36282 (0.0907392)
Comm  time (%) = 2.25043 (0.149838)
Outpt time (%) = 0.000617722 (4.1129e-05)
Other time (%) = 1498 (99.7393)

Nlocal:    9.6 ave 148 max 0 min
Histogram: 36 0 2 0 0 0 0 0 1 1
Nghost:    4.175 ave 48 max 0 min
Histogram: 36 0 0 0 0 0 0 2 0 2
Neighs:    2.05 ave 35 max 0 min
Histogram: 36 0 1 1 0 0 0 0 1 1

Total # of neighbors = 82
Ave neighs/atom = 0.213542
Neighbor list builds = 4250
Dangerous builds = 362
Setting up run at Mon Nov 28 21:31:57 2022

Memory usage per processor = 958.989 Mbytes
    Step    Atoms         KinEng            CPU 
 9876482      384     0.38741259              0 
10030802      380      0.5438334      1526.2079 
Loop time of 1526.21 on 40 procs for 154320 steps with 380 atoms, finish time Mon Nov 28 21:57:23 2022


Pair  time (%) = 0.307739 (0.0201636)
Neigh time (%) = 2.2696 (0.148709)
Comm  time (%) = 3.13122 (0.205164)
Outpt time (%) = 0.000359344 (2.35449e-05)
Other time (%) = 1520.5 (99.6259)

Nlocal:    9.5 ave 147 max 0 min
Histogram: 36 0 2 0 0 0 0 0 1 1
Nghost:    4.15 ave 45 max 0 min
Histogram: 36 0 0 0 0 0 0 1 1 2
Neighs:    2.15 ave 35 max 0 min
Histogram: 36 0 1 1 0 0 0 0 1 1

Total # of neighbors = 86
Ave neighs/atom = 0.226316
Neighbor list builds = 6891
Dangerous builds = 2
Setting up run at Mon Nov 28 21:57:23 2022

Memory usage per processor = 958.989 Mbytes
    Step    Atoms         KinEng            CPU 
10030802      380      0.5438334              0 
10185122      377     0.47168324      1531.4899 
Loop time of 1531.49 on 40 procs for 154320 steps with 377 atoms, finish time Mon Nov 28 22:22:54 2022


Pair  time (%) = 0.310725 (0.0202891)
Neigh time (%) = 2.76563 (0.180584)
Comm  time (%) = 4.00246 (0.261344)
Outpt time (%) = 0.000279514 (1.82511e-05)
Other time (%) = 1524.41 (99.5378)

Nlocal:    9.425 ave 148 max 0 min
Histogram: 36 0 2 0 0 0 0 0 1 1
Nghost:    3.975 ave 45 max 0 min
Histogram: 36 0 0 0 0 0 0 1 1 2
Neighs:    2.175 ave 33 max 0 min
Histogram: 36 0 0 2 0 0 0 0 0 2

Total # of neighbors = 87
Ave neighs/atom = 0.230769
Neighbor list builds = 8303
Dangerous builds = 1
Setting up run at Mon Nov 28 22:22:54 2022

Memory usage per processor = 958.989 Mbytes
    Step    Atoms         KinEng            CPU 
10185122      377     0.47168324              0 
10339442      375     0.41752176      1531.6805 
Loop time of 1531.68 on 40 procs for 154320 steps with 375 atoms, finish time Mon Nov 28 22:48:26 2022


Pair  time (%) = 0.308783 (0.0201597)
Neigh time (%) = 2.38995 (0.156034)
Comm  time (%) = 3.50541 (0.22886)
Outpt time (%) = 0.000552055 (3.60424e-05)
Other time (%) = 1525.48 (99.5949)

Nlocal:    9.375 ave 148 max 0 min
Histogram: 36 0 2 0 0 0 0 0 1 1
Nghost:    4.125 ave 48 max 0 min
Histogram: 36 0 0 0 0 0 1 1 0 2
Neighs:    2.125 ave 33 max 0 min
Histogram: 36 0 1 1 0 0 0 0 0 2

Total # of neighbors = 85
Ave neighs/atom = 0.226667
Neighbor list builds = 7209
Dangerous builds = 0
Setting up run at Mon Nov 28 22:48:26 2022

Memory usage per processor = 958.989 Mbytes
    Step    Atoms         KinEng            CPU 
10339442      375     0.41752176              0 
10493762      372     0.75088497      1518.2733 
Loop time of 1518.27 on 40 procs for 154320 steps with 372 atoms, finish time Mon Nov 28 23:13:44 2022


Pair  time (%) = 0.307577 (0.0202584)
Neigh time (%) = 2.36733 (0.155923)
Comm  time (%) = 3.51403 (0.231449)
Outpt time (%) = 0.000305469 (2.01195e-05)
Other time (%) = 1512.08 (99.5923)

Nlocal:    9.3 ave 147 max 0 min
Histogram: 36 1 1 0 0 0 0 0 1 1
Nghost:    3.95 ave 43 max 0 min
Histogram: 36 0 0 0 0 0 0 1 1 2
Neighs:    2.025 ave 33 max 0 min
Histogram: 36 1 0 1 0 0 0 0 0 2

Total # of neighbors = 81
Ave neighs/atom = 0.217742
Neighbor list builds = 7127
Dangerous builds = 100
Setting up run at Mon Nov 28 23:13:44 2022

Memory usage per processor = 958.989 Mbytes
    Step    Atoms         KinEng            CPU 
10493762      372     0.75088497              0 
10648082      370     0.55989699      1519.5029 
Loop time of 1519.5 on 40 procs for 154320 steps with 370 atoms, finish time Mon Nov 28 23:39:04 2022


Pair  time (%) = 0.306831 (0.0201928)
Neigh time (%) = 2.10985 (0.138852)
Comm  time (%) = 3.25472 (0.214196)
Outpt time (%) = 0.000599405 (3.94474e-05)
Other time (%) = 1513.83 (99.6267)

Nlocal:    9.25 ave 149 max 0 min
Histogram: 36 1 1 0 0 0 0 0 1 1
Nghost:    3.925 ave 44 max 0 min
Histogram: 36 0 0 0 0 0 0 1 2 1
Neighs:    2.175 ave 35 max 0 min
Histogram: 36 1 0 1 0 0 0 0 0 2

Total # of neighbors = 87
Ave neighs/atom = 0.235135
Neighbor list builds = 6379
Dangerous builds = 1
Setting up run at Mon Nov 28 23:39:04 2022

Memory usage per processor = 958.989 Mbytes
    Step    Atoms         KinEng            CPU 
10648082      370     0.55989699              0 
10802402      365      1.4674928      1525.1341 
Loop time of 1525.14 on 40 procs for 154320 steps with 365 atoms, finish time Tue Nov 29 00:04:29 2022


Pair  time (%) = 0.302731 (0.0198494)
Neigh time (%) = 2.319 (0.152052)
Comm  time (%) = 4.0035 (0.262501)
Outpt time (%) = 0.000359246 (2.3555e-05)
Other time (%) = 1518.51 (99.5656)

Nlocal:    9.125 ave 148 max 0 min
Histogram: 36 0 2 0 0 0 0 0 1 1
Nghost:    3.975 ave 43 max 0 min
Histogram: 36 0 0 0 0 0 0 1 1 2
Neighs:    2.35 ave 39 max 0 min
Histogram: 36 0 2 0 0 0 0 0 1 1

Total # of neighbors = 94
Ave neighs/atom = 0.257534
Neighbor list builds = 7028
Dangerous builds = 6
Setting up run at Tue Nov 29 00:04:29 2022

Memory usage per processor = 958.989 Mbytes
    Step    Atoms         KinEng            CPU 
10802402      365      1.4674928              0 
10956722      364      0.4250705      1513.5518 
Loop time of 1513.55 on 40 procs for 154320 steps with 364 atoms, finish time Tue Nov 29 00:29:43 2022


Pair  time (%) = 0.293036 (0.0193608)
Neigh time (%) = 1.56161 (0.103175)
Comm  time (%) = 2.70456 (0.17869)
Outpt time (%) = 0.000290842 (1.92159e-05)
Other time (%) = 1508.99 (99.6988)

Nlocal:    9.1 ave 145 max 0 min
Histogram: 36 0 2 0 0 0 0 0 1 1
Nghost:    4.1 ave 45 max 0 min
Histogram: 36 0 0 0 0 0 0 0 2 2
Neighs:    2.375 ave 40 max 0 min
Histogram: 36 0 1 1 0 0 0 0 1 1

Total # of neighbors = 95
Ave neighs/atom = 0.260989
Neighbor list builds = 4628
Dangerous builds = 0
Setting up run at Tue Nov 29 00:29:43 2022

Memory usage per processor = 958.989 Mbytes
    Step    Atoms         KinEng            CPU 
10956722      364      0.4250705              0 
11111042      362     0.41675717      1535.3328 
Loop time of 1535.33 on 40 procs for 154320 steps with 362 atoms, finish time Tue Nov 29 00:55:18 2022


Pair  time (%) = 0.305554 (0.0199015)
Neigh time (%) = 3.17995 (0.207118)
Comm  time (%) = 4.8313 (0.314674)
Outpt time (%) = 0.000555705 (3.61944e-05)
Other time (%) = 1527.02 (99.4583)

Nlocal:    9.05 ave 145 max 0 min
Histogram: 36 0 2 0 0 0 0 0 1 1
Nghost:    4.05 ave 44 max 0 min
Histogram: 36 0 0 0 0 0 0 0 2 2
Neighs:    2.4 ave 42 max 0 min
Histogram: 36 0 2 0 0 0 0 1 0 1

Total # of neighbors = 96
Ave neighs/atom = 0.265193
Neighbor list builds = 9473
Dangerous builds = 1
Setting up run at Tue Nov 29 00:55:18 2022

Memory usage per processor = 958.989 Mbytes
    Step    Atoms         KinEng            CPU 
11111042      362     0.41675717              0 
11265362      361     0.36317506      1527.2562 
Loop time of 1527.26 on 40 procs for 154320 steps with 361 atoms, finish time Tue Nov 29 01:20:46 2022


Pair  time (%) = 0.296807 (0.019434)
Neigh time (%) = 2.04254 (0.133739)
Comm  time (%) = 3.07899 (0.201603)
Outpt time (%) = 0.000317493 (2.07884e-05)
Other time (%) = 1521.84 (99.6452)

Nlocal:    9.025 ave 146 max 0 min
Histogram: 36 0 2 0 0 0 0 0 1 1
Nghost:    3.875 ave 46 max 0 min
Histogram: 36 0 0 0 0 0 0 2 1 1
Neighs:    2.275 ave 43 max 0 min
Histogram: 36 0 2 0 0 0 1 0 0 1

Total # of neighbors = 91
Ave neighs/atom = 0.252078
Neighbor list builds = 6064
Dangerous builds = 0
Setting up run at Tue Nov 29 01:20:46 2022

Memory usage per processor = 958.989 Mbytes
    Step    Atoms         KinEng            CPU 
11265362      361     0.36317506              0 
11419682      361      3.7956758      1517.5869 
Loop time of 1517.59 on 40 procs for 154320 steps with 361 atoms, finish time Tue Nov 29 01:46:03 2022


Pair  time (%) = 0.2965 (0.0195376)
Neigh time (%) = 1.80319 (0.11882)
Comm  time (%) = 2.44496 (0.161108)
Outpt time (%) = 0.000543711 (3.58274e-05)
Other time (%) = 1513.04 (99.7005)

Nlocal:    9.025 ave 147 max 0 min
Histogram: 36 1 1 0 0 0 0 1 0 1
Nghost:    3.975 ave 47 max 0 min
Histogram: 36 0 0 0 0 0 0 2 1 1
Neighs:    2.15 ave 41 max 0 min
Histogram: 36 1 1 0 0 0 1 0 0 1

Total # of neighbors = 86
Ave neighs/atom = 0.238227
Neighbor list builds = 5361
Dangerous builds = 0
Setting up run at Tue Nov 29 01:46:03 2022

Memory usage per processor = 958.989 Mbytes
    Step    Atoms         KinEng            CPU 
11419682      361      3.7956758              0 
11574002      360     0.30892707      1512.7485 
Loop time of 1512.75 on 40 procs for 154320 steps with 360 atoms, finish time Tue Nov 29 02:11:16 2022


Pair  time (%) = 0.294919 (0.0194955)
Neigh time (%) = 1.85032 (0.122315)
Comm  time (%) = 3.05528 (0.201969)
Outpt time (%) = 0.000217458 (1.4375e-05)
Other time (%) = 1507.55 (99.6562)

Nlocal:    9 ave 143 max 0 min
Histogram: 36 0 2 0 0 0 0 0 1 1
Nghost:    4 ave 46 max 0 min
Histogram: 36 0 0 0 0 0 1 0 1 2
Neighs:    1.85 ave 37 max 0 min
Histogram: 36 1 1 0 0 0 1 0 0 1

Total # of neighbors = 74
Ave neighs/atom = 0.205556
Neighbor list builds = 5501
Dangerous builds = 1
Setting up run at Tue Nov 29 02:11:16 2022

Memory usage per processor = 958.989 Mbytes
    Step    Atoms         KinEng            CPU 
11574002      360     0.30892707              0 
11728322      359     0.43390136      1520.6302 
Loop time of 1520.63 on 40 procs for 154320 steps with 359 atoms, finish time Tue Nov 29 02:36:37 2022


Pair  time (%) = 0.295519 (0.019434)
Neigh time (%) = 1.85498 (0.121987)
Comm  time (%) = 3.7828 (0.248765)
Outpt time (%) = 0.000267206 (1.7572e-05)
Other time (%) = 1514.7 (99.6098)

Nlocal:    8.975 ave 144 max 0 min
Histogram: 36 0 2 0 0 0 0 1 0 1
Nghost:    4.025 ave 46 max 0 min
Histogram: 36 0 0 0 0 0 1 0 1 2
Neighs:    1.775 ave 34 max 0 min
Histogram: 36 1 1 0 0 0 0 1 0 1

Total # of neighbors = 71
Ave neighs/atom = 0.197772
Neighbor list builds = 5558
Dangerous builds = 1
Setting up run at Tue Nov 29 02:36:37 2022

Memory usage per processor = 958.989 Mbytes
    Step    Atoms         KinEng            CPU 
11728322      359     0.43390136              0 
11882642      353     0.34350869      1541.0483 
Loop time of 1541.05 on 40 procs for 154320 steps with 353 atoms, finish time Tue Nov 29 03:02:18 2022


Pair  time (%) = 0.305077 (0.0197967)
Neigh time (%) = 3.54137 (0.229803)
Comm  time (%) = 5.78073 (0.375117)
Outpt time (%) = 0.000691628 (4.48804e-05)
Other time (%) = 1531.42 (99.3752)

Nlocal:    8.825 ave 140 max 0 min
Histogram: 36 0 2 0 0 0 0 0 1 1
Nghost:    4.075 ave 47 max 0 min
Histogram: 36 0 0 0 0 0 1 0 1 2
Neighs:    1.75 ave 37 max 0 min
Histogram: 36 2 0 0 0 1 0 0 0 1

Total # of neighbors = 70
Ave neighs/atom = 0.1983
Neighbor list builds = 10800
Dangerous builds = 18
Setting up run at Tue Nov 29 03:02:18 2022

Memory usage per processor = 958.989 Mbytes
    Step    Atoms         KinEng            CPU 
11882642      353     0.34350869              0 
12036962      351      47.760416      1531.0481 
Loop time of 1531.05 on 40 procs for 154320 steps with 351 atoms, finish time Tue Nov 29 03:27:49 2022


Pair  time (%) = 0.298251 (0.0194802)
Neigh time (%) = 2.26251 (0.147775)
Comm  time (%) = 3.52053 (0.229942)
Outpt time (%) = 0.000314007 (2.05093e-05)
Other time (%) = 1524.97 (99.6028)

Nlocal:    8.775 ave 139 max 0 min
Histogram: 36 0 1 1 0 0 0 0 1 1
Nghost:    4.075 ave 45 max 0 min
Histogram: 36 0 0 0 0 0 1 0 1 2
Neighs:    1.8 ave 34 max 0 min
Histogram: 36 1 1 0 0 0 1 0 0 1

Total # of neighbors = 72
Ave neighs/atom = 0.205128
Neighbor list builds = 6785
Dangerous builds = 20
Setting up run at Tue Nov 29 03:27:49 2022

Memory usage per processor = 958.989 Mbytes
    Step    Atoms         KinEng            CPU 
12036962      351      47.760416              0 
12191282      345     0.33757254      1530.4567 
Loop time of 1530.46 on 40 procs for 154320 steps with 345 atoms, finish time Tue Nov 29 03:53:19 2022


Pair  time (%) = 0.304721 (0.0199104)
Neigh time (%) = 3.01295 (0.196866)
Comm  time (%) = 4.11122 (0.268627)
Outpt time (%) = 0.00294346 (0.000192326)
Other time (%) = 1523.02 (99.5144)

Nlocal:    8.625 ave 137 max 0 min
Histogram: 36 0 2 0 0 0 0 0 1 1
Nghost:    3.975 ave 50 max 0 min
Histogram: 36 0 0 0 0 1 0 1 1 1
Neighs:    1.75 ave 32 max 0 min
Histogram: 36 1 1 0 0 0 0 1 0 1

Total # of neighbors = 70
Ave neighs/atom = 0.202899
Neighbor list builds = 9272
Dangerous builds = 496
Setting up run at Tue Nov 29 03:53:20 2022

Memory usage per processor = 958.989 Mbytes
    Step    Atoms         KinEng            CPU 
12191282      345     0.33757254              0 
12345602      344     0.31006651      1522.1501 
Loop time of 1522.15 on 40 procs for 154320 steps with 344 atoms, finish time Tue Nov 29 04:18:42 2022


Pair  time (%) = 0.298402 (0.019604)
Neigh time (%) = 2.11156 (0.138722)
Comm  time (%) = 3.02758 (0.198901)
Outpt time (%) = 0.000315218 (2.07088e-05)
Other time (%) = 1516.71 (99.6428)

Nlocal:    8.6 ave 136 max 0 min
Histogram: 36 0 2 0 0 0 0 0 1 1
Nghost:    4.075 ave 49 max 0 min
Histogram: 36 0 0 0 0 0 1 1 1 1
Neighs:    2 ave 33 max 0 min
Histogram: 36 0 1 1 0 0 0 0 1 1

Total # of neighbors = 80
Ave neighs/atom = 0.232558
Neighbor list builds = 6340
Dangerous builds = 227
Setting up run at Tue Nov 29 04:18:42 2022

Memory usage per processor = 958.989 Mbytes
    Step    Atoms         KinEng            CPU 
12345602      344     0.31006651              0 
12499922      342     0.40383387      1530.3183 
Loop time of 1530.32 on 40 procs for 154320 steps with 342 atoms, finish time Tue Nov 29 04:44:12 2022


Pair  time (%) = 0.299923 (0.0195988)
Neigh time (%) = 2.30671 (0.150734)
Comm  time (%) = 4.22398 (0.27602)
Outpt time (%) = 0.00022871 (1.49452e-05)
Other time (%) = 1523.49 (99.5536)

Nlocal:    8.55 ave 136 max 0 min
Histogram: 36 0 2 0 0 0 0 0 1 1
Nghost:    4.225 ave 49 max 0 min
Histogram: 36 0 0 0 0 0 1 1 1 1
Neighs:    1.925 ave 36 max 0 min
Histogram: 36 2 0 0 0 0 0 1 0 1

Total # of neighbors = 77
Ave neighs/atom = 0.225146
Neighbor list builds = 7089
Dangerous builds = 631
Setting up run at Tue Nov 29 04:44:12 2022

Memory usage per processor = 958.989 Mbytes
    Step    Atoms         KinEng            CPU 
12499922      342     0.40383387              0 
12654242      341     0.45638191      1512.5863 
Loop time of 1512.59 on 40 procs for 154320 steps with 341 atoms, finish time Tue Nov 29 05:09:25 2022


Pair  time (%) = 0.296315 (0.0195899)
Neigh time (%) = 2.05175 (0.135645)
Comm  time (%) = 3.56374 (0.235606)
Outpt time (%) = 0.000512901 (3.39088e-05)
Other time (%) = 1506.67 (99.6091)

Nlocal:    8.525 ave 136 max 0 min
Histogram: 36 0 2 0 0 0 0 0 1 1
Nghost:    4.1 ave 50 max 0 min
Histogram: 36 0 0 0 0 0 1 1 0 2
Neighs:    1.775 ave 35 max 0 min
Histogram: 36 1 1 0 0 0 1 0 0 1

Total # of neighbors = 71
Ave neighs/atom = 0.208211
Neighbor list builds = 6105
Dangerous builds = 1
Setting up run at Tue Nov 29 05:09:25 2022

Memory usage per processor = 958.989 Mbytes
    Step    Atoms         KinEng            CPU 
12654242      341     0.45638191              0 
12808562      335     0.28529519       1543.606 
Loop time of 1543.61 on 40 procs for 154320 steps with 335 atoms, finish time Tue Nov 29 05:35:08 2022


Pair  time (%) = 0.301793 (0.0195512)
Neigh time (%) = 2.88893 (0.187154)
Comm  time (%) = 3.74549 (0.242645)
Outpt time (%) = 0.00281964 (0.000182666)
Other time (%) = 1536.67 (99.5505)

Nlocal:    8.375 ave 135 max 0 min
Histogram: 36 0 2 0 0 0 0 0 1 1
Nghost:    4.075 ave 51 max 0 min
Histogram: 36 0 0 0 0 1 0 1 1 1
Neighs:    1.675 ave 34 max 0 min
Histogram: 36 1 1 0 0 0 1 0 0 1

Total # of neighbors = 67
Ave neighs/atom = 0.2
Neighbor list builds = 8792
Dangerous builds = 318
Setting up run at Tue Nov 29 05:35:09 2022

Memory usage per processor = 958.989 Mbytes
    Step    Atoms         KinEng            CPU 
12808562      335     0.28529519              0 
12962882      334     0.23749543      1522.5106 
Loop time of 1522.51 on 40 procs for 154320 steps with 334 atoms, finish time Tue Nov 29 06:00:31 2022


Pair  time (%) = 0.299619 (0.0196793)
Neigh time (%) = 2.15093 (0.141275)
Comm  time (%) = 3.16328 (0.207768)
Outpt time (%) = 0.00026663 (1.75125e-05)
Other time (%) = 1516.9 (99.6313)

Nlocal:    8.35 ave 133 max 0 min
Histogram: 36 0 2 0 0 0 0 0 1 1
Nghost:    4.05 ave 51 max 0 min
Histogram: 36 0 0 0 0 1 0 1 1 1
Neighs:    1.725 ave 32 max 0 min
Histogram: 36 0 2 0 0 0 1 0 0 1

Total # of neighbors = 69
Ave neighs/atom = 0.206587
Neighbor list builds = 6506
Dangerous builds = 317
Setting up run at Tue Nov 29 06:00:31 2022

Memory usage per processor = 958.989 Mbytes
    Step    Atoms         KinEng            CPU 
12962882      334     0.23749543              0 
13117202      331     0.26820238      1516.5208 
Loop time of 1516.52 on 40 procs for 154320 steps with 331 atoms, finish time Tue Nov 29 06:25:48 2022


Pair  time (%) = 0.29559 (0.0194913)
Neigh time (%) = 1.91577 (0.126327)
Comm  time (%) = 2.72969 (0.179997)
Outpt time (%) = 0.000686984 (4.53e-05)
Other time (%) = 1511.58 (99.6741)

Nlocal:    8.275 ave 133 max 0 min
Histogram: 36 0 2 0 0 0 0 0 1 1
Nghost:    4.075 ave 52 max 0 min
Histogram: 36 0 0 0 0 1 0 2 0 1
Neighs:    1.6 ave 31 max 0 min
Histogram: 36 1 1 0 0 0 1 0 0 1

Total # of neighbors = 64
Ave neighs/atom = 0.193353
Neighbor list builds = 5807
Dangerous builds = 327
Setting up run at Tue Nov 29 06:25:48 2022

Memory usage per processor = 958.989 Mbytes
    Step    Atoms         KinEng            CPU 
13117202      331     0.26820238              0 
13271522      330     0.40171749      1536.6054 
Loop time of 1536.61 on 40 procs for 154320 steps with 330 atoms, finish time Tue Nov 29 06:51:24 2022


Pair  time (%) = 0.301763 (0.0196383)
Neigh time (%) = 2.97181 (0.1934)
Comm  time (%) = 3.82365 (0.248837)
Outpt time (%) = 0.000295883 (1.92555e-05)
Other time (%) = 1529.51 (99.5381)

Nlocal:    8.25 ave 135 max 0 min
Histogram: 36 1 1 0 0 0 0 0 1 1
Nghost:    4.025 ave 49 max 0 min
Histogram: 36 0 0 0 0 1 0 1 0 2
Neighs:    1.5 ave 26 max 0 min
Histogram: 36 0 1 1 0 0 0 1 0 1

Total # of neighbors = 60
Ave neighs/atom = 0.181818
Neighbor list builds = 8818
Dangerous builds = 1
Setting up run at Tue Nov 29 06:51:24 2022

Memory usage per processor = 958.989 Mbytes
    Step    Atoms         KinEng            CPU 
13271522      330     0.40171749              0 
13425842      329     0.37823567       1534.467 
Loop time of 1534.47 on 40 procs for 154320 steps with 329 atoms, finish time Tue Nov 29 07:16:59 2022


Pair  time (%) = 0.298957 (0.0194828)
Neigh time (%) = 2.42248 (0.157871)
Comm  time (%) = 3.33619 (0.217417)
Outpt time (%) = 0.000570974 (3.721e-05)
Other time (%) = 1528.41 (99.6052)

Nlocal:    8.225 ave 136 max 0 min
Histogram: 36 1 1 0 0 0 0 1 0 1
Nghost:    4.025 ave 47 max 0 min
Histogram: 36 0 0 0 0 0 2 0 0 2
Neighs:    1.3 ave 24 max 0 min
Histogram: 36 0 2 0 0 0 1 0 0 1

Total # of neighbors = 52
Ave neighs/atom = 0.158055
Neighbor list builds = 7211
Dangerous builds = 0
Setting up run at Tue Nov 29 07:16:59 2022

Memory usage per processor = 958.989 Mbytes
    Step    Atoms         KinEng            CPU 
13425842      329     0.37823567              0 
13580162      326      0.3373712      1523.9497 
Loop time of 1523.95 on 40 procs for 154320 steps with 326 atoms, finish time Tue Nov 29 07:42:23 2022


Pair  time (%) = 0.295514 (0.0193913)
Neigh time (%) = 2.0966 (0.137577)
Comm  time (%) = 3.06722 (0.201268)
Outpt time (%) = 0.000325997 (2.13916e-05)
Other time (%) = 1518.49 (99.6417)

Nlocal:    8.15 ave 135 max 0 min
Histogram: 36 1 1 0 0 0 0 1 0 1
Nghost:    4 ave 49 max 0 min
Histogram: 36 0 0 0 0 0 2 0 0 2
Neighs:    1.25 ave 22 max 0 min
Histogram: 36 0 1 1 0 0 1 0 0 1

Total # of neighbors = 50
Ave neighs/atom = 0.153374
Neighbor list builds = 6316
Dangerous builds = 219
Setting up run at Tue Nov 29 07:42:23 2022

Memory usage per processor = 958.989 Mbytes
    Step    Atoms         KinEng            CPU 
13580162      326      0.3373712              0 
13734482      323     0.24171216      1553.9213 
Loop time of 1553.92 on 40 procs for 154320 steps with 323 atoms, finish time Tue Nov 29 08:08:17 2022


Pair  time (%) = 0.305372 (0.0196517)
Neigh time (%) = 3.73748 (0.240519)
Comm  time (%) = 4.75988 (0.306314)
Outpt time (%) = 0.000341777 (2.19945e-05)
Other time (%) = 1545.12 (99.4335)

Nlocal:    8.075 ave 135 max 0 min
Histogram: 36 1 1 0 0 0 0 1 0 1
Nghost:    3.925 ave 49 max 0 min
Histogram: 36 0 0 0 0 0 2 0 1 1
Neighs:    1.2 ave 20 max 0 min
Histogram: 36 0 2 0 0 0 0 0 0 2

Total # of neighbors = 48
Ave neighs/atom = 0.148607
Neighbor list builds = 11297
Dangerous builds = 321
Setting up run at Tue Nov 29 08:08:17 2022

Memory usage per processor = 958.989 Mbytes
    Step    Atoms         KinEng            CPU 
13734482      323     0.24171216              0 
13888802      321     0.10000097      1535.3355 
Loop time of 1535.34 on 40 procs for 154320 steps with 321 atoms, finish time Tue Nov 29 08:33:52 2022


Pair  time (%) = 0.297671 (0.019388)
Neigh time (%) = 2.64907 (0.17254)
Comm  time (%) = 3.39604 (0.221192)
Outpt time (%) = 0.000666593 (4.34168e-05)
Other time (%) = 1528.99 (99.5868)

Nlocal:    8.025 ave 134 max 0 min
Histogram: 36 1 1 0 0 0 0 1 0 1
Nghost:    3.9 ave 49 max 0 min
Histogram: 36 0 0 0 0 1 1 0 1 1
Neighs:    1.175 ave 19 max 0 min
Histogram: 36 0 1 1 0 0 0 0 1 1

Total # of neighbors = 47
Ave neighs/atom = 0.146417
Neighbor list builds = 7853
Dangerous builds = 1
Setting up run at Tue Nov 29 08:33:52 2022

Memory usage per processor = 958.989 Mbytes
    Step    Atoms         KinEng            CPU 
13888802      321     0.10000097              0 
14043122      317     0.10829354      1527.9575 
Loop time of 1527.96 on 40 procs for 154320 steps with 317 atoms, finish time Tue Nov 29 08:59:20 2022


Pair  time (%) = 0.297353 (0.0194608)
Neigh time (%) = 2.03077 (0.132908)
Comm  time (%) = 3.04709 (0.199422)
Outpt time (%) = 0.000314177 (2.05619e-05)
Other time (%) = 1522.58 (99.6482)

Nlocal:    7.925 ave 134 max 0 min
Histogram: 36 1 1 0 0 0 0 1 0 1
Nghost:    3.825 ave 49 max 0 min
Histogram: 36 0 0 0 0 1 1 1 0 1
Neighs:    1.15 ave 19 max 0 min
Histogram: 36 0 1 1 0 0 0 0 1 1

Total # of neighbors = 46
Ave neighs/atom = 0.14511
Neighbor list builds = 6192
Dangerous builds = 334
[...]
Neighs:    0.2 ave 5 max 0 min
Histogram: 38 0 0 0 0 0 1 0 0 1

Total # of neighbors = 8
Ave neighs/atom = 0.0479042
Neighbor list builds = 5054
Dangerous builds = 0
Setting up run at Wed Nov 30 21:18:20 2022

Memory usage per processor = 958.989 Mbytes
    Step    Atoms         KinEng            CPU 
27314739      167     0.51163174              0 
27469059      166     0.80455175      1550.0848 
Loop time of 1550.09 on 40 procs for 154320 steps with 166 atoms, finish time Wed Nov 30 21:44:11 2022


Pair  time (%) = 0.286366 (0.0184742)
Neigh time (%) = 3.8501 (0.24838)
Comm  time (%) = 6.90437 (0.445419)
Outpt time (%) = 0.000676682 (4.36545e-05)
Other time (%) = 1539.04 (99.2877)

Nlocal:    4.15 ave 77 max 0 min
Histogram: 37 1 0 0 0 0 0 1 0 1
Nghost:    1.325 ave 17 max 0 min
Histogram: 35 1 0 0 2 0 0 0 0 2
Neighs:    0.175 ave 5 max 0 min
Histogram: 38 0 0 0 1 0 0 0 0 1

Total # of neighbors = 7
Ave neighs/atom = 0.0421687
Neighbor list builds = 11378
Dangerous builds = 2
Setting up run at Wed Nov 30 21:44:11 2022

Memory usage per processor = 958.989 Mbytes
    Step    Atoms         KinEng            CPU 
27469059      166     0.80455175              0 
27623379      166     0.78501641      1549.2552 
Loop time of 1549.26 on 40 procs for 154320 steps with 166 atoms, finish time Wed Nov 30 22:10:00 2022


Pair  time (%) = 0.286343 (0.0184826)
Neigh time (%) = 3.50657 (0.226339)
Comm  time (%) = 6.06448 (0.391445)
Outpt time (%) = 0.00302895 (0.00019551)
Other time (%) = 1539.39 (99.3635)

Nlocal:    4.15 ave 78 max 0 min
Histogram: 37 1 0 0 0 0 0 1 0 1
Nghost:    1.25 ave 18 max 0 min
Histogram: 35 1 0 2 0 0 0 0 1 1
Neighs:    0.175 ave 5 max 0 min
Histogram: 38 0 0 0 1 0 0 0 0 1

Total # of neighbors = 7
Ave neighs/atom = 0.0421687
Neighbor list builds = 10288
Dangerous builds = 0
Setting up run at Wed Nov 30 22:10:00 2022

Memory usage per processor = 958.989 Mbytes
    Step    Atoms         KinEng            CPU 
27623379      166     0.78501641              0 
27777699      165     0.82495439      1534.2645 
Loop time of 1534.26 on 40 procs for 154320 steps with 165 atoms, finish time Wed Nov 30 22:35:34 2022


Pair  time (%) = 0.286224 (0.0186554)
Neigh time (%) = 3.31805 (0.216263)
Comm  time (%) = 4.50934 (0.293909)
Outpt time (%) = 0.000352306 (2.29625e-05)
Other time (%) = 1526.15 (99.4711)

Nlocal:    4.125 ave 77 max 0 min
Histogram: 38 0 0 0 0 0 0 1 0 1
Nghost:    1.25 ave 17 max 0 min
Histogram: 35 1 0 0 2 0 0 0 1 1
Neighs:    0.175 ave 4 max 0 min
Histogram: 37 0 1 0 0 1 0 0 0 1

Total # of neighbors = 7
Ave neighs/atom = 0.0424242
Neighbor list builds = 9774
Dangerous builds = 1
Setting up run at Wed Nov 30 22:35:34 2022

Memory usage per processor = 958.989 Mbytes
    Step    Atoms         KinEng            CPU 
27777699      165     0.82495439              0 
27932019      164     0.70622272      1542.1817 
Loop time of 1542.18 on 40 procs for 154320 steps with 164 atoms, finish time Wed Nov 30 23:01:16 2022


Pair  time (%) = 0.284805 (0.0184677)
Neigh time (%) = 3.27229 (0.212186)
Comm  time (%) = 5.15831 (0.334481)
Outpt time (%) = 0.00290757 (0.000188536)
Other time (%) = 1533.46 (99.4347)

Nlocal:    4.1 ave 77 max 0 min
Histogram: 36 2 0 0 0 0 0 1 0 1
Nghost:    1.175 ave 17 max 0 min
Histogram: 35 1 0 0 2 0 0 1 0 1
Neighs:    0.175 ave 4 max 0 min
Histogram: 37 0 1 0 0 1 0 0 0 1

Total # of neighbors = 7
Ave neighs/atom = 0.0426829
Neighbor list builds = 9645
Dangerous builds = 0
Setting up run at Wed Nov 30 23:01:16 2022

Memory usage per processor = 958.989 Mbytes
    Step    Atoms         KinEng            CPU 
27932019      164     0.70622272              0 
28086339      164     0.65760941      1539.1287 
Loop time of 1539.13 on 40 procs for 154320 steps with 164 atoms, finish time Wed Nov 30 23:26:56 2022


Pair  time (%) = 0.284481 (0.0184832)
Neigh time (%) = 3.26916 (0.212404)
Comm  time (%) = 5.62187 (0.365263)
Outpt time (%) = 0.00268153 (0.000174224)
Other time (%) = 1529.95 (99.4037)

Nlocal:    4.1 ave 77 max 0 min
Histogram: 37 1 0 0 0 0 0 1 0 1
Nghost:    1.225 ave 18 max 0 min
Histogram: 35 1 0 2 0 0 0 1 0 1
Neighs:    0.225 ave 5 max 0 min
Histogram: 37 0 1 0 0 0 1 0 0 1

Total # of neighbors = 9
Ave neighs/atom = 0.054878
Neighbor list builds = 9645
Dangerous builds = 0
Setting up run at Wed Nov 30 23:26:56 2022

Memory usage per processor = 958.989 Mbytes
    Step    Atoms         KinEng            CPU 
28086339      164     0.65760941              0 
28240659      164     0.65479897      1541.9671 
Loop time of 1541.97 on 40 procs for 154320 steps with 164 atoms, finish time Wed Nov 30 23:52:38 2022


Pair  time (%) = 0.283372 (0.0183773)
Neigh time (%) = 3.27302 (0.212263)
Comm  time (%) = 6.02014 (0.390419)
Outpt time (%) = 0.00280204 (0.000181718)
Other time (%) = 1532.39 (99.3788)

Nlocal:    4.1 ave 75 max 0 min
Histogram: 37 1 0 0 0 0 0 1 0 1
Nghost:    1.225 ave 17 max 0 min
Histogram: 34 2 0 1 1 0 0 1 0 1
Neighs:    0.175 ave 4 max 0 min
Histogram: 37 0 1 0 0 1 0 0 0 1

Total # of neighbors = 7
Ave neighs/atom = 0.0426829
Neighbor list builds = 9645
Dangerous builds = 0
Setting up run at Wed Nov 30 23:52:38 2022

Memory usage per processor = 958.989 Mbytes
    Step    Atoms         KinEng            CPU 
28240659      164     0.65479897              0 
28394979      164     0.54692398      1532.5913 
Loop time of 1532.59 on 40 procs for 154320 steps with 164 atoms, finish time Thu Dec  1 00:18:10 2022


Pair  time (%) = 0.283812 (0.0185184)
Neigh time (%) = 3.1332 (0.204438)
Comm  time (%) = 4.90616 (0.320122)
Outpt time (%) = 0.000688146 (4.49008e-05)
Other time (%) = 1524.27 (99.4569)

Nlocal:    4.1 ave 73 max 0 min
Histogram: 35 3 0 0 0 0 0 1 0 1
Nghost:    1.175 ave 17 max 0 min
Histogram: 36 0 0 1 1 0 0 1 0 1
Neighs:    0.125 ave 2 max 0 min
Histogram: 37 0 0 0 0 1 0 0 0 2

Total # of neighbors = 5
Ave neighs/atom = 0.0304878
Neighbor list builds = 9230
Dangerous builds = 0
Setting up run at Thu Dec  1 00:18:10 2022

Memory usage per processor = 958.989 Mbytes
    Step    Atoms         KinEng            CPU 
28394979      164     0.54692398              0 
28549299      161     0.50263944      1541.6095 
Loop time of 1541.61 on 40 procs for 154320 steps with 161 atoms, finish time Thu Dec  1 00:43:52 2022


Pair  time (%) = 0.284248 (0.0184384)
Neigh time (%) = 2.98992 (0.193948)
Comm  time (%) = 4.13896 (0.268483)
Outpt time (%) = 0.000373711 (2.42416e-05)
Other time (%) = 1534.2 (99.5191)

Nlocal:    4.025 ave 71 max 0 min
Histogram: 38 0 0 0 0 0 0 1 0 1
Nghost:    1.1 ave 15 max 0 min
Histogram: 36 0 0 0 1 1 0 0 0 2
Neighs:    0.1 ave 2 max 0 min
Histogram: 38 0 0 0 0 0 0 0 0 2

Total # of neighbors = 4
Ave neighs/atom = 0.0248447
Neighbor list builds = 8833
Dangerous builds = 1
Setting up run at Thu Dec  1 00:43:52 2022

Memory usage per processor = 958.989 Mbytes
    Step    Atoms         KinEng            CPU 
28549299      161     0.50263944              0 
28703619      161     0.46155327      1522.4982 
Loop time of 1522.5 on 40 procs for 154320 steps with 161 atoms, finish time Thu Dec  1 01:09:15 2022


Pair  time (%) = 0.280518 (0.0184248)
Neigh time (%) = 2.42182 (0.159069)
Comm  time (%) = 3.60499 (0.236781)
Outpt time (%) = 0.000274263 (1.8014e-05)
Other time (%) = 1516.19 (99.5857)

Nlocal:    4.025 ave 69 max 0 min
Histogram: 37 1 0 0 0 0 0 1 0 1
Nghost:    1.125 ave 16 max 0 min
Histogram: 36 0 0 1 1 0 0 0 1 1
Neighs:    0.15 ave 2 max 0 min
Histogram: 37 0 0 0 0 0 0 0 0 3

Total # of neighbors = 6
Ave neighs/atom = 0.0372671
Neighbor list builds = 7124
Dangerous builds = 0
Setting up run at Thu Dec  1 01:09:15 2022

Memory usage per processor = 958.989 Mbytes
    Step    Atoms         KinEng            CPU 
28703619      161     0.46155327              0 
28857939      160     0.50223526      1520.8974 
Loop time of 1520.9 on 40 procs for 154320 steps with 160 atoms, finish time Thu Dec  1 01:34:36 2022


Pair  time (%) = 0.281849 (0.0185317)
Neigh time (%) = 2.17044 (0.142708)
Comm  time (%) = 3.40154 (0.223654)
Outpt time (%) = 0.000579826 (3.81239e-05)
Other time (%) = 1515.04 (99.6151)

Nlocal:    4 ave 70 max 0 min
Histogram: 37 1 0 0 0 0 0 1 0 1
Nghost:    1.25 ave 16 max 0 min
Histogram: 36 0 0 0 1 1 0 0 0 2
Neighs:    0.025 ave 1 max 0 min
Histogram: 39 0 0 0 0 0 0 0 0 1

Total # of neighbors = 1
Ave neighs/atom = 0.00625
Neighbor list builds = 6372
Dangerous builds = 0
Setting up run at Thu Dec  1 01:34:36 2022

Memory usage per processor = 958.989 Mbytes
    Step    Atoms         KinEng            CPU 
28857939      160     0.50223526              0 
29012259      158     0.46059456      1519.1456 
Loop time of 1519.15 on 40 procs for 154320 steps with 158 atoms, finish time Thu Dec  1 01:59:55 2022


Pair  time (%) = 0.279288 (0.0183845)
Neigh time (%) = 2.08456 (0.137219)
Comm  time (%) = 3.78664 (0.249261)
Outpt time (%) = 0.000334147 (2.19957e-05)
Other time (%) = 1513 (99.5951)

Nlocal:    3.95 ave 70 max 0 min
Histogram: 38 0 0 0 0 0 0 1 0 1
Nghost:    1.125 ave 15 max 0 min
Histogram: 36 0 0 1 1 0 0 0 0 2
Neighs:    0.05 ave 2 max 0 min
Histogram: 39 0 0 0 0 0 0 0 0 1

Total # of neighbors = 2
Ave neighs/atom = 0.0126582
Neighbor list builds = 6244
Dangerous builds = 2
Setting up run at Thu Dec  1 01:59:55 2022

Memory usage per processor = 958.989 Mbytes
    Step    Atoms         KinEng            CPU 
29012259      158     0.46059456              0 
29166579      156     0.39941014      1523.7161 
Loop time of 1523.72 on 40 procs for 154320 steps with 156 atoms, finish time Thu Dec  1 02:25:19 2022


Pair  time (%) = 0.282394 (0.0185333)
Neigh time (%) = 2.32261 (0.152431)
Comm  time (%) = 3.63735 (0.238716)
Outpt time (%) = 0.000510563 (3.35077e-05)
Other time (%) = 1517.47 (99.5903)

Nlocal:    3.9 ave 69 max 0 min
Histogram: 37 1 0 0 0 0 0 1 0 1
Nghost:    1.175 ave 15 max 0 min
Histogram: 35 1 0 0 2 0 0 0 1 1
Neighs:    0.025 ave 1 max 0 min
Histogram: 39 0 0 0 0 0 0 0 0 1

Total # of neighbors = 1
Ave neighs/atom = 0.00641026
Neighbor list builds = 6884
Dangerous builds = 1
Setting up run at Thu Dec  1 02:25:19 2022

Memory usage per processor = 958.989 Mbytes
    Step    Atoms         KinEng            CPU 
29166579      156     0.39941014              0 
29320899      156       1.255827      1520.4968 
Loop time of 1520.5 on 40 procs for 154320 steps with 156 atoms, finish time Thu Dec  1 02:50:39 2022


Pair  time (%) = 0.281933 (0.0185422)
Neigh time (%) = 2.53577 (0.166773)
Comm  time (%) = 3.85043 (0.253235)
Outpt time (%) = 0.000335849 (2.20881e-05)
Other time (%) = 1513.83 (99.5614)

Nlocal:    3.9 ave 67 max 0 min
Histogram: 37 1 0 0 0 0 0 1 0 1
Nghost:    1.225 ave 16 max 0 min
Histogram: 35 1 0 0 2 0 0 1 0 1
Neighs:    0.075 ave 2 max 0 min
Histogram: 38 0 0 0 0 1 0 0 0 1

Total # of neighbors = 3
Ave neighs/atom = 0.0192308
Neighbor list builds = 7455
Dangerous builds = 0
Setting up run at Thu Dec  1 02:50:39 2022

Memory usage per processor = 958.989 Mbytes
    Step    Atoms         KinEng            CPU 
29320899      156       1.255827              0 
29475219      150     0.58594518      1529.2754 
Loop time of 1529.28 on 40 procs for 154320 steps with 150 atoms, finish time Thu Dec  1 03:16:08 2022


Pair  time (%) = 0.280104 (0.0183161)
Neigh time (%) = 2.23115 (0.145896)
Comm  time (%) = 2.84689 (0.186159)
Outpt time (%) = 0.000238237 (1.55784e-05)
Other time (%) = 1523.92 (99.6496)

Nlocal:    3.75 ave 63 max 0 min
Histogram: 37 1 0 0 0 0 0 0 1 1
Nghost:    1.15 ave 16 max 0 min
Histogram: 35 1 0 1 1 0 0 1 0 1
Neighs:    0.075 ave 2 max 0 min
Histogram: 38 0 0 0 0 1 0 0 0 1

Total # of neighbors = 3
Ave neighs/atom = 0.02
Neighbor list builds = 6520
Dangerous builds = 0
Setting up run at Thu Dec  1 03:16:08 2022

Memory usage per processor = 958.989 Mbytes
    Step    Atoms         KinEng            CPU 
29475219      150     0.58594518              0 
29629539      150     0.50697944      1525.6026 
Loop time of 1525.6 on 40 procs for 154320 steps with 150 atoms, finish time Thu Dec  1 03:41:34 2022


Pair  time (%) = 0.283513 (0.0185836)
Neigh time (%) = 2.73727 (0.179422)
Comm  time (%) = 3.45905 (0.226733)
Outpt time (%) = 0.000547929 (3.59156e-05)
Other time (%) = 1519.12 (99.5752)

Nlocal:    3.75 ave 63 max 0 min
Histogram: 37 1 0 0 0 0 0 1 0 1
Nghost:    1.2 ave 18 max 0 min
Histogram: 36 0 0 2 0 0 0 1 0 1
Neighs:    0.05 ave 1 max 0 min
Histogram: 38 0 0 0 0 0 0 0 0 2

Total # of neighbors = 2
Ave neighs/atom = 0.0133333
Neighbor list builds = 8063
Dangerous builds = 0
Setting up run at Thu Dec  1 03:41:34 2022

Memory usage per processor = 958.989 Mbytes
    Step    Atoms         KinEng            CPU 
29629539      150     0.50697944              0 
29783859      148     0.71161412      1524.8035 
Loop time of 1524.8 on 40 procs for 154320 steps with 148 atoms, finish time Thu Dec  1 04:06:59 2022


Pair  time (%) = 0.280525 (0.0183975)
Neigh time (%) = 2.41839 (0.158604)
Comm  time (%) = 3.87624 (0.254213)
Outpt time (%) = 0.000270619 (1.77478e-05)
Other time (%) = 1518.23 (99.5688)

Nlocal:    3.7 ave 67 max 0 min
Histogram: 37 1 0 0 0 0 1 0 0 1
Nghost:    1.125 ave 15 max 0 min
Histogram: 35 1 0 1 1 0 0 0 0 2
Neighs:    0.05 ave 2 max 0 min
Histogram: 39 0 0 0 0 0 0 0 0 1

Total # of neighbors = 2
Ave neighs/atom = 0.0135135
Neighbor list builds = 7190
Dangerous builds = 2
Setting up run at Thu Dec  1 04:06:59 2022

Memory usage per processor = 958.989 Mbytes
    Step    Atoms         KinEng            CPU 
29783859      148     0.71161412              0 
29938179      146     0.66292712       1528.893 
Loop time of 1528.89 on 40 procs for 154320 steps with 146 atoms, finish time Thu Dec  1 04:32:28 2022


Pair  time (%) = 0.281116 (0.0183869)
Neigh time (%) = 2.66329 (0.174197)
Comm  time (%) = 2.98078 (0.194963)
Outpt time (%) = 0.000616078 (4.02957e-05)
Other time (%) = 1522.97 (99.6124)

Nlocal:    3.65 ave 67 max 0 min
Histogram: 37 1 0 0 0 0 1 0 0 1
Nghost:    1.05 ave 16 max 0 min
Histogram: 36 0 1 0 1 0 0 0 1 1
Neighs:    0.1 ave 3 max 0 min
Histogram: 38 0 0 1 0 0 0 0 0 1

Total # of neighbors = 4
Ave neighs/atom = 0.0273973
Neighbor list builds = 7862
Dangerous builds = 0
Setting up run at Thu Dec  1 04:32:28 2022

Memory usage per processor = 958.989 Mbytes
    Step    Atoms         KinEng            CPU 
29938179      146     0.66292712              0 
30092499      145     0.80152986      1528.7644 
Loop time of 1528.76 on 40 procs for 154320 steps with 145 atoms, finish time Thu Dec  1 04:57:57 2022


Pair  time (%) = 0.282361 (0.0184699)
Neigh time (%) = 2.57528 (0.168455)
Comm  time (%) = 2.91 (0.19035)
Outpt time (%) = 0.000343181 (2.24483e-05)
Other time (%) = 1523 (99.6227)

Nlocal:    3.625 ave 66 max 0 min
Histogram: 36 2 0 0 0 0 1 0 0 1
Nghost:    1.05 ave 16 max 0 min
Histogram: 35 1 1 1 0 0 0 0 1 1
Neighs:    0.2 ave 5 max 0 min
Histogram: 38 0 0 0 0 0 1 0 0 1

Total # of neighbors = 8
Ave neighs/atom = 0.0551724
Neighbor list builds = 7561
Dangerous builds = 0
Setting up run at Thu Dec  1 04:57:57 2022

Memory usage per processor = 958.989 Mbytes
    Step    Atoms         KinEng            CPU 
30092499      145     0.80152986              0 
30246819      144     0.78478985      1525.1602 
Loop time of 1525.17 on 40 procs for 154320 steps with 144 atoms, finish time Thu Dec  1 05:23:22 2022


Pair  time (%) = 0.281819 (0.0184779)
Neigh time (%) = 2.57231 (0.168657)
Comm  time (%) = 3.32534 (0.218031)
Outpt time (%) = 0.000323721 (2.12252e-05)
Other time (%) = 1518.99 (99.5948)

Nlocal:    3.6 ave 65 max 0 min
Histogram: 37 1 0 0 0 0 1 0 0 1
Nghost:    1.025 ave 14 max 0 min
Histogram: 36 0 1 0 1 0 0 0 0 2
Neighs:    0.2 ave 5 max 0 min
Histogram: 38 0 0 0 0 0 1 0 0 1

Total # of neighbors = 8
Ave neighs/atom = 0.0555556
Neighbor list builds = 7596
Dangerous builds = 74
Setting up run at Thu Dec  1 05:23:22 2022

Memory usage per processor = 958.989 Mbytes
    Step    Atoms         KinEng            CPU 
30246819      144     0.78478985              0 
30401139      143     0.86724957      1529.7083 
Loop time of 1529.71 on 40 procs for 154320 steps with 143 atoms, finish time Thu Dec  1 05:48:52 2022


Pair  time (%) = 0.279365 (0.0182626)
Neigh time (%) = 2.46837 (0.161362)
Comm  time (%) = 3.88905 (0.254235)
Outpt time (%) = 0.000509899 (3.33331e-05)
Other time (%) = 1523.07 (99.5661)

Nlocal:    3.575 ave 65 max 0 min
Histogram: 37 1 0 0 0 0 1 0 0 1
Nghost:    1.15 ave 16 max 0 min
Histogram: 35 1 1 0 0 1 0 0 0 2
Neighs:    0.1 ave 2 max 0 min
Histogram: 38 0 0 0 0 0 0 0 0 2

Total # of neighbors = 4
Ave neighs/atom = 0.027972
Neighbor list builds = 7258
Dangerous builds = 0
Setting up run at Thu Dec  1 05:48:52 2022

Memory usage per processor = 958.989 Mbytes
    Step    Atoms         KinEng            CPU 
30401139      143     0.86724957              0 
30555459      141     0.67125129      1529.7975 
Loop time of 1529.8 on 40 procs for 154320 steps with 141 atoms, finish time Thu Dec  1 06:14:22 2022


Pair  time (%) = 0.283073 (0.018504)
Neigh time (%) = 2.71259 (0.177317)
Comm  time (%) = 3.7997 (0.248379)
Outpt time (%) = 0.000248418 (1.62386e-05)
Other time (%) = 1523 (99.5558)

Nlocal:    3.525 ave 64 max 0 min
Histogram: 35 3 0 0 0 0 1 0 0 1
Nghost:    1.05 ave 16 max 0 min
Histogram: 36 0 1 1 0 0 0 0 1 1
Neighs:    0.05 ave 2 max 0 min
Histogram: 39 0 0 0 0 0 0 0 0 1

Total # of neighbors = 2
Ave neighs/atom = 0.0141844
Neighbor list builds = 8128
Dangerous builds = 311
Setting up run at Thu Dec  1 06:14:22 2022

Memory usage per processor = 958.989 Mbytes
    Step    Atoms         KinEng            CPU 
30555459      141     0.67125129              0 
30709779      141     0.66506828      1514.2484 
Loop time of 1514.25 on 40 procs for 154320 steps with 141 atoms, finish time Thu Dec  1 06:39:36 2022


Pair  time (%) = 0.280899 (0.0185504)
Neigh time (%) = 2.24118 (0.148006)
Comm  time (%) = 3.10696 (0.205182)
Outpt time (%) = 0.000560781 (3.70336e-05)
Other time (%) = 1508.62 (99.6282)

Nlocal:    3.525 ave 63 max 0 min
Histogram: 37 1 0 0 0 0 1 0 0 1
Nghost:    1.025 ave 16 max 0 min
Histogram: 34 2 1 1 0 0 1 0 0 1
Neighs:    0.075 ave 3 max 0 min
Histogram: 39 0 0 0 0 0 0 0 0 1

Total # of neighbors = 3
Ave neighs/atom = 0.0212766
Neighbor list builds = 6581
Dangerous builds = 0
Setting up run at Thu Dec  1 06:39:36 2022

Memory usage per processor = 958.989 Mbytes
    Step    Atoms         KinEng            CPU 
30709779      141     0.66506828              0 
30864099      137     0.65938971      1526.2984 
Loop time of 1526.3 on 40 procs for 154320 steps with 137 atoms, finish time Thu Dec  1 07:05:02 2022


Pair  time (%) = 0.279477 (0.0183108)
Neigh time (%) = 2.21766 (0.145297)
Comm  time (%) = 4.40365 (0.288518)
Outpt time (%) = 0.000294711 (1.93089e-05)
Other time (%) = 1519.4 (99.5479)

Nlocal:    3.425 ave 62 max 0 min
Histogram: 38 0 0 0 0 0 1 0 0 1
Nghost:    1.025 ave 16 max 0 min
Histogram: 34 3 1 0 0 0 1 0 0 1
Neighs:    0.15 ave 5 max 0 min
Histogram: 38 0 1 0 0 0 0 0 0 1

Total # of neighbors = 6
Ave neighs/atom = 0.0437956
Neighbor list builds = 6652
Dangerous builds = 359
Setting up run at Thu Dec  1 07:05:02 2022

Memory usage per processor = 958.989 Mbytes
    Step    Atoms         KinEng            CPU 
30864099      137     0.65938971              0 
30864196      137     0.65932304     0.92428196 
Loop time of 0.924304 on 40 procs for 97 steps with 137 atoms, finish time Thu Dec  1 07:05:03 2022


Pair  time (%) = 0.000166034 (0.0179631)
Neigh time (%) = 0.00101388 (0.109691)
Comm  time (%) = 0.00273444 (0.295837)
Outpt time (%) = 0.000229342 (0.0248124)
Other time (%) = 0.920161 (99.5517)

Nlocal:    3.425 ave 63 max 0 min
Histogram: 38 0 0 0 0 0 1 0 0 1
Nghost:    1.025 ave 15 max 0 min
Histogram: 34 2 2 0 0 0 0 1 0 1
Neighs:    0.15 ave 5 max 0 min
Histogram: 38 0 1 0 0 0 0 0 0 1

Total # of neighbors = 6
Ave neighs/atom = 0.0437956
Neighbor list builds = 3
Dangerous builds = 0
