LIGGGHTS (Version LIGGGHTS-PUBLIC 3.8.0, compiled 2022-11-07-16:55:38 by serperd1, git commit 86544c3f1215bc9744d7929e3eacf53ba086af9e)
units si #
dimension 3 #
newton off #
boundary f f f #
atom_style sphere #
pair_style gran model hertz tangential history #
communicate single vel yes #
region outer_basket cylinder y 0 0 0.15 -0.15 0.15 #
create_box 3 outer_basket #
Created orthogonal box = (-0.15 -0.15 -0.15) to (0.15 0.15 0.15)
  2 by 4 by 5 MPI processor grid
variable my_omega equal 157.0796 #
fix cone_mesh all mesh/surface file cone.stl type 3 scale 1 #
fix rotating_wall_1 all move/mesh mesh cone_mesh rotate/variable origin 0 0 0 axis 0 1 0 omega v_my_omega #
fix filter_mesh_walls all wall/gran model hertz tangential history primitive type 2 ycylinder_filtermesh 0.069 0 0 2 9 -0.0628 0 0.026618 0.017351 0.029118 0.019851 shear x 10.8385 #

fix inlet_cyl_wall_mesh all mesh/surface file in_cyl.stl type 3 scale 1 #
fix top_cyl_wall_mesh all mesh/surface file top_cyl.stl type 3 scale 1 #
fix rotating_wall_4 all move/mesh mesh top_cyl_wall_mesh rotate/variable origin 0 0 0 axis 0 1 0 omega v_my_omega #
fix bot_cyl_wall_mesh all mesh/surface file bot_cyl.stl type 3 scale 1 #
fix rotating_wall_5 all move/mesh mesh bot_cyl_wall_mesh rotate/variable origin 0 0 0 axis 0 1 0 omega v_my_omega #
fix bot_disk_wall_mesh all mesh/surface file bottom_disk.stl type 3 scale 1 #
fix rotating_wall_6 all move/mesh mesh bot_disk_wall_mesh rotate/variable origin 0 0 0 axis 0 1 0 omega v_my_omega #
fix top_disk_wall_mesh all mesh/surface file top_disk.stl type 3 scale 1 #
fix rotating_wall_7 all move/mesh mesh top_disk_wall_mesh rotate/variable origin 0 0 0 axis 0 1 0 omega v_my_omega #
fix GMSH_mesh_walls all wall/gran model hertz tangential history mesh n_meshes 6 meshes cone_mesh top_cyl_wall_mesh bot_cyl_wall_mesh bot_disk_wall_mesh inlet_cyl_wall_mesh top_disk_wall_mesh #
fix Young_mod all property/global youngsModulus peratomtype 375000000 46000000 1000000000 #
fix Poisson_rat all property/global poissonsRatio peratomtype 0.32 0.42 0.29 #
fix Coeff_rest all property/global coefficientRestitution peratomtypepair 3 0.15 0.32 0.475 0.32 0.49 0.645 0.475 0.645 0.8 #
fix Coeff_fric all property/global coefficientFriction peratomtypepair 3 0.04 0.145 0.12 0.145 0.25 0.225 0.12 0.225 0.2 #

neighbor 0.00052488 bin #
neigh_modify delay 0 one 100000 page 5000000 #
fix r_0to10p all particletemplate/sphere 12345787 atom_type 1 density constant 2650 radius constant 8.4e-05 #
fix r_10to50p all particletemplate/sphere 15485863 atom_type 1 density constant 2650 radius constant 0.0002328 #
fix r_50to90p all particletemplate/sphere 15485867 atom_type 1 density constant 2650 radius constant 0.0008466 #
fix r_90to100p all particletemplate/sphere 32452843 atom_type 1 density constant 2650 radius constant 0.0013122 #
fix prob_par all particledistribution/discrete 32452867 4 r_0to10p 0.1 r_10to50p 0.4 r_50to90p 0.4 r_90to100p 0.1 #
pair_coeff * * #
timestep 6.48e-08 #

fix nve_group all nve/sphere #
fix grav_fix all gravity 6.1081 vector 0.017 -0.0033 0 -1 0 #
fix cent_fix all centrifugal 157.0796 0.017 -0.0033 0.069 #

variable step equal step #
variable mycount equal count(all) #
fix print_amount_of_atoms all print 25 "${step} ${mycount}" file numatoms.txt screen no #
run 0 #
Setting up run at Fri Dec 30 14:49:26 2022

Memory usage per processor = 954.637 Mbytes
    Step    Atoms         KinEng            CPU 
       0        0              0              0 
Loop time of 7.73991e-05 on 40 procs for 0 steps with 0 atoms, finish time Fri Dec 30 14:49:26 2022


Pair  time (%) = 0 (0)
Neigh time (%) = 0 (0)
Comm  time (%) = 0 (0)
Outpt time (%) = 0 (0)
Other time (%) = 7.73991e-05 (100)

Nlocal:    0 ave 0 max 0 min
Histogram: 40 0 0 0 0 0 0 0 0 0
Nghost:    0 ave 0 max 0 min
Histogram: 40 0 0 0 0 0 0 0 0 0
Neighs:    0 ave 0 max 0 min
Histogram: 40 0 0 0 0 0 0 0 0 0

Total # of neighbors = 0
Neighbor list builds = 0
Dangerous builds = 0
run 1 #
Setting up run at Fri Dec 30 14:49:26 2022

Memory usage per processor = 954.637 Mbytes
    Step    Atoms         KinEng            CPU 
       0        0              0              0 
       1        0              0    0.009863767 
Loop time of 0.00987837 on 40 procs for 1 steps with 0 atoms, finish time Fri Dec 30 14:49:26 2022


Pair  time (%) = 2.7138e-06 (0.0274721)
Neigh time (%) = 0 (0)
Comm  time (%) = 0.000269645 (2.72965)
Outpt time (%) = 8.00844e-05 (0.810705)
Other time (%) = 0.00952593 (96.4322)

Nlocal:    0 ave 0 max 0 min
Histogram: 40 0 0 0 0 0 0 0 0 0
Nghost:    0 ave 0 max 0 min
Histogram: 40 0 0 0 0 0 0 0 0 0
Neighs:    0 ave 0 max 0 min
Histogram: 40 0 0 0 0 0 0 0 0 0

Total # of neighbors = 0
Neighbor list builds = 0
Dangerous builds = 0
read_dump dump.atom_info_1 1 x y z radius vx vy vz box no add yes replace no #
  orthogonal box = (-0.15 -0.15 -0.15) to (0.15 0.15 0.15)
  0 atoms before read
  522 atoms in snapshot
  0 atoms purged
  0 atoms replaced
  0 atoms trimmed
  522 atoms added
  522 atoms after read
set atom * type 1 density 2650 vy -0.01175 #
  522 settings made for type
  522 settings made for density
  522 settings made for vy
run 1 #
Setting up run at Fri Dec 30 14:49:26 2022

Memory usage per processor = 958.989 Mbytes
    Step    Atoms         KinEng            CPU 
       1      522  2.0467238e-07              0 
       2      522  2.2321206e-07    0.009153193 
Loop time of 0.00917033 on 40 procs for 1 steps with 522 atoms, finish time Fri Dec 30 14:49:26 2022


Pair  time (%) = 2.14065e-06 (0.0233432)
Neigh time (%) = 0 (0)
Comm  time (%) = 5.25708e-06 (0.057327)
Outpt time (%) = 0.000110937 (1.20974)
Other time (%) = 0.009052 (98.7096)

Nlocal:    13.05 ave 230 max 0 min
Histogram: 36 2 0 0 0 0 0 0 1 1
Nghost:    6.9 ave 88 max 0 min
Histogram: 36 0 0 0 0 1 1 0 0 2
Neighs:    4.05 ave 71 max 0 min
Histogram: 36 2 0 0 0 0 0 0 0 2

Total # of neighbors = 162
Ave neighs/atom = 0.310345
Neighbor list builds = 0
Dangerous builds = 0
write_dump all custom dump.atom_info_ac_* id type x y z radius vx vy vz density #
run 154320
Setting up run at Fri Dec 30 14:49:26 2022

Memory usage per processor = 958.989 Mbytes
    Step    Atoms         KinEng            CPU 
       2      522  2.2321206e-07              0 
  154322      522  2.5096779e-05      1534.8011 
Loop time of 1534.8 on 40 procs for 154320 steps with 522 atoms, finish time Fri Dec 30 15:15:01 2022


Pair  time (%) = 0.33318 (0.0217083)
Neigh time (%) = 0.135425 (0.00882364)
Comm  time (%) = 0.599859 (0.0390838)
Outpt time (%) = 0.00017377 (1.1322e-05)
Other time (%) = 1533.73 (99.9304)

Nlocal:    13.05 ave 225 max 0 min
Histogram: 36 0 2 0 0 0 0 0 0 2
Nghost:    6.975 ave 93 max 0 min
Histogram: 36 0 0 0 1 1 0 0 0 2
Neighs:    4.4 ave 82 max 0 min
Histogram: 36 2 0 0 0 0 0 0 1 1

Total # of neighbors = 176
Ave neighs/atom = 0.337165
Neighbor list builds = 412
Dangerous builds = 0
write_dump all custom dump.atom_info_ac_* id type x y z radius vx vy vz density #
run 154320
Setting up run at Fri Dec 30 15:15:01 2022

Memory usage per processor = 958.989 Mbytes
    Step    Atoms         KinEng            CPU 
  154322      522  2.5096779e-05              0 
  308642      522  0.00014274771      1542.7831 
Loop time of 1542.78 on 40 procs for 154320 steps with 522 atoms, finish time Fri Dec 30 15:40:44 2022


Pair  time (%) = 0.327071 (0.0212001)
Neigh time (%) = 0.135983 (0.00881411)
Comm  time (%) = 0.599959 (0.0388881)
Outpt time (%) = 0.0128398 (0.000832246)
Other time (%) = 1541.71 (99.9303)

Nlocal:    13.05 ave 215 max 0 min
Histogram: 36 0 2 0 0 0 0 0 0 2
Nghost:    7.05 ave 94 max 0 min
Histogram: 36 0 0 0 0 2 0 0 0 2
Neighs:    4.375 ave 75 max 0 min
Histogram: 36 1 1 0 0 0 0 0 0 2

Total # of neighbors = 175
Ave neighs/atom = 0.335249
Neighbor list builds = 412
Dangerous builds = 0
write_dump all custom dump.atom_info_ac_* id type x y z radius vx vy vz density #
run 154320
Setting up run at Fri Dec 30 15:40:44 2022

Memory usage per processor = 958.989 Mbytes
    Step    Atoms         KinEng            CPU 
  308642      522  0.00014274771              0 
  462962      522  0.00014423352      1531.9169 
Loop time of 1531.92 on 40 procs for 154320 steps with 522 atoms, finish time Fri Dec 30 16:06:16 2022


Pair  time (%) = 0.327818 (0.0213992)
Neigh time (%) = 0.1361 (0.00888432)
Comm  time (%) = 0.652328 (0.0425825)
Outpt time (%) = 0.000512708 (3.34684e-05)
Other time (%) = 1530.8 (99.9271)

Nlocal:    13.05 ave 210 max 0 min
Histogram: 36 0 2 0 0 0 0 0 0 2
Nghost:    6.9 ave 92 max 0 min
Histogram: 36 0 0 0 1 1 0 0 0 2
Neighs:    4.275 ave 72 max 0 min
Histogram: 36 0 2 0 0 0 0 0 0 2

Total # of neighbors = 171
Ave neighs/atom = 0.327586
Neighbor list builds = 412
Dangerous builds = 0
write_dump all custom dump.atom_info_ac_* id type x y z radius vx vy vz density #
run 154320
Setting up run at Fri Dec 30 16:06:16 2022

Memory usage per processor = 958.989 Mbytes
    Step    Atoms         KinEng            CPU 
  462962      522  0.00014423352              0 
  617282      522  7.6652719e-05      1537.1724 
Loop time of 1537.17 on 40 procs for 154320 steps with 522 atoms, finish time Fri Dec 30 16:31:53 2022


Pair  time (%) = 0.328795 (0.0213896)
Neigh time (%) = 0.136997 (0.00891224)
Comm  time (%) = 0.61585 (0.0400638)
Outpt time (%) = 0.000559912 (3.64248e-05)
Other time (%) = 1536.09 (99.9296)

Nlocal:    13.05 ave 207 max 0 min
Histogram: 36 0 2 0 0 0 0 0 0 2
Nghost:    6.925 ave 90 max 0 min
Histogram: 36 0 0 0 0 1 1 0 0 2
Neighs:    4.1 ave 74 max 0 min
Histogram: 36 1 1 0 0 0 0 1 0 1

Total # of neighbors = 164
Ave neighs/atom = 0.314176
Neighbor list builds = 412
Dangerous builds = 0
write_dump all custom dump.atom_info_ac_* id type x y z radius vx vy vz density #
run 154320
Setting up run at Fri Dec 30 16:31:54 2022

Memory usage per processor = 958.989 Mbytes
    Step    Atoms         KinEng            CPU 
  617282      522  7.6652719e-05              0 
  771602      522   0.0003105504      1540.5585 
Loop time of 1540.56 on 40 procs for 154320 steps with 522 atoms, finish time Fri Dec 30 16:57:34 2022


Pair  time (%) = 0.329614 (0.0213957)
Neigh time (%) = 0.136367 (0.00885177)
Comm  time (%) = 0.651121 (0.0422653)
Outpt time (%) = 0.000254664 (1.65306e-05)
Other time (%) = 1539.44 (99.9275)

Nlocal:    13.05 ave 208 max 0 min
Histogram: 36 0 2 0 0 0 0 0 0 2
Nghost:    6.9 ave 91 max 0 min
Histogram: 36 0 0 0 0 1 1 0 1 1
Neighs:    4 ave 70 max 0 min
Histogram: 36 1 1 0 0 0 0 0 1 1

Total # of neighbors = 160
Ave neighs/atom = 0.306513
Neighbor list builds = 412
Dangerous builds = 0
write_dump all custom dump.atom_info_ac_* id type x y z radius vx vy vz density #
run 154320
Setting up run at Fri Dec 30 16:57:34 2022

Memory usage per processor = 958.989 Mbytes
    Step    Atoms         KinEng            CPU 
  771602      522   0.0003105504              0 
  925922      522   0.0034797102      1535.5843 
Loop time of 1535.63 on 40 procs for 154320 steps with 522 atoms, finish time Fri Dec 30 17:23:10 2022


Pair  time (%) = 0.330491 (0.0215215)
Neigh time (%) = 0.226468 (0.0147476)
Comm  time (%) = 0.694852 (0.0452486)
Outpt time (%) = 0.000158808 (1.03415e-05)
Other time (%) = 1534.38 (99.9185)

Nlocal:    13.05 ave 206 max 0 min
Histogram: 36 0 2 0 0 0 0 0 0 2
Nghost:    6.775 ave 86 max 0 min
Histogram: 36 0 0 0 0 1 1 0 1 1
Neighs:    3.975 ave 74 max 0 min
Histogram: 36 2 0 0 0 0 0 1 0 1

Total # of neighbors = 159
Ave neighs/atom = 0.304598
Neighbor list builds = 682
Dangerous builds = 0
write_dump all custom dump.atom_info_ac_* id type x y z radius vx vy vz density #
run 154320
Setting up run at Fri Dec 30 17:23:10 2022

Memory usage per processor = 958.989 Mbytes
    Step    Atoms         KinEng            CPU 
  925922      522   0.0034797102              0 
 1080242      522   0.0015912522       1534.263 
Loop time of 1534.26 on 40 procs for 154320 steps with 522 atoms, finish time Fri Dec 30 17:48:44 2022


Pair  time (%) = 0.328175 (0.0213898)
Neigh time (%) = 0.277992 (0.0181189)
Comm  time (%) = 0.893398 (0.0582298)
Outpt time (%) = 0.000504888 (3.29075e-05)
Other time (%) = 1532.76 (99.9022)

Nlocal:    13.05 ave 204 max 0 min
Histogram: 36 0 2 0 0 0 0 0 0 2
Nghost:    6.85 ave 84 max 0 min
Histogram: 36 0 0 0 0 0 2 0 0 2
Neighs:    4.05 ave 72 max 0 min
Histogram: 36 0 2 0 0 0 0 1 0 1

Total # of neighbors = 162
Ave neighs/atom = 0.310345
Neighbor list builds = 834
Dangerous builds = 0
write_dump all custom dump.atom_info_ac_* id type x y z radius vx vy vz density #
run 154320
Setting up run at Fri Dec 30 17:48:44 2022

Memory usage per processor = 958.989 Mbytes
    Step    Atoms         KinEng            CPU 
 1080242      522   0.0015912522              0 
 1234562      522   0.0094542489      1540.3009 
Loop time of 1540.3 on 40 procs for 154320 steps with 522 atoms, finish time Fri Dec 30 18:14:25 2022


Pair  time (%) = 0.33029 (0.0214432)
Neigh time (%) = 0.487507 (0.0316501)
Comm  time (%) = 1.07502 (0.0697928)
Outpt time (%) = 0.000222561 (1.44492e-05)
Other time (%) = 1538.41 (99.8771)

Nlocal:    13.05 ave 203 max 0 min
Histogram: 36 0 2 0 0 0 0 0 0 2
Nghost:    6.575 ave 85 max 0 min
Histogram: 36 0 0 0 0 2 0 0 0 2
Neighs:    4.35 ave 76 max 0 min
Histogram: 36 0 2 0 0 0 0 1 0 1

Total # of neighbors = 174
Ave neighs/atom = 0.333333
Neighbor list builds = 1465
Dangerous builds = 0
write_dump all custom dump.atom_info_ac_* id type x y z radius vx vy vz density #
run 154320
Setting up run at Fri Dec 30 18:14:25 2022

Memory usage per processor = 958.989 Mbytes
    Step    Atoms         KinEng            CPU 
 1234562      522   0.0094542489              0 
 1388882      522    0.017449659      1553.3889 
Loop time of 1553.39 on 40 procs for 154320 steps with 522 atoms, finish time Fri Dec 30 18:40:18 2022


Pair  time (%) = 0.330978 (0.0213068)
Neigh time (%) = 0.849352 (0.0546774)
Comm  time (%) = 1.54981 (0.0997696)
Outpt time (%) = 0.000540928 (3.48224e-05)
Other time (%) = 1550.66 (99.8242)

Nlocal:    13.05 ave 200 max 0 min
Histogram: 36 0 2 0 0 0 0 0 0 2
Nghost:    6.425 ave 84 max 0 min
Histogram: 36 0 0 0 0 2 0 0 1 1
Neighs:    4.275 ave 78 max 0 min
Histogram: 36 0 2 0 0 0 1 0 0 1

Total # of neighbors = 171
Ave neighs/atom = 0.327586
Neighbor list builds = 2555
Dangerous builds = 0
write_dump all custom dump.atom_info_ac_* id type x y z radius vx vy vz density #
run 154320
Setting up run at Fri Dec 30 18:40:18 2022

Memory usage per processor = 958.989 Mbytes
    Step    Atoms         KinEng            CPU 
 1388882      522    0.017449659              0 
 1543202      520   0.0017010988      1544.1743 
Loop time of 1544.17 on 40 procs for 154320 steps with 520 atoms, finish time Fri Dec 30 19:06:02 2022


Pair  time (%) = 0.328611 (0.0212807)
Neigh time (%) = 0.418823 (0.0271228)
Comm  time (%) = 0.996236 (0.0645158)
Outpt time (%) = 0.000248044 (1.60632e-05)
Other time (%) = 1542.43 (99.8871)

Nlocal:    13 ave 196 max 0 min
Histogram: 36 0 1 1 0 0 0 0 0 2
Nghost:    6.3 ave 86 max 0 min
Histogram: 36 0 0 0 0 2 0 0 1 1
Neighs:    4.2 ave 74 max 0 min
Histogram: 36 0 2 0 0 0 0 1 0 1

Total # of neighbors = 168
Ave neighs/atom = 0.323077
Neighbor list builds = 1340
Dangerous builds = 279
write_dump all custom dump.atom_info_ac_* id type x y z radius vx vy vz density #
run 154320
Setting up run at Fri Dec 30 19:06:02 2022

Memory usage per processor = 958.989 Mbytes
    Step    Atoms         KinEng            CPU 
 1543202      520   0.0017010988              0 
 1697522      520    0.015126109      1543.6908 
Loop time of 1543.69 on 40 procs for 154320 steps with 520 atoms, finish time Fri Dec 30 19:31:46 2022


Pair  time (%) = 0.329943 (0.0213736)
Neigh time (%) = 0.474726 (0.0307527)
Comm  time (%) = 1.03407 (0.066987)
Outpt time (%) = 0.000161314 (1.04499e-05)
Other time (%) = 1541.85 (99.8809)

Nlocal:    13 ave 196 max 0 min
Histogram: 36 0 1 1 0 0 0 0 0 2
Nghost:    6.3 ave 85 max 0 min
Histogram: 36 0 0 0 0 2 0 0 1 1
Neighs:    4.175 ave 71 max 0 min
Histogram: 36 0 1 1 0 0 0 1 0 1

Total # of neighbors = 167
Ave neighs/atom = 0.321154
Neighbor list builds = 1424
Dangerous builds = 0
write_dump all custom dump.atom_info_ac_* id type x y z radius vx vy vz density #
run 154320
Setting up run at Fri Dec 30 19:31:46 2022

Memory usage per processor = 958.989 Mbytes
    Step    Atoms         KinEng            CPU 
 1697522      520    0.015126109              0 
 1851842      520   0.0080053225      1548.3285 
Loop time of 1548.33 on 40 procs for 154320 steps with 520 atoms, finish time Fri Dec 30 19:57:34 2022


Pair  time (%) = 0.331412 (0.0214045)
Neigh time (%) = 0.967226 (0.062469)
Comm  time (%) = 1.81772 (0.117399)
Outpt time (%) = 0.000533818 (3.44771e-05)
Other time (%) = 1545.21 (99.7987)

Nlocal:    13 ave 195 max 0 min
Histogram: 36 0 1 1 0 0 0 0 0 2
Nghost:    6.375 ave 87 max 0 min
Histogram: 36 0 0 0 0 2 0 0 1 1
Neighs:    4.05 ave 68 max 0 min
Histogram: 36 0 1 1 0 0 0 1 0 1

Total # of neighbors = 162
Ave neighs/atom = 0.311538
Neighbor list builds = 2900
Dangerous builds = 0
write_dump all custom dump.atom_info_ac_* id type x y z radius vx vy vz density #
run 154320
Setting up run at Fri Dec 30 19:57:35 2022

Memory usage per processor = 958.989 Mbytes
    Step    Atoms         KinEng            CPU 
 1851842      520   0.0080053225              0 
 2006162      518   0.0065020415      1551.3086 
Loop time of 1551.31 on 40 procs for 154320 steps with 518 atoms, finish time Fri Dec 30 20:23:26 2022


Pair  time (%) = 0.329896 (0.0212656)
Neigh time (%) = 0.706562 (0.0455462)
Comm  time (%) = 1.26118 (0.0812977)
Outpt time (%) = 0.000164041 (1.05744e-05)
Other time (%) = 1549.01 (99.8519)

Nlocal:    12.95 ave 197 max 0 min
Histogram: 36 0 1 1 0 0 0 0 0 2
Nghost:    6.3 ave 84 max 0 min
Histogram: 36 0 0 0 0 2 0 0 1 1
Neighs:    4.2 ave 68 max 0 min
Histogram: 36 0 1 0 1 0 0 1 0 1

Total # of neighbors = 168
Ave neighs/atom = 0.324324
Neighbor list builds = 2152
Dangerous builds = 118
write_dump all custom dump.atom_info_ac_* id type x y z radius vx vy vz density #
run 154320
Setting up run at Fri Dec 30 20:23:26 2022

Memory usage per processor = 958.989 Mbytes
    Step    Atoms         KinEng            CPU 
 2006162      518   0.0065020415              0 
 2160482      518    0.025986357      1550.1524 
Loop time of 1550.15 on 40 procs for 154320 steps with 518 atoms, finish time Fri Dec 30 20:49:16 2022


Pair  time (%) = 0.331891 (0.0214102)
Neigh time (%) = 1.04367 (0.0673267)
Comm  time (%) = 2.09311 (0.135026)
Outpt time (%) = 0.000583496 (3.76412e-05)
Other time (%) = 1546.68 (99.7762)

Nlocal:    12.95 ave 194 max 0 min
Histogram: 36 0 1 1 0 0 0 0 0 2
Nghost:    6.6 ave 90 max 0 min
Histogram: 36 0 0 0 0 2 0 0 1 1
Neighs:    4.4 ave 75 max 0 min
Histogram: 36 0 1 1 0 0 0 1 0 1

Total # of neighbors = 176
Ave neighs/atom = 0.339768
Neighbor list builds = 3138
Dangerous builds = 0
write_dump all custom dump.atom_info_ac_* id type x y z radius vx vy vz density #
run 154320
Setting up run at Fri Dec 30 20:49:16 2022

Memory usage per processor = 958.989 Mbytes
    Step    Atoms         KinEng            CPU 
 2160482      518    0.025986357              0 
 2314802      516     0.01096453      1540.7506 
Loop time of 1540.75 on 40 procs for 154320 steps with 516 atoms, finish time Fri Dec 30 21:14:57 2022


Pair  time (%) = 0.329777 (0.0214037)
Neigh time (%) = 0.625172 (0.0405758)
Comm  time (%) = 1.52338 (0.0988728)
Outpt time (%) = 0.000298735 (1.93889e-05)
Other time (%) = 1538.27 (99.8391)

Nlocal:    12.9 ave 195 max 0 min
Histogram: 36 0 2 0 0 0 0 0 0 2
Nghost:    6.6 ave 84 max 0 min
Histogram: 36 0 0 0 1 0 1 0 1 1
Neighs:    4.125 ave 74 max 0 min
Histogram: 36 0 1 1 0 0 1 0 0 1

Total # of neighbors = 165
Ave neighs/atom = 0.319767
Neighbor list builds = 1883
Dangerous builds = 4
write_dump all custom dump.atom_info_ac_* id type x y z radius vx vy vz density #
run 154320
Setting up run at Fri Dec 30 21:14:57 2022

Memory usage per processor = 958.989 Mbytes
    Step    Atoms         KinEng            CPU 
 2314802      516     0.01096453              0 
 2469122      516    0.013559548      1543.4525 
Loop time of 1543.45 on 40 procs for 154320 steps with 516 atoms, finish time Fri Dec 30 21:40:40 2022


Pair  time (%) = 0.330596 (0.0214192)
Neigh time (%) = 0.627678 (0.0406671)
Comm  time (%) = 1.67848 (0.108749)
Outpt time (%) = 0.000485778 (3.14735e-05)
Other time (%) = 1540.82 (99.8291)

Nlocal:    12.9 ave 195 max 0 min
Histogram: 36 0 2 0 0 0 0 0 0 2
Nghost:    6.6 ave 82 max 0 min
Histogram: 36 0 0 0 1 0 0 1 0 2
Neighs:    4.275 ave 73 max 0 min
Histogram: 36 0 1 1 0 0 0 1 0 1

Total # of neighbors = 171
Ave neighs/atom = 0.331395
Neighbor list builds = 1884
Dangerous builds = 0
write_dump all custom dump.atom_info_ac_* id type x y z radius vx vy vz density #
run 154320
Setting up run at Fri Dec 30 21:40:41 2022

Memory usage per processor = 958.989 Mbytes
    Step    Atoms         KinEng            CPU 
 2469122      516    0.013559548              0 
 2623442      515     0.03481194      1550.0276 
Loop time of 1550.03 on 40 procs for 154320 steps with 515 atoms, finish time Fri Dec 30 22:06:31 2022


Pair  time (%) = 0.328119 (0.0211686)
Neigh time (%) = 0.582667 (0.0375907)
Comm  time (%) = 1.56676 (0.10108)
Outpt time (%) = 0.000594437 (3.83501e-05)
Other time (%) = 1547.55 (99.8401)

Nlocal:    12.875 ave 194 max 0 min
Histogram: 36 0 2 0 0 0 0 0 0 2
Nghost:    6.825 ave 82 max 0 min
Histogram: 36 0 0 0 0 1 0 1 0 2
Neighs:    4.275 ave 71 max 0 min
Histogram: 36 0 1 1 0 0 0 1 0 1

Total # of neighbors = 171
Ave neighs/atom = 0.332039
Neighbor list builds = 1781
Dangerous builds = 86
write_dump all custom dump.atom_info_ac_* id type x y z radius vx vy vz density #
run 154320
Setting up run at Fri Dec 30 22:06:31 2022

Memory usage per processor = 958.989 Mbytes
    Step    Atoms         KinEng            CPU 
 2623442      515     0.03481194              0 
 2777762      515    0.011942493      1542.3749 
Loop time of 1542.38 on 40 procs for 154320 steps with 515 atoms, finish time Fri Dec 30 22:32:13 2022


Pair  time (%) = 0.329199 (0.0213436)
Neigh time (%) = 0.575993 (0.0373446)
Comm  time (%) = 1.2125 (0.0786123)
Outpt time (%) = 0.000349627 (2.26681e-05)
Other time (%) = 1540.26 (99.8627)

Nlocal:    12.875 ave 195 max 0 min
Histogram: 36 0 2 0 0 0 0 0 1 1
Nghost:    6.575 ave 82 max 0 min
Histogram: 36 0 0 0 0 1 0 1 0 2
Neighs:    4.25 ave 70 max 0 min
Histogram: 36 0 1 1 0 0 0 0 1 1

Total # of neighbors = 170
Ave neighs/atom = 0.330097
Neighbor list builds = 1726
Dangerous builds = 0
write_dump all custom dump.atom_info_ac_* id type x y z radius vx vy vz density #
run 154320
Setting up run at Fri Dec 30 22:32:13 2022

Memory usage per processor = 958.989 Mbytes
    Step    Atoms         KinEng            CPU 
 2777762      515    0.011942493              0 
 2932082      515    0.038002852       1553.144 
Loop time of 1553.14 on 40 procs for 154320 steps with 515 atoms, finish time Fri Dec 30 22:58:06 2022


Pair  time (%) = 0.326969 (0.0210521)
Neigh time (%) = 0.814218 (0.0524239)
Comm  time (%) = 1.50159 (0.0966809)
Outpt time (%) = 0.000529302 (3.40794e-05)
Other time (%) = 1550.5 (99.8298)

Nlocal:    12.875 ave 194 max 0 min
Histogram: 36 0 2 0 0 0 0 0 1 1
Nghost:    6.75 ave 83 max 0 min
Histogram: 36 0 0 0 1 0 0 1 0 2
Neighs:    3.85 ave 68 max 0 min
Histogram: 36 1 0 1 0 0 0 1 0 1

Total # of neighbors = 154
Ave neighs/atom = 0.299029
Neighbor list builds = 2445
Dangerous builds = 0
write_dump all custom dump.atom_info_ac_* id type x y z radius vx vy vz density #
run 154320
Setting up run at Fri Dec 30 22:58:06 2022

Memory usage per processor = 958.989 Mbytes
    Step    Atoms         KinEng            CPU 
 2932082      515    0.038002852              0 
 3086402      514     0.07980353      1543.7458 
Loop time of 1543.75 on 40 procs for 154320 steps with 514 atoms, finish time Fri Dec 30 23:23:50 2022


Pair  time (%) = 0.329346 (0.0213342)
Neigh time (%) = 1.0752 (0.0696485)
Comm  time (%) = 2.15284 (0.139455)
Outpt time (%) = 0.000239687 (1.55264e-05)
Other time (%) = 1540.19 (99.7695)

Nlocal:    12.85 ave 192 max 0 min
Histogram: 36 0 2 0 0 0 0 0 0 2
Nghost:    6.7 ave 79 max 0 min
Histogram: 36 0 0 0 1 0 0 0 1 2
Neighs:    4.35 ave 83 max 0 min
Histogram: 36 1 1 0 0 0 1 0 0 1

Total # of neighbors = 174
Ave neighs/atom = 0.338521
Neighbor list builds = 3288
Dangerous builds = 202
write_dump all custom dump.atom_info_ac_* id type x y z radius vx vy vz density #
run 154320
Setting up run at Fri Dec 30 23:23:50 2022

Memory usage per processor = 958.989 Mbytes
    Step    Atoms         KinEng            CPU 
 3086402      514     0.07980353              0 
 3240722      514    0.068873193      1553.6067 
Loop time of 1553.61 on 40 procs for 154320 steps with 514 atoms, finish time Fri Dec 30 23:49:44 2022


Pair  time (%) = 0.329703 (0.0212217)
Neigh time (%) = 0.83454 (0.0537163)
Comm  time (%) = 2.42116 (0.155841)
Outpt time (%) = 0.000205561 (1.32312e-05)
Other time (%) = 1550.02 (99.7692)

Nlocal:    12.85 ave 190 max 0 min
Histogram: 36 0 2 0 0 0 0 0 0 2
Nghost:    6.525 ave 78 max 0 min
Histogram: 36 0 0 0 0 1 0 0 1 2
Neighs:    4.275 ave 85 max 0 min
Histogram: 36 1 1 0 0 0 1 0 0 1

Total # of neighbors = 171
Ave neighs/atom = 0.332685
Neighbor list builds = 2502
Dangerous builds = 0
write_dump all custom dump.atom_info_ac_* id type x y z radius vx vy vz density #
run 154320
Setting up run at Fri Dec 30 23:49:44 2022

Memory usage per processor = 958.989 Mbytes
    Step    Atoms         KinEng            CPU 
 3240722      514    0.068873193              0 
 3395042      514    0.061173343      1548.9279 
Loop time of 1548.93 on 40 procs for 154320 steps with 514 atoms, finish time Sat Dec 31 00:15:33 2022


Pair  time (%) = 0.332455 (0.0214635)
Neigh time (%) = 0.922743 (0.059573)
Comm  time (%) = 2.3421 (0.151207)
Outpt time (%) = 0.000563754 (3.63964e-05)
Other time (%) = 1545.33 (99.7677)

Nlocal:    12.85 ave 191 max 0 min
Histogram: 36 0 2 0 0 0 0 0 0 2
Nghost:    6.5 ave 79 max 0 min
Histogram: 36 0 0 0 1 0 0 0 1 2
Neighs:    4.375 ave 87 max 0 min
Histogram: 36 1 1 0 0 0 1 0 0 1

Total # of neighbors = 175
Ave neighs/atom = 0.340467
Neighbor list builds = 2770
Dangerous builds = 0
write_dump all custom dump.atom_info_ac_* id type x y z radius vx vy vz density #
run 154320
Setting up run at Sat Dec 31 00:15:33 2022

Memory usage per processor = 958.989 Mbytes
    Step    Atoms         KinEng            CPU 
 3395042      514    0.061173343              0 
 3549362      512    0.069207663      1562.8461 
Loop time of 1562.85 on 40 procs for 154320 steps with 512 atoms, finish time Sat Dec 31 00:41:36 2022


Pair  time (%) = 0.333954 (0.0213683)
Neigh time (%) = 1.23932 (0.0792991)
Comm  time (%) = 2.50343 (0.160184)
Outpt time (%) = 0.000196567 (1.25775e-05)
Other time (%) = 1558.77 (99.7391)

Nlocal:    12.8 ave 190 max 0 min
Histogram: 36 0 2 0 0 0 0 0 0 2
Nghost:    6.375 ave 77 max 0 min
Histogram: 36 0 0 0 1 0 0 0 1 2
Neighs:    4.375 ave 84 max 0 min
Histogram: 36 1 0 1 0 0 1 0 0 1

Total # of neighbors = 175
Ave neighs/atom = 0.341797
Neighbor list builds = 3815
Dangerous builds = 298
write_dump all custom dump.atom_info_ac_* id type x y z radius vx vy vz density #
run 154320
Setting up run at Sat Dec 31 00:41:36 2022

Memory usage per processor = 958.989 Mbytes
    Step    Atoms         KinEng            CPU 
 3549362      512    0.069207663              0 
 3703682      512    0.061468484      1570.4212 
Loop time of 1570.42 on 40 procs for 154320 steps with 512 atoms, finish time Sat Dec 31 01:07:46 2022


Pair  time (%) = 0.334529 (0.0213019)
Neigh time (%) = 1.72634 (0.109928)
Comm  time (%) = 3.61377 (0.230115)
Outpt time (%) = 0.00146346 (9.3189e-05)
Other time (%) = 1564.75 (99.6386)

Nlocal:    12.8 ave 189 max 0 min
Histogram: 36 0 1 1 0 0 0 0 0 2
Nghost:    6.225 ave 74 max 0 min
Histogram: 36 0 0 0 0 1 0 1 0 2
Neighs:    4.2 ave 74 max 0 min
Histogram: 36 1 0 1 0 0 0 1 0 1

Total # of neighbors = 168
Ave neighs/atom = 0.328125
Neighbor list builds = 5188
Dangerous builds = 0
write_dump all custom dump.atom_info_ac_* id type x y z radius vx vy vz density #
run 154320
Setting up run at Sat Dec 31 01:07:46 2022

Memory usage per processor = 958.989 Mbytes
    Step    Atoms         KinEng            CPU 
 3703682      512    0.061468484              0 
 3858002      511    0.036025684      1545.7412 
Loop time of 1545.74 on 40 procs for 154320 steps with 511 atoms, finish time Sat Dec 31 01:33:32 2022


Pair  time (%) = 0.32845 (0.0212487)
Neigh time (%) = 0.753302 (0.048734)
Comm  time (%) = 2.08339 (0.134783)
Outpt time (%) = 0.000169865 (1.09893e-05)
Other time (%) = 1542.58 (99.7952)

Nlocal:    12.775 ave 185 max 0 min
Histogram: 36 0 1 1 0 0 0 0 0 2
Nghost:    6.3 ave 78 max 0 min
Histogram: 36 0 0 0 1 0 0 1 0 2
Neighs:    4.25 ave 82 max 0 min
Histogram: 36 1 1 0 0 0 1 0 0 1

Total # of neighbors = 170
Ave neighs/atom = 0.332681
Neighbor list builds = 2261
Dangerous builds = 0
write_dump all custom dump.atom_info_ac_* id type x y z radius vx vy vz density #
run 154320
Setting up run at Sat Dec 31 01:33:32 2022

Memory usage per processor = 958.989 Mbytes
    Step    Atoms         KinEng            CPU 
 3858002      511    0.036025684              0 
 4012322      508     0.07231645      1552.1758 
Loop time of 1552.18 on 40 procs for 154320 steps with 508 atoms, finish time Sat Dec 31 01:59:24 2022


Pair  time (%) = 0.333099 (0.0214601)
Neigh time (%) = 1.12593 (0.072539)
Comm  time (%) = 3.02525 (0.194904)
Outpt time (%) = 0.000167317 (1.07795e-05)
Other time (%) = 1547.69 (99.7111)

Nlocal:    12.7 ave 184 max 0 min
Histogram: 36 0 2 0 0 0 0 0 0 2
Nghost:    6.45 ave 77 max 0 min
Histogram: 36 0 0 0 0 1 0 0 1 2
Neighs:    4.625 ave 88 max 0 min
Histogram: 36 1 1 0 0 0 1 0 0 1

Total # of neighbors = 185
Ave neighs/atom = 0.364173
Neighbor list builds = 3553
Dangerous builds = 425
write_dump all custom dump.atom_info_ac_* id type x y z radius vx vy vz density #
run 154320
Setting up run at Sat Dec 31 01:59:24 2022

Memory usage per processor = 958.989 Mbytes
    Step    Atoms         KinEng            CPU 
 4012322      508     0.07231645              0 
 4166642      508    0.047690527      1560.4603 
Loop time of 1560.46 on 40 procs for 154320 steps with 508 atoms, finish time Sat Dec 31 02:25:25 2022


Pair  time (%) = 0.33209 (0.0212815)
Neigh time (%) = 1.31318 (0.0841533)
Comm  time (%) = 3.56596 (0.22852)
Outpt time (%) = 0.000563585 (3.61166e-05)
Other time (%) = 1555.25 (99.666)

Nlocal:    12.7 ave 183 max 0 min
Histogram: 36 0 2 0 0 0 0 0 0 2
Nghost:    6.375 ave 74 max 0 min
Histogram: 36 0 0 0 0 1 0 0 1 2
Neighs:    4.425 ave 78 max 0 min
Histogram: 36 1 1 0 0 0 0 0 1 1

Total # of neighbors = 177
Ave neighs/atom = 0.348425
Neighbor list builds = 3934
Dangerous builds = 0
write_dump all custom dump.atom_info_ac_* id type x y z radius vx vy vz density #
run 154320
Setting up run at Sat Dec 31 02:25:25 2022

Memory usage per processor = 958.989 Mbytes
    Step    Atoms         KinEng            CPU 
 4166642      508    0.047690527              0 
 4320962      508     0.62455621        1553.92 
Loop time of 1553.92 on 40 procs for 154320 steps with 508 atoms, finish time Sat Dec 31 02:51:19 2022


Pair  time (%) = 0.335971 (0.0216209)
Neigh time (%) = 1.22406 (0.0787727)
Comm  time (%) = 3.19501 (0.20561)
Outpt time (%) = 0.000214994 (1.38356e-05)
Other time (%) = 1549.17 (99.694)

Nlocal:    12.7 ave 182 max 0 min
Histogram: 36 0 2 0 0 0 0 0 0 2
Nghost:    6.425 ave 74 max 0 min
Histogram: 36 0 0 0 0 1 0 1 0 2
Neighs:    4.425 ave 77 max 0 min
Histogram: 36 1 1 0 0 0 0 0 1 1

Total # of neighbors = 177
Ave neighs/atom = 0.348425
Neighbor list builds = 3689
Dangerous builds = 0
write_dump all custom dump.atom_info_ac_* id type x y z radius vx vy vz density #
run 154320
Setting up run at Sat Dec 31 02:51:19 2022

Memory usage per processor = 958.989 Mbytes
    Step    Atoms         KinEng            CPU 
 4320962      508     0.62455621              0 
 4475282      508     0.58127305      1584.1902 
Loop time of 1584.19 on 40 procs for 154320 steps with 508 atoms, finish time Sat Dec 31 03:17:43 2022


Pair  time (%) = 0.343206 (0.0216644)
Neigh time (%) = 2.47026 (0.155932)
Comm  time (%) = 4.97075 (0.313772)
Outpt time (%) = 0.000515351 (3.25309e-05)
Other time (%) = 1576.41 (99.5086)

Nlocal:    12.7 ave 178 max 0 min
Histogram: 35 1 1 1 0 0 0 0 0 2
Nghost:    6.375 ave 75 max 0 min
Histogram: 36 0 0 0 0 1 0 1 0 2
Neighs:    4.35 ave 75 max 0 min
Histogram: 36 1 1 0 0 0 0 0 1 1

Total # of neighbors = 174
Ave neighs/atom = 0.34252
Neighbor list builds = 7427
Dangerous builds = 0
write_dump all custom dump.atom_info_ac_* id type x y z radius vx vy vz density #
run 154320
Setting up run at Sat Dec 31 03:17:43 2022

Memory usage per processor = 958.989 Mbytes
    Step    Atoms         KinEng            CPU 
 4475282      508     0.58127305              0 
 4629602      506     0.36531524       1581.865 
Loop time of 1581.88 on 40 procs for 154320 steps with 506 atoms, finish time Sat Dec 31 03:44:05 2022


Pair  time (%) = 0.344392 (0.0217712)
Neigh time (%) = 2.72338 (0.172161)
Comm  time (%) = 5.80207 (0.366784)
Outpt time (%) = 0.000187263 (1.18381e-05)
Other time (%) = 1573.01 (99.4393)

Nlocal:    12.65 ave 175 max 0 min
Histogram: 36 0 1 1 0 0 0 0 0 2
Nghost:    6.1 ave 73 max 0 min
Histogram: 36 0 0 0 0 0 1 1 0 2
Neighs:    4.3 ave 75 max 0 min
Histogram: 36 1 1 0 0 0 0 0 1 1

Total # of neighbors = 172
Ave neighs/atom = 0.339921
Neighbor list builds = 8168
Dangerous builds = 2
write_dump all custom dump.atom_info_ac_* id type x y z radius vx vy vz density #
run 154320
Setting up run at Sat Dec 31 03:44:05 2022

Memory usage per processor = 958.989 Mbytes
    Step    Atoms         KinEng            CPU 
 4629602      506     0.36531524              0 
 4783922      504      0.1538909      1597.4526 
Loop time of 1597.45 on 40 procs for 154320 steps with 504 atoms, finish time Sat Dec 31 04:10:43 2022


Pair  time (%) = 0.346396 (0.0216842)
Neigh time (%) = 3.23506 (0.202514)
Comm  time (%) = 8.20931 (0.5139)
Outpt time (%) = 0.000488054 (3.0552e-05)
Other time (%) = 1585.66 (99.2619)

Nlocal:    12.6 ave 175 max 0 min
Histogram: 35 1 2 0 0 0 0 0 0 2
Nghost:    6.1 ave 70 max 0 min
Histogram: 36 0 0 0 0 0 1 1 0 2
Neighs:    4.25 ave 74 max 0 min
Histogram: 36 1 1 0 0 0 0 0 1 1

Total # of neighbors = 170
Ave neighs/atom = 0.337302
Neighbor list builds = 10021
Dangerous builds = 467
write_dump all custom dump.atom_info_ac_* id type x y z radius vx vy vz density #
run 154320
Setting up run at Sat Dec 31 04:10:43 2022

Memory usage per processor = 958.989 Mbytes
    Step    Atoms         KinEng            CPU 
 4783922      504      0.1538909              0 
 4938242      504     0.25710386      1591.2396 
Loop time of 1591.24 on 40 procs for 154320 steps with 504 atoms, finish time Sat Dec 31 04:37:14 2022


Pair  time (%) = 0.342099 (0.0214989)
Neigh time (%) = 2.98049 (0.187306)
Comm  time (%) = 6.71415 (0.421945)
Outpt time (%) = 0.000188028 (1.18165e-05)
Other time (%) = 1581.2 (99.3692)

Nlocal:    12.6 ave 174 max 0 min
Histogram: 35 1 2 0 0 0 0 0 0 2
Nghost:    6.025 ave 66 max 0 min
Histogram: 36 0 0 0 0 0 0 1 1 2
Neighs:    4 ave 73 max 0 min
Histogram: 36 2 0 0 0 0 0 0 1 1

Total # of neighbors = 160
Ave neighs/atom = 0.31746
Neighbor list builds = 8951
Dangerous builds = 0
write_dump all custom dump.atom_info_ac_* id type x y z radius vx vy vz density #
run 154320
Setting up run at Sat Dec 31 04:37:14 2022

Memory usage per processor = 958.989 Mbytes
    Step    Atoms         KinEng            CPU 
 4938242      504     0.25710386              0 
 5092562      503     0.22370549      1554.0854 
Loop time of 1554.09 on 40 procs for 154320 steps with 503 atoms, finish time Sat Dec 31 05:03:08 2022


Pair  time (%) = 0.333023 (0.0214289)
Neigh time (%) = 1.22376 (0.0787445)
Comm  time (%) = 3.33889 (0.214846)
Outpt time (%) = 0.000235831 (1.51749e-05)
Other time (%) = 1549.19 (99.685)

Nlocal:    12.575 ave 173 max 0 min
Histogram: 36 0 2 0 0 0 0 0 0 2
Nghost:    5.825 ave 68 max 0 min
Histogram: 36 0 0 0 0 0 1 1 1 1
Neighs:    4.15 ave 73 max 0 min
Histogram: 36 1 1 0 0 0 0 0 0 2

Total # of neighbors = 166
Ave neighs/atom = 0.33002
Neighbor list builds = 3755
Dangerous builds = 317
write_dump all custom dump.atom_info_ac_* id type x y z radius vx vy vz density #
run 154320
Setting up run at Sat Dec 31 05:03:08 2022

Memory usage per processor = 958.989 Mbytes
    Step    Atoms         KinEng            CPU 
 5092562      503     0.22370549              0 
 5246882      501     0.18983652      1555.8738 
Loop time of 1555.87 on 40 procs for 154320 steps with 501 atoms, finish time Sat Dec 31 05:29:04 2022


Pair  time (%) = 0.333585 (0.0214404)
Neigh time (%) = 1.36092 (0.0874696)
Comm  time (%) = 3.63045 (0.233338)
Outpt time (%) = 0.000552651 (3.55203e-05)
Other time (%) = 1550.55 (99.6577)

Nlocal:    12.525 ave 174 max 0 min
Histogram: 35 1 2 0 0 0 0 0 0 2
Nghost:    5.775 ave 70 max 0 min
Histogram: 36 0 0 0 0 0 0 3 0 1
Neighs:    4.15 ave 70 max 0 min
Histogram: 36 1 1 0 0 0 0 0 0 2

Total # of neighbors = 166
Ave neighs/atom = 0.331337
Neighbor list builds = 4098
Dangerous builds = 118
write_dump all custom dump.atom_info_ac_* id type x y z radius vx vy vz density #
run 154320
Setting up run at Sat Dec 31 05:29:04 2022

Memory usage per processor = 958.989 Mbytes
    Step    Atoms         KinEng            CPU 
 5246882      501     0.18983652              0 
 5401202      501      0.2197033      1560.0475 
Loop time of 1560.05 on 40 procs for 154320 steps with 501 atoms, finish time Sat Dec 31 05:55:04 2022


Pair  time (%) = 0.333407 (0.0213716)
Neigh time (%) = 1.44989 (0.0929386)
Comm  time (%) = 3.06972 (0.196771)
Outpt time (%) = 0.0128701 (0.000824978)
Other time (%) = 1555.18 (99.6881)

Nlocal:    12.525 ave 172 max 0 min
Histogram: 35 1 1 1 0 0 0 0 0 2
Nghost:    5.5 ave 63 max 0 min
Histogram: 36 0 0 0 0 0 0 1 2 1
Neighs:    4.225 ave 70 max 0 min
Histogram: 36 1 1 0 0 0 0 0 0 2

Total # of neighbors = 169
Ave neighs/atom = 0.337325
Neighbor list builds = 4326
Dangerous builds = 0
write_dump all custom dump.atom_info_ac_* id type x y z radius vx vy vz density #
run 154320
Setting up run at Sat Dec 31 05:55:04 2022

Memory usage per processor = 958.989 Mbytes
    Step    Atoms         KinEng            CPU 
 5401202      501      0.2197033              0 
 5555522      501     0.24717047      1561.2728 
Loop time of 1561.27 on 40 procs for 154320 steps with 501 atoms, finish time Sat Dec 31 06:21:06 2022


Pair  time (%) = 0.334916 (0.0214515)
Neigh time (%) = 1.62365 (0.103995)
Comm  time (%) = 3.91884 (0.251003)
Outpt time (%) = 0.000552759 (3.54044e-05)
Other time (%) = 1555.4 (99.6235)

Nlocal:    12.525 ave 171 max 0 min
Histogram: 35 1 2 0 0 0 0 0 0 2
Nghost:    5.5 ave 60 max 0 min
Histogram: 36 0 0 0 0 0 0 1 1 2
Neighs:    3.875 ave 68 max 0 min
Histogram: 37 0 1 0 0 0 0 0 0 2

Total # of neighbors = 155
Ave neighs/atom = 0.309381
Neighbor list builds = 4847
Dangerous builds = 0
write_dump all custom dump.atom_info_ac_* id type x y z radius vx vy vz density #
run 154320
Setting up run at Sat Dec 31 06:21:06 2022

Memory usage per processor = 958.989 Mbytes
    Step    Atoms         KinEng            CPU 
 5555522      501     0.24717047              0 
 5709842      500     0.16898832      1583.2881 
Loop time of 1583.29 on 40 procs for 154320 steps with 500 atoms, finish time Sat Dec 31 06:47:29 2022


Pair  time (%) = 0.341215 (0.0215511)
Neigh time (%) = 2.78692 (0.176021)
Comm  time (%) = 6.50216 (0.410675)
Outpt time (%) = 0.000194423 (1.22797e-05)
Other time (%) = 1573.66 (99.3917)

Nlocal:    12.5 ave 173 max 0 min
Histogram: 35 1 1 1 0 0 0 0 0 2
Nghost:    5.325 ave 64 max 0 min
Histogram: 36 0 0 0 0 0 1 0 2 1
Neighs:    3.675 ave 71 max 0 min
Histogram: 37 0 1 0 0 0 0 1 0 1

Total # of neighbors = 147
Ave neighs/atom = 0.294
Neighbor list builds = 8718
Dangerous builds = 341
write_dump all custom dump.atom_info_ac_* id type x y z radius vx vy vz density #
run 154320
Setting up run at Sat Dec 31 06:47:29 2022

Memory usage per processor = 958.989 Mbytes
    Step    Atoms         KinEng            CPU 
 5709842      500     0.16898832              0 
 5864162      499     0.15769047      1576.8242 
Loop time of 1576.82 on 40 procs for 154320 steps with 499 atoms, finish time Sat Dec 31 07:13:46 2022


Pair  time (%) = 0.336687 (0.0213522)
Neigh time (%) = 2.17603 (0.138001)
Comm  time (%) = 4.25055 (0.269564)
Outpt time (%) = 0.000263085 (1.66845e-05)
Other time (%) = 1570.06 (99.5711)

Nlocal:    12.475 ave 173 max 0 min
Histogram: 34 2 2 0 0 0 0 0 0 2
Nghost:    5.425 ave 65 max 0 min
Histogram: 36 0 0 0 0 1 0 1 1 1
Neighs:    3.725 ave 76 max 0 min
Histogram: 37 0 1 0 0 0 1 0 0 1

Total # of neighbors = 149
Ave neighs/atom = 0.298597
Neighbor list builds = 6517
Dangerous builds = 0
write_dump all custom dump.atom_info_ac_* id type x y z radius vx vy vz density #
run 154320
Setting up run at Sat Dec 31 07:13:46 2022

Memory usage per processor = 958.989 Mbytes
    Step    Atoms         KinEng            CPU 
 5864162      499     0.15769047              0 
 6018482      499     0.12661317       1554.544 
Loop time of 1554.54 on 40 procs for 154320 steps with 499 atoms, finish time Sat Dec 31 07:39:40 2022


Pair  time (%) = 0.32589 (0.0209637)
Neigh time (%) = 0.979165 (0.0629873)
Comm  time (%) = 2.35657 (0.151593)
Outpt time (%) = 0.000546616 (3.51624e-05)
Other time (%) = 1550.88 (99.7644)

Nlocal:    12.475 ave 172 max 0 min
Histogram: 34 2 1 1 0 0 0 0 0 2
Nghost:    5.5 ave 68 max 0 min
Histogram: 36 0 0 0 0 1 0 2 0 1
Neighs:    3.55 ave 72 max 0 min
Histogram: 37 0 1 0 0 0 1 0 0 1

Total # of neighbors = 142
Ave neighs/atom = 0.284569
Neighbor list builds = 2907
Dangerous builds = 0
write_dump all custom dump.atom_info_ac_* id type x y z radius vx vy vz density #
run 154320
Setting up run at Sat Dec 31 07:39:40 2022

Memory usage per processor = 958.989 Mbytes
    Step    Atoms         KinEng            CPU 
 6018482      499     0.12661317              0 
 6172802      499     0.15977112      1669.6947 
Loop time of 1669.69 on 40 procs for 154320 steps with 499 atoms, finish time Sat Dec 31 08:07:30 2022


Pair  time (%) = 0.362079 (0.0216853)
Neigh time (%) = 7.12574 (0.426769)
Comm  time (%) = 15.06 (0.901961)
Outpt time (%) = 0.000280298 (1.67874e-05)
Other time (%) = 1647.15 (98.6496)

Nlocal:    12.475 ave 170 max 0 min
Histogram: 33 3 2 0 0 0 0 0 0 2
Nghost:    5.25 ave 66 max 0 min
Histogram: 36 0 0 0 0 1 0 1 1 1
Neighs:    3.525 ave 69 max 0 min
Histogram: 37 0 1 0 0 0 1 0 0 1

Total # of neighbors = 141
Ave neighs/atom = 0.282565
Neighbor list builds = 21789
Dangerous builds = 0
write_dump all custom dump.atom_info_ac_* id type x y z radius vx vy vz density #
run 154320
Setting up run at Sat Dec 31 08:07:30 2022

Memory usage per processor = 958.989 Mbytes
    Step    Atoms         KinEng            CPU 
 6172802      499     0.15977112              0 
 6327122      497     0.17337576      1579.0178 
Loop time of 1579.02 on 40 procs for 154320 steps with 497 atoms, finish time Sat Dec 31 08:33:49 2022


Pair  time (%) = 0.333123 (0.0210968)
Neigh time (%) = 2.66978 (0.169078)
Comm  time (%) = 5.407 (0.342428)
Outpt time (%) = 0.000606203 (3.83911e-05)
Other time (%) = 1570.61 (99.4674)

Nlocal:    12.425 ave 172 max 0 min
Histogram: 34 2 1 1 0 0 0 0 0 2
Nghost:    5.35 ave 69 max 0 min
Histogram: 36 0 0 0 0 1 0 2 0 1
Neighs:    3.6 ave 73 max 0 min
Histogram: 37 1 0 0 0 0 0 1 0 1

Total # of neighbors = 144
Ave neighs/atom = 0.289738
Neighbor list builds = 7995
Dangerous builds = 189
write_dump all custom dump.atom_info_ac_* id type x y z radius vx vy vz density #
run 154320
Setting up run at Sat Dec 31 08:33:49 2022

Memory usage per processor = 958.989 Mbytes
    Step    Atoms         KinEng            CPU 
 6327122      497     0.17337576              0 
 6481442      497     0.14497822      1557.7038 
Loop time of 1557.7 on 40 procs for 154320 steps with 497 atoms, finish time Sat Dec 31 08:59:47 2022


Pair  time (%) = 0.323334 (0.0207571)
Neigh time (%) = 1.09597 (0.0703583)
Comm  time (%) = 3.02596 (0.194258)
Outpt time (%) = 0.000254193 (1.63185e-05)
Other time (%) = 1553.26 (99.7146)

Nlocal:    12.425 ave 169 max 0 min
Histogram: 34 2 1 1 0 0 0 0 0 2
Nghost:    5.45 ave 68 max 0 min
Histogram: 36 0 0 0 0 1 0 2 0 1
Neighs:    3.55 ave 66 max 0 min
Histogram: 36 2 0 0 0 0 0 0 1 1

Total # of neighbors = 142
Ave neighs/atom = 0.285714
Neighbor list builds = 3267
Dangerous builds = 0
write_dump all custom dump.atom_info_ac_* id type x y z radius vx vy vz density #
run 154320
Setting up run at Sat Dec 31 08:59:47 2022

Memory usage per processor = 958.989 Mbytes
    Step    Atoms         KinEng            CPU 
 6481442      497     0.14497822              0 
 6635762      495     0.12553559      1557.2593 
Loop time of 1557.26 on 40 procs for 154320 steps with 495 atoms, finish time Sat Dec 31 09:25:44 2022


Pair  time (%) = 0.325429 (0.0208975)
Neigh time (%) = 1.38089 (0.0886741)
Comm  time (%) = 4.26614 (0.273952)
Outpt time (%) = 0.00029525 (1.89596e-05)
Other time (%) = 1551.29 (99.6165)

Nlocal:    12.375 ave 170 max 0 min
Histogram: 34 2 2 0 0 0 0 0 0 2
Nghost:    5.425 ave 66 max 0 min
Histogram: 36 0 0 0 0 1 0 1 1 1
Neighs:    3.55 ave 67 max 0 min
Histogram: 37 1 0 0 0 0 0 0 1 1

Total # of neighbors = 142
Ave neighs/atom = 0.286869
Neighbor list builds = 4170
Dangerous builds = 106
write_dump all custom dump.atom_info_ac_* id type x y z radius vx vy vz density #
run 154320
Setting up run at Sat Dec 31 09:25:44 2022

Memory usage per processor = 958.989 Mbytes
    Step    Atoms         KinEng            CPU 
 6635762      495     0.12553559              0 
 6790082      495     0.10819708      1554.7285 
Loop time of 1554.73 on 40 procs for 154320 steps with 495 atoms, finish time Sat Dec 31 09:51:39 2022


Pair  time (%) = 0.324248 (0.0208556)
Neigh time (%) = 0.933301 (0.0600298)
Comm  time (%) = 2.51232 (0.161592)
Outpt time (%) = 0.000568051 (3.6537e-05)
Other time (%) = 1550.96 (99.7575)

Nlocal:    12.375 ave 167 max 0 min
Histogram: 33 3 1 1 0 0 0 0 0 2
Nghost:    5.375 ave 67 max 0 min
Histogram: 36 0 0 0 0 1 1 0 1 1
Neighs:    3.45 ave 67 max 0 min
Histogram: 37 1 0 0 0 0 0 0 1 1

Total # of neighbors = 138
Ave neighs/atom = 0.278788
Neighbor list builds = 2785
Dangerous builds = 0
write_dump all custom dump.atom_info_ac_* id type x y z radius vx vy vz density #
run 154320
Setting up run at Sat Dec 31 09:51:39 2022

Memory usage per processor = 958.989 Mbytes
    Step    Atoms         KinEng            CPU 
 6790082      495     0.10819708              0 
 6944402      493     0.10809064      1572.2848 
Loop time of 1572.28 on 40 procs for 154320 steps with 493 atoms, finish time Sat Dec 31 10:17:52 2022


Pair  time (%) = 0.325248 (0.0206863)
Neigh time (%) = 2.02064 (0.128516)
Comm  time (%) = 5.78832 (0.368147)
Outpt time (%) = 0.000208212 (1.32426e-05)
Other time (%) = 1564.15 (99.4826)

Nlocal:    12.325 ave 167 max 0 min
Histogram: 34 2 1 1 0 0 0 0 0 2
Nghost:    5.725 ave 64 max 0 min
Histogram: 36 0 0 0 0 0 1 1 0 2
Neighs:    3.65 ave 66 max 0 min
Histogram: 36 1 1 0 0 0 0 0 1 1

Total # of neighbors = 146
Ave neighs/atom = 0.296146
Neighbor list builds = 6209
Dangerous builds = 371
write_dump all custom dump.atom_info_ac_* id type x y z radius vx vy vz density #
run 154320
Setting up run at Sat Dec 31 10:17:52 2022

Memory usage per processor = 958.989 Mbytes
    Step    Atoms         KinEng            CPU 
 6944402      493     0.10809064              0 
 7098722      492     0.11444587      1551.8234 
Loop time of 1551.82 on 40 procs for 154320 steps with 492 atoms, finish time Sat Dec 31 10:43:43 2022


Pair  time (%) = 0.323938 (0.0208747)
Neigh time (%) = 1.291 (0.0831924)
Comm  time (%) = 3.85444 (0.248381)
Outpt time (%) = 0.000555556 (3.58002e-05)
Other time (%) = 1546.35 (99.6475)

Nlocal:    12.3 ave 161 max 0 min
Histogram: 34 2 1 1 0 0 0 0 0 2
Nghost:    5.35 ave 63 max 0 min
Histogram: 36 0 0 0 0 1 0 1 0 2
Neighs:    3.55 ave 61 max 0 min
Histogram: 36 1 1 0 0 0 0 0 0 2

Total # of neighbors = 142
Ave neighs/atom = 0.288618
Neighbor list builds = 3860
Dangerous builds = 0
write_dump all custom dump.atom_info_ac_* id type x y z radius vx vy vz density #
run 154320
Setting up run at Sat Dec 31 10:43:44 2022

Memory usage per processor = 958.989 Mbytes
    Step    Atoms         KinEng            CPU 
 7098722      492     0.11444587              0 
 7253042      492     0.12306279      1552.3165 
Loop time of 1552.32 on 40 procs for 154320 steps with 492 atoms, finish time Sat Dec 31 11:09:36 2022


Pair  time (%) = 0.322701 (0.0207883)
Neigh time (%) = 0.903392 (0.0581964)
Comm  time (%) = 2.38303 (0.153514)
Outpt time (%) = 0.000239679 (1.54401e-05)
Other time (%) = 1548.71 (99.7675)

Nlocal:    12.3 ave 159 max 0 min
Histogram: 33 3 1 1 0 0 0 0 0 2
Nghost:    5.35 ave 62 max 0 min
Histogram: 36 0 0 0 0 0 1 1 0 2
Neighs:    3.375 ave 62 max 0 min
Histogram: 36 2 0 0 0 0 0 0 1 1

Total # of neighbors = 135
Ave neighs/atom = 0.27439
Neighbor list builds = 2696
Dangerous builds = 0
write_dump all custom dump.atom_info_ac_* id type x y z radius vx vy vz density #
run 154320
Setting up run at Sat Dec 31 11:09:36 2022

Memory usage per processor = 958.989 Mbytes
    Step    Atoms         KinEng            CPU 
 7253042      492     0.12306279              0 
 7407362      490     0.20358064      1547.2318 
Loop time of 1547.23 on 40 procs for 154320 steps with 490 atoms, finish time Sat Dec 31 11:35:23 2022


Pair  time (%) = 0.32223 (0.0208262)
Neigh time (%) = 1.34311 (0.0868072)
Comm  time (%) = 3.38746 (0.218937)
Outpt time (%) = 0.000168801 (1.09098e-05)
Other time (%) = 1542.18 (99.6734)

Nlocal:    12.25 ave 158 max 0 min
Histogram: 33 3 1 1 0 0 0 0 0 2
Nghost:    5.05 ave 59 max 0 min
Histogram: 36 0 0 0 0 0 1 1 0 2
Neighs:    3.325 ave 61 max 0 min
Histogram: 36 1 1 0 0 0 0 0 1 1

Total # of neighbors = 133
Ave neighs/atom = 0.271429
Neighbor list builds = 4047
Dangerous builds = 133
write_dump all custom dump.atom_info_ac_* id type x y z radius vx vy vz density #
run 154320
Setting up run at Sat Dec 31 11:35:23 2022

Memory usage per processor = 958.989 Mbytes
    Step    Atoms         KinEng            CPU 
 7407362      490     0.20358064              0 
 7561682      488     0.26213388      1613.3573 
Loop time of 1613.36 on 40 procs for 154320 steps with 488 atoms, finish time Sat Dec 31 12:02:17 2022


Pair  time (%) = 0.337943 (0.0209466)
Neigh time (%) = 4.16864 (0.258383)
Comm  time (%) = 9.69762 (0.601083)
Outpt time (%) = 0.000521926 (3.23503e-05)
Other time (%) = 1599.15 (99.1196)

Nlocal:    12.2 ave 160 max 0 min
Histogram: 33 3 1 1 0 0 0 0 0 2
Nghost:    5.15 ave 61 max 0 min
Histogram: 36 0 0 0 0 0 1 1 0 2
Neighs:    3.025 ave 56 max 0 min
Histogram: 36 1 1 0 0 0 0 1 0 1

Total # of neighbors = 121
Ave neighs/atom = 0.247951
Neighbor list builds = 12729
Dangerous builds = 87
write_dump all custom dump.atom_info_ac_* id type x y z radius vx vy vz density #
run 154320
Setting up run at Sat Dec 31 12:02:17 2022

Memory usage per processor = 958.989 Mbytes
    Step    Atoms         KinEng            CPU 
 7561682      488     0.26213388              0 
 7716002      487     0.20998196      1735.9742 
Loop time of 1735.97 on 40 procs for 154320 steps with 487 atoms, finish time Sat Dec 31 12:31:13 2022


Pair  time (%) = 0.372922 (0.021482)
Neigh time (%) = 10.1343 (0.583783)
Comm  time (%) = 24.7067 (1.42322)
Outpt time (%) = 0.0031596 (0.000182007)
Other time (%) = 1700.76 (97.9713)

Nlocal:    12.175 ave 163 max 0 min
Histogram: 32 4 1 1 0 0 0 0 0 2
Nghost:    4.95 ave 63 max 0 min
Histogram: 36 0 0 0 0 2 0 0 1 1
Neighs:    3 ave 51 max 0 min
Histogram: 36 1 1 0 0 0 0 0 0 2

Total # of neighbors = 120
Ave neighs/atom = 0.246407
Neighbor list builds = 31003
Dangerous builds = 173
write_dump all custom dump.atom_info_ac_* id type x y z radius vx vy vz density #
run 154320
Setting up run at Sat Dec 31 12:31:13 2022

Memory usage per processor = 958.989 Mbytes
    Step    Atoms         KinEng            CPU 
 7716002      487     0.20998196              0 
 7870322      486     0.34062144      1721.9981 
Loop time of 1722 on 40 procs for 154320 steps with 486 atoms, finish time Sat Dec 31 12:59:55 2022


Pair  time (%) = 0.372562 (0.0216354)
Neigh time (%) = 10.0967 (0.586338)
Comm  time (%) = 23.2382 (1.34949)
Outpt time (%) = 0.00328527 (0.000190782)
Other time (%) = 1688.29 (98.0423)

Nlocal:    12.15 ave 157 max 0 min
Histogram: 33 3 1 1 0 0 0 0 0 2
Nghost:    5.05 ave 64 max 0 min
Histogram: 36 0 0 0 0 1 1 1 0 1
Neighs:    2.975 ave 54 max 0 min
Histogram: 36 1 1 0 0 0 0 0 1 1

Total # of neighbors = 119
Ave neighs/atom = 0.244856
Neighbor list builds = 30864
Dangerous builds = 0
write_dump all custom dump.atom_info_ac_* id type x y z radius vx vy vz density #
run 154320
Setting up run at Sat Dec 31 12:59:55 2022

Memory usage per processor = 958.989 Mbytes
    Step    Atoms         KinEng            CPU 
 7870322      486     0.34062144              0 
 8024642      486     0.30630958      1726.2743 
Loop time of 1726.27 on 40 procs for 154320 steps with 486 atoms, finish time Sat Dec 31 13:28:41 2022


Pair  time (%) = 0.370909 (0.0214861)
Neigh time (%) = 10.185 (0.589996)
Comm  time (%) = 26.8396 (1.55477)
Outpt time (%) = 0.000261654 (1.51572e-05)
Other time (%) = 1688.88 (97.8337)

Nlocal:    12.15 ave 156 max 0 min
Histogram: 32 4 2 0 0 0 0 0 0 2
Nghost:    5.1 ave 67 max 0 min
Histogram: 36 0 0 0 1 1 0 1 0 1
Neighs:    3.125 ave 53 max 0 min
Histogram: 36 1 1 0 0 0 0 0 0 2

Total # of neighbors = 125
Ave neighs/atom = 0.257202
Neighbor list builds = 31203
Dangerous builds = 0
write_dump all custom dump.atom_info_ac_* id type x y z radius vx vy vz density #
run 154320
Setting up run at Sat Dec 31 13:28:41 2022

Memory usage per processor = 958.989 Mbytes
    Step    Atoms         KinEng            CPU 
 8024642      486     0.30630958              0 
 8178962      483     0.26050775       1743.134 
Loop time of 1743.13 on 40 procs for 154320 steps with 483 atoms, finish time Sat Dec 31 13:57:44 2022


Pair  time (%) = 0.372107 (0.021347)
Neigh time (%) = 10.1646 (0.583119)
Comm  time (%) = 25.4576 (1.46045)
Outpt time (%) = 0.000501229 (2.87545e-05)
Other time (%) = 1707.14 (97.9351)

Nlocal:    12.075 ave 155 max 0 min
Histogram: 34 2 0 2 0 0 0 0 0 2
Nghost:    5.2 ave 71 max 0 min
Histogram: 36 0 0 0 1 1 0 1 0 1
Neighs:    3.125 ave 54 max 0 min
Histogram: 36 1 1 0 0 0 0 0 0 2

Total # of neighbors = 125
Ave neighs/atom = 0.258799
Neighbor list builds = 31323
Dangerous builds = 574
write_dump all custom dump.atom_info_ac_* id type x y z radius vx vy vz density #
run 154320
Setting up run at Sat Dec 31 13:57:45 2022

Memory usage per processor = 958.989 Mbytes
    Step    Atoms         KinEng            CPU 
 8178962      483     0.26050775              0 
 8333282      481      0.2171732      1726.4128 
Loop time of 1726.43 on 40 procs for 154320 steps with 481 atoms, finish time Sat Dec 31 14:26:31 2022


Pair  time (%) = 0.373815 (0.0216525)
Neigh time (%) = 10.2357 (0.592881)
Comm  time (%) = 26.0065 (1.50638)
Outpt time (%) = 0.0029411 (0.000170358)
Other time (%) = 1689.81 (97.8789)

Nlocal:    12.025 ave 157 max 0 min
Histogram: 33 2 2 1 0 0 0 0 0 2
Nghost:    5 ave 64 max 0 min
Histogram: 36 0 0 0 0 1 1 0 1 1
Neighs:    2.775 ave 48 max 0 min
Histogram: 36 1 1 0 0 0 0 0 0 2

Total # of neighbors = 111
Ave neighs/atom = 0.230769
Neighbor list builds = 31382
Dangerous builds = 476
write_dump all custom dump.atom_info_ac_* id type x y z radius vx vy vz density #
run 154320
Setting up run at Sat Dec 31 14:26:31 2022

Memory usage per processor = 958.989 Mbytes
    Step    Atoms         KinEng            CPU 
 8333282      481      0.2171732              0 
 8487602      478     0.21784084      1731.8606 
Loop time of 1731.86 on 40 procs for 154320 steps with 478 atoms, finish time Sat Dec 31 14:55:23 2022


Pair  time (%) = 0.366707 (0.0211741)
Neigh time (%) = 10.1847 (0.588077)
Comm  time (%) = 22.3651 (1.29139)
Outpt time (%) = 0.000181299 (1.04684e-05)
Other time (%) = 1698.94 (98.0993)

Nlocal:    11.95 ave 159 max 0 min
Histogram: 33 3 1 1 0 0 0 0 1 1
Nghost:    4.9 ave 63 max 0 min
Histogram: 36 0 0 0 0 2 0 1 0 1
Neighs:    2.55 ave 49 max 0 min
Histogram: 36 1 1 0 0 0 1 0 0 1

Total # of neighbors = 102
Ave neighs/atom = 0.213389
Neighbor list builds = 31109
Dangerous builds = 307
write_dump all custom dump.atom_info_ac_* id type x y z radius vx vy vz density #
run 154320
Setting up run at Sat Dec 31 14:55:23 2022

Memory usage per processor = 958.989 Mbytes
    Step    Atoms         KinEng            CPU 
 8487602      478     0.21784084              0 
 8641922      476      0.1537591      1732.0318 
Loop time of 1732.03 on 40 procs for 154320 steps with 476 atoms, finish time Sat Dec 31 15:24:15 2022


Pair  time (%) = 0.363428 (0.0209827)
Neigh time (%) = 10.1491 (0.585966)
Comm  time (%) = 26.7207 (1.54274)
Outpt time (%) = 0.000530788 (3.06454e-05)
Other time (%) = 1694.8 (97.8503)

Nlocal:    11.9 ave 159 max 0 min
Histogram: 34 2 0 2 0 0 0 0 1 1
Nghost:    4.8 ave 58 max 0 min
Histogram: 36 0 0 0 0 0 2 0 1 1
Neighs:    2.4 ave 47 max 0 min
Histogram: 36 2 0 0 0 0 0 1 0 1

Total # of neighbors = 96
Ave neighs/atom = 0.201681
Neighbor list builds = 31018
Dangerous builds = 0
write_dump all custom dump.atom_info_ac_* id type x y z radius vx vy vz density #
run 154320
Setting up run at Sat Dec 31 15:24:15 2022

Memory usage per processor = 958.989 Mbytes
    Step    Atoms         KinEng            CPU 
 8641922      476      0.1537591              0 
 8796242      474     0.12393758      1719.9164 
Loop time of 1719.92 on 40 procs for 154320 steps with 474 atoms, finish time Sat Dec 31 15:52:55 2022


Pair  time (%) = 0.364275 (0.0211798)
Neigh time (%) = 10.1995 (0.593024)
Comm  time (%) = 27.8653 (1.62015)
Outpt time (%) = 0.00316424 (0.000183976)
Other time (%) = 1681.48 (97.7655)

Nlocal:    11.85 ave 157 max 0 min
Histogram: 32 4 1 1 0 0 0 0 1 1
Nghost:    4.825 ave 60 max 0 min
Histogram: 36 0 0 0 0 1 1 0 1 1
Neighs:    2.6 ave 50 max 0 min
Histogram: 36 1 1 0 0 0 0 1 0 1

Total # of neighbors = 104
Ave neighs/atom = 0.219409
Neighbor list builds = 31105
Dangerous builds = 301
write_dump all custom dump.atom_info_ac_* id type x y z radius vx vy vz density #
run 154320
Setting up run at Sat Dec 31 15:52:55 2022

Memory usage per processor = 958.989 Mbytes
    Step    Atoms         KinEng            CPU 
 8796242      474     0.12393758              0 
 8950562      473     0.31072607      1729.0023 
Loop time of 1729.01 on 40 procs for 154320 steps with 473 atoms, finish time Sat Dec 31 16:21:44 2022


Pair  time (%) = 0.370279 (0.0214157)
Neigh time (%) = 10.1589 (0.587557)
Comm  time (%) = 23.0653 (1.33402)
Outpt time (%) = 0.00332726 (0.000192438)
Other time (%) = 1695.41 (98.0568)

Nlocal:    11.825 ave 157 max 0 min
Histogram: 33 3 1 1 0 0 0 0 1 1
Nghost:    4.85 ave 57 max 0 min
Histogram: 36 0 0 0 0 0 1 1 1 1
Neighs:    2.3 ave 48 max 0 min
Histogram: 36 2 0 0 0 1 0 0 0 1

Total # of neighbors = 92
Ave neighs/atom = 0.194503
Neighbor list builds = 30864
Dangerous builds = 0
write_dump all custom dump.atom_info_ac_* id type x y z radius vx vy vz density #
run 154320
Setting up run at Sat Dec 31 16:21:44 2022

Memory usage per processor = 958.989 Mbytes
    Step    Atoms         KinEng            CPU 
 8950562      473     0.31072607              0 
 9104882      470     0.13534794      1807.2001 
Loop time of 1807.2 on 40 procs for 154320 steps with 470 atoms, finish time Sat Dec 31 16:51:51 2022


Pair  time (%) = 0.363803 (0.0201307)
Neigh time (%) = 10.1492 (0.561597)
Comm  time (%) = 25.9791 (1.43754)
Outpt time (%) = 0.00277211 (0.000153393)
Other time (%) = 1770.71 (97.9806)

Nlocal:    11.75 ave 153 max 0 min
Histogram: 32 4 1 1 0 0 0 0 1 1
Nghost:    4.675 ave 56 max 0 min
Histogram: 36 0 0 0 0 0 2 0 1 1
Neighs:    2.05 ave 46 max 0 min
Histogram: 36 2 0 0 1 0 0 0 0 1

Total # of neighbors = 82
Ave neighs/atom = 0.174468
Neighbor list builds = 30864
Dangerous builds = 0
write_dump all custom dump.atom_info_ac_* id type x y z radius vx vy vz density #
run 154320
Setting up run at Sat Dec 31 16:51:52 2022

Memory usage per processor = 958.989 Mbytes
    Step    Atoms         KinEng            CPU 
 9104882      470     0.13534794              0 
 9259202      469     0.15764284       1726.257 
Loop time of 1726.26 on 40 procs for 154320 steps with 469 atoms, finish time Sat Dec 31 17:20:38 2022


Pair  time (%) = 0.363477 (0.0210558)
Neigh time (%) = 10.1862 (0.590072)
Comm  time (%) = 25.436 (1.47348)
Outpt time (%) = 0.0033449 (0.000193766)
Other time (%) = 1690.27 (97.9152)

Nlocal:    11.725 ave 155 max 0 min
Histogram: 32 4 1 1 0 0 0 1 0 1
Nghost:    4.6 ave 53 max 0 min
Histogram: 36 0 0 0 0 0 1 1 1 1
Neighs:    2.2 ave 48 max 0 min
Histogram: 36 1 1 1 0 0 0 0 0 1

Total # of neighbors = 88
Ave neighs/atom = 0.187633
Neighbor list builds = 30963
Dangerous builds = 123
write_dump all custom dump.atom_info_ac_* id type x y z radius vx vy vz density #
run 154320
Setting up run at Sat Dec 31 17:20:38 2022

Memory usage per processor = 958.989 Mbytes
    Step    Atoms         KinEng            CPU 
 9259202      469     0.15764284              0 
 9413522      467     0.14247958       1712.056 
Loop time of 1712.06 on 40 procs for 154320 steps with 467 atoms, finish time Sat Dec 31 17:49:10 2022


Pair  time (%) = 0.355587 (0.0207696)
Neigh time (%) = 10.2642 (0.599523)
Comm  time (%) = 32.0903 (1.87437)
Outpt time (%) = 0.000207853 (1.21406e-05)
Other time (%) = 1669.35 (97.5053)

Nlocal:    11.675 ave 153 max 0 min
Histogram: 34 1 1 2 0 0 0 0 1 1
Nghost:    4.75 ave 54 max 0 min
Histogram: 36 0 0 0 0 0 2 0 1 1
Neighs:    2.25 ave 44 max 0 min
Histogram: 36 1 0 1 1 0 0 0 0 1

Total # of neighbors = 90
Ave neighs/atom = 0.192719
Neighbor list builds = 31196
Dangerous builds = 340
write_dump all custom dump.atom_info_ac_* id type x y z radius vx vy vz density #
run 154320
Setting up run at Sat Dec 31 17:49:10 2022

Memory usage per processor = 958.989 Mbytes
    Step    Atoms         KinEng            CPU 
 9413522      467     0.14247958              0 
 9567842      465     0.30672779      1728.9092 
Loop time of 1728.91 on 40 procs for 154320 steps with 465 atoms, finish time Sat Dec 31 18:17:59 2022


Pair  time (%) = 0.358868 (0.0207569)
Neigh time (%) = 10.3509 (0.598696)
Comm  time (%) = 31.0759 (1.79742)
Outpt time (%) = 0.000539085 (3.11806e-05)
Other time (%) = 1687.12 (97.5831)

Nlocal:    11.625 ave 154 max 0 min
Histogram: 32 4 1 1 0 0 0 1 0 1
Nghost:    4.475 ave 50 max 0 min
Histogram: 36 0 0 0 0 0 0 2 1 1
Neighs:    2.075 ave 44 max 0 min
Histogram: 37 0 1 0 1 0 0 0 0 1

Total # of neighbors = 83
Ave neighs/atom = 0.178495
Neighbor list builds = 31640
Dangerous builds = 473
write_dump all custom dump.atom_info_ac_* id type x y z radius vx vy vz density #
run 154320
Setting up run at Sat Dec 31 18:17:59 2022

Memory usage per processor = 958.989 Mbytes
    Step    Atoms         KinEng            CPU 
 9567842      465     0.30672779              0 
 9722162      463     0.34591858      1719.7036 
Loop time of 1719.7 on 40 procs for 154320 steps with 463 atoms, finish time Sat Dec 31 18:46:39 2022


Pair  time (%) = 0.357473 (0.0207869)
Neigh time (%) = 10.2737 (0.597413)
Comm  time (%) = 28.314 (1.64644)
Outpt time (%) = 0.00294431 (0.00017121)
Other time (%) = 1680.76 (97.7352)

Nlocal:    11.575 ave 156 max 0 min
Histogram: 33 2 3 0 0 0 0 1 0 1
Nghost:    4.475 ave 45 max 0 min
Histogram: 36 0 0 0 0 0 0 1 1 2
Neighs:    1.9 ave 45 max 0 min
Histogram: 37 1 0 1 0 0 0 0 0 1

Total # of neighbors = 76
Ave neighs/atom = 0.164147
Neighbor list builds = 31134
Dangerous builds = 77
write_dump all custom dump.atom_info_ac_* id type x y z radius vx vy vz density #
run 154320
Setting up run at Sat Dec 31 18:46:39 2022

Memory usage per processor = 958.989 Mbytes
    Step    Atoms         KinEng            CPU 
 9722162      463     0.34591858              0 
 9876482      459     0.25215401      1711.1624 
Loop time of 1711.16 on 40 procs for 154320 steps with 459 atoms, finish time Sat Dec 31 19:15:10 2022


Pair  time (%) = 0.355247 (0.0207605)
Neigh time (%) = 10.152 (0.59328)
Comm  time (%) = 30.1107 (1.75966)
Outpt time (%) = 0.000186358 (1.08908e-05)
Other time (%) = 1670.54 (97.6263)

Nlocal:    11.475 ave 154 max 0 min
Histogram: 32 4 2 0 0 0 0 1 0 1
Nghost:    4.4 ave 43 max 0 min
Histogram: 36 0 0 0 0 0 0 0 1 3
Neighs:    1.9 ave 43 max 0 min
Histogram: 36 2 0 0 1 0 0 0 0 1

Total # of neighbors = 76
Ave neighs/atom = 0.165577
Neighbor list builds = 31072
Dangerous builds = 1128
write_dump all custom dump.atom_info_ac_* id type x y z radius vx vy vz density #
run 154320
Setting up run at Sat Dec 31 19:15:10 2022

Memory usage per processor = 958.989 Mbytes
    Step    Atoms         KinEng            CPU 
 9876482      459     0.25215401              0 
10030802      459     0.83743159      1671.1079 
Loop time of 1671.11 on 40 procs for 154320 steps with 459 atoms, finish time Sat Dec 31 19:43:01 2022


Pair  time (%) = 0.342288 (0.0204827)
Neigh time (%) = 7.70337 (0.460974)
Comm  time (%) = 18.6126 (1.11379)
Outpt time (%) = 0.00316248 (0.000189244)
Other time (%) = 1644.45 (98.4046)

Nlocal:    11.475 ave 154 max 0 min
Histogram: 32 4 1 1 0 0 0 1 0 1
Nghost:    4.225 ave 42 max 0 min
Histogram: 36 0 0 0 0 0 0 0 1 3
Neighs:    2.125 ave 52 max 0 min
Histogram: 36 2 0 1 0 0 0 0 0 1

Total # of neighbors = 85
Ave neighs/atom = 0.185185
Neighbor list builds = 22966
Dangerous builds = 0
write_dump all custom dump.atom_info_ac_* id type x y z radius vx vy vz density #
run 154320
Setting up run at Sat Dec 31 19:43:01 2022

Memory usage per processor = 958.989 Mbytes
    Step    Atoms         KinEng            CPU 
10030802      459     0.83743159              0 
10185122      455     0.32310766      1673.6978 
Loop time of 1673.7 on 40 procs for 154320 steps with 455 atoms, finish time Sat Dec 31 20:10:55 2022


Pair  time (%) = 0.344433 (0.0205791)
Neigh time (%) = 7.75295 (0.463223)
Comm  time (%) = 17.9441 (1.07212)
Outpt time (%) = 0.000582967 (3.48311e-05)
Other time (%) = 1647.66 (98.444)

Nlocal:    11.375 ave 152 max 0 min
Histogram: 33 3 1 1 0 0 0 1 0 1
Nghost:    4.15 ave 46 max 0 min
Histogram: 36 0 0 0 0 0 0 1 1 2
Neighs:    2.225 ave 50 max 0 min
Histogram: 36 1 1 0 1 0 0 0 0 1

Total # of neighbors = 89
Ave neighs/atom = 0.195604
Neighbor list builds = 23284
Dangerous builds = 73
write_dump all custom dump.atom_info_ac_* id type x y z radius vx vy vz density #
run 154320
Setting up run at Sat Dec 31 20:10:55 2022

Memory usage per processor = 958.989 Mbytes
    Step    Atoms         KinEng            CPU 
10185122      455     0.32310766              0 
10339442      452     0.31828118      1684.9558 
Loop time of 1684.96 on 40 procs for 154320 steps with 452 atoms, finish time Sat Dec 31 20:39:00 2022


Pair  time (%) = 0.343982 (0.0204149)
Neigh time (%) = 7.97493 (0.473302)
Comm  time (%) = 19.6141 (1.16407)
Outpt time (%) = 0.000495444 (2.9404e-05)
Other time (%) = 1657.02 (98.3422)

Nlocal:    11.3 ave 151 max 0 min
Histogram: 32 4 1 1 0 0 0 1 0 1
Nghost:    4.25 ave 45 max 0 min
Histogram: 35 1 0 0 0 0 0 2 0 2
Neighs:    2 ave 45 max 0 min
Histogram: 36 1 1 1 0 0 0 0 0 1

Total # of neighbors = 80
Ave neighs/atom = 0.176991
Neighbor list builds = 23988
Dangerous builds = 219
write_dump all custom dump.atom_info_ac_* id type x y z radius vx vy vz density #
run 154320
Setting up run at Sat Dec 31 20:39:00 2022

Memory usage per processor = 958.989 Mbytes
    Step    Atoms         KinEng            CPU 
10339442      452     0.31828118              0 
10493762      448      0.2373251      1648.6661 
Loop time of 1648.67 on 40 procs for 154320 steps with 448 atoms, finish time Sat Dec 31 21:06:29 2022


Pair  time (%) = 0.336277 (0.0203969)
Neigh time (%) = 6.5711 (0.398571)
Comm  time (%) = 17.1921 (1.04279)
Outpt time (%) = 0.000233829 (1.41829e-05)
Other time (%) = 1624.57 (98.5382)

Nlocal:    11.2 ave 149 max 0 min
Histogram: 32 4 0 2 0 0 0 1 0 1
Nghost:    4 ave 45 max 0 min
Histogram: 36 0 0 0 0 0 2 0 0 2
Neighs:    2.025 ave 42 max 0 min
Histogram: 36 0 2 0 1 0 0 0 0 1

Total # of neighbors = 81
Ave neighs/atom = 0.180804
Neighbor list builds = 19431
Dangerous builds = 8
write_dump all custom dump.atom_info_ac_* id type x y z radius vx vy vz density #
run 154320
Setting up run at Sat Dec 31 21:06:29 2022

Memory usage per processor = 958.989 Mbytes
    Step    Atoms         KinEng            CPU 
10493762      448      0.2373251              0 
10648082      447     0.22582148      1629.6745 
Loop time of 1629.67 on 40 procs for 154320 steps with 447 atoms, finish time Sat Dec 31 21:33:38 2022


Pair  time (%) = 0.327171 (0.0200758)
Neigh time (%) = 5.45763 (0.334891)
Comm  time (%) = 14.8537 (0.911454)
Outpt time (%) = 0.000596625 (3.66101e-05)
Other time (%) = 1609.04 (98.7335)

Nlocal:    11.175 ave 149 max 0 min
Histogram: 32 3 1 2 0 0 0 1 0 1
Nghost:    4.025 ave 44 max 0 min
Histogram: 36 0 0 0 0 0 0 2 1 1
Neighs:    2.2 ave 43 max 0 min
Histogram: 36 0 2 0 1 0 0 0 0 1

Total # of neighbors = 88
Ave neighs/atom = 0.196868
Neighbor list builds = 16159
Dangerous builds = 0
write_dump all custom dump.atom_info_ac_* id type x y z radius vx vy vz density #
run 154320
Setting up run at Sat Dec 31 21:33:39 2022

Memory usage per processor = 958.989 Mbytes
    Step    Atoms         KinEng            CPU 
10648082      447     0.22582148              0 
10802402      445     0.74857883      1634.6621 
Loop time of 1634.66 on 40 procs for 154320 steps with 445 atoms, finish time Sat Dec 31 22:00:53 2022


Pair  time (%) = 0.334771 (0.0204795)
Neigh time (%) = 6.07885 (0.371872)
Comm  time (%) = 20.0107 (1.22415)
Outpt time (%) = 0.000138 (8.44212e-06)
Other time (%) = 1608.24 (98.3835)

Nlocal:    11.125 ave 145 max 0 min
Histogram: 32 4 1 1 0 0 0 1 0 1
Nghost:    4.125 ave 51 max 0 min
Histogram: 35 1 0 0 0 1 2 0 0 1
Neighs:    2.05 ave 41 max 0 min
Histogram: 36 1 0 1 1 0 0 0 0 1

Total # of neighbors = 82
Ave neighs/atom = 0.18427
Neighbor list builds = 18088
Dangerous builds = 23
write_dump all custom dump.atom_info_ac_* id type x y z radius vx vy vz density #
run 154320
Setting up run at Sat Dec 31 22:00:53 2022

Memory usage per processor = 958.989 Mbytes
    Step    Atoms         KinEng            CPU 
10802402      445     0.74857883              0 
10956722      441     0.83721385       1639.487 
Loop time of 1639.49 on 40 procs for 154320 steps with 441 atoms, finish time Sat Dec 31 22:28:13 2022


Pair  time (%) = 0.333921 (0.0203674)
Neigh time (%) = 6.00673 (0.366378)
Comm  time (%) = 15.2739 (0.931627)
Outpt time (%) = 0.000202143 (1.23297e-05)
Other time (%) = 1617.87 (98.6816)

Nlocal:    11.025 ave 143 max 0 min
Histogram: 32 3 2 1 0 0 0 1 0 1
Nghost:    3.775 ave 42 max 0 min
Histogram: 35 1 0 0 0 0 1 2 0 1
Neighs:    2 ave 39 max 0 min
Histogram: 35 2 0 1 1 0 0 0 0 1

Total # of neighbors = 80
Ave neighs/atom = 0.181406
Neighbor list builds = 17904
Dangerous builds = 527
write_dump all custom dump.atom_info_ac_* id type x y z radius vx vy vz density #
run 154320
Setting up run at Sat Dec 31 22:28:13 2022

Memory usage per processor = 958.989 Mbytes
    Step    Atoms         KinEng            CPU 
10956722      441     0.83721385              0 
11111042      437     0.29533537      1627.1735 
Loop time of 1627.17 on 40 procs for 154320 steps with 437 atoms, finish time Sat Dec 31 22:55:20 2022


Pair  time (%) = 0.329142 (0.0202278)
Neigh time (%) = 5.33291 (0.327741)
Comm  time (%) = 13.3637 (0.821284)
Outpt time (%) = 0.000552325 (3.39438e-05)
Other time (%) = 1608.15 (98.8307)

Nlocal:    10.925 ave 144 max 0 min
Histogram: 32 4 1 1 0 0 0 1 0 1
Nghost:    3.65 ave 40 max 0 min
Histogram: 35 1 0 0 0 0 1 1 0 2
Neighs:    1.75 ave 37 max 0 min
Histogram: 36 1 1 0 1 0 0 0 0 1

Total # of neighbors = 70
Ave neighs/atom = 0.160183
Neighbor list builds = 15790
Dangerous builds = 396
write_dump all custom dump.atom_info_ac_* id type x y z radius vx vy vz density #
run 154320
Setting up run at Sat Dec 31 22:55:20 2022

Memory usage per processor = 958.989 Mbytes
    Step    Atoms         KinEng            CPU 
11111042      437     0.29533537              0 
11265362      433     0.92139508      1626.4503 
Loop time of 1626.45 on 40 procs for 154320 steps with 433 atoms, finish time Sat Dec 31 23:22:27 2022


Pair  time (%) = 0.327114 (0.0201121)
Neigh time (%) = 5.28271 (0.3248)
Comm  time (%) = 12.9798 (0.798047)
Outpt time (%) = 0.002862 (0.000175966)
Other time (%) = 1607.86 (98.8569)

Nlocal:    10.825 ave 142 max 0 min
Histogram: 32 4 1 1 0 0 0 1 0 1
Nghost:    3.55 ave 38 max 0 min
Histogram: 35 1 0 0 0 0 0 2 0 2
Neighs:    1.825 ave 41 max 0 min
Histogram: 36 2 0 1 0 0 0 0 0 1

Total # of neighbors = 73
Ave neighs/atom = 0.168591
Neighbor list builds = 15595
Dangerous builds = 179
write_dump all custom dump.atom_info_ac_* id type x y z radius vx vy vz density #
run 154320
Setting up run at Sat Dec 31 23:22:27 2022

Memory usage per processor = 958.989 Mbytes
    Step    Atoms         KinEng            CPU 
11265362      433     0.92139508              0 
11419682      428     0.30177952      1621.1285 
Loop time of 1621.13 on 40 procs for 154320 steps with 428 atoms, finish time Sat Dec 31 23:49:28 2022


Pair  time (%) = 0.327942 (0.0202292)
Neigh time (%) = 5.25623 (0.324233)
Comm  time (%) = 12.3184 (0.759866)
Outpt time (%) = 0.000536585 (3.30995e-05)
Other time (%) = 1603.23 (98.8956)

Nlocal:    10.7 ave 141 max 0 min
Histogram: 32 4 2 0 0 0 0 1 0 1
Nghost:    3.825 ave 40 max 0 min
Histogram: 35 1 0 0 0 0 0 1 1 2
Neighs:    1.8 ave 40 max 0 min
Histogram: 37 0 1 1 0 0 0 0 0 1

Total # of neighbors = 72
Ave neighs/atom = 0.168224
Neighbor list builds = 15453
Dangerous builds = 24
write_dump all custom dump.atom_info_ac_* id type x y z radius vx vy vz density #
run 154320
Setting up run at Sat Dec 31 23:49:28 2022

Memory usage per processor = 958.989 Mbytes
    Step    Atoms         KinEng            CPU 
11419682      428     0.30177952              0 
11574002      428     0.36371506      1619.7025 
Loop time of 1619.7 on 40 procs for 154320 steps with 428 atoms, finish time Sun Jan  1 00:16:28 2023


Pair  time (%) = 0.327075 (0.0201935)
Neigh time (%) = 5.2362 (0.323282)
Comm  time (%) = 11.9181 (0.735819)
Outpt time (%) = 0.00283525 (0.000175047)
Other time (%) = 1602.22 (98.9205)

Nlocal:    10.7 ave 138 max 0 min
Histogram: 32 4 1 1 0 0 0 1 0 1
Nghost:    3.6 ave 36 max 0 min
Histogram: 35 1 0 0 0 0 0 0 1 3
Neighs:    1.675 ave 41 max 0 min
Histogram: 37 1 1 0 0 0 0 0 0 1

Total # of neighbors = 67
Ave neighs/atom = 0.156542
Neighbor list builds = 15432
Dangerous builds = 0
write_dump all custom dump.atom_info_ac_* id type x y z radius vx vy vz density #
run 154320
Setting up run at Sun Jan  1 00:16:28 2023

Memory usage per processor = 958.989 Mbytes
    Step    Atoms         KinEng            CPU 
11574002      428     0.36371506              0 
11728322      423     0.29423172      1623.0114 
Loop time of 1623.01 on 40 procs for 154320 steps with 423 atoms, finish time Sun Jan  1 00:43:31 2023


Pair  time (%) = 0.327432 (0.0201743)
Neigh time (%) = 5.44668 (0.335591)
Comm  time (%) = 12.49 (0.769556)
Outpt time (%) = 0.000231488 (1.42629e-05)
Other time (%) = 1604.75 (98.8747)

Nlocal:    10.575 ave 135 max 0 min
Histogram: 32 3 1 2 0 0 0 1 0 1
Nghost:    3.825 ave 37 max 0 min
Histogram: 34 2 0 0 0 0 0 0 1 3
Neighs:    1.625 ave 39 max 0 min
Histogram: 37 0 2 0 0 0 0 0 0 1

Total # of neighbors = 65
Ave neighs/atom = 0.153664
Neighbor list builds = 16107
Dangerous builds = 2
write_dump all custom dump.atom_info_ac_* id type x y z radius vx vy vz density #
run 154320
Setting up run at Sun Jan  1 00:43:31 2023

Memory usage per processor = 958.989 Mbytes
    Step    Atoms         KinEng            CPU 
11728322      423     0.29423172              0 
11882642      420     0.29705504      1643.4655 
Loop time of 1643.47 on 40 procs for 154320 steps with 420 atoms, finish time Sun Jan  1 01:10:54 2023


Pair  time (%) = 0.328845 (0.0200093)
Neigh time (%) = 6.24764 (0.380151)
Comm  time (%) = 17.8084 (1.08359)
Outpt time (%) = 0.000480113 (2.92135e-05)
Other time (%) = 1619.08 (98.5162)

Nlocal:    10.5 ave 133 max 0 min
Histogram: 32 3 2 1 0 0 0 1 0 1
Nghost:    4 ave 37 max 0 min
Histogram: 35 1 0 0 0 0 0 0 0 4
Neighs:    1.575 ave 36 max 0 min
Histogram: 36 1 0 2 0 0 0 0 0 1

Total # of neighbors = 63
Ave neighs/atom = 0.15
Neighbor list builds = 18793
Dangerous builds = 315
write_dump all custom dump.atom_info_ac_* id type x y z radius vx vy vz density #
run 154320
Setting up run at Sun Jan  1 01:10:54 2023

Memory usage per processor = 958.989 Mbytes
    Step    Atoms         KinEng            CPU 
11882642      420     0.29705504              0 
12036962      417     0.15833573      1626.2194 
Loop time of 1626.22 on 40 procs for 154320 steps with 417 atoms, finish time Sun Jan  1 01:38:01 2023


Pair  time (%) = 0.32713 (0.020116)
Neigh time (%) = 5.35939 (0.329561)
Comm  time (%) = 13.7615 (0.846226)
Outpt time (%) = 0.000193389 (1.18919e-05)
Other time (%) = 1606.77 (98.8041)

Nlocal:    10.425 ave 131 max 0 min
Histogram: 33 2 3 0 0 0 0 0 1 1
Nghost:    3.775 ave 36 max 0 min
Histogram: 35 1 0 0 0 0 0 0 1 3
Neighs:    1.35 ave 34 max 0 min
Histogram: 37 0 2 0 0 0 0 0 0 1

Total # of neighbors = 54
Ave neighs/atom = 0.129496
Neighbor list builds = 15942
Dangerous builds = 418
write_dump all custom dump.atom_info_ac_* id type x y z radius vx vy vz density #
run 154320
Setting up run at Sun Jan  1 01:38:01 2023

Memory usage per processor = 958.989 Mbytes
    Step    Atoms         KinEng            CPU 
12036962      417     0.15833573              0 
12191282      412      0.2220642      1629.0214 
Loop time of 1629.02 on 40 procs for 154320 steps with 412 atoms, finish time Sun Jan  1 02:05:10 2023


Pair  time (%) = 0.326339 (0.0200329)
Neigh time (%) = 5.44432 (0.334208)
Comm  time (%) = 13.3479 (0.819384)
Outpt time (%) = 0.000530586 (3.25709e-05)
Other time (%) = 1609.9 (98.8263)

Nlocal:    10.3 ave 129 max 0 min
Histogram: 33 2 2 1 0 0 0 0 1 1
Nghost:    3.85 ave 40 max 0 min
Histogram: 36 0 0 0 0 0 0 1 1 2
Neighs:    1.4 ave 31 max 0 min
Histogram: 36 1 2 0 0 0 0 0 0 1

Total # of neighbors = 56
Ave neighs/atom = 0.135922
Neighbor list builds = 16390
Dangerous builds = 910
write_dump all custom dump.atom_info_ac_* id type x y z radius vx vy vz density #
run 154320
Setting up run at Sun Jan  1 02:05:10 2023

Memory usage per processor = 958.989 Mbytes
    Step    Atoms         KinEng            CPU 
12191282      412      0.2220642              0 
12345602      407     0.17289346       1601.739 
Loop time of 1601.74 on 40 procs for 154320 steps with 407 atoms, finish time Sun Jan  1 02:31:51 2023


Pair  time (%) = 0.320989 (0.0200401)
Neigh time (%) = 4.2713 (0.266667)
Comm  time (%) = 10.1358 (0.632802)
Outpt time (%) = 0.000195798 (1.22241e-05)
Other time (%) = 1587.01 (99.0805)

Nlocal:    10.175 ave 129 max 0 min
Histogram: 33 2 2 1 0 0 0 0 1 1
Nghost:    3.875 ave 43 max 0 min
Histogram: 35 1 0 0 0 0 0 3 0 1
Neighs:    1.575 ave 36 max 0 min
Histogram: 36 2 1 0 0 0 0 0 0 1

Total # of neighbors = 63
Ave neighs/atom = 0.154791
Neighbor list builds = 12710
Dangerous builds = 449
write_dump all custom dump.atom_info_ac_* id type x y z radius vx vy vz density #
run 154320
[...]
Loop time of 1565.2 on 40 procs for 154320 steps with 189 atoms, finish time Mon Jan  2 22:16:34 2023


Pair  time (%) = 0.29047 (0.0185581)
Neigh time (%) = 2.04433 (0.130612)
Comm  time (%) = 5.82785 (0.37234)
Outpt time (%) = 0.00064311 (4.10882e-05)
Other time (%) = 1557.03 (99.4784)

Nlocal:    4.725 ave 48 max 0 min
Histogram: 31 2 2 2 1 0 0 1 0 1
Nghost:    1.2 ave 16 max 0 min
Histogram: 33 3 0 2 0 0 0 0 1 1
Neighs:    0.025 ave 1 max 0 min
Histogram: 39 0 0 0 0 0 0 0 0 1

Total # of neighbors = 1
Ave neighs/atom = 0.00529101
Neighbor list builds = 6047
Dangerous builds = 0
write_dump all custom dump.atom_info_ac_* id type x y z radius vx vy vz density #
run 154320
Setting up run at Mon Jan  2 22:16:34 2023

Memory usage per processor = 958.989 Mbytes
    Step    Atoms         KinEng            CPU 
27777699      189     0.59281768              0 
27932019      187      0.4993008      1575.4036 
Loop time of 1575.4 on 40 procs for 154320 steps with 187 atoms, finish time Mon Jan  2 22:42:50 2023


Pair  time (%) = 0.292066 (0.0185391)
Neigh time (%) = 2.25633 (0.143222)
Comm  time (%) = 4.64255 (0.29469)
Outpt time (%) = 0.000511083 (3.24414e-05)
Other time (%) = 1568.21 (99.5435)

Nlocal:    4.675 ave 48 max 0 min
Histogram: 31 1 4 1 0 1 0 0 1 1
Nghost:    1.1 ave 16 max 0 min
Histogram: 34 3 1 0 0 0 0 1 0 1
Neighs:    0.075 ave 1 max 0 min
Histogram: 37 0 0 0 0 0 0 0 0 3

Total # of neighbors = 3
Ave neighs/atom = 0.0160428
Neighbor list builds = 6788
Dangerous builds = 250
write_dump all custom dump.atom_info_ac_* id type x y z radius vx vy vz density #
run 154320
Setting up run at Mon Jan  2 22:42:50 2023

Memory usage per processor = 958.989 Mbytes
    Step    Atoms         KinEng            CPU 
27932019      187      0.4993008              0 
28086339      186     0.50451292      1582.6444 
Loop time of 1582.7 on 40 procs for 154320 steps with 186 atoms, finish time Mon Jan  2 23:09:13 2023


Pair  time (%) = 0.29525 (0.0186549)
Neigh time (%) = 2.99431 (0.18919)
Comm  time (%) = 6.61979 (0.41826)
Outpt time (%) = 0.000516599 (3.26404e-05)
Other time (%) = 1572.79 (99.3739)

Nlocal:    4.65 ave 47 max 0 min
Histogram: 31 2 2 2 1 0 0 0 1 1
Nghost:    1.025 ave 13 max 0 min
Histogram: 34 2 1 1 0 0 0 0 0 2
Neighs:    0.05 ave 1 max 0 min
Histogram: 38 0 0 0 0 0 0 0 0 2

Total # of neighbors = 2
Ave neighs/atom = 0.0107527
Neighbor list builds = 9066
Dangerous builds = 440
write_dump all custom dump.atom_info_ac_* id type x y z radius vx vy vz density #
run 154320
Setting up run at Mon Jan  2 23:09:13 2023

Memory usage per processor = 958.989 Mbytes
    Step    Atoms         KinEng            CPU 
28086339      186     0.50451292              0 
28240659      186     0.55785088      1561.3506 
Loop time of 1561.35 on 40 procs for 154320 steps with 186 atoms, finish time Mon Jan  2 23:35:14 2023


Pair  time (%) = 0.288048 (0.0184486)
Neigh time (%) = 2.0009 (0.128152)
Comm  time (%) = 5.53237 (0.354332)
Outpt time (%) = 0.000491943 (3.15075e-05)
Other time (%) = 1553.53 (99.499)

Nlocal:    4.65 ave 46 max 0 min
Histogram: 32 2 1 0 2 1 0 0 1 1
Nghost:    1.125 ave 12 max 0 min
Histogram: 34 2 0 0 1 0 1 0 0 2
Neighs:    0.125 ave 2 max 0 min
Histogram: 36 0 0 0 0 3 0 0 0 1

Total # of neighbors = 5
Ave neighs/atom = 0.0268817
Neighbor list builds = 5906
Dangerous builds = 0
write_dump all custom dump.atom_info_ac_* id type x y z radius vx vy vz density #
run 154320
Setting up run at Mon Jan  2 23:35:14 2023

Memory usage per processor = 958.989 Mbytes
    Step    Atoms         KinEng            CPU 
28240659      186     0.55785088              0 
28394979      184     0.59446568      1573.9169 
Loop time of 1573.92 on 40 procs for 154320 steps with 184 atoms, finish time Tue Jan  3 00:01:28 2023


Pair  time (%) = 0.291982 (0.0185513)
Neigh time (%) = 2.21764 (0.140899)
Comm  time (%) = 5.9166 (0.375916)
Outpt time (%) = 0.00051223 (3.25449e-05)
Other time (%) = 1565.49 (99.4646)

Nlocal:    4.6 ave 46 max 0 min
Histogram: 32 1 1 4 0 0 0 0 1 1
Nghost:    1.025 ave 12 max 0 min
Histogram: 32 4 1 0 1 0 0 0 0 2
Neighs:    0.075 ave 2 max 0 min
Histogram: 38 0 0 0 0 1 0 0 0 1

Total # of neighbors = 3
Ave neighs/atom = 0.0163043
Neighbor list builds = 6622
Dangerous builds = 1
write_dump all custom dump.atom_info_ac_* id type x y z radius vx vy vz density #
run 154320
Setting up run at Tue Jan  3 00:01:28 2023

Memory usage per processor = 958.989 Mbytes
    Step    Atoms         KinEng            CPU 
28394979      184     0.59446568              0 
28549299      182     0.61102735      1581.7923 
Loop time of 1581.79 on 40 procs for 154320 steps with 182 atoms, finish time Tue Jan  3 00:27:50 2023


Pair  time (%) = 0.29345 (0.0185518)
Neigh time (%) = 2.72724 (0.172414)
Comm  time (%) = 7.84409 (0.495899)
Outpt time (%) = 0.000471396 (2.98014e-05)
Other time (%) = 1570.93 (99.3131)

Nlocal:    4.55 ave 49 max 0 min
Histogram: 31 1 4 1 1 0 0 1 0 1
Nghost:    1.1 ave 13 max 0 min
Histogram: 34 2 0 1 0 1 0 0 0 2
Neighs:    0.125 ave 2 max 0 min
Histogram: 36 0 0 0 0 3 0 0 0 1

Total # of neighbors = 5
Ave neighs/atom = 0.0274725
Neighbor list builds = 8039
Dangerous builds = 0
write_dump all custom dump.atom_info_ac_* id type x y z radius vx vy vz density #
run 154320
Setting up run at Tue Jan  3 00:27:50 2023

Memory usage per processor = 958.989 Mbytes
    Step    Atoms         KinEng            CPU 
28549299      182     0.61102735              0 
28703619      180     0.56914497      1578.1777 
Loop time of 1578.18 on 40 procs for 154320 steps with 180 atoms, finish time Tue Jan  3 00:54:08 2023


Pair  time (%) = 0.293469 (0.0185955)
Neigh time (%) = 2.76883 (0.175445)
Comm  time (%) = 7.65698 (0.485179)
Outpt time (%) = 0.000666426 (4.22276e-05)
Other time (%) = 1567.46 (99.3207)

Nlocal:    4.5 ave 45 max 0 min
Histogram: 31 2 2 0 3 0 0 0 1 1
Nghost:    0.9 ave 13 max 0 min
Histogram: 35 2 0 0 0 0 2 0 0 1
Neighs:    0.05 ave 1 max 0 min
Histogram: 38 0 0 0 0 0 0 0 0 2

Total # of neighbors = 2
Ave neighs/atom = 0.0111111
Neighbor list builds = 8147
Dangerous builds = 0
write_dump all custom dump.atom_info_ac_* id type x y z radius vx vy vz density #
run 154320
Setting up run at Tue Jan  3 00:54:08 2023

Memory usage per processor = 958.989 Mbytes
    Step    Atoms         KinEng            CPU 
28703619      180     0.56914497              0 
28857939      179     0.48441155      1580.0285 
Loop time of 1580.03 on 40 procs for 154320 steps with 179 atoms, finish time Tue Jan  3 01:20:28 2023


Pair  time (%) = 0.296327 (0.0187545)
Neigh time (%) = 2.91401 (0.184428)
Comm  time (%) = 6.63109 (0.419682)
Outpt time (%) = 0.000485012 (3.06964e-05)
Other time (%) = 1570.19 (99.3771)

Nlocal:    4.475 ave 45 max 0 min
Histogram: 31 1 3 2 1 0 0 0 1 1
Nghost:    0.95 ave 12 max 0 min
Histogram: 36 0 0 1 0 1 0 1 0 1
Neighs:    0.175 ave 1 max 0 min
Histogram: 33 0 0 0 0 0 0 0 0 7

Total # of neighbors = 7
Ave neighs/atom = 0.0391061
Neighbor list builds = 8555
Dangerous builds = 24
write_dump all custom dump.atom_info_ac_* id type x y z radius vx vy vz density #
run 154320
Setting up run at Tue Jan  3 01:20:28 2023

Memory usage per processor = 958.989 Mbytes
    Step    Atoms         KinEng            CPU 
28857939      179     0.48441155              0 
29012259      179     0.48124582      1589.4355 
Loop time of 1589.44 on 40 procs for 154320 steps with 179 atoms, finish time Tue Jan  3 01:46:58 2023


Pair  time (%) = 0.296387 (0.0186473)
Neigh time (%) = 3.09174 (0.194518)
Comm  time (%) = 7.27031 (0.457414)
Outpt time (%) = 0.000534292 (3.36152e-05)
Other time (%) = 1578.78 (99.3294)

Nlocal:    4.475 ave 46 max 0 min
Histogram: 31 2 1 4 0 0 0 0 1 1
Nghost:    1.125 ave 13 max 0 min
Histogram: 34 2 0 1 0 0 1 1 0 1
Neighs:    0.1 ave 1 max 0 min
Histogram: 36 0 0 0 0 0 0 0 0 4

Total # of neighbors = 4
Ave neighs/atom = 0.0223464
Neighbor list builds = 9080
Dangerous builds = 0
write_dump all custom dump.atom_info_ac_* id type x y z radius vx vy vz density #
run 154320
Setting up run at Tue Jan  3 01:46:58 2023

Memory usage per processor = 958.989 Mbytes
    Step    Atoms         KinEng            CPU 
29012259      179     0.48124582              0 
29166579      177     0.51315965      1569.6793 
Loop time of 1569.68 on 40 procs for 154320 steps with 177 atoms, finish time Tue Jan  3 02:13:08 2023


Pair  time (%) = 0.293286 (0.0186845)
Neigh time (%) = 2.30216 (0.146665)
Comm  time (%) = 6.41627 (0.408763)
Outpt time (%) = 0.000540553 (3.44371e-05)
Other time (%) = 1560.67 (99.4259)

Nlocal:    4.425 ave 45 max 0 min
Histogram: 31 1 4 1 0 1 0 0 1 1
Nghost:    1.075 ave 13 max 0 min
Histogram: 32 3 1 1 1 0 1 0 0 1
Neighs:    0.075 ave 1 max 0 min
Histogram: 37 0 0 0 0 0 0 0 0 3

Total # of neighbors = 3
Ave neighs/atom = 0.0169492
Neighbor list builds = 6799
Dangerous builds = 0
write_dump all custom dump.atom_info_ac_* id type x y z radius vx vy vz density #
run 154320
Setting up run at Tue Jan  3 02:13:08 2023

Memory usage per processor = 958.989 Mbytes
    Step    Atoms         KinEng            CPU 
29166579      177     0.51315965              0 
29320899      177     0.77695173       1574.382 
Loop time of 1574.38 on 40 procs for 154320 steps with 177 atoms, finish time Tue Jan  3 02:39:22 2023


Pair  time (%) = 0.287937 (0.0182889)
Neigh time (%) = 2.25717 (0.143369)
Comm  time (%) = 6.6701 (0.423665)
Outpt time (%) = 0.000465427 (2.95625e-05)
Other time (%) = 1565.17 (99.4146)

Nlocal:    4.425 ave 46 max 0 min
Histogram: 31 2 2 3 0 0 0 0 1 1
Nghost:    0.975 ave 11 max 0 min
Histogram: 33 2 1 1 1 0 0 0 1 1
Neighs:    0.05 ave 1 max 0 min
Histogram: 38 0 0 0 0 0 0 0 0 2

Total # of neighbors = 2
Ave neighs/atom = 0.0112994
Neighbor list builds = 6662
Dangerous builds = 0
write_dump all custom dump.atom_info_ac_* id type x y z radius vx vy vz density #
run 154320
Setting up run at Tue Jan  3 02:39:22 2023

Memory usage per processor = 958.989 Mbytes
    Step    Atoms         KinEng            CPU 
29320899      177     0.77695173              0 
29475219      177     0.65673347      1590.6269 
Loop time of 1590.63 on 40 procs for 154320 steps with 177 atoms, finish time Tue Jan  3 03:05:53 2023


Pair  time (%) = 0.29634 (0.0186304)
Neigh time (%) = 3.46774 (0.218011)
Comm  time (%) = 9.33201 (0.586687)
Outpt time (%) = 0.00330435 (0.000207739)
Other time (%) = 1577.53 (99.1765)

Nlocal:    4.425 ave 44 max 0 min
Histogram: 31 1 4 1 1 0 0 0 1 1
Nghost:    0.875 ave 11 max 0 min
Histogram: 34 1 2 0 1 0 0 1 0 1
Neighs:    0.075 ave 1 max 0 min
Histogram: 37 0 0 0 0 0 0 0 0 3

Total # of neighbors = 3
Ave neighs/atom = 0.0169492
Neighbor list builds = 10332
Dangerous builds = 0
write_dump all custom dump.atom_info_ac_* id type x y z radius vx vy vz density #
run 154320
Setting up run at Tue Jan  3 03:05:53 2023

Memory usage per processor = 958.989 Mbytes
    Step    Atoms         KinEng            CPU 
29475219      177     0.65673347              0 
29629539      176     0.55838203      1575.9546 
Loop time of 1575.95 on 40 procs for 154320 steps with 176 atoms, finish time Tue Jan  3 03:32:09 2023


Pair  time (%) = 0.289446 (0.0183664)
Neigh time (%) = 2.38767 (0.151506)
Comm  time (%) = 7.05902 (0.44792)
Outpt time (%) = 0.000636423 (4.03833e-05)
Other time (%) = 1566.22 (99.3822)

Nlocal:    4.4 ave 44 max 0 min
Histogram: 32 1 2 2 0 1 0 0 1 1
Nghost:    1.1 ave 14 max 0 min
Histogram: 34 1 2 0 1 0 1 0 0 1
Neighs:    0.05 ave 1 max 0 min
Histogram: 38 0 0 0 0 0 0 0 0 2

Total # of neighbors = 2
Ave neighs/atom = 0.0113636
Neighbor list builds = 7040
Dangerous builds = 0
write_dump all custom dump.atom_info_ac_* id type x y z radius vx vy vz density #
run 154320
Setting up run at Tue Jan  3 03:32:09 2023

Memory usage per processor = 958.989 Mbytes
    Step    Atoms         KinEng            CPU 
29629539      176     0.55838203              0 
29783859      174     0.61075385      1568.8428 
Loop time of 1568.84 on 40 procs for 154320 steps with 174 atoms, finish time Tue Jan  3 03:58:18 2023


Pair  time (%) = 0.28829 (0.0183759)
Neigh time (%) = 1.95072 (0.124342)
Comm  time (%) = 5.58411 (0.355938)
Outpt time (%) = 0.000498873 (3.17988e-05)
Other time (%) = 1561.02 (99.5013)

Nlocal:    4.35 ave 43 max 0 min
Histogram: 31 1 2 3 1 0 0 0 1 1
Nghost:    1 ave 13 max 0 min
Histogram: 34 1 2 0 2 0 0 0 0 1
Neighs:    0.075 ave 1 max 0 min
Histogram: 37 0 0 0 0 0 0 0 0 3

Total # of neighbors = 3
Ave neighs/atom = 0.0172414
Neighbor list builds = 5763
Dangerous builds = 27
write_dump all custom dump.atom_info_ac_* id type x y z radius vx vy vz density #
run 154320
Setting up run at Tue Jan  3 03:58:18 2023

Memory usage per processor = 958.989 Mbytes
    Step    Atoms         KinEng            CPU 
29783859      174     0.61075385              0 
29938179      172     0.67832282      1566.6973 
Loop time of 1566.7 on 40 procs for 154320 steps with 172 atoms, finish time Tue Jan  3 04:24:25 2023


Pair  time (%) = 0.286118 (0.0182625)
Neigh time (%) = 2.18394 (0.139398)
Comm  time (%) = 6.79395 (0.433648)
Outpt time (%) = 0.000513669 (3.27868e-05)
Other time (%) = 1557.43 (99.4087)

Nlocal:    4.3 ave 43 max 0 min
Histogram: 31 1 3 2 1 0 0 0 1 1
Nghost:    1.1 ave 13 max 0 min
Histogram: 31 4 1 1 1 1 0 0 0 1
Neighs:    0.075 ave 1 max 0 min
Histogram: 37 0 0 0 0 0 0 0 0 3

Total # of neighbors = 3
Ave neighs/atom = 0.0174419
Neighbor list builds = 6539
Dangerous builds = 294
write_dump all custom dump.atom_info_ac_* id type x y z radius vx vy vz density #
run 154320
Setting up run at Tue Jan  3 04:24:25 2023

Memory usage per processor = 958.989 Mbytes
    Step    Atoms         KinEng            CPU 
29938179      172     0.67832282              0 
30092499      170     0.68045352       1566.698 
Loop time of 1566.7 on 40 procs for 154320 steps with 170 atoms, finish time Tue Jan  3 04:50:31 2023


Pair  time (%) = 0.288465 (0.0184123)
Neigh time (%) = 2.20306 (0.140618)
Comm  time (%) = 6.3416 (0.404775)
Outpt time (%) = 0.000548425 (3.50051e-05)
Other time (%) = 1557.86 (99.4362)

Nlocal:    4.25 ave 44 max 0 min
Histogram: 31 2 3 0 2 0 0 0 1 1
Nghost:    1.15 ave 12 max 0 min
Histogram: 33 1 2 0 1 1 0 1 0 1
Neighs:    0.025 ave 1 max 0 min
Histogram: 39 0 0 0 0 0 0 0 0 1

Total # of neighbors = 1
Ave neighs/atom = 0.00588235
Neighbor list builds = 6495
Dangerous builds = 0
write_dump all custom dump.atom_info_ac_* id type x y z radius vx vy vz density #
run 154320
Setting up run at Tue Jan  3 04:50:31 2023

Memory usage per processor = 958.989 Mbytes
    Step    Atoms         KinEng            CPU 
30092499      170     0.68045352              0 
30246819      170     0.60013123      1559.9222 
Loop time of 1559.92 on 40 procs for 154320 steps with 170 atoms, finish time Tue Jan  3 05:16:31 2023


Pair  time (%) = 0.286378 (0.0183585)
Neigh time (%) = 1.84314 (0.118156)
Comm  time (%) = 4.25697 (0.272896)
Outpt time (%) = 0.000517726 (3.31892e-05)
Other time (%) = 1553.54 (99.5906)

Nlocal:    4.25 ave 42 max 0 min
Histogram: 31 2 2 2 1 0 0 0 1 1
Nghost:    1.075 ave 13 max 0 min
Histogram: 34 1 1 0 1 1 1 0 0 1
Neighs:    0.025 ave 1 max 0 min
Histogram: 39 0 0 0 0 0 0 0 0 1

Total # of neighbors = 1
Ave neighs/atom = 0.00588235
Neighbor list builds = 5438
Dangerous builds = 0
write_dump all custom dump.atom_info_ac_* id type x y z radius vx vy vz density #
run 154320
Setting up run at Tue Jan  3 05:16:31 2023

Memory usage per processor = 958.989 Mbytes
    Step    Atoms         KinEng            CPU 
30246819      170     0.60013123              0 
30401139      167     0.64808179      1570.7065 
Loop time of 1570.71 on 40 procs for 154320 steps with 167 atoms, finish time Tue Jan  3 05:42:42 2023


Pair  time (%) = 0.288582 (0.0183727)
Neigh time (%) = 2.03726 (0.129704)
Comm  time (%) = 5.0041 (0.318589)
Outpt time (%) = 0.000517279 (3.29329e-05)
Other time (%) = 1563.38 (99.5333)

Nlocal:    4.175 ave 43 max 0 min
Histogram: 31 1 3 3 0 0 0 0 1 1
Nghost:    0.95 ave 13 max 0 min
Histogram: 34 1 2 1 0 0 0 1 0 1
Neighs:    0.025 ave 1 max 0 min
Histogram: 39 0 0 0 0 0 0 0 0 1

Total # of neighbors = 1
Ave neighs/atom = 0.00598802
Neighbor list builds = 6196
Dangerous builds = 309
write_dump all custom dump.atom_info_ac_* id type x y z radius vx vy vz density #
run 154320
Setting up run at Tue Jan  3 05:42:42 2023

Memory usage per processor = 958.989 Mbytes
    Step    Atoms         KinEng            CPU 
30401139      167     0.64808179              0 
30555459      165     0.50848235      1573.3849 
Loop time of 1573.39 on 40 procs for 154320 steps with 165 atoms, finish time Tue Jan  3 06:08:56 2023


Pair  time (%) = 0.291083 (0.0185004)
Neigh time (%) = 2.46783 (0.156848)
Comm  time (%) = 5.33491 (0.339072)
Outpt time (%) = 0.000443013 (2.81567e-05)
Other time (%) = 1565.29 (99.4856)

Nlocal:    4.125 ave 42 max 0 min
Histogram: 31 3 1 2 0 1 0 0 1 1
Nghost:    1.175 ave 16 max 0 min
Histogram: 32 4 1 1 0 1 0 0 0 1
Neighs:    0.05 ave 2 max 0 min
Histogram: 39 0 0 0 0 0 0 0 0 1

Total # of neighbors = 2
Ave neighs/atom = 0.0121212
Neighbor list builds = 7350
Dangerous builds = 272
write_dump all custom dump.atom_info_ac_* id type x y z radius vx vy vz density #
run 154320
Setting up run at Tue Jan  3 06:08:56 2023

Memory usage per processor = 958.989 Mbytes
    Step    Atoms         KinEng            CPU 
30555459      165     0.50848235              0 
30709779      165     0.46742733      1575.6132 
Loop time of 1575.61 on 40 procs for 154320 steps with 165 atoms, finish time Tue Jan  3 06:35:11 2023


Pair  time (%) = 0.29033 (0.0184265)
Neigh time (%) = 2.31183 (0.146726)
Comm  time (%) = 4.91343 (0.311842)
Outpt time (%) = 0.00323317 (0.000205201)
Other time (%) = 1568.09 (99.5228)

Nlocal:    4.125 ave 44 max 0 min
Histogram: 31 2 3 1 1 0 0 0 1 1
Nghost:    1.275 ave 15 max 0 min
Histogram: 33 1 3 0 1 0 1 0 0 1
Neighs:    0.2 ave 4 max 0 min
Histogram: 35 0 4 0 0 0 0 0 0 1

Total # of neighbors = 8
Ave neighs/atom = 0.0484848
Neighbor list builds = 6796
Dangerous builds = 0
write_dump all custom dump.atom_info_ac_* id type x y z radius vx vy vz density #
run 154320
Setting up run at Tue Jan  3 06:35:12 2023

Memory usage per processor = 958.989 Mbytes
    Step    Atoms         KinEng            CPU 
30709779      165     0.46742733              0 
30864099      163     0.50291384      1567.3117 
Loop time of 1567.31 on 40 procs for 154320 steps with 163 atoms, finish time Tue Jan  3 07:01:19 2023


Pair  time (%) = 0.293078 (0.0186994)
Neigh time (%) = 2.13834 (0.136434)
Comm  time (%) = 4.89981 (0.312625)
Outpt time (%) = 0.000535969 (3.41967e-05)
Other time (%) = 1559.98 (99.5322)

Nlocal:    4.075 ave 41 max 0 min
Histogram: 31 2 2 2 1 0 0 0 1 1
Nghost:    1.05 ave 13 max 0 min
Histogram: 33 2 2 0 1 0 0 1 0 1
Neighs:    0.15 ave 4 max 0 min
Histogram: 37 0 2 0 0 0 0 0 0 1

Total # of neighbors = 6
Ave neighs/atom = 0.0368098
Neighbor list builds = 6297
Dangerous builds = 0
write_dump all custom dump.atom_info_ac_* id type x y z radius vx vy vz density #
run 97
Setting up run at Tue Jan  3 07:01:19 2023

Memory usage per processor = 958.989 Mbytes
    Step    Atoms         KinEng            CPU 
30864099      163     0.50291384              0 
30864196      163     0.50290976     0.95026457 
Loop time of 0.950281 on 40 procs for 97 steps with 163 atoms, finish time Tue Jan  3 07:01:20 2023


Pair  time (%) = 0.000172748 (0.0181787)
Neigh time (%) = 0.00103954 (0.109392)
Comm  time (%) = 0.00201179 (0.211704)
Outpt time (%) = 0.000174478 (0.0183607)
Other time (%) = 0.946882 (99.6424)

Nlocal:    4.075 ave 41 max 0 min
Histogram: 31 2 2 2 1 0 0 0 1 1
Nghost:    1.05 ave 13 max 0 min
Histogram: 33 2 2 0 1 0 0 1 0 1
Neighs:    0.15 ave 4 max 0 min
Histogram: 37 0 2 0 0 0 0 0 0 1

Total # of neighbors = 6
Ave neighs/atom = 0.0368098
Neighbor list builds = 3
Dangerous builds = 0
write_dump all custom dump.atom_info_ac_* id type x y z radius vx vy vz density #
