ITEM: TIMESTEP
56182905
ITEM: NUMBER OF ATOMS
3729
ITEM: BOX BOUNDS ff ff ff
-0.15 0.15
-0.15 0.15
-0.15 0.15
ITEM: ATOMS id type x y z radius vx vy vz density 
71 1 -0.00502976 -0.0279225 -0.0687005 0.000116 -10.8706 0.189341 0.795786 2650 
1735 1 -0.0112293 -0.0425274 -0.0679625 0.000116 -10.7067 0.0754786 1.76894 2650 
3210 1 -0.00918352 -0.0393736 -0.0679606 0.000423 -10.5948 -0.0270196 1.43147 2650 
1818 1 -0.00757398 -0.0354598 -0.0684667 0.000116 -11.1367 -0.123418 1.23232 2650 
3413 1 -0.00347152 -0.0329229 -0.0684907 0.000423 -11.0232 -0.0704904 0.557944 2650 
3285 1 -0.00822382 -0.0111663 -0.0684664 4.2e-05 -9.44949 -0.107869 1.1352 2650 
1464 1 -0.00264095 -0.00383438 -0.0685274 0.000423 -9.88541 -0.00580918 0.385652 2650 
1933 1 -0.00614551 -0.00169919 -0.0686093 0.000116 -9.28209 -0.0593502 0.834865 2650 
3911 1 -0.00627961 -0.000273556 -0.0685972 0.000116 -9.60648 -0.0156489 0.878529 2650 
1591 1 -0.0114832 -0.0600518 -0.0676099 0.000423 -10.6741 -0.0185405 1.81303 2650 
2394 1 -0.0142485 -0.0320211 -0.0673926 0.000116 -10.5861 -0.0297284 2.23822 2650 
3491 1 -0.015598 -0.00299108 -0.0670936 0.000116 -9.06138 -0.0432021 2.11827 2650 
1444 1 -0.0156159 -0.0434194 -0.0667763 0.000423 -10.4701 0.049377 2.44846 2650 
3161 1 -0.0185631 -0.025555 -0.0663351 0.000116 -10.5775 0.195323 2.95912 2650 
2274 1 -0.0179185 -0.0237236 -0.0665097 0.000116 -10.4419 0.0768295 2.81296 2650 
3026 1 -0.0168726 -0.018013 -0.066785 0.000116 -9.51104 0.170805 2.3988 2650 
2953 1 -0.0173608 -0.00336678 -0.0666584 0.000116 -9.32848 -0.0106821 2.41948 2650 
402 1 -0.0165723 -0.00355266 -0.0668578 0.000116 -9.34942 -0.0841321 2.31871 2650 
4251 1 -0.0201759 -0.0170631 -0.0658618 0.000116 -9.27191 0.0847535 2.85375 2650 
422 1 -0.0231402 -0.0285536 -0.0648778 0.000116 -10.1575 -0.00515176 3.62393 2650 
633 1 -0.0220242 -0.0201339 -0.0652663 0.000116 -10.1319 0.16178 3.41961 2650 
671 1 -0.0231238 -0.0585666 -0.0643166 0.000656 -10.1028 0.0288778 3.63227 2650 
3183 1 -0.0252241 -0.0570975 -0.0641789 4.2e-05 -10.0894 -0.784113 3.96486 2650 
2361 1 -0.0239104 -0.0493179 -0.0642747 0.000423 -10.0997 0.00111229 3.75712 2650 
3015 1 -0.024583 -0.0465555 -0.0640205 0.000423 -10.0548 0.00128377 3.86087 2650 
1176 1 -0.0244978 -0.0352063 -0.0643806 0.000116 -10.0769 0.0655719 3.83445 2650 
2542 1 -0.0239802 -0.0348848 -0.0642485 0.000423 -10.0621 -0.0221909 3.75567 2650 
1083 1 -0.0241744 -0.0298581 -0.0645027 0.000116 -10.0997 0.101234 3.78496 2650 
3611 1 -0.0256199 -0.0268687 -0.0640218 4.2e-05 -10.0364 -0.0680639 4.0162 2650 
873 1 -0.0247558 -0.010777 -0.0643608 4.2e-05 -8.63235 0.00826655 3.32487 2650 
483 1 -0.0267278 -0.0523514 -0.0631554 0.000423 -9.97542 0.0444081 4.22153 2650 
574 1 -0.0253621 -0.0328532 -0.0637159 0.000423 -10.0262 0.0212458 3.99043 2650 
1207 1 -0.0278351 -0.0296361 -0.0630907 4.2e-05 -9.8904 0.0701614 4.36362 2650 
424 1 -0.0260137 -0.0252737 -0.0637832 0.000116 -10.1443 -0.138007 4.13745 2650 
3137 1 -0.0260797 -0.0231537 -0.0637557 0.000116 -10.0438 0.0456516 4.10844 2650 
398 1 -0.0270571 -0.00278148 -0.0633476 0.000116 -8.88953 -0.0760868 3.79869 2650 
1323 1 -0.0264956 -0.0535317 -0.0630026 0.000656 -9.86249 0.0188686 4.14767 2650 
4106 1 -0.027218 -0.0498498 -0.0629462 0.000423 -9.88758 -0.0084908 4.27538 2650 
3540 1 -0.0286855 -0.0309602 -0.0622908 0.000423 -9.81861 -0.0426038 4.52024 2650 
2647 1 -0.0267801 -0.0291043 -0.0628812 0.000656 -9.98073 0.0180021 4.25228 2650 
3041 1 -0.0284622 -0.0281504 -0.0627289 0.000116 -9.83297 -0.0284732 4.46152 2650 
92 1 -0.0281563 -0.0268163 -0.0628671 0.000116 -9.93638 0.139534 4.45085 2650 
1613 1 -0.0277533 -0.0264281 -0.063046 0.000116 -9.9465 0.0812754 4.37838 2650 
3456 1 -0.0286834 -0.025236 -0.0622918 0.000423 -9.59281 0.0958107 4.41693 2650 
753 1 -0.0291466 -0.01244 -0.0624142 0.000116 -8.43985 -0.444892 3.94015 2650 
4228 1 -0.0286519 -0.00424332 -0.0626424 0.000116 -8.86408 -0.0642397 4.05597 2650 
3047 1 -0.0285526 -0.00240702 -0.0626874 0.000116 -8.80278 -0.0097112 4.00941 2650 
3265 1 -0.0289171 -0.00155651 -0.0625204 0.000116 -8.80248 0.106926 4.07069 2650 
3603 1 -0.029014 -0.000115996 -0.0624753 0.000116 -8.96875 -5.41941e-05 4.16571 2650 
4036 1 -0.0284367 -0.000338463 -0.0627404 0.000116 -8.90142 0.0314464 4.03684 2650 
4225 1 -0.0302737 -0.0311474 -0.0618756 0.000116 -9.72324 0.0773878 4.75712 2650 
1454 1 -0.0300068 -0.02935 -0.0616658 0.000423 -9.73269 -0.0184747 4.73539 2650 
12 1 -0.0287431 -0.0291693 -0.0620098 0.000656 -9.72548 0.00422581 4.50803 2650 
1415 1 -0.0303087 -0.0279704 -0.0618584 0.000116 -9.61908 0.226645 4.71296 2650 
4203 1 -0.0290824 -0.0280189 -0.0621068 0.000423 -9.77787 0.0166246 4.57866 2650 
308 1 -0.0305566 -0.0270917 -0.0617362 0.000116 -9.82595 0.0371026 4.86353 2650 
1523 1 -0.02973 -0.0263483 -0.0621383 0.000116 -9.82554 -0.00601546 4.70102 2650 
3121 1 -0.0294331 -0.0255642 -0.0619405 0.000423 -9.57394 0.166316 4.54956 2650 
527 1 -0.0300074 -0.0208767 -0.0620047 0.000116 -9.70664 0.0632167 4.69724 2650 
515 1 -0.0309188 -0.000116005 -0.0615551 0.000116 -8.85372 0.000631155 4.44881 2650 
659 1 -0.0305427 -4.19976e-05 -0.061825 4.2e-05 -8.87527 -0.00018022 4.38742 2650 
293 1 -0.0296651 -0.000115993 -0.0621691 0.000116 -8.92748 -0.000466934 4.25899 2650 
956 1 -0.0294549 -0.000115997 -0.0622687 0.000116 -8.94128 -2.73804e-05 4.22977 2650 
1863 1 -0.030046 -4.20032e-05 -0.0620677 4.2e-05 -8.90622 5.72533e-05 4.31342 2650 
3139 1 -0.0298907 -0.000115997 -0.0620606 0.000116 -8.91128 6.8583e-06 4.29201 2650 
1833 1 -0.0301307 -0.000115997 -0.0619448 0.000116 -8.8927 -0.000176389 4.32531 2650 
51 1 -0.0304821 -0.0623458 -0.0614316 0.000423 -9.65167 0.00125922 4.78908 2650 
2 1 -0.03025 -0.050703 -0.0612892 0.000656 -9.62729 -1.28229e-05 4.75167 2650 
3098 1 -0.030582 -0.0319708 -0.061383 0.000423 -9.64401 -0.0732034 4.80477 2650 
3785 1 -0.0314158 -0.0270182 -0.0613034 0.000116 -9.66347 -0.10591 4.95201 2650 
3182 1 -0.0323241 -4.20027e-05 -0.0609125 4.2e-05 -8.7345 0.000965167 4.6378 2650 
1177 1 -0.0321378 -0.000115997 -0.0609274 0.000116 -8.75965 -7.83253e-06 4.62057 2650 
3720 1 -0.0319724 -4.19994e-05 -0.061098 4.2e-05 -8.77871 4.15749e-08 4.5905 2650 
2298 1 -0.0318202 -0.000116014 -0.061094 0.000116 -8.78076 -0.000683776 4.57022 2650 
102 1 -0.0312743 -4.19994e-05 -0.0614578 4.2e-05 -8.8374 -6.09933e-09 4.49712 2650 
1522 1 -0.0311339 -0.000115997 -0.0614465 0.000116 -8.83609 2.12855e-07 4.4753 2650 
3938 1 -0.0317127 -4.19994e-05 -0.0612328 4.2e-05 -8.80532 -3.19e-08 4.56015 2650 
1061 1 -0.0315714 -0.000115997 -0.061223 0.000116 -8.80577 7.78537e-07 4.53897 2650 
1289 1 -0.0313635 -0.000115999 -0.0613296 0.000116 -8.81964 -0.000197251 4.51237 2650 
1481 1 -0.0332719 -0.0603604 -0.0599664 0.000423 -9.39547 -0.0471306 5.21269 2650 
908 1 -0.0325958 -0.0552809 -0.0603375 0.000423 -9.47776 0.000483615 5.12011 2650 
2436 1 -0.0328937 -0.0517084 -0.0601758 0.000423 -9.45248 0.000150829 5.16698 2650 
333 1 -0.0317409 -0.0502223 -0.0605306 0.000656 -9.50812 2.08642e-05 4.98585 2650 
1572 1 -0.033265 -0.0340582 -0.0599709 0.000423 -9.45684 -0.0327577 5.24556 2650 
1621 1 -0.0330601 -0.0334012 -0.0604329 0.000116 -9.38778 0.027238 5.13544 2650 
2004 1 -0.0325515 -0.0329471 -0.0603611 0.000423 -9.42885 -0.00139071 5.08304 2650 
1252 1 -0.0332241 -0.0322644 -0.0599939 0.000423 -9.39564 0.0305646 5.20327 2650 
710 1 -0.0324887 -0.0321041 -0.0603956 0.000423 -9.4445 0.000363866 5.08039 2650 
2031 1 -0.0323985 -0.0312386 -0.0604439 0.000423 -9.52017 0.0262931 5.10301 2650 
3169 1 -0.0328549 -0.0270695 -0.0605442 0.000116 -9.44956 -0.0151111 5.12795 2650 
3915 1 -0.0339434 -0.0258854 -0.0599408 0.000116 -9.31191 0.187743 5.27341 2650 
3347 1 -0.032075 -0.018335 -0.0606147 0.000423 -8.64893 0.00156321 4.57702 2650 
3329 1 -0.0335401 -0.0559142 -0.0598177 0.000423 -9.39597 -0.00107708 5.26838 2650 
2651 1 -0.0342286 -0.0540803 -0.0594266 0.000423 -9.34144 0.0006397 5.38033 2650 
4056 1 -0.0335237 -0.0523333 -0.059562 0.000656 -9.35597 3.78338e-05 5.26589 2650 
3425 1 -0.0345311 -0.0521034 -0.0592515 0.000423 -9.30721 6.35236e-06 5.42414 2650 
3668 1 -0.0334104 -0.0330846 -0.0598901 0.000423 -9.38584 0.0305849 5.23593 2650 
4377 1 -0.034612 -4.20031e-05 -0.0596423 4.2e-05 -8.59359 -1.65231e-05 4.98256 2650 
35 1 -0.0356781 -0.0538378 -0.0585673 0.000423 -9.19512 -0.0123516 5.60149 2650 
65 1 -0.0363384 -0.0346457 -0.058518 0.000116 -9.19652 -0.251836 5.71146 2650 
235 1 -0.0350504 -0.0331984 -0.0589454 0.000423 -9.19731 0.0458413 5.46936 2650 
1206 1 -0.0355925 -0.0301504 -0.059062 4.2e-05 -9.23996 0.309749 5.56958 2650 
2120 1 -0.0355764 -0.0233584 -0.058628 0.000423 -9.19843 0.0237844 5.58174 2650 
2211 1 -0.0363814 -0.0606369 -0.0578594 0.000656 -9.08666 0.000587665 5.7136 2650 
3367 1 -0.0372247 -0.0385827 -0.0579566 0.000116 -9.19781 -0.0952883 5.90723 2650 
1509 1 -0.0370236 -0.0260763 -0.058087 0.000116 -9.14739 0.080389 5.83057 2650 
1096 1 -0.0370415 -4.19995e-05 -0.0581643 4.2e-05 -8.43355 2.73684e-06 5.37229 2650 
2679 1 -0.0376924 -0.0547252 -0.057292 0.000423 -8.99943 3.5719e-05 5.92073 2650 
2766 1 -0.0380857 -0.0266321 -0.0570294 0.000423 -8.91052 -0.0667225 5.95109 2650 
86 1 -0.0128569 -0.0131131 -0.0570597 0.000116 -1.91013 -0.823591 -8.58875 2650 
4124 1 -0.0389128 -0.0114936 -0.0568277 0.000116 -8.01679 0.132551 5.47507 2650 
3444 1 -0.0390017 -0.062344 -0.0564081 0.000423 -8.86275 -0.00298456 6.12795 2650 
2430 1 -0.0396633 -0.0537019 -0.0556612 0.000656 -8.74318 -1.15246e-05 6.23026 2650 
3782 1 -0.0402633 -0.0251517 -0.0555139 0.000423 -8.82599 0.0335285 6.40413 2650 
3903 1 -0.0403132 -0.00114567 -0.0558552 0.000116 -7.86473 -0.042868 5.67425 2650 
1279 1 -0.0424359 -0.0185779 -0.0542565 0.000116 -7.02625 -0.102867 5.51142 2650 
3479 1 -0.0440885 -0.0340905 -0.0529265 0.000116 -8.3197 -0.0209747 6.93048 2650 
1285 1 -0.0432903 -0.012255 -0.0535552 0.000116 -7.70497 -0.0586173 6.24575 2650 
1333 1 -0.0440316 -0.0416584 -0.0526516 0.000423 -8.2705 -9.1455e-07 6.91646 2650 
2337 1 -0.044653 -0.0390613 -0.0520488 0.000423 -8.17428 0.017262 7.01273 2650 
3204 1 -0.0438696 -0.0385572 -0.0527112 0.000423 -8.28328 0.00469989 6.89389 2650 
2626 1 -0.0444728 -0.0377844 -0.0526038 0.000116 -8.3227 -0.0369728 7.03633 2650 
4199 1 -0.0444866 -0.0340784 -0.0521911 0.000423 -8.19646 -0.00481738 6.9865 2650 
1780 1 -0.0445076 -0.0330283 -0.0521728 0.000423 -8.1938 -0.00276249 6.98998 2650 
1290 1 -0.0446521 -0.0319689 -0.0524518 0.000116 -8.2301 -0.0331467 7.00621 2650 
2174 1 -0.0449176 -0.0318919 -0.0522246 0.000116 -8.19904 -0.00365949 7.05187 2650 
4108 1 -0.0447718 -0.038143 -0.051947 0.000423 -8.15923 0.0035916 7.03224 2650 
1031 1 -0.0452002 -0.0368814 -0.051574 0.000423 -8.08989 0.0748471 7.09174 2650 
1014 1 -0.0449566 -0.0346538 -0.0517865 0.000423 -8.13134 -0.00702445 7.05899 2650 
605 1 -0.0450783 -0.0334132 -0.0516809 0.000423 -8.11707 -0.00135931 7.08009 2650 
3255 1 -0.04531 -0.0329711 -0.0518846 0.000116 -8.15557 -0.00306809 7.12202 2650 
1379 1 -0.0457188 -0.0329879 -0.0515248 0.000116 -8.09327 0.000262696 7.18129 2650 
160 1 -0.0453638 -0.0324733 -0.0514307 0.000423 -8.07785 -0.00109232 7.12499 2650 
1410 1 -0.0455993 -0.0320316 -0.0516306 0.000116 -8.10974 -0.00117113 7.16237 2650 
3991 1 -0.0448318 -0.0155531 -0.0518948 0.000423 -7.41064 -0.0360554 6.39768 2650 
400 1 -0.0465666 -0.035254 -0.0507597 0.000116 -7.97728 0.0304381 7.31825 2650 
1552 1 -0.0457084 -0.0332888 -0.0508139 0.000656 -7.98091 -0.00117784 7.17904 2650 
3702 1 -0.0465416 -0.0331012 -0.0507827 0.000116 -7.97632 0.0199751 7.31016 2650 
3701 1 -0.0466233 -0.0292277 -0.0507078 0.000116 -7.85499 -0.0791143 7.22214 2650 
1500 1 -0.0466185 -0.0285088 -0.0507122 0.000116 -8.13668 -0.119714 7.47974 2650 
2079 1 -0.0469682 -5.0165e-05 -0.0504893 4.2e-05 -7.20643 0.000319051 6.70718 2650 
2066 1 -0.0470586 -0.0397984 -0.0503042 0.000116 -7.62061 -0.0684688 7.1239 2650 
2765 1 -0.0470186 -0.0393407 -0.0499222 0.000423 -7.86309 -0.0406538 7.40708 2650 
406 1 -0.0475375 -0.0331803 -0.0498522 0.000116 -7.82047 -0.0292711 7.45745 2650 
3868 1 -0.0467058 -0.0329347 -0.0502152 0.000423 -7.92167 -0.0298647 7.36934 2650 
416 1 -0.0474025 -0.027157 -0.0499802 0.000116 -7.77087 0.03484 7.36996 2650 
2153 1 -0.0469841 -0.0171916 -0.0503734 0.000116 -7.63108 -0.202129 7.11789 2650 
2070 1 -0.0470107 -0.00489954 -0.0503484 0.000116 -7.52865 -0.414193 7.02903 2650 
1556 1 -0.047543 -0.0349108 -0.049423 0.000423 -7.74131 0.00513405 7.44722 2650 
4250 1 -0.0478889 -0.0313789 -0.0495147 0.000116 -7.73116 -0.0122374 7.47734 2650 
1600 1 -0.048215 -0.0259552 -0.0491969 0.000116 -7.40282 0.138831 7.25483 2650 
1182 1 -0.0485705 -0.000115997 -0.0488455 0.000116 -7.00986 4.03722e-06 6.96941 2650 
1261 1 -0.0482713 -0.0350284 -0.0487125 0.000423 -7.62801 -0.00421273 7.55889 2650 
1304 1 -0.0490523 -0.0340371 -0.0483624 0.000116 -7.5986 0.0784449 7.7069 2650 
2165 1 -0.0492452 -0.000115997 -0.0481653 0.000116 -6.91824 2.07876e-07 7.07148 2650 
3390 1 -0.0488179 -0.000116013 -0.0485986 0.000116 -6.97662 0.000216483 7.01201 2650 
870 1 -0.0489549 -4.19994e-05 -0.0485652 4.2e-05 -6.97303 1.4541e-08 7.02737 2650 
341 1 -0.0493519 -0.0360764 -0.0472829 0.000656 -7.41546 -0.0121236 7.73951 2650 
2166 1 -0.0498836 -0.0354428 -0.0475045 0.000116 -7.35832 0.0292516 7.72669 2650 
3578 1 -0.0499617 -0.0343271 -0.0474228 0.000116 -7.4829 -0.0264437 7.88355 2650 
3599 1 -0.0499854 -0.0301958 -0.047398 0.000116 -7.42619 -0.0399741 7.83136 2650 
854 1 -0.0500443 -0.0263118 -0.0473349 0.000116 -7.19998 0.111209 7.61115 2650 
517 1 -0.0495589 -0.00112633 -0.0478424 0.000116 -6.81968 0.0414233 7.06287 2650 
4069 1 -0.0503965 -0.0358202 -0.0465108 0.000423 -7.22641 0.00494888 7.83003 2650 
364 1 -0.0499646 -0.0336748 -0.0469747 0.000423 -7.39181 -0.00824401 7.8623 2650 
2571 1 -0.0502746 -0.0289835 -0.0466425 0.000423 -6.92437 0.0359911 7.45528 2650 
1530 1 -0.0503763 -0.00489468 -0.0470895 4.2e-05 -6.54452 0.179726 7.00219 2650 
3583 1 -0.0509205 -0.0321856 -0.046392 0.000116 -7.30357 -0.0790284 8.01629 2650 
2917 1 -0.0510197 -0.0303821 -0.0462829 0.000116 -7.22843 0.195103 7.9683 2650 
1038 1 -0.0508149 -0.0246891 -0.0460526 0.000423 -7.00413 -0.126606 7.72737 2650 
327 1 -0.0516756 -4.19994e-05 -0.0456597 4.2e-05 -6.51685 2.28572e-08 7.37268 2650 
1967 1 -0.0512502 -0.000116007 -0.0460263 0.000116 -6.6688 0.00037341 7.41541 2650 
2691 1 -0.0513611 -0.0530809 -0.045444 0.000423 -7.13827 1.31473e-05 8.06772 2650 
2544 1 -0.0515234 -0.0325896 -0.0452598 0.000423 -6.84027 -0.0765046 7.78968 2650 
1747 1 -0.0516457 -0.018049 -0.0455816 0.000116 -6.98286 -0.724536 7.91184 2650 
2927 1 -0.0516926 -0.0129685 -0.0455298 0.000116 -6.518 -0.100996 7.39899 2650 
2713 1 -0.0520649 -0.00664011 -0.045103 0.000116 -2.13715 -0.194258 2.47331 2650 
325 1 -0.0517426 -0.00187964 -0.0455833 4.2e-05 -6.46173 0.101324 7.33333 2650 
336 1 -0.0516138 -0.0539123 -0.0448044 0.000656 -7.0379 0.000135211 8.10752 2650 
2879 1 -0.052312 -0.0387461 -0.0443444 0.000423 -6.94699 0.0306675 8.19524 2650 
952 1 -0.0523896 -0.032275 -0.0447267 0.000116 -7.09178 -0.13131 8.30676 2650 
496 1 -0.0528663 -0.00340877 -0.0441597 0.000116 -6.14346 -0.172596 7.35435 2650 
4001 1 -0.0527672 -0.0382792 -0.0438012 0.000423 -6.87279 -0.0026549 8.27971 2650 
3024 1 -0.053405 -0.0282198 -0.0435083 0.000116 -6.82012 -0.0687651 8.37155 2650 
1157 1 -0.0536885 -0.0424273 -0.0431565 0.000116 -6.77053 -0.121709 8.42259 2650 
3633 1 -0.0535145 -0.0362432 -0.0428861 0.000423 -6.76491 0.0119486 8.4414 2650 
4212 1 -0.0536417 -0.0351521 -0.0427273 0.000423 -6.70398 -0.0194555 8.41652 2650 
946 1 -0.0541707 -0.0336164 -0.0425519 0.000116 -6.63932 0.0629356 8.45226 2650 
647 1 -0.0541043 -0.0183745 -0.0426327 0.000116 -6.84573 1.08807 8.68835 2650 
313 1 -0.0540217 -0.002474 -0.0427382 0.000116 -5.96022 -0.0940337 7.52566 2650 
3409 1 -0.0537626 -0.062144 -0.0422007 0.000656 -6.62886 1.5415e-10 8.44501 2650 
286 1 -0.0548505 -0.0390872 -0.0416702 0.000116 -6.60733 0.0269882 8.69733 2650 
3501 1 -0.0546084 -4.19994e-05 -0.042108 4.2e-05 -6.05496 9.26203e-09 7.85137 2650 
2417 1 -0.0546745 -4.19994e-05 -0.0420221 4.2e-05 -6.0337 -5.88093e-07 7.85165 2650 
1859 1 -0.0547298 -4.19998e-05 -0.0419502 4.2e-05 -6.02197 0.000275236 7.85977 2650 
213 1 -0.0544627 -4.20041e-05 -0.0422967 4.2e-05 -6.07807 -0.00151171 7.8307 2650 
2952 1 -0.0543305 -0.000116011 -0.042346 0.000116 -6.08688 -8.73981e-05 7.81184 2650 
4255 1 -0.0544771 -0.000115997 -0.0421575 0.000116 -6.06229 2.71181e-07 7.83018 2650 
4254 1 -0.0550274 -0.000115995 -0.0414366 0.000116 -5.95739 -0.000138284 7.91063 2650 
1280 1 -0.0548447 -0.000115997 -0.0416779 0.000116 -5.99371 -6.83844e-07 7.88574 2650 
2523 1 -0.0551715 -4.19994e-05 -0.0413675 4.2e-05 -5.94372 2.30583e-08 7.92425 2650 
2812 1 -0.0559141 -0.0363753 -0.0402325 0.000116 -6.41383 0.000633999 8.91453 2650 
3875 1 -0.0563848 -0.0373775 -0.0390356 0.000423 -6.16088 -0.0360603 8.89912 2650 
4023 1 -0.0573988 -0.0409468 -0.0380834 0.000116 -6.00804 -0.173134 9.05528 2650 
1965 1 -0.0576398 -0.0345096 -0.0377184 0.000116 -5.86617 -0.0746709 8.9643 2650 
1382 1 -0.0576346 -0.000115997 -0.0377264 0.000116 -5.42866 2.59798e-07 8.28715 2650 
1952 1 -0.0574726 -0.000115997 -0.0379721 0.000116 -5.46182 6.21568e-06 8.26556 2650 
2398 1 -0.057859 -0.0316554 -0.0373804 0.000116 -5.96965 0.172689 9.23897 2650 
1834 1 -0.0580974 -0.000115996 -0.0370091 0.000116 -5.32389 -7.44198e-05 8.35981 2650 
1119 1 -0.0579104 -0.0376621 -0.0367333 0.000423 -5.76836 -0.0128304 9.09449 2650 
630 1 -0.0583581 -0.00255232 -0.0365903 0.000116 -4.84773 -0.0520927 7.71935 2650 
1062 1 -0.0582512 -0.000115997 -0.0367667 0.000116 -5.29144 -2.38341e-07 8.38047 2650 
425 1 -0.0585286 -0.000115997 -0.0363234 0.000116 -5.22845 -3.18602e-06 8.42219 2650 
476 1 -0.0587327 -0.046018 -0.0354025 0.000423 -5.58467 -0.0465087 9.26228 2650 
4143 1 -0.0589292 -0.0184858 -0.0356615 0.000116 -5.32825 0.0615375 8.801 2650 
2958 1 -0.0587406 -0.00181167 -0.0361192 4.2e-05 -5.12461 -0.172664 8.3123 2650 
465 1 -0.058972 -0.0372052 -0.0350038 0.000423 -5.515 0.0755791 9.29118 2650 
4011 1 -0.0595137 -0.0335429 -0.0346862 0.000116 -5.48158 0.0465063 9.40546 2650 
2822 1 -0.0593236 -0.0268355 -0.0350098 0.000116 -5.32052 -0.100535 9.0148 2650 
4120 1 -0.0593225 -0.000115996 -0.0350099 0.000116 -5.04169 -3.45142e-05 8.54088 2650 
2862 1 -0.0590558 -0.054501 -0.0344057 0.000656 -5.40444 -0.035302 9.27647 2650 
4312 1 -0.0593838 -0.0416567 -0.0344122 0.000423 -5.40545 -1.08112e-10 9.32798 2650 
1162 1 -0.0599769 -0.0241478 -0.0338647 0.000116 -5.07815 0.113446 8.98537 2650 
2846 1 -0.0598247 -0.000570644 -0.0342955 4.2e-05 -4.78188 -0.109459 8.33887 2650 
1684 1 -0.0598166 -0.0416475 -0.0335408 0.000423 -5.1624 -0.117256 9.20604 2650 
2946 1 -0.0604695 -0.0102502 -0.0329913 0.000116 -4.53495 -0.209836 8.31267 2650 
1326 1 -0.060248 -0.062144 -0.0322725 0.000656 -5.06934 -1.93849e-09 9.46372 2650 
2728 1 -0.0606864 -0.0318178 -0.0325335 0.000116 -4.95512 -0.433615 9.24445 2650 
817 1 -0.0606268 -0.0399456 -0.032051 0.000423 -4.953 0.0583514 9.36712 2650 
2072 1 -0.0610259 -0.0276923 -0.0319055 0.000116 -5.0343 0.00610899 9.62781 2650 
3490 1 -0.0609577 -0.0229125 -0.0320761 0.000116 -4.96546 0.400387 9.43453 2650 
2645 1 -0.060989 -0.062144 -0.0308493 0.000656 -4.84589 1.56063e-07 9.5803 2650 
1990 1 -0.060919 -0.0435967 -0.0309869 0.000656 -4.87812 0.00348444 9.58898 2650 
4328 1 -0.0612392 -0.0231811 -0.0308646 0.000423 -4.83158 -0.259483 9.58477 2650 
3804 1 -0.0615302 -0.0207788 -0.0309689 0.000116 -4.72146 -0.856946 9.37973 2650 
3242 1 -0.0619605 -0.0379376 -0.0300903 0.000116 -4.58451 0.105643 9.43309 2650 
4116 1 -0.0618345 -0.0278064 -0.0303368 0.000116 -4.36281 -0.1673 8.87757 2650 
209 1 -0.000188815 -0.0337495 -0.0688835 0.000116 -10.1434 0.974583 0.0249952 2650 
49 1 -0.061932 -0.0356877 -0.0294253 0.000423 -4.66783 -0.0207432 9.8255 2650 
711 1 -0.0622873 -0.0291334 -0.0286765 0.000423 -4.4379 0.134424 9.65396 2650 
1430 1 -0.0626762 -0.00573634 -0.0287554 4.2e-05 -4.0691 -0.238125 8.87187 2650 
3760 1 -0.0627423 -0.0437483 -0.0276839 0.000423 -4.35267 0.0274295 9.86487 2650 
2428 1 -0.0625314 -0.0403442 -0.0275878 0.000656 -4.29806 0.184758 9.74184 2650 
94 1 -0.063164 -0.0284664 -0.0274772 0.000116 -4.36976 0.0115838 10.0439 2650 
2944 1 -0.0632606 -0.0100287 -0.0272619 0.000116 -3.9173 0.237375 9.08633 2650 
2182 1 -0.063403 -0.00783961 -0.0269287 0.000116 -3.65878 -0.0473379 8.61314 2650 
4373 1 -0.0635455 -0.000293122 -0.0267794 4.2e-05 -3.84575 -0.0381567 9.12314 2650 
934 1 -0.0633511 -0.0311348 -0.0262609 0.000423 -4.03296 0.00115807 9.72659 2650 
2086 1 -0.0641859 -0.0282203 -0.0252072 4.2e-05 -3.93791 0.5025 10.0279 2650 
2600 1 -0.063955 -0.0190854 -0.025588 0.000116 -3.48762 -0.279334 8.70915 2650 
1212 1 -0.0637686 -0.0532896 -0.0245967 0.000656 -3.86372 -0.000872771 10.017 2650 
1297 1 -0.0644102 -0.0294857 -0.0244222 0.000116 -3.76411 0.0316643 9.92721 2650 
4049 1 -0.0642371 -0.00139592 -0.0250745 4.2e-05 -3.51754 -0.103804 9.00789 2650 
3156 1 -0.0646769 -0.038382 -0.023704 0.000116 -3.66174 0.12913 9.99142 2650 
1915 1 -0.0646594 -0.0496479 -0.0228526 0.000423 -3.58949 -0.0253185 10.1561 2650 
2563 1 -0.0646332 -0.0481579 -0.0229261 0.000423 -3.589 -0.0101805 10.1174 2650 
3299 1 -0.0644487 -0.0388326 -0.0227522 0.000656 -3.53595 -0.00171951 10.016 2650 
1840 1 -0.0648379 -0.000115997 -0.0232601 0.000116 -3.37081 -1.64403e-06 9.39398 2650 
4026 1 -0.0651822 -0.0411102 -0.022277 0.000116 -3.43831 -0.0107551 10.0603 2650 
4239 1 -0.0650452 -0.000115998 -0.0226742 0.000116 -3.28662 0.000183164 9.4302 2650 
1867 1 -0.0652382 -4.19995e-05 -0.0223413 4.2e-05 -3.2389 1.24266e-08 9.45528 2650 
397 1 -0.0652922 -0.000115997 -0.021953 0.000116 -3.18513 2.13142e-07 9.46611 2650 
2385 1 -0.0653662 -0.000115997 -0.0217311 0.000116 -3.1506 1.93809e-06 9.47872 2650 
3395 1 -0.06548 -4.20005e-05 -0.0216231 4.2e-05 -3.13276 -0.000241285 9.49383 2650 
3504 1 -0.0655594 -4.19995e-05 -0.0213803 4.2e-05 -3.10134 1.08265e-08 9.50739 2650 
4146 1 -0.0654505 -0.000115997 -0.0214765 0.000116 -3.11681 3.92455e-08 9.49142 2650 
446 1 -0.0650773 -0.0523981 -0.02089 0.000656 -3.28143 1.32455e-05 10.2224 2650 
3398 1 -0.0657808 -0.0047733 -0.0206903 4.2e-05 -2.86974 0.175539 9.1177 2650 
701 1 -0.0655053 -0.0390845 -0.0202989 0.000423 -3.18007 -0.0810326 10.2621 2650 
3289 1 -0.0660524 -0.0106576 -0.0198082 4.2e-05 -2.70198 -0.317301 9.01671 2650 
3516 1 -0.0656069 -0.0504124 -0.0191609 0.000656 -3.00959 -0.000989729 10.3049 2650 
1597 1 -0.0660862 -0.00418519 -0.0194326 0.000116 -2.58285 -0.0312774 8.77048 2650 
4154 1 -0.0661649 -0.000181434 -0.0194264 4.2e-05 -2.74606 -0.0719395 9.35101 2650 
2786 1 -0.00273342 -0.00121122 -0.016029 0.000423 -0.0144529 -0.00662549 0.00371471 2650 
1488 1 -0.00238805 -0.0012595 -0.0165671 0.000116 -0.0106792 -0.000336358 0.0017146 2650 
1428 1 -0.067249 -0.0394455 -0.0152564 4.2e-05 -2.37045 -0.100104 10.4463 2650 
1051 1 -0.0672112 -0.0279094 -0.0150889 0.000116 -2.44156 -0.235806 10.8753 2650 
3084 1 -0.0666799 -0.0130723 -0.0149977 0.000656 -1.77166 -0.209882 7.82745 2650 
708 1 -0.00454702 -0.00258746 -0.0154709 0.000423 -0.00124462 -0.00433119 -0.00184965 2650 
2282 1 -0.00694135 -0.000857102 -0.0151697 0.000116 -0.0218022 0.0035736 0.00955015 2650 
658 1 -0.0675022 -0.00948506 -0.0140931 4.2e-05 -1.91731 -0.113841 9.18874 2650 
2201 1 -0.0670975 -0.062144 -0.0130102 0.000656 -2.04358 -3.6353e-07 10.5394 2650 
1776 1 -0.00814114 -0.00182614 -0.0133176 0.000423 -0.00636613 -0.000727868 0.0113254 2650 
1426 1 -0.0677153 -0.000113158 -0.0130307 4.2e-05 -1.8422 -0.0374667 9.57414 2650 
393 1 -0.0678079 -0.0214887 -0.0121276 0.000116 -1.71767 -0.203797 9.59983 2650 
1829 1 -0.0678261 -0.0189412 -0.0120252 0.000116 -1.85423 0.917366 10.4594 2650 
1435 1 -0.00576472 -0.00239214 -0.0111806 0.000656 0.00242597 -0.00547304 -0.00828557 2650 
3457 1 -0.0680986 -0.0209266 -0.0103732 0.000116 -1.49382 -0.124975 9.81865 2650 
255 1 -0.00859328 -0.00335449 -0.0106722 0.000423 -0.667722 -0.0263217 -0.8345 2650 
4361 1 -0.00290225 -0.00271056 -0.0103929 0.000116 0.00714664 -0.00776507 -0.0024168 2650 
2194 1 -0.00918158 -0.000441193 -0.010958 4.2e-05 -0.00152588 -0.00286897 0.00517712 2650 
1568 1 -0.0679439 -0.062345 -0.00930747 0.000423 -1.46201 2.0569e-06 10.6726 2650 
210 1 -0.0682649 -0.00354316 -0.00974211 4.2e-05 -1.37517 0.244289 9.742 2650 
339 1 -0.011038 -0.0023694 -0.00954345 0.000656 -0.006822 -0.00276167 0.00431219 2650 
2741 1 -0.0682956 -0.000276926 -0.00953416 4.2e-05 -1.33317 0.0778626 9.53977 2650 
1925 1 -0.0680235 -0.0276841 -0.00868152 0.000423 -1.35018 -0.0957409 10.5721 2650 
2932 1 -0.0682616 -0.0269338 -0.00923462 0.000116 -1.45106 0.0116774 10.7255 2650 
4362 1 -0.0683465 -0.0221312 -0.0085883 0.000116 -1.26907 -0.249148 10.1162 2650 
1541 1 -0.00631311 -0.000875668 -0.00937872 0.000656 0.0055342 -0.00393566 -0.00602813 2650 
3625 1 -0.0678672 -0.062144 -0.00808427 0.000656 -1.26987 -3.94744e-07 10.6606 2650 
3846 1 -0.0678521 -0.0286568 -0.00817547 0.000656 -1.3066 0.028733 10.8334 2650 
4158 1 -0.0685108 -0.00790448 -0.00777021 4.2e-05 -1.05409 -0.281363 9.66443 2650 
153 1 -0.0680675 -0.00639173 -0.00831641 0.000423 -1.16495 0.0865067 9.49151 2650 
2484 1 -0.0683561 -0.00320184 -0.0084586 0.000116 -1.13756 0.0398866 9.20596 2650 
3458 1 -0.0122701 -0.00247312 -0.00858494 0.000116 0.000425124 -0.00726598 0.00388432 2650 
4289 1 -0.00645611 -0.000336132 -0.00836519 0.000423 -0.00922214 6.20306e-05 -0.00375792 2650 
2858 1 -0.0679937 -0.0615239 -0.0069351 0.000656 -1.08936 -1.41707e-05 10.6804 2650 
1781 1 -0.0681852 -0.0605389 -0.00733177 0.000423 -1.15167 -1.89646e-06 10.7105 2650 
1996 1 -0.0681657 -0.0597119 -0.00750923 0.000423 -1.17955 2.35507e-05 10.7074 2650 
3986 1 -0.0681696 -0.0588665 -0.00747774 0.000423 -1.18144 8.95334e-05 10.7072 2650 
343 1 -0.0681641 -0.0534468 -0.00750414 0.000423 -1.16856 0.00516827 10.604 2650 
1453 1 -0.0681596 -0.0380908 -0.00755868 0.000423 -1.1949 0.0392312 10.7806 2650 
3670 1 -0.0681401 -0.015953 -0.00768516 0.000423 -1.11464 0.0198444 9.9659 2650 
2947 1 -0.0684873 -0.00369228 -0.00737069 0.000116 -1.01565 0.0792981 9.35058 2650 
1607 1 -0.0040751 -0.00234048 -0.00760184 0.000116 0.0196884 -0.00602013 -0.0035001 2650 
1237 1 -0.00755009 -0.000266833 -0.00758688 0.000423 0.00253913 -0.00560612 0.00084165 2650 
2506 1 -0.068605 -0.000285355 -0.00619431 0.000116 -0.90122 0.0194265 10.0294 2650 
4019 1 -0.0686455 -0.00382251 -0.00570338 0.000116 -0.765896 0.0427053 9.29063 2650 
1233 1 -0.0115432 -0.00319531 -0.00575404 0.000423 0.00255951 -0.00593379 -0.00137239 2650 
1732 1 -0.0686819 -0.00328644 -0.00523575 0.000116 -0.580977 -0.41548 7.69832 2650 
3108 1 -0.00936571 -0.00281041 -0.00513828 0.000423 -0.0107548 -0.00370994 0.00122363 2650 
1549 1 -0.0118564 -0.00208323 -0.00490705 0.000656 -0.00541789 -0.00285514 -0.00903903 2650 
1065 1 -0.0096203 -0.00218372 -0.0051069 0.000116 -0.00715999 0.00290152 0.000840922 2650 
4192 1 -0.010964 -1.45874e-05 -0.00545101 0.000423 0.00503125 -0.00264431 -0.00350398 2650 
681 1 -0.0684469 -0.0425192 -0.0042374 0.000423 -0.66872 -0.0576057 10.8038 2650 
2247 1 -0.0684533 -0.0416399 -0.00414653 0.000423 -0.64436 0.00852421 10.6457 2650 
2621 1 -0.0687385 -0.033415 -0.00442767 0.000116 -0.691272 -0.0326971 10.7259 2650 
3840 1 -0.0682759 -0.062144 -0.00311329 0.000656 -0.489029 7.09398e-08 10.7246 2650 
498 1 -0.0687879 -0.00965685 -0.00362213 0.000116 -0.502244 -0.0722086 9.57966 2650 
2502 1 -0.0126445 -0.000895641 -0.00387287 0.000116 -0.00106653 -0.0102671 -0.00497974 2650 
3869 1 -0.00238768 -0.000545723 -0.00349674 0.000423 0.00748891 -0.00783093 -0.00599499 2650 
2573 1 -0.0685376 -0.0419516 -0.00236793 0.000423 -0.371616 -0.0295909 10.7576 2650 
1466 1 -0.0685307 -0.0407503 -0.00254701 0.000423 -0.398683 -0.0390466 10.7272 2650 
2742 1 -0.0689217 -0.00417397 -0.00222249 4.2e-05 -0.313512 -0.0863966 9.87087 2650 
3781 1 -0.000594483 -0.001401 -0.00282837 0.000423 -0.0083274 -0.000945763 -0.0103572 2650 
2208 1 -0.0683271 -0.054387 -0.00167271 0.000656 -0.262711 -0.00024176 10.7315 2650 
2685 1 -0.0685473 -0.0492289 -0.00202546 0.000423 -0.317164 0.0435987 10.7342 2650 
21 1 -0.0685575 -0.0479278 -0.00164649 0.000423 -0.257661 -0.00395031 10.7261 2650 
4307 1 -0.0685608 -0.0420696 -0.00153052 0.000423 -0.24021 -0.0347361 10.7605 2650 
3693 1 -0.0688602 -0.0294305 -0.00180124 0.000116 -0.28503 -0.020507 10.9049 2650 
471 1 -0.0124054 -0.0031459 -0.00159164 0.000423 0.0108613 -0.000386294 0.00295329 2650 
150 1 -0.0163172 -0.00166329 -0.00200121 0.000423 -0.00187617 -0.00392743 0.0117145 2650 
77 1 -0.0144586 -0.00208164 -0.00186857 0.000116 0.00509066 -0.00269799 0.00834548 2650 
709 1 -0.0128394 -0.00196069 -0.00195235 0.000423 0.0015156 -0.0052084 -0.00811181 2650 
3322 1 -0.0162521 -0.000799961 -0.0021568 0.000423 -0.00990228 -0.00200593 0.00273995 2650 
652 1 -0.00490387 -0.00114403 -0.00188912 4.2e-05 0.0026571 -0.00372058 0.00480712 2650 
2418 1 -0.0689413 -9.40073e-05 -0.00151025 4.2e-05 -0.211733 -0.00844111 9.75153 2650 
1048 1 -0.01608 -0.000117974 -0.00195571 0.000116 0.00271668 0.00203565 0.00255063 2650 
3642 1 -0.0685755 -0.0554906 -0.000664987 0.000423 -0.104696 -0.0192033 10.8007 2650 
5 1 -0.0683433 -0.0406995 -0.000697122 0.000656 -0.109475 -0.013816 10.7301 2650 
2485 1 -0.0688718 -0.0229245 -0.00127869 0.000116 -0.170897 0.194285 9.48501 2650 
3259 1 -0.0163999 -0.0017877 -0.00147799 0.000116 -0.000782815 -0.00769583 0.0120088 2650 
389 1 -0.00888085 -0.000458785 -0.00134407 0.000116 -0.0116995 -0.00930625 0.00303866 2650 
3554 1 -0.0685767 -0.0569575 -0.000518017 0.000423 -0.0811031 -0.0242619 10.7348 2650 
2118 1 -0.0685783 -0.0468868 -7.43778e-05 0.000423 -0.0110002 -0.035409 10.715 2650 
916 1 -0.0685769 -0.0380533 -0.00038593 0.000423 -0.0610053 0.0149912 10.8356 2650 
685 1 -0.0685786 -0.0361898 -6.38294e-05 0.000423 -0.0101419 -0.00539789 10.7036 2650 