ITEM: TIMESTEP
41365449
ITEM: NUMBER OF ATOMS
3917
ITEM: BOX BOUNDS ff ff ff
-0.15 0.15
-0.15 0.15
-0.15 0.15
ITEM: ATOMS id type x y z radius vx vy vz density 
2619 1 -0.00277336 -0.0281536 -0.0688281 0.000116 -10.193 0.199651 0.412121 2650 
3381 1 -0.000349071 -0.0258918 -0.0688827 0.000116 -10.3208 0.0877451 0.0517103 2650 
1843 1 -0.00378118 -0.0221305 -0.0687801 0.000116 -9.08537 -1.86147 0.493841 2650 
2293 1 -0.000269993 -0.00911394 -0.0688831 0.000116 -8.70853 -0.0380976 0.028899 2650 
3707 1 -0.00410572 -0.00546624 -0.0687617 0.000116 -9.34697 0.149695 0.558159 2650 
439 1 -0.00597722 -4.19993e-05 -0.0686981 4.2e-05 -9.52516 2.65053e-07 0.83012 2650 
1969 1 -0.00561677 -4.20303e-05 -0.0687288 4.2e-05 -9.52768 0.000166628 0.779816 2650 
288 1 -0.00432847 -0.000115996 -0.0687477 0.000116 -9.50688 6.14854e-06 0.597351 2650 
1487 1 -0.00409096 -0.000115997 -0.0687625 0.000116 -9.50882 0.000292667 0.565084 2650 
871 1 -0.00213419 -0.00041775 -0.0689245 4.2e-05 -9.04085 0.0678706 0.280307 2650 
853 1 -0.00687389 -0.0294091 -0.0685408 0.000116 -9.78845 -0.138544 0.982331 2650 
2480 1 -0.0080727 -0.0292086 -0.0684098 0.000116 -10.2264 0.016305 1.20622 2650 
2051 1 -0.0101679 -0.0243878 -0.0681294 0.000116 -10.1537 -0.104767 1.51525 2650 
1162 1 -0.00944399 -0.0232104 -0.0682334 0.000116 -10.163 -0.0878641 1.40653 2650 
3416 1 -0.00690614 -0.0236465 -0.0682296 0.000423 -9.1999 -1.30638 0.925923 2650 
278 1 -0.00862587 -0.0226905 -0.0683414 0.000116 -10.2148 0.0429661 1.29027 2650 
2799 1 -0.00147232 -0.0210512 -0.0685624 0.000423 -10.1523 0.0111722 0.22082 2650 
3911 1 -0.0103594 -0.012804 -0.0681012 0.000116 -8.90309 -0.191602 1.35245 2650 
1404 1 -0.00918713 -0.0123841 -0.0682693 0.000116 -9.30934 0.226228 1.25478 2650 
3670 1 -0.00676428 -0.00115608 -0.0682432 0.000423 -4.68069 0.06137 0.461566 2650 
2419 1 -0.010574 -4.2005e-05 -0.0681423 4.2e-05 -9.32088 0.00177258 1.44997 2650 
2519 1 -0.010491 -4.19998e-05 -0.068155 4.2e-05 -9.32357 8.27171e-05 1.43705 2650 
4159 1 -0.0104079 -4.19993e-05 -0.0681677 4.2e-05 -9.3254 -6.88632e-08 1.42397 2650 
320 1 -0.0103249 -4.19993e-05 -0.0681803 4.2e-05 -9.32723 -3.65704e-07 1.41091 2650 
1752 1 -0.0086249 -4.20289e-05 -0.0684164 4.2e-05 -9.54332 -0.00101945 1.2066 2650 
3131 1 -0.00849686 -0.000116 -0.0683578 0.000116 -9.53616 -0.000125025 1.1872 2650 
3832 1 -0.00825493 -4.19993e-05 -0.0684619 4.2e-05 -9.56296 2.33954e-08 1.1504 2650 
4127 1 -0.0080376 -0.000115995 -0.0684134 0.000116 -9.54914 0.00180954 1.12414 2650 
3388 1 -0.00771656 -0.000115996 -0.0684505 0.000116 -9.55052 1.22876e-06 1.07342 2650 
4373 1 -0.00685569 -0.000396185 -0.0686162 4.2e-05 -8.7927 0.0121537 0.877049 2650 
176 1 -0.00573914 -0.000115996 -0.0686445 0.000116 -9.5214 2.04596e-07 0.793123 2650 
2821 1 -0.00541249 -0.000115996 -0.0686709 0.000116 -9.51968 -6.79965e-05 0.750608 2650 
3730 1 -0.00947649 -0.0297553 -0.067688 0.000656 -10.2715 0.170833 1.43872 2650 
1609 1 -0.0146715 -0.0279978 -0.0673011 0.000116 -8.56203 -0.470937 1.84826 2650 
3353 1 -0.0144156 -0.0272124 -0.0673577 0.000116 -10.0862 0.183764 2.16276 2650 
3152 1 -0.0137025 -0.0269809 -0.0675053 0.000116 -10.0892 0.219105 2.04423 2650 
3098 1 -0.0105554 -0.0142399 -0.0677607 0.000423 -7.05433 -0.430269 1.09178 2650 
2342 1 -0.0173247 -0.0233906 -0.0663535 0.000423 -10.0114 -0.0476011 2.61642 2650 
4338 1 -0.0183223 -0.0225311 -0.0664007 0.000116 -9.61299 -0.422707 2.65486 2650 
4217 1 -0.0179243 -0.0173931 -0.0661906 0.000423 -9.60543 -0.0459568 2.60166 2650 
1600 1 -0.0209065 -0.00759506 -0.0655994 0.000116 -9.12257 -0.0928207 2.90323 2650 
656 1 -0.0199121 -0.00689074 -0.0659922 4.2e-05 -8.6898 0.139963 2.58952 2650 
3873 1 -0.0185284 -0.00378338 -0.066027 0.000423 -9.12726 -0.209181 2.57051 2650 
3282 1 -0.0191522 -4.19999e-05 -0.0662446 4.2e-05 -8.52544 -5.62155e-05 2.46215 2650 
1977 1 -0.0194526 -0.000548634 -0.0661566 4.2e-05 -8.5302 -0.00198784 2.50487 2650 
3025 1 -0.0227884 -0.0239686 -0.0650009 0.000116 -9.81232 -0.0735544 3.4421 2650 
567 1 -0.0210063 -0.0242793 -0.0652746 0.000423 -9.94616 -0.0136465 3.19891 2650 
2910 1 -0.0222136 -0.0227396 -0.0648762 0.000423 -9.79863 -0.031554 3.35385 2650 
3551 1 -0.0218211 -0.021668 -0.0650122 0.000423 -9.7209 -0.0426767 3.2605 2650 
2399 1 -0.0231027 -0.000804311 -0.0648923 0.000116 -6.98762 -0.158904 2.52347 2650 
671 1 -0.0231584 -0.0508126 -0.0643042 0.000656 -10.1009 -0.0605698 3.63772 2650 
2361 1 -0.024081 -0.0464163 -0.0642113 0.000423 -10.0858 -0.000234197 3.78246 2650 
835 1 -0.02498 -0.0298921 -0.0641947 0.000116 -9.68358 0.334868 3.77708 2650 
980 1 -0.0249513 -4.2001e-05 -0.0642852 4.2e-05 -8.35579 6.61948e-05 3.24524 2650 
2272 1 -0.0248141 -0.000115992 -0.0642592 0.000116 -8.35023 -2.28425e-05 3.22324 2650 
1323 1 -0.0257914 -0.0475012 -0.0632934 0.000656 -9.94215 2.22023e-05 4.05132 2650 
483 1 -0.0252438 -0.046699 -0.0637632 0.000423 -10.0158 -7.99963e-05 3.96526 2650 
4106 1 -0.0262661 -0.0465339 -0.063349 0.000423 -9.9514 -0.000214348 4.12612 2650 
3015 1 -0.0249037 -0.045936 -0.0638967 0.000423 -10.0369 -4.13705e-05 3.91187 2650 
1207 1 -0.0267203 -0.0304894 -0.0635704 4.2e-05 -9.87154 -0.23002 4.14924 2650 
3566 1 -0.0264146 -0.0182072 -0.0636183 0.000116 -9.31123 0.0893732 3.86625 2650 
2871 1 -0.0256762 -0.00845304 -0.0635901 0.000423 -7.67901 0.1618 3.10414 2650 
51 1 -0.028541 -0.0578766 -0.0623572 0.000423 -9.78398 -0.0229316 4.47816 2650 
4349 1 -0.0277241 -0.0246304 -0.0630584 0.000116 -9.58102 -0.147296 4.21242 2650 
2520 1 -0.0278348 -0.0109212 -0.0630908 4.2e-05 -8.3914 0.398466 3.70363 2650 
313 1 -0.028842 -0.00444296 -0.0625552 0.000116 -7.83963 -0.31271 3.61304 2650 
4335 1 -0.028448 -0.00417096 -0.0627354 0.000116 -7.72035 -0.331448 3.50094 2650 
3507 1 -0.0282983 -0.00173792 -0.0628839 4.2e-05 -7.87362 -0.0879968 3.54631 2650 
2211 1 -0.028751 -0.0538493 -0.0620052 0.000656 -9.79939 -0.000671533 4.543 2650 
908 1 -0.0293647 -0.0529625 -0.0619736 0.000423 -9.80704 -0.00469249 4.64837 2650 
538 1 -0.0302902 -0.0304125 -0.0618675 0.000116 -9.14258 -0.0522936 4.4765 2650 
3422 1 -0.0295225 -0.0248998 -0.0618983 0.000423 -9.39922 -0.185883 4.48343 2650 
1569 1 -0.0288154 -0.0223155 -0.0622305 0.000423 -9.29712 0.0366629 4.30484 2650 
82 1 -0.0306484 -0.021154 -0.0616904 0.000116 -9.15158 -0.0274238 4.54508 2650 
2728 1 -0.0301623 -0.019167 -0.0619292 0.000116 -9.09413 0.180879 4.42785 2650 
1611 1 -0.0308226 -0.00382575 -0.0616032 0.000116 -8.06596 -0.202445 4.03374 2650 
2651 1 -0.0304664 -0.0527772 -0.0614398 0.000423 -9.6913 -0.0440323 4.80589 2650 
2 1 -0.0303361 -0.0506415 -0.0612466 0.000656 -9.62529 -0.00284193 4.76752 2650 
1074 1 -0.0310232 -0.0248537 -0.0615025 0.000116 -9.53323 -0.188077 4.80869 2650 
4113 1 -0.0311306 -0.0142773 -0.0614489 0.000116 -8.15366 0.00478041 4.12841 2650 
4337 1 -0.0322972 -0.0102454 -0.0608438 0.000116 -7.93212 -0.155038 4.21134 2650 
3329 1 -0.0320987 -0.0542894 -0.0606034 0.000423 -9.45019 -0.0367906 5.00554 2650 
333 1 -0.0316533 -0.0501262 -0.0605761 0.000656 -9.50439 -0.012393 4.96692 2650 
2436 1 -0.0328726 -0.0496793 -0.0601869 0.000423 -9.43518 -0.0350635 5.15319 2650 
1481 1 -0.0346001 -0.0544889 -0.0592106 0.000423 -9.32874 -0.0217873 5.45189 2650 
4056 1 -0.0335588 -0.0523526 -0.0595418 0.000656 -9.35567 0.0164959 5.2727 2650 
3425 1 -0.0345861 -0.0520757 -0.0592195 0.000423 -9.30883 0.0019066 5.43666 2650 
2182 1 -0.0351163 -0.0101508 -0.0592609 0.000116 -7.75616 0.355516 4.60188 2650 
3830 1 -0.034374 -0.00765476 -0.0597805 4.2e-05 -9.49909 -1.18525 5.46343 2650 
298 1 -0.0346315 -0.00508523 -0.0595452 0.000116 -7.74635 0.113437 4.49954 2650 
515 1 -0.0352112 -0.00298051 -0.0592034 0.000116 -7.2536 0.00571706 4.31433 2650 
3068 1 -0.0364476 -0.0543527 -0.0585394 4.2e-05 -9.01885 0.263689 5.61523 2650 
1612 1 -0.0352894 -0.0316626 -0.059158 0.000116 -9.43213 0.289183 5.62625 2650 
1572 1 -0.0354917 -0.0288489 -0.0586783 0.000423 -9.05795 -0.160548 5.47629 2650 
1087 1 -0.0362014 -0.00708163 -0.0586017 0.000116 -2.72431 -0.252097 1.69552 2650 
197 1 -0.0364371 -0.000115995 -0.058458 0.000116 -7.70423 -1.22411e-05 4.79907 2650 
186 1 -0.0367936 -0.00349827 -0.0582323 0.000116 -7.56979 -0.0227913 4.77215 2650 
2741 1 -0.0375329 -0.000932051 -0.0578478 4.2e-05 -7.35114 0.156042 4.77243 2650 
2478 1 -0.0376361 -0.00107397 -0.0576932 0.000116 -7.70513 0.177283 5.03046 2650 
3288 1 -0.0367096 -0.000765875 -0.058374 4.2e-05 -7.61634 0.0238101 4.78391 2650 
1927 1 -0.0366682 -0.000115999 -0.0583134 0.000116 -7.69455 -0.000250962 4.8373 2650 
2679 1 -0.0377085 -0.0546901 -0.0572814 0.000423 -9.00603 -0.0175415 5.92866 2650 
1583 1 -0.0377369 -0.0219248 -0.0572615 0.000423 -8.47307 0.124931 5.58742 2650 
722 1 -0.0387047 -0.000679053 -0.0569818 0.000116 -7.1875 -0.038454 4.87648 2650 
2302 1 -0.0381724 -0.000209943 -0.0574286 4.2e-05 -7.40909 -0.0160304 4.92152 2650 
3444 1 -0.0386611 -0.0562791 -0.0566423 0.000423 -8.89924 0.042081 6.07409 2650 
879 1 -0.0390992 -0.0102663 -0.056789 4.2e-05 -6.9505 -0.723729 4.75174 2650 
1390 1 -0.0398572 -0.00776135 -0.0561718 0.000116 -7.06756 -0.317171 5.02096 2650 
203 1 -0.0397631 -0.00625587 -0.0562405 0.000116 -7.79154 -0.0878526 5.52802 2650 
3383 1 -0.0392494 -0.00549976 -0.0565942 0.000116 -7.80208 -0.304508 5.41387 2650 
1967 1 -0.0394703 -0.000917396 -0.056454 0.000116 -7.45818 -0.0347772 5.22203 2650 
2430 1 -0.0397194 -0.0536743 -0.0556213 0.000656 -8.72954 0.000963812 6.23377 2650 
3799 1 -0.041016 -0.0225682 -0.055338 0.000116 -8.3299 0.0114514 6.17492 2650 
330 1 -0.0419934 -0.0267227 -0.0546594 4.2e-05 -8.23856 -0.0163784 6.32789 2650 
525 1 -0.0415593 -0.00602324 -0.0548873 0.000116 -7.72979 -0.0517667 5.84434 2650 
3124 1 -0.0411262 -0.00514373 -0.0548521 0.000423 -7.71814 -0.0638944 5.77187 2650 
3823 1 -0.0412252 -0.00458716 -0.0551726 0.000116 -7.29158 0.233442 5.41529 2650 
35 1 -0.0417898 -0.0478828 -0.0543748 0.000423 -8.45395 -0.0298832 6.49751 2650 
2631 1 -0.04284 -0.025998 -0.0540154 4.2e-05 -8.31033 0.457918 6.58921 2650 
3357 1 -0.0429428 -0.0244637 -0.0538506 0.000116 -8.20896 -0.12012 6.54979 2650 
252 1 -0.0424407 -0.0237266 -0.0538615 0.000423 -8.20008 0.00944052 6.46175 2650 
1528 1 -0.0424873 -0.0224174 -0.0542181 0.000116 -8.20841 0.0066977 6.43406 2650 
633 1 -0.042725 -0.0102425 -0.0539978 0.000116 -7.0319 2.37589e-05 5.57392 2650 
1166 1 -0.0435265 -0.0289349 -0.0533692 0.000116 -8.34423 -0.273325 6.80656 2650 
2166 1 -0.0438367 -0.0263347 -0.0531318 0.000116 -8.2051 -0.132563 6.77158 2650 
1032 1 -0.0435549 -0.0240255 -0.0529669 0.000423 -7.8572 -0.0587881 6.46602 2650 
3490 1 -0.0435997 -0.00717899 -0.053311 0.000116 -6.84718 -0.105676 5.66201 2650 
3921 1 -0.0436619 -0.00461489 -0.0532736 0.000116 -6.86976 0.0129556 5.64244 2650 
2840 1 -0.0434797 -0.00276206 -0.0534215 0.000116 -6.89784 -0.195322 5.61777 2650 
543 1 -0.0442086 -4.19974e-05 -0.0529226 4.2e-05 -6.89191 6.61832e-06 5.75757 2650 
2591 1 -0.0440685 -0.000115998 -0.0529432 0.000116 -6.89758 -0.000107479 5.73544 2650 
3178 1 -0.0435713 -4.21204e-05 -0.0534476 4.2e-05 -6.9552 0.00363058 5.67246 2650 
969 1 -0.0436947 -0.000115985 -0.0532509 0.000116 -6.93781 -0.00111419 5.68546 2650 
1333 1 -0.0440599 -0.0416584 -0.0526279 0.000423 -8.26677 -9.14589e-07 6.92092 2650 
235 1 -0.0444745 -0.0292607 -0.0522018 0.000423 -7.88748 -0.153359 6.73139 2650 
422 1 -0.0446971 -0.0269491 -0.0524133 0.000116 -8.27832 0.0178028 7.05941 2650 
405 1 -0.044718 -0.023299 -0.0523956 0.000116 -8.24285 -0.00339772 7.03495 2650 
3540 1 -0.0437421 -0.0227284 -0.052815 0.000423 -7.99847 0.0138408 6.62936 2650 
1169 1 -0.0442904 -0.0181063 -0.0527576 0.000116 -8.06797 0.447895 6.77368 2650 
2483 1 -0.0449471 -0.000253382 -0.0521993 0.000116 -6.8137 -0.0119274 5.86638 2650 
1965 1 -0.0454102 -0.0289459 -0.0517967 0.000116 -7.9055 -0.119241 6.93029 2650 
4001 1 -0.0451389 -0.0285043 -0.0516281 0.000423 -7.83206 -0.123335 6.8444 2650 
1083 1 -0.0453602 -0.0280097 -0.0518406 0.000116 -7.9898 -0.0561834 6.99152 2650 
2337 1 -0.0451688 -0.0275429 -0.0516018 0.000423 -7.9566 -0.0307045 6.96557 2650 
4199 1 -0.0451656 -0.0249248 -0.0516049 0.000423 -8.2351 0.000426342 7.20944 2650 
2371 1 -0.0453297 -0.0219578 -0.0518673 0.000116 -7.9339 -0.0187388 6.93328 2650 
4023 1 -0.0465828 -0.0427863 -0.0507446 0.000116 -7.94087 -0.0432461 7.28975 2650 
759 1 -0.0464071 -0.0276739 -0.0509055 0.000116 -7.68664 0.0757833 7.00701 2650 
2879 1 -0.0459097 -0.027304 -0.0509434 0.000423 -7.88278 0.0104236 7.10648 2650 
1014 1 -0.0460087 -0.0256266 -0.0508544 0.000423 -7.87662 -0.032918 7.12572 2650 
3039 1 -0.046541 -0.024365 -0.050783 0.000116 -7.68837 -0.026545 7.04949 2650 
4108 1 -0.0470711 -0.026452 -0.0498731 0.000423 -7.65859 -0.0575148 7.22866 2650 
3413 1 -0.0464764 -0.0267782 -0.0504273 0.000423 -7.74614 -0.11345 7.13997 2650 
3969 1 -0.0466037 -0.0216949 -0.05031 0.000423 -7.48777 -0.118215 6.9348 2650 
2813 1 -0.0469226 -0.0203429 -0.0504309 0.000116 -7.3996 -0.00147117 6.88703 2650 
341 1 -0.0469533 -0.0253118 -0.0496657 0.000656 -7.55232 -0.00415581 7.13947 2650 
612 1 -0.0479626 -0.0243568 -0.0494429 0.000116 -7.7684 0.0281127 7.53515 2650 
303 1 -0.0479213 -0.0234056 -0.0494825 0.000116 -7.4221 -0.112837 7.1878 2650 
3576 1 -0.0478482 -0.00196404 -0.0495536 0.000116 -6.63941 -0.100022 6.40499 2650 
1304 1 -0.0487039 -0.0324906 -0.0487134 0.000116 -7.41944 -0.385364 7.4183 2650 
1206 1 -0.0492471 -0.0282361 -0.0482699 4.2e-05 -7.16881 0.0354524 7.3157 2650 
406 1 -0.0492123 -0.0275519 -0.0481995 0.000116 -7.17563 -0.0607048 7.32588 2650 
2542 1 -0.0481659 -0.0249158 -0.0488163 0.000423 -7.38454 -0.0392826 7.28609 2650 
1335 1 -0.0485206 -0.0240441 -0.048464 0.000423 -7.35589 -0.0475094 7.36323 2650 
4301 1 -0.0481449 -0.022855 -0.0488369 0.000423 -7.36487 -0.0638783 7.25984 2650 
476 1 -0.049471 -0.0416474 -0.0474936 0.000423 -7.45761 -0.0116636 7.7682 2650 
2372 1 -0.0496093 -0.0358134 -0.0477908 0.000116 -8.04693 0.08429 8.35527 2650 
286 1 -0.0496346 -0.0293543 -0.0477648 0.000116 -7.37335 -0.013803 7.66239 2650 
3572 1 -0.0494009 -0.0255948 -0.0480059 0.000116 -7.26508 -0.101813 7.47523 2650 
725 1 -0.0499813 -0.00329783 -0.0474014 0.000116 -6.026 -0.0926119 6.35283 2650 
3148 1 -0.0493098 -0.000159243 -0.0480991 0.000116 -6.27286 -0.0346004 6.42904 2650 
71 1 -0.0503672 -0.0282416 -0.0469919 0.000116 -7.27899 0.110745 7.80198 2650 
1410 1 -0.0503244 -0.0279153 -0.0470375 0.000116 -7.04558 0.137223 7.53685 2650 
605 1 -0.0499054 -0.024567 -0.0470366 0.000423 -6.97616 -0.207177 7.39987 2650 
710 1 -0.0498673 -0.023111 -0.0470763 0.000423 -7.10163 0.000747835 7.52306 2650 
2300 1 -0.0505772 -0.007396 -0.0468745 4.2e-05 -6.38395 -0.160494 6.88465 2650 
2633 1 -0.0508781 -4.20147e-05 -0.0465467 4.2e-05 -5.9098 2.57143e-05 6.4665 2650 
92 1 -0.0512668 -0.00944237 -0.0460089 0.000116 -6.1529 0.230423 6.85655 2650 
1530 1 -0.0509485 -0.00411908 -0.0464696 4.2e-05 -5.44887 -0.0380656 5.97179 2650 
432 1 -0.0511849 -0.000335544 -0.0462091 4.2e-05 -5.88639 -0.0206394 6.51218 2650 
3907 1 -0.0513503 -0.000115995 -0.0459144 0.000116 -5.86387 5.96109e-06 6.55499 2650 
520 1 -0.0521514 -0.0265498 -0.0450033 0.000116 -6.73047 0.112124 7.79758 2650 
4329 1 -0.05202 -0.0200927 -0.0451546 0.000116 -6.72832 -0.0659111 7.74313 2650 
730 1 -0.0521674 -0.0166049 -0.0449843 0.000116 -5.95552 -0.082517 6.90601 2650 
336 1 -0.0516484 -0.0536398 -0.0447643 0.000656 -7.01342 -0.00563572 8.09091 2650 
1290 1 -0.0527878 -0.0305022 -0.0442556 0.000116 -6.574 -0.0243709 7.84014 2650 
1031 1 -0.0523075 -0.0250751 -0.0443489 0.000423 -6.62149 -0.133699 7.8023 2650 
507 1 -0.0523782 -0.00728284 -0.0447393 0.000116 -5.72267 -0.018069 6.69305 2650 
465 1 -0.0526403 -0.0322807 -0.0439556 0.000423 -6.51553 0.270507 7.82895 2650 
2765 1 -0.0530495 -0.0309687 -0.0434615 0.000423 -6.92007 0.010586 8.4571 2650 
3599 1 -0.0534153 -0.0299605 -0.0434965 0.000116 -6.86233 -0.0891506 8.4273 2650 
1641 1 -0.0532517 -0.0225499 -0.0438111 4.2e-05 -6.53062 0.0754969 7.9371 2650 
3574 1 -0.0531039 -0.0124986 -0.0438731 0.000116 -5.85899 -0.889351 7.09778 2650 
3918 1 -0.0530957 -0.00574242 -0.0438844 0.000116 -5.81679 -0.0308931 7.04134 2650 
1533 1 -0.0534234 -4.19982e-05 -0.0436016 4.2e-05 -5.5402 0.000743991 6.78919 2650 
2691 1 -0.0531324 -0.0514892 -0.0433601 0.000423 -6.80497 -0.0585172 8.33866 2650 
4040 1 -0.0536463 -0.0229517 -0.0432093 0.000116 -6.44824 -0.0482072 8.00455 2650 
2529 1 -0.053739 -0.0145154 -0.0432133 4.2e-05 -5.75161 0.130187 7.17606 2650 
1295 1 -0.0536847 -0.0059265 -0.0431622 0.000116 -5.57391 -0.0288027 6.9374 2650 
2052 1 -0.053573 -0.00527471 -0.0432998 0.000116 -5.34451 0.0811496 6.61108 2650 
3409 1 -0.0537854 -0.062144 -0.0421717 0.000656 -6.62431 1.53979e-10 8.44858 2650 
3255 1 -0.0546661 -0.0261259 -0.0419124 0.000116 -6.26287 -0.235985 8.16754 2650 
1379 1 -0.0545998 -0.0247724 -0.0419986 0.000116 -6.25328 -0.105098 8.13759 2650 
160 1 -0.0539159 -0.023656 -0.0423789 0.000423 -6.35774 -0.093853 8.07756 2650 
1200 1 -0.0544931 -0.012167 -0.0422559 4.2e-05 -5.27468 0.206129 6.82122 2650 
2512 1 -0.0544169 -0.0117332 -0.0422329 0.000116 -5.64576 0.0294041 7.2871 2650 
951 1 -0.0546432 -0.00456384 -0.0419368 0.000116 -5.36234 -0.0316233 6.96485 2650 
764 1 -0.0542852 -4.1999e-05 -0.042524 4.2e-05 -5.43548 8.92501e-07 6.93353 2650 
3930 1 -0.0545057 -0.000115997 -0.0421205 0.000116 -5.41329 -0.000116564 6.99752 2650 
2600 1 -0.054988 -0.0225614 -0.0414885 0.000116 -6.1861 0.0729214 8.1967 2650 
950 1 -0.054947 -0.00713785 -0.0415365 0.000116 -5.24129 -0.024912 6.94693 2650 
1252 1 -0.055369 -0.0242209 -0.0404628 0.000423 -6.06693 -0.0969749 8.30126 2650 
795 1 -0.0551565 -0.022584 -0.0407518 0.000423 -6.13006 -0.0155618 8.26814 2650 
631 1 -0.0555291 -0.00239697 -0.0407594 0.000116 -5.27166 -0.0471211 7.18033 2650 
3204 1 -0.0560976 -0.0265077 -0.039447 0.000423 -5.91494 -0.0763987 8.41124 2650 
2291 1 -0.0562874 -0.0246141 -0.0397075 0.000116 -5.91704 -0.0576204 8.38738 2650 
3024 1 -0.0561587 -0.023948 -0.0398899 0.000116 -5.95221 -0.221478 8.38104 2650 
1782 1 -0.0555737 -0.0234065 -0.0401816 0.000423 -6.02369 -0.0962827 8.32949 2650 
4115 1 -0.0560431 -0.00106835 -0.040052 0.000116 -5.25399 0.0127406 7.34672 2650 
4212 1 -0.056183 -0.0303995 -0.0393252 0.000423 -5.91191 -0.0122104 8.44901 2650 
4225 1 -0.0568852 -0.023352 -0.0388464 0.000116 -5.87364 -0.0277083 8.60199 2650 
4176 1 -0.056244 -0.023085 -0.0392372 0.000423 -5.90869 -0.0585343 8.46982 2650 
2310 1 -0.056928 -0.00333014 -0.0389127 4.2e-05 -5.11091 1.08544 7.50063 2650 
2647 1 -0.056907 -0.0232725 -0.0378536 0.000656 -5.67938 0.0874262 8.54887 2650 
4072 1 -0.0568725 -0.0212452 -0.0383211 0.000423 -5.69783 -0.0437644 8.45488 2650 
364 1 -0.0576311 -0.0250601 -0.0371706 0.000423 -5.6007 0.0305158 8.68261 2650 
1119 1 -0.0578134 -0.0306392 -0.0368864 0.000423 -5.59805 -0.216375 8.7806 2650 
12 1 -0.0576656 -0.0230506 -0.0366856 0.000656 -5.5399 0.0268334 8.68355 2650 
2820 1 -0.0584453 -0.0214774 -0.0364575 0.000116 -4.94368 -0.226772 7.91942 2650 
402 1 -0.0582887 -0.0102078 -0.0366557 0.000116 -4.88421 0.1475 7.75194 2650 
3578 1 -0.0589241 -0.0258248 -0.0356784 0.000116 -5.39518 -0.210064 8.90791 2650 
1552 1 -0.058027 -0.0242266 -0.036113 0.000656 -5.44988 0.00611785 8.75642 2650 
183 1 -0.0588112 -0.0236618 -0.0358641 0.000116 -5.45506 0.709779 8.94522 2650 
4219 1 -0.0588152 -0.0276485 -0.035266 0.000423 -5.35184 0.0481602 8.92112 2650 
65 1 -0.0591281 -0.0228951 -0.0353395 0.000116 -5.3446 -0.0885685 8.9462 2650 
862 1 -0.0591996 -0.0194498 -0.0352108 0.000116 -5.36874 0.277718 9.02854 2650 
2862 1 -0.0590683 -0.0474877 -0.0343837 0.000656 -5.40365 0.0247669 9.28272 2650 
4069 1 -0.0595261 -0.0318425 -0.034045 0.000423 -5.16054 -0.0452945 9.00235 2650 
401 1 -0.0586893 -0.0122228 -0.0339768 0.000116 -1.32472 -1.36512 3.47738 2650 
1953 1 -0.0597952 -0.00940115 -0.0341982 0.000116 -4.4165 0.0725696 7.71899 2650 
1780 1 -0.0600141 -0.0239075 -0.0331668 0.000423 -5.14089 0.0166458 9.30233 2650 
3479 1 -0.0603954 -0.0275822 -0.0330756 0.000116 -5.08072 0.207688 9.27341 2650 
1556 1 -0.06009 -0.0248951 -0.0330295 0.000423 -5.07732 0.156505 9.23833 2650 
1423 1 -0.00384093 -0.00375063 -0.0331804 4.2e-05 -0.558689 -0.0751206 -4.8263 2650 
1326 1 -0.0602654 -0.062144 -0.03224 0.000656 -5.06424 -1.91816e-09 9.46645 2650 
3299 1 -0.0603246 -0.0294876 -0.0320729 0.000656 -5.05902 0.0921752 9.51482 2650 
1597 1 -0.0608664 -0.000859471 -0.0322531 0.000116 -4.29412 -0.0518427 8.09608 2650 
2645 1 -0.0610055 -0.062144 -0.0308167 0.000656 -4.84104 1.20395e-06 9.58343 2650 
1990 1 -0.0609368 -0.0435941 -0.030952 0.000656 -4.86804 -0.0146148 9.58376 2650 
800 1 -0.061066 -0.0342698 -0.0311268 0.000423 -4.21315 -0.168302 8.31145 2650 
3868 1 -0.0612301 -0.0287348 -0.0308794 0.000423 -4.88304 -0.0719471 9.67847 2650 
1509 1 -0.061357 -0.0281852 -0.031289 0.000116 -4.94849 0.0419096 9.70034 2650 
4044 1 -0.0616232 -0.000115989 -0.0307829 0.000116 -4.11839 0.00050065 8.24492 2650 
2284 1 -0.0613484 -0.000116024 -0.0313269 0.000116 -4.18506 -0.000910173 8.19402 2650 
863 1 -0.0618157 -0.00703519 -0.0303941 0.000116 -1.47906 -0.111591 2.97559 2650 
2089 1 -0.0617467 -4.19991e-05 -0.0307003 4.2e-05 -4.10786 2.4791e-09 8.25613 2650 
169 1 -0.0617462 -0.000115999 -0.030535 0.000116 -4.08616 0.000118129 8.26504 2650 
2004 1 -0.0617424 -0.0268628 -0.0298233 0.000423 -4.7773 0.0365982 9.89108 2650 
1408 1 -0.0622468 -0.0210353 -0.0295017 0.000116 -4.26903 0.839755 9.00821 2650 
574 1 -0.0623474 -0.0286023 -0.0285534 0.000423 -4.58422 0.0769765 10.001 2650 
1261 1 -0.0621888 -0.0210633 -0.0289058 0.000423 -4.344 0.0696498 9.36013 2650 
2766 1 -0.0623667 -0.0203314 -0.0285203 0.000423 -4.2925 0.0584043 9.40443 2650 
308 1 -0.0629085 -0.0282389 -0.0280559 0.000116 -4.49863 0.117458 10.0893 2650 
94 1 -0.0629489 -0.0252149 -0.0279649 0.000116 -4.43455 0.214397 9.98391 2650 
981 1 -0.0629693 -0.0199896 -0.0281075 4.2e-05 -4.40777 0.495586 9.87445 2650 
2186 1 -0.0635252 -0.0211858 -0.0266373 0.000116 -3.93486 -0.293371 9.38812 2650 
2552 1 -0.0633101 -0.0196103 -0.0263596 0.000423 -3.95979 0.0776616 9.50583 2650 
1500 1 -0.0640798 -0.0301153 -0.0252762 0.000116 -3.84164 0.0358596 9.7436 2650 
1164 1 -0.0638223 -0.0134044 -0.025919 0.000116 -3.388 0.0257295 8.33626 2650 
1212 1 -0.0637844 -0.0533439 -0.0245537 0.000656 -3.85433 0.0400758 10.0113 2650 
2596 1 -0.0643615 -0.00429101 -0.0245476 0.000116 -3.27266 0.258778 8.57604 2650 
3807 1 -0.0644357 -0.0392263 -0.0243512 0.000116 -3.35444 -0.645886 8.88302 2650 
817 1 -0.0642265 -0.0290964 -0.0240416 0.000423 -3.6725 0.0594267 9.81226 2650 
3633 1 -0.0641605 -0.0245278 -0.0242156 0.000423 -3.74963 0.203763 9.93495 2650 
1915 1 -0.0646447 -0.0447629 -0.0228922 0.000423 -3.58489 0.0138597 10.123 2650 
2588 1 -0.0648102 -0.0248515 -0.0233368 0.000116 -3.47351 -0.0659887 9.64868 2650 
2301 1 -0.0649461 -4.19991e-05 -0.0231766 4.2e-05 -3.06309 3.00977e-06 8.58472 2650 
3181 1 -0.0650097 -4.20187e-05 -0.0229986 4.2e-05 -3.03509 -8.24213e-05 8.59568 2650 
2743 1 -0.0650681 -4.19991e-05 -0.0228322 4.2e-05 -3.02434 1.20611e-07 8.60984 2650 
1864 1 -0.0651004 -4.19991e-05 -0.0227397 4.2e-05 -3.01049 4.41014e-06 8.61684 2650 
2386 1 -0.0653418 -0.0291348 -0.0218072 0.000116 -3.3794 0.418514 10.1251 2650 
546 1 -0.0653948 -0.0248165 -0.0218796 4.2e-05 -3.15496 -0.0546587 9.4373 2650 
1531 1 -0.0655573 -0.0137746 -0.0213894 4.2e-05 -2.86861 -0.208438 8.7931 2650 
446 1 -0.065088 -0.0523924 -0.020857 0.000656 -3.2761 -0.0030154 10.2237 2650 
2274 1 -0.0657131 -0.0315743 -0.0206621 0.000116 -3.11818 -0.0613028 9.91932 2650 
647 1 -0.0656886 -0.00116304 -0.0207364 0.000116 -2.7792 0.704616 8.79947 2650 
2571 1 -0.0654933 -0.00713738 -0.0203394 0.000423 -2.38421 0.271499 7.69777 2650 
297 1 -0.0658261 -0.000202767 -0.0202957 0.000116 -2.79169 -0.0572246 9.05443 2650 
3516 1 -0.0656156 -0.0503206 -0.0191291 0.000656 -3.00645 -0.0241154 10.3118 2650 
3090 1 -0.0561393 -0.00700749 -0.0193913 0.000423 -8.78406 -0.260769 -3.03443 2650 
2428 1 -0.0658465 -0.0302253 -0.0183212 0.000656 -2.8711 0.0486649 10.3185 2650 
2676 1 -0.0660383 -0.0175405 -0.0184899 0.000423 -2.11347 -0.353698 7.64777 2650 
3875 1 -0.0661849 -0.0327039 -0.017962 0.000423 -2.82853 -0.0577833 10.4221 2650 
4250 1 -0.0667215 -0.0246328 -0.0171243 0.000116 -2.49399 -0.00590016 9.71144 2650 
2632 1 -0.067037 -0.0113255 -0.0161638 4.2e-05 -2.14417 0.236516 8.87653 2650 
4054 1 -0.00120076 -0.000772834 -0.0159148 4.2e-05 0.0050433 -0.0039359 -0.00691223 2650 
2394 1 -0.0672111 -0.03289 -0.0150879 0.000116 -2.45306 -0.133866 10.9247 2650 
4043 1 -0.0671306 -0.0251777 -0.0154429 0.000116 -2.25775 -0.0766727 9.81957 2650 
1503 1 -0.0671819 -0.0152142 -0.0152176 0.000116 -2.14348 -0.436035 9.46805 2650 
2945 1 -0.00684734 -0.00219357 -0.0151762 0.000116 -0.0070416 -0.00269505 0.00231432 2650 
708 1 -0.00394961 -0.000508502 -0.014583 0.000423 -0.00124462 -0.00433119 -0.00184965 2650 
4006 1 -0.0674695 -0.0347518 -0.0138877 0.000116 -2.0919 0.116785 10.1651 2650 
2843 1 -0.0675297 -0.00167691 -0.0135921 0.000116 -1.85999 0.0615256 9.24497 2650 
2506 1 -0.067543 -0.000790478 -0.0135255 0.000116 -1.71861 0.0744853 8.54913 2650 
2201 1 -0.0671045 -0.062144 -0.012974 0.000656 -2.0379 -3.7505e-07 10.5405 2650 
1841 1 -0.067635 -0.000833321 -0.0130582 0.000116 -1.67986 0.112528 8.68831 2650 
1776 1 -0.00165716 -0.00057914 -0.0131419 0.000423 -0.0163826 -0.00335049 -0.00507094 2650 
1715 1 -0.0679017 -0.0157147 -0.0115689 0.000116 -1.6325 -0.193132 9.49356 2650 
1504 1 -0.06797 -0.00960124 -0.0110677 0.000116 -1.56822 -0.220255 9.49267 2650 
339 1 -0.00776351 -0.00104381 -0.0116133 0.000656 -0.006822 -0.00276167 0.00431219 2650 
283 1 -0.0681143 -0.0175235 -0.0102199 0.000116 -1.4233 -0.22278 9.54398 2650 
2474 1 -0.0677216 -0.0132885 -0.0106532 0.000423 -1.25711 0.0574303 7.86179 2650 
744 1 -0.068098 -0.000207319 -0.0103741 0.000116 -1.31305 -0.0773194 8.66277 2650 
681 1 -0.0679042 -0.0417949 -0.00959248 0.000423 -1.50945 -0.0414297 10.686 2650 
4011 1 -0.068116 -0.0328726 -0.0100445 0.000116 -1.55155 0.225852 10.5099 2650 
1464 1 -0.0678519 -0.0138021 -0.00983302 0.000423 -1.12768 0.0591815 7.8783 2650 
498 1 -0.0681121 -0.0101573 -0.0100796 0.000116 -1.38167 0.241316 9.29699 2650 
2097 1 -0.00843279 -0.00224422 -0.00972555 0.000656 -0.00091527 -0.00757825 -0.00183403 2650 
1568 1 -0.0679531 -0.0623206 -0.0092399 0.000423 -1.45416 -0.0306844 10.6949 2650 
2563 1 -0.0679964 -0.0396478 -0.00889784 0.000423 -1.40923 0.00380507 10.7652 2650 
3668 1 -0.0680158 -0.0246182 -0.00869992 0.000423 -1.29797 0.100863 10.1318 2650 
953 1 -0.0682438 -0.0195963 -0.00936093 0.000116 -1.09908 -0.455008 8.07259 2650 
3350 1 -0.0682734 -0.00425991 -0.00910861 0.000116 -1.26034 -0.0903111 9.2791 2650 
3625 1 -0.0678772 -0.062144 -0.00800134 0.000656 -1.25604 1.73519e-05 10.654 2650 
3229 1 -0.0680957 -0.0280909 -0.00809137 0.000423 -1.3058 -0.199842 10.982 2650 
3702 1 -0.0683329 -0.0105493 -0.00853725 0.000116 -1.36396 -0.519406 10.8882 2650 
3456 1 -0.00809539 -0.00324084 -0.00866081 0.000423 -0.00654906 -0.00668986 0.00763897 2650 
1398 1 -0.00138093 -0.00336191 -0.00849332 0.000116 -0.0944979 -0.0299063 -0.581204 2650 
2195 1 -0.007113 -0.00156493 -0.008028 4.2e-05 0 -0.011753 0 2650 
3595 1 -0.0112566 -0.000556746 -0.00790004 0.000116 -0.00310427 -0.0105054 0.00556058 2650 
2858 1 -0.0679498 -0.0556789 -0.00734671 0.000656 -1.15053 -0.0432586 10.6341 2650 
1781 1 -0.0681644 -0.0497474 -0.00751151 0.000423 -1.18318 -0.00156148 10.7328 2650 
1996 1 -0.0681932 -0.0489428 -0.00725195 0.000423 -1.14238 -0.00315605 10.7424 2650 
2350 1 -0.0681743 -0.0325301 -0.00743081 0.000423 -1.17041 -0.0663189 10.7405 2650 
916 1 -0.0681766 -0.0312701 -0.00739571 0.000423 -1.16969 -0.0543972 10.7899 2650 
2917 1 -0.0684837 -0.028664 -0.00737071 0.000116 -1.10733 -0.20612 10.2117 2650 
3121 1 -0.0121126 -0.00303598 -0.00763033 0.000423 -0.00773497 -0.00537372 0.00641746 2650 
3888 1 -0.00361961 -0.00252981 -0.00759042 0.000423 -0.00837235 -0.00627383 0.00580816 2650 
2792 1 -0.00407309 -0.000577835 -0.00782576 0.000423 0.0136699 -0.00664446 -0.00712956 2650 
343 1 -0.0682831 -0.0525698 -0.00630622 0.000423 -0.986856 -0.0169232 10.6881 2650 
2832 1 -0.0685318 -0.0323138 -0.0069154 0.000116 -1.09424 -0.121793 10.8449 2650 
403 1 -0.0685643 -0.0183377 -0.0066201 0.000116 -0.968861 0.643219 10.0797 2650 
3703 1 -0.0685202 -0.00696853 -0.00703588 0.000116 -0.864103 0.642523 8.07017 2650 
3071 1 -0.0134448 -0.00145477 -0.00701406 4.2e-05 -0.00140146 -0.00477462 -0.00190096 2650 
255 1 -0.00778672 -0.000814911 -0.0067762 0.000423 0.000668309 -0.00521485 -0.00520365 2650 
3986 1 -0.0683031 -0.0479502 -0.00606616 0.000423 -0.926129 -0.206829 10.4382 2650 
1444 1 -0.0682888 -0.0358205 -0.00624109 0.000423 -0.938431 0.317063 10.2304 2650 
1275 1 -0.0686339 -0.0317207 -0.00581368 0.000116 -0.920058 -0.0276343 10.8646 2650 
2636 1 -0.0686941 -0.00870792 -0.00587479 4.2e-05 -0.713531 0.166868 8.33794 2650 
2700 1 -0.0686045 -0.0062365 -0.00612266 0.000116 -0.833623 0.236635 9.34823 2650 
1859 1 -0.0115432 -0.00261591 -0.00623522 4.2e-05 -0.000979199 -0.0128067 0.00910661 2650 
3108 1 -0.00411756 -0.00110197 -0.00574347 0.000423 -0.0109504 -0.00354525 0.0012643 2650 
1453 1 -0.0683625 -0.0313994 -0.0054065 0.000423 -0.844906 -0.101031 10.6673 2650 
1055 1 -0.0686822 -0.000581267 -0.00526535 0.000116 -0.633662 0.0361987 8.31612 2650 
77 1 -0.0134516 -0.000742724 -0.00519377 0.000116 -0.0182063 -0.00299431 0.00375014 2650 
1233 1 -0.0127717 -0.000347114 -0.0050953 0.000423 0.00255951 -0.00593379 -0.00137239 2650 
96 1 -0.0113332 -0.000264609 -0.00505594 0.000116 0.00431863 -0.00717372 0.000319804 2650 
661 1 -0.0682167 -0.0534962 -0.00420535 0.000656 -0.658514 -0.114716 10.6801 2650 
1256 1 -0.0684619 -0.0514618 -0.00398717 0.000423 -0.628608 -0.0151155 10.7957 2650 
701 1 -0.0684212 -0.0361899 -0.00463467 0.000423 -0.707786 0.400724 10.4284 2650 
1621 1 -0.0687244 -0.00994578 -0.00460658 0.000116 -0.730021 0.276129 10.8664 2650 