ITEM: TIMESTEP
49391571
ITEM: NUMBER OF ATOMS
3806
ITEM: BOX BOUNDS ff ff ff
-0.15 0.15
-0.15 0.15
-0.15 0.15
ITEM: ATOMS id type x y z radius vx vy vz density 
3505 1 -0.00471382 -0.0400405 -0.0687964 4.2e-05 -10.7561 -0.00913326 0.737014 2650 
3140 1 -0.00152937 -0.0398127 -0.0688671 0.000116 -10.8176 -6.07372e-06 0.240233 2650 
3147 1 -0.00431069 -0.038795 -0.068749 0.000116 -10.8056 0.0133493 0.677489 2650 
2736 1 -0.00157214 -0.0392703 -0.0688661 0.000116 -10.8175 -1.29677e-05 0.246951 2650 
198 1 -0.000183401 -0.0391555 -0.0688837 0.000116 -10.8145 -0.00112386 0.0287822 2650 
3159 1 -0.0011235 -0.0377471 -0.0688749 0.000116 -10.8186 4.08335e-05 0.176472 2650 
4220 1 -0.00297219 -0.0368344 -0.0688197 0.000116 -10.8955 -0.0335618 0.470424 2650 
1066 1 -0.000121002 -0.0351644 -0.068884 0.000116 -10.8263 -0.0172378 0.0190369 2650 
309 1 -0.00208495 -0.0333551 -0.0688522 0.000116 -10.8424 0.370699 0.32903 2650 
2918 1 -0.000114344 -0.0333867 -0.0688841 0.000116 -10.8225 -0.0265701 0.0179713 2650 
2602 1 -0.000158284 -0.0328556 -0.0688838 0.000116 -10.8207 -0.0262381 0.0248664 2650 
387 1 -0.00130756 -0.0317819 -0.0688714 0.000116 -10.8494 -0.0359087 0.205969 2650 
872 1 -0.00290127 -0.0311992 -0.0688969 4.2e-05 -10.9837 0.370677 0.462851 2650 
2069 1 -0.0020235 -0.0313584 -0.0688542 0.000116 -10.8082 -0.00663101 0.317623 2650 
4147 1 -0.00066631 -0.0301641 -0.0688806 0.000116 -10.8225 -0.0692011 0.104708 2650 
2627 1 -0.00428043 -0.0285095 -0.0687511 0.000116 -10.8401 -0.0571768 0.674827 2650 
3266 1 -0.00176732 -0.0287877 -0.0688613 0.000116 -10.7832 -0.0233292 0.276683 2650 
3253 1 -0.00461751 -0.0183551 -0.0687289 0.000116 -9.86843 -0.244149 0.655312 2650 
856 1 -0.00466285 -0.0152294 -0.068726 0.000116 -10.2204 0.787853 0.692052 2650 
3487 1 -0.00384777 -0.0149041 -0.0687763 0.000116 -10.0268 -0.1995 0.561414 2650 
2916 1 -0.00393585 -0.0119302 -0.0687716 0.000116 -9.54013 0.276806 0.542469 2650 
3374 1 -0.0010539 -0.000346465 -0.0688758 0.000116 -8.97159 -0.0393436 0.134753 2650 
3723 1 -0.00104223 -4.20153e-05 -0.06895 4.2e-05 -9.01776 0.000171977 0.141651 2650 
2589 1 -0.000894945 -0.000115996 -0.068878 0.000116 -9.00322 -0.000771962 0.117817 2650 
3330 1 -0.00851158 -0.0562872 -0.068048 0.000423 -10.692 0.00690281 1.33735 2650 
55 1 -0.00435306 -0.0523829 -0.0684393 0.000423 -10.7072 -0.119266 0.681036 2650 
579 1 -0.0023706 -0.0454434 -0.0685367 0.000423 -10.7216 -0.00144847 0.370898 2650 
3959 1 -0.00223354 -0.0446086 -0.0685413 0.000423 -10.7358 0.000794702 0.35021 2650 
1343 1 -0.008538 -0.0420514 -0.0680448 0.000423 -10.6649 0.0257642 1.33815 2650 
34 1 -0.000684552 -0.0419605 -0.0685738 0.000423 -10.7715 -7.57108e-05 0.107528 2650 
2006 1 -0.00639436 -0.0417529 -0.06828 0.000423 -10.7569 -0.045739 1.00759 2650 
2112 1 -0.00355273 -0.0414099 -0.0684864 0.000423 -10.7569 -0.00123963 0.558012 2650 
1332 1 -0.00234902 -0.0415782 -0.0683067 0.000656 -10.7295 -0.000129244 0.368983 2650 
4068 1 -0.00131705 -0.0413988 -0.0685656 0.000423 -10.7702 -2.69941e-05 0.206881 2650 
999 1 -0.00152791 -0.0403672 -0.06833 0.000656 -10.7331 -6.40745e-06 0.240002 2650 
2102 1 -0.000166804 -0.0406505 -0.068347 0.000656 -10.7359 4.90556e-05 0.0262069 2650 
2674 1 -0.000126362 -0.0395974 -0.0685785 0.000423 -10.7721 -3.26701e-05 0.0206126 2650 
2833 1 -0.00551517 -0.0388551 -0.0686629 0.000116 -10.8023 0.0388205 0.867514 2650 
4085 1 -0.00502556 -0.0389931 -0.068394 0.000423 -10.7297 0.0167896 0.78817 2650 
2460 1 -0.00198403 -0.0394144 -0.0685497 0.000423 -10.7678 -9.23437e-05 0.311651 2650 
1116 1 -0.00113862 -0.0393896 -0.0685689 0.000423 -10.7708 6.72441e-05 0.178854 2650 
1353 1 -0.00460682 -0.0381086 -0.0684234 0.000423 -10.75 -0.000815158 0.723814 2650 
1989 1 -0.00131777 -0.0382624 -0.0683339 0.000656 -10.7339 0.000176406 0.206995 2650 
802 1 -0.00208917 -0.0375386 -0.0685465 0.000423 -10.7681 -0.000639303 0.328212 2650 
4210 1 -0.00127939 -0.0372094 -0.0685663 0.000423 -10.7715 0.000228907 0.201014 2650 
1588 1 -0.000518593 -0.0375793 -0.0685764 0.000423 -10.7727 0.000995646 0.0814647 2650 
935 1 -0.00369216 -0.0363952 -0.068479 0.000423 -10.7516 0.00602412 0.579674 2650 
3874 1 -0.000674771 -0.0366178 -0.068575 0.000423 -10.7731 0.000465575 0.105979 2650 
370 1 -0.00897762 -0.0358653 -0.0679885 0.000423 -10.7304 0.0022281 1.41683 2650 
2971 1 -0.00152753 -0.0358203 -0.0683298 0.000656 -10.7352 -0.0111629 0.239924 2650 
3552 1 -0.00935742 -0.0349712 -0.0679376 0.000423 -10.6969 0.0387017 1.47337 2650 
3542 1 -0.000571163 -0.0353598 -0.068576 0.000423 -10.7878 0.0215672 0.0898603 2650 
3812 1 -0.0116504 -0.0344108 -0.0678921 0.000116 -10.3233 -0.117002 1.77163 2650 
23 1 -0.00855999 -0.0347085 -0.0680425 0.000423 -10.7072 0.0180984 1.34636 2650 
3470 1 -0.00701959 -0.0343363 -0.0685259 0.000116 -10.7936 0.149613 1.10575 2650 
1908 1 -0.00636509 -0.0340153 -0.0682826 0.000423 -10.7981 0.0160467 1.00645 2650 
3539 1 -0.00104562 -0.034469 -0.0685702 0.000423 -10.7949 -0.0315444 0.165359 2650 
843 1 -0.0102455 -0.0332149 -0.0681186 0.000116 -10.7606 -0.0499137 1.61848 2650 
1832 1 -0.0100156 -0.033303 -0.0681529 0.000116 -10.7093 0.00780165 1.57381 2650 
807 1 -0.00791386 -0.0335213 -0.068121 0.000423 -10.7606 -0.0312666 1.25001 2650 
651 1 -0.00678395 -0.0333744 -0.068624 4.2e-05 -10.7807 0.162783 1.06589 2650 
4244 1 -0.0066004 -0.0334501 -0.0685675 0.000116 -10.7873 0.124768 1.03821 2650 
3747 1 -0.00569323 -0.0334646 -0.0683421 0.000423 -10.774 -0.00660199 0.897507 2650 
1540 1 -0.0115393 -0.0324234 -0.0679865 4.2e-05 -10.723 0.161789 1.82014 2650 
1646 1 -0.0100633 -0.0331514 -0.0682206 4.2e-05 -10.726 0.0219859 1.5822 2650 
3257 1 -0.00647618 -0.0330018 -0.0685796 0.000116 -10.8924 -0.0320815 1.02842 2650 
4366 1 -0.00796442 -0.0322244 -0.0684229 0.000116 -10.8818 -0.0131318 1.26682 2650 
3348 1 -0.0101289 -0.0309641 -0.068136 0.000116 -10.688 0.0422717 1.58881 2650 
212 1 -0.00671745 -0.031179 -0.0686306 4.2e-05 -10.9754 0.26071 1.07413 2650 
3535 1 -0.00553499 -0.0310803 -0.0683548 0.000423 -10.7625 -0.0310625 0.871434 2650 
1899 1 -0.0024585 -0.0313696 -0.0685343 0.000423 -10.7629 -0.00403709 0.386086 2650 
3530 1 -0.00165911 -0.0310925 -0.0685583 0.000423 -10.7673 0.000195173 0.260557 2650 
2100 1 -0.000604831 -0.031175 -0.068344 0.000656 -10.7338 -0.000796064 0.0949914 2650 
1638 1 -0.00786691 -0.0307505 -0.068434 0.000116 -10.3434 -0.0707945 1.18891 2650 
1816 1 -0.00634755 -0.0302742 -0.0685915 0.000116 -10.8309 -0.0117242 1.00222 2650 
1955 1 -0.00769596 -0.0292285 -0.0684535 0.000116 -10.1107 0.181678 1.13576 2650 
3186 1 -0.00236104 -0.0297425 -0.0683063 0.000656 -10.7288 -0.005609 0.370935 2650 
1883 1 -0.00139115 -0.029346 -0.0685643 0.000423 -10.7703 -0.00193015 0.218523 2650 
602 1 -0.000232693 -0.0298806 -0.068578 0.000423 -10.7725 0.0104349 0.0365532 2650 
3128 1 -0.00198305 -0.0283253 -0.0685497 0.000423 -10.7653 -0.00286744 0.311484 2650 
2681 1 -0.00363956 -0.0260025 -0.0684817 0.000423 -10.6525 0.0461269 0.566504 2650 
2570 1 -0.000394572 -0.0253419 -0.0685771 0.000423 -10.9411 -0.0785049 0.0628188 2650 
2500 1 -0.00542307 -0.0238972 -0.06867 0.000116 -10.7247 0.806155 0.846725 2650 
546 1 -0.00658512 -0.0232112 -0.0686427 4.2e-05 -7.66081 -0.549962 0.72609 2650 
1169 1 -0.0106172 -0.0128545 -0.0680615 0.000116 -9.70506 0.218685 1.51549 2650 
3645 1 -0.0063918 -0.0131362 -0.0682799 0.000423 -9.14777 0.0968345 0.865124 2650 
1174 1 -0.0115993 -0.00434244 -0.0679002 0.000116 -8.18126 -0.192968 1.39617 2650 
3319 1 -0.0116458 -0.0552237 -0.0675828 0.000423 -10.6035 0.0334761 1.82717 2650 
2557 1 -0.013073 -0.0535179 -0.0673219 0.000423 -10.5578 0.0212805 2.05014 2650 
1683 1 -0.0128893 -0.0525842 -0.0673564 0.000423 -10.5985 -0.0265559 2.02824 2650 
2327 1 -0.0120276 -0.0519053 -0.0675164 0.000423 -10.6077 -0.0262572 1.88973 2650 
2532 1 -0.00851405 -0.0519236 -0.067815 0.000656 -10.6379 -0.0452872 1.33544 2650 
2998 1 -0.0139401 -0.0497754 -0.0671472 0.000423 -10.6089 0.00584922 2.20256 2650 
1393 1 -0.0120794 -0.0484742 -0.0678173 0.000116 -10.7836 0.0409633 1.92098 2650 
4084 1 -0.0107617 -0.0474937 -0.0677292 0.000423 -10.7404 0.00898749 1.70675 2650 
4325 1 -0.0129143 -0.0467753 -0.0673517 0.000423 -10.5694 -0.00153342 2.02686 2650 
1787 1 -0.0109633 -0.0456232 -0.0676962 0.000423 -10.7798 0.0752409 1.74577 2650 
1508 1 -0.0137099 -0.0424421 -0.0675057 0.000116 -10.6172 -0.0242811 2.15627 2650 
3391 1 -0.0146819 -0.0372989 -0.067377 4.2e-05 -10.5398 0.057164 2.29687 2650 
3956 1 -0.0116392 -0.0370239 -0.0673488 0.000656 -10.6193 -0.0744573 1.83508 2650 
1309 1 -0.0120109 -0.0362294 -0.0678289 0.000116 -10.1945 -0.0220574 1.80453 2650 
2900 1 -0.010303 -0.0357661 -0.0678004 0.000423 -10.6968 0.00682075 1.6255 2650 
3261 1 -0.0123929 -0.0336999 -0.0677609 0.000116 -10.5598 -0.00133807 1.93106 2650 
294 1 -0.0121941 -0.0339007 -0.0677966 0.000116 -10.578 -0.0166152 1.90267 2650 
3448 1 -0.0127483 -0.032875 -0.0673841 0.000423 -10.5521 0.0481505 1.9962 2650 
3849 1 -0.00985568 -0.0313553 -0.0678675 0.000423 -10.6868 0.0391819 1.55193 2650 
306 1 -0.0155864 -0.0300155 -0.067098 0.000116 -10.6351 0.000866577 2.47041 2650 
283 1 -0.0155505 -0.0160617 -0.0671034 0.000116 -7.40467 -0.249273 1.71615 2650 
535 1 -0.012487 -0.0106462 -0.0677437 0.000116 -8.98815 -0.158159 1.65917 2650 
975 1 -0.0136641 -0.00707208 -0.0675156 0.000116 -9.27479 -0.0118878 1.86728 2650 
2162 1 -0.0164808 -0.0414917 -0.0668837 0.000116 -10.5063 -0.156412 2.58472 2650 
2404 1 -0.0158567 -0.0364089 -0.0670341 0.000116 -10.5745 0.148825 2.50146 2650 
2256 1 -0.0187117 -0.0333929 -0.066294 0.000116 -9.97445 -0.18803 2.81521 2650 
4038 1 -0.015966 -0.0329533 -0.067009 0.000116 -10.5213 -0.105316 2.50676 2650 
2986 1 -0.0172001 -0.0300003 -0.066387 0.000423 -10.3974 -0.00389691 2.69382 2650 
158 1 -0.0163019 -0.0300286 -0.0666134 0.000423 -10.4438 -0.026244 2.55581 2650 
1566 1 -0.0149428 -0.030718 -0.0669314 0.000423 -10.5459 0.0332178 2.3544 2650 
3281 1 -0.0167947 -0.0297638 -0.0668059 0.000116 -10.4186 0.299326 2.61925 2650 
2850 1 -0.016923 -0.0140993 -0.0668492 4.2e-05 -8.66124 -0.485086 2.18964 2650 
863 1 -0.0157796 -0.0105765 -0.06705 0.000116 -8.41929 0.209019 1.98287 2650 
3137 1 -0.0175095 -0.00242856 -0.0666211 0.000116 -7.7733 0.385059 2.06115 2650 
719 1 -0.0207675 -0.0617079 -0.0656789 0.000116 -10.2281 -0.0721517 3.23398 2650 
4284 1 -0.0169966 -0.0339758 -0.0661987 0.000656 -10.3233 0.023771 2.65156 2650 
1587 1 -0.0189353 -0.031353 -0.0659123 0.000423 -9.92446 0.0996621 2.85777 2650 
4148 1 -0.0209115 -0.0290591 -0.065633 0.000116 -10.4128 0.0438305 3.31791 2650 
3075 1 -0.0186504 -0.0205327 -0.0657532 0.000656 -7.70356 0.303072 2.16846 2650 
2050 1 -0.01883 -0.0198415 -0.0662602 0.000116 -9.23058 -0.267118 2.61954 2650 
1312 1 -0.0237606 -0.0418349 -0.064735 4.2e-05 -10.1679 -0.00110019 3.73207 2650 
1013 1 -0.0205279 -0.0354593 -0.0654338 0.000423 -10.2803 -0.0286666 3.2251 2650 
3585 1 -0.0216964 -0.0218221 -0.0653777 0.000116 -9.783 0.0160775 3.24618 2650 
2172 1 -0.0217258 -0.00250848 -0.0653605 0.000116 -8.84758 -0.0754912 2.91221 2650 
4047 1 -0.0234825 -4.1999e-05 -0.0648365 4.2e-05 -8.82797 2.35121e-05 3.19722 2650 
1239 1 -0.0235495 -0.0623217 -0.0644078 0.000423 -10.1183 0.00421436 3.69956 2650 
3331 1 -0.0229783 -0.0505453 -0.0646135 0.000423 -10.1259 -0.0374409 3.60167 2650 
1042 1 -0.0245732 -0.0418321 -0.0640245 0.000423 -10.0571 0.000183095 3.86001 2650 
822 1 -0.0233852 -0.0416534 -0.0645291 0.000423 -10.1362 -2.09379e-07 3.67334 2650 
1168 1 -0.0250339 -0.0344438 -0.0641445 0.000116 -10.051 0.698706 3.93627 2650 
4217 1 -0.024454 -0.027535 -0.0640562 0.000423 -9.27298 0.135021 3.5288 2650 
2293 1 -0.0237753 -0.00337688 -0.0646508 0.000116 -7.48526 0.161433 2.75136 2650 
2663 1 -0.0262152 -0.0454006 -0.0633694 0.000423 -9.95701 -0.0201289 4.11893 2650 
1475 1 -0.026232 -0.0444882 -0.0633624 0.000423 -9.92753 0.00406407 4.11023 2650 
2349 1 -0.0263778 -0.043488 -0.0633021 0.000423 -9.96341 0.0160867 4.15136 2650 
1987 1 -0.0248886 -0.0434175 -0.0636536 0.000656 -9.99879 -6.72264e-05 3.90953 2650 
3892 1 -0.0251699 -0.0423852 -0.0637925 0.000423 -10.0205 -3.83773e-05 3.95367 2650 
3411 1 -0.0258753 -0.0413823 -0.0632598 0.000656 -9.93791 0.00079053 4.0649 2650 
2210 1 -0.0278531 -0.0588382 -0.0624136 0.000656 -9.80399 -0.000245993 4.3752 2650 
3664 1 -0.0279948 -0.0429595 -0.0626038 0.000423 -9.83875 -0.00278823 4.39974 2650 
2911 1 -0.0270368 -0.0422392 -0.063024 0.000423 -9.88667 0.00153797 4.24151 2650 
1755 1 -0.0289959 -0.0231811 -0.0625639 4.2e-05 -9.17939 0.137664 4.25255 2650 
1747 1 -0.0290643 -0.00091722 -0.0624522 0.000116 -8.90266 -0.346705 4.14379 2650 
575 1 -0.0289423 -0.0418026 -0.062172 0.000423 -9.70004 0.0568284 4.51535 2650 
1515 1 -0.0303339 -0.0315536 -0.0618398 0.000116 -9.94168 -0.31496 4.87427 2650 
1365 1 -0.0296364 -0.0301068 -0.0618323 0.000423 -9.92522 0.035916 4.7552 2650 
3763 1 -0.0301143 -0.0288463 -0.0616054 0.000423 -8.58859 -0.58244 4.22938 2650 
2909 1 -0.0287529 -0.0270261 -0.0622497 0.000423 -9.46276 -0.10734 4.37135 2650 
786 1 -0.0312158 -0.0494732 -0.0610623 0.000423 -9.63661 -0.0185989 4.92618 2650 
4319 1 -0.0304808 -0.0459726 -0.0614317 0.000423 -9.68079 -0.0353721 4.8032 2650 
4130 1 -0.0323609 -0.0361058 -0.0608082 0.000116 -9.60143 0.131568 5.10933 2650 
2854 1 -0.0320329 -0.0345273 -0.0610638 4.2e-05 -9.21985 0.406315 4.83393 2650 
91 1 -0.032299 -0.0280291 -0.0608411 0.000116 -9.36285 0.0459866 4.97215 2650 
3096 1 -0.0321206 -0.0455551 -0.0605909 0.000423 -9.3245 -0.0689722 4.94246 2650 
378 1 -0.0324848 -0.0429581 -0.0603957 0.000423 -9.33896 0.0752019 5.02541 2650 
1202 1 -0.0330592 -0.0398376 -0.0605159 4.2e-05 -9.59732 -0.0130717 5.24312 2650 
3769 1 -0.0330686 -0.0317991 -0.0600789 0.000423 -9.31653 -0.0625234 5.1292 2650 
1773 1 -0.0325235 -0.0308216 -0.0603758 0.000423 -9.29183 -0.171947 5.00502 2650 
3934 1 -0.032641 -0.0182152 -0.0606591 0.000116 -8.14473 0.0335261 4.37901 2650 
1197 1 -0.0328951 -0.0116445 -0.060523 0.000116 -7.36094 -0.221814 4.00053 2650 
403 1 -0.0328749 -0.00872835 -0.0605337 0.000116 -7.41195 0.409843 4.02226 2650 
1218 1 -0.0339592 -0.0543116 -0.0593144 0.000656 -9.32019 -0.00951077 5.33624 2650 
3844 1 -0.0335352 -0.0481989 -0.0595549 0.000656 -9.34813 0.00184031 5.2639 2650 
1136 1 -0.0343597 -0.0473384 -0.0593498 0.000423 -9.34285 -0.00148142 5.40911 2650 
1433 1 -0.0334572 -0.0441244 -0.0595977 0.000656 -9.20298 0.110234 5.1668 2650 
1131 1 -0.0345137 -0.0348778 -0.0592612 0.000423 -9.19542 0.0740788 5.35494 2650 
3863 1 -0.0342709 -0.0297951 -0.0594015 0.000423 -9.23538 -0.0583523 5.32868 2650 
2193 1 -0.0350478 -4.20009e-05 -0.0593873 4.2e-05 -8.28387 0.000508801 4.88657 2650 
115 1 -0.034564 -0.0573452 -0.0589634 0.000656 -9.2651 -0.00279441 5.43125 2650 
1463 1 -0.0353684 -0.0566474 -0.0587547 0.000423 -9.22753 -0.00249133 5.55466 2650 
1214 1 -0.0342691 -0.0560785 -0.0591357 0.000656 -9.28962 -0.00361499 5.38332 2650 
2970 1 -0.0344389 -0.0531222 -0.0590375 0.000656 -9.22307 0.0193767 5.38032 2650 
1798 1 -0.0351613 -0.0461051 -0.0588782 0.000423 -9.17731 -0.156013 5.4859 2650 
3727 1 -0.0355705 -0.0438975 -0.0590751 4.2e-05 -7.82444 1.45426 4.70764 2650 
1914 1 -0.0350444 -0.0441389 -0.0589472 0.000423 -9.13822 -0.0353613 5.43292 2650 
528 1 -0.0361283 -0.0365996 -0.0586496 0.000116 -9.19835 -0.122855 5.66635 2650 
1964 1 -0.0357708 -0.0353929 -0.0588686 0.000116 -9.12646 0.057634 5.54554 2650 
183 1 -0.0353662 -0.00600786 -0.0591126 0.000116 -8.12971 0.245194 4.86128 2650 
1878 1 -0.0357103 -0.0575534 -0.0582764 0.000656 -9.15537 -0.000398172 5.61019 2650 
3404 1 -0.0359027 -0.0441823 -0.0581576 0.000656 -9.01992 -0.0730386 5.56427 2650 
3605 1 -0.036655 -0.0324733 -0.0583227 0.000116 -9.19599 0.207893 5.7793 2650 
1162 1 -0.0376961 -0.0224873 -0.0576541 0.000116 -8.29927 -0.358615 5.42753 2650 
3030 1 -0.0367578 -0.0171304 -0.0582571 0.000116 -7.59812 0.43738 4.79908 2650 
2676 1 -0.0364761 -0.00897629 -0.0580734 0.000423 -6.89606 -0.250713 4.32171 2650 
1390 1 -0.0368575 -0.000971867 -0.0581938 0.000116 -6.84487 0.16565 4.32908 2650 
3119 1 -0.0378418 -0.0517934 -0.0571937 0.000423 -8.88992 -0.00405788 5.88161 2650 
3946 1 -0.0384775 -0.0298616 -0.0572255 4.2e-05 -8.80219 -0.0795581 5.91773 2650 
2711 1 -0.0384527 -0.0293441 -0.0571528 0.000116 -8.92216 -0.377987 5.99195 2650 
4362 1 -0.0386019 -0.0193489 -0.0570513 0.000116 -7.36152 -0.252195 4.98128 2650 
956 1 -0.0389782 -0.000115996 -0.0567951 0.000116 -7.99239 8.86401e-06 5.48396 2650 
3603 1 -0.038743 -0.000116021 -0.056956 0.000116 -8.01285 0.00060049 5.45298 2650 
228 1 -0.0383315 -0.0378132 -0.0565867 0.000656 -8.81024 -0.0608494 5.96775 2650 
2057 1 -0.0391392 -0.0309498 -0.0566851 0.000116 -9.04013 0.142965 6.24168 2650 
2631 1 -0.0391268 -0.027807 -0.0567833 4.2e-05 -7.6181 0.506666 5.25126 2650 
659 1 -0.0400903 -4.20217e-05 -0.0561068 4.2e-05 -7.8396 -0.00129837 5.60517 2650 
1863 1 -0.0398746 -4.19993e-05 -0.0562598 4.2e-05 -7.8752 -7.83353e-08 5.58111 2650 
1833 1 -0.0399292 -0.000116006 -0.0561306 0.000116 -7.8594 0.00106044 5.59337 2650 
3139 1 -0.0396383 -0.000115993 -0.0563366 0.000116 -7.92965 0.000792122 5.58065 2650 
293 1 -0.0394357 -0.000115996 -0.0564783 0.000116 -7.94948 5.46671e-06 5.55058 2650 
849 1 -0.04039 -0.0299993 -0.0558008 0.000116 -8.81121 -0.0315096 6.37686 2650 
1289 1 -0.0403607 -0.000115994 -0.0558212 0.000116 -7.80753 -0.000924268 5.64463 2650 
3938 1 -0.0407014 -4.19993e-05 -0.0556646 4.2e-05 -7.7866 -4.59847e-06 5.69323 2650 
4036 1 -0.040622 -0.000342607 -0.0556313 0.000116 -7.76507 -0.0103044 5.66872 2650 
1061 1 -0.0405541 -0.000115996 -0.0556808 0.000116 -7.7909 -0.000413346 5.66909 2650 
102 1 -0.0402938 -4.19993e-05 -0.0559603 4.2e-05 -7.82557 1.89436e-06 5.63448 2650 
1522 1 -0.0401544 -0.000115996 -0.0559697 0.000116 -7.82666 -4.25977e-06 5.6123 2650 
139 1 -0.04094 -0.0322313 -0.0550174 0.000423 -8.61418 0.0389937 6.41024 2650 
955 1 -0.0419565 -0.0140816 -0.0546319 0.000116 -4.86302 0.171056 3.73327 2650 
3026 1 -0.0419939 -0.0121268 -0.0546032 0.000116 -7.65159 -0.120718 5.88343 2650 
3609 1 -0.0417963 -0.0103723 -0.0548475 4.2e-05 -6.72908 -0.00921202 5.12311 2650 
3720 1 -0.0423025 -4.19993e-05 -0.0544578 4.2e-05 -7.59403 -1.68406e-07 5.89857 2650 
1002 1 -0.0419368 -0.0417499 -0.053969 0.000656 -8.46892 -0.00213066 6.58081 2650 
2921 1 -0.0426157 -0.028633 -0.0541188 0.000116 -8.54039 -0.065554 6.7251 2650 
3593 1 -0.0429524 -0.0126539 -0.0538521 0.000116 -6.99402 0.0404359 5.58022 2650 
2764 1 -0.0423979 -0.0094139 -0.0539011 0.000423 -4.92313 0.212188 3.87275 2650 
1829 1 -0.0425515 -0.00535811 -0.0541693 0.000116 -7.61281 0.148236 5.98069 2650 
1177 1 -0.042701 -0.000115998 -0.0540519 0.000116 -7.50605 0.000226041 5.93072 2650 
3182 1 -0.0428723 -4.20121e-05 -0.0540107 4.2e-05 -7.46189 0.000396561 5.9286 2650 
2298 1 -0.042516 -0.000116005 -0.0541978 0.000116 -7.52523 0.00045483 5.90613 2650 
1743 1 -0.0439539 -0.0169097 -0.0530382 0.000116 -7.93565 -0.402445 6.5803 2650 
38 1 -0.0440359 -0.0416567 -0.052644 0.000423 -8.26929 6.03395e-09 6.91714 2650 
4177 1 -0.0441984 -0.0288219 -0.0524339 0.000423 -8.21051 0.00184044 6.91968 2650 
2415 1 -0.0452383 -0.0366104 -0.0520326 4.2e-05 -8.19027 -0.0199752 7.12082 2650 
853 1 -0.0453259 -0.0292381 -0.0518361 0.000116 -7.51295 0.119129 6.54528 2650 
733 1 -0.046013 -0.0232052 -0.0512614 0.000116 -7.66228 0.0215786 6.88183 2650 
2539 1 -0.0456865 -0.0450952 -0.0508329 0.000656 -7.96631 -0.0697812 7.16057 2650 
1593 1 -0.0459307 -0.0436564 -0.0509248 0.000423 -8.04421 -0.0459002 7.25604 2650 
1647 1 -0.0461424 -8.11189e-05 -0.0512448 4.2e-05 -7.16272 -0.00427015 6.45045 2650 
797 1 -0.0468856 -0.0386752 -0.0500409 0.000423 -7.92345 0.0507869 7.42367 2650 
427 1 -0.0472152 -0.037599 -0.0501493 0.000116 -7.93372 -0.19289 7.46995 2650 
3647 1 -0.0471797 -0.0371083 -0.0497676 0.000423 -7.93064 -0.176474 7.51722 2650 
917 1 -0.0471239 -0.0334632 -0.0498208 0.000423 -7.88459 -0.229864 7.45968 2650 
282 1 -0.0469262 -0.0198056 -0.0504267 0.000116 -4.80353 -1.05063 4.47421 2650 
1398 1 -0.0469539 -0.0129703 -0.0503889 0.000116 -7.01881 0.170482 6.5776 2650 
2883 1 -0.0475538 -0.0623438 -0.0494129 0.000423 -7.75786 -0.00211678 7.46607 2650 
1175 1 -0.0480635 -0.0306281 -0.0493378 0.000116 -7.74686 0.313809 7.54394 2650 
1550 1 -0.0482954 -0.0606172 -0.0483614 0.000656 -7.5982 -0.00303356 7.58786 2650 
1723 1 -0.0486583 -0.0252796 -0.0487497 0.000116 -7.67774 0.481216 7.66166 2650 
3292 1 -0.0487006 -0.0031221 -0.048819 4.2e-05 -6.58851 -0.041374 6.58879 2650 
2266 1 -0.048975 -0.000116001 -0.0484399 0.000116 -6.69354 -0.000223986 6.76756 2650 
3601 1 -0.0499503 -0.0263059 -0.0474326 0.000116 -7.24404 0.137115 7.62904 2650 
3506 1 -0.0498419 -0.00958801 -0.0476534 4.2e-05 -7.58816 -0.250308 7.94022 2650 
618 1 -0.0508108 -0.0488385 -0.0465104 0.000116 -7.28188 -0.0391961 7.95505 2650 
3443 1 -0.0498998 -0.0267916 -0.0470408 0.000423 -7.57845 0.0484898 8.03674 2650 
326 1 -0.050792 -0.00725371 -0.046641 4.2e-05 -6.49986 -0.000644282 7.07446 2650 
1464 1 -0.0498895 -0.00542674 -0.0470533 0.000423 -6.20795 0.51012 6.59149 2650 
577 1 -0.0510514 -0.0414921 -0.0457904 0.000423 -7.18112 -0.0192697 8.00687 2650 
1931 1 -0.0514689 -0.00519159 -0.0457819 0.000116 -6.27265 -0.0910941 7.05329 2650 
4377 1 -0.0510175 -4.19989e-05 -0.0463938 4.2e-05 -6.01376 -3.6695e-06 6.60799 2650 
164 1 -0.0516756 -0.0479095 -0.0450845 0.000423 -7.07869 -0.018622 8.11357 2650 
3328 1 -0.0512581 -0.0465996 -0.0455584 0.000423 -7.16675 0.0395714 8.06207 2650 
2443 1 -0.0515146 -0.0314035 -0.0452702 0.000423 -7.18825 -0.405774 8.18028 2650 
4112 1 -0.0516067 -0.0269783 -0.0456262 0.000116 -6.92164 -0.0798006 7.8298 2650 
1436 1 -0.0518783 -0.0564521 -0.0444973 0.000656 -6.98649 0.0238618 8.14539 2650 
4259 1 -0.0522092 -0.00296712 -0.0449351 0.000116 -6.0589 -0.0977143 7.03515 2650 
3440 1 -0.0525339 -0.0615064 -0.0440815 0.000423 -6.93494 0.0319169 8.26483 2650 
1285 1 -0.0529131 -0.0208286 -0.0441051 0.000116 -6.21129 -0.0685915 7.45745 2650 
3873 1 -0.0529832 -0.0097073 -0.0435412 0.000423 -5.06608 -0.19275 6.16711 2650 
4228 1 -0.0532446 -0.00482579 -0.0437037 0.000116 -6.12845 -0.0305506 7.46658 2650 
440 1 -0.0535513 -6.60156e-05 -0.0434449 4.2e-05 -5.73659 0.080685 7.07644 2650 
2002 1 -0.0536705 -0.0453054 -0.04269 0.000423 -6.77283 -0.0537205 8.48451 2650 
3219 1 -0.0532999 -0.00786296 -0.0431532 0.000423 -5.17535 0.0616037 6.40902 2650 
2232 1 -0.0539551 -0.0543864 -0.0423311 0.000423 -6.6576 -0.0245126 8.45698 2650 
2865 1 -0.0538922 -0.0529161 -0.0420364 0.000656 -6.60287 0.00500568 8.46504 2650 
4201 1 -0.0541999 -0.0463338 -0.0420165 0.000423 -6.60878 -0.000305614 8.52514 2650 
1182 1 -0.05475 -0.000115998 -0.0418027 0.000116 -5.85556 -0.000120957 7.66652 2650 
443 1 -0.0542299 -0.0509979 -0.0415999 0.000656 -6.53452 2.19154e-05 8.51845 2650 
2096 1 -0.0544135 -0.0473557 -0.0413588 0.000656 -6.48849 -0.00202859 8.53702 2650 
1822 1 -0.0551793 -0.0326354 -0.0412356 0.000116 -4.62287 -1.39371 6.18798 2650 
3047 1 -0.0550466 -0.00338397 -0.0414112 0.000116 -5.76025 -0.0527828 7.65229 2650 
3079 1 -0.0550033 -0.0595423 -0.0405703 0.000656 -6.37282 -7.54334e-07 8.63997 2650 
2023 1 -0.0560989 -0.0562215 -0.0394449 0.000423 -6.21669 0.0217532 8.84184 2650 
1372 1 -0.0559932 -0.0484791 -0.0395958 0.000423 -6.21399 -0.032357 8.78735 2650 
601 1 -0.0555784 -0.0480203 -0.0401759 0.000423 -6.31393 -0.0022195 8.73463 2650 
505 1 -0.0562249 -0.0431681 -0.0397965 0.000116 -6.04912 -0.264782 8.54707 2650 
2224 1 -0.0558584 -0.041767 -0.0397853 0.000423 -6.18538 0.0113187 8.68425 2650 
1616 1 -0.0561423 -0.0234495 -0.0399129 0.000116 -6.11441 -0.165758 8.59991 2650 
4116 1 -0.0563843 -0.0182851 -0.0395699 0.000116 -5.63762 0.0849339 8.02816 2650 
2049 1 -0.0560776 -0.00981361 -0.0400052 0.000116 -5.35973 0.241962 7.52735 2650 
3314 1 -0.0564209 -0.0471692 -0.0389831 0.000423 -6.09829 -0.0686153 8.82638 2650 
114 1 -0.0560778 -0.0452515 -0.03907 0.000656 -6.14607 -0.030283 8.82134 2650 
1901 1 -0.0565347 -0.0443059 -0.0388165 0.000423 -6.10561 -0.0314622 8.89235 2650 
976 1 -0.0569708 -0.0277418 -0.0387213 0.000116 -5.85959 0.0977185 8.62099 2650 
2696 1 -0.056521 -0.00621854 -0.0393757 0.000116 -5.37457 -0.314339 7.70877 2650 
870 1 -0.0571266 -4.2036e-05 -0.0386231 4.2e-05 -5.45183 -0.000290648 8.07079 2650 
3390 1 -0.0569976 -0.000115993 -0.0386816 0.000116 -5.46257 -0.000473594 8.05187 2650 
3285 1 -0.0574647 -0.0140113 -0.0381182 4.2e-05 -5.34187 -0.207136 8.05269 2650 
3265 1 -0.0574918 -0.00274321 -0.0379432 0.000116 -5.33172 0.093029 8.08153 2650 
2165 1 -0.0571435 -0.000115996 -0.0384657 0.000116 -5.43519 0.000207981 8.07206 2650 
327 1 -0.0573317 -4.19999e-05 -0.0383174 4.2e-05 -5.41144 -0.000154704 8.09879 2650 
4255 1 -0.0582582 -0.000115997 -0.0367557 0.000116 -5.2306 7.20611e-07 8.28706 2650 
213 1 -0.0581968 -4.19996e-05 -0.0369907 4.2e-05 -5.25455 1.54718e-05 8.271 2650 
3360 1 -0.0587458 -0.004064 -0.0359713 0.000116 -4.46855 0.58944 7.30746 2650 
3501 1 -0.0587485 -4.19993e-05 -0.0361082 4.2e-05 -5.14069 -1.02576e-05 8.36898 2650 
2343 1 -0.0590172 -0.0520563 -0.034928 0.000423 -5.48693 0.00122534 9.27113 2650 
1451 1 -0.0588153 -0.024575 -0.0352659 0.000423 -5.09051 0.015869 8.4875 2650 
1499 1 -0.0592383 -0.0185093 -0.0351542 0.000116 -5.04598 0.182551 8.50555 2650 
2164 1 -0.0592078 -0.00867995 -0.035205 0.000116 -4.90977 0.0496847 8.24911 2650 
2457 1 -0.0594503 -0.0535549 -0.034185 0.000423 -5.37062 -0.000485592 9.33992 2650 
1213 1 -0.0590937 -0.0482503 -0.0343404 0.000656 -5.39353 -0.000659634 9.28133 2650 
2401 1 -0.0597132 -0.038486 -0.0343415 0.000116 -5.27156 -0.0324532 9.15822 2650 
4186 1 -0.0594689 -0.0230206 -0.0341522 0.000423 -4.93623 -0.0161802 8.5754 2650 
2079 1 -0.0597841 -0.000120322 -0.0343662 4.2e-05 -4.83634 0.0159016 8.38621 2650 
1132 1 -0.0596507 -0.0580099 -0.0338349 0.000423 -5.31476 -8.47297e-06 9.36989 2650 
2417 1 -0.0600756 -5.23058e-05 -0.0338528 4.2e-05 -4.58324 -0.0334315 8.12804 2650 
989 1 -0.0606522 -0.0245015 -0.0327925 4.2e-05 -4.86419 -0.0262956 8.99691 2650 
2497 1 -0.0605037 -0.0188034 -0.0329163 0.000116 -3.72117 -0.429099 6.93521 2650 
1768 1 -0.0603372 -0.0482446 -0.0321049 0.000656 -5.04994 0.0438319 9.49082 2650 
687 1 -0.0605655 -0.0240538 -0.0321597 0.000423 -4.85084 0.335965 9.13881 2650 
3247 1 -0.0614234 -0.00365978 -0.0311686 0.000116 -4.10595 -0.0664652 8.06548 2650 
3416 1 -0.0614002 -0.0292677 -0.0305319 0.000423 -4.4549 0.370495 8.94901 2650 
2083 1 -0.0618034 -0.00608988 -0.0305793 4.2e-05 -4.11106 -0.784524 8.27198 2650 
3819 1 -0.0619777 -0.00473888 -0.0300601 0.000116 -4.08811 -0.236646 8.40722 2650 
2523 1 -0.0624673 -4.19991e-05 -0.0292061 4.2e-05 -4.12867 1.86322e-07 8.83268 2650 
4254 1 -0.0623436 -0.000115996 -0.029296 0.000116 -4.14962 2.16583e-07 8.82786 2650 
1280 1 -0.0622444 -0.000115998 -0.0295068 0.000116 -4.174 -0.00155813 8.81508 2650 
1859 1 -0.0626318 -0.00129767 -0.0288507 4.2e-05 -3.92266 0.443139 8.50231 2650 
1952 1 -0.0624718 -0.000116 -0.0290221 0.000116 -4.1146 4.36908e-05 8.85648 2650 
1382 1 -0.0625693 -0.000115997 -0.0288107 0.000116 -4.08518 -9.33906e-07 8.87032 2650 
1834 1 -0.062755 -0.000115996 -0.0284042 0.000116 -4.02922 -1.14182e-06 8.89828 2650 
1325 1 -0.062237 -0.0560267 -0.0282476 0.000656 -4.43701 -0.000569283 9.77593 2650 
1096 1 -0.0630682 -0.00179742 -0.0278827 4.2e-05 -3.8433 -0.136811 8.69302 2650 
1062 1 -0.0628824 -0.000115996 -0.0281215 0.000116 -3.98735 2.37189e-06 8.91364 2650 
425 1 -0.0629828 -0.000115996 -0.0278954 0.000116 -3.95521 -1.59431e-06 8.92843 2650 
4120 1 -0.0630811 -0.000115995 -0.0276728 0.000116 -3.9238 -0.000116662 8.94265 2650 
3168 1 -0.0631517 -0.0180143 -0.0275096 0.000116 -3.9767 -0.0949995 9.13415 2650 
1840 1 -0.0632286 -0.000115995 -0.0273337 0.000116 -3.87342 7.69909e-05 8.96256 2650 
1867 1 -0.0634414 -4.19993e-05 -0.0270248 4.2e-05 -3.80492 5.50733e-09 8.92921 2650 
2385 1 -0.0634209 -0.000115999 -0.0268845 0.000116 -3.78277 0.000381861 8.92571 2650 
3457 1 -0.0635532 -0.00327494 -0.0265664 0.000116 -3.82763 0.290572 9.15754 2650 
2388 1 -0.0636307 -0.00138745 -0.0263817 0.000116 -3.64228 -0.0171143 8.78904 2650 
4239 1 -0.0635113 -0.000116013 -0.0266708 0.000116 -3.75362 0.00045747 8.93875 2650 
3395 1 -0.0637145 -4.19993e-05 -0.0263749 4.2e-05 -3.70709 -1.22442e-05 8.96096 2650 
397 1 -0.0636005 -0.000115997 -0.0264567 0.000116 -3.72316 5.61067e-05 8.95085 2650 
4146 1 -0.0636922 -0.000115995 -0.0262357 0.000116 -3.69025 -0.000475006 8.95889 2650 
2952 1 -0.0637417 -0.000539587 -0.0261147 0.000116 -3.60536 0.0196516 8.80697 2650 
402 1 -0.0641018 -0.00731067 -0.0252189 0.000116 -3.41777 -0.259146 8.69295 2650 
325 1 -0.0639615 -0.0010752 -0.0257697 4.2e-05 -3.62599 -0.143027 9.00343 2650 
3504 1 -0.0639486 -4.2017e-05 -0.0258026 4.2e-05 -3.62759 -0.000225174 8.99173 2650 
3694 1 -0.0644079 -0.0321156 -0.0244287 0.000116 -3.93467 -0.138004 10.3727 2650 
1001 1 -0.0635445 -0.0280829 -0.0251697 0.000656 -3.90649 -0.130405 9.86262 2650 
2179 1 -0.0643554 -0.0275697 -0.0245659 0.000116 -3.95073 -0.209886 10.3512 2650 
3025 1 -0.0643463 -0.0262241 -0.0245881 0.000116 -3.6666 -0.0201796 9.58506 2650 
643 1 -0.0645415 -0.0278699 -0.0240696 0.000116 -3.78472 0.173862 10.1499 2650 
330 1 -0.0645073 -0.0265196 -0.0243707 4.2e-05 -3.57753 0.0316295 9.46727 2650 
3903 1 -0.0649429 -0.00457371 -0.0229643 0.000116 -3.14777 -0.365789 8.90049 2650 
1967 1 -0.0647124 -0.0025772 -0.023606 0.000116 -3.22607 -0.138487 8.82656 2650 
715 1 -0.064518 -0.000422957 -0.0232461 0.000423 -3.20416 -0.000888337 8.8898 2650 
862 1 -0.0651928 -0.0214922 -0.0222456 0.000116 -3.29043 0.0491982 9.6479 2650 
657 1 -0.0651454 -0.00593525 -0.0226117 4.2e-05 -3.16744 0.0341796 9.1142 2650 
2501 1 -0.0656801 -0.0333369 -0.0207662 0.000116 -2.53586 -0.381644 8.03868 2650 
2619 1 -0.0655881 -0.0222434 -0.0210523 0.000116 -3.13645 -0.115969 9.759 2650 
2159 1 -0.0656278 -0.00365039 -0.0209286 0.000116 -2.65254 0.386868 8.32868 2650 