ITEM: TIMESTEP
17287034
ITEM: NUMBER OF ATOMS
4256
ITEM: BOX BOUNDS ff ff ff
-0.15 0.15
-0.15 0.15
-0.15 0.15
ITEM: ATOMS id type x y z radius vx vy vz density 
984 1 -0.00370205 -0.0291062 -0.0688587 4.2e-05 -7.05105 -0.194914 0.37106 2650 
198 1 -0.00545889 -0.0269414 -0.0686675 0.000116 -8.35384 0.112722 0.659316 2650 
1619 1 -0.00269437 -0.024488 -0.0688313 0.000116 -8.48067 -0.0758223 0.326536 2650 
3486 1 -0.00241177 -0.0234536 -0.0688414 0.000116 -8.95491 -0.189863 0.316626 2650 
2074 1 -0.00183227 -0.0192373 -0.0688593 0.000116 -8.90208 0.0893835 0.230075 2650 
3708 1 -0.000271811 -0.0167745 -0.0688833 0.000116 -6.90789 -0.48445 0.0189188 2650 
3181 1 -0.000574798 -0.00554678 -0.0689549 4.2e-05 -3.56492 1.61512 0.0369402 2650 
528 1 -0.00329865 -0.00414499 -0.0688047 0.000116 -7.07176 0.196013 0.343259 2650 
2123 1 -0.00509878 -0.0323315 -0.0683884 0.000423 -8.91249 0.00201919 0.684535 2650 
2998 1 -0.000535378 -0.0322684 -0.0685761 0.000423 -8.92697 0.0201821 0.0637797 2650 
797 1 -0.00561894 -0.0233597 -0.0683474 0.000423 -8.17203 0.226746 0.66705 2650 
3349 1 -0.0111035 -0.0227237 -0.067983 0.000116 -8.3169 0.00241376 1.36222 2650 
1164 1 -0.0099001 -0.0209946 -0.0681686 0.000116 -8.84276 -0.0313448 1.28323 2650 
4001 1 -0.00684608 -0.0209315 -0.0682354 0.000423 -8.57655 0.0400337 0.854736 2650 
3891 1 -0.00301046 -0.0207242 -0.0685124 0.000423 -8.62712 -0.0575349 0.374463 2650 
4011 1 -0.0109153 -0.0183034 -0.0680136 0.000116 -8.52343 0.0953361 1.36267 2650 
1734 1 -0.0104451 -0.0187302 -0.0680874 0.000116 -8.5162 0.0590844 1.30857 2650 
1478 1 -0.00114204 -0.0111718 -0.068568 0.000423 -6.95489 0.0208636 0.0867434 2650 
4235 1 -0.00776002 -0.0102698 -0.0684464 0.000116 -5.97331 -0.577164 0.704737 2650 
3538 1 -0.000771836 -0.0102394 -0.0685734 0.000423 -3.45551 -0.340976 0.0101214 2650 
2588 1 -0.00879058 -0.00551324 -0.0683213 0.000116 -6.64477 -0.429867 0.867492 2650 
1178 1 -0.0110904 -0.00166803 -0.067985 0.000116 -7.30056 0.0786272 1.18945 2650 
3024 1 -0.0109026 -0.000969794 -0.0680156 0.000116 -5.64069 -0.30911 0.894388 2650 
200 1 -0.0493586 -0.0631068 -0.0671487 0.000116 -11.1636 -0.140359 0.389602 2650 
95 1 -0.0137013 -0.0287266 -0.0675083 0.000116 -8.17152 0.285971 1.67042 2650 
1760 1 -0.0128067 -0.0224172 -0.0677579 4.2e-05 -6.73916 -0.479508 1.27428 2650 
3448 1 -0.0143743 -0.0206921 -0.0670559 0.000423 -8.63406 0.0203538 1.85065 2650 
3367 1 -0.0152401 -0.0147047 -0.0671761 0.000116 -8.66206 -0.0875537 1.95296 2650 
1074 1 -0.0121394 -0.00438076 -0.0678058 0.000116 -6.71888 0.0321205 1.19499 2650 
1463 1 -0.0153845 -0.0457267 -0.0668295 0.000423 -8.84203 -0.081659 2.02669 2650 
2800 1 -0.0168594 -0.0314201 -0.066474 0.000423 -8.63964 0.00435186 2.21356 2650 
3356 1 -0.0179388 -0.0299071 -0.0665078 0.000116 -8.8928 0.148076 2.40566 2650 
4069 1 -0.0168243 -0.0229775 -0.0664823 0.000423 -8.02922 -0.0274026 2.03375 2650 
1353 1 -0.0158054 -0.0211862 -0.066732 0.000423 -8.5262 -0.0546205 2.00541 2650 
711 1 -0.0160944 -0.00985605 -0.066659 0.000423 -7.01192 0.0235446 1.68823 2650 
1066 1 -0.0164672 -0.00931465 -0.0668831 0.000116 -5.59828 0.00383033 1.39484 2650 
1252 1 -0.0174765 -0.00800167 -0.0663007 0.000423 -5.65613 0.168168 1.50075 2650 
106 1 -0.0173404 -0.00557846 -0.0667402 4.2e-05 -5.61346 -0.0825551 1.38115 2650 
4145 1 -0.015844 -0.000296592 -0.0670372 0.000116 -4.93175 -0.00837701 1.16216 2650 
3409 1 -0.018826 -0.0536805 -0.0657034 0.000656 -9.27142 -0.0594627 2.63405 2650 
662 1 -0.0190814 -0.0374503 -0.0656294 0.000656 -8.92103 -0.0733227 2.58236 2650 
2877 1 -0.0181447 -0.0245491 -0.0661343 0.000423 -8.4728 -0.0456791 2.31257 2650 
3261 1 -0.0189745 -0.0155479 -0.0662142 0.000116 -8.35101 -0.208301 2.4005 2650 
1765 1 -0.018513 -0.0105867 -0.065781 0.000656 -5.6574 0.0031093 1.63817 2650 
3386 1 -0.0235728 -0.0412326 -0.0647249 0.000116 -7.92102 -0.0653828 2.9006 2650 
353 1 -0.0227332 -0.0207395 -0.0646763 0.000423 -8.78977 -0.00280191 2.60924 2650 
4307 1 -0.0238404 -0.0286173 -0.0642935 0.000423 -8.33499 0.0110129 3.03736 2650 
4177 1 -0.0235789 -0.0171829 -0.064397 0.000423 -6.82329 -0.486 2.51779 2650 
1925 1 -0.0240003 -0.0164391 -0.0642401 0.000423 -6.04433 0.239666 2.26805 2650 
1012 1 -0.0230119 -0.0156873 -0.0645989 0.000423 -5.68717 -0.30712 2.11941 2650 
2833 1 -0.0274747 -0.0342355 -0.063164 0.000116 -7.86765 0.0485984 3.42844 2650 
457 1 -0.0265803 -0.0345384 -0.0632021 0.000423 -8.46593 -0.0668952 3.59213 2650 
4023 1 -0.0264274 -0.0300216 -0.0635855 0.000116 -8.29732 0.272347 3.47322 2650 
1922 1 -0.0258877 -0.0216003 -0.0635035 0.000423 -8.28991 -0.160429 3.39063 2650 
1377 1 -0.0263765 -0.0206759 -0.0636341 0.000116 -8.47012 -0.368675 3.5093 2650 
3812 1 -0.0286265 -0.0306588 -0.0626476 0.000116 -7.97771 0.0471523 3.65051 2650 
1961 1 -0.0287279 -0.0273661 -0.0625968 0.000116 -7.94008 0.0233669 3.63745 2650 
3668 1 -0.0280523 -0.0213618 -0.0625782 0.000423 -7.92935 0.0169804 3.54844 2650 
2136 1 -0.0295839 -0.0260045 -0.0618616 0.000423 -7.92366 -0.0285904 3.80962 2650 
3156 1 -0.03044 -0.0242397 -0.0617933 0.000116 -7.90435 -0.067654 3.88657 2650 
1343 1 -0.0303271 -0.0229308 -0.061507 0.000423 -7.92265 -0.0382994 3.90581 2650 
3692 1 -0.0295331 -0.0227975 -0.0622316 0.000116 -7.13006 -0.521238 3.36727 2650 
2632 1 -0.0303479 -0.0088333 -0.0619215 4.2e-05 -5.94537 -0.721042 2.92135 2650 
410 1 -0.0307337 -0.00411172 -0.0616476 0.000116 -5.88622 0.480367 2.93548 2650 
502 1 -0.029643 -0.00378835 -0.0621795 0.000116 -6.53693 -0.0296749 3.12616 2650 
333 1 -0.0308324 -0.0391292 -0.0609953 0.000656 -8.3782 -0.0418955 4.21527 2650 
3210 1 -0.0308578 -0.0237402 -0.0612403 0.000423 -7.86897 0.018956 3.97402 2650 
2965 1 -0.0314243 -0.0035365 -0.0613815 4.2e-05 -8.13306 0.58644 4.16436 2650 
1095 1 -0.0314353 -0.00345312 -0.0613758 4.2e-05 -7.97413 0.628722 4.08851 2650 
707 1 -0.032587 -0.0287341 -0.0603404 0.000423 -7.88182 -0.0462242 4.26415 2650 
4250 1 -0.033424 -0.0215112 -0.0602311 0.000116 -6.58661 -0.584859 3.66007 2650 
2023 1 -0.0345654 -0.0421417 -0.0592304 0.000423 -7.57643 0.0858921 4.42596 2650 
1333 1 -0.0345955 -0.0308981 -0.0592133 0.000423 -7.74046 -0.0725398 4.5252 2650 
2177 1 -0.0344956 -0.0208392 -0.0596249 0.000116 -7.66674 -0.130917 4.44769 2650 
2291 1 -0.0348323 -0.0150928 -0.0594285 0.000116 -7.87173 0.36209 4.61279 2650 
3625 1 -0.0348933 -0.057232 -0.0587675 0.000656 -8.3531 -0.033136 4.93462 2650 
579 1 -0.0354307 -0.0337439 -0.058717 0.000423 -7.53866 1.51338 4.51368 2650 
3875 1 -0.0352265 -0.025111 -0.0588391 0.000423 -7.68231 0.11663 4.60327 2650 
3693 1 -0.0360104 -0.023407 -0.0587216 0.000116 -7.64045 -0.169461 4.67914 2650 
365 1 -0.0352796 -0.021676 -0.0588072 0.000423 -7.61114 0.17036 4.59798 2650 
204 1 -0.035602 -0.0207018 -0.058971 0.000116 -7.67962 0.190446 4.64438 2650 
2167 1 -0.0360394 -0.0191802 -0.0587039 0.000116 -6.50719 -0.222713 4.00544 2650 
1197 1 -0.0360808 -0.0100493 -0.0586795 0.000116 -5.47013 -0.0498414 3.36554 2650 
3946 1 -0.037368 -0.0351052 -0.057956 4.2e-05 -7.46677 -0.169374 4.81091 2650 
1649 1 -0.0368943 -0.0113011 -0.0582591 4.2e-05 -6.19576 0.126171 3.91261 2650 
739 1 -0.0369714 -0.0115474 -0.0581226 0.000116 -6.47106 0.0860632 4.11911 2650 
4366 1 -0.0369384 -0.0103958 -0.0581438 0.000116 -11.7052 0.958203 7.4438 2650 
379 1 -0.0380151 -0.0410059 -0.0570776 0.000423 -7.50088 0.00965218 4.99782 2650 
2538 1 -0.0370084 -0.0272712 -0.0574593 0.000656 -7.74978 0.00640688 4.99857 2650 
2573 1 -0.0382018 -0.0248127 -0.0569524 0.000423 -7.29625 -0.0736485 4.89141 2650 
1119 1 -0.038516 -0.0239002 -0.0567398 0.000423 -7.24088 -0.0376486 4.92391 2650 
3054 1 -0.0387727 -0.0230554 -0.0569355 0.000116 -7.33874 -0.0122306 5.00118 2650 
15 1 -0.0376742 -0.0233278 -0.0573028 0.000423 -7.37964 -0.0264537 4.85747 2650 
3633 1 -0.0379491 -0.0192773 -0.0571209 0.000423 -6.07842 0.0736654 4.06646 2650 
1936 1 -0.0380375 -0.0184433 -0.0574295 0.000116 -6.33257 0.420643 4.19412 2650 
2269 1 -0.0382684 -0.0174542 -0.0572761 0.000116 -6.23085 0.528167 4.16154 2650 
1175 1 -0.0400106 -0.0312284 -0.0560735 0.000116 -7.12193 0.11071 5.07332 2650 
649 1 -0.0397395 -0.0301849 -0.0562658 0.000116 -7.14398 0.0923072 5.03886 2650 
921 1 -0.0387992 -0.0267267 -0.0565471 0.000423 -7.41415 0.00841709 5.09052 2650 
2765 1 -0.0391058 -0.0232764 -0.0563354 0.000423 -7.17572 0.0148625 5.01376 2650 
2298 1 -0.0400921 -0.0122711 -0.0560151 0.000116 -5.45513 -0.408406 3.90327 2650 
1311 1 -0.0402658 -0.0105918 -0.0559814 4.2e-05 -6.4731 0.157704 4.64036 2650 
1638 1 -0.0408565 -0.0250284 -0.0554593 0.000116 -7.14965 0.100428 5.26551 2650 
436 1 -0.0420575 -0.00316877 -0.0546475 4.2e-05 -5.38097 0.314873 4.14813 2650 
2037 1 -0.0418577 -0.00263795 -0.0547079 0.000116 -5.17382 -0.140976 3.96713 2650 
4308 1 -0.042363 -0.0332841 -0.0539292 0.000423 -7.03147 -0.0241527 5.52989 2650 
4302 1 -0.0420875 -0.0264819 -0.0541442 0.000423 -7.10396 0.041799 5.51614 2650 
1964 1 -0.0429677 -0.0210676 -0.0538403 0.000116 -7.7555 -0.134608 6.19299 2650 
1612 1 -0.0438656 -0.0265095 -0.0531114 0.000116 -6.99629 0.038539 5.77488 2650 
800 1 -0.0433064 -0.0261936 -0.0531743 0.000423 -6.98266 0.0558344 5.6681 2650 
337 1 -0.0430648 -0.0236419 -0.0530723 0.000656 -6.96862 -0.00164077 5.66441 2650 
413 1 -0.0438074 -0.0217764 -0.0531596 0.000116 -6.54001 -0.00929906 5.39008 2650 
4212 1 -0.0431477 -0.0210013 -0.053303 0.000423 -6.90128 -0.120828 5.60851 2650 
4124 1 -0.0438472 -0.0127043 -0.0531261 0.000116 -5.32194 -0.207593 4.39218 2650 
1207 1 -0.045077 -0.0173534 -0.0521734 4.2e-05 -6.67005 -0.152752 5.75051 2650 
3671 1 -0.0451837 -0.0237957 -0.0515767 0.000423 -6.42153 -0.176846 5.63221 2650 
3701 1 -0.0457492 -0.0181662 -0.0514906 0.000116 -5.38756 0.185583 4.88054 2650 
2274 1 -0.0456719 -0.017896 -0.0515566 0.000116 -5.70974 0.540702 5.08933 2650 
753 1 -0.0468577 -0.0269516 -0.0504541 0.000116 -6.58482 0.0270033 6.14739 2650 
2116 1 -0.046513 -0.0261492 -0.0503657 0.000423 -6.59796 0.00462847 6.11694 2650 
2000 1 -0.0462653 -0.0253718 -0.0506022 0.000423 -6.62852 -0.0211033 6.07245 2650 
1170 1 -0.0463048 -0.0224013 -0.0509973 0.000116 -6.36006 -0.24869 5.75978 2650 
3358 1 -0.046239 -0.0195164 -0.0510575 0.000116 -6.19426 -0.220598 5.60658 2650 
1177 1 -0.0461894 -0.00394381 -0.051091 0.000116 -5.14339 -0.0347091 4.64652 2650 
276 1 -0.0464457 -0.00253538 -0.0508668 0.000116 -6.15938 0.20715 5.61164 2650 
3013 1 -0.0469985 -0.0294838 -0.0498928 0.000423 -6.44603 -0.0652382 6.10573 2650 
821 1 -0.0466938 -0.0276433 -0.0501804 0.000423 -6.55721 -0.0262091 6.13629 2650 
1670 1 -0.0473344 -0.0275575 -0.0496022 0.000423 -6.45842 -0.0446145 6.22899 2650 
2576 1 -0.0470855 -0.0267682 -0.0498384 0.000423 -6.50083 -0.0233977 6.19576 2650 
1555 1 -0.04699 -0.0255858 -0.049942 0.000423 -6.5351 -0.00120312 6.16071 2650 
167 1 -0.0472892 -0.0240213 -0.0500791 0.000116 -6.51943 -0.0183497 6.17507 2650 
3527 1 -0.0470532 -0.0244688 -0.0498798 0.000423 -6.52523 -0.0244542 6.17034 2650 
1718 1 -0.047016 -0.0149147 -0.0503333 0.000116 -5.71122 0.0488773 5.42851 2650 
1591 1 -0.0475093 -0.0429089 -0.0494527 0.000423 -6.56529 0.00785505 6.32442 2650 
14 1 -0.0479481 -0.0297335 -0.0490261 0.000423 -6.32084 0.0461805 6.29802 2650 
1185 1 -0.0484354 -0.0276361 -0.0489688 0.000116 -6.39852 -0.0887307 6.32131 2650 
3639 1 -0.0479252 -0.0278648 -0.0490464 0.000423 -6.41441 -0.0940459 6.24483 2650 
3743 1 -0.047712 -0.0268119 -0.0492523 0.000423 -6.46657 -0.0274563 6.23142 2650 
2179 1 -0.0485143 -0.0254328 -0.0488908 0.000116 -6.41419 -0.0480484 6.37432 2650 
250 1 -0.0475421 -0.025978 -0.0494191 0.000423 -6.50628 0.00302767 6.19651 2650 
2954 1 -0.0482012 -0.0245815 -0.0492025 0.000116 -6.45748 -0.0211648 6.31548 2650 
4320 1 -0.0480198 -0.0252261 -0.04895 0.000423 -6.43057 -0.0258857 6.30061 2650 
3549 1 -0.0480946 -0.0237455 -0.0488835 0.000423 -6.38444 -0.00604825 6.28426 2650 
491 1 -0.0477003 -0.0243883 -0.049267 0.000423 -6.45669 -0.0237777 6.23284 2650 
2019 1 -0.0475022 -0.0235526 -0.0494601 0.000423 -6.4481 -0.0212055 6.1974 2650 
2620 1 -0.0479685 -0.0202618 -0.049437 0.000116 -6.15345 -0.0408458 5.97408 2650 
1444 1 -0.0486016 -0.0290888 -0.0483723 0.000423 -6.31488 0.133377 6.32441 2650 
3522 1 -0.0488805 -0.0271964 -0.0480924 0.000423 -6.22177 -0.0761307 6.35392 2650 
1045 1 -0.0482693 -0.0271473 -0.0487 0.000423 -6.34037 -0.0634412 6.27951 2650 
3529 1 -0.0483168 -0.0261206 -0.0486521 0.000423 -6.39078 -0.0372312 6.35154 2650 
249 1 -0.0488086 -0.0254339 -0.0481696 0.000423 -6.30526 -0.00596753 6.41839 2650 
3783 1 -0.0486791 -0.0239365 -0.0483018 0.000423 -6.31141 -0.00951602 6.34518 2650 
295 1 -0.0492255 -0.0212016 -0.0481854 0.000116 -5.98294 -0.0791221 6.11363 2650 
2055 1 -0.0493981 -0.0186535 -0.048008 0.000116 -5.80649 0.0422716 5.97202 2650 
222 1 -0.0491033 -0.0282486 -0.047535 0.000656 -6.18934 -0.0164521 6.40772 2650 
2248 1 -0.0491554 -0.0261425 -0.0478188 0.000423 -6.25084 -0.0495909 6.41407 2650 
2559 1 -0.0497009 -0.0266269 -0.04725 0.000423 -6.156 -0.0598025 6.47554 2650 
1943 1 -0.0496765 -0.0260448 -0.0477186 0.000116 -6.24578 -0.0810724 6.50668 2650 
2898 1 -0.0497346 -0.0257748 -0.0472167 0.000423 -6.12194 -0.0573746 6.49499 2650 
4098 1 -0.0491899 -0.0243792 -0.0477827 0.000423 -6.23488 0.00484875 6.43164 2650 
1453 1 -0.0491896 -0.0234985 -0.0477836 0.000423 -6.228 0.0262039 6.40953 2650 
625 1 -0.0495536 -0.0228105 -0.0478473 0.000116 -6.17797 0.0377814 6.39944 2650 
2350 1 -0.0492862 -0.0216239 -0.0476841 0.000423 -6.07136 -0.0610179 6.24591 2650 
1419 1 -0.04983 -0.0212639 -0.0475598 0.000116 -5.93705 -0.0665385 6.21593 2650 
2246 1 -0.0502979 -0.0269015 -0.0466156 0.000423 -6.07296 -0.0450538 6.54754 2650 
2338 1 -0.0504215 -0.0248812 -0.0464822 0.000423 -6.00657 -0.0888297 6.5308 2650 
2242 1 -0.0498105 -0.024249 -0.0471358 0.000423 -6.10921 -0.0372019 6.46476 2650 
3960 1 -0.0501631 -0.0234876 -0.0467603 0.000423 -6.01728 -0.0270004 6.4505 2650 
306 1 -0.0503882 -0.0228333 -0.0469676 0.000116 -5.89412 0.160281 6.31834 2650 
1818 1 -0.0505729 -0.0217447 -0.046769 0.000116 -5.93609 0.136202 6.42071 2650 
3636 1 -0.0505075 -0.0207217 -0.04639 0.000423 -5.86976 0.0632941 6.40392 2650 
4138 1 -0.050243 -0.00762257 -0.0471212 0.000116 -5.75432 -0.994159 6.12935 2650 
1487 1 -0.0505329 -0.00142571 -0.0468118 0.000116 -5.28228 -0.274282 5.70036 2650 
1474 1 -0.0510726 -0.0312232 -0.0457674 0.000423 -5.99673 -0.0537874 6.70517 2650 
1249 1 -0.0508728 -0.0269719 -0.0459875 0.000423 -5.99132 -0.0828469 6.63271 2650 
16 1 -0.0506286 -0.026129 -0.0462564 0.000423 -6.03096 -0.0458195 6.6226 2650 
3339 1 -0.0511278 -0.0256523 -0.0457047 0.000423 -5.96319 -0.0329696 6.66287 2650 
574 1 -0.0507215 -0.024143 -0.0461541 0.000423 -5.93667 -0.0389824 6.52675 2650 
465 1 -0.0511867 -0.0236539 -0.0456383 0.000423 -5.85898 -0.00447408 6.56566 2650 
4309 1 -0.0507486 -0.0229567 -0.0461244 0.000423 -5.87825 -0.0267381 6.48154 2650 
552 1 -0.0509145 -0.0218913 -0.0455961 0.000656 -5.79264 0.0107528 6.45067 2650 
3574 1 -0.0516092 -0.00304573 -0.0456226 0.000116 -4.77139 -0.200447 5.39079 2650 
681 1 -0.0515494 -0.0296151 -0.0452291 0.000423 -5.74655 -0.0798848 6.55401 2650 
2788 1 -0.0516412 -0.0283758 -0.0451242 0.000423 -5.838 -0.0126341 6.69858 2650 
381 1 -0.0519131 -0.0271948 -0.0448115 0.000423 -5.79434 -0.0429401 6.72702 2650 
27 1 -0.0514213 -0.0275924 -0.0453748 0.000423 -5.88239 -0.0139723 6.64833 2650 
4225 1 -0.0517772 -0.0261242 -0.0454327 0.000116 -5.89127 -0.0295702 6.71735 2650 
2501 1 -0.0519523 -0.0266654 -0.0452328 0.000116 -5.86018 -0.053399 6.7224 2650 
56 1 -0.0513324 -0.0264589 -0.0454755 0.000423 -5.91842 -0.0467067 6.66256 2650 
1360 1 -0.0515457 -0.0250573 -0.0452326 0.000423 -5.85122 -0.0356541 6.6529 2650 
235 1 -0.0517194 -0.0229378 -0.0450338 0.000423 -5.73603 0.0155004 6.5768 2650 
4026 1 -0.052993 -0.0338807 -0.0440095 0.000116 -5.41633 0.00741433 6.52718 2650 
2967 1 -0.0517111 -0.0322337 -0.0446918 0.000656 -5.86133 -0.0470474 6.77185 2650 
2340 1 -0.0521347 -0.0295902 -0.0445542 0.000423 -5.67134 -0.0881499 6.63809 2650 
3760 1 -0.0521906 -0.0285667 -0.044488 0.000423 -5.76706 -0.0312622 6.76078 2650 
672 1 -0.0518137 -0.0260882 -0.0445717 0.000656 -5.80308 -0.0649725 6.7373 2650 
2098 1 -0.0520418 -0.0247902 -0.0443039 0.000656 -5.75847 -0.0229318 6.70748 2650 
3834 1 -0.0524783 -0.0221465 -0.0447349 4.2e-05 -6.01365 0.184227 7.04645 2650 
2736 1 -0.0529773 -0.020595 -0.0440281 0.000116 -5.65471 -0.081415 6.79717 2650 
1378 1 -0.0526578 -0.0117484 -0.0444104 0.000116 -4.61304 -0.909122 5.47795 2650 
1587 1 -0.052077 -0.00867782 -0.0446216 0.000423 -4.71765 -0.10837 5.51765 2650 
3862 1 -0.0527129 -0.0389346 -0.0438671 0.000423 -5.81069 -0.0197907 6.97634 2650 
2468 1 -0.0531999 -0.0312218 -0.0432768 0.000423 -5.50869 -0.240272 6.77521 2650 
2539 1 -0.0524145 -0.0306565 -0.0438645 0.000656 -5.71207 -0.111714 6.83909 2650 
4323 1 -0.0527583 -0.0296122 -0.0438139 0.000423 -5.59564 -0.0454212 6.78396 2650 
1368 1 -0.0532369 -0.0274768 -0.0432294 0.000423 -5.60956 0.0311428 6.9066 2650 
2102 1 -0.0523881 -0.0276165 -0.0438949 0.000656 -5.67047 -0.0217384 6.82544 2650 
1168 1 -0.0531443 -0.0242113 -0.0438254 0.000116 -5.50931 0.0414478 6.68338 2650 
1773 1 -0.0528752 -0.0233365 -0.0436714 0.000423 -5.56509 0.17971 6.75609 2650 
3073 1 -0.0534561 -0.0197835 -0.0435614 4.2e-05 -5.81545 0.451162 7.1331 2650 
916 1 -0.0530845 -0.0202255 -0.0434169 0.000423 -5.6123 0.106142 6.84669 2650 
2879 1 -0.0527744 -0.0194696 -0.0437923 0.000423 -5.62207 0.0896349 6.78274 2650 
2909 1 -0.0526823 -0.00454392 -0.0439039 0.000423 -3.35265 0.389424 4.02592 2650 
1016 1 -0.0537078 -0.0391916 -0.0426433 0.000423 -5.6618 -0.0185482 7.11082 2650 
55 1 -0.053414 -0.0372468 -0.0430103 0.000423 -5.66858 0.00207868 7.05278 2650 
822 1 -0.053891 -0.0328676 -0.0424133 0.000423 -5.55813 -0.0120256 7.0569 2650 
3741 1 -0.0537175 -0.0310111 -0.0426329 0.000423 -5.41999 -0.158922 6.83479 2650 
4303 1 -0.0537776 -0.0301596 -0.0425562 0.000423 -5.50205 -0.154601 6.96254 2650 
3966 1 -0.0533055 -0.0297275 -0.0431469 0.000423 -5.53687 -0.212904 6.84708 2650 
1130 1 -0.0534695 -0.028306 -0.0429426 0.000423 -5.49825 -0.072901 6.82946 2650 
2976 1 -0.0530614 -0.0264044 -0.0430777 0.000656 -5.60505 0.0236079 6.87192 2650 
2683 1 -0.0533628 -0.022988 -0.0430743 0.000423 -5.50589 0.182856 6.80485 2650 
2631 1 -0.054235 -0.000617905 -0.042588 4.2e-05 -4.99265 -0.613105 6.36326 2650 
3425 1 -0.0543464 -0.0413835 -0.0418261 0.000423 -5.69783 -0.0119217 7.39818 2650 
2790 1 -0.0543301 -0.0380485 -0.0418473 0.000423 -5.53092 0.00208718 7.20006 2650 
636 1 -0.0548736 -0.0347994 -0.0416411 0.000116 -5.25166 0.0466879 6.91123 2650 
2937 1 -0.054566 -0.0304553 -0.0420437 0.000116 -5.37871 -0.28971 6.97885 2650 
4101 1 -0.0544797 -0.0297909 -0.0416541 0.000423 -5.41982 -0.181331 7.08772 2650 
2982 1 -0.0539813 -0.0275092 -0.0422974 0.000423 -5.51343 -0.0969631 7.01963 2650 
1659 1 -0.0537587 -0.0257145 -0.0422055 0.000656 -5.48396 0.00490434 6.9947 2650 
3385 1 -0.0543818 -0.024621 -0.0422804 0.000116 -5.28318 -0.0974821 6.79606 2650 
2337 1 -0.0541288 -0.0185795 -0.0421073 0.000423 -5.44123 -0.13963 6.99051 2650 
2738 1 -0.0547152 -0.0174891 -0.0419692 4.2e-05 -5.68291 0.363586 7.40571 2650 
1730 1 -0.0544121 -0.00888456 -0.0422427 0.000116 -4.61029 0.381768 5.97171 2650 
3045 1 -0.054397 -0.000707961 -0.0422604 0.000116 -4.66687 -0.190583 6.01439 2650 
4146 1 -0.0544261 -0.000238936 -0.0422229 0.000116 -4.63034 0.00323167 5.97988 2650 
288 1 -0.0545465 -0.000116002 -0.0420673 0.000116 -4.6249 -0.000317685 5.98672 2650 
1687 1 -0.054629 -0.0422727 -0.0414568 0.000423 -5.67055 -0.0495253 7.47446 2650 
2848 1 -0.0550198 -0.031491 -0.0415708 4.2e-05 -5.54182 0.177901 7.32574 2650 
3464 1 -0.0552209 -0.0272609 -0.0411788 0.000116 -5.4756 0.0130861 7.3421 2650 
2875 1 -0.0548004 -0.026245 -0.0412308 0.000423 -5.41059 0.0493257 7.19613 2650 
2310 1 -0.0552094 -0.00617769 -0.0413177 4.2e-05 -3.78256 0.415849 5.03986 2650 
2667 1 -0.0553322 -0.0417175 -0.0405143 0.000423 -5.56845 -0.0411487 7.60723 2650 
3482 1 -0.0558709 -0.0390349 -0.0402912 0.000116 -4.9121 0.209278 6.81012 2650 
4325 1 -0.0554247 -0.032328 -0.0403874 0.000423 -5.33555 0.0742223 7.35247 2650 
546 1 -0.0556738 -0.0224367 -0.0406889 4.2e-05 -5.49822 -0.198435 7.52664 2650 
549 1 -0.0558009 -0.0112246 -0.0405161 4.2e-05 -5.10544 -0.317884 7.02885 2650 
934 1 -0.0551066 -0.00534632 -0.04082 0.000423 -2.04612 -0.121583 2.74479 2650 
3256 1 -0.0559651 -0.00350955 -0.0401609 0.000116 -4.04314 0.0583002 5.63638 2650 
4220 1 -0.0563338 -0.00982531 -0.0396431 0.000116 -2.70886 -1.78178 3.89833 2650 
3329 1 -0.0565733 -0.0421696 -0.0387609 0.000423 -5.36295 0.0174176 7.79588 2650 
2131 1 -0.0566691 -0.0379162 -0.0386207 0.000423 -5.12811 -0.0148685 7.51986 2650 
2476 1 -0.0567374 -0.0368024 -0.0390626 0.000116 -5.01968 0.0800457 7.29183 2650 
3005 1 -0.0567636 -0.029882 -0.0384828 0.000423 -5.08392 0.0570998 7.4906 2650 
817 1 -0.0567682 -0.0253388 -0.0384755 0.000423 -4.84727 -0.0241402 7.13746 2650 
2702 1 -0.0567339 -0.0250119 -0.0390677 0.000116 -4.89693 -0.0637049 7.1096 2650 
51 1 -0.057304 -0.0489145 -0.0376719 0.000423 -5.25045 -0.0135468 7.99987 2650 
1877 1 -0.0569551 -0.0325386 -0.0377819 0.000656 -5.05214 -0.0180628 7.62333 2650 
902 1 -0.0571701 -0.0307956 -0.0378761 0.000423 -4.98373 -0.00246991 7.5507 2650 
2166 1 -0.0573379 -0.025732 -0.0381754 0.000116 -4.5725 -0.320594 6.85926 2650 
1053 1 -0.0572567 -0.00817378 -0.0382972 0.000116 -3.90604 -0.295712 5.83757 2650 
1032 1 -0.0569293 -0.00227105 -0.0382356 0.000423 -4.12543 0.00283767 6.17525 2650 
4084 1 -0.0577328 -0.0332976 -0.0370117 0.000423 -4.8884 -0.00977035 7.68005 2650 
1448 1 -0.0577232 -0.0320441 -0.0370263 0.000423 -4.96292 0.0215127 7.70062 2650 
1552 1 -0.0572384 -0.022606 -0.0373504 0.000656 -4.70347 0.00489824 7.24022 2650 
2635 1 -0.0579912 -0.000210588 -0.0373123 4.2e-05 -4.12304 -0.0572336 6.40241 2650 
229 1 -0.0579383 -0.0280672 -0.0362548 0.000656 -4.48845 -0.0676215 7.15907 2650 
2837 1 -0.0589796 -0.0233969 -0.0355864 0.000116 -4.6181 0.0790124 7.64705 2650 
1283 1 -0.0589569 -0.0143831 -0.0356237 0.000116 -3.41297 0.292252 5.63561 2650 
3264 1 -0.0591387 -0.0116872 -0.0353214 0.000116 -3.65762 -0.106986 6.12011 2650 
2201 1 -0.0594094 -0.047632 -0.0337899 0.000656 -4.82161 -0.0581811 8.42014 2650 
1166 1 -0.0598432 -0.0382636 -0.0341085 0.000116 -4.34082 0.567727 7.56173 2650 
1832 1 -0.0597281 -0.0179837 -0.0343161 0.000116 -3.89758 -0.208242 6.79009 2650 
2053 1 -0.0604151 -0.0301733 -0.0330458 0.000116 -4.38343 0.120604 7.99429 2650 
1196 1 -0.0601818 -0.0120266 -0.0334775 0.000116 -3.84972 -0.339954 6.84648 2650 
2947 1 -0.0601648 -0.010775 -0.0335089 0.000116 -3.08386 -0.113295 5.41764 2650 
1326 1 -0.060608 -0.0483735 -0.0315911 0.000656 -4.44984 -0.0280508 8.5289 2650 
2327 1 -0.0606995 -0.03327 -0.0318768 0.000423 -4.25205 0.0182711 8.13754 2650 
3513 1 -0.0606918 -0.0322977 -0.0314038 0.000656 -4.20363 -0.0070124 8.18099 2650 
4311 1 -0.060725 -0.0213233 -0.0318656 0.000423 -3.99106 -0.0484447 7.65553 2650 
2905 1 -0.0608139 -0.0165874 -0.0316928 0.000423 -3.16763 0.130336 6.12813 2650 
1572 1 -0.0609117 -0.0156296 -0.0315045 0.000423 -3.01591 0.272288 6.02429 2650 
816 1 -0.061291 -0.048491 -0.0307632 0.000423 -4.33108 -0.064714 8.58836 2650 
3964 1 -0.0613801 -0.0323957 -0.0305725 0.000423 -4.10541 -0.0258126 8.21314 2650 
1816 1 -0.0616076 -0.0193978 -0.03081 0.000116 -3.95767 0.094444 7.90123 2650 
2910 1 -0.0610695 -0.0146513 -0.0311985 0.000423 -3.02441 0.486666 5.84922 2650 
1863 1 -0.0614208 -0.000708766 -0.0313472 4.2e-05 -3.58666 -0.0712775 7.01397 2650 
1135 1 -0.0616636 -0.0466832 -0.0300099 0.000423 -4.07132 0.00508056 8.37463 2650 
833 1 -0.0619764 -0.0402208 -0.0300651 0.000116 -3.92429 -0.0730952 8.09242 2650 
121 1 -0.0612246 -0.0311811 -0.0303639 0.000656 -4.06976 -0.0111006 8.18278 2650 
2527 1 -0.0620593 -0.00252423 -0.0300618 4.2e-05 -2.74448 -0.641231 5.59668 2650 
1068 1 -0.06237 -0.0348599 -0.0292248 0.000116 -3.7692 0.29953 8.09644 2650 
3328 1 -0.0618811 -0.0315431 -0.0295457 0.000423 -3.93932 -0.0535256 8.28341 2650 
394 1 -0.0622786 -0.0278853 -0.0294078 0.000116 -3.63143 0.10252 7.72926 2650 
3351 1 -0.062463 -0.00379462 -0.0290329 0.000116 -3.22232 -0.289114 6.9434 2650 
1372 1 -0.0624233 -0.0368147 -0.0283883 0.000423 -3.74214 -0.0112168 8.22922 2650 
34 1 -0.0622413 -0.0310608 -0.0287851 0.000423 -3.86135 0.0765358 8.31558 2650 
132 1 -0.0623576 -0.0285948 -0.0285363 0.000423 -3.80033 0.0481708 8.40628 2650 
286 1 -0.0625384 -0.0215439 -0.0288778 0.000116 -3.63435 -0.448557 7.87728 2650 
82 1 -0.0626177 -0.0198654 -0.0287062 0.000116 -3.64849 -0.146918 7.93972 2650 
2714 1 -0.0627707 -0.0181557 -0.0283664 0.000116 -3.37619 0.244379 7.46126 2650 
1621 1 -0.0551278 -0.00663602 -0.0292969 0.000116 -8.35644 -0.290831 -4.47394 2650 
2679 1 -0.0627586 -0.0456812 -0.0276464 0.000423 -3.8448 0.0469803 8.72664 2650 
2670 1 -0.0626837 -0.037788 -0.0278146 0.000423 -3.70521 0.00856131 8.35252 2650 
1060 1 -0.0629656 -0.0296618 -0.0279307 0.000116 -3.75309 0.156127 8.45652 2650 
3517 1 -0.0626005 -0.0199053 -0.0274305 0.000656 -3.27884 -0.284809 7.42822 2650 
1602 1 -0.0628499 -0.00261066 -0.0281936 0.000116 -2.59752 -0.104931 5.9164 2650 
758 1 -0.06337 -0.0426189 -0.0270045 0.000116 -3.46649 -0.247741 8.12883 2650 
1471 1 -0.0631125 -0.0407992 -0.0268289 0.000423 -3.54461 0.00698837 8.34364 2650 
3001 1 -0.0631343 -0.0368481 -0.0267757 0.000423 -3.57315 -0.0358794 8.35129 2650 
3683 1 -0.0634875 -0.0294101 -0.0267258 0.000116 -3.2643 -0.0465824 7.75142 2650 
28 1 -0.0631013 -0.0272412 -0.0268509 0.000423 -3.32132 0.0191629 7.78212 2650 
212 1 -0.0634575 -0.0230301 -0.0269868 4.2e-05 -3.27767 0.196962 7.72424 2650 
109 1 -0.0633984 -0.000491893 -0.0271251 4.2e-05 -3.07574 -0.253803 7.18964 2650 
992 1 -0.0629828 -0.062144 -0.0265422 0.000656 -3.81343 -0.000517016 9.0566 2650 
3570 1 -0.0637474 -0.0346598 -0.0261011 0.000116 -3.41253 -0.0824054 8.31836 2650 
3734 1 -0.0632216 -0.0329815 -0.0259674 0.000656 -3.47805 -0.0274601 8.45174 2650 
4133 1 -0.0636567 -0.0322361 -0.0263233 0.000116 -3.48401 0.0210447 8.41102 2650 
892 1 -0.0630362 -0.0317514 -0.0264162 0.000656 -3.52468 -0.0142397 8.46088 2650 
4319 1 -0.0634088 -0.0297933 -0.0261215 0.000423 -3.45849 0.0351444 8.37741 2650 
4097 1 -0.0636497 -0.0319287 -0.0255287 0.000423 -3.3993 0.00581236 8.454 2650 
3536 1 -0.0635767 -0.0310983 -0.0257115 0.000423 -3.43692 0.032732 8.50758 2650 
2779 1 -0.063693 -0.0301978 -0.025422 0.000423 -3.37153 0.101429 8.43947 2650 
2089 1 -0.0642461 -0.000914772 -0.0250517 4.2e-05 -2.80811 -0.0635261 7.17857 2650 
3840 1 -0.0637411 -0.0536845 -0.0246668 0.000656 -3.43472 -0.0384482 8.93653 2650 
1022 1 -0.0640693 -0.0334126 -0.0244588 0.000423 -3.26335 -0.101551 8.52495 2650 
2353 1 -0.0640938 -0.0271218 -0.024393 0.000423 -3.11968 -0.0717814 8.17657 2650 
169 1 -0.0642428 -0.0011253 -0.024856 0.000116 -2.81075 0.00805167 7.26292 2650 
2010 1 -0.064193 -0.0355779 -0.0241304 0.000423 -3.19211 -0.0432757 8.52943 2650 
3882 1 -0.0642366 -0.0246803 -0.0240118 0.000423 -3.03828 -0.453158 8.11124 2650 
3572 1 -0.0646509 -0.0133969 -0.0237751 0.000116 -2.60796 -0.369846 7.07636 2650 
2419 1 -0.0647364 -0.0104801 -0.0237592 4.2e-05 -2.3761 -0.013512 6.48353 2650 
171 1 -0.064655 -0.0109298 -0.0237666 0.000116 -2.18157 0.189551 5.97253 2650 
4232 1 -0.064573 -0.00977085 -0.0239877 0.000116 -3.16026 0.795854 8.50264 2650 
4116 1 -0.0646818 -0.00880359 -0.0236935 0.000116 -2.67802 0.614154 7.33403 2650 
2295 1 -0.0649111 -0.0498783 -0.0230581 0.000116 -2.87838 -0.418615 8.11207 2650 
418 1 -0.0649191 -0.0354227 -0.0230328 0.000116 -2.92695 0.0105773 8.22536 2650 
4362 1 -0.0648116 -0.0256597 -0.0233334 0.000116 -2.85448 -0.319585 7.93548 2650 
1461 1 -0.0644957 -0.0251104 -0.0233069 0.000423 -2.8888 -0.204595 8.02057 2650 
3586 1 -0.0648395 -0.0227917 -0.023255 0.000116 -2.96603 0.0212585 8.27858 2650 
3376 1 -0.0647974 -0.0206781 -0.0233734 0.000116 -2.96547 0.312398 8.22823 2650 
3778 1 -0.0645899 -0.0114411 -0.0230473 0.000423 -2.10412 -0.043852 5.9111 2650 
1231 1 -0.0647539 -0.0347713 -0.0225812 0.000423 -2.95235 -0.0924576 8.48391 2650 
2641 1 -0.0645417 -0.0330716 -0.0224896 0.000656 -2.9662 -0.00306985 8.52731 2650 
2664 1 -0.0649733 -0.0292555 -0.0219426 0.000423 -2.72889 -0.221861 8.08337 2650 
406 1 -0.0653102 -0.0215487 -0.0218991 0.000116 -2.78454 -0.048052 8.28365 2650 
2036 1 -0.0653041 -0.011989 -0.0219197 0.000116 -2.30093 0.282032 6.88385 2650 
1529 1 -0.0656618 -0.043709 -0.0210637 4.2e-05 -2.65914 -0.0179882 8.25823 2650 
2560 1 -0.0650545 -0.0415809 -0.0217001 0.000423 -2.89815 -0.0368596 8.71613 2650 
2421 1 -0.0648705 -0.0344139 -0.0215215 0.000656 -2.82613 -0.136342 8.53907 2650 
538 1 -0.0657441 -0.0335817 -0.0205616 0.000116 -2.71333 -0.0370337 8.6946 2650 
3673 1 -0.0653197 -0.0336607 -0.0208905 0.000423 -2.75402 -0.160865 8.6031 2650 
2355 1 -0.0653052 -0.0293553 -0.020936 0.000423 -2.65031 -0.048629 8.28574 2650 
3204 1 -0.0654666 -0.0205034 -0.0204205 0.000423 -2.41342 -0.0298502 7.80194 2650 
2033 1 -0.065696 -0.0307364 -0.0196762 0.000423 -2.3509 -0.1502 7.88967 2650 
4305 1 -0.0657526 -0.0284475 -0.0194834 0.000423 -2.45341 -0.0557212 8.39699 2650 
2245 1 -0.0655411 -0.0289195 -0.0201858 0.000423 -2.56705 -0.0525177 8.34614 2650 
2519 1 -0.0659444 -0.00588947 -0.0201638 4.2e-05 -2.00819 -0.477298 6.56729 2650 
838 1 -0.0662198 -0.0179968 -0.0189716 0.000116 -2.06924 0.3879 7.19693 2650 
854 1 -0.0664364 -0.0350112 -0.0182003 0.000116 -2.16797 -0.120199 7.93941 2650 
1570 1 -0.0661924 -0.026264 -0.0179313 0.000423 -2.18596 0.446408 8.03574 2650 
658 1 -0.0663861 -0.0209823 -0.0186568 4.2e-05 -2.20878 0.16371 7.88044 2650 
479 1 -0.0660583 -0.0199622 -0.0184173 0.000423 -2.20194 0.127717 7.88603 2650 
1758 1 -0.0665498 -0.0185923 -0.0180635 4.2e-05 -1.54208 -1.40388 5.71094 2650 
4297 1 -0.0662672 -0.0419329 -0.017653 0.000423 -2.37453 -0.474393 8.94355 2650 