ITEM: TIMESTEP
25004459
ITEM: NUMBER OF ATOMS
4162
ITEM: BOX BOUNDS ff ff ff
-0.15 0.15
-0.15 0.15
-0.15 0.15
ITEM: ATOMS id type x y z radius vx vy vz density 
3276 1 -0.00358779 -0.0359206 -0.0687905 0.000116 -9.92533 -0.260736 0.515841 2650 
2371 1 -0.000918571 -0.0255063 -0.0688781 0.000116 -8.56622 0.885261 0.129048 2650 
2291 1 -0.00423723 -0.0205657 -0.0687538 0.000116 -9.52692 -0.0456761 0.589838 2650 
3802 1 -0.00280323 -0.0209581 -0.0688268 0.000116 -8.97499 -0.419512 0.360684 2650 
1818 1 -0.000752866 -0.0191829 -0.0688797 0.000116 -8.26003 0.0355403 0.0955579 2650 
2964 1 -0.00171206 -0.0180082 -0.0689365 4.2e-05 -8.57318 -0.322493 0.218911 2650 
1625 1 -0.00124586 -0.0158226 -0.0688728 0.000116 -8.3758 -0.11672 0.14727 2650 
1162 1 -0.000313627 -0.0133519 -0.0688834 0.000116 -8.11722 0.0441373 0.0505514 2650 
1169 1 -0.00418526 -0.0103411 -0.0687573 0.000116 -8.18898 -0.154982 0.50692 2650 
3463 1 -0.0051532 -0.00792656 -0.0686916 0.000116 -7.21105 -0.524226 0.55576 2650 
3619 1 -0.00468491 -0.00338663 -0.0687985 4.2e-05 -8.60047 -0.259955 0.582517 2650 
3181 1 -0.0027192 -0.00337704 -0.0689038 4.2e-05 -8.53908 -0.0123325 0.33838 2650 
3610 1 -0.00144714 -0.00146295 -0.0689425 4.2e-05 -8.12744 0.291706 0.17326 2650 
1402 1 -0.00520123 -0.000116009 -0.0686875 0.000116 -8.29228 -0.00286005 0.633284 2650 
2361 1 -0.00668145 -0.0443068 -0.0682519 0.000423 -10.2022 -0.00211919 0.99777 2650 
2430 1 -0.00551175 -0.0445077 -0.0681237 0.000656 -10.3073 0.0100202 0.837333 2650 
1915 1 -0.00887631 -0.0435815 -0.0680012 0.000423 -10.1721 -0.0259041 1.32792 2650 
2436 1 -0.00378097 -0.0437709 -0.0684742 0.000423 -10.2109 -0.0736677 0.572224 2650 
3015 1 -0.000789557 -0.0402502 -0.0685737 0.000423 -10.022 0.00477851 0.136248 2650 
1787 1 -0.000949966 -0.0381904 -0.0685718 0.000423 -9.96786 -0.0771395 0.135965 2650 
1914 1 -0.00746874 -0.0371112 -0.06817 0.000423 -9.53665 -0.120378 1.04167 2650 
1136 1 -0.00615692 -0.0348771 -0.0683016 0.000423 -9.63393 -0.130562 0.865714 2650 
802 1 -0.00703939 -0.0340618 -0.0682163 0.000423 -9.62122 0.0206955 1.00176 2650 
2349 1 -0.00418929 -0.0340069 -0.0684507 0.000423 -9.71035 -0.0748038 0.600199 2650 
831 1 -0.00722131 -0.0335806 -0.0685047 0.000116 -9.62133 0.0719828 1.01215 2650 
1116 1 -0.00590761 -0.0331882 -0.0683238 0.000423 -9.55431 0.0461171 0.825321 2650 
4213 1 -0.00269012 -0.0332201 -0.0685265 0.000423 -9.459 -0.0599561 0.367454 2650 
3844 1 -0.00238531 -0.0322059 -0.0683061 0.000656 -9.38414 -0.0787882 0.337287 2650 
1690 1 -0.00542187 -0.0294844 -0.0683641 0.000423 -9.6986 -0.0508328 0.761485 2650 
486 1 -0.00720024 -0.0284667 -0.0681993 0.000423 -9.67012 -0.102839 1.03524 2650 
935 1 -0.00200686 -0.028858 -0.0685499 0.000423 -9.69081 -0.0254421 0.28874 2650 
2928 1 -0.00936365 -0.0262747 -0.0682445 0.000116 -9.67071 -0.719753 1.32895 2650 
566 1 -0.00123063 -0.026284 -0.0685674 0.000423 -9.67702 0.171567 0.189584 2650 
3545 1 -0.00893143 -0.0230348 -0.0679939 0.000423 -9.4185 0.0300792 1.25646 2650 
1224 1 -0.00223098 -0.0230827 -0.0685418 0.000423 -9.89484 -0.0244703 0.323048 2650 
4376 1 -0.00815367 -0.0224117 -0.068474 4.2e-05 -9.34069 0.188174 1.11447 2650 
1916 1 -0.00620393 -0.0228675 -0.0682967 0.000423 -9.51536 0.00137018 0.863466 2650 
4011 1 -0.00709052 -0.0220088 -0.0685182 0.000116 -8.98169 0.161048 0.934725 2650 
71 1 -0.0082991 -0.021231 -0.0683823 0.000116 -9.40168 -0.350765 1.14459 2650 
1510 1 -0.0102276 -0.020036 -0.0681202 0.000116 -9.26221 0.0830097 1.39025 2650 
2622 1 -0.00673311 -0.0146361 -0.0685542 0.000116 -9.31526 -0.120643 0.9121 2650 
4355 1 -0.00916532 -0.0139384 -0.0682714 0.000116 -8.40729 0.234972 1.11899 2650 
4344 1 -0.00897339 -0.01416 -0.068297 0.000116 -8.45114 0.00642735 1.11192 2650 
3585 1 -0.0105124 -0.0127153 -0.068077 0.000116 -9.46101 0.134473 1.46294 2650 
1646 1 -0.00638832 -0.0126324 -0.0686615 4.2e-05 -9.58615 0.479068 0.890854 2650 
208 1 -0.00643782 -0.0128748 -0.0685829 0.000116 -9.07158 0.69323 0.851202 2650 
3058 1 -0.0111278 -0.0123575 -0.0679792 0.000116 -8.39289 0.158004 1.37542 2650 
934 1 -0.00123012 -0.0120617 -0.0685676 0.000423 -8.05725 0.0433983 0.136221 2650 
1730 1 -0.00642591 -0.00813169 -0.0685836 0.000116 -8.5766 -0.0631518 0.804871 2650 
4049 1 -0.0121623 -0.00423728 -0.0678765 4.2e-05 -10.7187 0.00121646 1.92129 2650 
3903 1 -0.00732122 -0.00380244 -0.0684938 0.000116 -8.22251 -0.549231 0.880647 2650 
871 1 -0.0105121 -4.20016e-05 -0.0681517 4.2e-05 -8.27471 -0.000466378 1.27805 2650 
3933 1 -0.0103422 -0.000499554 -0.068103 0.000116 -8.14037 -0.111283 1.23936 2650 
1927 1 -0.0103664 -0.000116004 -0.0680994 0.000116 -8.25405 -0.000614938 1.25325 2650 
1193 1 -0.01013 -0.000116038 -0.0681351 0.000116 -8.24933 0.000443436 1.22434 2650 
293 1 -0.00989854 -0.000115999 -0.068169 0.000116 -8.25575 -0.000150155 1.19664 2650 
3390 1 -0.00966566 -0.000115994 -0.0682025 0.000116 -8.25962 0.00234492 1.16902 2650 
311 1 -0.00943317 -0.000115986 -0.0682349 0.000116 -8.2575 -0.00127649 1.14026 2650 
2843 1 -0.00906917 -0.000116029 -0.0682843 0.000116 -8.2818 -0.00074401 1.10059 2650 
2169 1 -0.00753028 -0.000160838 -0.068471 0.000116 -8.35055 0.145431 0.918376 2650 
1952 1 -0.00729701 -0.000115994 -0.0684964 0.000116 -8.29741 -4.62507e-06 0.877874 2650 
3219 1 -0.0069128 -0.000423015 -0.0682288 0.000423 -8.25511 -0.00110198 0.839552 2650 
203 1 -0.00544796 -0.000642212 -0.0686681 0.000116 -8.24317 -0.114739 0.656254 2650 
1326 1 -0.0127683 -0.0555576 -0.0671437 0.000656 -10.1601 -0.0604025 1.92878 2650 
2228 1 -0.0121595 -0.0371001 -0.0674907 0.000423 -9.78142 -0.232707 1.75331 2650 
448 1 -0.012163 -0.0358662 -0.0672545 0.000656 -9.89707 -0.148723 1.78432 2650 
917 1 -0.0119152 -0.0339541 -0.0675352 0.000423 -9.66622 -0.0395444 1.70411 2650 
3140 1 -0.0124066 -0.0333093 -0.0677494 0.000116 -9.64125 -0.0033715 1.7403 2650 
3925 1 -0.013056 -0.0327538 -0.0676141 0.000116 -9.77414 -0.529156 1.87443 2650 
3679 1 -0.0132289 -0.0329052 -0.0675781 0.000116 -9.88931 -0.336977 1.92676 2650 
2708 1 -0.0118588 -0.0325347 -0.0678554 0.000116 -9.47424 0.530277 1.65502 2650 
814 1 -0.0123221 -0.0322214 -0.0674548 0.000423 -9.63223 -0.0433089 1.73481 2650 
2938 1 -0.0125772 -0.0286824 -0.0677138 0.000116 -8.65447 -0.613364 1.56267 2650 
2895 1 -0.0106537 -0.0252994 -0.0677454 0.000423 -9.52279 0.10124 1.50434 2650 
1039 1 -0.0134645 -0.025099 -0.0672325 0.000423 -9.49848 0.0153993 1.89482 2650 
2192 1 -0.0141889 -0.0244185 -0.0674735 4.2e-05 -9.59189 0.297219 2.01864 2650 
3136 1 -0.0133185 -0.0242918 -0.0675791 0.000116 -9.51808 0.0544811 1.86446 2650 
3747 1 -0.0134289 -0.0238045 -0.0672466 0.000423 -9.41418 -0.00949661 1.87142 2650 
1123 1 -0.0128321 -0.0243956 -0.0673621 0.000423 -9.50016 -0.0377796 1.80899 2650 
1410 1 -0.0123666 -0.0225382 -0.0677622 0.000116 -8.96545 0.330893 1.62176 2650 
3786 1 -0.0148709 -0.019713 -0.0672593 0.000116 -9.44167 -0.0155295 2.08211 2650 
1196 1 -0.0144806 -0.0185884 -0.0673401 0.000116 -9.28672 -0.362778 1.9962 2650 
2342 1 -0.0140836 -0.0173745 -0.0671095 0.000423 -8.48324 -0.0358346 1.78545 2650 
4017 1 -0.0135786 -0.0160649 -0.0675195 0.000116 -9.23496 -0.0591268 1.84858 2650 
42 1 -0.0105654 -0.0102308 -0.0677588 0.000423 -8.80192 0.0488942 1.36955 2650 
3350 1 -0.0148287 -0.00346052 -0.0672656 0.000116 -6.48055 0.103907 1.47833 2650 
4004 1 -0.0117595 -0.00385788 -0.0678728 0.000116 -7.61818 0.184748 1.31341 2650 
410 1 -0.015068 -0.00301669 -0.0672147 0.000116 -7.20653 -0.291269 1.63615 2650 
2741 1 -0.0153263 -4.19994e-05 -0.0672328 4.2e-05 -8.16435 0.00102516 1.86119 2650 
2399 1 -0.0129695 -0.000116003 -0.0676507 0.000116 -7.62738 0.000496252 1.46763 2650 
483 1 -0.0161425 -0.0397317 -0.0666485 0.000423 -9.85666 -0.172383 2.38878 2650 
3972 1 -0.0172464 -0.0386578 -0.066372 0.000423 -9.84001 -0.0185819 2.55458 2650 
4210 1 -0.0171658 -0.0300535 -0.0663825 0.000423 -9.33684 -0.0412319 2.41193 2650 
1601 1 -0.017856 -0.029283 -0.0665206 0.000116 -9.42208 -0.0928676 2.53709 2650 
3785 1 -0.0158779 -0.0285369 -0.0670121 0.000116 -9.33848 -0.530608 2.23723 2650 
1278 1 -0.0165486 -0.0258469 -0.0668638 0.000116 -9.38164 0.0695019 2.33304 2650 
807 1 -0.0161919 -0.02499 -0.0666349 0.000423 -9.44617 -0.0204372 2.30092 2650 
474 1 -0.0143078 -0.0250245 -0.0670581 0.000423 -9.49563 -0.0536997 2.03236 2650 
1994 1 -0.0158213 -0.0241564 -0.0667252 0.000423 -9.45411 -0.00814347 2.24107 2650 
2900 1 -0.0145763 -0.0201098 -0.0670111 0.000423 -9.44325 -0.0336567 2.0326 2650 
1609 1 -0.0160056 -0.00757997 -0.0669856 0.000116 -7.15361 0.218262 1.79807 2650 
3267 1 -0.0181406 -0.00596024 -0.0664418 0.000116 -5.97326 -0.762956 1.67188 2650 
3139 1 -0.0175537 -0.00120455 -0.0666093 0.000116 -7.68741 0.0529259 2.03236 2650 
404 1 -0.0181814 -0.000397571 -0.0664413 0.000116 -7.43935 -0.0224935 2.04546 2650 
3840 1 -0.0178354 -0.0609838 -0.0659783 0.000656 -9.99753 0.0370464 2.70447 2650 
2201 1 -0.0193976 -0.0542924 -0.0655374 0.000656 -9.91949 -0.0469998 2.93714 2650 
899 1 -0.0198123 -0.0336998 -0.0656485 0.000423 -9.4357 -0.0274674 2.84865 2650 
2460 1 -0.0187307 -0.0324345 -0.0659678 0.000423 -9.33899 -0.0687084 2.68004 2650 
2224 1 -0.0195526 -0.0291112 -0.0657294 0.000423 -9.31203 0.072669 2.77225 2650 
1028 1 -0.019492 -0.0222376 -0.0657491 0.000423 -9.19523 0.074135 2.72944 2650 
2062 1 -0.0207951 -0.0216205 -0.0656695 0.000116 -9.25921 0.119979 2.93196 2650 
2381 1 -0.0197796 -0.0214961 -0.065983 0.000116 -9.22145 -0.0022388 2.76156 2650 
3039 1 -0.0190793 -0.0207709 -0.0661895 0.000116 -8.55591 -0.0509477 2.47333 2650 
4128 1 -0.0203723 -0.010151 -0.0657985 0.000116 -9.00936 -0.00834556 2.80202 2650 
986 1 -0.0228286 -0.037139 -0.0650693 4.2e-05 -8.41442 -0.347889 2.963 2650 
1901 1 -0.0225181 -0.0334354 -0.064776 0.000423 -9.2031 -0.169812 3.19402 2650 
1537 1 -0.0216066 -0.0326453 -0.0654841 4.2e-05 -8.23163 -1.08084 2.72689 2650 
575 1 -0.0220398 -0.0317802 -0.0649405 0.000423 -9.25934 -0.0776368 3.15383 2650 
3404 1 -0.0219533 -0.030713 -0.0647261 0.000656 -9.26781 -0.0700643 3.13858 2650 
2256 1 -0.0217657 -0.0295922 -0.0653541 0.000116 -9.28553 -0.0140522 3.08865 2650 
2274 1 -0.022656 -0.0175941 -0.0650507 0.000116 -8.53595 0.104916 2.97452 2650 
2414 1 -0.0234956 -0.0137083 -0.064831 4.2e-05 -9.06321 0.070844 3.28531 2650 
1627 1 -0.0214604 -0.000556683 -0.0654554 0.000116 -7.01864 -0.134768 2.30427 2650 
2705 1 -0.0247477 -0.0451401 -0.0642849 0.000116 -9.088 -0.388895 3.50418 2650 
4068 1 -0.0229822 -0.0310264 -0.0646128 0.000423 -9.26318 -0.0577623 3.29513 2650 
1258 1 -0.0234201 -0.0303198 -0.0644557 0.000423 -9.24333 -0.065904 3.37016 2650 
3664 1 -0.0227682 -0.0298332 -0.064688 0.000423 -9.2807 -0.0638338 3.27726 2650 
2055 1 -0.0254389 -0.0285154 -0.0640154 0.000116 -9.11397 -0.288686 3.62326 2650 
4085 1 -0.023189 -0.0286383 -0.0645385 0.000423 -9.1045 -0.0926457 3.27615 2650 
1031 1 -0.0230595 -0.0229562 -0.0645845 0.000423 -9.15024 0.0192542 3.26718 2650 
816 1 -0.0260059 -0.0545083 -0.0634555 0.000423 -9.68322 0.155245 3.96831 2650 
1212 1 -0.0260388 -0.0447323 -0.0631923 0.000656 -9.57818 0.0794386 3.94693 2650 
1936 1 -0.0273926 -0.0254613 -0.0632031 0.000116 -8.58498 -0.198262 3.71993 2650 
3918 1 -0.026578 -0.0141616 -0.0635501 0.000116 -7.86064 -0.495462 3.28556 2650 
1072 1 -0.026383 -0.00625426 -0.0636317 0.000116 -6.01654 -0.298445 2.48809 2650 
3444 1 -0.0272003 -0.0511711 -0.0629521 0.000423 -9.27858 -0.149549 4.01341 2650 
334 1 -0.0271297 -0.0239532 -0.0627315 0.000656 -8.86286 -0.0359927 3.82337 2650 
1408 1 -0.0277739 -0.0233591 -0.0630366 0.000116 -8.28407 -0.227275 3.65039 2650 
1176 1 -0.0284287 -0.0217639 -0.0627438 0.000116 -8.87014 0.00405775 4.01945 2650 
3956 1 -0.0276207 -0.0215655 -0.0625171 0.000656 -8.71178 0.282904 3.85571 2650 
691 1 -0.0277732 -0.0109266 -0.0627037 0.000423 -8.04721 -0.0350202 3.56076 2650 
983 1 -0.0301613 -0.0322418 -0.0620123 4.2e-05 -8.91846 -0.00509718 4.33859 2650 
3989 1 -0.0289591 -0.0270872 -0.0621643 0.000423 -8.70943 -0.0613432 4.05504 2650 
2716 1 -0.0308197 -0.0191447 -0.0616048 0.000116 -8.72147 0.505758 4.36147 2650 
646 1 -0.030323 -0.0168245 -0.0618507 0.000116 -8.67915 -0.0396281 4.25445 2650 
1417 1 -0.0302942 -0.0170543 -0.0618649 0.000116 -8.68373 -0.0400401 4.25175 2650 
3161 1 -0.0297783 -0.0151773 -0.0621151 0.000116 -5.20896 -2.07197 2.48384 2650 
4018 1 -0.0300057 -0.0132067 -0.0620057 0.000116 -7.71183 -0.144615 3.72388 2650 
518 1 -0.0305931 -0.00489317 -0.0617175 0.000116 -6.85338 0.11723 3.41042 2650 
2515 1 -0.0319295 -0.0263305 -0.0610371 0.000116 -8.34166 -0.151354 4.35984 2650 
4094 1 -0.0314052 -0.0128253 -0.0609649 0.000423 -7.44946 -0.000568885 3.82168 2650 
2681 1 -0.0305445 -0.0129213 -0.0614001 0.000423 -7.67716 -0.0637139 3.81648 2650 
4237 1 -0.0316438 -0.00622982 -0.0611855 0.000116 -6.12583 0.239286 3.17523 2650 
2645 1 -0.0322386 -0.0540475 -0.0602351 0.000656 -8.94674 -0.0154076 4.78839 2650 
4106 1 -0.0328859 -0.0433101 -0.0601728 0.000423 -8.97868 0.0546904 4.89728 2650 
2002 1 -0.0325837 -0.0359588 -0.0603433 0.000423 -8.55967 0.0325901 4.61746 2650 
162 1 -0.0326935 -0.0284728 -0.0602835 0.000423 -7.53895 -0.228713 4.0965 2650 
1780 1 -0.0330501 -0.027433 -0.0600882 0.000423 -7.41689 0.0327225 4.07088 2650 
1012 1 -0.0329308 -0.0261659 -0.0601541 0.000423 -8.21785 -0.0511272 4.48808 2650 
602 1 -0.0321845 -0.0262368 -0.0605569 0.000423 -8.2643 -0.05382 4.39008 2650 
1922 1 -0.033163 -0.0251274 -0.0600261 0.000423 -8.09434 -0.0202928 4.47328 2650 
358 1 -0.0320686 -0.0249421 -0.0606184 0.000423 -8.24494 -0.0739957 4.34778 2650 
3538 1 -0.0327801 -0.024076 -0.060236 0.000423 -8.18298 0.106091 4.43584 2650 
2243 1 -0.0325898 -0.0222827 -0.0603393 0.000423 -8.32117 0.0471051 4.51323 2650 
2877 1 -0.031883 -0.0219851 -0.0607161 0.000423 -8.32904 -0.0571146 4.37157 2650 
3778 1 -0.0318934 -0.0210954 -0.0607108 0.000423 -8.68374 0.0591497 4.53898 2650 
549 1 -0.0333226 -0.0112403 -0.0603717 4.2e-05 -8.28382 0.197056 4.56889 2650 
4124 1 -0.0330381 -0.00959156 -0.0604438 0.000116 -6.11627 0.257023 3.34508 2650 
1751 1 -0.0336233 -0.00578572 -0.0602048 4.2e-05 -5.76451 0.263889 3.23161 2650 
3703 1 -0.0337927 -0.00367353 -0.0600254 0.000116 -7.91606 0.750967 4.45872 2650 
2855 1 -0.0341789 -0.0504091 -0.0598893 4.2e-05 -8.80325 -0.408689 5.04544 2650 
2778 1 -0.0336966 -0.026148 -0.0597283 0.000423 -8.15888 -0.0200676 4.59666 2650 
2858 1 -0.0353929 -0.0466041 -0.058467 0.000656 -8.87139 -0.0658234 5.37229 2650 
3516 1 -0.0354793 -0.0421195 -0.0584158 0.000656 -8.89011 0.000270284 5.40356 2650 
2647 1 -0.035373 -0.0233324 -0.0584806 0.000656 -8.01178 -0.115882 4.88295 2650 
198 1 -0.036362 -0.0215673 -0.0585048 0.000116 -7.50975 0.105049 4.66641 2650 
3154 1 -0.0362105 -0.0218177 -0.0585988 0.000116 -7.53981 0.266905 4.65351 2650 
862 1 -0.0357884 -0.0217591 -0.0588573 0.000116 -8.01585 0.198769 4.8765 2650 
2901 1 -0.0354575 -0.0207035 -0.0587 0.000423 -7.92898 0.149758 4.78136 2650 
2544 1 -0.0347519 -0.0209379 -0.0591211 0.000423 -7.98513 0.102061 4.71149 2650 
3113 1 -0.035793 -0.00744435 -0.0584626 0.000423 -6.62453 -0.130717 4.05608 2650 
2996 1 -0.0367607 -0.0471508 -0.057893 0.000423 -8.78143 -0.206976 5.57957 2650 
850 1 -0.0366431 -0.0311012 -0.0583288 0.000116 -8.02942 -0.372344 5.04714 2650 
577 1 -0.0361293 -0.0309163 -0.0582894 0.000423 -8.08384 -0.00673175 5.02076 2650 
2674 1 -0.0368118 -0.0256029 -0.0578606 0.000423 -7.99048 -0.0838966 5.08657 2650 
1509 1 -0.0369431 -0.0245504 -0.0581392 0.000116 -8.08437 -0.0735905 5.1398 2650 
3542 1 -0.0364788 -0.0248521 -0.0580711 0.000423 -8.04377 -0.0691061 5.05232 2650 
2672 1 -0.0370585 -0.0238062 -0.057703 0.000423 -7.75669 -0.0984829 4.98914 2650 
4177 1 -0.0360501 -0.0241624 -0.0583381 0.000423 -7.99532 -0.122486 4.93923 2650 
1446 1 -0.0364129 -0.0233087 -0.0581126 0.000423 -7.84871 0.0809926 4.90663 2650 
1734 1 -0.0377653 -0.0226248 -0.0576086 0.000116 -7.90578 0.152915 5.18535 2650 
365 1 -0.0360864 -0.0223454 -0.058316 0.000423 -7.94379 0.0379733 4.91294 2650 
3969 1 -0.0369423 -0.0215066 -0.0577773 0.000423 -7.87072 -0.151297 5.03402 2650 
2100 1 -0.0356766 -0.0197274 -0.0582957 0.000656 -7.90275 0.132323 4.84899 2650 
4108 1 -0.0362785 -0.0183045 -0.0581943 0.000423 -7.67171 -0.016316 4.77251 2650 
1157 1 -0.0380399 -0.0405557 -0.0574279 0.000116 -7.9871 -0.90027 5.29308 2650 
1989 1 -0.0375089 -0.0283517 -0.0571347 0.000656 -7.4879 -0.0430671 4.92839 2650 
82 1 -0.0384594 -0.0225426 -0.0571478 0.000116 -7.31781 -0.583968 4.92555 2650 
3367 1 -0.0378566 -0.0214336 -0.0575489 0.000116 -7.84238 0.469502 5.15433 2650 
1003 1 -0.0379695 -0.0197481 -0.0571074 0.000423 -7.41641 -0.283661 4.92845 2650 
2971 1 -0.0371665 -0.0190164 -0.0573565 0.000656 -7.52857 -0.102967 4.89154 2650 
4328 1 -0.0379726 -0.017556 -0.0571051 0.000423 -7.07928 0.155363 4.73489 2650 
832 1 -0.0387045 -0.015155 -0.0569822 0.000116 -6.14376 -0.177674 4.1924 2650 
171 1 -0.0399894 -0.0244109 -0.056088 0.000116 -7.57441 -0.193634 5.39761 2650 
3603 1 -0.0400292 -0.000115986 -0.0560595 0.000116 -6.93382 -0.00050848 4.94954 2650 
4346 1 -0.0400614 -0.000749978 -0.0560364 0.000116 -6.2036 0.0562944 4.43852 2650 
1753 1 -0.0397571 -4.19989e-05 -0.0563432 4.2e-05 -6.96866 2.27216e-06 4.91028 2650 
2842 1 -0.0398333 -0.000115997 -0.0561986 0.000116 -6.94924 -0.000125428 4.92433 2650 
1647 1 -0.0396885 -4.20234e-05 -0.0563917 4.2e-05 -6.97013 -0.0014223 4.90785 2650 
1833 1 -0.0395485 -0.000116022 -0.0563997 0.000116 -6.96595 -0.00301893 4.89388 2650 
2208 1 -0.0393731 -0.0420516 -0.0558668 0.000656 -8.49917 -0.0415756 5.99002 2650 
860 1 -0.0411048 -0.0150379 -0.0552726 0.000116 -5.7704 -0.198247 4.28783 2650 
2710 1 -0.0405324 -0.0153026 -0.0556963 0.000116 -7.48366 -0.069775 5.4811 2650 
437 1 -0.0406536 -0.00536941 -0.0556981 4.2e-05 -6.91325 -0.349946 5.02798 2650 
3507 1 -0.0403578 -4.19984e-05 -0.0559143 4.2e-05 -6.91404 0.000408026 4.99309 2650 
3930 1 -0.0404239 -0.000115994 -0.0557757 0.000116 -6.90064 -0.000568758 4.9972 2650 
1289 1 -0.0402178 -0.000115997 -0.0559241 0.000116 -6.91607 0.000548492 4.97172 2650 
661 1 -0.0405417 -0.0457348 -0.0550238 0.000656 -8.375 -0.0849768 6.16452 2650 
2691 1 -0.0411286 -0.0422536 -0.0548763 0.000423 -8.37141 -0.0720523 6.27478 2650 
4038 1 -0.0419094 -0.0302435 -0.0546689 0.000116 -7.49402 -0.115929 5.74516 2650 
405 1 -0.0412409 -0.0102937 -0.0551719 0.000116 -7.32432 -0.213776 5.49879 2650 
4113 1 -0.0416186 -0.0072433 -0.0548902 0.000116 -7.3798 0.262647 5.59177 2650 
3280 1 -0.04126 -0.00174648 -0.0551585 0.000116 -5.89208 -0.342438 4.40415 2650 
1172 1 -0.0413113 -0.000127254 -0.0551215 0.000116 -6.83104 -0.130027 5.10909 2650 
433 1 -0.0416705 -4.20182e-05 -0.0549432 4.2e-05 -6.85709 -0.00029584 5.20673 2650 
3572 1 -0.0430237 -0.0206389 -0.0537964 0.000116 -6.79201 0.18931 5.4324 2650 
3535 1 -0.0421506 -0.0113149 -0.0540941 0.000423 -5.94262 -0.0126166 4.62856 2650 
2589 1 -0.0428405 -0.000115995 -0.0539417 0.000116 -6.21479 -9.27881e-05 4.93281 2650 
1428 1 -0.0426172 -4.19989e-05 -0.054212 4.2e-05 -6.69708 -3.74866e-07 5.25934 2650 
4343 1 -0.0426608 -0.000581326 -0.0540835 0.000116 -6.12866 -0.0460291 4.82824 2650 
2518 1 -0.0437691 -0.0337023 -0.0531919 0.000116 -6.32197 -0.00326421 5.21327 2650 
2634 1 -0.0438701 -0.0244545 -0.0532033 4.2e-05 -7.19289 1.61295 5.92198 2650 
1454 1 -0.0435845 -0.0224431 -0.0529469 0.000423 -6.76296 0.201002 5.56156 2650 
1503 1 -0.0435959 -0.0146923 -0.0533334 0.000116 -5.89714 -0.270434 4.81237 2650 
3699 1 -0.0445717 -0.010301 -0.0525216 0.000116 -5.30935 0.531099 4.5249 2650 
4353 1 -0.0459411 -0.0353111 -0.0513262 0.000116 -7.0772 0.259212 6.32328 2650 
2952 1 -0.0453916 -0.00520238 -0.0518134 0.000116 -5.38788 0.274659 4.73586 2650 
1971 1 -0.0454461 -0.000211518 -0.0518635 4.2e-05 -6.32403 -0.0378763 5.54282 2650 
1256 1 -0.0467388 -0.0442583 -0.0501834 0.000423 -7.56691 0.0937052 7.04666 2650 
1908 1 -0.0468492 -0.0327676 -0.0500779 0.000423 -6.75088 -0.0615989 6.31283 2650 
2620 1 -0.0472214 -0.0245491 -0.0501471 0.000116 -6.52963 -0.240241 6.14997 2650 
124 1 -0.0470729 -0.00958481 -0.0498706 0.000423 -2.32818 -0.0435662 2.21423 2650 
146 1 -0.0473648 -0.0312725 -0.0495934 0.000423 -7.03675 0.00380221 6.69858 2650 
1619 1 -0.0485185 -0.0285168 -0.0488907 0.000116 -6.94188 0.192533 6.88496 2650 
3349 1 -0.0479917 -0.0187301 -0.0494145 0.000116 -7.06935 0.212789 6.86714 2650 
2512 1 -0.0477626 -0.0112275 -0.0496371 0.000116 -5.21286 -0.117879 5.00285 2650 
4073 1 -0.0493111 -0.0353523 -0.0476578 0.000423 -6.84878 -0.273307 7.11681 2650 
2112 1 -0.0500079 -0.0331792 -0.0468805 0.000423 -6.52174 -0.0110497 6.93555 2650 
520 1 -0.0504384 -0.0261411 -0.0469084 0.000116 -6.48598 0.612011 6.99239 2650 
187 1 -0.0505187 -0.0170148 -0.0468281 0.000116 -2.41077 -1.05728 2.61989 2650 
303 1 -0.0507656 -0.0143089 -0.0465602 0.000116 -5.96512 0.337345 6.4994 2650 
4246 1 -0.0505709 -0.0005971 -0.0467713 0.000116 -5.35777 0.035796 5.79444 2650 
3963 1 -0.0513434 -0.0125159 -0.0454613 0.000423 -5.16354 -0.114032 5.83313 2650 
515 1 -0.052112 -0.000115999 -0.045048 0.000116 -5.5885 0.00041658 6.46646 2650 
2174 1 -0.052696 -0.0311897 -0.0443635 0.000116 -5.23521 0.415109 6.21546 2650 
1566 1 -0.0524924 -0.0242046 -0.0441305 0.000423 -5.9403 0.0713995 7.0648 2650 
4072 1 -0.0523439 -0.0108937 -0.0443064 0.000423 -5.17179 -0.00581535 6.1248 2650 
2932 1 -0.0528748 -0.0100421 -0.0441506 0.000116 -4.45865 -0.0621996 5.32459 2650 
3941 1 -0.0535482 -0.0211438 -0.0434485 4.2e-05 -4.05807 -1.0237 5.00527 2650 
35 1 -0.0533285 -0.0414326 -0.043116 0.000423 -6.39751 -0.0837125 7.91293 2650 
476 1 -0.0533205 -0.0343253 -0.0431264 0.000423 -6.35651 0.130352 7.85934 2650 
3531 1 -0.0536489 -0.0335903 -0.0427168 0.000423 -6.11178 0.025999 7.67606 2650 
1170 1 -0.0536151 -0.0308721 -0.0432482 0.000116 -6.16632 -0.0151799 7.64759 2650 
228 1 -0.0529468 -0.0301898 -0.0432174 0.000656 -6.15787 0.022548 7.56334 2650 
3957 1 -0.0539774 -0.0514051 -0.0419253 0.000656 -6.40938 0.0558552 8.252 2650 
1447 1 -0.0541477 -0.0253707 -0.0420834 0.000423 -6.02189 0.280524 7.73143 2650 
2170 1 -0.0541811 -0.0183841 -0.0425366 0.000116 -4.88431 -0.707848 6.2189 2650 
1723 1 -0.0543792 -0.0127564 -0.0422832 0.000116 -4.88864 -0.302012 6.27976 2650 
3506 1 -0.0543323 -0.0063137 -0.0424636 4.2e-05 -5.27511 0.687439 6.75238 2650 
3395 1 -0.054558 -4.19988e-05 -0.0421735 4.2e-05 -5.29976 -9.40498e-06 6.84823 2650 
93 1 -0.0544263 -0.000115992 -0.0422231 0.000116 -5.3047 -0.0006186 6.83514 2650 
446 1 -0.0544916 -0.0456085 -0.0412549 0.000656 -6.15019 -0.0835874 8.11917 2650 
1805 1 -0.0553412 -0.0499705 -0.0405017 0.000423 -6.09403 0.0473264 8.3263 2650 
163 1 -0.0561001 -0.0504353 -0.0394439 0.000423 -5.96549 -0.0849499 8.48493 2650 
3839 1 -0.0558524 -0.0484765 -0.0393917 0.000656 -5.99492 0.0411486 8.4883 2650 
3642 1 -0.0560614 -0.0458533 -0.0394976 0.000423 -5.97619 0.132784 8.48463 2650 
1781 1 -0.0558675 -0.044171 -0.0397716 0.000423 -6.04457 -0.0152741 8.48651 2650 
656 1 -0.056187 -4.2043e-05 -0.0399772 4.2e-05 -4.82741 0.00309102 6.78896 2650 
468 1 -0.0566681 -0.0487881 -0.0386241 0.000423 -5.86957 -0.0262586 8.61792 2650 
2251 1 -0.0565495 -0.0234991 -0.0387958 0.000423 -5.2695 -0.00464903 7.67916 2650 
4334 1 -0.056528 -0.000116032 -0.0393646 0.000116 -4.80381 -3.47754e-05 6.90595 2650 
543 1 -0.0568098 -0.000127452 -0.0390875 4.2e-05 -4.79647 -0.00793606 6.97917 2650 
327 1 -0.0568224 -4.20709e-05 -0.039069 4.2e-05 -4.79011 -0.000377858 6.97733 2650 
1535 1 -0.0567746 -4.20203e-05 -0.0391383 4.2e-05 -4.80036 0.00216575 6.96855 2650 
63 1 -0.0566594 -0.000145141 -0.0391752 0.000116 -4.7898 0.069918 6.92712 2650 
1061 1 -0.0568292 -0.000116022 -0.0389288 0.000116 -4.78059 -0.00130885 6.97792 2650 
4327 1 -0.0566745 -0.000525602 -0.0386126 0.000423 -4.73572 -0.00396883 6.97134 2650 
3796 1 -0.0573557 -0.0540898 -0.0381496 0.000116 -5.81516 -0.051471 8.74271 2650 
43 1 -0.0569382 -0.0247236 -0.0382234 0.000423 -4.9932 -0.0436119 7.42587 2650 
2958 1 -0.0579342 -0.0140196 -0.0374018 4.2e-05 -4.50556 -0.561471 6.98551 2650 
2916 1 -0.0577963 -0.00525125 -0.0374785 0.000116 -4.29207 0.464987 6.62115 2650 
21 1 -0.0577738 -0.0467341 -0.0369488 0.000423 -5.47039 0.0516285 8.55068 2650 
343 1 -0.0578386 -0.0458758 -0.036847 0.000423 -5.50949 0.0645108 8.64653 2650 
2833 1 -0.0587641 -0.0288422 -0.035943 0.000116 -4.701 0.0527007 7.6803 2650 
4380 1 -0.0591012 -0.0159114 -0.0355284 4.2e-05 -3.84579 1.18676 6.40081 2650 
3054 1 -0.0589318 -0.0145529 -0.0356663 0.000116 -5.01002 0.57858 8.2753 2650 
319 1 -0.0588648 -0.0124633 -0.0357779 0.000116 -3.95574 -0.366912 6.51282 2650 
2676 1 -0.0585062 -0.0120346 -0.035779 0.000423 -4.08827 -0.129258 6.70097 2650 
4349 1 -0.058867 -0.00716365 -0.0357734 0.000116 -4.62622 -0.302472 7.61142 2650 
2006 1 -0.0589937 -0.0215047 -0.034967 0.000423 -4.7611 0.0379797 8.03901 2650 
23 1 -0.0589113 -0.0206031 -0.0351065 0.000423 -4.85461 -0.105322 8.1635 2650 
278 1 -0.0594169 -0.00806789 -0.0348525 0.000116 -3.58375 -0.60673 6.10026 2650 
2038 1 -0.0595548 -0.0255326 -0.0346155 0.000116 -4.69049 0.156344 8.07398 2650 
2600 1 -0.0596508 -0.0241457 -0.0344495 0.000116 -4.50154 0.377395 7.78112 2650 
3422 1 -0.0594034 -0.016458 -0.0342665 0.000423 -4.31131 0.0102531 7.5146 2650 
283 1 -0.0600907 -0.0131782 -0.0336756 0.000116 -4.03995 -0.558869 7.21478 2650 
3707 1 -0.0601389 -0.00732938 -0.033591 0.000116 -3.87152 -0.46724 6.94296 2650 
2742 1 -0.0603347 -4.21011e-05 -0.0333904 4.2e-05 -4.23446 0.00195182 7.63907 2650 
2767 1 -0.0602678 -0.0433021 -0.0327209 0.000423 -4.85571 -0.0486176 8.9502 2650 
3206 1 -0.0603748 -0.0244976 -0.0325211 0.000423 -4.48921 -0.0149194 8.33735 2650 
3284 1 -0.0608752 -0.0228431 -0.0323913 4.2e-05 -4.46502 0.0761089 8.39486 2650 
1669 1 -0.060245 -0.019801 -0.0327636 0.000423 -3.94597 -0.0048563 7.2377 2650 
1246 1 -0.0601905 -0.0160004 -0.0328633 0.000423 -3.9185 0.250805 7.14851 2650 
3399 1 -0.0607648 -0.0133262 -0.0325943 4.2e-05 -4.00704 -1.171 7.4727 2650 
3198 1 -0.060764 -0.0442384 -0.0317911 0.000423 -4.78018 0.0707633 9.13322 2650 
204 1 -0.0612673 -0.0260281 -0.0314755 0.000116 -4.23251 0.115157 8.23296 2650 
2962 1 -0.0612649 -0.0100974 -0.0316418 4.2e-05 -4.01922 0.104389 7.74186 2650 
3486 1 -0.0614935 -0.0379213 -0.0310391 0.000116 -3.99278 0.238501 7.90215 2650 
3118 1 -0.06094 -0.0312696 -0.0314444 0.000423 -4.43542 -0.0358158 8.5752 2650 
3978 1 -0.0609873 -0.0244082 -0.0313566 0.000423 -4.15273 0.073845 8.08941 2650 
992 1 -0.0614061 -0.062144 -0.0300105 0.000656 -4.66574 -0.000325633 9.5467 2650 
3656 1 -0.0615017 -0.0471014 -0.0303383 0.000423 -4.5698 0.180431 9.2684 2650 
3088 1 -0.0615721 -0.0455903 -0.0301943 0.000423 -4.6105 -0.0740566 9.40053 2650 
1499 1 -0.0618016 -0.0124362 -0.0304206 0.000116 -3.7574 0.282328 7.69307 2650 
4217 1 -0.0613338 -0.00937049 -0.0306622 0.000423 -3.63048 -0.0875104 7.24401 2650 
2159 1 -0.0618119 -0.00542279 -0.0303935 0.000116 -3.73247 -0.33517 7.5092 2650 
3874 1 -4.89582e-05 -0.0262474 -0.0685785 0.000423 -9.66092 0.0211506 0.00660023 2650 
2526 1 -0.0624434 -0.0145133 -0.0292294 4.2e-05 -4.14023 -0.0580613 8.83789 2650 
497 1 -0.0623447 -0.00469504 -0.0292822 0.000116 -3.71986 0.282849 7.94505 2650 
8 1 -0.0620445 -0.0432527 -0.0286645 0.000656 -4.32267 0.0380082 9.35318 2650 
4264 1 -0.0626376 -0.0371004 -0.0288334 4.2e-05 -3.89871 -0.108991 8.45575 2650 
3393 1 -0.0626461 -0.01834 -0.0288151 4.2e-05 -3.53362 0.202306 7.6776 2650 
3153 1 -0.062573 -0.000115992 -0.0288031 0.000116 -3.59683 -0.000389981 7.80454 2650 
956 1 -0.0626726 -0.000116057 -0.0285856 0.000116 -3.56486 -0.00118329 7.8193 2650 
3986 1 -0.0625859 -0.0447682 -0.0280351 0.000423 -4.21391 0.00325317 9.4016 2650 
2254 1 -0.0625941 -0.0439204 -0.0280171 0.000423 -4.21688 0.0107183 9.41621 2650 
2480 1 -0.06281 -0.0333851 -0.028267 0.000116 -4.02114 0.188301 8.96535 2650 
1598 1 -0.0630459 -0.0156474 -0.0277501 0.000116 -3.9771 0.540925 9.02025 2650 
4115 1 -0.0630691 -0.000116356 -0.0276997 0.000116 -3.04738 -0.0059673 6.9437 2650 
1903 1 -0.062987 -0.0623191 -0.0271222 0.000423 -4.21888 -0.0168512 9.79802 2650 
3845 1 -0.0627124 -0.045572 -0.027163 0.000656 -4.15381 0.085745 9.5912 2650 
3749 1 -0.0631367 -0.0443974 -0.026771 0.000423 -4.07704 -0.00330489 9.61872 2650 
3554 1 -0.0629055 -0.0435688 -0.0273018 0.000423 -4.11749 -0.0121077 9.4871 2650 
858 1 -0.0633737 -0.0266344 -0.0269163 0.000116 -3.42395 -0.464554 8.02932 2650 
1849 1 -0.0631754 -0.0066319 -0.0274009 0.000116 -3.10357 -0.2235 6.97045 2650 
4260 1 -0.0634193 -0.000116039 -0.0268877 0.000116 -2.76754 0.00574652 6.52328 2650 
2385 1 -0.0631658 -0.000117224 -0.0274787 0.000116 -3.06819 -0.0150172 7.0439 2650 
1104 1 -0.0631095 -0.0463806 -0.0262054 0.000656 -4.05839 0.231503 9.76392 2650 
2 1 -0.0629746 -0.0427222 -0.0265592 0.000656 -4.00953 0.00317227 9.50642 2650 
3543 1 -0.0633439 -0.0353579 -0.0261964 0.000423 -3.78721 -0.0740193 9.14058 2650 
1054 1 -0.0635772 -0.0243962 -0.026509 0.000116 -3.57469 -0.182185 8.51636 2650 
4040 1 -0.0636548 -0.0242861 -0.0263166 0.000116 -3.55461 -0.220319 8.55443 2650 
2490 1 -0.063588 -0.0225753 -0.0264771 0.000116 -3.46074 -0.0371753 8.29008 2650 
1969 1 -0.0637921 -0.0171695 -0.0261723 4.2e-05 -2.9891 -0.0448851 7.21565 2650 
2947 1 -0.0636754 -0.0111893 -0.0262089 0.000116 -2.79478 0.0807171 6.70867 2650 
1996 1 -0.0636849 -0.0459318 -0.025409 0.000423 -3.93413 0.235341 9.8576 2650 
1321 1 -0.063486 -0.0422983 -0.0253136 0.000656 -3.80406 -0.00163171 9.58 2650 
1684 1 -0.0636354 -0.00885384 -0.0254876 0.000423 -2.7939 -0.788891 6.98245 2650 
2530 1 -0.0637886 -0.047829 -0.0244981 0.000656 -3.7444 -0.0359738 9.76337 2650 
897 1 -0.064065 -0.0467873 -0.024447 0.000423 -3.7102 -0.0240589 9.73985 2650 
2685 1 -0.064001 -0.0459608 -0.0246186 0.000423 -3.81615 0.027907 9.92572 2650 
2212 1 -0.0637403 -0.0449002 -0.0246557 0.000656 -3.71352 0.0257945 9.59544 2650 
2130 1 -0.064057 -0.0428278 -0.024475 0.000423 -3.69553 -0.0507222 9.67231 2650 