ITEM: TIMESTEP
7717427
ITEM: NUMBER OF ATOMS
4339
ITEM: BOX BOUNDS ff ff ff
-0.15 0.15
-0.15 0.15
-0.15 0.15
ITEM: ATOMS id type x y z radius vx vy vz density 
3358 1 -0.00257224 -0.0284979 -0.0688368 0.000116 -5.45739 0.288257 0.190965 2650 
3387 1 -0.00290914 -0.0212177 -0.0688224 0.000116 -3.86229 -0.595124 0.158195 2650 
3276 1 -0.00303485 -0.0179687 -0.0688171 0.000116 -6.32108 0.158202 0.270114 2650 
4349 1 -0.00136321 -0.0125645 -0.068871 0.000116 -4.56443 -0.136954 0.0935986 2650 
413 1 -0.00357472 -0.00985187 -0.0687919 0.000116 -4.91652 0.160329 0.246364 2650 
1841 1 -0.00472514 -0.00452616 -0.0687217 0.000116 -5.25474 0.0684395 0.351301 2650 
4116 1 -0.000950797 -0.00209804 -0.068877 0.000116 -4.8746 -0.101948 0.0585113 2650 
3619 1 -0.000792927 -0.00153665 -0.0689529 4.2e-05 -7.97367 -0.179562 0.0916868 2650 
1132 1 -0.00313464 -0.0490934 -0.0685065 0.000423 -6.94312 -0.0849686 0.31272 2650 
2325 1 -0.00948682 -0.0476547 -0.0679183 0.000423 -6.3994 0.360433 0.887178 2650 
2245 1 -0.00546528 -0.0326963 -0.0683602 0.000423 -6.27036 0.0522382 0.509034 2650 
2881 1 -0.00369019 -0.0327507 -0.0684797 0.000423 -6.14729 0.164477 0.327914 2650 
3602 1 -0.00641046 -0.0287391 -0.0685853 0.000116 -6.17566 -0.0672198 0.57101 2650 
2254 1 -0.0073361 -0.0258161 -0.0681845 0.000423 -5.96593 -0.75384 0.67623 2650 
2970 1 -0.00394192 -0.0250581 -0.0682317 0.000656 -6.47213 -0.0570547 0.391771 2650 
138 1 -0.00535956 -0.022942 -0.068368 0.000423 -5.70703 0.0751131 0.458621 2650 
114 1 -0.00389214 -0.0223179 -0.0682342 0.000656 -7.09544 -0.049477 0.423235 2650 
1213 1 -0.00771713 -0.0217888 -0.0679079 0.000656 -6.30107 0.0751518 0.728963 2650 
1356 1 -0.00542913 -0.0219736 -0.0683626 0.000423 -6.12243 0.269725 0.487013 2650 
465 1 -0.00727881 -0.0207641 -0.0681905 0.000423 -6.1133 0.0633045 0.656248 2650 
646 1 -0.00852142 -0.0191463 -0.0683547 0.000116 -5.26054 0.235151 0.664065 2650 
2822 1 -0.00863614 -0.0185514 -0.0683404 0.000116 -3.80841 -0.00952327 0.487281 2650 
2132 1 -0.00696706 -0.0185258 -0.0682236 0.000423 -6.23004 -0.152302 0.623757 2650 
3242 1 -0.00575901 -0.0112834 -0.0686434 0.000116 -4.87838 -0.135905 0.416881 2650 
1669 1 -0.00176708 -0.00961977 -0.0685557 0.000423 -5.27265 -0.0639775 0.13085 2650 
23 1 -0.00261396 -0.00924678 -0.0685291 0.000423 -5.26994 -0.0286854 0.230728 2650 
3248 1 -0.00863269 -0.00820594 -0.0683412 0.000116 -5.84038 -0.351255 0.732939 2650 
416 1 -0.00592045 -0.00565073 -0.0686294 0.000116 -5.23521 0.0442659 0.451424 2650 
1071 1 -0.00984946 -0.00483777 -0.068176 0.000116 -5.07962 -0.276686 0.756566 2650 
3840 1 -0.00818401 -0.0443423 -0.0678544 0.000656 -7.25673 0.023907 0.866775 2650 
2317 1 -0.013008 -0.0428277 -0.0670971 0.000656 -7.30119 -0.122262 1.39868 2650 
163 1 -0.0140036 -0.040674 -0.0671322 0.000423 -6.1806 0.113861 1.27085 2650 
2023 1 -0.0124574 -0.0401794 -0.0674337 0.000423 -7.07937 0.220357 1.28258 2650 
1326 1 -0.0108102 -0.0375713 -0.0674864 0.000656 -6.65742 0.00535405 1.0562 2650 
2361 1 -0.010481 -0.0344225 -0.0677716 0.000423 -4.88413 0.467211 0.760686 2650 
2039 1 -0.0140635 -0.0248498 -0.0674217 0.000116 -4.93204 -0.270458 1.03444 2650 
2274 1 -0.0136763 -0.0245679 -0.0675037 0.000116 -6.13311 -0.071979 1.21956 2650 
4193 1 -0.0112517 -0.0205944 -0.0676362 0.000423 -5.72913 -0.188947 1.02529 2650 
3834 1 -0.0158301 -0.0197906 -0.0671157 4.2e-05 -5.77591 1.15918 1.35288 2650 
2862 1 -0.0115173 -0.0176715 -0.0673677 0.000656 -6.27679 -0.0732946 1.11153 2650 
578 1 -0.0131783 -0.0165243 -0.0672928 0.000423 -6.3335 0.0906914 1.18993 2650 
3933 1 -0.0125367 -0.0135604 -0.067722 0.000116 -4.64875 -0.357079 0.689628 2650 
3904 1 -0.0149512 -0.0120296 -0.067215 0.000116 -5.24436 0.773156 1.2062 2650 
992 1 -0.0141578 -0.0546077 -0.0668622 0.000656 -6.63117 -0.168982 1.39152 2650 
3957 1 -0.016015 -0.0455125 -0.0664425 0.000656 -7.03281 -0.0723685 1.68767 2650 
2685 1 -0.0147156 -0.0331371 -0.0669502 0.000423 -5.0974 -0.149632 1.15132 2650 
1915 1 -0.0148353 -0.02781 -0.0669165 0.000423 -5.83311 0.044007 1.32825 2650 
1218 1 -0.0158336 -0.0273587 -0.0664611 0.000656 -5.14077 -0.0688513 1.33142 2650 
1481 1 -0.0148688 -0.0269444 -0.0669067 0.000423 -5.22788 0.16247 1.16114 2650 
4021 1 -0.0182905 -0.0198492 -0.0664114 0.000116 -5.30991 0.570356 1.44302 2650 
2308 1 -0.0170638 -0.0186846 -0.0668114 4.2e-05 -4.77177 -1.08474 1.19009 2650 
786 1 -0.0170515 -0.0176451 -0.0664224 0.000423 -5.09019 -0.0234548 1.29837 2650 
2543 1 -0.0161369 -0.0173878 -0.06665 0.000423 -5.08064 0.0714175 1.24669 2650 
1046 1 -0.0154846 -0.0143445 -0.067086 0.000116 -4.54199 -0.634599 1.1553 2650 
3041 1 -0.0186163 -0.00142657 -0.0663203 0.000116 -5.85944 -0.212873 1.65418 2650 
1833 1 -0.0171426 -0.000116009 -0.0667168 0.000116 -4.80236 0.000517283 1.22045 2650 
3440 1 -0.0190595 -0.0492785 -0.0658765 0.000423 -6.2103 0.237884 1.77251 2650 
8 1 -0.0188808 -0.0394836 -0.0656859 0.000656 -6.54979 -0.0351093 1.86477 2650 
2557 1 -0.0191652 -0.0359997 -0.0658443 0.000423 -6.08702 0.070924 1.76818 2650 
1183 1 -0.0197798 -0.0332562 -0.0659777 0.000116 -5.33822 0.0910691 1.5616 2650 
1870 1 -0.0196368 -0.0338856 -0.0660976 4.2e-05 -5.27648 0.112193 1.54581 2650 
3015 1 -0.0192839 -0.0333805 -0.0658075 0.000423 -6.29065 0.174925 1.80951 2650 
3319 1 -0.0180827 -0.0338756 -0.0661406 0.000423 -6.15466 -0.122799 1.71629 2650 
2355 1 -0.0190636 -0.0307935 -0.0658711 0.000423 -5.18872 -0.0633125 1.44368 2650 
1916 1 -0.0198953 -0.0102344 -0.0656216 0.000423 -4.47564 -0.413223 1.36518 2650 
1922 1 -0.0176164 -0.00974353 -0.0662592 0.000423 -4.79703 -0.224222 1.30085 2650 
1379 1 -0.0197409 -0.0093403 -0.0659895 0.000116 -4.91103 0.161938 1.46018 2650 
3069 1 -0.0219996 -0.0348521 -0.0653537 4.2e-05 -6.61699 0.375448 2.26229 2650 
3683 1 -0.0213407 -0.0276802 -0.0654933 0.000116 -5.58945 0.875022 1.80492 2650 
4213 1 -0.0207865 -0.0239961 -0.0653515 0.000423 -5.77998 0.0183469 1.88529 2650 
3671 1 -0.0224061 -0.0137062 -0.0648142 0.000423 -5.95257 -0.117271 2.03884 2650 
2007 1 -0.0204456 -0.00961282 -0.0654588 0.000423 -4.1715 -0.172215 1.40545 2650 
2618 1 -0.0241655 -0.0447851 -0.0645055 0.000116 -6.06341 0.0678162 2.27432 2650 
2343 1 -0.024522 -0.0311073 -0.0640443 0.000423 -5.56677 -0.182657 2.12662 2650 
2545 1 -0.0232815 -0.0271191 -0.0645052 0.000423 -5.01621 -0.365187 1.79823 2650 
4293 1 -0.0237957 -0.0207862 -0.064318 0.000423 -5.6191 0.209138 2.10085 2650 
1963 1 -0.0242495 -0.0195168 -0.0644741 0.000116 -5.6037 0.268477 2.09569 2650 
3054 1 -0.0247201 -0.0147657 -0.0642961 0.000116 -4.94357 0.140487 1.88735 2650 
1535 1 -0.0253954 -4.2021e-05 -0.064111 4.2e-05 -4.64848 0.00419788 1.83624 2650 
433 1 -0.0253158 -4.20073e-05 -0.0641427 4.2e-05 -4.65358 -0.00115985 1.82319 2650 
3372 1 -0.02602 -0.0346333 -0.0637812 0.000116 -5.62325 0.248934 2.28753 2650 
3135 1 -0.0259267 -0.00519029 -0.0638189 0.000116 -4.31148 -0.340237 1.72502 2650 
1075 1 -0.0256494 -0.0042386 -0.0639305 0.000116 -4.61026 -0.374115 1.84029 2650 
4019 1 -0.0269523 -0.00192633 -0.063392 0.000116 -4.82203 -0.0978996 2.03663 2650 
4020 1 -0.0278273 -0.0313325 -0.0630137 0.000116 -5.07225 0.0686645 2.22782 2650 
3878 1 -0.0284769 -0.0158853 -0.0623858 0.000423 -4.14462 -0.324715 1.88688 2650 
575 1 -0.0301871 -0.0311213 -0.0615768 0.000423 -5.52809 0.198554 2.74339 2650 
2234 1 -0.029309 -0.0227251 -0.0619989 0.000423 -5.11766 -0.0962072 2.42581 2650 
2626 1 -0.0305245 -0.016251 -0.0617518 0.000116 -4.85293 -0.00546076 2.38593 2650 
1735 1 -0.0302136 -0.0103513 -0.0619049 0.000116 -4.79803 -0.156252 2.32905 2650 
2738 1 -0.0325554 -0.0253587 -0.0607888 4.2e-05 -5.57325 0.645459 2.98569 2650 
872 1 -0.0314127 -0.0112491 -0.0613875 4.2e-05 -3.00491 -0.191824 1.52113 2650 
2103 1 -0.0324211 -0.0182823 -0.0604305 0.000423 -5.18711 0.0233617 2.78787 2650 
2732 1 -0.034318 -0.0375047 -0.0597268 0.000116 -5.8382 -0.388491 3.35354 2650 
2457 1 -0.0336086 -0.0317608 -0.0597778 0.000423 -5.47001 -0.00745093 3.07881 2650 
1042 1 -0.0340806 -0.0280879 -0.0595097 0.000423 -5.15637 0.0449032 2.97293 2650 
693 1 -0.0383344 -0.0192035 -0.0568634 0.000423 -4.85227 0.0519328 3.26576 2650 
3443 1 -0.0387413 -0.01469 -0.0565827 0.000423 -4.80549 0.252526 3.2366 2650 
2183 1 -0.0394177 -0.0109598 -0.0564852 0.000116 -3.1529 -0.40505 2.16118 2650 
2238 1 -0.0405563 -0.0288885 -0.0553004 0.000423 -4.88519 -0.0541953 3.60835 2650 
3586 1 -0.0416125 -0.0268057 -0.0548948 0.000116 -4.81142 0.175597 3.65603 2650 
299 1 -0.0415026 -0.00936446 -0.0549747 0.000116 -3.17314 -0.605932 2.33313 2650 
538 1 -0.0447658 -0.0166077 -0.0523545 0.000116 -4.42207 0.318748 3.78446 2650 
3482 1 -0.0457188 -0.0182723 -0.0515244 0.000116 -4.2434 -0.151911 3.7546 2650 
2037 1 -0.045754 -0.00542237 -0.0514938 0.000116 -3.05543 0.267173 2.68851 2650 
3850 1 -0.0464194 -0.0332477 -0.0504805 0.000423 -4.46403 -0.117809 4.1236 2650 
3802 1 -0.0471818 -0.0148041 -0.0501888 0.000116 -4.52672 0.296631 4.28061 2650 
518 1 -0.0473601 -0.00679324 -0.0500203 0.000116 -3.82225 0.150337 3.61681 2650 
1196 1 -0.047892 -0.0223152 -0.0495105 0.000116 -4.43881 -1.35866 4.28392 2650 
4254 1 -0.0477134 -0.000187945 -0.0496832 0.000116 -4.61581 0.000113277 4.42665 2650 
3868 1 -0.0484986 -0.016169 -0.0484858 0.000423 -4.63008 -0.213459 4.6147 2650 
2620 1 -0.0492009 -0.0128534 -0.0482114 0.000116 -2.8442 -0.263905 2.90743 2650 
4043 1 -0.0486138 -0.013348 -0.048803 0.000116 -2.70028 -0.327432 2.7171 2650 
1914 1 -0.0495158 -0.0286845 -0.0474377 0.000423 -4.54177 0.150215 4.78078 2650 
759 1 -0.0495388 -0.0175444 -0.0478635 0.000116 -3.51194 -0.185779 3.62547 2650 
3426 1 -0.0503264 -0.0369107 -0.0465693 0.000423 -4.37696 -0.14721 4.6682 2650 
3531 1 -0.0497431 -0.0242497 -0.0471948 0.000423 -4.41314 0.145954 4.64994 2650 
4345 1 -0.050571 -0.0199627 -0.0467711 0.000116 -3.69948 0.439682 3.99238 2650 
2337 1 -0.0500047 -0.0151794 -0.0469301 0.000423 -3.51733 -0.0520431 3.74903 2650 
1784 1 -0.0504537 -0.028539 -0.046446 0.000423 -4.37539 -0.250104 4.61571 2650 
524 1 -0.0511094 -0.0271491 -0.0461666 0.000116 -4.48303 0.0297236 4.89128 2650 
3729 1 -0.0500482 -0.0271004 -0.04654 0.000656 -4.3883 -0.00378095 4.79442 2650 
935 1 -0.050396 -0.0217694 -0.0465077 0.000423 -4.19795 0.168359 4.52665 2650 
1443 1 -0.0508149 -0.0161778 -0.0460528 0.000423 -3.46151 -0.186184 3.84254 2650 
3366 1 -0.0520327 -0.0201623 -0.0451394 0.000116 -3.94585 0.143277 4.56525 2650 
1068 1 -0.051562 -0.0119116 -0.0456763 0.000116 -3.28799 -0.23528 3.70259 2650 
3718 1 -0.0518036 -0.0103566 -0.0455144 4.2e-05 -2.53647 -0.00308536 2.84173 2650 
1168 1 -0.0525055 -0.0181452 -0.044588 0.000116 -2.44684 -0.452119 2.91626 2650 
2817 1 -0.0529762 -0.0172667 -0.0440284 0.000116 -3.15585 0.385943 3.77948 2650 
303 1 -0.053212 -0.00322455 -0.0437433 0.000116 -3.56016 -0.330219 4.31546 2650 
2848 1 -0.0538557 -0.000877667 -0.0430664 4.2e-05 -2.79631 -0.128871 3.50406 2650 
3577 1 -0.0545017 -0.0190665 -0.0421258 0.000116 -3.46794 0.11172 4.51952 2650 
2167 1 -0.05463 -0.0016441 -0.041959 0.000116 -3.29387 -0.256811 4.27061 2650 
4036 1 -0.0546493 -0.000632785 -0.0419342 0.000116 -3.27615 -0.11596 4.25497 2650 
2151 1 -0.0550216 -0.0612331 -0.0414437 0.000116 -3.35103 -0.116764 4.46393 2650 
1206 1 -0.0554111 -0.01672 -0.0410458 4.2e-05 -3.17632 -0.192777 4.29927 2650 
197 1 -0.0551195 -0.00708516 -0.0413136 0.000116 -2.58114 -0.0436787 3.43793 2650 
3530 1 -0.054777 -0.00422984 -0.0412601 0.000423 -2.54512 0.272066 3.37694 2650 
3839 1 -0.0551944 -0.0364017 -0.0403079 0.000656 -3.63588 0.0538014 4.94654 2650 
4074 1 -0.0551473 -0.0247092 -0.0407636 0.000423 -3.54491 0.00337095 4.83939 2650 
3089 1 -0.0556719 -0.0250258 -0.0400441 0.000423 -3.42819 0.0645075 4.79168 2650 
2944 1 -0.0560039 -0.00277463 -0.040107 0.000116 -2.84756 -0.207797 3.94794 2650 
3357 1 -0.0565728 -0.00668265 -0.0393008 0.000116 -2.67677 0.100994 3.83244 2650 
4229 1 -0.0574886 -0.0119202 -0.0379491 0.000116 -2.49879 -0.312148 3.76748 2650 
2734 1 -0.0571829 -0.0103258 -0.038407 0.000116 -3.06137 -0.488561 4.66456 2650 
2672 1 -0.0568629 -0.00981565 -0.0383362 0.000423 -2.63055 -0.26592 3.95343 2650 
333 1 -0.0571376 -0.0279644 -0.0375036 0.000656 -3.78477 0.103985 5.75345 2650 
4068 1 -0.0573548 -0.0229785 -0.0375944 0.000423 -3.42444 -0.264256 5.21401 2650 
3583 1 -0.0582882 -0.00179163 -0.0367075 0.000116 -3.13297 0.228869 4.9432 2650 
2436 1 -0.0584202 -0.0244534 -0.0359168 0.000423 -3.29476 -0.21244 5.31125 2650 
3679 1 -0.058985 -0.023665 -0.0355773 0.000116 -3.24872 -0.00821616 5.36882 2650 
1818 1 -0.058906 -0.0178422 -0.0357082 0.000116 -2.44627 -0.927268 4.01819 2650 
4038 1 -0.0587136 -0.00446452 -0.0360234 0.000116 -2.87491 -0.294114 4.67823 2650 
1462 1 -0.0603712 -0.0517072 -0.0325252 0.000423 -2.94483 0.0697035 5.49709 2650 
854 1 -0.0607033 -0.0130198 -0.0325505 0.000116 -2.38147 -0.422595 4.45606 2650 
2767 1 -0.0610409 -0.0327721 -0.0312488 0.000423 -2.86427 -0.192844 5.53562 2650 
3692 1 -0.0614966 -0.0210684 -0.0310348 0.000116 -2.41131 0.653429 4.75386 2650 
1655 1 -0.0613851 -0.0406922 -0.0300495 0.000656 -3.31502 -0.0130188 6.73945 2650 
2818 1 -0.0616342 -0.0130302 -0.0307501 0.000116 -2.34763 -0.215465 4.78156 2650 
612 1 -0.0623766 -0.00717733 -0.0292084 0.000116 -1.76254 -0.0845542 3.87564 2650 
2468 1 -0.00540456 -0.0082313 -0.0286051 0.000423 -0.625014 -0.569961 -3.74764 2650 
1509 1 -0.0630396 -0.0370886 -0.0277621 0.000116 -2.6777 1.12938 6.01138 2650 
899 1 -0.0626845 -0.0245942 -0.0278062 0.000423 -1.63234 -0.305315 3.53945 2650 
632 1 -0.0630337 -0.0213537 -0.0277808 0.000116 -2.30894 0.534987 5.28976 2650 
734 1 -0.0629254 -0.0203451 -0.0280248 0.000116 -2.20839 -0.528602 4.94312 2650 
4250 1 -0.063013 -0.0119393 -0.0278241 0.000116 -2.12132 -0.128469 5.26365 2650 
3506 1 -0.0630763 -0.0103828 -0.0278426 4.2e-05 -1.16023 -0.214339 3.15553 2650 
636 1 -0.0633078 -0.0253057 -0.0271325 0.000116 -2.32208 -0.696076 5.27301 2650 
2920 1 -0.0634326 -0.0272782 -0.0267657 0.000116 -2.28449 -0.470481 5.23111 2650 
1952 1 -0.0637173 -0.000116021 -0.0261749 0.000116 -2.02605 -0.000476487 4.9569 2650 
1107 1 -0.0632083 -0.0416739 -0.026 0.000656 -2.75725 0.0325127 6.6067 2650 
311 1 -0.0638084 -0.000116341 -0.0259514 0.000116 -2.02528 0.000278897 4.95889 2650 
3024 1 -0.0641721 -0.022349 -0.0250304 0.000116 -2.21031 -0.0725103 5.53373 2650 
2002 1 -0.0638551 -0.0215949 -0.0250034 0.000423 -2.31856 -0.0305837 5.85142 2650 
486 1 -0.0640545 -0.0161934 -0.0244793 0.000423 -2.14218 0.132943 5.71937 2650 
4095 1 -0.0643281 -0.0371673 -0.0237644 0.000423 -2.10035 0.0368384 5.80279 2650 
1104 1 -0.0640905 -0.0342852 -0.0237324 0.000656 -2.056 0.0286181 5.91766 2650 
3642 1 -0.0643318 -0.0288953 -0.0237528 0.000423 -1.99172 0.15817 5.71132 2650 
3647 1 -0.0643196 -0.0166306 -0.0237869 0.000423 -2.02955 -0.221475 5.6243 2650 
856 1 -0.0649275 -0.0451279 -0.0230093 0.000116 -1.52107 -0.428041 4.22044 2650 
378 1 -0.0645011 -0.0147333 -0.0232928 0.000423 -1.93206 -0.0711293 5.36327 2650 
2700 1 -0.0648306 -0.0111594 -0.02328 0.000116 -1.51368 0.0213958 4.1726 2650 
455 1 -0.0647491 -0.0208064 -0.0225951 0.000423 -1.97784 -0.183807 5.6461 2650 
295 1 -0.0650859 -0.0126328 -0.0225566 0.000116 -1.71283 -0.730635 4.94335 2650 
3668 1 -0.0648481 -0.00654949 -0.0223075 0.000423 -1.37961 -0.135837 4.09285 2650 
3945 1 -0.0651518 -0.00535159 -0.0225919 4.2e-05 -1.7971 0.795428 5.15728 2650 
2647 1 -0.0647887 -0.025574 -0.0217661 0.000656 -1.83427 -0.125355 5.45143 2650 
3385 1 -0.0654638 -0.00554867 -0.0214359 0.000116 -1.65475 -0.291464 5.01789 2650 
239 1 -0.0658785 -0.0440353 -0.0190508 0.000423 -1.6389 -0.501004 5.62979 2650 
3626 1 -0.0656124 -0.0396592 -0.0191332 0.000656 -1.66721 0.5085 5.8615 2650 
4048 1 -0.0662508 -0.0232762 -0.0191298 4.2e-05 -1.14808 -0.9359 4.00228 2650 
814 1 -0.0662873 -0.0221133 -0.0175762 0.000423 -1.58952 -0.00591238 6.07504 2650 
2130 1 -0.0663875 -0.0296884 -0.0171972 0.000423 -1.20237 -0.592243 4.60055 2650 
633 1 -0.0668757 -0.0124313 -0.0165153 0.000116 -1.37572 -0.331377 5.4995 2650 
2837 1 -0.0670313 -0.00858408 -0.0158711 0.000116 -1.40358 -0.0546624 5.89556 2650 
30 1 -0.000817875 -9.00894e-05 -0.0162564 0.000423 -0.0136125 -0.0214967 0.00834717 2650 
4025 1 -0.0672056 -0.0129489 -0.0151165 0.000116 -1.25416 -0.117721 5.63554 2650 
1798 1 -0.0669132 -0.0119874 -0.015025 0.000423 -1.27041 -0.0751756 5.69052 2650 
259 1 -0.0668433 -0.00892504 -0.0153303 0.000423 -1.26988 -0.0380798 5.58477 2650 
2414 1 -0.00527236 -0.00307376 -0.0157654 4.2e-05 0.0173832 -0.0156492 -0.075661 2650 
2172 1 -0.00532903 -0.00236088 -0.0153977 0.000116 0.0582094 -0.00509923 0.00339124 2650 
1363 1 -0.0669565 -0.0138584 -0.014828 0.000423 -1.30004 0.191188 5.95344 2650 
222 1 -0.00219541 -0.0020674 -0.0149841 0.000656 -0.00234311 -0.0331826 0.00406175 2650 
1053 1 -0.007469 -0.00118223 -0.014946 0.000116 0 -0.011753 0 2650 
2827 1 -0.00629405 -0.00254761 -0.0141498 0.000116 -0.0201753 -0.0226203 0.0017234 2650 
1763 1 -0.000388292 -0.00205626 -0.0140145 0.000656 0.0281206 0.018429 -0.0493532 2650 
623 1 -0.00882232 -0.000204826 -0.0141008 0.000116 -0.0368461 -0.0131241 0.0334808 2650 
4106 1 -0.0672971 -0.0249017 -0.0131929 0.000423 -1.05472 0.122156 5.49626 2650 
2053 1 -0.0676973 -0.024202 -0.012731 0.000116 -1.09385 -0.00810434 5.85985 2650 
82 1 -0.0676035 -0.0150574 -0.0132217 0.000116 -1.15387 0.232215 5.85803 2650 
2057 1 -0.0675931 -0.0096951 -0.0132782 0.000116 -1.05116 1.00326 5.29414 2650 
3096 1 -0.0673714 -0.00860555 -0.012813 0.000423 -0.726404 -0.228585 3.75812 2650 
417 1 -0.00646212 -0.00342964 -0.012919 0.000116 -0.653646 -0.0414957 -1.30676 2650 
1022 1 -0.00424716 -0.00187856 -0.0129701 0.000423 -0.0167357 -0.0221843 0.021961 2650 
1025 1 -0.000860844 -0.000810893 -0.0133708 0.000423 0.00175477 0.0292853 -0.0140626 2650 
2139 1 -0.00694638 -0.000603628 -0.0133842 0.000423 0.0407653 0.00500713 -0.056691 2650 
1508 1 -0.0677475 -0.0240901 -0.0124602 0.000116 -1.08395 0.152431 5.90952 2650 
1718 1 -0.0677918 -0.00947471 -0.0122227 0.000116 -0.607694 -0.191945 3.3539 2650 
1085 1 -0.00524617 -0.00267177 -0.0123781 0.000116 -0.0581578 -0.0273893 0.0145531 2650 
1422 1 -0.003881 -0.00085223 -0.012349 4.2e-05 0 -0.011753 0 2650 
3599 1 -0.00187318 -0.00109653 -0.0120538 0.000116 0.00758272 -0.00512374 -0.0536854 2650 
3093 1 -0.00320247 -0.000693927 -0.0123931 0.000423 0.00605153 0.000334807 0.00817158 2650 
2060 1 -0.0679327 -0.00723304 -0.011413 0.000116 -0.832046 -0.115432 4.83755 2650 
4141 1 -0.000395444 -0.00303274 -0.0112725 0.000116 -0.000502989 -0.0315461 -0.0648211 2650 
440 1 -0.00061 -0.00238823 -0.011485 4.2e-05 0 -0.011753 0 2650 
454 1 -0.0116207 -0.000132023 -0.0113293 0.000423 -0.00289454 -0.000968402 -0.00544766 2650 
4203 1 -0.00840136 -0.000618567 -0.0111876 0.000423 0.00502711 -0.00608151 -0.0240799 2650 
1560 1 -0.0677628 -0.0337919 -0.0105404 0.000423 -0.868631 -0.149289 5.73429 2650 
1220 1 -0.0675686 -0.00979489 -0.010283 0.000656 -0.575583 -0.267797 3.53701 2650 
312 1 -0.0680349 -0.00564549 -0.0107854 0.000116 -0.693152 0.311895 4.29464 2650 
3047 1 -0.0681007 -0.00421212 -0.0103568 0.000116 -0.717799 -0.0519927 4.80185 2650 
1808 1 -0.0112901 -0.00303634 -0.0105655 0.000423 -0.0199135 -0.0393739 0.019505 2650 
1193 1 -4.3e-05 -0.00240323 -0.010628 0.000116 0 -0.011753 0 2650 
3673 1 -0.0026899 -0.00177876 -0.0108494 0.000423 0.000169124 -0.0108514 -9.18803e-05 2650 
3284 1 -0.001323 -0.00191423 -0.010635 4.2e-05 0 -0.011753 0 2650 
4328 1 -0.0117813 -0.00119572 -0.0110221 0.000423 -0.0241397 -0.0174671 -0.0046938 2650 
1514 1 -0.00757069 -0.000955457 -0.010443 0.000116 0.0592585 0.00729158 0.0210794 2650 
161 1 -0.00133971 -0.000374481 -0.0107601 0.000423 0.0169113 0.00636159 -0.0425513 2650 
394 1 -0.0681415 -0.0443378 -0.010085 0.000116 -0.558989 -0.558767 3.58588 2650 
3540 1 -0.0678442 -0.0128191 -0.0100071 0.000423 -0.900461 -0.0142017 5.98068 2650 
3073 1 -0.0682114 -0.00484072 -0.0101167 4.2e-05 -0.763552 0.208375 5.13059 2650 
1690 1 -0.0048707 -0.00333119 -0.00954161 0.000423 -0.211441 -0.0227863 -0.414209 2650 
800 1 -0.0087529 -0.00293013 -0.0102279 0.000423 -0.0163648 -0.025386 0.0379972 2650 
2666 1 -0.0103142 -0.000966814 -0.00950869 0.000423 -0.0197681 -0.0256254 -0.0133999 2650 
3264 1 -0.003542 -0.00140323 -0.010108 0.000116 0 -0.011753 0 2650 
4374 1 -0.008921 -0.00021923 -0.009568 4.2e-05 0 -0.011753 0 2650 
3250 1 -0.008233 -0.00024623 -0.010036 0.000116 0 -0.011753 0 2650 
235 1 -0.0679431 -0.0134761 -0.00931432 0.000423 -0.860306 -0.0240678 5.98112 2650 
2530 1 -0.00994528 -0.00345773 -0.00904633 0.000656 -0.707388 -0.0577452 -0.65855 2650 
3393 1 -0.006109 -0.00319823 -0.008736 4.2e-05 0 -0.011753 0 2650 
159 1 -0.005821 -0.00258623 -0.009096 0.000423 0 -0.011753 0 2650 
2645 1 -0.00790697 -0.00217786 -0.00878575 0.000656 -0.021556 -0.0142725 0.0395028 2650 
3640 1 -0.00939103 -0.00145557 -0.00889245 0.000423 -0.0387939 0.00599451 0.0200187 2650 
1487 1 -0.00815525 -0.00134476 -0.00904513 0.000116 -0.0174261 -0.0117543 0.00583496 2650 
2299 1 -0.003792 -0.00037923 -0.009457 4.2e-05 0 -0.011753 0 2650 
119 1 -0.00190874 -0.000301194 -0.00896907 0.000656 0.0254315 -0.0216284 -0.0100789 2650 
2166 1 -0.068408 -0.0222511 -0.00807615 0.000116 -0.705726 0.233299 5.922 2650 
1829 1 -0.00416445 -0.00280009 -0.00841691 0.000116 0.00976188 -0.0365412 -0.0338902 2650 
2634 1 -0.0685628 -0.0283878 -0.00733744 4.2e-05 -0.663935 0.411459 5.77241 2650 
213 1 -0.0431393 -0.00417051 -0.00751312 4.2e-05 -6.33463 -0.113756 -1.11899 2650 
4178 1 -0.000952641 -0.00232903 -0.00764318 0.000423 0.0148577 0.00262151 -0.024227 2650 
1639 1 -0.005507 -0.00086523 -0.007416 4.2e-05 0 -0.011753 0 2650 
1276 1 -0.000858158 -0.00031397 -0.00712636 0.000116 0.0257983 -0.00678674 -0.0321101 2650 
3694 1 -0.0175297 -0.00346716 -0.00706343 0.000116 -1.9704 -0.0466928 -0.793955 2650 
2062 1 -0.0117818 -0.00245315 -0.00655729 0.000116 -0.0089897 -0.0441414 -0.0338209 2650 
3058 1 -0.00315268 -0.00268007 -0.00686062 0.000116 -0.00482637 -0.0232095 -0.105722 2650 
3376 1 -0.008969 -0.00219223 -0.006983 0.000116 0 -0.011753 0 2650 
848 1 -0.004556 -0.00235523 -0.006748 0.000116 0 -0.011753 0 2650 
3633 1 -0.0683059 -0.00752345 -0.0060565 0.000423 -0.501064 -0.157548 5.15149 2650 
542 1 -0.014888 -0.00304823 -0.005532 4.2e-05 0 -0.011753 0 2650 
4153 1 -0.0129334 -0.0025751 -0.00604617 0.000116 -0.0160415 -0.0342225 -0.0192187 2650 
1353 1 -0.0117553 -0.00260324 -0.0055914 0.000423 0.00878187 -0.0418817 -0.0159465 2650 
1311 1 -0.00357944 -0.00181794 -0.00571588 4.2e-05 0.00173527 -0.0567547 -0.0339546 2650 
4306 1 -0.0150931 -0.000861353 -0.00579785 0.000423 -0.000741917 0.00221031 0.0303376 2650 
1450 1 -0.00402079 -0.000862282 -0.00579808 0.000423 -0.0149314 -0.0329691 -0.023686 2650 
448 1 -0.00594493 -0.000562171 -0.00613858 0.000656 -0.00816538 -0.0250082 -0.0136525 2650 
811 1 -0.0683602 -0.0161894 -0.00534162 0.000423 -0.463108 -0.0428944 6.11079 2650 
2338 1 -0.012887 -0.00402931 -0.00509692 0.000423 -1.8142 -0.107657 -0.712922 2650 
4201 1 -0.00510098 -0.00243265 -0.0054131 0.000423 0.0261034 -0.0195205 -0.00953961 2650 
656 1 -0.0129776 -0.00191847 -0.00483467 4.2e-05 0.0238995 -0.0215552 0.00766746 2650 
263 1 -0.0137477 -0.00011699 -0.00482423 0.000423 0.0122195 -0.0051258 -0.000499179 2650 
3578 1 -0.00804925 -0.00036868 -0.00540966 0.000116 0.0166174 -0.0080284 -0.0212687 2650 
1062 1 -0.0687047 -0.00854269 -0.00461163 0.000116 -0.449964 -0.190455 4.64558 2650 
203 1 -0.002373 -0.00325523 -0.004593 0.000116 0 -0.011753 0 2650 
3747 1 -0.0134821 -0.00283887 -0.00410861 0.000423 -0.134551 0.00927899 0.0242187 2650 
4182 1 -0.0127279 -0.00204171 -0.00445662 0.000423 0.00155968 -0.0101466 0.0180868 2650 
1335 1 -0.000843866 -0.0021164 -0.00397585 0.000423 0.013752 0.00749148 -0.0188331 2650 
1773 1 -0.0138398 -0.00109793 -0.00438978 0.000423 -0.0176664 -0.00612759 0.00504584 2650 
2812 1 -0.00227985 -0.000919555 -0.0045478 0.000116 -0.0393901 -0.00715913 0.0529982 2650 
1693 1 -0.015258 -0.000274426 -0.00461356 0.000423 0.00830454 0.0135218 0.0361894 2650 
3128 1 -0.01205 -0.000109807 -0.00422841 0.000423 0.013482 -0.0017018 0.0194738 2650 
228 1 -0.0682341 -0.0144295 -0.00382289 0.000656 -0.463632 0.00515456 6.35373 2650 
1252 1 -0.0141592 -0.00245308 -0.00366689 0.000423 -0.0243889 -0.0361704 0.00233209 2650 
1746 1 -0.0132441 -0.00298737 -0.00338353 0.000116 -0.0366472 -0.0146521 0.0746655 2650 
4237 1 -0.00974531 -0.00288052 -0.00329145 0.000116 0.0489183 -0.0128522 0.0150913 2650 
3212 1 -0.0159847 -0.00183748 -0.00316781 0.000423 0.00797419 -0.0144797 -0.0019361 2650 
2484 1 -0.016038 -0.00103054 -0.00354783 0.000116 0.0083857 -0.0300119 -0.0206688 2650 
746 1 -0.0144492 -0.000591554 -0.00342476 0.000116 -0.000891342 -0.0108384 0.00058416 2650 
1515 1 -0.014983 -0.00051223 -0.003609 0.000116 0 -0.011753 0 2650 
4232 1 -0.01438 -0.000490951 -0.00364441 0.000116 -1.33978e-07 -0.0116406 -0.000114396 2650 
216 1 -0.010102 -0.00077623 -0.003847 4.2e-05 0 -0.011753 0 2650 
483 1 -0.0684734 -0.0276905 -0.00297601 0.000423 -0.275685 0.123294 5.69223 2650 
1712 1 -0.0687983 -0.0104542 -0.00293714 0.000116 -0.277933 -0.303087 4.98767 2650 
2879 1 -0.015065 -0.0032967 -0.00241506 0.000423 -0.0111846 -0.0272572 -0.000602441 2650 
283 1 -0.0113665 -0.00250875 -0.0027506 0.000116 0.0363143 -0.0363503 -0.0175491 2650 
3466 1 -0.0162796 -0.00173491 -0.00268911 0.000116 -0.0211615 -0.0487839 0.00558567 2650 
1013 1 -0.0133478 -0.000924755 -0.00270166 0.000423 -0.0186416 -0.0255563 0.000489032 2650 
2932 1 -0.011472 -0.00106323 -0.00308 0.000116 0 -0.011753 0 2650 
801 1 -0.00457892 -5.38323e-05 -0.0025452 0.000423 0.0246001 -0.00426389 -0.0102918 2650 
3963 1 -0.00295128 -0.000543324 -0.00245689 0.000423 -5.35909e-05 -0.0117537 -5.072e-05 2650 
4163 1 -0.00210791 -5.80481e-05 -0.00254963 4.2e-05 -0.0243904 -0.027106 -0.0104098 2650 
1760 1 -0.0689033 -0.02791 -0.00161555 4.2e-05 -0.0911959 0.310923 6.47479 2650 
4210 1 -0.0685339 -0.0252667 -0.00210402 0.000423 -0.138961 -0.0822034 6.32019 2650 
2599 1 -0.0688363 -0.0137299 -0.00174864 0.000116 -0.104169 -0.0678503 5.34608 2650 
3249 1 -0.012038 -0.00040953 -0.00202703 0.000116 0.0467911 0.00119016 -0.0211549 2650 
375 1 -0.0685552 -0.024744 -0.00135932 0.000423 -0.125754 -0.0488785 6.31209 2650 
2349 1 -0.0685632 -0.0225126 -0.000957422 0.000423 -0.0609881 0.179944 6.38746 2650 
3915 1 -0.0688558 -0.0102909 -0.00111275 0.000116 0.0175495 -0.0958257 4.72573 2650 
1257 1 -0.0268986 -0.00661266 -0.000843595 0.000423 -3.37818 -0.410402 -0.189641 2650 
659 1 -0.0314066 -0.00394472 -0.00134788 4.2e-05 -4.44228 -0.0971944 -0.197421 2650 
1061 1 -0.0087535 -0.00303426 -0.00113739 0.000116 -0.0368421 -0.0157253 0.0068304 2650 
710 1 -0.0685591 -0.00208323 -0.00115929 0.000423 -0.0669245 -0.117671 5.07738 2650 
1792 1 -0.0117174 -0.00189707 -0.00101854 0.000423 0.0289338 -0.0248356 -0.033965 2650 
171 1 -0.0036737 -0.00109671 -0.00115465 0.000116 -0.0264191 -0.0661391 0.0395743 2650 
1142 1 -0.0129269 -5.07937e-05 -0.00104151 0.000423 0.0148781 0.000783688 -0.00201947 2650 
2336 1 -0.00521616 -0.000311766 -0.000865215 0.000423 -0.00772647 -0.00243305 0.0210121 2650 
2523 1 -0.0689577 -0.00803117 -0.000136264 4.2e-05 -0.0203312 0.490124 6.87255 2650 
1123 1 -0.0127414 -0.00319029 -0.000479023 0.000423 -0.00328401 -0.00624547 0.00162091 2650 
1402 1 -0.0121937 -0.00271339 -0.000560094 0.000116 -0.00785589 -0.0238284 0.00242914 2650 
366 1 -0.00600388 -0.00315709 -1.38376e-05 0.000423 0.0373675 -0.0225835 0.0149488 2650 
4265 1 -0.0032765 -0.00287998 -0.000468401 4.2e-05 -0.0356811 -0.0746756 -0.0811092 2650 
791 1 -0.0685776 -0.00219472 -0.000228126 0.000423 -0.00825602 -0.128467 5.08698 2650 
1750 1 -0.0140756 -0.00183276 -0.000709269 4.2e-05 0.00291537 -0.0264552 0.0388479 2650 
3562 1 -0.0114339 -0.00179805 -9.59837e-06 0.000423 0.00280374 -0.017756 -0.00058845 2650 
1558 1 -0.00600012 -0.00210715 -0.000310229 0.000423 0.00975927 -0.00189192 0.000904834 2650 
803 1 -0.0123435 -7.67475e-05 -0.000247524 0.000423 0.0143991 0.00798505 0.00575703 2650 
42 1 -0.0131955 -0.00319673 0.000301992 0.000423 -0.00373084 -0.00894559 0.00258337 2650 
2711 1 -0.00608747 -0.00330506 0.000539908 0.000116 -0.0326272 -0.0207034 0.0277603 2650 
1529 1 -0.007601 -0.00286823 0.000457 4.2e-05 0 -0.011753 0 2650 
337 1 -0.010349 -0.00182696 0.000651269 0.000656 0.00225102 -0.0240727 -0.00543137 2650 
647 1 -0.007901 -0.00205523 0.000409 0.000116 0 -0.011753 0 2650 
3472 1 -0.00376864 -0.00212735 7.40156e-05 0.000116 -0.0503211 -0.0568701 -0.0691341 2650 
5 1 -0.00244694 -0.000995304 0.000578072 0.000656 0.0126977 -0.028658 0.0184449 2650 
4040 1 -0.00132301 -0.00134946 0.00014749 0.000116 0.0158624 -0.0272894 0.0116133 2650 
3215 1 -0.015842 -0.00014523 0.000127 0.000423 0 -0.011753 0 2650 
3469 1 -0.010677 -0.00038323 0.000412 0.000116 0 -0.011753 0 2650 
4344 1 -0.00666205 -0.000437205 0.000224567 0.000116 -0.00419747 -0.0146367 -0.0159352 2650 
1734 1 -0.015757 -0.00306295 0.00137485 0.000116 0.0141765 -0.00451592 -0.0162708 2650 
1351 1 -0.0125507 -0.000572283 0.0009272 0.000423 -0.00697357 -0.0169551 0.0013328 2650 
7 1 -0.0108733 -1.97359e-05 0.00152282 0.000656 0.0209313 -0.000624586 -0.0112431 2650 
2031 1 -0.00940467 -0.000445487 0.000879164 0.000423 0.0301119 -0.0119906 -0.014072 2650 
3395 1 -0.0154971 -0.00282847 0.00191647 4.2e-05 0.0157063 -0.0121488 -0.00481372 2650 
2394 1 -0.0124328 -0.00158636 0.00200956 0.000116 0.0282841 -0.0393814 -0.0523286 2650 
209 1 -0.0140039 -0.00122721 0.00207478 0.000116 0.00801905 -0.0384668 -0.0266952 2650 
1039 1 -0.0103416 -0.00320674 0.00285443 0.000423 -0.0560855 -0.0247817 0.0192739 2650 
2063 1 -0.010326 -0.00137823 0.002962 0.000116 0 -0.011753 0 2650 
2462 1 -0.0156008 -0.000316055 0.00297063 0.000423 -0.00176609 0.000840946 0.00919738 2650 
2721 1 -0.012914 -0.000364898 0.00245208 0.000116 0.0379611 0.00324256 0.0260673 2650 
99 1 -0.003414 -0.00025723 0.002827 0.000116 0 -0.011753 0 2650 