ITEM: TIMESTEP
30869751
ITEM: NUMBER OF ATOMS
4067
ITEM: BOX BOUNDS ff ff ff
-0.15 0.15
-0.15 0.15
-0.15 0.15
ITEM: ATOMS id type x y z radius vx vy vz density 
2053 1 -0.00441816 -0.0316833 -0.0687425 0.000116 -10.1894 -0.080566 0.653381 2650 
1185 1 -0.00188818 -0.0308938 -0.0688579 0.000116 -10.205 -0.0856622 0.28739 2650 
2271 1 -0.00513594 -0.0294923 -0.0686926 0.000116 -10.1402 -0.00943028 0.756577 2650 
2837 1 -0.00375365 -0.0292168 -0.0687818 0.000116 -10.1713 -0.148756 0.547526 2650 
1183 1 -0.00249499 -0.0270101 -0.0688385 0.000116 -9.54079 -0.888519 0.346028 2650 
406 1 -0.00416863 -0.0258343 -0.0687579 0.000116 -9.97189 -0.0237376 0.612724 2650 
4225 1 -0.0022712 -0.0255091 -0.0688465 0.000116 -9.96964 -0.224892 0.330652 2650 
3599 1 -0.00180432 -0.0233728 -0.0688604 0.000116 -10.0298 0.230829 0.269497 2650 
759 1 -0.00250193 -0.0217877 -0.0688386 0.000116 -9.67757 0.110475 0.357699 2650 
1743 1 -0.00198207 -0.020773 -0.0688555 0.000116 -10.2096 -0.319378 0.293506 2650 
1499 1 -0.00386177 -0.0177462 -0.0687755 0.000116 -9.02035 -0.0184262 0.506113 2650 
4355 1 -0.00283918 -0.0111444 -0.0688252 0.000116 -6.1324 0.121629 0.24481 2650 
3264 1 -0.000876538 -0.00930532 -0.0688782 0.000116 -7.74256 -0.112464 0.100999 2650 
3031 1 -0.00193092 -0.00510651 -0.0688569 0.000116 -8.17822 0.156149 0.220101 2650 
3319 1 -0.00751533 -0.0472061 -0.0681639 0.000423 -10.6232 0.0392241 1.17107 2650 
3331 1 -0.00371321 -0.0454277 -0.0684696 0.000423 -10.7621 0.0249156 0.583651 2650 
3330 1 -0.00287998 -0.0457483 -0.0685127 0.000423 -10.6648 0.115748 0.447713 2650 
2532 1 -0.00167723 -0.0416971 -0.0683259 0.000656 -10.8006 -0.0205164 0.2635 2650 
2118 1 -0.00871612 -0.0391543 -0.0680222 0.000423 -10.0124 -0.0263107 1.29168 2650 
4026 1 -0.00635848 -0.0374494 -0.0685896 0.000116 -10.1056 0.0888196 0.935925 2650 
4101 1 -0.00965336 -0.0363297 -0.0678957 0.000423 -10.0797 0.055282 1.43268 2650 
3966 1 -0.00885744 -0.0366302 -0.068004 0.000423 -10.1033 0.0599959 1.31607 2650 
3529 1 -0.00778235 -0.0365064 -0.0681359 0.000423 -10.134 0.149478 1.15978 2650 
4305 1 -0.00633749 -0.0368742 -0.0682851 0.000423 -10.161 0.112484 0.921502 2650 
3339 1 -0.00822026 -0.0357771 -0.0680844 0.000423 -10.1421 0.143618 1.22171 2650 
2559 1 -0.0093292 -0.034925 -0.0679409 0.000423 -10.0962 0.0858673 1.37845 2650 
1960 1 -0.00878357 -0.0354548 -0.0683221 0.000116 -10.173 0.220817 1.30318 2650 
3743 1 -0.00740259 -0.0355032 -0.0681782 0.000423 -10.1605 0.161323 1.10364 2650 
1045 1 -0.00399559 -0.0351456 -0.068462 0.000423 -10.1564 0.0874726 0.591749 2650 
16 1 -0.00798526 -0.0342813 -0.0681125 0.000423 -10.1068 -0.00782414 1.18354 2650 
2576 1 -0.00495846 -0.0342599 -0.0683988 0.000423 -10.1478 0.142594 0.746116 2650 
800 1 -0.00308321 -0.034224 -0.0685093 0.000423 -10.2373 0.129234 0.447753 2650 
2788 1 -0.00159733 -0.0340121 -0.0685592 0.000423 -10.2203 0.117264 0.244501 2650 
1963 1 -0.00793882 -0.0332201 -0.0684256 0.000116 -10.0859 0.0258281 1.17005 2650 
1130 1 -0.00725495 -0.0334412 -0.0681938 0.000423 -10.0899 -0.0226953 1.07678 2650 
2248 1 -0.00639217 -0.0337155 -0.0682802 0.000423 -10.1035 -0.0441012 0.945067 2650 
4311 1 -0.00848201 -0.0328161 -0.0680526 0.000423 -10.0738 0.0260804 1.25442 2650 
3683 1 -0.00771142 -0.0330375 -0.0684514 0.000116 -10.0908 0.0235672 1.13752 2650 
2898 1 -0.00656868 -0.0328314 -0.0682633 0.000423 -10.1214 -0.0405995 0.987408 2650 
250 1 -0.0057298 -0.0326448 -0.0683391 0.000423 -10.1199 -0.0561073 0.860548 2650 
821 1 -0.00416208 -0.0328207 -0.0684519 0.000423 -10.1737 -0.0357714 0.618665 2650 
4302 1 -0.00238817 -0.0324583 -0.0685363 0.000423 -10.1772 -0.053415 0.364358 2650 
2242 1 -0.00706556 -0.0320725 -0.0682138 0.000423 -10.0904 -0.0202355 1.04476 2650 
2395 1 -0.00638161 -0.0320564 -0.0685883 0.000116 -10.1622 -0.0733742 0.944876 2650 
1368 1 -0.0060111 -0.031746 -0.0683145 0.000423 -10.1314 -0.0569141 0.891565 2650 
4320 1 -0.00482964 -0.0322999 -0.0684082 0.000423 -10.1715 -0.0332665 0.732843 2650 
636 1 -0.0108393 -0.0315707 -0.0680269 0.000116 -10.1446 -0.0384992 1.61683 2650 
4098 1 -0.00832864 -0.0315323 -0.0680715 0.000423 -10.0673 0.0640441 1.23089 2650 
1360 1 -0.00723901 -0.0310277 -0.0681963 0.000423 -10.1052 -0.0276169 1.07274 2650 
2338 1 -0.00518922 -0.0308158 -0.0683822 0.000423 -10.1655 -0.0446631 0.773096 2650 
249 1 -0.00399079 -0.0314381 -0.0684622 0.000423 -10.1512 -0.0563536 0.603574 2650 
3242 1 -0.010875 -0.030356 -0.0680211 0.000116 -10.0904 0.00766774 1.61251 2650 
337 1 -0.0066591 -0.0300583 -0.0680224 0.000656 -10.0973 -0.0438297 0.988971 2650 
2116 1 -0.00145021 -0.030743 -0.0685628 0.000423 -10.1723 -0.102072 0.235734 2650 
3549 1 -0.00331027 -0.0297652 -0.0684983 0.000423 -10.1395 -0.053618 0.48981 2650 
4309 1 -0.00961068 -0.0289382 -0.0679021 0.000423 -10.1118 -0.000164468 1.43138 2650 
3586 1 -0.00768214 -0.0288571 -0.068455 0.000116 -10.0956 0.0548593 1.13232 2650 
3783 1 -0.00538223 -0.0290602 -0.0683672 0.000423 -10.1478 -0.0210027 0.801533 2650 
1206 1 -0.0108491 -0.0281806 -0.0680997 4.2e-05 -9.7358 0.291869 1.55216 2650 
4163 1 -0.0101348 -0.0282411 -0.0682098 4.2e-05 -8.77567 -0.367452 1.30976 2650 
1453 1 -0.00637087 -0.027716 -0.0682823 0.000423 -9.92372 -0.0209056 0.93082 2650 
2690 1 -0.00282827 -0.0281771 -0.0685199 0.000423 -9.79665 -0.0539103 0.393757 2650 
916 1 -0.0019635 -0.0284002 -0.0685497 0.000423 -9.79566 -0.169864 0.28525 2650 
3258 1 -0.0108017 -0.0271097 -0.068032 0.000116 -9.94624 -0.333951 1.58101 2650 
2976 1 -0.00741005 -0.0274864 -0.0679447 0.000656 -9.91811 -0.095112 1.1057 2650 
4219 1 -0.00793191 -0.0265348 -0.0681181 0.000423 -9.90233 -0.0587245 1.17327 2650 
3807 1 -0.00916133 -0.0259078 -0.0682723 0.000116 -9.73412 0.0778542 1.30753 2650 
3540 1 -0.00582578 -0.0246143 -0.0683307 0.000423 -9.73669 -0.245403 0.83525 2650 
2145 1 -0.00223238 -0.024991 -0.068542 0.000423 -9.39324 -0.452949 0.309154 2650 
2542 1 -0.00812303 -0.0242877 -0.0680952 0.000423 -9.84906 -0.215233 1.15265 2650 
1466 1 -0.00169608 -0.0243349 -0.0685573 0.000423 -10.1204 -0.0456213 0.251102 2650 
2627 1 -0.00962882 -0.0232692 -0.0682077 0.000116 -9.86919 -0.79406 1.39509 2650 
4352 1 -0.00924884 -0.0232744 -0.0682601 0.000116 -9.25022 -0.234696 1.25665 2650 
1721 1 -0.00663861 -0.0215638 -0.0685632 0.000116 -9.68666 -0.603655 0.93754 2650 
1572 1 -0.0034565 -0.0216199 -0.0684912 0.000423 -9.83084 0.0994829 0.504393 2650 
3443 1 -0.000369577 -0.0218234 -0.0685773 0.000423 -9.56463 -0.124217 0.0575727 2650 
263 1 -0.00860516 -0.021106 -0.0680361 0.000423 -9.14736 0.0234902 1.14022 2650 
1610 1 -0.0059832 -0.021302 -0.0686236 0.000116 -9.65241 -0.413963 0.839739 2650 
2342 1 -0.0052187 -0.0211427 -0.0683795 0.000423 -9.23767 0.119936 0.704239 2650 
2599 1 -0.00757547 -0.0204362 -0.0684661 0.000116 -9.71605 0.107029 1.07724 2650 
1669 1 -0.00635138 -0.0198648 -0.0682836 0.000423 -8.9258 0.0264908 0.835416 2650 
1246 1 -0.00573992 -0.0179812 -0.0683376 0.000423 -9.14878 0.147465 0.774472 2650 
1196 1 -0.00980181 -0.0136959 -0.0681838 0.000116 -9.06021 -0.200419 1.29762 2650 
2193 1 -0.0119104 -0.00424788 -0.0679216 4.2e-05 -8.54541 -0.324749 1.5014 2650 
1177 1 -0.0114869 -0.00241469 -0.0679193 0.000116 -8.21454 -0.00502052 1.3875 2650 
4327 1 -0.000495595 -0.00282007 -0.0685765 0.000423 -9.20739 0.00579752 0.0690104 2650 
3819 1 -0.00843113 -0.000121305 -0.0683658 0.000116 -6.26302 0.000724586 0.772433 2650 
4193 1 -0.0120659 -0.040425 -0.0675085 0.000423 -10.3059 -0.0458946 1.84247 2650 
1474 1 -0.00967756 -0.0395701 -0.0678917 0.000423 -10.0168 -0.0247012 1.42656 2650 
3764 1 -0.0118914 -0.0367327 -0.0675398 0.000423 -10.033 0.0439558 1.75685 2650 
2605 1 -0.0132199 -0.0359346 -0.0676039 0.000116 -10.1336 -0.124751 1.98316 2650 
914 1 -0.0105773 -0.035925 -0.0677584 0.000423 -9.97481 0.269646 1.555 2650 
56 1 -0.0125352 -0.0354802 -0.0674236 0.000423 -10.0348 0.112341 1.85781 2650 
1596 1 -0.0130463 -0.0346765 -0.0676376 0.000116 -10.0272 0.0320666 1.93378 2650 
2246 1 -0.0109965 -0.0333851 -0.0676912 0.000423 -10.0541 -0.0204814 1.6335 2650 
3534 1 -0.0125973 -0.0330916 -0.0674121 0.000423 -10.0382 -0.044508 1.88426 2650 
3252 1 -0.0152523 -0.0318399 -0.067175 0.000116 -10.0093 0.0268626 2.27288 2650 
712 1 -0.0103194 -0.0323341 -0.0677985 0.000423 -10.0686 -0.0698332 1.519 2650 
4037 1 -0.0119754 -0.0309084 -0.0678361 0.000116 -10.078 -0.0288127 1.77864 2650 
1068 1 -0.0118504 -0.031425 -0.0678581 0.000116 -10.1385 -0.00632111 1.76914 2650 
1363 1 -0.0113521 -0.0314255 -0.0676334 0.000423 -10.0988 -0.0518565 1.69389 2650 
552 1 -0.0102804 -0.0312754 -0.0675706 0.000656 -10.0856 -0.0631418 1.52051 2650 
253 1 -0.0123234 -0.0307134 -0.0674629 0.000423 -10.0328 -0.0142183 1.83201 2650 
259 1 -0.0133407 -0.0297926 -0.0672691 0.000423 -9.97762 -0.070853 1.97782 2650 
2683 1 -0.0123087 -0.0294066 -0.0674657 0.000423 -10.0191 0.0723072 1.82664 2650 
2019 1 -0.0115084 -0.0297065 -0.0676066 0.000423 -10.04 0.0757236 1.70914 2650 
3960 1 -0.0105809 -0.0299221 -0.0677581 0.000423 -10.0781 0.0166088 1.57371 2650 
4150 1 -0.0130196 -0.0287231 -0.0676433 0.000116 -10.036 0.187187 1.9308 2650 
465 1 -0.0108175 -0.0287293 -0.0677205 0.000423 -10.0514 0.0656477 1.60829 2650 
2526 1 -0.0150164 -0.0208597 -0.0673033 4.2e-05 -9.03218 -0.13755 2.01962 2650 
2586 1 -0.0144195 -0.00898799 -0.0673552 0.000116 -9.66441 0.0751197 2.06752 2650 
1208 1 -0.0152216 -0.000130325 -0.0672569 4.2e-05 -7.29389 0.0818605 1.6434 2650 
2557 1 -0.0156953 -0.0458624 -0.0667577 0.000423 -10.2251 -0.0832661 2.40438 2650 
579 1 -0.0166052 -0.0416316 -0.0665381 0.000423 -9.95906 -0.0493784 2.48765 2650 
2937 1 -0.0179499 -0.0389292 -0.0665039 0.000116 -9.97438 0.02369 2.69221 2650 
229 1 -0.0153118 -0.0391818 -0.0666097 0.000656 -9.93531 -0.0499707 2.28709 2650 
3639 1 -0.0170804 -0.0371083 -0.0664174 0.000423 -10.0334 0.0705389 2.57991 2650 
2476 1 -0.0159883 -0.0364341 -0.0670029 0.000116 -9.87958 0.0836505 2.35881 2650 
1085 1 -0.0177046 -0.0361308 -0.06657 0.000116 -9.83729 -0.0415399 2.61473 2650 
1670 1 -0.017457 -0.0357086 -0.0663194 0.000423 -9.76312 -0.0629503 2.58336 2650 
390 1 -0.0178912 -0.0343254 -0.0665201 0.000116 -9.94404 0.194799 2.67413 2650 
2007 1 -0.0152813 -0.0345261 -0.0668546 0.000423 -9.80106 0.0149816 2.24083 2650 
1364 1 -0.0143675 -0.033564 -0.0670573 0.000423 -9.98922 0.0124044 2.14292 2650 
3974 1 -0.0162446 -0.0314291 -0.0666271 0.000423 -9.76126 0.088689 2.37773 2650 
1445 1 -0.0141906 -0.0313905 -0.067095 0.000423 -9.925 -0.0470073 2.10155 2650 
1792 1 -0.0171951 -0.0306069 -0.0663884 0.000423 -9.74578 0.0165411 2.52275 2650 
2098 1 -0.0150146 -0.0307258 -0.0666786 0.000656 -9.8389 0.0339985 2.22557 2650 
2066 1 -0.0176188 -0.0297544 -0.0665933 0.000116 -9.79289 0.242249 2.58948 2650 
2203 1 -0.0163035 -0.0299795 -0.0663748 0.000656 -9.79606 0.113244 2.40483 2650 
1944 1 -0.016354 -0.0288013 -0.0669151 0.000116 -9.9311 0.121314 2.42645 2650 
3878 1 -0.0157166 -0.0291417 -0.0667538 0.000423 -9.89299 0.123324 2.32972 2650 
3650 1 -0.0166325 -0.0282699 -0.0665314 0.000423 -9.93845 0.105771 2.4831 2650 
1818 1 -0.0186322 -0.0233643 -0.0663162 0.000116 -9.2154 0.22823 2.58556 2650 
858 1 -0.0168617 -0.0225069 -0.0667882 0.000116 -8.5912 0.0363544 2.1698 2650 
4113 1 -0.0164559 -0.0111361 -0.0668897 0.000116 -8.72006 0.398137 2.15527 2650 
3941 1 -0.0184408 -0.00910091 -0.0664408 4.2e-05 -9.20196 0.0906218 2.56049 2650 
3873 1 -0.0149512 -0.0085406 -0.066925 0.000423 -7.59074 -0.0634357 1.68839 2650 
2846 1 -0.0188882 -0.00748787 -0.0663185 4.2e-05 -7.35895 -0.740867 1.9875 2650 
4259 1 -0.0156958 -0.00473662 -0.0670678 0.000116 -7.47003 -0.0290024 1.75707 2650 
210 1 -0.0169207 -0.00107163 -0.066849 4.2e-05 -7.64034 -0.188509 1.93281 2650 
1462 1 -0.0188357 -0.0623012 -0.0659411 0.000423 -10.0024 -0.00564091 2.86384 2650 
2468 1 -0.0198763 -0.0396907 -0.0656342 0.000423 -9.78771 0.000493689 2.96201 2650 
1443 1 -0.0182894 -0.0380923 -0.0660944 0.000423 -9.96212 0.0090084 2.75737 2650 
2664 1 -0.0198244 -0.0365122 -0.0656506 0.000423 -9.764 -0.0176616 2.94722 2650 
27 1 -0.0194756 -0.0356982 -0.0657547 0.000423 -9.71701 -3.29525e-05 2.87973 2650 
2221 1 -0.0190206 -0.0330907 -0.065888 0.000423 -9.72001 0.0463894 2.82901 2650 
1050 1 -0.0210322 -0.0308822 -0.0655947 0.000116 -9.56861 0.0871614 3.06993 2650 
2451 1 -0.0178763 -0.0301276 -0.0662081 0.000423 -9.70261 0.0642155 2.61816 2650 
3464 1 -0.0198385 -0.0295863 -0.0659655 0.000116 -9.69513 -0.460187 2.91681 2650 
412 1 -0.0203079 -0.0273121 -0.0658223 0.000116 -9.59486 0.106929 2.96148 2650 
1824 1 -0.0211486 -0.0261658 -0.0655572 0.000116 -9.39179 -0.245066 3.03472 2650 
2081 1 -0.0199067 -0.0260603 -0.0660222 4.2e-05 -9.88114 0.132371 2.98061 2650 
3431 1 -0.0187447 -0.00124138 -0.0659662 0.000423 -8.05967 -0.0223697 2.28896 2650 
57 1 -0.018727 -0.000117708 -0.0662894 0.000116 -7.31491 -0.00939127 2.06582 2650 
1683 1 -0.0221231 -0.0423417 -0.0649119 0.000423 -10.1397 0.12614 3.45568 2650 
2538 1 -0.0214695 -0.0392972 -0.0648873 0.000656 -9.68075 0.0282435 3.20261 2650 
2353 1 -0.0220521 -0.0372064 -0.0649356 0.000423 -9.64284 -0.01048 3.2541 2650 
3570 1 -0.0232835 -0.0363609 -0.0648297 0.000116 -9.68898 -0.11372 3.48091 2650 
902 1 -0.0209473 -0.0364941 -0.0653007 0.000423 -9.71174 0.0416792 3.11787 2650 
2525 1 -0.0217717 -0.0360296 -0.0654301 4.2e-05 -9.99403 0.475746 3.3268 2650 
2245 1 -0.021088 -0.0322876 -0.0652552 0.000423 -9.61447 0.0654526 3.10638 2650 
2072 1 -0.0226639 -0.0312677 -0.0650487 0.000116 -9.21263 -0.0522596 3.21175 2650 
2703 1 -0.0232844 -0.0306436 -0.0648294 0.000116 -9.60909 -0.101251 3.4539 2650 
418 1 -0.0234207 -0.0253082 -0.0647801 0.000116 -9.56078 -0.436683 3.45575 2650 
1389 1 -0.0230035 -0.0179442 -0.0649249 0.000116 -7.95792 0.46506 2.84904 2650 
626 1 -0.0224522 -0.00184703 -0.0651129 0.000116 -7.88563 -0.124535 2.72783 2650 
2123 1 -0.0234644 -0.0410939 -0.0644392 0.000423 -9.69704 -0.0871464 3.5315 2650 
4303 1 -0.0242391 -0.0404324 -0.064144 0.000423 -9.69574 -0.0390159 3.66432 2650 
3741 1 -0.0236533 -0.0383007 -0.0643693 0.000423 -9.57035 -0.0722828 3.50724 2650 
1920 1 -0.0244958 -0.0377463 -0.0640447 0.000423 -9.57655 -0.0784829 3.66153 2650 
3005 1 -0.0230015 -0.0368107 -0.0646056 0.000423 -9.60648 -0.0198873 3.42077 2650 
3089 1 -0.0233637 -0.0356672 -0.0644757 0.000423 -9.59239 -0.165114 3.47561 2650 
669 1 -0.0222662 -0.0356971 -0.0646186 0.000656 -9.64511 0.000965352 3.32452 2650 
3882 1 -0.0234151 -0.0348224 -0.0644571 0.000423 -9.54409 -0.160376 3.46726 2650 
3413 1 -0.0247231 -0.0259382 -0.0639572 0.000423 -9.57068 0.0115575 3.70747 2650 
4308 1 -0.0252377 -0.0392305 -0.0637619 0.000423 -9.60689 0.0332895 3.81059 2650 
2875 1 -0.0257141 -0.033371 -0.0635384 0.000423 -9.49785 -0.017455 3.84419 2650 
71 1 -0.0261723 -0.0266086 -0.0637182 0.000116 -8.13117 -0.495331 3.32363 2650 
2371 1 -0.0271592 -0.022173 -0.063302 0.000116 -8.55226 0.0707572 3.66424 2650 
1723 1 -0.0274349 -0.0206869 -0.063185 0.000116 -8.11264 0.141704 3.53455 2650 
278 1 -0.0265129 -0.0203918 -0.0635774 0.000116 -8.30299 -0.132637 3.46442 2650 
2086 1 -0.026794 -0.018782 -0.0635395 4.2e-05 -8.18105 -0.0441359 3.45556 2650 
2210 1 -0.0266907 -0.0529609 -0.0629185 0.000656 -9.89916 -0.136096 4.19961 2650 
132 1 -0.0270537 -0.0379021 -0.0630082 0.000423 -9.43581 0.0995774 4.05502 2650 
28 1 -0.0268039 -0.0359747 -0.0631161 0.000423 -9.41959 0.0104439 3.99751 2650 
3522 1 -0.0277909 -0.0350397 -0.0626928 0.000423 -9.35048 0.0618998 4.15059 2650 
3498 1 -0.0279399 -0.0341406 -0.0629629 0.000116 -9.27842 -0.0798102 4.10524 2650 
74 1 -0.0291793 -0.0330375 -0.0623818 0.000116 -9.40561 0.0296433 4.40062 2650 
3376 1 -0.0289806 -0.0322986 -0.0624819 0.000116 -9.22729 0.189061 4.27446 2650 
3174 1 -0.0287129 -0.0171071 -0.0626955 4.2e-05 -8.20662 -0.297117 3.75642 2650 
609 1 -0.0278864 -0.0154216 -0.062987 0.000116 -7.91759 0.00297352 3.5116 2650 
1315 1 -0.0297086 -0.0402956 -0.0622297 4.2e-05 -8.81695 0.100535 4.20777 2650 
2355 1 -0.0290246 -0.0391446 -0.0621322 0.000423 -9.29801 0.0204351 4.3438 2650 
4133 1 -0.0293296 -0.0340216 -0.0623172 0.000116 -9.30159 0.00524589 4.38038 2650 
4020 1 -0.0296791 -0.0341399 -0.0621553 0.000116 -9.31696 0.0314545 4.45433 2650 
672 1 -0.0295045 -0.0347143 -0.0616479 0.000656 -9.22846 0.0325383 4.42984 2650 
2982 1 -0.0287359 -0.0342105 -0.0622572 0.000423 -9.32278 -0.055379 4.30301 2650 
381 1 -0.0294173 -0.0332543 -0.0619352 0.000423 -9.32261 0.00333854 4.43186 2650 
4169 1 -0.0282599 -0.0332214 -0.0622187 0.000656 -9.34184 -0.0383672 4.23735 2650 
2920 1 -0.0301728 -0.0327622 -0.061918 0.000116 -9.14826 0.0855846 4.4709 2650 
868 1 -0.0302353 -0.0226571 -0.0618933 0.000116 -8.92541 0.353268 4.35824 2650 
2033 1 -0.0304168 -0.0359712 -0.0614617 0.000423 -9.23848 0.0505534 4.5705 2650 
1249 1 -0.0305986 -0.0348101 -0.0613671 0.000423 -9.21895 0.0269522 4.59641 2650 
479 1 -0.0314205 -0.0346995 -0.060956 0.000423 -9.14039 -0.0154436 4.71683 2650 
1722 1 -0.0313987 -0.0285688 -0.0613109 0.000116 -8.233 -0.202778 4.21348 2650 
2183 1 -0.0311852 -0.0281135 -0.061419 0.000116 -8.03979 -0.0250451 4.09571 2650 
1684 1 -0.0304674 -0.0231004 -0.0614378 0.000423 -8.54175 -0.603036 4.24527 2650 
1556 1 -0.0309789 -0.0210548 -0.0611819 0.000423 -8.49387 -0.539541 4.28623 2650 
1030 1 -0.0328232 -0.03277 -0.0602135 0.000423 -8.8909 -0.0325502 4.84276 2650 
2818 1 -0.033181 -0.0314933 -0.0603661 0.000116 -8.68199 0.085806 4.77723 2650 
2710 1 -0.0336061 -0.0226447 -0.0601296 0.000116 -8.41592 0.331498 4.69932 2650 
1917 1 -0.032999 -0.00486432 -0.0601173 0.000423 -7.89749 -0.00687168 4.3405 2650 
2270 1 -0.0345095 -0.00868477 -0.0596174 0.000116 -2.77565 -0.244633 1.59478 2650 
1609 1 -0.0342463 -0.00422455 -0.0597678 0.000116 -7.91261 0.0712879 4.53756 2650 
367 1 -0.0358752 -0.0381338 -0.0584461 0.000423 -8.69198 0.0622011 5.33272 2650 
2619 1 -0.0354898 -0.0269309 -0.0590386 0.000116 -8.46688 0.418625 5.08886 2650 
3486 1 -0.0361481 -0.0216451 -0.0586371 0.000116 -7.5866 0.0784851 4.68057 2650 
860 1 -0.0358203 -0.0190999 -0.0588378 0.000116 -8.48954 -0.572364 5.1683 2650 
1261 1 -0.0351773 -0.0196417 -0.0588686 0.000423 -8.92602 -0.709069 5.33456 2650 
203 1 -0.0363418 -0.00274943 -0.0585172 0.000116 -6.81491 -0.187222 4.24173 2650 
1597 1 -0.0355546 -0.00254175 -0.0589987 0.000116 -6.96255 -0.0427799 4.2119 2650 
1461 1 -0.0363156 -0.0390188 -0.0581735 0.000423 -8.78607 0.0641897 5.48444 2650 
4128 1 -0.0366646 -0.022234 -0.0583153 0.000116 -7.69199 0.632933 4.83593 2650 
2805 1 -0.0369856 -0.00696687 -0.0581131 0.000116 -6.93698 -0.366977 4.41879 2650 
2998 1 -0.0376424 -0.0412718 -0.057324 0.000423 -8.74528 -0.0705007 5.74282 2650 
844 1 -0.038402 -0.0344623 -0.0571873 0.000116 -7.35105 -0.660925 4.92761 2650 
1383 1 -0.0384638 -0.0291677 -0.0571456 0.000116 -7.78532 -0.0298521 5.23943 2650 
952 1 -0.0384742 -0.0282644 -0.0571387 0.000116 -8.15382 -0.0075668 5.48699 2650 
2376 1 -0.0382646 -0.0262123 -0.0572787 0.000116 -8.36517 -0.306747 5.58898 2650 
1020 1 -0.0379925 -0.0245475 -0.0570923 0.000423 -8.06093 0.0346458 5.3629 2650 
2970 1 -0.0387942 -0.0417147 -0.0562697 0.000656 -8.66197 0.00818349 5.9715 2650 
822 1 -0.0391208 -0.0400692 -0.0563253 0.000423 -8.639 -0.00782723 6.00053 2650 
4097 1 -0.038516 -0.0378774 -0.0567409 0.000423 -8.42098 -0.00155315 5.71479 2650 
2779 1 -0.0388131 -0.0370598 -0.0565379 0.000423 -8.41813 -0.0248268 5.79253 2650 
4011 1 -0.0393344 -0.0254705 -0.0565491 0.000116 -8.16615 0.268202 5.68219 2650 
4047 1 -0.039688 -0.00120899 -0.0563917 4.2e-05 -6.60218 -0.15666 4.64461 2650 
115 1 -0.0396125 -0.0489983 -0.0556975 0.000656 -8.64692 -0.121618 6.14974 2650 
1218 1 -0.0392523 -0.0445628 -0.0559515 0.000656 -8.67396 -0.0702515 6.085 2650 
1946 1 -0.0409047 -0.0367034 -0.0554238 0.000116 -7.96356 -0.0443248 5.87549 2650 
3094 1 -0.0401695 -0.0363949 -0.0555824 0.000423 -8.28875 -0.0184831 5.96273 2650 
4345 1 -0.0402984 -0.0310634 -0.0558669 0.000116 -8.0577 -0.432025 5.81505 2650 
3445 1 -0.0397824 -0.0255416 -0.0558601 0.000423 -7.98023 0.143575 5.6804 2650 
1878 1 -0.040418 -0.0509046 -0.0551158 0.000656 -8.54013 0.0360542 6.26261 2650 
2911 1 -0.0409933 -0.0409252 -0.0549774 0.000423 -8.52141 -0.0505274 6.35359 2650 
566 1 -0.0415751 -0.0236731 -0.0545391 0.000423 -7.90046 0.251314 6.01552 2650 
1082 1 -0.0423044 -0.0137745 -0.0543629 0.000116 -7.40125 0.0123935 5.75807 2650 
535 1 -0.0421781 -0.00145296 -0.054461 0.000116 -6.54376 -0.00920685 5.07176 2650 
397 1 -0.042412 -0.00101258 -0.0542789 0.000116 -6.52634 -0.127934 5.10099 2650 
3482 1 -0.043827 -0.0438635 -0.0531431 0.000116 -8.29203 -0.111475 6.83833 2650 
2622 1 -0.0432465 -0.0214943 -0.0536164 0.000116 -7.59634 -0.33162 6.12589 2650 
3804 1 -0.0434674 -0.0105545 -0.0534376 0.000116 -6.62434 -0.0110331 5.38575 2650 
4319 1 -0.0440713 -0.0416567 -0.0526143 0.000423 -8.25911 7.61259e-08 6.91807 2650 
2732 1 -0.0442048 -0.0251553 -0.0528292 0.000116 -7.40174 0.32959 6.19263 2650 
4341 1 -0.0442577 -0.0189395 -0.0527849 0.000116 -7.7371 -0.0156666 6.48765 2650 
1463 1 -0.04522 -0.0443618 -0.0515453 0.000423 -8.05774 0.146789 7.06915 2650 
2680 1 -0.0454555 -0.0351053 -0.0513151 0.000423 -7.78304 0.00088114 6.89272 2650 
2103 1 -0.0449289 -0.0339539 -0.0517838 0.000423 -7.78682 -0.0101804 6.74761 2650 
2832 1 -0.0457564 -0.0197172 -0.0514895 0.000116 -6.78473 0.486097 6.03424 2650 
3574 1 -0.0457281 -0.00934682 -0.0514802 0.000116 -6.34508 -0.0458752 5.629 2650 
2601 1 -0.0466308 -0.0388061 -0.0506955 0.000116 -7.63965 0.0167269 7.02436 2650 
1332 1 -0.0457576 -0.0365587 -0.0507492 0.000656 -7.63507 -0.130743 6.88398 2650 
3580 1 -0.0465137 -0.0336992 -0.0507797 0.000116 -7.54542 0.0568534 6.92182 2650 
2881 1 -0.0461595 -0.0328139 -0.0506858 0.000423 -7.65636 -0.0571744 6.97819 2650 
2148 1 -0.0464042 -0.0315833 -0.0508771 0.000116 -7.52654 0.293437 6.87387 2650 
3357 1 -0.0465484 -0.0259711 -0.050749 0.000116 -7.19791 0.0914543 6.61004 2650 
3585 1 -0.0463162 -0.0140651 -0.050957 0.000116 -6.39096 -0.654086 5.83605 2650 
1558 1 -0.045909 -0.0100105 -0.0509091 0.000423 -6.29521 0.055278 5.69813 2650 
2883 1 -0.0470586 -0.0533194 -0.0498805 0.000423 -7.87001 -0.146114 7.4216 2650 
2457 1 -0.0471023 -0.0433768 -0.0498414 0.000423 -7.89538 -0.0427226 7.46225 2650 
4074 1 -0.0464308 -0.0356945 -0.0504461 0.000423 -7.60289 -0.0586937 7.00679 2650 
1434 1 -0.0465576 -0.0346801 -0.0500221 0.000656 -7.43349 0.0342001 6.93513 2650 
1961 1 -0.0474264 -0.0337381 -0.0499533 0.000116 -7.39882 0.00341215 7.01265 2650 
3887 1 -0.047131 -0.0289466 -0.0497672 0.000423 -6.99752 -0.0345526 6.6623 2650 
1239 1 -0.0475937 -0.062331 -0.0493745 0.000423 -7.58855 0.0125836 7.31402 2650 
1433 1 -0.0474884 -0.0446114 -0.0491542 0.000656 -7.582 -0.0329588 7.32784 2650 
3759 1 -0.0478209 -0.0334947 -0.0491393 0.000423 -7.37683 -0.0544897 7.17459 2650 
3655 1 -0.0474641 -0.0325031 -0.0494864 0.000423 -7.46325 -0.0617838 7.15017 2650 
596 1 -0.0480069 -0.0292848 -0.0489707 0.000423 -6.9006 0.0575601 6.81871 2650 
1257 1 -0.0478986 -0.0281041 -0.0490741 0.000423 -6.89065 0.0286125 6.71112 2650 
319 1 -0.0480933 -0.024995 -0.0493077 0.000116 -7.12643 0.160644 6.94353 2650 
1912 1 -0.0479184 -0.00964767 -0.049052 0.000423 -6.10296 0.100199 5.93747 2650 
1214 1 -0.0483766 -0.0512194 -0.0482733 0.000656 -7.54512 0.0023663 7.56129 2650 
222 1 -0.0477315 -0.0361686 -0.0489028 0.000656 -7.34105 0.10922 7.16475 2650 
1659 1 -0.0482028 -0.031082 -0.0484401 0.000656 -7.24414 -0.0917509 7.21072 2650 
3074 1 -0.0485826 -0.0287038 -0.0489328 4.2e-05 -6.04517 0.328094 6.00191 2650 
54 1 -0.0487066 -0.026904 -0.048264 0.000423 -6.78599 0.0245402 6.86033 2650 
3332 1 -0.0481265 -0.0266243 -0.048839 0.000423 -6.86829 0.012172 6.76131 2650 
947 1 -0.0487786 -0.0251211 -0.0486311 0.000116 -7.05148 0.273571 7.08145 2650 
1385 1 -0.0485911 -0.00805214 -0.0488198 0.000116 -5.59905 0.198102 5.52304 2650 
4251 1 -0.0491036 -0.00659801 -0.0483038 0.000116 -4.96397 -0.16426 5.10444 2650 
1132 1 -0.0495606 -0.0552499 -0.047395 0.000423 -7.3882 0.0379906 7.72592 2650 
1550 1 -0.0491349 -0.0523228 -0.0475084 0.000656 -7.45087 0.0295233 7.70633 2650 
2102 1 -0.0491396 -0.0361634 -0.0475005 0.000656 -7.11973 0.106897 7.37429 2650 
1410 1 -0.0495684 -0.0317786 -0.047832 0.000116 -6.82173 0.0735195 7.06022 2650 
3079 1 -0.0495155 -0.0591533 -0.0471104 0.000656 -7.53294 -0.0992252 7.90833 2650 
3025 1 -0.0504014 -0.0168125 -0.0469529 0.000116 -6.26117 0.0596351 6.71892 2650 
3904 1 -0.050557 -0.0146639 -0.0467844 0.000116 -6.25192 -0.0475447 6.75535 2650 
1475 1 -0.0505744 -0.0430133 -0.0463159 0.000423 -7.12221 -0.0611816 7.77639 2650 
2252 1 -0.0505219 -0.0184861 -0.0463735 0.000423 -6.01946 -0.196688 6.54563 2650 
403 1 -0.0513701 -0.0144719 -0.0458922 0.000116 -5.33175 -0.25603 5.98559 2650 
786 1 -0.0517482 -0.0422131 -0.0450012 0.000423 -6.83745 -0.143158 7.86028 2650 
4325 1 -0.0513674 -0.0415347 -0.045436 0.000423 -6.99757 -0.0336639 7.91198 2650 
3536 1 -0.0516187 -0.0388172 -0.0451491 0.000423 -6.81446 0.163141 7.78104 2650 
321 1 -0.0519617 -0.0282835 -0.0453342 4.2e-05 -6.52156 -0.208187 7.48026 2650 
3229 1 -0.051274 -0.0258678 -0.0455406 0.000423 -6.69467 -0.0592235 7.53833 2650 
1987 1 -0.0514618 -0.0376236 -0.0449774 0.000656 -6.78562 0.037073 7.77184 2650 
1968 1 -0.05239 -0.0356877 -0.0447255 0.000116 -6.7257 0.180838 7.87597 2650 
3095 1 -0.0522046 -0.0347476 -0.0444718 0.000423 -6.69998 -0.0254906 7.86467 2650 
3802 1 -0.0528404 -0.0336671 -0.0441924 0.000116 -6.61094 0.0657781 7.90406 2650 
3955 1 -0.0527178 -0.0270167 -0.0434989 0.000656 -6.30885 -0.0689477 7.69604 2650 
1611 1 -0.0533264 -0.00914 -0.0436052 0.000116 -5.41553 0.105152 6.62177 2650 
432 1 -0.053303 -0.00185437 -0.0437485 4.2e-05 -5.81622 -0.0757831 7.0876 2650 
2232 1 -0.0533093 -0.0491732 -0.0431419 0.000423 -6.92632 0.00812414 8.55746 2650 
1436 1 -0.0528344 -0.0450787 -0.0433573 0.000656 -6.84078 0.0164105 8.33612 2650 
3779 1 -0.0533428 -0.0362237 -0.0430997 0.000423 -6.53072 0.0747537 8.08325 2650 
999 1 -0.052797 -0.033358 -0.0434038 0.000656 -6.54975 -0.0315464 7.97739 2650 
1304 1 -0.0539273 -0.027393 -0.0428597 0.000116 -6.39781 -0.145506 8.0548 2650 
524 1 -0.0539325 -0.018519 -0.0428516 0.000116 -5.85859 0.370451 7.37301 2650 
2231 1 -0.0536118 -0.0165561 -0.0427631 0.000423 -5.39184 -0.212004 6.74305 2650 
443 1 -0.0551313 -0.0454481 -0.040395 0.000656 -6.27485 -0.0212934 8.56497 2650 
3993 1 -0.0553053 -0.0284368 -0.040551 0.000423 -5.8033 0.138338 7.92114 2650 
710 1 -0.0550182 -0.0216389 -0.0409378 0.000423 -5.80495 -0.0572314 7.80363 2650 
2909 1 -0.0551436 -0.0197134 -0.0407693 0.000423 -5.39703 -0.334655 7.33375 2650 
520 1 -0.0556191 -0.0183861 -0.0406387 0.000116 -5.70482 0.0797051 7.81245 2650 
1283 1 -0.0558404 -0.00402724 -0.0403346 0.000116 -4.54828 0.379313 6.28239 2650 
951 1 -0.056439 -0.00588369 -0.0394926 0.000116 -4.29385 -0.119382 6.13302 2650 
1746 1 -0.0564759 -0.0294833 -0.0394392 0.000116 -5.78116 -0.608152 8.26793 2650 
3410 1 -0.056212 -0.0233923 -0.0388792 0.000656 -5.65715 -0.0776991 8.18984 2650 
3422 1 -0.0562715 -0.021452 -0.0391986 0.000423 -5.64519 0.0860361 8.09887 2650 
3382 1 -0.0565706 -0.0194539 -0.0393034 0.000116 -5.20717 -0.352132 7.49025 2650 
2343 1 -0.056787 -0.0465756 -0.0384482 0.000423 -6.12675 0.0837819 9.04837 2650 
1448 1 -0.0570014 -0.0398803 -0.0381285 0.000423 -5.93067 0.148075 8.8665 2650 
2274 1 -0.0573389 -0.0276646 -0.0381742 0.000116 -5.13259 -0.059132 7.71175 2650 
2905 1 -0.0570134 -0.0234095 -0.0381108 0.000423 -5.54767 -0.0695929 8.31567 2650 
1393 1 -0.0575734 -0.0479451 -0.0378192 0.000116 -5.55005 0.0722984 8.45059 2650 
2865 1 -0.0570912 -0.0436486 -0.0375755 0.000656 -5.87599 0.0233324 8.92775 2650 
3393 1 -0.0579427 -0.0223048 -0.0373873 4.2e-05 -4.91766 0.0301304 7.62752 2650 
2539 1 -0.0576592 -0.0416842 -0.0366985 0.000656 -5.62011 -0.0319535 8.83183 2650 
1297 1 -0.0581498 -0.0249512 -0.0369267 0.000116 -5.61221 -0.925168 8.8366 2650 
4183 1 -0.0578618 -0.00248656 -0.0368101 0.000423 -4.57755 0.0168537 7.18528 2650 
3724 1 -0.0586365 -0.0414463 -0.0362892 4.2e-05 -5.57974 -0.104133 9.01614 2650 
1290 1 -0.0589679 -0.0255928 -0.035605 0.000116 -5.12284 0.165492 8.49004 2650 
631 1 -0.0593979 -0.00223954 -0.0348837 0.000116 -4.21568 -0.169499 7.17743 2650 
1765 1 -0.0592103 -0.0262589 -0.0341389 0.000656 -4.95472 -0.00750848 8.61863 2650 
4108 1 -0.0599513 -0.0228335 -0.0332894 0.000423 -4.71604 -0.000117634 8.4983 2650 
252 1 -0.0597915 -0.0220526 -0.0335756 0.000423 -4.77483 -0.0107009 8.49812 2650 
3182 1 -0.0602174 -4.20006e-05 -0.0336 4.2e-05 -4.15357 0.000386773 7.45112 2650 
2738 1 -0.0608668 -0.0295697 -0.0323644 4.2e-05 -4.83034 1.14405 9.09212 2650 
3959 1 -0.0608225 -0.0332623 -0.0316499 0.000423 -4.60132 0.0254743 8.86936 2650 
3572 1 -0.0610921 -0.0212713 -0.0318238 0.000116 -4.5381 0.237258 8.71295 2650 
2962 1 -0.0614854 -0.0189591 -0.031218 4.2e-05 -4.20169 -0.33888 8.29595 2650 
2186 1 -0.0615258 -0.0091841 -0.0309715 0.000116 -3.89865 0.138679 7.68532 2650 
1002 1 -0.0615803 -0.040615 -0.0296485 0.000656 -4.51888 -0.0482792 9.31833 2650 
950 1 -0.0620225 -0.000167062 -0.0299702 0.000116 -3.45135 -0.0413525 7.17371 2650 
3902 1 -0.0624622 -0.0329996 -0.0290261 0.000116 -4.26969 -0.0139498 9.2073 2650 
2302 1 -0.0627253 -0.00501146 -0.0286483 4.2e-05 -3.45867 0.0335082 7.52027 2650 
3034 1 -0.0630052 -0.0315892 -0.0278358 0.000116 -4.47221 0.0121448 10.1171 2650 
3440 1 -0.0630513 -0.0524325 -0.0269743 0.000423 -4.13184 0.0975019 9.65801 2650 
618 1 -0.0636242 -0.0478062 -0.0264015 0.000116 -3.9254 0.0589723 9.45576 2650 
3024 1 -0.0637123 -0.026652 -0.0261865 0.000116 -3.67251 0.0647173 8.92788 2650 
2964 1 -0.0635657 -0.0245443 -0.0267314 4.2e-05 -3.83183 0.641865 9.10862 2650 
2023 1 -0.0634624 -0.0468424 -0.0259911 0.000423 -3.90065 -0.0158886 9.52462 2650 
457 1 -0.0635873 -0.0414097 -0.0256839 0.000423 -3.93019 -0.00692874 9.73329 2650 
2278 1 -0.0639939 -0.0270271 -0.0254874 0.000116 -3.64049 0.377232 9.15045 2650 