LIGGGHTS (Version LIGGGHTS-PUBLIC 3.8.0, compiled 2022-11-07-16:55:38 by serperd1, git commit 86544c3f1215bc9744d7929e3eacf53ba086af9e)
units si #
dimension 3 #
newton off #
boundary f f f #
atom_style sphere #
pair_style gran model hertz tangential history #
communicate single vel yes #
region outer_basket cylinder y 0 0 0.15 -0.15 0.15 #
create_box 3 outer_basket #
Created orthogonal box = (-0.15 -0.15 -0.15) to (0.15 0.15 0.15)
  2 by 4 by 5 MPI processor grid
variable my_omega equal 157.0796 #
fix cone_mesh all mesh/surface file cone.stl type 3 scale 1 #
fix rotating_wall_1 all move/mesh mesh cone_mesh rotate/variable origin 0 0 0 axis 0 1 0 omega v_my_omega #
fix filter_mesh_walls all mesh/surface file dem_walls_30X_14micronpore_mod_mesh.stl type 2 scale 1e-3 curvature 1e-5 #
fix rotating_wall_2 all move/mesh mesh filter_mesh_walls rotate/variable origin 0 0 0 axis 0 1 0 omega v_my_omega #
fix inlet_cyl_wall_mesh all mesh/surface file in_cyl.stl type 3 scale 1 #
fix top_cyl_wall_mesh all mesh/surface file top_cyl.stl type 3 scale 1 #
fix rotating_wall_4 all move/mesh mesh top_cyl_wall_mesh rotate/variable origin 0 0 0 axis 0 1 0 omega v_my_omega #
fix bot_cyl_wall_mesh all mesh/surface file bot_cyl.stl type 3 scale 1 #
fix rotating_wall_5 all move/mesh mesh bot_cyl_wall_mesh rotate/variable origin 0 0 0 axis 0 1 0 omega v_my_omega #
fix bot_disk_wall_mesh all mesh/surface file bottom_disk.stl type 3 scale 1 #
fix rotating_wall_6 all move/mesh mesh bot_disk_wall_mesh rotate/variable origin 0 0 0 axis 0 1 0 omega v_my_omega #
fix top_disk_wall_mesh all mesh/surface file top_disk.stl type 3 scale 1 #
fix rotating_wall_7 all move/mesh mesh top_disk_wall_mesh rotate/variable origin 0 0 0 axis 0 1 0 omega v_my_omega #
fix GMSH_mesh_walls all wall/gran model hertz tangential history mesh n_meshes 7 meshes cone_mesh filter_mesh_walls top_cyl_wall_mesh bot_cyl_wall_mesh bot_disk_wall_mesh inlet_cyl_wall_mesh top_disk_wall_mesh #
fix Young_mod all property/global youngsModulus peratomtype 375000000 46000000 1000000000 #
fix Poisson_rat all property/global poissonsRatio peratomtype 0.32 0.42 0.29 #
fix Coeff_rest all property/global coefficientRestitution peratomtypepair 3 0.15 0.32 0.475 0.32 0.49 0.645 0.475 0.645 0.8 #
fix Coeff_fric all property/global coefficientFriction peratomtypepair 3 0.04 0.145 0.12 0.145 0.25 0.225 0.12 0.225 0.2 #

neighbor 0.00026244 bin #
neigh_modify delay 0 one 100000 page 5000000 #
fix r_0to10p all particletemplate/sphere 12345787 atom_type 1 density constant 2650 radius constant 4.2e-05 #
fix r_10to50p all particletemplate/sphere 15485863 atom_type 1 density constant 2650 radius constant 0.0001164 #
fix r_50to90p all particletemplate/sphere 15485867 atom_type 1 density constant 2650 radius constant 0.0004233 #
fix r_90to100p all particletemplate/sphere 32452843 atom_type 1 density constant 2650 radius constant 0.0006561 #
fix prob_par all particledistribution/discrete 32452867 4 r_0to10p 0.1 r_10to50p 0.4 r_50to90p 0.4 r_90to100p 0.1 #
pair_coeff * * #
timestep 3.2394e-08 #

fix nve_group all nve/sphere #
fix grav_fix all gravity 6.1081 vector 0.017 -0.0033 0 -1 0 #
fix cent_fix all centrifugal 157.0796 0.017 -0.0033 0.069 #

variable step equal step #
variable mycount equal count(all) #
fix print_amount_of_atoms all print 25 "${step} ${mycount}" file numatoms.txt screen no #
run 0 #
Setting up run at Wed Nov 23 14:41:06 2022

Memory usage per processor = 1084.23 Mbytes
    Step    Atoms         KinEng            CPU 
       0        0              0              0 
Loop time of 6.14717e-05 on 40 procs for 0 steps with 0 atoms, finish time Wed Nov 23 14:41:09 2022


Pair  time (%) = 0 (0)
Neigh time (%) = 0 (0)
Comm  time (%) = 0 (0)
Outpt time (%) = 0 (0)
Other time (%) = 6.14717e-05 (100)

Nlocal:    0 ave 0 max 0 min
Histogram: 40 0 0 0 0 0 0 0 0 0
Nghost:    0 ave 0 max 0 min
Histogram: 40 0 0 0 0 0 0 0 0 0
Neighs:    0 ave 0 max 0 min
Histogram: 40 0 0 0 0 0 0 0 0 0

Total # of neighbors = 0
Neighbor list builds = 0
Dangerous builds = 0
run 1 #
Setting up run at Wed Nov 23 14:41:09 2022

Memory usage per processor = 1084.23 Mbytes
    Step    Atoms         KinEng            CPU 
       0        0              0              0 
       1        0              0    0.016399428 
Loop time of 0.0164108 on 40 procs for 1 steps with 0 atoms, finish time Wed Nov 23 14:41:09 2022


Pair  time (%) = 3.01358e-06 (0.0183634)
Neigh time (%) = 0 (0)
Comm  time (%) = 0.000186732 (1.13786)
Outpt time (%) = 0.000392796 (2.39352)
Other time (%) = 0.0158283 (96.4503)

Nlocal:    0 ave 0 max 0 min
Histogram: 40 0 0 0 0 0 0 0 0 0
Nghost:    0 ave 0 max 0 min
Histogram: 40 0 0 0 0 0 0 0 0 0
Neighs:    0 ave 0 max 0 min
Histogram: 40 0 0 0 0 0 0 0 0 0

Total # of neighbors = 0
Neighbor list builds = 0
Dangerous builds = 0
read_dump dump.atom_info_1 1 x y z radius vx vy vz box no add yes replace no #
  orthogonal box = (-0.15 -0.15 -0.15) to (0.15 0.15 0.15)
  0 atoms before read
  4382 atoms in snapshot
  0 atoms purged
  0 atoms replaced
  0 atoms trimmed
  4382 atoms added
  4382 atoms after read
set atom * type 1 density 2650 vy -0.011753 #
  4382 settings made for type
  4382 settings made for density
  4382 settings made for vy
write_dump all mesh/stl filter_mesh_scaled*.stl filter_mesh_walls #
run 1 #
Setting up run at Wed Nov 23 14:41:10 2022

Memory usage per processor = 1088.62 Mbytes
    Step    Atoms         KinEng            CPU 
       1     4382  2.0416084e-07              0 
       2     4382   2.527916e-06    0.015957902 
Loop time of 0.0159703 on 40 procs for 1 steps with 4382 atoms, finish time Wed Nov 23 14:41:10 2022


Pair  time (%) = 5.0305e-06 (0.0314991)
Neigh time (%) = 0 (0)
Comm  time (%) = 8.6876e-06 (0.0543984)
Outpt time (%) = 0.00040582 (2.54109)
Other time (%) = 0.0155508 (97.373)

Nlocal:    109.55 ave 1816 max 0 min
Histogram: 36 0 2 0 0 0 0 0 0 2
Nghost:    27.3 ave 345 max 0 min
Histogram: 36 0 0 0 0 1 1 0 0 2
Neighs:    35.525 ave 600 max 0 min
Histogram: 36 0 2 0 0 0 0 0 0 2

Total # of neighbors = 1421
Ave neighs/atom = 0.324281
Neighbor list builds = 0
Dangerous builds = 0
write_dump all custom dump.atom_info_ac_* id type x y z radius vx vy vz density #
run 308697
Setting up run at Wed Nov 23 14:41:10 2022

Memory usage per processor = 1088.62 Mbytes
    Step    Atoms         KinEng            CPU 
       2     4382   2.527916e-06              0 
  308699     4382  0.00030941701      5705.4226 
Loop time of 5705.42 on 40 procs for 308697 steps with 4382 atoms, finish time Wed Nov 23 16:16:15 2022


Pair  time (%) = 1.65041 (0.028927)
Neigh time (%) = 3.25678 (0.0570822)
Comm  time (%) = 6.43231 (0.11274)
Outpt time (%) = 0.000760262 (1.33253e-05)
Other time (%) = 5694.08 (99.8012)

Nlocal:    109.55 ave 1775 max 0 min
Histogram: 36 0 2 0 0 0 0 0 0 2
Nghost:    28.1 ave 351 max 0 min
Histogram: 36 0 0 0 0 1 1 0 0 2
Neighs:    39.4 ave 669 max 0 min
Histogram: 36 0 2 0 0 0 0 0 0 2

Total # of neighbors = 1576
Ave neighs/atom = 0.359653
Neighbor list builds = 1306
Dangerous builds = 0
write_dump all custom dump.atom_info_ac_* id type x y z radius vx vy vz density #
run 308697
Setting up run at Wed Nov 23 16:16:16 2022

Memory usage per processor = 1088.62 Mbytes
    Step    Atoms         KinEng            CPU 
  308699     4382  0.00030941701              0 
  617396     4382  0.00041101485      5653.2786 
Loop time of 5653.29 on 40 procs for 308697 steps with 4382 atoms, finish time Wed Nov 23 17:50:29 2022


Pair  time (%) = 1.67515 (0.0296315)
Neigh time (%) = 2.08914 (0.0369545)
Comm  time (%) = 6.61532 (0.117017)
Outpt time (%) = 0.0204969 (0.000362566)
Other time (%) = 5642.89 (99.816)

Nlocal:    109.55 ave 1745 max 0 min
Histogram: 36 0 2 0 0 0 0 0 0 2
Nghost:    26.775 ave 334 max 0 min
Histogram: 36 0 0 0 0 1 1 0 0 2
Neighs:    40.925 ave 697 max 0 min
Histogram: 36 0 2 0 0 0 0 0 0 2

Total # of neighbors = 1637
Ave neighs/atom = 0.373574
Neighbor list builds = 851
Dangerous builds = 0
write_dump all custom dump.atom_info_ac_* id type x y z radius vx vy vz density #
run 308697
Setting up run at Wed Nov 23 17:50:29 2022

Memory usage per processor = 1088.62 Mbytes
    Step    Atoms         KinEng            CPU 
  617396     4382  0.00041101485              0 
  926093     4380  0.00093703154       5668.843 
Loop time of 5668.86 on 40 procs for 308697 steps with 4380 atoms, finish time Wed Nov 23 19:24:58 2022


Pair  time (%) = 1.63111 (0.0287732)
Neigh time (%) = 2.21712 (0.0391105)
Comm  time (%) = 6.77653 (0.11954)
Outpt time (%) = 0.0155571 (0.000274431)
Other time (%) = 5658.22 (99.8123)

Nlocal:    109.5 ave 1722 max 0 min
Histogram: 36 0 2 0 0 0 0 0 0 2
Nghost:    24.65 ave 301 max 0 min
Histogram: 36 0 0 0 0 0 2 0 0 2
Neighs:    41.825 ave 692 max 0 min
Histogram: 36 1 1 0 0 0 0 0 0 2

Total # of neighbors = 1673
Ave neighs/atom = 0.381963
Neighbor list builds = 891
Dangerous builds = 0
write_dump all custom dump.atom_info_ac_* id type x y z radius vx vy vz density #
run 308697
Setting up run at Wed Nov 23 19:24:58 2022

Memory usage per processor = 1088.62 Mbytes
    Step    Atoms         KinEng            CPU 
  926093     4380  0.00093703154              0 
 1234790     4378   0.0012757294      5611.7876 
Loop time of 5611.79 on 40 procs for 308697 steps with 4378 atoms, finish time Wed Nov 23 20:58:30 2022


Pair  time (%) = 1.58915 (0.0283181)
Neigh time (%) = 2.15171 (0.0383427)
Comm  time (%) = 6.7217 (0.119778)
Outpt time (%) = 0.00106653 (1.90051e-05)
Other time (%) = 5601.32 (99.8135)

Nlocal:    109.45 ave 1691 max 0 min
Histogram: 36 0 2 0 0 0 0 0 0 2
Nghost:    23.2 ave 283 max 0 min
Histogram: 36 0 0 0 0 0 2 0 0 2
Neighs:    38.075 ave 635 max 0 min
Histogram: 36 1 1 0 0 0 0 0 0 2

Total # of neighbors = 1523
Ave neighs/atom = 0.347876
Neighbor list builds = 861
Dangerous builds = 0
write_dump all custom dump.atom_info_ac_* id type x y z radius vx vy vz density #
run 308697
Setting up run at Wed Nov 23 20:58:30 2022

Memory usage per processor = 1088.62 Mbytes
    Step    Atoms         KinEng            CPU 
 1234790     4378   0.0012757294              0 
 1543487     4376   0.0016233787      5656.4951 
Loop time of 5656.57 on 40 procs for 308697 steps with 4376 atoms, finish time Wed Nov 23 22:32:47 2022


Pair  time (%) = 1.56492 (0.0276656)
Neigh time (%) = 2.05396 (0.036311)
Comm  time (%) = 8.12825 (0.143696)
Outpt time (%) = 0.00121109 (2.14102e-05)
Other time (%) = 5644.82 (99.7923)

Nlocal:    109.4 ave 1679 max 0 min
Histogram: 36 0 2 0 0 0 0 0 0 2
Nghost:    22.275 ave 284 max 0 min
Histogram: 36 0 0 0 0 1 1 0 1 1
Neighs:    37.675 ave 617 max 0 min
Histogram: 36 1 1 0 0 0 0 0 0 2

Total # of neighbors = 1507
Ave neighs/atom = 0.344378
Neighbor list builds = 825
Dangerous builds = 0
write_dump all custom dump.atom_info_ac_* id type x y z radius vx vy vz density #
run 308697
Setting up run at Wed Nov 23 22:32:47 2022

Memory usage per processor = 1088.62 Mbytes
    Step    Atoms         KinEng            CPU 
 1543487     4376   0.0016233787              0 
 1852184     4376   0.0018533942      5708.8821 
Loop time of 5708.88 on 40 procs for 308697 steps with 4376 atoms, finish time Thu Nov 24 00:07:56 2022


Pair  time (%) = 1.56309 (0.02738)
Neigh time (%) = 2.05897 (0.0360661)
Comm  time (%) = 9.36923 (0.164117)
Outpt time (%) = 0.00142982 (2.50456e-05)
Other time (%) = 5695.89 (99.7724)

Nlocal:    109.4 ave 1654 max 0 min
Histogram: 36 0 2 0 0 0 0 0 0 2
Nghost:    22.675 ave 300 max 0 min
Histogram: 36 0 0 0 0 2 0 0 1 1
Neighs:    38.625 ave 626 max 0 min
Histogram: 36 1 1 0 0 0 0 0 0 2

Total # of neighbors = 1545
Ave neighs/atom = 0.353062
Neighbor list builds = 825
Dangerous builds = 0
write_dump all custom dump.atom_info_ac_* id type x y z radius vx vy vz density #
run 308697
Setting up run at Thu Nov 24 00:07:56 2022

Memory usage per processor = 1088.62 Mbytes
    Step    Atoms         KinEng            CPU 
 1852184     4376   0.0018533942              0 
 2160881     4373   0.0023228269      5736.5149 
Loop time of 5736.52 on 40 procs for 308697 steps with 4373 atoms, finish time Thu Nov 24 01:43:33 2022


Pair  time (%) = 1.55715 (0.0271445)
Neigh time (%) = 2.0653 (0.0360027)
Comm  time (%) = 11.3166 (0.197273)
Outpt time (%) = 0.00140981 (2.45762e-05)
Other time (%) = 5721.57 (99.7396)

Nlocal:    109.325 ave 1634 max 0 min
Histogram: 36 0 2 0 0 0 0 0 0 2
Nghost:    22.2 ave 283 max 0 min
Histogram: 36 0 0 0 0 2 0 0 0 2
Neighs:    38.1 ave 619 max 0 min
Histogram: 36 1 1 0 0 0 0 0 0 2

Total # of neighbors = 1524
Ave neighs/atom = 0.348502
Neighbor list builds = 825
Dangerous builds = 0
write_dump all custom dump.atom_info_ac_* id type x y z radius vx vy vz density #
run 308697
Setting up run at Thu Nov 24 01:43:33 2022

Memory usage per processor = 1088.62 Mbytes
    Step    Atoms         KinEng            CPU 
 2160881     4373   0.0023228269              0 
 2469578     4372   0.0033063993      5722.9418 
Loop time of 5722.94 on 40 procs for 308697 steps with 4372 atoms, finish time Thu Nov 24 03:18:56 2022


Pair  time (%) = 1.51524 (0.0264766)
Neigh time (%) = 2.06544 (0.0360905)
Comm  time (%) = 11.5186 (0.20127)
Outpt time (%) = 0.00155351 (2.71453e-05)
Other time (%) = 5707.84 (99.7361)

Nlocal:    109.3 ave 1621 max 0 min
Histogram: 36 0 2 0 0 0 0 0 0 2
Nghost:    22.325 ave 280 max 0 min
Histogram: 36 0 0 0 0 1 1 0 0 2
Neighs:    36.7 ave 597 max 0 min
Histogram: 36 1 1 0 0 0 0 0 0 2

Total # of neighbors = 1468
Ave neighs/atom = 0.335773
Neighbor list builds = 825
Dangerous builds = 0
write_dump all custom dump.atom_info_ac_* id type x y z radius vx vy vz density #
run 308697
Setting up run at Thu Nov 24 03:18:56 2022

Memory usage per processor = 1088.62 Mbytes
    Step    Atoms         KinEng            CPU 
 2469578     4372   0.0033063993              0 
 2778275     4372   0.0031108041      5756.8948 
Loop time of 5756.91 on 40 procs for 308697 steps with 4372 atoms, finish time Thu Nov 24 04:54:53 2022


Pair  time (%) = 1.51695 (0.0263501)
Neigh time (%) = 2.07925 (0.0361174)
Comm  time (%) = 11.1225 (0.193203)
Outpt time (%) = 0.000748806 (1.30071e-05)
Other time (%) = 5742.19 (99.7443)

Nlocal:    109.3 ave 1595 max 0 min
Histogram: 36 0 2 0 0 0 0 0 0 2
Nghost:    21.15 ave 267 max 0 min
Histogram: 36 0 0 0 0 2 0 0 0 2
Neighs:    36.825 ave 584 max 0 min
Histogram: 36 0 1 1 0 0 0 0 0 2

Total # of neighbors = 1473
Ave neighs/atom = 0.336917
Neighbor list builds = 825
Dangerous builds = 0
write_dump all custom dump.atom_info_ac_* id type x y z radius vx vy vz density #
run 308697
Setting up run at Thu Nov 24 04:54:53 2022

Memory usage per processor = 1088.62 Mbytes
    Step    Atoms         KinEng            CPU 
 2778275     4372   0.0031108041              0 
 3086972     4370   0.0032042705      5786.3943 
Loop time of 5786.4 on 40 procs for 308697 steps with 4370 atoms, finish time Thu Nov 24 06:31:20 2022


Pair  time (%) = 1.50315 (0.0259774)
Neigh time (%) = 2.08023 (0.0359504)
Comm  time (%) = 10.2267 (0.176738)
Outpt time (%) = 0.00171713 (2.96752e-05)
Other time (%) = 5772.59 (99.7613)

Nlocal:    109.25 ave 1584 max 0 min
Histogram: 36 0 2 0 0 0 0 0 0 2
Nghost:    20.275 ave 258 max 0 min
Histogram: 36 0 0 0 0 1 1 0 0 2
Neighs:    37.325 ave 578 max 0 min
Histogram: 36 0 1 1 0 0 0 0 0 2

Total # of neighbors = 1493
Ave neighs/atom = 0.341648
Neighbor list builds = 825
Dangerous builds = 0
write_dump all custom dump.atom_info_ac_* id type x y z radius vx vy vz density #
run 308697
Setting up run at Thu Nov 24 06:31:20 2022

Memory usage per processor = 1088.62 Mbytes
    Step    Atoms         KinEng            CPU 
 3086972     4370   0.0032042705              0 
 3395669     4369   0.0036848557      5781.2587 
Loop time of 5781.34 on 40 procs for 308697 steps with 4369 atoms, finish time Thu Nov 24 08:07:41 2022


Pair  time (%) = 1.51036 (0.0261248)
Neigh time (%) = 2.07448 (0.0358824)
Comm  time (%) = 11.5012 (0.198937)
Outpt time (%) = 0.00176523 (3.05333e-05)
Other time (%) = 5766.25 (99.739)

Nlocal:    109.225 ave 1576 max 0 min
Histogram: 36 0 2 0 0 0 0 0 0 2
Nghost:    20 ave 252 max 0 min
Histogram: 36 0 0 0 0 1 1 0 0 2
Neighs:    36.5 ave 584 max 0 min
Histogram: 36 0 2 0 0 0 0 0 0 2

Total # of neighbors = 1460
Ave neighs/atom = 0.334173
Neighbor list builds = 825
Dangerous builds = 0
write_dump all custom dump.atom_info_ac_* id type x y z radius vx vy vz density #
run 308697
Setting up run at Thu Nov 24 08:07:42 2022

Memory usage per processor = 1088.62 Mbytes
    Step    Atoms         KinEng            CPU 
 3395669     4369   0.0036848557              0 
 3704366     4365   0.0040673932      5810.8995 
Loop time of 5810.9 on 40 procs for 308697 steps with 4365 atoms, finish time Thu Nov 24 09:44:33 2022


Pair  time (%) = 1.5046 (0.0258926)
Neigh time (%) = 2.15698 (0.0371195)
Comm  time (%) = 12.9499 (0.222856)
Outpt time (%) = 0.00184036 (3.16708e-05)
Other time (%) = 5794.29 (99.7141)

Nlocal:    109.125 ave 1578 max 0 min
Histogram: 36 0 2 0 0 0 0 0 0 2
Nghost:    20.35 ave 245 max 0 min
Histogram: 36 0 0 0 0 1 1 0 0 2
Neighs:    35.75 ave 593 max 0 min
Histogram: 36 0 2 0 0 0 0 0 0 2

Total # of neighbors = 1430
Ave neighs/atom = 0.327606
Neighbor list builds = 854
Dangerous builds = 0
write_dump all custom dump.atom_info_ac_* id type x y z radius vx vy vz density #
run 308697
Setting up run at Thu Nov 24 09:44:33 2022

Memory usage per processor = 1088.62 Mbytes
    Step    Atoms         KinEng            CPU 
 3704366     4365   0.0040673932              0 
 4013063     4364     0.00466889      5822.5854 
Loop time of 5822.59 on 40 procs for 308697 steps with 4364 atoms, finish time Thu Nov 24 11:21:35 2022


Pair  time (%) = 1.51002 (0.0259339)
Neigh time (%) = 2.07457 (0.0356297)
Comm  time (%) = 12.7767 (0.219433)
Outpt time (%) = 0.00171938 (2.95296e-05)
Other time (%) = 5806.22 (99.719)

Nlocal:    109.1 ave 1565 max 0 min
Histogram: 36 0 2 0 0 0 0 0 0 2
Nghost:    19.725 ave 250 max 0 min
Histogram: 36 0 0 0 0 1 1 0 1 1
Neighs:    35.8 ave 580 max 0 min
Histogram: 36 0 2 0 0 0 0 0 0 2

Total # of neighbors = 1432
Ave neighs/atom = 0.328139
Neighbor list builds = 825
Dangerous builds = 0
write_dump all custom dump.atom_info_ac_* id type x y z radius vx vy vz density #
run 308697
Setting up run at Thu Nov 24 11:21:35 2022

Memory usage per processor = 1088.62 Mbytes
    Step    Atoms         KinEng            CPU 
 4013063     4364     0.00466889              0 
 4321760     4362   0.0051146984      5846.9561 
Loop time of 5846.96 on 40 procs for 308697 steps with 4362 atoms, finish time Thu Nov 24 12:59:03 2022


Pair  time (%) = 1.49503 (0.0255694)
Neigh time (%) = 2.07817 (0.0355427)
Comm  time (%) = 11.9477 (0.204341)
Outpt time (%) = 0.00188862 (3.23009e-05)
Other time (%) = 5831.43 (99.7345)

Nlocal:    109.05 ave 1564 max 0 min
Histogram: 36 0 2 0 0 0 0 0 0 2
Nghost:    19.1 ave 233 max 0 min
Histogram: 36 0 0 0 0 0 2 0 0 2
Neighs:    35.85 ave 586 max 0 min
Histogram: 36 0 2 0 0 0 0 0 0 2

Total # of neighbors = 1434
Ave neighs/atom = 0.328748
Neighbor list builds = 825
Dangerous builds = 0
write_dump all custom dump.atom_info_ac_* id type x y z radius vx vy vz density #
run 308697
Setting up run at Thu Nov 24 12:59:03 2022

Memory usage per processor = 1088.62 Mbytes
    Step    Atoms         KinEng            CPU 
 4321760     4362   0.0051146984              0 
 4630457     4362   0.0054670741      5874.2199 
Loop time of 5874.23 on 40 procs for 308697 steps with 4362 atoms, finish time Thu Nov 24 14:36:57 2022


Pair  time (%) = 1.46948 (0.0250157)
Neigh time (%) = 2.08786 (0.0355427)
Comm  time (%) = 12.4371 (0.211723)
Outpt time (%) = 0.00202833 (3.45293e-05)
Other time (%) = 5858.23 (99.7277)

Nlocal:    109.05 ave 1573 max 0 min
Histogram: 36 0 2 0 0 0 0 0 0 2
Nghost:    19.425 ave 219 max 0 min
Histogram: 36 0 0 0 0 0 1 1 0 2
Neighs:    34.175 ave 563 max 0 min
Histogram: 36 1 1 0 0 0 0 0 0 2

Total # of neighbors = 1367
Ave neighs/atom = 0.313388
Neighbor list builds = 825
Dangerous builds = 0
write_dump all custom dump.atom_info_ac_* id type x y z radius vx vy vz density #
run 308697
Setting up run at Thu Nov 24 14:36:57 2022

Memory usage per processor = 1088.62 Mbytes
    Step    Atoms         KinEng            CPU 
 4630457     4362   0.0054670741              0 
 4939154     4360   0.0057821467      5912.7155 
Loop time of 5912.72 on 40 procs for 308697 steps with 4360 atoms, finish time Thu Nov 24 16:15:30 2022


Pair  time (%) = 1.45347 (0.024582)
Neigh time (%) = 2.18899 (0.0370217)
Comm  time (%) = 13.4473 (0.227431)
Outpt time (%) = 0.00188932 (3.19535e-05)
Other time (%) = 5895.62 (99.7109)

Nlocal:    109 ave 1578 max 0 min
Histogram: 36 0 2 0 0 0 0 0 0 2
Nghost:    19.4 ave 217 max 0 min
Histogram: 36 0 0 0 0 0 1 1 0 2
Neighs:    34.4 ave 563 max 0 min
Histogram: 36 2 0 0 0 0 0 0 0 2

Total # of neighbors = 1376
Ave neighs/atom = 0.315596
Neighbor list builds = 865
Dangerous builds = 0
write_dump all custom dump.atom_info_ac_* id type x y z radius vx vy vz density #
run 308697
Setting up run at Thu Nov 24 16:15:30 2022

Memory usage per processor = 1088.62 Mbytes
    Step    Atoms         KinEng            CPU 
 4939154     4360   0.0057821467              0 
 5247851     4359   0.0063553848      5902.6577 
Loop time of 5902.69 on 40 procs for 308697 steps with 4359 atoms, finish time Thu Nov 24 17:53:53 2022


Pair  time (%) = 1.46603 (0.0248366)
Neigh time (%) = 2.30027 (0.0389698)
Comm  time (%) = 14.3294 (0.24276)
Outpt time (%) = 0.00192003 (3.25281e-05)
Other time (%) = 5884.59 (99.6934)

Nlocal:    108.975 ave 1569 max 0 min
Histogram: 36 0 2 0 0 0 0 0 0 2
Nghost:    18.75 ave 215 max 0 min
Histogram: 36 0 0 0 0 0 2 0 0 2
Neighs:    35.05 ave 600 max 0 min
Histogram: 36 2 0 0 0 0 0 0 0 2

Total # of neighbors = 1402
Ave neighs/atom = 0.321633
Neighbor list builds = 904
Dangerous builds = 0
write_dump all custom dump.atom_info_ac_* id type x y z radius vx vy vz density #
run 308697
Setting up run at Thu Nov 24 17:53:53 2022

Memory usage per processor = 1088.62 Mbytes
    Step    Atoms         KinEng            CPU 
 5247851     4359   0.0063553848              0 
 5556548     4357   0.0069313203      5870.1075 
Loop time of 5870.11 on 40 procs for 308697 steps with 4357 atoms, finish time Thu Nov 24 19:31:43 2022


Pair  time (%) = 1.47412 (0.0251124)
Neigh time (%) = 2.12973 (0.036281)
Comm  time (%) = 14.8773 (0.253442)
Outpt time (%) = 0.00212774 (3.6247e-05)
Other time (%) = 5851.62 (99.6851)

Nlocal:    108.925 ave 1566 max 0 min
Histogram: 35 2 1 0 0 0 0 0 0 2
Nghost:    18.325 ave 214 max 0 min
Histogram: 36 0 0 0 0 0 1 1 1 1
Neighs:    35.825 ave 612 max 0 min
Histogram: 36 2 0 0 0 0 0 0 0 2

Total # of neighbors = 1433
Ave neighs/atom = 0.328896
Neighbor list builds = 839
Dangerous builds = 0
write_dump all custom dump.atom_info_ac_* id type x y z radius vx vy vz density #
run 308697
Setting up run at Thu Nov 24 19:31:44 2022

Memory usage per processor = 1088.62 Mbytes
    Step    Atoms         KinEng            CPU 
 5556548     4357   0.0069313203              0 
 5865245     4353   0.0074398731      6022.0725 
Loop time of 6022.07 on 40 procs for 308697 steps with 4353 atoms, finish time Thu Nov 24 21:12:06 2022


Pair  time (%) = 1.47478 (0.0244896)
Neigh time (%) = 2.0956 (0.0347987)
Comm  time (%) = 13.5942 (0.22574)
Outpt time (%) = 0.00204673 (3.39872e-05)
Other time (%) = 6004.91 (99.7149)

Nlocal:    108.825 ave 1553 max 0 min
Histogram: 35 1 2 0 0 0 0 0 0 2
Nghost:    17.95 ave 199 max 0 min
Histogram: 36 0 0 0 0 0 0 2 0 2
Neighs:    33.4 ave 595 max 0 min
Histogram: 36 2 0 0 0 0 0 0 0 2

Total # of neighbors = 1336
Ave neighs/atom = 0.306915
Neighbor list builds = 828
Dangerous builds = 0
write_dump all custom dump.atom_info_ac_* id type x y z radius vx vy vz density #
run 308697
Setting up run at Thu Nov 24 21:12:06 2022

Memory usage per processor = 1088.62 Mbytes
    Step    Atoms         KinEng            CPU 
 5865245     4353   0.0074398731              0 
 6173942     4350   0.0079550912       5960.161 
Loop time of 5960.16 on 40 procs for 308697 steps with 4350 atoms, finish time Thu Nov 24 22:51:27 2022


Pair  time (%) = 1.43088 (0.0240074)
Neigh time (%) = 2.20613 (0.0370146)
Comm  time (%) = 13.3274 (0.223608)
Outpt time (%) = 0.00197524 (3.31408e-05)
Other time (%) = 5943.19 (99.7153)

Nlocal:    108.75 ave 1544 max 0 min
Histogram: 35 1 2 0 0 0 0 0 0 2
Nghost:    17.8 ave 208 max 0 min
Histogram: 36 0 0 0 0 0 2 0 1 1
Neighs:    33.275 ave 586 max 0 min
Histogram: 36 2 0 0 0 0 0 0 0 2

Total # of neighbors = 1331
Ave neighs/atom = 0.305977
Neighbor list builds = 866
Dangerous builds = 0
write_dump all custom dump.atom_info_ac_* id type x y z radius vx vy vz density #
run 308697
Setting up run at Thu Nov 24 22:51:27 2022

Memory usage per processor = 1088.62 Mbytes
    Step    Atoms         KinEng            CPU 
 6173942     4350   0.0079550912              0 
 6482639     4349   0.0085752792      5904.7097 
Loop time of 5904.71 on 40 procs for 308697 steps with 4349 atoms, finish time Fri Nov 25 00:29:52 2022


Pair  time (%) = 1.43858 (0.0243633)
Neigh time (%) = 2.11192 (0.0357667)
Comm  time (%) = 12.9497 (0.219312)
Outpt time (%) = 0.00215519 (3.64995e-05)
Other time (%) = 5888.21 (99.7205)

Nlocal:    108.725 ave 1546 max 0 min
Histogram: 34 2 2 0 0 0 0 0 0 2
Nghost:    17.075 ave 199 max 0 min
Histogram: 36 0 0 0 0 0 2 0 0 2
Neighs:    32.65 ave 567 max 0 min
Histogram: 36 2 0 0 0 0 0 0 0 2

Total # of neighbors = 1306
Ave neighs/atom = 0.300299
Neighbor list builds = 832
Dangerous builds = 0
write_dump all custom dump.atom_info_ac_* id type x y z radius vx vy vz density #
run 308697
Setting up run at Fri Nov 25 00:29:52 2022

Memory usage per processor = 1088.62 Mbytes
    Step    Atoms         KinEng            CPU 
 6482639     4349   0.0085752792              0 
 6791336     4347   0.0091007545      5891.1403 
Loop time of 5891.14 on 40 procs for 308697 steps with 4347 atoms, finish time Fri Nov 25 02:08:03 2022


Pair  time (%) = 1.42634 (0.0242116)
Neigh time (%) = 2.17345 (0.0368935)
Comm  time (%) = 12.4373 (0.211118)
Outpt time (%) = 0.00207818 (3.52764e-05)
Other time (%) = 5875.1 (99.7277)

Nlocal:    108.675 ave 1537 max 0 min
Histogram: 34 2 2 0 0 0 0 0 0 2
Nghost:    17.225 ave 198 max 0 min
Histogram: 36 0 0 0 0 0 2 0 0 2
Neighs:    32.6 ave 575 max 0 min
Histogram: 36 2 0 0 0 0 0 0 0 2

Total # of neighbors = 1304
Ave neighs/atom = 0.299977
Neighbor list builds = 855
Dangerous builds = 0
write_dump all custom dump.atom_info_ac_* id type x y z radius vx vy vz density #
run 308697
Setting up run at Fri Nov 25 02:08:03 2022

Memory usage per processor = 1088.62 Mbytes
    Step    Atoms         KinEng            CPU 
 6791336     4347   0.0091007545              0 
 7100033     4343   0.0095667814      5916.2389 
Loop time of 5916.24 on 40 procs for 308697 steps with 4343 atoms, finish time Fri Nov 25 03:46:39 2022


Pair  time (%) = 1.42084 (0.0240159)
Neigh time (%) = 2.14673 (0.0362854)
Comm  time (%) = 13.6048 (0.229957)
Outpt time (%) = 0.00210501 (3.55802e-05)
Other time (%) = 5899.07 (99.7097)

Nlocal:    108.575 ave 1534 max 0 min
Histogram: 35 1 2 0 0 0 0 0 0 2
Nghost:    16.9 ave 199 max 0 min
Histogram: 36 0 0 0 0 2 0 0 0 2
Neighs:    32.05 ave 546 max 0 min
Histogram: 36 2 0 0 0 0 0 0 0 2

Total # of neighbors = 1282
Ave neighs/atom = 0.295188
Neighbor list builds = 842
Dangerous builds = 0
write_dump all custom dump.atom_info_ac_* id type x y z radius vx vy vz density #
run 308697
Setting up run at Fri Nov 25 03:46:40 2022

Memory usage per processor = 1088.62 Mbytes
    Step    Atoms         KinEng            CPU 
 7100033     4343   0.0095667814              0 
 7408730     4340    0.010166127      5888.7302 
Loop time of 5888.73 on 40 procs for 308697 steps with 4340 atoms, finish time Fri Nov 25 05:24:48 2022


Pair  time (%) = 1.42852 (0.0242585)
Neigh time (%) = 2.16928 (0.0368378)
Comm  time (%) = 14.9149 (0.253279)
Outpt time (%) = 0.00224419 (3.81099e-05)
Other time (%) = 5870.22 (99.6856)

Nlocal:    108.5 ave 1527 max 0 min
Histogram: 34 2 2 0 0 0 0 0 0 2
Nghost:    16.275 ave 196 max 0 min
Histogram: 36 0 0 0 0 2 0 0 0 2
Neighs:    32.375 ave 561 max 0 min
Histogram: 37 1 0 0 0 0 0 0 0 2

Total # of neighbors = 1295
Ave neighs/atom = 0.298387
Neighbor list builds = 853
Dangerous builds = 0
write_dump all custom dump.atom_info_ac_* id type x y z radius vx vy vz density #
run 308697
Setting up run at Fri Nov 25 05:24:49 2022

Memory usage per processor = 1088.62 Mbytes
    Step    Atoms         KinEng            CPU 
 7408730     4340    0.010166127              0 
 7717427     4339    0.010723615      5929.3614 
Loop time of 5929.36 on 40 procs for 308697 steps with 4339 atoms, finish time Fri Nov 25 07:03:38 2022


Pair  time (%) = 1.42823 (0.0240873)
Neigh time (%) = 2.10553 (0.0355103)
Comm  time (%) = 13.2342 (0.223198)
Outpt time (%) = 0.00213383 (3.59875e-05)
Other time (%) = 5912.59 (99.7172)

Nlocal:    108.475 ave 1518 max 0 min
Histogram: 33 3 2 0 0 0 0 0 0 2
Nghost:    16.125 ave 194 max 0 min
Histogram: 36 0 0 0 0 1 1 0 1 1
Neighs:    32.325 ave 562 max 0 min
Histogram: 37 1 0 0 0 0 0 0 0 2

Total # of neighbors = 1293
Ave neighs/atom = 0.297995
Neighbor list builds = 825
Dangerous builds = 0
write_dump all custom dump.atom_info_ac_* id type x y z radius vx vy vz density #
run 308697
Setting up run at Fri Nov 25 07:03:38 2022

Memory usage per processor = 1088.62 Mbytes
    Step    Atoms         KinEng            CPU 
 7717427     4339    0.010723615              0 
 8026124     4337    0.011270977      5954.1997 
Loop time of 5954.2 on 40 procs for 308697 steps with 4337 atoms, finish time Fri Nov 25 08:42:52 2022


Pair  time (%) = 1.42221 (0.0238858)
Neigh time (%) = 2.14146 (0.0359656)
Comm  time (%) = 13.0246 (0.218746)
Outpt time (%) = 0.00232723 (3.90855e-05)
Other time (%) = 5937.61 (99.7214)

Nlocal:    108.425 ave 1524 max 0 min
Histogram: 33 3 2 0 0 0 0 0 0 2
Nghost:    16.275 ave 184 max 0 min
Histogram: 36 0 0 0 0 0 2 0 0 2
Neighs:    31.925 ave 580 max 0 min
Histogram: 37 1 0 0 0 0 0 0 1 1

Total # of neighbors = 1277
Ave neighs/atom = 0.294443
Neighbor list builds = 840
Dangerous builds = 0
write_dump all custom dump.atom_info_ac_* id type x y z radius vx vy vz density #
run 308697
Setting up run at Fri Nov 25 08:42:53 2022

Memory usage per processor = 1088.62 Mbytes
    Step    Atoms         KinEng            CPU 
 8026124     4337    0.011270977              0 
 8334821     4335    0.011885465      5900.0805 
Loop time of 5900.08 on 40 procs for 308697 steps with 4335 atoms, finish time Fri Nov 25 10:21:13 2022


Pair  time (%) = 1.42247 (0.0241094)
Neigh time (%) = 2.11274 (0.0358086)
Comm  time (%) = 14.4459 (0.244842)
Outpt time (%) = 0.0021734 (3.68368e-05)
Other time (%) = 5882.1 (99.6952)

Nlocal:    108.375 ave 1519 max 0 min
Histogram: 33 3 2 0 0 0 0 0 0 2
Nghost:    15.875 ave 182 max 0 min
Histogram: 36 0 0 0 0 0 2 0 0 2
Neighs:    31.2 ave 575 max 0 min
Histogram: 37 1 0 0 0 0 0 0 1 1

Total # of neighbors = 1248
Ave neighs/atom = 0.287889
Neighbor list builds = 827
Dangerous builds = 0
write_dump all custom dump.atom_info_ac_* id type x y z radius vx vy vz density #
run 308697
Setting up run at Fri Nov 25 10:21:13 2022

Memory usage per processor = 1088.62 Mbytes
    Step    Atoms         KinEng            CPU 
 8334821     4335    0.011885465              0 
 8643518     4331    0.012388607      5931.5829 
Loop time of 5931.58 on 40 procs for 308697 steps with 4331 atoms, finish time Fri Nov 25 12:00:05 2022


Pair  time (%) = 1.40943 (0.0237614)
Neigh time (%) = 2.11403 (0.0356401)
Comm  time (%) = 13.5705 (0.228784)
Outpt time (%) = 0.00218268 (3.67976e-05)
Other time (%) = 5914.49 (99.7118)

Nlocal:    108.275 ave 1502 max 0 min
Histogram: 32 4 2 0 0 0 0 0 0 2
Nghost:    15.65 ave 195 max 0 min
Histogram: 36 0 0 0 0 2 0 0 1 1
Neighs:    30.975 ave 562 max 0 min
Histogram: 37 1 0 0 0 0 0 0 1 1

Total # of neighbors = 1239
Ave neighs/atom = 0.286077
Neighbor list builds = 830
Dangerous builds = 0
write_dump all custom dump.atom_info_ac_* id type x y z radius vx vy vz density #
run 308697
Setting up run at Fri Nov 25 12:00:05 2022

Memory usage per processor = 1088.62 Mbytes
    Step    Atoms         KinEng            CPU 
 8643518     4331    0.012388607              0 
 8952215     4329    0.013232991      6058.7921 
Loop time of 6058.8 on 40 procs for 308697 steps with 4329 atoms, finish time Fri Nov 25 13:41:04 2022


Pair  time (%) = 1.42116 (0.0234561)
Neigh time (%) = 2.13104 (0.0351726)
Comm  time (%) = 12.6179 (0.208257)
Outpt time (%) = 0.00227187 (3.74971e-05)
Other time (%) = 6042.63 (99.7331)

Nlocal:    108.225 ave 1501 max 0 min
Histogram: 33 3 2 0 0 0 0 0 0 2
Nghost:    15.55 ave 189 max 0 min
Histogram: 36 0 0 0 0 1 1 0 0 2
Neighs:    30.5 ave 571 max 0 min
Histogram: 37 1 0 0 0 0 0 0 1 1

Total # of neighbors = 1220
Ave neighs/atom = 0.28182
Neighbor list builds = 834
Dangerous builds = 0
write_dump all custom dump.atom_info_ac_* id type x y z radius vx vy vz density #
run 308697
Setting up run at Fri Nov 25 13:41:04 2022

Memory usage per processor = 1088.62 Mbytes
    Step    Atoms         KinEng            CPU 
 8952215     4329    0.013232991              0 
 9260912     4326    0.013624448      5971.0233 
Loop time of 5971.04 on 40 procs for 308697 steps with 4326 atoms, finish time Fri Nov 25 15:20:35 2022


Pair  time (%) = 1.43077 (0.0239618)
Neigh time (%) = 2.10693 (0.0352859)
Comm  time (%) = 13.8431 (0.231838)
Outpt time (%) = 0.00217004 (3.63428e-05)
Other time (%) = 5953.66 (99.7089)

Nlocal:    108.15 ave 1490 max 0 min
Histogram: 33 3 2 0 0 0 0 0 0 2
Nghost:    15.375 ave 185 max 0 min
Histogram: 36 0 0 0 0 2 0 0 0 2
Neighs:    31.7 ave 571 max 0 min
Histogram: 36 2 0 0 0 0 0 0 1 1

Total # of neighbors = 1268
Ave neighs/atom = 0.293111
Neighbor list builds = 825
Dangerous builds = 0
write_dump all custom dump.atom_info_ac_* id type x y z radius vx vy vz density #
run 308697
Setting up run at Fri Nov 25 15:20:35 2022

Memory usage per processor = 1088.62 Mbytes
    Step    Atoms         KinEng            CPU 
 9260912     4326    0.013624448              0 
 9569609     4324    0.014197258      5984.6074 
Loop time of 5984.61 on 40 procs for 308697 steps with 4324 atoms, finish time Fri Nov 25 17:00:20 2022


Pair  time (%) = 1.43256 (0.0239373)
Neigh time (%) = 3.62495 (0.0605713)
Comm  time (%) = 18.7424 (0.313177)
Outpt time (%) = 0.00246269 (4.11503e-05)
Other time (%) = 5960.81 (99.6023)

Nlocal:    108.1 ave 1495 max 0 min
Histogram: 32 5 1 0 0 0 0 0 0 2
Nghost:    15.425 ave 185 max 0 min
Histogram: 36 0 0 0 0 2 0 0 0 2
Neighs:    31.6 ave 580 max 0 min
Histogram: 37 1 0 0 0 0 0 1 0 1

Total # of neighbors = 1264
Ave neighs/atom = 0.292322
Neighbor list builds = 1396
Dangerous builds = 0
write_dump all custom dump.atom_info_ac_* id type x y z radius vx vy vz density #
run 308697
Setting up run at Fri Nov 25 17:00:20 2022

Memory usage per processor = 1088.62 Mbytes
    Step    Atoms         KinEng            CPU 
 9569609     4324    0.014197258              0 
 9878306     4324    0.014862439       6003.532 
Loop time of 6003.56 on 40 procs for 308697 steps with 4324 atoms, finish time Fri Nov 25 18:40:24 2022


Pair  time (%) = 1.4396 (0.0239791)
Neigh time (%) = 2.47576 (0.0412382)
Comm  time (%) = 14.8872 (0.247973)
Outpt time (%) = 0.00246189 (4.10071e-05)
Other time (%) = 5984.76 (99.6868)

Nlocal:    108.1 ave 1491 max 0 min
Histogram: 32 4 2 0 0 0 0 0 0 2
Nghost:    14.8 ave 179 max 0 min
Histogram: 36 0 0 0 0 2 0 0 0 2
Neighs:    30.95 ave 569 max 0 min
Histogram: 37 1 0 0 0 0 0 1 0 1

Total # of neighbors = 1238
Ave neighs/atom = 0.286309
Neighbor list builds = 963
Dangerous builds = 0
write_dump all custom dump.atom_info_ac_* id type x y z radius vx vy vz density #
run 308697
Setting up run at Fri Nov 25 18:40:24 2022

Memory usage per processor = 1088.62 Mbytes
    Step    Atoms         KinEng            CPU 
 9878306     4324    0.014862439              0 
10187003     4321    0.015664725      6189.2162 
Loop time of 6189.22 on 40 procs for 308697 steps with 4321 atoms, finish time Fri Nov 25 20:23:33 2022


Pair  time (%) = 1.42594 (0.0230391)
Neigh time (%) = 2.10709 (0.0340445)
Comm  time (%) = 14.358 (0.231984)
Outpt time (%) = 0.00216105 (3.49163e-05)
Other time (%) = 6171.32 (99.7109)

Nlocal:    108.025 ave 1488 max 0 min
Histogram: 32 4 2 0 0 0 0 0 0 2
Nghost:    14.825 ave 173 max 0 min
Histogram: 36 0 0 0 0 1 1 0 0 2
Neighs:    31.05 ave 582 max 0 min
Histogram: 37 1 0 0 0 0 0 1 0 1

Total # of neighbors = 1242
Ave neighs/atom = 0.287433
Neighbor list builds = 825
Dangerous builds = 0
write_dump all custom dump.atom_info_ac_* id type x y z radius vx vy vz density #
run 308697
Setting up run at Fri Nov 25 20:23:33 2022

Memory usage per processor = 1088.62 Mbytes
    Step    Atoms         KinEng            CPU 
10187003     4321    0.015664725              0 
10495700     4320    0.016109287       5965.169 
Loop time of 5965.17 on 40 procs for 308697 steps with 4320 atoms, finish time Fri Nov 25 22:02:58 2022


Pair  time (%) = 1.42817 (0.0239417)
Neigh time (%) = 2.11863 (0.0355166)
Comm  time (%) = 12.272 (0.205727)
Outpt time (%) = 0.000714723 (1.19816e-05)
Other time (%) = 5949.35 (99.7348)

Nlocal:    108 ave 1485 max 0 min
Histogram: 32 5 1 0 0 0 0 0 0 2
Nghost:    14.875 ave 174 max 0 min
Histogram: 36 0 0 0 0 1 1 0 0 2
Neighs:    31.425 ave 575 max 0 min
Histogram: 37 1 0 0 0 0 0 0 1 1

Total # of neighbors = 1257
Ave neighs/atom = 0.290972
Neighbor list builds = 828
Dangerous builds = 0
write_dump all custom dump.atom_info_ac_* id type x y z radius vx vy vz density #
run 308697
Setting up run at Fri Nov 25 22:02:58 2022

Memory usage per processor = 1088.62 Mbytes
    Step    Atoms         KinEng            CPU 
10495700     4320    0.016109287              0 
10804397     4320    0.016879702       5961.209 
Loop time of 5961.24 on 40 procs for 308697 steps with 4320 atoms, finish time Fri Nov 25 23:42:20 2022


Pair  time (%) = 1.42188 (0.0238521)
Neigh time (%) = 2.17396 (0.0364683)
Comm  time (%) = 12.3514 (0.207196)
Outpt time (%) = 0.0023944 (4.01661e-05)
Other time (%) = 5945.29 (99.7324)

Nlocal:    108 ave 1474 max 0 min
Histogram: 32 4 2 0 0 0 0 0 0 2
Nghost:    14.675 ave 172 max 0 min
Histogram: 36 0 0 0 0 1 1 0 1 1
Neighs:    30.825 ave 570 max 0 min
Histogram: 36 2 0 0 0 0 0 0 1 1

Total # of neighbors = 1233
Ave neighs/atom = 0.285417
Neighbor list builds = 848
Dangerous builds = 0
write_dump all custom dump.atom_info_ac_* id type x y z radius vx vy vz density #
run 308697
Setting up run at Fri Nov 25 23:42:20 2022

Memory usage per processor = 1088.62 Mbytes
    Step    Atoms         KinEng            CPU 
10804397     4320    0.016879702              0 
11113094     4315    0.017363963      5935.9472 
Loop time of 5935.95 on 40 procs for 308697 steps with 4315 atoms, finish time Sat Nov 26 01:21:16 2022


Pair  time (%) = 1.42132 (0.0239443)
Neigh time (%) = 2.48958 (0.0419408)
Comm  time (%) = 14.7486 (0.248462)
Outpt time (%) = 0.00221471 (3.73102e-05)
Other time (%) = 5917.29 (99.6856)

Nlocal:    107.875 ave 1474 max 0 min
Histogram: 32 4 2 0 0 0 0 0 0 2
Nghost:    14.675 ave 159 max 0 min
Histogram: 36 0 0 0 0 1 0 1 0 2
Neighs:    29.5 ave 547 max 0 min
Histogram: 36 2 0 0 0 0 0 0 1 1

Total # of neighbors = 1180
Ave neighs/atom = 0.273465
Neighbor list builds = 968
Dangerous builds = 0
write_dump all custom dump.atom_info_ac_* id type x y z radius vx vy vz density #
run 308697
Setting up run at Sat Nov 26 01:21:16 2022

Memory usage per processor = 1088.62 Mbytes
    Step    Atoms         KinEng            CPU 
11113094     4315    0.017363963              0 
11421791     4313    0.017987122      5967.0843 
Loop time of 5967.08 on 40 procs for 308697 steps with 4313 atoms, finish time Sat Nov 26 03:00:43 2022


Pair  time (%) = 1.43143 (0.0239887)
Neigh time (%) = 2.15358 (0.036091)
Comm  time (%) = 13.5159 (0.226508)
Outpt time (%) = 0.0024557 (4.1154e-05)
Other time (%) = 5949.98 (99.7134)

Nlocal:    107.825 ave 1472 max 0 min
Histogram: 32 4 2 0 0 0 0 0 0 2
Nghost:    14.825 ave 164 max 0 min
Histogram: 36 0 0 0 0 1 1 0 0 2
Neighs:    29.575 ave 556 max 0 min
Histogram: 38 0 0 0 0 0 0 0 1 1

Total # of neighbors = 1183
Ave neighs/atom = 0.274287
Neighbor list builds = 842
Dangerous builds = 0
write_dump all custom dump.atom_info_ac_* id type x y z radius vx vy vz density #
run 308697
Setting up run at Sat Nov 26 03:00:43 2022

Memory usage per processor = 1088.62 Mbytes
    Step    Atoms         KinEng            CPU 
11421791     4313    0.017987122              0 
11730488     4311    0.018824249       5986.248 
Loop time of 5986.41 on 40 procs for 308697 steps with 4311 atoms, finish time Sat Nov 26 04:40:30 2022


Pair  time (%) = 1.41592 (0.0236522)
Neigh time (%) = 2.25497 (0.0376681)
Comm  time (%) = 13.7595 (0.229846)
Outpt time (%) = 0.00242453 (4.05006e-05)
Other time (%) = 5968.97 (99.7088)

Nlocal:    107.775 ave 1469 max 0 min
Histogram: 32 4 2 0 0 0 0 0 0 2
Nghost:    14.15 ave 164 max 0 min
Histogram: 36 0 0 0 0 1 1 0 0 2
Neighs:    28.775 ave 538 max 0 min
Histogram: 37 1 0 0 0 0 0 0 1 1

Total # of neighbors = 1151
Ave neighs/atom = 0.266991
Neighbor list builds = 879
Dangerous builds = 0
write_dump all custom dump.atom_info_ac_* id type x y z radius vx vy vz density #
run 308697
Setting up run at Sat Nov 26 04:40:30 2022

Memory usage per processor = 1088.62 Mbytes
    Step    Atoms         KinEng            CPU 
11730488     4311    0.018824249              0 
12039185     4308    0.019235813      5936.5849 
Loop time of 5936.59 on 40 procs for 308697 steps with 4308 atoms, finish time Sat Nov 26 06:19:27 2022


Pair  time (%) = 1.41027 (0.0237557)
Neigh time (%) = 2.10751 (0.0355004)
Comm  time (%) = 15.0202 (0.253011)
Outpt time (%) = 0.00233168 (3.92764e-05)
Other time (%) = 5918.04 (99.6877)

Nlocal:    107.7 ave 1464 max 0 min
Histogram: 33 4 1 0 0 0 0 0 0 2
Nghost:    14.5 ave 158 max 0 min
Histogram: 36 0 0 0 0 0 2 0 0 2
Neighs:    28.75 ave 518 max 0 min
Histogram: 37 1 0 0 0 0 0 0 1 1

Total # of neighbors = 1150
Ave neighs/atom = 0.266945
Neighbor list builds = 825
Dangerous builds = 0
write_dump all custom dump.atom_info_ac_* id type x y z radius vx vy vz density #
run 308697
Setting up run at Sat Nov 26 06:19:27 2022

Memory usage per processor = 1088.62 Mbytes
    Step    Atoms         KinEng            CPU 
12039185     4308    0.019235813              0 
12347882     4307    0.019821333      5975.6692 
Loop time of 5975.67 on 40 procs for 308697 steps with 4307 atoms, finish time Sat Nov 26 07:59:03 2022


Pair  time (%) = 1.40404 (0.023496)
Neigh time (%) = 2.10848 (0.0352844)
Comm  time (%) = 13.8079 (0.231069)
Outpt time (%) = 0.00242211 (4.05328e-05)
Other time (%) = 5958.35 (99.7101)

Nlocal:    107.675 ave 1454 max 0 min
Histogram: 32 5 1 0 0 0 0 0 0 2
Nghost:    14.575 ave 161 max 0 min
Histogram: 36 0 0 0 0 1 1 0 0 2
Neighs:    27.95 ave 500 max 0 min
Histogram: 36 2 0 0 0 0 0 0 1 1

Total # of neighbors = 1118
Ave neighs/atom = 0.259577
Neighbor list builds = 825
Dangerous builds = 0
write_dump all custom dump.atom_info_ac_* id type x y z radius vx vy vz density #
run 308697
Setting up run at Sat Nov 26 07:59:03 2022

Memory usage per processor = 1088.62 Mbytes
    Step    Atoms         KinEng            CPU 
12347882     4307    0.019821333              0 
12656579     4304    0.020527033      6005.2998 
Loop time of 6005.31 on 40 procs for 308697 steps with 4304 atoms, finish time Sat Nov 26 09:39:08 2022


Pair  time (%) = 1.41206 (0.0235135)
Neigh time (%) = 2.11496 (0.0352182)
Comm  time (%) = 14.7618 (0.245812)
Outpt time (%) = 0.0198201 (0.000330043)
Other time (%) = 5987 (99.6951)

Nlocal:    107.6 ave 1451 max 0 min
Histogram: 33 3 2 0 0 0 0 0 0 2
Nghost:    15.15 ave 166 max 0 min
Histogram: 36 0 0 0 0 0 2 0 0 2
Neighs:    27.55 ave 479 max 0 min
Histogram: 35 3 0 0 0 0 0 0 1 1

Total # of neighbors = 1102
Ave neighs/atom = 0.256041
Neighbor list builds = 825
Dangerous builds = 0
write_dump all custom dump.atom_info_ac_* id type x y z radius vx vy vz density #
run 308697
Setting up run at Sat Nov 26 09:39:09 2022

Memory usage per processor = 1088.62 Mbytes
    Step    Atoms         KinEng            CPU 
12656579     4304    0.020527033              0 
12965276     4302    0.021214006      5982.0255 
Loop time of 5982.03 on 40 procs for 308697 steps with 4302 atoms, finish time Sat Nov 26 11:18:51 2022


Pair  time (%) = 1.44588 (0.0241704)
Neigh time (%) = 2.18745 (0.036567)
Comm  time (%) = 15.2679 (0.25523)
Outpt time (%) = 0.00261924 (4.37852e-05)
Other time (%) = 5963.12 (99.684)

Nlocal:    107.55 ave 1444 max 0 min
Histogram: 33 2 3 0 0 0 0 0 0 2
Nghost:    14.575 ave 160 max 0 min
Histogram: 35 1 0 0 0 0 2 0 0 2
Neighs:    27.5 ave 457 max 0 min
Histogram: 37 1 0 0 0 0 0 0 0 2

Total # of neighbors = 1100
Ave neighs/atom = 0.255695
Neighbor list builds = 856
Dangerous builds = 0
write_dump all custom dump.atom_info_ac_* id type x y z radius vx vy vz density #
run 308697
Setting up run at Sat Nov 26 11:18:51 2022

Memory usage per processor = 1088.62 Mbytes
    Step    Atoms         KinEng            CPU 
12965276     4302    0.021214006              0 
13273973     4299    0.021867623      6146.4211 
Loop time of 6146.42 on 40 procs for 308697 steps with 4299 atoms, finish time Sat Nov 26 13:01:18 2022


Pair  time (%) = 1.4322 (0.0233013)
Neigh time (%) = 2.24887 (0.0365882)
Comm  time (%) = 15.7074 (0.255553)
Outpt time (%) = 0.00260675 (4.24108e-05)
Other time (%) = 6127.03 (99.6845)

Nlocal:    107.475 ave 1439 max 0 min
Histogram: 32 3 3 0 0 0 0 0 0 2
Nghost:    14.825 ave 171 max 0 min
Histogram: 36 0 0 0 0 2 0 0 0 2
Neighs:    27.3 ave 437 max 0 min
Histogram: 36 2 0 0 0 0 0 0 0 2

Total # of neighbors = 1092
Ave neighs/atom = 0.254013
Neighbor list builds = 879
Dangerous builds = 0
write_dump all custom dump.atom_info_ac_* id type x y z radius vx vy vz density #
run 308697
Setting up run at Sat Nov 26 13:01:18 2022

Memory usage per processor = 1088.62 Mbytes
    Step    Atoms         KinEng            CPU 
13273973     4299    0.021867623              0 
13582670     4295    0.022355095      5977.8438 
Loop time of 5977.84 on 40 procs for 308697 steps with 4295 atoms, finish time Sat Nov 26 14:40:56 2022


Pair  time (%) = 1.40666 (0.0235312)
Neigh time (%) = 2.14695 (0.0359151)
Comm  time (%) = 14.9269 (0.249703)
Outpt time (%) = 0.0022638 (3.78698e-05)
Other time (%) = 5959.36 (99.6908)

Nlocal:    107.375 ave 1437 max 0 min
Histogram: 32 4 1 1 0 0 0 0 0 2
Nghost:    15.525 ave 175 max 0 min
Histogram: 36 0 0 0 0 1 1 0 1 1
Neighs:    27.225 ave 423 max 0 min
Histogram: 36 1 1 0 0 0 0 0 0 2

Total # of neighbors = 1089
Ave neighs/atom = 0.253551
Neighbor list builds = 840
Dangerous builds = 0
write_dump all custom dump.atom_info_ac_* id type x y z radius vx vy vz density #
run 308697
Setting up run at Sat Nov 26 14:40:56 2022

Memory usage per processor = 1088.62 Mbytes
    Step    Atoms         KinEng            CPU 
13582670     4295    0.022355095              0 
13891367     4292    0.022941724      6000.2334 
Loop time of 6000.23 on 40 procs for 308697 steps with 4292 atoms, finish time Sat Nov 26 16:20:56 2022


Pair  time (%) = 1.39257 (0.0232086)
Neigh time (%) = 2.1509 (0.0358469)
Comm  time (%) = 15.0044 (0.250064)
Outpt time (%) = 0.00239178 (3.98615e-05)
Other time (%) = 5981.68 (99.6908)

Nlocal:    107.3 ave 1431 max 0 min
Histogram: 32 4 2 0 0 0 0 0 0 2
Nghost:    15.1 ave 168 max 0 min
Histogram: 35 1 0 0 0 2 0 0 0 2
Neighs:    26.45 ave 415 max 0 min
Histogram: 37 1 0 0 0 0 0 0 0 2

Total # of neighbors = 1058
Ave neighs/atom = 0.246505
Neighbor list builds = 841
Dangerous builds = 0
write_dump all custom dump.atom_info_ac_* id type x y z radius vx vy vz density #
run 308697
Setting up run at Sat Nov 26 16:20:56 2022

Memory usage per processor = 1088.62 Mbytes
    Step    Atoms         KinEng            CPU 
13891367     4292    0.022941724              0 
14200064     4289    0.023558203       6004.542 
Loop time of 6004.54 on 40 procs for 308697 steps with 4289 atoms, finish time Sat Nov 26 18:01:01 2022


Pair  time (%) = 1.4052 (0.0234022)
Neigh time (%) = 2.20024 (0.036643)
Comm  time (%) = 14.558 (0.24245)
Outpt time (%) = 0.002476 (4.12354e-05)
Other time (%) = 5986.38 (99.6975)

Nlocal:    107.225 ave 1428 max 0 min
Histogram: 33 2 3 0 0 0 0 0 0 2
Nghost:    15.05 ave 171 max 0 min
Histogram: 35 1 0 0 0 1 1 0 0 2
Neighs:    26.65 ave 413 max 0 min
Histogram: 34 4 0 0 0 0 0 0 0 2

Total # of neighbors = 1066
Ave neighs/atom = 0.248543
Neighbor list builds = 859
Dangerous builds = 0
write_dump all custom dump.atom_info_ac_* id type x y z radius vx vy vz density #
run 308697
Setting up run at Sat Nov 26 18:01:01 2022

Memory usage per processor = 1088.62 Mbytes
    Step    Atoms         KinEng            CPU 
14200064     4289    0.023558203              0 
14508761     4288    0.024215059      6062.9344 
Loop time of 6062.93 on 40 procs for 308697 steps with 4288 atoms, finish time Sat Nov 26 19:42:04 2022


Pair  time (%) = 1.40404 (0.0231578)
Neigh time (%) = 2.15861 (0.0356035)
Comm  time (%) = 14.5597 (0.240143)
Outpt time (%) = 0.00240946 (3.97408e-05)
Other time (%) = 6044.81 (99.7011)

Nlocal:    107.2 ave 1424 max 0 min
Histogram: 32 4 2 0 0 0 0 0 0 2
Nghost:    14.625 ave 166 max 0 min
Histogram: 36 0 0 0 0 2 0 0 0 2
Neighs:    25.675 ave 405 max 0 min
Histogram: 35 2 1 0 0 0 0 0 0 2

Total # of neighbors = 1027
Ave neighs/atom = 0.239506
Neighbor list builds = 842
Dangerous builds = 0
write_dump all custom dump.atom_info_ac_* id type x y z radius vx vy vz density #
run 308697
Setting up run at Sat Nov 26 19:42:04 2022

Memory usage per processor = 1088.62 Mbytes
    Step    Atoms         KinEng            CPU 
14508761     4288    0.024215059              0 
14817458     4285    0.024777334      6062.8215 
Loop time of 6062.82 on 40 procs for 308697 steps with 4285 atoms, finish time Sat Nov 26 21:23:07 2022


Pair  time (%) = 1.40594 (0.0231896)
Neigh time (%) = 2.12289 (0.0350149)
Comm  time (%) = 15.1222 (0.249425)
Outpt time (%) = 0.00263801 (4.35113e-05)
Other time (%) = 6044.17 (99.6923)

Nlocal:    107.125 ave 1414 max 0 min
Histogram: 32 3 3 0 0 0 0 0 0 2
Nghost:    15.3 ave 163 max 0 min
Histogram: 34 2 0 0 0 0 2 0 0 2
Neighs:    26.175 ave 399 max 0 min
Histogram: 36 1 1 0 0 0 0 0 0 2

Total # of neighbors = 1047
Ave neighs/atom = 0.244341
Neighbor list builds = 829
Dangerous builds = 0
write_dump all custom dump.atom_info_ac_* id type x y z radius vx vy vz density #
run 308697
Setting up run at Sat Nov 26 21:23:07 2022

Memory usage per processor = 1088.62 Mbytes
    Step    Atoms         KinEng            CPU 
14817458     4285    0.024777334              0 
15126155     4283    0.025148753      6097.7373 
Loop time of 6097.74 on 40 procs for 308697 steps with 4283 atoms, finish time Sat Nov 26 23:04:45 2022


Pair  time (%) = 1.40972 (0.0231188)
Neigh time (%) = 2.18348 (0.035808)
Comm  time (%) = 15.1046 (0.247708)
Outpt time (%) = 0.00232191 (3.80783e-05)
Other time (%) = 6079.04 (99.6933)

Nlocal:    107.075 ave 1402 max 0 min
Histogram: 32 4 1 1 0 0 0 0 0 2
Nghost:    15.3 ave 172 max 0 min
Histogram: 35 1 0 0 0 2 0 0 0 2
Neighs:    26 ave 391 max 0 min
Histogram: 36 1 1 0 0 0 0 0 0 2

Total # of neighbors = 1040
Ave neighs/atom = 0.24282
Neighbor list builds = 852
Dangerous builds = 0
write_dump all custom dump.atom_info_ac_* id type x y z radius vx vy vz density #
run 308697
Setting up run at Sat Nov 26 23:04:45 2022

Memory usage per processor = 1088.62 Mbytes
    Step    Atoms         KinEng            CPU 
15126155     4283    0.025148753              0 
15434852     4279    0.025764365      6035.0339 
Loop time of 6035.03 on 40 procs for 308697 steps with 4279 atoms, finish time Sun Nov 27 00:45:20 2022


Pair  time (%) = 1.42067 (0.0235403)
Neigh time (%) = 2.17338 (0.0360127)
Comm  time (%) = 15.6208 (0.258835)
Outpt time (%) = 0.0027427 (4.54462e-05)
Other time (%) = 6015.82 (99.6816)

Nlocal:    106.975 ave 1394 max 0 min
Histogram: 32 4 2 0 0 0 0 0 0 2
Nghost:    15.25 ave 182 max 0 min
Histogram: 36 0 0 0 0 2 0 0 1 1
Neighs:    25.825 ave 386 max 0 min
Histogram: 36 1 0 1 0 0 0 0 0 2

Total # of neighbors = 1033
Ave neighs/atom = 0.241412
Neighbor list builds = 849
Dangerous builds = 0
write_dump all custom dump.atom_info_ac_* id type x y z radius vx vy vz density #
run 308697
Setting up run at Sun Nov 27 00:45:21 2022

Memory usage per processor = 1088.62 Mbytes
    Step    Atoms         KinEng            CPU 
15434852     4279    0.025764365              0 
15743549     4279    0.026285056      6032.2414 
Loop time of 6032.24 on 40 procs for 308697 steps with 4279 atoms, finish time Sun Nov 27 02:25:53 2022


Pair  time (%) = 1.4132 (0.0234274)
Neigh time (%) = 2.17641 (0.0360796)
Comm  time (%) = 15.5216 (0.257311)
Outpt time (%) = 0.00258057 (4.27796e-05)
Other time (%) = 6013.13 (99.6831)

Nlocal:    106.975 ave 1380 max 0 min
Histogram: 32 3 3 0 0 0 0 0 0 2
Nghost:    14.7 ave 172 max 0 min
Histogram: 35 1 0 0 1 1 0 0 0 2
Neighs:    25.85 ave 383 max 0 min
Histogram: 35 2 0 1 0 0 0 0 0 2

Total # of neighbors = 1034
Ave neighs/atom = 0.241645
Neighbor list builds = 852
Dangerous builds = 0
write_dump all custom dump.atom_info_ac_* id type x y z radius vx vy vz density #
run 308697
Setting up run at Sun Nov 27 02:25:53 2022

Memory usage per processor = 1088.62 Mbytes
    Step    Atoms         KinEng            CPU 
15743549     4279    0.026285056              0 
16052246     4274    0.027039356      5976.0146 
Loop time of 5976.02 on 40 procs for 308697 steps with 4274 atoms, finish time Sun Nov 27 04:05:29 2022


Pair  time (%) = 1.42411 (0.0238304)
Neigh time (%) = 2.20754 (0.03694)
Comm  time (%) = 15.0128 (0.251218)
Outpt time (%) = 0.00253309 (4.23877e-05)
Other time (%) = 5957.37 (99.688)

Nlocal:    106.85 ave 1380 max 0 min
Histogram: 32 3 2 1 0 0 0 0 0 2
Nghost:    14.875 ave 174 max 0 min
Histogram: 35 1 0 0 1 1 0 0 0 2
Neighs:    26.925 ave 393 max 0 min
Histogram: 34 3 0 1 0 0 0 0 0 2

Total # of neighbors = 1077
Ave neighs/atom = 0.251989
Neighbor list builds = 861
Dangerous builds = 0
write_dump all custom dump.atom_info_ac_* id type x y z radius vx vy vz density #
run 308697
Setting up run at Sun Nov 27 04:05:29 2022

Memory usage per processor = 1088.62 Mbytes
    Step    Atoms         KinEng            CPU 
16052246     4274    0.027039356              0 
16360943     4270    0.027614812      6026.9019 
Loop time of 6026.9 on 40 procs for 308697 steps with 4270 atoms, finish time Sun Nov 27 05:45:56 2022


Pair  time (%) = 1.42482 (0.023641)
Neigh time (%) = 2.1252 (0.0352618)
Comm  time (%) = 14.1301 (0.234451)
Outpt time (%) = 0.00260286 (4.31874e-05)
Other time (%) = 6009.22 (99.7066)

Nlocal:    106.75 ave 1379 max 0 min
Histogram: 32 3 3 0 0 0 0 0 0 2
Nghost:    15.025 ave 178 max 0 min
Histogram: 36 0 0 0 1 1 0 0 0 2
Neighs:    27.275 ave 392 max 0 min
Histogram: 35 2 0 1 0 0 0 0 0 2

Total # of neighbors = 1091
Ave neighs/atom = 0.255504
Neighbor list builds = 828
Dangerous builds = 0
write_dump all custom dump.atom_info_ac_* id type x y z radius vx vy vz density #
run 308697
Setting up run at Sun Nov 27 05:45:57 2022

Memory usage per processor = 1088.62 Mbytes
    Step    Atoms         KinEng            CPU 
16360943     4270    0.027614812              0 
16669640     4267    0.027933409      6054.7874 
Loop time of 6054.81 on 40 procs for 308697 steps with 4267 atoms, finish time Sun Nov 27 07:26:51 2022


Pair  time (%) = 1.44352 (0.0238409)
Neigh time (%) = 3.4758 (0.0574056)
Comm  time (%) = 21.7959 (0.359977)
Outpt time (%) = 0.00224819 (3.71307e-05)
Other time (%) = 6028.1 (99.5587)

Nlocal:    106.675 ave 1367 max 0 min
Histogram: 32 4 1 1 0 0 0 0 0 2
Nghost:    14.625 ave 166 max 0 min
Histogram: 35 1 0 0 1 1 0 0 0 2
Neighs:    27.075 ave 385 max 0 min
Histogram: 35 2 0 0 1 0 0 0 0 2

Total # of neighbors = 1083
Ave neighs/atom = 0.253808
Neighbor list builds = 1335
Dangerous builds = 0
write_dump all custom dump.atom_info_ac_* id type x y z radius vx vy vz density #
run 308697
Setting up run at Sun Nov 27 07:26:52 2022

Memory usage per processor = 1088.62 Mbytes
    Step    Atoms         KinEng            CPU 
16669640     4267    0.027933409              0 
16978337     4260    0.028480351      5999.9228 
Loop time of 5999.92 on 40 procs for 308697 steps with 4260 atoms, finish time Sun Nov 27 09:06:52 2022


Pair  time (%) = 1.44714 (0.0241194)
Neigh time (%) = 2.21786 (0.0369648)
Comm  time (%) = 15.6795 (0.261329)
Outpt time (%) = 0.00246944 (4.11579e-05)
Other time (%) = 5980.58 (99.6775)

Nlocal:    106.5 ave 1361 max 0 min
Histogram: 32 3 3 0 0 0 0 0 0 2
Nghost:    15.45 ave 170 max 0 min
Histogram: 35 1 0 0 1 0 1 0 0 2
Neighs:    29.2 ave 396 max 0 min
Histogram: 34 2 1 1 0 0 0 0 0 2

Total # of neighbors = 1168
Ave neighs/atom = 0.274178
Neighbor list builds = 868
Dangerous builds = 0
write_dump all custom dump.atom_info_ac_* id type x y z radius vx vy vz density #
run 308697
Setting up run at Sun Nov 27 09:06:52 2022

Memory usage per processor = 1088.62 Mbytes
    Step    Atoms         KinEng            CPU 
16978337     4260    0.028480351              0 
17287034     4256    0.028906534      6034.3817 
Loop time of 6034.38 on 40 procs for 308697 steps with 4256 atoms, finish time Sun Nov 27 10:47:26 2022


Pair  time (%) = 1.43248 (0.0237387)
Neigh time (%) = 2.61872 (0.0433967)
Comm  time (%) = 17.7393 (0.29397)
Outpt time (%) = 0.0023993 (3.97605e-05)
Other time (%) = 6012.59 (99.6389)

Nlocal:    106.4 ave 1355 max 0 min
Histogram: 32 3 2 1 0 0 0 0 0 2
Nghost:    15.5 ave 186 max 0 min
Histogram: 36 0 0 1 0 1 0 0 0 2
Neighs:    28.8 ave 399 max 0 min
Histogram: 35 1 0 2 0 0 0 0 0 2

Total # of neighbors = 1152
Ave neighs/atom = 0.270677
Neighbor list builds = 1016
Dangerous builds = 0
write_dump all custom dump.atom_info_ac_* id type x y z radius vx vy vz density #
run 308697
Setting up run at Sun Nov 27 10:47:27 2022

Memory usage per processor = 1088.62 Mbytes
    Step    Atoms         KinEng            CPU 
17287034     4256    0.028906534              0 
17595731     4254     0.02955601       6014.042 
Loop time of 6014.04 on 40 procs for 308697 steps with 4254 atoms, finish time Sun Nov 27 12:27:41 2022


Pair  time (%) = 1.43489 (0.0238589)
Neigh time (%) = 2.87345 (0.0477789)
Comm  time (%) = 18.7709 (0.312117)
Outpt time (%) = 0.00280909 (4.67089e-05)
Other time (%) = 5990.96 (99.6162)

Nlocal:    106.35 ave 1347 max 0 min
Histogram: 32 3 3 0 0 0 0 0 0 2
Nghost:    15.05 ave 169 max 0 min
Histogram: 35 0 1 0 1 1 0 0 0 2
Neighs:    28.15 ave 399 max 0 min
Histogram: 36 1 0 0 0 1 0 0 0 2

Total # of neighbors = 1126
Ave neighs/atom = 0.264692
Neighbor list builds = 1112
Dangerous builds = 0
write_dump all custom dump.atom_info_ac_* id type x y z radius vx vy vz density #
run 308697
Setting up run at Sun Nov 27 12:27:41 2022

Memory usage per processor = 1088.62 Mbytes
    Step    Atoms         KinEng            CPU 
17595731     4254     0.02955601              0 
17904428     4251    0.030259922        6046.97 
Loop time of 6046.97 on 40 procs for 308697 steps with 4251 atoms, finish time Sun Nov 27 14:08:28 2022


Pair  time (%) = 1.43753 (0.0237727)
Neigh time (%) = 2.18473 (0.0361293)
Comm  time (%) = 15.5389 (0.25697)
Outpt time (%) = 0.00276146 (4.56668e-05)
Other time (%) = 6027.81 (99.6831)

Nlocal:    106.275 ave 1351 max 0 min
Histogram: 32 3 3 0 0 0 0 0 0 2
Nghost:    15.55 ave 175 max 0 min
Histogram: 35 0 1 0 1 1 0 0 0 2
Neighs:    27.5 ave 378 max 0 min
Histogram: 35 2 0 0 0 1 0 0 0 2

Total # of neighbors = 1100
Ave neighs/atom = 0.258763
Neighbor list builds = 853
Dangerous builds = 0
write_dump all custom dump.atom_info_ac_* id type x y z radius vx vy vz density #
run 308697
Setting up run at Sun Nov 27 14:08:28 2022

Memory usage per processor = 1088.62 Mbytes
    Step    Atoms         KinEng            CPU 
17904428     4251    0.030259922              0 
18213125     4246    0.030463299      6023.1683 
Loop time of 6023.17 on 40 procs for 308697 steps with 4246 atoms, finish time Sun Nov 27 15:48:51 2022


Pair  time (%) = 1.41866 (0.0235534)
Neigh time (%) = 2.22769 (0.0369854)
Comm  time (%) = 15.1613 (0.251716)
Outpt time (%) = 0.000755709 (1.25467e-05)
Other time (%) = 6004.37 (99.6877)

Nlocal:    106.15 ave 1340 max 0 min
Histogram: 32 3 2 1 0 0 0 0 0 2
Nghost:    15.5 ave 175 max 0 min
Histogram: 35 1 0 0 1 1 0 0 0 2
Neighs:    27.45 ave 380 max 0 min
Histogram: 35 1 1 0 0 1 0 0 1 1

Total # of neighbors = 1098
Ave neighs/atom = 0.258596
Neighbor list builds = 869
Dangerous builds = 0
write_dump all custom dump.atom_info_ac_* id type x y z radius vx vy vz density #
run 308697
Setting up run at Sun Nov 27 15:48:51 2022

Memory usage per processor = 1088.62 Mbytes
    Step    Atoms         KinEng            CPU 
18213125     4246    0.030463299              0 
18521822     4243    0.030897953      6014.5561 
Loop time of 6014.56 on 40 procs for 308697 steps with 4243 atoms, finish time Sun Nov 27 17:29:06 2022


Pair  time (%) = 1.42801 (0.0237426)
Neigh time (%) = 2.30852 (0.0383821)
Comm  time (%) = 16.0136 (0.266248)
Outpt time (%) = 0.00252022 (4.1902e-05)
Other time (%) = 5994.81 (99.6716)

Nlocal:    106.075 ave 1339 max 0 min
Histogram: 32 2 4 0 0 0 0 0 0 2
Nghost:    14.975 ave 179 max 0 min
Histogram: 35 1 0 0 2 0 0 0 1 1
Neighs:    27.6 ave 375 max 0 min
Histogram: 35 1 1 0 0 1 0 0 1 1

Total # of neighbors = 1104
Ave neighs/atom = 0.260193
Neighbor list builds = 897
Dangerous builds = 0
write_dump all custom dump.atom_info_ac_* id type x y z radius vx vy vz density #
run 308697
Setting up run at Sun Nov 27 17:29:06 2022

Memory usage per processor = 1088.62 Mbytes
    Step    Atoms         KinEng            CPU 
18521822     4243    0.030897953              0 
18830519     4241    0.031518916      6025.9242 
Loop time of 6025.92 on 40 procs for 308697 steps with 4241 atoms, finish time Sun Nov 27 19:09:32 2022


Pair  time (%) = 1.44642 (0.0240033)
Neigh time (%) = 2.3156 (0.0384273)
Comm  time (%) = 16.3313 (0.271018)
Outpt time (%) = 0.00228649 (3.79442e-05)
Other time (%) = 6005.83 (99.6665)

Nlocal:    106.025 ave 1327 max 0 min
Histogram: 32 4 1 1 0 0 0 0 0 2
Nghost:    15.325 ave 192 max 0 min
Histogram: 35 1 0 1 0 1 0 0 1 1
Neighs:    27.125 ave 357 max 0 min
Histogram: 36 0 0 1 0 0 1 0 1 1

Total # of neighbors = 1085
Ave neighs/atom = 0.255836
Neighbor list builds = 901
Dangerous builds = 0
write_dump all custom dump.atom_info_ac_* id type x y z radius vx vy vz density #
run 308697
Setting up run at Sun Nov 27 19:09:32 2022

Memory usage per processor = 1088.62 Mbytes
    Step    Atoms         KinEng            CPU 
18830519     4241    0.031518916              0 
19139216     4235    0.031830901      6009.4642 
Loop time of 6009.46 on 40 procs for 308697 steps with 4235 atoms, finish time Sun Nov 27 20:49:42 2022


Pair  time (%) = 1.42897 (0.0237786)
Neigh time (%) = 2.2198 (0.0369383)
Comm  time (%) = 14.6352 (0.243537)
Outpt time (%) = 0.00263455 (4.38401e-05)
Other time (%) = 5991.18 (99.6957)

Nlocal:    105.875 ave 1323 max 0 min
Histogram: 32 3 2 1 0 0 0 0 0 2
Nghost:    14.925 ave 167 max 0 min
Histogram: 35 0 1 0 1 1 0 0 0 2
Neighs:    25.475 ave 352 max 0 min
Histogram: 36 1 0 0 0 0 1 0 1 1

Total # of neighbors = 1019
Ave neighs/atom = 0.240614
Neighbor list builds = 864
Dangerous builds = 0
write_dump all custom dump.atom_info_ac_* id type x y z radius vx vy vz density #
run 308697
Setting up run at Sun Nov 27 20:49:42 2022

Memory usage per processor = 1088.62 Mbytes
    Step    Atoms         KinEng            CPU 
19139216     4235    0.031830901              0 
19447913     4233    0.032241056      6041.3691 
Loop time of 6041.37 on 40 procs for 308697 steps with 4233 atoms, finish time Sun Nov 27 22:30:24 2022


Pair  time (%) = 1.42426 (0.0235752)
Neigh time (%) = 2.27128 (0.0375954)
Comm  time (%) = 15.8285 (0.262002)
Outpt time (%) = 0.00263134 (4.35553e-05)
Other time (%) = 6021.84 (99.6768)

Nlocal:    105.825 ave 1324 max 0 min
Histogram: 32 3 3 0 0 0 0 0 0 2
Nghost:    14.575 ave 168 max 0 min
Histogram: 35 1 0 0 1 1 0 0 0 2
Neighs:    25.35 ave 336 max 0 min
Histogram: 35 2 0 0 0 0 1 0 0 2

Total # of neighbors = 1014
Ave neighs/atom = 0.239546
Neighbor list builds = 882
Dangerous builds = 0
write_dump all custom dump.atom_info_ac_* id type x y z radius vx vy vz density #
run 308697
Setting up run at Sun Nov 27 22:30:24 2022

Memory usage per processor = 1088.62 Mbytes
    Step    Atoms         KinEng            CPU 
19447913     4233    0.032241056              0 
19756610     4230    0.032743834      5973.2336 
Loop time of 5973.23 on 40 procs for 308697 steps with 4230 atoms, finish time Mon Nov 28 00:09:57 2022


Pair  time (%) = 1.42033 (0.0237782)
Neigh time (%) = 2.25572 (0.0377638)
Comm  time (%) = 15.7514 (0.263699)
Outpt time (%) = 0.00249736 (4.18091e-05)
Other time (%) = 5953.8 (99.6747)

Nlocal:    105.75 ave 1313 max 0 min
Histogram: 32 3 3 0 0 0 0 0 0 2
Nghost:    14.9 ave 176 max 0 min
Histogram: 35 1 0 0 1 1 0 0 0 2
Neighs:    25.4 ave 319 max 0 min
Histogram: 35 1 0 1 1 0 0 0 0 2

Total # of neighbors = 1016
Ave neighs/atom = 0.240189
Neighbor list builds = 879
Dangerous builds = 0
write_dump all custom dump.atom_info_ac_* id type x y z radius vx vy vz density #
run 308697
Setting up run at Mon Nov 28 00:09:57 2022

Memory usage per processor = 1088.62 Mbytes
    Step    Atoms         KinEng            CPU 
19756610     4230    0.032743834              0 
20065307     4228     0.03322824      6033.5337 
Loop time of 6033.53 on 40 procs for 308697 steps with 4228 atoms, finish time Mon Nov 28 01:50:31 2022


Pair  time (%) = 1.42261 (0.0235783)
Neigh time (%) = 2.28125 (0.0378095)
Comm  time (%) = 15.8805 (0.263204)
Outpt time (%) = 0.0025482 (4.2234e-05)
Other time (%) = 6013.95 (99.6754)

Nlocal:    105.7 ave 1311 max 0 min
Histogram: 32 3 3 0 0 0 0 0 0 2
Nghost:    14.425 ave 168 max 0 min
Histogram: 34 2 0 1 1 0 0 0 0 2
Neighs:    25.225 ave 314 max 0 min
Histogram: 34 3 0 0 0 0 0 1 0 2

Total # of neighbors = 1009
Ave neighs/atom = 0.238647
Neighbor list builds = 886
Dangerous builds = 0
write_dump all custom dump.atom_info_ac_* id type x y z radius vx vy vz density #
run 308697
Setting up run at Mon Nov 28 01:50:31 2022

Memory usage per processor = 1088.62 Mbytes
    Step    Atoms         KinEng            CPU 
20065307     4228     0.03322824              0 
20374004     4226    0.033627529      5997.6781 
Loop time of 5997.69 on 40 procs for 308697 steps with 4226 atoms, finish time Mon Nov 28 03:30:29 2022


Pair  time (%) = 1.42955 (0.0238349)
Neigh time (%) = 2.12345 (0.0354045)
Comm  time (%) = 13.4603 (0.224424)
Outpt time (%) = 0.00235767 (3.93096e-05)
Other time (%) = 5980.67 (99.7163)

Nlocal:    105.65 ave 1309 max 0 min
Histogram: 32 4 1 1 0 0 0 0 0 2
Nghost:    13.8 ave 182 max 0 min
Histogram: 36 0 0 1 1 0 0 0 1 1
Neighs:    24.3 ave 303 max 0 min
Histogram: 35 2 0 0 0 0 0 0 1 2

Total # of neighbors = 972
Ave neighs/atom = 0.230005
Neighbor list builds = 828
Dangerous builds = 0
write_dump all custom dump.atom_info_ac_* id type x y z radius vx vy vz density #
run 308697
Setting up run at Mon Nov 28 03:30:29 2022

Memory usage per processor = 1088.62 Mbytes
    Step    Atoms         KinEng            CPU 
20374004     4226    0.033627529              0 
20682701     4224    0.034179058      6003.8622 
Loop time of 6003.86 on 40 procs for 308697 steps with 4224 atoms, finish time Mon Nov 28 05:10:33 2022


Pair  time (%) = 1.43033 (0.0238235)
Neigh time (%) = 2.19473 (0.0365553)
Comm  time (%) = 13.6998 (0.228182)
Outpt time (%) = 0.00254815 (4.24418e-05)
Other time (%) = 5986.54 (99.7114)

Nlocal:    105.6 ave 1305 max 0 min
Histogram: 32 1 5 0 0 0 0 0 0 2
Nghost:    13.4 ave 156 max 0 min
Histogram: 34 2 0 0 2 0 0 0 1 1
Neighs:    24.15 ave 295 max 0 min
Histogram: 34 3 0 0 0 0 1 0 0 2

Total # of neighbors = 966
Ave neighs/atom = 0.228693
Neighbor list builds = 853
Dangerous builds = 0
write_dump all custom dump.atom_info_ac_* id type x y z radius vx vy vz density #
run 308697
Setting up run at Mon Nov 28 05:10:33 2022

Memory usage per processor = 1088.62 Mbytes
    Step    Atoms         KinEng            CPU 
20682701     4224    0.034179058              0 
20991398     4219    0.034388954      6236.7762 
Loop time of 6236.78 on 40 procs for 308697 steps with 4219 atoms, finish time Mon Nov 28 06:54:30 2022


Pair  time (%) = 1.42575 (0.0228603)
Neigh time (%) = 2.21562 (0.035525)
Comm  time (%) = 15.6768 (0.25136)
Outpt time (%) = 0.00236535 (3.79258e-05)
Other time (%) = 6217.46 (99.6902)

Nlocal:    105.475 ave 1303 max 0 min
Histogram: 32 4 1 1 0 0 0 0 0 2
Nghost:    13.625 ave 165 max 0 min
Histogram: 34 2 0 0 2 0 0 0 1 1
Neighs:    24.975 ave 305 max 0 min
Histogram: 34 2 1 0 0 0 0 1 0 2

Total # of neighbors = 999
Ave neighs/atom = 0.236786
Neighbor list builds = 863
Dangerous builds = 0
write_dump all custom dump.atom_info_ac_* id type x y z radius vx vy vz density #
run 308697
Setting up run at Mon Nov 28 06:54:30 2022

Memory usage per processor = 1088.62 Mbytes
    Step    Atoms         KinEng            CPU 
20991398     4219    0.034388954              0 
21300095     4213    0.034918623      5992.1924 
Loop time of 5992.19 on 40 procs for 308697 steps with 4213 atoms, finish time Mon Nov 28 08:34:22 2022


Pair  time (%) = 1.41875 (0.0236767)
Neigh time (%) = 2.30309 (0.0384349)
Comm  time (%) = 15.7495 (0.262834)
Outpt time (%) = 0.00238156 (3.97443e-05)
Other time (%) = 5972.72 (99.675)

Nlocal:    105.325 ave 1296 max 0 min
Histogram: 32 3 3 0 0 0 0 0 0 2
Nghost:    13.7 ave 173 max 0 min
Histogram: 36 0 0 1 1 0 0 0 0 2
Neighs:    25.5 ave 302 max 0 min
Histogram: 33 3 1 0 0 0 0 1 0 2

Total # of neighbors = 1020
Ave neighs/atom = 0.242108
Neighbor list builds = 894
Dangerous builds = 0
write_dump all custom dump.atom_info_ac_* id type x y z radius vx vy vz density #
run 308697
Setting up run at Mon Nov 28 08:34:22 2022

Memory usage per processor = 1088.62 Mbytes
    Step    Atoms         KinEng            CPU 
21300095     4213    0.034918623              0 
21608792     4208    0.035253225      6024.6985 
Loop time of 6024.7 on 40 procs for 308697 steps with 4208 atoms, finish time Mon Nov 28 10:14:47 2022


Pair  time (%) = 1.44781 (0.0240313)
Neigh time (%) = 2.33126 (0.038695)
Comm  time (%) = 16.242 (0.26959)
Outpt time (%) = 0.00245156 (4.06918e-05)
Other time (%) = 6004.68 (99.6676)

Nlocal:    105.2 ave 1287 max 0 min
Histogram: 32 2 4 0 0 0 0 0 0 2
Nghost:    13.45 ave 166 max 0 min
Histogram: 34 1 1 2 0 0 0 0 1 1
Neighs:    25.95 ave 299 max 0 min
Histogram: 34 2 1 0 0 0 0 1 0 2

Total # of neighbors = 1038
Ave neighs/atom = 0.246673
Neighbor list builds = 906
Dangerous builds = 0
write_dump all custom dump.atom_info_ac_* id type x y z radius vx vy vz density #
run 308697
Setting up run at Mon Nov 28 10:14:47 2022

Memory usage per processor = 1088.62 Mbytes
    Step    Atoms         KinEng            CPU 
21608792     4208    0.035253225              0 
21917489     4204      0.0356907      6032.9305 
Loop time of 6032.94 on 40 procs for 308697 steps with 4204 atoms, finish time Mon Nov 28 11:55:20 2022


Pair  time (%) = 1.4377 (0.0238308)
Neigh time (%) = 2.54523 (0.0421888)
Comm  time (%) = 17.3862 (0.288187)
Outpt time (%) = 0.00255 (4.2268e-05)
Other time (%) = 6011.56 (99.6458)

Nlocal:    105.1 ave 1281 max 0 min
Histogram: 32 3 3 0 0 0 0 0 0 2
Nghost:    14.125 ave 162 max 0 min
Histogram: 34 1 1 0 2 0 0 0 0 2
Neighs:    25.9 ave 303 max 0 min
Histogram: 33 4 0 0 0 0 0 1 0 2

Total # of neighbors = 1036
Ave neighs/atom = 0.246432
Neighbor list builds = 986
Dangerous builds = 0
write_dump all custom dump.atom_info_ac_* id type x y z radius vx vy vz density #
run 308697
Setting up run at Mon Nov 28 11:55:21 2022

Memory usage per processor = 1088.62 Mbytes
    Step    Atoms         KinEng            CPU 
21917489     4204      0.0356907              0 
22226186     4200     0.03602659      6084.7043 
Loop time of 6084.72 on 40 procs for 308697 steps with 4200 atoms, finish time Mon Nov 28 13:36:45 2022


Pair  time (%) = 1.42621 (0.0234392)
Neigh time (%) = 2.58733 (0.0425217)
Comm  time (%) = 17.3112 (0.284504)
Outpt time (%) = 0.00248447 (4.08312e-05)
Other time (%) = 6063.39 (99.6495)

Nlocal:    105 ave 1276 max 0 min
Histogram: 32 3 3 0 0 0 0 0 0 2
Nghost:    13.875 ave 162 max 0 min
Histogram: 34 2 0 0 2 0 0 0 0 2
Neighs:    25.675 ave 303 max 0 min
Histogram: 32 5 0 0 0 0 0 1 0 2

Total # of neighbors = 1027
Ave neighs/atom = 0.244524
Neighbor list builds = 1001
Dangerous builds = 0
write_dump all custom dump.atom_info_ac_* id type x y z radius vx vy vz density #
run 308697
Setting up run at Mon Nov 28 13:36:45 2022

Memory usage per processor = 1088.62 Mbytes
    Step    Atoms         KinEng            CPU 
22226186     4200     0.03602659              0 
22534883     4197    0.036579105      6052.7025 
Loop time of 6052.72 on 40 procs for 308697 steps with 4197 atoms, finish time Mon Nov 28 15:17:38 2022


Pair  time (%) = 1.46911 (0.024272)
Neigh time (%) = 2.32124 (0.0383505)
Comm  time (%) = 16.2669 (0.268754)
Outpt time (%) = 0.00235382 (3.88887e-05)
Other time (%) = 6032.66 (99.6686)

Nlocal:    104.925 ave 1276 max 0 min
Histogram: 32 3 2 1 0 0 0 0 0 2
Nghost:    14.725 ave 163 max 0 min
Histogram: 33 2 1 0 2 0 0 0 0 2
Neighs:    25.675 ave 294 max 0 min
Histogram: 33 2 1 1 0 0 1 0 0 2

Total # of neighbors = 1027
Ave neighs/atom = 0.244699
Neighbor list builds = 902
Dangerous builds = 0
write_dump all custom dump.atom_info_ac_* id type x y z radius vx vy vz density #
run 308697
Setting up run at Mon Nov 28 15:17:38 2022

Memory usage per processor = 1088.62 Mbytes
    Step    Atoms         KinEng            CPU 
22534883     4197    0.036579105              0 
22843580     4193    0.036906158      6047.9504 
Loop time of 6047.95 on 40 procs for 308697 steps with 4193 atoms, finish time Mon Nov 28 16:58:27 2022


Pair  time (%) = 1.44625 (0.023913)
Neigh time (%) = 2.25693 (0.0373173)
Comm  time (%) = 16.0294 (0.265038)
Outpt time (%) = 0.00254129 (4.2019e-05)
Other time (%) = 6028.22 (99.6737)

Nlocal:    104.825 ave 1270 max 0 min
Histogram: 32 3 2 1 0 0 0 0 0 2
Nghost:    14.125 ave 179 max 0 min
Histogram: 36 0 0 2 0 0 0 0 0 2
Neighs:    25.425 ave 301 max 0 min
Histogram: 34 2 1 0 0 0 0 0 2 1

Total # of neighbors = 1017
Ave neighs/atom = 0.242547
Neighbor list builds = 876
Dangerous builds = 0
write_dump all custom dump.atom_info_ac_* id type x y z radius vx vy vz density #
run 308697
Setting up run at Mon Nov 28 16:58:27 2022

Memory usage per processor = 1088.62 Mbytes
    Step    Atoms         KinEng            CPU 
22843580     4193    0.036906158              0 
23152277     4189    0.037151109      6083.1618 
Loop time of 6083.16 on 40 procs for 308697 steps with 4189 atoms, finish time Mon Nov 28 18:39:50 2022


Pair  time (%) = 1.43826 (0.0236433)
Neigh time (%) = 2.25553 (0.0370783)
Comm  time (%) = 16.225 (0.26672)
Outpt time (%) = 0.00239541 (3.93777e-05)
Other time (%) = 6063.24 (99.6725)

Nlocal:    104.725 ave 1269 max 0 min
Histogram: 32 4 1 1 0 0 0 0 0 2
Nghost:    13.85 ave 181 max 0 min
Histogram: 34 2 0 2 0 0 0 1 0 1
Neighs:    26.25 ave 302 max 0 min
Histogram: 33 2 2 0 0 0 0 0 1 2

Total # of neighbors = 1050
Ave neighs/atom = 0.250656
Neighbor list builds = 878
Dangerous builds = 0
write_dump all custom dump.atom_info_ac_* id type x y z radius vx vy vz density #
run 308697
Setting up run at Mon Nov 28 18:39:50 2022

Memory usage per processor = 1088.62 Mbytes
    Step    Atoms         KinEng            CPU 
23152277     4189    0.037151109              0 
23460974     4186    0.037567246      6105.9838 
Loop time of 6105.98 on 40 procs for 308697 steps with 4186 atoms, finish time Mon Nov 28 20:21:36 2022


Pair  time (%) = 1.42997 (0.0234191)
Neigh time (%) = 2.23802 (0.0366529)
Comm  time (%) = 15.8859 (0.260169)
Outpt time (%) = 0.00241429 (3.95397e-05)
Other time (%) = 6086.43 (99.6797)

Nlocal:    104.65 ave 1264 max 0 min
Histogram: 32 1 5 0 0 0 0 0 0 2
Nghost:    14.35 ave 162 max 0 min
Histogram: 33 2 1 1 1 0 0 0 1 1
Neighs:    26.15 ave 286 max 0 min
Histogram: 33 3 1 0 0 0 0 0 2 1

Total # of neighbors = 1046
Ave neighs/atom = 0.249881
Neighbor list builds = 868
Dangerous builds = 0
write_dump all custom dump.atom_info_ac_* id type x y z radius vx vy vz density #
run 308697
Setting up run at Mon Nov 28 20:21:36 2022

Memory usage per processor = 1088.62 Mbytes
    Step    Atoms         KinEng            CPU 
23460974     4186    0.037567246              0 
23769671     4183    0.037995661      6047.4133 
Loop time of 6047.41 on 40 procs for 308697 steps with 4183 atoms, finish time Mon Nov 28 22:02:24 2022


Pair  time (%) = 1.42624 (0.0235843)
Neigh time (%) = 2.22397 (0.0367756)
Comm  time (%) = 16.1889 (0.267699)
Outpt time (%) = 0.00233038 (3.85351e-05)
Other time (%) = 6027.57 (99.6719)

Nlocal:    104.575 ave 1265 max 0 min
Histogram: 32 4 1 1 0 0 0 0 0 2
Nghost:    13.35 ave 183 max 0 min
Histogram: 35 1 0 2 0 0 0 0 1 1
Neighs:    26.3 ave 309 max 0 min
Histogram: 35 1 0 1 0 0 0 0 1 2

Total # of neighbors = 1052
Ave neighs/atom = 0.251494
Neighbor list builds = 864
Dangerous builds = 0
write_dump all custom dump.atom_info_ac_* id type x y z radius vx vy vz density #
run 308697
Setting up run at Mon Nov 28 22:02:24 2022

Memory usage per processor = 1088.62 Mbytes
    Step    Atoms         KinEng            CPU 
23769671     4183    0.037995661              0 
24078368     4178    0.038386226      6034.5793 
Loop time of 6034.58 on 40 procs for 308697 steps with 4178 atoms, finish time Mon Nov 28 23:42:59 2022


Pair  time (%) = 1.43427 (0.0237675)
Neigh time (%) = 2.46122 (0.0407853)
Comm  time (%) = 17.2634 (0.286075)
Outpt time (%) = 0.0025577 (4.2384e-05)
Other time (%) = 6013.42 (99.6493)

Nlocal:    104.45 ave 1258 max 0 min
Histogram: 32 3 2 1 0 0 0 0 0 2
Nghost:    14.05 ave 156 max 0 min
Histogram: 32 2 2 1 1 0 0 0 1 1
Neighs:    25.8 ave 288 max 0 min
Histogram: 34 2 0 1 0 0 0 0 1 2

Total # of neighbors = 1032
Ave neighs/atom = 0.247008
Neighbor list builds = 952
Dangerous builds = 0
write_dump all custom dump.atom_info_ac_* id type x y z radius vx vy vz density #
run 308697
Setting up run at Mon Nov 28 23:42:59 2022

Memory usage per processor = 1088.62 Mbytes
    Step    Atoms         KinEng            CPU 
24078368     4178    0.038386226              0 
24387065     4174    0.038751978      6068.9656 
Loop time of 6068.97 on 40 procs for 308697 steps with 4174 atoms, finish time Tue Nov 29 01:24:08 2022


Pair  time (%) = 1.43822 (0.0236979)
Neigh time (%) = 2.55608 (0.0421172)
Comm  time (%) = 17.7845 (0.29304)
Outpt time (%) = 0.00245609 (4.04697e-05)
Other time (%) = 6047.18 (99.6411)

Nlocal:    104.35 ave 1252 max 0 min
Histogram: 32 2 3 1 0 0 0 0 0 2
Nghost:    14.125 ave 172 max 0 min
Histogram: 35 1 0 2 0 0 0 0 0 2
Neighs:    25.625 ave 289 max 0 min
Histogram: 34 0 2 1 0 0 0 0 2 1

Total # of neighbors = 1025
Ave neighs/atom = 0.245568
Neighbor list builds = 989
Dangerous builds = 0
write_dump all custom dump.atom_info_ac_* id type x y z radius vx vy vz density #
run 308697
Setting up run at Tue Nov 29 01:24:08 2022

Memory usage per processor = 1088.62 Mbytes
    Step    Atoms         KinEng            CPU 
24387065     4174    0.038751978              0 
24695762     4168    0.039300251      6028.3996 
Loop time of 6028.42 on 40 procs for 308697 steps with 4168 atoms, finish time Tue Nov 29 03:04:36 2022


Pair  time (%) = 1.44645 (0.0239938)
Neigh time (%) = 2.25657 (0.0374322)
[...]


Pair  time (%) = 1.8342 (0.0296475)
Neigh time (%) = 2.27622 (0.0367921)
Comm  time (%) = 16.0939 (0.260137)
Outpt time (%) = 0.00299021 (4.83329e-05)
Other time (%) = 6166.49 (99.6734)

Nlocal:    93.675 ave 1004 max 0 min
Histogram: 32 2 1 2 1 0 0 0 0 2
Nghost:    12.65 ave 159 max 0 min
Histogram: 33 2 1 2 0 1 0 0 0 1
Neighs:    27.025 ave 458 max 0 min
Histogram: 34 1 4 0 0 0 0 0 0 1

Total # of neighbors = 1081
Ave neighs/atom = 0.288497
Neighbor list builds = 879
Dangerous builds = 0
write_dump all custom dump.atom_info_ac_* id type x y z radius vx vy vz density #
run 308697
Setting up run at Mon Dec  5 23:53:04 2022

Memory usage per processor = 1088.62 Mbytes
    Step    Atoms         KinEng            CPU 
54330723     3747    0.054457558              0 
54639420     3745    0.054311022      6227.9621 
Loop time of 6227.97 on 40 procs for 308697 steps with 3745 atoms, finish time Tue Dec  6 01:36:52 2022


Pair  time (%) = 1.86459 (0.029939)
Neigh time (%) = 2.40462 (0.03861)
Comm  time (%) = 16.8265 (0.270176)
Outpt time (%) = 0.00283921 (4.55881e-05)
Other time (%) = 6206.87 (99.6612)

Nlocal:    93.625 ave 999 max 0 min
Histogram: 32 2 2 1 1 0 0 0 0 2
Nghost:    12.125 ave 109 max 0 min
Histogram: 32 1 3 0 0 1 0 1 1 1
Neighs:    26.25 ave 407 max 0 min
Histogram: 34 1 3 0 1 0 0 0 0 1

Total # of neighbors = 1050
Ave neighs/atom = 0.280374
Neighbor list builds = 935
Dangerous builds = 0
write_dump all custom dump.atom_info_ac_* id type x y z radius vx vy vz density #
run 308697
Setting up run at Tue Dec  6 01:36:53 2022

Memory usage per processor = 1088.62 Mbytes
    Step    Atoms         KinEng            CPU 
54639420     3745    0.054311022              0 
54948117     3742    0.054352841      6187.7403 
Loop time of 6187.74 on 40 procs for 308697 steps with 3742 atoms, finish time Tue Dec  6 03:20:00 2022


Pair  time (%) = 1.85486 (0.0299763)
Neigh time (%) = 2.42163 (0.0391359)
Comm  time (%) = 16.9373 (0.273723)
Outpt time (%) = 0.00309728 (5.00551e-05)
Other time (%) = 6166.52 (99.6571)

Nlocal:    93.55 ave 995 max 0 min
Histogram: 32 1 3 1 1 0 0 0 0 2
Nghost:    13.025 ave 127 max 0 min
Histogram: 31 2 3 0 2 0 0 0 1 1
Neighs:    26.475 ave 444 max 0 min
Histogram: 33 2 4 0 0 0 0 0 0 1

Total # of neighbors = 1059
Ave neighs/atom = 0.283004
Neighbor list builds = 938
Dangerous builds = 0
write_dump all custom dump.atom_info_ac_* id type x y z radius vx vy vz density #
run 308697
Setting up run at Tue Dec  6 03:20:01 2022

Memory usage per processor = 1088.62 Mbytes
    Step    Atoms         KinEng            CPU 
54948117     3742    0.054352841              0 
55256814     3740    0.054306808      6223.9701 
Loop time of 6223.98 on 40 procs for 308697 steps with 3740 atoms, finish time Tue Dec  6 05:03:45 2022


Pair  time (%) = 1.8503 (0.0297286)
Neigh time (%) = 2.38389 (0.0383017)
Comm  time (%) = 16.6108 (0.266885)
Outpt time (%) = 0.00288228 (4.63093e-05)
Other time (%) = 6203.13 (99.665)

Nlocal:    93.5 ave 996 max 0 min
Histogram: 32 2 2 1 1 0 0 0 0 2
Nghost:    12.375 ave 102 max 0 min
Histogram: 30 3 2 0 1 1 1 0 0 2
Neighs:    25.2 ave 396 max 0 min
Histogram: 34 1 3 0 1 0 0 0 0 1

Total # of neighbors = 1008
Ave neighs/atom = 0.269519
Neighbor list builds = 919
Dangerous builds = 0
write_dump all custom dump.atom_info_ac_* id type x y z radius vx vy vz density #
run 308697
Setting up run at Tue Dec  6 05:03:45 2022

Memory usage per processor = 1088.62 Mbytes
    Step    Atoms         KinEng            CPU 
55256814     3740    0.054306808              0 
55565511     3737    0.054258552      6188.4387 
Loop time of 6188.47 on 40 procs for 308697 steps with 3737 atoms, finish time Tue Dec  6 06:46:53 2022


Pair  time (%) = 1.83095 (0.0295865)
Neigh time (%) = 2.36345 (0.0381913)
Comm  time (%) = 16.5304 (0.267116)
Outpt time (%) = 0.0029696 (4.79861e-05)
Other time (%) = 6167.74 (99.6651)

Nlocal:    93.425 ave 995 max 0 min
Histogram: 32 1 2 2 1 0 0 0 0 2
Nghost:    13.625 ave 162 max 0 min
Histogram: 31 5 2 0 0 0 0 1 0 1
Neighs:    26.25 ave 414 max 0 min
Histogram: 33 2 3 1 0 0 0 0 0 1

Total # of neighbors = 1050
Ave neighs/atom = 0.280974
Neighbor list builds = 915
Dangerous builds = 0
write_dump all custom dump.atom_info_ac_* id type x y z radius vx vy vz density #
run 308697
Setting up run at Tue Dec  6 06:46:53 2022

Memory usage per processor = 1088.62 Mbytes
    Step    Atoms         KinEng            CPU 
55565511     3737    0.054258552              0 
55874208     3736    0.054395917      6235.1978 
Loop time of 6235.2 on 40 procs for 308697 steps with 3736 atoms, finish time Tue Dec  6 08:30:49 2022


Pair  time (%) = 1.86709 (0.0299444)
Neigh time (%) = 2.31304 (0.0370966)
Comm  time (%) = 16.5925 (0.266111)
Outpt time (%) = 0.00280247 (4.4946e-05)
Other time (%) = 6214.42 (99.6668)

Nlocal:    93.4 ave 993 max 0 min
Histogram: 32 1 3 1 0 1 0 0 0 2
Nghost:    12.55 ave 104 max 0 min
Histogram: 31 2 1 1 0 3 0 0 0 2
Neighs:    27.15 ave 440 max 0 min
Histogram: 34 1 3 0 1 0 0 0 0 1

Total # of neighbors = 1086
Ave neighs/atom = 0.290685
Neighbor list builds = 903
Dangerous builds = 0
write_dump all custom dump.atom_info_ac_* id type x y z radius vx vy vz density #
run 308697
Setting up run at Tue Dec  6 08:30:49 2022

Memory usage per processor = 1088.62 Mbytes
    Step    Atoms         KinEng            CPU 
55874208     3736    0.054395917              0 
56182905     3729    0.054474591      6238.3148 
Loop time of 6238.32 on 40 procs for 308697 steps with 3729 atoms, finish time Tue Dec  6 10:14:47 2022


Pair  time (%) = 1.89052 (0.0303049)
Neigh time (%) = 2.30088 (0.036883)
Comm  time (%) = 16.1941 (0.259591)
Outpt time (%) = 0.0029618 (4.74776e-05)
Other time (%) = 6217.93 (99.6732)

Nlocal:    93.225 ave 987 max 0 min
Histogram: 32 1 2 2 1 0 0 0 0 2
Nghost:    12.975 ave 163 max 0 min
Histogram: 32 3 3 0 0 0 0 0 0 2
Neighs:    27.225 ave 388 max 0 min
Histogram: 33 0 3 2 1 0 0 0 0 1

Total # of neighbors = 1089
Ave neighs/atom = 0.292035
Neighbor list builds = 892
Dangerous builds = 0
write_dump all custom dump.atom_info_ac_* id type x y z radius vx vy vz density #
run 308697
Setting up run at Tue Dec  6 10:14:47 2022

Memory usage per processor = 1088.62 Mbytes
    Step    Atoms         KinEng            CPU 
56182905     3729    0.054474591              0 
56491602     3727    0.054481968      6477.7536 
Loop time of 6477.75 on 40 procs for 308697 steps with 3727 atoms, finish time Tue Dec  6 12:02:45 2022


Pair  time (%) = 1.89017 (0.0291794)
Neigh time (%) = 2.33177 (0.0359965)
Comm  time (%) = 17.5985 (0.271676)
Outpt time (%) = 0.00285234 (4.40329e-05)
Other time (%) = 6455.93 (99.6631)

Nlocal:    93.175 ave 984 max 0 min
Histogram: 32 2 2 1 0 1 0 0 0 2
Nghost:    13 ave 113 max 0 min
Histogram: 31 1 2 1 3 0 0 0 0 2
Neighs:    28.875 ave 461 max 0 min
Histogram: 33 3 2 0 1 0 0 0 0 1

Total # of neighbors = 1155
Ave neighs/atom = 0.309901
Neighbor list builds = 898
Dangerous builds = 0
write_dump all custom dump.atom_info_ac_* id type x y z radius vx vy vz density #
run 308697
Setting up run at Tue Dec  6 12:02:45 2022

Memory usage per processor = 1088.62 Mbytes
    Step    Atoms         KinEng            CPU 
56491602     3727    0.054481968              0 
56800299     3722     0.05449773      8106.9801 
Loop time of 8106.98 on 40 procs for 308697 steps with 3722 atoms, finish time Tue Dec  6 14:17:53 2022


Pair  time (%) = 1.8709 (0.0230777)
Neigh time (%) = 2.29051 (0.0282535)
Comm  time (%) = 16.136 (0.199038)
Outpt time (%) = 0.00296284 (3.65468e-05)
Other time (%) = 8086.68 (99.7496)

Nlocal:    93.05 ave 982 max 0 min
Histogram: 32 2 1 2 1 0 0 0 0 2
Nghost:    12.55 ave 150 max 0 min
Histogram: 33 2 2 1 0 0 0 0 0 2
Neighs:    28.5 ave 390 max 0 min
Histogram: 33 0 3 2 1 0 0 0 0 1

Total # of neighbors = 1140
Ave neighs/atom = 0.306287
Neighbor list builds = 887
Dangerous builds = 0
write_dump all custom dump.atom_info_ac_* id type x y z radius vx vy vz density #
run 308697
Setting up run at Tue Dec  6 14:17:53 2022

Memory usage per processor = 1088.62 Mbytes
    Step    Atoms         KinEng            CPU 
56800299     3722     0.05449773              0 
57108996     3720    0.054605559      6625.8127 
Loop time of 6625.84 on 40 procs for 308697 steps with 3720 atoms, finish time Tue Dec  6 16:08:19 2022


Pair  time (%) = 1.90211 (0.0287075)
Neigh time (%) = 2.26433 (0.0341742)
Comm  time (%) = 16.3271 (0.246415)
Outpt time (%) = 0.00290342 (4.38196e-05)
Other time (%) = 6605.35 (99.6907)

Nlocal:    93 ave 980 max 0 min
Histogram: 32 1 2 2 0 1 0 0 0 2
Nghost:    12.2 ave 120 max 0 min
Histogram: 33 1 2 0 1 0 0 1 1 1
Neighs:    28.8 ave 446 max 0 min
Histogram: 34 1 3 0 0 1 0 0 0 1

Total # of neighbors = 1152
Ave neighs/atom = 0.309677
Neighbor list builds = 886
Dangerous builds = 0
write_dump all custom dump.atom_info_ac_* id type x y z radius vx vy vz density #
run 308697
Setting up run at Tue Dec  6 16:08:19 2022

Memory usage per processor = 1088.62 Mbytes
    Step    Atoms         KinEng            CPU 
57108996     3720    0.054605559              0 
57417693     3716    0.054760904       6314.566 
Loop time of 6314.57 on 40 procs for 308697 steps with 3716 atoms, finish time Tue Dec  6 17:53:33 2022


Pair  time (%) = 1.92921 (0.0305517)
Neigh time (%) = 2.2917 (0.0362923)
Comm  time (%) = 15.964 (0.252812)
Outpt time (%) = 0.0031283 (4.9541e-05)
Other time (%) = 6294.38 (99.6803)

Nlocal:    92.9 ave 980 max 0 min
Histogram: 32 2 1 2 1 0 0 0 0 2
Nghost:    12.8 ave 148 max 0 min
Histogram: 31 4 3 0 0 0 0 0 0 2
Neighs:    31.05 ave 409 max 0 min
Histogram: 32 3 2 1 0 0 1 0 0 1

Total # of neighbors = 1242
Ave neighs/atom = 0.33423
Neighbor list builds = 885
Dangerous builds = 0
write_dump all custom dump.atom_info_ac_* id type x y z radius vx vy vz density #
run 308697
Setting up run at Tue Dec  6 17:53:34 2022

Memory usage per processor = 1088.62 Mbytes
    Step    Atoms         KinEng            CPU 
57417693     3716    0.054760904              0 
57726390     3712    0.054753799      6246.4629 
Loop time of 6246.46 on 40 procs for 308697 steps with 3712 atoms, finish time Tue Dec  6 19:37:40 2022


Pair  time (%) = 1.95256 (0.0312586)
Neigh time (%) = 2.29123 (0.0366804)
Comm  time (%) = 17.2644 (0.276387)
Outpt time (%) = 0.00291992 (4.67452e-05)
Other time (%) = 6224.95 (99.6556)

Nlocal:    92.8 ave 977 max 0 min
Histogram: 32 1 3 1 0 1 0 0 0 2
Nghost:    12.15 ave 128 max 0 min
Histogram: 32 3 1 0 1 1 0 1 0 1
Neighs:    31.7 ave 440 max 0 min
Histogram: 33 1 4 0 0 0 1 0 0 1

Total # of neighbors = 1268
Ave neighs/atom = 0.341595
Neighbor list builds = 884
Dangerous builds = 0
write_dump all custom dump.atom_info_ac_* id type x y z radius vx vy vz density #
run 308697
Setting up run at Tue Dec  6 19:37:40 2022

Memory usage per processor = 1088.62 Mbytes
    Step    Atoms         KinEng            CPU 
57726390     3712    0.054753799              0 
58035087     3706    0.054729778      6219.1268 
Loop time of 6219.13 on 40 procs for 308697 steps with 3706 atoms, finish time Tue Dec  6 21:21:20 2022


Pair  time (%) = 1.9419 (0.0312246)
Neigh time (%) = 2.29235 (0.0368596)
Comm  time (%) = 16.159 (0.259827)
Outpt time (%) = 0.00313736 (5.04469e-05)
Other time (%) = 6198.74 (99.672)

Nlocal:    92.65 ave 976 max 0 min
Histogram: 32 1 2 2 0 1 0 0 0 2
Nghost:    13.275 ave 140 max 0 min
Histogram: 30 3 4 1 0 0 0 0 1 1
Neighs:    31.15 ave 405 max 0 min
Histogram: 32 3 1 1 1 1 0 0 0 1

Total # of neighbors = 1246
Ave neighs/atom = 0.336212
Neighbor list builds = 886
Dangerous builds = 0
write_dump all custom dump.atom_info_ac_* id type x y z radius vx vy vz density #
run 308697
Setting up run at Tue Dec  6 21:21:20 2022

Memory usage per processor = 1088.62 Mbytes
    Step    Atoms         KinEng            CPU 
58035087     3706    0.054729778              0 
58343784     3703    0.054781053      6352.7102 
Loop time of 6352.71 on 40 procs for 308697 steps with 3703 atoms, finish time Tue Dec  6 23:07:13 2022


Pair  time (%) = 1.95422 (0.030762)
Neigh time (%) = 2.29171 (0.0360744)
Comm  time (%) = 16.3424 (0.257251)
Outpt time (%) = 0.0029003 (4.56545e-05)
Other time (%) = 6332.12 (99.6759)

Nlocal:    92.575 ave 972 max 0 min
Histogram: 32 2 2 1 0 1 0 0 0 2
Nghost:    12.225 ave 136 max 0 min
Histogram: 31 3 2 0 2 0 1 0 0 1
Neighs:    29.275 ave 449 max 0 min
Histogram: 33 3 2 0 1 0 0 0 0 1

Total # of neighbors = 1171
Ave neighs/atom = 0.31623
Neighbor list builds = 894
Dangerous builds = 0
write_dump all custom dump.atom_info_ac_* id type x y z radius vx vy vz density #
run 308697
Setting up run at Tue Dec  6 23:07:13 2022

Memory usage per processor = 1088.62 Mbytes
    Step    Atoms         KinEng            CPU 
58343784     3703    0.054781053              0 
58652481     3698    0.054829776      6192.3776 
Loop time of 6192.38 on 40 procs for 308697 steps with 3698 atoms, finish time Wed Dec  7 00:50:25 2022


Pair  time (%) = 1.95444 (0.031562)
Neigh time (%) = 2.33692 (0.0377387)
Comm  time (%) = 16.1706 (0.261137)
Outpt time (%) = 0.00317359 (5.12499e-05)
Other time (%) = 6171.91 (99.6695)

Nlocal:    92.45 ave 970 max 0 min
Histogram: 32 1 3 1 1 0 0 0 0 2
Nghost:    13.2 ave 117 max 0 min
Histogram: 31 2 1 1 1 2 0 1 0 1
Neighs:    29.95 ave 409 max 0 min
Histogram: 33 2 2 0 1 1 0 0 0 1

Total # of neighbors = 1198
Ave neighs/atom = 0.323959
Neighbor list builds = 904
Dangerous builds = 0
write_dump all custom dump.atom_info_ac_* id type x y z radius vx vy vz density #
run 308697
Setting up run at Wed Dec  7 00:50:25 2022

Memory usage per processor = 1088.62 Mbytes
    Step    Atoms         KinEng            CPU 
58652481     3698    0.054829776              0 
58961178     3692    0.054838251      6218.1965 
Loop time of 6218.2 on 40 procs for 308697 steps with 3692 atoms, finish time Wed Dec  7 02:34:04 2022


Pair  time (%) = 1.9621 (0.0315541)
Neigh time (%) = 2.23668 (0.03597)
Comm  time (%) = 15.9625 (0.256707)
Outpt time (%) = 0.00288856 (4.64534e-05)
Other time (%) = 6198.03 (99.6757)

Nlocal:    92.3 ave 968 max 0 min
Histogram: 32 2 2 1 0 1 0 0 0 2
Nghost:    12.275 ave 121 max 0 min
Histogram: 31 3 1 1 2 0 0 1 0 1
Neighs:    29.35 ave 448 max 0 min
Histogram: 33 2 3 0 1 0 0 0 0 1

Total # of neighbors = 1174
Ave neighs/atom = 0.317985
Neighbor list builds = 864
Dangerous builds = 0
write_dump all custom dump.atom_info_ac_* id type x y z radius vx vy vz density #
run 308697
Setting up run at Wed Dec  7 02:34:04 2022

Memory usage per processor = 1088.62 Mbytes
    Step    Atoms         KinEng            CPU 
58961178     3691    0.054837295              0 
59269875     3690    0.054880959      6161.4955 
Loop time of 6161.5 on 40 procs for 308697 steps with 3690 atoms, finish time Wed Dec  7 04:16:45 2022


Pair  time (%) = 1.93144 (0.031347)
Neigh time (%) = 2.23347 (0.0362488)
Comm  time (%) = 15.7285 (0.255271)
Outpt time (%) = 0.000815347 (1.32329e-05)
Other time (%) = 6141.6 (99.6771)

Nlocal:    92.25 ave 962 max 0 min
Histogram: 32 1 2 2 1 0 0 0 0 2
Nghost:    12.55 ave 102 max 0 min
Histogram: 31 1 2 1 1 1 1 0 1 1
Neighs:    30.05 ave 407 max 0 min
Histogram: 33 2 2 0 1 0 1 0 0 1

Total # of neighbors = 1202
Ave neighs/atom = 0.325745
Neighbor list builds = 866
Dangerous builds = 0
write_dump all custom dump.atom_info_ac_* id type x y z radius vx vy vz density #
run 308697
Setting up run at Wed Dec  7 04:16:45 2022

Memory usage per processor = 1088.62 Mbytes
    Step    Atoms         KinEng            CPU 
59269875     3690    0.054880959              0 
59578572     3686    0.054906985      6208.8417 
Loop time of 6208.86 on 40 procs for 308697 steps with 3686 atoms, finish time Wed Dec  7 06:00:14 2022


Pair  time (%) = 1.95533 (0.0314926)
Neigh time (%) = 2.21346 (0.0356501)
Comm  time (%) = 15.8548 (0.255358)
Outpt time (%) = 0.0029091 (4.6854e-05)
Other time (%) = 6188.83 (99.6775)

Nlocal:    92.15 ave 958 max 0 min
Histogram: 32 1 2 2 0 1 0 0 0 2
Nghost:    12.05 ave 110 max 0 min
Histogram: 31 2 1 1 2 0 1 0 0 2
Neighs:    29.55 ave 454 max 0 min
Histogram: 33 2 3 0 1 0 0 0 0 1

Total # of neighbors = 1182
Ave neighs/atom = 0.320673
Neighbor list builds = 863
Dangerous builds = 0
write_dump all custom dump.atom_info_ac_* id type x y z radius vx vy vz density #
run 308697
Setting up run at Wed Dec  7 06:00:15 2022

Memory usage per processor = 1088.62 Mbytes
    Step    Atoms         KinEng            CPU 
59578572     3686    0.054906985              0 
59887269     3684    0.054905422      6183.3167 
Loop time of 6183.33 on 40 procs for 308697 steps with 3684 atoms, finish time Wed Dec  7 07:43:18 2022


Pair  time (%) = 1.95514 (0.0316195)
Neigh time (%) = 2.21303 (0.0357902)
Comm  time (%) = 15.6373 (0.252895)
Outpt time (%) = 0.00320462 (5.18268e-05)
Other time (%) = 6163.52 (99.6796)

Nlocal:    92.1 ave 958 max 0 min
Histogram: 32 1 2 2 1 0 0 0 0 2
Nghost:    12.725 ave 105 max 0 min
Histogram: 31 1 1 1 1 3 0 0 0 2
Neighs:    30.225 ave 396 max 0 min
Histogram: 33 2 1 2 0 0 0 1 0 1

Total # of neighbors = 1209
Ave neighs/atom = 0.328176
Neighbor list builds = 859
Dangerous builds = 0
write_dump all custom dump.atom_info_ac_* id type x y z radius vx vy vz density #
run 308697
Setting up run at Wed Dec  7 07:43:18 2022

Memory usage per processor = 1088.62 Mbytes
    Step    Atoms         KinEng            CPU 
59887269     3684    0.054905422              0 
60195966     3683    0.054939657      6574.9151 
Loop time of 6574.95 on 40 procs for 308697 steps with 3683 atoms, finish time Wed Dec  7 09:32:53 2022


Pair  time (%) = 1.94828 (0.0296318)
Neigh time (%) = 2.21741 (0.0337251)
Comm  time (%) = 15.7948 (0.240227)
Outpt time (%) = 0.00296284 (4.50626e-05)
Other time (%) = 6554.99 (99.6964)

Nlocal:    92.075 ave 954 max 0 min
Histogram: 32 1 2 2 0 1 0 0 0 2
Nghost:    11.75 ave 139 max 0 min
Histogram: 33 2 1 1 1 0 0 1 0 1
Neighs:    29.7 ave 573 max 0 min
Histogram: 34 2 3 0 0 0 0 0 0 1

Total # of neighbors = 1188
Ave neighs/atom = 0.322563
Neighbor list builds = 859
Dangerous builds = 0
write_dump all custom dump.atom_info_ac_* id type x y z radius vx vy vz density #
run 308697
Setting up run at Wed Dec  7 09:32:53 2022

Memory usage per processor = 1088.62 Mbytes
    Step    Atoms         KinEng            CPU 
60195966     3683    0.054939657              0 
60504663     3681     0.05499454      6425.4224 
Loop time of 6425.42 on 40 procs for 308697 steps with 3681 atoms, finish time Wed Dec  7 11:19:59 2022


Pair  time (%) = 1.92601 (0.0299748)
Neigh time (%) = 2.30713 (0.0359062)
Comm  time (%) = 16.3278 (0.254113)
Outpt time (%) = 0.00307987 (4.79326e-05)
Other time (%) = 6404.86 (99.68)

Nlocal:    92.025 ave 952 max 0 min
Histogram: 32 1 2 2 1 0 0 0 0 2
Nghost:    12.875 ave 113 max 0 min
Histogram: 30 3 1 2 1 0 1 0 1 1
Neighs:    30.325 ave 411 max 0 min
Histogram: 33 2 2 0 1 0 1 0 0 1

Total # of neighbors = 1213
Ave neighs/atom = 0.32953
Neighbor list builds = 893
Dangerous builds = 0
write_dump all custom dump.atom_info_ac_* id type x y z radius vx vy vz density #
run 308697
Setting up run at Wed Dec  7 11:19:59 2022

Memory usage per processor = 1088.62 Mbytes
    Step    Atoms         KinEng            CPU 
60504663     3681     0.05499454              0 
60813360     3681    0.055041297      6603.8157 
Loop time of 6603.82 on 40 procs for 308697 steps with 3681 atoms, finish time Wed Dec  7 13:10:03 2022


Pair  time (%) = 1.97127 (0.0298505)
Neigh time (%) = 2.21916 (0.0336043)
Comm  time (%) = 15.9215 (0.241096)
Outpt time (%) = 0.031678 (0.000479692)
Other time (%) = 6583.67 (99.695)

Nlocal:    92.025 ave 950 max 0 min
Histogram: 32 1 3 1 0 1 0 0 0 2
Nghost:    11.8 ave 144 max 0 min
Histogram: 34 1 1 1 1 0 1 0 0 1
Neighs:    29.475 ave 549 max 0 min
Histogram: 34 2 2 1 0 0 0 0 0 1

Total # of neighbors = 1179
Ave neighs/atom = 0.320293
Neighbor list builds = 865
Dangerous builds = 0
