ITEM: TIMESTEP
13734482
ITEM: NUMBER OF ATOMS
390
ITEM: BOX BOUNDS ff ff ff
-0.15 0.15
-0.15 0.15
-0.15 0.15
ITEM: ATOMS id type x y z radius vx vy vz density 
318 1 -0.00461499 -0.0601968 -0.067997 0.000847 -20.2064 -0.945331 1.37127 2650 
477 1 -0.0149771 -0.0332117 -0.0671162 0.000233 -21.3586 0.036492 4.76622 2650 
346 1 -0.00851865 -0.0126994 -0.0676192 0.000847 -21.1714 2.86224 2.66677 2650 
47 1 -0.0215253 -0.00800152 -0.0646694 0.000847 -27.6016 1.11099 9.18233 2650 
452 1 -0.0244244 -0.00895839 -0.0642834 0.000233 -31.5661 2.96547 11.9933 2650 
448 1 -0.0351455 -0.00150754 -0.0583932 0.000847 -12.5551 -0.0675403 7.55383 2650 
241 1 -0.037431 -0.0539836 -0.0569546 0.000847 -8.90331 -0.057475 5.84981 2650 
134 1 -0.02989 -0.0522868 -0.0557168 0.001312 -8.36366 -1.3948 -0.821267 2650 
315 1 -0.0432834 -0.0116897 -0.0520548 0.001312 -12.1918 -0.427898 10.1259 2650 
397 1 -0.0547011 -0.0492331 -0.0406727 0.000847 -11.3878 -0.950229 15.304 2650 
485 1 -0.0538771 -0.0408658 -0.0417567 0.000847 -11.1521 -0.756733 14.3781 2650 
483 1 -0.0616775 -0.0445673 -0.0307483 8.4e-05 -3.97054 1.99909 7.96375 2650 
111 1 -0.0610987 -0.0179885 -0.0302294 0.000847 -6.79966 0.098361 13.7329 2650 
459 1 -0.0626895 -0.0590097 -0.0267809 0.000847 -7.63452 1.21083 17.8582 2650 
189 1 -0.0638503 -0.0555543 -0.0238858 0.000847 -7.45446 2.09321 19.9128 2650 
10 1 -0.0641906 -0.0252885 -0.0246778 0.000233 -4.55767 -2.08337 11.8526 2650 
367 1 -0.0631573 -0.00176116 -0.0244277 0.001312 -5.75003 1.80313 14.8503 2650 
268 1 -0.0649406 -0.0512429 -0.020605 0.000847 -4.15561 -0.96855 12.8672 2650 
34 1 -0.0665891 -0.0123741 -0.0146067 0.000847 -3.73061 -3.23558 16.995 2650 
250 1 -0.0663382 -0.0282469 -0.013609 0.001312 -3.07154 -0.869897 14.9561 2650 
202 1 -0.0670698 -0.0169912 -0.0122124 0.000847 -3.02905 1.84765 16.6235 2650 
233 1 -0.00611554 -0.00170575 -0.0141335 0.000233 0.001282 -0.0107579 -0.00349916 2650 
284 1 -0.00110933 -0.00094082 -0.0125122 0.000233 -0.0206384 -0.0140589 -0.0121212 2650 
334 1 -0.067552 -0.0124919 -0.00919118 0.000847 -2.8956 -1.73832 21.2668 2650 
13 1 -0.012448 -4.44338e-05 -0.010914 8.4e-05 0 -0.01175 0 2650 
336 1 -0.000699 -0.00270743 -0.008095 0.000233 0 -0.01175 0 2650 
158 1 -0.00471623 -0.00194481 -0.00730756 8.4e-05 -0.00184406 -0.011926 0.00030382 2650 
478 1 -0.010102 -0.00205943 -0.003546 0.000233 0 -0.01175 0 2650 
312 1 -0.006897 -0.000553434 -0.002463 0.000233 0 -0.01175 0 2650 
136 1 -0.00268861 -0.000237005 -0.00298145 0.000847 -0.00107695 -0.00439443 0.0122016 2650 
208 1 -0.003072 -0.00243543 -0.000554 0.000233 0 -0.01175 0 2650 
237 1 -0.000622078 -0.00207193 -0.00119343 0.001312 0.00395758 -0.0083405 0.0115384 2650 
505 1 -0.0145386 -0.000799453 0.00274195 0.000233 -0.00378522 -0.00213289 0.00845565 2650 
256 1 -0.00375348 -0.000703821 0.0022155 0.000847 0.00287093 -0.0109614 -0.0104852 2650 
283 1 -0.00553048 -0.00249648 0.00469407 0.000233 0.00411522 -0.014298 -0.00503883 2650 
495 1 -9.14687e-05 -0.00170719 0.0040838 0.000233 -0.0216097 -0.00536975 0.0219754 2650 
387 1 -0.00130434 -0.00145401 0.00375892 0.000233 -0.011907 -0.0146708 -0.00429125 2650 
135 1 -0.008556 -0.00259443 0.005239 0.000847 0 -0.01175 0 2650 
431 1 -0.007173 -0.00310643 0.006023 8.4e-05 0 -0.01175 0 2650 
223 1 -0.014414 -0.000435434 0.005039 8.4e-05 0 -0.01175 0 2650 
296 1 -0.00639043 -0.0020571 0.00708845 0.000233 -0.0223771 -0.0344718 0.0155639 2650 
82 1 -0.0671857 -0.0272002 0.00852278 0.001312 2.5187 -1.35131 19.835 2650 
88 1 -0.00946167 -0.00319671 0.0118464 0.000233 -0.0146802 -0.0207198 -0.000488194 2650 
355 1 -0.00520047 -0.0023402 0.0122643 0.000847 -0.0143568 -0.0160502 0.021561 2650 
445 1 -0.0662355 -0.0531948 0.0141106 0.001312 3.81068 3.01774 17.8689 2650 
176 1 -0.00862466 -0.00254255 0.0134596 0.000847 0.00111935 -0.0106169 -0.0085356 2650 
311 1 -0.00367074 -0.00284204 0.0130139 0.000233 0.329162 -0.420064 -0.154459 2650 
492 1 -0.000145634 -0.00275834 0.0130753 0.000233 -0.0187418 -0.0143038 0.0254154 2650 
159 1 -0.0658338 -0.0167681 0.0158878 0.001312 5.00925 3.66006 20.7357 2650 
379 1 -0.0061538 -0.00087052 0.0143031 8.4e-05 0.0447025 -0.0299402 0.0259747 2650 
451 1 -0.0639669 -0.0323964 0.023573 0.000847 7.55183 4.46963 20.4782 2650 
243 1 -0.0642105 -0.0302088 0.0228979 0.000847 6.15215 3.42695 17.2396 2650 
286 1 -0.0639122 -0.0225831 0.0253898 0.000233 3.79364 -1.3499 9.54738 2650 
434 1 -0.0619688 -0.0246539 0.0284059 0.000847 6.98353 1.36902 15.2237 2650 
227 1 -0.0100993 -0.0124877 0.0350857 0.000847 -1.40105 -0.881701 4.96751 2650 
497 1 -0.0552497 -0.0519659 0.039146 0.001312 11.126 -1.26366 15.6859 2650 
32 1 -0.0556285 -0.0258484 0.0394027 0.000847 15.8777 1.83476 22.4003 2650 
344 1 -0.0540979 -0.0116934 0.0414691 0.000847 9.29765 1.30836 12.1196 2650 
118 1 -0.0141463 -0.00874746 0.0448049 0.000233 14.3506 -8.24065 3.55844 2650 
155 1 -0.05138 -0.00649691 0.0457078 0.000233 11.9624 0.584722 13.4434 2650 
463 1 -0.0482375 -0.0404299 0.0481559 0.000847 11.4921 -0.823825 11.5024 2650 
204 1 -0.0481991 -0.012094 0.0482001 0.000847 17.7239 3.17741 17.7109 2650 
441 1 -0.0423454 -0.000333524 0.0541829 0.000233 15.0375 -0.0740775 11.7512 2650 
500 1 -0.0292275 -0.0468812 0.0615683 0.000847 13.7922 1.30273 6.54632 2650 
357 1 -0.023143 -0.0468023 0.0641041 0.000847 17.8086 -0.983505 6.42807 2650 
201 1 -0.0216815 -0.0215927 0.0646125 0.000847 14.5147 0.0159352 4.87031 2650 
264 1 -0.0216786 -0.0188107 0.0646137 0.000847 16.4183 -0.569561 5.50793 2650 
19 1 -0.0183846 -0.0505024 0.0656269 0.000847 17.0036 0.907496 4.76293 2650 
347 1 -0.0196363 -0.0156404 0.0652631 0.000847 14.3255 1.67309 4.31006 2650 
402 1 -0.0203044 -0.01043 0.0657011 0.000233 18.9581 -3.26607 5.85883 2650 
453 1 -0.0130847 -0.0621328 0.0675107 0.000233 29.8997 -6.99919 5.79506 2650 
84 1 -0.00906542 -0.0436378 0.0675476 0.000847 17.0884 1.46948 2.2933 2650 
409 1 -0.00716446 -0.0292095 0.0677763 0.000847 22.5187 0.697306 2.37999 2650 
370 1 -0.0143534 -0.00461496 0.066625 0.000847 19.9141 -1.83811 4.28962 2650 
203 1 -0.00916567 -0.00380661 0.0675348 0.000847 22.4725 -0.458601 3.04936 2650 
46 1 -0.000151817 -0.0574509 0.0681531 0.000847 19.0388 1.99304 0.0424179 2650 
20 1 -0.00267269 -0.038622 0.0681012 0.000847 21.5162 -1.02351 0.84433 2650 
417 1 -0.00787028 -0.0116921 0.0683152 0.000233 31.0131 3.60289 3.57287 2650 
287 1 -0.00162285 -0.00886844 0.0687479 0.000233 24.6435 3.22807 0.581729 2650 
306 1 -0.0612099 -0.0094716 0.0300051 0.000847 7.32683 0.682771 14.9356 2650 
66 1 -0.0284283 0.000575977 -0.0624984 0.000233 -20.1826 -0.0620765 0.267466 2650 
139 1 -0.000911853 0.00930781 -0.0149907 0.000847 -0.00448528 0.0118535 -0.00148154 2650 
177 1 -0.00599363 0.0299048 -0.0149495 0.000847 -0.0208499 0.0420621 0.00437092 2650 
309 1 -0.00969718 0.00420528 -0.0131772 0.000233 -0.0114003 -0.00491717 0.0109475 2650 
246 1 -0.00699939 0.00347665 -0.0132862 0.000233 -0.0043516 -0.00702821 0.0104653 2650 
413 1 -0.0101492 0.00999971 -0.0127767 0.000233 0.00307638 0.00291365 0.0130324 2650 
6 1 -0.00201206 0.0298603 -0.0129243 0.000847 -0.0386172 0.0206024 -5.52892e-05 2650 
76 1 -0.005578 0.000205566 -0.011829 0.000233 0 -0.01175 0 2650 
209 1 -0.00453981 0.00258958 -0.0117294 0.000233 -0.00583763 -0.00915932 -0.00154894 2650 
146 1 -0.0021175 0.00608286 -0.0101349 0.001312 -0.00377335 -0.000193724 0.00110339 2650 
72 1 -0.00695975 0.0420722 -0.0101774 0.000847 0.0131193 0.0325042 0.0089407 2650 
271 1 -0.013394 0.00270049 -0.00898761 0.000233 -0.0179225 0.00192721 0.00285039 2650 
324 1 -0.00488772 0.0035502 -0.00814555 0.000233 -0.00121338 0.00699126 -0.00302996 2650 
214 1 -0.00514448 0.00805307 -0.00796843 0.000847 -0.00707981 -0.00306584 -0.00446501 2650 
520 1 -0.0114363 0.00996184 -0.00920468 0.000233 -0.0408881 0.00975514 -0.0298724 2650 
199 1 -0.0073793 0.013752 -0.00937986 0.001312 -8.22847e-05 0.00621402 -0.00802024 2650 
443 1 -0.00679364 0.0148938 -0.00826721 0.000233 -0.0596122 -0.00689756 0.0605096 2650 
48 1 -0.013926 0.0330331 -0.00813108 0.000847 -0.0112539 0.0368103 0.0207321 2650 
14 1 -0.013999 0.05732 -0.00842327 8.4e-05 0.0575921 0.107238 -0.107601 2650 
79 1 -0.00448469 0.00269848 -0.00687037 0.000233 0.0116224 -0.00870638 -0.00201173 2650 
512 1 -0.0138619 0.00788763 -0.00725575 0.000847 -0.0166001 0.000849647 0.00116294 2650 
143 1 -0.0148657 0.0186993 -0.00649581 0.000233 0.00923988 0.0311957 0.0152892 2650 
488 1 -0.00861059 0.0227595 -0.006817 0.000847 -5.9136 13.644 -6.66926 2650 
348 1 -0.014024 0.00123661 -0.00503066 0.000233 0.00121826 -0.0114412 0.0235468 2650 
225 1 -0.0138671 0.0171333 -0.00602605 0.001312 0.0121942 0.0197564 0.00582784 2650 
126 1 -0.00230159 0.0254507 -0.0052528 0.000847 0.275154 0.164273 -0.406191 2650 
486 1 -0.00906841 0.0259055 -0.00589736 0.000847 0.0264259 0.0343111 0.0112013 2650 
198 1 -0.00411567 0.0464493 -0.00591228 0.001312 -0.343522 0.510814 -0.181589 2650 
145 1 -0.007489 0.000938566 -0.00326 8.4e-05 0 -0.01175 0 2650 
121 1 -0.0038821 0.00316955 -0.00456171 0.001312 -0.00379725 0.00472171 0.0136791 2650 
386 1 -0.00399375 0.00627887 -0.00409829 0.000847 -0.012319 0.00334497 0.0122356 2650 
501 1 -0.0143646 0.00873195 -0.00341884 0.000847 0.00276454 0.0170299 0.0201113 2650 
222 1 -0.0122685 0.0322908 -0.00333405 0.000233 -0.0404047 0.0139169 0.0287244 2650 
323 1 -0.00316325 0.038621 -0.00409146 0.000233 0.0351264 0.108639 0.0188674 2650 
482 1 -0.00873118 0.0456501 -0.004242 0.000233 0.000351426 0.0488467 0.0205314 2650 
213 1 -0.00993747 0.0617613 -0.00344184 0.000847 0.0100469 0.055921 0.0298514 2650 
332 1 -0.0125063 0.00154005 -0.00182999 0.000847 -0.0141557 -0.0062357 0.0252588 2650 
133 1 -0.0105355 0.000377393 -0.00221619 0.001312 -0.00991896 -0.0057654 0.0204688 2650 
285 1 -0.004117 0.000521566 -0.002186 0.000233 0 -0.01175 0 2650 
281 1 -0.0105267 0.00344718 -0.00311088 0.000847 0.258618 -0.245031 -0.102802 2650 
8 1 -0.01387 0.00733698 -0.00291688 0.000233 0.0316895 -0.0368665 -0.0359975 2650 
467 1 -0.00750282 0.000253783 -0.000788712 0.000233 0.0050306 -0.0120246 0.00624024 2650 
75 1 -0.004976 0.000932566 -0.001105 0.000233 0 -0.01175 0 2650 
22 1 -0.0017234 0.00343847 -0.00109503 0.000233 0.00398177 -0.00836964 -0.0209856 2650 
160 1 -0.00789066 0.00660617 -0.000193958 0.001312 -0.0102583 0.0181344 0.0163275 2650 
407 1 -0.00489404 0.00700946 -0.00109047 0.000847 -0.00335092 0.0150116 0.0177236 2650 
405 1 -0.00631304 0.0103786 -0.000417842 8.4e-05 -0.0173842 0.0117352 0.0210276 2650 
440 1 -0.0124305 0.000740556 0.000338254 0.000233 0.00637766 0.0032616 -0.0067895 2650 
60 1 -0.00609667 0.000606623 0.00121252 0.000847 -0.0009898 0.000428572 0.0136178 2650 
219 1 -0.00480556 0.00554363 0.00111161 0.000233 0.00888838 0.00217768 -0.0132951 2650 
245 1 -0.00804334 0.00802977 0.000450374 0.000233 0.0029834 0.0362239 -0.0040246 2650 
455 1 -0.0107041 0.00153111 0.00201324 0.000233 -0.015883 0.0101362 0.0350897 2650 
242 1 -0.010702 1.35662e-05 0.00289 0.000847 0 -0.01175 0 2650 
376 1 -0.005395 0.000422566 0.002758 0.000233 0 -0.01175 0 2650 
137 1 -0.00792426 0.0292444 0.00296984 0.000847 0.0202347 0.0234308 -0.000934137 2650 
131 1 -0.009967 0.000272566 0.004313 0.000233 0 -0.01175 0 2650 
470 1 -0.008539 0.00317057 0.004033 8.4e-05 0 -0.01175 0 2650 
175 1 -0.0146386 0.00451175 0.00399173 0.000847 0.0212525 0.00604816 0.0104689 2650 
374 1 -0.0077987 0.00383753 0.0032532 0.000233 -0.00450428 -0.00788516 -0.00181456 2650 
392 1 -0.0128423 0.0100384 0.00470748 8.4e-05 -0.0269891 -0.00459755 0.0317233 2650 
273 1 -0.0116906 0.0127804 0.00448485 0.000233 -0.0211959 0.00649218 0.0303859 2650 
510 1 -0.00284152 0.0242014 0.00404044 0.001312 -0.039853 0.0499746 0.0187472 2650 
469 1 -0.012765 0.000811566 0.005129 0.000233 0 -0.01175 0 2650 
90 1 -0.009269 0.00105457 0.005356 0.000233 0 -0.01175 0 2650 
329 1 -0.00253985 0.000148515 0.0057695 0.000847 -0.0137232 -0.0063334 -0.00683971 2650 
499 1 -0.000565014 4.18621e-05 0.00513115 0.000847 -0.0126601 -0.010413 -0.000972509 2650 
361 1 -0.012031 0.00242957 0.0053 0.000233 0 -0.01175 0 2650 
235 1 -0.00893823 0.00190501 0.0050567 0.000233 0.00399582 -0.00877919 -0.0187464 2650 
228 1 -0.0147953 0.0271362 0.00615631 0.000847 0.0180677 0.0389435 0.042679 2650 
105 1 -0.00573716 0.0371553 0.00527408 0.000233 -0.0186614 0.0870444 0.0272348 2650 
369 1 -0.008047 0.000969566 0.006729 0.000847 0 -0.01175 0 2650 
394 1 -0.00579724 0.000599264 0.00692947 0.000847 -0.0230848 -0.023417 0.0173808 2650 
45 1 -0.00183969 0.00237038 0.00719363 0.000847 -0.00663951 -0.00169528 -0.00422405 2650 
244 1 -0.00544227 0.00518096 0.00761452 0.000233 -0.0179769 0.00053436 0.0163873 2650 
99 1 -0.0132579 0.0139103 0.00736067 0.000847 -0.0621504 0.030898 0.0200824 2650 
518 1 -0.0124096 0.0212018 0.00657443 0.000233 -0.0279553 0.243191 -0.119361 2650 
503 1 -0.00263182 0.00365252 0.00876149 0.000233 -0.0201065 -0.00306569 0.0132487 2650 
416 1 -0.0686648 0.0131545 0.00399732 0.000233 -8.1092 -11.8797 -139.278 2650 
165 1 -0.0131072 0.0157227 0.00935461 0.000847 -0.0410533 0.0624873 -0.0763131 2650 
352 1 -0.000280838 0.0185536 0.00801195 0.000233 -0.0422132 0.051115 -0.00252483 2650 
178 1 -0.005933 0.0253997 0.00938237 0.000847 -0.00761038 0.0292727 0.000663758 2650 
186 1 -0.0120811 0.0283326 0.00935749 0.001312 0.0193806 0.0340255 0.0219724 2650 
168 1 -0.0130167 0.0371523 0.00912845 0.000233 0.0110692 0.075798 -0.0176169 2650 
7 1 -0.00298703 0.012235 0.0109213 0.000847 0.0318072 0.0102597 -0.024004 2650 
77 1 -0.00220574 0.0270835 0.0100249 0.000233 0.022645 0.0508553 0.0284117 2650 
128 1 -0.003888 0.000204566 0.011415 0.000233 0 -0.01175 0 2650 
313 1 -0.004641 0.00285057 0.011299 0.000233 0 -0.01175 0 2650 
207 1 -0.0113056 0.00753961 0.0122025 0.000233 -0.127743 -0.00356632 -0.0954215 2650 
504 1 -0.00969234 0.0129013 0.0123396 0.000233 -0.0468735 0.0192693 -0.0304891 2650 
515 1 -0.000228782 0.0209355 0.0123879 0.000847 0.0129906 0.0425099 -0.0246502 2650 
511 1 -0.0100046 0.0351114 0.0122806 0.000847 0.00631276 0.0193647 -0.0154132 2650 
56 1 -0.00725192 0.000115109 0.0137505 0.001312 0.04591 -0.00433453 0.0297753 2650 
226 1 -0.00729427 0.00280521 0.0141687 0.000847 -0.0337342 0.0752189 -0.00668867 2650 
180 1 -0.00123373 0.0466778 0.0130278 0.000233 0.00860892 0.0812149 0.00119763 2650 
192 1 -0.00664872 0.000903989 0.01526 0.000233 0.0481513 0.00235124 0.0207666 2650 
390 1 -0.000764149 0.00128328 0.0147453 0.000233 -0.00511716 -0.00910385 0.00447344 2650 
270 1 -0.00777441 0.00976418 0.0144416 0.000233 -0.193993 -0.093214 -0.111616 2650 
291 1 -0.00505743 0.0120864 0.0148147 0.000847 -0.00683794 0.00656773 -0.0107858 2650 
31 1 -0.00387822 0.0346094 0.0143227 0.000847 0.0378023 0.062892 0.00489831 2650 
16 1 -0.0340088 0.0686813 0.0518252 0.001312 -5.15872 0.0444664 7.81515 2650 
25 1 -0.010013 0.0410249 0.0680342 0.000233 -41.6682 -11.313 -6.13237 2650 
466 1 -0.0121661 0.086621 0.0116723 0.000233 0.00860235 0.156793 0.028965 2650 
331 1 -0.0115854 0.110465 0.0671611 0.000847 1.27012 3.31176 0.219098 2650 
274 1 -8.76638e-07 -0.0115557 -0.068767 0.000233 -14.6464 -1.73393 0.000186708 2650 
272 1 0.0067673 -0.000413695 -0.0684332 0.000233 -14.5774 -0.300555 -1.45846 2650 
487 1 0.00807504 -0.00525667 -0.067673 0.000847 -4.20475 -2.04321 -0.520771 2650 
4 1 0.0245783 -0.0388641 -0.063567 0.000847 -13.8043 2.23631 -5.33707 2650 
415 1 0.0263228 -0.000674323 -0.0635166 0.000233 -20.4396 -3.40372 -9.02818 2650 
93 1 0.0290522 -0.0366019 -0.0624929 8.4e-05 -11.3627 -2.92844 -5.29251 2650 
341 1 0.0364726 -0.0521661 -0.0570308 0.001312 -14.3486 -0.590006 -9.16664 2650 
41 1 0.0392844 -0.0369399 -0.0566229 8.4e-05 -14.163 -1.20566 -9.82618 2650 
322 1 0.0413227 -0.0593344 -0.0549669 0.000233 -17.2793 2.67957 -12.9889 2650 
411 1 0.0481558 -0.00280455 -0.048241 0.000847 -15.4706 -2.30689 -15.4319 2650 
371 1 0.0488182 -0.0122415 -0.047568 0.000847 -11.8797 2.15079 -12.1823 2650 
9 1 0.050977 -0.0070854 -0.0461565 0.000233 -10.4813 0.410703 -11.5729 2650 
382 1 0.0505347 -0.0141826 -0.0457456 0.000847 -15.2261 1.33875 -16.8079 2650 
373 1 0.0538664 -0.039937 -0.0417773 0.000847 -16.434 -3.03538 -21.1749 2650 
33 1 0.0153584 -0.0308731 -0.0428223 0.000847 -16.2645 11.4696 -8.89883 2650 
21 1 0.0521663 -0.0295962 -0.0408162 0.000847 -15.1807 5.38657 -11.9343 2650 
151 1 0.0542239 -0.00759527 -0.0413037 0.000847 -8.6828 -2.15996 -11.3894 2650 
259 1 0.0561447 -0.0496717 -0.0397122 0.000233 -15.4651 -7.89732 -21.8595 2650 
302 1 0.0591736 -0.0231507 -0.0329343 0.001312 -12.3806 -3.34327 -22.2222 2650 
522 1 0.0629581 -0.0279176 -0.0280332 8.4e-05 -6.60815 -3.30848 -14.8397 2650 
18 1 0.0619868 -0.010733 -0.0283594 0.000847 -0.118643 1.79041 -0.259116 2650 
489 1 0.0635223 -0.0476155 -0.024741 0.000847 -6.38697 1.62631 -16.3867 2650 
491 1 0.0651423 -0.0399969 -0.0220443 0.000233 -5.08949 -2.28434 -15.0365 2650 
167 1 0.057324 -0.0336986 -0.0194949 0.000233 28.3196 -1.43529 42.7214 2650 
23 1 0.0656387 -0.0488808 -0.0205195 0.000233 -5.2098 0.415449 -16.6618 2650 
29 1 0.0079808 -0.00334596 -0.0133905 0.001312 -0.023489 -0.031161 0.00732698 2650 
435 1 0.00701597 -0.000234233 -0.0126269 0.000847 0.0229026 -0.0155546 0.00617746 2650 
447 1 0.0673175 -0.0534018 -0.0107744 0.000847 -3.40191 3.41481 -21.2404 2650 
427 1 0.0678367 -0.0217863 -0.0113044 0.000233 -5.05734 -1.22666 -30.3426 2650 
144 1 0.000616 -0.00312843 -0.009639 0.000233 0 -0.01175 0 2650 
224 1 0.00968139 -0.00306927 -0.0107746 0.001312 -0.00563477 -0.00623076 0.0103628 2650 
234 1 0.00741534 -0.000636681 -0.0101788 0.000233 0.0132146 -0.0158967 0.00814336 2650 
325 1 0.0070984 -0.00271765 -0.00825646 0.000233 -0.0107284 -0.00766425 0.00834843 2650 
496 1 0.0140592 -0.00220369 -0.00902472 8.4e-05 0.0105932 -0.00476339 -0.00841698 2650 
449 1 0.0106006 -0.00157427 -0.00796871 0.000847 0.0194492 0.00190914 0.0247326 2650 
110 1 0.0677948 -0.0510072 -0.00718248 0.000847 -2.14181 -1.86243 -20.2026 2650 
404 1 0.0140301 -0.00114787 -0.00678382 0.000233 0.0436426 0.00204645 0.0259518 2650 
419 1 0.0137591 -0.00297974 -0.00482467 0.001312 -0.019333 -0.0209977 -0.0433434 2650 
424 1 0.0679667 -0.0401181 -0.00537805 0.000847 -2.51585 5.678 -31.7751 2650 
338 1 0.0121379 -0.000242661 -0.00462457 0.000233 0.0238111 -0.0259932 -0.00718569 2650 
142 1 0.000623308 -0.00348017 -0.00245187 0.000233 0.0720563 -0.0483641 -0.283444 2650 
116 1 8e-05 -0.00160343 0.00308 0.000233 0 -0.01175 0 2650 
303 1 0.00964673 -0.00113374 0.00311625 0.000847 0.000960592 -0.0126685 0.00323429 2650 
150 1 0.0680805 -0.00617239 0.0035249 0.000847 0.537902 -2.06494 -10.3794 2650 
161 1 0.0680711 -0.00110521 0.00369674 0.000847 0.479656 -0.857162 -8.81321 2650 
384 1 0.00101789 -0.00184249 0.00847491 0.000847 0.00530226 -0.00861975 0.013456 2650 
119 1 0.00722 -0.00193143 0.008414 8.4e-05 0 -0.01175 0 2650 
410 1 0.0674543 -0.0553398 0.00988356 0.000847 3.19112 2.31467 -21.764 2650 
122 1 0.00263894 -0.000243144 0.0122611 0.000847 -0.0176998 -0.00347057 0.0282649 2650 
502 1 0.00905728 -0.00176969 0.0131794 0.000847 -0.0461559 -0.0296791 0.0242544 2650 
479 1 4.66427e-05 -0.00200057 0.0164967 0.000233 0.031866 -0.0334183 0.00106954 2650 
509 1 0.00432297 -0.00249485 0.0159501 8.4e-05 0.00412072 -0.0106582 -0.0133359 2650 
395 1 0.0641583 -0.0192432 0.0230441 0.000847 6.52378 0.352861 -18.1502 2650 
206 1 0.0642027 -0.0380025 0.0246466 0.000233 6.26437 -3.53365 -16.3147 2650 
269 1 0.0635995 -0.0140822 0.0245486 0.000847 8.7699 2.41173 -22.705 2650 
378 1 0.0637271 -0.03324 0.0258518 0.000233 8.38133 0.230422 -20.6564 2650 
444 1 0.0628571 -0.00416273 0.0282591 8.4e-05 7.42013 1.396 -16.5033 2650 
51 1 0.0604689 -0.00908791 0.0327544 0.000233 7.53787 0.877215 -13.9127 2650 
157 1 0.0601703 -0.000981764 0.0332996 0.000233 7.77496 -0.50639 -14.0457 2650 
458 1 0.0562668 -0.0338752 0.0376799 0.001312 13.9524 1.1646 -20.8137 2650 
138 1 0.0554574 -0.0174189 0.0396414 0.000847 15.1444 1.33845 -21.1719 2650 
61 1 0.051746 -0.0527818 0.0443715 0.000847 14.9446 -2.21811 -17.4074 2650 
36 1 0.0518063 -0.0520798 0.0452247 0.000233 16.3762 0.426947 -18.8021 2650 
11 1 0.0510623 -0.0395675 0.0460623 0.000233 12.1897 -0.158662 -13.5094 2650 
317 1 0.0447848 -0.0558461 0.0513828 0.000847 15.9445 0.727341 -13.8869 2650 
195 1 0.0469303 -0.0545056 0.0502647 0.000233 13.3057 -1.72595 -12.4199 2650 
307 1 0.0438362 -0.0516454 0.0521896 0.000847 10.7499 -6.53695 -9.02256 2650 
230 1 0.0442334 -0.00494271 0.0518595 0.000847 17.9881 2.56749 -15.3319 2650 
78 1 0.00501712 -0.0475405 0.0546571 0.000233 -13.5375 1.26509 23.4131 2650 
460 1 0.0422942 -0.0444576 0.0534481 0.000847 14.1927 1.90136 -11.2226 2650 
399 1 0.0383067 -0.0243064 0.0563732 0.000847 15.7003 3.07332 -10.6616 2650 
185 1 0.0367185 -0.0353951 0.0568716 0.001312 13.6008 1.56181 -8.77228 2650 
408 1 0.0341498 -0.00549183 0.0589895 0.000847 26.1737 -3.90821 -15.1416 2650 
96 1 0.0331215 -0.00137697 0.0595688 0.000847 21.4756 -1.82346 -11.9308 2650 
326 1 0.031438 -0.0155248 0.0611601 0.000233 17.3206 0.511651 -8.90323 2650 
57 1 0.0121844 -0.0122586 0.0606078 0.000847 41.2567 17.0704 2.26394 2650 
393 1 0.02685 -0.0614885 0.062135 0.001312 5.08418 2.19818e-06 -2.19692 2650 
364 1 0.0285607 -0.0487751 0.0625555 0.000233 16.2189 -5.78497 -7.405 2650 
190 1 0.0286052 -0.0376437 0.0618603 0.000847 15.8896 -2.41088 -7.34575 2650 
130 1 0.0294493 -0.00796377 0.0620043 0.000233 1.7081 -0.267757 3.13847 2650 
267 1 0.0230564 -0.00976068 0.0641352 0.000847 17.5881 -0.672696 -6.32172 2650 
44 1 0.00914586 -0.0130922 0.0675366 0.000847 12.1466 -0.233679 -1.6449 2650 
106 1 0.00968482 -0.0602702 0.0682321 8.4e-05 12.1942 -1.01102 -1.73174 2650 
129 1 0.0668013 0.0559535 -0.0163424 0.000233 0.00478765 -0.15255 0.0195659 2650 
423 1 0.00362356 0.00151531 -0.0145997 0.000847 -0.0222654 -0.0115896 0.00131082 2650 
422 1 0.00153406 0.00460577 -0.014476 0.000847 0.00514729 -0.00210351 0.00546133 2650 
210 1 0.00528468 0.00417378 -0.0153274 8.4e-05 -0.0273886 0.00519723 -0.000492384 2650 
343 1 0.00410724 0.00683799 -0.0154655 0.000847 -0.0263609 0.0239942 -0.00391538 2650 
163 1 0.00517971 0.00816396 -0.0147116 0.000847 -0.0231441 0.0262995 -0.00904172 2650 
63 1 0.00709696 0.0110711 -0.0150292 0.000233 0.015053 0.00544111 -0.0256247 2650 
12 1 0.00799111 0.00053867 -0.0140612 0.000233 0.0237388 -0.00699016 -0.00714792 2650 
471 1 0.00562254 0.00511919 -0.014137 0.001312 -0.0248435 0.0158885 -0.00956615 2650 
412 1 0.00332638 0.00940141 -0.0130942 0.000847 -0.0266156 0.0274773 0.000202454 2650 
109 1 0.00664653 0.00139174 -0.0112875 0.000847 0.00625087 -0.00353474 0.00741645 2650 
276 1 0.00731615 0.0067704 -0.0113225 0.001312 -0.00522974 0.0111198 -0.00344013 2650 
421 1 0.00612065 0.0109258 -0.0114855 0.000847 0.00997251 0.0056857 -0.0202162 2650 
251 1 0.00382049 0.0188054 -0.0111311 0.000847 0.0220363 0.0205447 0.0102673 2650 
403 1 0.0117764 0.0244546 -0.0116701 0.000233 -0.00992673 0.0221863 -0.0117494 2650 
65 1 0.0125979 0.000273669 -0.0101991 0.000233 0.0247114 0.000740761 0.0244792 2650 
212 1 0.00207247 0.00803038 -0.00978684 0.001312 -0.00242737 0.00187603 0.00243017 2650 
58 1 0.00779651 0.0122223 -0.0104476 0.000847 0.0117055 0.00245977 -0.00418207 2650 
420 1 0.00319046 0.0160931 -0.0100483 0.000847 -0.00768105 0.0159845 -0.0264652 2650 
211 1 0.000247052 0.0240309 -0.0108761 0.001312 -0.00706759 0.0213458 -0.0210729 2650 
5 1 0.00765242 0.0108247 -0.00905626 0.000847 0.00854107 0.00348098 0.00186051 2650 
74 1 0.011151 0.0124117 -0.00832889 0.000847 0.0105382 0.00506423 -0.0162822 2650 
363 1 0.0138475 0.0149704 -0.0083077 0.000233 -0.00516116 0.0058541 -0.00751722 2650 
400 1 0.008609 0.00341157 -0.006808 0.000233 0 -0.01175 0 2650 
147 1 0.00994865 0.0194459 -0.00752373 0.001312 0.0331351 0.0343877 0.00921227 2650 
132 1 0.0149263 0.00291636 -0.0053395 8.4e-05 -0.0748894 0.182908 0.0237066 2650 
377 1 0.002656 0.00325757 -0.00627 0.000233 0 -0.01175 0 2650 
493 1 0.0114423 0.0128241 -0.00584784 0.000233 -0.0118703 0.00376708 0.00232476 2650 
437 1 0.0117022 0.0194969 -0.00537392 0.000847 0.0103713 0.0266912 -0.00142172 2650 
282 1 0.0110399 0.00129188 -0.00412931 0.000847 0.0162518 -0.0111636 0.00958268 2650 
27 1 0.00607771 0.0039873 -0.00371726 8.4e-05 -0.0165967 0.000109191 0.00379322 2650 
216 1 0.000103069 0.0242073 -0.00357774 0.000847 0.00347878 0.0283419 0.0066285 2650 
17 1 0.00391794 0.000603962 -0.00179768 0.000847 -0.000232265 -0.01105 -0.00146143 2650 
438 1 0.00838247 0.00197449 -0.00187443 0.000847 -0.0107653 -0.00523275 -0.0113089 2650 
292 1 0.0155271 0.00351654 -0.00312099 0.000847 0.00193299 -0.000476619 -0.0131226 2650 
472 1 0.00657665 0.00505598 -0.00220476 0.000847 -0.0145522 -0.00787638 -0.012293 2650 
342 1 0.00684389 0.00713483 -0.00200501 0.000847 0.0116747 0.0168111 0.0259924 2650 
35 1 0.011471 0.0124518 -0.00163169 0.000847 0.00722809 0.04266 0.0361995 2650 
15 1 0.0048527 0.0246451 -0.00237571 0.001312 0.0201677 0.037362 0.0190124 2650 
3 1 0.015137 0.0453447 -0.00291586 0.000847 0.0277643 0.0375434 0.0182655 2650 
433 1 0.0144863 0.000883592 -0.00100908 0.000847 -0.00944777 -0.00527177 -0.0199662 2650 
353 1 0.00762938 0.00343925 -0.00156837 8.4e-05 0.00908281 0.00118574 -0.0158319 2650 
494 1 0.0123009 0.0035116 -0.000416472 0.000233 -0.00602003 0.00522015 0.002566 2650 
381 1 0.0144125 0.00388454 -9.65728e-05 0.000847 0.000568737 -0.000922848 -0.0138744 2650 
83 1 0.0160488 0.00319407 -0.000697466 0.000847 -0.0033146 -0.00186753 -0.0152965 2650 
187 1 0.0112159 0.00487614 -0.00135528 0.000847 0.0100342 0.00851489 0.0208836 2650 
255 1 0.0134714 0.00746987 -0.00111913 0.000847 0.0154194 0.00299325 0.0103636 2650 
457 1 0.00942881 0.0284578 -9.37344e-05 8.4e-05 0.00801527 0.0347161 0.0147456 2650 
28 1 0.0165208 0.0308719 -0.00119206 8.4e-05 0.00684607 0.0440032 0.0211436 2650 
50 1 0.00815465 0.00163964 1.46151e-05 0.000233 -0.0100305 -0.0015242 -0.00674972 2650 
328 1 0.0118674 0.00175478 0.000158604 0.001312 -0.00794994 -0.0044982 -0.00425546 2650 
383 1 0.00589841 0.0158184 0.000523994 0.000847 -0.0178103 0.00948738 0.00375842 2650 
293 1 0.00745261 0.017246 0.00138236 0.000847 0.0120037 0.0137644 -0.0126971 2650 
351 1 0.00498123 0.0218459 0.00147429 0.000233 0.00409184 0.0180406 0.0328294 2650 
156 1 0.0165299 0.0423471 0.00157071 0.000233 -0.0836241 0.275282 0.424084 2650 
108 1 0.0100044 0.0486384 0.00112293 0.001312 -0.00269386 0.0975709 0.00724938 2650 
426 1 0.00846822 0.000683692 0.00228607 0.000233 0.00270092 -0.011541 -0.000995869 2650 
95 1 0.0109856 0.00940615 0.00263763 0.001312 -0.0212664 0.0079887 -0.00168795 2650 
333 1 0.00474366 0.00969344 0.00192832 0.000847 -0.0171635 0.0104318 -0.0236065 2650 
229 1 0.015863 0.0397495 0.00183946 0.000847 -0.0974239 0.0560942 0.521606 2650 
372 1 0.00823141 0.0459831 0.00270722 0.000847 -0.0083035 0.0720622 0.00640371 2650 
456 1 0.00965366 9.73556e-05 0.00339024 0.000233 0.000242304 -0.0105571 0.00112106 2650 
475 1 0.00205435 0.0031155 0.00371346 0.000847 0.0142993 -0.0091047 -0.0116892 2650 
359 1 0.0112217 0.00197384 0.00425329 0.000847 0.0222976 -0.00893075 -0.000615756 2650 
54 1 0.0103785 0.00363603 0.00458522 8.4e-05 -0.0136844 -0.00183931 -0.00696332 2650 
254 1 0.00976022 0.00567807 0.0036746 0.000847 -0.0123258 0.00374391 -0.0102355 2650 
299 1 0.01101 0.00869859 0.00406472 0.000233 -0.0067092 0.00573937 -0.00119716 2650 
152 1 0.00463923 0.00960831 0.00389418 0.000847 0.0117141 0.00816158 -0.0426019 2650 
217 1 0.00285647 0.0129822 0.00358931 0.000847 -0.00257813 0.0141642 0.0271072 2650 
97 1 0.0156205 0.0264887 0.00343348 0.000847 0.0179455 0.0251861 -0.0730345 2650 
516 1 0.016153 0.0341243 0.00377111 0.000233 0.0124165 0.0941491 -0.0630112 2650 
446 1 0.0146001 0.0372003 0.00431411 0.000847 0.0431759 0.0535511 -0.0370998 2650 
238 1 0.011579 0.0150714 0.0054759 0.001312 0.0128144 0.0168527 -0.0209673 2650 
38 1 0.0135664 0.0309542 0.00526381 0.000233 -0.0108563 0.0381487 0.00282041 2650 
517 1 0.00950297 0.0325578 0.00579168 0.000233 0.0308496 0.037053 0.00878162 2650 
71 1 0.0679604 0.0548513 0.00534921 0.000847 0.00340407 -0.228557 -0.0432152 2650 
252 1 0.000193957 0.00165174 0.00743046 0.000847 -0.00314294 -0.00149269 -0.00320149 2650 
295 1 0.011448 0.00272252 0.00703403 0.000847 -0.012348 0.00252147 -0.00919362 2650 
476 1 0.0141074 0.00845063 0.00639945 0.000847 -0.00904268 -0.00228161 -0.00910678 2650 
356 1 0.0143489 0.0249212 0.00710577 0.000847 -0.00782504 0.0412214 0.0570912 2650 
266 1 0.00549098 0.0300398 0.00768187 0.000847 -0.0104794 0.0552246 -0.023596 2650 
80 1 0.0116188 0.0313513 0.00783491 8.4e-05 -0.0363799 0.0645411 0.011077 2650 
450 1 0.0143428 0.0355317 0.00695683 0.000847 0.0268537 0.0447985 -0.0525241 2650 
43 1 0.0120886 0.0034136 0.00905424 0.001312 0.00980756 0.0036447 -0.00996485 2650 
200 1 0.0131923 0.0170109 0.00881818 0.000847 0.00484614 0.0350883 -0.0144925 2650 
506 1 0.014689 0.0281506 0.00808692 0.000233 -0.00220319 0.0243737 0.0201119 2650 
265 1 0.00180342 0.00920675 0.00997804 0.000847 -0.0213001 0.0213771 0.00423925 2650 
406 1 0.00935461 0.01075 0.0101308 0.001312 0.00113769 0.0124675 -0.00974271 2650 
1 1 0.00985724 0.013257 0.0109627 0.001312 -0.0151105 0.0159339 -0.00224567 2650 
304 1 0.0119902 0.0128348 0.0107467 0.000847 0.00448194 0.00153488 0.0635027 2650 
432 1 0.00288836 0.014853 0.00963502 0.001312 -0.0320578 0.0394718 0.00624456 2650 
398 1 0.0115378 0.0173428 0.0106211 0.000847 -0.000363807 0.0163262 -0.00250454 2650 
514 1 0.00321697 0.0227348 0.010845 0.000847 -0.0304794 0.0400783 -0.00809412 2650 
261 1 0.00977596 0.0273533 0.0106992 0.000233 -0.0196763 0.0490884 -0.00353516 2650 
388 1 0.0010556 0.0300207 0.0101884 0.000233 -0.0367853 0.0648297 0.0307051 2650 
89 1 0.003537 0.00343757 0.012461 0.000233 0 -0.01175 0 2650 
39 1 0.0120014 0.0107767 0.0113225 0.000233 -0.0135448 0.0100278 0.0153734 2650 
215 1 0.00180124 0.0171458 0.0118697 0.000847 -0.0112914 0.00393238 -0.0352742 2650 
191 1 0.00843015 0.0164702 0.0114804 0.000847 -0.0185466 0.020335 7.95074e-06 2650 