ITEM: TIMESTEP
17746899
ITEM: NUMBER OF ATOMS
323
ITEM: BOX BOUNDS ff ff ff
-0.15 0.15
-0.15 0.15
-0.15 0.15
ITEM: ATOMS id type x y z radius vx vy vz density 
317 1 -0.00431974 -0.012186 -0.068016 0.000847 -12.8833 -2.1361 0.818211 2650 
151 1 -0.0218065 -0.0411467 -0.0645725 0.000847 -22.3938 0.481335 7.56132 2650 
134 1 -0.0196771 -0.0414315 -0.0647729 0.001312 -22.4682 0.436739 6.82254 2650 
159 1 -0.0244135 -0.0296596 -0.0631499 0.001312 -27.8402 4.04227 10.7531 2650 
431 1 -0.0245969 -0.0193489 -0.0643749 8.4e-05 -11.9976 0.529386 4.47201 2650 
18 1 -0.0289348 -0.0360962 -0.0616741 0.000847 -0.0525417 -1.04362 0.0936301 2650 
334 1 -0.0349515 -0.036427 -0.0585135 0.000847 -4.88681 -1.47254 2.82131 2650 
419 1 -0.0348599 -0.0314394 -0.0580411 0.001312 -22.8115 1.405 13.6874 2650 
394 1 -0.0366259 -0.0179429 -0.0574812 0.000847 -19.6298 1.75855 12.4995 2650 
460 1 -0.0467721 -0.0573583 -0.0495845 0.000847 -18.1147 1.58274 17.0751 2650 
51 1 -0.0465996 -0.0194287 -0.0505722 0.000233 -21.5024 -4.51612 19.8088 2650 
88 1 -0.057723 -0.0540468 -0.0373807 0.000233 -7.95654 2.62359 12.2835 2650 
371 1 -0.0572043 -0.0455676 -0.0370788 0.000847 -14.9412 3.28211 22.995 2650 
427 1 -0.0580896 -0.0441366 -0.0358728 0.000233 -15.663 8.09419 26.2191 2650 
399 1 -0.0592601 -0.0251125 -0.0336985 0.000847 -13.5421 -0.479297 23.7981 2650 
32 1 -0.0601193 -0.0282928 -0.0321408 0.000847 -12.4241 2.32737 23.2233 2650 
12 1 -0.0614953 -0.0312362 -0.0307843 0.000233 -4.88221 -2.20468 9.75056 2650 
452 1 -0.00108068 -0.0200236 -0.0687585 0.000233 -24.7986 2.27185 0.38976 2650 
502 1 -0.0640622 -0.042498 -0.023307 0.000847 -5.62599 0.837955 15.4516 2650 
57 1 -0.064346 -0.0265214 -0.0225225 0.000847 -8.42909 -0.333216 24.0652 2650 
264 1 -0.0644601 -0.049718 -0.02219 0.000847 -7.24967 1.13346 21.0449 2650 
433 1 -0.0650714 -0.0411676 -0.020323 0.000847 -5.10341 1.85701 16.3292 2650 
269 1 -0.0650215 -0.0269793 -0.0204898 0.000847 -7.14967 -1.1319 22.6728 2650 
336 1 -0.057783 -0.0611507 -0.0185085 0.000233 -9.47405 1.30998 33.127 2650 
241 1 -0.0026608 -0.0204374 -0.0217687 0.000847 15.6421 4.36946 -31.0054 2650 
312 1 -0.0658931 -0.00118505 -0.0196867 0.000233 -0.384551 -0.933701 1.28684 2650 
259 1 -0.0674616 -0.0526641 -0.013361 0.000233 -5.59056 1.51118 28.2218 2650 
11 1 -0.0675911 -0.0180012 -0.0126908 0.000233 -6.13576 -1.83157 32.6724 2650 
423 1 -0.00216555 -0.00149803 -0.0142589 0.000847 -0.0222654 -0.0115896 0.00131082 2650 
73 1 -0.0670687 -0.0523791 -0.0122434 0.000847 -5.18731 1.05954 28.3972 2650 
296 1 -0.0677358 -0.0398377 -0.0118925 0.000233 -4.28813 1.34192 24.4187 2650 
76 1 -0.005578 -0.00284949 -0.011829 0.000233 0 -0.01175 0 2650 
8 1 -0.00563058 -0.00224849 -0.0122764 0.000233 0.0316895 -0.0368665 -0.0359975 2650 
318 1 -0.0676346 -0.0534968 -0.00859045 0.000847 -3.78006 0.713807 29.7417 2650 
21 1 -0.0670813 -0.043634 -0.0118405 0.000847 4.50658 -0.398367 -21.0917 2650 
494 1 -0.0684607 -0.0117249 -0.00653642 0.000233 -2.4028 0.664946 25.1611 2650 
447 1 -0.0679937 -0.0171923 -0.00492616 0.000847 -0.866017 1.76468 11.9444 2650 
256 1 -0.0580784 -0.00519145 -0.00635952 0.000847 -9.11014 -0.152402 -0.99812 2650 
116 1 -0.0549485 -0.0418624 -0.0024311 0.000233 -1.40068 -4.03202 13.3121 2650 
397 1 -0.0681017 -0.0223178 -0.00309644 0.000847 -0.544981 0.619393 11.9771 2650 
145 1 -0.007489 -0.00211649 -0.00326 8.4e-05 0 -0.01175 0 2650 
285 1 -0.004117 -0.00253349 -0.002186 0.000233 0 -0.01175 0 2650 
75 1 -0.004976 -0.00212249 -0.001105 0.000233 0 -0.01175 0 2650 
348 1 -0.0137072 -0.00173815 0.00109163 0.000233 0.00121826 -0.0114412 0.0235468 2650 
467 1 -0.00619484 -0.00287267 0.000833778 0.000233 0.0050306 -0.0120246 0.00624024 2650 
235 1 -0.00789929 -0.000377615 0.000182543 0.000233 0.00399582 -0.00877919 -0.0187464 2650 
136 1 -0.00296862 -0.00137958 0.000191021 0.000847 -0.00107695 -0.00439443 0.0122016 2650 
487 1 -0.0680695 -0.0266889 0.00377243 0.000847 1.05451 6.00908 19.0119 2650 
242 1 -0.010702 -0.00304149 0.00289 0.000847 0 -0.01175 0 2650 
376 1 -0.005395 -0.00263249 0.002758 0.000233 0 -0.01175 0 2650 
133 1 -0.0131001 -0.0011348 0.00309104 0.001312 -0.00984614 -0.00583183 0.0203943 2650 
131 1 -0.009967 -0.00278249 0.004313 0.000233 0 -0.01175 0 2650 
332 1 -0.0151244 -5.75923e-05 0.0041842 0.000847 0.0145844 -0.00559553 0.0102947 2650 
329 1 -0.00610794 -0.0014982 0.00399115 0.000847 -0.0137232 -0.0063334 -0.00683971 2650 
469 1 -0.012765 -0.00224349 0.005129 0.000233 0 -0.01175 0 2650 
90 1 -0.009269 -0.00200049 0.005356 0.000233 0 -0.01175 0 2650 
499 1 -0.00385669 -0.00266555 0.00487829 0.000847 -0.0126601 -0.010413 -0.000972509 2650 
505 1 -0.0155228 -0.00135401 0.00494046 0.000233 -0.00378522 -0.00213289 0.00845565 2650 
361 1 -0.012031 -0.000625488 0.0053 0.000233 0 -0.01175 0 2650 
369 1 -0.008047 -0.00208549 0.006729 0.000847 0 -0.01175 0 2650 
520 1 -0.0677955 -0.0256776 0.0115481 0.000233 4.31369 5.30742 25.3192 2650 
495 1 -0.00571008 -0.00310335 0.0097975 0.000233 -0.0216097 -0.00536975 0.0219754 2650 
306 1 -0.0669477 -0.0453956 0.0128974 0.000847 6.13962 -2.20055 31.8494 2650 
128 1 -0.003888 -0.00285049 0.011415 0.000233 0 -0.01175 0 2650 
313 1 -0.004641 -0.000204488 0.011299 0.000233 0 -0.01175 0 2650 
267 1 -0.0664105 -0.0264053 0.015396 0.000847 3.55086 1.2601 15.3056 2650 
458 1 -0.0636333 -0.0347163 0.0232233 0.001312 12.9952 1.0295 35.5761 2650 
82 1 -0.0633782 -0.0531828 0.0238903 0.001312 11.1592 2.03698 29.5765 2650 
223 1 -0.0638473 -0.0133187 0.022239 8.4e-05 1.89621 -0.677263 -0.807567 2650 
138 1 -0.0621371 -0.0391767 0.0280468 0.000847 11.4386 2.21861 25.3252 2650 
243 1 -0.0601895 -0.0296205 0.0320022 0.000847 8.39323 1.30228 15.7743 2650 
459 1 -0.0599153 -0.00113811 0.0325147 0.000847 9.93121 0.893882 18.2872 2650 
155 1 -0.0603604 -0.0599291 0.0329541 0.000233 8.97979 1.26638 16.4441 2650 
451 1 -0.0572745 -0.0139615 0.0369673 0.000847 12.2115 4.70551 18.9001 2650 
284 1 -0.0565603 -0.0112789 0.0385144 0.000233 16.0554 11.2977 25.0764 2650 
185 1 -0.0555336 -0.00242059 0.0387396 0.001312 9.78797 -0.210863 14.0156 2650 
10 1 -0.0555949 -0.0620548 0.040478 0.000233 10.6876 0.729612 14.6905 2650 
281 1 -0.0546355 -0.0600381 0.0407646 0.000847 14.2215 -0.557081 19.0471 2650 
453 1 -0.0551615 -0.0339445 0.0410663 0.000233 13.5445 2.89209 18.1891 2650 
491 1 -0.0544865 -0.0170674 0.0419583 0.000233 19.24 -5.88994 24.9794 2650 
344 1 -0.0513525 -0.0487953 0.0448279 0.000847 16.4132 -0.0731737 18.7888 2650 
268 1 -0.0455062 -0.0603936 0.0507427 0.000847 12.0181 0.79475 10.7694 2650 
150 1 -0.0453058 -0.0267225 0.0509286 0.000847 20.0326 -1.70272 17.8085 2650 
393 1 -0.0416416 -0.0331392 0.0533837 0.001312 17.0832 0.289403 13.3116 2650 
33 1 -0.0422255 -0.0281206 0.0535044 0.000847 16.3098 2.29409 12.8622 2650 
341 1 -0.0350509 -0.0400205 0.0579214 0.001312 19.4116 -0.506293 11.7349 2650 
315 1 -0.0326229 -0.0446824 0.0593229 0.001312 20.8271 1.51614 11.4419 2650 
119 1 -0.0301464 -0.0604435 0.0619727 8.4e-05 36.3441 3.64719 17.679 2650 
29 1 -0.0282689 -0.0547621 0.0615155 0.001312 22.1178 -1.45806 10.1543 2650 
286 1 -0.0289939 -0.0519118 0.0623559 0.000233 27.8332 7.36723 12.9415 2650 
36 1 -0.0237237 -0.0620333 0.0644527 0.000233 22.452 4.69777 8.11634 2650 
357 1 -0.0136444 -0.0431082 0.0667737 0.000847 19.0176 -2.5514 3.88564 2650 
500 1 -0.00878468 -0.0425082 0.0675852 0.000847 21.742 -0.545616 2.82557 2650 
463 1 -0.00982866 -0.00691848 0.0674428 0.000847 26.4677 -4.60057 3.84492 2650 
111 1 -0.0077151 -0.00577692 0.0677174 0.000847 26.8171 -2.1862 3.06206 2650 
144 1 -0.00732528 -0.0299884 0.0683757 0.000233 23.7344 -0.787995 2.54273 2650 
346 1 -0.00203986 -0.0455593 0.0681251 0.000847 28.1808 -0.233981 0.843523 2650 
448 1 -0.0611413 -0.011574 0.0301438 0.000847 6.97946 -0.812955 14.146 2650 
445 1 -0.0606021 -0.0164626 0.0302326 0.001312 12.2467 0.178436 24.5249 2650 
518 1 -0.0417915 0.0736838 -0.0546111 0.000233 -0.148481 -0.0672521 0.113627 2650 
66 1 -0.0523902 0.0317388 -0.0445606 0.000233 -82.7344 26.7537 97.2574 2650 
343 1 -0.00150259 0.0125575 -0.015885 0.000847 -0.0130532 0.0184418 0.00247934 2650 
163 1 -0.0010158 0.0148397 -0.0158776 0.000847 -0.024545 0.0250222 0.000286783 2650 
471 1 -0.00082054 0.00916745 -0.0153699 0.001312 -0.0247137 0.0152309 0.000393876 2650 
139 1 -0.00314132 0.0127507 -0.0148055 0.000847 -0.0158596 0.0157149 0.00462079 2650 
484 1 -0.00126364 0.0193116 -0.0154613 0.001312 0.227542 -0.0155995 -0.00886151 2650 
211 1 -0.00143843 0.0294034 -0.0151304 0.001312 -0.00311985 0.0167386 0.0107103 2650 
412 1 -0.00359379 0.0165456 -0.0130415 0.000847 -0.0266156 0.0274773 0.000202454 2650 
209 1 -0.00605762 0.000208109 -0.0121322 0.000233 -0.00583763 -0.00915932 -0.00154894 2650 
199 1 -0.00740069 0.0153676 -0.0114652 0.001312 -8.22847e-05 0.00621402 -0.00802024 2650 
165 1 -0.0117294 0.0311208 -0.0111048 0.000847 0.0501321 0.0536656 -0.0671463 2650 
6 1 -0.0110885 0.034945 -0.0113914 0.000847 -0.0225131 0.0160582 0.0257856 2650 
177 1 -0.00988164 0.0400327 -0.0125199 0.000847 0.108293 -0.121625 -0.0951592 2650 
48 1 -0.00971432 0.0426988 -0.0125377 0.000847 0.345333 0.178921 -0.233129 2650 
309 1 -0.0126613 0.0029268 -0.0103308 0.000233 -0.0114003 -0.00491717 0.0109475 2650 
246 1 -0.00813083 0.00164929 -0.0105652 0.000233 -0.0043516 -0.00702821 0.0104653 2650 
146 1 -0.00309859 0.00603249 -0.00984801 0.001312 -0.00377335 -0.000193724 0.00110339 2650 
110 1 -0.0121401 0.0431458 -0.0105675 0.000847 0.389634 0.071687 -0.332169 2650 
324 1 -0.0052032 0.00536796 -0.00893335 0.000233 -0.00121338 0.00699126 -0.00302996 2650 
214 1 -0.00698527 0.00725594 -0.00912935 0.000847 -0.00707981 -0.00306584 -0.00446501 2650 
31 1 -0.0125904 0.0457985 -0.0094569 0.000847 0.260553 -0.136517 -0.476932 2650 
79 1 -0.00146281 0.000434784 -0.00739343 0.000233 0.0116224 -0.00870638 -0.00201173 2650 
22 1 -0.00068812 0.00126232 -0.0065514 0.000233 0.00398177 -0.00836964 -0.0209856 2650 
72 1 -0.00354869 0.0505235 -0.00785274 0.000847 0.0131193 0.0325042 0.0089407 2650 
420 1 -0.012118 0.0665276 -0.00788164 0.000847 0.136417 0.671876 -0.418877 2650 
95 1 -0.0133273 0.0292076 -0.00611101 0.001312 0.0489398 0.0801495 0.0634197 2650 
225 1 -0.0106966 0.0222701 -0.00451079 0.001312 0.0121942 0.0197564 0.00582784 2650 
187 1 -0.00246134 0.0610963 -0.0039179 0.000847 -0.100967 0.290553 -0.0832191 2650 
219 1 -0.00249454 0.00610984 -0.00234519 0.000233 0.00888838 0.00217768 -0.0132951 2650 
443 1 -0.016395 0.00977865 -0.00229041 0.000233 0.045737 -0.0742041 -0.0936211 2650 
226 1 -0.0158696 0.0130306 -0.00189414 0.000847 0.00288763 -0.0213026 -0.140326 2650 
143 1 -0.0124633 0.0268103 -0.00252056 0.000233 0.00923988 0.0311957 0.0152892 2650 
228 1 -0.0156217 0.0291261 -0.00308842 0.000847 0.0187092 -0.0177089 -0.103713 2650 
121 1 -0.0048694 0.00439722 -0.00100507 0.001312 -0.00379725 0.00472171 0.0136791 2650 
273 1 -0.0150314 0.00657077 -0.000143352 0.000233 -0.0208417 -0.0962901 -0.111017 2650 
386 1 -0.00719675 0.00714858 -0.000916972 0.000847 -0.012319 0.00334497 0.0122356 2650 
245 1 -0.00726765 0.0174482 -0.00059604 0.000233 0.0029834 0.0362239 -0.0040246 2650 
510 1 -0.00968424 0.0390583 -0.000178931 0.001312 -0.0165829 0.0622951 -0.0413831 2650 
263 1 -0.0159998 0.0605545 -0.000425622 0.001312 -0.0317571 0.206911 -0.122687 2650 
440 1 -0.0133479 0.00393789 0.00120897 0.000233 -0.00662417 0.0151211 0.00651745 2650 
172 1 -0.0155122 0.0155753 0.000191261 0.001312 -0.00583826 -0.0015981 -0.145035 2650 
99 1 -0.00950915 0.0195514 0.001431 0.000847 0.0191445 0.0211281 -0.0254536 2650 
186 1 -0.0152037 0.0381587 7.32396e-05 0.001312 -0.0375125 0.0413173 -0.0895653 2650 
132 1 -0.00454529 0.0504733 0.000824326 8.4e-05 -0.0748894 0.182908 0.0237066 2650 
482 1 -0.00863981 0.0583505 0.00109625 0.000233 0.000351426 0.0488467 0.0205314 2650 
374 1 -0.00896983 0.00178735 0.0027814 0.000233 -0.00450428 -0.00788516 -0.00181456 2650 
501 1 -0.0135973 0.0131629 0.00178407 0.000847 0.0042158 0.0171213 0.0193292 2650 
504 1 -0.016301 0.0176644 0.00185437 0.000233 -0.015435 0.0178775 -0.0449044 2650 
137 1 -0.00266316 0.0353365 0.00272696 0.000847 0.0202347 0.0234308 -0.000934137 2650 
511 1 -0.00513159 0.0416126 0.00223675 0.000847 0.0353383 0.0325344 -0.0696291 2650 
470 1 -0.008539 0.000115512 0.004033 8.4e-05 0 -0.01175 0 2650 
407 1 -0.00576529 0.0109125 0.00351775 0.000847 -0.00335092 0.0150116 0.0177236 2650 
168 1 -0.0101387 0.0568602 0.00454798 0.000233 0.0110692 0.075798 -0.0176169 2650 
60 1 -0.00635402 0.000718054 0.00475322 0.000847 -0.0009898 0.000428572 0.0136178 2650 
45 1 -0.003566 0.0019296 0.00609536 0.000847 -0.00663951 -0.00169528 -0.00422405 2650 
405 1 -0.010833 0.0134298 0.00504944 8.4e-05 -0.0173842 0.0117352 0.0210276 2650 
222 1 -0.0146373 0.0347492 0.00488038 0.000233 0.0141743 0.00613486 0.0337281 2650 
252 1 -0.00062322 0.00126363 0.00659806 0.000847 -0.00314294 -0.00149269 -0.00320149 2650 
175 1 -0.00911281 0.00608429 0.00671368 0.000847 0.0212525 0.00604816 0.0104689 2650 
392 1 -0.0119827 0.00831503 0.00638737 8.4e-05 0.0184889 -0.00764589 -0.00619915 2650 
406 1 -0.0141817 0.0232164 0.00653499 0.001312 -0.0645416 0.0634951 -0.123684 2650 
352 1 -0.0112565 0.0318438 0.00735548 0.000233 -0.0422132 0.051115 -0.00252483 2650 
455 1 -0.0127059 0.00396774 0.00939997 0.000233 0.0211277 0.00667776 0.0048823 2650 
432 1 -0.00447785 0.0228597 0.00893634 0.001312 -0.0280026 0.0300297 -0.00347438 2650 
91 1 -0.00860309 0.0495845 0.0101274 0.000233 -0.0363941 0.045077 -0.00579716 2650 
503 1 -0.00785961 0.00285543 0.0122062 0.000233 -0.0201065 -0.00306569 0.0132487 2650 
244 1 -0.0101163 0.0053199 0.0118753 0.000233 -0.0179769 0.00053436 0.0163873 2650 
375 1 -0.0108993 0.0136135 0.0125721 0.000233 -0.0457129 0.0107518 -0.0341243 2650 
291 1 -0.00683532 0.013794 0.0120104 0.000847 -0.00683794 0.00656773 -0.0107858 2650 
265 1 -0.00373469 0.0147649 0.0110803 0.000847 -0.0213001 0.0213771 0.00423925 2650 
215 1 -0.00473587 0.0265535 0.0113293 0.000847 -0.026363 0.0390254 0.000847727 2650 
1 1 -0.0053878 0.0309374 0.0112349 0.001312 -0.0792123 0.0955267 0.001797 2650 
126 1 -0.0106692 0.0484957 0.011343 0.000847 -0.0422181 0.0397531 -0.132512 2650 
105 1 -0.0105892 0.0597872 0.0123553 0.000233 -0.0186614 0.0870444 0.0272348 2650 
304 1 -0.00861464 0.00846908 0.0132175 0.000847 -0.0874141 -0.028003 -0.0737262 2650 
388 1 -0.00652703 0.0462955 0.013701 0.000233 -0.0119679 0.0575507 -0.0252837 2650 
5 1 -0.000709126 0.0248981 0.0160051 0.000847 0.548918 -0.0791445 0.0222966 2650 
292 1 -0.0507129 0.0226161 0.0455406 0.000847 6.83936 -2.51196 7.60959 2650 
16 1 -0.0411356 0.0956018 -0.0538142 0.001312 -37.9346 -1.31495 28.973 2650 
398 1 -0.000997031 0.105507 -0.068159 0.000847 -45.3155 14.0147 0.662556 2650 
164 1 -0.0664801 0.10656 0.0151488 0.000847 9.62733 1.78782 42.2245 2650 
496 1 0.00148986 -0.0327895 -0.0686769 8.4e-05 -0.324398 3.62546 0.231598 2650 
417 1 0.059753 -0.0131998 -0.0320864 0.000233 -11.8216 -0.715347 -16.148 2650 
381 1 0.00482017 -0.00710608 -0.0679824 0.000847 -15.1414 2.0336 -1.07357 2650 
19 1 0.00381771 -0.00241964 -0.0680226 0.000847 -13.1038 -2.09867 -1.01675 2650 
409 1 0.00772179 -0.0474037 -0.0677145 0.000847 -19.336 1.31888 -2.2048 2650 
230 1 0.0158748 -0.0397835 -0.0662793 0.000847 -21.0799 -2.52086 -5.04789 2650 
485 1 0.0269141 -0.00783729 -0.0626154 0.000847 -19.0256 2.80456 -8.1747 2650 
9 1 0.0307919 -0.000405772 -0.0614489 0.000233 -22.2591 -3.05864 -10.8938 2650 
234 1 0.0336748 -0.0331423 -0.0599576 0.000233 -20.096 -0.263932 -11.2867 2650 
237 1 0.0319576 -0.0140661 -0.0596758 0.001312 -15.2453 1.28173 -8.15651 2650 
84 1 0.0435618 -0.0331935 -0.0524151 0.000847 -3.81043 -3.94524 -3.16475 2650 
190 1 0.044672 -0.0266886 -0.0514724 0.000847 -1.66527 -2.32389 -1.44411 2650 
55 1 0.0481164 -0.0204673 -0.0476177 0.001312 -1.08516 -0.341523 -1.09499 2650 
96 1 0.0495706 -0.0128046 -0.0467986 0.000847 -25.0045 5.7598 -26.4687 2650 
384 1 0.054349 -0.0386298 -0.04115 0.000847 -17.6185 4.73418 -23.254 2650 
272 1 0.0559847 -0.0466071 -0.0399373 0.000233 -15.1586 -4.55143 -21.2447 2650 
260 1 0.0574011 -0.0563843 -0.0378742 0.000233 -16.3852 -6.7654 -24.8275 2650 
13 1 0.00154694 -0.00323384 -0.0135106 8.4e-05 0.129564 -0.0130829 -0.0206139 2650 
441 1 0.0676717 -0.0615275 -0.0122521 0.000233 -4.23156 1.80659 -23.3672 2650 
176 1 0.067108 -0.0546154 -0.012012 0.000847 -3.98199 -3.23583 -22.2312 2650 
338 1 0.0680174 -0.0234936 -0.0101572 0.000233 1.83623 -1.61423 12.2936 2650 
202 1 0.0675328 -0.00578836 -0.00938481 0.000847 -5.19768 -4.17345 -37.3696 2650 
204 1 0.0677005 -0.00286326 -0.00810277 0.000847 -4.87359 -2.68444 -40.7038 2650 
497 1 0.0675498 -0.0295581 -0.00489423 0.001312 -1.66441 0.143091 -22.9498 2650 
282 1 0.0120403 -0.00159336 -0.0038071 0.000847 -0.00137309 -0.0110688 -0.0022723 2650 
17 1 0.00385755 -0.00226909 -0.00217765 0.000847 -0.000232265 -0.01105 -0.00146143 2650 
489 1 0.0681458 -0.0394476 -0.0020024 0.000847 -0.659422 -2.21267 -22.4271 2650 
449 1 0.0156574 -0.00107788 -0.00153811 0.000847 0.0194492 0.00190914 0.0247326 2650 
512 1 0.0681708 -0.00902576 0.000338232 0.000847 0.0481747 -0.615213 -9.70123 2650 
426 1 0.00917047 -0.00231701 0.00202714 0.000233 0.00270092 -0.011541 -0.000995869 2650 
250 1 0.0676632 -0.0486763 0.00290043 0.001312 0.903886 1.24975 -21.0638 2650 
189 1 0.0681391 -0.0389217 0.00230739 0.000847 1.00556 -0.260931 -29.6747 2650 
302 1 0.0676699 -0.0338647 0.0027808 0.001312 0.949807 -2.77775 -23.0884 2650 
456 1 0.00971666 -0.00264753 0.00368172 0.000233 0.000242304 -0.0105571 0.00112106 2650 
359 1 0.0150385 -0.000220071 0.00361364 0.000847 -0.0076991 -0.00699061 -0.00787867 2650 
201 1 0.068037 -0.0323674 0.00433733 0.000847 1.43677 -3.36945 -22.5217 2650 
434 1 0.0675345 -0.0190191 0.00931618 0.000847 2.79236 0.040523 -20.2281 2650 
122 1 0.00519553 -0.0020526 0.0134417 0.000847 0.0318148 -0.00990152 -0.0198531 2650 
56 1 0.00297754 -0.000734842 0.015162 0.001312 0.0304418 -0.00236725 -0.00553819 2650 
370 1 0.0664652 -0.023712 0.0152003 0.000847 8.46858 -0.027987 -37.0069 2650 
224 1 0.06542 -0.0395371 0.0175139 0.001312 5.72163 4.52436 -21.3501 2650 
509 1 0.0659673 -0.0583681 0.0199483 8.4e-05 7.16789 0.709677 -23.7017 2650 
492 1 0.0652769 -0.0331891 0.0216431 0.000233 6.99137 3.09828 -21.082 2650 
408 1 0.0617368 -0.0116133 0.0289121 0.000847 10.0828 -0.967886 -21.5151 2650 
435 1 0.00525326 -0.00963247 0.0679502 0.000847 7.02836 -0.48897 -0.543365 2650 
44 1 0.0596364 -0.0386369 0.0330235 0.000847 10.5961 -1.72603 -19.1216 2650 
395 1 0.0580088 -0.0456143 0.0358201 0.000847 20.5446 0.424023 -33.2504 2650 
47 1 0.0579657 -0.0396986 0.0358844 0.000847 17.9301 5.44454 -28.9469 2650 
34 1 0.0567849 -0.0108217 0.0377206 0.000847 16.922 0.548156 -25.4576 2650 
424 1 0.057538 -0.00981604 0.0365633 0.000847 16.8758 -0.48236 -26.5391 2650 
206 1 0.0496196 -0.0119832 0.0466212 0.000233 10.671 13.8904 -12.9248 2650 
135 1 0.0379122 -0.00841819 0.0465018 0.000847 10.7097 -4.2865 -15.9187 2650 
367 1 0.0450752 -0.0201075 0.0505563 0.001312 32.8944 -4.5647 -29.3029 2650 
61 1 0.038506 -0.0118205 0.0562394 0.000847 18.553 5.11633 -12.6942 2650 
411 1 0.0324815 -0.0613739 0.05992 0.000847 21.5533 0.225779 -11.6765 2650 
303 1 0.0321256 -0.0249643 0.0601155 0.000847 27.0789 3.49277 -14.4619 2650 
522 1 0.0225934 -0.012757 0.0651072 8.4e-05 14.5076 -0.964522 -5.03324 2650 
4 1 0.000776052 -0.0464302 0.0681504 0.000847 26.1438 -1.79591 -0.297579 2650 
207 1 0.000119547 0.00616812 -0.0165951 0.000233 0.148594 -0.00519742 -0.00629263 2650 
430 1 0.000565791 0.0375527 -0.0165066 0.000233 -0.198341 -0.0197539 -0.0361948 2650 
63 1 0.00605696 0.0153748 -0.0153694 0.000233 -0.0103684 0.0234656 -0.00145892 2650 
421 1 0.00670497 0.011835 -0.0133457 0.000847 -0.00672326 0.00104209 0.00772388 2650 
403 1 0.00878625 0.0301158 -0.0139559 0.000233 -0.0131932 0.0213296 -0.00560992 2650 
97 1 0.00935447 0.0313948 -0.0131894 0.000847 -0.0531469 0.0138135 -0.0461484 2650 
178 1 0.00926736 0.0484047 -0.0129089 0.000847 0.20021 0.0665247 0.171842 2650 
516 1 0.0103996 0.0503217 -0.0128705 0.000233 0.998635 0.930319 0.78479 2650 
276 1 0.00595639 0.00966159 -0.012217 0.001312 -0.00522974 0.0111198 -0.00344013 2650 
58 1 0.01084 0.0128619 -0.011535 0.000847 0.0117055 0.00245977 -0.00418207 2650 
74 1 0.0113363 0.0135691 -0.00965822 0.000847 -0.00793461 0.00391223 0.00471651 2650 
363 1 0.0125056 0.0164925 -0.0102622 0.000233 -0.00516116 0.0058541 -0.00751722 2650 
109 1 0.00827178 0.000472688 -0.00935923 0.000847 0.00625087 -0.00353474 0.00741645 2650 
212 1 0.00144134 0.00851816 -0.00915498 0.001312 -0.00242737 0.00187603 0.00243017 2650 
251 1 0.00955003 0.0241471 -0.00846153 0.000847 0.0220363 0.0205447 0.0102673 2650 
68 1 0.0129794 0.0672739 -0.00827066 0.001312 0.243 0.201398 0.00296039 2650 
400 1 0.008609 0.000356512 -0.006808 0.000233 0 -0.01175 0 2650 
377 1 0.002656 0.000202512 -0.00627 0.000233 0 -0.01175 0 2650 
438 1 0.00558344 0.000613951 -0.00481481 0.000847 -0.0107653 -0.00523275 -0.0113089 2650 
472 1 0.00279447 0.00300936 -0.00539982 0.000847 -0.0145446 -0.00786977 -0.0122869 2650 
353 1 0.00999096 0.00374755 -0.00568473 8.4e-05 0.00908281 0.00118574 -0.0158319 2650 
333 1 2.84344e-05 0.0125049 -0.00583059 0.000847 -0.0182026 0.0108398 -0.0302742 2650 
152 1 0.0079376 0.0116312 -0.00556139 0.000847 0.0127532 0.00775363 -0.0359342 2650 
493 1 0.00835599 0.0138036 -0.00524339 0.000233 -0.0118703 0.00376708 0.00232476 2650 
147 1 0.0131661 0.0278794 -0.00489507 0.001312 -0.00880687 0.0298708 0.0149597 2650 
446 1 0.01231 0.0495237 -0.0055638 0.000847 -0.0153552 0.046385 -0.037944 2650 
27 1 0.00026457 0.00271213 -0.0039346 8.4e-05 -0.0243811 -0.00666517 -0.00246167 2650 
50 1 0.00554668 0.00124334 -0.00174034 0.000233 -0.0100305 -0.0015242 -0.00674972 2650 
65 1 0.0164256 0.000344842 -0.00279876 0.000233 0.000841984 -0.000391469 0.030306 2650 
422 1 0.0152894 0.00338453 -0.00220013 0.000847 -0.0623772 -0.01158 0.130734 2650 
293 1 0.0105736 0.0208248 -0.00191895 0.000847 0.0120037 0.0137644 -0.0126971 2650 
437 1 0.0157485 0.0260188 -0.00201063 0.000847 -0.00666861 0.0232441 0.0142914 2650 
216 1 0.00100757 0.0315763 -0.0018543 0.000847 0.00347878 0.0283419 0.0066285 2650 
328 1 0.00980039 0.000585227 -0.000947834 0.001312 -0.00794994 -0.0044982 -0.00425546 2650 
210 1 0.0157527 0.00443693 -0.00156014 8.4e-05 0.00184344 -0.0163936 0.220788 2650 
35 1 0.011401 0.0217455 -0.000629466 0.000847 -0.00414191 0.0321723 -0.0128518 2650 
160 1 0.0118775 0.0521445 -0.00152399 0.001312 -0.0900396 0.234668 -0.0387898 2650 
475 1 0.00577225 0.000748233 0.000674228 0.000847 0.0142993 -0.0091047 -0.0116892 2650 
254 1 0.00655545 0.0066515 0.00101332 0.000847 -0.0123258 0.00374391 -0.0102355 2650 
255 1 0.0152999 0.00840226 0.00114666 0.000847 -0.00852525 0.00468548 0.0056555 2650 
266 1 0.00276628 0.0443985 0.0015468 0.000847 -0.0104794 0.0552246 -0.023596 2650 
323 1 0.00596979 0.0668676 0.000814137 0.000233 0.0351264 0.108639 0.0188674 2650 
54 1 0.00682054 0.0031578 0.00277472 8.4e-05 -0.0136844 -0.00183931 -0.00696332 2650 
238 1 0.0154353 0.019937 0.00228705 0.001312 0.0158737 0.0196746 -0.00776959 2650 
450 1 0.0158709 0.0524961 0.00212321 0.000847 -0.0205965 0.144532 0.108852 2650 
3 1 0.0136032 0.0538604 0.00267558 0.000847 -0.00971456 0.032209 0.0218724 2650 
108 1 0.00930396 0.0740073 0.00300781 0.001312 -0.00269386 0.0975709 0.00724938 2650 
295 1 0.00823748 0.00337812 0.00464365 0.000847 -0.012348 0.00252147 -0.00919362 2650 
476 1 0.0117562 0.0078574 0.00403164 0.000847 -0.00904268 -0.00228161 -0.00910678 2650 
383 1 0.000122233 0.0314076 0.00419972 0.000847 -0.0262142 0.105763 0.0235565 2650 
457 1 0.0115128 0.0374841 0.0037402 8.4e-05 0.00801527 0.0347161 0.0147456 2650 
28 1 0.0156171 0.0419651 0.0040346 8.4e-05 -0.00639653 0.0422867 0.0198075 2650 
372 1 0.00607246 0.0647196 0.00437221 0.000847 -0.0083035 0.0720622 0.00640371 2650 
43 1 0.0143169 0.00433968 0.00620504 0.001312 0.00388559 0.00329282 -0.0137526 2650 
342 1 0.00987936 0.0115058 0.00475314 0.000847 0.0116747 0.0168111 0.0259924 2650 
7 1 0.00404682 0.0136134 0.00499602 0.000847 0.0216112 -0.000373431 -0.021399 2650 
200 1 0.0144524 0.026134 0.00505007 0.000847 0.00484614 0.0350883 -0.0144925 2650 
515 1 0.00314884 0.0319883 0.00597877 0.000847 0.0129906 0.0425099 -0.0246502 2650 
38 1 0.0107437 0.040873 0.00599713 0.000233 -0.0108563 0.0381487 0.00282041 2650 
517 1 0.0144069 0.0416727 0.00627095 0.000233 -0.00877497 0.0304557 -0.0141504 2650 
321 1 0.012368 0.0683251 0.0058827 0.000847 0.00588201 0.074253 -0.0242794 2650 
229 1 0.014311 0.0379083 0.00740957 0.000847 -0.156802 -0.0829092 0.183373 2650 
486 1 0.00249545 0.0396784 0.0093831 0.000847 0.106974 0.117587 0.223481 2650 
217 1 0.00342231 0.0179542 0.0103215 0.000847 0.00761785 0.0247973 0.0245022 2650 
351 1 0.00604513 0.0265366 0.0100101 0.000233 0.00409184 0.0180406 0.0328294 2650 
261 1 0.00466003 0.0401165 0.00978 0.000233 -0.0196763 0.0490884 -0.00353516 2650 
418 1 0.00728974 0.045963 0.00987738 8.4e-05 -0.0795545 0.0123933 0.0859631 2650 
80 1 0.0021599 0.0481323 0.010715 8.4e-05 -0.0363799 0.0645411 0.011077 2650 
89 1 0.003537 0.000382512 0.012461 0.000233 0 -0.01175 0 2650 
506 1 0.0113716 0.0343704 0.011429 0.000233 -0.0128936 0.0239161 0.0127615 2650 
462 1 0.00875063 0.000760952 0.0133876 0.000847 0.0261248 -0.00632615 -0.0192337 2650 
103 1 0.00936785 0.0113724 0.0134982 0.000233 -0.00208772 0.00576438 0.000159072 2650 
191 1 0.00256949 0.0351927 0.013941 0.000847 -0.0254733 0.109952 0.0164065 2650 
180 1 0.00100463 0.067794 0.0133392 0.000233 0.00860892 0.0812149 0.00119763 2650 
192 1 0.00569476 0.0014446 0.0155082 0.000233 0.041258 0.00162859 -0.018361 2650 
390 1 0.00575752 0.002663 0.0148868 0.000233 0.0311347 0.012082 -0.0238244 2650 
37 1 0.00817796 0.0321175 0.014646 0.000233 -0.00297078 0.040459 0.00163674 2650 
356 1 0.00478576 0.034585 0.0152597 0.000847 -0.0454889 0.0345343 0.0119977 2650 
425 1 0.00115707 0.0469003 0.0156784 0.000847 -0.00495318 0.0359474 0.0065931 2650 
77 1 0.00364141 0.040123 0.0158659 0.000233 0.0214475 0.0454594 -0.0171357 2650 
277 1 0.0500131 0.0528267 0.0463048 0.000847 -0.0693289 -0.232183 0.0748094 2650 
198 1 0.041666 0.0439307 0.0534449 0.001312 54.3138 6.69382 -42.3121 2650 
81 1 0.0112803 0.0986059 -0.0667932 0.001312 -55.4182 11.8146 -9.3518 2650 
154 1 0.00356785 0.14456 -0.00847816 0.000233 -0.00924804 0.118602 0.00100956 2650 
