ITEM: TIMESTEP
9722162
ITEM: NUMBER OF ATOMS
463
ITEM: BOX BOUNDS ff ff ff
-0.15 0.15
-0.15 0.15
-0.15 0.15
ITEM: ATOMS id type x y z radius vx vy vz density 
101 1 -0.00123787 -0.0116955 -0.0686325 0.000233 -1.76634 -0.927804 -0.557433 2650 
241 1 -0.00933718 -0.0582038 -0.0675105 0.000847 -14.9678 0.221485 2.07011 2650 
61 1 -0.0116048 -0.00542986 -0.0671578 0.000847 -11.6959 -0.550426 2.02102 2650 
429 1 -0.0188721 -0.0568499 -0.0661267 0.000233 -17.3179 -1.90192 4.9424 2650 
454 1 -0.0225167 -0.00703661 -0.0649761 0.000233 -13.324 -1.5607 4.61729 2650 
307 1 -0.0211136 -0.00226762 -0.0648002 0.000847 -12.8658 -0.13399 4.19191 2650 
272 1 -0.0287 -0.0148368 -0.0624917 0.000233 -15.6084 0.63493 7.16833 2650 
57 1 -0.0333119 -0.0373443 -0.0594573 0.000847 -9.01181 -0.747473 5.04861 2650 
397 1 -0.0342513 -0.0287646 -0.058921 0.000847 -3.35801 -1.12875 1.95194 2650 
151 1 -0.0390981 -0.0405826 -0.0558259 0.000847 -13.0404 -0.196984 9.12707 2650 
334 1 -0.0507893 -0.0615898 -0.0454618 0.000847 -14.5247 0.429051 16.2148 2650 
243 1 -0.058905 -0.0156243 -0.034304 0.000847 -7.41143 -0.522968 12.7609 2650 
21 1 -0.0594383 -0.013885 -0.0333743 0.000847 -6.70988 2.70522 11.9222 2650 
410 1 -0.060658 -0.0115654 -0.031102 0.000847 -5.80307 -1.80052 11.3089 2650 
385 1 -0.0391042 -0.0610878 -0.0148995 0.000847 9.84924 21.1735 33.3672 2650 
193 1 -0.0631749 -0.0042195 -0.0120045 0.000233 -11.6222 -6.74052 19.77 2650 
164 1 -0.00954233 -0.00196041 -0.00962912 0.000847 -0.000888007 -0.013126 -0.00103349 2650 
10 1 -0.0683185 -0.0327235 -0.00788252 0.000233 -1.38465 -3.3606 11.9984 2650 
468 1 -0.0106231 -0.00150225 -0.00927891 0.000233 -0.00176601 -0.0124053 -0.00189406 2650 
32 1 -0.00475277 -0.00077021 -0.0079771 0.000847 -0.0481819 -0.0121553 0.0374979 2650 
51 1 -0.0115637 -0.00243949 -0.00643917 0.000233 -0.0152548 -0.0128778 0.00110874 2650 
483 1 -0.010366 -0.00275845 -0.006716 8.4e-05 0 -0.01175 0 2650 
287 1 -0.00775692 -0.00125316 -0.00721306 0.000233 -0.0111027 -0.0134129 0.00953401 2650 
455 1 -0.00705861 -0.000273058 -0.00612805 0.000233 -0.00547798 -0.00773272 0.0139802 2650 
286 1 -0.016281 -0.00252645 -0.003576 0.000233 0 -0.01175 0 2650 
357 1 -0.068109 -0.029997 -0.00291774 0.000847 -0.389784 -6.31209 9.09251 2650 
84 1 -0.004923 -0.00255345 -0.002038 0.000847 0 -0.01175 0 2650 
201 1 -0.00586769 -0.000935754 -0.00113951 0.000847 -0.000300803 -0.0150209 0.00639832 2650 
505 1 -0.0135545 -0.000244907 0.000543495 0.000233 -0.00378522 -0.00213289 0.00845565 2650 
440 1 -0.0140887 -0.000107455 0.00210351 0.000233 0.00637766 0.0032616 -0.0067895 2650 
364 1 -0.0139 -0.00157145 0.002152 0.000233 0 -0.01175 0 2650 
441 1 -0.014312 -0.00209545 0.004679 0.000233 0 -0.01175 0 2650 
206 1 -0.002945 -0.00142545 0.003686 0.000233 0 -0.01175 0 2650 
384 1 -0.000307807 -0.000216455 0.004467 0.000847 0.00453983 1.76909e-05 0.0213336 2650 
302 1 -0.0112089 -0.00276668 0.00475467 0.001312 0.00577085 -0.0234202 0.0253228 2650 
274 1 -0.005863 -0.00232045 0.005228 0.000233 0 -0.01175 0 2650 
431 1 -0.007173 -5.14534e-05 0.006023 8.4e-05 0 -0.01175 0 2650 
424 1 -0.0677578 -0.0219907 0.00752951 0.000847 2.46098 0.477731 22.1338 2650 
96 1 -7.1e-05 -0.000860453 0.006733 0.000847 0 -0.01175 0 2650 
183 1 -0.0681039 -0.0240587 0.0095624 0.000233 3.21283 5.74809 22.8773 2650 
204 1 -0.0531762 -0.00969461 0.00885799 0.000847 -7.97438 -0.51955 1.33605 2650 
41 1 -0.008377 -0.00204645 0.009542 8.4e-05 0 -0.01175 0 2650 
259 1 -0.007193 -0.00201445 0.011052 0.000233 0 -0.01175 0 2650 
195 1 -0.00839564 -0.00137059 0.0122382 0.000233 0.0321105 -0.0130954 0.0347571 2650 
311 1 -0.0039577 -0.000649458 0.0159127 0.000233 -0.00566322 -0.0102297 0.000656674 2650 
120 1 -0.0648191 -0.0337518 0.0196134 0.001312 5.69417 0.377855 18.7988 2650 
232 1 -0.0632519 -0.0612992 0.0269926 0.000233 5.55752 0.924709 13.0201 2650 
64 1 -0.0632609 -0.0190691 0.0269712 0.000233 2.09224 1.42428 4.90624 2650 
306 1 -0.0610081 -0.0373997 0.0304135 0.000847 7.79989 -1.11129 15.6347 2650 
452 1 -0.0617798 -0.032946 0.0302097 0.000233 5.87842 -1.76358 12.0188 2650 
190 1 -0.0589432 -0.0389846 0.0342418 0.000847 8.88271 -1.39804 15.2792 2650 
439 1 -0.0596401 -0.0288566 0.0337247 0.000233 11.7652 11.4538 9.11733 2650 
202 1 -0.0582151 -0.0302897 0.0355056 0.000847 30.6655 0.353946 50.5944 2650 
318 1 -0.0580922 -0.0244502 0.0356603 0.000847 4.47333 1.01803 7.28131 2650 
53 1 -0.0586361 -0.00629038 0.0359338 0.000233 25.3849 -8.5443 41.3859 2650 
445 1 -0.058073 -0.00131183 0.0348089 0.001312 2.5426 6.32787e-07 4.23665 2650 
341 1 -0.0566953 -0.0212976 0.0370204 0.001312 9.33464 -3.79208 14.2798 2650 
26 1 -0.0579455 -0.00960159 0.0370347 0.000233 6.12601 -0.735924 9.58261 2650 
330 1 -0.0575324 -0.005279 0.0365576 0.000847 6.53078 3.11395 10.2696 2650 
231 1 -0.0572588 -0.0481719 0.0380947 0.000233 -42.2132 8.8157 -63.4382 2650 
480 1 -0.0518106 -0.0616435 0.0436906 0.000233 53.7051 0.628603 35.969 2650 
459 1 -0.0523659 -0.0593263 0.0436296 0.000847 3.17977 0.175004 3.81304 2650 
9 1 -0.0480548 -0.00669678 0.046801 0.000233 1.80353 -3.85406 8.37391 2650 
118 1 -0.0503444 -0.00619336 0.0468456 0.000233 11.9387 1.64579 12.8271 2650 
264 1 -0.0465971 -0.0200542 0.049741 0.000847 8.35151 -1.70873 7.81696 2650 
322 1 -0.0401548 -0.0624326 0.0503388 0.000233 -77.5258 -1.1713 -23.8107 2650 
458 1 -0.043882 -0.0284807 0.0515464 0.001312 7.82996 0.711273 6.65753 2650 
366 1 -0.0467556 -0.023772 0.0506293 8.4e-05 3.94405 -1.73021 3.64228 2650 
70 1 -0.0430064 -0.00271631 0.0528734 0.000847 8.08284 -0.589423 6.56938 2650 
327 1 -0.0414691 -0.0220592 0.0550429 8.4e-05 8.3799 -0.108814 6.31338 2650 
59 1 -0.0385925 -0.020543 0.0561758 0.000847 12.0778 -1.04386 8.2923 2650 
487 1 -0.0376994 -0.00933299 0.0567809 0.000847 15.6435 -1.76374 10.3795 2650 
138 1 -0.0322732 -0.0561399 0.0600296 0.000847 16.8279 0.698028 9.04258 2650 
100 1 -0.0304549 -0.036239 0.0609708 0.000847 14.6833 2.81002 7.33235 2650 
411 1 -0.030609 -0.0165623 0.0608948 0.000847 17.4729 -1.48863 8.77886 2650 
253 1 -0.0266242 -0.0435933 0.0627385 0.000847 17.3231 0.962555 7.34936 2650 
347 1 -0.024886 -0.0331722 0.0637992 0.000847 105.484 -5.30022 113.318 2650 
344 1 -0.02505 -0.0498002 0.0633839 0.000847 19.2887 -1.48073 7.62055 2650 
82 1 -0.0234095 -0.00157422 0.0635123 0.001312 12.6036 5.32314 4.64384 2650 
463 1 -0.0204825 -0.0222836 0.0650027 0.000847 16.7984 -1.02586 5.29275 2650 
34 1 -0.0171278 -0.00902818 0.0659658 0.000847 15.2584 -4.00639 3.95794 2650 
161 1 -0.0184973 -0.00176358 0.0655948 0.000847 8.77587 1.08655 2.47473 2650 
396 1 -0.00788268 -0.0617944 0.0676953 0.000847 4.1697 0.259229 0.445014 2650 
92 1 -0.0129914 -0.0261305 0.0675287 0.000233 21.2949 -5.07476 4.09677 2650 
373 1 -0.00365108 -0.0612012 0.0680552 0.000847 5.98223 0.461239 0.355828 2650 
47 1 -0.00130646 -0.0452014 0.0681405 0.000847 12.967 -5.08063 0.248617 2650 
4 1 -0.00381287 -0.0381927 0.0680494 0.000847 29.017 5.04066 1.6252 2650 
416 1 -0.0562214 0.0465793 -0.0396023 0.000233 -0.0892437 -0.364585 0.126662 2650 
177 1 -0.000572683 0.0189687 -0.016086 0.000847 -0.0208499 0.0420621 0.00437092 2650 
301 1 -0.00437392 0.0336254 -0.016309 8.4e-05 0.125636 0.254254 -0.0278648 2650 
430 1 -0.00204302 0.0499761 -0.0163828 0.000233 -0.183627 -0.0256745 0.0476987 2650 
309 1 -0.00574191 0.00555568 -0.0148438 0.000233 -0.0176878 -0.00537349 0.00346456 2650 
246 1 -0.00531612 0.00537699 -0.0149172 0.000233 -0.0162347 -0.0086004 -0.0130057 2650 
474 1 -0.00254542 0.0627164 -0.0152573 0.000847 -0.146422 0.352439 -0.266562 2650 
233 1 -0.00644886 0.00109128 -0.0132238 0.000233 0.001282 -0.0107579 -0.00349916 2650 
251 1 -0.00190892 0.0134638 -0.0138006 0.000847 0.0220363 0.0205447 0.0102673 2650 
76 1 -0.005578 0.00326055 -0.011829 0.000233 0 -0.01175 0 2650 
209 1 -0.00302204 0.00497098 -0.0113267 0.000233 -0.00583763 -0.00915932 -0.00154894 2650 
143 1 -0.0116713 0.0131677 -0.0117807 0.000233 -0.0152821 0.0184498 0.0224205 2650 
48 1 -0.00953104 0.0232687 -0.0125839 0.000847 -0.021786 0.0382444 0.0131381 2650 
72 1 -0.0103007 0.0336063 -0.0124318 0.000847 -0.0206207 0.0396561 -0.0248414 2650 
13 1 -0.012448 0.00301055 -0.010914 8.4e-05 0 -0.01175 0 2650 
271 1 -0.00873421 0.00219942 -0.0097287 0.000233 -0.0179225 0.00192721 0.00285039 2650 
501 1 -0.0092252 0.00378925 -0.00971777 0.000847 -0.0373474 0.0196187 0.0216542 2650 
146 1 -0.00113644 0.00613322 -0.0104218 0.001312 -0.00377335 -0.000193724 0.00110339 2650 
222 1 -0.00176331 0.0286725 -0.0108024 0.000233 -0.0404047 0.0139169 0.0287244 2650 
482 1 -0.00882255 0.0329501 -0.00958011 0.000233 0.000351426 0.0488467 0.0205314 2650 
213 1 -0.0108965 0.0468763 -0.00948427 0.000847 -0.0502713 0.0685319 -0.0328655 2650 
336 1 -0.000699 0.000347547 -0.008095 0.000233 0 -0.01175 0 2650 
121 1 -0.00289267 0.00194194 -0.00811765 0.001312 -0.00383059 0.00472125 0.0136696 2650 
348 1 -0.011402 0.00454655 -0.008993 0.000233 0 -0.01175 0 2650 
413 1 -0.00623388 0.00903436 -0.00868021 0.000233 -0.0179271 0.00383935 -0.0203087 2650 
323 1 -0.0122961 0.0103751 -0.00899694 0.000233 0.0351264 0.108639 0.0188674 2650 
25 1 -0.0682974 0.0437096 -0.00806211 0.000233 0.0054693 -0.372936 -0.0463228 2650 
133 1 -0.00681656 0.00123496 -0.00768391 0.001312 -0.0151295 -0.00283379 0.0211355 2650 
158 1 -0.00423678 0.00115592 -0.00738656 8.4e-05 -0.00184406 -0.011926 0.00030382 2650 
324 1 -0.00495593 0.00172717 -0.00746767 0.000233 0.0047388 0.0070737 -0.00132491 2650 
332 1 -0.013063 0.00554527 -0.00785513 0.000847 0.00521 -0.0171315 0.0227812 2650 
79 1 -0.00750649 0.00496213 -0.00634732 0.000233 0.0116224 -0.00870638 -0.00201173 2650 
386 1 -0.000790825 0.00540918 -0.00727953 0.000847 -0.012319 0.00334497 0.0122356 2650 
512 1 -0.00954592 0.00766672 -0.00755811 0.000847 -0.0166001 0.000849647 0.00116294 2650 
214 1 -0.00330375 0.00885018 -0.00680753 0.000847 -0.00707981 -0.00306584 -0.00446501 2650 
199 1 -0.0073579 0.0121363 -0.00729462 0.001312 -8.22847e-05 0.00621402 -0.00802024 2650 
15 1 -0.000508443 0.0142427 -0.00699258 0.001312 0.0216423 0.0459953 0.0149194 2650 
136 1 -0.00240861 0.00090554 -0.00615384 0.000847 -0.00107695 -0.00439443 0.0122016 2650 
407 1 -0.00389296 0.00321186 -0.00581998 0.000847 -0.00990754 0.00969034 0.0238534 2650 
405 1 -0.00179317 0.00732748 -0.00588499 8.4e-05 -0.0173842 0.0117352 0.0210276 2650 
225 1 -0.00823033 0.0107276 -0.00478617 0.001312 -0.0280675 0.0255624 -0.00677147 2650 
228 1 -0.0140456 0.0163763 -0.00609475 0.000847 -0.0167164 0.0428122 0.0484232 2650 
486 1 -0.0104166 0.0161074 -0.00556423 0.000847 -0.0499673 0.046446 -0.033693 2650 
216 1 -0.000801409 0.0168384 -0.00530114 0.000847 0.00347878 0.0283419 0.0066285 2650 
478 1 -0.010102 0.000995547 -0.003546 0.000233 0 -0.01175 0 2650 
237 1 -0.00165104 9.6588e-05 -0.00419339 0.001312 0.00395758 -0.0083405 0.0115384 2650 
160 1 -0.00524998 0.00182252 -0.00442543 0.001312 -0.00852734 0.0197242 0.0147527 2650 
145 1 -0.007489 0.00399355 -0.00326 8.4e-05 0 -0.01175 0 2650 
392 1 -0.00511475 0.0095456 -0.00407522 8.4e-05 -0.0458613 0.0402452 0.0459262 2650 
273 1 -0.00621293 0.0111715 -0.00339038 0.000233 -0.0203117 0.004391 0.0297204 2650 
60 1 -0.00583932 0.000495195 -0.00232808 0.000847 -0.0009898 0.000428572 0.0136178 2650 
312 1 -0.006897 0.00250155 -0.002463 0.000233 0 -0.01175 0 2650 
467 1 -0.00881077 0.00338016 -0.00241116 0.000233 0.0050306 -0.0120246 0.00624024 2650 
175 1 -0.00757663 0.00396647 -0.00170547 0.000847 -0.0394374 0.00109547 0.024814 2650 
285 1 -0.004117 0.00357655 -0.002186 0.000233 0 -0.01175 0 2650 
105 1 -0.000885232 0.0145239 -0.00180693 0.000233 -0.0186614 0.0870444 0.0272348 2650 
208 1 -0.003072 0.000619547 -0.000554 0.000233 0 -0.01175 0 2650 
75 1 -0.004976 0.00398755 -0.001105 0.000233 0 -0.01175 0 2650 
520 1 -0.000805486 0.00742552 -0.0014379 0.000233 -0.0408881 0.00975514 -0.0298724 2650 
8 1 -0.00519255 0.0092026 0.000158308 0.000233 -0.0377859 0.00117362 -0.00427534 2650 
270 1 -0.00565248 0.000771773 0.00300687 0.000233 -0.0377887 -0.0230306 0.00455896 2650 
242 1 -0.010702 0.00306855 0.00289 0.000847 0 -0.01175 0 2650 
376 1 -0.005395 0.00347755 0.002758 0.000233 0 -0.01175 0 2650 
394 1 -0.000539318 0.00609643 0.00241792 0.000847 -0.00120132 -0.00656048 0.0160122 2650 
77 1 -0.00809341 0.0138613 0.00263791 0.000233 0.022645 0.0508553 0.0284117 2650 
186 1 -0.0151942 0.0192337 0.00217564 0.001312 0.00720946 0.0356208 0.0312571 2650 
188 1 -0.00184968 0.0299585 0.00305171 0.000847 0.00797073 0.0304807 0.00488408 2650 
81 1 -0.0117421 0.0464987 0.00262525 0.001312 0.221355 0.4242 -0.0664178 2650 
56 1 -0.0117303 0.00176515 0.00457527 0.001312 0.0010702 -0.0134502 -0.00226327 2650 
131 1 -0.009967 0.00332755 0.004313 0.000233 0 -0.01175 0 2650 
219 1 -0.00683112 0.00473255 0.0046833 0.000233 0.0043841 0.00604252 -0.0151097 2650 
470 1 -0.008539 0.00622555 0.004033 8.4e-05 0 -0.01175 0 2650 
374 1 -0.006913 0.00613255 0.00361 0.000233 0 -0.01175 0 2650 
296 1 -0.002285 0.00516655 0.004233 0.000233 0 -0.01175 0 2650 
22 1 -0.00275865 0.00561456 0.00436119 0.000233 0.00398177 -0.00836964 -0.0209856 2650 
137 1 -0.0131852 0.0231525 0.00321271 0.000847 0.0202347 0.0234308 -0.000934137 2650 
71 1 -0.00514949 0.0417698 0.00455757 0.000847 -0.248446 0.0994797 0.40882 2650 
466 1 -0.0144027 0.0458551 0.00414144 0.000233 0.00860235 0.156793 0.028965 2650 
135 1 -0.008556 0.000460547 0.005239 0.000847 0 -0.01175 0 2650 
283 1 -0.00660043 0.00122097 0.00600415 0.000233 0.00411522 -0.014298 -0.00503883 2650 
223 1 -0.014414 0.00261955 0.005039 8.4e-05 0 -0.01175 0 2650 
256 1 -0.00449992 0.00214611 0.00494163 0.000847 0.00287093 -0.0109614 -0.0104852 2650 
469 1 -0.012765 0.00386655 0.005129 0.000233 0 -0.01175 0 2650 
90 1 -0.009269 0.00410955 0.005356 0.000233 0 -0.01175 0 2650 
361 1 -0.012031 0.00548455 0.0053 0.000233 0 -0.01175 0 2650 
245 1 -0.0103303 0.00582021 0.00489196 0.000233 0.00890129 0.00799684 -0.0173194 2650 
244 1 -0.00225713 0.00579837 0.00571391 0.000233 -0.00017938 -0.00850699 -0.011825 2650 
7 1 -0.00371683 0.00859663 0.00552967 0.000847 -0.0313395 0.018392 0.0734178 2650 
331 1 -0.0104226 0.0417464 0.00570461 0.000847 0.0418412 0.222679 0.07983 2650 
329 1 -0.000212 0.00203855 0.006779 0.000847 0 -0.01175 0 2650 
369 1 -0.008047 0.00402455 0.006729 0.000847 0 -0.01175 0 2650 
475 1 -0.00166345 0.0054827 0.00675263 0.000847 0.0142993 -0.0091047 -0.0116892 2650 
515 1 -0.00177259 0.0101832 0.00744371 0.000847 -0.00972177 0.0339885 0.0810589 2650 
31 1 -0.0106136 0.0174788 0.00702863 0.000847 0.0151872 0.0685855 0.0489155 2650 
418 1 -0.0150392 0.0329348 0.00751301 8.4e-05 0.0408609 0.0372582 0.0986371 2650 
88 1 -0.010473 0.00151755 0.008034 0.000233 0 -0.01175 0 2650 
355 1 -0.00818942 0.00283992 0.00875909 0.000847 0.0213659 -0.0214025 0.0103972 2650 
45 1 -0.00129737 0.00340701 0.00813051 0.000847 0.00391322 -0.00700637 -0.00278578 2650 
168 1 -0.00560902 0.0171258 0.00829196 0.000233 0.101353 0.11035 0.0767817 2650 
178 1 -0.00393573 0.0177933 0.00921906 0.000847 -0.0105802 0.0285637 -0.000816359 2650 
511 1 -0.0039488 0.0284021 0.00829016 0.000847 -0.0263755 0.0264761 0.018552 2650 
229 1 -0.0136925 0.0418319 0.00817033 0.000847 -0.529549 0.0268747 -0.511635 2650 
176 1 -0.00510407 0.000423958 0.0108596 0.000847 -0.0142094 -0.0113942 0.0101799 2650 
235 1 -0.00997713 0.00418759 0.00993074 0.000233 0.00399582 -0.00877919 -0.0187464 2650 
85 1 -0.00913667 0.0223674 0.00970294 0.000847 0.0215624 0.0883325 0.0523264 2650 
362 1 -0.0405153 0.0675898 0.0100328 0.000233 -5.7998 0.218427 1.49628 2650 
518 1 -0.011612 0.00284055 0.01181 0.000233 0 -0.01175 0 2650 
226 1 -0.00528803 0.00223001 0.0118667 0.000847 -0.00674731 -0.000506831 0.00943272 2650 
128 1 -0.003888 0.00325955 0.011415 0.000233 0 -0.01175 0 2650 
313 1 -0.004641 0.00590555 0.011299 0.000233 0 -0.01175 0 2650 
192 1 -0.009107 0.00312355 0.013183 0.000233 0 -0.01175 0 2650 
379 1 -0.006906 0.00249055 0.013866 8.4e-05 0 -0.01175 0 2650 
462 1 -0.00937294 0.00439653 0.012958 0.000847 0.0382004 -0.00830228 0.019408 2650 
196 1 -0.00818365 0.0153401 0.0136476 0.000233 -0.000496307 0.0280491 0.0192263 2650 
180 1 -0.00347203 0.025562 0.0127165 0.000233 0.00860892 0.0812149 0.00119763 2650 
129 1 -0.00888448 0.037672 0.0140886 0.000233 0.167052 0.124388 0.0880414 2650 
504 1 -0.00677386 0.0101018 0.0151812 0.000233 0.0632932 0.0154719 0.0106173 2650 
291 1 -0.00353014 0.0103577 0.0142195 0.000847 -0.0140159 0.0254435 0.0425608 2650 
73 1 -0.00124595 0.0158524 0.0152741 0.000847 0.0344698 0.0325476 0.0115641 2650 
345 1 -0.0524672 0.0847384 -0.0437393 0.000847 -122.956 1.43319 147.439 2650 
2 1 -0.00669148 0.112083 -0.00480429 0.001312 0.0611311 0.778927 0.0269389 2650 
33 1 8.86263e-05 -0.0130728 -0.0681531 0.000847 -17.077 -0.88336 -0.0222114 2650 
269 1 0.00160432 -0.00962821 -0.0681349 0.000847 -22.43 0.766315 -0.52808 2650 
491 1 0.0108293 -0.0619863 -0.067909 0.000233 -14.5256 -5.10493 -2.31635 2650 
434 1 0.0128972 -0.0306694 -0.0669218 0.000847 -16.8131 -1.0421 -3.24006 2650 
500 1 0.0172494 -0.0550479 -0.065934 0.000847 -12.7932 -4.9699 -3.34686 2650 
78 1 0.0319705 -0.0391081 -0.0608834 0.000233 -14.7058 -1.08877 -7.72216 2650 
448 1 0.0304331 -0.012037 -0.0609814 0.000847 -13.516 -1.39677 -6.74393 2650 
23 1 0.0356124 -0.0487354 -0.0588274 0.000233 -7.07351 -2.81152 -4.28209 2650 
519 1 0.0356215 -0.0201135 -0.0588218 0.000233 -4.77953 -1.01118 -2.8944 2650 
106 1 0.0387449 -0.0371061 -0.0569934 8.4e-05 -12.2181 -4.21881 -8.30604 2650 
389 1 0.036509 -0.0216623 -0.0582751 0.000233 -3.30884 -1.06421 -2.07296 2650 
86 1 0.0393816 -0.0570006 -0.0556235 0.000847 -6.4445 -2.38726 -4.56157 2650 
465 1 0.0476907 -0.0546176 -0.0495436 0.000233 -9.42357 0.882902 -9.06857 2650 
415 1 0.0484404 -0.0609707 -0.0488108 0.000233 -5.57828 1.99352 -5.53426 2650 
382 1 0.0487601 -0.0537207 -0.0476223 0.000847 -4.25932 -1.21654 -4.35705 2650 
46 1 0.051612 -0.0146709 -0.0445214 0.000847 -8.52778 -1.38725 -9.87782 2650 
249 1 0.0531661 -0.017899 -0.0438503 8.4e-05 -10.4065 0.786875 -12.6161 2650 
473 1 0.0537786 -0.0604054 -0.0418862 0.000847 -13.2958 1.67505 -17.0583 2650 
378 1 0.054936 -0.0253837 -0.0413667 0.000233 -7.04191 2.78528 -9.34945 2650 
350 1 0.0549481 -0.013347 -0.0413505 0.000233 -6.56846 -2.60362 -8.72618 2650 
409 1 0.0535575 -0.000910657 -0.0421621 0.000847 -7.18902 -0.178287 -9.12455 2650 
44 1 0.0598408 -0.0179168 -0.0326614 0.000847 -14.9659 -4.16495 -27.4019 2650 
114 1 0.0612403 -0.0535246 -0.0312885 0.000233 -5.1359 1.5914 -10.0501 2650 
189 1 0.0614342 -0.0194407 -0.0295381 0.000847 -3.30263 -1.40674 -6.86347 2650 
453 1 0.0641456 -0.0371821 -0.0246689 0.000233 -6.09311 9.4212 -22.0332 2650 
29 1 0.00365794 -0.00108162 -0.014603 0.001312 0.0423718 -0.00665737 0.00653515 2650 
117 1 0.067537 -0.0257895 -0.0129747 0.000233 -5.42144 -3.34973 -28.2144 2650 
153 1 0.00424716 -0.00248948 -0.0140454 0.000233 0.012972 -0.0341155 0.00734836 2650 
395 1 0.00664373 -0.000742209 -0.0141047 0.000847 0.0607713 -0.0317283 0.0177285 2650 
110 1 0.0106535 -0.00323701 -0.0116296 0.000847 -0.00147156 -0.0100961 0.001544 2650 
404 1 0.009844 -0.000208453 -0.011142 0.000233 0 -0.01175 0 2650 
144 1 0.000616 -7.34534e-05 -0.009639 0.000233 0 -0.01175 0 2650 
522 1 0.00627373 -0.00130688 -0.0103997 8.4e-05 -0.00153634 -0.0105192 -0.000356333 2650 
157 1 0.006689 -0.00111345 -0.009595 0.000233 0 -0.01175 0 2650 
325 1 0.00985335 -0.000861463 -0.0101221 0.000233 -0.0104228 -0.00480457 0.00230857 2650 
371 1 0.0120492 -0.000736198 -0.0103285 0.000847 -0.0414982 -0.00526964 -0.0436966 2650 
314 1 0.0681157 -0.000284404 -0.0104828 8.4e-05 -1.8054 -0.192949 -11.7303 2650 
93 1 0.00905918 -0.0024606 -0.00822273 8.4e-05 -0.0114059 -0.00928271 0.00571047 2650 
447 1 0.0100645 -0.00157428 -0.00924141 0.000847 -2.35034e-05 -0.0118716 0.00019737 2650 
496 1 0.011305 -0.000965216 -0.00683632 8.4e-05 0.0105932 -0.00476339 -0.00841698 2650 
489 1 0.00058 -0.00304645 -0.006228 0.000847 0 -0.01175 0 2650 
36 1 0.0140489 -0.00204537 -0.0049232 0.000233 0.137497 -0.044995 0.0966595 2650 
477 1 0.000187 -0.00314545 -0.00227 0.000233 0 -0.01175 0 2650 
142 1 0.000422 -0.000315453 -0.00166 0.000233 0 -0.01175 0 2650 
495 1 0.00552701 -0.000311066 -0.00162976 0.000233 -0.0216097 -0.00536975 0.0219754 2650 
11 1 0.015764 -0.000168453 -0.002545 0.000233 0 -0.01175 0 2650 
393 1 0.067714 -0.0566759 -0.000941542 0.001312 -0.194903 -0.465098 -14.0038 2650 
111 1 0.0681738 -0.0353052 -0.000235605 0.000847 -0.0683267 0.0793695 -19.7633 2650 
339 1 0.0687553 -0.0286777 -0.00150853 0.000233 -0.317486 2.064 -14.4673 2650 
451 1 0.0681747 -0.0386938 -2.3502e-05 0.000847 -0.00728936 -1.87818 -21.2007 2650 
220 1 0.004447 -0.00169345 0.000291 0.000233 0 -0.01175 0 2650 
408 1 0.0205958 -0.00602792 0.0026356 0.000847 2.12884 -0.409835 0.284008 2650 
184 1 0.00928443 -0.00236739 0.00292294 8.4e-05 0.00816354 -0.0301479 -0.0217104 2650 
338 1 0.0134676 -0.00164079 0.00299968 0.000233 -0.0128612 0.0137791 -0.0352533 2650 
485 1 0.0149533 -0.00262242 0.00324532 0.000847 0.0151178 -0.02522 -0.031985 2650 
203 1 0.00878053 -0.00316903 0.00484824 0.000847 0.0256438 -0.0219976 -0.0296758 2650 
18 1 0.0153038 -0.00184223 0.00475327 0.000847 -0.0232742 -0.0110758 -0.0555261 2650 
428 1 0.00663227 -0.0027251 0.00920155 0.000233 -0.0741736 -0.00893058 0.0384914 2650 
115 1 0.0676645 -0.0554241 0.0122904 0.000233 2.42671 -0.601529 -13.3574 2650 
150 1 0.00868297 -0.00375878 0.013009 0.000847 0.503263 -0.291591 0.727848 2650 
98 1 0.00864644 -0.00205974 0.0134668 0.000847 -0.0575786 0.152063 -0.0371605 2650 
294 1 0.0661755 -0.00906478 0.0163845 0.000847 5.28338 3.63444 -21.3243 2650 
298 1 0.0264103 -0.0089336 0.0195871 0.000233 3.62496 -0.624701 2.60541 2650 
317 1 0.0643747 -0.0581672 0.0224255 0.000847 3.3755 1.37181 -9.68235 2650 
155 1 0.064659 -0.0205788 0.0234236 0.000233 5.09625 1.89186 -14.0647 2650 
125 1 0.0585605 -0.00100153 0.0348882 0.000847 6.38237 -0.201912 -10.7045 2650 
250 1 0.056101 -0.00447446 0.0379065 0.001312 6.49687 0.458504 -9.60381 2650 
185 1 0.0549591 -0.0114103 0.0395408 0.001312 6.09547 -1.16434 -8.46198 2650 
402 1 0.0543253 -0.0502869 0.0421656 0.000233 10.4622 3.1074 -13.4759 2650 
230 1 0.0521867 -0.0309616 0.0438476 0.000847 9.67897 -1.18694 -11.5032 2650 
498 1 0.0513143 -0.0327438 0.0448649 0.000847 9.80005 -2.63146 -11.2123 2650 
370 1 0.0495258 -0.00629504 0.046828 0.000847 7.66747 -0.280388 -8.10224 2650 
488 1 0.0485032 -0.0263309 0.0478858 0.000847 8.39583 -5.04997 -8.4945 2650 
315 1 0.0476106 -0.00707674 0.0481283 0.001312 7.87407 -0.308334 -7.77971 2650 
268 1 0.0463153 -0.0560378 0.0500085 0.000847 15.3718 -7.30015 -14.2259 2650 
24 1 0.0297513 -0.00431177 0.0503368 0.000233 4.6192 -0.111795 7.8153 2650 
399 1 0.0455436 -0.044374 0.0507094 0.000847 12.7794 1.29551 -11.4686 2650 
346 1 0.0446138 -0.0172285 0.0515303 0.000847 14.9982 3.1823 -12.9754 2650 
290 1 0.0451707 -0.0066685 0.0510423 0.000847 13.6923 3.05402 -12.108 2650 
310 1 0.0410241 -0.0503699 0.0551899 0.000233 0.414161 -1.85316 -0.307857 2650 
134 1 0.0368279 -0.0334562 0.0568004 0.001312 13.241 -0.551251 -8.57642 2650 
297 1 0.0305293 -0.0286769 0.0616187 0.000233 0.456924 -1.21704 -0.223956 2650 
326 1 0.0255725 -0.0309044 0.0595657 0.000233 239.582 6.61967 -456.032 2650 
367 1 0.0208456 -0.0152395 0.0644007 0.001312 16.1102 1.37271 -5.212 2650 
218 1 0.0186956 -0.0502329 0.0661769 0.000233 18.9908 3.6501 -5.36506 2650 
497 1 0.0169862 -0.0470504 0.0655225 0.001312 11.9959 1.90866 -3.10947 2650 
159 1 0.00627579 -0.0116349 0.065355 0.001312 -10.5097 0.517672 3.77753 2650 
460 1 0.0108027 -0.043831 0.0672917 0.000847 18.1495 -0.477347 -2.91343 2650 
19 1 0.00261666 -0.0105748 0.0678184 0.000847 4.91166 -6.43214 -0.75054 2650 
205 1 0.0104474 -0.0445937 0.0679688 0.000233 18.0607 -0.314119 -2.7761 2650 
20 1 0.00112965 -0.0272269 0.0681438 0.000847 16.6907 -0.935904 -0.276676 2650 
279 1 0.0284466 0.0744118 -0.0619324 0.000847 0.120989 0.220976 0.0555675 2650 
365 1 0.0531235 0.0507906 -0.0436734 0.000233 -35.3674 8.77797 -43.0121 2650 
435 1 7.84155e-05 0.00244434 -0.0160182 0.000847 0.0276874 -0.00896358 0.0147668 2650 
422 1 0.000190566 0.00511365 -0.0159415 0.000847 0.006479 0.0078903 0.0171205 2650 
65 1 0.00483622 2.23692e-05 -0.0149784 0.000233 0.0398868 0.00140717 0.0064838 2650 
139 1 0.000259521 0.00626494 -0.01456 0.000847 -0.00581699 0.00185973 -0.0131407 2650 
343 1 0.00151242 0.00408595 -0.0128705 0.000847 0.0283156 0.000218922 -0.0100493 2650 
12 1 0.00627 0.00324855 -0.013543 0.000233 0 -0.01175 0 2650 
412 1 0.00803502 0.00393994 -0.0135997 0.000847 -0.000160179 0.00551174 0.00527775 2650 
210 1 0.00898173 0.00381732 -0.0141684 8.4e-05 0.000755888 -0.00139188 -0.00838495 2650 
6 1 0.00802833 0.0245037 -0.0129099 0.000847 -0.0386172 0.0206024 -5.52892e-05 2650 
449 1 0.00129293 0.000269398 -0.0115244 0.000847 0.0467967 -0.0126336 0.00787935 2650 
224 1 0.00815769 0.000479916 -0.0118272 0.001312 0.0501985 -0.0151671 0.0283522 2650 
234 1 0.00286857 0.0017782 -0.0118145 0.000233 0.0220209 -0.00227701 0.00432638 2650 
423 1 0.0100925 0.0020212 -0.0122647 0.000847 0.0469759 -0.00184184 0.0187707 2650 
109 1 0.00593469 0.00369354 -0.0114128 0.000847 0.00177701 -0.0103101 -0.00124221 2650 
304 1 0.00976395 0.00681857 -0.0123678 0.000847 0.088857 0.0316024 0.0559571 2650 
49 1 0.0109617 0.0431931 -0.0113571 0.000233 0.0423918 0.145051 0.0504669 2650 
163 1 0.0127552 0.0012253 -0.0096953 0.000847 0.00407925 -0.0112466 0.00259005 2650 
276 1 0.00935686 0.00460528 -0.0109563 0.001312 -0.00672955 0.00215973 0.00387187 2650 
342 1 0.00311221 0.00543535 -0.0100676 0.000847 0.0145988 0.00559215 0.0314712 2650 
212 1 0.00270358 0.00754262 -0.0104187 0.001312 -0.00242737 0.00187603 0.00243017 2650 
147 1 0.000776716 0.0108246 -0.0097604 0.001312 0.0403786 0.0302333 0.00715041 2650 
58 1 0.006732 0.0108741 -0.0102328 0.000847 -0.0155082 0.0115601 0.00795055 2650 
198 1 0.0110529 0.0135223 -0.00973892 0.001312 0.048741 0.0296926 0.0699185 2650 
66 1 0.0123371 0.0503441 -0.0110107 0.000233 0.154418 0.182242 0.178367 2650 
62 1 0.0680175 0.0687053 -0.0101562 0.000233 0.00232749 -0.298073 0.0155842 2650 
69 1 0.0114997 0.072006 -0.010195 0.001312 0.104749 0.392075 0.0774218 2650 
35 1 0.010884 0.000704829 -0.0091354 0.000847 -0.0775446 0.0329958 -0.0732371 2650 
284 1 0.00425661 0.00271446 -0.0093607 0.000233 -0.0206384 -0.0140589 -0.0121212 2650 
282 1 0.00437707 0.00373664 -0.00868659 0.000847 0.0386022 -0.00605208 0.0285846 2650 
5 1 0.00635351 0.00952769 -0.00920465 0.000847 0.00364242 0.00928126 -0.00293343 2650 
63 1 0.00318321 0.00965641 -0.00836679 0.000233 0.015053 0.00544111 -0.0256247 2650 
37 1 0.0137095 0.01144 -0.00930478 0.000233 0.0630549 0.0527893 0.142706 2650 
403 1 0.0143574 0.0186862 -0.00861527 0.000233 -0.00992673 0.0221863 -0.0117494 2650 
425 1 0.00817109 0.0258808 -0.007989 0.000847 0.00885807 0.0478235 0.0874098 2650 
123 1 0.0134454 0.0436348 -0.00822308 0.000847 -0.0988211 0.558928 -0.0916151 2650 
471 1 0.0128671 0.000375604 -0.00760284 0.001312 -0.0401322 0.031341 -0.0867935 2650 
400 1 0.008609 0.00646655 -0.006808 0.000233 0 -0.01175 0 2650 
493 1 0.0145286 0.0118447 -0.00645227 0.000233 -0.0118703 0.00376708 0.00232476 2650 
363 1 0.0151894 0.0134483 -0.00635324 0.000233 -0.00516116 0.0058541 -0.00751722 2650 
351 1 0.00391736 0.0171554 -0.00706131 0.000233 0.00409184 0.0180406 0.0328294 2650 
28 1 0.0147408 0.0194312 -0.00668937 8.4e-05 0.00684607 0.0440032 0.0211436 2650 
3 1 0.00791828 0.0355835 -0.00766485 0.000847 0.0277643 0.0375434 0.0182655 2650 
67 1 0.0154604 0.0578155 -0.00632907 8.4e-05 0.102525 0.29872 0.161003 2650 
187 1 0.0108886 0.00328931 -0.00483917 0.000847 -0.0115691 0.002587 0.00246969 2650 
377 1 0.002656 0.00631255 -0.00627 0.000233 0 -0.01175 0 2650 
421 1 0.00269686 0.00936112 -0.00628125 0.000847 0.0151632 0.00622558 -0.0198916 2650 
437 1 0.00900571 0.0125572 -0.00500428 0.000847 0.0103713 0.0266912 -0.00142172 2650 
356 1 0.0144737 0.0155408 -0.00622215 0.000847 0.0130502 0.0190634 0.0328699 2650 
211 1 0.00220218 0.0191693 -0.00572353 0.001312 -0.00854215 0.0127125 -0.0169799 2650 
27 1 0.00966 0.00448255 -0.004536 8.4e-05 0 -0.01175 0 2650 
494 1 0.0145271 0.00504803 -0.00410084 0.000233 -0.00943194 -0.0097161 0.0181399 2650 
255 1 0.00946242 0.00669163 -0.00381365 0.000847 0.0154194 0.00299325 0.0103636 2650 
217 1 0.00352678 0.00929957 -0.00345852 0.000847 -0.00257813 0.0141642 0.0271072 2650 
74 1 0.00841114 0.011095 -0.00409556 0.000847 0.0105382 0.00506423 -0.0162822 2650 
420 1 0.00518752 0.0119371 -0.00316743 0.000847 -0.00768105 0.0159845 -0.0264652 2650 
457 1 0.00734485 0.0194316 -0.00392758 8.4e-05 0.00801527 0.0347161 0.0147456 2650 
68 1 0.015152 0.0110315 -0.00297216 0.001312 0.0291579 0.049746 0.144646 2650 
108 1 0.0121896 0.023633 -0.00263408 0.001312 -0.0111819 0.0954964 0.0179519 2650 
132 1 0.0159461 0.000506809 -0.000551994 8.4e-05 0.0340618 -0.0195023 -0.0343084 2650 
17 1 0.00397833 0.00347695 -0.00141771 0.000847 -0.000232265 -0.01105 -0.00146143 2650 
292 1 0.0138956 0.00515668 -0.00143709 0.000847 0.116719 -0.0450526 0.0251922 2650 
398 1 0.0148668 0.0103588 -0.000584436 0.000847 -0.0151095 0.0482194 0.0603503 2650 
510 1 0.00769652 0.0112182 -0.00104563 0.001312 -0.0498354 0.0494018 0.0307397 2650 
80 1 0.00736327 0.0126654 -0.00037051 8.4e-05 0.0542851 0.0771367 0.0462832 2650 
383 1 0.0105291 0.0133517 -0.000453188 0.000847 -0.0178103 0.00948738 0.00375842 2650 
464 1 0.00962074 0.00159612 0.000402168 0.000233 0.0173922 -0.0488953 -0.0321451 2650 
438 1 0.0112007 0.00318374 0.000916359 0.000847 -0.0118337 0.00314164 -0.00303101 2650 
95 1 0.0112845 0.00709468 0.000651521 0.001312 0.105191 0.00886194 0.0701512 2650 
502 1 0.0156642 0.00708043 6.53336e-05 0.000847 -0.00681802 -0.03544 0.133077 2650 
281 1 0.00564373 0.0113365 0.00155553 0.000847 -0.00695836 0.0309939 -0.0195121 2650 
443 1 0.00646075 0.0177998 0.00116763 0.000233 -0.0412281 -0.0160107 -0.145613 2650 