LIGGGHTS (Version LIGGGHTS-PUBLIC 3.8.0, compiled 2022-11-07-16:55:38 by serperd1, git commit 86544c3f1215bc9744d7929e3eacf53ba086af9e)
Created orthogonal box = (-0.15 -0.15 -0.15) to (0.15 0.15 0.15)
  2 by 4 by 5 MPI processor grid

Reading STL file 'cone.stl' (mesh processing step 1/3) 

Reading STL file 'in_cyl.stl' (mesh processing step 1/3) 

Reading STL file 'top_cyl.stl' (mesh processing step 1/3) 

Reading STL file 'bot_cyl.stl' (mesh processing step 1/3) 

Reading STL file 'bottom_disk.stl' (mesh processing step 1/3) 

Reading STL file 'top_disk.stl' (mesh processing step 1/3) 
Fix particledistribution/discrete (id prob_par): distribution based on mass%:
    r_0to10p: d=1.680000e-04 (max. bounding sphere) mass%=10.000000%
    r_10to50p: d=4.656000e-04 (max. bounding sphere) mass%=40.000000%
    r_50to90p: d=1.693200e-03 (max. bounding sphere) mass%=40.000000%
    r_90to100p: d=2.624400e-03 (max. bounding sphere) mass%=10.000000%
Fix particledistribution/discrete (id prob_par): distribution based on number%:
    r_0to10p: d=1.680000e-04 (max. bounding sphere) number%=83.887052%
    r_10to50p: d=4.656000e-04 (max. bounding sphere) number%=15.763181%
    r_50to90p: d=1.693200e-03 (max. bounding sphere) number%=0.327762%
    r_90to100p: d=2.624400e-03 (max. bounding sphere) number%=0.022006%
Setting up run at Mon Jan  2 13:04:48 2023

Import and parallelization of mesh cone_mesh containing 868 triangle(s) successful
Import and parallelization of mesh inlet_cyl_wall_mesh containing 1064 triangle(s) successful
Import and parallelization of mesh top_cyl_wall_mesh containing 682 triangle(s) successful
Import and parallelization of mesh bot_cyl_wall_mesh containing 1280 triangle(s) successful
Import and parallelization of mesh bot_disk_wall_mesh containing 1682 triangle(s) successful
Import and parallelization of mesh top_disk_wall_mesh containing 1144 triangle(s) successful
Memory usage per processor = 954.637 Mbytes
    Step    Atoms         KinEng            CPU 
       0        0              0              0 
Loop time of 5.08853e-05 on 40 procs for 0 steps with 0 atoms, finish time Mon Jan  2 13:04:48 2023


Pair  time (%) = 0 (0)
Neigh time (%) = 0 (0)
Comm  time (%) = 0 (0)
Outpt time (%) = 0 (0)
Other time (%) = 5.08853e-05 (100)

Nlocal:    0 ave 0 max 0 min
Histogram: 40 0 0 0 0 0 0 0 0 0
Nghost:    0 ave 0 max 0 min
Histogram: 40 0 0 0 0 0 0 0 0 0
Neighs:    0 ave 0 max 0 min
Histogram: 40 0 0 0 0 0 0 0 0 0

Total # of neighbors = 0
Neighbor list builds = 0
Dangerous builds = 0
Setting up run at Mon Jan  2 13:04:48 2023

Memory usage per processor = 954.637 Mbytes
    Step    Atoms         KinEng            CPU 
       0        0              0              0 
       1        0              0    0.009693116 
Loop time of 0.00970371 on 40 procs for 1 steps with 0 atoms, finish time Mon Jan  2 13:04:48 2023


Pair  time (%) = 3.02943e-06 (0.0312192)
Neigh time (%) = 0 (0)
Comm  time (%) = 0.000227824 (2.3478)
Outpt time (%) = 9.47318e-05 (0.976243)
Other time (%) = 0.00937813 (96.6447)

Nlocal:    0 ave 0 max 0 min
Histogram: 40 0 0 0 0 0 0 0 0 0
Nghost:    0 ave 0 max 0 min
Histogram: 40 0 0 0 0 0 0 0 0 0
Neighs:    0 ave 0 max 0 min
Histogram: 40 0 0 0 0 0 0 0 0 0

Total # of neighbors = 0
Neighbor list builds = 0
Dangerous builds = 0
Scanning dump file ...
Reading snapshot from dump file ...
  orthogonal box = (-0.15 -0.15 -0.15) to (0.15 0.15 0.15)
  0 atoms before read
  522 atoms in snapshot
  0 atoms purged
  0 atoms replaced
  0 atoms trimmed
  522 atoms added
  522 atoms after read
Setting atom values ...
  522 settings made for type
  522 settings made for density
  522 settings made for vy
Setting up run at Mon Jan  2 13:04:48 2023

Memory usage per processor = 958.989 Mbytes
    Step    Atoms         KinEng            CPU 
       1      522  2.0467238e-07              0 
       2      522  2.2321206e-07    0.009121894 
Loop time of 0.0091414 on 40 procs for 1 steps with 522 atoms, finish time Mon Jan  2 13:04:48 2023


Pair  time (%) = 2.37767e-06 (0.02601)
Neigh time (%) = 0 (0)
Comm  time (%) = 6.18985e-06 (0.0677122)
Outpt time (%) = 0.000154652 (1.69177)
Other time (%) = 0.00897818 (98.2145)

Nlocal:    13.05 ave 230 max 0 min
Histogram: 36 2 0 0 0 0 0 0 1 1
Nghost:    6.9 ave 88 max 0 min
Histogram: 36 0 0 0 0 1 1 0 0 2
Neighs:    4.05 ave 71 max 0 min
Histogram: 36 2 0 0 0 0 0 0 0 2

Total # of neighbors = 162
Ave neighs/atom = 0.310345
Neighbor list builds = 0
Dangerous builds = 0
Setting up run at Mon Jan  2 13:04:48 2023

Memory usage per processor = 958.989 Mbytes
    Step    Atoms         KinEng            CPU 
       2      522  2.2321206e-07              0 
  154322      522  2.5096779e-05      1508.7378 
Loop time of 1508.74 on 40 procs for 154320 steps with 522 atoms, finish time Mon Jan  2 13:29:57 2023


Pair  time (%) = 0.342861 (0.022725)
Neigh time (%) = 0.136489 (0.00904655)
Comm  time (%) = 0.697757 (0.0462477)
Outpt time (%) = 0.000205044 (1.35904e-05)
Other time (%) = 1507.56 (99.922)

Nlocal:    13.05 ave 225 max 0 min
Histogram: 36 0 2 0 0 0 0 0 0 2
Nghost:    6.975 ave 93 max 0 min
Histogram: 36 0 0 0 1 1 0 0 0 2
Neighs:    4.4 ave 82 max 0 min
Histogram: 36 2 0 0 0 0 0 0 1 1

Total # of neighbors = 176
Ave neighs/atom = 0.337165
Neighbor list builds = 412
Dangerous builds = 0
Setting up run at Mon Jan  2 13:29:57 2023

Memory usage per processor = 958.989 Mbytes
    Step    Atoms         KinEng            CPU 
  154322      522  2.5096779e-05              0 
  308642      522  0.00014274771      1521.2058 
Loop time of 1521.21 on 40 procs for 154320 steps with 522 atoms, finish time Mon Jan  2 13:55:18 2023


Pair  time (%) = 0.3429 (0.0225413)
Neigh time (%) = 0.136813 (0.00899374)
Comm  time (%) = 0.712206 (0.0468185)
Outpt time (%) = 0.000269919 (1.77437e-05)
Other time (%) = 1520.01 (99.9216)

Nlocal:    13.05 ave 215 max 0 min
Histogram: 36 0 2 0 0 0 0 0 0 2
Nghost:    7.05 ave 94 max 0 min
Histogram: 36 0 0 0 0 2 0 0 0 2
Neighs:    4.375 ave 75 max 0 min
Histogram: 36 1 1 0 0 0 0 0 0 2

Total # of neighbors = 175
Ave neighs/atom = 0.335249
Neighbor list builds = 412
Dangerous builds = 0
Setting up run at Mon Jan  2 13:55:18 2023

Memory usage per processor = 958.989 Mbytes
    Step    Atoms         KinEng            CPU 
  308642      522  0.00014274771              0 
  462962      522  0.00014423352      1517.1219 
Loop time of 1517.12 on 40 procs for 154320 steps with 522 atoms, finish time Mon Jan  2 14:20:36 2023


Pair  time (%) = 0.346938 (0.0228682)
Neigh time (%) = 0.136696 (0.00901019)
Comm  time (%) = 0.785543 (0.0517785)
Outpt time (%) = 0.0212028 (0.00139757)
Other time (%) = 1515.83 (99.9149)

Nlocal:    13.05 ave 210 max 0 min
Histogram: 36 0 2 0 0 0 0 0 0 2
Nghost:    6.9 ave 92 max 0 min
Histogram: 36 0 0 0 1 1 0 0 0 2
Neighs:    4.275 ave 72 max 0 min
Histogram: 36 0 2 0 0 0 0 0 0 2

Total # of neighbors = 171
Ave neighs/atom = 0.327586
Neighbor list builds = 412
Dangerous builds = 0
Setting up run at Mon Jan  2 14:20:36 2023

Memory usage per processor = 958.989 Mbytes
    Step    Atoms         KinEng            CPU 
  462962      522  0.00014423352              0 
  617282      522  7.6652719e-05       1495.976 
Loop time of 1495.98 on 40 procs for 154320 steps with 522 atoms, finish time Mon Jan  2 14:45:32 2023


Pair  time (%) = 0.346002 (0.0231288)
Neigh time (%) = 0.137188 (0.00917046)
Comm  time (%) = 0.709029 (0.0473958)
Outpt time (%) = 0.0005723 (3.82559e-05)
Other time (%) = 1494.78 (99.9203)

Nlocal:    13.05 ave 207 max 0 min
Histogram: 36 0 2 0 0 0 0 0 0 2
Nghost:    6.925 ave 90 max 0 min
Histogram: 36 0 0 0 0 1 1 0 0 2
Neighs:    4.1 ave 74 max 0 min
Histogram: 36 1 1 0 0 0 0 1 0 1

Total # of neighbors = 164
Ave neighs/atom = 0.314176
Neighbor list builds = 412
Dangerous builds = 0
Setting up run at Mon Jan  2 14:45:32 2023

Memory usage per processor = 958.989 Mbytes
    Step    Atoms         KinEng            CPU 
  617282      522  7.6652719e-05              0 
  771602      522   0.0003105504      1517.7423 
Loop time of 1517.74 on 40 procs for 154320 steps with 522 atoms, finish time Mon Jan  2 15:10:50 2023


Pair  time (%) = 0.346743 (0.022846)
Neigh time (%) = 0.137226 (0.00904148)
Comm  time (%) = 0.754747 (0.0497283)
Outpt time (%) = 0.00026547 (1.74911e-05)
Other time (%) = 1516.5 (99.9184)

Nlocal:    13.05 ave 208 max 0 min
Histogram: 36 0 2 0 0 0 0 0 0 2
Nghost:    6.9 ave 91 max 0 min
Histogram: 36 0 0 0 0 1 1 0 1 1
Neighs:    4 ave 70 max 0 min
Histogram: 36 1 1 0 0 0 0 0 1 1

Total # of neighbors = 160
Ave neighs/atom = 0.306513
Neighbor list builds = 412
Dangerous builds = 0
Setting up run at Mon Jan  2 15:10:50 2023

Memory usage per processor = 958.989 Mbytes
    Step    Atoms         KinEng            CPU 
  771602      522   0.0003105504              0 
  925922      522   0.0034797102      1511.6156 
Loop time of 1511.65 on 40 procs for 154320 steps with 522 atoms, finish time Mon Jan  2 15:36:02 2023


Pair  time (%) = 0.348013 (0.023022)
Neigh time (%) = 0.226977 (0.0150151)
Comm  time (%) = 0.846915 (0.0560257)
Outpt time (%) = 0.000512744 (3.39194e-05)
Other time (%) = 1510.23 (99.9059)

Nlocal:    13.05 ave 206 max 0 min
Histogram: 36 0 2 0 0 0 0 0 0 2
Nghost:    6.775 ave 86 max 0 min
Histogram: 36 0 0 0 0 1 1 0 1 1
Neighs:    3.975 ave 74 max 0 min
Histogram: 36 2 0 0 0 0 0 1 0 1

Total # of neighbors = 159
Ave neighs/atom = 0.304598
Neighbor list builds = 682
Dangerous builds = 0
Setting up run at Mon Jan  2 15:36:02 2023

Memory usage per processor = 958.989 Mbytes
    Step    Atoms         KinEng            CPU 
  925922      522   0.0034797102              0 
 1080242      522   0.0015912522      1510.5126 
Loop time of 1510.51 on 40 procs for 154320 steps with 522 atoms, finish time Mon Jan  2 16:01:12 2023


Pair  time (%) = 0.346003 (0.0229063)
Neigh time (%) = 0.279121 (0.0184785)
Comm  time (%) = 0.963441 (0.0637824)
Outpt time (%) = 0.00030559 (2.02309e-05)
Other time (%) = 1508.92 (99.8948)

Nlocal:    13.05 ave 204 max 0 min
Histogram: 36 0 2 0 0 0 0 0 0 2
Nghost:    6.85 ave 84 max 0 min
Histogram: 36 0 0 0 0 0 2 0 0 2
Neighs:    4.05 ave 72 max 0 min
Histogram: 36 0 2 0 0 0 0 1 0 1

Total # of neighbors = 162
Ave neighs/atom = 0.310345
Neighbor list builds = 834
Dangerous builds = 0
Setting up run at Mon Jan  2 16:01:12 2023

Memory usage per processor = 958.989 Mbytes
    Step    Atoms         KinEng            CPU 
 1080242      522   0.0015912522              0 
 1234562      522   0.0094542489      1505.2315 
Loop time of 1505.23 on 40 procs for 154320 steps with 522 atoms, finish time Mon Jan  2 16:26:18 2023


Pair  time (%) = 0.348488 (0.0231518)
Neigh time (%) = 0.476904 (0.0316831)
Comm  time (%) = 1.28965 (0.0856778)
Outpt time (%) = 0.000510524 (3.39166e-05)
Other time (%) = 1503.12 (99.8595)

Nlocal:    13.05 ave 203 max 0 min
Histogram: 36 0 2 0 0 0 0 0 0 2
Nghost:    6.575 ave 85 max 0 min
Histogram: 36 0 0 0 0 2 0 0 0 2
Neighs:    4.35 ave 76 max 0 min
Histogram: 36 0 2 0 0 0 0 1 0 1

Total # of neighbors = 174
Ave neighs/atom = 0.333333
Neighbor list builds = 1465
Dangerous builds = 0
Setting up run at Mon Jan  2 16:26:18 2023

Memory usage per processor = 958.989 Mbytes
    Step    Atoms         KinEng            CPU 
 1234562      522   0.0094542489              0 
 1388882      522    0.017449659      1521.4364 
Loop time of 1521.44 on 40 procs for 154320 steps with 522 atoms, finish time Mon Jan  2 16:51:39 2023


Pair  time (%) = 0.3517 (0.0231163)
Neigh time (%) = 0.829899 (0.0545471)
Comm  time (%) = 2.10333 (0.138246)
Outpt time (%) = 0.000500718 (3.29109e-05)
Other time (%) = 1518.15 (99.7841)

Nlocal:    13.05 ave 200 max 0 min
Histogram: 36 0 2 0 0 0 0 0 0 2
Nghost:    6.425 ave 84 max 0 min
Histogram: 36 0 0 0 0 2 0 0 1 1
Neighs:    4.275 ave 78 max 0 min
Histogram: 36 0 2 0 0 0 1 0 0 1

Total # of neighbors = 171
Ave neighs/atom = 0.327586
Neighbor list builds = 2555
Dangerous builds = 0
Setting up run at Mon Jan  2 16:51:39 2023

Memory usage per processor = 958.989 Mbytes
    Step    Atoms         KinEng            CPU 
 1388882      522    0.017449659              0 
 1543202      520   0.0017010988      1511.6198 
Loop time of 1511.62 on 40 procs for 154320 steps with 520 atoms, finish time Mon Jan  2 17:16:51 2023


Pair  time (%) = 0.350027 (0.0231558)
Neigh time (%) = 0.402448 (0.0266236)
Comm  time (%) = 1.33996 (0.0886439)
Outpt time (%) = 0.000530152 (3.50718e-05)
Other time (%) = 1509.53 (99.8615)

Nlocal:    13 ave 196 max 0 min
Histogram: 36 0 1 1 0 0 0 0 0 2
Nghost:    6.3 ave 86 max 0 min
Histogram: 36 0 0 0 0 2 0 0 1 1
Neighs:    4.2 ave 74 max 0 min
Histogram: 36 0 2 0 0 0 0 1 0 1

Total # of neighbors = 168
Ave neighs/atom = 0.323077
Neighbor list builds = 1340
Dangerous builds = 279
Setting up run at Mon Jan  2 17:16:51 2023

Memory usage per processor = 958.989 Mbytes
    Step    Atoms         KinEng            CPU 
 1543202      520   0.0017010988              0 
 1697522      520    0.015126109      1521.0266 
Loop time of 1521.03 on 40 procs for 154320 steps with 520 atoms, finish time Mon Jan  2 17:42:12 2023


Pair  time (%) = 0.347382 (0.0228386)
Neigh time (%) = 0.456036 (0.0299821)
Comm  time (%) = 1.50911 (0.0992164)
Outpt time (%) = 0.000490146 (3.22247e-05)
Other time (%) = 1518.71 (99.8479)

Nlocal:    13 ave 196 max 0 min
Histogram: 36 0 1 1 0 0 0 0 0 2
Nghost:    6.3 ave 85 max 0 min
Histogram: 36 0 0 0 0 2 0 0 1 1
Neighs:    4.175 ave 71 max 0 min
Histogram: 36 0 1 1 0 0 0 1 0 1

Total # of neighbors = 167
Ave neighs/atom = 0.321154
Neighbor list builds = 1424
Dangerous builds = 0
Setting up run at Mon Jan  2 17:42:12 2023

Memory usage per processor = 958.989 Mbytes
    Step    Atoms         KinEng            CPU 
 1697522      520    0.015126109              0 
 1851842      520   0.0080053225      1529.5336 
Loop time of 1529.54 on 40 procs for 154320 steps with 520 atoms, finish time Mon Jan  2 18:07:41 2023


Pair  time (%) = 0.351206 (0.0229616)
Neigh time (%) = 0.944884 (0.0617757)
Comm  time (%) = 2.33758 (0.152829)
Outpt time (%) = 0.000470957 (3.07908e-05)
Other time (%) = 1525.91 (99.7624)

Nlocal:    13 ave 195 max 0 min
Histogram: 36 0 1 1 0 0 0 0 0 2
Nghost:    6.375 ave 87 max 0 min
Histogram: 36 0 0 0 0 2 0 0 1 1
Neighs:    4.05 ave 68 max 0 min
Histogram: 36 0 1 1 0 0 0 1 0 1

Total # of neighbors = 162
Ave neighs/atom = 0.311538
Neighbor list builds = 2900
Dangerous builds = 0
Setting up run at Mon Jan  2 18:07:42 2023

Memory usage per processor = 958.989 Mbytes
    Step    Atoms         KinEng            CPU 
 1851842      520   0.0080053225              0 
 2006162      518   0.0065020415      1598.7124 
Loop time of 1598.71 on 40 procs for 154320 steps with 518 atoms, finish time Mon Jan  2 18:34:20 2023


Pair  time (%) = 0.347916 (0.0217623)
Neigh time (%) = 0.687943 (0.0430311)
Comm  time (%) = 1.67938 (0.105046)
Outpt time (%) = 0.000506716 (3.16953e-05)
Other time (%) = 1596 (99.8301)

Nlocal:    12.95 ave 197 max 0 min
Histogram: 36 0 1 1 0 0 0 0 0 2
Nghost:    6.3 ave 84 max 0 min
Histogram: 36 0 0 0 0 2 0 0 1 1
Neighs:    4.2 ave 68 max 0 min
Histogram: 36 0 1 0 1 0 0 1 0 1

Total # of neighbors = 168
Ave neighs/atom = 0.324324
Neighbor list builds = 2152
Dangerous builds = 118
Setting up run at Mon Jan  2 18:34:20 2023

Memory usage per processor = 958.989 Mbytes
    Step    Atoms         KinEng            CPU 
 2006162      518   0.0065020415              0 
 2160482      518    0.025986357       1565.615 
Loop time of 1565.62 on 40 procs for 154320 steps with 518 atoms, finish time Mon Jan  2 19:00:26 2023


Pair  time (%) = 0.34951 (0.0223241)
Neigh time (%) = 1.02739 (0.0656221)
Comm  time (%) = 2.5194 (0.160921)
Outpt time (%) = 0.000555006 (3.54497e-05)
Other time (%) = 1561.72 (99.7511)

Nlocal:    12.95 ave 194 max 0 min
Histogram: 36 0 1 1 0 0 0 0 0 2
Nghost:    6.6 ave 90 max 0 min
Histogram: 36 0 0 0 0 2 0 0 1 1
Neighs:    4.4 ave 75 max 0 min
Histogram: 36 0 1 1 0 0 0 1 0 1

Total # of neighbors = 176
Ave neighs/atom = 0.339768
Neighbor list builds = 3138
Dangerous builds = 0
Setting up run at Mon Jan  2 19:00:26 2023

Memory usage per processor = 958.989 Mbytes
    Step    Atoms         KinEng            CPU 
 2160482      518    0.025986357              0 
 2314802      516     0.01096453      1539.8459 
Loop time of 1539.85 on 40 procs for 154320 steps with 516 atoms, finish time Mon Jan  2 19:26:06 2023


Pair  time (%) = 0.346058 (0.0224735)
Neigh time (%) = 0.609142 (0.0395585)
Comm  time (%) = 1.77815 (0.115476)
Outpt time (%) = 0.000562895 (3.65552e-05)
Other time (%) = 1537.12 (99.8225)

Nlocal:    12.9 ave 195 max 0 min
Histogram: 36 0 2 0 0 0 0 0 0 2
Nghost:    6.6 ave 84 max 0 min
Histogram: 36 0 0 0 1 0 1 0 1 1
Neighs:    4.125 ave 74 max 0 min
Histogram: 36 0 1 1 0 0 1 0 0 1

Total # of neighbors = 165
Ave neighs/atom = 0.319767
Neighbor list builds = 1883
Dangerous builds = 4
Setting up run at Mon Jan  2 19:26:06 2023

Memory usage per processor = 958.989 Mbytes
    Step    Atoms         KinEng            CPU 
 2314802      516     0.01096453              0 
 2469122      516    0.013559548      1526.2096 
Loop time of 1526.21 on 40 procs for 154320 steps with 516 atoms, finish time Mon Jan  2 19:51:32 2023


Pair  time (%) = 0.347467 (0.0227667)
Neigh time (%) = 0.60653 (0.039741)
Comm  time (%) = 2.0632 (0.135185)
Outpt time (%) = 0.000456901 (2.9937e-05)
Other time (%) = 1523.19 (99.8023)

Nlocal:    12.9 ave 195 max 0 min
Histogram: 36 0 2 0 0 0 0 0 0 2
Nghost:    6.6 ave 82 max 0 min
Histogram: 36 0 0 0 1 0 0 1 0 2
Neighs:    4.275 ave 73 max 0 min
Histogram: 36 0 1 1 0 0 0 1 0 1

Total # of neighbors = 171
Ave neighs/atom = 0.331395
Neighbor list builds = 1884
Dangerous builds = 0
Setting up run at Mon Jan  2 19:51:32 2023

Memory usage per processor = 958.989 Mbytes
    Step    Atoms         KinEng            CPU 
 2469122      516    0.013559548              0 
 2623442      515     0.03481194      1519.6895 
Loop time of 1519.7 on 40 procs for 154320 steps with 515 atoms, finish time Mon Jan  2 20:16:52 2023


Pair  time (%) = 0.34648 (0.0227992)
Neigh time (%) = 0.564816 (0.0371662)
Comm  time (%) = 1.93708 (0.127464)
Outpt time (%) = 0.000553665 (3.64325e-05)
Other time (%) = 1516.85 (99.8125)

Nlocal:    12.875 ave 194 max 0 min
Histogram: 36 0 2 0 0 0 0 0 0 2
Nghost:    6.825 ave 82 max 0 min
Histogram: 36 0 0 0 0 1 0 1 0 2
Neighs:    4.275 ave 71 max 0 min
Histogram: 36 0 1 1 0 0 0 1 0 1

Total # of neighbors = 171
Ave neighs/atom = 0.332039
Neighbor list builds = 1781
Dangerous builds = 86
Setting up run at Mon Jan  2 20:16:52 2023

Memory usage per processor = 958.989 Mbytes
    Step    Atoms         KinEng            CPU 
 2623442      515     0.03481194              0 
 2777762      515    0.011942493      1526.1469 
Loop time of 1526.15 on 40 procs for 154320 steps with 515 atoms, finish time Mon Jan  2 20:42:18 2023


Pair  time (%) = 0.348164 (0.0228133)
Neigh time (%) = 0.556479 (0.036463)
Comm  time (%) = 1.63156 (0.106907)
Outpt time (%) = 0.000528715 (3.46438e-05)
Other time (%) = 1523.61 (99.8338)

Nlocal:    12.875 ave 195 max 0 min
Histogram: 36 0 2 0 0 0 0 0 1 1
Nghost:    6.575 ave 82 max 0 min
Histogram: 36 0 0 0 0 1 0 1 0 2
Neighs:    4.25 ave 70 max 0 min
Histogram: 36 0 1 1 0 0 0 0 1 1

Total # of neighbors = 170
Ave neighs/atom = 0.330097
Neighbor list builds = 1726
Dangerous builds = 0
Setting up run at Mon Jan  2 20:42:18 2023

Memory usage per processor = 958.989 Mbytes
    Step    Atoms         KinEng            CPU 
 2777762      515    0.011942493              0 
 2932082      515    0.038002852      1515.2384 
Loop time of 1515.24 on 40 procs for 154320 steps with 515 atoms, finish time Mon Jan  2 21:07:33 2023


Pair  time (%) = 0.345608 (0.0228088)
Neigh time (%) = 0.796841 (0.0525885)
Comm  time (%) = 1.90941 (0.126014)
Outpt time (%) = 0.000473018 (3.12174e-05)
Other time (%) = 1512.19 (99.7986)

Nlocal:    12.875 ave 194 max 0 min
Histogram: 36 0 2 0 0 0 0 0 1 1
Nghost:    6.75 ave 83 max 0 min
Histogram: 36 0 0 0 1 0 0 1 0 2
Neighs:    3.85 ave 68 max 0 min
Histogram: 36 1 0 1 0 0 0 1 0 1

Total # of neighbors = 154
Ave neighs/atom = 0.299029
Neighbor list builds = 2445
Dangerous builds = 0
Setting up run at Mon Jan  2 21:07:34 2023

Memory usage per processor = 958.989 Mbytes
    Step    Atoms         KinEng            CPU 
 2932082      515    0.038002852              0 
 3086402      514     0.07980353      1537.1989 
Loop time of 1537.2 on 40 procs for 154320 steps with 514 atoms, finish time Mon Jan  2 21:33:11 2023


Pair  time (%) = 0.350158 (0.022779)
Neigh time (%) = 1.05775 (0.0688099)
Comm  time (%) = 2.45933 (0.159988)
Outpt time (%) = 0.000509834 (3.31665e-05)
Other time (%) = 1533.33 (99.7484)

Nlocal:    12.85 ave 192 max 0 min
Histogram: 36 0 2 0 0 0 0 0 0 2
Nghost:    6.7 ave 79 max 0 min
Histogram: 36 0 0 0 1 0 0 0 1 2
Neighs:    4.35 ave 83 max 0 min
Histogram: 36 1 1 0 0 0 1 0 0 1

Total # of neighbors = 174
Ave neighs/atom = 0.338521
Neighbor list builds = 3288
Dangerous builds = 202
Setting up run at Mon Jan  2 21:33:11 2023

Memory usage per processor = 958.989 Mbytes
    Step    Atoms         KinEng            CPU 
 3086402      514     0.07980353              0 
 3240722      514    0.068873193      1529.5597 
Loop time of 1529.56 on 40 procs for 154320 steps with 514 atoms, finish time Mon Jan  2 21:58:40 2023


Pair  time (%) = 0.348332 (0.0227733)
Neigh time (%) = 0.815043 (0.0532861)
Comm  time (%) = 2.78788 (0.182267)
Outpt time (%) = 0.000484656 (3.1686e-05)
Other time (%) = 1525.61 (99.7416)

Nlocal:    12.85 ave 190 max 0 min
Histogram: 36 0 2 0 0 0 0 0 0 2
Nghost:    6.525 ave 78 max 0 min
Histogram: 36 0 0 0 0 1 0 0 1 2
Neighs:    4.275 ave 85 max 0 min
Histogram: 36 1 1 0 0 0 1 0 0 1

Total # of neighbors = 171
Ave neighs/atom = 0.332685
Neighbor list builds = 2502
Dangerous builds = 0
Setting up run at Mon Jan  2 21:58:41 2023

Memory usage per processor = 958.989 Mbytes
    Step    Atoms         KinEng            CPU 
 3240722      514    0.068873193              0 
 3395042      514    0.061173343      1536.7325 
Loop time of 1536.73 on 40 procs for 154320 steps with 514 atoms, finish time Mon Jan  2 22:24:17 2023


Pair  time (%) = 0.349525 (0.0227447)
Neigh time (%) = 0.905386 (0.0589163)
Comm  time (%) = 2.59621 (0.168943)
Outpt time (%) = 0.000539609 (3.5114e-05)
Other time (%) = 1532.88 (99.7494)

Nlocal:    12.85 ave 191 max 0 min
Histogram: 36 0 2 0 0 0 0 0 0 2
Nghost:    6.5 ave 79 max 0 min
Histogram: 36 0 0 0 1 0 0 0 1 2
Neighs:    4.375 ave 87 max 0 min
Histogram: 36 1 1 0 0 0 1 0 0 1

Total # of neighbors = 175
Ave neighs/atom = 0.340467
Neighbor list builds = 2770
Dangerous builds = 0
Setting up run at Mon Jan  2 22:24:17 2023

Memory usage per processor = 958.989 Mbytes
    Step    Atoms         KinEng            CPU 
 3395042      514    0.061173343              0 
 3549362      512    0.069207663      1541.6225 
Loop time of 1541.62 on 40 procs for 154320 steps with 512 atoms, finish time Mon Jan  2 22:49:59 2023


Pair  time (%) = 0.349386 (0.0226635)
Neigh time (%) = 1.21962 (0.0791128)
Comm  time (%) = 2.97874 (0.193221)
Outpt time (%) = 0.000516007 (3.34717e-05)
Other time (%) = 1537.07 (99.705)

Nlocal:    12.8 ave 190 max 0 min
Histogram: 36 0 2 0 0 0 0 0 0 2
Nghost:    6.375 ave 77 max 0 min
Histogram: 36 0 0 0 1 0 0 0 1 2
Neighs:    4.375 ave 84 max 0 min
Histogram: 36 1 0 1 0 0 1 0 0 1

Total # of neighbors = 175
Ave neighs/atom = 0.341797
Neighbor list builds = 3815
Dangerous builds = 298
Setting up run at Mon Jan  2 22:49:59 2023

Memory usage per processor = 958.989 Mbytes
    Step    Atoms         KinEng            CPU 
 3549362      512    0.069207663              0 
 3703682      512    0.061468484      1535.8495 
Loop time of 1535.85 on 40 procs for 154320 steps with 512 atoms, finish time Mon Jan  2 23:15:35 2023


Pair  time (%) = 0.349848 (0.0227788)
Neigh time (%) = 1.70961 (0.111314)
Comm  time (%) = 3.99172 (0.259903)
Outpt time (%) = 0.0005434 (3.5381e-05)
Other time (%) = 1529.8 (99.606)

Nlocal:    12.8 ave 189 max 0 min
Histogram: 36 0 1 1 0 0 0 0 0 2
Nghost:    6.225 ave 74 max 0 min
Histogram: 36 0 0 0 0 1 0 1 0 2
Neighs:    4.2 ave 74 max 0 min
Histogram: 36 1 0 1 0 0 0 1 0 1

Total # of neighbors = 168
Ave neighs/atom = 0.328125
Neighbor list builds = 5188
Dangerous builds = 0
Setting up run at Mon Jan  2 23:15:35 2023

Memory usage per processor = 958.989 Mbytes
    Step    Atoms         KinEng            CPU 
 3703682      512    0.061468484              0 
 3858002      511    0.036025684       1525.125 
Loop time of 1525.13 on 40 procs for 154320 steps with 511 atoms, finish time Mon Jan  2 23:41:00 2023


Pair  time (%) = 0.343036 (0.0224923)
Neigh time (%) = 0.736831 (0.0483128)
Comm  time (%) = 2.35157 (0.154188)
Outpt time (%) = 0.000583133 (3.82351e-05)
Other time (%) = 1521.69 (99.775)

Nlocal:    12.775 ave 185 max 0 min
Histogram: 36 0 1 1 0 0 0 0 0 2
Nghost:    6.3 ave 78 max 0 min
Histogram: 36 0 0 0 1 0 0 1 0 2
Neighs:    4.25 ave 82 max 0 min
Histogram: 36 1 1 0 0 0 1 0 0 1

Total # of neighbors = 170
Ave neighs/atom = 0.332681
Neighbor list builds = 2261
Dangerous builds = 0
Setting up run at Mon Jan  2 23:41:00 2023

Memory usage per processor = 958.989 Mbytes
    Step    Atoms         KinEng            CPU 
 3858002      511    0.036025684              0 
 4012322      508     0.07231645      1537.8984 
Loop time of 1537.9 on 40 procs for 154320 steps with 508 atoms, finish time Tue Jan  3 00:06:38 2023


Pair  time (%) = 0.345737 (0.0224812)
Neigh time (%) = 1.12112 (0.0728998)
Comm  time (%) = 3.27314 (0.212832)
Outpt time (%) = 0.000551499 (3.58605e-05)
Other time (%) = 1533.16 (99.6918)

Nlocal:    12.7 ave 184 max 0 min
Histogram: 36 0 2 0 0 0 0 0 0 2
Nghost:    6.45 ave 77 max 0 min
Histogram: 36 0 0 0 0 1 0 0 1 2
Neighs:    4.625 ave 88 max 0 min
Histogram: 36 1 1 0 0 0 1 0 0 1

Total # of neighbors = 185
Ave neighs/atom = 0.364173
Neighbor list builds = 3553
Dangerous builds = 425
Setting up run at Tue Jan  3 00:06:38 2023

Memory usage per processor = 958.989 Mbytes
    Step    Atoms         KinEng            CPU 
 4012322      508     0.07231645              0 
 4166642      508    0.047690527      1539.8489 
Loop time of 1539.85 on 40 procs for 154320 steps with 508 atoms, finish time Tue Jan  3 00:32:18 2023


Pair  time (%) = 0.347062 (0.0225387)
Neigh time (%) = 1.29571 (0.0841451)
Comm  time (%) = 3.95603 (0.25691)
Outpt time (%) = 0.000472715 (3.06988e-05)
Other time (%) = 1534.25 (99.6364)

Nlocal:    12.7 ave 183 max 0 min
Histogram: 36 0 2 0 0 0 0 0 0 2
Nghost:    6.375 ave 74 max 0 min
Histogram: 36 0 0 0 0 1 0 0 1 2
Neighs:    4.425 ave 78 max 0 min
Histogram: 36 1 1 0 0 0 0 0 1 1

Total # of neighbors = 177
Ave neighs/atom = 0.348425
Neighbor list builds = 3934
Dangerous builds = 0
Setting up run at Tue Jan  3 00:32:18 2023

Memory usage per processor = 958.989 Mbytes
    Step    Atoms         KinEng            CPU 
 4166642      508    0.047690527              0 
 4320962      508     0.62455621      1530.4399 
Loop time of 1530.44 on 40 procs for 154320 steps with 508 atoms, finish time Tue Jan  3 00:57:49 2023


Pair  time (%) = 0.347483 (0.0227048)
Neigh time (%) = 1.20588 (0.078793)
Comm  time (%) = 3.61209 (0.236016)
Outpt time (%) = 0.000460459 (3.00867e-05)
Other time (%) = 1525.27 (99.6625)

Nlocal:    12.7 ave 182 max 0 min
Histogram: 36 0 2 0 0 0 0 0 0 2
Nghost:    6.425 ave 74 max 0 min
Histogram: 36 0 0 0 0 1 0 1 0 2
Neighs:    4.425 ave 77 max 0 min
Histogram: 36 1 1 0 0 0 0 0 1 1

Total # of neighbors = 177
Ave neighs/atom = 0.348425
Neighbor list builds = 3689
Dangerous builds = 0
Setting up run at Tue Jan  3 00:57:49 2023

Memory usage per processor = 958.989 Mbytes
    Step    Atoms         KinEng            CPU 
 4320962      508     0.62455621              0 
 4475282      508     0.58127305      1555.5122 
Loop time of 1555.51 on 40 procs for 154320 steps with 508 atoms, finish time Tue Jan  3 01:23:44 2023


Pair  time (%) = 0.352032 (0.0226312)
Neigh time (%) = 2.45628 (0.157908)
Comm  time (%) = 5.25043 (0.337537)
Outpt time (%) = 0.000447199 (2.87493e-05)
Other time (%) = 1547.45 (99.4819)

Nlocal:    12.7 ave 178 max 0 min
Histogram: 35 1 1 1 0 0 0 0 0 2
Nghost:    6.375 ave 75 max 0 min
Histogram: 36 0 0 0 0 1 0 1 0 2
Neighs:    4.35 ave 75 max 0 min
Histogram: 36 1 1 0 0 0 0 0 1 1

Total # of neighbors = 174
Ave neighs/atom = 0.34252
Neighbor list builds = 7427
Dangerous builds = 0
Setting up run at Tue Jan  3 01:23:44 2023

Memory usage per processor = 958.989 Mbytes
    Step    Atoms         KinEng            CPU 
 4475282      508     0.58127305              0 
 4629602      506     0.36531524       1556.898 
Loop time of 1556.91 on 40 procs for 154320 steps with 506 atoms, finish time Tue Jan  3 01:49:41 2023


Pair  time (%) = 0.353354 (0.0226958)
Neigh time (%) = 2.70827 (0.173952)
Comm  time (%) = 6.00283 (0.38556)
Outpt time (%) = 0.000844618 (5.42496e-05)
Other time (%) = 1547.85 (99.4177)

Nlocal:    12.65 ave 175 max 0 min
Histogram: 36 0 1 1 0 0 0 0 0 2
Nghost:    6.1 ave 73 max 0 min
Histogram: 36 0 0 0 0 0 1 1 0 2
Neighs:    4.3 ave 75 max 0 min
Histogram: 36 1 1 0 0 0 0 0 1 1

Total # of neighbors = 172
Ave neighs/atom = 0.339921
Neighbor list builds = 8168
Dangerous builds = 2
Setting up run at Tue Jan  3 01:49:41 2023

Memory usage per processor = 958.989 Mbytes
    Step    Atoms         KinEng            CPU 
 4629602      506     0.36531524              0 
 4783922      504      0.1538909      1574.5672 
Loop time of 1574.57 on 40 procs for 154320 steps with 504 atoms, finish time Tue Jan  3 02:15:56 2023


Pair  time (%) = 0.355039 (0.0225484)
Neigh time (%) = 3.22959 (0.20511)
Comm  time (%) = 8.86278 (0.562871)
Outpt time (%) = 0.000575891 (3.65746e-05)
Other time (%) = 1562.12 (99.2094)

Nlocal:    12.6 ave 175 max 0 min
Histogram: 35 1 2 0 0 0 0 0 0 2
Nghost:    6.1 ave 70 max 0 min
Histogram: 36 0 0 0 0 0 1 1 0 2
Neighs:    4.25 ave 74 max 0 min
Histogram: 36 1 1 0 0 0 0 0 1 1

Total # of neighbors = 170
Ave neighs/atom = 0.337302
Neighbor list builds = 10021
Dangerous builds = 467
Setting up run at Tue Jan  3 02:15:56 2023

Memory usage per processor = 958.989 Mbytes
    Step    Atoms         KinEng            CPU 
 4783922      504      0.1538909              0 
 4938242      504     0.25710386      1562.9262 
Loop time of 1562.93 on 40 procs for 154320 steps with 504 atoms, finish time Tue Jan  3 02:41:59 2023


Pair  time (%) = 0.35089 (0.0224508)
Neigh time (%) = 2.97079 (0.190079)
Comm  time (%) = 7.09367 (0.453871)
Outpt time (%) = 0.000455108 (2.9119e-05)
Other time (%) = 1552.51 (99.3336)

Nlocal:    12.6 ave 174 max 0 min
Histogram: 35 1 2 0 0 0 0 0 0 2
Nghost:    6.025 ave 66 max 0 min
Histogram: 36 0 0 0 0 0 0 1 1 2
Neighs:    4 ave 73 max 0 min
Histogram: 36 2 0 0 0 0 0 0 1 1

Total # of neighbors = 160
Ave neighs/atom = 0.31746
Neighbor list builds = 8951
Dangerous builds = 0
Setting up run at Tue Jan  3 02:41:59 2023

Memory usage per processor = 958.989 Mbytes
    Step    Atoms         KinEng            CPU 
 4938242      504     0.25710386              0 
 5092562      503     0.22370549      1529.7343 
Loop time of 1529.73 on 40 procs for 154320 steps with 503 atoms, finish time Tue Jan  3 03:07:29 2023


Pair  time (%) = 0.342018 (0.022358)
Neigh time (%) = 1.20651 (0.0788706)
Comm  time (%) = 3.79844 (0.248307)
Outpt time (%) = 0.000477968 (3.12451e-05)
Other time (%) = 1524.39 (99.6504)

Nlocal:    12.575 ave 173 max 0 min
Histogram: 36 0 2 0 0 0 0 0 0 2
Nghost:    5.825 ave 68 max 0 min
Histogram: 36 0 0 0 0 0 1 1 1 1
Neighs:    4.15 ave 73 max 0 min
Histogram: 36 1 1 0 0 0 0 0 0 2

Total # of neighbors = 166
Ave neighs/atom = 0.33002
Neighbor list builds = 3755
Dangerous builds = 317
Setting up run at Tue Jan  3 03:07:29 2023

Memory usage per processor = 958.989 Mbytes
    Step    Atoms         KinEng            CPU 
 5092562      503     0.22370549              0 
 5246882      501     0.18983652      1538.1523 
Loop time of 1538.15 on 40 procs for 154320 steps with 501 atoms, finish time Tue Jan  3 03:33:07 2023


Pair  time (%) = 0.343357 (0.0223227)
Neigh time (%) = 1.34237 (0.0872714)
Comm  time (%) = 4.08671 (0.265689)
Outpt time (%) = 0.000647182 (4.20753e-05)
Other time (%) = 1532.38 (99.6247)

Nlocal:    12.525 ave 174 max 0 min
Histogram: 35 1 2 0 0 0 0 0 0 2
Nghost:    5.775 ave 70 max 0 min
Histogram: 36 0 0 0 0 0 0 3 0 1
Neighs:    4.15 ave 70 max 0 min
Histogram: 36 1 1 0 0 0 0 0 0 2

Total # of neighbors = 166
Ave neighs/atom = 0.331337
Neighbor list builds = 4098
Dangerous builds = 118
Setting up run at Tue Jan  3 03:33:07 2023

Memory usage per processor = 958.989 Mbytes
    Step    Atoms         KinEng            CPU 
 5246882      501     0.18983652              0 
 5401202      501      0.2197033      1539.8286 
Loop time of 1539.83 on 40 procs for 154320 steps with 501 atoms, finish time Tue Jan  3 03:58:47 2023


Pair  time (%) = 0.338738 (0.0219984)
Neigh time (%) = 1.43099 (0.0929318)
Comm  time (%) = 3.49263 (0.22682)
Outpt time (%) = 0.000517809 (3.36277e-05)
Other time (%) = 1534.57 (99.6582)

Nlocal:    12.525 ave 172 max 0 min
Histogram: 35 1 1 1 0 0 0 0 0 2
Nghost:    5.5 ave 63 max 0 min
Histogram: 36 0 0 0 0 0 0 1 2 1
Neighs:    4.225 ave 70 max 0 min
Histogram: 36 1 1 0 0 0 0 0 0 2

Total # of neighbors = 169
Ave neighs/atom = 0.337325
Neighbor list builds = 4326
Dangerous builds = 0
Setting up run at Tue Jan  3 03:58:47 2023

Memory usage per processor = 958.989 Mbytes
    Step    Atoms         KinEng            CPU 
 5401202      501      0.2197033              0 
 5555522      501     0.24717047      1536.8635 
Loop time of 1536.86 on 40 procs for 154320 steps with 501 atoms, finish time Tue Jan  3 04:24:24 2023


Pair  time (%) = 0.340583 (0.0221609)
Neigh time (%) = 1.60733 (0.104585)
Comm  time (%) = 4.3351 (0.282075)
Outpt time (%) = 0.00054201 (3.52673e-05)
Other time (%) = 1530.58 (99.5911)

Nlocal:    12.525 ave 171 max 0 min
Histogram: 35 1 2 0 0 0 0 0 0 2
Nghost:    5.5 ave 60 max 0 min
Histogram: 36 0 0 0 0 0 0 1 1 2
Neighs:    3.875 ave 68 max 0 min
Histogram: 37 0 1 0 0 0 0 0 0 2

Total # of neighbors = 155
Ave neighs/atom = 0.309381
Neighbor list builds = 4847
Dangerous builds = 0
Setting up run at Tue Jan  3 04:24:24 2023

Memory usage per processor = 958.989 Mbytes
    Step    Atoms         KinEng            CPU 
 5555522      501     0.24717047              0 
 5709842      500     0.16898832      1560.6233 
Loop time of 1560.63 on 40 procs for 154320 steps with 500 atoms, finish time Tue Jan  3 04:50:25 2023


Pair  time (%) = 0.345843 (0.0221604)
Neigh time (%) = 2.78436 (0.178412)
Comm  time (%) = 6.80002 (0.435722)
Outpt time (%) = 0.0134198 (0.000859895)
Other time (%) = 1550.69 (99.3628)

Nlocal:    12.5 ave 173 max 0 min
Histogram: 35 1 1 1 0 0 0 0 0 2
Nghost:    5.325 ave 64 max 0 min
Histogram: 36 0 0 0 0 0 1 0 2 1
Neighs:    3.675 ave 71 max 0 min
Histogram: 37 0 1 0 0 0 0 1 0 1

Total # of neighbors = 147
Ave neighs/atom = 0.294
Neighbor list builds = 8718
Dangerous builds = 341
Setting up run at Tue Jan  3 04:50:25 2023

Memory usage per processor = 958.989 Mbytes
    Step    Atoms         KinEng            CPU 
 5709842      500     0.16898832              0 
 5864162      499     0.15769047      1550.3653 
Loop time of 1550.37 on 40 procs for 154320 steps with 499 atoms, finish time Tue Jan  3 05:16:15 2023


Pair  time (%) = 0.342857 (0.0221146)
Neigh time (%) = 2.16306 (0.139519)
Comm  time (%) = 4.67712 (0.301679)
Outpt time (%) = 0.000557576 (3.59642e-05)
Other time (%) = 1543.18 (99.5367)

Nlocal:    12.475 ave 173 max 0 min
Histogram: 34 2 2 0 0 0 0 0 0 2
Nghost:    5.425 ave 65 max 0 min
Histogram: 36 0 0 0 0 1 0 1 1 1
Neighs:    3.725 ave 76 max 0 min
Histogram: 37 0 1 0 0 0 1 0 0 1

Total # of neighbors = 149
Ave neighs/atom = 0.298597
Neighbor list builds = 6517
Dangerous builds = 0
Setting up run at Tue Jan  3 05:16:15 2023

Memory usage per processor = 958.989 Mbytes
    Step    Atoms         KinEng            CPU 
 5864162      499     0.15769047              0 
 6018482      499     0.12661317      1535.9297 
Loop time of 1535.93 on 40 procs for 154320 steps with 499 atoms, finish time Tue Jan  3 05:41:51 2023


Pair  time (%) = 0.337518 (0.0219749)
Neigh time (%) = 0.960069 (0.0625073)
Comm  time (%) = 2.83139 (0.184344)
Outpt time (%) = 0.000518456 (3.37552e-05)
Other time (%) = 1531.8 (99.7311)

Nlocal:    12.475 ave 172 max 0 min
Histogram: 34 2 1 1 0 0 0 0 0 2
Nghost:    5.5 ave 68 max 0 min
Histogram: 36 0 0 0 0 1 0 2 0 1
Neighs:    3.55 ave 72 max 0 min
Histogram: 37 0 1 0 0 0 1 0 0 1

Total # of neighbors = 142
Ave neighs/atom = 0.284569
Neighbor list builds = 2907
Dangerous builds = 0
Setting up run at Tue Jan  3 05:41:51 2023

Memory usage per processor = 958.989 Mbytes
    Step    Atoms         KinEng            CPU 
 6018482      499     0.12661317              0 
 6172802      499     0.15977112      1642.6512 
Loop time of 1642.65 on 40 procs for 154320 steps with 499 atoms, finish time Tue Jan  3 06:09:14 2023


Pair  time (%) = 0.36242 (0.0220631)
Neigh time (%) = 7.15054 (0.435305)
Comm  time (%) = 14.9778 (0.911804)
Outpt time (%) = 0.000565035 (3.43978e-05)
Other time (%) = 1620.16 (98.6308)

Nlocal:    12.475 ave 170 max 0 min
Histogram: 33 3 2 0 0 0 0 0 0 2
Nghost:    5.25 ave 66 max 0 min
Histogram: 36 0 0 0 0 1 0 1 1 1
Neighs:    3.525 ave 69 max 0 min
Histogram: 37 0 1 0 0 0 1 0 0 1

Total # of neighbors = 141
Ave neighs/atom = 0.282565
Neighbor list builds = 21789
Dangerous builds = 0
Setting up run at Tue Jan  3 06:09:14 2023

Memory usage per processor = 958.989 Mbytes
    Step    Atoms         KinEng            CPU 
 6172802      499     0.15977112              0 
 6327122      497     0.17337576      1565.6083 
Loop time of 1565.61 on 40 procs for 154320 steps with 497 atoms, finish time Tue Jan  3 06:35:20 2023


Pair  time (%) = 0.341234 (0.0217956)
Neigh time (%) = 2.66641 (0.170311)
Comm  time (%) = 5.87545 (0.375282)
Outpt time (%) = 0.00135211 (8.63633e-05)
Other time (%) = 1556.72 (99.4325)

Nlocal:    12.425 ave 172 max 0 min
Histogram: 34 2 1 1 0 0 0 0 0 2
Nghost:    5.35 ave 69 max 0 min
Histogram: 36 0 0 0 0 1 0 2 0 1
Neighs:    3.6 ave 73 max 0 min
Histogram: 37 1 0 0 0 0 0 1 0 1

Total # of neighbors = 144
Ave neighs/atom = 0.289738
Neighbor list builds = 7995
Dangerous builds = 189
Setting up run at Tue Jan  3 06:35:20 2023

Memory usage per processor = 958.989 Mbytes
    Step    Atoms         KinEng            CPU 
 6327122      497     0.17337576              0 
 6481442      497     0.14497822      1529.2359 
Loop time of 1529.24 on 40 procs for 154320 steps with 497 atoms, finish time Tue Jan  3 07:00:49 2023


Pair  time (%) = 0.333222 (0.0217901)
Neigh time (%) = 1.08021 (0.0706374)
Comm  time (%) = 3.33008 (0.217761)
Outpt time (%) = 0.00056899 (3.72075e-05)
Other time (%) = 1524.49 (99.6898)

Nlocal:    12.425 ave 169 max 0 min
Histogram: 34 2 1 1 0 0 0 0 0 2
Nghost:    5.45 ave 68 max 0 min
Histogram: 36 0 0 0 0 1 0 2 0 1
Neighs:    3.55 ave 66 max 0 min
Histogram: 36 2 0 0 0 0 0 0 1 1

Total # of neighbors = 142
Ave neighs/atom = 0.285714
Neighbor list builds = 3267
Dangerous builds = 0
Setting up run at Tue Jan  3 07:00:49 2023

Memory usage per processor = 958.989 Mbytes
    Step    Atoms         KinEng            CPU 
 6481442      497     0.14497822              0 
 6635762      495     0.12553559      1538.8913 
Loop time of 1538.89 on 40 procs for 154320 steps with 495 atoms, finish time Tue Jan  3 07:26:28 2023


Pair  time (%) = 0.333289 (0.0216577)
Neigh time (%) = 1.36525 (0.0887165)
Comm  time (%) = 4.65043 (0.302194)
Outpt time (%) = 0.000475769 (3.09164e-05)
Other time (%) = 1532.54 (99.5874)

Nlocal:    12.375 ave 170 max 0 min
Histogram: 34 2 2 0 0 0 0 0 0 2
Nghost:    5.425 ave 66 max 0 min
Histogram: 36 0 0 0 0 1 0 1 1 1
Neighs:    3.55 ave 67 max 0 min
Histogram: 37 1 0 0 0 0 0 0 1 1

Total # of neighbors = 142
Ave neighs/atom = 0.286869
Neighbor list builds = 4170
Dangerous builds = 106
Setting up run at Tue Jan  3 07:26:28 2023

Memory usage per processor = 958.989 Mbytes
    Step    Atoms         KinEng            CPU 
 6635762      495     0.12553559              0 
 6790082      495     0.10819708      1530.6481 
Loop time of 1530.65 on 40 procs for 154320 steps with 495 atoms, finish time Tue Jan  3 07:51:59 2023


Pair  time (%) = 0.326819 (0.0213517)
Neigh time (%) = 0.926866 (0.0605538)
Comm  time (%) = 2.77267 (0.181143)
Outpt time (%) = 0.000558669 (3.64989e-05)
Other time (%) = 1526.62 (99.7369)

Nlocal:    12.375 ave 167 max 0 min
Histogram: 33 3 1 1 0 0 0 0 0 2
Nghost:    5.375 ave 67 max 0 min
Histogram: 36 0 0 0 0 1 1 0 1 1
Neighs:    3.45 ave 67 max 0 min
Histogram: 37 1 0 0 0 0 0 0 1 1

Total # of neighbors = 138
Ave neighs/atom = 0.278788
Neighbor list builds = 2785
Dangerous builds = 0
Setting up run at Tue Jan  3 07:51:59 2023

Memory usage per processor = 958.989 Mbytes
    Step    Atoms         KinEng            CPU 
 6790082      495     0.10819708              0 
 6944402      493     0.10809064      1546.9831 
Loop time of 1546.98 on 40 procs for 154320 steps with 493 atoms, finish time Tue Jan  3 08:17:46 2023


Pair  time (%) = 0.332293 (0.0214801)
Neigh time (%) = 2.0132 (0.130137)
Comm  time (%) = 6.24917 (0.403958)
Outpt time (%) = 0.000480425 (3.10556e-05)
Other time (%) = 1538.39 (99.4444)

Nlocal:    12.325 ave 167 max 0 min
Histogram: 34 2 1 1 0 0 0 0 0 2
Nghost:    5.725 ave 64 max 0 min
Histogram: 36 0 0 0 0 0 1 1 0 2
Neighs:    3.65 ave 66 max 0 min
Histogram: 36 1 1 0 0 0 0 0 1 1

Total # of neighbors = 146
Ave neighs/atom = 0.296146
Neighbor list builds = 6209
Dangerous builds = 371
Setting up run at Tue Jan  3 08:17:46 2023

Memory usage per processor = 958.989 Mbytes
    Step    Atoms         KinEng            CPU 
 6944402      493     0.10809064              0 
 7098722      492     0.11444587      1533.1584 
Loop time of 1533.16 on 40 procs for 154320 steps with 492 atoms, finish time Tue Jan  3 08:43:19 2023


Pair  time (%) = 0.331683 (0.021634)
Neigh time (%) = 1.27804 (0.08336)
Comm  time (%) = 4.26981 (0.278497)
Outpt time (%) = 0.000538153 (3.51009e-05)
Other time (%) = 1527.28 (99.6165)

Nlocal:    12.3 ave 161 max 0 min
Histogram: 34 2 1 1 0 0 0 0 0 2
Nghost:    5.35 ave 63 max 0 min
Histogram: 36 0 0 0 0 1 0 1 0 2
Neighs:    3.55 ave 61 max 0 min
Histogram: 36 1 1 0 0 0 0 0 0 2

Total # of neighbors = 142
Ave neighs/atom = 0.288618
Neighbor list builds = 3860
Dangerous builds = 0
Setting up run at Tue Jan  3 08:43:19 2023

Memory usage per processor = 958.989 Mbytes
    Step    Atoms         KinEng            CPU 
 7098722      492     0.11444587              0 
 7253042      492     0.12306279      1521.0943 
Loop time of 1521.09 on 40 procs for 154320 steps with 492 atoms, finish time Tue Jan  3 09:08:40 2023


Pair  time (%) = 0.330422 (0.0217226)
Neigh time (%) = 0.888892 (0.0584376)
Comm  time (%) = 2.74942 (0.180753)
Outpt time (%) = 0.000546468 (3.5926e-05)
Other time (%) = 1517.13 (99.7391)

Nlocal:    12.3 ave 159 max 0 min
Histogram: 33 3 1 1 0 0 0 0 0 2
Nghost:    5.35 ave 62 max 0 min
Histogram: 36 0 0 0 0 0 1 1 0 2
Neighs:    3.375 ave 62 max 0 min
Histogram: 36 2 0 0 0 0 0 0 1 1

Total # of neighbors = 135
Ave neighs/atom = 0.27439
Neighbor list builds = 2696
Dangerous builds = 0
Setting up run at Tue Jan  3 09:08:40 2023

Memory usage per processor = 958.989 Mbytes
    Step    Atoms         KinEng            CPU 
 7253042      492     0.12306279              0 
 7407362      490     0.20358064      1586.9318 
Loop time of 1586.93 on 40 procs for 154320 steps with 490 atoms, finish time Tue Jan  3 09:35:07 2023


Pair  time (%) = 0.329898 (0.0207884)
Neigh time (%) = 1.33177 (0.0839209)
Comm  time (%) = 3.66195 (0.230757)
Outpt time (%) = 0.000448232 (2.82452e-05)
Other time (%) = 1581.61 (99.6645)

Nlocal:    12.25 ave 158 max 0 min
Histogram: 33 3 1 1 0 0 0 0 0 2
Nghost:    5.05 ave 59 max 0 min
Histogram: 36 0 0 0 0 0 1 1 0 2
Neighs:    3.325 ave 61 max 0 min
Histogram: 36 1 1 0 0 0 0 0 1 1

Total # of neighbors = 133
Ave neighs/atom = 0.271429
Neighbor list builds = 4047
Dangerous builds = 133
Setting up run at Tue Jan  3 09:35:07 2023

Memory usage per processor = 958.989 Mbytes
    Step    Atoms         KinEng            CPU 
 7407362      490     0.20358064              0 
 7561682      488     0.26213388      1600.7126 
Loop time of 1600.71 on 40 procs for 154320 steps with 488 atoms, finish time Tue Jan  3 10:01:48 2023


Pair  time (%) = 0.341428 (0.0213298)
Neigh time (%) = 4.16707 (0.260326)
Comm  time (%) = 9.92175 (0.619834)
Outpt time (%) = 0.000411982 (2.57374e-05)
Other time (%) = 1586.28 (99.0985)

Nlocal:    12.2 ave 160 max 0 min
Histogram: 33 3 1 1 0 0 0 0 0 2
Nghost:    5.15 ave 61 max 0 min
Histogram: 36 0 0 0 0 0 1 1 0 2
Neighs:    3.025 ave 56 max 0 min
Histogram: 36 1 1 0 0 0 0 1 0 1

Total # of neighbors = 121
Ave neighs/atom = 0.247951
Neighbor list builds = 12729
Dangerous builds = 87
Setting up run at Tue Jan  3 10:01:48 2023

Memory usage per processor = 958.989 Mbytes
    Step    Atoms         KinEng            CPU 
 7561682      488     0.26213388              0 
 7716002      487     0.20998196      1746.9044 
Loop time of 1746.9 on 40 procs for 154320 steps with 487 atoms, finish time Tue Jan  3 10:30:55 2023


Pair  time (%) = 0.363828 (0.020827)
Neigh time (%) = 10.167 (0.582003)
Comm  time (%) = 23.9998 (1.37385)
Outpt time (%) = 0.00297633 (0.000170377)
Other time (%) = 1712.37 (98.0231)

Nlocal:    12.175 ave 163 max 0 min
Histogram: 32 4 1 1 0 0 0 0 0 2
Nghost:    4.95 ave 63 max 0 min
Histogram: 36 0 0 0 0 2 0 0 1 1
Neighs:    3 ave 51 max 0 min
Histogram: 36 1 1 0 0 0 0 0 0 2

Total # of neighbors = 120
Ave neighs/atom = 0.246407
Neighbor list builds = 31003
Dangerous builds = 173
Setting up run at Tue Jan  3 10:30:55 2023

Memory usage per processor = 958.989 Mbytes
    Step    Atoms         KinEng            CPU 
 7716002      487     0.20998196              0 
 7870322      486     0.34062144      1716.9821 
Loop time of 1716.98 on 40 procs for 154320 steps with 486 atoms, finish time Tue Jan  3 10:59:32 2023


Pair  time (%) = 0.361759 (0.0210695)
Neigh time (%) = 10.1514 (0.591234)
Comm  time (%) = 22.526 (1.31195)
Outpt time (%) = 0.0159407 (0.000928414)
Other time (%) = 1683.93 (98.0748)

Nlocal:    12.15 ave 157 max 0 min
Histogram: 33 3 1 1 0 0 0 0 0 2
Nghost:    5.05 ave 64 max 0 min
Histogram: 36 0 0 0 0 1 1 1 0 1
Neighs:    2.975 ave 54 max 0 min
Histogram: 36 1 1 0 0 0 0 0 1 1

Total # of neighbors = 119
Ave neighs/atom = 0.244856
Neighbor list builds = 30864
Dangerous builds = 0
Setting up run at Tue Jan  3 10:59:32 2023

Memory usage per processor = 958.989 Mbytes
    Step    Atoms         KinEng            CPU 
 7870322      486     0.34062144              0 
 8024642      486     0.30630958      1823.8298 
Loop time of 1823.83 on 40 procs for 154320 steps with 486 atoms, finish time Tue Jan  3 11:29:56 2023


Pair  time (%) = 0.360516 (0.019767)
Neigh time (%) = 10.215 (0.560087)
Comm  time (%) = 26.1588 (1.43428)
Outpt time (%) = 0.000525493 (2.88126e-05)
Other time (%) = 1787.1 (97.9858)

Nlocal:    12.15 ave 156 max 0 min
Histogram: 32 4 2 0 0 0 0 0 0 2
Nghost:    5.1 ave 67 max 0 min
Histogram: 36 0 0 0 1 1 0 1 0 1
Neighs:    3.125 ave 53 max 0 min
Histogram: 36 1 1 0 0 0 0 0 0 2

Total # of neighbors = 125
Ave neighs/atom = 0.257202
Neighbor list builds = 31203
Dangerous builds = 0
Setting up run at Tue Jan  3 11:29:56 2023

Memory usage per processor = 958.989 Mbytes
    Step    Atoms         KinEng            CPU 
 8024642      486     0.30630958              0 
 8178962      483     0.26050775      1694.3232 
Loop time of 1694.32 on 40 procs for 154320 steps with 483 atoms, finish time Tue Jan  3 11:58:10 2023


Pair  time (%) = 0.369457 (0.0218056)
Neigh time (%) = 10.1612 (0.599721)
Comm  time (%) = 25.1273 (1.48303)
Outpt time (%) = 0.000448744 (2.64852e-05)
Other time (%) = 1658.66 (97.8954)

Nlocal:    12.075 ave 155 max 0 min
Histogram: 34 2 0 2 0 0 0 0 0 2
Nghost:    5.2 ave 71 max 0 min
Histogram: 36 0 0 0 1 1 0 1 0 1
Neighs:    3.125 ave 54 max 0 min
Histogram: 36 1 1 0 0 0 0 0 0 2

Total # of neighbors = 125
Ave neighs/atom = 0.258799
Neighbor list builds = 31323
Dangerous builds = 574
Setting up run at Tue Jan  3 11:58:11 2023

Memory usage per processor = 958.989 Mbytes
    Step    Atoms         KinEng            CPU 
 8178962      483     0.26050775              0 
 8333282      481      0.2171732       1706.751 
Loop time of 1706.75 on 40 procs for 154320 steps with 481 atoms, finish time Tue Jan  3 12:26:37 2023


Pair  time (%) = 0.36731 (0.021521)
Neigh time (%) = 10.2226 (0.598948)
Comm  time (%) = 25.3484 (1.48519)
Outpt time (%) = 0.00310679 (0.000182029)
Other time (%) = 1670.81 (97.8942)

Nlocal:    12.025 ave 157 max 0 min
Histogram: 33 2 2 1 0 0 0 0 0 2
Nghost:    5 ave 64 max 0 min
Histogram: 36 0 0 0 0 1 1 0 1 1
Neighs:    2.775 ave 48 max 0 min
Histogram: 36 1 1 0 0 0 0 0 0 2

Total # of neighbors = 111
Ave neighs/atom = 0.230769
Neighbor list builds = 31382
Dangerous builds = 476
Setting up run at Tue Jan  3 12:26:37 2023

Memory usage per processor = 958.989 Mbytes
    Step    Atoms         KinEng            CPU 
 8333282      481      0.2171732              0 
 8487602      478     0.21784084      1693.9812 
Loop time of 1693.98 on 40 procs for 154320 steps with 478 atoms, finish time Tue Jan  3 12:54:51 2023


Pair  time (%) = 0.364409 (0.021512)
Neigh time (%) = 10.1718 (0.600468)
Comm  time (%) = 21.78 (1.28573)
Outpt time (%) = 0.000487861 (2.87997e-05)
Other time (%) = 1661.66 (98.0923)

Nlocal:    11.95 ave 159 max 0 min
Histogram: 33 3 1 1 0 0 0 0 1 1
Nghost:    4.9 ave 63 max 0 min
Histogram: 36 0 0 0 0 2 0 1 0 1
Neighs:    2.55 ave 49 max 0 min
Histogram: 36 1 1 0 0 0 1 0 0 1

Total # of neighbors = 102
Ave neighs/atom = 0.213389
Neighbor list builds = 31109
Dangerous builds = 307
Setting up run at Tue Jan  3 12:54:51 2023

Memory usage per processor = 958.989 Mbytes
    Step    Atoms         KinEng            CPU 
 8487602      478     0.21784084              0 
 8641922      476      0.1537591      1703.0863 
Loop time of 1703.09 on 40 procs for 154320 steps with 476 atoms, finish time Tue Jan  3 13:23:15 2023


Pair  time (%) = 0.360047 (0.0211409)
Neigh time (%) = 10.139 (0.595329)
Comm  time (%) = 26.217 (1.53938)
Outpt time (%) = 0.000515093 (3.02447e-05)
Other time (%) = 1666.37 (97.8441)

Nlocal:    11.9 ave 159 max 0 min
Histogram: 34 2 0 2 0 0 0 0 1 1
Nghost:    4.8 ave 58 max 0 min
Histogram: 36 0 0 0 0 0 2 0 1 1
Neighs:    2.4 ave 47 max 0 min
Histogram: 36 2 0 0 0 0 0 1 0 1

Total # of neighbors = 96
Ave neighs/atom = 0.201681
Neighbor list builds = 31018
Dangerous builds = 0
Setting up run at Tue Jan  3 13:23:15 2023

Memory usage per processor = 958.989 Mbytes
    Step    Atoms         KinEng            CPU 
 8641922      476      0.1537591              0 
 8796242      474     0.12393758      1690.6535 
Loop time of 1690.65 on 40 procs for 154320 steps with 474 atoms, finish time Tue Jan  3 13:51:25 2023


Pair  time (%) = 0.360511 (0.0213238)
Neigh time (%) = 10.1693 (0.601502)
Comm  time (%) = 27.542 (1.62908)
Outpt time (%) = 0.00316609 (0.00018727)
Other time (%) = 1652.58 (97.7479)

Nlocal:    11.85 ave 157 max 0 min
Histogram: 32 4 1 1 0 0 0 0 1 1
Nghost:    4.825 ave 60 max 0 min
Histogram: 36 0 0 0 0 1 1 0 1 1
Neighs:    2.6 ave 50 max 0 min
Histogram: 36 1 1 0 0 0 0 1 0 1

Total # of neighbors = 104
Ave neighs/atom = 0.219409
Neighbor list builds = 31105
Dangerous builds = 301
Setting up run at Tue Jan  3 13:51:25 2023

Memory usage per processor = 958.989 Mbytes
    Step    Atoms         KinEng            CPU 
 8796242      474     0.12393758              0 
 8950562      473     0.31072607      1698.6873 
Loop time of 1698.69 on 40 procs for 154320 steps with 473 atoms, finish time Tue Jan  3 14:19:44 2023


Pair  time (%) = 0.365251 (0.0215019)
Neigh time (%) = 10.1221 (0.595878)
Comm  time (%) = 22.854 (1.34539)
Outpt time (%) = 0.00315311 (0.00018562)
Other time (%) = 1665.34 (98.037)

Nlocal:    11.825 ave 157 max 0 min
Histogram: 33 3 1 1 0 0 0 0 1 1
Nghost:    4.85 ave 57 max 0 min
Histogram: 36 0 0 0 0 0 1 1 1 1
Neighs:    2.3 ave 48 max 0 min
Histogram: 36 2 0 0 0 1 0 0 0 1

Total # of neighbors = 92
Ave neighs/atom = 0.194503
Neighbor list builds = 30864
Dangerous builds = 0
Setting up run at Tue Jan  3 14:19:44 2023

Memory usage per processor = 958.989 Mbytes
    Step    Atoms         KinEng            CPU 
 8950562      473     0.31072607              0 
 9104882      470     0.13534794       1702.939 
Loop time of 1702.94 on 40 procs for 154320 steps with 470 atoms, finish time Tue Jan  3 14:48:07 2023


Pair  time (%) = 0.359266 (0.0210968)
Neigh time (%) = 10.1092 (0.59363)
Comm  time (%) = 25.8167 (1.51601)
Outpt time (%) = 0.00316168 (0.00018566)
Other time (%) = 1666.65 (97.8691)

Nlocal:    11.75 ave 153 max 0 min
Histogram: 32 4 1 1 0 0 0 0 1 1
Nghost:    4.675 ave 56 max 0 min
Histogram: 36 0 0 0 0 0 2 0 1 1
Neighs:    2.05 ave 46 max 0 min
Histogram: 36 2 0 0 1 0 0 0 0 1

Total # of neighbors = 82
Ave neighs/atom = 0.174468
Neighbor list builds = 30864
Dangerous builds = 0
Setting up run at Tue Jan  3 14:48:07 2023

Memory usage per processor = 958.989 Mbytes
    Step    Atoms         KinEng            CPU 
 9104882      470     0.13534794              0 
 9259202      469     0.15764284      1695.6238 
Loop time of 1695.62 on 40 procs for 154320 steps with 469 atoms, finish time Tue Jan  3 15:16:23 2023


Pair  time (%) = 0.359616 (0.0212085)
Neigh time (%) = 10.1567 (0.598995)
Comm  time (%) = 25.2815 (1.49098)
Outpt time (%) = 0.00315095 (0.000185828)
Other time (%) = 1659.82 (97.8886)

Nlocal:    11.725 ave 155 max 0 min
Histogram: 32 4 1 1 0 0 0 1 0 1
Nghost:    4.6 ave 53 max 0 min
Histogram: 36 0 0 0 0 0 1 1 1 1
Neighs:    2.2 ave 48 max 0 min
Histogram: 36 1 1 1 0 0 0 0 0 1

Total # of neighbors = 88
Ave neighs/atom = 0.187633
Neighbor list builds = 30963
Dangerous builds = 123
Setting up run at Tue Jan  3 15:16:23 2023

Memory usage per processor = 958.989 Mbytes
    Step    Atoms         KinEng            CPU 
 9259202      469     0.15764284              0 
 9413522      467     0.14247958        1693.81 
Loop time of 1693.81 on 40 procs for 154320 steps with 467 atoms, finish time Tue Jan  3 15:44:37 2023


Pair  time (%) = 0.356883 (0.0210698)
Neigh time (%) = 10.2337 (0.60418)
Comm  time (%) = 31.552 (1.86278)
Outpt time (%) = 0.000570376 (3.36741e-05)
Other time (%) = 1651.67 (97.5119)

Nlocal:    11.675 ave 153 max 0 min
Histogram: 34 1 1 2 0 0 0 0 1 1
Nghost:    4.75 ave 54 max 0 min
Histogram: 36 0 0 0 0 0 2 0 1 1
Neighs:    2.25 ave 44 max 0 min
Histogram: 36 1 0 1 1 0 0 0 0 1

Total # of neighbors = 90
Ave neighs/atom = 0.192719
Neighbor list builds = 31196
Dangerous builds = 340
Setting up run at Tue Jan  3 15:44:37 2023

Memory usage per processor = 958.989 Mbytes
    Step    Atoms         KinEng            CPU 
 9413522      467     0.14247958              0 
 9567842      465     0.30672779      1692.4241 
Loop time of 1692.42 on 40 procs for 154320 steps with 465 atoms, finish time Tue Jan  3 16:12:49 2023


Pair  time (%) = 0.355034 (0.0209779)
Neigh time (%) = 10.3686 (0.612646)
Comm  time (%) = 30.1219 (1.77981)
Outpt time (%) = 0.000489592 (2.89285e-05)
Other time (%) = 1651.58 (97.5865)

Nlocal:    11.625 ave 154 max 0 min
Histogram: 32 4 1 1 0 0 0 1 0 1
Nghost:    4.475 ave 50 max 0 min
Histogram: 36 0 0 0 0 0 0 2 1 1
Neighs:    2.075 ave 44 max 0 min
Histogram: 37 0 1 0 1 0 0 0 0 1

Total # of neighbors = 83
Ave neighs/atom = 0.178495
Neighbor list builds = 31640
Dangerous builds = 473
Setting up run at Tue Jan  3 16:12:49 2023

Memory usage per processor = 958.989 Mbytes
    Step    Atoms         KinEng            CPU 
 9567842      465     0.30672779              0 
 9722162      463     0.34591858      1687.5342 
Loop time of 1687.53 on 40 procs for 154320 steps with 463 atoms, finish time Tue Jan  3 16:40:57 2023


Pair  time (%) = 0.348894 (0.0206748)
Neigh time (%) = 10.2843 (0.609429)
Comm  time (%) = 27.3921 (1.6232)
Outpt time (%) = 0.0032011 (0.000189691)
Other time (%) = 1649.51 (97.7465)

Nlocal:    11.575 ave 156 max 0 min
Histogram: 33 2 3 0 0 0 0 1 0 1
Nghost:    4.475 ave 45 max 0 min
Histogram: 36 0 0 0 0 0 0 1 1 2
Neighs:    1.9 ave 45 max 0 min
Histogram: 37 1 0 1 0 0 0 0 0 1

Total # of neighbors = 76
Ave neighs/atom = 0.164147
Neighbor list builds = 31134
Dangerous builds = 77
Setting up run at Tue Jan  3 16:40:57 2023

Memory usage per processor = 958.989 Mbytes
    Step    Atoms         KinEng            CPU 
 9722162      463     0.34591858              0 
 9876482      459     0.25215401      1682.9065 
Loop time of 1682.91 on 40 procs for 154320 steps with 459 atoms, finish time Tue Jan  3 17:09:00 2023


Pair  time (%) = 0.350026 (0.0207989)
Neigh time (%) = 10.1392 (0.602481)
Comm  time (%) = 29.1649 (1.73301)
Outpt time (%) = 0.000500239 (2.97247e-05)
Other time (%) = 1643.25 (97.6437)

Nlocal:    11.475 ave 154 max 0 min
Histogram: 32 4 2 0 0 0 0 1 0 1
Nghost:    4.4 ave 43 max 0 min
Histogram: 36 0 0 0 0 0 0 0 1 3
Neighs:    1.9 ave 43 max 0 min
Histogram: 36 2 0 0 1 0 0 0 0 1

Total # of neighbors = 76
Ave neighs/atom = 0.165577
Neighbor list builds = 31072
Dangerous builds = 1128
Setting up run at Tue Jan  3 17:09:00 2023

Memory usage per processor = 958.989 Mbytes
    Step    Atoms         KinEng            CPU 
 9876482      459     0.25215401              0 
10030802      459     0.83743159      1639.5043 
Loop time of 1639.5 on 40 procs for 154320 steps with 459 atoms, finish time Tue Jan  3 17:36:20 2023


Pair  time (%) = 0.336628 (0.0205323)
Neigh time (%) = 7.76368 (0.473538)
Comm  time (%) = 18.4559 (1.1257)
Outpt time (%) = 0.0030867 (0.00018827)
Other time (%) = 1612.95 (98.38)

Nlocal:    11.475 ave 154 max 0 min
Histogram: 32 4 1 1 0 0 0 1 0 1
Nghost:    4.225 ave 42 max 0 min
Histogram: 36 0 0 0 0 0 0 0 1 3
Neighs:    2.125 ave 52 max 0 min
Histogram: 36 2 0 1 0 0 0 0 0 1

Total # of neighbors = 85
Ave neighs/atom = 0.185185
Neighbor list builds = 22966
Dangerous builds = 0
Setting up run at Tue Jan  3 17:36:20 2023

Memory usage per processor = 958.989 Mbytes
    Step    Atoms         KinEng            CPU 
10030802      459     0.83743159              0 
10185122      455     0.32310766      1638.6297 
Loop time of 1638.63 on 40 procs for 154320 steps with 455 atoms, finish time Tue Jan  3 18:03:38 2023


Pair  time (%) = 0.341275 (0.0208268)
Neigh time (%) = 7.78882 (0.475325)
Comm  time (%) = 17.8365 (1.0885)
Outpt time (%) = 0.000505443 (3.08454e-05)
Other time (%) = 1612.66 (98.4153)

Nlocal:    11.375 ave 152 max 0 min
Histogram: 33 3 1 1 0 0 0 1 0 1
Nghost:    4.15 ave 46 max 0 min
Histogram: 36 0 0 0 0 0 0 1 1 2
Neighs:    2.225 ave 50 max 0 min
Histogram: 36 1 1 0 1 0 0 0 0 1

Total # of neighbors = 89
Ave neighs/atom = 0.195604
Neighbor list builds = 23284
Dangerous builds = 73
Setting up run at Tue Jan  3 18:03:38 2023

Memory usage per processor = 958.989 Mbytes
    Step    Atoms         KinEng            CPU 
10185122      455     0.32310766              0 
10339442      452     0.31828118       1647.615 
Loop time of 1647.62 on 40 procs for 154320 steps with 452 atoms, finish time Tue Jan  3 18:31:06 2023


Pair  time (%) = 0.342804 (0.0208061)
Neigh time (%) = 8.00255 (0.485705)
Comm  time (%) = 19.4088 (1.17799)
Outpt time (%) = 0.000462948 (2.8098e-05)
Other time (%) = 1619.86 (98.3155)

Nlocal:    11.3 ave 151 max 0 min
Histogram: 32 4 1 1 0 0 0 1 0 1
Nghost:    4.25 ave 45 max 0 min
Histogram: 35 1 0 0 0 0 0 2 0 2
Neighs:    2 ave 45 max 0 min
Histogram: 36 1 1 1 0 0 0 0 0 1

Total # of neighbors = 80
Ave neighs/atom = 0.176991
Neighbor list builds = 23988
Dangerous builds = 219
Setting up run at Tue Jan  3 18:31:06 2023

Memory usage per processor = 958.989 Mbytes
    Step    Atoms         KinEng            CPU 
10339442      452     0.31828118              0 
10493762      448      0.2373251      1616.5341 
Loop time of 1616.53 on 40 procs for 154320 steps with 448 atoms, finish time Tue Jan  3 18:58:03 2023


Pair  time (%) = 0.332798 (0.0205871)
Neigh time (%) = 6.6259 (0.409883)
Comm  time (%) = 17.4973 (1.0824)
Outpt time (%) = 0.000501796 (3.10415e-05)
Other time (%) = 1592.08 (98.4871)

Nlocal:    11.2 ave 149 max 0 min
Histogram: 32 4 0 2 0 0 0 1 0 1
Nghost:    4 ave 45 max 0 min
Histogram: 36 0 0 0 0 0 2 0 0 2
Neighs:    2.025 ave 42 max 0 min
Histogram: 36 0 2 0 1 0 0 0 0 1

Total # of neighbors = 81
Ave neighs/atom = 0.180804
Neighbor list builds = 19431
Dangerous builds = 8
Setting up run at Tue Jan  3 18:58:03 2023

Memory usage per processor = 958.989 Mbytes
    Step    Atoms         KinEng            CPU 
10493762      448      0.2373251              0 
10648082      447     0.22582148      1601.2102 
Loop time of 1601.21 on 40 procs for 154320 steps with 447 atoms, finish time Tue Jan  3 19:24:44 2023


Pair  time (%) = 0.323368 (0.0201952)
Neigh time (%) = 5.50382 (0.343729)
Comm  time (%) = 15.0976 (0.942886)
Outpt time (%) = 0.000483944 (3.02237e-05)
Other time (%) = 1580.28 (98.6932)

Nlocal:    11.175 ave 149 max 0 min
Histogram: 32 3 1 2 0 0 0 1 0 1
Nghost:    4.025 ave 44 max 0 min
Histogram: 36 0 0 0 0 0 0 2 1 1
Neighs:    2.2 ave 43 max 0 min
Histogram: 36 0 2 0 1 0 0 0 0 1

Total # of neighbors = 88
Ave neighs/atom = 0.196868
Neighbor list builds = 16159
Dangerous builds = 0
Setting up run at Tue Jan  3 19:24:44 2023

Memory usage per processor = 958.989 Mbytes
    Step    Atoms         KinEng            CPU 
10648082      447     0.22582148              0 
10802402      445     0.74857883      1610.1432 
Loop time of 1610.14 on 40 procs for 154320 steps with 445 atoms, finish time Tue Jan  3 19:51:34 2023


Pair  time (%) = 0.330231 (0.0205094)
Neigh time (%) = 6.11594 (0.379838)
Comm  time (%) = 19.5848 (1.21634)
Outpt time (%) = 0.000507352 (3.15097e-05)
Other time (%) = 1584.11 (98.3833)

Nlocal:    11.125 ave 145 max 0 min
Histogram: 32 4 1 1 0 0 0 1 0 1
Nghost:    4.125 ave 51 max 0 min
Histogram: 35 1 0 0 0 1 2 0 0 1
Neighs:    2.05 ave 41 max 0 min
Histogram: 36 1 0 1 1 0 0 0 0 1

Total # of neighbors = 82
Ave neighs/atom = 0.18427
Neighbor list builds = 18088
Dangerous builds = 23
Setting up run at Tue Jan  3 19:51:34 2023

Memory usage per processor = 958.989 Mbytes
    Step    Atoms         KinEng            CPU 
10802402      445     0.74857883              0 
10956722      441     0.83721385      1604.6191 
Loop time of 1604.62 on 40 procs for 154320 steps with 441 atoms, finish time Tue Jan  3 20:18:19 2023


Pair  time (%) = 0.32839 (0.0204653)
Neigh time (%) = 6.05177 (0.377147)
Comm  time (%) = 15.05 (0.937916)
Outpt time (%) = 0.000409326 (2.55092e-05)
Other time (%) = 1583.19 (98.6644)

Nlocal:    11.025 ave 143 max 0 min
Histogram: 32 3 2 1 0 0 0 1 0 1
Nghost:    3.775 ave 42 max 0 min
Histogram: 35 1 0 0 0 0 1 2 0 1
Neighs:    2 ave 39 max 0 min
Histogram: 35 2 0 1 1 0 0 0 0 1

Total # of neighbors = 80
Ave neighs/atom = 0.181406
Neighbor list builds = 17904
Dangerous builds = 527
Setting up run at Tue Jan  3 20:18:19 2023

Memory usage per processor = 958.989 Mbytes
    Step    Atoms         KinEng            CPU 
10956722      441     0.83721385              0 
11111042      437     0.29533537      1600.8504 
Loop time of 1600.85 on 40 procs for 154320 steps with 437 atoms, finish time Tue Jan  3 20:45:00 2023


Pair  time (%) = 0.330434 (0.0206411)
Neigh time (%) = 5.34675 (0.333994)
Comm  time (%) = 14.1562 (0.884294)
Outpt time (%) = 0.000466073 (2.91141e-05)
Other time (%) = 1581.02 (98.761)

Nlocal:    10.925 ave 144 max 0 min
Histogram: 32 4 1 1 0 0 0 1 0 1
Nghost:    3.65 ave 40 max 0 min
Histogram: 35 1 0 0 0 0 1 1 0 2
Neighs:    1.75 ave 37 max 0 min
Histogram: 36 1 1 0 1 0 0 0 0 1

Total # of neighbors = 70
Ave neighs/atom = 0.160183
Neighbor list builds = 15790
Dangerous builds = 396
Setting up run at Tue Jan  3 20:45:00 2023

Memory usage per processor = 958.989 Mbytes
    Step    Atoms         KinEng            CPU 
11111042      437     0.29533537              0 
11265362      433     0.92139508      1599.6242 
Loop time of 1599.62 on 40 procs for 154320 steps with 433 atoms, finish time Tue Jan  3 21:11:40 2023


Pair  time (%) = 0.329243 (0.0205825)
Neigh time (%) = 5.30109 (0.331396)
Comm  time (%) = 13.6717 (0.854681)
Outpt time (%) = 0.0029894 (0.000186881)
Other time (%) = 1580.32 (98.7932)

Nlocal:    10.825 ave 142 max 0 min
Histogram: 32 4 1 1 0 0 0 1 0 1
Nghost:    3.55 ave 38 max 0 min
Histogram: 35 1 0 0 0 0 0 2 0 2
Neighs:    1.825 ave 41 max 0 min
Histogram: 36 2 0 1 0 0 0 0 0 1

Total # of neighbors = 73
Ave neighs/atom = 0.168591
Neighbor list builds = 15595
Dangerous builds = 179
Setting up run at Tue Jan  3 21:11:40 2023

Memory usage per processor = 958.989 Mbytes
    Step    Atoms         KinEng            CPU 
11265362      433     0.92139508              0 
11419682      428     0.30177952      1593.5999 
Loop time of 1593.6 on 40 procs for 154320 steps with 428 atoms, finish time Tue Jan  3 21:38:13 2023


Pair  time (%) = 0.328432 (0.0206094)
Neigh time (%) = 5.27731 (0.331156)
Comm  time (%) = 12.846 (0.806102)
Outpt time (%) = 0.000483577 (3.0345e-05)
Other time (%) = 1575.15 (98.8421)

Nlocal:    10.7 ave 141 max 0 min
Histogram: 32 4 2 0 0 0 0 1 0 1
Nghost:    3.825 ave 40 max 0 min
Histogram: 35 1 0 0 0 0 0 1 1 2
Neighs:    1.8 ave 40 max 0 min
Histogram: 37 0 1 1 0 0 0 0 0 1

Total # of neighbors = 72
Ave neighs/atom = 0.168224
Neighbor list builds = 15453
Dangerous builds = 24
Setting up run at Tue Jan  3 21:38:13 2023

Memory usage per processor = 958.989 Mbytes
    Step    Atoms         KinEng            CPU 
11419682      428     0.30177952              0 
11574002      428     0.36371506      1599.5656 
Loop time of 1599.57 on 40 procs for 154320 steps with 428 atoms, finish time Tue Jan  3 22:04:53 2023


Pair  time (%) = 0.328036 (0.0205078)
Neigh time (%) = 5.25711 (0.328659)
Comm  time (%) = 12.6651 (0.791786)
Outpt time (%) = 0.00304645 (0.000190455)
Other time (%) = 1581.31 (98.8589)

Nlocal:    10.7 ave 138 max 0 min
Histogram: 32 4 1 1 0 0 0 1 0 1
Nghost:    3.6 ave 36 max 0 min
Histogram: 35 1 0 0 0 0 0 0 1 3
Neighs:    1.675 ave 41 max 0 min
Histogram: 37 1 1 0 0 0 0 0 0 1

Total # of neighbors = 67
Ave neighs/atom = 0.156542
Neighbor list builds = 15432
Dangerous builds = 0
Setting up run at Tue Jan  3 22:04:53 2023

Memory usage per processor = 958.989 Mbytes
    Step    Atoms         KinEng            CPU 
11574002      428     0.36371506              0 
11728322      423     0.29423172      1602.4967 
Loop time of 1602.5 on 40 procs for 154320 steps with 423 atoms, finish time Tue Jan  3 22:31:35 2023


Pair  time (%) = 0.327158 (0.0204155)
Neigh time (%) = 5.46409 (0.340973)
Comm  time (%) = 13.4534 (0.839528)
Outpt time (%) = 0.000481892 (3.00713e-05)
Other time (%) = 1583.25 (98.7991)

Nlocal:    10.575 ave 135 max 0 min
Histogram: 32 3 1 2 0 0 0 1 0 1
Nghost:    3.825 ave 37 max 0 min
Histogram: 34 2 0 0 0 0 0 0 1 3
Neighs:    1.625 ave 39 max 0 min
Histogram: 37 0 2 0 0 0 0 0 0 1

Total # of neighbors = 65
Ave neighs/atom = 0.153664
Neighbor list builds = 16107
Dangerous builds = 2
Setting up run at Tue Jan  3 22:31:36 2023

Memory usage per processor = 958.989 Mbytes
    Step    Atoms         KinEng            CPU 
11728322      423     0.29423172              0 
11882642      420     0.29705504      1610.2982 
Loop time of 1610.3 on 40 procs for 154320 steps with 420 atoms, finish time Tue Jan  3 22:58:26 2023


Pair  time (%) = 0.329453 (0.0204591)
Neigh time (%) = 6.27383 (0.389607)
Comm  time (%) = 18.0836 (1.123)
Outpt time (%) = 0.000454885 (2.82485e-05)
Other time (%) = 1585.61 (98.4669)

Nlocal:    10.5 ave 133 max 0 min
Histogram: 32 3 2 1 0 0 0 1 0 1
Nghost:    4 ave 37 max 0 min
Histogram: 35 1 0 0 0 0 0 0 0 4
Neighs:    1.575 ave 36 max 0 min
Histogram: 36 1 0 2 0 0 0 0 0 1

Total # of neighbors = 63
Ave neighs/atom = 0.15
Neighbor list builds = 18793
Dangerous builds = 315
Setting up run at Tue Jan  3 22:58:26 2023

Memory usage per processor = 958.989 Mbytes
    Step    Atoms         KinEng            CPU 
11882642      420     0.29705504              0 
12036962      417     0.15833573      1600.4098 
Loop time of 1600.41 on 40 procs for 154320 steps with 417 atoms, finish time Tue Jan  3 23:25:06 2023


Pair  time (%) = 0.327852 (0.0204855)
Neigh time (%) = 5.38856 (0.336698)
Comm  time (%) = 14.7201 (0.919771)
Outpt time (%) = 0.000497682 (3.10971e-05)
Other time (%) = 1579.97 (98.723)

Nlocal:    10.425 ave 131 max 0 min
Histogram: 33 2 3 0 0 0 0 0 1 1
Nghost:    3.775 ave 36 max 0 min
Histogram: 35 1 0 0 0 0 0 0 1 3
Neighs:    1.35 ave 34 max 0 min
Histogram: 37 0 2 0 0 0 0 0 0 1

Total # of neighbors = 54
Ave neighs/atom = 0.129496
Neighbor list builds = 15942
Dangerous builds = 418
Setting up run at Tue Jan  3 23:25:06 2023

Memory usage per processor = 958.989 Mbytes
    Step    Atoms         KinEng            CPU 
12036962      417     0.15833573              0 
12191282      412      0.2220642      1597.2875 
Loop time of 1597.29 on 40 procs for 154320 steps with 412 atoms, finish time Tue Jan  3 23:51:44 2023


Pair  time (%) = 0.32467 (0.0203263)
Neigh time (%) = 5.48026 (0.343098)
Comm  time (%) = 13.7337 (0.859816)
Outpt time (%) = 0.000517574 (3.24033e-05)
Other time (%) = 1577.75 (98.7767)

Nlocal:    10.3 ave 129 max 0 min
Histogram: 33 2 2 1 0 0 0 0 1 1
Nghost:    3.85 ave 40 max 0 min
Histogram: 36 0 0 0 0 0 0 1 1 2
Neighs:    1.4 ave 31 max 0 min
Histogram: 36 1 2 0 0 0 0 0 0 1

Total # of neighbors = 56
Ave neighs/atom = 0.135922
Neighbor list builds = 16390
Dangerous builds = 910
Setting up run at Tue Jan  3 23:51:44 2023

Memory usage per processor = 958.989 Mbytes
    Step    Atoms         KinEng            CPU 
12191282      412      0.2220642              0 
12345602      407     0.17289346      1572.3904 
Loop time of 1572.39 on 40 procs for 154320 steps with 407 atoms, finish time Wed Jan  4 00:17:56 2023


Pair  time (%) = 0.316228 (0.0201113)
Neigh time (%) = 4.30306 (0.273663)
Comm  time (%) = 10.1249 (0.64392)
Outpt time (%) = 0.000426739 (2.71395e-05)
Other time (%) = 1557.65 (99.0623)

Nlocal:    10.175 ave 129 max 0 min
Histogram: 33 2 2 1 0 0 0 0 1 1
Nghost:    3.875 ave 43 max 0 min
Histogram: 35 1 0 0 0 0 0 3 0 1
Neighs:    1.575 ave 36 max 0 min
Histogram: 36 2 1 0 0 0 0 0 0 1

Total # of neighbors = 63
Ave neighs/atom = 0.154791
Neighbor list builds = 12710
Dangerous builds = 449
Setting up run at Wed Jan  4 00:17:56 2023

Memory usage per processor = 958.989 Mbytes
    Step    Atoms         KinEng            CPU 
12345602      407     0.17289346              0 
12499922      405     0.18134284      1591.5155 
Loop time of 1591.52 on 40 procs for 154320 steps with 405 atoms, finish time Wed Jan  4 00:44:28 2023


Pair  time (%) = 0.313333 (0.0196877)
Neigh time (%) = 3.77073 (0.236927)
Comm  time (%) = 10.7226 (0.673733)
Outpt time (%) = 0.00046198 (2.90277e-05)
Other time (%) = 1576.71 (99.0696)

Nlocal:    10.125 ave 130 max 0 min
Histogram: 33 2 1 2 0 0 0 0 1 1
Nghost:    4.1 ave 47 max 0 min
Histogram: 36 0 0 0 0 0 1 2 0 1
Neighs:    1.525 ave 34 max 0 min
Histogram: 36 1 2 0 0 0 0 0 0 1

Total # of neighbors = 61
Ave neighs/atom = 0.150617
Neighbor list builds = 11051
Dangerous builds = 30
Setting up run at Wed Jan  4 00:44:28 2023

Memory usage per processor = 958.989 Mbytes
    Step    Atoms         KinEng            CPU 
12499922      405     0.18134284              0 
12654242      403     0.28252163      1656.9178 
Loop time of 1656.92 on 40 procs for 154320 steps with 403 atoms, finish time Wed Jan  4 01:12:05 2023


Pair  time (%) = 0.312707 (0.0188728)
Neigh time (%) = 3.8871 (0.234598)
Comm  time (%) = 10.4094 (0.628236)
Outpt time (%) = 0.000490907 (2.96277e-05)
Other time (%) = 1642.31 (99.1183)

Nlocal:    10.075 ave 125 max 0 min
Histogram: 32 2 4 0 0 0 0 0 1 1
Nghost:    3.875 ave 44 max 0 min
Histogram: 36 0 0 0 0 0 1 1 1 1
Neighs:    1.475 ave 31 max 0 min
Histogram: 35 2 2 0 0 0 0 0 0 1

Total # of neighbors = 59
Ave neighs/atom = 0.146402
Neighbor list builds = 11379
Dangerous builds = 5
Setting up run at Wed Jan  4 01:12:05 2023

Memory usage per processor = 958.989 Mbytes
    Step    Atoms         KinEng            CPU 
12654242      403     0.28252163              0 
12808562      401     0.22824099      1574.4908 
Loop time of 1574.49 on 40 procs for 154320 steps with 401 atoms, finish time Wed Jan  4 01:38:19 2023


Pair  time (%) = 0.310178 (0.0197002)
Neigh time (%) = 3.77844 (0.239978)
Comm  time (%) = 10.0959 (0.641217)
Outpt time (%) = 0.000480547 (3.05208e-05)
Other time (%) = 1560.31 (99.0991)

Nlocal:    10.025 ave 124 max 0 min
Histogram: 32 3 2 1 0 0 0 0 1 1
Nghost:    4.225 ave 46 max 0 min
Histogram: 35 1 0 0 0 0 1 1 1 1
Neighs:    1.225 ave 28 max 0 min
Histogram: 36 1 2 0 0 0 0 0 0 1

Total # of neighbors = 49
Ave neighs/atom = 0.122195
Neighbor list builds = 11062
Dangerous builds = 14
Setting up run at Wed Jan  4 01:38:19 2023

Memory usage per processor = 958.989 Mbytes
    Step    Atoms         KinEng            CPU 
12808562      401     0.22824099              0 
12962882      399     0.22576363      1550.0256 
Loop time of 1550.03 on 40 procs for 154320 steps with 399 atoms, finish time Wed Jan  4 02:04:09 2023


Pair  time (%) = 0.305929 (0.019737)
Neigh time (%) = 3.04788 (0.196634)
Comm  time (%) = 7.74607 (0.499738)
Outpt time (%) = 0.000464673 (2.99784e-05)
Other time (%) = 1538.93 (99.2839)

Nlocal:    9.975 ave 121 max 0 min
Histogram: 32 3 2 0 1 0 0 0 1 1
Nghost:    3.675 ave 39 max 0 min
Histogram: 36 0 0 0 0 0 0 1 2 1
Neighs:    1.375 ave 27 max 0 min
Histogram: 35 2 1 1 0 0 0 0 0 1

Total # of neighbors = 55
Ave neighs/atom = 0.137845
Neighbor list builds = 8900
Dangerous builds = 0
Setting up run at Wed Jan  4 02:04:10 2023

Memory usage per processor = 958.989 Mbytes
    Step    Atoms         KinEng            CPU 
12962882      399     0.22576363              0 
13117202      397      0.2357337      1554.3243 
Loop time of 1554.32 on 40 procs for 154320 steps with 397 atoms, finish time Wed Jan  4 02:30:04 2023


Pair  time (%) = 0.30927 (0.0198974)
Neigh time (%) = 2.84292 (0.182904)
Comm  time (%) = 7.00259 (0.450523)
Outpt time (%) = 0.000979715 (6.30315e-05)
Other time (%) = 1544.17 (99.3466)

Nlocal:    9.925 ave 119 max 0 min
Histogram: 32 3 1 1 1 0 0 0 1 1
Nghost:    3.6 ave 38 max 0 min
Histogram: 35 1 0 0 0 0 0 1 1 2
Neighs:    1.125 ave 24 max 0 min
Histogram: 36 0 3 0 0 0 0 0 0 1

Total # of neighbors = 45
Ave neighs/atom = 0.11335
Neighbor list builds = 8536
Dangerous builds = 456
Setting up run at Wed Jan  4 02:30:04 2023

Memory usage per processor = 958.989 Mbytes
    Step    Atoms         KinEng            CPU 
13117202      397      0.2357337              0 
13271522      396     0.20109404      1550.6387 
Loop time of 1550.64 on 40 procs for 154320 steps with 396 atoms, finish time Wed Jan  4 02:55:55 2023


Pair  time (%) = 0.306953 (0.0197953)
Neigh time (%) = 2.92028 (0.188328)
Comm  time (%) = 6.43999 (0.415312)
Outpt time (%) = 0.000532169 (3.43194e-05)
Other time (%) = 1540.97 (99.3765)

Nlocal:    9.9 ave 120 max 0 min
Histogram: 33 1 3 0 1 0 0 0 1 1
Nghost:    3.825 ave 38 max 0 min
Histogram: 34 2 0 0 0 0 0 0 3 1
Neighs:    1.1 ave 24 max 0 min
Histogram: 36 0 2 1 0 0 0 0 0 1

Total # of neighbors = 44
Ave neighs/atom = 0.111111
Neighbor list builds = 8560
Dangerous builds = 152
Setting up run at Wed Jan  4 02:55:55 2023

Memory usage per processor = 958.989 Mbytes
    Step    Atoms         KinEng            CPU 
13271522      396     0.20109404              0 
13425842      393     0.23356215      1546.6265 
Loop time of 1546.63 on 40 procs for 154320 steps with 393 atoms, finish time Wed Jan  4 03:21:41 2023


Pair  time (%) = 0.305174 (0.0197316)
Neigh time (%) = 2.45778 (0.158912)
Comm  time (%) = 6.69247 (0.432714)
Outpt time (%) = 0.0230669 (0.00149143)
Other time (%) = 1537.15 (99.3872)

Nlocal:    9.825 ave 121 max 0 min
Histogram: 33 1 2 2 0 0 0 0 1 1
Nghost:    3.65 ave 40 max 0 min
Histogram: 36 0 0 0 0 0 0 2 1 1
Neighs:    1.225 ave 21 max 0 min
Histogram: 34 3 1 0 0 1 0 0 0 1

Total # of neighbors = 49
Ave neighs/atom = 0.124682
Neighbor list builds = 7352
Dangerous builds = 344
Setting up run at Wed Jan  4 03:21:41 2023

Memory usage per processor = 958.989 Mbytes
    Step    Atoms         KinEng            CPU 
13425842      393     0.23356215              0 
13580162      392     0.22307373      1530.7919 
Loop time of 1530.79 on 40 procs for 154320 steps with 392 atoms, finish time Wed Jan  4 03:47:12 2023


Pair  time (%) = 0.303683 (0.0198383)
Neigh time (%) = 1.81089 (0.118298)
Comm  time (%) = 4.89805 (0.319968)
Outpt time (%) = 0.000486951 (3.18104e-05)
Other time (%) = 1523.78 (99.5419)

Nlocal:    9.8 ave 119 max 0 min
Histogram: 32 2 2 2 0 0 0 0 1 1
Nghost:    3.75 ave 39 max 0 min
Histogram: 36 0 0 0 0 0 0 1 2 1
Neighs:    1.1 ave 22 max 0 min
Histogram: 37 0 1 0 0 1 0 0 0 1

Total # of neighbors = 44
Ave neighs/atom = 0.112245
Neighbor list builds = 5301
Dangerous builds = 0
Setting up run at Wed Jan  4 03:47:12 2023

Memory usage per processor = 958.989 Mbytes
    Step    Atoms         KinEng            CPU 
13580162      392     0.22307373              0 
13734482      390     0.32277477      1542.2526 
Loop time of 1542.25 on 40 procs for 154320 steps with 390 atoms, finish time Wed Jan  4 04:12:55 2023


Pair  time (%) = 0.307798 (0.0199577)
Neigh time (%) = 2.79302 (0.1811)
Comm  time (%) = 8.49049 (0.550525)
Outpt time (%) = 0.00917008 (0.00059459)
Other time (%) = 1530.65 (99.2478)

Nlocal:    9.75 ave 118 max 0 min
Histogram: 32 2 2 2 0 0 0 0 1 1
Nghost:    3.675 ave 37 max 0 min
Histogram: 35 1 0 0 0 0 0 1 1 2
Neighs:    0.9 ave 21 max 0 min
Histogram: 37 1 0 0 1 0 0 0 0 1

Total # of neighbors = 36
Ave neighs/atom = 0.0923077
Neighbor list builds = 8302
Dangerous builds = 328
Setting up run at Wed Jan  4 04:12:55 2023

Memory usage per processor = 958.989 Mbytes
    Step    Atoms         KinEng            CPU 
13734482      390     0.32277477              0 
13888802      387     0.32790536       1529.335 
Loop time of 1529.34 on 40 procs for 154320 steps with 387 atoms, finish time Wed Jan  4 04:38:24 2023


Pair  time (%) = 0.300152 (0.0196263)
Neigh time (%) = 2.03291 (0.132928)
Comm  time (%) = 5.18191 (0.338834)
Outpt time (%) = 0.000571901 (3.73954e-05)
Other time (%) = 1521.82 (99.5086)

Nlocal:    9.675 ave 117 max 0 min
Histogram: 32 4 0 1 1 0 0 0 1 1
Nghost:    3.425 ave 35 max 0 min
Histogram: 36 0 0 0 0 0 0 1 1 2
Neighs:    0.8 ave 18 max 0 min
Histogram: 37 1 0 0 0 1 0 0 0 1

Total # of neighbors = 32
Ave neighs/atom = 0.0826873
Neighbor list builds = 5927
Dangerous builds = 21
Setting up run at Wed Jan  4 04:38:24 2023

Memory usage per processor = 958.989 Mbytes
    Step    Atoms         KinEng            CPU 
13888802      387     0.32790536              0 
14043122      386     0.30160246      1539.7385 
Loop time of 1539.74 on 40 procs for 154320 steps with 386 atoms, finish time Wed Jan  4 05:04:04 2023


Pair  time (%) = 0.302515 (0.0196472)
Neigh time (%) = 2.16978 (0.140918)
Comm  time (%) = 5.53007 (0.359157)
Outpt time (%) = 0.000537032 (3.48781e-05)
Other time (%) = 1531.74 (99.4802)

Nlocal:    9.65 ave 117 max 0 min
Histogram: 32 3 2 1 0 0 0 1 0 1
Nghost:    3.175 ave 37 max 0 min
Histogram: 36 0 0 0 0 0 1 1 1 1
Neighs:    0.75 ave 17 max 0 min
Histogram: 36 2 0 0 1 0 0 0 0 1

Total # of neighbors = 30
Ave neighs/atom = 0.0777202
[...]
Neighs:    0.05 ave 1 max 0 min
Histogram: 38 0 0 0 0 0 0 0 0 2

Total # of neighbors = 2
Ave neighs/atom = 0.0104167
Neighbor list builds = 9005
Dangerous builds = 0
Setting up run at Thu Jan  5 18:44:31 2023

Memory usage per processor = 958.989 Mbytes
    Step    Atoms         KinEng            CPU 
27314739      192     0.50748472              0 
27469059      191     0.69321792      1565.4808 
Loop time of 1565.48 on 40 procs for 154320 steps with 191 atoms, finish time Thu Jan  5 19:10:36 2023


Pair  time (%) = 0.289982 (0.0185235)
Neigh time (%) = 2.28309 (0.14584)
Comm  time (%) = 7.05087 (0.450396)
Outpt time (%) = 0.0026651 (0.000170242)
Other time (%) = 1555.85 (99.3851)

Nlocal:    4.775 ave 49 max 0 min
Histogram: 31 2 2 2 0 1 0 1 0 1
Nghost:    1.075 ave 17 max 0 min
Histogram: 35 1 2 0 0 0 1 0 0 1
Neighs:    0.125 ave 3 max 0 min
Histogram: 37 0 0 2 0 0 0 0 0 1

Total # of neighbors = 5
Ave neighs/atom = 0.026178
Neighbor list builds = 6800
Dangerous builds = 310
Setting up run at Thu Jan  5 19:10:36 2023

Memory usage per processor = 958.989 Mbytes
    Step    Atoms         KinEng            CPU 
27469059      191     0.69321792              0 
27623379      190      0.5850882      1560.1443 
Loop time of 1560.14 on 40 procs for 154320 steps with 190 atoms, finish time Thu Jan  5 19:36:36 2023


Pair  time (%) = 0.288967 (0.0185218)
Neigh time (%) = 2.04419 (0.131026)
Comm  time (%) = 5.73458 (0.367567)
Outpt time (%) = 0.000541186 (3.46882e-05)
Other time (%) = 1552.08 (99.4829)

Nlocal:    4.75 ave 49 max 0 min
Histogram: 31 2 2 2 0 1 0 1 0 1
Nghost:    1.225 ave 18 max 0 min
Histogram: 34 2 1 1 0 0 1 0 0 1
Neighs:    0.125 ave 3 max 0 min
Histogram: 37 0 0 2 0 0 0 0 0 1

Total # of neighbors = 5
Ave neighs/atom = 0.0263158
Neighbor list builds = 5935
Dangerous builds = 0
Setting up run at Thu Jan  5 19:36:36 2023

Memory usage per processor = 958.989 Mbytes
    Step    Atoms         KinEng            CPU 
27623379      190      0.5850882              0 
27777699      189     0.59281768       1536.213 
Loop time of 1536.21 on 40 procs for 154320 steps with 189 atoms, finish time Thu Jan  5 20:02:13 2023


Pair  time (%) = 0.288307 (0.0187674)
Neigh time (%) = 2.08668 (0.135832)
Comm  time (%) = 5.6381 (0.367013)
Outpt time (%) = 0.000179812 (1.17049e-05)
Other time (%) = 1528.2 (99.4784)

Nlocal:    4.725 ave 48 max 0 min
Histogram: 31 2 2 2 1 0 0 1 0 1
Nghost:    1.2 ave 16 max 0 min
Histogram: 33 3 0 2 0 0 0 0 1 1
Neighs:    0.025 ave 1 max 0 min
Histogram: 39 0 0 0 0 0 0 0 0 1

Total # of neighbors = 1
Ave neighs/atom = 0.00529101
Neighbor list builds = 6047
Dangerous builds = 0
Setting up run at Thu Jan  5 20:02:13 2023

Memory usage per processor = 958.989 Mbytes
    Step    Atoms         KinEng            CPU 
27777699      189     0.59281768              0 
27932019      187      0.4993008      1535.3207 
Loop time of 1535.32 on 40 procs for 154320 steps with 187 atoms, finish time Thu Jan  5 20:27:48 2023


Pair  time (%) = 0.290998 (0.0189536)
Neigh time (%) = 2.30167 (0.149915)
Comm  time (%) = 4.61068 (0.300308)
Outpt time (%) = 0.00023554 (1.53414e-05)
Other time (%) = 1528.12 (99.5308)

Nlocal:    4.675 ave 48 max 0 min
Histogram: 31 1 4 1 0 1 0 0 1 1
Nghost:    1.1 ave 16 max 0 min
Histogram: 34 3 1 0 0 0 0 1 0 1
Neighs:    0.075 ave 1 max 0 min
Histogram: 37 0 0 0 0 0 0 0 0 3

Total # of neighbors = 3
Ave neighs/atom = 0.0160428
Neighbor list builds = 6788
Dangerous builds = 250
Setting up run at Thu Jan  5 20:27:48 2023

Memory usage per processor = 958.989 Mbytes
    Step    Atoms         KinEng            CPU 
27932019      187      0.4993008              0 
28086339      186     0.50451292       1564.613 
Loop time of 1564.61 on 40 procs for 154320 steps with 186 atoms, finish time Thu Jan  5 20:53:53 2023


Pair  time (%) = 0.293225 (0.0187411)
Neigh time (%) = 3.04502 (0.194618)
Comm  time (%) = 6.41042 (0.409713)
Outpt time (%) = 0.000472188 (3.01792e-05)
Other time (%) = 1554.86 (99.3769)

Nlocal:    4.65 ave 47 max 0 min
Histogram: 31 2 2 2 1 0 0 0 1 1
Nghost:    1.025 ave 13 max 0 min
Histogram: 34 2 1 1 0 0 0 0 0 2
Neighs:    0.05 ave 1 max 0 min
Histogram: 38 0 0 0 0 0 0 0 0 2

Total # of neighbors = 2
Ave neighs/atom = 0.0107527
Neighbor list builds = 9066
Dangerous builds = 440
Setting up run at Thu Jan  5 20:53:53 2023

Memory usage per processor = 958.989 Mbytes
    Step    Atoms         KinEng            CPU 
28086339      186     0.50451292              0 
28240659      186     0.55785088      1546.0376 
Loop time of 1546.04 on 40 procs for 154320 steps with 186 atoms, finish time Thu Jan  5 21:19:39 2023


Pair  time (%) = 0.28982 (0.018746)
Neigh time (%) = 2.04011 (0.131958)
Comm  time (%) = 5.28253 (0.341682)
Outpt time (%) = 0.000191019 (1.23554e-05)
Other time (%) = 1538.43 (99.5076)

Nlocal:    4.65 ave 46 max 0 min
Histogram: 32 2 1 0 2 1 0 0 1 1
Nghost:    1.125 ave 12 max 0 min
Histogram: 34 2 0 0 1 0 1 0 0 2
Neighs:    0.125 ave 2 max 0 min
Histogram: 36 0 0 0 0 3 0 0 0 1

Total # of neighbors = 5
Ave neighs/atom = 0.0268817
Neighbor list builds = 5906
Dangerous builds = 0
Setting up run at Thu Jan  5 21:19:39 2023

Memory usage per processor = 958.989 Mbytes
    Step    Atoms         KinEng            CPU 
28240659      186     0.55785088              0 
28394979      184     0.59446568      1539.8263 
Loop time of 1539.83 on 40 procs for 154320 steps with 184 atoms, finish time Thu Jan  5 21:45:19 2023


Pair  time (%) = 0.291506 (0.0189311)
Neigh time (%) = 2.25821 (0.146653)
Comm  time (%) = 5.81741 (0.377796)
Outpt time (%) = 0.000444193 (2.8847e-05)
Other time (%) = 1531.46 (99.4566)

Nlocal:    4.6 ave 46 max 0 min
Histogram: 32 1 1 4 0 0 0 0 1 1
Nghost:    1.025 ave 12 max 0 min
Histogram: 32 4 1 0 1 0 0 0 0 2
Neighs:    0.075 ave 2 max 0 min
Histogram: 38 0 0 0 0 1 0 0 0 1

Total # of neighbors = 3
Ave neighs/atom = 0.0163043
Neighbor list builds = 6622
Dangerous builds = 1
Setting up run at Thu Jan  5 21:45:19 2023

Memory usage per processor = 958.989 Mbytes
    Step    Atoms         KinEng            CPU 
28394979      184     0.59446568              0 
28549299      182     0.61102735      1542.5044 
Loop time of 1542.5 on 40 procs for 154320 steps with 182 atoms, finish time Thu Jan  5 22:11:01 2023


Pair  time (%) = 0.293513 (0.0190284)
Neigh time (%) = 2.7688 (0.1795)
Comm  time (%) = 7.44387 (0.482583)
Outpt time (%) = 0.000254853 (1.6522e-05)
Other time (%) = 1532 (99.3189)

Nlocal:    4.55 ave 49 max 0 min
Histogram: 31 1 4 1 1 0 0 1 0 1
Nghost:    1.1 ave 13 max 0 min
Histogram: 34 2 0 1 0 1 0 0 0 2
Neighs:    0.125 ave 2 max 0 min
Histogram: 36 0 0 0 0 3 0 0 0 1

Total # of neighbors = 5
Ave neighs/atom = 0.0274725
Neighbor list builds = 8039
Dangerous builds = 0
Setting up run at Thu Jan  5 22:11:01 2023

Memory usage per processor = 958.989 Mbytes
    Step    Atoms         KinEng            CPU 
28549299      182     0.61102735              0 
28703619      180     0.56914497      1544.1468 
Loop time of 1544.15 on 40 procs for 154320 steps with 180 atoms, finish time Thu Jan  5 22:36:46 2023


Pair  time (%) = 0.289686 (0.0187602)
Neigh time (%) = 2.8164 (0.182392)
Comm  time (%) = 7.45277 (0.482646)
Outpt time (%) = 0.000191793 (1.24206e-05)
Other time (%) = 1533.59 (99.3162)

Nlocal:    4.5 ave 45 max 0 min
Histogram: 31 2 2 0 3 0 0 0 1 1
Nghost:    0.9 ave 13 max 0 min
Histogram: 35 2 0 0 0 0 2 0 0 1
Neighs:    0.05 ave 1 max 0 min
Histogram: 38 0 0 0 0 0 0 0 0 2

Total # of neighbors = 2
Ave neighs/atom = 0.0111111
Neighbor list builds = 8147
Dangerous builds = 0
Setting up run at Thu Jan  5 22:36:46 2023

Memory usage per processor = 958.989 Mbytes
    Step    Atoms         KinEng            CPU 
28703619      180     0.56914497              0 
28857939      179     0.48441155      1551.6504 
Loop time of 1551.65 on 40 procs for 154320 steps with 179 atoms, finish time Thu Jan  5 23:02:37 2023


Pair  time (%) = 0.294897 (0.0190054)
Neigh time (%) = 2.95892 (0.190695)
Comm  time (%) = 6.34809 (0.409118)
Outpt time (%) = 0.0005038 (3.24686e-05)
Other time (%) = 1542.05 (99.3811)

Nlocal:    4.475 ave 45 max 0 min
Histogram: 31 1 3 2 1 0 0 0 1 1
Nghost:    0.95 ave 12 max 0 min
Histogram: 36 0 0 1 0 1 0 1 0 1
Neighs:    0.175 ave 1 max 0 min
Histogram: 33 0 0 0 0 0 0 0 0 7

Total # of neighbors = 7
Ave neighs/atom = 0.0391061
Neighbor list builds = 8555
Dangerous builds = 24
Setting up run at Thu Jan  5 23:02:37 2023

Memory usage per processor = 958.989 Mbytes
    Step    Atoms         KinEng            CPU 
28857939      179     0.48441155              0 
29012259      179     0.48124582      1554.7545 
Loop time of 1554.76 on 40 procs for 154320 steps with 179 atoms, finish time Thu Jan  5 23:28:32 2023


Pair  time (%) = 0.293226 (0.01886)
Neigh time (%) = 3.14127 (0.202043)
Comm  time (%) = 6.90714 (0.444259)
Outpt time (%) = 0.000181306 (1.16614e-05)
Other time (%) = 1544.41 (99.3348)

Nlocal:    4.475 ave 46 max 0 min
Histogram: 31 2 1 4 0 0 0 0 1 1
Nghost:    1.125 ave 13 max 0 min
Histogram: 34 2 0 1 0 0 1 1 0 1
Neighs:    0.1 ave 1 max 0 min
Histogram: 36 0 0 0 0 0 0 0 0 4

Total # of neighbors = 4
Ave neighs/atom = 0.0223464
Neighbor list builds = 9080
Dangerous builds = 0
Setting up run at Thu Jan  5 23:28:32 2023

Memory usage per processor = 958.989 Mbytes
    Step    Atoms         KinEng            CPU 
29012259      179     0.48124582              0 
29166579      177     0.51315965      1536.6786 
Loop time of 1536.68 on 40 procs for 154320 steps with 177 atoms, finish time Thu Jan  5 23:54:09 2023


Pair  time (%) = 0.290341 (0.0188941)
Neigh time (%) = 2.3418 (0.152394)
Comm  time (%) = 6.27764 (0.40852)
Outpt time (%) = 0.000523568 (3.40714e-05)
Other time (%) = 1527.77 (99.4202)

Nlocal:    4.425 ave 45 max 0 min
Histogram: 31 1 4 1 0 1 0 0 1 1
Nghost:    1.075 ave 13 max 0 min
Histogram: 32 3 1 1 1 0 1 0 0 1
Neighs:    0.075 ave 1 max 0 min
Histogram: 37 0 0 0 0 0 0 0 0 3

Total # of neighbors = 3
Ave neighs/atom = 0.0169492
Neighbor list builds = 6799
Dangerous builds = 0
Setting up run at Thu Jan  5 23:54:09 2023

Memory usage per processor = 958.989 Mbytes
    Step    Atoms         KinEng            CPU 
29166579      177     0.51315965              0 
29320899      177     0.77695173      1541.7467 
Loop time of 1541.75 on 40 procs for 154320 steps with 177 atoms, finish time Fri Jan  6 00:19:51 2023


Pair  time (%) = 0.288262 (0.0186971)
Neigh time (%) = 2.29352 (0.148761)
Comm  time (%) = 6.4306 (0.417098)
Outpt time (%) = 0.000222593 (1.44377e-05)
Other time (%) = 1532.73 (99.4154)

Nlocal:    4.425 ave 46 max 0 min
Histogram: 31 2 2 3 0 0 0 0 1 1
Nghost:    0.975 ave 11 max 0 min
Histogram: 33 2 1 1 1 0 0 0 1 1
Neighs:    0.05 ave 1 max 0 min
Histogram: 38 0 0 0 0 0 0 0 0 2

Total # of neighbors = 2
Ave neighs/atom = 0.0112994
Neighbor list builds = 6662
Dangerous builds = 0
Setting up run at Fri Jan  6 00:19:51 2023

Memory usage per processor = 958.989 Mbytes
    Step    Atoms         KinEng            CPU 
29320899      177     0.77695173              0 
29475219      177     0.65673347      1550.4829 
Loop time of 1550.48 on 40 procs for 154320 steps with 177 atoms, finish time Fri Jan  6 00:45:41 2023


Pair  time (%) = 0.294578 (0.0189991)
Neigh time (%) = 3.51863 (0.226938)
Comm  time (%) = 9.00611 (0.580858)
Outpt time (%) = 0.0100749 (0.000649793)
Other time (%) = 1537.65 (99.1726)

Nlocal:    4.425 ave 44 max 0 min
Histogram: 31 1 4 1 1 0 0 0 1 1
Nghost:    0.875 ave 11 max 0 min
Histogram: 34 1 2 0 1 0 0 1 0 1
Neighs:    0.075 ave 1 max 0 min
Histogram: 37 0 0 0 0 0 0 0 0 3

Total # of neighbors = 3
Ave neighs/atom = 0.0169492
Neighbor list builds = 10332
Dangerous builds = 0
Setting up run at Fri Jan  6 00:45:41 2023

Memory usage per processor = 958.989 Mbytes
    Step    Atoms         KinEng            CPU 
29475219      177     0.65673347              0 
29629539      176     0.55838203      1543.7706 
Loop time of 1543.77 on 40 procs for 154320 steps with 176 atoms, finish time Fri Jan  6 01:11:25 2023


Pair  time (%) = 0.286765 (0.0185756)
Neigh time (%) = 2.43138 (0.157496)
Comm  time (%) = 6.82202 (0.441906)
Outpt time (%) = 0.000553612 (3.5861e-05)
Other time (%) = 1534.23 (99.382)

Nlocal:    4.4 ave 44 max 0 min
Histogram: 32 1 2 2 0 1 0 0 1 1
Nghost:    1.1 ave 14 max 0 min
Histogram: 34 1 2 0 1 0 1 0 0 1
Neighs:    0.05 ave 1 max 0 min
Histogram: 38 0 0 0 0 0 0 0 0 2

Total # of neighbors = 2
Ave neighs/atom = 0.0113636
Neighbor list builds = 7040
Dangerous builds = 0
Setting up run at Fri Jan  6 01:11:25 2023

Memory usage per processor = 958.989 Mbytes
    Step    Atoms         KinEng            CPU 
29629539      176     0.55838203              0 
29783859      174     0.61075385      1530.3902 
Loop time of 1530.4 on 40 procs for 154320 steps with 174 atoms, finish time Fri Jan  6 01:36:56 2023


Pair  time (%) = 0.285577 (0.0186602)
Neigh time (%) = 1.99099 (0.130096)
Comm  time (%) = 5.26262 (0.343871)
Outpt time (%) = 0.000217256 (1.4196e-05)
Other time (%) = 1522.87 (99.5074)

Nlocal:    4.35 ave 43 max 0 min
Histogram: 31 1 2 3 1 0 0 0 1 1
Nghost:    1 ave 13 max 0 min
Histogram: 34 1 2 0 2 0 0 0 0 1
Neighs:    0.075 ave 1 max 0 min
Histogram: 37 0 0 0 0 0 0 0 0 3

Total # of neighbors = 3
Ave neighs/atom = 0.0172414
Neighbor list builds = 5763
Dangerous builds = 27
Setting up run at Fri Jan  6 01:36:56 2023

Memory usage per processor = 958.989 Mbytes
    Step    Atoms         KinEng            CPU 
29783859      174     0.61075385              0 
29938179      172     0.67832282      1539.6011 
Loop time of 1539.6 on 40 procs for 154320 steps with 172 atoms, finish time Fri Jan  6 02:02:35 2023


Pair  time (%) = 0.28556 (0.0185476)
Neigh time (%) = 2.22458 (0.14449)
Comm  time (%) = 6.67107 (0.433298)
Outpt time (%) = 0.000532592 (3.45928e-05)
Other time (%) = 1530.42 (99.4036)

Nlocal:    4.3 ave 43 max 0 min
Histogram: 31 1 3 2 1 0 0 0 1 1
Nghost:    1.1 ave 13 max 0 min
Histogram: 31 4 1 1 1 1 0 0 0 1
Neighs:    0.075 ave 1 max 0 min
Histogram: 37 0 0 0 0 0 0 0 0 3

Total # of neighbors = 3
Ave neighs/atom = 0.0174419
Neighbor list builds = 6539
Dangerous builds = 294
Setting up run at Fri Jan  6 02:02:35 2023

Memory usage per processor = 958.989 Mbytes
    Step    Atoms         KinEng            CPU 
29938179      172     0.67832282              0 
30092499      170     0.68045352      1540.0234 
Loop time of 1540.02 on 40 procs for 154320 steps with 170 atoms, finish time Fri Jan  6 02:28:15 2023


Pair  time (%) = 0.285443 (0.0185349)
Neigh time (%) = 2.24219 (0.145595)
Comm  time (%) = 6.17702 (0.401099)
Outpt time (%) = 0.000188493 (1.22396e-05)
Other time (%) = 1531.32 (99.4348)

Nlocal:    4.25 ave 44 max 0 min
Histogram: 31 2 3 0 2 0 0 0 1 1
Nghost:    1.15 ave 12 max 0 min
Histogram: 33 1 2 0 1 1 0 1 0 1
Neighs:    0.025 ave 1 max 0 min
Histogram: 39 0 0 0 0 0 0 0 0 1

Total # of neighbors = 1
Ave neighs/atom = 0.00588235
Neighbor list builds = 6495
Dangerous builds = 0
Setting up run at Fri Jan  6 02:28:15 2023

Memory usage per processor = 958.989 Mbytes
    Step    Atoms         KinEng            CPU 
30092499      170     0.68045352              0 
30246819      170     0.60013123      1521.6545 
Loop time of 1521.65 on 40 procs for 154320 steps with 170 atoms, finish time Fri Jan  6 02:53:37 2023


Pair  time (%) = 0.284972 (0.0187278)
Neigh time (%) = 1.87885 (0.123474)
Comm  time (%) = 4.02733 (0.264668)
Outpt time (%) = 0.000201991 (1.32745e-05)
Other time (%) = 1515.46 (99.5931)

Nlocal:    4.25 ave 42 max 0 min
Histogram: 31 2 2 2 1 0 0 0 1 1
Nghost:    1.075 ave 13 max 0 min
Histogram: 34 1 1 0 1 1 1 0 0 1
Neighs:    0.025 ave 1 max 0 min
Histogram: 39 0 0 0 0 0 0 0 0 1

Total # of neighbors = 1
Ave neighs/atom = 0.00588235
Neighbor list builds = 5438
Dangerous builds = 0
Setting up run at Fri Jan  6 02:53:37 2023

Memory usage per processor = 958.989 Mbytes
    Step    Atoms         KinEng            CPU 
30246819      170     0.60013123              0 
30401139      167     0.64808179      1539.0286 
Loop time of 1539.03 on 40 procs for 154320 steps with 167 atoms, finish time Fri Jan  6 03:19:16 2023


Pair  time (%) = 0.286496 (0.0186154)
Neigh time (%) = 2.07724 (0.134971)
Comm  time (%) = 4.9341 (0.320598)
Outpt time (%) = 0.000549895 (3.573e-05)
Other time (%) = 1531.73 (99.5258)

Nlocal:    4.175 ave 43 max 0 min
Histogram: 31 1 3 3 0 0 0 0 1 1
Nghost:    0.95 ave 13 max 0 min
Histogram: 34 1 2 1 0 0 0 1 0 1
Neighs:    0.025 ave 1 max 0 min
Histogram: 39 0 0 0 0 0 0 0 0 1

Total # of neighbors = 1
Ave neighs/atom = 0.00598802
Neighbor list builds = 6196
Dangerous builds = 309
Setting up run at Fri Jan  6 03:19:16 2023

Memory usage per processor = 958.989 Mbytes
    Step    Atoms         KinEng            CPU 
30401139      167     0.64808179              0 
30555459      165     0.50848235      1540.5906 
Loop time of 1540.59 on 40 procs for 154320 steps with 165 atoms, finish time Fri Jan  6 03:44:57 2023


Pair  time (%) = 0.288702 (0.0187397)
Neigh time (%) = 2.50767 (0.162773)
Comm  time (%) = 5.26456 (0.341723)
Outpt time (%) = 0.000210548 (1.36667e-05)
Other time (%) = 1532.53 (99.4768)

Nlocal:    4.125 ave 42 max 0 min
Histogram: 31 3 1 2 0 1 0 0 1 1
Nghost:    1.175 ave 16 max 0 min
Histogram: 32 4 1 1 0 1 0 0 0 1
Neighs:    0.05 ave 2 max 0 min
Histogram: 39 0 0 0 0 0 0 0 0 1

Total # of neighbors = 2
Ave neighs/atom = 0.0121212
Neighbor list builds = 7350
Dangerous builds = 272
Setting up run at Fri Jan  6 03:44:57 2023

Memory usage per processor = 958.989 Mbytes
    Step    Atoms         KinEng            CPU 
30555459      165     0.50848235              0 
30709779      165     0.46742733      1536.8252 
Loop time of 1536.83 on 40 procs for 154320 steps with 165 atoms, finish time Fri Jan  6 04:10:34 2023


Pair  time (%) = 0.289417 (0.0188321)
Neigh time (%) = 2.34859 (0.152821)
Comm  time (%) = 4.7639 (0.309983)
Outpt time (%) = 0.00310146 (0.00020181)
Other time (%) = 1529.42 (99.5182)

Nlocal:    4.125 ave 44 max 0 min
Histogram: 31 2 3 1 1 0 0 0 1 1
Nghost:    1.275 ave 15 max 0 min
Histogram: 33 1 3 0 1 0 1 0 0 1
Neighs:    0.2 ave 4 max 0 min
Histogram: 35 0 4 0 0 0 0 0 0 1

Total # of neighbors = 8
Ave neighs/atom = 0.0484848
Neighbor list builds = 6796
Dangerous builds = 0
Setting up run at Fri Jan  6 04:10:34 2023

Memory usage per processor = 958.989 Mbytes
    Step    Atoms         KinEng            CPU 
30709779      165     0.46742733              0 
30864099      163     0.50291384      1541.5726 
Loop time of 1541.57 on 40 procs for 154320 steps with 163 atoms, finish time Fri Jan  6 04:36:16 2023


Pair  time (%) = 0.288314 (0.0187026)
Neigh time (%) = 2.1778 (0.141272)
Comm  time (%) = 4.87268 (0.316085)
Outpt time (%) = 0.000233741 (1.51625e-05)
Other time (%) = 1534.23 (99.5239)

Nlocal:    4.075 ave 41 max 0 min
Histogram: 31 2 2 2 1 0 0 0 1 1
Nghost:    1.05 ave 13 max 0 min
Histogram: 33 2 2 0 1 0 0 1 0 1
Neighs:    0.15 ave 4 max 0 min
Histogram: 37 0 2 0 0 0 0 0 0 1

Total # of neighbors = 6
Ave neighs/atom = 0.0368098
Neighbor list builds = 6297
Dangerous builds = 0
Setting up run at Fri Jan  6 04:36:16 2023

Memory usage per processor = 958.989 Mbytes
    Step    Atoms         KinEng            CPU 
30864099      163     0.50291384              0 
30864196      163     0.50290976     0.93340324 
Loop time of 0.933416 on 40 procs for 97 steps with 163 atoms, finish time Fri Jan  6 04:36:17 2023


Pair  time (%) = 0.000175351 (0.018786)
Neigh time (%) = 0.00103436 (0.110814)
Comm  time (%) = 0.00177483 (0.190143)
Outpt time (%) = 0.000178435 (0.0191164)
Other time (%) = 0.930253 (99.6611)

Nlocal:    4.075 ave 41 max 0 min
Histogram: 31 2 2 2 1 0 0 0 1 1
Nghost:    1.05 ave 13 max 0 min
Histogram: 33 2 2 0 1 0 0 1 0 1
Neighs:    0.15 ave 4 max 0 min
Histogram: 37 0 2 0 0 0 0 0 0 1

Total # of neighbors = 6
Ave neighs/atom = 0.0368098
Neighbor list builds = 3
Dangerous builds = 0
