ITEM: TIMESTEP
5864181
ITEM: NUMBER OF ATOMS
3139
ITEM: BOX BOUNDS ff ff ff
-0.15 0.15
-0.15 0.15
-0.15 0.15
ITEM: ATOMS id type x y z radius vx vy vz density 
939 1 -0.010379 -0.0575174 -0.0680976 0.000116 -0.060624 -1.56677 0.0108624 2650 
1885 1 -0.00550238 -0.019545 -0.0683557 0.000423 5.5041 -3.81957 -0.416976 2650 
1121 1 -0.00475535 -0.0129452 -0.0684119 0.000423 5.26254 0.277344 -0.523575 2650 
4251 1 -0.00286578 -0.00658157 -0.0680137 0.000116 7.82721 1.56741 -6.61148 2650 
595 1 -0.0116569 -0.0301704 -0.0675786 0.000423 -6.80881 -7.69972 1.1305 2650 
3547 1 -0.0119522 -0.0199748 -0.0675275 0.000423 26.3974 10.2215 -4.67257 2650 
2193 1 -0.0142949 -0.0122695 -0.0672196 4.2e-05 -0.289179 -0.42128 -3.84179 2650 
800 1 -0.0146086 -0.0259353 -0.0670013 0.000423 -0.140188 -0.915464 0.178039 2650 
3558 1 -0.0135322 -0.011296 -0.0670308 0.000423 0.521488 -0.488146 3.64899 2650 
3832 1 -0.0215228 -0.0153033 -0.0655132 4.2e-05 3.30251 -0.633189 -1.08418 2650 
3838 1 -0.00980123 -0.0116199 -0.0651181 0.000656 16.482 -5.58684 -7.45112 2650 
159 1 -0.0185373 -0.00578823 -0.0653585 0.000423 -2.91572 -0.754988 -0.495185 2650 
1694 1 -0.0228767 -0.0296367 -0.0646488 0.000423 13.7049 -3.64097 -4.84961 2650 
230 1 -0.017561 -0.012868 -0.0642183 0.000656 8.62187 7.3933 -18.3162 2650 
3380 1 -0.00455304 -0.0067332 -0.0644687 0.000116 -0.0552534 -0.199377 -0.420635 2650 
3256 1 -0.010639 -0.00469488 -0.06412 0.000116 0.152106 -0.0963905 1.37941 2650 
823 1 -0.00829763 -0.00989972 -0.0639032 0.000423 0.0384905 -0.328643 0.777153 2650 
4373 1 -0.0279792 -0.00663519 -0.0630267 4.2e-05 -0.148663 -0.162899 0.065906 2650 
3826 1 -0.0299643 -0.0134788 -0.0620254 0.000116 -0.137529 -0.334904 0.066693 2650 
917 1 -0.0292439 -0.00839968 -0.0620396 0.000423 -63.3231 -11.5226 29.8404 2650 
3402 1 -0.0291232 -0.00436581 -0.0618377 0.000656 4.79244 2.29869 -1.75004 2650 
1944 1 -0.0315806 -0.0147168 -0.0612182 0.000116 -0.0786714 -0.381238 0.0404691 2650 
1631 1 -0.033427 -0.0207285 -0.0601513 0.000116 -15.4222 -0.178827 9.39729 2650 
3389 1 -0.0261749 -0.0139562 -0.0606038 0.000116 -0.843505 -0.551571 -1.7594 2650 
537 1 -0.0298036 -0.0572325 -0.0593015 0.000116 -0.345322 3.13619 -1.30212 2650 
1562 1 -0.0336035 -0.00491593 -0.0597776 0.000423 3.03143 2.06695 -1.36605 2650 
4027 1 -0.0356303 -0.0155012 -0.0589533 0.000116 -2.99649 -0.326104 1.81104 2650 
1288 1 -0.0368325 -0.0134554 -0.0582097 0.000116 -0.179011 -0.329735 0.113397 2650 
2210 1 -0.0356752 -0.0128033 -0.0582919 0.000656 -5.55107 -0.41303 3.30215 2650 
20 1 -0.0361492 -0.00862029 -0.0582752 0.000423 0.115926 -0.228373 -0.0420438 2650 
1363 1 -0.00436805 -0.00540743 -0.0578491 0.000423 -0.678834 -0.184419 -8.93146 2650 
379 1 -0.0364051 -0.0495044 -0.0573324 0.000423 -4.01879 2.3114 4.95976 2650 
3576 1 -0.0177889 -0.00845368 -0.0568778 0.000116 -2.74436 -0.442396 -8.66253 2650 
2293 1 -0.0384336 -0.0191062 -0.0557252 0.000116 24.0841 -0.343408 -5.98525 2650 
2374 1 -0.0282192 -0.0141697 -0.0553584 0.000116 -4.45245 -0.788811 -8.46512 2650 
3362 1 -0.0194735 -0.0417767 -0.0552333 0.000116 14.8228 -1.38729 1.33425 2650 
830 1 -0.041317 -0.0142927 -0.0551172 0.000116 -0.127165 -0.334222 0.0953253 2650 
3442 1 -0.0394949 -0.0104932 -0.0549161 0.000423 1.44776 -0.32834 2.66384 2650 
3311 1 -0.0230689 -0.05933 -0.0533575 0.000423 -176.917 2.86931 -77.2513 2650 
80 1 -0.0419662 -0.0208769 -0.0533768 0.000116 -4.82043 6.39455 4.75581 2650 
2827 1 -0.0450417 -0.0347358 -0.0521139 0.000116 -0.216713 -1.11037 0.174692 2650 
4183 1 -0.0398374 -0.0120239 -0.0516127 0.000423 0.391137 -0.515108 0.832658 2650 
2025 1 -0.0409076 -0.00818141 -0.051062 0.000423 -6.31182 -0.44669 -7.78968 2650 
1169 1 -0.0420788 -0.00766998 -0.0507198 0.000116 -1.12864 -0.217662 -1.01835 2650 
3947 1 -0.0263855 -0.0425005 -0.0501167 0.000656 70.8345 0.0474945 -80.7877 2650 
362 1 -0.0406042 -0.00594015 -0.0492537 0.000423 -6.26122 -0.194703 -7.53546 2650 
3543 1 -0.0487979 -0.0571679 -0.0481845 0.000423 -4.01123 -1.94625 4.06018 2650 
2022 1 -0.0298858 -0.0517297 -0.0482345 0.000423 5.97993 -3.71289 1.16596 2650 
2832 1 -0.0492373 -0.0108633 -0.0475465 0.000116 -0.67201 -5.95214 0.227952 2650 
229 1 -0.0486819 -0.00737855 -0.0479718 0.000656 0.320148 -2.58924 -0.32463 2650 
4118 1 -0.0507617 -0.029573 -0.0465653 0.000116 -11.1935 -0.789725 12.2005 2650 
3516 1 -0.0512572 -0.0485546 -0.0452137 0.000656 7.19877 -0.634343 -8.15543 2650 
859 1 -0.0481573 -0.0185064 -0.0451358 0.000116 -3.71516 -0.209271 -6.0609 2650 
325 1 -0.0496984 -0.00903664 -0.0451952 4.2e-05 -1.93089 -0.288161 -1.31435 2650 
3745 1 -0.0524887 -0.0510314 -0.0441437 0.000423 -24.2361 -0.591277 28.8076 2650 
2707 1 -0.0524905 -0.0460054 -0.044608 0.000116 -20.0862 3.99638 23.6325 2650 
3530 1 -0.0520234 -0.0273242 -0.0446844 0.000423 -0.370324 -1.12256 0.430948 2650 
133 1 -0.04397 -0.0167546 -0.0448855 0.000423 -6.71427 -1.00994 -6.89006 2650 
950 1 -0.00911366 -0.00676444 -0.044789 0.000116 -1.29288 -0.35659 -6.55649 2650 
4344 1 -0.0365586 -0.00856611 -0.0429441 0.000116 -5.73821 -0.307031 -6.72488 2650 
2118 1 -0.00728034 -0.0167845 -0.0423011 0.000423 -23.8994 -9.83886 -8.7792 2650 
92 1 -0.0178072 -0.0148179 -0.0411559 0.000116 -2.60707 -0.897056 -6.29087 2650 
3207 1 -0.00875463 -0.007545 -0.041701 0.000423 -1.24214 -0.43189 -6.09893 2650 
2579 1 -0.0551192 -0.022054 -0.0408064 0.000423 -1.15227 -4.21775 1.55571 2650 
176 1 -0.0556832 -0.0148995 -0.0405526 0.000116 5.75986 0.154245 -7.90789 2650 
4331 1 -0.0558178 -0.0427844 -0.0397909 0.000116 -8.40058 6.18077 12.4737 2650 
1104 1 -0.0561382 -0.0441353 -0.0391008 0.000656 1.40673 -3.70534 -15.9359 2650 
72 1 -0.0442154 -0.0393262 -0.0370757 0.000116 -17.2304 15.887 18.076 2650 
2985 1 -0.0576319 -0.0162915 -0.0371761 0.000423 -7.61099 -2.83141 11.7939 2650 
2554 1 -0.0219268 -0.0119528 -0.0367275 0.000423 -3.41294 -0.654212 -5.54097 2650 
4171 1 -0.00666237 -0.00200291 -0.036636 0.000656 0.482131 -6.99741 16.9706 2650 
675 1 -0.0505444 -0.00924089 -0.035731 0.000423 -7.67643 -0.509999 -5.39389 2650 
1053 1 -0.057275 -0.00728488 -0.036098 0.000116 1.91125 -0.279808 1.5216 2650 
1442 1 -0.0583676 -0.0174451 -0.0355716 0.000656 6.15508 -3.25244 -10.0934 2650 
3322 1 -0.0595486 -0.00914195 -0.0340217 0.000423 -0.119899 -0.29317 0.209771 2650 
1634 1 -0.029006 -0.0225365 -0.0334049 0.000116 7.04945 -6.17878 -7.60705 2650 
2642 1 -0.0594436 -0.00667283 -0.0337432 0.000656 4.56606 1.27844 -8.03859 2650 
2591 1 -0.0408952 -0.0388299 -0.0323312 0.000116 4.1568 -1.13624 -3.11412 2650 
1185 1 -0.0610155 -0.00947531 -0.0319737 0.000116 -0.109499 -0.275676 0.208933 2650 
4008 1 -0.0613735 -0.0324977 -0.0312812 0.000116 1.90493 -1.18553 -3.73702 2650 
1309 1 -0.0611912 -0.0310587 -0.0316363 0.000116 8.09564 -0.331753 -15.6569 2650 
3411 1 -0.0607699 -0.0114595 -0.0312918 0.000656 -0.131749 -0.430516 0.25578 2650 
2849 1 -0.00719193 -0.0075995 -0.0310842 4.2e-05 -1.22296 -0.560115 -4.10708 2650 
391 1 -0.0485779 -0.0158271 -0.0302375 0.000116 7.91685 -10.2862 -6.9356 2650 
1212 1 -0.061155 -0.0140483 -0.0305327 0.000656 0.17099 0.568848 -0.342282 2650 
756 1 -0.061825 -0.00788132 -0.0303791 0.000116 -0.196456 -0.121466 0.399765 2650 
280 1 -0.00259258 -0.00720602 -0.030389 0.000116 -0.288886 -0.478279 -4.13122 2650 
51 1 -0.00121231 -0.000748007 -0.0541784 0.000423 -345.734 -7.30475 120.365 2650 
546 1 -0.05632 -0.00978286 -0.029462 4.2e-05 6.05836 -0.978271 -7.36163 2650 
2819 1 -0.0157116 -0.00437852 -0.029513 0.000116 -2.17407 -0.14948 -4.12866 2650 
223 1 -0.0315267 -0.0316929 -0.0288073 0.000656 3.69911 10.6833 1.95915 2650 
1974 1 -0.015291 -0.0152341 -0.0285153 4.2e-05 -2.36474 -0.818937 -4.30538 2650 
2764 1 -0.041786 -0.0175512 -0.0282398 0.000423 3.39419 3.41845 -15.9302 2650 
3897 1 -0.0327093 -0.0133698 -0.0272034 0.000116 -5.168 -0.895371 -3.94504 2650 
1693 1 -0.0628984 -0.000411521 -0.0273401 0.000423 1.42827 3.80143 -3.22267 2650 
4093 1 -0.0162113 -0.00938638 -0.0262778 0.000423 -0.664256 11.621 12.0423 2650 
3103 1 -0.0455933 -0.02609 -0.0252898 0.000423 -10.4172 -0.108606 -4.17451 2650 
2173 1 -0.0637812 -0.00591992 -0.0260231 0.000116 -0.0338569 -0.147112 0.082972 2650 
3037 1 -0.0590983 -0.0276839 -0.0245479 0.000116 4.52919 -0.0970398 -9.96812 2650 
2451 1 -0.063101 -0.0580704 -0.0242468 0.000423 -20.078 4.94022 35.1938 2650 
1579 1 -0.0643268 -0.0448369 -0.0237894 0.000423 -6.17407 6.4678 16.6886 2650 
980 1 -0.0650542 -0.00626327 -0.0228748 4.2e-05 -0.0459281 -0.148855 0.130611 2650 
3768 1 -0.00888387 -0.00595633 -0.0221528 0.000423 -1.19631 -0.417287 -2.60093 2650 
3673 1 -0.0252956 -0.00541355 -0.0225706 0.000423 -3.58199 -0.256862 -3.15717 2650 
2911 1 -0.000211419 -0.00455006 -0.0222749 0.000423 -0.152946 -0.23627 -2.46736 2650 
2164 1 -0.0654688 -0.00655072 -0.0214268 0.000116 -0.0535394 -0.212166 0.163569 2650 
2680 1 -0.0652426 -0.0340207 -0.021149 0.000423 4.14585 -0.480084 -12.7846 2650 
1690 1 -0.0652211 -0.0175562 -0.0212138 0.000423 -1.61383 -0.71634 4.9597 2650 
1544 1 -0.0509411 -0.00423257 -0.0199424 0.000656 -17.8162 -16.0461 -16.9792 2650 
1264 1 -0.0306541 -0.00652943 -0.0185768 0.000423 -4.31738 -0.379883 -2.52463 2650 
143 1 -0.0635142 -0.0121866 -0.0180881 0.000423 0.238118 -0.469784 0.870925 2650 
82 1 -0.0542386 -0.0596152 -0.0168121 0.000116 31.8891 0.987967 51.4796 2650 
1949 1 -0.0218349 -0.0146791 -0.0163153 0.000116 -3.49054 -0.751231 -2.53274 2650 
3405 1 -0.0647489 -0.00848048 -0.0161152 0.000656 -1.67601 -0.322988 -0.275962 2650 
3650 1 -0.0668572 -0.0271043 -0.0152986 0.000423 -2.17962 -3.35619 9.52159 2650 
2719 1 -0.00312737 -0.00360123 -0.0157635 0.000116 0.199807 -0.301326 -0.349218 2650 
2388 1 -0.0064185 -0.000656202 -0.0153579 0.000116 -0.301674 -0.0975969 0.128807 2650 
1698 1 -0.00472412 -0.000674447 -0.015704 0.000423 -0.180256 -0.0632468 0.0821443 2650 
1925 1 -0.000451693 -0.000192177 -0.0153391 0.000423 -0.286732 -0.0371932 -0.014476 2650 
253 1 -0.013328 -0.00545715 -0.0147413 0.000423 -1.3888 -0.49823 -1.07728 2650 
139 1 -0.00148271 -0.0026749 -0.0142399 0.000423 -0.0140573 -0.183483 0.0722719 2650 
3977 1 -0.0203389 -0.00613978 -0.0134574 0.000423 -2.46906 -0.461882 -1.36914 2650 
2454 1 -0.00106814 -0.00321273 -0.0136551 0.000423 -0.0382412 -0.270325 0.0600802 2650 
1374 1 -0.00300922 -0.00223906 -0.0140375 0.000423 -0.06546 -0.129287 0.157336 2650 
2322 1 -0.00504862 -0.000829853 -0.0141046 0.000656 -0.0912164 -0.165706 0.129368 2650 
3097 1 -0.0113768 -0.024014 -0.0124111 0.000423 41.1413 -44.1245 42.5266 2650 
71 1 -0.0668699 -0.0174835 -0.0130376 0.000116 -2.3965 -0.727231 -0.377035 2650 
3878 1 -0.0658095 -0.0141083 -0.012728 0.000423 -1.72623 -0.648091 -0.30183 2650 
1453 1 -0.019323 -0.0127176 -0.0129392 0.000423 -3.01222 -0.676679 -1.85654 2650 
3535 1 -0.00752174 -0.00229972 -0.0130864 0.000423 -0.0283993 -0.0326024 0.0567403 2650 
1746 1 -0.0102627 -0.000425853 -0.0130515 0.000116 0.0999405 0.0111127 -0.00803158 2650 
3264 1 -0.00912019 -0.000777699 -0.013205 0.000116 0.00103082 -0.00954574 0.06735 2650 
37 1 -0.0493268 -0.0224374 -0.0125307 0.000423 13.0319 0.121956 -28.7307 2650 
1072 1 -0.0247224 -0.00433127 -0.012131 0.000116 -3.84077 -0.112855 -1.88463 2650 
2136 1 -0.000430087 -0.00331429 -0.0124535 0.000423 -0.00917007 -0.07514 0.0170241 2650 
545 1 -0.002328 -0.00265349 -0.012432 4.2e-05 0 -0.01175 0 2650 
2283 1 -0.00509914 -0.00142317 -0.0120307 0.000116 -0.063139 -0.0457975 0.0117184 2650 
3551 1 -0.00384392 -0.000125372 -0.0119532 0.000423 -0.00154976 0.116022 0.0641633 2650 
3303 1 -0.0674021 -0.0599266 -0.0113953 0.000656 1.61785 -2.31631 -10.0473 2650 
1735 1 -0.0679893 -0.023372 -0.0113589 0.000116 -3.03117 -3.96157 14.1411 2650 
503 1 -0.0181313 -0.0068131 -0.0113592 0.000116 -2.39736 -0.638266 -0.896921 2650 
2685 1 -0.0160807 -0.00479938 -0.0112386 0.000423 -1.73327 -0.308568 -1.0239 2650 
4300 1 -0.0108548 -0.0028301 -0.0115758 0.000423 -0.067796 -0.0194305 0.2082 2650 
3505 1 -0.006952 -0.00298449 -0.011235 4.2e-05 0 -0.01175 0 2650 
2487 1 -0.0028489 -0.00309415 -0.0114867 0.000116 -0.0456905 -0.0683698 -0.0888384 2650 
1207 1 -0.00246925 -0.00285041 -0.0114865 4.2e-05 -0.108252 -0.00902182 -0.0199572 2650 
4241 1 -0.00403997 -0.00235503 -0.0114934 0.000116 -0.182824 -0.240746 0.222876 2650 
440 1 -0.00061 -0.00168249 -0.011485 4.2e-05 0 -0.01175 0 2650 
4177 1 -0.00625114 -0.0238121 -0.0107058 0.000423 68.5617 -45.4488 15.9805 2650 
3249 1 -0.0680994 -0.00991827 -0.0103819 0.000116 -0.0194789 -0.309042 0.127758 2650 
3499 1 -0.018122 -0.0048358 -0.0107881 0.000116 -2.47232 -0.242343 -1.16783 2650 
1929 1 -0.0042894 -0.00353874 -0.0104858 0.000116 0.962834 -1.23146 -0.206418 2650 
1829 1 -0.0090134 -0.00242029 -0.010606 0.000116 0.109747 -0.133337 -0.00825405 2650 
388 1 -0.008271 -0.00117949 -0.010879 0.000116 0 -0.01175 0 2650 
3587 1 -0.00311751 -0.00143937 -0.0110493 0.000116 0.0629541 -0.103319 0.0541758 2650 
2871 1 -0.00389728 -0.000720975 -0.0107676 0.000423 -0.217878 -0.141049 0.261968 2650 
3778 1 -0.0659158 -0.0423143 -0.010002 0.000423 51.7451 62.1348 30.0117 2650 
413 1 -0.0682286 -0.0420984 -0.00967993 0.000116 -1.90501 7.06525 9.7448 2650 
2458 1 -0.0135832 -0.00386986 -0.00989061 0.000423 -0.439751 -0.39073 -0.123931 2650 
417 1 -0.004944 -0.00265149 -0.009884 0.000116 0 -0.01175 0 2650 
3789 1 -0.0132835 -0.000240146 -0.00993747 0.000116 -0.135062 -0.135687 0.0173184 2650 
302 1 -0.0679022 -0.0205375 -0.00900765 0.000116 22.0877 -4.14212 -7.29611 2650 
47 1 -0.0234376 -0.00864399 -0.00875071 0.000423 -3.32877 -0.625978 -1.04027 2650 
2381 1 -0.00105052 -0.00284725 -0.00889244 0.000116 0.00640665 -0.0563858 -0.0645193 2650 
2885 1 -0.0128366 -0.000654728 -0.00933951 0.000423 -0.191537 -0.322377 0.0998929 2650 
955 1 -0.00793609 -0.00737136 -0.00839421 0.000116 -0.904584 -0.450035 -1.10701 2650 
3283 1 -0.006893 -0.00203649 -0.007981 4.2e-05 0 -0.01175 0 2650 
4195 1 -0.00959069 -0.00133393 -0.00825248 0.000423 0.0169867 -0.210909 0.182687 2650 
3482 1 -0.002928 -0.00156049 -0.008025 0.000116 0 -0.01175 0 2650 
3515 1 -0.0137031 -0.00042081 -0.00865167 0.000656 -0.131383 -0.174605 0.230966 2650 
3694 1 -0.0141097 -0.000148798 -0.00801695 0.000116 -0.16957 0.0237477 0.196544 2650 
50 1 -0.068183 -0.0330751 -0.00742287 0.000423 1.38292 0.922432 -12.6981 2650 
69 1 -0.067957 -0.0134984 -0.00737197 0.000116 0.177454 -3.82916 -17.0167 2650 
2380 1 -0.0666336 -0.0054997 -0.00753668 0.000116 -1.50454 -0.141697 -0.109856 2650 
123 1 -0.0100822 -0.00405062 -0.00724363 0.000423 0.4017 -0.330863 -1.14729 2650 
1025 1 -0.00712262 -0.00275363 -0.00769626 0.000423 0.0478751 0.00966845 0.174999 2650 
1639 1 -0.005507 -0.000159493 -0.007416 4.2e-05 0 -0.01175 0 2650 
3960 1 -0.0235692 -0.00571753 -0.00673319 0.000423 -2.7811 -0.41558 -0.653168 2650 
1287 1 -0.00675269 -0.00254104 -0.00707535 0.000116 -0.138206 -0.267938 -0.0233913 2650 
1908 1 -0.0109991 -0.00148131 -0.00658255 0.000423 -0.0426498 -0.13009 0.0293413 2650 
1895 1 -0.00817149 -0.00141906 -0.00651229 0.000423 -0.596732 -0.241684 -0.117408 2650 
2957 1 -0.000585828 -0.00039036 -0.00702796 4.2e-05 -0.0399292 -0.0335372 0.0532988 2650 
2538 1 -0.0588815 -0.0607901 -0.0057154 0.000656 -5.90092 -11.432 11.8415 2650 
1881 1 -0.0681414 -0.0370892 -0.005518 0.000656 -3.23089 9.79001 39.5282 2650 
890 1 -0.0680813 -0.00599774 -0.00613729 0.000656 -0.172062 -1.03544 1.90757 2650 
3563 1 -0.000843513 -0.00256133 -0.00618677 0.000423 -0.00213104 -0.064954 0.0861202 2650 
411 1 -0.000127477 -0.00273506 -0.00565643 0.000116 0.00944241 -0.0736452 0.120173 2650 
2282 1 -0.00574217 -0.00121894 -0.00618103 0.000116 -0.464355 0.0022348 0.0936535 2650 
4292 1 -0.0144448 -0.000534627 -0.00573575 0.000423 0.123119 -0.118009 0.0556127 2650 
1842 1 -0.00340572 -0.000117087 -0.00605546 0.000116 0.000525711 -0.0123424 -0.00222807 2650 
1758 1 -0.0687796 -0.0159689 -0.00496805 4.2e-05 0.0530065 0.838008 -0.733814 2650 
1393 1 -0.0169886 -0.00374888 -0.0053024 0.000116 -0.928532 -0.204874 -0.146889 2650 
4178 1 -0.0041985 -0.00309389 -0.00504652 0.000423 -0.0111548 -0.0135821 -0.00900244 2650 
3031 1 -0.0157641 -0.00191649 -0.0051055 0.000116 -0.0213114 -0.073119 0.0928564 2650 
180 1 -0.00512362 -0.00222025 -0.00501988 0.000116 0.0623222 -0.00717692 -0.104725 2650 
3850 1 -0.06603 -0.0429882 -0.00377073 0.000423 -14.3992 0.174434 99.666 2650 
1150 1 -0.0159974 -0.0031992 -0.00409925 0.000423 -0.0602483 -0.162662 0.177895 2650 
203 1 -0.002373 -0.00254949 -0.004593 0.000116 0 -0.01175 0 2650 
1558 1 -0.00196113 -0.00301631 -0.00398869 0.000423 0.0352257 -0.0222794 -0.0185614 2650 
1924 1 -0.0156416 -0.00215564 -0.0042901 0.000423 0.0133079 -0.0801464 -0.0486196 2650 
1559 1 -0.0159368 -0.000212415 -0.00406126 0.000423 -0.0281609 0.179714 -0.0350104 2650 
1147 1 -0.0104702 -0.000106615 -0.00405853 0.000423 -0.083932 0.0083984 0.234392 2650 
2176 1 -0.00946204 -0.000159047 -0.00452998 0.000116 0.0523273 -0.0375796 -0.111061 2650 
1163 1 -0.0494234 -0.0555715 -0.00341036 0.000116 20.4204 12.3336 11.5931 2650 
1215 1 -0.0201167 -0.00481271 -0.00338596 0.000656 -1.87497 -0.292669 -0.414658 2650 
2584 1 -0.00193063 -0.00399877 -0.00375371 0.000423 -0.260632 -0.133912 -0.342581 2650 
373 1 -0.0161292 -0.00299975 -0.00320395 0.000423 0.0223699 -0.0678331 0.197722 2650 
4246 1 -0.0144497 -0.00177596 -0.00390718 0.000116 -0.112677 -0.00148757 -0.148151 2650 
1282 1 -0.00415839 -0.00118575 -0.00359805 0.000116 -0.0137652 -0.021557 -0.00744617 2650 
2623 1 -0.00816192 -0.000665108 -0.0035591 0.000116 0.0900537 -0.187565 -0.26838 2650 
3956 1 -0.0683061 -0.0137074 -0.00267203 0.000656 0.456974 -4.46254 -11.6755 2650 
3972 1 -0.0330523 -0.00795607 -0.00256216 0.000423 -4.86431 -0.502171 -0.0738081 2650 
1233 1 -0.0635995 -0.00709036 -0.00303787 0.000423 -2.46728 -4.91378 3.08141 2650 
953 1 -0.0120407 -0.00433405 -0.00240395 0.000116 -1.11153 -0.225387 -0.197628 2650 
1252 1 -0.010115 -0.00317444 -0.00264966 0.000423 0.0443967 -0.0873454 0.107387 2650 
3205 1 -0.00181472 -0.0033432 -0.00294134 0.000423 0.012032 -0.140713 -0.136726 2650 
1657 1 -0.0155744 -0.00174008 -0.00312041 0.000656 0.0712065 -0.00658754 -0.0153752 2650 
3591 1 -0.0102964 -0.00232304 -0.00266219 0.000116 0.0405219 -0.061669 0.0910988 2650 
2423 1 -0.013689 -0.000105484 -0.0031285 0.000656 0.0762081 -0.24809 0.404312 2650 
2721 1 -0.009235 -0.000160493 -0.002413 0.000116 0 -0.01175 0 2650 
3140 1 -0.0077669 -0.000677261 -0.00271779 0.000116 0.16138 -0.143805 0.0040516 2650 
1133 1 -0.034571 -0.0473887 -0.00195964 0.000423 -5.51492 -3.64252 -0.343805 2650 
4150 1 -0.048916 -0.0280671 -0.00177766 0.000116 -4.38714 -1.99109 -2.26417 2650 
2314 1 -0.0683321 -0.0277023 -0.0023552 0.000656 2.19541 -28.3395 -58.6532 2650 
2279 1 -0.0165961 -0.00303254 -0.00184488 0.000116 -0.00150895 -0.126102 0.150896 2650 
1521 1 -0.0106038 -0.00254915 -0.0017442 0.000116 0.0436776 -0.130034 0.101983 2650 
3450 1 -0.00721944 -0.00292122 -0.00170673 0.000423 0.169817 -0.0505541 0.101584 2650 
465 1 -0.0135226 -0.00177059 -0.00188878 0.000423 0.0369049 0.0139783 0.0593636 2650 
2751 1 -0.0114863 -0.00152818 -0.0017473 0.000656 0.00468111 -0.101631 0.0734194 2650 
773 1 -0.0683467 -0.0298229 -0.00122903 0.000656 -0.0946332 -1.86523 5.2576 2650 
3383 1 -0.0142935 -0.00418863 -0.00104281 0.000116 -1.48677 -0.186039 0.0103966 2650 
1589 1 -0.0164496 -0.00276961 -0.000916457 0.000423 -0.0170349 -0.100064 0.162171 2650 
1609 1 -0.00457 -0.00293149 -0.000974 0.000116 0 -0.01175 0 2650 
2063 1 -0.00925977 -0.000551172 -0.000833272 0.000116 0.0178404 -0.00971643 -0.0635343 2650 
2361 1 -0.00867209 -0.000565612 -0.000799556 0.000423 0.0755567 0.0549014 0.114023 2650 
2698 1 -0.046008 -0.00508902 -0.000145392 0.000116 -6.72687 -0.196606 0.014668 2650 
1913 1 -0.0198338 -0.00434182 -0.000437823 0.000423 -2.44005 -0.178441 -0.0868231 2650 
3620 1 -0.0410675 -0.00332548 -0.000154519 0.000656 5.25387 15.3203 -0.971823 2650 
2674 1 -0.0130707 -0.00247764 -0.000376349 0.000423 0.0302224 -0.0299937 -0.0240886 2650 
2139 1 -0.0122046 -0.00238678 -0.000613675 0.000423 0.0653176 -0.0508777 -0.00337591 2650 
1267 1 -0.003657 -0.00259649 -0.000707 0.000116 0 -0.01175 0 2650 
2473 1 -0.0113603 -0.00208923 -0.000145954 0.000423 -0.0508425 -0.0719679 0.0337183 2650 
738 1 -0.0142041 -0.00138242 -0.0003279 0.000116 -0.0389085 0.127022 0.0278791 2650 
3578 1 -0.0107748 -0.000186385 -0.00063718 0.000116 0.00754417 0.000161275 0.0213431 2650 
2414 1 -0.0689588 -0.0116834 8.92832e-05 4.2e-05 2.80729e-05 -0.298053 0.0216816 2650 
2335 1 -0.0114792 -0.000370487 0.000280167 0.000423 -0.0504782 -0.0566838 0.0465114 2650 
3349 1 -0.0665849 -0.0219158 0.000982224 0.000116 -0.91243 -0.991495 0.194806 2650 
1951 1 -0.0688807 -0.0117436 0.000878475 0.000116 -0.000479339 -0.32717 -0.0375807 2650 
2541 1 -0.0150696 -0.00305361 0.00103675 0.000656 -0.0517798 -0.121821 0.211956 2650 
1825 1 -0.010078 -0.00299749 0.000971 0.000116 0 -0.01175 0 2650 
283 1 -0.010842 -0.00194749 0.00093 0.000116 0 -0.01175 0 2650 
3770 1 -0.00794132 -0.00149931 0.000974476 0.000423 -0.121028 -0.088204 0.057662 2650 
1003 1 -0.0113717 -1.41432e-05 0.00108598 0.000423 0.470481 -0.138562 -0.0543356 2650 
3584 1 -0.0055236 -0.000659836 0.000904968 0.000116 0.203078 -0.042304 -0.208352 2650 
3950 1 -0.0473677 -0.00685449 0.00217976 0.000656 -7.18045 -0.312704 0.411221 2650 
4086 1 -0.0164673 -0.00357914 0.00188789 0.000423 -0.182161 -0.210505 0.231722 2650 
2254 1 -0.0117525 -0.00317085 0.00182782 0.000423 0.00188802 -0.0112211 0.0571014 2650 
1613 1 -0.008946 -0.00311149 0.001748 0.000116 0 -0.01175 0 2650 
3223 1 -0.0156587 -0.00225309 0.00173581 0.000423 -0.0194953 -0.0306812 0.212685 2650 
3562 1 -0.0142784 -0.00218378 0.0017198 0.000423 0.0248343 -0.0446632 0.168819 2650 
1279 1 -0.0106871 -0.002254 0.00229913 0.000116 0.0225855 -0.136412 -0.0367383 2650 
390 1 -0.0098671 -0.00148575 0.00208473 0.000116 -0.00216701 -0.0261211 -0.00998276 2650 
631 1 -0.006928 -0.00135849 0.001793 0.000116 0 -0.01175 0 2650 
445 1 -0.0157539 -0.00292582 0.00262723 0.000656 0.0129741 -0.0601865 0.196406 2650 
1284 1 -0.0124551 -0.00164059 0.00285029 0.000116 -0.0389753 -0.00674188 -0.0773853 2650 
3736 1 -0.00934092 -0.00121978 0.00291597 0.000656 0.0251945 -0.0491195 0.0150444 2650 
4018 1 -0.0127457 -0.000439415 0.00247524 0.000116 0.0224222 -0.0452082 0.0673931 2650 
1050 1 -0.007068 -0.00296249 0.00389 0.000116 0 -0.01175 0 2650 
3748 1 -0.0125307 -0.0016346 0.00356433 0.000423 -0.0595639 -0.0156884 -0.0600075 2650 
2075 1 -0.0178989 -0.0330913 0.00469271 0.000116 0.52157 -0.863793 -0.656243 2650 
2471 1 -0.06843 -0.013156 0.00461611 0.000423 0.0076101 -0.500474 0.11277 2650 
2908 1 -0.0218998 -0.00666116 0.00435303 0.000423 -2.65139 -0.489047 0.927489 2650 
2464 1 -0.0287514 -0.00440726 0.00452989 0.000423 -4.00396 -0.153903 0.7521 2650 
3491 1 -0.0101363 -0.00277406 0.00426218 0.000116 -0.0287815 -0.0265918 -0.0575077 2650 
2325 1 -0.008715 -0.00290849 0.003966 0.000423 0 -0.01175 0 2650 
956 1 -0.007659 -0.00312749 0.004073 0.000116 0 -0.01175 0 2650 
4285 1 -0.0155945 -0.00224551 0.00415974 0.000423 0.113706 0.0248171 -0.0113856 2650 
293 1 -0.007685 -0.00197549 0.00423 0.000116 0 -0.01175 0 2650 
3169 1 -0.00237972 -0.00206002 0.00406282 0.000116 -0.00399722 -0.020649 0.00922926 2650 
2670 1 -0.0155151 -0.00135575 0.00466561 0.000423 0.21358 -0.22062 0.3243 2650 
647 1 -0.0136197 -0.00102511 0.00409125 0.000116 -0.0435164 -0.00271053 0.0345083 2650 
1618 1 -0.000851234 -0.000556382 0.00455958 0.000116 0.00986926 0.00047594 0.00202929 2650 
1662 1 -0.0681536 -0.010755 0.00526916 0.000656 -3.98769 12.4127 -34.0048 2650 
3865 1 -0.0683612 -0.00891677 0.0053976 0.000423 0.734976 13.2284 -16.1045 2650 
2660 1 -0.0673944 -0.00899566 0.0047906 0.000423 6.90651 7.67045 -15.729 2650 
971 1 -0.0205576 -0.00357821 0.00525645 0.000116 -2.53628 -0.0618826 0.653919 2650 
1552 1 -0.0152707 -0.00320933 0.00540579 0.000656 0.0535396 -0.0799828 0.104512 2650 
1792 1 -0.0143839 -0.00263307 0.00501574 0.000423 0.0280581 -0.106368 0.0612869 2650 
1259 1 -0.00861111 -0.0017253 0.004799 0.000423 -0.0285135 -0.0837582 0.151026 2650 
4083 1 -0.0145716 -0.00136281 0.00533541 0.000423 0.108229 0.134569 0.325907 2650 
3869 1 -0.0152825 -0.000373055 0.00547304 0.000423 0.284581 -0.197246 0.392538 2650 
2012 1 -0.00889029 -2.61804e-05 0.00525289 0.000423 -0.0800122 0.0548745 0.0994615 2650 
1032 1 -0.00712394 -0.000638206 0.0052809 0.000423 -0.0435662 -0.0534464 0.0820303 2650 
2604 1 -0.0686472 -0.00713481 0.0057343 0.000116 -0.00136978 -0.184453 -0.0163964 2650 
1047 1 -0.0104228 -0.00478253 0.00578785 0.000116 -0.665947 -0.593077 0.3247 2650 
4094 1 -0.0113154 -0.00345382 0.00583146 0.000423 -0.816744 -0.0601915 0.363449 2650 
2987 1 -0.00860562 -0.00343582 0.00609045 0.000423 -0.111038 -0.208606 0.175235 2650 
3774 1 -0.0683503 -0.0028128 0.00567586 0.000423 -0.471587 -1.01053 -5.67688 2650 
2124 1 -0.00893857 -0.0026355 0.00628321 0.000423 0.101866 -0.115573 0.0946655 2650 
2349 1 -0.000826556 -0.00284635 0.00564796 0.000423 0.00964095 -0.0175869 0.0270368 2650 
2503 1 -0.011962 -0.00191049 0.006036 0.000116 0 -0.01175 0 2650 
3324 1 -0.0134044 -0.00134815 0.00612097 0.000423 0.317548 0.072698 0.414275 2650 
1183 1 -0.011911 -0.00218649 0.006745 0.000116 0 -0.01175 0 2650 
2569 1 -0.00802486 -0.000969485 0.00650267 0.000423 -0.0396381 -0.0476214 0.0255515 2650 
3794 1 -0.0131267 -6.09553e-06 0.00661141 0.000116 0.0296197 -0.243195 0.247349 2650 
2038 1 -0.0045082 -9.87801e-05 0.00673431 0.000116 -0.0504377 0.0450046 0.0458181 2650 
2962 1 -0.00222905 -3.82834e-05 0.0068758 4.2e-05 -0.187624 -0.0372577 0.0306432 2650 
564 1 -0.0679619 -0.0225344 0.00735385 0.000423 6.22438 12.9651 39.8527 2650 
2944 1 -0.0145826 -0.00281906 0.00723734 0.000116 -0.115421 -0.03696 -0.0861239 2650 
672 1 -0.00851294 -0.00232326 0.00723704 0.000656 -0.0512111 -0.0480231 0.117251 2650 
3476 1 -0.0106742 -0.00147564 0.00775824 0.000116 0.0962468 -0.183026 0.0733471 2650 
2869 1 -0.00875258 -0.000265179 0.00712042 0.000423 0.19303 -0.108618 0.131919 2650 
314 1 -0.00361007 -6.80926e-05 0.00765153 0.000116 -0.103883 -0.0970222 -0.116856 2650 
4311 1 -0.0654308 -0.00839447 0.00870478 0.000423 3.28798 9.95024 7.98563 2650 
2330 1 -0.0417283 -0.00592548 0.00862385 0.000423 -6.14736 -0.284967 1.18969 2650 
1129 1 -0.0200184 -0.00432235 0.0080933 0.000423 -2.46789 -0.170912 1.01649 2650 
3472 1 -0.006085 -0.00275249 0.008141 0.000116 0 -0.01175 0 2650 
3542 1 -0.0141193 -0.00055151 0.00826961 0.000423 0.0645764 -0.11412 0.0663142 2650 
2741 1 -0.008175 -0.000355493 0.008359 4.2e-05 0 -0.01175 0 2650 
4120 1 -0.00789703 -0.000110831 0.00807447 0.000116 0.13288 -0.141096 -0.00931079 2650 
1570 1 -0.0147758 -0.00419184 0.00896761 0.000423 -1.41154 -0.196115 0.963753 2650 
3985 1 -0.0126537 -0.00344669 0.00895225 0.000423 -0.262587 -0.131378 0.236448 2650 
3616 1 -0.0143862 -0.00161575 0.00872072 4.2e-05 0.242191 -0.101571 0.331018 2650 
1245 1 -0.0134416 -0.00173529 0.00892909 0.000423 0.130262 -0.134852 0.144194 2650 
3012 1 -0.0104431 -0.00197023 0.00928635 0.000423 -0.149034 0.00989306 -0.458124 2650 
1186 1 -0.007068 -0.00207749 0.00936 0.000116 0 -0.01175 0 2650 
2037 1 -0.005083 -0.00228249 0.009135 0.000116 0 -0.01175 0 2650 
3366 1 -0.0681784 -0.0220668 0.00988656 0.000116 7.999 4.08102 60.3557 2650 
978 1 -0.0145033 -0.00355976 0.00967711 0.000116 -0.555268 -0.125706 0.49119 2650 
2755 1 -0.0029449 -0.00265944 0.00963628 0.000656 0.0221763 -0.051943 0.124252 2650 
171 1 -0.0105682 -0.00218814 0.00998225 0.000116 0.713831 -0.322292 0.235197 2650 
4007 1 -0.0101439 -0.00100035 0.00950468 0.000116 0.335813 0.318759 -0.192215 2650 
426 1 -0.005317 -0.000941493 0.009719 0.000116 0 -0.01175 0 2650 
4032 1 -0.0120291 -0.00021242 0.00977876 0.000116 0.0232635 -0.040951 0.0673629 2650 
2383 1 -0.00988193 -0.000314977 0.0102196 0.000116 0.130217 -0.162655 0.115385 2650 
793 1 -0.0678035 -0.0107158 0.0103269 0.000423 -0.939978 -3.77465 -6.16933 2650 
4360 1 -0.013773 -0.00461229 0.0102645 0.000116 -1.47235 -0.765239 -0.0131814 2650 
1208 1 -0.003507 -0.00312549 0.010652 4.2e-05 0 -0.01175 0 2650 
3513 1 -0.00646936 -0.000305465 0.0106632 0.000656 -0.0492597 0.00076429 -0.026973 2650 
263 1 -0.0125207 -0.00390885 0.0111835 0.000423 -0.292392 -0.335918 0.368998 2650 
3237 1 -0.0386179 -0.00220447 0.0113741 0.000423 -41.2885 -0.501732 -7.00054 2650 
2329 1 -0.00310125 -0.00208752 0.0115887 0.000423 -0.246574 -0.0577715 0.0932474 2650 
1433 1 -0.00189653 -0.00160266 0.0117533 0.000656 -0.204937 -0.0412591 0.0972859 2650 
1231 1 -0.00938647 -0.000953546 0.0114963 0.000423 0.17573 -0.313092 0.137398 2650 
598 1 -0.00864404 -0.00145453 0.011411 0.000423 -0.0390815 -0.0532042 -0.0168906 2650 
3818 1 -0.0124309 -0.000466258 0.0111157 0.000116 -0.324367 0.14767 -0.226795 2650 
3460 1 -0.0678251 -0.00701891 0.0120444 0.000116 0.676 -1.48823 3.80631 2650 
1013 1 -0.0102525 -0.00508171 0.0124152 0.000423 -1.43548 -0.199313 1.76953 2650 
2906 1 -0.0114633 -0.00345115 0.0118704 0.000423 0.025864 -0.223603 0.307173 2650 
1265 1 -0.00714196 -0.0034124 0.0120892 0.000423 -0.0383155 -0.140667 0.324898 2650 
3893 1 -0.0412227 -0.00696491 0.0126598 0.000116 -6.09868 -0.345723 1.88027 2650 
4001 1 -0.00801147 -0.00436123 0.0127316 0.000423 -0.696573 -0.231845 1.22753 2650 
2105 1 -0.00241073 -0.00405036 0.0132664 0.000423 -0.348212 -0.235288 1.06925 2650 
1325 1 -0.000778353 -0.00330513 0.0128778 0.000656 -0.0552843 -0.074171 0.0755913 2650 
864 1 -0.00985593 -0.00263105 0.0130519 0.000116 0.221384 -0.194537 0.128431 2650 
3657 1 -0.000814377 -0.00211375 0.013317 0.000423 0.0432806 -0.0110376 0.0701007 2650 
4149 1 -0.00499221 -0.00132833 0.0129499 0.000116 0.00596133 -0.00537677 0.0253264 2650 
2696 1 -0.0675407 -0.0308376 0.0135486 0.000116 1.55205 -1.23216 7.73629 2650 
423 1 -0.00860341 -0.00193379 0.0139896 0.000116 0.00276616 0.0509344 -0.0243936 2650 
1994 1 -0.00794673 -0.00102513 0.0140741 0.000423 0.129655 -0.0509616 0.0569744 2650 