LIGGGHTS (Version LIGGGHTS-PUBLIC 3.8.0, compiled 2022-11-07-16:55:38 by serperd1, git commit 86544c3f1215bc9744d7929e3eacf53ba086af9e)
Created orthogonal box = (-0.15 -0.15 -0.15) to (0.15 0.15 0.15)
  2 by 4 by 5 MPI processor grid

Reading STL file 'cone.stl' (mesh processing step 1/3) 

Reading STL file 'in_cyl.stl' (mesh processing step 1/3) 

Reading STL file 'top_cyl.stl' (mesh processing step 1/3) 

Reading STL file 'bot_cyl.stl' (mesh processing step 1/3) 

Reading STL file 'bottom_disk.stl' (mesh processing step 1/3) 

Reading STL file 'top_disk.stl' (mesh processing step 1/3) 
Fix particledistribution/discrete (id prob_par): distribution based on mass%:
    r_0to10p: d=8.400000e-05 (max. bounding sphere) mass%=10.000000%
    r_10to50p: d=2.328000e-04 (max. bounding sphere) mass%=40.000000%
    r_50to90p: d=8.466000e-04 (max. bounding sphere) mass%=40.000000%
    r_90to100p: d=1.312200e-03 (max. bounding sphere) mass%=10.000000%
Fix particledistribution/discrete (id prob_par): distribution based on number%:
    r_0to10p: d=8.400000e-05 (max. bounding sphere) number%=83.887052%
    r_10to50p: d=2.328000e-04 (max. bounding sphere) number%=15.763181%
    r_50to90p: d=8.466000e-04 (max. bounding sphere) number%=0.327762%
    r_90to100p: d=1.312200e-03 (max. bounding sphere) number%=0.022006%
Setting up run at Thu Dec 29 00:11:12 2022

Import and parallelization of mesh cone_mesh containing 868 triangle(s) successful
Import and parallelization of mesh inlet_cyl_wall_mesh containing 1064 triangle(s) successful
Import and parallelization of mesh top_cyl_wall_mesh containing 682 triangle(s) successful
Import and parallelization of mesh bot_cyl_wall_mesh containing 1280 triangle(s) successful
Import and parallelization of mesh bot_disk_wall_mesh containing 1682 triangle(s) successful
Import and parallelization of mesh top_disk_wall_mesh containing 1144 triangle(s) successful
Memory usage per processor = 960.256 Mbytes
    Step    Atoms         KinEng            CPU 
       0        0              0              0 
Loop time of 6.09287e-05 on 40 procs for 0 steps with 0 atoms, finish time Thu Dec 29 00:11:12 2022


Pair  time (%) = 0 (0)
Neigh time (%) = 0 (0)
Comm  time (%) = 0 (0)
Outpt time (%) = 0 (0)
Other time (%) = 6.09287e-05 (100)

Nlocal:    0 ave 0 max 0 min
Histogram: 40 0 0 0 0 0 0 0 0 0
Nghost:    0 ave 0 max 0 min
Histogram: 40 0 0 0 0 0 0 0 0 0
Neighs:    0 ave 0 max 0 min
Histogram: 40 0 0 0 0 0 0 0 0 0

Total # of neighbors = 0
Neighbor list builds = 0
Dangerous builds = 0
Setting up run at Thu Dec 29 00:11:12 2022

Memory usage per processor = 960.256 Mbytes
    Step    Atoms         KinEng            CPU 
       0        0              0              0 
       1        0              0    0.009783445 
Loop time of 0.00979458 on 40 procs for 1 steps with 0 atoms, finish time Thu Dec 29 00:11:12 2022


Pair  time (%) = 2.71198e-06 (0.0276885)
Neigh time (%) = 0 (0)
Comm  time (%) = 0.000224453 (2.29161)
Outpt time (%) = 0.000121293 (1.23837)
Other time (%) = 0.00944612 (96.4423)

Nlocal:    0 ave 0 max 0 min
Histogram: 40 0 0 0 0 0 0 0 0 0
Nghost:    0 ave 0 max 0 min
Histogram: 40 0 0 0 0 0 0 0 0 0
Neighs:    0 ave 0 max 0 min
Histogram: 40 0 0 0 0 0 0 0 0 0

Total # of neighbors = 0
Neighbor list builds = 0
Dangerous builds = 0
Scanning dump file ...
Reading snapshot from dump file ...
  orthogonal box = (-0.15 -0.15 -0.15) to (0.15 0.15 0.15)
  0 atoms before read
  4382 atoms in snapshot
  0 atoms purged
  0 atoms replaced
  0 atoms trimmed
  4382 atoms added
  4382 atoms after read
Setting atom values ...
  4382 settings made for type
  4382 settings made for density
  4382 settings made for vy
Setting up run at Thu Dec 29 00:11:12 2022

Memory usage per processor = 964.609 Mbytes
    Step    Atoms         KinEng            CPU 
       1     4382  2.0405663e-07              0 
       2     4382  2.5286639e-06     0.00942299 
Loop time of 0.00944252 on 40 procs for 1 steps with 4382 atoms, finish time Thu Dec 29 00:11:13 2022


Pair  time (%) = 4.38225e-06 (0.0464098)
Neigh time (%) = 0 (0)
Comm  time (%) = 9.20438e-06 (0.097478)
Outpt time (%) = 0.000288749 (3.05796)
Other time (%) = 0.00914018 (96.7982)

Nlocal:    109.55 ave 1816 max 0 min
Histogram: 36 0 2 0 0 0 0 0 0 2
Nghost:    27.3 ave 345 max 0 min
Histogram: 36 0 0 0 0 1 1 0 0 2
Neighs:    35.525 ave 600 max 0 min
Histogram: 36 0 2 0 0 0 0 0 0 2

Total # of neighbors = 1421
Ave neighs/atom = 0.324281
Neighbor list builds = 0
Dangerous builds = 0
Setting up run at Thu Dec 29 00:11:13 2022

Memory usage per processor = 964.609 Mbytes
    Step    Atoms         KinEng            CPU 
       2     4382  2.5286639e-06              0 
  308643     4382  0.00030849076      3070.3409 
Loop time of 3070.34 on 40 procs for 308641 steps with 4382 atoms, finish time Thu Dec 29 01:02:23 2022


Pair  time (%) = 1.25033 (0.0407229)
Neigh time (%) = 4.25672 (0.13864)
Comm  time (%) = 4.07737 (0.132799)
Outpt time (%) = 0.000352806 (1.14908e-05)
Other time (%) = 3060.76 (99.6878)

Nlocal:    109.55 ave 1780 max 0 min
Histogram: 36 0 2 0 0 0 0 0 0 2
Nghost:    28.15 ave 360 max 0 min
Histogram: 36 0 0 0 0 1 1 0 0 2
Neighs:    39.35 ave 668 max 0 min
Histogram: 36 0 2 0 0 0 0 0 0 2

Total # of neighbors = 1574
Ave neighs/atom = 0.359197
Neighbor list builds = 1630
Dangerous builds = 0
Setting up run at Thu Dec 29 01:02:23 2022

Memory usage per processor = 964.609 Mbytes
    Step    Atoms         KinEng            CPU 
  308643     4382  0.00030849076              0 
  617284     4377  0.00036428061      3087.6161 
Loop time of 3087.62 on 40 procs for 308641 steps with 4377 atoms, finish time Thu Dec 29 01:53:51 2022


Pair  time (%) = 1.27692 (0.0413562)
Neigh time (%) = 6.79645 (0.22012)
Comm  time (%) = 5.21736 (0.168977)
Outpt time (%) = 0.000752486 (2.43711e-05)
Other time (%) = 3074.32 (99.5695)

Nlocal:    109.425 ave 1746 max 0 min
Histogram: 36 0 2 0 0 0 0 0 0 2
Nghost:    26.65 ave 328 max 0 min
Histogram: 36 0 0 0 0 0 2 0 0 2
Neighs:    41.1 ave 672 max 0 min
Histogram: 36 0 2 0 0 0 0 0 0 2

Total # of neighbors = 1644
Ave neighs/atom = 0.3756
Neighbor list builds = 2548
Dangerous builds = 3
Setting up run at Thu Dec 29 01:53:51 2022

Memory usage per processor = 964.609 Mbytes
    Step    Atoms         KinEng            CPU 
  617284     4377  0.00036428061              0 
  925925     4369  0.00076418356      3121.5426 
Loop time of 3121.58 on 40 procs for 308641 steps with 4369 atoms, finish time Thu Dec 29 02:45:52 2022


Pair  time (%) = 1.28033 (0.0410155)
Neigh time (%) = 15.0107 (0.480869)
Comm  time (%) = 9.01452 (0.288781)
Outpt time (%) = 0.000755809 (2.42124e-05)
Other time (%) = 3096.27 (99.1893)

Nlocal:    109.225 ave 1729 max 0 min
Histogram: 36 0 2 0 0 0 0 0 0 2
Nghost:    24.5 ave 304 max 0 min
Histogram: 36 0 0 0 0 1 1 0 0 2
Neighs:    40.525 ave 658 max 0 min
Histogram: 36 0 2 0 0 0 0 0 0 2

Total # of neighbors = 1621
Ave neighs/atom = 0.371023
Neighbor list builds = 5537
Dangerous builds = 6
Setting up run at Thu Dec 29 02:45:52 2022

Memory usage per processor = 964.609 Mbytes
    Step    Atoms         KinEng            CPU 
  925925     4369  0.00076418356              0 
 1234566     4357     0.15585351      3314.0988 
Loop time of 3314.1 on 40 procs for 308641 steps with 4357 atoms, finish time Thu Dec 29 03:41:07 2022


Pair  time (%) = 1.28995 (0.0389231)
Neigh time (%) = 57.1941 (1.72578)
Comm  time (%) = 26.0298 (0.785427)
Outpt time (%) = 0.000587059 (1.7714e-05)
Other time (%) = 3229.58 (97.4499)

Nlocal:    108.925 ave 1704 max 0 min
Histogram: 36 0 2 0 0 0 0 0 0 2
Nghost:    23.65 ave 293 max 0 min
Histogram: 36 0 0 0 0 1 1 0 0 2
Neighs:    37.95 ave 630 max 0 min
Histogram: 36 1 1 0 0 0 0 0 0 2

Total # of neighbors = 1518
Ave neighs/atom = 0.348405
Neighbor list builds = 20943
Dangerous builds = 351
Setting up run at Thu Dec 29 03:41:07 2022

Memory usage per processor = 964.609 Mbytes
    Step    Atoms         KinEng            CPU 
 1234566     4357     0.15585351              0 
 1543207     4337    0.085229534      3271.4777 
Loop time of 3271.48 on 40 procs for 308641 steps with 4337 atoms, finish time Thu Dec 29 04:35:38 2022


Pair  time (%) = 1.25666 (0.0384127)
Neigh time (%) = 50.5902 (1.5464)
Comm  time (%) = 25.8493 (0.79014)
Outpt time (%) = 0.000636717 (1.94627e-05)
Other time (%) = 3193.78 (97.625)

Nlocal:    108.425 ave 1670 max 0 min
Histogram: 36 0 2 0 0 0 0 0 0 2
Nghost:    23.125 ave 298 max 0 min
Histogram: 36 0 0 0 0 2 0 0 0 2
Neighs:    38.7 ave 642 max 0 min
Histogram: 36 0 2 0 0 0 0 0 0 2

Total # of neighbors = 1548
Ave neighs/atom = 0.356929
Neighbor list builds = 18514
Dangerous builds = 57
Setting up run at Thu Dec 29 04:35:38 2022

Memory usage per processor = 964.609 Mbytes
    Step    Atoms         KinEng            CPU 
 1543207     4337    0.085229534              0 
 1851848     4307    0.078812987      3300.8401 
Loop time of 3300.84 on 40 procs for 308641 steps with 4307 atoms, finish time Thu Dec 29 05:30:39 2022


Pair  time (%) = 1.26253 (0.0382487)
Neigh time (%) = 58.1699 (1.76228)
Comm  time (%) = 33.3607 (1.01067)
Outpt time (%) = 0.000305501 (9.25526e-06)
Other time (%) = 3208.05 (97.1888)

Nlocal:    107.675 ave 1655 max 0 min
Histogram: 36 0 2 0 0 0 0 0 0 2
Nghost:    22.825 ave 290 max 0 min
Histogram: 36 0 0 0 0 1 1 0 0 2
Neighs:    38.65 ave 631 max 0 min
Histogram: 36 0 2 0 0 0 0 0 0 2

Total # of neighbors = 1546
Ave neighs/atom = 0.358951
Neighbor list builds = 21242
Dangerous builds = 3161
Setting up run at Thu Dec 29 05:30:39 2022

Memory usage per processor = 964.609 Mbytes
    Step    Atoms         KinEng            CPU 
 1851848     4307    0.078812987              0 
 2160489     4277     0.12704408      3332.0397 
Loop time of 3332.04 on 40 procs for 308641 steps with 4277 atoms, finish time Thu Dec 29 06:26:11 2022


Pair  time (%) = 1.25517 (0.0376697)
Neigh time (%) = 62.3608 (1.87155)
Comm  time (%) = 36.1962 (1.08631)
Outpt time (%) = 0.000693888 (2.08247e-05)
Other time (%) = 3232.23 (97.0045)

Nlocal:    106.925 ave 1647 max 0 min
Histogram: 36 0 2 0 0 0 0 0 0 2
Nghost:    22 ave 270 max 0 min
Histogram: 36 0 0 0 0 0 2 0 0 2
Neighs:    37.2 ave 629 max 0 min
Histogram: 36 0 2 0 0 0 0 0 0 2

Total # of neighbors = 1488
Ave neighs/atom = 0.347907
Neighbor list builds = 22792
Dangerous builds = 1450
Setting up run at Thu Dec 29 06:26:11 2022

Memory usage per processor = 964.609 Mbytes
    Step    Atoms         KinEng            CPU 
 2160489     4277     0.12704408              0 
 2469130     4231    0.088286578       3304.853 
Loop time of 3304.85 on 40 procs for 308641 steps with 4231 atoms, finish time Thu Dec 29 07:21:16 2022


Pair  time (%) = 1.25786 (0.038061)
Neigh time (%) = 55.8718 (1.6906)
Comm  time (%) = 32.4168 (0.980884)
Outpt time (%) = 0.000606362 (1.83476e-05)
Other time (%) = 3215.31 (97.2904)

Nlocal:    105.775 ave 1641 max 0 min
Histogram: 36 0 2 0 0 0 0 0 0 2
Nghost:    21.85 ave 274 max 0 min
Histogram: 36 0 0 0 0 2 0 0 0 2
Neighs:    37.775 ave 650 max 0 min
Histogram: 36 1 1 0 0 0 0 0 1 1

Total # of neighbors = 1511
Ave neighs/atom = 0.357126
Neighbor list builds = 20427
Dangerous builds = 1194
Setting up run at Thu Dec 29 07:21:16 2022

Memory usage per processor = 964.609 Mbytes
    Step    Atoms         KinEng            CPU 
 2469130     4231    0.088286578              0 
 2777771     4179     0.26397833       3381.452 
Loop time of 3381.45 on 40 procs for 308641 steps with 4179 atoms, finish time Thu Dec 29 08:17:38 2022


Pair  time (%) = 1.26916 (0.0375329)
Neigh time (%) = 72.3568 (2.13982)
Comm  time (%) = 49.5931 (1.46662)
Outpt time (%) = 0.000661621 (1.95662e-05)
Other time (%) = 3258.23 (96.356)

Nlocal:    104.475 ave 1635 max 0 min
Histogram: 36 0 2 0 0 0 0 0 0 2
Nghost:    20.95 ave 249 max 0 min
Histogram: 36 0 0 0 0 0 2 0 0 2
Neighs:    36.825 ave 650 max 0 min
Histogram: 36 1 1 0 0 0 0 0 1 1

Total # of neighbors = 1473
Ave neighs/atom = 0.352477
Neighbor list builds = 26446
Dangerous builds = 412
Setting up run at Thu Dec 29 08:17:38 2022

Memory usage per processor = 964.609 Mbytes
    Step    Atoms         KinEng            CPU 
 2777771     4179     0.26397833              0 
 3086412     4084     0.25263287      3476.0177 
Loop time of 3476.03 on 40 procs for 308641 steps with 4084 atoms, finish time Thu Dec 29 09:15:34 2022


Pair  time (%) = 1.24739 (0.0358856)
Neigh time (%) = 88.3448 (2.54155)
Comm  time (%) = 65.1777 (1.87506)
Outpt time (%) = 0.000639217 (1.83893e-05)
Other time (%) = 3321.26 (95.5475)

Nlocal:    102.1 ave 1589 max 0 min
Histogram: 36 0 2 0 0 0 0 0 0 2
Nghost:    20.75 ave 256 max 0 min
Histogram: 36 0 0 0 0 1 1 0 0 2
Neighs:    33.85 ave 583 max 0 min
Histogram: 36 0 2 0 0 0 0 0 1 1

Total # of neighbors = 1354
Ave neighs/atom = 0.331538
Neighbor list builds = 32264
Dangerous builds = 3937
Setting up run at Thu Dec 29 09:15:34 2022

Memory usage per processor = 964.609 Mbytes
    Step    Atoms         KinEng            CPU 
 3086412     4084     0.25263287              0 
 3395053     3981       0.216802      3459.6738 
Loop time of 3459.67 on 40 procs for 308641 steps with 3981 atoms, finish time Thu Dec 29 10:13:14 2022


Pair  time (%) = 1.229 (0.0355237)
Neigh time (%) = 89.4835 (2.58647)
Comm  time (%) = 69.6106 (2.01206)
Outpt time (%) = 0.000667528 (1.92945e-05)
Other time (%) = 3299.35 (95.3659)

Nlocal:    99.525 ave 1510 max 0 min
Histogram: 36 0 2 0 0 0 0 0 0 2
Nghost:    20.2 ave 250 max 0 min
Histogram: 36 0 0 0 0 1 1 0 0 2
Neighs:    32.525 ave 556 max 0 min
Histogram: 36 0 2 0 0 0 0 0 0 2

Total # of neighbors = 1301
Ave neighs/atom = 0.326802
Neighbor list builds = 32729
Dangerous builds = 3923
Setting up run at Thu Dec 29 10:13:14 2022

Memory usage per processor = 964.609 Mbytes
    Step    Atoms         KinEng            CPU 
 3395053     3981       0.216802              0 
 3703694     3913     0.27862907      3464.5148 
Loop time of 3464.52 on 40 procs for 308641 steps with 3913 atoms, finish time Thu Dec 29 11:10:58 2022


Pair  time (%) = 1.20448 (0.0347663)
Neigh time (%) = 90.4677 (2.61127)
Comm  time (%) = 72.9839 (2.10661)
Outpt time (%) = 0.000573526 (1.65543e-05)
Other time (%) = 3299.86 (95.2473)

Nlocal:    97.825 ave 1454 max 0 min
Histogram: 36 0 2 0 0 0 0 0 0 2
Nghost:    19.275 ave 254 max 0 min
Histogram: 36 0 0 0 0 2 0 0 1 1
Neighs:    27.125 ave 457 max 0 min
Histogram: 36 0 2 0 0 0 0 0 0 2

Total # of neighbors = 1085
Ave neighs/atom = 0.277281
Neighbor list builds = 33080
Dangerous builds = 3675
Setting up run at Thu Dec 29 11:10:58 2022

Memory usage per processor = 964.609 Mbytes
    Step    Atoms         KinEng            CPU 
 3703694     3913     0.27862907              0 
 4012335     3828     0.31867282      3443.4489 
Loop time of 3443.45 on 40 procs for 308641 steps with 3828 atoms, finish time Thu Dec 29 12:08:22 2022


Pair  time (%) = 1.13248 (0.0328878)
Neigh time (%) = 86.819 (2.52128)
Comm  time (%) = 70.8694 (2.05809)
Outpt time (%) = 0.000536571 (1.55824e-05)
Other time (%) = 3284.63 (95.3877)

Nlocal:    95.7 ave 1404 max 0 min
Histogram: 36 0 1 1 0 0 0 0 0 2
Nghost:    17.525 ave 212 max 0 min
Histogram: 36 0 0 0 0 1 1 0 0 2
Neighs:    23.325 ave 416 max 0 min
Histogram: 36 1 1 0 0 0 0 0 1 1

Total # of neighbors = 933
Ave neighs/atom = 0.24373
Neighbor list builds = 31728
Dangerous builds = 1740
Setting up run at Thu Dec 29 12:08:22 2022

Memory usage per processor = 964.609 Mbytes
    Step    Atoms         KinEng            CPU 
 4012335     3828     0.31867282              0 
 4320976     3732      0.3377407      3584.7576 
Loop time of 3584.76 on 40 procs for 308641 steps with 3732 atoms, finish time Thu Dec 29 13:08:07 2022


Pair  time (%) = 1.11028 (0.0309723)
Neigh time (%) = 101.399 (2.82861)
Comm  time (%) = 84.6787 (2.36219)
Outpt time (%) = 0.000647779 (1.80704e-05)
Other time (%) = 3397.57 (94.7782)

Nlocal:    93.3 ave 1413 max 0 min
Histogram: 36 0 2 0 0 0 0 0 1 1
Nghost:    16 ave 193 max 0 min
Histogram: 36 0 0 0 0 1 1 0 0 2
Neighs:    20.175 ave 396 max 0 min
Histogram: 36 2 0 0 0 0 1 0 0 1

Total # of neighbors = 807
Ave neighs/atom = 0.216238
Neighbor list builds = 36990
Dangerous builds = 4715
Setting up run at Thu Dec 29 13:08:07 2022

Memory usage per processor = 964.609 Mbytes
    Step    Atoms         KinEng            CPU 
 4320976     3732      0.3377407              0 
 4629617     3637      4.6550686      3469.7063 
Loop time of 3469.71 on 40 procs for 308641 steps with 3637 atoms, finish time Thu Dec 29 14:05:57 2022


Pair  time (%) = 1.06304 (0.0306377)
Neigh time (%) = 96.7935 (2.78967)
Comm  time (%) = 93.6317 (2.69855)
Outpt time (%) = 0.00636661 (0.000183491)
Other time (%) = 3278.21 (94.481)

Nlocal:    90.925 ave 1407 max 0 min
Histogram: 36 0 2 0 0 0 0 0 1 1
Nghost:    15.525 ave 202 max 0 min
Histogram: 36 0 0 0 1 0 1 0 1 1
Neighs:    16.8 ave 335 max 0 min
Histogram: 36 0 2 0 0 1 0 0 0 1

Total # of neighbors = 672
Ave neighs/atom = 0.184768
Neighbor list builds = 35313
Dangerous builds = 4080
Setting up run at Thu Dec 29 14:05:57 2022

Memory usage per processor = 964.609 Mbytes
    Step    Atoms         KinEng            CPU 
 4629617     3637      4.6550686              0 
 4938258     3526     0.40664758       3444.998 
Loop time of 3445 on 40 procs for 308641 steps with 3526 atoms, finish time Thu Dec 29 15:03:22 2022


Pair  time (%) = 1.0424 (0.0302583)
Neigh time (%) = 93.8851 (2.72526)
Comm  time (%) = 87.7894 (2.54831)
Outpt time (%) = 0.000605313 (1.75708e-05)
Other time (%) = 3262.28 (94.6962)

Nlocal:    88.15 ave 1329 max 0 min
Histogram: 36 0 2 0 0 0 0 0 1 1
Nghost:    14.925 ave 186 max 0 min
Histogram: 36 0 0 0 0 1 1 0 0 2
Neighs:    15.55 ave 310 max 0 min
Histogram: 36 1 0 1 1 0 0 0 0 1

Total # of neighbors = 622
Ave neighs/atom = 0.176404
Neighbor list builds = 34234
Dangerous builds = 4218
Setting up run at Thu Dec 29 15:03:22 2022

Memory usage per processor = 964.609 Mbytes
    Step    Atoms         KinEng            CPU 
 4938258     3526     0.40664758              0 
 5246899     3421     0.31988906      3431.9741 
Loop time of 3431.97 on 40 procs for 308641 steps with 3421 atoms, finish time Thu Dec 29 16:00:34 2022


Pair  time (%) = 1.01328 (0.0295247)
Neigh time (%) = 93.5968 (2.7272)
Comm  time (%) = 96.5921 (2.81448)
Outpt time (%) = 0.000629947 (1.83552e-05)
Other time (%) = 3240.77 (94.4288)

Nlocal:    85.525 ave 1249 max 0 min
Histogram: 36 0 2 0 0 0 0 0 1 1
Nghost:    14.725 ave 180 max 0 min
Histogram: 36 0 0 0 0 2 0 0 0 2
Neighs:    12.5 ave 221 max 0 min
Histogram: 36 0 2 0 0 0 0 1 0 1

Total # of neighbors = 500
Ave neighs/atom = 0.146156
Neighbor list builds = 34125
Dangerous builds = 6922
Setting up run at Thu Dec 29 16:00:34 2022

Memory usage per processor = 964.609 Mbytes
    Step    Atoms         KinEng            CPU 
 5246899     3421     0.31988906              0 
 5555540     3281     0.16460193      3541.5314 
Loop time of 3541.53 on 40 procs for 308641 steps with 3281 atoms, finish time Thu Dec 29 16:59:35 2022


Pair  time (%) = 0.984339 (0.0277942)
Neigh time (%) = 109.124 (3.08125)
Comm  time (%) = 102.856 (2.90428)
Outpt time (%) = 0.000595221 (1.68069e-05)
Other time (%) = 3328.57 (93.9867)

Nlocal:    82.025 ave 1177 max 0 min
Histogram: 36 0 2 0 0 0 0 0 1 1
Nghost:    13.1 ave 164 max 0 min
Histogram: 36 0 0 0 1 0 1 0 0 2
Neighs:    10.05 ave 171 max 0 min
Histogram: 36 0 0 2 0 1 0 0 0 1

Total # of neighbors = 402
Ave neighs/atom = 0.122524
Neighbor list builds = 39770
Dangerous builds = 6005
Setting up run at Thu Dec 29 16:59:35 2022

Memory usage per processor = 964.609 Mbytes
    Step    Atoms         KinEng            CPU 
 5555540     3281     0.16460193              0 
 5864181     3139     0.54835626      3556.6397 
Loop time of 3556.64 on 40 procs for 308641 steps with 3139 atoms, finish time Thu Dec 29 17:58:52 2022


Pair  time (%) = 0.955406 (0.0268626)
Neigh time (%) = 117.694 (3.30912)
Comm  time (%) = 123.74 (3.47912)
Outpt time (%) = 0.000526631 (1.4807e-05)
Other time (%) = 3314.25 (93.1849)

Nlocal:    78.475 ave 1092 max 0 min
Histogram: 36 0 2 0 0 0 0 0 0 2
Nghost:    13.425 ave 168 max 0 min
Histogram: 36 0 0 0 1 1 0 0 0 2
Neighs:    7.75 ave 120 max 0 min
Histogram: 36 0 1 1 0 0 0 0 0 2

Total # of neighbors = 310
Ave neighs/atom = 0.0987576
Neighbor list builds = 42876
Dangerous builds = 5001
Setting up run at Thu Dec 29 17:58:52 2022

Memory usage per processor = 964.609 Mbytes
    Step    Atoms         KinEng            CPU 
 5864181     3139     0.54835626              0 
 6172822     3007     0.36757313       3550.135 
Loop time of 3550.14 on 40 procs for 308641 steps with 3007 atoms, finish time Thu Dec 29 18:58:02 2022


Pair  time (%) = 0.926212 (0.0260895)
Neigh time (%) = 113.185 (3.18818)
Comm  time (%) = 114.828 (3.23447)
Outpt time (%) = 0.000538789 (1.51766e-05)
Other time (%) = 3321.2 (93.5513)

Nlocal:    75.175 ave 1044 max 0 min
Histogram: 36 0 2 0 0 0 0 0 0 2
Nghost:    11.675 ave 144 max 0 min
Histogram: 36 0 0 0 0 1 1 0 1 1
Neighs:    6.7 ave 111 max 0 min
Histogram: 36 0 1 1 0 0 0 0 1 1

Total # of neighbors = 268
Ave neighs/atom = 0.0891254
Neighbor list builds = 41162
Dangerous builds = 3228
Setting up run at Thu Dec 29 18:58:02 2022

Memory usage per processor = 964.609 Mbytes
    Step    Atoms         KinEng            CPU 
 6172822     3007     0.36757313              0 
 6481463     2848     0.40307001      3558.8833 
Loop time of 3558.88 on 40 procs for 308641 steps with 2848 atoms, finish time Thu Dec 29 19:57:21 2022


Pair  time (%) = 0.894354 (0.0251302)
Neigh time (%) = 118.888 (3.3406)
Comm  time (%) = 128.035 (3.59762)
Outpt time (%) = 0.000583138 (1.63854e-05)
Other time (%) = 3311.07 (93.0366)

Nlocal:    71.2 ave 971 max 0 min
Histogram: 36 0 2 0 0 0 0 0 0 2
Nghost:    10.875 ave 141 max 0 min
Histogram: 36 0 0 0 2 0 0 0 1 1
Neighs:    4.975 ave 80 max 0 min
Histogram: 36 0 1 1 0 0 0 0 1 1

Total # of neighbors = 199
Ave neighs/atom = 0.0698736
Neighbor list builds = 43168
Dangerous builds = 4178
Setting up run at Thu Dec 29 19:57:21 2022

Memory usage per processor = 964.609 Mbytes
    Step    Atoms         KinEng            CPU 
 6481463     2848     0.40307001              0 
 6790104     2692     0.63533791       3566.781 
Loop time of 3566.79 on 40 procs for 308641 steps with 2692 atoms, finish time Thu Dec 29 20:56:48 2022


Pair  time (%) = 0.870443 (0.0244041)
Neigh time (%) = 118.708 (3.32815)
Comm  time (%) = 131.224 (3.67904)
Outpt time (%) = 0.000618329 (1.73357e-05)
Other time (%) = 3315.99 (92.9684)

Nlocal:    67.3 ave 903 max 0 min
Histogram: 36 0 2 0 0 0 0 0 0 2
Nghost:    10.6 ave 140 max 0 min
Histogram: 36 0 0 0 2 0 0 0 1 1
Neighs:    4.425 ave 68 max 0 min
Histogram: 36 0 1 0 1 0 0 0 1 1

Total # of neighbors = 177
Ave neighs/atom = 0.0657504
Neighbor list builds = 43095
Dangerous builds = 7018
Setting up run at Thu Dec 29 20:56:48 2022

Memory usage per processor = 964.609 Mbytes
    Step    Atoms         KinEng            CPU 
 6790104     2692     0.63533791              0 
 7098745     2540      1.0717029       3478.533 
Loop time of 3478.53 on 40 procs for 308641 steps with 2540 atoms, finish time Thu Dec 29 21:54:47 2022


Pair  time (%) = 0.836975 (0.0240611)
Neigh time (%) = 106.963 (3.07495)
Comm  time (%) = 122.626 (3.52522)
Outpt time (%) = 0.000503924 (1.44867e-05)
Other time (%) = 3248.11 (93.3758)

Nlocal:    63.5 ave 830 max 0 min
Histogram: 36 0 2 0 0 0 0 0 0 2
Nghost:    9.3 ave 120 max 0 min
Histogram: 36 0 0 0 2 0 0 0 1 1
Neighs:    3.95 ave 59 max 0 min
Histogram: 36 0 1 0 1 0 0 0 0 2

Total # of neighbors = 158
Ave neighs/atom = 0.0622047
Neighbor list builds = 38755
Dangerous builds = 4114
Setting up run at Thu Dec 29 21:54:47 2022

Memory usage per processor = 964.609 Mbytes
    Step    Atoms         KinEng            CPU 
 7098745     2540      1.0717029              0 
 7407386     2387     0.41855312      3583.6533 
Loop time of 3583.65 on 40 procs for 308641 steps with 2387 atoms, finish time Thu Dec 29 22:54:31 2022


Pair  time (%) = 0.825156 (0.0230255)
Neigh time (%) = 128.38 (3.58238)
Comm  time (%) = 144.503 (4.03227)
Outpt time (%) = 0.0005769 (1.60981e-05)
Other time (%) = 3309.95 (92.3623)

Nlocal:    59.675 ave 788 max 0 min
Histogram: 36 0 2 0 0 0 0 0 0 2
Nghost:    8.75 ave 121 max 0 min
Histogram: 35 1 0 0 2 0 1 0 0 1
Neighs:    2.75 ave 48 max 0 min
Histogram: 36 1 0 1 0 0 0 1 0 1

Total # of neighbors = 110
Ave neighs/atom = 0.0460829
Neighbor list builds = 46419
Dangerous builds = 5720
Setting up run at Thu Dec 29 22:54:31 2022

Memory usage per processor = 964.609 Mbytes
    Step    Atoms         KinEng            CPU 
 7407386     2387     0.41855312              0 
 7716027     2258     0.36261392      3602.0905 
Loop time of 3602.09 on 40 procs for 308641 steps with 2258 atoms, finish time Thu Dec 29 23:54:33 2022


Pair  time (%) = 0.802228 (0.0222712)
Neigh time (%) = 125.477 (3.48345)
Comm  time (%) = 140.335 (3.89594)
Outpt time (%) = 0.000553867 (1.53763e-05)
Other time (%) = 3335.48 (92.5983)

Nlocal:    56.45 ave 789 max 0 min
Histogram: 36 1 1 0 0 0 0 0 1 1
Nghost:    8.85 ave 120 max 0 min
Histogram: 36 0 0 1 1 0 0 1 0 1
Neighs:    3.375 ave 48 max 0 min
Histogram: 36 0 0 1 0 1 0 0 1 1

Total # of neighbors = 135
Ave neighs/atom = 0.0597874
Neighbor list builds = 45345
Dangerous builds = 5131
Setting up run at Thu Dec 29 23:54:33 2022

Memory usage per processor = 964.609 Mbytes
    Step    Atoms         KinEng            CPU 
 7716027     2258     0.36261392              0 
 8024668     2149     0.62906701      3500.1909 
Loop time of 3500.19 on 40 procs for 308641 steps with 2149 atoms, finish time Fri Dec 30 00:52:53 2022


Pair  time (%) = 0.789255 (0.0225489)
Neigh time (%) = 111.752 (3.19275)
Comm  time (%) = 119.063 (3.40161)
Outpt time (%) = 0.000539355 (1.54093e-05)
Other time (%) = 3268.59 (93.3831)

Nlocal:    53.725 ave 763 max 0 min
Histogram: 36 0 2 0 0 0 0 0 1 1
Nghost:    8.05 ave 108 max 0 min
Histogram: 36 0 0 1 1 0 0 0 1 1
Neighs:    2.475 ave 39 max 0 min
Histogram: 36 1 0 0 0 1 0 0 1 1

Total # of neighbors = 99
Ave neighs/atom = 0.0460679
Neighbor list builds = 40425
Dangerous builds = 3020
Setting up run at Fri Dec 30 00:52:54 2022

Memory usage per processor = 964.609 Mbytes
    Step    Atoms         KinEng            CPU 
 8024668     2149     0.62906701              0 
 8333309     2019     0.35789415      3523.1997 
Loop time of 3523.2 on 40 procs for 308641 steps with 2019 atoms, finish time Fri Dec 30 01:51:37 2022


Pair  time (%) = 0.767792 (0.0217925)
Neigh time (%) = 116.161 (3.29702)
Comm  time (%) = 113.983 (3.23521)
Outpt time (%) = 0.0059396 (0.000168585)
Other time (%) = 3292.28 (93.4458)

Nlocal:    50.475 ave 742 max 0 min
Histogram: 36 1 1 0 0 0 0 1 0 1
Nghost:    7.15 ave 97 max 0 min
Histogram: 35 1 1 0 1 0 0 0 1 1
Neighs:    2.2 ave 53 max 0 min
Histogram: 37 1 0 1 0 0 0 0 0 1

Total # of neighbors = 88
Ave neighs/atom = 0.0435859
Neighbor list builds = 41993
Dangerous builds = 2445
Setting up run at Fri Dec 30 01:51:37 2022

Memory usage per processor = 964.609 Mbytes
    Step    Atoms         KinEng            CPU 
 8333309     2019     0.35789415              0 
 8641950     1927     0.77441393      3468.6819 
Loop time of 3468.68 on 40 procs for 308641 steps with 1927 atoms, finish time Fri Dec 30 02:49:26 2022


Pair  time (%) = 0.756633 (0.0218133)
Neigh time (%) = 106.965 (3.08373)
Comm  time (%) = 107.741 (3.1061)
Outpt time (%) = 0.000761457 (2.19523e-05)
Other time (%) = 3253.22 (93.7883)

Nlocal:    48.175 ave 687 max 0 min
Histogram: 36 1 1 0 0 0 0 0 1 1
Nghost:    7.025 ave 108 max 0 min
Histogram: 36 0 1 0 1 0 1 0 0 1
Neighs:    1.825 ave 42 max 0 min
Histogram: 37 0 1 0 1 0 0 0 0 1

Total # of neighbors = 73
Ave neighs/atom = 0.0378827
Neighbor list builds = 38593
Dangerous builds = 3102
Setting up run at Fri Dec 30 02:49:26 2022

Memory usage per processor = 964.609 Mbytes
    Step    Atoms         KinEng            CPU 
 8641950     1927     0.77441393              0 
 8950591     1809     0.23078707      3383.8343 
Loop time of 3383.84 on 40 procs for 308641 steps with 1809 atoms, finish time Fri Dec 30 03:45:50 2022


Pair  time (%) = 0.737842 (0.0218049)
Neigh time (%) = 88.6673 (2.62031)
Comm  time (%) = 79.6967 (2.35521)
Outpt time (%) = 0.000582966 (1.72279e-05)
Other time (%) = 3214.74 (95.0027)

Nlocal:    45.225 ave 667 max 0 min
Histogram: 36 1 1 0 0 0 0 0 1 1
Nghost:    6.35 ave 80 max 0 min
Histogram: 36 0 0 0 2 0 0 0 1 1
Neighs:    2.075 ave 38 max 0 min
Histogram: 36 1 0 1 0 0 0 1 0 1

Total # of neighbors = 83
Ave neighs/atom = 0.0458817
Neighbor list builds = 32018
Dangerous builds = 2534
Setting up run at Fri Dec 30 03:45:50 2022

Memory usage per processor = 964.609 Mbytes
    Step    Atoms         KinEng            CPU 
 8950591     1809     0.23078707              0 
 9259232     1721     0.47231928      3434.5699 
Loop time of 3434.57 on 40 procs for 308641 steps with 1721 atoms, finish time Fri Dec 30 04:43:04 2022


Pair  time (%) = 0.738958 (0.0215153)
Neigh time (%) = 101.131 (2.9445)
Comm  time (%) = 90.1149 (2.62376)
Outpt time (%) = 0.000585494 (1.70471e-05)
Other time (%) = 3242.59 (94.4102)

Nlocal:    43.025 ave 640 max 0 min
Histogram: 36 1 1 0 0 0 0 0 1 1
Nghost:    5.65 ave 77 max 0 min
Histogram: 36 0 0 2 0 0 0 0 1 1
Neighs:    1.35 ave 27 max 0 min
Histogram: 37 0 0 0 2 0 0 0 0 1

Total # of neighbors = 54
Ave neighs/atom = 0.0313771
Neighbor list builds = 36485
Dangerous builds = 1977
Setting up run at Fri Dec 30 04:43:04 2022

Memory usage per processor = 964.609 Mbytes
    Step    Atoms         KinEng            CPU 
 9259232     1721     0.47231928              0 
 9567873     1639     0.37220524      3383.6285 
Loop time of 3383.63 on 40 procs for 308641 steps with 1639 atoms, finish time Fri Dec 30 05:39:28 2022


Pair  time (%) = 0.724814 (0.0214212)
Neigh time (%) = 90.5602 (2.67642)
Comm  time (%) = 77.2414 (2.2828)
Outpt time (%) = 0.000517514 (1.52946e-05)
Other time (%) = 3215.1 (95.0193)

Nlocal:    40.975 ave 602 max 0 min
Histogram: 36 1 1 0 0 0 0 0 1 1
Nghost:    5.575 ave 73 max 0 min
Histogram: 36 0 0 1 1 0 0 0 1 1
Neighs:    1.325 ave 25 max 0 min
Histogram: 36 1 1 0 0 0 1 0 0 1

Total # of neighbors = 53
Ave neighs/atom = 0.0323368
Neighbor list builds = 32687
Dangerous builds = 2812
Setting up run at Fri Dec 30 05:39:28 2022

Memory usage per processor = 964.609 Mbytes
    Step    Atoms         KinEng            CPU 
 9567873     1639     0.37220524              0 
 9876514     1553     0.39676289      3326.5998 
Loop time of 3326.6 on 40 procs for 308641 steps with 1553 atoms, finish time Fri Dec 30 06:34:55 2022


Pair  time (%) = 0.708174 (0.0212882)
Neigh time (%) = 77.5631 (2.3316)
Comm  time (%) = 73.6816 (2.21492)
Outpt time (%) = 0.000481003 (1.44593e-05)
Other time (%) = 3174.65 (95.4322)

Nlocal:    38.825 ave 583 max 0 min
Histogram: 35 2 1 0 0 0 0 0 1 1
Nghost:    5.5 ave 72 max 0 min
Histogram: 35 1 0 1 1 0 0 0 1 1
Neighs:    1.175 ave 19 max 0 min
Histogram: 37 0 0 0 0 1 0 0 1 1

Total # of neighbors = 47
Ave neighs/atom = 0.030264
Neighbor list builds = 28022
Dangerous builds = 2081
Setting up run at Fri Dec 30 06:34:55 2022

Memory usage per processor = 964.609 Mbytes
    Step    Atoms         KinEng            CPU 
 9876514     1553     0.39676289              0 
10185155     1470     0.28015067      3284.8646 
Loop time of 3284.87 on 40 procs for 308641 steps with 1470 atoms, finish time Fri Dec 30 07:29:40 2022


Pair  time (%) = 0.697355 (0.0212293)
Neigh time (%) = 70.8059 (2.15552)
Comm  time (%) = 66.5345 (2.02549)
Outpt time (%) = 0.000482603 (1.46917e-05)
Other time (%) = 3146.83 (95.7977)

Nlocal:    36.75 ave 558 max 0 min
Histogram: 35 3 0 0 0 0 0 0 1 1
Nghost:    5.075 ave 64 max 0 min
Histogram: 35 1 0 0 2 0 0 0 1 1
Neighs:    1.05 ave 21 max 0 min
Histogram: 37 0 1 0 0 0 1 0 0 1

Total # of neighbors = 42
Ave neighs/atom = 0.0285714
Neighbor list builds = 25607
Dangerous builds = 3846
Setting up run at Fri Dec 30 07:29:40 2022

Memory usage per processor = 964.609 Mbytes
    Step    Atoms         KinEng            CPU 
10185155     1470     0.28015067              0 
10493796     1396     0.20157312      3428.2502 
Loop time of 3428.27 on 40 procs for 308641 steps with 1396 atoms, finish time Fri Dec 30 08:26:48 2022


Pair  time (%) = 0.699355 (0.0203997)
Neigh time (%) = 102.922 (3.00217)
Comm  time (%) = 89.8315 (2.62032)
Outpt time (%) = 0.000613988 (1.79096e-05)
Other time (%) = 3234.81 (94.3571)

Nlocal:    34.9 ave 542 max 0 min
Histogram: 36 2 0 0 0 0 0 1 0 1
Nghost:    4.95 ave 57 max 0 min
Histogram: 34 2 0 0 2 0 0 0 0 2
Neighs:    0.975 ave 26 max 0 min
Histogram: 37 1 0 1 0 0 0 0 0 1

Total # of neighbors = 39
Ave neighs/atom = 0.027937
Neighbor list builds = 37251
Dangerous builds = 1944
Setting up run at Fri Dec 30 08:26:48 2022

Memory usage per processor = 964.609 Mbytes
    Step    Atoms         KinEng            CPU 
10493796     1396     0.20157312              0 
10802437     1321     0.19738155      3393.5694 
Loop time of 3393.57 on 40 procs for 308641 steps with 1321 atoms, finish time Fri Dec 30 09:23:22 2022


Pair  time (%) = 0.693587 (0.0204383)
Neigh time (%) = 87.0631 (2.56553)
Comm  time (%) = 75.9725 (2.23872)
Outpt time (%) = 0.000509984 (1.5028e-05)
Other time (%) = 3229.84 (95.1753)

Nlocal:    33.025 ave 516 max 0 min
Histogram: 35 2 1 0 0 0 0 1 0 1
Nghost:    4.5 ave 49 max 0 min
Histogram: 34 1 1 0 1 1 0 0 0 2
Neighs:    1.15 ave 30 max 0 min
Histogram: 38 0 0 0 1 0 0 0 0 1

Total # of neighbors = 46
Ave neighs/atom = 0.0348221
Neighbor list builds = 31496
Dangerous builds = 3274
Setting up run at Fri Dec 30 09:23:22 2022

Memory usage per processor = 964.609 Mbytes
    Step    Atoms         KinEng            CPU 
10802437     1321     0.19738155              0 
11111078     1266     0.19006136      3260.3927 
Loop time of 3260.39 on 40 procs for 308641 steps with 1266 atoms, finish time Fri Dec 30 10:17:42 2022


Pair  time (%) = 0.684411 (0.0209917)
Neigh time (%) = 66.3811 (2.03598)
Comm  time (%) = 57.3768 (1.75981)
Outpt time (%) = 0.000554954 (1.70211e-05)
Other time (%) = 3135.95 (96.1832)

Nlocal:    31.65 ave 492 max 0 min
Histogram: 36 1 1 0 0 0 0 1 0 1
Nghost:    4.825 ave 54 max 0 min
Histogram: 35 0 1 0 1 1 0 0 0 2
Neighs:    0.6 ave 13 max 0 min
Histogram: 37 0 1 0 0 0 1 0 0 1

Total # of neighbors = 24
Ave neighs/atom = 0.0189573
Neighbor list builds = 24044
Dangerous builds = 1764
Setting up run at Fri Dec 30 10:17:42 2022

Memory usage per processor = 964.609 Mbytes
    Step    Atoms         KinEng            CPU 
11111078     1265     0.19002038              0 
11419719     1208     0.31087531      3393.3411 
Loop time of 3393.34 on 40 procs for 308641 steps with 1208 atoms, finish time Fri Dec 30 11:14:16 2022


Pair  time (%) = 0.684428 (0.0201697)
Neigh time (%) = 91.8648 (2.70721)
Comm  time (%) = 88.6123 (2.61136)
Outpt time (%) = 0.00047262 (1.39279e-05)
Other time (%) = 3212.18 (94.6612)

Nlocal:    30.2 ave 477 max 0 min
Histogram: 36 2 0 0 0 0 0 1 0 1
Nghost:    4.625 ave 62 max 0 min
Histogram: 35 1 0 1 1 0 0 1 0 1
Neighs:    0.775 ave 21 max 0 min
Histogram: 38 0 1 0 0 0 0 0 0 1

Total # of neighbors = 31
Ave neighs/atom = 0.0256623
Neighbor list builds = 33278
Dangerous builds = 4789
Setting up run at Fri Dec 30 11:14:16 2022

Memory usage per processor = 964.609 Mbytes
    Step    Atoms         KinEng            CPU 
11419719     1208     0.31087531              0 
11728360     1160     0.15454749      3242.6658 
Loop time of 3242.67 on 40 procs for 308641 steps with 1160 atoms, finish time Fri Dec 30 12:08:18 2022


Pair  time (%) = 0.679311 (0.0209491)
Neigh time (%) = 61.7631 (1.9047)
Comm  time (%) = 51.2088 (1.57922)
Outpt time (%) = 0.000540293 (1.6662e-05)
Other time (%) = 3129.01 (96.4951)

Nlocal:    29 ave 450 max 0 min
Histogram: 36 2 0 0 0 0 0 0 1 1
Nghost:    3.975 ave 48 max 0 min
Histogram: 34 2 0 0 1 1 0 0 0 2
Neighs:    0.625 ave 17 max 0 min
Histogram: 37 1 1 0 0 0 0 0 0 1

Total # of neighbors = 25
Ave neighs/atom = 0.0215517
Neighbor list builds = 22396
Dangerous builds = 1829
Setting up run at Fri Dec 30 12:08:18 2022

Memory usage per processor = 964.609 Mbytes
    Step    Atoms         KinEng            CPU 
11728360     1160     0.15454749              0 
12037001     1125     0.24314516      3210.4979 
Loop time of 3210.5 on 40 procs for 308641 steps with 1125 atoms, finish time Fri Dec 30 13:01:49 2022


Pair  time (%) = 0.673304 (0.020972)
Neigh time (%) = 51.7754 (1.61269)
Comm  time (%) = 35.6599 (1.11073)
Outpt time (%) = 0.000586848 (1.8279e-05)
Other time (%) = 3122.39 (97.2556)

Nlocal:    28.125 ave 442 max 0 min
Histogram: 36 2 0 0 0 0 0 0 1 1
Nghost:    3.975 ave 53 max 0 min
Histogram: 36 0 0 0 2 0 0 0 1 1
Neighs:    0.875 ave 22 max 0 min
Histogram: 38 0 0 0 1 0 0 0 0 1

Total # of neighbors = 35
Ave neighs/atom = 0.0311111
Neighbor list builds = 18767
Dangerous builds = 299
Setting up run at Fri Dec 30 13:01:49 2022

Memory usage per processor = 964.609 Mbytes
    Step    Atoms         KinEng            CPU 
12037001     1125     0.24314516              0 
12345642     1090     0.24838504      3243.6717 
Loop time of 3243.67 on 40 procs for 308641 steps with 1090 atoms, finish time Fri Dec 30 13:55:53 2022


Pair  time (%) = 0.670995 (0.0206863)
Neigh time (%) = 59.1689 (1.82413)
Comm  time (%) = 37.0528 (1.14231)
Outpt time (%) = 0.00057099 (1.76032e-05)
Other time (%) = 3146.78 (97.0129)

Nlocal:    27.25 ave 431 max 0 min
Histogram: 36 2 0 0 0 0 0 0 1 1
Nghost:    3.65 ave 45 max 0 min
Histogram: 36 0 0 0 1 0 1 0 1 1
Neighs:    0.75 ave 19 max 0 min
Histogram: 38 0 0 0 0 1 0 0 0 1

Total # of neighbors = 30
Ave neighs/atom = 0.0275229
Neighbor list builds = 21433
Dangerous builds = 696
Setting up run at Fri Dec 30 13:55:53 2022

Memory usage per processor = 964.609 Mbytes
    Step    Atoms         KinEng            CPU 
12345642     1090     0.24838504              0 
12654283     1064     0.15587175      3264.1513 
Loop time of 3264.15 on 40 procs for 308641 steps with 1064 atoms, finish time Fri Dec 30 14:50:17 2022


Pair  time (%) = 0.656503 (0.0201125)
Neigh time (%) = 65.6919 (2.01253)
Comm  time (%) = 56.7966 (1.74001)
Outpt time (%) = 0.000510773 (1.5648e-05)
Other time (%) = 3141.01 (96.2273)

Nlocal:    26.6 ave 420 max 0 min
Histogram: 36 2 0 0 0 0 0 0 1 1
Nghost:    3.75 ave 46 max 0 min
Histogram: 35 1 0 0 1 0 0 2 0 1
Neighs:    0.625 ave 13 max 0 min
Histogram: 36 1 1 0 0 1 0 0 0 1

Total # of neighbors = 25
Ave neighs/atom = 0.0234962
Neighbor list builds = 23803
Dangerous builds = 29
Setting up run at Fri Dec 30 14:50:17 2022

Memory usage per processor = 964.609 Mbytes
    Step    Atoms         KinEng            CPU 
12654283     1064     0.15587175              0 
12962924     1032     0.21430851      3209.6929 
Loop time of 3209.69 on 40 procs for 308641 steps with 1032 atoms, finish time Fri Dec 30 15:43:47 2022


Pair  time (%) = 0.653656 (0.0203651)
Neigh time (%) = 54.2216 (1.68931)
Comm  time (%) = 32.9999 (1.02813)
Outpt time (%) = 0.000581059 (1.81033e-05)
Other time (%) = 3121.82 (97.2622)

Nlocal:    25.8 ave 401 max 0 min
Histogram: 36 2 0 0 0 0 0 0 1 1
Nghost:    3.575 ave 45 max 0 min
Histogram: 35 0 1 0 1 0 1 1 0 1
Neighs:    0.575 ave 12 max 0 min
Histogram: 38 0 0 0 0 0 0 0 1 1

Total # of neighbors = 23
Ave neighs/atom = 0.0222868
Neighbor list builds = 19628
Dangerous builds = 1986
Setting up run at Fri Dec 30 15:43:47 2022

Memory usage per processor = 964.609 Mbytes
    Step    Atoms         KinEng            CPU 
12962924     1032     0.21430851              0 
13271565      999     0.14525114      3396.8886 
Loop time of 3396.89 on 40 procs for 308641 steps with 999 atoms, finish time Fri Dec 30 16:40:24 2022


Pair  time (%) = 0.650081 (0.0191375)
Neigh time (%) = 56.2231 (1.65513)
Comm  time (%) = 41.6836 (1.22711)
Outpt time (%) = 0.000686119 (2.01985e-05)
Other time (%) = 3298.33 (97.0986)

Nlocal:    24.975 ave 385 max 0 min
Histogram: 36 2 0 0 0 0 0 0 1 1
Nghost:    3.65 ave 51 max 0 min
Histogram: 36 0 0 1 0 1 0 1 0 1
Neighs:    0.75 ave 15 max 0 min
Histogram: 37 1 0 0 0 0 0 0 1 1

Total # of neighbors = 30
Ave neighs/atom = 0.03003
Neighbor list builds = 20365
Dangerous builds = 851
Setting up run at Fri Dec 30 16:40:24 2022

Memory usage per processor = 964.609 Mbytes
    Step    Atoms         KinEng            CPU 
13271565      999     0.14525114              0 
13580206      973    0.078180042      3424.0642 
Loop time of 3424.06 on 40 procs for 308641 steps with 973 atoms, finish time Fri Dec 30 17:37:28 2022


Pair  time (%) = 0.65172 (0.0190335)
Neigh time (%) = 53.1286 (1.55162)
Comm  time (%) = 29.8732 (0.87245)
Outpt time (%) = 0.000543969 (1.58866e-05)
Other time (%) = 3340.41 (97.5569)

Nlocal:    24.325 ave 377 max 0 min
Histogram: 36 2 0 0 0 0 0 0 1 1
Nghost:    3.725 ave 47 max 0 min
Histogram: 36 0 0 1 0 1 0 0 0 2
Neighs:    0.875 ave 18 max 0 min
Histogram: 36 2 0 0 0 0 1 0 0 1

Total # of neighbors = 35
Ave neighs/atom = 0.0359712
Neighbor list builds = 19251
Dangerous builds = 453
Setting up run at Fri Dec 30 17:37:28 2022

Memory usage per processor = 964.609 Mbytes
    Step    Atoms         KinEng            CPU 
13580206      973    0.078180042              0 
13888847      942    0.041096234      3164.2185 
Loop time of 3164.22 on 40 procs for 308641 steps with 942 atoms, finish time Fri Dec 30 18:30:13 2022


Pair  time (%) = 0.647609 (0.0204666)
Neigh time (%) = 43.5905 (1.37761)
Comm  time (%) = 26.2254 (0.828812)
Outpt time (%) = 0.000558324 (1.76449e-05)
Other time (%) = 3093.75 (97.7731)

Nlocal:    23.55 ave 357 max 0 min
Histogram: 36 2 0 0 0 0 0 0 0 2
Nghost:    3.625 ave 41 max 0 min
Histogram: 36 0 0 0 0 1 0 1 0 2
Neighs:    0.875 ave 18 max 0 min
Histogram: 38 0 0 0 0 0 0 0 1 1

Total # of neighbors = 35
Ave neighs/atom = 0.037155
Neighbor list builds = 15806
Dangerous builds = 679
Setting up run at Fri Dec 30 18:30:13 2022

Memory usage per processor = 964.609 Mbytes
    Step    Atoms         KinEng            CPU 
13888847      942    0.041096234              0 
14197488      922      0.1075579      3197.5404 
Loop time of 3197.54 on 40 procs for 308641 steps with 922 atoms, finish time Fri Dec 30 19:23:30 2022


Pair  time (%) = 0.650383 (0.0203401)
Neigh time (%) = 51.4085 (1.60775)
Comm  time (%) = 24.4295 (0.76401)
Outpt time (%) = 0.000215109 (6.72732e-06)
Other time (%) = 3121.05 (97.6079)

Nlocal:    23.05 ave 341 max 0 min
Histogram: 36 2 0 0 0 0 0 0 0 2
Nghost:    3.35 ave 40 max 0 min
Histogram: 36 0 0 0 0 2 0 0 0 2
Neighs:    0.775 ave 19 max 0 min
Histogram: 37 1 0 0 1 0 0 0 0 1

Total # of neighbors = 31
Ave neighs/atom = 0.0336226
Neighbor list builds = 18638
Dangerous builds = 1876
Setting up run at Fri Dec 30 19:23:31 2022

Memory usage per processor = 964.609 Mbytes
    Step    Atoms         KinEng            CPU 
14197488      922      0.1075579              0 
14506129      905     0.07940452      3177.6674 
Loop time of 3177.67 on 40 procs for 308641 steps with 905 atoms, finish time Fri Dec 30 20:16:29 2022


Pair  time (%) = 0.642136 (0.0202078)
Neigh time (%) = 46.1816 (1.45332)
Comm  time (%) = 23.4253 (0.737184)
Outpt time (%) = 0.000597376 (1.87992e-05)
Other time (%) = 3107.42 (97.7893)

Nlocal:    22.625 ave 344 max 0 min
Histogram: 36 2 0 0 0 0 0 0 0 2
Nghost:    3.3 ave 43 max 0 min
Histogram: 36 0 0 0 1 1 0 0 1 1
Neighs:    0.65 ave 18 max 0 min
Histogram: 37 0 2 0 0 0 0 0 0 1

Total # of neighbors = 26
Ave neighs/atom = 0.0287293
Neighbor list builds = 16757
Dangerous builds = 15
Setting up run at Fri Dec 30 20:16:29 2022

Memory usage per processor = 964.609 Mbytes
    Step    Atoms         KinEng            CPU 
14506129      905     0.07940452              0 
14814770      879    0.090993452      3132.8519 
Loop time of 3132.85 on 40 procs for 308641 steps with 879 atoms, finish time Fri Dec 30 21:08:42 2022


Pair  time (%) = 0.644738 (0.0205799)
Neigh time (%) = 36.3559 (1.16047)
Comm  time (%) = 19.6165 (0.626154)
Outpt time (%) = 0.0203328 (0.000649017)
Other time (%) = 3076.21 (98.1921)

Nlocal:    21.975 ave 337 max 0 min
Histogram: 36 2 0 0 0 0 0 0 1 1
Nghost:    3.5 ave 47 max 0 min
Histogram: 36 0 0 0 2 0 0 0 1 1
Neighs:    0.5 ave 11 max 0 min
Histogram: 37 0 1 0 1 0 0 0 0 1

Total # of neighbors = 20
Ave neighs/atom = 0.0227531
Neighbor list builds = 13194
Dangerous builds = 729
Setting up run at Fri Dec 30 21:08:42 2022

Memory usage per processor = 964.609 Mbytes
    Step    Atoms         KinEng            CPU 
14814770      879    0.090993452              0 
15123411      853    0.091025341       3182.289 
Loop time of 3182.29 on 40 procs for 308641 steps with 853 atoms, finish time Fri Dec 30 22:01:44 2022


Pair  time (%) = 0.645535 (0.0202852)
Neigh time (%) = 47.0542 (1.47863)
Comm  time (%) = 23.9103 (0.751354)
Outpt time (%) = 0.000499255 (1.56886e-05)
Other time (%) = 3110.68 (97.7497)

Nlocal:    21.325 ave 334 max 0 min
Histogram: 36 2 0 0 0 0 0 0 1 1
Nghost:    3.35 ave 54 max 0 min
Histogram: 36 0 1 1 0 0 1 0 0 1
Neighs:    0.575 ave 14 max 0 min
Histogram: 37 1 0 1 0 0 0 0 0 1

Total # of neighbors = 23
Ave neighs/atom = 0.0269637
Neighbor list builds = 17051
Dangerous builds = 957
Setting up run at Fri Dec 30 22:01:44 2022

Memory usage per processor = 964.609 Mbytes
    Step    Atoms         KinEng            CPU 
15123411      853    0.091025341              0 
15432052      828     0.11705933      3192.7807 
Loop time of 3192.78 on 40 procs for 308641 steps with 828 atoms, finish time Fri Dec 30 22:54:57 2022


Pair  time (%) = 0.638152 (0.0199873)
Neigh time (%) = 49.5743 (1.5527)
Comm  time (%) = 26.6416 (0.834433)
Outpt time (%) = 0.000578297 (1.81127e-05)
Other time (%) = 3115.93 (97.5929)

Nlocal:    20.7 ave 328 max 0 min
Histogram: 36 2 0 0 0 0 0 0 1 1
Nghost:    3.2 ave 42 max 0 min
Histogram: 35 1 0 0 2 0 1 0 0 1
Neighs:    0.45 ave 12 max 0 min
Histogram: 38 0 0 0 0 1 0 0 0 1

Total # of neighbors = 18
Ave neighs/atom = 0.0217391
Neighbor list builds = 17962
Dangerous builds = 268
Setting up run at Fri Dec 30 22:54:57 2022

Memory usage per processor = 964.609 Mbytes
    Step    Atoms         KinEng            CPU 
15432052      828     0.11705933              0 
15740693      807    0.094623562      3204.7305 
Loop time of 3204.73 on 40 procs for 308641 steps with 807 atoms, finish time Fri Dec 30 23:48:22 2022


Pair  time (%) = 0.638714 (0.0199303)
Neigh time (%) = 52.6163 (1.64183)
Comm  time (%) = 23.5461 (0.73473)
Outpt time (%) = 0.00028153 (8.78482e-06)
Other time (%) = 3127.93 (97.6035)

Nlocal:    20.175 ave 323 max 0 min
Histogram: 36 2 0 0 0 0 0 0 1 1
Nghost:    2.975 ave 41 max 0 min
Histogram: 36 0 0 0 2 0 0 0 1 1
Neighs:    0.425 ave 11 max 0 min
Histogram: 38 0 0 0 1 0 0 0 0 1

Total # of neighbors = 17
Ave neighs/atom = 0.0210657
Neighbor list builds = 19067
Dangerous builds = 782
Setting up run at Fri Dec 30 23:48:22 2022

Memory usage per processor = 964.609 Mbytes
    Step    Atoms         KinEng            CPU 
15740693      807    0.094623562              0 
16049334      792    0.037417235      3144.6865 
Loop time of 3144.69 on 40 procs for 308641 steps with 792 atoms, finish time Sat Dec 31 00:40:47 2022


Pair  time (%) = 0.632911 (0.0201264)
Neigh time (%) = 38.2042 (1.21488)
Comm  time (%) = 19.1615 (0.609329)
Outpt time (%) = 0.00054734 (1.74052e-05)
Other time (%) = 3086.69 (98.1556)

Nlocal:    19.8 ave 320 max 0 min
Histogram: 36 2 0 0 0 0 0 0 1 1
Nghost:    2.85 ave 37 max 0 min
Histogram: 34 2 0 2 0 0 0 0 0 2
Neighs:    0.55 ave 15 max 0 min
Histogram: 38 0 0 1 0 0 0 0 0 1

Total # of neighbors = 22
Ave neighs/atom = 0.0277778
Neighbor list builds = 13851
Dangerous builds = 153
Setting up run at Sat Dec 31 00:40:47 2022

Memory usage per processor = 964.609 Mbytes
    Step    Atoms         KinEng            CPU 
16049334      792    0.037417235              0 
16357975      768     0.79783506      3112.4963 
Loop time of 3112.5 on 40 procs for 308641 steps with 768 atoms, finish time Sat Dec 31 01:32:39 2022


Pair  time (%) = 0.625606 (0.0200998)
Neigh time (%) = 31.8295 (1.02264)
Comm  time (%) = 17.9733 (0.577456)
Outpt time (%) = 0.0219918 (0.000706564)
Other time (%) = 3062.05 (98.3791)

Nlocal:    19.2 ave 317 max 0 min
Histogram: 36 2 0 0 0 0 0 0 1 1
Nghost:    2.725 ave 41 max 0 min
Histogram: 35 1 1 1 0 0 1 0 0 1
Neighs:    0.575 ave 14 max 0 min
Histogram: 37 1 0 0 0 1 0 0 0 1

Total # of neighbors = 23
Ave neighs/atom = 0.0299479
Neighbor list builds = 11544
Dangerous builds = 25
Setting up run at Sat Dec 31 01:32:39 2022

Memory usage per processor = 964.609 Mbytes
    Step    Atoms         KinEng            CPU 
16357975      768     0.79783506              0 
16666616      757    0.044422992      3108.2866 
Loop time of 3108.29 on 40 procs for 308641 steps with 757 atoms, finish time Sat Dec 31 02:24:28 2022


Pair  time (%) = 0.622264 (0.0200195)
Neigh time (%) = 29.9806 (0.964537)
Comm  time (%) = 18.2292 (0.586472)
Outpt time (%) = 0.000539304 (1.73505e-05)
Other time (%) = 3059.45 (98.429)

Nlocal:    18.925 ave 304 max 0 min
Histogram: 36 2 0 0 0 0 0 0 1 1
Nghost:    2.8 ave 42 max 0 min
Histogram: 36 0 1 1 0 0 0 0 1 1
Neighs:    0.275 ave 9 max 0 min
Histogram: 37 2 0 0 0 0 0 0 0 1

Total # of neighbors = 11
Ave neighs/atom = 0.014531
Neighbor list builds = 10878
Dangerous builds = 204
Setting up run at Sat Dec 31 02:24:28 2022

Memory usage per processor = 964.609 Mbytes
    Step    Atoms         KinEng            CPU 
16666616      757    0.044422992              0 
16975257      734    0.015985535       3143.482 
Loop time of 3143.48 on 40 procs for 308641 steps with 734 atoms, finish time Sat Dec 31 03:16:51 2022


Pair  time (%) = 0.626562 (0.0199321)
Neigh time (%) = 37.9403 (1.20695)
Comm  time (%) = 18.4846 (0.588028)
Outpt time (%) = 0.00046848 (1.49032e-05)
Other time (%) = 3086.43 (98.1851)

Nlocal:    18.35 ave 301 max 0 min
Histogram: 36 2 0 0 0 0 0 0 1 1
Nghost:    2.625 ave 38 max 0 min
Histogram: 35 1 1 1 0 0 0 0 1 1
Neighs:    0.375 ave 14 max 0 min
Histogram: 39 0 0 0 0 0 0 0 0 1

Total # of neighbors = 15
Ave neighs/atom = 0.020436
Neighbor list builds = 13771
Dangerous builds = 543
Setting up run at Sat Dec 31 03:16:51 2022

Memory usage per processor = 964.609 Mbytes
    Step    Atoms         KinEng            CPU 
16975257      734    0.015985535              0 
17283898      714    0.041405785      3187.0566 
Loop time of 3187.06 on 40 procs for 308641 steps with 714 atoms, finish time Sat Dec 31 04:09:58 2022


Pair  time (%) = 0.626951 (0.0196718)
Neigh time (%) = 47.4838 (1.4899)
Comm  time (%) = 23.4984 (0.737308)
Outpt time (%) = 0.000290852 (9.12603e-06)
Other time (%) = 3115.45 (97.7531)

Nlocal:    17.85 ave 287 max 0 min
Histogram: 36 2 0 0 0 0 0 0 1 1
Nghost:    2.5 ave 35 max 0 min
Histogram: 36 0 1 0 0 1 0 0 1 1
Neighs:    0.3 ave 9 max 0 min
Histogram: 37 1 1 0 0 0 0 0 0 1

Total # of neighbors = 12
Ave neighs/atom = 0.0168067
Neighbor list builds = 17235
Dangerous builds = 1187
Setting up run at Sat Dec 31 04:09:58 2022

Memory usage per processor = 964.609 Mbytes
    Step    Atoms         KinEng            CPU 
17283898      714    0.041405785              0 
17592539      699    0.029289575      3209.8593 
Loop time of 3209.86 on 40 procs for 308641 steps with 699 atoms, finish time Sat Dec 31 05:03:28 2022


Pair  time (%) = 0.62516 (0.0194763)
Neigh time (%) = 52.9022 (1.64812)
Comm  time (%) = 34.614 (1.07836)
Outpt time (%) = 0.000531785 (1.65672e-05)
Other time (%) = 3121.72 (97.254)

Nlocal:    17.475 ave 284 max 0 min
Histogram: 36 2 0 0 0 0 0 0 1 1
Nghost:    2.4 ave 32 max 0 min
Histogram: 34 2 1 0 1 0 0 1 0 1
Neighs:    0.325 ave 10 max 0 min
Histogram: 38 0 0 1 0 0 0 0 0 1

Total # of neighbors = 13
Ave neighs/atom = 0.018598
Neighbor list builds = 19184
Dangerous builds = 157
Setting up run at Sat Dec 31 05:03:28 2022

Memory usage per processor = 964.609 Mbytes
    Step    Atoms         KinEng            CPU 
17592539      699    0.029289575              0 
17901180      689    0.017005128      3095.6354 
Loop time of 3095.66 on 40 procs for 308641 steps with 689 atoms, finish time Sat Dec 31 05:55:04 2022


Pair  time (%) = 0.620633 (0.0200485)
Neigh time (%) = 28.2368 (0.91214)
Comm  time (%) = 15.1965 (0.490898)
Outpt time (%) = 0.000629368 (2.03306e-05)
Other time (%) = 3051.61 (98.5769)

Nlocal:    17.225 ave 279 max 0 min
Histogram: 36 2 0 0 0 0 0 0 1 1
Nghost:    2.1 ave 29 max 0 min
Histogram: 36 0 1 0 1 0 0 0 1 1
Neighs:    0.475 ave 13 max 0 min
Histogram: 38 0 0 0 1 0 0 0 0 1

Total # of neighbors = 19
Ave neighs/atom = 0.0275762
Neighbor list builds = 10257
Dangerous builds = 10
Setting up run at Sat Dec 31 05:55:04 2022

Memory usage per processor = 964.609 Mbytes
    Step    Atoms         KinEng            CPU 
17901180      689    0.017005128              0 
18209821      677    0.039601713      3317.2979 
Loop time of 3317.3 on 40 procs for 308641 steps with 677 atoms, finish time Sat Dec 31 06:50:21 2022


Pair  time (%) = 0.639626 (0.0192815)
Neigh time (%) = 78.7277 (2.37325)
Comm  time (%) = 29.8812 (0.900769)
Outpt time (%) = 0.000631235 (1.90286e-05)
Other time (%) = 3208.05 (96.7067)

Nlocal:    16.925 ave 271 max 0 min
Histogram: 36 2 0 0 0 0 0 0 1 1
Nghost:    2.3 ave 32 max 0 min
Histogram: 36 0 1 0 1 0 0 0 0 2
Neighs:    0.35 ave 10 max 0 min
Histogram: 37 1 0 1 0 0 0 0 0 1

Total # of neighbors = 14
Ave neighs/atom = 0.0206795
Neighbor list builds = 28553
Dangerous builds = 448
Setting up run at Sat Dec 31 06:50:21 2022

Memory usage per processor = 964.609 Mbytes
    Step    Atoms         KinEng            CPU 
18209821      677    0.039601713              0 
18518462      662    0.022283489      3157.9066 
Loop time of 3157.91 on 40 procs for 308641 steps with 662 atoms, finish time Sat Dec 31 07:42:59 2022


Pair  time (%) = 0.623558 (0.0197459)
Neigh time (%) = 42.967 (1.36062)
Comm  time (%) = 18.9753 (0.600881)
Outpt time (%) = 0.000558817 (1.76958e-05)
Other time (%) = 3095.34 (98.0187)

Nlocal:    16.55 ave 270 max 0 min
Histogram: 36 2 0 0 0 0 0 0 1 1
Nghost:    2.1 ave 33 max 0 min
Histogram: 36 0 0 1 1 0 1 0 0 1
Neighs:    0.4 ave 10 max 0 min
Histogram: 38 0 0 0 0 0 1 0 0 1

Total # of neighbors = 16
Ave neighs/atom = 0.0241692
Neighbor list builds = 15603
Dangerous builds = 583
Setting up run at Sat Dec 31 07:42:59 2022

Memory usage per processor = 964.609 Mbytes
    Step    Atoms         KinEng            CPU 
18518462      662    0.022283489              0 
18827103      653     0.01700728      3072.3384 
Loop time of 3072.34 on 40 procs for 308641 steps with 653 atoms, finish time Sat Dec 31 08:34:12 2022


Pair  time (%) = 0.610469 (0.0198698)
Neigh time (%) = 25.5206 (0.830656)
Comm  time (%) = 12.1485 (0.395414)
Outpt time (%) = 0.000569176 (1.85258e-05)
Other time (%) = 3034.06 (98.754)

Nlocal:    16.325 ave 257 max 0 min
Histogram: 36 2 0 0 0 0 0 0 0 2
Nghost:    2.325 ave 32 max 0 min
Histogram: 36 0 0 0 1 1 0 0 0 2
Neighs:    0.45 ave 10 max 0 min
Histogram: 38 0 0 0 0 0 0 0 1 1

Total # of neighbors = 18
Ave neighs/atom = 0.0275651
Neighbor list builds = 9285
Dangerous builds = 17
Setting up run at Sat Dec 31 08:34:12 2022

Memory usage per processor = 964.609 Mbytes
    Step    Atoms         KinEng            CPU 
18827103      653     0.01700728              0 
19135744      640    0.081997817      3154.3776 
Loop time of 3154.38 on 40 procs for 308641 steps with 640 atoms, finish time Sat Dec 31 09:26:46 2022


Pair  time (%) = 0.613999 (0.019465)
Neigh time (%) = 41.304 (1.30942)
Comm  time (%) = 20.0947 (0.637042)
Outpt time (%) = 0.000271049 (8.59279e-06)
Other time (%) = 3092.37 (98.0341)

Nlocal:    16 ave 251 max 0 min
Histogram: 36 2 0 0 0 0 0 0 0 2
Nghost:    2.525 ave 34 max 0 min
Histogram: 36 0 0 0 2 0 0 0 0 2
Neighs:    0.275 ave 8 max 0 min
Histogram: 38 0 0 1 0 0 0 0 0 1

Total # of neighbors = 11
Ave neighs/atom = 0.0171875
Neighbor list builds = 15027
Dangerous builds = 110
Setting up run at Sat Dec 31 09:26:46 2022

Memory usage per processor = 964.609 Mbytes
    Step    Atoms         KinEng            CPU 
19135744      640    0.081997817              0 
19444385      629    0.055771594      3157.7573 
Loop time of 3157.76 on 40 procs for 308641 steps with 629 atoms, finish time Sat Dec 31 10:19:24 2022


Pair  time (%) = 0.620343 (0.019645)
Neigh time (%) = 44.8437 (1.42011)
Comm  time (%) = 14.5773 (0.461636)
Outpt time (%) = 0.000496423 (1.57207e-05)
Other time (%) = 3097.72 (98.0986)

Nlocal:    15.725 ave 252 max 0 min
Histogram: 36 2 0 0 0 0 0 0 0 2
Nghost:    2.125 ave 28 max 0 min
Histogram: 36 0 0 0 1 1 0 0 0 2
Neighs:    0.45 ave 9 max 0 min
Histogram: 37 1 0 0 0 0 0 0 1 1

Total # of neighbors = 18
Ave neighs/atom = 0.0286169
Neighbor list builds = 16311
Dangerous builds = 514
Setting up run at Sat Dec 31 10:19:24 2022

Memory usage per processor = 964.609 Mbytes
    Step    Atoms         KinEng            CPU 
19444385      629    0.055771594              0 
19753026      621    0.011456413      3120.4668 
Loop time of 3120.47 on 40 procs for 308641 steps with 621 atoms, finish time Sat Dec 31 11:11:25 2022


Pair  time (%) = 0.611836 (0.0196072)
Neigh time (%) = 34.5923 (1.10856)
Comm  time (%) = 12.3983 (0.397323)
Outpt time (%) = 0.000545407 (1.74784e-05)
Other time (%) = 3072.86 (98.4745)

Nlocal:    15.525 ave 256 max 0 min
Histogram: 36 2 0 0 0 0 0 0 1 1
Nghost:    2.25 ave 32 max 0 min
Histogram: 36 0 0 0 2 0 0 0 1 1
Neighs:    0.4 ave 9 max 0 min
Histogram: 38 0 0 0 0 0 0 1 0 1

Total # of neighbors = 16
Ave neighs/atom = 0.0257649
Neighbor list builds = 12581
Dangerous builds = 15
Setting up run at Sat Dec 31 11:11:25 2022

Memory usage per processor = 964.609 Mbytes
    Step    Atoms         KinEng            CPU 
19753026      621    0.011456413              0 
20061667      609    0.017775919      3099.8403 
Loop time of 3099.84 on 40 procs for 308641 steps with 609 atoms, finish time Sat Dec 31 12:03:05 2022


Pair  time (%) = 0.60696 (0.0195804)
Neigh time (%) = 29.4796 (0.951004)
Comm  time (%) = 12.2786 (0.396103)
Outpt time (%) = 0.000541132 (1.74568e-05)
Other time (%) = 3057.48 (98.6333)

Nlocal:    15.225 ave 260 max 0 min
Histogram: 36 2 0 0 0 0 0 0 1 1
Nghost:    2.225 ave 31 max 0 min
Histogram: 36 0 0 1 1 0 0 1 0 1
Neighs:    0.275 ave 8 max 0 min
Histogram: 38 0 0 1 0 0 0 0 0 1

Total # of neighbors = 11
Ave neighs/atom = 0.0180624
Neighbor list builds = 10727
Dangerous builds = 276
Setting up run at Sat Dec 31 12:03:05 2022

Memory usage per processor = 964.609 Mbytes
    Step    Atoms         KinEng            CPU 
20061667      609    0.017775919              0 
20370308      601   0.0085736852      3068.0143 
Loop time of 3068.01 on 40 procs for 308641 steps with 601 atoms, finish time Sat Dec 31 12:54:13 2022


Pair  time (%) = 0.598958 (0.0195227)
Neigh time (%) = 22.7144 (0.740362)
Comm  time (%) = 10.4771 (0.341495)
Outpt time (%) = 0.000467773 (1.52468e-05)
Other time (%) = 3034.22 (98.8986)

Nlocal:    15.025 ave 259 max 0 min
Histogram: 36 2 0 0 0 0 0 1 0 1
Nghost:    2.1 ave 35 max 0 min
Histogram: 36 0 1 0 1 0 1 0 0 1
Neighs:    0.35 ave 10 max 0 min
Histogram: 37 1 0 1 0 0 0 0 0 1

Total # of neighbors = 14
Ave neighs/atom = 0.0232945
Neighbor list builds = 8267
Dangerous builds = 6
Setting up run at Sat Dec 31 12:54:13 2022

Memory usage per processor = 964.609 Mbytes
    Step    Atoms         KinEng            CPU 
20370308      601   0.0085736852              0 
20678949      595   0.0079783113      3205.5099 
Loop time of 3205.51 on 40 procs for 308641 steps with 595 atoms, finish time Sat Dec 31 13:47:38 2022


Pair  time (%) = 0.634911 (0.0198069)
Neigh time (%) = 51.3554 (1.6021)
Comm  time (%) = 15.3342 (0.47837)
Outpt time (%) = 0.00062682 (1.95544e-05)
Other time (%) = 3138.19 (97.8997)

Nlocal:    14.875 ave 264 max 0 min
Histogram: 36 2 0 0 0 0 0 1 0 1
Nghost:    2.25 ave 34 max 0 min
Histogram: 36 0 1 0 1 0 0 0 0 2
Neighs:    0.225 ave 6 max 0 min
Histogram: 37 1 0 1 0 0 0 0 0 1

Total # of neighbors = 9
Ave neighs/atom = 0.0151261
Neighbor list builds = 18657
Dangerous builds = 24
Setting up run at Sat Dec 31 13:47:38 2022

Memory usage per processor = 964.609 Mbytes
    Step    Atoms         KinEng            CPU 
20678949      595   0.0079783113              0 
20987590      580    0.017133668      3254.0862 
Loop time of 3254.09 on 40 procs for 308641 steps with 580 atoms, finish time Sat Dec 31 14:41:53 2022


Pair  time (%) = 0.622272 (0.0191227)
Neigh time (%) = 64.4817 (1.98156)
Comm  time (%) = 26.6474 (0.818889)
Outpt time (%) = 0.000577163 (1.77365e-05)
Other time (%) = 3162.34 (97.1804)

Nlocal:    14.5 ave 261 max 0 min
Histogram: 36 2 0 0 0 0 0 1 0 1
Nghost:    2.1 ave 32 max 0 min
Histogram: 36 0 1 0 1 0 0 1 0 1
Neighs:    0.35 ave 8 max 0 min
Histogram: 37 0 0 2 0 0 0 0 0 1

Total # of neighbors = 14
Ave neighs/atom = 0.0241379
Neighbor list builds = 23422
Dangerous builds = 40
Setting up run at Sat Dec 31 14:41:53 2022

Memory usage per processor = 964.609 Mbytes
    Step    Atoms         KinEng            CPU 
20987590      580    0.017133668              0 
21296231      568    0.016827008      3262.1847 
Loop time of 3262.18 on 40 procs for 308641 steps with 568 atoms, finish time Sat Dec 31 15:36:15 2022


Pair  time (%) = 0.622828 (0.0190923)
Neigh time (%) = 64.3698 (1.97321)
Comm  time (%) = 26.6967 (0.81837)
Outpt time (%) = 0.000533548 (1.63556e-05)
Other time (%) = 3170.49 (97.1893)

Nlocal:    14.2 ave 264 max 0 min
Histogram: 36 2 0 0 0 0 1 0 0 1
Nghost:    1.975 ave 29 max 0 min
Histogram: 36 0 1 0 1 0 0 0 0 2
Neighs:    0.325 ave 9 max 0 min
Histogram: 37 0 2 0 0 0 0 0 0 1

Total # of neighbors = 13
Ave neighs/atom = 0.0228873
Neighbor list builds = 23363
Dangerous builds = 70
Setting up run at Sat Dec 31 15:36:15 2022

Memory usage per processor = 964.609 Mbytes
    Step    Atoms         KinEng            CPU 
21296231      568    0.016827008              0 
21604872      560    0.038826182      3252.1268 
Loop time of 3252.13 on 40 procs for 308641 steps with 560 atoms, finish time Sat Dec 31 16:30:27 2022


Pair  time (%) = 0.625491 (0.0192333)
Neigh time (%) = 64.4962 (1.9832)
Comm  time (%) = 19.6084 (0.602939)
Outpt time (%) = 0.000533761 (1.64127e-05)
Other time (%) = 3167.4 (97.3946)

Nlocal:    14 ave 262 max 0 min
Histogram: 36 2 0 0 0 0 1 0 0 1
Nghost:    1.9 ave 27 max 0 min
Histogram: 35 1 1 0 1 0 0 0 0 2
Neighs:    0.275 ave 7 max 0 min
Histogram: 37 0 2 0 0 0 0 0 0 1

Total # of neighbors = 11
Ave neighs/atom = 0.0196429
Neighbor list builds = 23411
Dangerous builds = 603
Setting up run at Sat Dec 31 16:30:27 2022

Memory usage per processor = 964.609 Mbytes
    Step    Atoms         KinEng            CPU 
21604872      560    0.038826182              0 
21913513      557    0.020930127      3253.1831 
Loop time of 3253.18 on 40 procs for 308641 steps with 557 atoms, finish time Sat Dec 31 17:24:40 2022


Pair  time (%) = 0.624812 (0.0192062)
Neigh time (%) = 62.5285 (1.92207)
Comm  time (%) = 24.776 (0.761591)
Outpt time (%) = 0.000560229 (1.7221e-05)
Other time (%) = 3165.25 (97.2971)

Nlocal:    13.925 ave 259 max 0 min
Histogram: 36 2 0 0 0 0 1 0 0 1
Nghost:    2.1 ave 28 max 0 min
Histogram: 35 1 1 0 0 1 0 0 0 2
Neighs:    0.175 ave 5 max 0 min
Histogram: 37 0 2 0 0 0 0 0 0 1

Total # of neighbors = 7
Ave neighs/atom = 0.0125673
Neighbor list builds = 22688
Dangerous builds = 6
Setting up run at Sat Dec 31 17:24:40 2022

Memory usage per processor = 964.609 Mbytes
    Step    Atoms         KinEng            CPU 
21913513      557    0.020930127              0 
22222154      548    0.018538656      3256.5458 
Loop time of 3256.55 on 40 procs for 308641 steps with 548 atoms, finish time Sat Dec 31 18:18:57 2022


Pair  time (%) = 0.620331 (0.0190487)
Neigh time (%) = 63.5038 (1.95004)
Comm  time (%) = 28.2447 (0.86732)
Outpt time (%) = 0.000453351 (1.39212e-05)
Other time (%) = 3164.18 (97.1636)

Nlocal:    13.7 ave 254 max 0 min
Histogram: 36 2 0 0 0 0 1 0 0 1
Nghost:    2.075 ave 30 max 0 min
Histogram: 35 1 1 0 1 0 0 1 0 1
Neighs:    0.225 ave 8 max 0 min
Histogram: 38 1 0 0 0 0 0 0 0 1

Total # of neighbors = 9
Ave neighs/atom = 0.0164234
Neighbor list builds = 23048
Dangerous builds = 23
Setting up run at Sat Dec 31 18:18:57 2022

Memory usage per processor = 964.609 Mbytes
    Step    Atoms         KinEng            CPU 
22222154      548    0.018538656              0 
22530795      537     0.03688516      3240.7589 
Loop time of 3240.76 on 40 procs for 308641 steps with 537 atoms, finish time Sat Dec 31 19:12:58 2022


Pair  time (%) = 0.61638 (0.0190196)
Neigh time (%) = 61.9676 (1.91213)
Comm  time (%) = 25.2513 (0.779179)
Outpt time (%) = 0.000233911 (7.2178e-06)
Other time (%) = 3152.92 (97.2897)

Nlocal:    13.425 ave 249 max 0 min
Histogram: 36 2 0 0 0 0 0 1 0 1
Nghost:    1.65 ave 24 max 0 min
Histogram: 36 1 0 0 0 1 0 0 0 2
Neighs:    0.35 ave 8 max 0 min
Histogram: 38 0 0 0 0 0 0 1 0 1

Total # of neighbors = 14
Ave neighs/atom = 0.0260708
Neighbor list builds = 22494
Dangerous builds = 14
Setting up run at Sat Dec 31 19:12:58 2022

Memory usage per processor = 964.609 Mbytes
    Step    Atoms         KinEng            CPU 
22530795      537     0.03688516              0 
22839436      534      0.1256313      3254.4978 
Loop time of 3254.5 on 40 procs for 308641 steps with 534 atoms, finish time Sat Dec 31 20:07:12 2022


Pair  time (%) = 0.616537 (0.0189442)
Neigh time (%) = 63.7121 (1.95766)
Comm  time (%) = 25.2999 (0.777382)
Outpt time (%) = 0.000574897 (1.76647e-05)
Other time (%) = 3164.87 (97.246)

Nlocal:    13.35 ave 241 max 0 min
Histogram: 36 2 0 0 0 0 0 1 0 1
Nghost:    1.675 ave 25 max 0 min
Histogram: 36 1 0 0 1 0 0 0 1 1
Neighs:    0.25 ave 7 max 0 min
Histogram: 38 0 0 0 1 0 0 0 0 1

Total # of neighbors = 10
Ave neighs/atom = 0.0187266
Neighbor list builds = 23136
Dangerous builds = 3
Setting up run at Sat Dec 31 20:07:12 2022

Memory usage per processor = 964.609 Mbytes
    Step    Atoms         KinEng            CPU 
22839436      534      0.1256313              0 
23148077      528    0.045547576      3250.8406 
Loop time of 3250.84 on 40 procs for 308641 steps with 528 atoms, finish time Sat Dec 31 21:01:23 2022


Pair  time (%) = 0.619137 (0.0190454)
Neigh time (%) = 62.7383 (1.92991)
Comm  time (%) = 25.6157 (0.787972)
Outpt time (%) = 0.000570423 (1.75469e-05)
Other time (%) = 3161.87 (97.2631)

Nlocal:    13.2 ave 239 max 0 min
Histogram: 36 2 0 0 0 0 0 1 0 1
Nghost:    1.65 ave 20 max 0 min
Histogram: 32 4 1 0 0 0 1 0 0 2
Neighs:    0.225 ave 9 max 0 min
Histogram: 39 0 0 0 0 0 0 0 0 1

Total # of neighbors = 9
Ave neighs/atom = 0.0170455
Neighbor list builds = 22773
Dangerous builds = 558
Setting up run at Sat Dec 31 21:01:23 2022

Memory usage per processor = 964.609 Mbytes
    Step    Atoms         KinEng            CPU 
23148077      528    0.045547576              0 
23456718      525    0.048655341      3241.6153 
Loop time of 3241.62 on 40 procs for 308641 steps with 525 atoms, finish time Sat Dec 31 21:55:25 2022


Pair  time (%) = 0.617572 (0.0190514)
Neigh time (%) = 61.8626 (1.90839)
Comm  time (%) = 18.7046 (0.577014)
Outpt time (%) = 0.000548838 (1.6931e-05)
Other time (%) = 3160.43 (97.4955)

Nlocal:    13.125 ave 229 max 0 min
Histogram: 36 2 0 0 0 0 0 1 0 1
Nghost:    1.5 ave 23 max 0 min
Histogram: 36 0 1 0 0 1 0 1 0 1
Neighs:    0.225 ave 6 max 0 min
Histogram: 38 0 0 0 0 1 0 0 0 1

Total # of neighbors = 9
Ave neighs/atom = 0.0171429
Neighbor list builds = 22449
Dangerous builds = 3
Setting up run at Sat Dec 31 21:55:25 2022

Memory usage per processor = 964.609 Mbytes
    Step    Atoms         KinEng            CPU 
23456718      525    0.048655341              0 
23765359      511     0.03576342      3236.1274 
Loop time of 3236.13 on 40 procs for 308641 steps with 511 atoms, finish time Sat Dec 31 22:49:21 2022


Pair  time (%) = 0.611123 (0.0188844)
Neigh time (%) = 61.1233 (1.88878)
Comm  time (%) = 17.7983 (0.549988)
Outpt time (%) = 0.000481335 (1.48738e-05)
Other time (%) = 3156.59 (97.5423)

Nlocal:    12.775 ave 223 max 0 min
Histogram: 36 2 0 0 0 0 0 0 1 1
Nghost:    1.425 ave 22 max 0 min
Histogram: 36 0 0 1 0 1 1 0 0 1
Neighs:    0.25 ave 6 max 0 min
Histogram: 37 1 0 0 0 1 0 0 0 1

Total # of neighbors = 10
Ave neighs/atom = 0.0195695
Neighbor list builds = 22207
Dangerous builds = 203
Setting up run at Sat Dec 31 22:49:21 2022

Memory usage per processor = 964.609 Mbytes
    Step    Atoms         KinEng            CPU 
23765359      511     0.03576342              0 
24074000      504    0.015137474        3120.68 
Loop time of 3120.68 on 40 procs for 308641 steps with 504 atoms, finish time Sat Dec 31 23:41:22 2022


Pair  time (%) = 0.595331 (0.019077)
Neigh time (%) = 33.774 (1.08226)
Comm  time (%) = 9.87112 (0.316313)
Outpt time (%) = 9.63034e-05 (3.08597e-06)
Other time (%) = 3076.44 (98.5823)

Nlocal:    12.6 ave 222 max 0 min
Histogram: 36 2 0 0 0 0 0 0 1 1
Nghost:    1.4 ave 21 max 0 min
Histogram: 36 0 1 0 0 1 0 1 0 1
Neighs:    0.275 ave 8 max 0 min
Histogram: 38 0 0 1 0 0 0 0 0 1

Total # of neighbors = 11
Ave neighs/atom = 0.0218254
Neighbor list builds = 12274
Dangerous builds = 21
Setting up run at Sat Dec 31 23:41:22 2022

Memory usage per processor = 964.609 Mbytes
    Step    Atoms         KinEng            CPU 
24074000      504    0.015137474              0 
24382641      501    0.015093398      3047.0983 
Loop time of 3047.11 on 40 procs for 308641 steps with 501 atoms, finish time Sun Jan  1 00:32:09 2023


Pair  time (%) = 0.590736 (0.0193868)
Neigh time (%) = 19.5465 (0.641476)
Comm  time (%) = 8.60717 (0.28247)
Outpt time (%) = 0.0205605 (0.000674754)
Other time (%) = 3018.34 (99.056)

Nlocal:    12.525 ave 214 max 0 min
Histogram: 36 2 0 0 0 0 0 0 1 1
Nghost:    1.6 ave 27 max 0 min
Histogram: 36 0 1 0 0 2 0 0 0 1
Neighs:    0.375 ave 9 max 0 min
Histogram: 38 0 0 0 0 0 1 0 0 1

Total # of neighbors = 15
Ave neighs/atom = 0.0299401
Neighbor list builds = 7116
Dangerous builds = 7
Setting up run at Sun Jan  1 00:32:09 2023

Memory usage per processor = 964.609 Mbytes
    Step    Atoms         KinEng            CPU 
24382641      501    0.015093398              0 
24691282      497   0.0083550872      3057.0596 
Loop time of 3057.06 on 40 procs for 308641 steps with 497 atoms, finish time Sun Jan  1 01:23:07 2023


Pair  time (%) = 0.596735 (0.0195199)
Neigh time (%) = 19.6534 (0.642884)
Comm  time (%) = 7.53865 (0.246598)
Outpt time (%) = 0.00049139 (1.60739e-05)
Other time (%) = 3029.27 (99.091)

Nlocal:    12.425 ave 213 max 0 min
Histogram: 36 2 0 0 0 0 0 0 1 1
Nghost:    1.75 ave 29 max 0 min
Histogram: 36 0 1 0 1 0 1 0 0 1
Neighs:    0.3 ave 7 max 0 min
Histogram: 38 0 0 0 0 0 0 1 0 1

Total # of neighbors = 12
Ave neighs/atom = 0.0241449
Neighbor list builds = 7157
Dangerous builds = 3
Setting up run at Sun Jan  1 01:23:07 2023

Memory usage per processor = 964.609 Mbytes
    Step    Atoms         KinEng            CPU 
24691282      497   0.0083550872              0 
24999923      490   0.0012335228      3065.7068 
Loop time of 3065.71 on 40 procs for 308641 steps with 490 atoms, finish time Sun Jan  1 02:14:12 2023


Pair  time (%) = 0.59366 (0.0193645)
Neigh time (%) = 20.686 (0.674754)
Comm  time (%) = 6.95845 (0.226977)
Outpt time (%) = 0.000493178 (1.60869e-05)
Other time (%) = 3037.47 (99.0789)

Nlocal:    12.25 ave 209 max 0 min
Histogram: 36 2 0 0 0 0 0 0 1 1
Nghost:    1.825 ave 29 max 0 min
Histogram: 36 0 0 0 2 1 0 0 0 1
Neighs:    0.225 ave 7 max 0 min
Histogram: 38 0 1 0 0 0 0 0 0 1

Total # of neighbors = 9
Ave neighs/atom = 0.0183673
Neighbor list builds = 7512
Dangerous builds = 6
Setting up run at Sun Jan  1 02:14:12 2023

Memory usage per processor = 964.609 Mbytes
    Step    Atoms         KinEng            CPU 
24999923      490   0.0012335228              0 
25308564      487   0.0010908481       3005.364 
Loop time of 3005.36 on 40 procs for 308641 steps with 487 atoms, finish time Sun Jan  1 03:04:18 2023


Pair  time (%) = 0.579421 (0.0192796)
Neigh time (%) = 9.42095 (0.313471)
Comm  time (%) = 6.08245 (0.202386)
Outpt time (%) = 0.000577812 (1.9226e-05)
Other time (%) = 2989.28 (99.4648)

Nlocal:    12.175 ave 209 max 0 min
Histogram: 36 2 0 0 0 0 0 0 1 1
Nghost:    1.75 ave 23 max 0 min
Histogram: 35 1 0 1 0 1 0 1 0 1
Neighs:    0.2 ave 5 max 0 min
Histogram: 38 0 0 0 0 0 1 0 0 1

Total # of neighbors = 8
Ave neighs/atom = 0.0164271
Neighbor list builds = 3443
Dangerous builds = 3
Setting up run at Sun Jan  1 03:04:18 2023

Memory usage per processor = 964.609 Mbytes
    Step    Atoms         KinEng            CPU 
25308564      487   0.0010908481              0 
25617205      485   0.0041272123      3017.3337 
Loop time of 3017.33 on 40 procs for 308641 steps with 485 atoms, finish time Sun Jan  1 03:54:35 2023


Pair  time (%) = 0.581735 (0.0192798)
Neigh time (%) = 11.9546 (0.396197)
Comm  time (%) = 6.20311 (0.205582)
Outpt time (%) = 0.000226775 (7.51573e-06)
Other time (%) = 2998.59 (99.3789)

Nlocal:    12.125 ave 204 max 0 min
Histogram: 36 2 0 0 0 0 0 0 1 1
Nghost:    1.875 ave 29 max 0 min
Histogram: 36 0 0 1 1 0 0 1 0 1
Neighs:    0.35 ave 7 max 0 min
Histogram: 37 1 0 0 0 0 0 0 1 1

Total # of neighbors = 14
Ave neighs/atom = 0.028866
Neighbor list builds = 4359
Dangerous builds = 1
Setting up run at Sun Jan  1 03:54:35 2023

Memory usage per processor = 964.609 Mbytes
    Step    Atoms         KinEng            CPU 
25617205      485   0.0041272123              0 
25925846      477   0.0039543644      3034.7488 
Loop time of 3034.75 on 40 procs for 308641 steps with 477 atoms, finish time Sun Jan  1 04:45:10 2023


Pair  time (%) = 0.590092 (0.0194445)
Neigh time (%) = 16.6179 (0.547587)
Comm  time (%) = 5.88183 (0.193816)
Outpt time (%) = 0.000591113 (1.94781e-05)
Other time (%) = 3011.66 (99.2391)

Nlocal:    11.925 ave 202 max 0 min
Histogram: 37 1 0 0 0 0 0 0 0 2
Nghost:    1.625 ave 25 max 0 min
Histogram: 36 0 0 1 1 0 0 1 0 1
Neighs:    0.25 ave 6 max 0 min
Histogram: 38 0 0 0 0 0 1 0 0 1

Total # of neighbors = 10
Ave neighs/atom = 0.0209644
Neighbor list builds = 6054
Dangerous builds = 557
Setting up run at Sun Jan  1 04:45:10 2023

Memory usage per processor = 964.609 Mbytes
    Step    Atoms         KinEng            CPU 
25925846      477   0.0039543644              0 
26234487      473   0.0018797197      3027.6643 
Loop time of 3027.66 on 40 procs for 308641 steps with 473 atoms, finish time Sun Jan  1 05:35:38 2023


Pair  time (%) = 0.5839 (0.0192855)
Neigh time (%) = 12.0474 (0.397911)
Comm  time (%) = 5.5709 (0.184)
Outpt time (%) = 0.000509924 (1.68421e-05)
Other time (%) = 3009.46 (99.3988)

Nlocal:    11.825 ave 203 max 0 min
Histogram: 37 1 0 0 0 0 0 0 1 1
Nghost:    1.625 ave 24 max 0 min
Histogram: 36 0 0 2 0 0 0 0 1 1
Neighs:    0.275 ave 6 max 0 min
Histogram: 38 0 0 0 0 0 0 0 1 1

Total # of neighbors = 11
Ave neighs/atom = 0.0232558
Neighbor list builds = 4396
Dangerous builds = 3
Setting up run at Sun Jan  1 05:35:38 2023

Memory usage per processor = 964.609 Mbytes
    Step    Atoms         KinEng            CPU 
26234487      473   0.0018797197              0 
26543128      468    0.001021972      3000.6544 
Loop time of 3000.65 on 40 procs for 308641 steps with 468 atoms, finish time Sun Jan  1 06:25:39 2023


Pair  time (%) = 0.583815 (0.0194563)
Neigh time (%) = 10.7286 (0.357542)
Comm  time (%) = 5.19518 (0.173135)
Outpt time (%) = 0.00328508 (0.000109479)
Other time (%) = 2984.14 (99.4498)

Nlocal:    11.7 ave 194 max 0 min
Histogram: 37 1 0 0 0 0 0 0 0 2
Nghost:    1.6 ave 24 max 0 min
Histogram: 35 1 0 1 0 2 0 0 0 1
Neighs:    0.25 ave 10 max 0 min
Histogram: 39 0 0 0 0 0 0 0 0 1

Total # of neighbors = 10
Ave neighs/atom = 0.0213675
Neighbor list builds = 3919
Dangerous builds = 5
Setting up run at Sun Jan  1 06:25:39 2023

Memory usage per processor = 964.609 Mbytes
    Step    Atoms         KinEng            CPU 
26543128      468    0.001021972              0 
26851769      463   0.0010576287      3006.9221 
Loop time of 3006.92 on 40 procs for 308641 steps with 463 atoms, finish time Sun Jan  1 07:15:46 2023


Pair  time (%) = 0.57949 (0.0192719)
Neigh time (%) = 9.19871 (0.305918)
Comm  time (%) = 5.64774 (0.187824)
Outpt time (%) = 0.00027479 (9.13857e-06)
Other time (%) = 2991.5 (99.487)

Nlocal:    11.575 ave 190 max 0 min
Histogram: 36 2 0 0 0 0 0 0 0 2
Nghost:    1.525 ave 19 max 0 min
Histogram: 35 1 0 0 0 1 1 1 0 1
Neighs:    0.225 ave 7 max 0 min
Histogram: 37 2 0 0 0 0 0 0 0 1

Total # of neighbors = 9
Ave neighs/atom = 0.0194384
Neighbor list builds = 3362
Dangerous builds = 4
Setting up run at Sun Jan  1 07:15:46 2023

Memory usage per processor = 964.609 Mbytes
    Step    Atoms         KinEng            CPU 
26851769      463   0.0010576287              0 
27160410      457  0.00084382292      3023.9695 
Loop time of 3023.97 on 40 procs for 308641 steps with 457 atoms, finish time Sun Jan  1 08:06:10 2023


Pair  time (%) = 0.579151 (0.019152)
Neigh time (%) = 14.7076 (0.486367)
Comm  time (%) = 7.54444 (0.249488)
Outpt time (%) = 0.000522505 (1.72788e-05)
Other time (%) = 3001.14 (99.245)

Nlocal:    11.425 ave 191 max 0 min
Histogram: 37 1 0 0 0 0 0 0 0 2
Nghost:    1.5 ave 21 max 0 min
Histogram: 35 1 0 0 2 0 1 0 0 1
Neighs:    0.175 ave 6 max 0 min
Histogram: 38 1 0 0 0 0 0 0 0 1

Total # of neighbors = 7
Ave neighs/atom = 0.0153173
Neighbor list builds = 5370
Dangerous builds = 4
Setting up run at Sun Jan  1 08:06:10 2023

Memory usage per processor = 964.609 Mbytes
    Step    Atoms         KinEng            CPU 
27160410      457  0.00084382292              0 
27469051      452   0.0010480874      3016.4366 
Loop time of 3016.44 on 40 procs for 308641 steps with 452 atoms, finish time Sun Jan  1 08:56:26 2023


Pair  time (%) = 0.574188 (0.0190353)
Neigh time (%) = 13.0125 (0.431386)
Comm  time (%) = 6.79046 (0.225115)
Outpt time (%) = 0.000556157 (1.84376e-05)
Other time (%) = 2996.06 (99.3244)

Nlocal:    11.3 ave 191 max 0 min
Histogram: 36 2 0 0 0 0 0 0 0 2
Nghost:    1.4 ave 19 max 0 min
Histogram: 35 1 0 1 1 0 0 0 1 1
Neighs:    0.125 ave 4 max 0 min
Histogram: 38 0 1 0 0 0 0 0 0 1

Total # of neighbors = 5
Ave neighs/atom = 0.0110619
Neighbor list builds = 4751
Dangerous builds = 754
Setting up run at Sun Jan  1 08:56:26 2023

Memory usage per processor = 964.609 Mbytes
    Step    Atoms         KinEng            CPU 
27469051      452   0.0010480874              0 
27777692      449    0.001379305      3030.9453 
Loop time of 3030.97 on 40 procs for 308641 steps with 449 atoms, finish time Sun Jan  1 09:46:57 2023


Pair  time (%) = 0.588236 (0.0194075)
Neigh time (%) = 16.6431 (0.5491)
Comm  time (%) = 5.56702 (0.183671)
Outpt time (%) = 0.0103779 (0.000342396)
Other time (%) = 3008.16 (99.2475)

Nlocal:    11.225 ave 189 max 0 min
Histogram: 36 2 0 0 0 0 0 0 0 2
Nghost:    1.25 ave 17 max 0 min
Histogram: 36 0 0 1 1 0 0 0 0 2
Neighs:    0.25 ave 7 max 0 min
Histogram: 37 1 1 0 0 0 0 0 0 1

Total # of neighbors = 10
Ave neighs/atom = 0.0222717
Neighbor list builds = 6067
Dangerous builds = 312
Setting up run at Sun Jan  1 09:46:58 2023

Memory usage per processor = 964.609 Mbytes
    Step    Atoms         KinEng            CPU 
27777692      449    0.001379305              0 
28086333      446    0.014419813      3056.4646 
Loop time of 3056.46 on 40 procs for 308641 steps with 446 atoms, finish time Sun Jan  1 10:37:54 2023


Pair  time (%) = 0.592863 (0.019397)
Neigh time (%) = 22.119 (0.723679)
Comm  time (%) = 6.06943 (0.198577)
Outpt time (%) = 0.000534779 (1.74967e-05)
Other time (%) = 3027.68 (99.0583)

Nlocal:    11.15 ave 189 max 0 min
Histogram: 37 1 0 0 0 0 0 0 0 2
[...]
Nghost:    0.975 ave 14 max 0 min
Histogram: 35 1 0 1 0 1 0 1 0 1
Neighs:    0.25 ave 6 max 0 min
Histogram: 38 0 0 0 0 0 1 0 0 1

Total # of neighbors = 10
Ave neighs/atom = 0.0314465
Neighbor list builds = 3256
Dangerous builds = 1
Setting up run at Tue Jan  3 03:41:50 2023

Memory usage per processor = 964.609 Mbytes
    Step    Atoms         KinEng            CPU 
43209838      318   0.0021268148              0 
43518479      317  0.00097170053      3016.2322 
Loop time of 3016.23 on 40 procs for 308641 steps with 317 atoms, finish time Tue Jan  3 04:32:06 2023


Pair  time (%) = 0.576611 (0.0191169)
Neigh time (%) = 9.03502 (0.299547)
Comm  time (%) = 5.70155 (0.189029)
Outpt time (%) = 0.000545977 (1.81013e-05)
Other time (%) = 3000.92 (99.4923)

Nlocal:    7.925 ave 154 max 0 min
Histogram: 37 1 0 0 0 0 0 1 0 1
Nghost:    0.925 ave 9 max 0 min
Histogram: 32 3 1 0 0 0 1 0 1 2
Neighs:    0.475 ave 11 max 0 min
Histogram: 38 0 0 0 0 1 0 0 0 1

Total # of neighbors = 19
Ave neighs/atom = 0.0599369
Neighbor list builds = 3338
Dangerous builds = 1
Setting up run at Tue Jan  3 04:32:06 2023

Memory usage per processor = 964.609 Mbytes
    Step    Atoms         KinEng            CPU 
43518479      317  0.00097170053              0 
43827120      313  0.00081702116      3011.3804 
Loop time of 3011.38 on 40 procs for 308641 steps with 313 atoms, finish time Tue Jan  3 05:22:18 2023


Pair  time (%) = 0.572004 (0.0189947)
Neigh time (%) = 10.1239 (0.336187)
Comm  time (%) = 5.68598 (0.188816)
Outpt time (%) = 0.000510261 (1.69444e-05)
Other time (%) = 2995 (99.456)

Nlocal:    7.825 ave 153 max 0 min
Histogram: 37 1 0 0 0 0 0 1 0 1
Nghost:    0.925 ave 10 max 0 min
Histogram: 34 1 1 0 0 0 1 0 1 2
Neighs:    0.35 ave 9 max 0 min
Histogram: 38 0 0 0 0 1 0 0 0 1

Total # of neighbors = 14
Ave neighs/atom = 0.0447284
Neighbor list builds = 3729
Dangerous builds = 111
Setting up run at Tue Jan  3 05:22:18 2023

Memory usage per processor = 964.609 Mbytes
    Step    Atoms         KinEng            CPU 
43827120      313  0.00081702116              0 
44135761      311  0.00083109885      3044.8519 
Loop time of 3044.85 on 40 procs for 308641 steps with 311 atoms, finish time Tue Jan  3 06:13:03 2023


Pair  time (%) = 0.593129 (0.0194797)
Neigh time (%) = 11.7884 (0.387159)
Comm  time (%) = 6.62729 (0.217655)
Outpt time (%) = 0.000516257 (1.69551e-05)
Other time (%) = 3025.84 (99.3757)

Nlocal:    7.775 ave 148 max 0 min
Histogram: 37 1 0 0 0 0 0 0 1 1
Nghost:    0.95 ave 14 max 0 min
Histogram: 36 0 1 0 0 1 0 1 0 1
Neighs:    0.275 ave 9 max 0 min
Histogram: 38 0 1 0 0 0 0 0 0 1

Total # of neighbors = 11
Ave neighs/atom = 0.0353698
Neighbor list builds = 4342
Dangerous builds = 2
Setting up run at Tue Jan  3 06:13:03 2023

Memory usage per processor = 964.609 Mbytes
    Step    Atoms         KinEng            CPU 
44135761      311  0.00083109885              0 
44444402      306  0.00080708693      3004.4002 
Loop time of 3004.4 on 40 procs for 308641 steps with 306 atoms, finish time Tue Jan  3 07:03:07 2023


Pair  time (%) = 0.574627 (0.0191262)
Neigh time (%) = 8.69839 (0.289522)
Comm  time (%) = 4.36851 (0.145404)
Outpt time (%) = 0.000481164 (1.60153e-05)
Other time (%) = 2990.76 (99.5459)

Nlocal:    7.65 ave 146 max 0 min
Histogram: 37 1 0 0 0 0 0 0 1 1
Nghost:    0.925 ave 13 max 0 min
Histogram: 35 1 0 2 0 0 0 0 0 2
Neighs:    0.275 ave 8 max 0 min
Histogram: 38 0 0 1 0 0 0 0 0 1

Total # of neighbors = 11
Ave neighs/atom = 0.0359477
Neighbor list builds = 3211
Dangerous builds = 4
Setting up run at Tue Jan  3 07:03:07 2023

Memory usage per processor = 964.609 Mbytes
    Step    Atoms         KinEng            CPU 
44444402      306  0.00080708693              0 
44753043      305  0.00079877708      3015.0637 
Loop time of 3015.06 on 40 procs for 308641 steps with 305 atoms, finish time Tue Jan  3 07:53:23 2023


Pair  time (%) = 0.575454 (0.019086)
Neigh time (%) = 8.69185 (0.288281)
Comm  time (%) = 5.00861 (0.16612)
Outpt time (%) = 0.000552038 (1.83093e-05)
Other time (%) = 3000.79 (99.5265)

Nlocal:    7.625 ave 144 max 0 min
Histogram: 37 1 0 0 0 0 0 0 1 1
Nghost:    0.725 ave 11 max 0 min
Histogram: 35 1 0 1 1 0 1 0 0 1
Neighs:    0.3 ave 6 max 0 min
Histogram: 38 0 0 0 0 0 0 0 0 2

Total # of neighbors = 12
Ave neighs/atom = 0.0393443
Neighbor list builds = 3206
Dangerous builds = 0
Setting up run at Tue Jan  3 07:53:23 2023

Memory usage per processor = 964.609 Mbytes
    Step    Atoms         KinEng            CPU 
44753043      305  0.00079877708              0 
45061684      304  0.00079203218      3000.0689 
Loop time of 3000.07 on 40 procs for 308641 steps with 304 atoms, finish time Tue Jan  3 08:43:23 2023


Pair  time (%) = 0.572647 (0.0190878)
Neigh time (%) = 8.68629 (0.289536)
Comm  time (%) = 4.83815 (0.161268)
Outpt time (%) = 0.000508033 (1.6934e-05)
Other time (%) = 2985.97 (99.5301)

Nlocal:    7.6 ave 146 max 0 min
Histogram: 37 1 0 0 0 0 0 0 1 1
Nghost:    0.825 ave 11 max 0 min
Histogram: 35 1 0 1 1 0 0 0 0 2
Neighs:    0.3 ave 8 max 0 min
Histogram: 38 0 0 0 0 1 0 0 0 1

Total # of neighbors = 12
Ave neighs/atom = 0.0394737
Neighbor list builds = 3207
Dangerous builds = 1
Setting up run at Tue Jan  3 08:43:23 2023

Memory usage per processor = 964.609 Mbytes
    Step    Atoms         KinEng            CPU 
45061684      304  0.00079203218              0 
45370325      301   0.0030647121      3062.8861 
Loop time of 3062.89 on 40 procs for 308641 steps with 301 atoms, finish time Tue Jan  3 09:34:26 2023


Pair  time (%) = 0.570095 (0.018613)
Neigh time (%) = 9.30762 (0.303884)
Comm  time (%) = 4.9656 (0.162122)
Outpt time (%) = 0.000659314 (2.15259e-05)
Other time (%) = 3048.04 (99.5154)

Nlocal:    7.525 ave 148 max 0 min
Histogram: 38 0 0 0 0 0 0 1 0 1
Nghost:    0.8 ave 12 max 0 min
Histogram: 36 0 0 2 0 0 0 0 1 1
Neighs:    0.3 ave 7 max 0 min
Histogram: 38 0 0 0 0 0 0 1 0 1

Total # of neighbors = 12
Ave neighs/atom = 0.0398671
Neighbor list builds = 3435
Dangerous builds = 1
Setting up run at Tue Jan  3 09:34:26 2023

Memory usage per processor = 964.609 Mbytes
    Step    Atoms         KinEng            CPU 
45370325      301   0.0030647121              0 
45678966      299  0.00078604916      3006.9332 
Loop time of 3006.93 on 40 procs for 308641 steps with 299 atoms, finish time Tue Jan  3 10:24:33 2023


Pair  time (%) = 0.56337 (0.0187357)
Neigh time (%) = 9.10498 (0.3028)
Comm  time (%) = 4.21149 (0.140059)
Outpt time (%) = 0.000530298 (1.76358e-05)
Other time (%) = 2993.05 (99.5384)

Nlocal:    7.475 ave 148 max 0 min
Histogram: 37 1 0 0 0 0 0 1 0 1
Nghost:    0.675 ave 11 max 0 min
Histogram: 36 0 0 2 0 0 1 0 0 1
Neighs:    0.325 ave 9 max 0 min
Histogram: 38 0 0 0 1 0 0 0 0 1

Total # of neighbors = 13
Ave neighs/atom = 0.0434783
Neighbor list builds = 3360
Dangerous builds = 2
Setting up run at Tue Jan  3 10:24:33 2023

Memory usage per processor = 964.609 Mbytes
    Step    Atoms         KinEng            CPU 
45678966      299  0.00078604916              0 
45987607      299  0.00078716704      2994.0423 
Loop time of 2994.04 on 40 procs for 308641 steps with 299 atoms, finish time Tue Jan  3 11:14:27 2023


Pair  time (%) = 0.555062 (0.0185389)
Neigh time (%) = 8.74002 (0.291914)
Comm  time (%) = 3.63024 (0.121249)
Outpt time (%) = 0.00051406 (1.71694e-05)
Other time (%) = 2981.12 (99.5683)

Nlocal:    7.475 ave 149 max 0 min
Histogram: 38 0 0 0 0 0 0 1 0 1
Nghost:    0.775 ave 13 max 0 min
Histogram: 36 0 0 2 0 0 1 0 0 1
Neighs:    0.375 ave 10 max 0 min
Histogram: 37 1 0 0 1 0 0 0 0 1

Total # of neighbors = 15
Ave neighs/atom = 0.0501672
Neighbor list builds = 3205
Dangerous builds = 0
Setting up run at Tue Jan  3 11:14:27 2023

Memory usage per processor = 964.609 Mbytes
    Step    Atoms         KinEng            CPU 
45987607      299  0.00078716704              0 
46296248      298  0.00078838946      3006.4942 
Loop time of 3006.49 on 40 procs for 308641 steps with 298 atoms, finish time Tue Jan  3 12:04:34 2023


Pair  time (%) = 0.566515 (0.018843)
Neigh time (%) = 12.0666 (0.40135)
Comm  time (%) = 4.40062 (0.14637)
Outpt time (%) = 0.00583109 (0.00019395)
Other time (%) = 2989.46 (99.4332)

Nlocal:    7.45 ave 145 max 0 min
Histogram: 38 0 0 0 0 0 0 0 1 1
Nghost:    0.775 ave 11 max 0 min
Histogram: 36 0 0 1 0 1 0 0 1 1
Neighs:    0.275 ave 7 max 0 min
Histogram: 37 1 0 0 1 0 0 0 0 1

Total # of neighbors = 11
Ave neighs/atom = 0.0369128
Neighbor list builds = 4435
Dangerous builds = 1
Setting up run at Tue Jan  3 12:04:34 2023

Memory usage per processor = 964.609 Mbytes
    Step    Atoms         KinEng            CPU 
46296248      298  0.00078838946              0 
46604889      296  0.00082043081      3016.3421 
Loop time of 3016.34 on 40 procs for 308641 steps with 296 atoms, finish time Tue Jan  3 12:54:50 2023


Pair  time (%) = 0.562768 (0.0186573)
Neigh time (%) = 12.1536 (0.402925)
Comm  time (%) = 5.26481 (0.174543)
Outpt time (%) = 0.000516629 (1.71277e-05)
Other time (%) = 2998.36 (99.4039)

Nlocal:    7.4 ave 142 max 0 min
Histogram: 37 1 0 0 0 0 0 0 1 1
Nghost:    0.95 ave 14 max 0 min
Histogram: 35 1 1 0 0 1 1 0 0 1
Neighs:    0.25 ave 7 max 0 min
Histogram: 38 0 0 0 1 0 0 0 0 1

Total # of neighbors = 10
Ave neighs/atom = 0.0337838
Neighbor list builds = 4466
Dangerous builds = 1
Setting up run at Tue Jan  3 12:54:50 2023

Memory usage per processor = 964.609 Mbytes
    Step    Atoms         KinEng            CPU 
46604889      296  0.00082043081              0 
46913530      294  0.00078926568      2986.0381 
Loop time of 2986.04 on 40 procs for 308641 steps with 294 atoms, finish time Tue Jan  3 13:44:36 2023


Pair  time (%) = 0.562642 (0.0188424)
Neigh time (%) = 9.18267 (0.30752)
Comm  time (%) = 4.90239 (0.164177)
Outpt time (%) = 0.000501057 (1.678e-05)
Other time (%) = 2971.39 (99.5094)

Nlocal:    7.35 ave 145 max 0 min
Histogram: 37 1 0 0 0 0 0 1 0 1
Nghost:    0.8 ave 13 max 0 min
Histogram: 36 0 1 1 0 0 0 0 1 1
Neighs:    0.275 ave 8 max 0 min
Histogram: 38 0 0 1 0 0 0 0 0 1

Total # of neighbors = 11
Ave neighs/atom = 0.037415
Neighbor list builds = 3385
Dangerous builds = 182
Setting up run at Tue Jan  3 13:44:36 2023

Memory usage per processor = 964.609 Mbytes
    Step    Atoms         KinEng            CPU 
46913530      294  0.00078926568              0 
47222171      293  0.00091760472      3009.2929 
Loop time of 3009.29 on 40 procs for 308641 steps with 293 atoms, finish time Tue Jan  3 14:34:46 2023


Pair  time (%) = 0.566073 (0.0188108)
Neigh time (%) = 9.39315 (0.312138)
Comm  time (%) = 6.26019 (0.208029)
Outpt time (%) = 0.000586605 (1.94931e-05)
Other time (%) = 2993.07 (99.461)

Nlocal:    7.325 ave 147 max 0 min
Histogram: 38 0 0 0 0 0 0 1 0 1
Nghost:    0.7 ave 13 max 0 min
Histogram: 36 0 2 0 0 1 0 0 0 1
Neighs:    0.3 ave 7 max 0 min
Histogram: 38 0 0 0 0 0 0 1 0 1

Total # of neighbors = 12
Ave neighs/atom = 0.0409556
Neighbor list builds = 3470
Dangerous builds = 1
Setting up run at Tue Jan  3 14:34:46 2023

Memory usage per processor = 964.609 Mbytes
    Step    Atoms         KinEng            CPU 
47222171      293  0.00091760472              0 
47530812      290  0.00087739179      3019.5674 
Loop time of 3019.57 on 40 procs for 308641 steps with 290 atoms, finish time Tue Jan  3 15:25:06 2023


Pair  time (%) = 0.576423 (0.0190896)
Neigh time (%) = 11.5706 (0.383187)
Comm  time (%) = 5.70789 (0.18903)
Outpt time (%) = 0.000510254 (1.68982e-05)
Other time (%) = 3001.71 (99.4087)

Nlocal:    7.25 ave 142 max 0 min
Histogram: 38 0 0 0 0 0 0 0 1 1
Nghost:    0.65 ave 12 max 0 min
Histogram: 36 0 2 0 0 0 1 0 0 1
Neighs:    0.25 ave 5 max 0 min
Histogram: 38 0 0 0 0 0 0 0 0 2

Total # of neighbors = 10
Ave neighs/atom = 0.0344828
Neighbor list builds = 4262
Dangerous builds = 3
Setting up run at Tue Jan  3 15:25:06 2023

Memory usage per processor = 964.609 Mbytes
    Step    Atoms         KinEng            CPU 
47530812      290  0.00087739179              0 
47839453      290    0.001100543      3003.2868 
Loop time of 3003.29 on 40 procs for 308641 steps with 290 atoms, finish time Tue Jan  3 16:15:09 2023


Pair  time (%) = 0.569554 (0.0189643)
Neigh time (%) = 9.05494 (0.3015)
Comm  time (%) = 4.69108 (0.156198)
Outpt time (%) = 0.000544959 (1.81454e-05)
Other time (%) = 2988.98 (99.5233)

Nlocal:    7.25 ave 135 max 0 min
Histogram: 37 1 0 0 0 0 0 0 1 1
Nghost:    0.65 ave 13 max 0 min
Histogram: 37 0 1 0 0 0 1 0 0 1
Neighs:    0.2 ave 4 max 0 min
Histogram: 37 0 1 0 0 0 0 1 0 1

Total # of neighbors = 8
Ave neighs/atom = 0.0275862
Neighbor list builds = 3329
Dangerous builds = 0
Setting up run at Tue Jan  3 16:15:09 2023

Memory usage per processor = 964.609 Mbytes
    Step    Atoms         KinEng            CPU 
47839453      290    0.001100543              0 
48148094      289   0.0007906368      2991.7431 
Loop time of 2991.74 on 40 procs for 308641 steps with 289 atoms, finish time Tue Jan  3 17:05:01 2023


Pair  time (%) = 0.55637 (0.0185968)
Neigh time (%) = 8.70115 (0.290839)
Comm  time (%) = 4.6597 (0.155752)
Outpt time (%) = 0.000522281 (1.74574e-05)
Other time (%) = 2977.83 (99.5348)

Nlocal:    7.225 ave 135 max 0 min
Histogram: 37 1 0 0 0 0 0 0 1 1
Nghost:    0.75 ave 11 max 0 min
Histogram: 36 1 0 1 0 0 0 0 0 2
Neighs:    0.2 ave 4 max 0 min
Histogram: 37 0 1 0 0 0 0 1 0 1

Total # of neighbors = 8
Ave neighs/atom = 0.0276817
Neighbor list builds = 3202
Dangerous builds = 0
Setting up run at Tue Jan  3 17:05:01 2023

Memory usage per processor = 964.609 Mbytes
    Step    Atoms         KinEng            CPU 
48148094      289   0.0007906368              0 
48456735      289  0.00079512312      2993.2661 
Loop time of 2993.27 on 40 procs for 308641 steps with 289 atoms, finish time Tue Jan  3 17:54:54 2023


Pair  time (%) = 0.562406 (0.018789)
Neigh time (%) = 8.71313 (0.291091)
Comm  time (%) = 4.79977 (0.160352)
Outpt time (%) = 0.00062393 (2.08444e-05)
Other time (%) = 2979.19 (99.5297)

Nlocal:    7.225 ave 130 max 0 min
Histogram: 38 0 0 0 0 0 0 0 0 2
Nghost:    0.675 ave 14 max 0 min
Histogram: 36 1 1 0 1 0 0 0 0 1
Neighs:    0.225 ave 4 max 0 min
Histogram: 37 0 1 0 0 0 0 0 0 2

Total # of neighbors = 9
Ave neighs/atom = 0.0311419
Neighbor list builds = 3202
Dangerous builds = 0
Setting up run at Tue Jan  3 17:54:54 2023

Memory usage per processor = 964.609 Mbytes
    Step    Atoms         KinEng            CPU 
48456735      289  0.00079512312              0 
48765376      289  0.00079721042      2994.6013 
Loop time of 2994.6 on 40 procs for 308641 steps with 289 atoms, finish time Tue Jan  3 18:44:49 2023


Pair  time (%) = 0.567833 (0.0189619)
Neigh time (%) = 8.68106 (0.28989)
Comm  time (%) = 4.09119 (0.136619)
Outpt time (%) = 0.000491642 (1.64176e-05)
Other time (%) = 2981.26 (99.5545)

Nlocal:    7.225 ave 129 max 0 min
Histogram: 38 0 0 0 0 0 0 0 0 2
Nghost:    0.625 ave 12 max 0 min
Histogram: 36 1 1 0 0 0 1 0 0 1
Neighs:    0.225 ave 5 max 0 min
Histogram: 38 0 0 0 0 0 0 0 1 1

Total # of neighbors = 9
Ave neighs/atom = 0.0311419
Neighbor list builds = 3201
Dangerous builds = 0
Setting up run at Tue Jan  3 18:44:49 2023

Memory usage per processor = 964.609 Mbytes
    Step    Atoms         KinEng            CPU 
48765376      289  0.00079721042              0 
49074017      287  0.00079640893      3014.2729 
Loop time of 3014.27 on 40 procs for 308641 steps with 287 atoms, finish time Tue Jan  3 19:35:03 2023


Pair  time (%) = 0.568121 (0.0188477)
Neigh time (%) = 11.5312 (0.382554)
Comm  time (%) = 4.24023 (0.140672)
Outpt time (%) = 0.000617552 (2.04876e-05)
Other time (%) = 2997.93 (99.4579)

Nlocal:    7.175 ave 128 max 0 min
Histogram: 37 1 0 0 0 0 0 0 0 2
Nghost:    0.85 ave 17 max 0 min
Histogram: 36 2 0 0 0 1 0 0 0 1
Neighs:    0.275 ave 6 max 0 min
Histogram: 38 0 0 0 0 0 0 0 1 1

Total # of neighbors = 11
Ave neighs/atom = 0.0383275
Neighbor list builds = 4220
Dangerous builds = 2
Setting up run at Tue Jan  3 19:35:03 2023

Memory usage per processor = 964.609 Mbytes
    Step    Atoms         KinEng            CPU 
49074017      287  0.00079640893              0 
49382658      287  0.00079954252      3038.5712 
Loop time of 3038.57 on 40 procs for 308641 steps with 287 atoms, finish time Tue Jan  3 20:25:42 2023


Pair  time (%) = 0.562508 (0.0185122)
Neigh time (%) = 8.7058 (0.28651)
Comm  time (%) = 5.25043 (0.172793)
Outpt time (%) = 0.000495359 (1.63024e-05)
Other time (%) = 3024.05 (99.5222)

Nlocal:    7.175 ave 129 max 0 min
Histogram: 37 1 0 0 0 0 0 0 0 2
Nghost:    0.9 ave 17 max 0 min
Histogram: 36 2 0 0 0 0 1 0 0 1
Neighs:    0.25 ave 8 max 0 min
Histogram: 38 0 1 0 0 0 0 0 0 1

Total # of neighbors = 10
Ave neighs/atom = 0.0348432
Neighbor list builds = 3201
Dangerous builds = 0
Setting up run at Tue Jan  3 20:25:42 2023

Memory usage per processor = 964.609 Mbytes
    Step    Atoms         KinEng            CPU 
49382658      287  0.00079954252              0 
49691299      285   0.0012552017      3040.3719 
Loop time of 3040.37 on 40 procs for 308641 steps with 285 atoms, finish time Tue Jan  3 21:16:22 2023


Pair  time (%) = 0.574698 (0.0189022)
Neigh time (%) = 17.2987 (0.568967)
Comm  time (%) = 9.27238 (0.304975)
Outpt time (%) = 0.00590814 (0.000194323)
Other time (%) = 3013.22 (99.107)

Nlocal:    7.125 ave 127 max 0 min
Histogram: 37 1 0 0 0 0 0 0 0 2
Nghost:    0.8 ave 14 max 0 min
Histogram: 36 2 0 0 0 0 0 1 0 1
Neighs:    0.175 ave 6 max 0 min
Histogram: 38 1 0 0 0 0 0 0 0 1

Total # of neighbors = 7
Ave neighs/atom = 0.0245614
Neighbor list builds = 6344
Dangerous builds = 2
Setting up run at Tue Jan  3 21:16:22 2023

Memory usage per processor = 964.609 Mbytes
    Step    Atoms         KinEng            CPU 
49691299      285   0.0012552017              0 
49999940      284  0.00079941183      3002.4461 
Loop time of 3002.45 on 40 procs for 308641 steps with 284 atoms, finish time Tue Jan  3 22:06:25 2023


Pair  time (%) = 0.569044 (0.0189527)
Neigh time (%) = 10.0151 (0.333565)
Comm  time (%) = 4.29849 (0.143166)
Outpt time (%) = 0.000510179 (1.69921e-05)
Other time (%) = 2987.56 (99.5043)

Nlocal:    7.1 ave 126 max 0 min
Histogram: 38 0 0 0 0 0 0 0 0 2
Nghost:    0.525 ave 9 max 0 min
Histogram: 35 1 2 0 0 0 0 1 0 1
Neighs:    0.225 ave 6 max 0 min
Histogram: 38 0 0 0 0 1 0 0 0 1

Total # of neighbors = 9
Ave neighs/atom = 0.0316901
Neighbor list builds = 3691
Dangerous builds = 1
Setting up run at Tue Jan  3 22:06:25 2023

Memory usage per processor = 964.609 Mbytes
    Step    Atoms         KinEng            CPU 
49999940      284  0.00079941183              0 
50308581      282  0.00081523615      3004.2491 
Loop time of 3004.25 on 40 procs for 308641 steps with 282 atoms, finish time Tue Jan  3 22:56:29 2023


Pair  time (%) = 0.567419 (0.0188872)
Neigh time (%) = 8.66931 (0.288568)
Comm  time (%) = 4.40611 (0.146663)
Outpt time (%) = 0.000537597 (1.78946e-05)
Other time (%) = 2990.61 (99.5459)

Nlocal:    7.05 ave 127 max 0 min
Histogram: 37 1 0 0 0 0 0 0 0 2
Nghost:    0.675 ave 11 max 0 min
Histogram: 36 1 0 1 0 0 0 0 1 1
Neighs:    0.3 ave 7 max 0 min
Histogram: 38 0 0 0 0 0 0 1 0 1

Total # of neighbors = 12
Ave neighs/atom = 0.0425532
Neighbor list builds = 3204
Dangerous builds = 1
Setting up run at Tue Jan  3 22:56:29 2023

Memory usage per processor = 964.609 Mbytes
    Step    Atoms         KinEng            CPU 
50308581      282  0.00081523615              0 
50617222      281  0.00079815353      2995.0391 
Loop time of 2995.04 on 40 procs for 308641 steps with 281 atoms, finish time Tue Jan  3 23:46:24 2023


Pair  time (%) = 0.563409 (0.0188114)
Neigh time (%) = 8.70121 (0.290521)
Comm  time (%) = 3.85185 (0.128608)
srun: Job step aborted: Waiting up to 62 seconds for job step to finish.
slurmstepd: error: *** JOB 14706102 ON r02c03 CANCELLED AT 2023-01-04T00:11:24 DUE TO TIME LIMIT ***
slurmstepd: error: *** STEP 14706102.0 ON r02c03 CANCELLED AT 2023-01-04T00:11:24 DUE TO TIME LIMIT ***
