ITEM: TIMESTEP
26543139
ITEM: NUMBER OF ATOMS
115
ITEM: BOX BOUNDS ff ff ff
-0.15 0.15
-0.15 0.15
-0.15 0.15
ITEM: ATOMS id type x y z radius vx vy vz density 
290 1 -0.0109929 -0.0198478 -0.0672695 0.000847 -37.5688 2.731 6.13588 2650 
510 1 -0.0270753 -0.00941145 -0.0620682 0.001312 -35.0873 -0.540968 15.2923 2650 
268 1 -0.0464977 -0.031958 -0.0498433 0.000847 -19.7934 0.143765 18.452 2650 
448 1 -0.0499859 -0.0326672 -0.0463515 0.000847 -22.3369 -6.78172 24.0726 2650 
429 1 -0.0573028 -0.0134853 -0.0380219 0.000233 -12.1817 5.31426 18.3549 2650 
486 1 -0.0598598 -0.00578358 -0.0326243 0.000847 -14.1827 -3.62959 26.0053 2650 
422 1 -0.0611193 -0.00489431 -0.0302035 0.000847 -14.2669 0.502657 28.8515 2650 
10 1 -0.0651034 -0.0160654 -0.0221605 0.000233 -10.088 -5.21424 29.6305 2650 
305 1 -0.0642013 -0.00488641 -0.0229583 0.000847 -14.6082 4.89504 40.8263 2650 
332 1 -0.0275555 -0.0284716 -0.0207776 0.000847 -39.3046 -27.1753 19.2097 2650 
351 1 -0.0657907 -0.0565132 -0.0200261 0.000233 -1.8676 0.886093 6.13417 2650 
377 1 -0.0672705 -0.0118201 -0.0142935 0.000233 -7.22944 -1.49337 34.0177 2650 
60 1 -0.0109967 -0.00218187 -0.0115773 0.000847 -0.0788243 -0.0493115 0.092659 2650 
254 1 -0.0673229 -0.0492211 -0.0107442 0.000847 -3.63886 0.229948 22.7853 2650 
259 1 -0.0680606 -0.0470874 -0.00987599 0.000233 -7.58429 -3.90695 52.2577 2650 
372 1 -0.067844 -0.0257037 -0.00677835 0.000847 -3.72271 -0.191925 37.2369 2650 
406 1 -0.0676782 -0.0231209 -0.00282123 0.001312 -1.39385 -0.563822 33.404 2650 
339 1 -0.00128248 -1.98421e-06 0.00303936 0.000233 0.000995867 0.00136463 -0.0165392 2650 
284 1 -0.0106976 -0.000375501 0.00857616 0.000233 0.00751924 0.00111135 0.0219066 2650 
103 1 -0.0671107 -0.027432 0.0150264 0.000233 8.14102 -10.1043 36.3523 2650 
56 1 -0.0635708 -0.0120284 0.0173443 0.001312 7.0282 12.8765 67.1119 2650 
294 1 -0.0617966 -0.017259 0.0287916 0.000847 12.7555 0.228468 27.3597 2650 
167 1 -0.0570355 -0.040826 0.0384233 0.000233 21.7797 6.46866 32.3231 2650 
433 1 -0.0493124 -0.0149368 0.0470659 0.000847 21.415 -3.34515 22.4222 2650 
85 1 -0.0502668 -0.00219835 0.0460465 0.000847 21.3967 -0.102004 23.3422 2650 
253 1 -0.0464318 -0.0364663 0.0499175 0.000847 31.0757 5.04601 28.8883 2650 
224 1 -0.0458689 -0.0116066 0.0498246 0.001312 26.4237 -4.49903 24.3035 2650 
475 1 -0.0396626 -0.0506612 0.0554319 0.000847 19.8174 1.9419 14.1698 2650 
251 1 -0.0347652 -0.0224588 0.0586442 0.000847 42.7062 13.3949 25.3024 2650 
143 1 -0.0170423 -0.00790997 0.0666218 0.000233 28.6531 -0.0593051 7.32964 2650 
50 1 -0.0563766 0.0608243 -0.0393812 0.000233 -4.90598 -0.0801576 7.02145 2650 
66 1 -0.00449713 0.0322974 -0.0160481 0.000233 -0.518117 0.0373061 0.0912078 2650 
370 1 -0.00912076 0.00283027 -0.0114349 0.000847 -0.00471804 0.000280082 0.0122145 2650 
506 1 -0.0117522 0.0248246 -0.0119512 0.000233 -0.247861 0.0157867 0.285072 2650 
373 1 -0.00722054 0.00216322 -0.00656873 0.000847 0.00692355 -0.00211586 0.00791692 2650 
493 1 -0.0115482 0.045945 -0.00633769 0.000233 -0.00107092 0.0171115 -0.0293051 2650 
105 1 -0.0154804 0.00491832 -0.00611469 0.000233 -0.125949 -0.00954249 0.234758 2650 
347 1 -0.007478 0.0209347 -0.00586525 0.000847 0.00888029 0.0220926 0.00194979 2650 
55 1 -0.00205993 0.00722832 -0.00318343 0.001312 0.00868353 0.00169741 0.0132069 2650 
443 1 -0.0118054 0.018001 -0.00211904 0.000233 -0.00308493 0.00718174 -0.0127052 2650 
234 1 -0.0165856 0.0134769 -0.000601168 0.000233 -0.0112312 -0.0152323 0.255244 2650 
476 1 -0.00926778 0.00262352 0.00122054 0.000847 -0.0526349 -0.0173683 0.144567 2650 
31 1 -0.000568213 0.00486821 1.55676e-05 0.000847 0.0115278 -0.00235978 0.0157898 2650 
203 1 -0.0153929 0.0132152 0.0028511 0.000847 0.00513788 0.00849929 -0.00678066 2650 
383 1 -0.0092844 0.0244394 0.00303445 0.000847 -0.0180844 0.00999593 0.00334075 2650 
135 1 -0.0153659 0.00843537 0.00452854 0.000847 0.0156627 0.00966078 0.0825954 2650 
432 1 -0.00873598 0.0114586 0.00911086 0.001312 0.00677409 0.0167771 0.00763661 2650 
208 1 -0.00630997 0.0224539 0.0113494 0.000233 0.00977277 0.00144303 -0.0152695 2650 
226 1 -0.00982662 0.0207029 0.0127684 0.000847 0.219535 0.0158279 0.191183 2650 
216 1 -0.00318456 0.0192299 0.0142927 0.000847 0.0248257 -0.0102095 0.0602171 2650 
467 1 -0.000139933 0.0301357 0.0142698 0.000233 0.0125966 0.0187568 0.0155383 2650 
48 1 -2.29545e-05 0.00172187 0.0159665 0.000847 0.092139 0.00218558 0.00369415 2650 
22 1 -0.00354377 0.0857688 -0.0064402 0.000233 -0.00916307 0.0372144 -0.0289109 2650 
409 1 -0.0648109 0.0910066 0.0219196 0.000847 91.2815 -32.9963 269.816 2650 
163 1 0.00930857 -0.0260853 -0.067533 0.000847 -51.6118 -4.32723 -7.11008 2650 
70 1 0.0246781 -0.043034 -0.0635323 0.000847 -24.6044 -7.69471 -9.55207 2650 
263 1 0.0240235 -0.0186537 -0.0633231 0.001312 -43.1152 -7.06046 -16.3433 2650 
472 1 0.0267692 -0.00984795 -0.0626895 0.000847 -36.7442 -7.19211 -15.6808 2650 
1 1 0.0398483 -0.0489288 -0.0547506 0.001312 -26.9339 2.34759 -19.5845 2650 
243 1 0.0443119 -0.0334331 -0.0518003 0.000847 -25.6319 -0.21836 -21.9123 2650 
8 1 0.0141016 -0.0244151 -0.0512578 0.000233 -11.4486 0.126516 -12.3034 2650 
456 1 0.0491124 -0.00727542 -0.0481382 0.000233 -33.4518 0.584776 -34.122 2650 
430 1 0.0589355 -0.00355647 -0.0354432 0.000233 -29.7763 6.19706 -49.5034 2650 
315 1 0.0634873 -0.0150795 -0.0235316 0.001312 -4.25814 -2.12479 -14.7961 2650 
256 1 0.0668064 -0.00930336 -0.0136209 0.000847 -7.31927 -0.059939 -35.8769 2650 
94 1 0.00358504 -0.00294653 -0.00807602 0.001312 0.000237904 -0.00845303 0.00446709 2650 
366 1 0.0160001 -0.00301411 -0.00369812 8.4e-05 0.00781462 -0.00760013 0.00939002 2650 
517 1 0.0086627 -0.00266195 -0.0028749 0.000233 0.0178494 -0.00500323 -0.00130069 2650 
265 1 0.00890471 -0.000344157 0.00489713 0.000847 0.0019129 -0.000450941 0.0087881 2650 
201 1 0.0284516 -0.0572802 0.00654105 0.000847 1.46837 0.139458 -6.53545 2650 
204 1 0.0111427 -0.000408461 0.00635368 0.000847 -0.00614028 -0.00382866 -0.0132903 2650 
270 1 0.01079 -0.00131716 0.0123807 0.000233 -0.0218179 -0.0033275 0.0140944 2650 
150 1 0.066942 -0.0382169 0.0129379 0.000847 6.96627 4.34046 -36.0217 2650 
128 1 0.066481 -0.0373301 0.0176037 0.000233 9.38165 3.97426 -35.4231 2650 
27 1 0.0664334 -0.00766476 0.0183374 8.4e-05 13.2741 0.330214 -48.0861 2650 
499 1 0.0653412 -0.0349717 0.0194819 0.000847 12.499 8.56779 -41.8958 2650 
82 1 0.0577024 -0.0317028 0.0355117 0.001312 28.3052 14.3365 -45.9556 2650 
122 1 0.0367316 -0.048829 0.0574223 0.000847 29.9303 -2.93702 -19.1337 2650 
478 1 0.0349297 -0.0242437 0.0592356 0.000233 28.5548 2.68275 -16.8365 2650 
98 1 0.00976791 -0.0572891 0.0674661 0.000847 48.9944 6.18134 -7.08962 2650 
185 1 0.0139327 -0.0382581 0.0662769 0.001312 46.0554 -3.02043 -9.67384 2650 
277 1 0.0127595 -0.0323337 0.0669563 0.000847 36.2183 2.76134 -6.89805 2650 
423 1 0.00715316 -0.028748 0.0677885 0.000847 42.7643 1.35734 -4.51004 2650 
391 1 0.00705191 -0.0300889 0.0684069 0.000233 75.3154 -10.763 -7.76291 2650 
219 1 0.00091408 0.0119928 -0.0155044 0.000233 -0.0177655 0.0495407 0.012295 2650 
417 1 0.00529 0.0140509 -0.0157548 0.000233 -0.110219 0.0106416 -0.0281125 2650 
129 1 0.0104846 0.00503831 -0.0128294 0.000233 -0.0528404 -0.0153534 -0.0459415 2650 
388 1 0.00980324 0.0119958 -0.0135013 0.000233 -0.153312 0.0113221 -0.133758 2650 
235 1 0.00632044 0.0175208 -0.0140622 0.000233 -0.00254975 0.00536481 0.0106383 2650 
374 1 0.00934876 0.0485004 -0.0136893 0.000233 -0.249915 -0.122451 -0.212804 2650 
457 1 0.010391 0.0141817 -0.0121994 8.4e-05 -0.0474595 0.00115991 -0.000604696 2650 
212 1 0.00977684 0.0507122 -0.0119818 0.001312 -0.22151 -0.0426544 -0.191271 2650 
511 1 0.0124269 0.00421102 -0.00998957 0.000847 -0.0728046 -0.0371582 -0.0977353 2650 
260 1 0.00375592 0.0416563 -0.00978052 0.000233 -0.0178117 0.0172304 0.00105335 2650 
338 1 0.00487663 0.00134808 -0.00763239 0.000233 -0.00271292 -0.00171649 -0.0109378 2650 
7 1 0.00537048 0.00604008 -0.00615569 0.000847 0.0205857 0.00603231 0.00188761 2650 
296 1 0.0156903 0.0118085 -0.00555942 0.000233 -0.01353 0.00141729 -0.00758066 2650 
309 1 0.0159971 0.0295639 -0.00479816 0.000233 -0.0637106 0.0305282 -0.362541 2650 
12 1 0.00616241 0.00235405 -0.00176413 0.000233 -9.2907e-05 -0.00146252 0.0101717 2650 
242 1 0.0134397 0.0214737 -0.00185117 0.000847 0.0210544 0.00969789 -0.00499855 2650 
512 1 0.00673627 0.0453168 -0.0021092 0.000847 0.00867512 0.0290047 0.0037544 2650 
445 1 0.0155471 0.0342546 -0.000274154 0.001312 0.0158872 0.0354322 -0.395871 2650 
292 1 0.0114293 0.00144831 0.00219308 0.000847 0.00633071 -0.000286617 0.00678711 2650 
15 1 0.013034 0.0374666 0.00206649 0.001312 0.0536151 0.0934695 -0.0500439 2650 
68 1 0.00353296 0.0118065 0.00775925 0.001312 0.013761 0.00680721 0.0224856 2650 
16 1 0.0130726 0.0195293 0.00857635 0.001312 0.156193 0.00699266 -0.295438 2650 
386 1 0.0125378 0.00189162 0.00976644 0.000847 -0.00721105 -0.000429438 0.0153226 2650 
489 1 0.0100125 0.00279368 0.0122856 0.000847 0.122821 -0.0252483 -0.0929677 2650 
495 1 0.0101956 0.0169197 0.0117232 0.000233 0.00404857 0.00775653 0.0320607 2650 
69 1 0.00356259 0.0043216 0.0150895 0.001312 0.110386 -0.00121791 -0.0208752 2650 
147 1 0.00240542 0.0152846 0.0152811 0.001312 0.0665531 -0.00219816 -0.012477 2650 
36 1 0.00701025 0.0160034 0.0150859 0.000233 0.120322 -0.0161796 -0.0506868 2650 
49 1 0.000878876 0.016674 0.0166017 0.000233 0.062865 0.0168256 -0.0128472 2650 
186 1 0.0118918 0.0774544 -0.00256441 0.001312 -0.00462654 0.04184 -0.0147005 2650 
316 1 0.00964988 0.126901 0.0674664 0.000847 -0.343927 -0.518968 0.0491927 2650 
