ITEM: TIMESTEP
28549299
ITEM: NUMBER OF ATOMS
99
ITEM: BOX BOUNDS ff ff ff
-0.15 0.15
-0.15 0.15
-0.15 0.15
ITEM: ATOMS id type x y z radius vx vy vz density 
94 1 -0.0183714 -0.0559085 -0.0651772 0.001312 -38.843 3.94253 10.9393 2650 
70 1 -0.0466031 -0.0147936 -0.04976 0.000847 -33.2947 -0.449894 31.164 2650 
268 1 -0.0577384 -0.0252842 -0.0362589 0.000847 -23.1489 -4.72503 36.84 2650 
277 1 -0.0627181 -0.0137044 -0.0267593 0.000847 -20.9703 -4.33305 49.1223 2650 
478 1 -0.0675763 -0.0169546 -0.012776 0.000233 -10.0582 3.61569 53.1911 2650 
201 1 -0.0280236 -0.0611815 0.00815655 0.000847 1.72242 -0.308725 6.01413 2650 
10 1 -0.0682292 -0.0593396 0.00862309 0.000233 2.91693 -1.80504 23.0751 2650 
284 1 -0.00972015 -0.000231026 0.011424 0.000233 0.00751924 0.00111135 0.0219066 2650 
510 1 -0.0662226 -0.00980143 0.0144563 0.001312 14.632 -8.5362 66.9786 2650 
423 1 -0.0585114 -0.0561662 0.0349868 0.000847 16.5721 4.75227 27.697 2650 
1 1 -0.0568612 -0.0254609 0.0367908 0.001312 16.9861 0.407815 26.2276 2650 
56 1 -0.0417816 -0.0572933 0.0532922 0.001312 26.6335 0.383277 20.8614 2650 
476 1 -0.0183706 -0.037617 0.056764 0.000847 93.1709 -189.094 -71.3444 2650 
150 1 -0.0286366 -0.0230073 0.0618451 0.000847 12.2341 7.36034 5.66432 2650 
511 1 -0.00126539 0.000542883 -0.0159908 0.000847 -0.115556 -0.0181476 0.0218785 2650 
417 1 -0.0087771 0.0149963 -0.0141604 0.000233 -0.0888947 0.00249788 0.0662862 2650 
219 1 -0.00139542 0.018433 -0.013906 0.000233 -0.0177655 0.0495407 0.012295 2650 
16 1 -0.00794387 0.0217502 -0.0135048 0.001312 -0.248219 0.0214943 0.184354 2650 
370 1 -0.00973411 0.00286668 -0.00984704 0.000847 -0.00471804 0.000280082 0.0122145 2650 
388 1 -0.0132568 0.0139821 -0.0101012 0.000233 -0.127669 0.0168916 0.146545 2650 
373 1 -0.00632048 0.00188816 -0.00553954 0.000847 0.00692355 -0.00211586 0.00791692 2650 
347 1 -0.00632357 0.0238067 -0.00561178 0.000847 0.00888029 0.0220926 0.00194979 2650 
443 1 -0.0122064 0.0189346 -0.0037707 0.000233 -0.00308493 0.00718174 -0.0127052 2650 
309 1 -0.0165413 0.024444 -0.00179961 0.000233 -0.0130729 -0.0836753 0.338042 2650 
55 1 -0.000931082 0.00744898 -0.00146655 0.001312 0.00868353 0.00169741 0.0132069 2650 
374 1 -0.0165993 0.0362685 -0.000467109 0.000233 -0.0105662 -0.0639833 0.248024 2650 
339 1 -0.00115302 0.000175416 0.000889273 0.000233 0.000995867 0.00136463 -0.0165392 2650 
445 1 -0.0155442 0.0316802 0.000353529 0.001312 -0.0137447 -0.0576173 0.361609 2650 
493 1 -0.0125001 0.0514066 0.000466092 0.000233 -0.0184944 0.0865134 0.198237 2650 
203 1 -0.0144597 0.0143275 0.0020587 0.000847 0.00739163 0.00856218 -0.00602384 2650 
212 1 -0.0154616 0.0450234 0.00161109 0.001312 0.0500249 -0.0318696 0.267135 2650 
383 1 -0.0116353 0.0257388 0.00346874 0.000847 -0.0180844 0.00999593 0.00334075 2650 
208 1 -0.00503952 0.0226415 0.00936441 0.000233 0.00977277 0.00144303 -0.0152695 2650 
432 1 -0.00785535 0.0136396 0.0101036 0.001312 0.00677409 0.0167771 0.00763661 2650 
135 1 -0.00922467 0.00967308 0.0131647 0.000847 0.0721427 0.00896871 0.0387839 2650 
22 1 -0.00473496 0.0906067 -0.0101986 0.000233 -0.00916307 0.0372144 -0.0289109 2650 
305 1 0.00963527 -0.0472151 -0.0674759 0.000847 -43.5479 -17.0843 -6.13848 2650 
406 1 0.00688703 -0.0423223 -0.0673687 0.001312 -45.2646 4.41501 -4.62154 2650 
433 1 0.00660889 -0.0376067 -0.0678336 0.000847 -25.6085 -4.76187 -2.49426 2650 
351 1 0.0252491 -0.0406194 -0.0639645 0.000233 -42.4051 11.5376 -16.7371 2650 
163 1 0.0267243 -0.0551373 -0.0627191 0.000847 -49.3128 -6.39111 -21.0002 2650 
290 1 0.0310003 -0.0441829 -0.0607051 0.000847 -29.6525 -1.90268 -15.1332 2650 
294 1 0.0339064 -0.0137489 -0.0591521 0.000847 -50.8529 2.95248 -29.1333 2650 
256 1 0.0386195 -0.0327703 -0.0561776 0.000847 -36.1462 -8.58591 -24.834 2650 
167 1 0.0510904 -0.0605871 -0.0460421 0.000233 -73.303 -21.2339 -81.3278 2650 
422 1 0.0537116 -0.0335882 -0.0374573 0.000847 -41.0529 -27.2668 -22.2372 2650 
517 1 0.0118187 -0.00333101 -0.00327603 0.000233 0.703044 -0.0200967 -0.191489 2650 
386 1 0.0157171 -0.00214409 0.00270779 0.000847 -0.00325398 -0.0325339 -0.0617051 2650 
204 1 0.0105321 -0.000937176 0.00462605 0.000847 -0.00292694 -0.00435935 -0.0132885 2650 
429 1 0.0685476 -0.0174874 0.00556017 0.000233 3.16417 4.52095 -39.0013 2650 
265 1 0.00896573 -0.000371788 0.00603947 0.000847 -0.00130044 7.97406e-05 0.00878627 2650 
270 1 0.00795374 -0.00174973 0.014213 0.000233 -0.0218179 -0.0033275 0.0140944 2650 
98 1 0.0657248 -0.0525367 0.0181552 0.000847 12.6834 5.69269 -45.8895 2650 
472 1 0.0637505 -0.0346272 0.0241548 0.000847 8.81313 0.71455 -23.2441 2650 
475 1 0.0598711 -0.058027 0.026591 0.000847 2.66114 -0.20985 -0.476022 2650 
456 1 0.060105 -0.00191457 0.0334175 0.000233 7.36929 0.287912 -13.2515 2650 
185 1 0.053683 -0.0542649 0.0413049 0.001312 25.1671 -13.8608 -32.6804 2650 
315 1 0.0477574 -0.0287642 0.0480577 0.001312 40.1778 1.52402 -39.8952 2650 
430 1 0.0448879 -0.0242174 0.052097 0.000233 21.0403 2.6354 -18.1247 2650 
486 1 0.0442943 -0.014763 0.0518309 0.000847 39.9824 -7.71607 -34.1494 2650 
377 1 0.0440528 -0.0359495 0.0528104 0.000233 61.2885 7.20281 -51.1164 2650 
332 1 0.0342696 -0.0508039 0.0589317 0.000847 39.6667 -0.886698 -23.0534 2650 
224 1 0.0266059 -0.006619 0.062251 0.001312 21.8177 -1.7266 -9.31624 2650 
499 1 0.0240266 -0.0369244 0.0637948 0.000847 43.3918 1.49935 -16.333 2650 
8 1 0.01945 -0.0593067 0.0659592 0.000233 37.0224 -0.0223127 -10.9168 2650 
372 1 0.0204698 -0.0445277 0.0650221 0.000847 43.4713 5.41674 -13.6775 2650 
60 1 0.00719304 -0.0586981 0.0677734 0.000847 23.2384 2.59528 -2.46584 2650 
253 1 0.0153184 -0.0175365 0.0664215 0.000847 41.2016 3.34412 -9.49666 2650 
391 1 0.0123978 -0.0158689 0.0676402 0.000233 17.9071 -3.04891 -3.29538 2650 
129 1 0.00236205 0.00300659 -0.0164858 0.000233 -0.0686428 -0.0155885 -0.00285819 2650 
235 1 0.00598898 0.0182182 -0.0126793 0.000233 -0.00254975 0.00536481 0.0106383 2650 
457 1 0.00422133 0.0143325 -0.012278 8.4e-05 -0.0474595 0.00115991 -0.000604696 2650 
260 1 0.00144042 0.0438962 -0.00964358 0.000233 -0.0178117 0.0172304 0.00105335 2650 
338 1 0.00452395 0.00112494 -0.00905429 0.000233 -0.00271292 -0.00171649 -0.0109378 2650 
296 1 0.0139314 0.0119927 -0.0065449 0.000233 -0.01353 0.00141729 -0.00758066 2650 
7 1 0.0080466 0.00682428 -0.0059103 0.000847 0.0205857 0.00603231 0.00188761 2650 
15 1 0.0129976 0.0486173 -0.00351825 0.001312 -0.0324822 0.0811779 -0.0387272 2650 
242 1 0.015752 0.0226734 -0.00245378 0.000847 -0.0104008 0.00517728 -0.00150328 2650 
12 1 0.00615034 0.00216392 -0.000441819 0.000233 -9.2907e-05 -0.00146252 0.0101717 2650 
226 1 0.0160146 0.0181875 -0.000765896 0.000847 0.0105186 -0.0440622 -0.273097 2650 
292 1 0.0122523 0.00141105 0.0030754 0.000847 0.00633071 -0.000286617 0.00678711 2650 
31 1 0.000930396 0.00456144 0.00206823 0.000847 0.0115278 -0.00235978 0.0157898 2650 
36 1 0.0165161 0.013072 0.00222328 0.000233 0.00562024 -0.0280604 -0.126459 2650 
489 1 0.0151714 0.0038972 0.00431472 0.000847 0.0349018 0.0132579 -0.0995823 2650 
69 1 0.0141989 0.00371878 0.00625844 0.001312 0.0460972 -0.00735561 -0.0874807 2650 
66 1 0.0140025 0.0364522 0.00907531 0.000233 0.220057 0.000703349 -0.414141 2650 
68 1 0.00532188 0.0126915 0.0106824 0.001312 0.013761 0.00680721 0.0224856 2650 
48 1 0.0107762 0.0019619 0.0118373 0.000847 0.0726443 0.00159711 -0.0538632 2650 
147 1 0.0102182 0.0149519 0.0117237 0.001312 0.0534797 -0.00283661 -0.0400446 2650 
216 1 0.00117098 0.018749 0.0134406 0.000847 0.0357104 -0.00204541 -0.0235298 2650 
495 1 0.00879046 0.0176313 0.0128865 0.000233 -0.0192728 0.00417337 -0.00421874 2650 
49 1 0.00879906 0.018896 0.0141 0.000233 0.0535267 0.0179887 -0.0399937 2650 
506 1 0.00745648 0.0300895 0.014937 0.000233 0.323339 0.049796 -0.133707 2650 
105 1 0.00114534 0.00681815 0.0166336 0.000233 0.245303 0.0331458 -0.0464443 2650 
234 1 0.0009898 0.0112381 0.0163006 0.000233 0.200811 -0.0159185 -0.00652508 2650 
409 1 0.0667558 0.0311985 0.0142887 0.000847 30.9381 -9.54379 -144.483 2650 
467 1 0.00149762 0.0325741 0.0162898 0.000233 0.0125966 0.0187568 0.0155383 2650 
50 1 0.0597938 0.0593095 0.0339705 0.000233 4.21533 0.0294696 -7.41792 2650 
186 1 0.0112904 0.0828935 -0.00447547 0.001312 -0.00462654 0.04184 -0.0147005 2650 
