ITEM: TIMESTEP
17129619
ITEM: NUMBER OF ATOMS
216
ITEM: BOX BOUNDS ff ff ff
-0.15 0.15
-0.15 0.15
-0.15 0.15
ITEM: ATOMS id type x y z radius vx vy vz density 
332 1 -0.011166 -0.0185623 -0.0672404 0.000847 -36.6278 -4.41222 6.07904 2650 
150 1 -0.0230772 -0.0515757 -0.0641491 0.000847 -49.8186 6.33902 17.912 2650 
253 1 -0.0217473 -0.0192548 -0.0646018 0.000847 -37.3188 3.44126 12.5556 2650 
143 1 -0.0338543 -0.00471207 -0.0598565 0.000233 -24.8944 -3.3772 14.0796 2650 
13 1 -0.0395506 -0.0166709 -0.0564373 8.4e-05 -28.3811 0.802373 19.889 2650 
214 1 -0.0401889 -0.0107251 -0.0550558 0.000847 -24.6572 -0.283977 17.9871 2650 
491 1 -0.0406439 -0.00568294 -0.055471 0.000233 -23.7454 -4.12332 17.3955 2650 
448 1 -0.0414802 -0.0463717 -0.0540967 0.000847 -30.9878 3.00539 23.7461 2650 
474 1 -0.0456554 -0.0255768 -0.0506172 0.000847 -21.8113 0.967625 19.6599 2650 
434 1 -0.0599092 -0.0465075 -0.0325357 0.000847 -15.095 -1.80817 27.7767 2650 
494 1 -0.060508 -0.0244816 -0.0326842 0.000233 -18.5663 -1.0836 34.3646 2650 
364 1 -0.0628196 -0.00558674 -0.0264 0.000233 2.36393 -0.164508 1.15227 2650 
484 1 -0.0650784 -0.0423892 -0.0187847 0.001312 -9.47505 -5.99731 32.7953 2650 
510 1 -0.0651748 -0.00692384 -0.0183852 0.001312 -4.07138 -1.68816 14.4185 2650 
503 1 -0.0666981 -0.0552215 -0.016766 0.000233 -12.718 0.809956 50.5849 2650 
243 1 -0.0665467 -0.0210248 -0.0148051 0.000847 -4.68581 -4.21248 21.0474 2650 
394 1 -0.0666187 -0.0127611 -0.0144675 0.000847 -3.07384 1.0504 14.1462 2650 
128 1 -0.00293102 -0.00185123 -0.0121888 0.000233 -0.00668717 -0.0157683 0.0142982 2650 
392 1 -0.003997 -0.00203849 -0.009609 8.4e-05 0 -0.01175 0 2650 
469 1 -0.00571294 -0.00203309 -0.00712381 0.000233 0.0113067 -0.0156393 -0.0237674 2650 
391 1 -0.001389 -0.00194549 -0.007809 0.000233 0 -0.01175 0 2650 
120 1 -0.0675288 -0.00970558 -0.00512714 0.001312 -1.39303 3.92711 18.3277 2650 
284 1 -0.0152843 -0.00105342 -0.00478679 0.000233 0.00751924 0.00111135 0.0219066 2650 
301 1 -0.000431 -0.00290549 -0.003081 8.4e-05 0 -0.01175 0 2650 
223 1 -0.00120294 -0.00107122 -0.000483787 8.4e-05 0.0391297 -0.0180115 0.0278794 2650 
305 1 -0.00816616 -0.000828901 0.0040844 0.000847 -0.00613468 -0.00578691 0.00242692 2650 
1 1 -0.0144752 -0.00130182 0.0050897 0.001312 0.0330571 -0.0369665 0.0632973 2650 
422 1 -0.0141718 -0.0015522 0.0074924 0.000847 0.0399338 -0.0245393 0.0623126 2650 
294 1 -0.0675552 -0.00650374 0.00917563 0.000847 3.25457 -2.26474 23.9457 2650 
454 1 -0.0676023 -0.00364172 0.0126436 0.000233 12.9431 15.5573 69.1918 2650 
140 1 -0.0672038 -0.00167783 0.0146139 0.000233 14.7747 -3.28926 67.9318 2650 
339 1 -0.00188995 -0.000834402 0.0131282 0.000233 0.000995867 0.00136463 -0.0165392 2650 
132 1 -0.0575514 -0.0473804 0.0169676 8.4e-05 19.2278 -29.9047 41.9796 2650 
43 1 -0.0642689 -0.0463334 0.0213567 0.001312 7.49794 5.21921 22.5411 2650 
449 1 -0.0633434 -0.0361428 0.0252154 0.000847 12.8229 4.44159 32.192 2650 
160 1 -0.0628421 -0.0155471 0.0252212 0.001312 4.4729 8.72945 11.1195 2650 
158 1 -0.0638601 -0.00365076 0.0259131 8.4e-05 10.0004 -0.484663 24.6429 2650 
245 1 -0.0626986 -0.0113878 0.0282547 0.000233 10.4431 3.73029 23.1688 2650 
343 1 -0.0615654 -0.0563502 0.0293142 0.000847 -23.3738 0.103636 -49.0525 2650 
277 1 -0.00233526 -0.000946872 0.068113 0.000847 -2.22209 -0.0298036 -0.0761916 2650 
361 1 -0.0581781 -0.0213984 0.0327858 0.000233 -4.42384 -3.04717 3.03479 2650 
185 1 -0.0574839 -0.0299092 0.0358193 0.001312 18.5744 -11.2389 29.7879 2650 
62 1 -0.0573765 -0.00495939 0.0360587 0.000233 0.88546 9.43076 -2.73801 2650 
116 1 -0.0573719 -0.0270557 0.0379184 0.000233 17.2027 3.8605 26.0227 2650 
409 1 -0.0501072 -0.0118988 0.0462185 0.000847 20.3177 -6.0331 22.0134 2650 
59 1 -0.0444176 -0.0518792 0.0517159 0.000847 31.29 -5.83091 26.8578 2650 
70 1 -0.042806 -0.0527313 0.0530576 0.000847 32.9517 -5.32702 26.5688 2650 
149 1 -0.0391095 -0.0545176 0.0550069 0.000847 2.41684 7.79113 0.434019 2650 
123 1 -0.0380351 -0.0120302 0.0565652 0.000847 26.1464 1.05733 17.5697 2650 
385 1 -0.0360401 -0.0591821 0.0576321 0.000847 6.56146 -1.44345 4.14157 2650 
76 1 -0.0355051 -0.0180046 0.0588922 0.000233 13.7856 4.49615 8.31106 2650 
47 1 -0.0267482 -0.0223701 0.0627011 0.000847 39.9469 11.7181 17.0313 2650 
10 1 -0.0203348 -0.0535229 0.065692 0.000233 41.9628 -3.59803 12.9887 2650 
122 1 -0.0151766 -0.0458672 0.0664587 0.000847 47.2479 6.84798 10.7835 2650 
74 1 -0.0168133 -0.0439042 0.0660637 0.000847 46.8315 6.87629 11.9119 2650 
371 1 -0.0036288 -0.023995 0.064746 0.000847 25.2624 -1.03654 -0.473759 2650 
163 1 -0.00798247 -0.0277198 0.0670564 0.000847 1.34297 14.5887 1.33419 2650 
272 1 -0.0158271 -0.0119353 0.066922 0.000233 57.4612 -11.4697 13.5877 2650 
402 1 -0.0157618 -0.00131399 0.0669371 0.000233 53.5253 -2.16824 12.6022 2650 
406 1 -0.0061952 -0.00139753 0.0674043 0.001312 12.369 -0.661674 1.09549 2650 
92 1 -0.00529053 -0.0392199 0.0685633 0.000233 39.2535 -8.49882 3.02887 2650 
486 1 -0.00330411 -0.0316974 0.0680664 0.000847 41.1546 18.1199 2.30999 2650 
108 1 -0.00559271 0.0434776 -0.0144869 0.001312 -0.653138 -0.0047523 0.279302 2650 
303 1 -0.00308187 0.0093022 -0.012665 0.000847 0.00634002 0.0088215 0.0179982 2650 
147 1 -0.00803093 0.0148175 -0.0132756 0.001312 -0.0441195 0.0037041 0.05894 2650 
373 1 -0.0111101 0.00347437 -0.0111439 0.000847 -0.0192249 -0.00371979 -0.0119874 2650 
55 1 -0.00739616 0.00647463 -0.0122844 0.001312 0.00891338 5.00488e-05 0.0193161 2650 
49 1 -0.0117314 0.0124558 -0.0118399 0.000233 -0.497409 0.00148158 0.570644 2650 
370 1 -0.000736014 0.00232616 -0.0103505 0.000847 -0.017839 0.00107421 -0.00812232 2650 
244 1 -0.0102275 0.00968966 -0.0108042 0.000233 -0.0196005 0.00158311 0.0267808 2650 
95 1 -0.000252708 0.0108212 -0.0106116 0.001312 0.0114944 0.0037926 0.000538071 2650 
457 1 -0.00671656 0.0182012 -0.0109653 8.4e-05 0.0444207 -0.0110293 0.145071 2650 
7 1 -0.0071867 0.00236039 -0.00730713 0.000847 0.0205857 0.00603231 0.00188761 2650 
234 1 -0.0116402 0.00624767 -0.0073892 0.000233 -0.0196854 0.0169433 0.0404318 2650 
31 1 -0.00745407 0.00526059 -0.00573307 0.000847 0.0106736 0.00376289 -0.00691615 2650 
219 1 -0.00208184 0.00599536 -0.0058079 0.000233 0.00849933 0.00349453 -0.0201485 2650 
68 1 -0.00373259 0.00784734 -0.00596211 0.001312 -0.00582103 0.00345543 0.0225763 2650 
66 1 -0.015629 0.0239083 -0.00572999 0.000233 -0.213548 -0.183361 0.877118 2650 
56 1 -0.00839054 0.00700504 -0.00440431 0.001312 0.0301403 0.0110679 -0.00766892 2650 
316 1 -0.00851564 0.00948167 -0.00385514 0.000847 0.013228 0.022246 -0.010569 2650 
191 1 -0.0144319 0.00984817 -0.00332405 0.000847 -0.0461183 -0.120592 0.238633 2650 
517 1 -0.00222536 0.000390006 -0.00208149 0.000233 0.0178494 -0.00500323 -0.00130069 2650 
63 1 -0.000147 0.000214509 -0.0027 0.000233 0 -0.01175 0 2650 
417 1 -0.0165606 0.0048929 -0.00113061 0.000233 -0.00558803 0.00315713 0.129598 2650 
105 1 -0.0145756 0.0147229 -0.000728768 0.000233 -0.0330648 0.0204531 0.00729523 2650 
226 1 -0.0160068 0.0217366 0.000152669 0.000847 -0.0155655 -0.00745878 0.39465 2650 
208 1 -0.000405275 0.0208839 0.00146279 0.000233 -0.0198422 0.00316466 0.0326517 2650 
251 1 -0.0157559 0.000276896 0.00267039 0.000847 -0.0043193 -0.032914 0.0532025 2650 
432 1 -0.0128681 0.00122467 0.00445256 0.001312 0.00677409 0.0167771 0.00763661 2650 
476 1 -0.00210913 0.0138037 0.00428577 0.000847 -0.0252403 0.00358607 -0.0286498 2650 
482 1 -0.00381649 0.0440657 0.00403872 0.000233 0.00469409 0.0342639 0.0260087 2650 
198 1 -0.0108829 0.0497885 0.00386771 0.001312 -0.0022794 0.0423086 0.0116925 2650 
15 1 -0.0141517 0.00593625 0.00579981 0.001312 0.0288125 0.0256495 0.0549649 2650 
443 1 -0.00992356 0.0136201 0.00563106 0.000233 -0.00308493 0.00718174 -0.0127052 2650 
467 1 -0.00782383 0.0186941 0.00479149 0.000233 0.0125966 0.0187568 0.0155383 2650 
203 1 -0.00872091 0.00745443 0.00717672 0.000847 -0.0131843 0.00957595 -0.00713462 2650 
121 1 -0.010738 0.0161983 0.00683255 0.001312 0.00514363 0.0158657 0.0264715 2650 
16 1 -0.0139721 0.0213055 0.00680705 0.001312 0.18091 0.0425704 0.430174 2650 
506 1 -0.0149938 0.0346483 0.0072908 0.000233 0.241037 -0.0118291 0.580702 2650 
320 1 -0.0128212 0.00931717 0.00807743 0.000847 0.0161471 -0.0251117 0.0382406 2650 
60 1 -0.00144089 0.0153648 0.00801456 0.000847 0.0266497 0.0171143 0.0170395 2650 
493 1 -0.010895 0.035507 0.0115383 0.000233 -0.00107092 0.0171115 -0.0293051 2650 
459 1 -0.0090763 0.052901 0.0132081 0.000847 0.536667 0.407335 0.284139 2650 
376 1 -0.011159 0.0600531 0.0127746 0.000233 0.361046 0.614154 0.49528 2650 
129 1 -0.00336173 0.010343 0.0162537 0.000233 0.0729535 0.00242993 0.0192438 2650 
213 1 -0.0319406 0.0981815 -0.0602515 0.000847 -68.2028 10.903 36.1432 2650 
104 1 -0.00576289 0.104482 -0.0685591 0.000233 -323.258 -24.8351 27.1694 2650 
455 1 -0.000411544 0.12427 -0.013106 0.000233 0.0174931 0.128162 -0.025383 2650 
519 1 -0.0674053 0.131269 -0.00808064 0.000233 2.66934 4.61162 2.25207 2650 
328 1 -0.0514878 0.134099 0.0439556 0.001312 0.461516 -0.134392 0.539863 2650 
408 1 -0.00553192 0.133219 0.0679281 0.000847 2.3592 -0.122369 0.192128 2650 
362 1 0.0100056 -0.0347014 -0.0680352 0.000233 -26.5447 -5.64784 -3.9038 2650 
32 1 0.00574681 -0.0222825 -0.0679146 0.000847 -31.0739 -3.27247 -2.62818 2650 
4 1 0.00734595 -0.0214062 -0.0677604 0.000847 -31.0921 -2.91702 -3.36911 2650 
258 1 0.0205518 -0.0574833 -0.0656246 0.000233 -45.9781 -2.24865 -14.3977 2650 
433 1 0.0241696 -0.0227777 -0.0637354 0.000847 -36.0338 -0.496018 -13.6647 2650 
478 1 0.0289964 -0.0289037 -0.0623548 0.000233 -28.2958 -5.50694 -13.1579 2650 
136 1 0.0251689 -0.024897 -0.063349 0.000847 -37.6982 -3.8501 -14.9622 2650 
435 1 0.030701 -0.0229745 -0.0608594 0.000847 -32.7893 -1.20954 -16.5306 2650 
148 1 0.0293063 -0.0123702 -0.0615515 0.000847 -43.6762 2.86319 -20.7835 2650 
285 1 0.0351718 -0.0512167 -0.0590918 0.000233 -18.4313 -1.771 -10.9703 2650 
389 1 0.0362408 -0.0314076 -0.0584459 0.000233 -56.1928 -21.1118 -34.8376 2650 
335 1 0.031728 -0.0276333 -0.0581243 0.000233 -3.81855 -3.93071 -1.7963 2650 
375 1 0.0375178 -0.0141922 -0.0576316 0.000233 -30.8342 -6.94409 -20.0695 2650 
61 1 0.0417577 -0.0487744 -0.0538707 0.000847 -17.2643 0.630943 -13.3727 2650 
479 1 0.0322956 -0.0298178 -0.0452032 0.000233 -32.2656 -17.1685 -13.7552 2650 
218 1 0.0551828 -0.0300064 -0.0410394 0.000233 -24.5734 6.82169 -33.0353 2650 
82 1 0.00464077 -0.0194306 -0.0215086 0.001312 -2.36967 8.69812 1.66613 2650 
164 1 0.0672427 -0.0115353 -0.0112439 0.000847 -4.40359 -1.95982 -26.3179 2650 
405 1 0.001255 -0.00243049 -0.009572 8.4e-05 0 -0.01175 0 2650 
224 1 0.00770997 -0.00198225 -0.0101702 0.001312 0.013442 -0.00447878 0.00326192 2650 
39 1 0.0106217 -0.00230207 -0.00417227 0.000233 -0.00272155 -0.00885595 0.00246964 2650 
270 1 0.00992335 -0.000109466 -0.00407589 0.000233 0.0263313 -0.00238223 0.0307239 2650 
27 1 0.00966 -0.00115749 -0.004536 8.4e-05 0 -0.01175 0 2650 
254 1 0.0639448 -0.0334649 -0.00477665 0.000847 22.9119 -2.5715 -48.2277 2650 
268 1 0.0681215 -0.0199127 -0.00275995 0.000847 -1.13262 8.15973 -27.9374 2650 
133 1 0.00644699 -0.00035395 -0.00235007 0.001312 0.00749386 -0.00495811 0.00978448 2650 
142 1 0.0687203 -0.0283654 -0.00267458 0.000233 -1.16746 -9.79298 -29.9908 2650 
351 1 0.000422 -0.00323749 -0.00156 0.000233 0 -0.01175 0 2650 
69 1 0.0155177 -0.00206063 -0.000250035 0.001312 0.00658364 0.0125466 -0.165554 2650 
290 1 0.0681397 -0.00117579 -0.00253728 0.000847 -1.46141 -6.02514 -47.6493 2650 
472 1 0.012143 -0.00329249 0.001212 0.000847 0 -0.01175 0 2650 
8 1 0.006698 -0.000713491 0.001482 0.000233 0 -0.01175 0 2650 
426 1 0.00906244 -0.00185537 0.00206697 0.000233 0.00270092 -0.011541 -0.000995869 2650 
475 1 0.0681342 -0.047526 0.00258634 0.000847 1.51604 1.9304 -39.9127 2650 
456 1 0.009608 -0.00271249 0.003179 0.000233 0 -0.01175 0 2650 
180 1 0.0680755 -0.0374105 0.00975979 0.000233 0.458542 2.97094 -3.19768 2650 
263 1 0.0663495 -0.0469202 0.0135994 0.001312 5.37967 -0.30165 -26.2207 2650 
429 1 0.0667346 -0.0529939 0.0166147 0.000233 6.4317 -1.90975 -25.8282 2650 
85 1 0.0654587 -0.0363893 0.0190575 0.000847 8.38909 -1.7655 -28.7414 2650 
350 1 0.0578539 -0.0475285 0.0212646 0.000233 -3.57624 -23.0824 -25.2838 2650 
367 1 0.064125 -0.0327164 0.0218166 0.001312 11.0767 -2.49464 -32.5272 2650 
111 1 0.0457 -0.0330052 0.0505774 0.000847 22.2654 -9.48239 -20.1047 2650 
423 1 0.0384891 -0.00285869 0.0562597 0.000847 28.813 1.86728 -19.6994 2650 
378 1 0.0341562 -0.0297229 0.057715 0.000233 41.3012 4.86911 -27.8061 2650 
101 1 0.0360716 -0.00907513 0.058354 0.000233 33.9629 19.9886 -23.4985 2650 
210 1 0.036501 -0.00586762 0.0584559 8.4e-05 14.4431 -4.65455 -8.98081 2650 
287 1 0.0353125 -0.0203567 0.0590102 0.000233 48.5218 4.20152 -29.0309 2650 
167 1 0.0262951 -0.0175982 0.0635411 0.000233 29.3523 -4.43812 -12.1466 2650 
233 1 0.0244717 -0.0573683 0.064267 0.000233 56.2095 7.58321 -21.4002 2650 
201 1 0.0184864 -0.0320274 0.0655989 0.000847 20.2654 -2.4024 -5.70976 2650 
501 1 0.0201547 -0.0296953 0.0651252 0.000847 49.6863 -1.60561 -15.3682 2650 
324 1 0.0173873 -0.0585767 0.0665387 0.000233 103.647 -4.54117 -27.08 2650 
410 1 0.0157611 -0.0375742 0.0663079 0.000847 25.1284 -14.7465 -5.96995 2650 
315 1 0.00103906 -0.0132294 0.0676833 0.001312 20.5598 0.957592 -0.315408 2650 
119 1 0.0130638 -0.0526569 0.0676665 8.4e-05 51.2115 -5.22554 -9.88698 2650 
411 1 0.00438783 -0.0409832 0.0680266 0.000847 47.5271 -4.99782 -3.0639 2650 
175 1 0.00209997 -0.0191984 0.0681216 0.000847 23.1486 -2.47813 -0.713359 2650 
438 1 0.00241765 0.0225841 -0.0681384 0.000847 -65.3608 9.81486 -2.31783 2650 
515 1 0.00670034 0.00507217 -0.0678219 0.000847 -5.37357 1.69794 -0.527102 2650 
48 1 0.00592884 0.000665627 -0.0142901 0.000847 0.00523778 -0.00998944 0.00223374 2650 
372 1 0.00272424 0.00340954 -0.0157657 0.000847 -0.0786305 -0.0358226 0.00223738 2650 
444 1 0.000432 0.000871509 -0.014191 8.4e-05 0 -0.01175 0 2650 
207 1 0.007509 1.45089e-05 -0.013163 0.000233 0 -0.01175 0 2650 
228 1 0.00476499 0.00675641 -0.013848 0.000847 -0.00272244 0.00624097 0.000925884 2650 
511 1 0.00452447 0.0515246 -0.0141175 0.000847 0.00544893 0.0430587 -0.0302308 2650 
430 1 0.0113973 0.0139931 -0.0122076 0.000233 -0.007782 -0.0466067 -0.00593219 2650 
256 1 0.0103618 0.0149933 -0.0123734 0.000847 -0.0058348 0.0119563 -0.0215867 2650 
212 1 0.00899647 0.0533721 -0.0122739 0.001312 -0.310079 -0.0208644 -0.231213 2650 
94 1 0.00343991 0.00220978 -0.0108009 0.001312 0.000237904 -0.00845303 0.00446709 2650 
36 1 0.0133062 0.00541316 -0.00996583 0.000233 0.0174023 -0.00126043 0.0199558 2650 
366 1 0.0112332 0.00162194 -0.009426 8.4e-05 0.00781462 -0.00760013 0.00939002 2650 
12 1 0.00621909 0.00324618 -0.0079688 0.000233 -9.2907e-05 -0.00146252 0.0101717 2650 
260 1 0.0116884 0.0306658 -0.00832294 0.000233 0.0215142 0.0236674 -0.0271095 2650 
495 1 0.00772598 0.0121882 -0.00783369 0.000233 0.00404857 0.00775653 0.0320607 2650 
377 1 0.002656 0.000672509 -0.00627 0.000233 0 -0.01175 0 2650 
235 1 0.00198887 0.0128164 -0.00513085 0.000233 0.00957308 0.00831343 -0.0211173 2650 
512 1 0.00144449 0.0276241 -0.00439937 0.000847 0.00867512 0.0290047 0.0037544 2650 
216 1 0.011055 0.0285716 -0.00341145 0.000847 -0.113128 -0.0248304 -0.0291195 2650 
374 1 0.00566522 0.0338659 -0.00334174 0.000233 0.0145183 0.0293797 -0.00883705 2650 
96 1 0.00277272 0.0496234 -0.00398887 0.000847 0.00713071 0.0821639 -0.0519866 2650 
80 1 0.000184 0.000297509 -0.002772 8.4e-05 0 -0.01175 0 2650 
292 1 0.00756757 0.00162315 -0.00194703 0.000847 0.00633071 -0.000286617 0.00678711 2650 
347 1 0.00216465 0.00494761 -0.00215046 0.000847 -0.0658938 0.0253868 -0.0472686 2650 
489 1 0.015521 0.0114325 -0.00273871 0.000847 -0.0224109 0.00595894 -0.087002 2650 
222 1 0.0160753 0.0381078 -0.00207416 0.000233 -0.0627083 0.185024 -0.137327 2650 
103 1 0.005836 0.000595509 -0.000854 0.000233 0 -0.01175 0 2650 
338 1 0.0065315 0.00239513 -0.0009604 0.000233 -0.00271292 -0.00171649 -0.0109378 2650 
98 1 0.0156866 0.00418619 -0.00101523 0.000847 0.0441246 -0.0214778 -0.0469303 2650 
135 1 0.0144733 0.00512932 -0.000172722 0.000847 -0.00848635 0.000746024 -0.0996064 2650 
50 1 0.00442411 0.0681001 -0.00025894 0.000233 0.0582666 0.0867012 -0.000404557 2650 
265 1 0.00830161 0.000144588 0.000515777 0.000847 -0.00940095 -0.0047388 -0.0108659 2650 
386 1 0.014379 0.00229092 7.90617e-05 0.000847 0.00949406 -0.00132672 0.0175477 2650 
242 1 0.00059661 0.015558 0.00119793 0.000847 0.0210544 0.00969789 -0.00499855 2650 
383 1 0.00174699 0.0183419 0.000996605 0.000847 -0.0180844 0.00999593 0.00334075 2650 
499 1 0.00544106 0.000134273 0.00586717 0.000847 0.000266612 -0.00820113 0.000232395 2650 
296 1 0.00564667 0.0108059 0.0057977 0.000233 0.0166346 0.00164492 -0.0186807 2650 
186 1 0.0134891 0.051828 0.00579861 0.001312 0.0215198 0.0440623 -0.00180283 2650 
204 1 0.00391087 0.00328562 0.00711924 0.000847 0.0254012 -0.00769949 0.00783304 2650 
445 1 0.0125627 0.0197314 0.00939871 0.001312 0.79159 -0.215613 -0.908947 2650 
107 1 0.00722846 0.0292763 0.00907354 0.001312 0.00952862 -0.000121603 0.000848496 2650 
388 1 0.0107484 0.0121457 0.0114373 0.000233 0.0854404 0.0577204 -0.0599817 2650 
22 1 0.00204567 0.0630682 0.0111953 0.000233 -0.00916307 0.0372144 -0.0289109 2650 
309 1 0.00235517 0.0214244 0.0164372 0.000233 0.873226 -0.0843132 -0.153153 2650 
259 1 0.0603589 0.129931 -0.032956 0.000233 0.0834048 -0.118391 0.152719 2650 
154 1 0.00393777 0.139816 -0.00851854 0.000233 -0.00924804 0.118602 0.00100956 2650 
