LIGGGHTS (Version LIGGGHTS-PUBLIC 3.8.0, compiled 2022-11-07-16:55:38 by serperd1, git commit 86544c3f1215bc9744d7929e3eacf53ba086af9e)
units si #
dimension 3 #
newton off #
boundary f f f #
atom_style sphere #
pair_style gran model hertz tangential history #
communicate single vel yes #
region outer_basket cylinder y 0 0 0.15 -0.15 0.15 #
create_box 3 outer_basket #
Created orthogonal box = (-0.15 -0.15 -0.15) to (0.15 0.15 0.15)
  2 by 4 by 5 MPI processor grid
variable my_omega equal 157.0796 #
fix cone_mesh all mesh/surface file cone.stl type 3 scale 1 #
fix rotating_wall_1 all move/mesh mesh cone_mesh rotate/variable origin 0 0 0 axis 0 1 0 omega v_my_omega #
fix filter_mesh_walls all wall/gran model hertz tangential history primitive type 2 ycylinder_filtermesh 0.069 0 0 2 9 -0.0628 0 0.026083 0.017002 0.038583 0.029502 shear x 10.8385 #

fix inlet_cyl_wall_mesh all mesh/surface file in_cyl.stl type 3 scale 1 #
fix top_cyl_wall_mesh all mesh/surface file top_cyl.stl type 3 scale 1 #
fix rotating_wall_4 all move/mesh mesh top_cyl_wall_mesh rotate/variable origin 0 0 0 axis 0 1 0 omega v_my_omega #
fix bot_cyl_wall_mesh all mesh/surface file bot_cyl.stl type 3 scale 1 #
fix rotating_wall_5 all move/mesh mesh bot_cyl_wall_mesh rotate/variable origin 0 0 0 axis 0 1 0 omega v_my_omega #
fix bot_disk_wall_mesh all mesh/surface file bottom_disk.stl type 3 scale 1 #
fix rotating_wall_6 all move/mesh mesh bot_disk_wall_mesh rotate/variable origin 0 0 0 axis 0 1 0 omega v_my_omega #
fix top_disk_wall_mesh all mesh/surface file top_disk.stl type 3 scale 1 #
fix rotating_wall_7 all move/mesh mesh top_disk_wall_mesh rotate/variable origin 0 0 0 axis 0 1 0 omega v_my_omega #
fix GMSH_mesh_walls all wall/gran model hertz tangential history mesh n_meshes 6 meshes cone_mesh top_cyl_wall_mesh bot_cyl_wall_mesh bot_disk_wall_mesh inlet_cyl_wall_mesh top_disk_wall_mesh #
fix Young_mod all property/global youngsModulus peratomtype 375000000 46000000 1000000000 #
fix Poisson_rat all property/global poissonsRatio peratomtype 0.32 0.42 0.29 #
fix Coeff_rest all property/global coefficientRestitution peratomtypepair 3 0.15 0.32 0.475 0.32 0.49 0.645 0.475 0.645 0.8 #
fix Coeff_fric all property/global coefficientFriction peratomtypepair 3 0.04 0.145 0.12 0.145 0.25 0.225 0.12 0.225 0.2 #

neighbor 0.00052488 bin #
neigh_modify delay 0 one 100000 page 5000000 #
fix r_0to10p all particletemplate/sphere 12345787 atom_type 1 density constant 2650 radius constant 8.4e-05 #
fix r_10to50p all particletemplate/sphere 15485863 atom_type 1 density constant 2650 radius constant 0.0002328 #
fix r_50to90p all particletemplate/sphere 15485867 atom_type 1 density constant 2650 radius constant 0.0008466 #
fix r_90to100p all particletemplate/sphere 32452843 atom_type 1 density constant 2650 radius constant 0.0013122 #
fix prob_par all particledistribution/discrete 32452867 4 r_0to10p 0.1 r_10to50p 0.4 r_50to90p 0.4 r_90to100p 0.1 #
pair_coeff * * #
timestep 6.48e-08 #

fix nve_group all nve/sphere #
fix grav_fix all gravity 6.1081 vector 0.017 -0.0033 0 -1 0 #
fix cent_fix all centrifugal 157.0796 0.017 -0.0033 0.069 #

variable step equal step #
variable mycount equal count(all) #
fix print_amount_of_atoms all print 25 "${step} ${mycount}" file numatoms.txt screen no #
run 0 #
Setting up run at Mon Jan  2 15:34:44 2023

Memory usage per processor = 954.637 Mbytes
    Step    Atoms         KinEng            CPU 
       0        0              0              0 
Loop time of 6.78343e-05 on 40 procs for 0 steps with 0 atoms, finish time Mon Jan  2 15:34:44 2023


Pair  time (%) = 0 (0)
Neigh time (%) = 0 (0)
Comm  time (%) = 0 (0)
Outpt time (%) = 0 (0)
Other time (%) = 6.78343e-05 (100)

Nlocal:    0 ave 0 max 0 min
Histogram: 40 0 0 0 0 0 0 0 0 0
Nghost:    0 ave 0 max 0 min
Histogram: 40 0 0 0 0 0 0 0 0 0
Neighs:    0 ave 0 max 0 min
Histogram: 40 0 0 0 0 0 0 0 0 0

Total # of neighbors = 0
Neighbor list builds = 0
Dangerous builds = 0
run 1 #
Setting up run at Mon Jan  2 15:34:44 2023

Memory usage per processor = 954.637 Mbytes
    Step    Atoms         KinEng            CPU 
       0        0              0              0 
       1        0              0    0.009742928 
Loop time of 0.00975715 on 40 procs for 1 steps with 0 atoms, finish time Mon Jan  2 15:34:44 2023


Pair  time (%) = 2.1728e-06 (0.0222688)
Neigh time (%) = 0 (0)
Comm  time (%) = 0.000225979 (2.31604)
Outpt time (%) = 9.31942e-05 (0.955137)
Other time (%) = 0.00943581 (96.7066)

Nlocal:    0 ave 0 max 0 min
Histogram: 40 0 0 0 0 0 0 0 0 0
Nghost:    0 ave 0 max 0 min
Histogram: 40 0 0 0 0 0 0 0 0 0
Neighs:    0 ave 0 max 0 min
Histogram: 40 0 0 0 0 0 0 0 0 0

Total # of neighbors = 0
Neighbor list builds = 0
Dangerous builds = 0
read_dump dump.atom_info_1 1 x y z radius vx vy vz box no add yes replace no #
  orthogonal box = (-0.15 -0.15 -0.15) to (0.15 0.15 0.15)
  0 atoms before read
  522 atoms in snapshot
  0 atoms purged
  0 atoms replaced
  0 atoms trimmed
  522 atoms added
  522 atoms after read
set atom * type 1 density 2650 vy -0.01175 #
  522 settings made for type
  522 settings made for density
  522 settings made for vy
run 1 #
Setting up run at Mon Jan  2 15:34:44 2023

Memory usage per processor = 958.989 Mbytes
    Step    Atoms         KinEng            CPU 
       1      522  2.0467238e-07              0 
       2      522  2.2321206e-07    0.009167866 
Loop time of 0.0091892 on 40 procs for 1 steps with 522 atoms, finish time Mon Jan  2 15:34:44 2023


Pair  time (%) = 2.35017e-06 (0.0255754)
Neigh time (%) = 0 (0)
Comm  time (%) = 5.57143e-06 (0.0606301)
Outpt time (%) = 0.000107354 (1.16826)
Other time (%) = 0.00907393 (98.7455)

Nlocal:    13.05 ave 230 max 0 min
Histogram: 36 2 0 0 0 0 0 0 1 1
Nghost:    6.9 ave 88 max 0 min
Histogram: 36 0 0 0 0 1 1 0 0 2
Neighs:    4.05 ave 71 max 0 min
Histogram: 36 2 0 0 0 0 0 0 0 2

Total # of neighbors = 162
Ave neighs/atom = 0.310345
Neighbor list builds = 0
Dangerous builds = 0
write_dump all custom dump.atom_info_ac_* id type x y z radius vx vy vz density #
run 154320
Setting up run at Mon Jan  2 15:34:44 2023

Memory usage per processor = 958.989 Mbytes
    Step    Atoms         KinEng            CPU 
       2      522  2.2321206e-07              0 
  154322      522  2.5096779e-05      1477.0556 
Loop time of 1477.06 on 40 procs for 154320 steps with 522 atoms, finish time Mon Jan  2 15:59:21 2023


Pair  time (%) = 0.324477 (0.0219678)
Neigh time (%) = 0.135813 (0.00919485)
Comm  time (%) = 0.59395 (0.0402118)
Outpt time (%) = 0.00018183 (1.23103e-05)
Other time (%) = 1476 (99.9286)

Nlocal:    13.05 ave 225 max 0 min
Histogram: 36 0 2 0 0 0 0 0 0 2
Nghost:    6.975 ave 93 max 0 min
Histogram: 36 0 0 0 1 1 0 0 0 2
Neighs:    4.4 ave 82 max 0 min
Histogram: 36 2 0 0 0 0 0 0 1 1

Total # of neighbors = 176
Ave neighs/atom = 0.337165
Neighbor list builds = 412
Dangerous builds = 0
write_dump all custom dump.atom_info_ac_* id type x y z radius vx vy vz density #
run 154320
Setting up run at Mon Jan  2 15:59:21 2023

Memory usage per processor = 958.989 Mbytes
    Step    Atoms         KinEng            CPU 
  154322      522  2.5096779e-05              0 
  308642      522  0.00014274771      1473.5191 
Loop time of 1473.55 on 40 procs for 154320 steps with 522 atoms, finish time Mon Jan  2 16:23:55 2023


Pair  time (%) = 0.321521 (0.0218195)
Neigh time (%) = 0.126713 (0.00859915)
Comm  time (%) = 0.717824 (0.048714)
Outpt time (%) = 0.000547371 (3.71465e-05)
Other time (%) = 1472.38 (99.9208)

Nlocal:    13.05 ave 215 max 0 min
Histogram: 36 0 2 0 0 0 0 0 0 2
Nghost:    7.05 ave 94 max 0 min
Histogram: 36 0 0 0 0 2 0 0 0 2
Neighs:    4.375 ave 75 max 0 min
Histogram: 36 1 1 0 0 0 0 0 0 2

Total # of neighbors = 175
Ave neighs/atom = 0.335249
Neighbor list builds = 412
Dangerous builds = 0
write_dump all custom dump.atom_info_ac_* id type x y z radius vx vy vz density #
run 154320
Setting up run at Mon Jan  2 16:23:55 2023

Memory usage per processor = 958.989 Mbytes
    Step    Atoms         KinEng            CPU 
  308642      522  0.00014274771              0 
  462962      522  0.00014423352      1475.2852 
Loop time of 1475.29 on 40 procs for 154320 steps with 522 atoms, finish time Mon Jan  2 16:48:30 2023


Pair  time (%) = 0.321522 (0.0217939)
Neigh time (%) = 0.11904 (0.00806894)
Comm  time (%) = 0.881958 (0.0597822)
Outpt time (%) = 0.000482231 (3.26873e-05)
Other time (%) = 1473.96 (99.9103)

Nlocal:    13.05 ave 210 max 0 min
Histogram: 36 0 2 0 0 0 0 0 0 2
Nghost:    6.9 ave 92 max 0 min
Histogram: 36 0 0 0 1 1 0 0 0 2
Neighs:    4.275 ave 72 max 0 min
Histogram: 36 0 2 0 0 0 0 0 0 2

Total # of neighbors = 171
Ave neighs/atom = 0.327586
Neighbor list builds = 412
Dangerous builds = 0
write_dump all custom dump.atom_info_ac_* id type x y z radius vx vy vz density #
run 154320
Setting up run at Mon Jan  2 16:48:30 2023

Memory usage per processor = 958.989 Mbytes
    Step    Atoms         KinEng            CPU 
  462962      522  0.00014423352              0 
  617282      522  7.6652719e-05      1475.5035 
Loop time of 1475.5 on 40 procs for 154320 steps with 522 atoms, finish time Mon Jan  2 17:13:06 2023


Pair  time (%) = 0.318519 (0.0215871)
Neigh time (%) = 0.122331 (0.00829082)
Comm  time (%) = 0.814446 (0.0551979)
Outpt time (%) = 0.000491959 (3.33418e-05)
Other time (%) = 1474.25 (99.9149)

Nlocal:    13.05 ave 207 max 0 min
Histogram: 36 0 2 0 0 0 0 0 0 2
Nghost:    6.925 ave 90 max 0 min
Histogram: 36 0 0 0 0 1 1 0 0 2
Neighs:    4.1 ave 74 max 0 min
Histogram: 36 1 1 0 0 0 0 1 0 1

Total # of neighbors = 164
Ave neighs/atom = 0.314176
Neighbor list builds = 412
Dangerous builds = 0
write_dump all custom dump.atom_info_ac_* id type x y z radius vx vy vz density #
run 154320
Setting up run at Mon Jan  2 17:13:06 2023

Memory usage per processor = 958.989 Mbytes
    Step    Atoms         KinEng            CPU 
  617282      522  7.6652719e-05              0 
  771602      522   0.0003105504      1478.7102 
Loop time of 1478.71 on 40 procs for 154320 steps with 522 atoms, finish time Mon Jan  2 17:37:44 2023


Pair  time (%) = 0.319379 (0.0215985)
Neigh time (%) = 0.119686 (0.00809393)
Comm  time (%) = 0.839357 (0.0567627)
Outpt time (%) = 0.000545218 (3.68711e-05)
Other time (%) = 1477.43 (99.9135)

Nlocal:    13.05 ave 208 max 0 min
Histogram: 36 0 2 0 0 0 0 0 0 2
Nghost:    6.9 ave 91 max 0 min
Histogram: 36 0 0 0 0 1 1 0 1 1
Neighs:    4 ave 70 max 0 min
Histogram: 36 1 1 0 0 0 0 0 1 1

Total # of neighbors = 160
Ave neighs/atom = 0.306513
Neighbor list builds = 412
Dangerous builds = 0
write_dump all custom dump.atom_info_ac_* id type x y z radius vx vy vz density #
run 154320
Setting up run at Mon Jan  2 17:37:45 2023

Memory usage per processor = 958.989 Mbytes
    Step    Atoms         KinEng            CPU 
  771602      522   0.0003105504              0 
  925922      522   0.0034820744      1490.7856 
Loop time of 1490.8 on 40 procs for 154320 steps with 522 atoms, finish time Mon Jan  2 18:02:35 2023


Pair  time (%) = 0.322217 (0.0216138)
Neigh time (%) = 0.209342 (0.0140423)
Comm  time (%) = 0.90073 (0.0604194)
Outpt time (%) = 0.000509043 (3.41457e-05)
Other time (%) = 1489.36 (99.9039)

Nlocal:    13.05 ave 206 max 0 min
Histogram: 36 0 2 0 0 0 0 0 0 2
Nghost:    6.775 ave 86 max 0 min
Histogram: 36 0 0 0 0 1 1 0 1 1
Neighs:    3.975 ave 74 max 0 min
Histogram: 36 2 0 0 0 0 0 1 0 1

Total # of neighbors = 159
Ave neighs/atom = 0.304598
Neighbor list builds = 685
Dangerous builds = 0
write_dump all custom dump.atom_info_ac_* id type x y z radius vx vy vz density #
run 154320
Setting up run at Mon Jan  2 18:02:36 2023

Memory usage per processor = 958.989 Mbytes
    Step    Atoms         KinEng            CPU 
  925922      522   0.0034820744              0 
 1080242      522   0.0017746197      1474.7941 
Loop time of 1474.79 on 40 procs for 154320 steps with 522 atoms, finish time Mon Jan  2 18:27:10 2023


Pair  time (%) = 0.316985 (0.0214935)
Neigh time (%) = 0.285427 (0.0193537)
Comm  time (%) = 1.11665 (0.075716)
Outpt time (%) = 0.000513867 (3.48433e-05)
Other time (%) = 1473.07 (99.8834)

Nlocal:    13.05 ave 204 max 0 min
Histogram: 36 0 2 0 0 0 0 0 0 2
Nghost:    6.825 ave 84 max 0 min
Histogram: 36 0 0 0 0 0 2 0 0 2
Neighs:    4.05 ave 72 max 0 min
Histogram: 36 0 2 0 0 0 0 1 0 1

Total # of neighbors = 162
Ave neighs/atom = 0.310345
Neighbor list builds = 912
Dangerous builds = 0
write_dump all custom dump.atom_info_ac_* id type x y z radius vx vy vz density #
run 154320
Setting up run at Mon Jan  2 18:27:10 2023

Memory usage per processor = 958.989 Mbytes
    Step    Atoms         KinEng            CPU 
 1080242      522   0.0017746197              0 
 1234562      522    0.015958144      1496.5174 
Loop time of 1496.52 on 40 procs for 154320 steps with 522 atoms, finish time Mon Jan  2 18:52:07 2023


Pair  time (%) = 0.322346 (0.0215397)
Neigh time (%) = 0.703655 (0.0470195)
Comm  time (%) = 1.44971 (0.0968721)
Outpt time (%) = 0.000735157 (4.91245e-05)
Other time (%) = 1494.04 (99.8345)

Nlocal:    13.05 ave 203 max 0 min
Histogram: 36 0 2 0 0 0 0 0 0 2
Nghost:    6.6 ave 85 max 0 min
Histogram: 36 0 0 0 0 2 0 0 0 2
Neighs:    4.35 ave 76 max 0 min
Histogram: 36 0 2 0 0 0 0 1 0 1

Total # of neighbors = 174
Ave neighs/atom = 0.333333
Neighbor list builds = 2185
Dangerous builds = 0
write_dump all custom dump.atom_info_ac_* id type x y z radius vx vy vz density #
run 154320
Setting up run at Mon Jan  2 18:52:07 2023

Memory usage per processor = 958.989 Mbytes
    Step    Atoms         KinEng            CPU 
 1234562      522    0.015958144              0 
 1388882      522    0.019174833      1550.9538 
Loop time of 1550.95 on 40 procs for 154320 steps with 522 atoms, finish time Mon Jan  2 19:17:58 2023


Pair  time (%) = 0.324886 (0.0209475)
Neigh time (%) = 2.10223 (0.135545)
Comm  time (%) = 3.24311 (0.209105)
Outpt time (%) = 0.00050223 (3.2382e-05)
Other time (%) = 1545.28 (99.6344)

Nlocal:    13.05 ave 200 max 0 min
Histogram: 36 0 2 0 0 0 0 0 0 2
Nghost:    6.4 ave 84 max 0 min
Histogram: 36 0 0 0 0 2 0 0 1 1
Neighs:    4.275 ave 78 max 0 min
Histogram: 36 0 2 0 0 0 1 0 0 1

Total # of neighbors = 171
Ave neighs/atom = 0.327586
Neighbor list builds = 6386
Dangerous builds = 0
write_dump all custom dump.atom_info_ac_* id type x y z radius vx vy vz density #
run 154320
Setting up run at Mon Jan  2 19:17:58 2023

Memory usage per processor = 958.989 Mbytes
    Step    Atoms         KinEng            CPU 
 1388882      522    0.019174833              0 
 1543202      519    0.032181203      1526.0157 
Loop time of 1526.02 on 40 procs for 154320 steps with 519 atoms, finish time Mon Jan  2 19:43:24 2023


Pair  time (%) = 0.335486 (0.0219845)
Neigh time (%) = 3.11889 (0.204381)
Comm  time (%) = 4.55489 (0.298483)
Outpt time (%) = 0.000688811 (4.51379e-05)
Other time (%) = 1518.01 (99.4751)

Nlocal:    12.975 ave 196 max 0 min
Histogram: 36 0 1 1 0 0 0 0 0 2
Nghost:    6.3 ave 85 max 0 min
Histogram: 36 0 0 0 0 2 0 0 1 1
Neighs:    4.2 ave 74 max 0 min
Histogram: 36 0 2 0 0 0 0 1 0 1

Total # of neighbors = 168
Ave neighs/atom = 0.323699
Neighbor list builds = 9424
Dangerous builds = 0
write_dump all custom dump.atom_info_ac_* id type x y z radius vx vy vz density #
run 154320
Setting up run at Mon Jan  2 19:43:24 2023

Memory usage per processor = 958.989 Mbytes
    Step    Atoms         KinEng            CPU 
 1543202      519    0.032181203              0 
 1697522      519     0.10198028      1522.1637 
Loop time of 1522.16 on 40 procs for 154320 steps with 519 atoms, finish time Mon Jan  2 20:08:46 2023


Pair  time (%) = 0.333105 (0.0218836)
Neigh time (%) = 2.18903 (0.143811)
Comm  time (%) = 3.06422 (0.201307)
Outpt time (%) = 0.00294639 (0.000193566)
Other time (%) = 1516.57 (99.6328)

Nlocal:    12.975 ave 199 max 0 min
Histogram: 36 0 1 1 0 0 0 0 0 2
Nghost:    6.325 ave 82 max 0 min
Histogram: 36 0 0 0 0 1 1 0 1 1
Neighs:    4.15 ave 63 max 0 min
Histogram: 36 0 1 1 0 0 0 0 0 2

Total # of neighbors = 166
Ave neighs/atom = 0.319846
Neighbor list builds = 6597
Dangerous builds = 0
write_dump all custom dump.atom_info_ac_* id type x y z radius vx vy vz density #
run 154320
Setting up run at Mon Jan  2 20:08:46 2023

Memory usage per processor = 958.989 Mbytes
    Step    Atoms         KinEng            CPU 
 1697522      519     0.10198028              0 
 1851842      519      0.1227044      1487.2315 
Loop time of 1487.23 on 40 procs for 154320 steps with 519 atoms, finish time Mon Jan  2 20:33:34 2023


Pair  time (%) = 0.323167 (0.0217294)
Neigh time (%) = 1.33575 (0.0898145)
Comm  time (%) = 3.04308 (0.204613)
Outpt time (%) = 0.000524195 (3.52464e-05)
Other time (%) = 1482.53 (99.6838)

Nlocal:    12.975 ave 204 max 0 min
Histogram: 36 0 1 1 0 0 0 1 0 1
Nghost:    6.8 ave 89 max 0 min
Histogram: 36 0 0 0 0 2 0 0 1 1
Neighs:    4.4 ave 77 max 0 min
Histogram: 36 0 0 2 0 0 1 0 0 1

Total # of neighbors = 176
Ave neighs/atom = 0.339114
Neighbor list builds = 4077
Dangerous builds = 0
write_dump all custom dump.atom_info_ac_* id type x y z radius vx vy vz density #
run 154320
Setting up run at Mon Jan  2 20:33:34 2023

Memory usage per processor = 958.989 Mbytes
    Step    Atoms         KinEng            CPU 
 1851842      519      0.1227044              0 
 2006162      512    0.068007427      1504.2357 
Loop time of 1504.24 on 40 procs for 154320 steps with 512 atoms, finish time Mon Jan  2 20:58:38 2023


Pair  time (%) = 0.326668 (0.0217165)
Neigh time (%) = 1.56086 (0.103764)
Comm  time (%) = 3.49614 (0.23242)
Outpt time (%) = 0.000511579 (3.40092e-05)
Other time (%) = 1498.85 (99.6421)

Nlocal:    12.8 ave 207 max 0 min
Histogram: 36 0 1 1 0 0 0 1 0 1
Nghost:    6.3 ave 79 max 0 min
Histogram: 36 0 0 0 0 2 0 0 0 2
Neighs:    3.725 ave 73 max 0 min
Histogram: 36 0 1 1 1 0 0 0 0 1

Total # of neighbors = 149
Ave neighs/atom = 0.291016
Neighbor list builds = 4834
Dangerous builds = 1
write_dump all custom dump.atom_info_ac_* id type x y z radius vx vy vz density #
run 154320
Setting up run at Mon Jan  2 20:58:38 2023

Memory usage per processor = 958.989 Mbytes
    Step    Atoms         KinEng            CPU 
 2006162      512    0.068007427              0 
 2160482      506     0.10119308      1576.3082 
Loop time of 1576.31 on 40 procs for 154320 steps with 506 atoms, finish time Mon Jan  2 21:24:54 2023


Pair  time (%) = 0.351457 (0.0222962)
Neigh time (%) = 4.97235 (0.315442)
Comm  time (%) = 7.92288 (0.502622)
Outpt time (%) = 0.000484975 (3.07665e-05)
Other time (%) = 1563.06 (99.1596)

Nlocal:    12.65 ave 208 max 0 min
Histogram: 36 0 2 0 0 0 0 1 0 1
Nghost:    6.15 ave 81 max 0 min
Histogram: 36 0 0 0 0 2 0 1 0 1
Neighs:    3.3 ave 64 max 0 min
Histogram: 36 1 0 1 0 1 0 0 0 1

Total # of neighbors = 132
Ave neighs/atom = 0.26087
Neighbor list builds = 15132
Dangerous builds = 0
write_dump all custom dump.atom_info_ac_* id type x y z radius vx vy vz density #
run 154320
Setting up run at Mon Jan  2 21:24:54 2023

Memory usage per processor = 958.989 Mbytes
    Step    Atoms         KinEng            CPU 
 2160482      506     0.10119308              0 
 2314802      503    0.086994826      1559.9226 
Loop time of 1559.92 on 40 procs for 154320 steps with 503 atoms, finish time Mon Jan  2 21:50:54 2023


Pair  time (%) = 0.345635 (0.0221572)
Neigh time (%) = 3.9983 (0.256314)
Comm  time (%) = 6.07809 (0.389641)
Outpt time (%) = 0.000553208 (3.54638e-05)
Other time (%) = 1549.5 (99.3319)

Nlocal:    12.575 ave 203 max 0 min
Histogram: 36 0 1 1 0 0 0 1 0 1
Nghost:    5.925 ave 71 max 0 min
Histogram: 36 0 0 0 0 0 2 0 0 2
Neighs:    3.35 ave 59 max 0 min
Histogram: 36 1 0 1 0 0 0 1 0 1

Total # of neighbors = 134
Ave neighs/atom = 0.266402
Neighbor list builds = 12105
Dangerous builds = 0
write_dump all custom dump.atom_info_ac_* id type x y z radius vx vy vz density #
run 154320
Setting up run at Mon Jan  2 21:50:54 2023

Memory usage per processor = 958.989 Mbytes
    Step    Atoms         KinEng            CPU 
 2314802      503    0.086994826              0 
 2469122      501     0.03152138      1504.8978 
Loop time of 1504.9 on 40 procs for 154320 steps with 501 atoms, finish time Mon Jan  2 22:15:59 2023


Pair  time (%) = 0.323815 (0.0215174)
Neigh time (%) = 1.46706 (0.0974859)
Comm  time (%) = 3.73024 (0.247873)
Outpt time (%) = 0.000480032 (3.1898e-05)
Other time (%) = 1499.38 (99.6331)

Nlocal:    12.525 ave 194 max 0 min
Histogram: 36 0 1 1 0 0 0 1 0 1
Nghost:    5.775 ave 77 max 0 min
Histogram: 36 0 0 0 1 1 0 0 0 2
Neighs:    3.075 ave 56 max 0 min
Histogram: 36 0 1 1 0 1 0 0 0 1

Total # of neighbors = 123
Ave neighs/atom = 0.245509
Neighbor list builds = 4610
Dangerous builds = 323
write_dump all custom dump.atom_info_ac_* id type x y z radius vx vy vz density #
run 154320
Setting up run at Mon Jan  2 22:15:59 2023

Memory usage per processor = 958.989 Mbytes
    Step    Atoms         KinEng            CPU 
 2469122      501     0.03152138              0 
 2623442      499     0.35537125      1530.3834 
Loop time of 1530.4 on 40 procs for 154320 steps with 499 atoms, finish time Mon Jan  2 22:41:30 2023


Pair  time (%) = 0.336364 (0.0219789)
Neigh time (%) = 2.87129 (0.187617)
Comm  time (%) = 7.09402 (0.463541)
Outpt time (%) = 0.00105772 (6.91144e-05)
Other time (%) = 1520.09 (99.3268)

Nlocal:    12.475 ave 192 max 0 min
Histogram: 35 1 2 0 0 0 0 1 0 1
Nghost:    5.75 ave 73 max 0 min
Histogram: 36 0 0 0 0 1 1 0 1 1
Neighs:    2.9 ave 55 max 0 min
Histogram: 36 0 1 1 0 0 1 0 0 1

Total # of neighbors = 116
Ave neighs/atom = 0.232465
Neighbor list builds = 8769
Dangerous builds = 88
write_dump all custom dump.atom_info_ac_* id type x y z radius vx vy vz density #
run 154320
Setting up run at Mon Jan  2 22:41:30 2023

Memory usage per processor = 958.989 Mbytes
    Step    Atoms         KinEng            CPU 
 2623442      499     0.35537125              0 
 2777762      497    0.083848653       1552.236 
Loop time of 1552.24 on 40 procs for 154320 steps with 497 atoms, finish time Mon Jan  2 23:07:22 2023


Pair  time (%) = 0.347061 (0.0223588)
Neigh time (%) = 3.89146 (0.2507)
Comm  time (%) = 10.7933 (0.695338)
Outpt time (%) = 0.000547526 (3.52733e-05)
Other time (%) = 1537.2 (99.0316)

Nlocal:    12.425 ave 188 max 0 min
Histogram: 36 0 2 0 0 0 0 0 1 1
Nghost:    5.475 ave 70 max 0 min
Histogram: 36 0 0 0 0 1 1 0 1 1
Neighs:    2.8 ave 57 max 0 min
Histogram: 36 0 2 0 0 1 0 0 0 1

Total # of neighbors = 112
Ave neighs/atom = 0.225352
Neighbor list builds = 11989
Dangerous builds = 0
write_dump all custom dump.atom_info_ac_* id type x y z radius vx vy vz density #
run 154320
Setting up run at Mon Jan  2 23:07:22 2023

Memory usage per processor = 958.989 Mbytes
    Step    Atoms         KinEng            CPU 
 2777762      497    0.083848653              0 
 2932082      495    0.051438131      1516.4427 
Loop time of 1516.44 on 40 procs for 154320 steps with 495 atoms, finish time Mon Jan  2 23:32:39 2023


Pair  time (%) = 0.326674 (0.0215421)
Neigh time (%) = 1.80515 (0.119038)
Comm  time (%) = 4.89696 (0.322924)
Outpt time (%) = 0.000521131 (3.43654e-05)
Other time (%) = 1509.41 (99.5365)

Nlocal:    12.375 ave 182 max 0 min
Histogram: 36 0 2 0 0 0 0 0 1 1
Nghost:    5.725 ave 77 max 0 min
Histogram: 36 0 0 0 0 2 0 1 0 1
Neighs:    2.775 ave 54 max 0 min
Histogram: 36 0 2 0 0 1 0 0 0 1

Total # of neighbors = 111
Ave neighs/atom = 0.224242
Neighbor list builds = 5662
Dangerous builds = 633
write_dump all custom dump.atom_info_ac_* id type x y z radius vx vy vz density #
run 154320
Setting up run at Mon Jan  2 23:32:39 2023

Memory usage per processor = 958.989 Mbytes
    Step    Atoms         KinEng            CPU 
 2932082      495    0.051438131              0 
 3086402      494    0.021902539      1507.9906 
Loop time of 1507.99 on 40 procs for 154320 steps with 494 atoms, finish time Mon Jan  2 23:57:47 2023


Pair  time (%) = 0.327931 (0.0217462)
Neigh time (%) = 1.66518 (0.110424)
Comm  time (%) = 4.58136 (0.303806)
Outpt time (%) = 0.000546557 (3.6244e-05)
Other time (%) = 1501.42 (99.564)

Nlocal:    12.35 ave 184 max 0 min
Histogram: 35 1 2 0 0 0 0 0 1 1
Nghost:    5.9 ave 71 max 0 min
Histogram: 36 0 0 0 0 0 2 1 0 1
Neighs:    2.575 ave 44 max 0 min
Histogram: 36 0 2 0 0 0 0 1 0 1

Total # of neighbors = 103
Ave neighs/atom = 0.208502
Neighbor list builds = 5045
Dangerous builds = 29
write_dump all custom dump.atom_info_ac_* id type x y z radius vx vy vz density #
run 154320
Setting up run at Mon Jan  2 23:57:47 2023

Memory usage per processor = 958.989 Mbytes
    Step    Atoms         KinEng            CPU 
 3086402      494    0.021902539              0 
 3240722      492     0.16358255      1524.1414 
Loop time of 1524.14 on 40 procs for 154320 steps with 492 atoms, finish time Tue Jan  3 00:23:11 2023


Pair  time (%) = 0.331184 (0.0217292)
Neigh time (%) = 2.08266 (0.136645)
Comm  time (%) = 6.1305 (0.402227)
Outpt time (%) = 0.000528756 (3.4692e-05)
Other time (%) = 1515.6 (99.4394)

Nlocal:    12.3 ave 184 max 0 min
Histogram: 36 0 2 0 0 0 0 1 0 1
Nghost:    5.8 ave 66 max 0 min
Histogram: 36 0 0 0 0 0 1 1 1 1
Neighs:    2.525 ave 53 max 0 min
Histogram: 36 1 1 0 0 1 0 0 0 1

Total # of neighbors = 101
Ave neighs/atom = 0.205285
Neighbor list builds = 6278
Dangerous builds = 0
write_dump all custom dump.atom_info_ac_* id type x y z radius vx vy vz density #
run 154320
Setting up run at Tue Jan  3 00:23:11 2023

Memory usage per processor = 958.989 Mbytes
    Step    Atoms         KinEng            CPU 
 3240722      492     0.16358255              0 
 3395042      488      2.5625838      1518.6198 
Loop time of 1518.62 on 40 procs for 154320 steps with 488 atoms, finish time Tue Jan  3 00:48:30 2023


Pair  time (%) = 0.329955 (0.0217273)
Neigh time (%) = 2.29128 (0.150879)
Comm  time (%) = 8.13847 (0.535912)
Outpt time (%) = 0.000523106 (3.44462e-05)
Other time (%) = 1507.86 (99.2914)

Nlocal:    12.2 ave 181 max 0 min
Histogram: 36 0 2 0 0 0 0 1 0 1
Nghost:    5.45 ave 66 max 0 min
Histogram: 36 0 0 0 0 1 1 0 1 1
Neighs:    2.85 ave 60 max 0 min
Histogram: 36 1 1 0 1 0 0 0 0 1

Total # of neighbors = 114
Ave neighs/atom = 0.233607
Neighbor list builds = 6934
Dangerous builds = 9
write_dump all custom dump.atom_info_ac_* id type x y z radius vx vy vz density #
run 154320
Setting up run at Tue Jan  3 00:48:30 2023

Memory usage per processor = 958.989 Mbytes
    Step    Atoms         KinEng            CPU 
 3395042      488      2.5625838              0 
 3549362      483     0.15974939      1534.4696 
Loop time of 1534.47 on 40 procs for 154320 steps with 483 atoms, finish time Tue Jan  3 01:14:04 2023


Pair  time (%) = 0.336226 (0.0219115)
Neigh time (%) = 2.92756 (0.190786)
Comm  time (%) = 6.9133 (0.450534)
Outpt time (%) = 0.000522742 (3.40666e-05)
Other time (%) = 1524.29 (99.3367)

Nlocal:    12.075 ave 181 max 0 min
Histogram: 36 0 2 0 0 0 0 1 0 1
Nghost:    4.775 ave 57 max 0 min
Histogram: 36 0 0 0 0 0 2 0 0 2
Neighs:    2.975 ave 59 max 0 min
Histogram: 36 0 2 0 1 0 0 0 0 1

Total # of neighbors = 119
Ave neighs/atom = 0.246377
Neighbor list builds = 8905
Dangerous builds = 215
write_dump all custom dump.atom_info_ac_* id type x y z radius vx vy vz density #
run 154320
Setting up run at Tue Jan  3 01:14:04 2023

Memory usage per processor = 958.989 Mbytes
    Step    Atoms         KinEng            CPU 
 3549362      483     0.15974939              0 
 3703682      482     0.51999637      1540.5978 
Loop time of 1540.6 on 40 procs for 154320 steps with 482 atoms, finish time Tue Jan  3 01:39:45 2023


Pair  time (%) = 0.338445 (0.0219684)
Neigh time (%) = 2.86769 (0.186141)
Comm  time (%) = 6.86935 (0.445889)
Outpt time (%) = 0.000572501 (3.7161e-05)
Other time (%) = 1530.52 (99.346)

Nlocal:    12.05 ave 180 max 0 min
Histogram: 35 1 2 0 0 0 0 1 0 1
Nghost:    5 ave 58 max 0 min
Histogram: 36 0 0 0 0 0 2 0 1 1
Neighs:    2.775 ave 68 max 0 min
Histogram: 37 1 0 1 0 0 0 0 0 1

Total # of neighbors = 111
Ave neighs/atom = 0.23029
Neighbor list builds = 8661
Dangerous builds = 0
write_dump all custom dump.atom_info_ac_* id type x y z radius vx vy vz density #
run 154320
Setting up run at Tue Jan  3 01:39:45 2023

Memory usage per processor = 958.989 Mbytes
    Step    Atoms         KinEng            CPU 
 3703682      482     0.51999637              0 
 3858002      481     0.20123954      1520.1027 
Loop time of 1520.1 on 40 procs for 154320 steps with 481 atoms, finish time Tue Jan  3 02:05:05 2023


Pair  time (%) = 0.331315 (0.0217956)
Neigh time (%) = 2.25198 (0.148146)
Comm  time (%) = 5.4742 (0.36012)
Outpt time (%) = 0.000526887 (3.46612e-05)
Other time (%) = 1512.04 (99.4699)

Nlocal:    12.025 ave 176 max 0 min
Histogram: 34 2 2 0 0 0 0 1 0 1
Nghost:    4.875 ave 56 max 0 min
Histogram: 36 0 0 0 0 0 2 0 0 2
Neighs:    2.35 ave 57 max 0 min
Histogram: 37 0 1 1 0 0 0 0 0 1

Total # of neighbors = 94
Ave neighs/atom = 0.195426
Neighbor list builds = 6781
Dangerous builds = 107
write_dump all custom dump.atom_info_ac_* id type x y z radius vx vy vz density #
run 154320
Setting up run at Tue Jan  3 02:05:05 2023

Memory usage per processor = 958.989 Mbytes
    Step    Atoms         KinEng            CPU 
 3858002      481     0.20123954              0 
 4012322      478     0.19347063      1513.1124 
Loop time of 1513.11 on 40 procs for 154320 steps with 478 atoms, finish time Tue Jan  3 02:30:18 2023


Pair  time (%) = 0.322636 (0.0213227)
Neigh time (%) = 1.52517 (0.100797)
Comm  time (%) = 4.816 (0.318284)
Outpt time (%) = 0.000517064 (3.41722e-05)
Other time (%) = 1506.45 (99.5596)

Nlocal:    11.95 ave 175 max 0 min
Histogram: 34 2 2 0 0 0 0 1 0 1
Nghost:    4.65 ave 55 max 0 min
Histogram: 36 0 0 0 0 1 0 1 1 1
Neighs:    2.15 ave 50 max 0 min
Histogram: 37 0 0 2 0 0 0 0 0 1

Total # of neighbors = 86
Ave neighs/atom = 0.179916
Neighbor list builds = 4599
Dangerous builds = 42
write_dump all custom dump.atom_info_ac_* id type x y z radius vx vy vz density #
run 154320
Setting up run at Tue Jan  3 02:30:18 2023

Memory usage per processor = 958.989 Mbytes
    Step    Atoms         KinEng            CPU 
 4012322      478     0.19347063              0 
 4166642      476     0.57828834      1505.6096 
Loop time of 1505.63 on 40 procs for 154320 steps with 476 atoms, finish time Tue Jan  3 02:55:24 2023


Pair  time (%) = 0.332084 (0.0220561)
Neigh time (%) = 1.75863 (0.116804)
Comm  time (%) = 5.85429 (0.388826)
Outpt time (%) = 0.00306765 (0.000203745)
Other time (%) = 1497.68 (99.4721)

Nlocal:    11.9 ave 171 max 0 min
Histogram: 34 2 2 0 0 0 0 1 0 1
Nghost:    4.7 ave 51 max 0 min
Histogram: 36 0 0 0 0 0 1 0 1 2
Neighs:    2.175 ave 48 max 0 min
Histogram: 37 0 0 2 0 0 0 0 0 1

Total # of neighbors = 87
Ave neighs/atom = 0.182773
Neighbor list builds = 5274
Dangerous builds = 0
write_dump all custom dump.atom_info_ac_* id type x y z radius vx vy vz density #
run 154320
Setting up run at Tue Jan  3 02:55:24 2023

Memory usage per processor = 958.989 Mbytes
    Step    Atoms         KinEng            CPU 
 4166642      476     0.57828834              0 
 4320962      472     0.17785648      1517.4374 
Loop time of 1517.44 on 40 procs for 154320 steps with 472 atoms, finish time Tue Jan  3 03:20:42 2023


Pair  time (%) = 0.32941 (0.0217083)
Neigh time (%) = 1.97519 (0.130166)
Comm  time (%) = 5.62276 (0.370543)
Outpt time (%) = 0.000521709 (3.43809e-05)
Other time (%) = 1509.51 (99.4775)

Nlocal:    11.8 ave 168 max 0 min
Histogram: 34 2 2 0 0 0 0 1 0 1
Nghost:    4.5 ave 52 max 0 min
Histogram: 36 0 0 0 0 1 1 0 0 2
Neighs:    2.225 ave 51 max 0 min
Histogram: 37 0 1 1 0 0 0 0 0 1

Total # of neighbors = 89
Ave neighs/atom = 0.188559
Neighbor list builds = 6191
Dangerous builds = 520
write_dump all custom dump.atom_info_ac_* id type x y z radius vx vy vz density #
run 154320
Setting up run at Tue Jan  3 03:20:42 2023

Memory usage per processor = 958.989 Mbytes
    Step    Atoms         KinEng            CPU 
 4320962      472     0.17785648              0 
 4475282      466     0.17892485      1514.1346 
Loop time of 1514.14 on 40 procs for 154320 steps with 466 atoms, finish time Tue Jan  3 03:45:56 2023


Pair  time (%) = 0.324745 (0.0214476)
Neigh time (%) = 1.5687 (0.103604)
Comm  time (%) = 5.0209 (0.331602)
Outpt time (%) = 0.000520018 (3.43442e-05)
Other time (%) = 1507.22 (99.5433)

Nlocal:    11.65 ave 165 max 0 min
Histogram: 34 2 1 1 0 0 0 1 0 1
Nghost:    4.525 ave 54 max 0 min
Histogram: 36 0 0 0 1 1 0 0 0 2
Neighs:    2.225 ave 55 max 0 min
Histogram: 37 0 2 0 0 0 0 0 0 1

Total # of neighbors = 89
Ave neighs/atom = 0.190987
Neighbor list builds = 4915
Dangerous builds = 89
write_dump all custom dump.atom_info_ac_* id type x y z radius vx vy vz density #
run 154320
Setting up run at Tue Jan  3 03:45:56 2023

Memory usage per processor = 958.989 Mbytes
    Step    Atoms         KinEng            CPU 
 4475282      466     0.17892485              0 
 4629602      463     0.17338386      1520.6538 
Loop time of 1520.65 on 40 procs for 154320 steps with 463 atoms, finish time Tue Jan  3 04:11:17 2023


Pair  time (%) = 0.324279 (0.021325)
Neigh time (%) = 1.8904 (0.124315)
Comm  time (%) = 7.39975 (0.486616)
Outpt time (%) = 0.000509441 (3.35015e-05)
Other time (%) = 1511.04 (99.3677)

Nlocal:    11.575 ave 164 max 0 min
Histogram: 34 2 1 1 0 0 0 1 0 1
Nghost:    4.4 ave 52 max 0 min
Histogram: 36 0 0 0 0 2 0 0 0 2
Neighs:    2.35 ave 50 max 0 min
Histogram: 36 1 1 0 1 0 0 0 0 1

Total # of neighbors = 94
Ave neighs/atom = 0.203024
Neighbor list builds = 6064
Dangerous builds = 735
write_dump all custom dump.atom_info_ac_* id type x y z radius vx vy vz density #
run 154320
Setting up run at Tue Jan  3 04:11:17 2023

Memory usage per processor = 958.989 Mbytes
    Step    Atoms         KinEng            CPU 
 4629602      463     0.17338386              0 
 4783922      462     0.58059885      1501.3958 
Loop time of 1501.4 on 40 procs for 154320 steps with 462 atoms, finish time Tue Jan  3 04:36:18 2023


Pair  time (%) = 0.327181 (0.0217917)
Neigh time (%) = 1.56761 (0.10441)
Comm  time (%) = 4.99726 (0.332841)
Outpt time (%) = 0.019035 (0.00126782)
Other time (%) = 1494.49 (99.5397)

Nlocal:    11.55 ave 162 max 0 min
Histogram: 34 2 1 1 0 0 0 1 0 1
Nghost:    4.125 ave 52 max 0 min
Histogram: 36 0 0 0 1 1 0 0 1 1
Neighs:    2.275 ave 51 max 0 min
Histogram: 37 0 1 1 0 0 0 0 0 1

Total # of neighbors = 91
Ave neighs/atom = 0.19697
Neighbor list builds = 4715
Dangerous builds = 0
write_dump all custom dump.atom_info_ac_* id type x y z radius vx vy vz density #
run 154320
Setting up run at Tue Jan  3 04:36:18 2023

Memory usage per processor = 958.989 Mbytes
    Step    Atoms         KinEng            CPU 
 4783922      462     0.58059885              0 
 4938242      459     0.18137779      1514.4567 
Loop time of 1514.46 on 40 procs for 154320 steps with 459 atoms, finish time Tue Jan  3 05:01:33 2023


Pair  time (%) = 0.32084 (0.0211851)
Neigh time (%) = 2.01358 (0.132958)
Comm  time (%) = 7.15367 (0.472359)
Outpt time (%) = 0.000505117 (3.3353e-05)
Other time (%) = 1504.97 (99.3735)

Nlocal:    11.475 ave 161 max 0 min
Histogram: 33 3 2 0 0 0 0 1 0 1
Nghost:    4.05 ave 50 max 0 min
Histogram: 36 0 0 0 1 1 0 0 0 2
Neighs:    2.075 ave 43 max 0 min
Histogram: 36 1 1 0 0 1 0 0 0 1

Total # of neighbors = 83
Ave neighs/atom = 0.180828
Neighbor list builds = 6124
Dangerous builds = 352
write_dump all custom dump.atom_info_ac_* id type x y z radius vx vy vz density #
run 154320
Setting up run at Tue Jan  3 05:01:33 2023

Memory usage per processor = 958.989 Mbytes
    Step    Atoms         KinEng            CPU 
 4938242      459     0.18137779              0 
 5092562      458     0.29894187      1501.3948 
Loop time of 1501.39 on 40 procs for 154320 steps with 458 atoms, finish time Tue Jan  3 05:26:34 2023


Pair  time (%) = 0.313359 (0.0208712)
Neigh time (%) = 1.66707 (0.111035)
Comm  time (%) = 5.95614 (0.396707)
Outpt time (%) = 0.000458537 (3.05407e-05)
Other time (%) = 1493.46 (99.4714)

Nlocal:    11.45 ave 162 max 0 min
Histogram: 33 3 2 0 0 0 0 1 0 1
Nghost:    3.775 ave 48 max 0 min
Histogram: 36 0 0 0 0 2 0 0 1 1
Neighs:    1.775 ave 38 max 0 min
Histogram: 36 2 0 0 1 0 0 0 0 1

Total # of neighbors = 71
Ave neighs/atom = 0.155022
Neighbor list builds = 4957
Dangerous builds = 0
write_dump all custom dump.atom_info_ac_* id type x y z radius vx vy vz density #
run 154320
Setting up run at Tue Jan  3 05:26:34 2023

Memory usage per processor = 958.989 Mbytes
    Step    Atoms         KinEng            CPU 
 5092562      458     0.29894187              0 
 5246882      456      0.2879011      1529.6258 
Loop time of 1529.63 on 40 procs for 154320 steps with 456 atoms, finish time Tue Jan  3 05:52:04 2023


Pair  time (%) = 0.31821 (0.0208031)
Neigh time (%) = 2.86104 (0.187042)
Comm  time (%) = 9.05881 (0.592224)
Outpt time (%) = 0.000900297 (5.88573e-05)
Other time (%) = 1517.39 (99.1999)

Nlocal:    11.4 ave 160 max 0 min
Histogram: 34 2 2 0 0 0 0 1 0 1
Nghost:    3.775 ave 44 max 0 min
Histogram: 36 0 0 0 0 2 0 0 0 2
Neighs:    1.575 ave 34 max 0 min
Histogram: 36 1 1 0 1 0 0 0 0 1

Total # of neighbors = 63
Ave neighs/atom = 0.138158
Neighbor list builds = 8551
Dangerous builds = 0
write_dump all custom dump.atom_info_ac_* id type x y z radius vx vy vz density #
run 154320
Setting up run at Tue Jan  3 05:52:04 2023

Memory usage per processor = 958.989 Mbytes
    Step    Atoms         KinEng            CPU 
 5246882      456      0.2879011              0 
 5401202      454     0.37524467      1530.3009 
Loop time of 1530.3 on 40 procs for 154320 steps with 454 atoms, finish time Tue Jan  3 06:17:34 2023


Pair  time (%) = 0.320808 (0.0209637)
Neigh time (%) = 3.17691 (0.2076)
Comm  time (%) = 9.06074 (0.592089)
Outpt time (%) = 0.000477009 (3.1171e-05)
Other time (%) = 1517.74 (99.1793)

Nlocal:    11.35 ave 162 max 0 min
Histogram: 33 3 2 0 0 0 0 1 0 1
Nghost:    3.45 ave 38 max 0 min
Histogram: 36 0 0 0 0 0 2 0 0 2
Neighs:    1.25 ave 28 max 0 min
Histogram: 37 0 1 0 0 1 0 0 0 1

Total # of neighbors = 50
Ave neighs/atom = 0.110132
Neighbor list builds = 9761
Dangerous builds = 291
write_dump all custom dump.atom_info_ac_* id type x y z radius vx vy vz density #
run 154320
Setting up run at Tue Jan  3 06:17:34 2023

Memory usage per processor = 958.989 Mbytes
    Step    Atoms         KinEng            CPU 
 5401202      454     0.37524467              0 
 5555522      451      0.3948817      1516.2652 
Loop time of 1516.27 on 40 procs for 154320 steps with 451 atoms, finish time Tue Jan  3 06:42:51 2023


Pair  time (%) = 0.312926 (0.020638)
Neigh time (%) = 2.64707 (0.174578)
Comm  time (%) = 8.07715 (0.5327)
Outpt time (%) = 0.000456316 (3.00947e-05)
Other time (%) = 1505.23 (99.2721)

Nlocal:    11.275 ave 162 max 0 min
Histogram: 33 3 2 0 0 0 1 0 0 1
Nghost:    3.45 ave 39 max 0 min
Histogram: 34 2 0 0 0 0 2 1 0 1
Neighs:    1.15 ave 25 max 0 min
Histogram: 37 0 1 0 1 0 0 0 0 1

Total # of neighbors = 46
Ave neighs/atom = 0.101996
Neighbor list builds = 7834
Dangerous builds = 0
write_dump all custom dump.atom_info_ac_* id type x y z radius vx vy vz density #
run 154320
Setting up run at Tue Jan  3 06:42:51 2023

Memory usage per processor = 958.989 Mbytes
    Step    Atoms         KinEng            CPU 
 5555522      451      0.3948817              0 
 5709842      449     0.34920117      1516.0693 
Loop time of 1516.09 on 40 procs for 154320 steps with 449 atoms, finish time Tue Jan  3 07:08:07 2023


Pair  time (%) = 0.3092 (0.0203945)
Neigh time (%) = 2.51577 (0.165937)
Comm  time (%) = 7.94262 (0.523887)
Outpt time (%) = 0.00247762 (0.000163421)
Other time (%) = 1505.32 (99.2896)

Nlocal:    11.225 ave 158 max 0 min
Histogram: 33 3 2 0 0 0 0 1 0 1
Nghost:    3.55 ave 38 max 0 min
Histogram: 36 0 0 0 0 0 1 1 1 1
Neighs:    1 ave 22 max 0 min
Histogram: 37 1 0 0 0 1 0 0 0 1

Total # of neighbors = 40
Ave neighs/atom = 0.0890869
Neighbor list builds = 7630
Dangerous builds = 92
write_dump all custom dump.atom_info_ac_* id type x y z radius vx vy vz density #
run 154320
Setting up run at Tue Jan  3 07:08:07 2023

Memory usage per processor = 958.989 Mbytes
    Step    Atoms         KinEng            CPU 
 5709842      449     0.34920117              0 
 5864162      445      0.5168715      1539.3188 
Loop time of 1539.33 on 40 procs for 154320 steps with 445 atoms, finish time Tue Jan  3 07:33:46 2023


Pair  time (%) = 0.319787 (0.0207744)
Neigh time (%) = 3.53615 (0.22972)
Comm  time (%) = 9.49588 (0.616884)
Outpt time (%) = 0.000584264 (3.79557e-05)
Other time (%) = 1525.98 (99.1326)

Nlocal:    11.125 ave 156 max 0 min
Histogram: 33 3 2 0 0 0 0 1 0 1
Nghost:    3.475 ave 35 max 0 min
Histogram: 34 2 0 0 0 0 0 2 0 2
Neighs:    0.925 ave 25 max 0 min
Histogram: 38 0 0 1 0 0 0 0 0 1

Total # of neighbors = 37
Ave neighs/atom = 0.0831461
Neighbor list builds = 10752
Dangerous builds = 521
write_dump all custom dump.atom_info_ac_* id type x y z radius vx vy vz density #
run 154320
Setting up run at Tue Jan  3 07:33:46 2023

Memory usage per processor = 958.989 Mbytes
    Step    Atoms         KinEng            CPU 
 5864162      445      0.5168715              0 
 6018482      443     0.52005688      1504.2354 
Loop time of 1504.24 on 40 procs for 154320 steps with 443 atoms, finish time Tue Jan  3 07:58:51 2023


Pair  time (%) = 0.304373 (0.0202344)
Neigh time (%) = 1.93462 (0.128612)
Comm  time (%) = 6.04617 (0.401943)
Outpt time (%) = 0.00308106 (0.000204826)
Other time (%) = 1495.95 (99.449)

Nlocal:    11.075 ave 157 max 0 min
Histogram: 32 4 2 0 0 0 1 0 0 1
Nghost:    3.375 ave 34 max 0 min
Histogram: 35 1 0 0 0 0 0 2 0 2
Neighs:    1.125 ave 28 max 0 min
Histogram: 37 1 0 1 0 0 0 0 0 1

Total # of neighbors = 45
Ave neighs/atom = 0.10158
Neighbor list builds = 5723
Dangerous builds = 0
write_dump all custom dump.atom_info_ac_* id type x y z radius vx vy vz density #
run 154320
Setting up run at Tue Jan  3 07:58:51 2023

Memory usage per processor = 958.989 Mbytes
    Step    Atoms         KinEng            CPU 
 6018482      443     0.52005688              0 
 6172802      436     0.49750823      1542.5072 
Loop time of 1542.51 on 40 procs for 154320 steps with 436 atoms, finish time Tue Jan  3 08:24:33 2023


Pair  time (%) = 0.317249 (0.0205671)
Neigh time (%) = 3.68434 (0.238854)
Comm  time (%) = 10.3862 (0.673335)
Outpt time (%) = 0.00054479 (3.53185e-05)
Other time (%) = 1528.12 (99.0672)

Nlocal:    10.9 ave 157 max 0 min
Histogram: 33 3 2 0 0 0 1 0 0 1
Nghost:    3.275 ave 37 max 0 min
Histogram: 36 0 0 0 0 0 1 1 1 1
Neighs:    1.125 ave 29 max 0 min
Histogram: 37 1 1 0 0 0 0 0 0 1

Total # of neighbors = 45
Ave neighs/atom = 0.103211
Neighbor list builds = 11726
Dangerous builds = 1265
write_dump all custom dump.atom_info_ac_* id type x y z radius vx vy vz density #
run 154320
Setting up run at Tue Jan  3 08:24:33 2023

Memory usage per processor = 958.989 Mbytes
    Step    Atoms         KinEng            CPU 
 6172802      436     0.49750823              0 
 6327122      432     0.49353871      1507.0995 
Loop time of 1507.1 on 40 procs for 154320 steps with 432 atoms, finish time Tue Jan  3 08:49:40 2023


Pair  time (%) = 0.301248 (0.0199886)
Neigh time (%) = 2.14605 (0.142396)
Comm  time (%) = 7.43267 (0.493177)
Outpt time (%) = 0.000606539 (4.02454e-05)
Other time (%) = 1497.22 (99.3444)

Nlocal:    10.8 ave 160 max 0 min
Histogram: 32 6 0 0 0 0 1 0 0 1
Nghost:    3.475 ave 40 max 0 min
Histogram: 36 0 0 0 0 0 0 2 1 1
Neighs:    1.025 ave 28 max 0 min
Histogram: 38 0 1 0 0 0 0 0 0 1

Total # of neighbors = 41
Ave neighs/atom = 0.0949074
Neighbor list builds = 6590
Dangerous builds = 582
write_dump all custom dump.atom_info_ac_* id type x y z radius vx vy vz density #
run 154320
Setting up run at Tue Jan  3 08:49:40 2023

Memory usage per processor = 958.989 Mbytes
    Step    Atoms         KinEng            CPU 
 6327122      432     0.49353871              0 
 6481442      428      0.4046991      1501.0925 
Loop time of 1501.09 on 40 procs for 154320 steps with 428 atoms, finish time Tue Jan  3 09:14:42 2023


Pair  time (%) = 0.302105 (0.0201256)
Neigh time (%) = 1.78951 (0.119214)
Comm  time (%) = 5.44931 (0.363023)
Outpt time (%) = 0.000515649 (3.43516e-05)
Other time (%) = 1493.55 (99.4976)

Nlocal:    10.7 ave 157 max 0 min
Histogram: 33 3 2 0 0 0 1 0 0 1
Nghost:    3.6 ave 37 max 0 min
Histogram: 33 3 0 0 0 0 1 0 1 2
Neighs:    1.175 ave 30 max 0 min
Histogram: 36 2 0 1 0 0 0 0 0 1

Total # of neighbors = 47
Ave neighs/atom = 0.109813
Neighbor list builds = 5633
Dangerous builds = 940
write_dump all custom dump.atom_info_ac_* id type x y z radius vx vy vz density #
run 154320
Setting up run at Tue Jan  3 09:14:42 2023

Memory usage per processor = 958.989 Mbytes
    Step    Atoms         KinEng            CPU 
 6481442      428      0.4046991              0 
 6635762      427     0.43146361      1516.4149 
Loop time of 1516.41 on 40 procs for 154320 steps with 427 atoms, finish time Tue Jan  3 09:39:58 2023


Pair  time (%) = 0.303767 (0.0200319)
Neigh time (%) = 2.28839 (0.150908)
Comm  time (%) = 5.95691 (0.392828)
Outpt time (%) = 0.000521603 (3.43971e-05)
Other time (%) = 1507.87 (99.4362)

Nlocal:    10.675 ave 159 max 0 min
Histogram: 33 2 3 0 0 0 1 0 0 1
Nghost:    3.4 ave 36 max 0 min
Histogram: 34 2 0 0 0 0 1 1 0 2
Neighs:    1.1 ave 26 max 0 min
Histogram: 37 1 0 1 0 0 0 0 0 1

Total # of neighbors = 44
Ave neighs/atom = 0.103044
Neighbor list builds = 6812
Dangerous builds = 12
write_dump all custom dump.atom_info_ac_* id type x y z radius vx vy vz density #
run 154320
Setting up run at Tue Jan  3 09:39:58 2023

Memory usage per processor = 958.989 Mbytes
    Step    Atoms         KinEng            CPU 
 6635762      427     0.43146361              0 
 6790082      423     0.76428855      1581.0954 
Loop time of 1581.1 on 40 procs for 154320 steps with 423 atoms, finish time Tue Jan  3 10:06:19 2023


Pair  time (%) = 0.314184 (0.0198713)
Neigh time (%) = 3.4545 (0.218487)
Comm  time (%) = 10.9441 (0.692184)
Outpt time (%) = 0.000488422 (3.08914e-05)
Other time (%) = 1566.38 (99.0694)

Nlocal:    10.575 ave 158 max 0 min
Histogram: 33 4 1 0 0 0 1 0 0 1
Nghost:    3.225 ave 35 max 0 min
Histogram: 36 0 0 0 0 0 0 1 2 1
Neighs:    1.075 ave 29 max 0 min
Histogram: 38 0 1 0 0 0 0 0 0 1

Total # of neighbors = 43
Ave neighs/atom = 0.101655
Neighbor list builds = 11793
Dangerous builds = 4894
write_dump all custom dump.atom_info_ac_* id type x y z radius vx vy vz density #
run 154320
Setting up run at Tue Jan  3 10:06:19 2023

Memory usage per processor = 958.989 Mbytes
    Step    Atoms         KinEng            CPU 
 6790082      423     0.76428855              0 
 6944402      419     0.93497861      1546.0152 
Loop time of 1546.02 on 40 procs for 154320 steps with 419 atoms, finish time Tue Jan  3 10:32:05 2023


Pair  time (%) = 0.303127 (0.019607)
Neigh time (%) = 2.40075 (0.155286)
Comm  time (%) = 6.20134 (0.401118)
Outpt time (%) = 0.000585252 (3.78555e-05)
Other time (%) = 1537.11 (99.424)

Nlocal:    10.475 ave 159 max 0 min
Histogram: 33 5 0 0 0 0 1 0 0 1
Nghost:    3.25 ave 35 max 0 min
Histogram: 36 0 0 0 0 0 1 0 2 1
Neighs:    1.125 ave 29 max 0 min
Histogram: 37 1 1 0 0 0 0 0 0 1

Total # of neighbors = 45
Ave neighs/atom = 0.107399
Neighbor list builds = 7123
Dangerous builds = 2
write_dump all custom dump.atom_info_ac_* id type x y z radius vx vy vz density #
run 154320
Setting up run at Tue Jan  3 10:32:05 2023

Memory usage per processor = 958.989 Mbytes
    Step    Atoms         KinEng            CPU 
 6944402      419     0.93497861              0 
 7098722      417     0.67955149      1504.2496 
Loop time of 1504.25 on 40 procs for 154320 steps with 417 atoms, finish time Tue Jan  3 10:57:10 2023


Pair  time (%) = 0.299752 (0.019927)
Neigh time (%) = 2.26931 (0.15086)
Comm  time (%) = 5.71009 (0.379597)
Outpt time (%) = 0.000515715 (3.42838e-05)
Other time (%) = 1495.97 (99.4496)

Nlocal:    10.425 ave 155 max 0 min
Histogram: 33 3 2 0 0 0 1 0 0 1
Nghost:    3.275 ave 36 max 0 min
Histogram: 35 1 0 0 0 0 1 1 0 2
Neighs:    1.2 ave 30 max 0 min
Histogram: 37 1 0 1 0 0 0 0 0 1

Total # of neighbors = 48
Ave neighs/atom = 0.115108
Neighbor list builds = 6797
Dangerous builds = 360
write_dump all custom dump.atom_info_ac_* id type x y z radius vx vy vz density #
run 154320
Setting up run at Tue Jan  3 10:57:10 2023

Memory usage per processor = 958.989 Mbytes
    Step    Atoms         KinEng            CPU 
 7098722      417     0.67955149              0 
 7253042      413      1.1040108      1672.4652 
Loop time of 1672.48 on 40 procs for 154320 steps with 413 atoms, finish time Tue Jan  3 11:25:02 2023


Pair  time (%) = 0.323783 (0.0193595)
Neigh time (%) = 6.72254 (0.401951)
Comm  time (%) = 21.0726 (1.25997)
Outpt time (%) = 0.0129891 (0.000776638)
Other time (%) = 1644.34 (98.3179)

Nlocal:    10.325 ave 152 max 0 min
Histogram: 33 3 2 0 0 0 1 0 0 1
Nghost:    3.4 ave 37 max 0 min
Histogram: 36 0 0 0 0 1 0 1 0 2
Neighs:    1.15 ave 29 max 0 min
Histogram: 37 1 0 0 1 0 0 0 0 1

Total # of neighbors = 46
Ave neighs/atom = 0.11138
Neighbor list builds = 20366
Dangerous builds = 557
write_dump all custom dump.atom_info_ac_* id type x y z radius vx vy vz density #
run 154320
Setting up run at Tue Jan  3 11:25:02 2023

Memory usage per processor = 958.989 Mbytes
    Step    Atoms         KinEng            CPU 
 7253042      413      1.1040108              0 
 7407362      408      1.0694383       1578.688 
Loop time of 1578.69 on 40 procs for 154320 steps with 408 atoms, finish time Tue Jan  3 11:51:21 2023


Pair  time (%) = 0.32766 (0.0207552)
Neigh time (%) = 6.07219 (0.384635)
Comm  time (%) = 14.8355 (0.939738)
Outpt time (%) = 0.000465014 (2.94557e-05)
Other time (%) = 1557.45 (98.6548)

Nlocal:    10.2 ave 151 max 0 min
Histogram: 32 5 1 0 0 0 1 0 0 1
Nghost:    3.325 ave 39 max 0 min
Histogram: 36 0 0 0 0 1 1 0 1 1
Neighs:    1.35 ave 32 max 0 min
Histogram: 37 1 0 1 0 0 0 0 0 1

Total # of neighbors = 54
Ave neighs/atom = 0.132353
Neighbor list builds = 18430
Dangerous builds = 781
write_dump all custom dump.atom_info_ac_* id type x y z radius vx vy vz density #
run 154320
Setting up run at Tue Jan  3 11:51:21 2023

Memory usage per processor = 958.989 Mbytes
    Step    Atoms         KinEng            CPU 
 7407362      408      1.0694383              0 
 7561682      405     0.97205939        1564.71 
Loop time of 1564.71 on 40 procs for 154320 steps with 405 atoms, finish time Tue Jan  3 12:17:26 2023


Pair  time (%) = 0.322504 (0.0206111)
Neigh time (%) = 5.42498 (0.346708)
Comm  time (%) = 14.8769 (0.95078)
Outpt time (%) = 0.000480501 (3.07086e-05)
Other time (%) = 1544.09 (98.6819)

Nlocal:    10.125 ave 150 max 0 min
Histogram: 34 2 2 0 0 0 1 0 0 1
Nghost:    3.225 ave 39 max 0 min
Histogram: 36 0 0 0 1 0 1 0 0 2
Neighs:    1.075 ave 29 max 0 min
Histogram: 37 1 0 1 0 0 0 0 0 1

Total # of neighbors = 43
Ave neighs/atom = 0.106173
Neighbor list builds = 16159
Dangerous builds = 341
write_dump all custom dump.atom_info_ac_* id type x y z radius vx vy vz density #
run 154320
Setting up run at Tue Jan  3 12:17:26 2023

Memory usage per processor = 958.989 Mbytes
    Step    Atoms         KinEng            CPU 
 7561682      405     0.97205939              0 
 7716002      402     0.94109112      1564.2054 
Loop time of 1564.21 on 40 procs for 154320 steps with 402 atoms, finish time Tue Jan  3 12:43:30 2023


Pair  time (%) = 0.32155 (0.0205568)
Neigh time (%) = 5.3527 (0.342199)
Comm  time (%) = 16.4254 (1.05008)
Outpt time (%) = 0.00968289 (0.000619029)
Other time (%) = 1542.1 (98.5865)

Nlocal:    10.05 ave 146 max 0 min
Histogram: 33 4 1 0 0 0 1 0 0 1
Nghost:    3.125 ave 36 max 0 min
Histogram: 35 1 0 0 1 0 0 1 0 2
Neighs:    0.925 ave 24 max 0 min
Histogram: 38 0 0 1 0 0 0 0 0 1

Total # of neighbors = 37
Ave neighs/atom = 0.0920398
Neighbor list builds = 15875
Dangerous builds = 0
write_dump all custom dump.atom_info_ac_* id type x y z radius vx vy vz density #
run 154320
Setting up run at Tue Jan  3 12:43:30 2023

Memory usage per processor = 958.989 Mbytes
    Step    Atoms         KinEng            CPU 
 7716002      402     0.94109112              0 
 7870322      396     0.90106516      1569.2978 
Loop time of 1569.3 on 40 procs for 154320 steps with 396 atoms, finish time Tue Jan  3 13:09:40 2023


Pair  time (%) = 0.319324 (0.0203482)
Neigh time (%) = 5.34071 (0.340324)
Comm  time (%) = 15.503 (0.987893)
Outpt time (%) = 0.00312035 (0.000198837)
Other time (%) = 1548.13 (98.6512)

Nlocal:    9.9 ave 135 max 0 min
Histogram: 32 4 2 0 0 0 0 1 0 1
Nghost:    3.375 ave 38 max 0 min
Histogram: 36 0 0 0 1 0 0 1 1 1
Neighs:    0.825 ave 20 max 0 min
Histogram: 37 1 0 0 1 0 0 0 0 1

Total # of neighbors = 33
Ave neighs/atom = 0.0833333
Neighbor list builds = 15784
Dangerous builds = 0
write_dump all custom dump.atom_info_ac_* id type x y z radius vx vy vz density #
run 154320
Setting up run at Tue Jan  3 13:09:40 2023

Memory usage per processor = 958.989 Mbytes
    Step    Atoms         KinEng            CPU 
 7870322      396     0.90106516              0 
 8024642      392     0.79367518      1575.8972 
Loop time of 1575.9 on 40 procs for 154320 steps with 392 atoms, finish time Tue Jan  3 13:35:56 2023


Pair  time (%) = 0.322105 (0.0204394)
Neigh time (%) = 5.6818 (0.360544)
Comm  time (%) = 17.5835 (1.11578)
Outpt time (%) = 0.000511806 (3.24771e-05)
Other time (%) = 1552.31 (98.5032)

Nlocal:    9.8 ave 135 max 0 min
Histogram: 33 2 3 0 0 0 0 1 0 1
Nghost:    3.45 ave 37 max 0 min
Histogram: 34 2 0 0 1 0 0 0 1 2
Neighs:    0.925 ave 20 max 0 min
Histogram: 35 3 0 0 1 0 0 0 0 1

Total # of neighbors = 37
Ave neighs/atom = 0.0943878
Neighbor list builds = 16951
Dangerous builds = 277
write_dump all custom dump.atom_info_ac_* id type x y z radius vx vy vz density #
run 154320
Setting up run at Tue Jan  3 13:35:56 2023

Memory usage per processor = 958.989 Mbytes
    Step    Atoms         KinEng            CPU 
 8024642      392     0.79367518              0 
 8178962      388     0.71909132      1561.3936 
Loop time of 1561.39 on 40 procs for 154320 steps with 388 atoms, finish time Tue Jan  3 14:01:57 2023


Pair  time (%) = 0.321179 (0.02057)
Neigh time (%) = 5.0867 (0.32578)
Comm  time (%) = 10.3447 (0.662528)
Outpt time (%) = 0.000555208 (3.55585e-05)
Other time (%) = 1545.64 (98.9911)

Nlocal:    9.7 ave 133 max 0 min
Histogram: 34 1 2 1 0 0 0 1 0 1
Nghost:    3.075 ave 35 max 0 min
Histogram: 36 0 0 0 0 1 0 0 1 2
Neighs:    0.85 ave 21 max 0 min
Histogram: 38 0 0 1 0 0 0 0 0 1

Total # of neighbors = 34
Ave neighs/atom = 0.0876289
Neighbor list builds = 15009
Dangerous builds = 0
write_dump all custom dump.atom_info_ac_* id type x y z radius vx vy vz density #
run 154320
Setting up run at Tue Jan  3 14:01:57 2023

Memory usage per processor = 958.989 Mbytes
    Step    Atoms         KinEng            CPU 
 8178962      388     0.71909132              0 
 8333282      385      3.5557153      1556.2912 
Loop time of 1556.29 on 40 procs for 154320 steps with 385 atoms, finish time Tue Jan  3 14:27:54 2023


Pair  time (%) = 0.314732 (0.0202232)
Neigh time (%) = 4.49785 (0.28901)
Comm  time (%) = 10.9157 (0.70139)
Outpt time (%) = 0.000481443 (3.09353e-05)
Other time (%) = 1540.56 (98.9893)

Nlocal:    9.625 ave 130 max 0 min
Histogram: 32 4 2 0 0 0 0 1 0 1
Nghost:    2.975 ave 33 max 0 min
Histogram: 36 0 0 0 0 0 1 0 1 2
Neighs:    0.875 ave 21 max 0 min
Histogram: 37 1 0 0 1 0 0 0 0 1

Total # of neighbors = 35
Ave neighs/atom = 0.0909091
Neighbor list builds = 13411
Dangerous builds = 32
write_dump all custom dump.atom_info_ac_* id type x y z radius vx vy vz density #
run 154320
Setting up run at Tue Jan  3 14:27:54 2023

Memory usage per processor = 958.989 Mbytes
    Step    Atoms         KinEng            CPU 
 8333282      385      3.5557153              0 
 8487602      382      1.0637516      1547.2553 
Loop time of 1547.26 on 40 procs for 154320 steps with 382 atoms, finish time Tue Jan  3 14:53:41 2023


Pair  time (%) = 0.313335 (0.020251)
Neigh time (%) = 4.49117 (0.290267)
Comm  time (%) = 12.0401 (0.778157)
Outpt time (%) = 0.000536138 (3.46509e-05)
Other time (%) = 1530.41 (98.9113)

Nlocal:    9.55 ave 124 max 0 min
Histogram: 33 2 3 0 0 0 0 0 1 1
Nghost:    3.275 ave 37 max 0 min
Histogram: 34 2 0 0 0 1 1 0 1 1
Neighs:    0.975 ave 22 max 0 min
Histogram: 37 1 0 0 1 0 0 0 0 1

Total # of neighbors = 39
Ave neighs/atom = 0.102094
Neighbor list builds = 13396
Dangerous builds = 187
write_dump all custom dump.atom_info_ac_* id type x y z radius vx vy vz density #
run 154320
Setting up run at Tue Jan  3 14:53:41 2023

Memory usage per processor = 958.989 Mbytes
    Step    Atoms         KinEng            CPU 
 8487602      382      1.0637516              0 
 8641922      378     0.94070042      1543.5603 
Loop time of 1543.56 on 40 procs for 154320 steps with 378 atoms, finish time Tue Jan  3 15:19:25 2023


Pair  time (%) = 0.309458 (0.0200483)
Neigh time (%) = 4.26467 (0.276288)
Comm  time (%) = 11.5975 (0.751346)
Outpt time (%) = 0.000534815 (3.46481e-05)
Other time (%) = 1527.39 (98.9523)

Nlocal:    9.45 ave 122 max 0 min
Histogram: 34 1 3 0 0 0 0 0 1 1
Nghost:    3.2 ave 38 max 0 min
Histogram: 36 0 0 0 0 1 1 0 1 1
Neighs:    0.875 ave 20 max 0 min
Histogram: 35 3 0 1 0 0 0 0 0 1

Total # of neighbors = 35
Ave neighs/atom = 0.0925926
Neighbor list builds = 12813
Dangerous builds = 220
write_dump all custom dump.atom_info_ac_* id type x y z radius vx vy vz density #
run 154320
Setting up run at Tue Jan  3 15:19:25 2023

Memory usage per processor = 958.989 Mbytes
    Step    Atoms         KinEng            CPU 
 8641922      378     0.94070042              0 
 8796242      376      1.0213602      1529.2377 
Loop time of 1529.24 on 40 procs for 154320 steps with 376 atoms, finish time Tue Jan  3 15:44:54 2023


Pair  time (%) = 0.305265 (0.0199619)
Neigh time (%) = 3.15357 (0.206219)
Comm  time (%) = 8.27408 (0.541059)
Outpt time (%) = 0.000464551 (3.0378e-05)
Other time (%) = 1517.5 (99.2327)

Nlocal:    9.4 ave 117 max 0 min
Histogram: 32 4 1 1 0 0 0 0 1 1
Nghost:    3.2 ave 38 max 0 min
Histogram: 35 1 0 0 0 1 1 1 0 1
Neighs:    0.95 ave 22 max 0 min
Histogram: 37 1 0 0 0 1 0 0 0 1

Total # of neighbors = 38
Ave neighs/atom = 0.101064
Neighbor list builds = 9448
Dangerous builds = 345
write_dump all custom dump.atom_info_ac_* id type x y z radius vx vy vz density #
run 154320
Setting up run at Tue Jan  3 15:44:54 2023

Memory usage per processor = 958.989 Mbytes
    Step    Atoms         KinEng            CPU 
 8796242      376      1.0213602              0 
 8950562      375     0.70919121      1551.6859 
Loop time of 1551.69 on 40 procs for 154320 steps with 375 atoms, finish time Tue Jan  3 16:10:46 2023


Pair  time (%) = 0.313594 (0.0202099)
Neigh time (%) = 4.72975 (0.304814)
Comm  time (%) = 9.26721 (0.597235)
Outpt time (%) = 0.000550701 (3.54905e-05)
Other time (%) = 1537.37 (99.0777)

Nlocal:    9.375 ave 114 max 0 min
Histogram: 32 4 1 1 0 0 0 0 0 2
Nghost:    3.1 ave 37 max 0 min
Histogram: 36 0 0 0 0 0 1 1 1 1
Neighs:    0.875 ave 21 max 0 min
Histogram: 37 1 0 0 1 0 0 0 0 1

Total # of neighbors = 35
Ave neighs/atom = 0.0933333
Neighbor list builds = 14007
Dangerous builds = 0
write_dump all custom dump.atom_info_ac_* id type x y z radius vx vy vz density #
run 154320
Setting up run at Tue Jan  3 16:10:46 2023

Memory usage per processor = 958.989 Mbytes
    Step    Atoms         KinEng            CPU 
 8950562      375     0.70919121              0 
 9104882      371     0.73328434      1535.8367 
Loop time of 1535.84 on 40 procs for 154320 steps with 371 atoms, finish time Tue Jan  3 16:36:22 2023


Pair  time (%) = 0.30411 (0.0198009)
Neigh time (%) = 3.90672 (0.254371)
Comm  time (%) = 8.39404 (0.546545)
Outpt time (%) = 0.000520116 (3.38653e-05)
Other time (%) = 1523.23 (99.1792)

Nlocal:    9.275 ave 117 max 0 min
Histogram: 32 4 1 1 0 0 0 0 1 1
Nghost:    3.35 ave 36 max 0 min
Histogram: 35 1 0 0 0 0 2 0 1 1
Neighs:    0.85 ave 18 max 0 min
Histogram: 36 2 0 0 0 1 0 0 0 1

Total # of neighbors = 34
Ave neighs/atom = 0.0916442
Neighbor list builds = 11540
Dangerous builds = 0
write_dump all custom dump.atom_info_ac_* id type x y z radius vx vy vz density #
run 154320
Setting up run at Tue Jan  3 16:36:22 2023

Memory usage per processor = 958.989 Mbytes
    Step    Atoms         KinEng            CPU 
 9104882      371     0.73328434              0 
 9259202      367     0.62164932      1526.4741 
Loop time of 1526.47 on 40 procs for 154320 steps with 367 atoms, finish time Tue Jan  3 17:01:48 2023


Pair  time (%) = 0.302804 (0.0198368)
Neigh time (%) = 3.54796 (0.232429)
Comm  time (%) = 10.5012 (0.687938)
Outpt time (%) = 0.00050111 (3.28279e-05)
Other time (%) = 1512.12 (99.0598)

Nlocal:    9.175 ave 114 max 0 min
Histogram: 32 4 2 0 0 0 0 0 1 1
Nghost:    3.175 ave 39 max 0 min
Histogram: 36 0 0 0 0 2 0 1 0 1
Neighs:    0.65 ave 17 max 0 min
Histogram: 38 0 0 0 1 0 0 0 0 1

Total # of neighbors = 26
Ave neighs/atom = 0.0708447
Neighbor list builds = 10873
Dangerous builds = 1163
write_dump all custom dump.atom_info_ac_* id type x y z radius vx vy vz density #
run 154320
Setting up run at Tue Jan  3 17:01:48 2023

Memory usage per processor = 958.989 Mbytes
    Step    Atoms         KinEng            CPU 
 9259202      367     0.62164932              0 
 9413522      360     0.54865427      1524.8521 
Loop time of 1524.85 on 40 procs for 154320 steps with 360 atoms, finish time Tue Jan  3 17:27:13 2023


Pair  time (%) = 0.301109 (0.0197468)
Neigh time (%) = 3.03908 (0.199303)
Comm  time (%) = 8.45448 (0.554446)
Outpt time (%) = 0.00293405 (0.000192416)
Other time (%) = 1513.05 (99.2263)

Nlocal:    9 ave 125 max 0 min
Histogram: 33 3 2 0 0 0 1 0 0 1
Nghost:    3.55 ave 37 max 0 min
Histogram: 35 1 0 0 0 0 1 0 1 2
Neighs:    0.575 ave 15 max 0 min
Histogram: 37 1 0 1 0 0 0 0 0 1

Total # of neighbors = 23
Ave neighs/atom = 0.0638889
Neighbor list builds = 9046
Dangerous builds = 291
write_dump all custom dump.atom_info_ac_* id type x y z radius vx vy vz density #
run 154320
Setting up run at Tue Jan  3 17:27:13 2023

Memory usage per processor = 958.989 Mbytes
    Step    Atoms         KinEng            CPU 
 9413522      360     0.54865427              0 
 9567842      356     0.53363321      1513.6761 
Loop time of 1513.68 on 40 procs for 154320 steps with 356 atoms, finish time Tue Jan  3 17:52:27 2023


Pair  time (%) = 0.297741 (0.0196701)
Neigh time (%) = 2.58011 (0.170453)
Comm  time (%) = 6.24744 (0.412733)
Outpt time (%) = 0.000557797 (3.68505e-05)
Other time (%) = 1504.55 (99.3971)

Nlocal:    8.9 ave 115 max 0 min
Histogram: 33 2 2 1 0 0 0 1 0 1
Nghost:    3.1 ave 37 max 0 min
Histogram: 36 0 0 0 0 0 1 2 0 1
Neighs:    0.725 ave 19 max 0 min
Histogram: 36 2 1 0 0 0 0 0 0 1

Total # of neighbors = 29
Ave neighs/atom = 0.0814607
Neighbor list builds = 7642
Dangerous builds = 0
write_dump all custom dump.atom_info_ac_* id type x y z radius vx vy vz density #
run 154320
Setting up run at Tue Jan  3 17:52:27 2023

Memory usage per processor = 958.989 Mbytes
    Step    Atoms         KinEng            CPU 
 9567842      356     0.53363321              0 
 9722162      350     0.64669625      1520.6343 
Loop time of 1520.63 on 40 procs for 154320 steps with 350 atoms, finish time Tue Jan  3 18:17:48 2023


Pair  time (%) = 0.306599 (0.0201626)
Neigh time (%) = 3.35367 (0.220544)
Comm  time (%) = 10.3472 (0.68045)
Outpt time (%) = 0.000426894 (2.80734e-05)
Other time (%) = 1506.63 (99.0788)

Nlocal:    8.75 ave 111 max 0 min
Histogram: 32 3 2 1 0 0 0 1 0 1
Nghost:    2.875 ave 30 max 0 min
Histogram: 35 1 0 0 0 0 0 1 1 2
Neighs:    0.65 ave 15 max 0 min
Histogram: 37 1 0 0 0 1 0 0 0 1

Total # of neighbors = 26
Ave neighs/atom = 0.0742857
Neighbor list builds = 9958
Dangerous builds = 29
write_dump all custom dump.atom_info_ac_* id type x y z radius vx vy vz density #
run 154320
Setting up run at Tue Jan  3 18:17:48 2023

Memory usage per processor = 958.989 Mbytes
    Step    Atoms         KinEng            CPU 
 9722162      350     0.64669625              0 
 9876482      345      1.1004593      1518.5648 
Loop time of 1518.57 on 40 procs for 154320 steps with 345 atoms, finish time Tue Jan  3 18:43:06 2023


Pair  time (%) = 0.29822 (0.0196383)
Neigh time (%) = 2.50552 (0.164992)
Comm  time (%) = 7.4326 (0.489449)
Outpt time (%) = 0.000499081 (3.28653e-05)
Other time (%) = 1508.33 (99.3259)

Nlocal:    8.625 ave 108 max 0 min
Histogram: 32 3 3 0 0 0 0 0 1 1
Nghost:    3.2 ave 32 max 0 min
Histogram: 36 0 0 0 0 0 0 1 1 2
Neighs:    0.7 ave 14 max 0 min
Histogram: 36 1 1 0 1 0 0 0 0 1

Total # of neighbors = 28
Ave neighs/atom = 0.0811594
Neighbor list builds = 7489
Dangerous builds = 301
write_dump all custom dump.atom_info_ac_* id type x y z radius vx vy vz density #
run 154320
Setting up run at Tue Jan  3 18:43:06 2023

Memory usage per processor = 958.989 Mbytes
    Step    Atoms         KinEng            CPU 
 9876482      345      1.1004593              0 
10030802      342     0.63340177      1508.3445 
Loop time of 1508.34 on 40 procs for 154320 steps with 342 atoms, finish time Tue Jan  3 19:08:15 2023


Pair  time (%) = 0.289578 (0.0191984)
Neigh time (%) = 2.00998 (0.133258)
Comm  time (%) = 6.43547 (0.426658)
Outpt time (%) = 0.000596642 (3.95561e-05)
Other time (%) = 1499.61 (99.4208)

Nlocal:    8.55 ave 105 max 0 min
Histogram: 32 4 1 1 0 0 0 0 1 1
Nghost:    3.2 ave 35 max 0 min
Histogram: 36 0 0 0 0 0 1 0 2 1
Neighs:    0.725 ave 17 max 0 min
Histogram: 37 1 0 0 1 0 0 0 0 1

Total # of neighbors = 29
Ave neighs/atom = 0.0847953
Neighbor list builds = 5941
Dangerous builds = 19
write_dump all custom dump.atom_info_ac_* id type x y z radius vx vy vz density #
run 154320
Setting up run at Tue Jan  3 19:08:15 2023

Memory usage per processor = 958.989 Mbytes
    Step    Atoms         KinEng            CPU 
10030802      342     0.63340177              0 
10185122      340     0.59034451      1495.0581 
Loop time of 1495.06 on 40 procs for 154320 steps with 340 atoms, finish time Tue Jan  3 19:33:10 2023


Pair  time (%) = 0.288708 (0.0193108)
Neigh time (%) = 1.93986 (0.129751)
Comm  time (%) = 5.82051 (0.389316)
Outpt time (%) = 0.000548748 (3.67042e-05)
Other time (%) = 1487.01 (99.4616)

Nlocal:    8.5 ave 105 max 0 min
Histogram: 32 3 2 1 0 0 0 1 0 1
Nghost:    3.35 ave 36 max 0 min
Histogram: 36 0 0 0 0 0 1 0 1 2
Neighs:    0.85 ave 19 max 0 min
Histogram: 37 0 1 0 1 0 0 0 0 1

Total # of neighbors = 34
Ave neighs/atom = 0.1
Neighbor list builds = 5804
Dangerous builds = 1
write_dump all custom dump.atom_info_ac_* id type x y z radius vx vy vz density #
run 154320
Setting up run at Tue Jan  3 19:33:10 2023

Memory usage per processor = 958.989 Mbytes
    Step    Atoms         KinEng            CPU 
10185122      340     0.59034451              0 
10339442      336     0.58055785      1516.7123 
Loop time of 1516.71 on 40 procs for 154320 steps with 336 atoms, finish time Tue Jan  3 19:58:27 2023


Pair  time (%) = 0.294242 (0.0194)
Neigh time (%) = 2.73673 (0.180438)
Comm  time (%) = 7.50832 (0.495038)
Outpt time (%) = 0.000511118 (3.36991e-05)
Other time (%) = 1506.17 (99.3051)

Nlocal:    8.4 ave 102 max 0 min
Histogram: 33 2 1 1 1 0 0 1 0 1
Nghost:    3.15 ave 34 max 0 min
Histogram: 36 0 0 0 0 0 1 1 0 2
Neighs:    0.7 ave 17 max 0 min
Histogram: 37 1 0 1 0 0 0 0 0 1

Total # of neighbors = 28
Ave neighs/atom = 0.0833333
Neighbor list builds = 8077
Dangerous builds = 0
write_dump all custom dump.atom_info_ac_* id type x y z radius vx vy vz density #
run 154320
Setting up run at Tue Jan  3 19:58:27 2023

Memory usage per processor = 958.989 Mbytes
    Step    Atoms         KinEng            CPU 
10339442      336     0.58055785              0 
10493762      333     0.55369534      1499.0595 
Loop time of 1499.06 on 40 procs for 154320 steps with 333 atoms, finish time Tue Jan  3 20:23:26 2023


Pair  time (%) = 0.285104 (0.0190188)
Neigh time (%) = 1.51591 (0.101124)
Comm  time (%) = 4.2389 (0.282771)
Outpt time (%) = 0.000494782 (3.30062e-05)
Other time (%) = 1493.02 (99.5971)

Nlocal:    8.325 ave 98 max 0 min
Histogram: 32 2 3 1 0 0 0 1 0 1
Nghost:    3.2 ave 33 max 0 min
Histogram: 35 1 0 0 0 0 0 2 0 2
Neighs:    0.675 ave 16 max 0 min
Histogram: 36 2 0 0 1 0 0 0 0 1

Total # of neighbors = 27
Ave neighs/atom = 0.0810811
Neighbor list builds = 4579
Dangerous builds = 171
write_dump all custom dump.atom_info_ac_* id type x y z radius vx vy vz density #
run 154320
Setting up run at Tue Jan  3 20:23:26 2023

Memory usage per processor = 958.989 Mbytes
    Step    Atoms         KinEng            CPU 
10493762      333     0.55369534              0 
10648082      331     0.57573805      1507.7272 
Loop time of 1507.73 on 40 procs for 154320 steps with 331 atoms, finish time Tue Jan  3 20:48:34 2023


Pair  time (%) = 0.288497 (0.0191346)
Neigh time (%) = 2.35027 (0.155881)
Comm  time (%) = 6.5946 (0.437387)
Outpt time (%) = 0.00047134 (3.12616e-05)
Other time (%) = 1498.49 (99.3876)

Nlocal:    8.275 ave 87 max 0 min
Histogram: 32 2 2 0 2 0 0 0 0 2
Nghost:    2.95 ave 33 max 0 min
Histogram: 36 0 0 0 0 0 1 1 0 2
Neighs:    0.75 ave 15 max 0 min
Histogram: 35 0 3 1 0 0 0 0 0 1

Total # of neighbors = 30
Ave neighs/atom = 0.0906344
Neighbor list builds = 6975
Dangerous builds = 0
write_dump all custom dump.atom_info_ac_* id type x y z radius vx vy vz density #
run 154320
Setting up run at Tue Jan  3 20:48:34 2023

Memory usage per processor = 958.989 Mbytes
    Step    Atoms         KinEng            CPU 
10648082      331     0.57573805              0 
10802402      326     0.47322698      1541.5111 
Loop time of 1541.51 on 40 procs for 154320 steps with 326 atoms, finish time Tue Jan  3 21:14:15 2023


Pair  time (%) = 0.303662 (0.019699)
Neigh time (%) = 4.18065 (0.271205)
Comm  time (%) = 11.0367 (0.715965)
Outpt time (%) = 0.00304495 (0.00019753)
Other time (%) = 1525.99 (98.9929)

Nlocal:    8.15 ave 86 max 0 min
Histogram: 32 3 1 1 0 1 0 0 0 2
Nghost:    2.825 ave 33 max 0 min
Histogram: 36 0 0 0 0 0 2 0 1 1
Neighs:    0.575 ave 12 max 0 min
Histogram: 36 1 1 0 1 0 0 0 0 1

Total # of neighbors = 23
Ave neighs/atom = 0.0705521
Neighbor list builds = 12391
Dangerous builds = 10
write_dump all custom dump.atom_info_ac_* id type x y z radius vx vy vz density #
run 154320
Setting up run at Tue Jan  3 21:14:15 2023

Memory usage per processor = 958.989 Mbytes
    Step    Atoms         KinEng            CPU 
10802402      326     0.47322698              0 
10956722      325     0.46502333      1513.8884 
Loop time of 1513.89 on 40 procs for 154320 steps with 325 atoms, finish time Tue Jan  3 21:39:29 2023


Pair  time (%) = 0.292038 (0.0192906)
Neigh time (%) = 2.59506 (0.171417)
Comm  time (%) = 7.8689 (0.51978)
Outpt time (%) = 0.000427148 (2.82153e-05)
Other time (%) = 1503.13 (99.2895)

Nlocal:    8.125 ave 85 max 0 min
Histogram: 32 1 3 1 1 0 0 0 0 2
Nghost:    2.625 ave 28 max 0 min
Histogram: 35 1 0 0 0 0 1 1 0 2
Neighs:    0.6 ave 12 max 0 min
Histogram: 36 1 1 0 1 0 0 0 0 1

Total # of neighbors = 24
Ave neighs/atom = 0.0738462
Neighbor list builds = 7654
Dangerous builds = 5
write_dump all custom dump.atom_info_ac_* id type x y z radius vx vy vz density #
run 154320
Setting up run at Tue Jan  3 21:39:29 2023

Memory usage per processor = 958.989 Mbytes
    Step    Atoms         KinEng            CPU 
10956722      325     0.46502333              0 
11111042      324     0.44856199      1519.8678 
Loop time of 1519.87 on 40 procs for 154320 steps with 324 atoms, finish time Tue Jan  3 22:04:49 2023


Pair  time (%) = 0.294486 (0.0193757)
Neigh time (%) = 2.56296 (0.16863)
Comm  time (%) = 8.99407 (0.591766)
Outpt time (%) = 0.000481892 (3.17062e-05)
Other time (%) = 1508.02 (99.2202)

Nlocal:    8.1 ave 86 max 0 min
Histogram: 32 3 0 2 0 1 0 0 0 2
Nghost:    2.825 ave 31 max 0 min
Histogram: 36 0 0 0 0 0 0 3 0 1
Neighs:    0.45 ave 8 max 0 min
Histogram: 36 1 0 0 0 1 1 0 0 1

Total # of neighbors = 18
Ave neighs/atom = 0.0555556
Neighbor list builds = 7644
Dangerous builds = 160
write_dump all custom dump.atom_info_ac_* id type x y z radius vx vy vz density #
run 154320
Setting up run at Tue Jan  3 22:04:49 2023

Memory usage per processor = 958.989 Mbytes
    Step    Atoms         KinEng            CPU 
11111042      324     0.44856199              0 
11265362      324     0.51067165       1564.091 
Loop time of 1564.09 on 40 procs for 154320 steps with 324 atoms, finish time Tue Jan  3 22:30:53 2023


Pair  time (%) = 0.310221 (0.0198339)
Neigh time (%) = 5.08177 (0.324903)
Comm  time (%) = 15.0791 (0.964079)
Outpt time (%) = 0.00054121 (3.46022e-05)
Other time (%) = 1543.62 (98.6911)

Nlocal:    8.1 ave 83 max 0 min
Histogram: 32 2 1 2 0 1 0 0 0 2
Nghost:    2.65 ave 31 max 0 min
Histogram: 36 0 0 0 0 0 1 2 0 1
Neighs:    0.375 ave 7 max 0 min
Histogram: 35 2 1 0 0 1 0 0 0 1

Total # of neighbors = 15
Ave neighs/atom = 0.0462963
Neighbor list builds = 15087
Dangerous builds = 0
write_dump all custom dump.atom_info_ac_* id type x y z radius vx vy vz density #
run 154320
Setting up run at Tue Jan  3 22:30:53 2023

Memory usage per processor = 958.989 Mbytes
    Step    Atoms         KinEng            CPU 
11265362      324     0.51067165              0 
11419682      317     0.45182701      1546.3723 
Loop time of 1546.37 on 40 procs for 154320 steps with 317 atoms, finish time Tue Jan  3 22:56:40 2023


Pair  time (%) = 0.305816 (0.0197763)
Neigh time (%) = 4.32411 (0.279629)
Comm  time (%) = 9.46568 (0.612122)
Outpt time (%) = 0.00050624 (3.27373e-05)
Other time (%) = 1532.28 (99.0884)

Nlocal:    7.925 ave 84 max 0 min
Histogram: 32 0 4 2 0 0 0 0 0 2
Nghost:    2.8 ave 30 max 0 min
Histogram: 35 1 0 0 0 0 0 2 1 1
Neighs:    0.45 ave 9 max 0 min
Histogram: 34 4 0 0 0 1 0 0 0 1

Total # of neighbors = 18
Ave neighs/atom = 0.0567823
Neighbor list builds = 13003
Dangerous builds = 318
write_dump all custom dump.atom_info_ac_* id type x y z radius vx vy vz density #
run 154320
Setting up run at Tue Jan  3 22:56:40 2023

Memory usage per processor = 958.989 Mbytes
    Step    Atoms         KinEng            CPU 
11419682      317     0.45182701              0 
11574002      314     0.55363654      1526.0614 
Loop time of 1526.06 on 40 procs for 154320 steps with 314 atoms, finish time Tue Jan  3 23:22:06 2023


Pair  time (%) = 0.299081 (0.0195982)
Neigh time (%) = 3.38242 (0.221644)
Comm  time (%) = 9.8048 (0.64249)
Outpt time (%) = 0.000415209 (2.72079e-05)
Other time (%) = 1512.57 (99.1162)

Nlocal:    7.85 ave 80 max 0 min
Histogram: 32 2 0 3 1 0 0 0 0 2
Nghost:    2.6 ave 29 max 0 min
Histogram: 36 0 0 0 0 0 1 1 1 1
Neighs:    0.4 ave 9 max 0 min
Histogram: 35 2 1 1 0 0 0 0 0 1

Total # of neighbors = 16
Ave neighs/atom = 0.0509554
Neighbor list builds = 10244
Dangerous builds = 512
write_dump all custom dump.atom_info_ac_* id type x y z radius vx vy vz density #
run 154320
Setting up run at Tue Jan  3 23:22:06 2023

Memory usage per processor = 958.989 Mbytes
    Step    Atoms         KinEng            CPU 
11574002      314     0.55363654              0 
11728322      310     0.45587682       1521.869 
Loop time of 1521.87 on 40 procs for 154320 steps with 310 atoms, finish time Tue Jan  3 23:47:28 2023


Pair  time (%) = 0.293476 (0.0192839)
Neigh time (%) = 3.19967 (0.210246)
Comm  time (%) = 7.43589 (0.488602)
Outpt time (%) = 0.000471116 (3.09564e-05)
Other time (%) = 1510.94 (99.2818)

Nlocal:    7.75 ave 77 max 0 min
Histogram: 32 1 2 2 1 0 0 0 0 2
Nghost:    2.825 ave 29 max 0 min
Histogram: 34 2 0 0 0 0 0 2 1 1
Neighs:    0.525 ave 8 max 0 min
Histogram: 34 0 2 3 0 0 0 0 0 1

Total # of neighbors = 21
Ave neighs/atom = 0.0677419
Neighbor list builds = 9486
Dangerous builds = 3
write_dump all custom dump.atom_info_ac_* id type x y z radius vx vy vz density #
run 154320
Setting up run at Tue Jan  3 23:47:28 2023

Memory usage per processor = 958.989 Mbytes
    Step    Atoms         KinEng            CPU 
11728322      310     0.45587682              0 
11882642      309     0.42079788      1514.5779 
Loop time of 1514.58 on 40 procs for 154320 steps with 309 atoms, finish time Wed Jan  4 00:12:42 2023


Pair  time (%) = 0.290127 (0.0191557)
Neigh time (%) = 2.73334 (0.180469)
Comm  time (%) = 7.44294 (0.49142)
Outpt time (%) = 0.000522012 (3.44658e-05)
Other time (%) = 1504.11 (99.3089)

Nlocal:    7.725 ave 75 max 0 min
Histogram: 32 1 2 1 2 0 0 0 0 2
Nghost:    2.775 ave 30 max 0 min
Histogram: 35 1 0 0 0 0 0 1 2 1
Neighs:    0.475 ave 9 max 0 min
Histogram: 35 2 0 1 0 1 0 0 0 1

Total # of neighbors = 19
Ave neighs/atom = 0.0614887
Neighbor list builds = 8133
Dangerous builds = 0
write_dump all custom dump.atom_info_ac_* id type x y z radius vx vy vz density #
run 154320
Setting up run at Wed Jan  4 00:12:43 2023

Memory usage per processor = 958.989 Mbytes
    Step    Atoms         KinEng            CPU 
11882642      309     0.42079788              0 
12036962      306     0.51115092      1521.2174 
Loop time of 1521.22 on 40 procs for 154320 steps with 306 atoms, finish time Wed Jan  4 00:38:04 2023


Pair  time (%) = 0.286933 (0.0188621)
Neigh time (%) = 2.10453 (0.138345)
Comm  time (%) = 5.45651 (0.358694)
Outpt time (%) = 0.000479953 (3.15506e-05)
Other time (%) = 1513.37 (99.4841)

Nlocal:    7.65 ave 74 max 0 min
Histogram: 32 1 2 1 1 1 0 0 0 2
Nghost:    2.75 ave 26 max 0 min
Histogram: 35 1 0 0 0 0 0 0 1 3
Neighs:    0.375 ave 8 max 0 min
Histogram: 34 4 0 1 0 0 0 0 0 1

Total # of neighbors = 15
Ave neighs/atom = 0.0490196
Neighbor list builds = 6258
Dangerous builds = 0
write_dump all custom dump.atom_info_ac_* id type x y z radius vx vy vz density #
run 154320
Setting up run at Wed Jan  4 00:38:04 2023

Memory usage per processor = 958.989 Mbytes
    Step    Atoms         KinEng            CPU 
12036962      306     0.51115092              0 
12191282      302     0.48232243      1570.5622 
Loop time of 1570.56 on 40 procs for 154320 steps with 302 atoms, finish time Wed Jan  4 01:04:14 2023


Pair  time (%) = 0.291925 (0.0185873)
Neigh time (%) = 3.37864 (0.215123)
Comm  time (%) = 7.04691 (0.448687)
Outpt time (%) = 0.000474464 (3.02098e-05)
Other time (%) = 1559.84 (99.3176)

Nlocal:    7.55 ave 71 max 0 min
Histogram: 32 0 2 2 2 0 0 0 0 2
Nghost:    2.875 ave 27 max 0 min
Histogram: 34 1 1 0 0 0 1 0 0 3
Neighs:    0.55 ave 8 max 0 min
Histogram: 33 3 1 1 0 0 0 1 0 1

Total # of neighbors = 22
Ave neighs/atom = 0.0728477
Neighbor list builds = 10038
Dangerous builds = 0
write_dump all custom dump.atom_info_ac_* id type x y z radius vx vy vz density #
run 154320
Setting up run at Wed Jan  4 01:04:14 2023

Memory usage per processor = 958.989 Mbytes
    Step    Atoms         KinEng            CPU 
12191282      302     0.48232243              0 
12345602      300     0.59102207      1501.4223 
Loop time of 1501.44 on 40 procs for 154320 steps with 300 atoms, finish time Wed Jan  4 01:29:16 2023


Pair  time (%) = 0.286688 (0.0190943)
Neigh time (%) = 2.14622 (0.142944)
Comm  time (%) = 5.3707 (0.357704)
Outpt time (%) = 0.000519441 (3.45963e-05)
Other time (%) = 1493.63 (99.4802)

Nlocal:    7.5 ave 70 max 0 min
Histogram: 32 0 3 2 0 1 0 0 0 2
Nghost:    2.975 ave 27 max 0 min
Histogram: 33 3 0 0 0 0 0 1 0 3
Neighs:    0.4 ave 6 max 0 min
Histogram: 36 1 0 0 0 0 1 0 1 1

Total # of neighbors = 16
Ave neighs/atom = 0.0533333
Neighbor list builds = 6269
Dangerous builds = 22
write_dump all custom dump.atom_info_ac_* id type x y z radius vx vy vz density #
run 154320
Setting up run at Wed Jan  4 01:29:16 2023

Memory usage per processor = 958.989 Mbytes
[...]
27623379      108     0.83424259              0 
27777699      107     0.77873314      1527.6627 
Loop time of 1527.66 on 40 procs for 154320 steps with 107 atoms, finish time Thu Jan  5 20:28:36 2023


Pair  time (%) = 0.281432 (0.0184224)
Neigh time (%) = 3.62058 (0.237001)
Comm  time (%) = 5.32342 (0.348468)
Outpt time (%) = 0.000489066 (3.2014e-05)
Other time (%) = 1518.44 (99.3961)

Nlocal:    2.675 ave 26 max 0 min
Histogram: 32 0 3 2 1 0 0 0 0 2
Nghost:    0.55 ave 9 max 0 min
Histogram: 35 1 0 1 1 1 0 0 0 1
Neighs:    0.075 ave 1 max 0 min
Histogram: 37 0 0 0 0 0 0 0 0 3

Total # of neighbors = 3
Ave neighs/atom = 0.0280374
Neighbor list builds = 10426
Dangerous builds = 0
write_dump all custom dump.atom_info_ac_* id type x y z radius vx vy vz density #
run 154320
Setting up run at Thu Jan  5 20:28:36 2023

Memory usage per processor = 958.989 Mbytes
    Step    Atoms         KinEng            CPU 
27777699      107     0.77873314              0 
27932019      106     0.56902048      1586.9554 
Loop time of 1586.96 on 40 procs for 154320 steps with 106 atoms, finish time Thu Jan  5 20:55:03 2023


Pair  time (%) = 0.380542 (0.0239794)
Neigh time (%) = 7.00268 (0.441265)
Comm  time (%) = 9.32014 (0.587297)
Outpt time (%) = 0.000508393 (3.20357e-05)
Other time (%) = 1570.25 (98.9474)

Nlocal:    2.65 ave 25 max 0 min
Histogram: 32 2 1 1 1 0 1 0 0 2
Nghost:    0.675 ave 8 max 0 min
Histogram: 31 3 2 2 0 0 0 1 0 1
Neighs:    0.05 ave 1 max 0 min
Histogram: 38 0 0 0 0 0 0 0 0 2

Total # of neighbors = 2
Ave neighs/atom = 0.0188679
Neighbor list builds = 20774
Dangerous builds = 0
write_dump all custom dump.atom_info_ac_* id type x y z radius vx vy vz density #
run 154320
Setting up run at Thu Jan  5 20:55:03 2023

Memory usage per processor = 958.989 Mbytes
    Step    Atoms         KinEng            CPU 
27932019      106     0.56902048              0 
28086339      103     0.51820323       1624.106 
Loop time of 1624.11 on 40 procs for 154320 steps with 103 atoms, finish time Thu Jan  5 21:22:08 2023


Pair  time (%) = 0.313204 (0.0192847)
Neigh time (%) = 8.71553 (0.536635)
Comm  time (%) = 11.5841 (0.713261)
Outpt time (%) = 0.000569803 (3.50841e-05)
Other time (%) = 1603.49 (98.7308)

Nlocal:    2.575 ave 26 max 0 min
Histogram: 32 1 1 3 1 0 0 0 1 1
Nghost:    0.725 ave 7 max 0 min
Histogram: 32 3 1 0 0 1 0 0 1 2
Neighs:    0.025 ave 1 max 0 min
Histogram: 39 0 0 0 0 0 0 0 0 1

Total # of neighbors = 1
Ave neighs/atom = 0.00970874
Neighbor list builds = 25786
Dangerous builds = 0
write_dump all custom dump.atom_info_ac_* id type x y z radius vx vy vz density #
run 154320
Setting up run at Thu Jan  5 21:22:08 2023

Memory usage per processor = 958.989 Mbytes
    Step    Atoms         KinEng            CPU 
28086339      103     0.51820323              0 
28240659      101     0.47706625      1557.4598 
Loop time of 1557.46 on 40 procs for 154320 steps with 101 atoms, finish time Thu Jan  5 21:48:05 2023


Pair  time (%) = 0.289358 (0.0185789)
Neigh time (%) = 5.13476 (0.329688)
Comm  time (%) = 6.61176 (0.424522)
Outpt time (%) = 0.000211775 (1.35975e-05)
Other time (%) = 1545.42 (99.2272)

Nlocal:    2.525 ave 27 max 0 min
Histogram: 32 1 3 1 1 0 0 0 1 1
Nghost:    0.675 ave 8 max 0 min
Histogram: 35 1 0 0 0 1 0 1 0 2
Neighs:    0.025 ave 1 max 0 min
Histogram: 39 0 0 0 0 0 0 0 0 1

Total # of neighbors = 1
Ave neighs/atom = 0.00990099
Neighbor list builds = 15010
Dangerous builds = 219
write_dump all custom dump.atom_info_ac_* id type x y z radius vx vy vz density #
run 154320
Setting up run at Thu Jan  5 21:48:05 2023

Memory usage per processor = 958.989 Mbytes
    Step    Atoms         KinEng            CPU 
28240659      101     0.47706625              0 
28394979      100     0.49116986      1494.4016 
Loop time of 1494.4 on 40 procs for 154320 steps with 100 atoms, finish time Thu Jan  5 22:13:00 2023


Pair  time (%) = 0.267798 (0.0179201)
Neigh time (%) = 2.12681 (0.142318)
Comm  time (%) = 2.85964 (0.191357)
Outpt time (%) = 0.000189138 (1.26564e-05)
Other time (%) = 1489.15 (99.6484)

Nlocal:    2.5 ave 25 max 0 min
Histogram: 32 1 2 1 2 0 0 0 0 2
Nghost:    0.725 ave 10 max 0 min
Histogram: 31 5 0 1 0 1 1 0 0 1
Neighs:    0.1 ave 1 max 0 min
Histogram: 36 0 0 0 0 0 0 0 0 4

Total # of neighbors = 4
Ave neighs/atom = 0.04
Neighbor list builds = 6190
Dangerous builds = 0
write_dump all custom dump.atom_info_ac_* id type x y z radius vx vy vz density #
run 154320
Setting up run at Thu Jan  5 22:13:00 2023

Memory usage per processor = 958.989 Mbytes
    Step    Atoms         KinEng            CPU 
28394979      100     0.49116986              0 
28549299       99     0.57532667      1499.8809 
Loop time of 1499.88 on 40 procs for 154320 steps with 99 atoms, finish time Thu Jan  5 22:38:00 2023


Pair  time (%) = 0.273175 (0.0182131)
Neigh time (%) = 2.30074 (0.153395)
Comm  time (%) = 3.75446 (0.250317)
Outpt time (%) = 0.000497305 (3.31563e-05)
Other time (%) = 1493.55 (99.578)

Nlocal:    2.475 ave 28 max 0 min
Histogram: 32 2 1 2 0 1 0 1 0 1
Nghost:    0.6 ave 8 max 0 min
Histogram: 35 1 0 1 0 0 1 0 1 1
Neighs:    0.05 ave 1 max 0 min
Histogram: 38 0 0 0 0 0 0 0 0 2

Total # of neighbors = 2
Ave neighs/atom = 0.020202
Neighbor list builds = 6784
Dangerous builds = 0
write_dump all custom dump.atom_info_ac_* id type x y z radius vx vy vz density #
run 154320
Setting up run at Thu Jan  5 22:38:00 2023

Memory usage per processor = 958.989 Mbytes
    Step    Atoms         KinEng            CPU 
28549299       99     0.57532667              0 
28703619       99     0.51130954      1493.1101 
Loop time of 1493.11 on 40 procs for 154320 steps with 99 atoms, finish time Thu Jan  5 23:02:53 2023


Pair  time (%) = 0.269822 (0.0180711)
Neigh time (%) = 1.94072 (0.129978)
Comm  time (%) = 2.89145 (0.193653)
Outpt time (%) = 0.000191645 (1.28353e-05)
Other time (%) = 1488.01 (99.6583)

Nlocal:    2.475 ave 27 max 0 min
Histogram: 33 1 1 1 2 0 0 1 0 1
Nghost:    0.65 ave 8 max 0 min
Histogram: 34 1 1 0 0 1 1 1 0 1
Neighs:    0.025 ave 1 max 0 min
Histogram: 39 0 0 0 0 0 0 0 0 1

Total # of neighbors = 1
Ave neighs/atom = 0.010101
Neighbor list builds = 5661
Dangerous builds = 0
write_dump all custom dump.atom_info_ac_* id type x y z radius vx vy vz density #
run 154320
Setting up run at Thu Jan  5 23:02:53 2023

Memory usage per processor = 958.989 Mbytes
    Step    Atoms         KinEng            CPU 
28703619       99     0.51130954              0 
28857939       99     0.50464533      1494.5854 
Loop time of 1494.59 on 40 procs for 154320 steps with 99 atoms, finish time Thu Jan  5 23:27:47 2023


Pair  time (%) = 0.265568 (0.0177687)
Neigh time (%) = 1.90896 (0.127725)
Comm  time (%) = 2.68503 (0.17965)
Outpt time (%) = 0.000161599 (1.08123e-05)
Other time (%) = 1489.73 (99.6748)

Nlocal:    2.475 ave 27 max 0 min
Histogram: 32 2 2 1 0 1 0 1 0 1
Nghost:    0.65 ave 6 max 0 min
Histogram: 32 3 0 1 0 0 1 0 1 2
Neighs:    0.025 ave 1 max 0 min
Histogram: 39 0 0 0 0 0 0 0 0 1

Total # of neighbors = 1
Ave neighs/atom = 0.010101
Neighbor list builds = 5559
Dangerous builds = 0
write_dump all custom dump.atom_info_ac_* id type x y z radius vx vy vz density #
run 154320
Setting up run at Thu Jan  5 23:27:47 2023

Memory usage per processor = 958.989 Mbytes
    Step    Atoms         KinEng            CPU 
28857939       99     0.50464533              0 
29012259       97      1.2906462      1498.1399 
Loop time of 1498.14 on 40 procs for 154320 steps with 97 atoms, finish time Thu Jan  5 23:52:46 2023


Pair  time (%) = 0.272318 (0.0181771)
Neigh time (%) = 2.3335 (0.15576)
Comm  time (%) = 3.70041 (0.247)
Outpt time (%) = 0.000437609 (2.92102e-05)
Other time (%) = 1491.83 (99.579)

Nlocal:    2.425 ave 27 max 0 min
Histogram: 32 3 1 0 1 1 0 0 1 1
Nghost:    0.675 ave 7 max 0 min
Histogram: 31 3 2 0 1 1 0 0 1 1
Neighs:    0.025 ave 1 max 0 min
Histogram: 39 0 0 0 0 0 0 0 0 1

Total # of neighbors = 1
Ave neighs/atom = 0.0103093
Neighbor list builds = 6856
Dangerous builds = 0
write_dump all custom dump.atom_info_ac_* id type x y z radius vx vy vz density #
run 154320
Setting up run at Thu Jan  5 23:52:46 2023

Memory usage per processor = 958.989 Mbytes
    Step    Atoms         KinEng            CPU 
29012259       97      1.2906462              0 
29166579       97     0.49410902      1527.8007 
Loop time of 1527.8 on 40 procs for 154320 steps with 97 atoms, finish time Fri Jan  6 00:18:13 2023


Pair  time (%) = 0.281621 (0.0184331)
Neigh time (%) = 4.05992 (0.265736)
Comm  time (%) = 5.76453 (0.377309)
Outpt time (%) = 0.00265827 (0.000173993)
Other time (%) = 1517.69 (99.3383)

Nlocal:    2.425 ave 27 max 0 min
Histogram: 32 1 3 2 0 0 0 1 0 1
Nghost:    0.575 ave 7 max 0 min
Histogram: 34 1 1 0 1 1 0 0 1 1
Neighs:    0.025 ave 1 max 0 min
Histogram: 39 0 0 0 0 0 0 0 0 1

Total # of neighbors = 1
Ave neighs/atom = 0.0103093
Neighbor list builds = 11931
Dangerous builds = 0
write_dump all custom dump.atom_info_ac_* id type x y z radius vx vy vz density #
run 154320
Setting up run at Fri Jan  6 00:18:14 2023

Memory usage per processor = 958.989 Mbytes
    Step    Atoms         KinEng            CPU 
29166579       97     0.49410902              0 
29320899       94     0.50900435      1508.2711 
Loop time of 1508.27 on 40 procs for 154320 steps with 94 atoms, finish time Fri Jan  6 00:43:22 2023


Pair  time (%) = 0.273718 (0.0181478)
Neigh time (%) = 2.91639 (0.19336)
Comm  time (%) = 3.82776 (0.253784)
Outpt time (%) = 0.000481438 (3.19198e-05)
Other time (%) = 1501.25 (99.5347)

Nlocal:    2.35 ave 27 max 0 min
Histogram: 32 2 2 2 0 0 0 1 0 1
Nghost:    0.625 ave 6 max 0 min
Histogram: 33 1 0 2 0 0 2 0 0 2
Neighs:    0.025 ave 1 max 0 min
Histogram: 39 0 0 0 0 0 0 0 0 1

Total # of neighbors = 1
Ave neighs/atom = 0.0106383
Neighbor list builds = 8504
Dangerous builds = 0
write_dump all custom dump.atom_info_ac_* id type x y z radius vx vy vz density #
run 154320
Setting up run at Fri Jan  6 00:43:22 2023

Memory usage per processor = 958.989 Mbytes
    Step    Atoms         KinEng            CPU 
29320899       94     0.50900435              0 
29475219       92     0.41586714      1505.3921 
Loop time of 1505.39 on 40 procs for 154320 steps with 92 atoms, finish time Fri Jan  6 01:08:27 2023


Pair  time (%) = 0.273594 (0.0181743)
Neigh time (%) = 2.27777 (0.151307)
Comm  time (%) = 3.53229 (0.234642)
Outpt time (%) = 0.000296805 (1.97161e-05)
Other time (%) = 1499.31 (99.5959)

Nlocal:    2.3 ave 26 max 0 min
Histogram: 32 2 2 1 1 0 0 1 0 1
Nghost:    0.6 ave 8 max 0 min
Histogram: 34 2 0 1 0 0 1 1 0 1
Neighs:    0 ave 0 max 0 min
Histogram: 40 0 0 0 0 0 0 0 0 0

Total # of neighbors = 0
Ave neighs/atom = 0
Neighbor list builds = 6757
Dangerous builds = 386
write_dump all custom dump.atom_info_ac_* id type x y z radius vx vy vz density #
run 154320
Setting up run at Fri Jan  6 01:08:27 2023

Memory usage per processor = 958.989 Mbytes
    Step    Atoms         KinEng            CPU 
29475219       92     0.41586714              0 
29629539       87     0.39448955      1500.0388 
Loop time of 1500.04 on 40 procs for 154320 steps with 87 atoms, finish time Fri Jan  6 01:33:27 2023


Pair  time (%) = 0.272117 (0.0181407)
Neigh time (%) = 2.28551 (0.152364)
Comm  time (%) = 3.2419 (0.216121)
Outpt time (%) = 0.000199447 (1.32961e-05)
Other time (%) = 1494.24 (99.6134)

Nlocal:    2.175 ave 27 max 0 min
Histogram: 33 1 2 2 0 0 0 1 0 1
Nghost:    0.7 ave 6 max 0 min
Histogram: 31 3 0 2 0 0 1 0 1 2
Neighs:    0.025 ave 1 max 0 min
Histogram: 39 0 0 0 0 0 0 0 0 1

Total # of neighbors = 1
Ave neighs/atom = 0.0114943
Neighbor list builds = 6653
Dangerous builds = 0
write_dump all custom dump.atom_info_ac_* id type x y z radius vx vy vz density #
run 154320
Setting up run at Fri Jan  6 01:33:27 2023

Memory usage per processor = 958.989 Mbytes
    Step    Atoms         KinEng            CPU 
29629539       87     0.39448955              0 
29783859       87     0.37807233       1478.085 
Loop time of 1478.09 on 40 procs for 154320 steps with 87 atoms, finish time Fri Jan  6 01:58:06 2023


Pair  time (%) = 0.265683 (0.0179748)
Neigh time (%) = 1.52058 (0.102875)
Comm  time (%) = 2.02486 (0.136992)
Outpt time (%) = 0.00051002 (3.45055e-05)
Other time (%) = 1474.27 (99.7421)

Nlocal:    2.175 ave 26 max 0 min
Histogram: 33 1 1 3 0 0 0 0 1 1
Nghost:    0.85 ave 8 max 0 min
Histogram: 30 6 0 0 0 0 1 0 1 2
Neighs:    0 ave 0 max 0 min
Histogram: 40 0 0 0 0 0 0 0 0 0

Total # of neighbors = 0
Ave neighs/atom = 0
Neighbor list builds = 4426
Dangerous builds = 0
write_dump all custom dump.atom_info_ac_* id type x y z radius vx vy vz density #
run 154320
Setting up run at Fri Jan  6 01:58:06 2023

Memory usage per processor = 958.989 Mbytes
    Step    Atoms         KinEng            CPU 
29783859       87     0.37807233              0 
29938179       86     0.29729838      1489.7949 
Loop time of 1489.8 on 40 procs for 154320 steps with 86 atoms, finish time Fri Jan  6 02:22:55 2023


Pair  time (%) = 0.266217 (0.0178694)
Neigh time (%) = 1.25635 (0.0843303)
Comm  time (%) = 1.73337 (0.11635)
Outpt time (%) = 0.00264732 (0.000177697)
Other time (%) = 1486.54 (99.7813)

Nlocal:    2.15 ave 27 max 0 min
Histogram: 32 3 2 1 0 0 0 1 0 1
Nghost:    0.675 ave 8 max 0 min
Histogram: 35 0 1 0 0 1 0 1 1 1
Neighs:    0 ave 0 max 0 min
Histogram: 40 0 0 0 0 0 0 0 0 0

Total # of neighbors = 0
Ave neighs/atom = 0
Neighbor list builds = 3659
Dangerous builds = 0
write_dump all custom dump.atom_info_ac_* id type x y z radius vx vy vz density #
run 154320
Setting up run at Fri Jan  6 02:22:55 2023

Memory usage per processor = 958.989 Mbytes
    Step    Atoms         KinEng            CPU 
29938179       86     0.29729838              0 
30092499       85     0.30217188      1480.6848 
Loop time of 1480.68 on 40 procs for 154320 steps with 85 atoms, finish time Fri Jan  6 02:47:36 2023


Pair  time (%) = 0.263803 (0.0178163)
Neigh time (%) = 1.12063 (0.075683)
Comm  time (%) = 1.65574 (0.111822)
Outpt time (%) = 0.000486153 (3.2833e-05)
Other time (%) = 1477.64 (99.7946)

Nlocal:    2.125 ave 25 max 0 min
Histogram: 32 0 6 0 0 0 0 0 1 1
Nghost:    0.6 ave 8 max 0 min
Histogram: 33 2 1 2 0 0 0 1 0 1
Neighs:    0 ave 0 max 0 min
Histogram: 40 0 0 0 0 0 0 0 0 0

Total # of neighbors = 0
Ave neighs/atom = 0
Neighbor list builds = 3266
Dangerous builds = 0
write_dump all custom dump.atom_info_ac_* id type x y z radius vx vy vz density #
run 154320
Setting up run at Fri Jan  6 02:47:36 2023

Memory usage per processor = 958.989 Mbytes
    Step    Atoms         KinEng            CPU 
30092499       85     0.30217188              0 
30246819       84     0.29889461      1479.1199 
Loop time of 1479.12 on 40 procs for 154320 steps with 84 atoms, finish time Fri Jan  6 03:12:15 2023


Pair  time (%) = 0.26262 (0.0177552)
Neigh time (%) = 1.15864 (0.0783332)
Comm  time (%) = 1.52673 (0.103219)
Outpt time (%) = 0.000214854 (1.45258e-05)
Other time (%) = 1476.17 (99.8007)

Nlocal:    2.1 ave 27 max 0 min
Histogram: 32 4 1 1 0 0 0 1 0 1
Nghost:    0.55 ave 7 max 0 min
Histogram: 35 1 0 0 1 1 0 0 0 2
Neighs:    0 ave 0 max 0 min
Histogram: 40 0 0 0 0 0 0 0 0 0

Total # of neighbors = 0
Ave neighs/atom = 0
Neighbor list builds = 3386
Dangerous builds = 0
write_dump all custom dump.atom_info_ac_* id type x y z radius vx vy vz density #
run 154320
Setting up run at Fri Jan  6 03:12:15 2023

Memory usage per processor = 958.989 Mbytes
    Step    Atoms         KinEng            CPU 
30246819       84     0.29889461              0 
30401139       84     0.34279564      1484.3009 
Loop time of 1484.3 on 40 procs for 154320 steps with 84 atoms, finish time Fri Jan  6 03:37:00 2023


Pair  time (%) = 0.263297 (0.0177388)
Neigh time (%) = 0.977817 (0.0658773)
Comm  time (%) = 1.4626 (0.098538)
Outpt time (%) = 0.000237975 (1.60328e-05)
Other time (%) = 1481.6 (99.8178)

Nlocal:    2.1 ave 27 max 0 min
Histogram: 32 3 2 1 0 0 0 1 0 1
Nghost:    0.5 ave 6 max 0 min
Histogram: 36 0 0 0 0 0 2 0 0 2
Neighs:    0 ave 0 max 0 min
Histogram: 40 0 0 0 0 0 0 0 0 0

Total # of neighbors = 0
Ave neighs/atom = 0
Neighbor list builds = 2850
Dangerous builds = 0
write_dump all custom dump.atom_info_ac_* id type x y z radius vx vy vz density #
run 154320
Setting up run at Fri Jan  6 03:37:00 2023

Memory usage per processor = 958.989 Mbytes
    Step    Atoms         KinEng            CPU 
30401139       84     0.34279564              0 
30555459       84     0.30371524      1480.9359 
Loop time of 1480.94 on 40 procs for 154320 steps with 84 atoms, finish time Fri Jan  6 04:01:41 2023


Pair  time (%) = 0.265275 (0.0179127)
Neigh time (%) = 1.15076 (0.0777052)
Comm  time (%) = 1.67192 (0.112896)
Outpt time (%) = 0.000520217 (3.51276e-05)
Other time (%) = 1477.85 (99.7915)

Nlocal:    2.1 ave 28 max 0 min
Histogram: 33 2 2 1 0 0 1 0 0 1
Nghost:    0.625 ave 6 max 0 min
Histogram: 31 5 0 0 0 1 0 0 1 2
Neighs:    0.025 ave 1 max 0 min
Histogram: 39 0 0 0 0 0 0 0 0 1

Total # of neighbors = 1
Ave neighs/atom = 0.0119048
Neighbor list builds = 3354
Dangerous builds = 0
write_dump all custom dump.atom_info_ac_* id type x y z radius vx vy vz density #
run 154320
Setting up run at Fri Jan  6 04:01:41 2023

Memory usage per processor = 958.989 Mbytes
    Step    Atoms         KinEng            CPU 
30555459       84     0.30371524              0 
30709779       82     0.32955286      1485.1393 
Loop time of 1485.14 on 40 procs for 154320 steps with 82 atoms, finish time Fri Jan  6 04:26:26 2023


Pair  time (%) = 0.263768 (0.0177605)
Neigh time (%) = 1.54796 (0.10423)
Comm  time (%) = 2.00119 (0.134747)
Outpt time (%) = 0.00024917 (1.67775e-05)
Other time (%) = 1481.33 (99.7432)

Nlocal:    2.05 ave 28 max 0 min
Histogram: 33 3 1 1 0 0 1 0 0 1
Nghost:    0.55 ave 6 max 0 min
Histogram: 33 3 0 0 0 1 1 0 0 2
Neighs:    0.025 ave 1 max 0 min
Histogram: 39 0 0 0 0 0 0 0 0 1

Total # of neighbors = 1
Ave neighs/atom = 0.0121951
Neighbor list builds = 4526
Dangerous builds = 61
write_dump all custom dump.atom_info_ac_* id type x y z radius vx vy vz density #
run 154320
Setting up run at Fri Jan  6 04:26:26 2023

Memory usage per processor = 958.989 Mbytes
    Step    Atoms         KinEng            CPU 
30709779       82     0.32955286              0 
30864099       82     0.39698451       1511.268 
Loop time of 1511.27 on 40 procs for 154320 steps with 82 atoms, finish time Fri Jan  6 04:51:37 2023


Pair  time (%) = 0.27725 (0.0183455)
Neigh time (%) = 2.82825 (0.187144)
Comm  time (%) = 3.44689 (0.22808)
Outpt time (%) = 0.000496306 (3.28404e-05)
Other time (%) = 1504.72 (99.5664)

Nlocal:    2.05 ave 28 max 0 min
Histogram: 33 3 1 1 0 0 1 0 0 1
Nghost:    0.55 ave 6 max 0 min
Histogram: 33 2 0 1 0 1 1 0 1 1
Neighs:    0.05 ave 2 max 0 min
Histogram: 39 0 0 0 0 0 0 0 0 1

Total # of neighbors = 2
Ave neighs/atom = 0.0243902
Neighbor list builds = 8229
Dangerous builds = 0
write_dump all custom dump.atom_info_ac_* id type x y z radius vx vy vz density #
run 97
Setting up run at Fri Jan  6 04:51:37 2023

Memory usage per processor = 958.989 Mbytes
    Step    Atoms         KinEng            CPU 
30864099       82     0.39698451              0 
30864196       82     0.39987105     0.92171571 
Loop time of 0.921728 on 40 procs for 97 steps with 82 atoms, finish time Fri Jan  6 04:51:38 2023


Pair  time (%) = 0.000176975 (0.0192004)
Neigh time (%) = 0.00170871 (0.185381)
Comm  time (%) = 0.00195571 (0.212179)
Outpt time (%) = 0.000134393 (0.0145806)
Other time (%) = 0.917752 (99.5687)

Nlocal:    2.05 ave 28 max 0 min
Histogram: 33 3 1 1 0 0 1 0 0 1
Nghost:    0.55 ave 6 max 0 min
Histogram: 33 2 0 1 0 1 1 0 1 1
Neighs:    0.05 ave 2 max 0 min
Histogram: 39 0 0 0 0 0 0 0 0 1

Total # of neighbors = 2
Ave neighs/atom = 0.0243902
Neighbor list builds = 5
Dangerous builds = 0
write_dump all custom dump.atom_info_ac_* id type x y z radius vx vy vz density #
