ITEM: TIMESTEP
23456718
ITEM: NUMBER OF ATOMS
2582
ITEM: BOX BOUNDS ff ff ff
-0.15 0.15
-0.15 0.15
-0.15 0.15
ITEM: ATOMS id type x y z radius vx vy vz density 
1393 1 -0.00396508 -0.0469795 -0.0687698 0.000116 -30.4695 6.57547 1.75612 2650 
4237 1 -0.000978012 -0.0394203 -0.0688744 0.000116 -36.801 4.19259 0.7254 2650 
3074 1 -0.0127454 -0.0498502 -0.0677699 4.2e-05 -29.749 -4.78531 5.59522 2650 
413 1 -0.0106388 -0.0487706 -0.0680577 0.000116 -44.1078 -4.86238 6.84593 2650 
2460 1 -0.00797957 -0.0461702 -0.0681118 0.000423 -35.6096 0.433038 4.17243 2650 
3563 1 -0.00503229 -0.0450877 -0.0683925 0.000423 -33.9011 -2.89531 2.4942 2650 
4197 1 -0.000911149 -0.0453347 -0.068571 0.000423 -22.5707 -0.163847 0.29992 2650 
1445 1 -0.00686026 -0.0396072 -0.0682334 0.000423 -33.8863 -1.61649 3.40687 2650 
382 1 -0.00106512 -0.0401793 -0.0685693 0.000423 -35.2877 2.22196 0.544682 2650 
2688 1 -0.00417919 -0.0394304 -0.0684509 0.000423 -41.6611 -0.243491 2.54305 2650 
1628 1 -0.00836694 -0.0378197 -0.068374 0.000116 -31.6287 -0.871346 3.87041 2650 
3313 1 -0.0106191 -0.034954 -0.067745 0.000423 -41.8371 3.20143 6.6299 2650 
743 1 -0.0122762 -0.027645 -0.0677813 0.000116 -35.8231 -1.93145 6.48811 2650 
3649 1 -0.0068401 -0.0263168 -0.0682355 0.000423 -34.0843 -2.73886 3.41634 2650 
807 1 -0.00228625 -0.0259298 -0.0685392 0.000423 -32.6914 0.993857 1.0904 2650 
1369 1 -0.00883961 -0.0251419 -0.0680057 0.000423 -35.1715 -1.50038 4.51368 2650 
3196 1 -0.00798547 -0.0246668 -0.068111 0.000423 -34.6669 -1.03486 4.06401 2650 
3967 1 -0.00916747 -0.0243606 -0.0679625 0.000423 -33.6568 -0.430227 4.58994 2650 
2221 1 -0.00930374 -0.0228646 -0.0679434 0.000423 -33.2569 -1.62878 4.55357 2650 
3646 1 -0.00468531 -0.0220378 -0.0684188 0.000423 -45.3959 1.45917 3.10797 2650 
2674 1 -0.00253028 -0.0208424 -0.0685316 0.000423 -41.1719 2.21543 1.51981 2650 
1527 1 -0.0116643 -0.0135336 -0.0678892 0.000116 -31.8836 0.535425 5.47803 2650 
2365 1 -0.0103606 -0.00566515 -0.0677907 0.000423 -37.0748 0.0043066 5.66533 2650 
2840 1 -0.00699548 -0.00356986 -0.0685279 0.000116 -35.4728 1.6093 3.62115 2650 
3444 1 -0.00260093 -0.00251017 -0.0685281 0.000423 -34.773 -2.79659 1.31964 2650 
2791 1 -0.0139433 -0.059411 -0.0671451 0.000423 -33.0041 0.97024 6.85283 2650 
2817 1 -0.0124675 -0.0574293 -0.0677463 0.000116 -30.5227 1.6746 5.61714 2650 
3625 1 -0.0134629 -0.0491508 -0.0670075 0.000656 -32.2191 0.929798 6.47108 2650 
857 1 -0.0155485 -0.0481384 -0.0671063 0.000116 -30.9504 1.35682 7.17118 2650 
228 1 -0.0105131 -0.0473942 -0.0675331 0.000656 -32.9066 -6.85409 5.12094 2650 
3863 1 -0.0136322 -0.0303543 -0.0672088 0.000423 -32.4287 -2.55484 6.57698 2650 
3979 1 -0.0120434 -0.0298596 -0.0675117 0.000423 -33.8833 -2.27798 6.04374 2650 
2115 1 -0.0123159 -0.0270085 -0.0674635 0.000423 -40.2656 0.467347 7.34922 2650 
3745 1 -0.0141179 -0.0220026 -0.0671085 0.000423 -33.1599 -0.513061 6.98872 2650 
2775 1 -0.011112 -0.0185982 -0.0676711 0.000423 -31.8749 -0.06856 5.23362 2650 
2584 1 -0.0166126 -0.0514419 -0.0665352 0.000423 -34.6172 1.53534 8.64192 2650 
1125 1 -0.0179153 -0.0471798 -0.0661958 0.000423 -29.2557 2.50934 7.91719 2650 
1252 1 -0.0172142 -0.0441678 -0.0663817 0.000423 -30.0054 1.22716 7.78037 2650 
3370 1 -0.0181426 -0.0316586 -0.0663299 0.000116 -33.6172 -5.53874 9.19602 2650 
2228 1 -0.0181588 -0.0307496 -0.0661307 0.000423 -36.4224 -0.454445 10.0072 2650 
4104 1 -0.0180075 -0.0237216 -0.0661713 0.000423 -33.8757 0.246709 9.21723 2650 
2536 1 -0.0167795 -0.0244405 -0.0662564 0.000656 -33.0124 0.656154 8.36316 2650 
1776 1 -0.0171531 -0.0234382 -0.0663992 0.000423 -33.5659 0.409008 8.74492 2650 
4123 1 -0.0142724 -0.0230516 -0.0665448 0.000116 -30.2436 -10.3248 9.19474 2650 
3574 1 -0.0173335 -0.0158024 -0.0666675 0.000116 -35.5456 -0.185419 9.24182 2650 
1804 1 -0.0164543 -0.00135885 -0.0665737 0.000423 -13.6329 0.218068 3.36949 2650 
2465 1 -0.0200031 -0.0520836 -0.0655964 0.000423 -37.1407 2.2369 11.3232 2650 
2143 1 -0.0167293 -0.0408051 -0.065523 0.000423 -37.8351 1.68158 4.17795 2650 
1808 1 -0.0198025 -0.0351664 -0.0656568 0.000423 -34.8992 4.38374 10.5238 2650 
3336 1 -0.0193535 -0.0331337 -0.0657906 0.000423 -35.6753 4.32253 10.4925 2650 
392 1 -0.021364 -0.0112031 -0.0654873 0.000116 -31.9315 5.93703 10.417 2650 
3242 1 -0.0225258 -0.0575229 -0.0650968 0.000116 -27.9981 -16.8395 9.68833 2650 
1132 1 -0.0216784 -0.0268315 -0.0650617 0.000423 -35.3878 4.79893 11.7886 2650 
2910 1 -0.0230737 -0.0212424 -0.0645802 0.000423 -34.9724 3.90156 12.4924 2650 
3020 1 -0.0160803 -0.0207368 -0.0633704 0.000423 -65.2242 -2.79999 68.3163 2650 
119 1 -0.0216761 -0.0175076 -0.0648002 0.000656 -24.5572 -8.69566 5.72914 2650 
4356 1 -0.022984 -0.00874383 -0.0649364 0.000116 -33.4487 4.92993 11.839 2650 
1555 1 -0.0248333 -0.0622866 -0.063923 0.000423 -25.8861 -2.55829 10.0555 2650 
1669 1 -0.0236907 -0.0324198 -0.0643558 0.000423 -30.9099 -4.09607 11.3767 2650 
822 1 -0.0237034 -0.0278979 -0.064352 0.000423 -36.2343 3.8975 13.3432 2650 
3862 1 -0.027215 -0.0594589 -0.0629467 0.000423 -30.216 1.06035 13.0613 2650 
2470 1 -0.0263165 -0.0403481 -0.0633274 0.000423 -29.7497 -0.0961596 12.3605 2650 
991 1 -0.0268338 -0.0354472 -0.0628657 0.000656 -41.013 -3.01877 17.4981 2650 
4300 1 -0.0285107 -0.0619416 -0.0623706 0.000423 -29.3637 -2.24517 13.4197 2650 
3005 1 -0.0274653 -0.0328591 -0.0628383 0.000423 -31.8157 2.48667 13.9026 2650 
2551 1 -0.0287811 -0.0315556 -0.0622472 0.000423 -33.4701 3.0335 15.4713 2650 
2681 1 -0.028418 -0.0254804 -0.062413 0.000423 -30.2168 -1.71594 13.7554 2650 
3801 1 -0.0285436 -0.0175828 -0.0626919 0.000116 -29.5334 -1.83842 13.4465 2650 
4228 1 -0.026677 -0.00633314 -0.0628489 0.000116 -0.113572 -0.190398 0.2189 2650 
1550 1 -0.0291574 -0.0358392 -0.0618175 0.000656 -30.3144 -1.09595 14.2917 2650 
3527 1 -0.0295481 -0.0258972 -0.0618875 0.000423 -35.8318 0.785007 17.1028 2650 
371 1 -0.0299201 -0.0220946 -0.0617068 0.000423 -29.7386 -0.973348 14.5762 2650 
4204 1 -0.0292144 -0.0216821 -0.0620215 0.000423 -28.5156 -1.97621 13.2307 2650 
1574 1 -0.0293503 -0.0205466 -0.0615858 0.000423 -37.1961 4.14037 24.1624 2650 
2560 1 -0.0294448 -0.0182638 -0.0619354 0.000423 -30.0845 2.21305 14.299 2650 
4327 1 -0.0309496 -0.0234433 -0.0611973 0.000423 -28.7782 0.26778 14.5505 2650 
3004 1 -0.032863 -0.0281214 -0.0601919 0.000423 -29.1665 -0.756052 15.9194 2650 
12 1 -0.0319823 -0.0248348 -0.0604049 0.000656 -29.1979 0.623097 15.4518 2650 
3385 1 -0.0331332 -0.00944633 -0.060392 0.000116 -26.415 0.56304 14.4921 2650 
4301 1 -0.0287907 -0.0425556 -0.0589437 0.000423 -42.2275 -2.67123 24.08 2650 
2383 1 -0.0351665 -0.033204 -0.0592311 0.000116 -26.604 -0.290764 15.7952 2650 
386 1 -0.0351123 -0.0300331 -0.0592633 0.000116 -29.9521 -1.68934 17.7459 2650 
2445 1 -0.0351395 -0.0288407 -0.0588924 0.000423 -28.8298 0.38095 17.1966 2650 
2080 1 -0.0357945 -0.0283455 -0.0589403 4.2e-05 -22.7376 0.418713 13.8086 2650 
114 1 -0.0344719 -0.0280029 -0.0590202 0.000656 -28.554 0.080888 16.6692 2650 
2542 1 -0.0342892 -0.0237443 -0.0593914 0.000423 -26.046 1.34019 15.2083 2650 
1102 1 -0.0342576 -0.0226054 -0.0591449 0.000656 -28.9381 2.38062 16.7989 2650 
3185 1 -0.034065 -0.0213072 -0.059256 0.000656 -28.88 2.42366 16.6 2650 
122 1 -0.035596 -0.0517491 -0.0583487 0.000656 -26.8322 0.278535 16.3609 2650 
3220 1 -0.0362168 -0.0358258 -0.0582359 0.000423 -27.3156 0.217123 16.9821 2650 
3966 1 -0.0360243 -0.0268753 -0.0583555 0.000423 -28.5424 1.3895 17.6143 2650 
3687 1 -0.038728 -0.0520201 -0.0569667 0.000116 -44.4714 7.85832 30.2305 2650 
595 1 -0.0366314 -0.035095 -0.0579763 0.000423 -27.7011 -0.187561 17.4968 2650 
492 1 -0.0372104 -0.0287382 -0.0576063 0.000423 -26.8172 2.5399 17.3167 2650 
70 1 -0.0378561 -0.0269702 -0.0575493 0.000116 -25.057 -4.01017 16.4824 2650 
1209 1 -0.0371453 -0.00805894 -0.0580985 4.2e-05 -16.4993 -1.049 10.5484 2650 
800 1 -0.0380272 -0.0505237 -0.0570702 0.000423 -25.0088 0.748631 16.6584 2650 
2173 1 -0.0389635 -0.0441033 -0.0568054 0.000116 -26.4904 0.905379 18.1698 2650 
3084 1 -0.0384434 -0.0352056 -0.0565149 0.000656 -27.2385 0.00597609 18.5191 2650 
2987 1 -0.0378607 -0.0303636 -0.0571811 0.000423 -26.5148 1.30873 17.5501 2650 
2765 1 -0.0378513 -0.0282735 -0.0571874 0.000423 -26.8243 2.26184 17.7486 2650 
2236 1 -0.0382489 -0.0249212 -0.0569224 0.000423 -26.9309 -1.36998 18.0902 2650 
1920 1 -0.0377802 -0.0238676 -0.057234 0.000423 -25.1962 -0.949055 16.6264 2650 
3387 1 -0.0384672 -0.00789778 -0.0571426 0.000116 -19.1734 -2.1503 12.9071 2650 
3459 1 -0.040505 -0.0448906 -0.0557171 0.000116 -37.2443 1.26977 27.0734 2650 
3779 1 -0.0391418 -0.0439303 -0.0563123 0.000423 -26.2976 0.828944 18.2728 2650 
3454 1 -0.039963 -0.0409759 -0.0557325 0.000423 -25.5081 -1.46728 18.2842 2650 
3346 1 -0.0399831 -0.0392564 -0.0557183 0.000423 -26.2196 -1.69466 18.8084 2650 
1663 1 -0.0397186 -0.0332344 -0.0559073 0.000423 -26.9206 0.710044 19.1188 2650 
3534 1 -0.039419 -0.0294885 -0.0561187 0.000423 -26.5871 1.67854 18.6689 2650 
3635 1 -0.0401625 -0.0456129 -0.0555892 0.000423 -26.1894 -1.00816 18.9149 2650 
4362 1 -0.0407266 -0.0345742 -0.055555 0.000116 -25.9916 1.31249 19.0535 2650 
1811 1 -0.040527 -0.0338388 -0.0553242 0.000423 -26.3893 0.176523 19.3244 2650 
2245 1 -0.0403099 -0.032786 -0.0554826 0.000423 -26.7308 0.746159 19.414 2650 
1451 1 -0.0409055 -0.0321177 -0.0550452 0.000423 -26.4398 0.870913 19.6411 2650 
3226 1 -0.0408733 -0.0304444 -0.0550692 0.000423 -27.0497 1.5996 20.0697 2650 
3000 1 -0.0401783 -0.0304199 -0.0555781 0.000423 -27.28 1.53486 19.7143 2650 
2103 1 -0.0402487 -0.0195713 -0.0555275 0.000423 -28.4929 -0.27888 20.6457 2650 
635 1 -0.0421024 -0.0498186 -0.0545197 0.000116 -17.4716 3.94472 13.4922 2650 
4031 1 -0.0426421 -0.0351856 -0.0540987 0.000116 -25.9725 0.823888 20.4708 2650 
3999 1 -0.0416396 -0.0354022 -0.0544921 0.000423 -26.0915 0.296708 19.9305 2650 
339 1 -0.0410934 -0.0344805 -0.0546192 0.000656 -26.0038 0.192836 19.5541 2650 
1118 1 -0.0419919 -0.033177 -0.0542212 0.000423 -26.1333 0.37665 20.2319 2650 
2652 1 -0.0415556 -0.0325343 -0.0545561 0.000423 -26.1533 0.22451 19.914 2650 
1149 1 -0.0421458 -0.0307077 -0.0541017 0.000423 -26.1448 0.809371 20.3598 2650 
3988 1 -0.0413802 -0.0298687 -0.0546894 0.000423 -26.7778 1.75732 20.254 2650 
3990 1 -0.041478 -0.0239261 -0.0546154 0.000423 -27.0147 -0.425768 20.5092 2650 
116 1 -0.0425741 -0.0343477 -0.0534737 0.000656 -25.4835 0.853297 20.2783 2650 
2857 1 -0.0426709 -0.0329858 -0.0533969 0.000656 -25.5486 0.81534 20.4196 2650 
2133 1 -0.0423546 -0.0319216 -0.0539384 0.000423 -25.7736 0.831663 20.2312 2650 
480 1 -0.0432069 -0.0307453 -0.0532585 0.000423 -25.973 0.953261 21.0636 2650 
2177 1 -0.0434254 -0.0148056 -0.053472 0.000116 -24.8566 0.209691 20.1848 2650 
1791 1 -0.0437575 -0.0359685 -0.0528068 0.000423 -24.3059 -0.279922 20.1333 2650 
2325 1 -0.0437678 -0.0351223 -0.0527982 0.000423 -24.1265 -0.24006 19.9927 2650 
698 1 -0.0435318 -0.0340456 -0.0529932 0.000423 -25.2557 1.38151 20.7387 2650 
4182 1 -0.0435712 -0.0325778 -0.0529613 0.000423 -25.0736 1.62893 20.6251 2650 
3093 1 -0.0438484 -0.0315793 -0.0527315 0.000423 -24.7601 1.18778 20.5815 2650 
4208 1 -0.0438273 -0.0304762 -0.0527493 0.000423 -25.7726 0.815867 21.4055 2650 
1563 1 -0.0437642 -0.0292525 -0.0528018 0.000423 -26.0948 1.08952 21.6206 2650 
3097 1 -0.043548 -0.0224139 -0.0529776 0.000423 -16.8277 -2.99586 13.841 2650 
1344 1 -0.0439626 -0.0200372 -0.0526372 0.000423 -26.9877 1.56732 22.5321 2650 
1307 1 -0.0150496 -0.0458969 -0.0528036 0.000116 -2.1897 0.127287 -21.1304 2650 
3783 1 -0.04452 -0.0363136 -0.0521655 0.000423 -23.2492 -1.09754 19.8344 2650 
3533 1 -0.0445738 -0.0186385 -0.0521204 0.000423 -25.6765 0.955205 21.9508 2650 
1333 1 -0.045246 -0.0378938 -0.0515374 0.000423 -23.1839 1.59156 20.3461 2650 
1871 1 -0.0450861 -0.0270355 -0.051375 0.000656 -25.1587 1.43855 22.0674 2650 
662 1 -0.0449377 -0.0257012 -0.0515052 0.000656 -25.7472 1.57289 22.4524 2650 
469 1 -0.0458946 -0.0228075 -0.0509606 0.000423 -21.9168 -0.504106 19.7306 2650 
2332 1 -0.0462186 -0.0420555 -0.0506291 0.000423 -19.798 -4.48768 18.3835 2650 
4309 1 -0.046709 -0.0319231 -0.0502165 0.000423 -24.8215 -0.350859 23.0794 2650 
1104 1 -0.0458037 -0.0322934 -0.0507369 0.000656 -25.1005 -0.613054 22.6481 2650 
1449 1 -0.0464154 -0.0284748 -0.0504877 0.000423 -24.9063 0.526576 22.9031 2650 
1467 1 -0.0467313 -0.0277488 -0.050196 0.000423 -24.8301 0.793605 23.0932 2650 
3116 1 -0.0461033 -0.0277301 -0.050773 0.000423 -24.8523 0.790339 22.5585 2650 
3520 1 -0.0464247 -0.0222609 -0.0501672 0.000656 -21.4634 0.0118944 19.8513 2650 
4020 1 -0.0468399 -0.0146207 -0.0505082 0.000116 -22.8175 -1.72846 21.1577 2650 
3137 1 -0.0473837 -0.0611357 -0.0488603 0.000116 -67.5755 25.1629 69.509 2650 
1768 1 -0.0432283 -0.0421015 -0.0498843 0.000656 -21.1574 7.56758 13.755 2650 
1329 1 -0.0473193 -0.0367043 -0.0493249 0.000656 -21.2825 1.20005 20.4055 2650 
2545 1 -0.0473008 -0.0327806 -0.0496592 0.000423 -23.031 -0.0571801 21.929 2650 
3128 1 -0.0475688 -0.0309233 -0.049404 0.000423 -26.862 -1.5889 25.8542 2650 
4192 1 -0.0474781 -0.0296519 -0.0494905 0.000423 -25.0045 0.596141 23.9791 2650 
3204 1 -0.0473736 -0.0284907 -0.0495905 0.000423 -25.031 0.671851 23.9033 2650 
3205 1 -0.0471113 -0.0270758 -0.0498396 0.000423 -24.8909 -0.0968971 23.5127 2650 
669 1 -0.046829 -0.0260359 -0.049793 0.000656 -25.0921 -0.0725586 23.5817 2650 
1012 1 -0.0472121 -0.024914 -0.0497439 0.000423 -23.9936 1.34208 22.7716 2650 
3314 1 -0.0475354 -0.024196 -0.0494349 0.000423 -23.3397 1.59011 22.435 2650 
2635 1 -0.047733 -0.0166811 -0.0497672 4.2e-05 -27.2 3.79605 26.0869 2650 
3517 1 -0.0474262 -0.0541969 -0.0492221 0.000656 -21.1669 1.05119 20.3834 2650 
2015 1 -0.0482186 -0.051271 -0.048768 0.000423 -20.3671 -1.43955 20.1299 2650 
3223 1 -0.048242 -0.0354017 -0.0487455 0.000423 -22.1333 1.50723 21.8965 2650 
2541 1 -0.0479342 -0.0251052 -0.0487285 0.000656 -21.8498 -1.13706 21.482 2650 
2579 1 -0.0483331 -0.0173837 -0.0486564 0.000423 -25.2917 1.71756 25.1146 2650 
2297 1 -0.0490037 -0.00155764 -0.0484121 0.000116 -24.8919 1.75421 25.193 2650 
3247 1 -0.048278 -0.00193909 -0.0491357 0.000116 -25.1533 1.92238 24.7112 2650 
3493 1 -0.049538 -0.046759 -0.0478652 0.000116 -21.5572 -2.62212 22.3078 2650 
680 1 -0.0487871 -0.0431996 -0.048203 0.000423 -29.4104 0.396097 29.7575 2650 
2574 1 -0.049031 -0.0419078 -0.0479563 0.000423 -32.5447 0.795647 33.2631 2650 
958 1 -0.0492286 -0.0411031 -0.0481832 0.000116 -21.2837 -1.18753 21.7427 2650 
1886 1 -0.0487682 -0.00488642 -0.0482184 0.000423 -19.2816 -0.80066 19.4939 2650 
1044 1 -0.0497159 -0.0392063 -0.0472422 0.000423 -22.0307 -2.10168 23.1756 2650 
1456 1 -0.0501126 -0.037931 -0.0468216 0.000423 -22.4064 -2.94895 23.9725 2650 
3736 1 -0.0490391 -0.0267638 -0.0476175 0.000656 -22.2174 -0.867021 22.8685 2650 
2105 1 -0.0495036 -0.0073747 -0.0474637 0.000423 -19.7115 -2.20173 20.5507 2650 
3411 1 -0.0329693 -0.0418942 -0.0471544 0.000656 -13.7673 -12.3338 1.64073 2650 
381 1 -0.0505566 -0.038468 -0.046342 0.000423 -22.4278 -2.49777 24.4586 2650 
2028 1 -0.0503196 -0.0363905 -0.0465988 0.000423 -21.4919 -0.67603 23.1993 2650 
3426 1 -0.0508325 -0.0370834 -0.046039 0.000423 -21.4052 -0.641385 23.6251 2650 
1572 1 -0.0510681 -0.0427896 -0.0457796 0.000423 -26.18 2.60699 29.1941 2650 
1214 1 -0.0507401 -0.0357102 -0.0458015 0.000656 -21.0237 -0.192631 23.278 2650 
1137 1 -0.051036 -0.0264464 -0.0458137 0.000423 -22.0269 -0.332789 24.5288 2650 
2838 1 -0.0525145 -0.0343406 -0.0445798 0.000116 -20.6789 1.12559 24.3565 2650 
411 1 -0.0529026 -0.0370325 -0.0441186 0.000116 -21.2104 1.3 25.4303 2650 
2967 1 -0.052167 -0.0365041 -0.0441696 0.000656 -21.2093 0.141792 24.8923 2650 
1009 1 -0.0525766 -0.0355144 -0.0440342 0.000423 -20.7312 0.491308 24.9498 2650 
4027 1 -0.0532383 -0.0336161 -0.043713 0.000116 -20.6563 0.0384287 25.1543 2650 
1462 1 -0.0527524 -0.024495 -0.043827 0.000423 -20.9018 2.13557 25.1492 2650 
3648 1 -0.052699 -0.0159101 -0.0438911 0.000423 -20.804 -0.28455 24.9697 2650 
675 1 -0.0529768 -0.0373024 -0.0435557 0.000423 -20.9747 0.870949 25.5023 2650 
3332 1 -0.0530655 -0.0358787 -0.0434478 0.000423 -20.365 -0.44942 24.8649 2650 
2547 1 -0.0533658 -0.03511 -0.0430782 0.000423 -20.4125 -0.357908 25.2775 2650 
3841 1 -0.0526265 -0.034518 -0.0436217 0.000656 -20.955 0.543404 25.1713 2650 
3120 1 -0.0532736 -0.0334055 -0.0431921 0.000423 -20.1979 0.289781 24.9031 2650 
3421 1 -0.0534953 -0.0318699 -0.0429174 0.000423 -20.4883 0.533766 25.5287 2650 
1508 1 -0.0536678 -0.030975 -0.0431846 0.000116 -19.9854 0.562118 24.8339 2650 
98 1 -0.0535765 -0.0102758 -0.0432974 0.000116 -7.3916 -2.18965 9.14517 2650 
3299 1 -0.0537889 -0.0440239 -0.0421825 0.000656 -20.6793 -0.184743 26.3552 2650 
84 1 -0.054551 -0.0335838 -0.0420635 0.000116 -20.1374 0.428305 26.1126 2650 
3445 1 -0.0537005 -0.0339239 -0.0426603 0.000423 -19.8531 -0.041528 24.9818 2650 
3236 1 -0.0541453 -0.0275811 -0.0420947 0.000423 -20.0369 0.763103 25.7634 2650 
56 1 -0.0542253 -0.0340813 -0.0419915 0.000423 -19.7384 0.716778 25.4797 2650 
3768 1 -0.0548316 -0.0337867 -0.0411974 0.000423 -20.2938 -0.480221 27.0003 2650 
3530 1 -0.0551246 -0.032868 -0.0408043 0.000423 -19.2089 1.36809 25.9408 2650 
4143 1 -0.055224 -0.0186951 -0.041176 0.000116 -16.0432 -3.57826 21.5139 2650 
2905 1 -0.0552394 -0.0125951 -0.0406497 0.000423 -21.092 0.186981 28.6519 2650 
3844 1 -0.0555252 -0.0333815 -0.03987 0.000656 -19.0414 1.73088 26.5041 2650 
3198 1 -0.0555734 -0.0080146 -0.0401921 0.000423 -21.0738 0.56904 29.1283 2650 
334 1 -0.0561715 -0.0344166 -0.0389545 0.000656 -18.41 0.963873 26.5327 2650 
221 1 -0.0557357 -0.0306775 -0.0395757 0.000656 -19.2007 -0.421227 27.0267 2650 
2790 1 -0.0570108 -0.0387025 -0.0381255 0.000423 -17.7441 1.08913 26.5247 2650 
1131 1 -0.0565882 -0.0305071 -0.0387498 0.000423 -18.2216 0.674437 26.6002 2650 
121 1 -0.0563005 -0.0285311 -0.0387683 0.000656 -18.6894 0.69082 27.127 2650 
3089 1 -0.0574367 -0.0391575 -0.0374808 0.000423 -17.1941 -0.916532 26.338 2650 
683 1 -0.0573667 -0.0344512 -0.0375874 0.000423 -17.5054 -0.457741 26.6936 2650 
2937 1 -0.057664 -0.0300634 -0.0376836 0.000116 -17.5836 1.21423 26.9036 2650 
4033 1 -0.0580603 -0.0363623 -0.0370702 0.000116 -17.4416 0.740975 27.3143 2650 
1655 1 -0.057391 -0.0354473 -0.037136 0.000656 -17.9362 -0.428412 27.6476 2650 
2889 1 -0.0580726 -0.0342074 -0.0365047 0.000423 -20.3413 -3.78139 30.3113 2650 
3957 1 -0.0574871 -0.0334676 -0.0369872 0.000656 -20.1284 -0.77372 31.9966 2650 
1430 1 -0.0583479 -0.0312355 -0.0367531 4.2e-05 -17.0351 0.523975 27.0431 2650 
3593 1 -0.0583212 -0.0308244 -0.0366584 0.000116 -16.9961 0.934664 27.0367 2650 
1072 1 -0.0581335 -0.031462 -0.0369554 0.000116 -17.0805 0.313806 26.8658 2650 
1256 1 -0.0581465 -0.0353592 -0.0363707 0.000423 -17.4744 0.276683 27.9262 2650 
2213 1 -0.0584714 -0.0335009 -0.035846 0.000423 -16.7345 0.425564 27.2872 2650 
2972 1 -0.0580537 -0.0317288 -0.0360911 0.000656 -16.947 0.607815 27.2454 2650 
4363 1 -0.0584202 -0.0176748 -0.0365005 0.000116 -16.0782 1.19577 25.7308 2650 
3564 1 -0.058954 -0.0599182 -0.0350479 0.000423 -17.9747 -3.52816 30.2246 2650 
748 1 -0.0590997 -0.0346167 -0.0353898 0.000116 -16.7551 -1.36678 27.9772 2650 
2675 1 -0.0589123 -0.0333294 -0.0351171 0.000423 -16.4186 0.406942 27.5339 2650 
63 1 -0.0589436 -0.0294436 -0.0356491 0.000116 -16.618 0.600418 27.4738 2650 
1887 1 -0.0591434 -0.0551676 -0.0347277 0.000423 -18.2392 -2.05773 31.0516 2650 
4177 1 -0.0591085 -0.0315785 -0.0347859 0.000423 -16.4073 0.437558 27.8594 2650 
611 1 -0.0595907 -0.0316661 -0.0345568 0.000116 -16.3462 0.688563 28.2182 2650 
1231 1 -0.0596793 -0.0353847 -0.0337977 0.000423 -15.894 0.393709 28.0552 2650 
555 1 -0.0596197 -0.033944 -0.0334422 0.000656 -15.6411 0.0587812 27.8697 2650 
3845 1 -0.0596111 -0.0316023 -0.0334576 0.000656 -15.7983 0.530694 28.133 2650 
3885 1 -0.0596992 -0.0305579 -0.0337625 0.000423 -15.9052 0.519799 28.1137 2650 
1442 1 -0.0601069 -0.035208 -0.0325591 0.000656 -15.4335 0.139537 28.4768 2650 
176 1 -0.0604119 -0.0325526 -0.0331004 0.000116 -15.5632 0.356861 28.4014 2650 
3072 1 -0.0605199 -0.0116293 -0.0330548 4.2e-05 -15.125 2.27382 27.6911 2650 
2194 1 -0.00737336 -0.00375107 -0.0336746 4.2e-05 -1.07267 -0.0751559 -4.89893 2650 
3628 1 -0.0605472 -0.0419484 -0.0317367 0.000656 -17.2341 -0.485477 32.8611 2650 
1698 1 -0.0604718 -0.031681 -0.0323587 0.000423 -15.0156 1.06348 28.051 2650 
3124 1 -0.0604409 -0.0284766 -0.0324163 0.000423 -14.9959 0.591745 27.9501 2650 
2208 1 -0.0609381 -0.0393396 -0.0309779 0.000656 -15.6342 -0.342723 30.7391 2650 
1528 1 -0.0613973 -0.0356816 -0.0312349 0.000116 -14.8822 -0.116259 29.2501 2650 
1585 1 -0.0611073 -0.0306159 -0.0311427 0.000423 -14.8284 1.15865 29.0855 2650 
4045 1 -0.0614874 -0.0223351 -0.0312183 4.2e-05 -13.8259 3.75466 27.2303 2650 
2974 1 -0.0609954 -0.0349702 -0.0308636 0.000656 -14.6606 0.134071 28.9583 2650 
684 1 -0.0613844 -0.0276944 -0.0305935 0.000423 -14.9775 -0.273345 30.0411 2650 
4080 1 -0.0615853 -0.0258187 -0.030187 0.000423 -14.5653 -2.62905 29.704 2650 
3981 1 -0.0613073 -0.0124786 -0.0307466 0.000423 -13.7654 -1.29283 27.4378 2650 
1846 1 -0.0550935 -0.0143107 -0.0306791 0.000116 8.47699 0.55705 -4.25942 2650 
261 1 -0.000271808 -0.0323819 -0.0685774 0.000423 -39.1588 4.82044 0.155161 2650 
2032 1 -0.0616682 -0.0386005 -0.0300179 0.000423 -15.2173 1.04216 31.2512 2650 
3538 1 -0.0622005 -0.0364774 -0.0288981 0.000423 -13.5273 0.781183 29.106 2650 
1916 1 -0.0622652 -0.0331616 -0.0287588 0.000423 -13.69 0.103631 29.6295 2650 
2767 1 -0.062291 -0.0311645 -0.028703 0.000423 -13.8383 0.752439 30.0212 2650 
545 1 -0.0632378 -0.0596126 -0.0275006 4.2e-05 -21.846 -3.80264 50.2329 2650 
1481 1 -0.0626234 -0.0335221 -0.0279705 0.000423 -13.3145 -0.0195479 29.7993 2650 
2315 1 -0.06228 -0.0168099 -0.0281826 0.000656 -13.1614 1.94322 29.0698 2650 
3839 1 -0.0626565 -0.0345633 -0.0273368 0.000656 -13.233 0.577122 30.3146 2650 
1864 1 -0.0632709 -0.0307259 -0.0274243 4.2e-05 -13.1791 -0.335535 30.4045 2650 
2494 1 -0.0620182 -0.042744 -0.0265044 0.000116 -10.4038 -2.05625 23.0732 2650 
702 1 -0.0633506 -0.0357947 -0.0262825 0.000423 -12.5903 -1.0237 30.3368 2650 
3222 1 -0.0632063 -0.0289788 -0.0266277 0.000423 -12.8162 1.6784 30.4111 2650 
1968 1 -0.0639746 -0.0364875 -0.0255447 0.000116 -11.9633 -0.0675851 29.9579 2650 
1237 1 -0.0634766 -0.0277987 -0.0259771 0.000423 -12.6852 -2.27282 30.9863 2650 
3393 1 -0.0638657 -0.00837059 -0.026009 4.2e-05 -11.6935 -3.2355 28.7125 2650 
3902 1 -0.0640702 -0.00286683 -0.0253044 0.000116 -15.3715 -2.78898 38.9165 2650 
2069 1 -0.0641488 -0.0426889 -0.025104 0.000116 -10.3819 -2.38109 26.5263 2650 
1800 1 -0.0638406 -0.0371991 -0.0250689 0.000423 -11.6973 0.377233 29.7779 2650 
921 1 -0.0637342 -0.0359075 -0.0253384 0.000423 -11.9382 0.0798093 30.018 2650 
3529 1 -0.063826 -0.0334482 -0.0251065 0.000423 -12.052 0.734469 30.628 2650 
426 1 -0.0541413 -0.00971371 -0.0237251 0.000116 -47.9244 31.9054 96.8178 2650 
34 1 -0.0640716 -0.0365152 -0.0244729 0.000423 -11.5491 0.033302 30.2256 2650 
471 1 -0.0640703 -0.0313129 -0.0244767 0.000423 -11.9023 0.028954 31.1446 2650 
1807 1 -0.064151 -0.0258166 -0.0242645 0.000423 -11.912 -1.54511 31.4823 2650 
1031 1 -0.0646076 -0.0213854 -0.0230222 0.000423 -11.5599 0.0650079 32.4295 2650 
1519 1 -0.0652201 -0.058438 -0.0221741 0.000116 -18.1595 -3.97219 53.4067 2650 
2430 1 -0.0646233 -0.0227664 -0.0222979 0.000656 -11.5825 -0.255197 33.5513 2650 
586 1 -0.0647134 -0.0130199 -0.0227183 0.000423 -7.22816 8.39426 20.5752 2650 
802 1 -0.0651262 -0.0377772 -0.0215112 0.000423 -10.3088 1.28824 31.1993 2650 
535 1 -0.0651911 -0.0168302 -0.0218778 0.000116 -4.72651 -3.99206 19.0014 2650 
3657 1 -0.0648829 -0.0150655 -0.0222295 0.000423 -6.82579 1.0249 19.9097 2650 
2751 1 -0.0198247 -0.0602843 -0.0217817 0.000656 -4.79042 -0.352781 4.51637 2650 
2374 1 -0.0655891 -0.0500957 -0.0210568 0.000116 -11.983 1.17671 37.3218 2650 
1030 1 -0.0652183 -0.016831 -0.0212269 0.000423 -6.89128 -5.9249 21.2708 2650 
2063 1 -0.0566628 -0.0425781 -0.019419 0.000116 -36.9646 -2.21332 76.213 2650 
257 1 -0.00289315 -0.00457601 -0.0211764 0.000423 -0.346396 -0.243756 -2.09951 2650 
4265 1 -0.0662089 -0.0547201 -0.0192675 4.2e-05 -12.8613 15.0964 42.4838 2650 
4293 1 -0.0656705 -0.02335 -0.019788 0.000423 -9.43397 1.40874 31.2977 2650 
1925 1 -0.0659499 -0.0537637 -0.0188399 0.000423 -10.9761 -0.972615 38.4095 2650 
115 1 -0.0656859 -0.0434847 -0.0189394 0.000656 -9.2251 -1.15587 31.9783 2650 
1169 1 -0.0662848 -0.035342 -0.0187522 0.000116 -8.99231 0.420644 31.7825 2650 
797 1 -0.0660001 -0.0188533 -0.0186605 0.000423 -9.46619 -0.616207 33.4694 2650 
3611 1 -0.018329 -0.00383796 -0.0193213 4.2e-05 -2.72726 -0.0819136 -2.8749 2650 
3956 1 -0.0661203 -0.0296145 -0.0173692 0.000656 -9.63251 -3.13876 36.6505 2650 
3328 1 -0.0666879 -0.0331976 -0.0160295 0.000423 -7.70969 -0.935998 32.0636 2650 
707 1 -0.0666136 -0.0304303 -0.0163357 0.000423 -7.95837 -0.837115 32.4413 2650 
2022 1 -0.0668824 -0.0331085 -0.015198 0.000423 -7.32119 -1.15757 32.2074 2650 
3404 1 -0.00031029 -0.0035054 -0.0161925 0.000656 0.00411025 -0.172207 0.0495732 2650 
1306 1 -0.0673213 -0.0437431 -0.0146005 0.000116 -7.73866 -1.80253 35.6784 2650 
2866 1 -0.0668469 -0.0381819 -0.0143148 0.000656 -6.95583 -0.8278 32.4656 2650 
3056 1 -0.0675042 -0.0422726 -0.01373 0.000116 -6.2315 1.04558 30.6342 2650 
1692 1 -0.00685244 -0.0031983 -0.0149376 0.000423 -0.0692212 -0.0145401 0.0297507 2650 
3796 1 -1.11549e-05 -0.00013271 -0.0143484 0.000116 -0.179736 -0.0167759 -0.0509503 2650 
774 1 -0.0670596 -0.0372743 -0.0132833 0.000656 -6.43165 -1.02882 32.4531 2650 
2916 1 -0.0676916 -0.0343988 -0.0127743 0.000116 -6.01781 1.73062 31.8853 2650 
918 1 -0.0672826 -0.0299825 -0.0133184 0.000423 -7.09041 -1.10597 35.8074 2650 
771 1 -0.067065 -0.0264759 -0.0132569 0.000656 -6.55103 1.21461 33.1239 2650 
735 1 -0.067637 -0.0185622 -0.0130603 0.000116 -6.31638 -0.743746 32.7081 2650 
682 1 -0.00899361 -0.000422877 -0.0136693 0.000423 -0.134359 -0.0380222 0.100105 2650 
1396 1 -0.0677832 -0.0293232 -0.0122793 0.000116 -6.38465 -0.00532497 35.2405 2650 
2984 1 -0.0674253 -0.0287384 -0.012576 0.000423 -6.62851 1.45187 35.5258 2650 
3917 1 -0.003984 -0.00307497 -0.012703 0.000116 0 -0.01175 0 2650 
1212 1 -0.00715581 -0.000870625 -0.0130667 0.000656 -0.0620533 -0.0238864 0.00845966 2650 
3320 1 -0.00671017 -0.000498334 -0.0119709 0.000423 -0.0745775 -0.0606123 -0.0638151 2650 
1046 1 -0.0680583 -0.0580514 -0.0103686 0.000116 -5.63794 -1.35364 32.9241 2650 
29 1 -0.0677273 -0.0576097 -0.0108297 0.000423 -5.11541 0.914988 31.9378 2650 
3664 1 -0.0677854 -0.0351358 -0.010462 0.000423 -5.34642 -0.142972 34.6289 2650 
2777 1 -0.0385077 -0.00681401 -0.0113019 0.000423 -5.53089 -0.352286 -1.59708 2650 
293 1 -0.00089807 -0.00318683 -0.0112438 0.000116 0.00266165 -0.0122151 -0.014286 2650 
878 1 -0.003908 -0.00248997 -0.011202 4.2e-05 0 -0.01175 0 2650 
3456 1 -0.0116203 -0.0016245 -0.0112515 0.000423 -0.0334714 0.00348376 0.0284955 2650 
458 1 -0.00744958 -0.00130776 -0.0116517 0.000423 -0.029554 -0.0121153 0.00692941 2650 
2409 1 -0.002586 -0.000588972 -0.011527 4.2e-05 0 -0.01175 0 2650 
2392 1 -0.0682052 -0.026928 -0.00966366 0.000116 -4.27945 0.427152 30.2008 2650 
1071 1 -0.0682244 -0.012998 -0.00952724 0.000116 -4.58106 -1.72184 32.8015 2650 
1778 1 -0.00611091 -0.00224957 -0.010337 0.000423 -0.00316412 -0.0114067 -0.00284294 2650 
308 1 -0.00295999 -0.000819095 -0.0106828 0.000116 -0.0188954 -0.0232704 0.0140787 2650 
812 1 -0.0679756 -0.049506 -0.00914282 0.000423 -4.28777 0.822693 31.868 2650 
2879 1 -0.0680313 -0.0362783 -0.00872216 0.000423 -4.44831 -0.898016 34.6841 2650 
133 1 -0.00142353 -0.00259889 -0.00997321 0.000423 0.0641601 -0.0217432 -0.0282572 2650 
1690 1 -0.00666181 -0.00129558 -0.0100445 0.000423 -0.00950142 -0.00373525 0.0245092 2650 
2059 1 -0.00493891 -0.000121442 -0.00950949 0.000116 -0.00265041 -0.00638524 0.00634598 2650 
592 1 -0.0680585 -0.0542953 -0.00850909 0.000423 -4.54629 1.81607 36.3504 2650 
19 1 -0.0680841 -0.0477813 -0.00829653 0.000423 -3.90441 2.93087 32.0298 2650 
1853 1 -0.0139131 -0.00160219 -0.00932872 0.000116 -0.0174615 -0.0179297 0.0325565 2650 
1153 1 -0.0135774 -0.000535446 -0.00885357 0.000423 -0.010556 -0.00352678 0.0311327 2650 
3231 1 -0.0681242 -0.0620858 -0.0079597 0.000423 -3.6075 0.198836 30.8645 2650 
2235 1 -0.068172 -0.0612194 -0.0075379 0.000423 -3.26514 0.974882 29.5214 2650 
2234 1 -0.0681872 -0.0378508 -0.00740988 0.000423 -4.11327 2.95749 37.8384 2650 
3388 1 -0.0684345 -0.0215607 -0.00787712 0.000116 -2.98423 1.24399 25.9235 2650 
3896 1 -0.0125167 -0.00277419 -0.00790157 0.000116 -0.0281568 -0.017617 -0.00419455 2650 
2294 1 -0.0685856 -0.0483215 -0.00643116 0.000116 -3.23336 -3.00959 34.4789 2650 
2878 1 -0.0682404 -0.0219648 -0.00688733 0.000423 -2.62923 0.885183 26.0414 2650 
2669 1 -0.0683024 -0.0552992 -0.00624707 0.000423 -2.69813 -0.134613 29.4921 2650 
1990 1 -0.0681145 -0.0534869 -0.00581872 0.000656 -2.70116 1.00941 31.6036 2650 
234 1 -0.0683245 -0.0524305 -0.00600404 0.000423 -2.78474 1.0245 31.6787 2650 
3556 1 -0.0683257 -0.044239 -0.00599453 0.000423 -3.04168 -1.53549 34.6573 2650 
3499 1 -0.00424 -0.000627972 -0.006869 0.000116 0 -0.01175 0 2650 
3028 1 -0.0686851 -0.049549 -0.00526373 0.000116 -2.70291 -0.453537 35.266 2650 
3121 1 -0.0684022 -0.0423563 -0.00504814 0.000423 -2.57719 -1.68939 34.9088 2650 
4094 1 -0.0369918 -0.0133708 -0.00485281 0.000423 3.76 -28.4265 56.3094 2650 
3854 1 -0.0122272 -0.0025747 -0.00567969 0.000423 -0.0290361 -0.0703451 0.132406 2650 
140 1 -0.0684282 -0.0591168 -0.00468582 0.000423 -2.46565 2.69601 35.9942 2650 
4058 1 -0.0682097 -0.0169379 -0.00456378 0.000656 -2.01359 -0.0969882 30.079 2650 
43 1 -0.00988098 -0.0034013 -0.00489297 0.000423 -0.477656 -0.201261 -0.19943 2650 
1761 1 -0.0101 -0.00240807 -0.00527538 0.000656 -0.0314131 0.0274565 -0.0265664 2650 