LIGGGHTS (Version LIGGGHTS-PUBLIC 3.8.0, compiled 2022-11-07-16:55:38 by serperd1, git commit 86544c3f1215bc9744d7929e3eacf53ba086af9e)
Created orthogonal box = (-0.15 -0.15 -0.15) to (0.15 0.15 0.15)
  2 by 4 by 5 MPI processor grid

Reading STL file 'cone.stl' (mesh processing step 1/3) 

Reading STL file 'in_cyl.stl' (mesh processing step 1/3) 

Reading STL file 'top_cyl.stl' (mesh processing step 1/3) 

Reading STL file 'bot_cyl.stl' (mesh processing step 1/3) 

Reading STL file 'bottom_disk.stl' (mesh processing step 1/3) 

Reading STL file 'top_disk.stl' (mesh processing step 1/3) 
Fix particledistribution/discrete (id prob_par): distribution based on mass%:
    r_0to10p: d=2.100000e-04 (max. bounding sphere) mass%=10.000000%
    r_10to50p: d=5.820000e-04 (max. bounding sphere) mass%=40.000000%
    r_50to90p: d=2.116400e-03 (max. bounding sphere) mass%=40.000000%
    r_90to100p: d=3.280400e-03 (max. bounding sphere) mass%=10.000000%
Fix particledistribution/discrete (id prob_par): distribution based on number%:
    r_0to10p: d=2.100000e-04 (max. bounding sphere) number%=83.887011%
    r_10to50p: d=5.820000e-04 (max. bounding sphere) number%=15.763173%
    r_50to90p: d=2.116400e-03 (max. bounding sphere) number%=0.327808%
    r_90to100p: d=3.280400e-03 (max. bounding sphere) number%=0.022008%
Setting up run at Thu Nov 24 22:51:13 2022

Import and parallelization of mesh cone_mesh containing 868 triangle(s) successful
Import and parallelization of mesh inlet_cyl_wall_mesh containing 1064 triangle(s) successful
Import and parallelization of mesh top_cyl_wall_mesh containing 682 triangle(s) successful
Import and parallelization of mesh bot_cyl_wall_mesh containing 1280 triangle(s) successful
Import and parallelization of mesh bot_disk_wall_mesh containing 1682 triangle(s) successful
Import and parallelization of mesh top_disk_wall_mesh containing 1144 triangle(s) successful
Memory usage per processor = 954.231 Mbytes
    Step    Atoms         KinEng            CPU 
       0        0              0              0 
Loop time of 6.05039e-05 on 40 procs for 0 steps with 0 atoms, finish time Thu Nov 24 22:51:13 2022


Pair  time (%) = 0 (0)
Neigh time (%) = 0 (0)
Comm  time (%) = 0 (0)
Outpt time (%) = 0 (0)
Other time (%) = 6.05039e-05 (100)

Nlocal:    0 ave 0 max 0 min
Histogram: 40 0 0 0 0 0 0 0 0 0
Nghost:    0 ave 0 max 0 min
Histogram: 40 0 0 0 0 0 0 0 0 0
Neighs:    0 ave 0 max 0 min
Histogram: 40 0 0 0 0 0 0 0 0 0

Total # of neighbors = 0
Neighbor list builds = 0
Dangerous builds = 0
Setting up run at Thu Nov 24 22:51:13 2022

Memory usage per processor = 954.231 Mbytes
    Step    Atoms         KinEng            CPU 
       0        0              0              0 
       1        0              0    0.009714648 
Loop time of 0.0097338 on 40 procs for 1 steps with 0 atoms, finish time Thu Nov 24 22:51:13 2022


Pair  time (%) = 2.39382e-06 (0.0245929)
Neigh time (%) = 0 (0)
Comm  time (%) = 0.000216306 (2.22222)
Outpt time (%) = 0.000112131 (1.15198)
Other time (%) = 0.00940297 (96.6012)

Nlocal:    0 ave 0 max 0 min
Histogram: 40 0 0 0 0 0 0 0 0 0
Nghost:    0 ave 0 max 0 min
Histogram: 40 0 0 0 0 0 0 0 0 0
Neighs:    0 ave 0 max 0 min
Histogram: 40 0 0 0 0 0 0 0 0 0

Total # of neighbors = 0
Neighbor list builds = 0
Dangerous builds = 0
Scanning dump file ...
Reading snapshot from dump file ...
  orthogonal box = (-0.15 -0.15 -0.15) to (0.15 0.15 0.15)
  0 atoms before read
  305 atoms in snapshot
  0 atoms purged
  0 atoms replaced
  0 atoms trimmed
  305 atoms added
  305 atoms after read
Setting atom values ...
  305 settings made for type
  305 settings made for density
  305 settings made for vy
Setting up run at Thu Nov 24 22:51:13 2022

Memory usage per processor = 958.583 Mbytes
    Step    Atoms         KinEng            CPU 
       1      305  2.0462467e-07              0 
       2      305  2.4125357e-07    0.009155418 
Loop time of 0.00916774 on 40 procs for 1 steps with 305 atoms, finish time Thu Nov 24 22:51:13 2022


Pair  time (%) = 2.20525e-06 (0.0240544)
Neigh time (%) = 0 (0)
Comm  time (%) = 5.0146e-06 (0.0546983)
Outpt time (%) = 0.000130721 (1.42588)
Other time (%) = 0.0090298 (98.4954)

Nlocal:    7.625 ave 134 max 0 min
Histogram: 36 2 0 0 0 0 0 0 0 2
Nghost:    5.125 ave 59 max 0 min
Histogram: 36 0 0 0 0 0 0 2 0 2
Neighs:    2.375 ave 54 max 0 min
Histogram: 37 1 0 0 0 1 0 0 0 1

Total # of neighbors = 95
Ave neighs/atom = 0.311475
Neighbor list builds = 0
Dangerous builds = 0
Setting up run at Thu Nov 24 22:51:13 2022

Memory usage per processor = 958.583 Mbytes
    Step    Atoms         KinEng            CPU 
       2      305  2.4125357e-07              0 
  123458      305  6.0816412e-05      1204.2903 
Loop time of 1204.29 on 40 procs for 123456 steps with 305 atoms, finish time Thu Nov 24 23:11:18 2022


Pair  time (%) = 0.243234 (0.0201973)
Neigh time (%) = 0.0575723 (0.0047806)
Comm  time (%) = 0.413128 (0.0343047)
Outpt time (%) = 0.000309028 (2.56606e-05)
Other time (%) = 1203.58 (99.9407)

Nlocal:    7.625 ave 136 max 0 min
Histogram: 36 2 0 0 0 0 0 0 1 1
Nghost:    5.15 ave 59 max 0 min
Histogram: 36 0 0 0 0 0 0 2 0 2
Neighs:    2.5 ave 57 max 0 min
Histogram: 36 2 0 0 1 0 0 0 0 1

Total # of neighbors = 100
Ave neighs/atom = 0.327869
Neighbor list builds = 330
Dangerous builds = 0
Setting up run at Thu Nov 24 23:11:18 2022

Memory usage per processor = 958.583 Mbytes
    Step    Atoms         KinEng            CPU 
  123458      305  6.0816412e-05              0 
  246914      305  4.3842796e-05      1199.4784 
Loop time of 1199.48 on 40 procs for 123456 steps with 305 atoms, finish time Thu Nov 24 23:31:17 2022


Pair  time (%) = 0.241433 (0.0201281)
Neigh time (%) = 0.0582959 (0.00486011)
Comm  time (%) = 0.426943 (0.0355941)
Outpt time (%) = 0.00035872 (2.99063e-05)
Other time (%) = 1198.75 (99.9394)

Nlocal:    7.625 ave 138 max 0 min
Histogram: 36 2 0 0 0 0 0 0 1 1
Nghost:    5.125 ave 56 max 0 min
Histogram: 36 0 0 0 0 0 0 0 2 2
Neighs:    2.475 ave 57 max 0 min
Histogram: 36 2 0 0 1 0 0 0 0 1

Total # of neighbors = 99
Ave neighs/atom = 0.32459
Neighbor list builds = 330
Dangerous builds = 0
Setting up run at Thu Nov 24 23:31:17 2022

Memory usage per processor = 958.583 Mbytes
    Step    Atoms         KinEng            CPU 
  246914      305  4.3842796e-05              0 
  370370      305  0.00038250452      1193.9297 
Loop time of 1193.93 on 40 procs for 123456 steps with 305 atoms, finish time Thu Nov 24 23:51:11 2022


Pair  time (%) = 0.240634 (0.0201548)
Neigh time (%) = 0.0586705 (0.00491406)
Comm  time (%) = 0.43357 (0.0363145)
Outpt time (%) = 0.000264335 (2.21399e-05)
Other time (%) = 1193.2 (99.9386)

Nlocal:    7.625 ave 134 max 0 min
Histogram: 36 0 2 0 0 0 0 0 1 1
Nghost:    5.025 ave 61 max 0 min
Histogram: 36 0 0 0 0 0 0 2 1 1
Neighs:    2.475 ave 57 max 0 min
Histogram: 36 2 0 0 1 0 0 0 0 1

Total # of neighbors = 99
Ave neighs/atom = 0.32459
Neighbor list builds = 330
Dangerous builds = 0
Setting up run at Thu Nov 24 23:51:11 2022

Memory usage per processor = 958.583 Mbytes
    Step    Atoms         KinEng            CPU 
  370370      305  0.00038250452              0 
  493826      305   0.0002185812      1198.1544 
Loop time of 1198.26 on 40 procs for 123456 steps with 305 atoms, finish time Fri Nov 25 00:11:09 2022


Pair  time (%) = 0.238779 (0.0199272)
Neigh time (%) = 0.0580178 (0.00484184)
Comm  time (%) = 0.721107 (0.0601795)
Outpt time (%) = 0.000651499 (5.43705e-05)
Other time (%) = 1197.24 (99.915)

Nlocal:    7.625 ave 134 max 0 min
Histogram: 36 0 2 0 0 0 0 0 1 1
Nghost:    5.025 ave 59 max 0 min
Histogram: 36 0 0 0 0 0 0 2 0 2
Neighs:    2.425 ave 54 max 0 min
Histogram: 36 1 1 0 1 0 0 0 0 1

Total # of neighbors = 97
Ave neighs/atom = 0.318033
Neighbor list builds = 330
Dangerous builds = 0
Setting up run at Fri Nov 25 00:11:09 2022

Memory usage per processor = 958.583 Mbytes
    Step    Atoms         KinEng            CPU 
  493826      305   0.0002185812              0 
  617282      305     0.39405918      1215.9546 
Loop time of 1215.95 on 40 procs for 123456 steps with 305 atoms, finish time Fri Nov 25 00:31:25 2022


Pair  time (%) = 0.248848 (0.0204653)
Neigh time (%) = 0.617751 (0.0508038)
Comm  time (%) = 1.35394 (0.111348)
Outpt time (%) = 0.000332963 (2.73828e-05)
Other time (%) = 1213.73 (99.8174)

Nlocal:    7.625 ave 134 max 0 min
Histogram: 36 0 2 0 0 0 0 1 0 1
Nghost:    4.95 ave 59 max 0 min
Histogram: 36 0 0 0 0 0 1 1 0 2
Neighs:    2.5 ave 55 max 0 min
Histogram: 36 1 1 0 1 0 0 0 0 1

Total # of neighbors = 100
Ave neighs/atom = 0.327869
Neighbor list builds = 3553
Dangerous builds = 0
Setting up run at Fri Nov 25 00:31:25 2022

Memory usage per processor = 958.583 Mbytes
    Step    Atoms         KinEng            CPU 
  617282      305     0.39405918              0 
  740738      303    0.074254817      1226.4664 
Loop time of 1226.47 on 40 procs for 123456 steps with 303 atoms, finish time Fri Nov 25 00:51:52 2022


Pair  time (%) = 0.253373 (0.0206588)
Neigh time (%) = 1.06642 (0.0869509)
Comm  time (%) = 2.26762 (0.184891)
Outpt time (%) = 0.000659218 (5.37494e-05)
Other time (%) = 1222.88 (99.7074)

Nlocal:    7.575 ave 133 max 0 min
Histogram: 36 0 2 0 0 0 0 1 0 1
Nghost:    5.025 ave 58 max 0 min
Histogram: 36 0 0 0 0 0 1 1 0 2
Neighs:    2.4 ave 54 max 0 min
Histogram: 36 1 1 0 1 0 0 0 0 1

Total # of neighbors = 96
Ave neighs/atom = 0.316832
Neighbor list builds = 6175
Dangerous builds = 1
Setting up run at Fri Nov 25 00:51:52 2022

Memory usage per processor = 958.583 Mbytes
    Step    Atoms         KinEng            CPU 
  740738      303    0.074254817              0 
  864194      302       0.371768      1210.3851 
Loop time of 1210.39 on 40 procs for 123456 steps with 302 atoms, finish time Fri Nov 25 01:12:02 2022


Pair  time (%) = 0.250848 (0.0207246)
Neigh time (%) = 0.734468 (0.0606805)
Comm  time (%) = 1.47492 (0.121855)
Outpt time (%) = 0.000355475 (2.93687e-05)
Other time (%) = 1207.92 (99.7967)

Nlocal:    7.55 ave 131 max 0 min
Histogram: 36 1 1 0 0 0 0 1 0 1
Nghost:    5.25 ave 60 max 0 min
Histogram: 36 0 0 0 0 0 1 0 1 2
Neighs:    2.4 ave 54 max 0 min
Histogram: 36 1 1 1 0 0 0 0 0 1

Total # of neighbors = 96
Ave neighs/atom = 0.317881
Neighbor list builds = 4169
Dangerous builds = 0
Setting up run at Fri Nov 25 01:12:02 2022

Memory usage per processor = 958.583 Mbytes
    Step    Atoms         KinEng            CPU 
  864194      302       0.371768              0 
  987650      299    0.099084135      1217.0624 
Loop time of 1217.06 on 40 procs for 123456 steps with 299 atoms, finish time Fri Nov 25 01:32:20 2022


Pair  time (%) = 0.249581 (0.0205068)
Neigh time (%) = 0.694693 (0.0570795)
Comm  time (%) = 1.50165 (0.123383)
Outpt time (%) = 4.83188e-05 (3.97011e-06)
Other time (%) = 1214.62 (99.799)

Nlocal:    7.475 ave 132 max 0 min
Histogram: 36 1 1 0 0 0 0 1 0 1
Nghost:    5.325 ave 61 max 0 min
Histogram: 36 0 0 0 0 0 1 0 1 2
Neighs:    2.375 ave 56 max 0 min
Histogram: 36 2 0 1 0 0 0 0 0 1

Total # of neighbors = 95
Ave neighs/atom = 0.317726
Neighbor list builds = 4003
Dangerous builds = 1
Setting up run at Fri Nov 25 01:32:20 2022

Memory usage per processor = 958.583 Mbytes
    Step    Atoms         KinEng            CPU 
  987650      299    0.099084135              0 
 1111106      299    0.099632354      1211.2714 
Loop time of 1211.27 on 40 procs for 123456 steps with 299 atoms, finish time Fri Nov 25 01:52:31 2022


Pair  time (%) = 0.248152 (0.0204869)
Neigh time (%) = 0.609011 (0.0502786)
Comm  time (%) = 1.29758 (0.107125)
Outpt time (%) = 0.000665325 (5.49278e-05)
Other time (%) = 1209.12 (99.8221)

Nlocal:    7.475 ave 129 max 0 min
Histogram: 36 0 2 0 0 0 0 1 0 1
Nghost:    5.4 ave 59 max 0 min
Histogram: 36 0 0 0 0 0 0 1 0 3
Neighs:    2.4 ave 57 max 0 min
Histogram: 36 2 0 1 0 0 0 0 0 1

Total # of neighbors = 96
Ave neighs/atom = 0.32107
Neighbor list builds = 3470
Dangerous builds = 0
Setting up run at Fri Nov 25 01:52:31 2022

Memory usage per processor = 958.583 Mbytes
    Step    Atoms         KinEng            CPU 
 1111106      299    0.099632354              0 
 1234562      299    0.091234854      1211.5993 
Loop time of 1211.6 on 40 procs for 123456 steps with 299 atoms, finish time Fri Nov 25 02:12:43 2022


Pair  time (%) = 0.246747 (0.0203654)
Neigh time (%) = 0.550069 (0.0454002)
Comm  time (%) = 1.75045 (0.144474)
Outpt time (%) = 0.000264742 (2.18506e-05)
Other time (%) = 1209.05 (99.7897)

Nlocal:    7.475 ave 128 max 0 min
Histogram: 36 1 1 0 0 0 0 0 1 1
Nghost:    5.35 ave 56 max 0 min
Histogram: 36 0 0 0 0 0 0 0 1 3
Neighs:    2.425 ave 58 max 0 min
Histogram: 36 2 0 1 0 0 0 0 0 1

Total # of neighbors = 97
Ave neighs/atom = 0.324415
Neighbor list builds = 3133
Dangerous builds = 0
Setting up run at Fri Nov 25 02:12:43 2022

Memory usage per processor = 958.583 Mbytes
    Step    Atoms         KinEng            CPU 
 1234562      299    0.091234854              0 
 1358018      297    0.077666283      1206.4175 
Loop time of 1206.42 on 40 procs for 123456 steps with 297 atoms, finish time Fri Nov 25 02:32:49 2022


Pair  time (%) = 0.245127 (0.0203186)
Neigh time (%) = 0.45171 (0.0374423)
Comm  time (%) = 1.64744 (0.136557)
Outpt time (%) = 0.000316693 (2.62507e-05)
Other time (%) = 1204.07 (99.8057)

Nlocal:    7.425 ave 123 max 0 min
Histogram: 36 0 2 0 0 0 0 0 1 1
Nghost:    5.175 ave 59 max 0 min
Histogram: 36 0 0 0 0 0 0 1 2 1
Neighs:    2.5 ave 60 max 0 min
Histogram: 36 2 0 1 0 0 0 0 0 1

Total # of neighbors = 100
Ave neighs/atom = 0.3367
Neighbor list builds = 2589
Dangerous builds = 45
Setting up run at Fri Nov 25 02:32:49 2022

Memory usage per processor = 958.583 Mbytes
    Step    Atoms         KinEng            CPU 
 1358018      297    0.077666283              0 
 1481474      297    0.075692606      1220.0317 
Loop time of 1220.03 on 40 procs for 123456 steps with 297 atoms, finish time Fri Nov 25 02:53:09 2022


Pair  time (%) = 0.25202 (0.0206568)
Neigh time (%) = 0.893416 (0.0732289)
Comm  time (%) = 2.70075 (0.221367)
Outpt time (%) = 0.000630498 (5.16788e-05)
Other time (%) = 1216.18 (99.6847)

Nlocal:    7.425 ave 120 max 0 min
Histogram: 36 0 2 0 0 0 0 0 1 1
Nghost:    5.325 ave 61 max 0 min
Histogram: 36 0 0 0 0 0 0 1 1 2
Neighs:    2.6 ave 60 max 0 min
Histogram: 36 1 1 1 0 0 0 0 0 1

Total # of neighbors = 104
Ave neighs/atom = 0.350168
Neighbor list builds = 5095
Dangerous builds = 0
Setting up run at Fri Nov 25 02:53:09 2022

Memory usage per processor = 958.583 Mbytes
    Step    Atoms         KinEng            CPU 
 1481474      297    0.075692606              0 
 1604930      295     0.31520315      1220.5004 
Loop time of 1220.5 on 40 procs for 123456 steps with 295 atoms, finish time Fri Nov 25 03:13:30 2022


Pair  time (%) = 0.249793 (0.0204665)
Neigh time (%) = 0.832747 (0.0682299)
Comm  time (%) = 2.30166 (0.188583)
Outpt time (%) = 0.000382634 (3.13506e-05)
Other time (%) = 1217.12 (99.7227)

Nlocal:    7.375 ave 119 max 0 min
Histogram: 36 0 1 1 0 0 0 0 1 1
Nghost:    5.25 ave 61 max 0 min
Histogram: 36 0 0 0 0 0 1 0 1 2
Neighs:    2.65 ave 59 max 0 min
Histogram: 36 1 1 1 0 0 0 0 0 1

Total # of neighbors = 106
Ave neighs/atom = 0.359322
Neighbor list builds = 4899
Dangerous builds = 31
Setting up run at Fri Nov 25 03:13:30 2022

Memory usage per processor = 958.583 Mbytes
    Step    Atoms         KinEng            CPU 
 1604930      295     0.31520315              0 
 1728386      294     0.29789919       1213.688 
Loop time of 1213.69 on 40 procs for 123456 steps with 294 atoms, finish time Fri Nov 25 03:33:44 2022


Pair  time (%) = 0.249344 (0.0205443)
Neigh time (%) = 0.627525 (0.051704)
Comm  time (%) = 2.12958 (0.175464)
Outpt time (%) = 0.000344122 (2.83534e-05)
Other time (%) = 1210.68 (99.7523)

Nlocal:    7.35 ave 116 max 0 min
Histogram: 36 0 2 0 0 0 0 0 1 1
Nghost:    5.225 ave 62 max 0 min
Histogram: 36 0 0 0 0 0 1 1 0 2
Neighs:    2.725 ave 56 max 0 min
Histogram: 36 1 0 1 1 0 0 0 0 1

Total # of neighbors = 109
Ave neighs/atom = 0.370748
Neighbor list builds = 3627
Dangerous builds = 1
Setting up run at Fri Nov 25 03:33:44 2022

Memory usage per processor = 958.583 Mbytes
    Step    Atoms         KinEng            CPU 
 1728386      294     0.29789919              0 
 1851842      294     0.31059707      1221.4246 
Loop time of 1221.42 on 40 procs for 123456 steps with 294 atoms, finish time Fri Nov 25 03:54:05 2022


Pair  time (%) = 0.250588 (0.020516)
Neigh time (%) = 0.772168 (0.0632186)
Comm  time (%) = 2.64323 (0.216406)
Outpt time (%) = 0.000687684 (5.63018e-05)
Other time (%) = 1217.76 (99.6998)

Nlocal:    7.35 ave 113 max 0 min
Histogram: 36 0 2 0 0 0 0 0 1 1
Nghost:    5.25 ave 65 max 0 min
Histogram: 36 0 0 0 0 0 2 0 1 1
Neighs:    2.6 ave 50 max 0 min
Histogram: 36 1 0 0 2 0 0 0 0 1

Total # of neighbors = 104
Ave neighs/atom = 0.353741
Neighbor list builds = 4360
Dangerous builds = 0
Setting up run at Fri Nov 25 03:54:05 2022

Memory usage per processor = 958.583 Mbytes
    Step    Atoms         KinEng            CPU 
 1851842      294     0.31059707              0 
 1975298      292     0.32864755      1223.6908 
Loop time of 1223.69 on 40 procs for 123456 steps with 292 atoms, finish time Fri Nov 25 04:14:29 2022


Pair  time (%) = 0.248108 (0.0202754)
Neigh time (%) = 0.737816 (0.0602943)
Comm  time (%) = 2.59887 (0.212379)
Outpt time (%) = 0.000387178 (3.16402e-05)
Other time (%) = 1220.11 (99.707)

Nlocal:    7.3 ave 110 max 0 min
Histogram: 36 0 0 2 0 0 0 0 1 1
Nghost:    5.05 ave 63 max 0 min
Histogram: 36 0 0 0 0 0 2 0 1 1
Neighs:    2.525 ave 51 max 0 min
Histogram: 36 1 0 0 2 0 0 0 0 1

Total # of neighbors = 101
Ave neighs/atom = 0.34589
Neighbor list builds = 4184
Dangerous builds = 22
Setting up run at Fri Nov 25 04:14:29 2022

Memory usage per processor = 958.583 Mbytes
    Step    Atoms         KinEng            CPU 
 1975298      292     0.32864755              0 
 2098754      289     0.32292853      1225.1352 
Loop time of 1225.15 on 40 procs for 123456 steps with 289 atoms, finish time Fri Nov 25 04:34:54 2022


Pair  time (%) = 0.251377 (0.0205182)
Neigh time (%) = 1.03665 (0.0846141)
Comm  time (%) = 2.78264 (0.227127)
Outpt time (%) = 0.0115423 (0.000942113)
Other time (%) = 1221.06 (99.6668)

Nlocal:    7.225 ave 106 max 0 min
Histogram: 36 0 0 2 0 0 0 0 0 2
Nghost:    5 ave 68 max 0 min
Histogram: 36 0 0 0 0 1 1 1 0 1
Neighs:    2.675 ave 52 max 0 min
Histogram: 36 1 0 1 0 1 0 0 0 1

Total # of neighbors = 107
Ave neighs/atom = 0.370242
Neighbor list builds = 5854
Dangerous builds = 10
Setting up run at Fri Nov 25 04:34:54 2022

Memory usage per processor = 958.583 Mbytes
    Step    Atoms         KinEng            CPU 
 2098754      289     0.32292853              0 
 2222210      289     0.29701138      1211.4756 
Loop time of 1211.48 on 40 procs for 123456 steps with 289 atoms, finish time Fri Nov 25 04:55:06 2022


Pair  time (%) = 0.24996 (0.0206327)
Neigh time (%) = 0.702681 (0.0580021)
Comm  time (%) = 1.76088 (0.14535)
Outpt time (%) = 0.000694741 (5.73467e-05)
Other time (%) = 1208.76 (99.776)

Nlocal:    7.225 ave 105 max 0 min
Histogram: 36 0 0 2 0 0 0 0 0 2
Nghost:    5.075 ave 68 max 0 min
Histogram: 36 0 0 0 0 0 2 1 0 1
Neighs:    2.6 ave 49 max 0 min
Histogram: 36 1 0 0 1 1 0 0 0 1

Total # of neighbors = 104
Ave neighs/atom = 0.359862
Neighbor list builds = 3964
Dangerous builds = 0
Setting up run at Fri Nov 25 04:55:06 2022

Memory usage per processor = 958.583 Mbytes
    Step    Atoms         KinEng            CPU 
 2222210      289     0.29701138              0 
 2345666      288     0.23217471      1215.8423 
Loop time of 1215.84 on 40 procs for 123456 steps with 288 atoms, finish time Fri Nov 25 05:15:22 2022


Pair  time (%) = 0.246446 (0.0202696)
Neigh time (%) = 0.653815 (0.0537747)
Comm  time (%) = 1.89842 (0.15614)
Outpt time (%) = 0.000313711 (2.5802e-05)
Other time (%) = 1213.04 (99.7698)

Nlocal:    7.2 ave 103 max 0 min
Histogram: 36 0 0 2 0 0 0 0 0 2
Nghost:    5.075 ave 68 max 0 min
Histogram: 36 0 0 0 0 1 1 1 0 1
Neighs:    2.35 ave 40 max 0 min
Histogram: 36 1 0 0 0 1 1 0 0 1

Total # of neighbors = 94
Ave neighs/atom = 0.326389
Neighbor list builds = 3739
Dangerous builds = 2
Setting up run at Fri Nov 25 05:15:22 2022

Memory usage per processor = 958.583 Mbytes
    Step    Atoms         KinEng            CPU 
 2345666      288     0.23217471              0 
 2469122      287     0.19586315      1215.6404 
Loop time of 1215.64 on 40 procs for 123456 steps with 287 atoms, finish time Fri Nov 25 05:35:37 2022


Pair  time (%) = 0.245178 (0.0201686)
Neigh time (%) = 0.607865 (0.0500037)
Comm  time (%) = 1.89384 (0.15579)
Outpt time (%) = 0.000644437 (5.30121e-05)
Other time (%) = 1212.89 (99.774)

Nlocal:    7.175 ave 102 max 0 min
Histogram: 36 0 0 1 1 0 0 0 0 2
Nghost:    4.95 ave 66 max 0 min
Histogram: 36 0 0 0 0 0 2 1 0 1
Neighs:    2.325 ave 42 max 0 min
Histogram: 36 1 0 0 0 2 0 0 0 1

Total # of neighbors = 93
Ave neighs/atom = 0.324042
Neighbor list builds = 3419
Dangerous builds = 1
Setting up run at Fri Nov 25 05:35:38 2022

Memory usage per processor = 958.583 Mbytes
    Step    Atoms         KinEng            CPU 
 2469122      287     0.19586315              0 
 2592578      286     0.23844518      1214.3773 
Loop time of 1214.38 on 40 procs for 123456 steps with 286 atoms, finish time Fri Nov 25 05:55:52 2022


Pair  time (%) = 0.244037 (0.0200956)
Neigh time (%) = 0.642919 (0.0529423)
Comm  time (%) = 1.4788 (0.121775)
Outpt time (%) = 0.000390869 (3.21868e-05)
Other time (%) = 1212.01 (99.8052)

Nlocal:    7.15 ave 100 max 0 min
Histogram: 36 0 0 1 1 0 0 0 0 2
Nghost:    5 ave 67 max 0 min
Histogram: 36 0 0 0 0 1 1 1 0 1
Neighs:    2.15 ave 35 max 0 min
Histogram: 36 0 1 0 0 1 1 0 0 1

Total # of neighbors = 86
Ave neighs/atom = 0.300699
Neighbor list builds = 3615
Dangerous builds = 1
Setting up run at Fri Nov 25 05:55:52 2022

Memory usage per processor = 958.583 Mbytes
    Step    Atoms         KinEng            CPU 
 2592578      286     0.23844518              0 
 2716034      286     0.25899449       1215.122 
Loop time of 1215.12 on 40 procs for 123456 steps with 286 atoms, finish time Fri Nov 25 06:16:07 2022


Pair  time (%) = 0.245075 (0.0201688)
Neigh time (%) = 0.611048 (0.0502869)
Comm  time (%) = 1.50049 (0.123485)
Outpt time (%) = 0.000766501 (6.30802e-05)
Other time (%) = 1212.76 (99.806)

Nlocal:    7.15 ave 100 max 0 min
Histogram: 36 0 0 1 1 0 0 0 0 2
Nghost:    4.75 ave 63 max 0 min
Histogram: 36 0 0 0 0 0 2 1 0 1
Neighs:    2.125 ave 36 max 0 min
Histogram: 36 0 1 0 1 0 1 0 0 1

Total # of neighbors = 85
Ave neighs/atom = 0.297203
Neighbor list builds = 3426
Dangerous builds = 0
Setting up run at Fri Nov 25 06:16:07 2022

Memory usage per processor = 958.583 Mbytes
    Step    Atoms         KinEng            CPU 
 2716034      286     0.25899449              0 
 2839490      286      0.2639972      1214.0476 
Loop time of 1214.05 on 40 procs for 123456 steps with 286 atoms, finish time Fri Nov 25 06:36:21 2022


Pair  time (%) = 0.243475 (0.0200548)
Neigh time (%) = 0.609392 (0.0501951)
Comm  time (%) = 1.47754 (0.121703)
Outpt time (%) = 0.000367152 (3.02419e-05)
Other time (%) = 1211.72 (99.808)

Nlocal:    7.15 ave 99 max 0 min
Histogram: 36 0 0 2 0 0 0 0 0 2
Nghost:    4.775 ave 61 max 0 min
Histogram: 36 0 0 0 0 0 2 0 1 1
Neighs:    2.025 ave 34 max 0 min
Histogram: 36 0 1 0 1 0 1 0 0 1

Total # of neighbors = 81
Ave neighs/atom = 0.283217
Neighbor list builds = 3406
Dangerous builds = 0
Setting up run at Fri Nov 25 06:36:21 2022

Memory usage per processor = 958.583 Mbytes
    Step    Atoms         KinEng            CPU 
 2839490      286      0.2639972              0 
 2962946      282     0.22788353      1220.7233 
Loop time of 1220.72 on 40 procs for 123456 steps with 282 atoms, finish time Fri Nov 25 06:56:42 2022


Pair  time (%) = 0.247686 (0.0202901)
Neigh time (%) = 0.782807 (0.0641265)
Comm  time (%) = 1.94978 (0.159723)
Outpt time (%) = 0.000321441 (2.6332e-05)
Other time (%) = 1217.74 (99.7558)

Nlocal:    7.05 ave 97 max 0 min
Histogram: 36 0 0 1 1 0 0 0 0 2
Nghost:    4.75 ave 62 max 0 min
Histogram: 36 0 0 0 0 1 1 1 0 1
Neighs:    2.075 ave 32 max 0 min
Histogram: 36 0 0 1 1 0 0 0 1 1

Total # of neighbors = 83
Ave neighs/atom = 0.294326
Neighbor list builds = 4500
Dangerous builds = 61
Setting up run at Fri Nov 25 06:56:42 2022

Memory usage per processor = 958.583 Mbytes
    Step    Atoms         KinEng            CPU 
 2962946      282     0.22788353              0 
 3086402      281     0.61595903       1216.517 
Loop time of 1216.52 on 40 procs for 123456 steps with 281 atoms, finish time Fri Nov 25 07:16:59 2022


Pair  time (%) = 0.246518 (0.0202643)
Neigh time (%) = 0.670672 (0.0551305)
Comm  time (%) = 1.67027 (0.137299)
Outpt time (%) = 0.000688326 (5.65817e-05)
Other time (%) = 1213.93 (99.7872)

Nlocal:    7.025 ave 97 max 0 min
Histogram: 36 0 0 2 0 0 0 0 0 2
Nghost:    4.725 ave 61 max 0 min
Histogram: 36 0 0 0 0 0 1 2 0 1
Neighs:    2.1 ave 31 max 0 min
Histogram: 36 0 0 2 0 0 0 0 0 2

Total # of neighbors = 84
Ave neighs/atom = 0.298932
Neighbor list builds = 3781
Dangerous builds = 1
Setting up run at Fri Nov 25 07:16:59 2022

Memory usage per processor = 958.583 Mbytes
    Step    Atoms         KinEng            CPU 
 3086402      281     0.61595903              0 
 3209858      280     0.57681301      1215.6727 
Loop time of 1215.67 on 40 procs for 123456 steps with 280 atoms, finish time Fri Nov 25 07:37:14 2022


Pair  time (%) = 0.244503 (0.0201126)
Neigh time (%) = 0.650603 (0.0535179)
Comm  time (%) = 1.5149 (0.124614)
Outpt time (%) = 0.000375317 (3.08732e-05)
Other time (%) = 1213.26 (99.8017)

Nlocal:    7 ave 96 max 0 min
Histogram: 36 0 0 1 1 0 0 0 0 2
Nghost:    4.65 ave 60 max 0 min
Histogram: 36 0 0 0 0 0 2 1 0 1
Neighs:    2 ave 31 max 0 min
Histogram: 36 0 1 1 0 0 0 0 0 2

Total # of neighbors = 80
Ave neighs/atom = 0.285714
Neighbor list builds = 3641
Dangerous builds = 0
Setting up run at Fri Nov 25 07:37:14 2022

Memory usage per processor = 958.583 Mbytes
    Step    Atoms         KinEng            CPU 
 3209858      280     0.57681301              0 
 3333314      277     0.46027541      1216.4658 
Loop time of 1216.47 on 40 procs for 123456 steps with 277 atoms, finish time Fri Nov 25 07:57:31 2022


Pair  time (%) = 0.243532 (0.0200196)
Neigh time (%) = 0.685339 (0.0563385)
Comm  time (%) = 1.87986 (0.154534)
Outpt time (%) = 0.000310242 (2.55035e-05)
Other time (%) = 1213.66 (99.7691)

Nlocal:    6.925 ave 94 max 0 min
Histogram: 36 0 0 1 1 0 0 0 0 2
Nghost:    4.575 ave 61 max 0 min
Histogram: 36 0 0 0 0 1 2 0 0 1
Neighs:    2 ave 30 max 0 min
Histogram: 36 0 1 0 1 0 0 0 0 2

Total # of neighbors = 80
Ave neighs/atom = 0.288809
Neighbor list builds = 3843
Dangerous builds = 2
Setting up run at Fri Nov 25 07:57:31 2022

Memory usage per processor = 958.583 Mbytes
    Step    Atoms         KinEng            CPU 
 3333314      277     0.46027541              0 
 3456770      276     0.46414663      1222.6034 
Loop time of 1222.6 on 40 procs for 123456 steps with 276 atoms, finish time Fri Nov 25 08:17:54 2022


Pair  time (%) = 0.242166 (0.0198074)
Neigh time (%) = 0.744201 (0.0608702)
Comm  time (%) = 2.23007 (0.182404)
Outpt time (%) = 0.000668465 (5.46755e-05)
Other time (%) = 1219.39 (99.7369)

Nlocal:    6.9 ave 94 max 0 min
Histogram: 36 0 0 2 0 0 0 0 0 2
Nghost:    4.575 ave 60 max 0 min
Histogram: 36 0 0 0 0 0 2 1 0 1
Neighs:    1.9 ave 29 max 0 min
Histogram: 36 0 1 0 1 0 0 0 1 1

Total # of neighbors = 76
Ave neighs/atom = 0.275362
Neighbor list builds = 4203
Dangerous builds = 1
Setting up run at Fri Nov 25 08:17:54 2022

Memory usage per processor = 958.583 Mbytes
    Step    Atoms         KinEng            CPU 
 3456770      276     0.46414663              0 
 3580226      269     0.41424814      1228.7013 
Loop time of 1228.7 on 40 procs for 123456 steps with 269 atoms, finish time Fri Nov 25 08:38:22 2022


Pair  time (%) = 0.244803 (0.0199237)
Neigh time (%) = 0.937193 (0.076275)
Comm  time (%) = 2.31372 (0.188306)
Outpt time (%) = 0.000336233 (2.73649e-05)
Other time (%) = 1225.21 (99.7155)

Nlocal:    6.725 ave 94 max 0 min
Histogram: 36 0 0 1 1 0 0 0 0 2
Nghost:    4.6 ave 60 max 0 min
Histogram: 36 0 0 0 0 0 2 1 0 1
Neighs:    1.85 ave 28 max 0 min
Histogram: 36 0 1 0 1 0 0 0 0 2

Total # of neighbors = 74
Ave neighs/atom = 0.275093
Neighbor list builds = 5386
Dangerous builds = 87
Setting up run at Fri Nov 25 08:38:22 2022

Memory usage per processor = 958.583 Mbytes
    Step    Atoms         KinEng            CPU 
 3580226      269     0.41424814              0 
 3703682      266      0.4613805      1227.6563 
Loop time of 1227.66 on 40 procs for 123456 steps with 266 atoms, finish time Fri Nov 25 08:58:50 2022


Pair  time (%) = 0.245692 (0.0200131)
Neigh time (%) = 1.02531 (0.0835177)
Comm  time (%) = 2.26519 (0.184513)
Outpt time (%) = 0.000330459 (2.69179e-05)
Other time (%) = 1224.12 (99.7119)

Nlocal:    6.65 ave 92 max 0 min
Histogram: 36 0 0 2 0 0 0 0 0 2
Nghost:    4.525 ave 62 max 0 min
Histogram: 36 0 0 0 0 1 1 1 0 1
Neighs:    1.85 ave 27 max 0 min
Histogram: 36 0 0 1 1 0 0 0 0 2

Total # of neighbors = 74
Ave neighs/atom = 0.278195
Neighbor list builds = 5820
Dangerous builds = 17
Setting up run at Fri Nov 25 08:58:50 2022

Memory usage per processor = 958.583 Mbytes
    Step    Atoms         KinEng            CPU 
 3703682      266      0.4613805              0 
 3827138      266     0.48488688      1214.1179 
Loop time of 1214.12 on 40 procs for 123456 steps with 266 atoms, finish time Fri Nov 25 09:19:04 2022


Pair  time (%) = 0.238737 (0.0196634)
Neigh time (%) = 0.54763 (0.0451051)
Comm  time (%) = 1.44266 (0.118824)
Outpt time (%) = 0.000697336 (5.74356e-05)
Other time (%) = 1211.89 (99.8163)

Nlocal:    6.65 ave 92 max 0 min
Histogram: 36 0 0 0 2 0 0 0 0 2
Nghost:    4.525 ave 60 max 0 min
Histogram: 36 0 0 0 0 0 2 1 0 1
Neighs:    1.85 ave 27 max 0 min
Histogram: 36 0 0 1 1 0 0 0 0 2

Total # of neighbors = 74
Ave neighs/atom = 0.278195
Neighbor list builds = 3066
Dangerous builds = 0
Setting up run at Fri Nov 25 09:19:04 2022

Memory usage per processor = 958.583 Mbytes
    Step    Atoms         KinEng            CPU 
 3827138      266     0.48488688              0 
 3950594      265     0.36024356      1223.6691 
Loop time of 1223.67 on 40 procs for 123456 steps with 265 atoms, finish time Fri Nov 25 09:39:28 2022


Pair  time (%) = 0.242358 (0.0198058)
Neigh time (%) = 0.669089 (0.0546789)
Comm  time (%) = 1.5188 (0.124119)
Outpt time (%) = 0.000399944 (3.2684e-05)
Other time (%) = 1221.24 (99.8014)

Nlocal:    6.625 ave 92 max 0 min
Histogram: 36 0 0 1 1 0 0 0 0 2
Nghost:    4.5 ave 57 max 0 min
Histogram: 36 0 0 0 0 0 1 2 0 1
Neighs:    2 ave 27 max 0 min
Histogram: 36 0 0 0 1 1 0 0 0 2

Total # of neighbors = 80
Ave neighs/atom = 0.301887
Neighbor list builds = 3772
Dangerous builds = 0
Setting up run at Fri Nov 25 09:39:28 2022

Memory usage per processor = 958.583 Mbytes
    Step    Atoms         KinEng            CPU 
 3950594      265     0.36024356              0 
 4074050      262     0.42028909      1235.4226 
Loop time of 1235.42 on 40 procs for 123456 steps with 262 atoms, finish time Fri Nov 25 10:00:03 2022


Pair  time (%) = 0.244179 (0.0197648)
Neigh time (%) = 0.94468 (0.0764661)
Comm  time (%) = 2.18011 (0.176467)
Outpt time (%) = 9.55768e-05 (7.73636e-06)
Other time (%) = 1232.05 (99.7273)

Nlocal:    6.55 ave 95 max 0 min
Histogram: 36 0 0 2 0 0 0 0 1 1
Nghost:    4.525 ave 52 max 0 min
Histogram: 36 0 0 0 0 0 1 0 1 2
Neighs:    1.875 ave 28 max 0 min
Histogram: 36 0 1 1 0 0 0 0 0 2

Total # of neighbors = 75
Ave neighs/atom = 0.28626
Neighbor list builds = 5406
Dangerous builds = 7
Setting up run at Fri Nov 25 10:00:04 2022

Memory usage per processor = 958.583 Mbytes
    Step    Atoms         KinEng            CPU 
 4074050      262     0.42028909              0 
 4197506      261     0.38080483      1218.3534 
Loop time of 1218.35 on 40 procs for 123456 steps with 261 atoms, finish time Fri Nov 25 10:20:22 2022


Pair  time (%) = 0.240796 (0.0197641)
Neigh time (%) = 0.715515 (0.058728)
Comm  time (%) = 1.88167 (0.154443)
Outpt time (%) = 0.00285879 (0.000234643)
Other time (%) = 1215.51 (99.7668)

Nlocal:    6.525 ave 94 max 0 min
Histogram: 35 1 0 2 0 0 0 0 1 1
Nghost:    4.65 ave 52 max 0 min
Histogram: 36 0 0 0 0 0 0 1 1 2
Neighs:    1.85 ave 28 max 0 min
Histogram: 36 0 1 1 0 0 0 0 0 2

Total # of neighbors = 74
Ave neighs/atom = 0.283525
Neighbor list builds = 4037
Dangerous builds = 1
Setting up run at Fri Nov 25 10:20:22 2022

Memory usage per processor = 958.583 Mbytes
    Step    Atoms         KinEng            CPU 
 4197506      261     0.38080483              0 
 4320962      260     0.37028516      1213.4414 
Loop time of 1213.44 on 40 procs for 123456 steps with 260 atoms, finish time Fri Nov 25 10:40:35 2022


Pair  time (%) = 0.239697 (0.0197535)
Neigh time (%) = 0.581762 (0.0479432)
Comm  time (%) = 1.53565 (0.126554)
Outpt time (%) = 0.000415406 (3.42337e-05)
Other time (%) = 1211.08 (99.8057)

Nlocal:    6.5 ave 93 max 0 min
Histogram: 36 0 0 2 0 0 0 0 1 1
Nghost:    4.475 ave 52 max 0 min
Histogram: 36 0 0 0 0 0 1 0 1 2
Neighs:    1.975 ave 30 max 0 min
Histogram: 36 0 0 2 0 0 0 0 0 2

Total # of neighbors = 79
Ave neighs/atom = 0.303846
Neighbor list builds = 3290
Dangerous builds = 1
Setting up run at Fri Nov 25 10:40:35 2022

Memory usage per processor = 958.583 Mbytes
    Step    Atoms         KinEng            CPU 
 4320962      260     0.37028516              0 
 4444418      258      0.3217406      1216.3081 
Loop time of 1216.31 on 40 procs for 123456 steps with 258 atoms, finish time Fri Nov 25 11:00:52 2022


Pair  time (%) = 0.237801 (0.0195511)
Neigh time (%) = 0.497924 (0.0409373)
Comm  time (%) = 1.22764 (0.100931)
Outpt time (%) = 0.000312337 (2.56791e-05)
Other time (%) = 1214.35 (99.8386)

Nlocal:    6.45 ave 92 max 0 min
Histogram: 36 0 0 2 0 0 0 0 1 1
Nghost:    4.45 ave 52 max 0 min
Histogram: 36 0 0 0 0 0 1 0 2 1
Neighs:    1.925 ave 32 max 0 min
Histogram: 36 0 2 0 0 0 0 0 0 2

Total # of neighbors = 77
Ave neighs/atom = 0.29845
Neighbor list builds = 2765
Dangerous builds = 1
Setting up run at Fri Nov 25 11:00:52 2022

Memory usage per processor = 958.583 Mbytes
    Step    Atoms         KinEng            CPU 
 4444418      258      0.3217406              0 
 4567874      255     0.43206846      1209.6158 
Loop time of 1209.62 on 40 procs for 123456 steps with 255 atoms, finish time Fri Nov 25 11:21:01 2022


Pair  time (%) = 0.239738 (0.0198193)
Neigh time (%) = 0.602033 (0.0497706)
Comm  time (%) = 1.67206 (0.138231)
Outpt time (%) = 0.000409957 (3.38915e-05)
Other time (%) = 1207.1 (99.7921)

Nlocal:    6.375 ave 92 max 0 min
Histogram: 36 0 0 2 0 0 0 0 1 1
Nghost:    4.325 ave 50 max 0 min
Histogram: 36 0 0 0 0 0 0 1 1 2
Neighs:    1.975 ave 35 max 0 min
Histogram: 36 1 1 0 0 0 0 0 1 1

Total # of neighbors = 79
Ave neighs/atom = 0.309804
Neighbor list builds = 3494
Dangerous builds = 12
Setting up run at Fri Nov 25 11:21:01 2022

Memory usage per processor = 958.583 Mbytes
    Step    Atoms         KinEng            CPU 
 4567874      255     0.43206846              0 
 4691330      254     0.45878912      1226.3056 
Loop time of 1226.31 on 40 procs for 123456 steps with 254 atoms, finish time Fri Nov 25 11:41:28 2022


Pair  time (%) = 0.242261 (0.0197553)
Neigh time (%) = 0.962651 (0.0785001)
Comm  time (%) = 2.78287 (0.226932)
Outpt time (%) = 0.000666177 (5.43239e-05)
Other time (%) = 1222.32 (99.6748)

Nlocal:    6.35 ave 92 max 0 min
Histogram: 36 0 0 2 0 0 0 0 1 1
Nghost:    4.175 ave 46 max 0 min
Histogram: 36 0 0 0 0 0 0 1 1 2
Neighs:    1.825 ave 33 max 0 min
Histogram: 36 1 1 0 0 0 0 1 0 1

Total # of neighbors = 73
Ave neighs/atom = 0.287402
Neighbor list builds = 5401
Dangerous builds = 1
Setting up run at Fri Nov 25 11:41:28 2022

Memory usage per processor = 958.583 Mbytes
    Step    Atoms         KinEng            CPU 
 4691330      254     0.45878912              0 
 4814786      253     0.28060859      1222.7887 
Loop time of 1222.79 on 40 procs for 123456 steps with 253 atoms, finish time Fri Nov 25 12:01:51 2022


Pair  time (%) = 0.238866 (0.0195346)
Neigh time (%) = 0.672396 (0.0549887)
Comm  time (%) = 1.72639 (0.141185)
Outpt time (%) = 0.000313118 (2.56069e-05)
Other time (%) = 1220.15 (99.7843)

Nlocal:    6.325 ave 92 max 0 min
Histogram: 36 0 1 1 0 0 0 0 1 1
Nghost:    4.075 ave 45 max 0 min
Histogram: 36 0 0 0 0 0 0 1 1 2
Neighs:    1.675 ave 31 max 0 min
Histogram: 36 1 1 0 0 0 0 1 0 1

Total # of neighbors = 67
Ave neighs/atom = 0.264822
Neighbor list builds = 3768
Dangerous builds = 0
Setting up run at Fri Nov 25 12:01:51 2022

Memory usage per processor = 958.583 Mbytes
    Step    Atoms         KinEng            CPU 
 4814786      253     0.28060859              0 
 4938242      251     0.37008876      1220.7649 
Loop time of 1220.76 on 40 procs for 123456 steps with 251 atoms, finish time Fri Nov 25 12:22:12 2022


Pair  time (%) = 0.240059 (0.0196646)
Neigh time (%) = 0.754585 (0.0618125)
Comm  time (%) = 1.87018 (0.153197)
Outpt time (%) = 0.000323335 (2.64863e-05)
Other time (%) = 1217.9 (99.7653)

Nlocal:    6.275 ave 90 max 0 min
Histogram: 36 0 0 2 0 0 0 0 1 1
Nghost:    4 ave 43 max 0 min
Histogram: 36 0 0 0 0 0 1 0 0 3
Neighs:    1.825 ave 33 max 0 min
Histogram: 36 0 2 0 0 0 0 1 0 1

Total # of neighbors = 73
Ave neighs/atom = 0.290837
Neighbor list builds = 4218
Dangerous builds = 3
Setting up run at Fri Nov 25 12:22:12 2022

Memory usage per processor = 958.583 Mbytes
    Step    Atoms         KinEng            CPU 
 4938242      251     0.37008876              0 
 5061698      247      0.3670655      1216.9854 
Loop time of 1216.99 on 40 procs for 123456 steps with 247 atoms, finish time Fri Nov 25 12:42:29 2022


Pair  time (%) = 0.241516 (0.0198455)
Neigh time (%) = 0.793646 (0.0652141)
Comm  time (%) = 1.99873 (0.164236)
Outpt time (%) = 0.00059557 (4.89382e-05)
Other time (%) = 1213.95 (99.7507)

Nlocal:    6.175 ave 90 max 0 min
Histogram: 35 1 1 1 0 0 0 0 1 1
Nghost:    3.975 ave 42 max 0 min
Histogram: 36 0 0 0 0 0 0 1 0 3
Neighs:    1.75 ave 30 max 0 min
Histogram: 36 0 2 0 0 0 0 0 1 1

Total # of neighbors = 70
Ave neighs/atom = 0.283401
Neighbor list builds = 4458
Dangerous builds = 56
Setting up run at Fri Nov 25 12:42:29 2022

Memory usage per processor = 958.583 Mbytes
    Step    Atoms         KinEng            CPU 
 5061698      247      0.3670655              0 
 5185154      246     0.35461036      1217.3014 
Loop time of 1217.3 on 40 procs for 123456 steps with 246 atoms, finish time Fri Nov 25 13:02:46 2022


Pair  time (%) = 0.23707 (0.019475)
Neigh time (%) = 0.51283 (0.0421284)
Comm  time (%) = 1.21834 (0.100085)
Outpt time (%) = 0.000323327 (2.65609e-05)
Other time (%) = 1215.33 (99.8383)

Nlocal:    6.15 ave 88 max 0 min
Histogram: 36 0 0 2 0 0 0 0 0 2
Nghost:    3.85 ave 41 max 0 min
Histogram: 36 0 0 0 0 0 0 1 0 3
Neighs:    1.675 ave 29 max 0 min
Histogram: 36 0 2 0 0 0 0 1 0 1

Total # of neighbors = 67
Ave neighs/atom = 0.272358
Neighbor list builds = 2849
Dangerous builds = 2
Setting up run at Fri Nov 25 13:02:46 2022

Memory usage per processor = 958.583 Mbytes
    Step    Atoms         KinEng            CPU 
 5185154      246     0.35461036              0 
 5308610      244        0.44033      1290.4305 
Loop time of 1290.43 on 40 procs for 123456 steps with 244 atoms, finish time Fri Nov 25 13:24:16 2022


Pair  time (%) = 0.238715 (0.0184988)
Neigh time (%) = 0.737914 (0.0571836)
Comm  time (%) = 1.70651 (0.132243)
Outpt time (%) = 0.000336064 (2.60427e-05)
Other time (%) = 1287.75 (99.792)

Nlocal:    6.1 ave 87 max 0 min
Histogram: 36 0 1 1 0 0 0 0 0 2
Nghost:    3.775 ave 41 max 0 min
Histogram: 36 0 0 0 0 0 0 1 0 3
Neighs:    1.675 ave 29 max 0 min
Histogram: 36 0 2 0 0 0 0 0 1 1

Total # of neighbors = 67
Ave neighs/atom = 0.27459
Neighbor list builds = 4175
Dangerous builds = 132
Setting up run at Fri Nov 25 13:24:16 2022

Memory usage per processor = 958.583 Mbytes
    Step    Atoms         KinEng            CPU 
 5308610      244        0.44033              0 
 5432066      243     0.45131147      1232.1743 
Loop time of 1232.17 on 40 procs for 123456 steps with 243 atoms, finish time Fri Nov 25 13:44:49 2022


Pair  time (%) = 0.240716 (0.0195359)
Neigh time (%) = 1.03389 (0.0839078)
Comm  time (%) = 2.28337 (0.185312)
Outpt time (%) = 0.000684376 (5.55422e-05)
Other time (%) = 1228.62 (99.7112)

Nlocal:    6.075 ave 85 max 0 min
Histogram: 36 0 0 2 0 0 0 0 0 2
Nghost:    3.525 ave 40 max 0 min
Histogram: 36 0 0 0 0 0 0 1 0 3
Neighs:    1.7 ave 29 max 0 min
Histogram: 36 1 1 0 0 0 0 0 1 1

Total # of neighbors = 68
Ave neighs/atom = 0.279835
Neighbor list builds = 5992
Dangerous builds = 537
Setting up run at Fri Nov 25 13:44:49 2022

Memory usage per processor = 958.583 Mbytes
    Step    Atoms         KinEng            CPU 
 5432066      243     0.45131147              0 
 5555522      241     0.36207269      1220.5937 
Loop time of 1220.59 on 40 procs for 123456 steps with 241 atoms, finish time Fri Nov 25 14:05:09 2022


Pair  time (%) = 0.234791 (0.0192358)
Neigh time (%) = 0.714203 (0.0585127)
Comm  time (%) = 1.78205 (0.145999)
Outpt time (%) = 0.000365596 (2.99523e-05)
Other time (%) = 1217.86 (99.7762)

Nlocal:    6.025 ave 83 max 0 min
Histogram: 36 0 0 2 0 0 0 0 0 2
Nghost:    3.575 ave 40 max 0 min
Histogram: 36 0 0 0 0 0 1 0 1 2
Neighs:    1.625 ave 31 max 0 min
Histogram: 36 2 0 0 0 0 0 1 0 1

Total # of neighbors = 65
Ave neighs/atom = 0.26971
Neighbor list builds = 3960
Dangerous builds = 2
Setting up run at Fri Nov 25 14:05:09 2022

Memory usage per processor = 958.583 Mbytes
    Step    Atoms         KinEng            CPU 
 5555522      241     0.36207269              0 
 5678978      237     0.43813349      1209.4652 
Loop time of 1209.47 on 40 procs for 123456 steps with 237 atoms, finish time Fri Nov 25 14:25:19 2022


Pair  time (%) = 0.233417 (0.0192992)
Neigh time (%) = 0.584236 (0.0483053)
Comm  time (%) = 1.53186 (0.126656)
Outpt time (%) = 0.000331406 (2.7401e-05)
Other time (%) = 1207.12 (99.8057)

Nlocal:    5.925 ave 85 max 0 min
Histogram: 36 0 1 1 0 0 0 0 1 1
Nghost:    3.55 ave 39 max 0 min
Histogram: 36 0 0 0 0 0 0 1 1 2
Neighs:    1.575 ave 29 max 0 min
Histogram: 36 2 0 0 0 0 0 0 1 1

Total # of neighbors = 63
Ave neighs/atom = 0.265823
Neighbor list builds = 3242
Dangerous builds = 3
Setting up run at Fri Nov 25 14:25:19 2022

Memory usage per processor = 958.583 Mbytes
    Step    Atoms         KinEng            CPU 
 5678978      237     0.43813349              0 
 5802434      236     0.58840521      1218.8659 
Loop time of 1218.87 on 40 procs for 123456 steps with 236 atoms, finish time Fri Nov 25 14:45:38 2022


Pair  time (%) = 0.23664 (0.0194148)
Neigh time (%) = 0.915381 (0.075101)
Comm  time (%) = 2.18433 (0.17921)
Outpt time (%) = 0.000650104 (5.33368e-05)
Other time (%) = 1215.53 (99.7262)

Nlocal:    5.9 ave 86 max 0 min
Histogram: 36 0 1 1 0 0 0 0 1 1
Nghost:    3.325 ave 39 max 0 min
Histogram: 36 0 0 0 0 0 0 2 1 1
Neighs:    1.65 ave 29 max 0 min
Histogram: 36 2 0 0 0 0 0 0 0 2

Total # of neighbors = 66
Ave neighs/atom = 0.279661
Neighbor list builds = 5073
Dangerous builds = 0
Setting up run at Fri Nov 25 14:45:38 2022

Memory usage per processor = 958.583 Mbytes
    Step    Atoms         KinEng            CPU 
 5802434      236     0.58840521              0 
 5925890      234     0.54234981      1234.4446 
Loop time of 1234.44 on 40 procs for 123456 steps with 234 atoms, finish time Fri Nov 25 15:06:12 2022


Pair  time (%) = 0.241367 (0.0195526)
Neigh time (%) = 1.18025 (0.09561)
Comm  time (%) = 2.57169 (0.208327)
Outpt time (%) = 0.00034121 (2.76408e-05)
Other time (%) = 1230.45 (99.6765)

Nlocal:    5.85 ave 84 max 0 min
Histogram: 36 0 1 0 1 0 0 0 1 1
Nghost:    3.475 ave 41 max 0 min
Histogram: 36 0 0 0 0 0 0 2 1 1
Neighs:    1.625 ave 29 max 0 min
Histogram: 37 0 1 0 0 0 0 0 0 2

Total # of neighbors = 65
Ave neighs/atom = 0.277778
Neighbor list builds = 6532
Dangerous builds = 2
Setting up run at Fri Nov 25 15:06:12 2022

Memory usage per processor = 958.583 Mbytes
    Step    Atoms         KinEng            CPU 
 5925890      234     0.54234981              0 
 6049346      232     0.50895537      1221.4898 
Loop time of 1221.49 on 40 procs for 123456 steps with 232 atoms, finish time Fri Nov 25 15:26:34 2022


Pair  time (%) = 0.23358 (0.0191225)
Neigh time (%) = 0.677671 (0.055479)
Comm  time (%) = 1.65864 (0.135788)
Outpt time (%) = 0.000341275 (2.79392e-05)
Other time (%) = 1218.92 (99.7896)

Nlocal:    5.8 ave 83 max 0 min
Histogram: 35 1 1 1 0 0 0 0 1 1
Nghost:    3.425 ave 42 max 0 min
Histogram: 36 0 0 0 0 0 2 0 1 1
Neighs:    1.575 ave 29 max 0 min
Histogram: 36 1 1 0 0 0 0 0 1 1

Total # of neighbors = 63
Ave neighs/atom = 0.271552
Neighbor list builds = 3793
Dangerous builds = 2
Setting up run at Fri Nov 25 15:26:34 2022

Memory usage per processor = 958.583 Mbytes
    Step    Atoms         KinEng            CPU 
 6049346      232     0.50895537              0 
 6172802      229     0.40059479      1220.9051 
Loop time of 1220.91 on 40 procs for 123456 steps with 229 atoms, finish time Fri Nov 25 15:46:55 2022


Pair  time (%) = 0.234925 (0.0192419)
Neigh time (%) = 0.721895 (0.0591278)
Comm  time (%) = 2.10376 (0.172312)
Outpt time (%) = 0.00064442 (5.27822e-05)
Other time (%) = 1217.84 (99.7493)

Nlocal:    5.725 ave 83 max 0 min
Histogram: 35 2 0 0 1 0 0 0 1 1
Nghost:    3.65 ave 44 max 0 min
Histogram: 36 0 0 0 0 0 1 2 0 1
Neighs:    1.675 ave 30 max 0 min
Histogram: 37 0 1 0 0 0 0 0 0 2

Total # of neighbors = 67
Ave neighs/atom = 0.292576
Neighbor list builds = 4159
Dangerous builds = 270
Setting up run at Fri Nov 25 15:46:55 2022

Memory usage per processor = 958.583 Mbytes
    Step    Atoms         KinEng            CPU 
 6172802      229     0.40059479              0 
 6296258      228      2.1641458      1220.3247 
Loop time of 1220.32 on 40 procs for 123456 steps with 228 atoms, finish time Fri Nov 25 16:07:15 2022


Pair  time (%) = 0.234567 (0.0192217)
Neigh time (%) = 0.687924 (0.0563722)
Comm  time (%) = 1.86571 (0.152886)
Outpt time (%) = 0.000374612 (3.06977e-05)
Other time (%) = 1217.54 (99.7715)

Nlocal:    5.7 ave 81 max 0 min
Histogram: 36 0 1 1 0 0 0 0 0 2
Nghost:    3.475 ave 40 max 0 min
Histogram: 36 0 0 0 0 0 0 1 1 2
Neighs:    1.65 ave 29 max 0 min
Histogram: 37 0 1 0 0 0 0 0 0 2

Total # of neighbors = 66
Ave neighs/atom = 0.289474
Neighbor list builds = 3874
Dangerous builds = 0
Setting up run at Fri Nov 25 16:07:15 2022

Memory usage per processor = 958.583 Mbytes
    Step    Atoms         KinEng            CPU 
 6296258      228      2.1641458              0 
 6419714      223     0.40379107      1220.3099 
Loop time of 1220.31 on 40 procs for 123456 steps with 223 atoms, finish time Fri Nov 25 16:27:36 2022


Pair  time (%) = 0.234058 (0.0191802)
Neigh time (%) = 0.609614 (0.0499557)
Comm  time (%) = 1.5637 (0.128139)
Outpt time (%) = 0.000369213 (3.02557e-05)
Other time (%) = 1217.9 (99.8027)

Nlocal:    5.575 ave 79 max 0 min
Histogram: 36 0 1 0 1 0 0 0 0 2
Nghost:    3.675 ave 39 max 0 min
Histogram: 36 0 0 0 0 0 0 0 2 2
Neighs:    1.75 ave 31 max 0 min
Histogram: 37 0 1 0 0 0 0 0 0 2

Total # of neighbors = 70
Ave neighs/atom = 0.313901
Neighbor list builds = 3616
Dangerous builds = 450
Setting up run at Fri Nov 25 16:27:36 2022

Memory usage per processor = 958.583 Mbytes
    Step    Atoms         KinEng            CPU 
 6419714      223     0.40379107              0 
 6543170      222     0.39398955      1218.6489 
Loop time of 1218.65 on 40 procs for 123456 steps with 222 atoms, finish time Fri Nov 25 16:47:54 2022


Pair  time (%) = 0.233593 (0.0191682)
Neigh time (%) = 0.49344 (0.0404908)
Comm  time (%) = 1.59551 (0.130924)
Outpt time (%) = 0.000654506 (5.37075e-05)
Other time (%) = 1216.33 (99.8094)

Nlocal:    5.55 ave 78 max 0 min
Histogram: 35 1 1 0 1 0 0 0 0 2
Nghost:    3.55 ave 40 max 0 min
Histogram: 36 0 0 0 0 0 0 1 1 2
Neighs:    1.625 ave 27 max 0 min
Histogram: 37 0 0 1 0 0 0 0 0 2

Total # of neighbors = 65
Ave neighs/atom = 0.292793
Neighbor list builds = 2790
Dangerous builds = 0
Setting up run at Fri Nov 25 16:47:54 2022

Memory usage per processor = 958.583 Mbytes
    Step    Atoms         KinEng            CPU 
 6543170      222     0.39398955              0 
 6666626      221     0.39658012      1210.5657 
Loop time of 1210.57 on 40 procs for 123456 steps with 221 atoms, finish time Fri Nov 25 17:08:05 2022


Pair  time (%) = 0.235255 (0.0194335)
Neigh time (%) = 0.629528 (0.0520028)
Comm  time (%) = 2.21932 (0.183329)
Outpt time (%) = 0.000364459 (3.01065e-05)
Other time (%) = 1207.48 (99.7452)

Nlocal:    5.525 ave 77 max 0 min
Histogram: 36 0 1 0 1 0 0 0 0 2
Nghost:    3.575 ave 40 max 0 min
Histogram: 36 0 0 0 0 0 0 2 0 2
Neighs:    1.675 ave 29 max 0 min
Histogram: 37 0 0 1 0 0 0 0 1 1

Total # of neighbors = 67
Ave neighs/atom = 0.303167
Neighbor list builds = 3530
Dangerous builds = 1
Setting up run at Fri Nov 25 17:08:05 2022

Memory usage per processor = 958.583 Mbytes
    Step    Atoms         KinEng            CPU 
 6666626      221     0.39658012              0 
 6790082      220     0.55158833      1410.7418 
Loop time of 1410.74 on 40 procs for 123456 steps with 220 atoms, finish time Fri Nov 25 17:31:36 2022


Pair  time (%) = 0.234314 (0.0166093)
Neigh time (%) = 0.788351 (0.055882)
Comm  time (%) = 2.79986 (0.198467)
Outpt time (%) = 0.000319241 (2.26293e-05)
Other time (%) = 1406.92 (99.729)

Nlocal:    5.5 ave 75 max 0 min
Histogram: 36 0 1 0 1 0 0 0 0 2
Nghost:    3.4 ave 41 max 0 min
Histogram: 36 0 0 0 0 0 1 1 1 1
Neighs:    1.65 ave 30 max 0 min
Histogram: 37 0 0 0 1 0 0 1 0 1

Total # of neighbors = 66
Ave neighs/atom = 0.3
Neighbor list builds = 4368
Dangerous builds = 21
Setting up run at Fri Nov 25 17:31:36 2022

Memory usage per processor = 958.583 Mbytes
    Step    Atoms         KinEng            CPU 
 6790082      220     0.55158833              0 
 6913538      220      0.5737889      1242.1591 
Loop time of 1242.16 on 40 procs for 123456 steps with 220 atoms, finish time Fri Nov 25 17:52:18 2022


Pair  time (%) = 0.238346 (0.019188)
Neigh time (%) = 0.882537 (0.0710487)
Comm  time (%) = 2.17208 (0.174863)
Outpt time (%) = 0.000703798 (5.66592e-05)
Other time (%) = 1238.87 (99.7348)

Nlocal:    5.5 ave 75 max 0 min
Histogram: 35 1 1 0 1 0 0 0 0 2
Nghost:    3.375 ave 42 max 0 min
Histogram: 36 0 0 0 0 0 2 0 1 1
Neighs:    1.55 ave 28 max 0 min
Histogram: 37 0 0 1 0 0 0 0 1 1

Total # of neighbors = 62
Ave neighs/atom = 0.281818
Neighbor list builds = 4867
Dangerous builds = 0
Setting up run at Fri Nov 25 17:52:18 2022

Memory usage per processor = 958.583 Mbytes
    Step    Atoms         KinEng            CPU 
 6913538      220      0.5737889              0 
 7036994      218     0.50994295      1229.0143 
Loop time of 1229.01 on 40 procs for 123456 steps with 218 atoms, finish time Fri Nov 25 18:12:47 2022


Pair  time (%) = 0.236361 (0.0192317)
Neigh time (%) = 0.871129 (0.0708803)
Comm  time (%) = 2.02047 (0.164398)
Outpt time (%) = 0.000378502 (3.07972e-05)
Other time (%) = 1225.89 (99.7455)

Nlocal:    5.45 ave 74 max 0 min
Histogram: 36 0 1 0 1 0 0 0 0 2
Nghost:    3.325 ave 42 max 0 min
Histogram: 36 0 0 0 0 1 1 0 1 1
Neighs:    1.525 ave 28 max 0 min
Histogram: 37 0 0 1 0 0 0 1 0 1

Total # of neighbors = 61
Ave neighs/atom = 0.279817
Neighbor list builds = 4799
Dangerous builds = 1
Setting up run at Fri Nov 25 18:12:47 2022

Memory usage per processor = 958.583 Mbytes
    Step    Atoms         KinEng            CPU 
 7036994      218     0.50994295              0 
 7160450      217     0.42039411      1219.9496 
Loop time of 1219.95 on 40 procs for 123456 steps with 217 atoms, finish time Fri Nov 25 18:33:07 2022


Pair  time (%) = 0.235423 (0.0192977)
Neigh time (%) = 0.856009 (0.0701675)
Comm  time (%) = 2.11141 (0.173073)
Outpt time (%) = 5.03391e-05 (4.12633e-06)
Other time (%) = 1216.75 (99.7375)

Nlocal:    5.425 ave 74 max 0 min
Histogram: 35 1 1 0 1 0 0 0 0 2
Nghost:    3.325 ave 41 max 0 min
Histogram: 36 0 0 0 0 0 2 0 1 1
Neighs:    1.45 ave 25 max 0 min
Histogram: 37 0 0 0 1 0 0 0 1 1

Total # of neighbors = 58
Ave neighs/atom = 0.267281
Neighbor list builds = 4715
Dangerous builds = 0
Setting up run at Fri Nov 25 18:33:07 2022

Memory usage per processor = 958.583 Mbytes
    Step    Atoms         KinEng            CPU 
 7160450      217     0.42039411              0 
 7283906      216     0.44772299       1219.943 
Loop time of 1219.94 on 40 procs for 123456 steps with 216 atoms, finish time Fri Nov 25 18:53:27 2022


Pair  time (%) = 0.233162 (0.0191125)
Neigh time (%) = 0.706639 (0.057924)
Comm  time (%) = 1.73023 (0.141828)
Outpt time (%) = 0.000632254 (5.18265e-05)
Other time (%) = 1217.27 (99.7811)

Nlocal:    5.4 ave 74 max 0 min
Histogram: 36 0 1 0 1 0 0 0 0 2
Nghost:    3.225 ave 43 max 0 min
Histogram: 36 0 0 0 0 1 1 1 0 1
Neighs:    1.45 ave 24 max 0 min
Histogram: 37 0 0 0 1 0 0 0 0 2

Total # of neighbors = 58
Ave neighs/atom = 0.268519
Neighbor list builds = 3869
Dangerous builds = 1
Setting up run at Fri Nov 25 18:53:27 2022

Memory usage per processor = 958.583 Mbytes
    Step    Atoms         KinEng            CPU 
 7283906      216     0.44772299              0 
 7407362      214     0.62328277      1231.9798 
Loop time of 1231.98 on 40 procs for 123456 steps with 214 atoms, finish time Fri Nov 25 19:13:59 2022


Pair  time (%) = 0.238877 (0.0193897)
Neigh time (%) = 1.09634 (0.0889898)
Comm  time (%) = 2.3167 (0.188047)
Outpt time (%) = 0.000339552 (2.75615e-05)
Other time (%) = 1228.33 (99.7035)

Nlocal:    5.35 ave 72 max 0 min
Histogram: 36 0 1 0 0 1 0 0 0 2
Nghost:    3.125 ave 40 max 0 min
Histogram: 36 0 0 0 0 0 2 0 1 1
Neighs:    1.4 ave 25 max 0 min
Histogram: 37 0 1 0 0 0 0 0 0 2

Total # of neighbors = 56
Ave neighs/atom = 0.261682
Neighbor list builds = 6105
Dangerous builds = 0
Setting up run at Fri Nov 25 19:13:59 2022

Memory usage per processor = 958.583 Mbytes
    Step    Atoms         KinEng            CPU 
 7407362      214     0.62328277              0 
 7530818      211     0.32847136      1317.2657 
Loop time of 1317.27 on 40 procs for 123456 steps with 211 atoms, finish time Fri Nov 25 19:35:57 2022


Pair  time (%) = 0.23501 (0.0178407)
Neigh time (%) = 0.826278 (0.0627267)
Comm  time (%) = 1.9524 (0.148216)
Outpt time (%) = 0.000654204 (4.96638e-05)
Other time (%) = 1314.25 (99.7712)

Nlocal:    5.275 ave 72 max 0 min
Histogram: 36 0 1 0 1 0 0 0 0 2
Nghost:    3.075 ave 37 max 0 min
Histogram: 36 0 0 0 0 0 1 1 0 2
Neighs:    1.35 ave 25 max 0 min
Histogram: 37 0 1 0 0 0 0 0 1 1

Total # of neighbors = 54
Ave neighs/atom = 0.255924
Neighbor list builds = 4673
Dangerous builds = 178
Setting up run at Fri Nov 25 19:35:57 2022

Memory usage per processor = 958.583 Mbytes
    Step    Atoms         KinEng            CPU 
 7530818      211     0.32847136              0 
 7654274      208     0.27036837      1280.2605 
Loop time of 1280.26 on 40 procs for 123456 steps with 208 atoms, finish time Fri Nov 25 19:57:17 2022


Pair  time (%) = 0.235313 (0.0183801)
Neigh time (%) = 1.05219 (0.0821856)
Comm  time (%) = 2.94239 (0.229827)
Outpt time (%) = 0.000669654 (5.23061e-05)
Other time (%) = 1276.03 (99.6696)

Nlocal:    5.2 ave 73 max 0 min
Histogram: 36 0 1 1 0 0 0 0 0 2
Nghost:    3.1 ave 37 max 0 min
Histogram: 36 0 0 0 0 0 2 0 1 1
Neighs:    1.4 ave 25 max 0 min
Histogram: 37 0 0 1 0 0 0 0 1 1

Total # of neighbors = 56
Ave neighs/atom = 0.269231
Neighbor list builds = 6065
Dangerous builds = 0
Setting up run at Fri Nov 25 19:57:17 2022

Memory usage per processor = 958.583 Mbytes
    Step    Atoms         KinEng            CPU 
 7654274      208     0.27036837              0 
 7777730      203      0.2349769      1263.5943 
Loop time of 1263.59 on 40 procs for 123456 steps with 203 atoms, finish time Fri Nov 25 20:18:21 2022


Pair  time (%) = 0.233349 (0.0184671)
Neigh time (%) = 0.914082 (0.0723398)
Comm  time (%) = 3.73018 (0.295204)
Outpt time (%) = 0.000374549 (2.96415e-05)
Other time (%) = 1258.72 (99.614)

Nlocal:    5.075 ave 69 max 0 min
Histogram: 36 0 1 0 1 0 0 0 0 2
Nghost:    3.05 ave 33 max 0 min
Histogram: 36 0 0 0 0 0 0 2 0 2
Neighs:    1.425 ave 24 max 0 min
Histogram: 36 1 0 1 0 0 0 0 1 1

Total # of neighbors = 57
Ave neighs/atom = 0.280788
Neighbor list builds = 5332
Dangerous builds = 268
Setting up run at Fri Nov 25 20:18:21 2022

Memory usage per processor = 958.583 Mbytes
    Step    Atoms         KinEng            CPU 
 7777730      203      0.2349769              0 
 7901186      202     0.24612807      1216.4123 
Loop time of 1216.41 on 40 procs for 123456 steps with 202 atoms, finish time Fri Nov 25 20:38:37 2022


Pair  time (%) = 0.228524 (0.0187867)
Neigh time (%) = 0.581313 (0.0477891)
Comm  time (%) = 2.36317 (0.194274)
Outpt time (%) = 0.000360256 (2.96163e-05)
Other time (%) = 1213.24 (99.7391)

Nlocal:    5.05 ave 69 max 0 min
Histogram: 36 0 1 0 1 0 0 0 0 2
Nghost:    3.075 ave 35 max 0 min
Histogram: 36 0 0 0 0 0 0 2 1 1
Neighs:    1.275 ave 23 max 0 min
Histogram: 36 1 0 1 0 0 1 0 0 1

Total # of neighbors = 51
Ave neighs/atom = 0.252475
Neighbor list builds = 3223
Dangerous builds = 1
Setting up run at Fri Nov 25 20:38:38 2022

Memory usage per processor = 958.583 Mbytes
    Step    Atoms         KinEng            CPU 
 7901186      202     0.24612807              0 
 8024642      198     0.18380887      1225.8904 
Loop time of 1225.89 on 40 procs for 123456 steps with 198 atoms, finish time Fri Nov 25 20:59:04 2022


Pair  time (%) = 0.233681 (0.0190621)
Neigh time (%) = 0.862922 (0.0703915)
Comm  time (%) = 2.03812 (0.166256)
Outpt time (%) = 0.000585029 (4.77228e-05)
Other time (%) = 1222.76 (99.7442)

Nlocal:    4.95 ave 67 max 0 min
Histogram: 35 1 1 1 0 0 0 0 0 2
Nghost:    3 ave 36 max 0 min
Histogram: 36 0 0 0 0 0 1 1 1 1
Neighs:    1.25 ave 22 max 0 min
Histogram: 36 1 0 0 1 0 1 0 0 1

Total # of neighbors = 50
Ave neighs/atom = 0.252525
Neighbor list builds = 4941
Dangerous builds = 2
Setting up run at Fri Nov 25 20:59:04 2022

Memory usage per processor = 958.583 Mbytes
    Step    Atoms         KinEng            CPU 
 8024642      198     0.18380887              0 
 8148098      197     0.15150641      1203.7381 
Loop time of 1203.74 on 40 procs for 123456 steps with 197 atoms, finish time Fri Nov 25 21:19:07 2022


Pair  time (%) = 0.22584 (0.0187616)
Neigh time (%) = 0.407636 (0.0338641)
Comm  time (%) = 1.04073 (0.0864578)
Outpt time (%) = 0.000300386 (2.49544e-05)
Other time (%) = 1202.06 (99.8609)

Nlocal:    4.925 ave 66 max 0 min
Histogram: 36 0 0 1 1 0 0 0 0 2
Nghost:    2.975 ave 35 max 0 min
Histogram: 36 0 0 0 0 0 1 1 0 2
Neighs:    1.2 ave 22 max 0 min
Histogram: 36 1 0 1 0 0 1 0 0 1

Total # of neighbors = 48
Ave neighs/atom = 0.243655
Neighbor list builds = 2244
Dangerous builds = 0
Setting up run at Fri Nov 25 21:19:08 2022

Memory usage per processor = 958.583 Mbytes
    Step    Atoms         KinEng            CPU 
 8148098      197     0.15150641              0 
 8271554      197     0.36138477      1202.1631 
Loop time of 1202.17 on 40 procs for 123456 steps with 197 atoms, finish time Fri Nov 25 21:39:10 2022


Pair  time (%) = 0.226941 (0.0188776)
Neigh time (%) = 0.619922 (0.0515667)
Comm  time (%) = 1.42611 (0.118628)
Outpt time (%) = 0.00029628 (2.46454e-05)
Other time (%) = 1199.9 (99.8109)

Nlocal:    4.925 ave 66 max 0 min
Histogram: 36 0 0 1 1 0 0 0 0 2
Nghost:    2.925 ave 33 max 0 min
Histogram: 36 0 0 0 0 0 1 0 1 2
Neighs:    1.175 ave 20 max 0 min
Histogram: 36 1 0 0 0 1 1 0 0 1

Total # of neighbors = 47
Ave neighs/atom = 0.238579
Neighbor list builds = 3400
Dangerous builds = 0
Setting up run at Fri Nov 25 21:39:10 2022

Memory usage per processor = 958.583 Mbytes
    Step    Atoms         KinEng            CPU 
 8271554      197     0.36138477              0 
 8395010      196      0.2308241      1209.6915 
Loop time of 1209.69 on 40 procs for 123456 steps with 196 atoms, finish time Fri Nov 25 21:59:20 2022


Pair  time (%) = 0.226118 (0.0186922)
Neigh time (%) = 0.666261 (0.055077)
Comm  time (%) = 1.55538 (0.128577)
Outpt time (%) = 0.00056188 (4.64482e-05)
Other time (%) = 1207.24 (99.7976)

Nlocal:    4.9 ave 65 max 0 min
Histogram: 36 0 0 1 1 0 0 0 0 2
Nghost:    2.975 ave 35 max 0 min
Histogram: 36 0 0 0 0 1 0 1 0 2
Neighs:    1.15 ave 20 max 0 min
Histogram: 36 1 0 0 0 1 1 0 0 1

Total # of neighbors = 46
Ave neighs/atom = 0.234694
Neighbor list builds = 3665
Dangerous builds = 1
Setting up run at Fri Nov 25 21:59:20 2022

Memory usage per processor = 958.583 Mbytes
    Step    Atoms         KinEng            CPU 
 8395010      196      0.2308241              0 
 8518466      196     0.46120048      1207.8208 
Loop time of 1207.82 on 40 procs for 123456 steps with 196 atoms, finish time Fri Nov 25 22:19:27 2022


Pair  time (%) = 0.228317 (0.0189032)
Neigh time (%) = 0.67512 (0.0558957)
Comm  time (%) = 1.51233 (0.125211)
Outpt time (%) = 0.000315416 (2.61145e-05)
Other time (%) = 1205.4 (99.8)

Nlocal:    4.9 ave 65 max 0 min
Histogram: 35 1 1 0 1 0 0 0 0 2
Nghost:    2.9 ave 35 max 0 min
Histogram: 36 0 0 0 0 1 0 1 0 2
Neighs:    1.05 ave 19 max 0 min
Histogram: 37 0 0 0 0 2 0 0 0 1

Total # of neighbors = 42
Ave neighs/atom = 0.214286
Neighbor list builds = 3688
Dangerous builds = 0
Setting up run at Fri Nov 25 22:19:28 2022

Memory usage per processor = 958.583 Mbytes
    Step    Atoms         KinEng            CPU 
 8518466      196     0.46120048              0 
 8641922      194     0.27092037      1210.9156 
Loop time of 1210.92 on 40 procs for 123456 steps with 194 atoms, finish time Fri Nov 25 22:39:38 2022


Pair  time (%) = 0.227012 (0.0187472)
Neigh time (%) = 0.699171 (0.057739)
Comm  time (%) = 1.64413 (0.135776)
Outpt time (%) = 0.000357168 (2.94957e-05)
Other time (%) = 1208.34 (99.7877)

Nlocal:    4.85 ave 66 max 0 min
Histogram: 35 1 0 2 0 0 0 0 0 2
Nghost:    3.125 ave 37 max 0 min
Histogram: 36 0 0 0 0 0 1 1 1 1
Neighs:    1 ave 18 max 0 min
Histogram: 36 1 0 0 0 1 1 0 0 1

Total # of neighbors = 40
Ave neighs/atom = 0.206186
Neighbor list builds = 3986
Dangerous builds = 0
Setting up run at Fri Nov 25 22:39:38 2022

Memory usage per processor = 958.583 Mbytes
    Step    Atoms         KinEng            CPU 
 8641922      194     0.27092037              0 
 8765378      193      0.6717157      1226.5024 
Loop time of 1226.5 on 40 procs for 123456 steps with 193 atoms, finish time Fri Nov 25 23:00:05 2022


Pair  time (%) = 0.232326 (0.0189422)
Neigh time (%) = 1.24125 (0.101202)
Comm  time (%) = 2.55434 (0.208262)
Outpt time (%) = 0.000548702 (4.47371e-05)
Other time (%) = 1222.47 (99.6715)

Nlocal:    4.825 ave 66 max 0 min
Histogram: 35 1 1 1 0 0 0 0 0 2
Nghost:    3.025 ave 37 max 0 min
Histogram: 36 0 0 0 0 0 1 2 0 1
Neighs:    0.925 ave 15 max 0 min
Histogram: 37 0 0 0 0 0 1 1 0 1

Total # of neighbors = 37
Ave neighs/atom = 0.19171
Neighbor list builds = 6828
Dangerous builds = 1
Setting up run at Fri Nov 25 23:00:05 2022

Memory usage per processor = 958.583 Mbytes
    Step    Atoms         KinEng            CPU 
 8765378      193      0.6717157              0 
 8888834      191     0.65623699      1232.2986 
Loop time of 1232.3 on 40 procs for 123456 steps with 191 atoms, finish time Fri Nov 25 23:20:37 2022


Pair  time (%) = 0.237153 (0.0192448)
Neigh time (%) = 1.42847 (0.115919)
Comm  time (%) = 3.87963 (0.314829)
Outpt time (%) = 0.000369981 (3.00236e-05)
Other time (%) = 1226.75 (99.55)

Nlocal:    4.775 ave 66 max 0 min
Histogram: 36 0 0 1 1 0 0 0 1 1
Nghost:    3.1 ave 41 max 0 min
Histogram: 36 0 0 0 0 1 1 1 0 1
Neighs:    0.925 ave 15 max 0 min
Histogram: 37 0 0 0 0 0 1 1 0 1

Total # of neighbors = 37
Ave neighs/atom = 0.193717
Neighbor list builds = 7976
Dangerous builds = 277
Setting up run at Fri Nov 25 23:20:37 2022

Memory usage per processor = 958.583 Mbytes
    Step    Atoms         KinEng            CPU 
 8888834      191     0.65623699              0 
 9012290      189     0.73212208      1234.3054 
Loop time of 1234.31 on 40 procs for 123456 steps with 189 atoms, finish time Fri Nov 25 23:41:12 2022


Pair  time (%) = 0.237372 (0.0192312)
Neigh time (%) = 1.4596 (0.118253)
Comm  time (%) = 3.15938 (0.255964)
Outpt time (%) = 0.000263545 (2.13517e-05)
Other time (%) = 1229.45 (99.6065)

Nlocal:    4.725 ave 64 max 0 min
Histogram: 36 0 1 0 1 0 0 0 0 2
Nghost:    3.15 ave 40 max 0 min
Histogram: 36 0 0 0 0 0 2 1 0 1
Neighs:    0.825 ave 12 max 0 min
Histogram: 37 0 0 0 0 0 0 1 0 2

Total # of neighbors = 33
Ave neighs/atom = 0.174603
Neighbor list builds = 8264
Dangerous builds = 455
Setting up run at Fri Nov 25 23:41:12 2022

Memory usage per processor = 958.583 Mbytes
    Step    Atoms         KinEng            CPU 
 9012290      189     0.73212208              0 
 9135746      187     0.70302958      1227.4747 
Loop time of 1227.48 on 40 procs for 123456 steps with 187 atoms, finish time Sat Nov 26 00:01:39 2022


Pair  time (%) = 0.238744 (0.01945)
Neigh time (%) = 1.4237 (0.115986)
Comm  time (%) = 2.74444 (0.223584)
Outpt time (%) = 0.000313499 (2.55402e-05)
Other time (%) = 1223.07 (99.641)

Nlocal:    4.675 ave 63 max 0 min
Histogram: 35 1 0 1 1 0 0 0 0 2
Nghost:    3.175 ave 38 max 0 min
Histogram: 36 0 0 0 0 0 1 2 0 1
Neighs:    0.825 ave 12 max 0 min
Histogram: 37 0 0 0 0 0 0 1 0 2

Total # of neighbors = 33
Ave neighs/atom = 0.176471
Neighbor list builds = 7866
Dangerous builds = 40
Setting up run at Sat Nov 26 00:01:39 2022

Memory usage per processor = 958.583 Mbytes
    Step    Atoms         KinEng            CPU 
 9135746      187     0.70302958              0 
 9259202      185     0.65610604      1240.1317 
Loop time of 1240.13 on 40 procs for 123456 steps with 185 atoms, finish time Sat Nov 26 00:22:20 2022


Pair  time (%) = 0.237726 (0.0191695)
Neigh time (%) = 1.56291 (0.126028)
Comm  time (%) = 3.10882 (0.250685)
Outpt time (%) = 0.000608261 (4.90481e-05)
Other time (%) = 1235.22 (99.6041)

Nlocal:    4.625 ave 61 max 0 min
Histogram: 36 0 0 1 1 0 0 0 0 2
Nghost:    3.1 ave 37 max 0 min
Histogram: 36 0 0 0 0 0 0 2 1 1
Neighs:    0.8 ave 11 max 0 min
Histogram: 36 1 0 0 0 0 0 0 1 2

Total # of neighbors = 32
Ave neighs/atom = 0.172973
Neighbor list builds = 8611
Dangerous builds = 1
Setting up run at Sat Nov 26 00:22:20 2022

Memory usage per processor = 958.583 Mbytes
    Step    Atoms         KinEng            CPU 
 9259202      185     0.65610604              0 
 9382658      183     0.73570494      1239.9308 
Loop time of 1239.93 on 40 procs for 123456 steps with 183 atoms, finish time Sat Nov 26 00:43:00 2022


Pair  time (%) = 0.239665 (0.0193289)
Neigh time (%) = 1.60476 (0.129423)
Comm  time (%) = 3.13215 (0.252606)
Outpt time (%) = 0.00235832 (0.000190198)
Other time (%) = 1234.95 (99.5985)

Nlocal:    4.575 ave 60 max 0 min
Histogram: 36 0 0 1 1 0 0 0 0 2
Nghost:    3.025 ave 35 max 0 min
Histogram: 36 0 0 0 0 0 1 0 2 1
Neighs:    0.75 ave 11 max 0 min
Histogram: 36 1 0 0 0 0 0 1 1 1

Total # of neighbors = 30
Ave neighs/atom = 0.163934
Neighbor list builds = 8840
Dangerous builds = 0
Setting up run at Sat Nov 26 00:43:00 2022

Memory usage per processor = 958.583 Mbytes
    Step    Atoms         KinEng            CPU 
 9382658      183     0.73570494              0 
 9506114      181     0.49557918      1226.8321 
Loop time of 1226.83 on 40 procs for 123456 steps with 181 atoms, finish time Sat Nov 26 01:03:27 2022


Pair  time (%) = 0.232952 (0.0189881)
Neigh time (%) = 1.33045 (0.108446)
Comm  time (%) = 2.84593 (0.231974)
Outpt time (%) = 0.000303416 (2.47316e-05)
Other time (%) = 1222.42 (99.6406)

Nlocal:    4.525 ave 60 max 0 min
Histogram: 34 2 1 0 1 0 0 0 0 2
Nghost:    3.025 ave 35 max 0 min
Histogram: 36 0 0 0 0 0 1 0 2 1
Neighs:    0.75 ave 11 max 0 min
Histogram: 36 1 0 0 0 0 0 1 1 1

Total # of neighbors = 30
Ave neighs/atom = 0.165746
Neighbor list builds = 7375
Dangerous builds = 154
Setting up run at Sat Nov 26 01:03:27 2022

Memory usage per processor = 958.583 Mbytes
    Step    Atoms         KinEng            CPU 
 9506114      181     0.49557918              0 
 9629570      180     0.61577787      1221.0037 
Loop time of 1221 on 40 procs for 123456 steps with 180 atoms, finish time Sat Nov 26 01:23:48 2022


Pair  time (%) = 0.229365 (0.0187849)
Neigh time (%) = 1.00392 (0.0822206)
Comm  time (%) = 1.98411 (0.162499)
Outpt time (%) = 0.000624684 (5.11615e-05)
Other time (%) = 1217.79 (99.7364)

Nlocal:    4.5 ave 60 max 0 min
Histogram: 36 0 0 1 1 0 0 0 0 2
Nghost:    2.75 ave 32 max 0 min
Histogram: 36 0 0 0 0 0 1 0 1 2
Neighs:    0.75 ave 11 max 0 min
Histogram: 36 0 0 1 0 0 1 1 0 1

Total # of neighbors = 30
Ave neighs/atom = 0.166667
Neighbor list builds = 5503
Dangerous builds = 0
Setting up run at Sat Nov 26 01:23:48 2022

Memory usage per processor = 958.583 Mbytes
    Step    Atoms         KinEng            CPU 
 9629570      180     0.61577787              0 
 9753026      180     0.47830229      1217.5838 
Loop time of 1217.58 on 40 procs for 123456 steps with 180 atoms, finish time Sat Nov 26 01:44:05 2022


Pair  time (%) = 0.228284 (0.0187489)
Neigh time (%) = 0.865453 (0.0710796)
Comm  time (%) = 1.78979 (0.146995)
Outpt time (%) = 0.000370732 (3.04482e-05)
Other time (%) = 1214.7 (99.7631)

Nlocal:    4.5 ave 59 max 0 min
Histogram: 35 1 0 2 0 0 0 0 0 2
Nghost:    2.725 ave 33 max 0 min
Histogram: 36 0 0 0 0 1 0 0 1 2
Neighs:    0.775 ave 13 max 0 min
Histogram: 36 0 1 0 0 1 1 0 0 1

Total # of neighbors = 31
Ave neighs/atom = 0.172222
Neighbor list builds = 4748
Dangerous builds = 0
Setting up run at Sat Nov 26 01:44:05 2022

Memory usage per processor = 958.583 Mbytes
    Step    Atoms         KinEng            CPU 
 9753026      180     0.47830229              0 
 9876482      177     0.40288175      1222.7792 
Loop time of 1222.78 on 40 procs for 123456 steps with 177 atoms, finish time Sat Nov 26 02:04:28 2022


Pair  time (%) = 0.229756 (0.0187896)
Neigh time (%) = 1.03722 (0.0848246)
Comm  time (%) = 2.08934 (0.170868)
Outpt time (%) = 0.000281582 (2.3028e-05)
Other time (%) = 1219.42 (99.7255)

Nlocal:    4.425 ave 59 max 0 min
Histogram: 35 1 0 2 0 0 0 0 0 2
Nghost:    2.65 ave 30 max 0 min
Histogram: 36 0 0 0 0 0 1 0 0 3
Neighs:    0.75 ave 13 max 0 min
Histogram: 36 0 1 0 0 2 0 0 0 1

Total # of neighbors = 30
Ave neighs/atom = 0.169492
Neighbor list builds = 5767
Dangerous builds = 2
Setting up run at Sat Nov 26 02:04:28 2022

Memory usage per processor = 958.583 Mbytes
    Step    Atoms         KinEng            CPU 
 9876482      177     0.40288175              0 
 9999938      175     0.36346079      1217.6992 
Loop time of 1217.7 on 40 procs for 123456 steps with 175 atoms, finish time Sat Nov 26 02:24:46 2022


Pair  time (%) = 0.22673 (0.0186196)
Neigh time (%) = 0.901649 (0.0740453)
Comm  time (%) = 1.76564 (0.144998)
Outpt time (%) = 0.000688924 (5.65759e-05)
Other time (%) = 1214.8 (99.7623)

Nlocal:    4.375 ave 60 max 0 min
Histogram: 35 1 0 1 1 0 0 0 0 2
Nghost:    2.75 ave 32 max 0 min
Histogram: 36 0 0 0 0 1 0 0 1 2
Neighs:    0.775 ave 12 max 0 min
Histogram: 36 0 1 0 0 1 1 0 0 1

Total # of neighbors = 31
Ave neighs/atom = 0.177143
Neighbor list builds = 5066
Dangerous builds = 143
Setting up run at Sat Nov 26 02:24:46 2022

Memory usage per processor = 958.583 Mbytes
    Step    Atoms         KinEng            CPU 
 9999938      175     0.36346079              0 
10123394      174     0.39944872      1217.2728 
Loop time of 1217.27 on 40 procs for 123456 steps with 174 atoms, finish time Sat Nov 26 02:45:03 2022


Pair  time (%) = 0.225356 (0.0185131)
Neigh time (%) = 0.903268 (0.0742042)
Comm  time (%) = 1.87005 (0.153626)
Outpt time (%) = 0.000363068 (2.98263e-05)
Other time (%) = 1214.27 (99.7536)

Nlocal:    4.35 ave 59 max 0 min
Histogram: 35 1 1 0 1 0 0 0 0 2
Nghost:    2.65 ave 30 max 0 min
Histogram: 36 0 0 0 0 1 0 0 0 3
Neighs:    0.725 ave 10 max 0 min
Histogram: 36 0 0 0 1 0 0 1 1 1

Total # of neighbors = 29
Ave neighs/atom = 0.166667
Neighbor list builds = 4969
Dangerous builds = 1
Setting up run at Sat Nov 26 02:45:03 2022

Memory usage per processor = 958.583 Mbytes
    Step    Atoms         KinEng            CPU 
10123394      174     0.39944872              0 
10246850      172     0.33186196      1217.9307 
Loop time of 1217.93 on 40 procs for 123456 steps with 172 atoms, finish time Sat Nov 26 03:05:21 2022


Pair  time (%) = 0.225029 (0.0184764)
Neigh time (%) = 0.894695 (0.0734602)
Comm  time (%) = 1.82742 (0.150043)
Outpt time (%) = 2.78241e-05 (2.28454e-06)
Other time (%) = 1214.98 (99.758)

Nlocal:    4.3 ave 60 max 0 min
Histogram: 35 1 1 1 0 0 0 0 0 2
Nghost:    2.625 ave 30 max 0 min
Histogram: 36 0 0 0 0 0 1 0 0 3
Neighs:    0.625 ave 10 max 0 min
Histogram: 36 0 0 1 1 0 0 0 1 1

Total # of neighbors = 25
Ave neighs/atom = 0.145349
Neighbor list builds = 4915
Dangerous builds = 59
Setting up run at Sat Nov 26 03:05:21 2022

Memory usage per processor = 958.583 Mbytes
    Step    Atoms         KinEng            CPU 
10246850      172     0.33186196              0 
10370306      170     0.36779117      1219.7465 
Loop time of 1219.75 on 40 procs for 123456 steps with 170 atoms, finish time Sat Nov 26 03:25:41 2022


Pair  time (%) = 0.224382 (0.0183958)
Neigh time (%) = 0.966312 (0.0792224)
Comm  time (%) = 2.51407 (0.206114)
Outpt time (%) = 0.000614502 (5.03795e-05)
Other time (%) = 1216.04 (99.6962)

Nlocal:    4.25 ave 67 max 0 min
Histogram: 36 1 0 1 0 0 0 1 0 1
Nghost:    2.5 ave 30 max 0 min
Histogram: 36 0 0 0 0 1 0 0 2 1
Neighs:    0.675 ave 12 max 0 min
Histogram: 36 0 1 1 0 0 1 0 0 1

Total # of neighbors = 27
Ave neighs/atom = 0.158824
Neighbor list builds = 5396
Dangerous builds = 182
Setting up run at Sat Nov 26 03:25:41 2022

Memory usage per processor = 958.583 Mbytes
    Step    Atoms         KinEng            CPU 
10370306      170     0.36779117              0 
10493762      168      0.4369706      1216.4006 
Loop time of 1216.4 on 40 procs for 123456 steps with 168 atoms, finish time Sat Nov 26 03:45:58 2022


Pair  time (%) = 0.222972 (0.0183305)
Neigh time (%) = 0.902167 (0.0741669)
Comm  time (%) = 2.63681 (0.216772)
Outpt time (%) = 0.000364571 (2.99713e-05)
Other time (%) = 1212.64 (99.6907)

Nlocal:    4.2 ave 66 max 0 min
Histogram: 36 0 1 1 0 0 0 1 0 1
Nghost:    2.525 ave 30 max 0 min
Histogram: 36 0 0 0 0 1 0 1 0 2
Neighs:    0.675 ave 11 max 0 min
Histogram: 36 0 0 1 1 0 1 0 0 1

Total # of neighbors = 27
Ave neighs/atom = 0.160714
Neighbor list builds = 5152
Dangerous builds = 420
Setting up run at Sat Nov 26 03:45:58 2022

Memory usage per processor = 958.583 Mbytes
    Step    Atoms         KinEng            CPU 
10493762      168      0.4369706              0 
10617218      167     0.98208287      1215.3985 
Loop time of 1215.4 on 40 procs for 123456 steps with 167 atoms, finish time Sat Nov 26 04:06:13 2022


Pair  time (%) = 0.223629 (0.0183997)
Neigh time (%) = 0.909981 (0.074871)
Comm  time (%) = 1.98361 (0.163206)
Outpt time (%) = 0.000295727 (2.43317e-05)
Other time (%) = 1212.28 (99.7435)

Nlocal:    4.175 ave 62 max 0 min
Histogram: 36 0 1 0 1 0 0 1 0 1
Nghost:    2.575 ave 30 max 0 min
Histogram: 36 0 0 0 0 1 0 0 1 2
Neighs:    0.8 ave 13 max 0 min
Histogram: 36 0 0 1 1 0 1 0 0 1

Total # of neighbors = 32
Ave neighs/atom = 0.191617
Neighbor list builds = 5000
Dangerous builds = 1
Setting up run at Sat Nov 26 04:06:13 2022

Memory usage per processor = 958.583 Mbytes
    Step    Atoms         KinEng            CPU 
10617218      167     0.98208287              0 
10740674      166     0.61781795      1215.2343 
Loop time of 1215.23 on 40 procs for 123456 steps with 166 atoms, finish time Sat Nov 26 04:26:28 2022


Pair  time (%) = 0.225026 (0.0185171)
Neigh time (%) = 0.872476 (0.0717948)
Comm  time (%) = 1.94539 (0.160083)
Outpt time (%) = 0.0005882 (4.84022e-05)
Other time (%) = 1212.19 (99.7496)

Nlocal:    4.15 ave 60 max 0 min
Histogram: 36 0 1 0 1 0 0 0 1 1
Nghost:    2.525 ave 28 max 0 min
Histogram: 36 0 0 0 0 0 1 0 0 3
Neighs:    0.75 ave 13 max 0 min
Histogram: 36 0 0 2 0 0 1 0 0 1

Total # of neighbors = 30
Ave neighs/atom = 0.180723
Neighbor list builds = 4754
Dangerous builds = 6
Setting up run at Sat Nov 26 04:26:28 2022

Memory usage per processor = 958.583 Mbytes
    Step    Atoms         KinEng            CPU 
10740674      166     0.61781795              0 
10864130      164     0.55971328      1208.0329 
Loop time of 1208.03 on 40 procs for 123456 steps with 164 atoms, finish time Sat Nov 26 04:46:36 2022


Pair  time (%) = 0.224963 (0.0186223)
Neigh time (%) = 0.873668 (0.0723216)
Comm  time (%) = 1.82482 (0.151057)
Outpt time (%) = 0.000327719 (2.71283e-05)
Other time (%) = 1205.11 (99.758)

Nlocal:    4.1 ave 61 max 0 min
Histogram: 36 0 1 1 0 0 0 1 0 1
Nghost:    2.625 ave 30 max 0 min
Histogram: 36 0 0 0 0 0 1 0 1 2
Neighs:    0.725 ave 12 max 0 min
Histogram: 36 0 0 1 1 0 1 0 0 1

Total # of neighbors = 29
Ave neighs/atom = 0.176829
Neighbor list builds = 4748
Dangerous builds = 0
Setting up run at Sat Nov 26 04:46:36 2022

Memory usage per processor = 958.583 Mbytes
    Step    Atoms         KinEng            CPU 
10864130      164     0.55971328              0 
10987586      163     0.68374717      1212.9297 
Loop time of 1212.93 on 40 procs for 123456 steps with 163 atoms, finish time Sat Nov 26 05:06:49 2022


Pair  time (%) = 0.223478 (0.0184246)
Neigh time (%) = 0.881262 (0.0726557)
Comm  time (%) = 2.00452 (0.165263)
Outpt time (%) = 0.000202574 (1.67012e-05)
Other time (%) = 1209.82 (99.7436)

Nlocal:    4.075 ave 60 max 0 min
Histogram: 36 0 1 1 0 0 0 0 1 1
Nghost:    2.575 ave 29 max 0 min
Histogram: 36 0 0 0 0 0 1 0 1 2
Neighs:    0.775 ave 14 max 0 min
Histogram: 36 0 1 0 1 1 0 0 0 1

Total # of neighbors = 31
Ave neighs/atom = 0.190184
Neighbor list builds = 4787
Dangerous builds = 1
Setting up run at Sat Nov 26 05:06:49 2022

Memory usage per processor = 958.583 Mbytes
    Step    Atoms         KinEng            CPU 
10987586      163     0.68374717              0 
11111042      163      0.8994088      1215.6296 
Loop time of 1215.63 on 40 procs for 123456 steps with 163 atoms, finish time Sat Nov 26 05:27:05 2022


Pair  time (%) = 0.225659 (0.0185631)
Neigh time (%) = 0.906824 (0.074597)
Comm  time (%) = 1.79339 (0.147527)
Outpt time (%) = 0.000289193 (2.37895e-05)
Other time (%) = 1212.7 (99.7593)

Nlocal:    4.075 ave 57 max 0 min
Histogram: 36 0 1 0 1 0 0 0 1 1
Nghost:    2.55 ave 28 max 0 min
Histogram: 36 0 0 0 0 0 1 0 1 2
Neighs:    0.775 ave 13 max 0 min
Histogram: 36 0 0 1 1 0 1 0 0 1

Total # of neighbors = 31
Ave neighs/atom = 0.190184
Neighbor list builds = 4934
Dangerous builds = 0
Setting up run at Sat Nov 26 05:27:05 2022

Memory usage per processor = 958.583 Mbytes
    Step    Atoms         KinEng            CPU 
11111042      163      0.8994088              0 
11234498      160     0.59315279      1212.7139 
Loop time of 1212.71 on 40 procs for 123456 steps with 160 atoms, finish time Sat Nov 26 05:47:18 2022


Pair  time (%) = 0.223777 (0.0184526)
Neigh time (%) = 0.844269 (0.0696182)
Comm  time (%) = 2.14831 (0.177149)
Outpt time (%) = 0.000278313 (2.29496e-05)
Other time (%) = 1209.5 (99.7348)

Nlocal:    4 ave 54 max 0 min
Histogram: 36 0 1 0 1 0 0 0 0 2
Nghost:    2.5 ave 29 max 0 min
Histogram: 36 0 0 0 0 1 0 0 1 2
Neighs:    0.8 ave 15 max 0 min
Histogram: 36 1 0 1 0 0 1 0 0 1

Total # of neighbors = 32
Ave neighs/atom = 0.2
Neighbor list builds = 4740
Dangerous builds = 245
Setting up run at Sat Nov 26 05:47:18 2022

[...]
Neighs:    0.1 ave 2 max 0 min
Histogram: 37 0 0 0 0 2 0 0 0 1

Total # of neighbors = 4
Ave neighs/atom = 0.05
Neighbor list builds = 3283
Dangerous builds = 0
Setting up run at Sun Nov 27 10:45:28 2022

Memory usage per processor = 958.583 Mbytes
    Step    Atoms         KinEng            CPU 
21851792       80     0.11352187              0 
21975248       80     0.12710124      1204.7563 
Loop time of 1204.76 on 40 procs for 123456 steps with 80 atoms, finish time Sun Nov 27 11:05:33 2022


Pair  time (%) = 0.212835 (0.0176662)
Neigh time (%) = 0.619753 (0.0514422)
Comm  time (%) = 1.51193 (0.125497)
Outpt time (%) = 0.000279065 (2.31636e-05)
Other time (%) = 1202.41 (99.8054)

Nlocal:    2 ave 35 max 0 min
Histogram: 36 1 1 0 0 0 0 1 0 1
Nghost:    1.175 ave 15 max 0 min
Histogram: 36 0 0 0 1 0 1 0 0 2
Neighs:    0.1 ave 2 max 0 min
Histogram: 37 0 0 0 0 2 0 0 0 1

Total # of neighbors = 4
Ave neighs/atom = 0.05
Neighbor list builds = 3383
Dangerous builds = 0
Setting up run at Sun Nov 27 11:05:33 2022

Memory usage per processor = 958.583 Mbytes
    Step    Atoms         KinEng            CPU 
21975248       80     0.12710124              0 
22098704       80     0.13999257      1218.5867 
Loop time of 1218.59 on 40 procs for 123456 steps with 80 atoms, finish time Sun Nov 27 11:25:52 2022


Pair  time (%) = 0.220582 (0.0181015)
Neigh time (%) = 1.08139 (0.0887409)
Comm  time (%) = 2.34848 (0.192721)
Outpt time (%) = 0.000238741 (1.95917e-05)
Other time (%) = 1214.94 (99.7004)

Nlocal:    2 ave 35 max 0 min
Histogram: 36 1 1 0 0 0 0 1 0 1
Nghost:    1.15 ave 14 max 0 min
Histogram: 36 0 0 0 1 0 0 1 0 2
Neighs:    0.1 ave 2 max 0 min
Histogram: 37 0 0 0 0 2 0 0 0 1

Total # of neighbors = 4
Ave neighs/atom = 0.05
Neighbor list builds = 5880
Dangerous builds = 0
Setting up run at Sun Nov 27 11:25:52 2022

Memory usage per processor = 958.583 Mbytes
    Step    Atoms         KinEng            CPU 
22098704       80     0.13999257              0 
22222160       79    0.091353347      1206.2171 
Loop time of 1206.22 on 40 procs for 123456 steps with 79 atoms, finish time Sun Nov 27 11:45:58 2022


Pair  time (%) = 0.216075 (0.0179135)
Neigh time (%) = 0.665722 (0.0551909)
Comm  time (%) = 1.7333 (0.143697)
Outpt time (%) = 0.000573694 (4.75614e-05)
Other time (%) = 1203.6 (99.7832)

Nlocal:    1.975 ave 35 max 0 min
Histogram: 36 1 1 0 0 0 0 1 0 1
Nghost:    1.15 ave 16 max 0 min
Histogram: 36 0 0 1 0 0 1 0 1 1
Neighs:    0.125 ave 2 max 0 min
Histogram: 37 0 0 0 0 1 0 0 0 2

Total # of neighbors = 5
Ave neighs/atom = 0.0632911
Neighbor list builds = 3812
Dangerous builds = 314
Setting up run at Sun Nov 27 11:45:58 2022

Memory usage per processor = 958.583 Mbytes
    Step    Atoms         KinEng            CPU 
22222160       79    0.091353347              0 
22345616       79    0.076535863      1200.7313 
Loop time of 1200.73 on 40 procs for 123456 steps with 79 atoms, finish time Sun Nov 27 12:05:59 2022


Pair  time (%) = 0.214316 (0.0178488)
Neigh time (%) = 0.476611 (0.0396934)
Comm  time (%) = 1.2125 (0.10098)
Outpt time (%) = 0.00028996 (2.41486e-05)
Other time (%) = 1198.83 (99.8415)

Nlocal:    1.975 ave 35 max 0 min
Histogram: 36 1 1 0 0 0 0 1 0 1
Nghost:    1.275 ave 19 max 0 min
Histogram: 36 0 0 1 0 1 0 1 0 1
Neighs:    0.125 ave 2 max 0 min
Histogram: 37 0 0 0 0 1 0 0 0 2

Total # of neighbors = 5
Ave neighs/atom = 0.0632911
Neighbor list builds = 2598
Dangerous builds = 0
Setting up run at Sun Nov 27 12:05:59 2022

Memory usage per processor = 958.583 Mbytes
    Step    Atoms         KinEng            CPU 
22345616       79    0.076535863              0 
22469072       77    0.083461502      1209.7371 
Loop time of 1209.74 on 40 procs for 123456 steps with 77 atoms, finish time Sun Nov 27 12:26:09 2022


Pair  time (%) = 0.21718 (0.0179527)
Neigh time (%) = 0.74577 (0.0616473)
Comm  time (%) = 1.83088 (0.151345)
Outpt time (%) = 0.00031161 (2.57585e-05)
Other time (%) = 1206.94 (99.769)

Nlocal:    1.925 ave 33 max 0 min
Histogram: 36 2 0 0 0 0 0 0 1 1
Nghost:    1.25 ave 16 max 0 min
Histogram: 36 0 0 0 1 0 1 0 0 2
Neighs:    0.1 ave 1 max 0 min
Histogram: 36 0 0 0 0 0 0 0 0 4

Total # of neighbors = 4
Ave neighs/atom = 0.0519481
Neighbor list builds = 4243
Dangerous builds = 236
Setting up run at Sun Nov 27 12:26:09 2022

Memory usage per processor = 958.583 Mbytes
    Step    Atoms         KinEng            CPU 
22469072       77    0.083461502              0 
22592528       77     0.07307913      1210.7906 
Loop time of 1210.79 on 40 procs for 123456 steps with 77 atoms, finish time Sun Nov 27 12:46:20 2022


Pair  time (%) = 0.21712 (0.0179321)
Neigh time (%) = 0.764664 (0.0631541)
Comm  time (%) = 1.33535 (0.110288)
Outpt time (%) = 0.00057325 (4.73451e-05)
Other time (%) = 1208.47 (99.8086)

Nlocal:    1.925 ave 32 max 0 min
Histogram: 36 1 1 0 0 0 0 0 1 1
Nghost:    1.2 ave 16 max 0 min
Histogram: 36 0 0 0 1 0 1 0 0 2
Neighs:    0.075 ave 1 max 0 min
Histogram: 37 0 0 0 0 0 0 0 0 3

Total # of neighbors = 3
Ave neighs/atom = 0.038961
Neighbor list builds = 4159
Dangerous builds = 0
Setting up run at Sun Nov 27 12:46:20 2022

Memory usage per processor = 958.583 Mbytes
    Step    Atoms         KinEng            CPU 
22592528       77     0.07307913              0 
22715984       77     0.13902036       1209.079 
Loop time of 1209.08 on 40 procs for 123456 steps with 77 atoms, finish time Sun Nov 27 13:06:29 2022


Pair  time (%) = 0.216979 (0.0179458)
Neigh time (%) = 0.709989 (0.0587215)
Comm  time (%) = 1.21075 (0.100138)
Outpt time (%) = 0.0002791 (2.30837e-05)
Other time (%) = 1206.94 (99.8232)

Nlocal:    1.925 ave 32 max 0 min
Histogram: 36 2 0 0 0 0 0 0 1 1
Nghost:    1.275 ave 15 max 0 min
Histogram: 36 0 0 0 0 1 1 0 0 2
Neighs:    0.1 ave 2 max 0 min
Histogram: 37 0 0 0 0 2 0 0 0 1

Total # of neighbors = 4
Ave neighs/atom = 0.0519481
Neighbor list builds = 3864
Dangerous builds = 0
Setting up run at Sun Nov 27 13:06:29 2022

Memory usage per processor = 958.583 Mbytes
    Step    Atoms         KinEng            CPU 
22715984       77     0.13902036              0 
22839440       77     0.18398002      1207.3856 
Loop time of 1207.39 on 40 procs for 123456 steps with 77 atoms, finish time Sun Nov 27 13:26:36 2022


Pair  time (%) = 0.218912 (0.0181311)
Neigh time (%) = 0.705318 (0.058417)
Comm  time (%) = 1.20638 (0.0999169)
Outpt time (%) = 0.000308731 (2.55702e-05)
Other time (%) = 1205.25 (99.8235)

Nlocal:    1.925 ave 33 max 0 min
Histogram: 36 1 1 0 0 0 0 1 0 1
Nghost:    1.15 ave 14 max 0 min
Histogram: 36 0 0 0 0 0 2 0 1 1
Neighs:    0.125 ave 3 max 0 min
Histogram: 37 0 0 2 0 0 0 0 0 1

Total # of neighbors = 5
Ave neighs/atom = 0.0649351
Neighbor list builds = 3832
Dangerous builds = 0
Setting up run at Sun Nov 27 13:26:36 2022

Memory usage per processor = 958.583 Mbytes
    Step    Atoms         KinEng            CPU 
22839440       77     0.18398002              0 
22962896       77     0.17762606      1208.8071 
Loop time of 1208.81 on 40 procs for 123456 steps with 77 atoms, finish time Sun Nov 27 13:46:45 2022


Pair  time (%) = 0.215838 (0.0178554)
Neigh time (%) = 0.659804 (0.0545831)
Comm  time (%) = 1.25768 (0.104043)
Outpt time (%) = 0.000571485 (4.72767e-05)
Other time (%) = 1206.67 (99.8235)

Nlocal:    1.925 ave 32 max 0 min
Histogram: 36 2 0 0 0 0 0 0 1 1
Nghost:    1.125 ave 14 max 0 min
Histogram: 36 0 0 0 0 1 1 0 0 2
Neighs:    0.125 ave 3 max 0 min
Histogram: 37 0 0 2 0 0 0 0 0 1

Total # of neighbors = 5
Ave neighs/atom = 0.0649351
Neighbor list builds = 3580
Dangerous builds = 0
Setting up run at Sun Nov 27 13:46:45 2022

Memory usage per processor = 958.583 Mbytes
    Step    Atoms         KinEng            CPU 
22962896       77     0.17762606              0 
23086352       77        0.11095      1205.2036 
Loop time of 1205.2 on 40 procs for 123456 steps with 77 atoms, finish time Sun Nov 27 14:06:50 2022


Pair  time (%) = 0.216659 (0.0179769)
Neigh time (%) = 0.642867 (0.0533409)
Comm  time (%) = 1.07801 (0.0894459)
Outpt time (%) = 0.000306543 (2.54349e-05)
Other time (%) = 1203.27 (99.8392)

Nlocal:    1.925 ave 34 max 0 min
Histogram: 36 1 1 0 0 0 0 1 0 1
Nghost:    1.05 ave 14 max 0 min
Histogram: 36 0 0 0 0 1 1 0 1 1
Neighs:    0.125 ave 3 max 0 min
Histogram: 37 0 0 2 0 0 0 0 0 1

Total # of neighbors = 5
Ave neighs/atom = 0.0649351
Neighbor list builds = 3487
Dangerous builds = 0
Setting up run at Sun Nov 27 14:06:50 2022

Memory usage per processor = 958.583 Mbytes
    Step    Atoms         KinEng            CPU 
23086352       77        0.11095              0 
23209808       77    0.069674542      1203.2328 
Loop time of 1203.23 on 40 procs for 123456 steps with 77 atoms, finish time Sun Nov 27 14:26:54 2022


Pair  time (%) = 0.215446 (0.0179056)
Neigh time (%) = 0.53444 (0.044417)
Comm  time (%) = 0.943942 (0.0784505)
Outpt time (%) = 0.000280033 (2.32734e-05)
Other time (%) = 1201.54 (99.8592)

Nlocal:    1.925 ave 32 max 0 min
Histogram: 36 1 1 0 0 0 0 1 0 1
Nghost:    1.1 ave 14 max 0 min
Histogram: 36 0 0 0 1 0 0 1 0 2
Neighs:    0.1 ave 3 max 0 min
Histogram: 38 0 0 1 0 0 0 0 0 1

Total # of neighbors = 4
Ave neighs/atom = 0.0519481
Neighbor list builds = 2892
Dangerous builds = 0
Setting up run at Sun Nov 27 14:26:54 2022

Memory usage per processor = 958.583 Mbytes
    Step    Atoms         KinEng            CPU 
23209808       77    0.069674542              0 
23333264       77     0.17095362      1200.5843 
Loop time of 1200.58 on 40 procs for 123456 steps with 77 atoms, finish time Sun Nov 27 14:46:54 2022


Pair  time (%) = 0.21531 (0.0179337)
Neigh time (%) = 0.44898 (0.0373968)
Comm  time (%) = 0.8925 (0.0743388)
Outpt time (%) = 0.000587353 (4.89223e-05)
Other time (%) = 1199.03 (99.8703)

Nlocal:    1.925 ave 32 max 0 min
Histogram: 36 1 1 0 0 0 0 1 0 1
Nghost:    1.1 ave 14 max 0 min
Histogram: 36 0 0 0 1 0 0 1 0 2
Neighs:    0.05 ave 1 max 0 min
Histogram: 38 0 0 0 0 0 0 0 0 2

Total # of neighbors = 2
Ave neighs/atom = 0.025974
Neighbor list builds = 2431
Dangerous builds = 0
Setting up run at Sun Nov 27 14:46:54 2022

Memory usage per processor = 958.583 Mbytes
    Step    Atoms         KinEng            CPU 
23333264       77     0.17095362              0 
23456720       77     0.30217241      1199.6632 
Loop time of 1199.66 on 40 procs for 123456 steps with 77 atoms, finish time Sun Nov 27 15:06:54 2022


Pair  time (%) = 0.214485 (0.0178787)
Neigh time (%) = 0.43823 (0.0365294)
Comm  time (%) = 0.812599 (0.0677355)
Outpt time (%) = 0.000256345 (2.13681e-05)
Other time (%) = 1198.2 (99.8778)

Nlocal:    1.925 ave 32 max 0 min
Histogram: 36 1 1 0 0 0 0 1 0 1
Nghost:    1.075 ave 13 max 0 min
Histogram: 36 0 0 0 1 0 0 1 0 2
Neighs:    0.05 ave 1 max 0 min
Histogram: 38 0 0 0 0 0 0 0 0 2

Total # of neighbors = 2
Ave neighs/atom = 0.025974
Neighbor list builds = 2375
Dangerous builds = 0
Setting up run at Sun Nov 27 15:06:54 2022

Memory usage per processor = 958.583 Mbytes
    Step    Atoms         KinEng            CPU 
23456720       77     0.30217241              0 
23580176       77     0.13132492      1201.9667 
Loop time of 1201.97 on 40 procs for 123456 steps with 77 atoms, finish time Sun Nov 27 15:26:56 2022


Pair  time (%) = 0.216656 (0.0180251)
Neigh time (%) = 0.544041 (0.0452626)
Comm  time (%) = 1.63807 (0.136282)
Outpt time (%) = 0.00022496 (1.8716e-05)
Other time (%) = 1199.57 (99.8004)

Nlocal:    1.925 ave 32 max 0 min
Histogram: 36 1 1 0 0 0 0 1 0 1
Nghost:    1.1 ave 13 max 0 min
Histogram: 36 0 0 1 0 0 0 1 0 2
Neighs:    0.075 ave 2 max 0 min
Histogram: 38 0 0 0 0 1 0 0 0 1

Total # of neighbors = 3
Ave neighs/atom = 0.038961
Neighbor list builds = 2953
Dangerous builds = 0
Setting up run at Sun Nov 27 15:26:56 2022

Memory usage per processor = 958.583 Mbytes
    Step    Atoms         KinEng            CPU 
23580176       77     0.13132492              0 
23703632       76     0.11517795      1216.1911 
Loop time of 1216.19 on 40 procs for 123456 steps with 76 atoms, finish time Sun Nov 27 15:47:12 2022


Pair  time (%) = 0.219451 (0.0180442)
Neigh time (%) = 0.963542 (0.0792262)
Comm  time (%) = 2.81351 (0.231338)
Outpt time (%) = 0.000587555 (4.83111e-05)
Other time (%) = 1212.19 (99.6713)

Nlocal:    1.9 ave 33 max 0 min
Histogram: 36 1 1 0 0 0 0 1 0 1
Nghost:    1.15 ave 13 max 0 min
Histogram: 35 1 0 1 0 0 0 0 1 2
Neighs:    0.075 ave 2 max 0 min
Histogram: 38 0 0 0 0 1 0 0 0 1

Total # of neighbors = 3
Ave neighs/atom = 0.0394737
Neighbor list builds = 5361
Dangerous builds = 0
Setting up run at Sun Nov 27 15:47:12 2022

Memory usage per processor = 958.583 Mbytes
    Step    Atoms         KinEng            CPU 
23703632       76     0.11517795              0 
23827088       76    0.082571168      1215.9672 
Loop time of 1215.97 on 40 procs for 123456 steps with 76 atoms, finish time Sun Nov 27 16:07:28 2022


Pair  time (%) = 0.218267 (0.0179501)
Neigh time (%) = 0.977113 (0.0803568)
Comm  time (%) = 2.91028 (0.239339)
Outpt time (%) = 0.000335616 (2.76008e-05)
Other time (%) = 1211.86 (99.6623)

Nlocal:    1.9 ave 32 max 0 min
Histogram: 36 1 1 0 0 0 0 1 0 1
Nghost:    1.225 ave 15 max 0 min
Histogram: 36 0 0 0 1 0 0 1 1 1
Neighs:    0.075 ave 2 max 0 min
Histogram: 38 0 0 0 0 1 0 0 0 1

Total # of neighbors = 3
Ave neighs/atom = 0.0394737
Neighbor list builds = 5315
Dangerous builds = 0
Setting up run at Sun Nov 27 16:07:29 2022

Memory usage per processor = 958.583 Mbytes
    Step    Atoms         KinEng            CPU 
23827088       76    0.082571168              0 
23950544       76     0.10395436      1199.4975 
Loop time of 1199.5 on 40 procs for 123456 steps with 76 atoms, finish time Sun Nov 27 16:27:28 2022


Pair  time (%) = 0.214075 (0.017847)
Neigh time (%) = 0.437363 (0.0364622)
Comm  time (%) = 1.44877 (0.120781)
Outpt time (%) = 0.000292309 (2.43693e-05)
Other time (%) = 1197.4 (99.8249)

Nlocal:    1.9 ave 32 max 0 min
Histogram: 36 1 1 0 0 0 0 1 0 1
Nghost:    1.175 ave 14 max 0 min
Histogram: 36 0 0 1 0 0 0 1 0 2
Neighs:    0.05 ave 2 max 0 min
Histogram: 39 0 0 0 0 0 0 0 0 1

Total # of neighbors = 2
Ave neighs/atom = 0.0263158
Neighbor list builds = 2385
Dangerous builds = 0
Setting up run at Sun Nov 27 16:27:28 2022

Memory usage per processor = 958.583 Mbytes
    Step    Atoms         KinEng            CPU 
23950544       76     0.10395436              0 
24074000       76     0.20302283      1194.2874 
Loop time of 1194.29 on 40 procs for 123456 steps with 76 atoms, finish time Sun Nov 27 16:47:22 2022


Pair  time (%) = 0.212486 (0.0177918)
Neigh time (%) = 0.410992 (0.0344131)
Comm  time (%) = 1.36388 (0.1142)
Outpt time (%) = 0.0221786 (0.00185706)
Other time (%) = 1192.28 (99.8317)

Nlocal:    1.9 ave 32 max 0 min
Histogram: 36 1 1 0 0 0 0 1 0 1
Nghost:    1.125 ave 13 max 0 min
Histogram: 36 0 0 1 0 0 0 0 1 2
Neighs:    0.05 ave 2 max 0 min
Histogram: 39 0 0 0 0 0 0 0 0 1

Total # of neighbors = 2
Ave neighs/atom = 0.0263158
Neighbor list builds = 2233
Dangerous builds = 0
Setting up run at Sun Nov 27 16:47:23 2022

Memory usage per processor = 958.583 Mbytes
    Step    Atoms         KinEng            CPU 
24074000       76     0.20302283              0 
24197456       76     0.19133593      1197.9148 
Loop time of 1197.92 on 40 procs for 123456 steps with 76 atoms, finish time Sun Nov 27 17:07:20 2022


Pair  time (%) = 0.211921 (0.0176908)
Neigh time (%) = 0.447312 (0.0373409)
Comm  time (%) = 1.47599 (0.123213)
Outpt time (%) = 0.000272541 (2.27513e-05)
Other time (%) = 1195.78 (99.8217)

Nlocal:    1.9 ave 33 max 0 min
Histogram: 36 2 0 0 0 0 1 0 0 1
Nghost:    1.05 ave 12 max 0 min
Histogram: 36 0 0 1 0 0 0 0 0 3
Neighs:    0.05 ave 2 max 0 min
Histogram: 39 0 0 0 0 0 0 0 0 1

Total # of neighbors = 2
Ave neighs/atom = 0.0263158
Neighbor list builds = 2426
Dangerous builds = 0
Setting up run at Sun Nov 27 17:07:21 2022

Memory usage per processor = 958.583 Mbytes
    Step    Atoms         KinEng            CPU 
24197456       76     0.19133593              0 
24320912       74     0.24553425      1198.0658 
Loop time of 1198.07 on 40 procs for 123456 steps with 74 atoms, finish time Sun Nov 27 17:27:19 2022


Pair  time (%) = 0.214829 (0.0179313)
Neigh time (%) = 0.526422 (0.0439393)
Comm  time (%) = 1.40752 (0.117483)
Outpt time (%) = 0.000276916 (2.31136e-05)
Other time (%) = 1195.92 (99.8206)

Nlocal:    1.85 ave 34 max 0 min
Histogram: 36 2 0 0 0 0 1 0 0 1
Nghost:    1.075 ave 14 max 0 min
Histogram: 36 0 1 0 0 0 0 1 0 2
Neighs:    0.025 ave 1 max 0 min
Histogram: 39 0 0 0 0 0 0 0 0 1

Total # of neighbors = 1
Ave neighs/atom = 0.0135135
Neighbor list builds = 2857
Dangerous builds = 2
Setting up run at Sun Nov 27 17:27:19 2022

Memory usage per processor = 958.583 Mbytes
    Step    Atoms         KinEng            CPU 
24320912       74     0.24553425              0 
24444368       74      0.1854429      1198.8734 
Loop time of 1198.87 on 40 procs for 123456 steps with 74 atoms, finish time Sun Nov 27 17:47:18 2022


Pair  time (%) = 0.214825 (0.0179189)
Neigh time (%) = 0.54807 (0.0457154)
Comm  time (%) = 0.987122 (0.0823374)
Outpt time (%) = 0.000643255 (5.3655e-05)
Other time (%) = 1197.12 (99.854)

Nlocal:    1.85 ave 33 max 0 min
Histogram: 35 3 0 0 0 0 1 0 0 1
Nghost:    1.075 ave 15 max 0 min
Histogram: 36 0 1 0 0 0 0 1 1 1
Neighs:    0 ave 0 max 0 min
Histogram: 40 0 0 0 0 0 0 0 0 0

Total # of neighbors = 0
Ave neighs/atom = 0
Neighbor list builds = 2964
Dangerous builds = 0
Setting up run at Sun Nov 27 17:47:18 2022

Memory usage per processor = 958.583 Mbytes
    Step    Atoms         KinEng            CPU 
24444368       74      0.1854429              0 
24567824       73     0.18944838       1199.794 
Loop time of 1199.79 on 40 procs for 123456 steps with 73 atoms, finish time Sun Nov 27 18:07:17 2022


Pair  time (%) = 0.214072 (0.0178424)
Neigh time (%) = 0.562657 (0.0468961)
Comm  time (%) = 1.05415 (0.0878607)
Outpt time (%) = 0.00027553 (2.29648e-05)
Other time (%) = 1197.96 (99.8474)

Nlocal:    1.825 ave 33 max 0 min
Histogram: 36 2 0 0 0 0 1 0 0 1
Nghost:    1.05 ave 14 max 0 min
Histogram: 36 0 1 0 0 0 0 1 0 2
Neighs:    0 ave 0 max 0 min
Histogram: 40 0 0 0 0 0 0 0 0 0

Total # of neighbors = 0
Ave neighs/atom = 0
Neighbor list builds = 3051
Dangerous builds = 1
Setting up run at Sun Nov 27 18:07:18 2022

Memory usage per processor = 958.583 Mbytes
    Step    Atoms         KinEng            CPU 
24567824       73     0.18944838              0 
24691280       73       0.278395      1206.2696 
Loop time of 1206.27 on 40 procs for 123456 steps with 73 atoms, finish time Sun Nov 27 18:27:24 2022


Pair  time (%) = 0.214571 (0.0177879)
Neigh time (%) = 0.747639 (0.0619792)
Comm  time (%) = 1.24788 (0.103449)
Outpt time (%) = 0.00035911 (2.97702e-05)
Other time (%) = 1204.06 (99.8168)

Nlocal:    1.825 ave 34 max 0 min
Histogram: 36 2 0 0 0 1 0 0 0 1
Nghost:    1.025 ave 15 max 0 min
Histogram: 36 0 0 1 0 0 1 1 0 1
Neighs:    0.025 ave 1 max 0 min
Histogram: 39 0 0 0 0 0 0 0 0 1

Total # of neighbors = 1
Ave neighs/atom = 0.0136986
Neighbor list builds = 4053
Dangerous builds = 0
Setting up run at Sun Nov 27 18:27:24 2022

Memory usage per processor = 958.583 Mbytes
    Step    Atoms         KinEng            CPU 
24691280       73       0.278395              0 
24691358       73     0.27840883     0.74106744 
Loop time of 0.741082 on 40 procs for 78 steps with 73 atoms, finish time Sun Nov 27 18:27:25 2022


Pair  time (%) = 0.000137945 (0.018614)
Neigh time (%) = 0.000365256 (0.0492869)
Comm  time (%) = 0.000553315 (0.0746631)
Outpt time (%) = 0.000298219 (0.040241)
Other time (%) = 0.739727 (99.8172)

Nlocal:    1.825 ave 34 max 0 min
Histogram: 36 2 0 0 0 1 0 0 0 1
Nghost:    1.025 ave 15 max 0 min
Histogram: 36 0 0 1 0 0 1 1 0 1
Neighs:    0.025 ave 1 max 0 min
Histogram: 39 0 0 0 0 0 0 0 0 1

Total # of neighbors = 1
Ave neighs/atom = 0.0136986
Neighbor list builds = 2
Dangerous builds = 0
