ITEM: TIMESTEP
1
ITEM: NUMBER OF ATOMS
1331
ITEM: BOX BOUNDS ff ff ff
-0.150000 0.150000 
-0.150000 0.019329 
-0.150000 0.150000 
ITEM: ATOMS id type x y z radius vx vy vz
1 1 -0.002230 -0.001717 -0.006747 0.000984 0.000000 -0.000588 0.000000 
2 1 -0.000126 0.005315 0.004054 0.000984 0.000000 -0.000588 0.000000 
3 1 0.001121 0.009860 -0.001192 0.000984 0.000000 -0.000588 0.000000 
4 1 -0.007425 -0.001231 0.000330 0.000984 0.000000 -0.000588 0.000000 
5 1 -0.004301 0.003361 -0.004755 0.000984 0.000000 -0.000588 0.000000 
6 1 -0.000202 0.006454 -0.009044 0.000984 0.000000 -0.000588 0.000000 
7 1 0.003295 0.003099 0.012855 0.000984 0.000000 -0.000588 0.000000 
8 1 -0.005291 -0.001910 0.002935 0.000984 0.000000 -0.000588 0.000000 
9 1 0.014013 0.005301 0.004726 0.000984 0.000000 -0.000588 0.000000 
10 1 0.000659 0.000534 -0.003772 0.000984 0.000000 -0.000588 0.000000 
11 1 0.005433 0.008708 0.002465 0.000984 0.000000 -0.000588 0.000000 
12 1 -0.008013 0.000519 0.003718 0.000984 0.000000 -0.000588 0.000000 
13 1 -0.004859 0.006483 -0.011018 0.000984 0.000000 -0.000588 0.000000 
14 1 -0.010380 -0.000048 0.007417 0.000984 0.000000 -0.000588 0.000000 
15 1 -0.008944 0.006278 -0.013120 0.000984 0.000000 -0.000588 0.000000 
16 1 -0.006333 0.009167 0.007054 0.000984 0.000000 -0.000588 0.000000 
17 1 0.006195 -0.001063 0.012908 0.000984 0.000000 -0.000588 0.000000 
18 1 -0.007069 0.001050 -0.008564 0.000984 0.000000 -0.000588 0.000000 
19 1 0.006409 0.009967 -0.007678 0.000984 0.000000 -0.000588 0.000000 
20 1 0.005155 0.012067 -0.012309 0.000984 0.000000 -0.000588 0.000000 
21 1 0.000678 0.003558 0.010416 0.000984 0.000000 -0.000588 0.000000 
22 1 0.008625 0.005187 -0.010104 0.000984 0.000000 -0.000588 0.000000 
23 1 0.011083 -0.000483 0.005922 0.000984 0.000000 -0.000588 0.000000 
24 1 0.000454 0.009700 -0.015719 0.000984 0.000000 -0.000588 0.000000 
25 1 -0.013071 0.009695 -0.007845 0.000984 0.000000 -0.000588 0.000000 
26 1 -0.005264 0.012488 0.003159 0.000984 0.000000 -0.000588 0.000000 
27 1 -0.002095 0.000349 0.003580 0.000984 0.000000 -0.000588 0.000000 
28 1 -0.007158 0.004695 -0.007275 0.000984 0.000000 -0.000588 0.000000 
29 1 -0.006141 0.002351 -0.013630 0.000984 0.000000 -0.000588 0.000000 
30 1 -0.007608 0.012439 0.012462 0.000984 0.000000 -0.000588 0.000000 
31 1 -0.010538 0.002561 0.010590 0.000984 0.000000 -0.000588 0.000000 
32 1 0.009888 0.002389 -0.003355 0.000984 0.000000 -0.000588 0.000000 
33 1 -0.002408 0.009879 -0.013591 0.000984 0.000000 -0.000588 0.000000 
34 1 -0.007823 0.004609 -0.010847 0.000984 0.000000 -0.000588 0.000000 
35 1 0.010595 0.012526 0.005648 0.000984 0.000000 -0.000588 0.000000 
36 1 -0.009706 0.001550 0.003783 0.000984 0.000000 -0.000588 0.000000 
37 1 0.007167 0.004231 -0.003719 0.000984 0.000000 -0.000588 0.000000 
38 1 -0.009557 -0.000444 -0.007096 0.000984 0.000000 -0.000588 0.000000 
39 1 0.002817 0.008863 -0.012310 0.000984 0.000000 -0.000588 0.000000 
40 1 0.004005 -0.000305 0.003260 0.000984 0.000000 -0.000588 0.000000 
41 1 0.002988 0.001310 -0.002075 0.000984 0.000000 -0.000588 0.000000 
42 1 0.012954 0.004826 0.009354 0.000984 0.000000 -0.000588 0.000000 
43 1 0.005982 0.000706 -0.010272 0.000984 0.000000 -0.000588 0.000000 
44 1 -0.003116 0.000734 0.012803 0.000984 0.000000 -0.000588 0.000000 
45 1 -0.014702 0.010826 0.000859 0.000984 0.000000 -0.000588 0.000000 
46 1 0.003422 0.011282 -0.014583 0.000984 0.000000 -0.000588 0.000000 
47 1 0.003760 0.009005 0.001168 0.000984 0.000000 -0.000588 0.000000 
48 1 -0.009511 -0.001458 0.012818 0.000984 0.000000 -0.000588 0.000000 
49 1 0.002552 0.012815 0.006684 0.000984 0.000000 -0.000588 0.000000 
50 1 -0.009277 0.012102 0.004541 0.000984 0.000000 -0.000588 0.000000 
51 1 -0.002324 0.004303 0.003850 0.000984 0.000000 -0.000588 0.000000 
52 1 0.001470 0.001978 0.002618 0.000984 0.000000 -0.000588 0.000000 
53 1 -0.011804 0.001182 -0.010045 0.000984 0.000000 -0.000588 0.000000 
54 1 -0.004937 0.011650 0.008074 0.000984 0.000000 -0.000588 0.000000 
55 1 0.003637 0.005879 -0.001523 0.000984 0.000000 -0.000588 0.000000 
56 1 0.013541 0.007670 -0.006159 0.000984 0.000000 -0.000588 0.000000 
57 1 -0.009558 0.001832 0.000632 0.000984 0.000000 -0.000588 0.000000 
58 1 -0.010138 0.010550 -0.005448 0.000984 0.000000 -0.000588 0.000000 
59 1 -0.001882 0.007368 -0.015545 0.000984 0.000000 -0.000588 0.000000 
60 1 0.007813 0.002277 0.000691 0.000984 0.000000 -0.000588 0.000000 
61 1 0.003824 0.002856 -0.013063 0.000984 0.000000 -0.000588 0.000000 
62 1 0.007341 0.008672 0.010079 0.000984 0.000000 -0.000588 0.000000 
63 1 0.001659 0.011830 0.015042 0.000984 0.000000 -0.000588 0.000000 
64 1 -0.015346 0.007898 0.002469 0.000984 0.000000 -0.000588 0.000000 
65 1 -0.001866 0.010357 -0.008902 0.000984 0.000000 -0.000588 0.000000 
66 1 -0.014173 -0.000903 -0.005769 0.000984 0.000000 -0.000588 0.000000 
67 1 0.013183 0.007554 -0.002709 0.000984 0.000000 -0.000588 0.000000 
68 1 0.004538 0.004469 0.004081 0.000984 0.000000 -0.000588 0.000000 
69 1 -0.008826 0.003546 -0.001436 0.000984 0.000000 -0.000588 0.000000 
70 1 0.002841 0.002999 -0.003811 0.000984 0.000000 -0.000588 0.000000 
71 1 -0.010894 0.008784 -0.007175 0.000984 0.000000 -0.000588 0.000000 
72 1 0.010873 0.003429 0.003663 0.000984 0.000000 -0.000588 0.000000 
73 1 -0.003074 0.001391 -0.001202 0.000984 0.000000 -0.000588 0.000000 
74 1 0.002000 0.013286 0.013294 0.000984 0.000000 -0.000588 0.000000 
75 1 -0.001758 0.011844 0.010310 0.000984 0.000000 -0.000588 0.000000 
76 1 0.003139 0.008425 0.009767 0.000984 0.000000 -0.000588 0.000000 
77 1 -0.004620 -0.000616 0.008562 0.000984 0.000000 -0.000588 0.000000 
78 1 0.004218 0.011019 0.002387 0.000984 0.000000 -0.000588 0.000000 
79 1 0.005812 0.006871 0.011393 0.000984 0.000000 -0.000588 0.000000 
80 1 0.009148 0.001644 0.005174 0.000984 0.000000 -0.000588 0.000000 
81 1 -0.010552 0.001012 -0.002659 0.000984 0.000000 -0.000588 0.000000 
82 1 0.001156 -0.000053 0.002827 0.000984 0.000000 -0.000588 0.000000 
83 1 -0.007550 0.003263 0.010111 0.000984 0.000000 -0.000588 0.000000 
84 1 -0.004610 -0.000923 0.000111 0.000984 0.000000 -0.000588 0.000000 
85 1 -0.005944 0.012699 0.009521 0.000984 0.000000 -0.000588 0.000000 
86 1 -0.000861 0.013313 -0.008923 0.000984 0.000000 -0.000588 0.000000 
87 1 0.014019 0.009772 0.007270 0.000984 0.000000 -0.000588 0.000000 
88 1 0.007120 0.007874 0.007741 0.000984 0.000000 -0.000588 0.000000 
89 1 0.002577 0.008968 0.007794 0.000984 0.000000 -0.000588 0.000000 
90 1 -0.013230 0.008313 0.001967 0.000984 0.000000 -0.000588 0.000000 
91 1 0.002179 0.008900 -0.009455 0.000984 0.000000 -0.000588 0.000000 
92 1 0.001865 0.003176 -0.014474 0.000984 0.000000 -0.000588 0.000000 
93 1 -0.013058 0.008869 -0.002767 0.000984 0.000000 -0.000588 0.000000 
94 1 -0.004835 0.009353 -0.011759 0.000984 0.000000 -0.000588 0.000000 
95 1 0.008975 0.006726 0.001782 0.000984 0.000000 -0.000588 0.000000 
96 1 -0.002365 0.001814 -0.004981 0.000984 0.000000 -0.000588 0.000000 
97 1 0.009906 0.005681 -0.012161 0.000984 0.000000 -0.000588 0.000000 
98 1 0.005019 -0.000845 -0.008261 0.000984 0.000000 -0.000588 0.000000 
99 1 0.009625 0.010021 0.011752 0.000984 0.000000 -0.000588 0.000000 
100 1 0.007915 0.004495 0.007554 0.000984 0.000000 -0.000588 0.000000 
101 1 0.007837 -0.000807 -0.001848 0.000984 0.000000 -0.000588 0.000000 
102 1 0.004165 0.012977 -0.010312 0.000984 0.000000 -0.000588 0.000000 
103 1 -0.009041 0.008261 -0.010603 0.000984 0.000000 -0.000588 0.000000 
104 1 0.001602 0.006898 -0.003528 0.000984 0.000000 -0.000588 0.000000 
105 1 0.000431 0.008014 0.004828 0.000984 0.000000 -0.000588 0.000000 
106 1 -0.008239 -0.002126 0.008687 0.000984 0.000000 -0.000588 0.000000 
107 1 -0.006043 0.012086 -0.014299 0.000984 0.000000 -0.000588 0.000000 
108 1 -0.000852 0.006735 -0.010922 0.000984 0.000000 -0.000588 0.000000 
109 1 0.005960 0.013134 -0.005300 0.000984 0.000000 -0.000588 0.000000 
110 1 -0.001263 0.007496 -0.006119 0.000984 0.000000 -0.000588 0.000000 
111 1 -0.008119 0.000114 0.009527 0.000984 0.000000 -0.000588 0.000000 
112 1 -0.007234 -0.002195 -0.011513 0.000984 0.000000 -0.000588 0.000000 
113 1 0.011151 0.000847 -0.001842 0.000984 0.000000 -0.000588 0.000000 
114 1 0.000598 0.002566 -0.009700 0.000984 0.000000 -0.000588 0.000000 
115 1 -0.004249 0.000478 0.015425 0.000984 0.000000 -0.000588 0.000000 
116 1 -0.002771 0.012463 -0.008827 0.000984 0.000000 -0.000588 0.000000 
117 1 0.006566 0.003984 -0.012990 0.000984 0.000000 -0.000588 0.000000 
118 1 -0.006361 0.007126 0.001806 0.000984 0.000000 -0.000588 0.000000 
119 1 0.012960 0.003376 -0.005263 0.000984 0.000000 -0.000588 0.000000 
120 1 0.005047 -0.000118 0.001514 0.000984 0.000000 -0.000588 0.000000 
121 1 -0.005620 -0.001417 0.005789 0.000984 0.000000 -0.000588 0.000000 
122 1 -0.005703 0.007421 0.014929 0.000984 0.000000 -0.000588 0.000000 
123 1 -0.007591 0.004314 0.004087 0.000984 0.000000 -0.000588 0.000000 
124 1 -0.009149 0.000276 -0.012971 0.000984 0.000000 -0.000588 0.000000 
125 1 0.009903 0.006061 -0.003393 0.000984 0.000000 -0.000588 0.000000 
126 1 0.015533 0.003416 -0.003299 0.000984 0.000000 -0.000588 0.000000 
127 1 0.010194 -0.001888 0.001396 0.000984 0.000000 -0.000588 0.000000 
128 1 0.006371 0.002153 0.014268 0.000984 0.000000 -0.000588 0.000000 
129 1 -0.000589 0.005002 0.014011 0.000984 0.000000 -0.000588 0.000000 
130 1 -0.001565 0.010041 0.002413 0.000984 0.000000 -0.000588 0.000000 
131 1 -0.011750 -0.001463 0.006592 0.000984 0.000000 -0.000588 0.000000 
132 1 0.004723 0.011070 -0.001240 0.000984 0.000000 -0.000588 0.000000 
133 1 -0.003613 0.004783 0.015378 0.000984 0.000000 -0.000588 0.000000 
134 1 -0.000020 -0.001205 -0.004630 0.000984 0.000000 -0.000588 0.000000 
135 1 -0.008917 -0.002150 -0.000734 0.000984 0.000000 -0.000588 0.000000 
136 1 0.007907 0.004053 0.013046 0.000635 0.000000 -0.000588 0.000000 
137 1 0.011650 0.011152 0.010251 0.000635 0.000000 -0.000588 0.000000 
138 1 0.008645 0.000711 0.010951 0.000635 0.000000 -0.000588 0.000000 
139 1 0.008668 -0.000938 -0.007773 0.000635 0.000000 -0.000588 0.000000 
140 1 -0.010609 0.010753 -0.011832 0.000635 0.000000 -0.000588 0.000000 
141 1 -0.006946 0.006266 -0.013311 0.000635 0.000000 -0.000588 0.000000 
142 1 0.010470 0.001139 0.011892 0.000635 0.000000 -0.000588 0.000000 
143 1 0.012642 0.000743 -0.010282 0.000635 0.000000 -0.000588 0.000000 
144 1 0.004678 0.013352 -0.002757 0.000635 0.000000 -0.000588 0.000000 
145 1 -0.010392 0.008890 -0.004746 0.000635 0.000000 -0.000588 0.000000 
146 1 0.000971 0.000307 -0.012065 0.000635 0.000000 -0.000588 0.000000 
147 1 -0.000197 0.011427 0.001035 0.000635 0.000000 -0.000588 0.000000 
148 1 -0.016139 0.008238 0.001083 0.000635 0.000000 -0.000588 0.000000 
149 1 0.004402 0.011816 0.010965 0.000635 0.000000 -0.000588 0.000000 
150 1 0.009743 0.005707 0.000412 0.000635 0.000000 -0.000588 0.000000 
151 1 -0.001170 -0.002301 0.013499 0.000635 0.000000 -0.000588 0.000000 
152 1 0.004399 0.006808 0.005300 0.000635 0.000000 -0.000588 0.000000 
153 1 0.009948 0.009809 -0.012148 0.000635 0.000000 -0.000588 0.000000 
154 1 0.005379 0.011024 -0.010421 0.000635 0.000000 -0.000588 0.000000 
155 1 0.007546 0.012925 -0.012894 0.000635 0.000000 -0.000588 0.000000 
156 1 -0.001586 0.012585 0.014933 0.000635 0.000000 -0.000588 0.000000 
157 1 0.010297 0.004597 0.006472 0.000635 0.000000 -0.000588 0.000000 
158 1 0.007761 0.001071 0.003661 0.000635 0.000000 -0.000588 0.000000 
159 1 0.013409 0.006907 0.001963 0.000635 0.000000 -0.000588 0.000000 
160 1 0.010742 0.001944 -0.011619 0.000635 0.000000 -0.000588 0.000000 
161 1 -0.002845 0.008558 -0.010986 0.000635 0.000000 -0.000588 0.000000 
162 1 -0.011816 0.003541 0.008102 0.000635 0.000000 -0.000588 0.000000 
163 1 -0.011446 -0.000661 0.011414 0.000635 0.000000 -0.000588 0.000000 
164 1 -0.006430 0.012954 -0.009822 0.000635 0.000000 -0.000588 0.000000 
165 1 -0.010119 0.006525 0.006806 0.000635 0.000000 -0.000588 0.000000 
166 1 -0.000892 0.004650 0.012410 0.000635 0.000000 -0.000588 0.000000 
167 1 -0.000461 -0.002228 0.011955 0.000635 0.000000 -0.000588 0.000000 
168 1 -0.002263 -0.001144 -0.008883 0.000635 0.000000 -0.000588 0.000000 
169 1 -0.010196 0.008387 -0.001028 0.000635 0.000000 -0.000588 0.000000 
170 1 0.006652 0.012168 0.014352 0.000635 0.000000 -0.000588 0.000000 
171 1 0.002269 0.004775 -0.001817 0.000635 0.000000 -0.000588 0.000000 
172 1 0.014886 0.009658 -0.005937 0.000635 0.000000 -0.000588 0.000000 
173 1 -0.008707 0.010929 0.005705 0.000635 0.000000 -0.000588 0.000000 
174 1 -0.013919 0.004910 0.008408 0.000635 0.000000 -0.000588 0.000000 
175 1 -0.011502 0.011757 -0.006561 0.000635 0.000000 -0.000588 0.000000 
176 1 -0.006617 0.011890 -0.001961 0.000635 0.000000 -0.000588 0.000000 
177 1 -0.008005 0.009117 -0.007118 0.000635 0.000000 -0.000588 0.000000 
178 1 0.013726 0.008491 0.005045 0.000635 0.000000 -0.000588 0.000000 
179 1 0.007718 0.003860 -0.008451 0.000635 0.000000 -0.000588 0.000000 
180 1 -0.006282 -0.000718 0.011309 0.000635 0.000000 -0.000588 0.000000 
181 1 0.007310 0.006966 0.004646 0.000635 0.000000 -0.000588 0.000000 
182 1 -0.015780 -0.001280 0.000382 0.000635 0.000000 -0.000588 0.000000 
183 1 -0.015197 0.009122 -0.005059 0.000635 0.000000 -0.000588 0.000000 
184 1 0.009458 0.012316 0.013277 0.000635 0.000000 -0.000588 0.000000 
185 1 0.008422 0.009966 -0.012949 0.000635 0.000000 -0.000588 0.000000 
186 1 0.002985 -0.001662 0.010159 0.000635 0.000000 -0.000588 0.000000 
187 1 -0.014749 0.009115 0.000194 0.000635 0.000000 -0.000588 0.000000 
188 1 0.000794 -0.001071 -0.001348 0.000635 0.000000 -0.000588 0.000000 
189 1 -0.006096 -0.001129 -0.014219 0.000635 0.000000 -0.000588 0.000000 
190 1 -0.011351 0.003945 0.002427 0.000635 0.000000 -0.000588 0.000000 
191 1 0.015140 0.005515 0.001553 0.000635 0.000000 -0.000588 0.000000 
192 1 -0.004211 0.002103 -0.009990 0.000635 0.000000 -0.000588 0.000000 
193 1 -0.010975 0.006063 0.005375 0.000635 0.000000 -0.000588 0.000000 
194 1 0.006367 0.003284 0.011540 0.000635 0.000000 -0.000588 0.000000 
195 1 0.001777 0.010943 0.012538 0.000635 0.000000 -0.000588 0.000000 
196 1 -0.012599 -0.001251 0.010137 0.000635 0.000000 -0.000588 0.000000 
197 1 -0.003116 0.011950 -0.014622 0.000635 0.000000 -0.000588 0.000000 
198 1 -0.000400 0.006463 -0.000044 0.000635 0.000000 -0.000588 0.000000 
199 1 -0.006722 0.007618 -0.002327 0.000635 0.000000 -0.000588 0.000000 
200 1 -0.008804 0.006419 -0.008681 0.000635 0.000000 -0.000588 0.000000 
201 1 -0.001219 -0.001998 -0.002862 0.000635 0.000000 -0.000588 0.000000 
202 1 0.015170 -0.002089 0.005222 0.000635 0.000000 -0.000588 0.000000 
203 1 0.005868 -0.001744 0.001773 0.000635 0.000000 -0.000588 0.000000 
204 1 0.009603 0.009363 0.008376 0.000635 0.000000 -0.000588 0.000000 
205 1 0.004539 -0.001402 -0.011402 0.000635 0.000000 -0.000588 0.000000 
206 1 0.003104 0.008461 -0.013904 0.000635 0.000000 -0.000588 0.000000 
207 1 0.006594 -0.001417 0.000646 0.000635 0.000000 -0.000588 0.000000 
208 1 0.006711 -0.001061 -0.008545 0.000635 0.000000 -0.000588 0.000000 
209 1 -0.006561 -0.001333 0.007877 0.000635 0.000000 -0.000588 0.000000 
210 1 -0.012570 0.000221 -0.004746 0.000635 0.000000 -0.000588 0.000000 
211 1 0.005016 -0.001922 -0.006304 0.000635 0.000000 -0.000588 0.000000 
212 1 0.009987 0.001472 0.000502 0.000635 0.000000 -0.000588 0.000000 
213 1 -0.014190 0.003226 -0.002592 0.000635 0.000000 -0.000588 0.000000 
214 1 -0.001174 0.000916 0.012580 0.000635 0.000000 -0.000588 0.000000 
215 1 -0.000574 0.008858 0.012062 0.000635 0.000000 -0.000588 0.000000 
216 1 0.001680 0.008317 -0.013884 0.000635 0.000000 -0.000588 0.000000 
217 1 0.016361 0.004117 0.000076 0.000635 0.000000 -0.000588 0.000000 
218 1 -0.003565 -0.002331 0.005882 0.000635 0.000000 -0.000588 0.000000 
219 1 -0.000222 0.001533 -0.012468 0.000635 0.000000 -0.000588 0.000000 
220 1 0.003891 0.013196 -0.007592 0.000635 0.000000 -0.000588 0.000000 
221 1 0.000591 0.001669 -0.015512 0.000635 0.000000 -0.000588 0.000000 
222 1 -0.007499 0.003724 0.000320 0.000635 0.000000 -0.000588 0.000000 
223 1 0.003650 0.001639 0.009404 0.000635 0.000000 -0.000588 0.000000 
224 1 0.012888 -0.001832 0.001508 0.000635 0.000000 -0.000588 0.000000 
225 1 -0.004535 0.012893 -0.002104 0.000635 0.000000 -0.000588 0.000000 
226 1 -0.000025 -0.002544 -0.012746 0.000635 0.000000 -0.000588 0.000000 
227 1 0.006979 0.001501 -0.012840 0.000635 0.000000 -0.000588 0.000000 
228 1 -0.012490 0.007256 -0.003410 0.000635 0.000000 -0.000588 0.000000 
229 1 -0.003916 0.008345 0.010662 0.000635 0.000000 -0.000588 0.000000 
230 1 0.002027 0.002179 0.015428 0.000635 0.000000 -0.000588 0.000000 
231 1 0.004958 0.003083 -0.011031 0.000635 0.000000 -0.000588 0.000000 
232 1 -0.015354 -0.000807 -0.003931 0.000635 0.000000 -0.000588 0.000000 
233 1 -0.006126 0.013590 -0.005935 0.000635 0.000000 -0.000588 0.000000 
234 1 -0.005782 0.009298 -0.000174 0.000635 0.000000 -0.000588 0.000000 
235 1 -0.007945 -0.001901 0.005037 0.000635 0.000000 -0.000588 0.000000 
236 1 -0.002653 0.000983 0.008725 0.000635 0.000000 -0.000588 0.000000 
237 1 -0.006215 0.003727 0.001714 0.000635 0.000000 -0.000588 0.000000 
238 1 0.000567 0.008099 0.003102 0.000635 0.000000 -0.000588 0.000000 
239 1 -0.010448 0.005687 0.009207 0.000635 0.000000 -0.000588 0.000000 
240 1 0.013183 0.003171 0.004855 0.000635 0.000000 -0.000588 0.000000 
241 1 0.005741 0.002338 -0.014232 0.000635 0.000000 -0.000588 0.000000 
242 1 0.008541 -0.001943 0.006475 0.000635 0.000000 -0.000588 0.000000 
243 1 -0.002400 0.013478 0.005312 0.000635 0.000000 -0.000588 0.000000 
244 1 0.000508 0.013299 0.000076 0.000635 0.000000 -0.000588 0.000000 
245 1 0.015153 0.008111 0.000107 0.000635 0.000000 -0.000588 0.000000 
246 1 -0.011875 0.008612 -0.008841 0.000635 0.000000 -0.000588 0.000000 
247 1 0.007364 0.008288 0.003046 0.000635 0.000000 -0.000588 0.000000 
248 1 -0.004777 0.001736 -0.004136 0.000635 0.000000 -0.000588 0.000000 
249 1 0.003345 0.001863 -0.006496 0.000635 0.000000 -0.000588 0.000000 
250 1 0.012999 0.000481 -0.003331 0.000635 0.000000 -0.000588 0.000000 
251 1 0.008114 0.011981 -0.001668 0.000635 0.000000 -0.000588 0.000000 
252 1 -0.012966 -0.000725 0.002691 0.000635 0.000000 -0.000588 0.000000 
253 1 -0.001188 0.013563 -0.006406 0.000635 0.000000 -0.000588 0.000000 
254 1 0.007267 0.010447 -0.002056 0.000635 0.000000 -0.000588 0.000000 
255 1 0.000798 0.003323 0.015067 0.000635 0.000000 -0.000588 0.000000 
256 1 0.000108 0.001578 0.015957 0.000635 0.000000 -0.000588 0.000000 
257 1 0.003413 -0.002135 0.006858 0.000635 0.000000 -0.000588 0.000000 
258 1 -0.005989 0.002136 -0.000854 0.000635 0.000000 -0.000588 0.000000 
259 1 -0.000484 0.002172 0.007069 0.000635 0.000000 -0.000588 0.000000 
260 1 0.014291 0.000121 0.001549 0.000635 0.000000 -0.000588 0.000000 
261 1 0.007989 -0.000752 -0.012739 0.000635 0.000000 -0.000588 0.000000 
262 1 -0.001505 0.005616 -0.003415 0.000635 0.000000 -0.000588 0.000000 
263 1 -0.001084 0.011790 0.016067 0.000635 0.000000 -0.000588 0.000000 
264 1 -0.009789 0.013440 0.009273 0.000635 0.000000 -0.000588 0.000000 
265 1 -0.005510 0.006883 0.004425 0.000635 0.000000 -0.000588 0.000000 
266 1 -0.015716 -0.001019 0.003666 0.000635 0.000000 -0.000588 0.000000 
267 1 0.006082 0.002516 -0.007854 0.000635 0.000000 -0.000588 0.000000 
268 1 -0.006920 -0.002413 -0.006885 0.000635 0.000000 -0.000588 0.000000 
269 1 0.002457 0.007113 0.003748 0.000635 0.000000 -0.000588 0.000000 
270 1 0.010721 0.009553 0.004131 0.000635 0.000000 -0.000588 0.000000 
271 1 0.008727 0.011909 0.001533 0.000635 0.000000 -0.000588 0.000000 
272 1 0.003628 -0.000746 0.005210 0.000635 0.000000 -0.000588 0.000000 
273 1 0.013120 0.000874 -0.006677 0.000635 0.000000 -0.000588 0.000000 
274 1 -0.002319 0.012016 0.013262 0.000635 0.000000 -0.000588 0.000000 
275 1 -0.006618 0.006234 -0.000715 0.000635 0.000000 -0.000588 0.000000 
276 1 0.002292 0.012928 -0.001082 0.000635 0.000000 -0.000588 0.000000 
277 1 -0.003358 0.004457 0.011714 0.000635 0.000000 -0.000588 0.000000 
278 1 0.000415 0.011087 0.016143 0.000635 0.000000 -0.000588 0.000000 
279 1 -0.000987 0.005770 0.011549 0.000635 0.000000 -0.000588 0.000000 
280 1 -0.011379 0.009460 0.010456 0.000635 0.000000 -0.000588 0.000000 
281 1 -0.001535 0.002334 -0.000636 0.000635 0.000000 -0.000588 0.000000 
282 1 0.003820 0.008705 -0.000797 0.000635 0.000000 -0.000588 0.000000 
283 1 -0.008560 0.002930 -0.003609 0.000635 0.000000 -0.000588 0.000000 
284 1 0.002135 0.011330 -0.012490 0.000635 0.000000 -0.000588 0.000000 
285 1 0.008521 0.006795 -0.006396 0.000635 0.000000 -0.000588 0.000000 
286 1 0.004488 0.001708 0.011533 0.000635 0.000000 -0.000588 0.000000 
287 1 -0.002277 0.000002 0.006384 0.000635 0.000000 -0.000588 0.000000 
288 1 -0.000595 0.000048 -0.012225 0.000635 0.000000 -0.000588 0.000000 
289 1 -0.006804 0.010705 0.008042 0.000635 0.000000 -0.000588 0.000000 
290 1 0.001204 0.004084 -0.005569 0.000635 0.000000 -0.000588 0.000000 
291 1 -0.009156 0.005041 -0.009421 0.000635 0.000000 -0.000588 0.000000 
292 1 0.009112 0.005530 0.006599 0.000635 0.000000 -0.000588 0.000000 
293 1 0.007000 0.012852 -0.002784 0.000635 0.000000 -0.000588 0.000000 
294 1 -0.003640 0.010856 0.010757 0.000635 0.000000 -0.000588 0.000000 
295 1 -0.005665 0.012768 -0.011859 0.000635 0.000000 -0.000588 0.000000 
296 1 0.006525 0.003839 -0.000505 0.000635 0.000000 -0.000588 0.000000 
297 1 -0.011941 0.003474 -0.008395 0.000635 0.000000 -0.000588 0.000000 
298 1 -0.003297 0.000523 -0.004395 0.000635 0.000000 -0.000588 0.000000 
299 1 -0.007817 0.000918 -0.004988 0.000635 0.000000 -0.000588 0.000000 
300 1 -0.009746 0.002507 0.002228 0.000635 0.000000 -0.000588 0.000000 
301 1 -0.006484 0.011775 0.014930 0.000635 0.000000 -0.000588 0.000000 
302 1 0.008716 0.003242 0.003520 0.000635 0.000000 -0.000588 0.000000 
303 1 -0.000295 0.013254 0.012411 0.000635 0.000000 -0.000588 0.000000 
304 1 0.005347 0.006424 -0.006084 0.000635 0.000000 -0.000588 0.000000 
305 1 -0.008934 0.009616 0.009411 0.000635 0.000000 -0.000588 0.000000 
306 1 -0.000372 0.008724 -0.014339 0.000635 0.000000 -0.000588 0.000000 
307 1 0.015165 0.000015 -0.004123 0.000635 0.000000 -0.000588 0.000000 
308 1 -0.010664 0.013229 0.001379 0.000635 0.000000 -0.000588 0.000000 
309 1 0.010046 0.007161 -0.008409 0.000635 0.000000 -0.000588 0.000000 
310 1 0.013371 0.003977 0.002241 0.000635 0.000000 -0.000588 0.000000 
311 1 -0.003246 -0.001286 0.004564 0.000635 0.000000 -0.000588 0.000000 
312 1 -0.000448 -0.002542 0.007795 0.000635 0.000000 -0.000588 0.000000 
313 1 0.015973 0.005369 0.000422 0.000635 0.000000 -0.000588 0.000000 
314 1 -0.007934 0.013067 0.008107 0.000635 0.000000 -0.000588 0.000000 
315 1 0.004575 0.004389 0.011266 0.000635 0.000000 -0.000588 0.000000 
316 1 -0.005720 0.000468 0.013990 0.000635 0.000000 -0.000588 0.000000 
317 1 -0.004915 0.010938 0.013225 0.000635 0.000000 -0.000588 0.000000 
318 1 0.002945 0.006064 0.000417 0.000635 0.000000 -0.000588 0.000000 
319 1 -0.014995 0.002890 -0.005766 0.000635 0.000000 -0.000588 0.000000 
320 1 -0.009429 0.003001 0.012881 0.000635 0.000000 -0.000588 0.000000 
321 1 0.000413 -0.001723 -0.013980 0.000635 0.000000 -0.000588 0.000000 
322 1 -0.006533 0.008852 -0.014015 0.000635 0.000000 -0.000588 0.000000 
323 1 -0.000244 0.007460 0.007542 0.000635 0.000000 -0.000588 0.000000 
324 1 -0.003080 0.006953 0.001107 0.000635 0.000000 -0.000588 0.000000 
325 1 0.004550 0.007258 -0.009673 0.000635 0.000000 -0.000588 0.000000 
326 1 -0.013589 0.011147 -0.001637 0.000635 0.000000 -0.000588 0.000000 
327 1 0.000337 0.004365 -0.009942 0.000635 0.000000 -0.000588 0.000000 
328 1 -0.010334 0.004913 0.001421 0.000635 0.000000 -0.000588 0.000000 
329 1 0.002858 0.003276 -0.000441 0.000635 0.000000 -0.000588 0.000000 
330 1 -0.004125 0.005490 -0.009113 0.000635 0.000000 -0.000588 0.000000 
331 1 -0.008255 0.007759 -0.000302 0.000635 0.000000 -0.000588 0.000000 
332 1 -0.007695 0.010462 -0.007227 0.000635 0.000000 -0.000588 0.000000 
333 1 0.003585 0.006517 0.007053 0.000635 0.000000 -0.000588 0.000000 
334 1 -0.000089 0.008434 -0.007196 0.000635 0.000000 -0.000588 0.000000 
335 1 -0.001741 0.002786 0.012660 0.000635 0.000000 -0.000588 0.000000 
336 1 0.013502 0.006962 0.000270 0.000635 0.000000 -0.000588 0.000000 
337 1 -0.010552 0.004656 -0.009728 0.000635 0.000000 -0.000588 0.000000 
338 1 0.005192 -0.002388 0.010321 0.000635 0.000000 -0.000588 0.000000 
339 1 -0.010929 0.013118 0.008527 0.000635 0.000000 -0.000588 0.000000 
340 1 -0.002981 -0.000819 0.002437 0.000635 0.000000 -0.000588 0.000000 
341 1 -0.001696 0.012909 0.000626 0.000635 0.000000 -0.000588 0.000000 
342 1 0.012404 0.010388 -0.009098 0.000635 0.000000 -0.000588 0.000000 
343 1 -0.009370 0.006624 0.008141 0.000635 0.000000 -0.000588 0.000000 
344 1 0.010184 0.012827 -0.010726 0.000635 0.000000 -0.000588 0.000000 
345 1 -0.009940 0.003445 0.007318 0.000635 0.000000 -0.000588 0.000000 
346 1 -0.000618 0.001074 0.010481 0.000635 0.000000 -0.000588 0.000000 
347 1 -0.015554 0.010265 0.002946 0.000635 0.000000 -0.000588 0.000000 
348 1 -0.003779 0.000874 0.010940 0.000635 0.000000 -0.000588 0.000000 
349 1 -0.005012 0.006693 -0.008451 0.000635 0.000000 -0.000588 0.000000 
350 1 -0.003880 -0.002452 -0.004232 0.000635 0.000000 -0.000588 0.000000 
351 1 -0.006362 0.011253 0.005902 0.000635 0.000000 -0.000588 0.000000 
352 1 -0.004748 0.007390 0.006554 0.000635 0.000000 -0.000588 0.000000 
353 1 0.012926 0.001780 -0.003047 0.000635 0.000000 -0.000588 0.000000 
354 1 0.009592 0.009702 -0.001449 0.000635 0.000000 -0.000588 0.000000 
355 1 -0.001116 0.013642 0.015955 0.000635 0.000000 -0.000588 0.000000 
356 1 -0.008708 0.004044 0.011028 0.000635 0.000000 -0.000588 0.000000 
357 1 0.002878 0.003629 -0.009751 0.000635 0.000000 -0.000588 0.000000 
358 1 -0.010787 -0.001984 -0.004509 0.000635 0.000000 -0.000588 0.000000 
359 1 -0.000090 -0.000184 0.000914 0.000635 0.000000 -0.000588 0.000000 
360 1 0.006317 -0.002039 0.005292 0.000635 0.000000 -0.000588 0.000000 
361 1 0.000432 0.000775 -0.001934 0.000635 0.000000 -0.000588 0.000000 
362 1 -0.005519 0.005500 0.009619 0.000635 0.000000 -0.000588 0.000000 
363 1 -0.005388 0.004191 -0.014019 0.000635 0.000000 -0.000588 0.000000 
364 1 -0.006187 0.000098 0.001816 0.000635 0.000000 -0.000588 0.000000 
365 1 -0.008152 -0.002529 -0.005161 0.000635 0.000000 -0.000588 0.000000 
366 1 -0.002482 0.003269 0.000040 0.000635 0.000000 -0.000588 0.000000 
367 1 -0.000983 0.013598 0.003058 0.000635 0.000000 -0.000588 0.000000 
368 1 -0.005727 0.008246 -0.008839 0.000635 0.000000 -0.000588 0.000000 
369 1 0.003501 0.006283 -0.015712 0.000635 0.000000 -0.000588 0.000000 
370 1 0.011164 0.008616 0.011362 0.000635 0.000000 -0.000588 0.000000 
371 1 0.001196 -0.000635 0.004569 0.000635 0.000000 -0.000588 0.000000 
372 1 0.008108 0.005581 -0.012476 0.000635 0.000000 -0.000588 0.000000 
373 1 0.001830 0.012469 -0.007306 0.000635 0.000000 -0.000588 0.000000 
374 1 0.007673 0.006827 -0.011409 0.000635 0.000000 -0.000588 0.000000 
375 1 0.008039 0.000749 -0.003889 0.000635 0.000000 -0.000588 0.000000 
376 1 0.009279 0.010926 -0.008128 0.000635 0.000000 -0.000588 0.000000 
377 1 -0.011626 0.006089 -0.000628 0.000635 0.000000 -0.000588 0.000000 
378 1 0.006985 0.006314 0.003128 0.000635 0.000000 -0.000588 0.000000 
379 1 0.002827 0.007229 -0.010104 0.000635 0.000000 -0.000588 0.000000 
380 1 0.012213 0.002779 0.000238 0.000635 0.000000 -0.000588 0.000000 
381 1 0.007608 0.002272 -0.010542 0.000635 0.000000 -0.000588 0.000000 
382 1 -0.002828 -0.001416 -0.010783 0.000635 0.000000 -0.000588 0.000000 
383 1 0.000747 0.009746 0.013908 0.000635 0.000000 -0.000588 0.000000 
384 1 -0.004197 0.012433 -0.007673 0.000635 0.000000 -0.000588 0.000000 
385 1 0.001005 -0.000777 0.009590 0.000635 0.000000 -0.000588 0.000000 
386 1 -0.014121 0.011062 0.007843 0.000635 0.000000 -0.000588 0.000000 
387 1 -0.002089 0.010005 0.005032 0.000635 0.000000 -0.000588 0.000000 
388 1 -0.007722 0.009179 0.002369 0.000635 0.000000 -0.000588 0.000000 
389 1 0.010021 0.013318 0.007405 0.000635 0.000000 -0.000588 0.000000 
390 1 -0.007083 0.013449 -0.011460 0.000635 0.000000 -0.000588 0.000000 
391 1 -0.009277 0.008003 -0.008379 0.000635 0.000000 -0.000588 0.000000 
392 1 -0.001123 0.010422 0.007597 0.000635 0.000000 -0.000588 0.000000 
393 1 0.000633 0.001351 -0.007196 0.000635 0.000000 -0.000588 0.000000 
394 1 -0.008422 0.009552 0.003721 0.000635 0.000000 -0.000588 0.000000 
395 1 0.011528 0.005146 -0.007113 0.000635 0.000000 -0.000588 0.000000 
396 1 0.009218 -0.001870 -0.000015 0.000635 0.000000 -0.000588 0.000000 
397 1 0.012939 0.006149 -0.005375 0.000635 0.000000 -0.000588 0.000000 
398 1 0.006173 0.008664 -0.014756 0.000635 0.000000 -0.000588 0.000000 
399 1 0.000464 0.004155 0.002207 0.000635 0.000000 -0.000588 0.000000 
400 1 0.006819 0.013212 0.004418 0.000635 0.000000 -0.000588 0.000000 
401 1 0.002970 0.003037 0.006527 0.000635 0.000000 -0.000588 0.000000 
402 1 0.009000 0.005509 0.012188 0.000635 0.000000 -0.000588 0.000000 
403 1 -0.009741 0.005664 -0.002978 0.000635 0.000000 -0.000588 0.000000 
404 1 0.015847 0.010229 -0.003625 0.000635 0.000000 -0.000588 0.000000 
405 1 0.006324 -0.002623 -0.005589 0.000635 0.000000 -0.000588 0.000000 
406 1 0.012995 -0.001169 -0.009028 0.000635 0.000000 -0.000588 0.000000 
407 1 0.013743 0.011470 -0.006565 0.000635 0.000000 -0.000588 0.000000 
408 1 -0.003145 0.002540 0.013922 0.000635 0.000000 -0.000588 0.000000 
409 1 0.011571 0.007085 0.001134 0.000635 0.000000 -0.000588 0.000000 
410 1 -0.004025 0.006088 -0.000280 0.000635 0.000000 -0.000588 0.000000 
411 1 -0.002819 -0.002386 0.001029 0.000635 0.000000 -0.000588 0.000000 
412 1 0.002476 0.012721 -0.014365 0.000635 0.000000 -0.000588 0.000000 
413 1 0.000047 0.011750 0.008977 0.000635 0.000000 -0.000588 0.000000 
414 1 -0.003632 0.004342 -0.003456 0.000635 0.000000 -0.000588 0.000000 