ITEM: TIMESTEP
22839503
ITEM: NUMBER OF ATOMS
458
ITEM: BOX BOUNDS ff ff ff
-0.15 0.15
-0.15 0.15
-0.15 0.15
ITEM: ATOMS id type x y z radius vx vy vz density 
1022 1 -0.0384916 -0.00974804 -0.057055 0.000175 -0.168513 -0.227246 0.113686 2650 
406 1 -0.0567833 -0.00954707 -0.0390902 6.3e-05 -0.116854 -0.222473 0.169734 2650 
322 1 -0.0653111 -0.00679869 -0.0203236 0.000635 -23.7455 -8.46862 76.278 2650 
428 1 -0.009245 -0.0013865 -0.013699 0.000175 0 -0.01175 0 2650 
1222 1 -0.00635055 -0.000865119 -0.00646649 0.000175 -0.000823926 -0.0103451 -0.00598924 2650 
863 1 -0.00955149 -0.00107182 -0.00503302 0.000175 -0.012402 0.00104983 -0.0296866 2650 
17 1 -0.000439776 -0.00262697 -0.00414066 0.000635 0.00163864 -0.0120671 0.0174452 2650 
119 1 -0.00926695 -0.00157248 -0.00440985 0.000635 -0.000110973 -0.019164 -0.03995 2650 
102 1 -0.014214 -8.74976e-05 -0.002419 6.3e-05 0 -0.01175 0 2650 
401 1 -0.0052294 -0.00170567 -0.000837254 0.000175 -0.0266288 -0.0133456 -0.0190937 2650 
1002 1 -0.0155332 -0.000553753 -0.000241624 0.000984 -0.00110222 -0.00499513 -0.0264416 2650 
1290 1 -0.010208 -0.0018425 0.001685 0.000175 0 -0.01175 0 2650 
1060 1 -0.003566 -0.0022865 0.00229 0.000175 0 -0.01175 0 2650 
629 1 -0.00248 -0.0020695 0.002813 0.000175 0 -0.01175 0 2650 
735 1 -0.010003 -0.0017625 0.004837 6.3e-05 0 -0.01175 0 2650 
1217 1 -0.00499533 -0.000882035 0.00496465 0.000175 -0.000942621 -0.0101844 -0.000321658 2650 
603 1 -0.00057709 -0.00025115 0.00597551 6.3e-05 -0.0147906 -0.00592924 -0.00692854 2650 
729 1 -0.000784035 -0.00168564 0.00955643 0.000175 -0.026215 -0.00138021 0.0144211 2650 
448 1 -0.00364 -0.0021865 0.010757 0.000635 0 -0.01175 0 2650 
1317 1 -0.00953856 -0.00295666 0.0112865 0.000175 -0.00828474 -0.0174741 -0.0142304 2650 
679 1 -0.00718078 -0.0004342 0.0137927 0.000635 -0.00111311 -0.0104519 -0.00191754 2650 
44 1 -0.00321816 -0.00303368 0.0158134 0.000635 0.00049037 -0.00548153 0.00290801 2650 
1129 1 -0.0633036 -0.0200121 0.0270167 0.000175 -0.0592307 -0.378434 -0.138761 2650 
716 1 -0.0580926 -0.0387725 0.0361062 0.000635 43.2736 -17.3229 69.5967 2650 
1209 1 -0.0543071 -0.00905031 0.0416201 0.000635 77.1314 -20.9771 100.61 2650 
243 1 -0.0278713 -0.0301837 0.0624693 0.000635 88.256 -15.3695 39.2791 2650 
734 1 -0.0290632 -0.00173278 0.0616525 0.000175 76.931 5.95991 13.5326 2650 
1049 1 -0.0259949 0.0647204 -0.0579425 0.000635 -45.3784 -0.286271 30.048 2650 
745 1 -0.027945 0.0615776 -0.0526687 0.000635 -32.6641 -0.0855747 16.6879 2650 
458 1 -0.0665399 0.0723267 -0.0175998 0.000175 -0.0390908 -0.172095 0.147767 2650 
1132 1 -0.00432604 0.0124101 -0.0163178 6.3e-05 -0.0144492 0.00554189 -0.0155795 2650 
396 1 -0.000612856 0.0226664 -0.0158763 0.000175 -0.0270007 0.0259058 -0.00215348 2650 
177 1 -0.00559724 0.0120027 -0.0149708 0.000635 0.0181223 0.00151173 -0.00194501 2650 
674 1 -0.00312653 0.0301095 -0.0154491 0.000984 0.0475138 -0.00454539 -0.0458153 2650 
945 1 -0.00098598 0.0310278 -0.0133788 0.000635 0.00346223 0.030579 0.00150175 2650 
229 1 -0.00907477 0.0340817 -0.0141447 0.000175 -0.0217587 0.030435 0.0120969 2650 
743 1 -0.00893132 0.0343168 -0.0133829 0.000635 -0.0167839 0.016429 0.0161168 2650 
200 1 -0.00478032 0.0683098 -0.013488 0.000175 -0.0188424 0.0514009 0.00818946 2650 
124 1 -0.00402292 0.00100129 -0.0123484 0.000175 -0.0180307 -0.00122716 0.00788026 2650 
252 1 -0.00153626 0.000681294 -0.0129584 0.000635 -0.0201619 -0.00663024 -0.0119035 2650 
1108 1 -0.00835292 0.0110229 -0.0126242 0.000635 0.00583048 -0.00237348 -0.0122231 2650 
887 1 -0.0115404 0.0206098 -0.0122255 0.000175 0.0448263 0.0284328 -0.0396113 2650 
405 1 -0.009473 0.0011935 -0.011251 6.3e-05 0 -0.01175 0 2650 
58 1 -0.00254038 0.016321 -0.011354 0.000175 0.00753679 0.0067844 -0.0107971 2650 
654 1 -0.0106477 0.0223803 -0.0114917 0.000635 0.0303801 -0.00974815 -0.0310886 2650 
558 1 -0.0116141 0.0243154 -0.0119776 0.000175 0.0304055 0.00670658 -0.049701 2650 
125 1 -0.0120836 0.0364381 -0.0113084 0.000175 0.00608094 0.0348567 -0.00105006 2650 
292 1 -0.012589 0.0388044 -0.0109591 0.000175 0.0722402 0.0603915 -0.0510189 2650 
760 1 -0.0119706 0.0479949 -0.0116287 0.000175 0.096607 0.0437322 -0.0841637 2650 
227 1 -0.0113347 0.0491555 -0.0109751 0.000175 0.055983 0.105246 -0.093248 2650 
687 1 -0.00676585 0.0662336 -0.0112087 0.000635 0.0141528 0.0538898 0.00101269 2650 
1283 1 -0.0118927 0.00146459 -0.00999747 0.000175 0.0028399 0.0070382 -0.00259131 2650 
628 1 -0.011833 0.0111256 -0.0101906 0.000175 -0.00397229 -0.00318633 0.0217372 2650 
515 1 -0.0120483 0.0129331 -0.0106632 0.000635 0.00527992 -0.0346938 -0.00437072 2650 
808 1 -0.0123823 0.0161206 -0.0105399 0.000635 0.0135994 0.0215253 -0.0198324 2650 
1157 1 -0.0126587 0.0288576 -0.00998527 0.000175 0.0297575 0.0310681 -0.0472738 2650 
1073 1 -0.00368542 0.0134472 -0.0091189 0.000635 0.00412311 0.00413594 -0.00364227 2650 
584 1 -0.0127017 0.0176893 -0.00935642 0.000635 -0.0226381 0.00945211 0.02341 2650 
35 1 -0.00569255 0.0172686 -0.00917547 0.000984 -0.00432786 0.0111034 -0.0113455 2650 
1146 1 -0.0136076 0.02161 -0.00895324 0.000635 -0.022254 -0.00164384 0.0426474 2650 
1161 1 -0.0144202 0.0448282 -0.00847389 0.000175 0.02617 0.0376217 -0.0464365 2650 
160 1 -0.0147062 0.00609479 -0.00798707 0.000175 0.0165715 0.00713274 -0.00762742 2650 
1292 1 -0.00919187 0.0123767 -0.00741733 0.000175 0.0294521 0.00724868 0.0316878 2650 
1250 1 -0.0147346 0.0224477 -0.00775565 0.000175 0.0125283 0.0210251 -0.0293408 2650 
837 1 -0.000471364 0.0407486 -0.007308 0.000984 0.00977576 0.0237279 0.0124406 2650 
447 1 -0.00175331 0.0680346 -0.00728389 0.000635 -0.00978417 0.0683274 -0.00219344 2650 
1137 1 -0.0091236 0.0711665 -0.00784548 0.000635 0.00443823 0.0701621 0.018467 2650 
433 1 -0.00994881 0.00469452 -0.00626408 0.000175 0.01256 -0.00499647 -0.00220083 2650 
544 1 -0.00959838 0.00849806 -0.00628806 0.000635 -4.96811e-05 -0.00218247 0.000922533 2650 
1025 1 -0.0142584 0.0114485 -0.00605005 0.000175 -0.00549784 0.00486965 0.0108988 2650 
273 1 -0.0126782 0.0215821 -0.00666667 0.000984 -0.0207269 0.0102758 0.0296136 2650 
383 1 -0.0139479 0.0232475 -0.00678768 0.000635 -0.00640817 0.0129671 0.0269333 2650 
606 1 -0.00754572 0.0354763 -0.00715294 0.000984 0.0683147 -0.0238626 0.0019756 2650 
442 1 -0.0135483 0.0371628 -0.00668861 0.000984 0.00609956 0.0171169 0.000828476 2650 
275 1 -0.0143038 0.0480457 -0.00611582 0.000984 -0.0175725 0.044589 0.0227391 2650 
809 1 -0.0116779 0.0582563 -0.0060589 0.000635 -0.0130554 0.0488113 -0.00776337 2650 
583 1 -0.00952857 0.0675966 -0.00624415 0.000635 0.0329961 0.118327 -0.0221481 2650 
832 1 -0.0159599 0.00199227 -0.00485482 0.000175 0.00195219 -0.00216197 -0.00445482 2650 
772 1 -0.0139809 0.00537193 -0.00493387 0.000984 0.00530204 -0.00301387 -0.00897154 2650 
143 1 -0.00387307 0.00486315 -0.00568639 0.000635 -0.0272878 0.00284713 -0.00545715 2650 
1121 1 -0.0120653 0.00849494 -0.00600368 0.000175 -0.11317 0.0219432 -0.200024 2650 
378 1 -8.44675e-05 0.016338 -0.00519762 0.000984 0.00304023 0.0038424 0.0168995 2650 
944 1 -0.00109963 0.00416905 -0.00458228 0.000635 0.0142116 0.0127006 0.0232122 2650 
632 1 -0.00481584 0.00691858 -0.00479321 0.000175 0.0127656 0.00458624 -0.0100377 2650 
611 1 -0.0156794 0.0106679 -0.00408138 0.000635 0.00392024 0.0109626 -0.00680455 2650 
822 1 -0.00363654 0.0172094 -0.00473899 0.000175 -0.0283102 0.00616282 -0.0258664 2650 
462 1 -0.0143098 0.0192727 -0.00369728 0.000175 -0.00150719 0.0181334 0.0100175 2650 
270 1 -0.00500602 0.0211946 -0.00432898 6.3e-05 0.000631057 0.0149424 -0.0171158 2650 
309 1 -0.0152927 0.04032 -0.00389166 0.000984 0.0607113 0.205471 -0.175849 2650 
14 1 -0.00882973 0.000606097 -0.00330095 0.000635 0.00874021 -0.00508397 -0.0376275 2650 
1310 1 -0.012161 0.0133801 -0.00281481 0.000635 0.00742624 -0.00179083 0.00726214 2650 
487 1 -0.0114163 0.0147448 -0.00283075 0.000635 0.000483758 0.0171496 0.0167714 2650 
16 1 -0.0160112 0.0218235 -0.00317088 0.000635 0.000412188 0.0339784 0.00293732 2650 
303 1 -0.0098915 0.0269425 -0.0024564 6.3e-05 0.00951828 0.0228249 0.0104577 2650 
1126 1 -0.00636083 0.00261605 -0.0019186 0.000175 -0.00880055 -0.00733419 0.00408168 2650 
1141 1 -0.010336 0.0188725 -0.0016897 0.000635 -0.0178266 0.0339307 -0.0377366 2650 
1229 1 -0.00937807 0.0488583 -0.00218636 0.000175 -0.0168426 0.0405983 -0.0253622 2650 
849 1 -0.00187286 0.0632717 -0.00209932 0.000635 -0.0224679 0.0632817 -0.0065342 2650 
1267 1 -0.00335411 0.000163104 -6.04024e-05 0.000984 -0.0190014 -0.00636229 -0.0201395 2650 
925 1 -0.0145759 0.0111439 -6.40421e-06 0.000175 -0.00720207 0.0149239 0.0167698 2650 
159 1 -0.0166674 0.0174314 -0.00106328 0.000175 -0.00267655 0.0324599 0.0594871 2650 
1105 1 -0.0147081 0.0185135 -0.000794202 0.000635 0.00892712 0.0287094 -0.0018768 2650 
182 1 -0.00914298 0.0248544 -0.00067032 0.000635 0.0106271 0.0146642 0.0203273 2650 
1111 1 -0.00146843 0.0286007 -0.000793011 0.000635 -0.0312402 0.0338034 0.0217192 2650 
579 1 -0.0156427 0.0496 -0.000275579 0.000635 -0.000664904 0.0660567 0.0156622 2650 
319 1 -0.0131394 0.0498871 -0.000726498 0.000635 0.00555886 0.0637047 0.0104497 2650 
1214 1 -0.0119642 0.00811728 0.00115717 0.000635 -0.00264812 0.00909928 0.0199036 2650 
673 1 -0.0151166 0.0148934 0.000738873 0.000984 0.0012545 0.0133336 0.0132281 2650 
616 1 -0.0108743 0.0266128 0.00105443 0.000635 0.00359359 0.0193698 -0.00371449 2650 
123 1 -0.00762007 0.0279816 0.000704784 0.000175 0.00900306 0.0191079 -0.0224558 2650 
278 1 -0.0159241 0.0287331 0.000229522 0.000635 0.000909473 0.0414937 -0.00804589 2650 
739 1 -0.00159307 0.0552169 0.000395193 0.000984 0.0303895 0.0236733 -0.0190383 2650 
646 1 -0.014784 0.0041487 0.00238826 0.000635 -0.00317731 0.00151338 0.0001997 2650 
1035 1 -0.0110103 0.00573951 0.00127171 0.000984 -0.00655506 0.00654118 -0.0235097 2650 
1243 1 -0.000611141 0.013265 0.00212803 0.000635 0.00976483 0.01002 0.0164332 2650 
164 1 -0.0118197 0.016844 0.00156569 0.000175 -0.00883722 0.0101328 0.0119284 2650 
1263 1 -0.0167224 0.0261466 0.001498 6.3e-05 -0.00283272 0.00255777 -0.0726137 2650 
987 1 -0.0104529 0.0722889 0.00124791 0.000175 -0.0264761 0.0565284 -0.00520713 2650 
540 1 -0.0109636 0.00190888 0.00253026 0.000984 -0.0217273 -0.000435374 -0.0158612 2650 
363 1 -0.00820548 0.00540708 0.00308637 0.000175 -0.0164239 0.00515617 -0.0115796 2650 
547 1 -0.00235574 0.00872285 0.00275581 0.000635 0.0112322 0.00813322 0.012015 2650 
1082 1 -0.0032179 0.0144287 0.00279329 0.000635 -0.0247094 -0.00104751 -0.00340367 2650 
380 1 -0.0149793 0.018291 0.00354935 0.000635 -0.0120889 0.0133069 -0.0316716 2650 
474 1 -0.00586131 0.0303154 0.00347109 0.000984 -0.00360683 0.0251572 0.0104254 2650 
518 1 -0.0156218 0.0382473 0.00333804 0.000635 -0.0067204 0.0337379 -0.0315381 2650 
1270 1 -0.00956025 0.056557 0.00287693 0.000635 0.17657 0.599329 0.0732034 2650 
492 1 -0.00223196 0.00478125 0.00459545 0.000175 0.0138643 -0.000277892 -0.0119647 2650 
777 1 -0.00447255 0.00871847 0.00389428 0.000635 0.0151628 0.0162944 -0.0157754 2650 
233 1 -0.00922757 0.0150835 0.00430867 0.000175 0.00892328 0.0220315 0.00430707 2650 
715 1 -0.00302269 0.0165485 0.00406626 0.000635 -0.00165457 0.024923 0.0203012 2650 
1075 1 -0.00735527 0.0234654 0.00451386 0.000635 -0.0246872 0.0156006 -0.0149744 2650 
1284 1 -0.00977157 0.0339222 0.00385778 0.000175 -0.0184046 0.0155818 -0.0281279 2650 
75 1 -0.0024 0.000435502 0.005312 0.000635 0 -0.01175 0 2650 
440 1 -0.010676 0.021122 0.00552954 6.3e-05 -0.0115646 0.0178358 -0.0101824 2650 
980 1 -0.0069988 0.0212913 0.00533534 0.000635 -0.0293405 0.0149798 0.00888169 2650 
975 1 -0.00884478 0.0222504 0.00519663 0.000635 -0.0291601 0.00760953 -0.00287779 2650 
1254 1 -0.0132233 0.046307 0.00560769 0.000175 0.00604462 0.0563944 0.0222894 2650 
876 1 -0.00829904 0.0524268 0.0059334 0.000635 -0.0292087 0.0539995 0.0185437 2650 
1273 1 -0.0123759 0.000829151 0.00675757 0.000635 0.00452415 -0.00492263 0.0176113 2650 
1089 1 -0.00700252 0.00178536 0.00718287 0.000175 0.00252253 0.00013778 -0.00361851 2650 
638 1 -0.0117318 0.00379785 0.00701141 6.3e-05 -0.00359224 -0.00110423 0.0327782 2650 
176 1 -0.0140987 0.00490553 0.00621478 0.000635 0.00743086 -0.0123024 0.0198244 2650 
372 1 -0.0116622 0.00938859 0.00700176 6.3e-05 -0.0106514 0.00351897 0.00342164 2650 
985 1 -0.0150709 0.00990447 0.00712133 0.000175 0.00620976 0.00159067 0.0241844 2650 
334 1 -0.0150938 0.0127458 0.00694023 0.000175 -0.0230009 0.0240746 -0.0288019 2650 
592 1 -0.0150278 0.018674 0.00606086 0.000175 -0.0523234 0.00207332 -0.0206025 2650 
421 1 -0.00985853 0.0229925 0.00639498 0.000635 0.0195513 0.0343204 0.0225717 2650 
741 1 -0.0124087 0.0322523 0.00676735 0.000635 0.0105627 0.0196992 -0.0101852 2650 
938 1 -0.0136716 0.0339442 0.00673059 0.000984 -0.0115934 0.0290954 -0.0322148 2650 
198 1 -0.0125386 0.0382259 0.00691729 0.000175 -0.00784119 0.0248223 -0.0294126 2650 
1071 1 -0.0132831 0.0430548 0.00697095 0.000635 -0.00459884 0.0334259 -0.00729602 2650 
700 1 -0.0100378 0.0455132 0.00609733 0.000175 0.000350887 0.0286646 -0.0189471 2650 
567 1 -0.0118025 0.0606125 0.00628698 0.000175 0.0225687 0.0490127 0.0308971 2650 
138 1 -0.0135498 0.0627866 0.00675479 0.000984 -0.0102684 0.0605442 -0.0134321 2650 
301 1 -0.0144835 0.00211997 0.00768662 0.000175 0.0198078 -0.0160147 -0.01999 2650 
336 1 -0.0122461 0.00577514 0.00729411 0.000175 -0.0282671 0.00104292 0.0158233 2650 
68 1 -0.00337854 0.00765721 0.00796986 6.3e-05 -0.0237864 -0.00245292 -0.0277489 2650 
222 1 -0.00804817 0.0131847 0.00804111 0.000175 0.0180697 0.00119093 -0.00133548 2650 
251 1 -0.0126107 0.0162658 0.00754344 0.000635 -0.00934566 0.0118756 -0.0255687 2650 
895 1 -0.0056741 0.0240427 0.00734024 0.000175 0.0088004 0.0239878 0.0114595 2650 
1190 1 -0.0142389 0.0330341 0.00750279 0.000175 -0.0181609 -0.00740698 -0.0481653 2650 
538 1 -0.00912373 0.0382687 0.00777675 6.3e-05 -0.0190435 0.0331082 -0.0164903 2650 
1036 1 -0.00973269 0.0476336 0.00752129 0.000984 0.00165473 0.0474197 -0.0159878 2650 
416 1 -0.000235202 0.00437018 0.00882553 0.000635 0.0125175 0.00970398 0.0235008 2650 
54 1 -0.0138848 0.00868549 0.00891016 0.000175 -0.0239731 0.00853593 -0.0298534 2650 
974 1 -0.00384942 0.0132619 0.0095656 0.000635 -0.0111272 0.0182777 -0.0164556 2650 
753 1 -0.0136531 0.0265188 0.00883827 0.000635 -0.024117 0.0442721 -0.0459357 2650 
835 1 -0.0138235 0.0503356 0.00871289 6.3e-05 -0.0275568 0.0358538 -0.0381332 2650 
640 1 -0.0121021 0.00471875 0.0101408 0.000984 -0.0119743 -0.00888589 -0.0226623 2650 
45 1 -0.0128005 0.00850376 0.0098579 0.000635 -0.0214554 0.00713602 -0.0247756 2650 
507 1 -0.0109455 0.0142657 0.0105428 0.000984 0.00713369 0.0089665 0.018795 2650 
55 1 -0.0133134 0.0230002 0.00986215 0.000175 0.0197589 0.0391074 0.0228908 2650 
816 1 -0.00342633 0.0268716 0.00966092 0.000635 -0.0136641 0.0378651 -0.00572406 2650 
459 1 -0.00796403 0.0359303 0.0104507 0.000175 -0.0410455 0.0271437 0.00366704 2650 
1104 1 -0.0126584 0.0402646 0.0102182 0.000635 -0.0319418 0.0200145 -0.0351519 2650 
1088 1 -0.0136261 0.0444677 0.00972936 0.000175 -0.0204975 0.0412373 -0.0457 2650 
902 1 -0.0120396 0.0601058 0.0102264 6.3e-05 -0.0225481 0.0461814 -0.0307242 2650 
1066 1 -0.0113985 0.00293339 0.0108093 6.3e-05 -0.016595 -0.0168897 -0.00976357 2650 
513 1 -0.00999382 0.00398849 0.0111953 0.000635 -0.0156947 0.00506716 -0.00507917 2650 
457 1 -0.0102706 0.00540321 0.0114752 0.000635 -0.0376472 -0.0148126 -0.000742169 2650 
1186 1 -0.00630459 0.00802801 0.0114037 0.000175 -0.0102618 -0.0315314 -0.0157184 2650 
1196 1 -0.00441791 0.0161806 0.0116767 0.000175 0.0182082 0.0132174 0.0191112 2650 
981 1 -0.00752657 0.0211023 0.0115812 0.000635 -0.0283282 0.0245647 -0.0129431 2650 
811 1 -0.00462376 0.0256826 0.0118761 0.000635 -0.0164806 0.0366846 -0.00836107 2650 
1289 1 -0.0125937 0.0306637 0.0111448 0.000175 0.00496443 0.0245678 0.00359043 2650 
537 1 -0.00886558 0.0316065 0.0118308 6.3e-05 -0.0316354 0.0289765 -0.0152623 2650 
391 1 -0.011946 0.0425427 0.0110233 0.000635 0.0109264 0.0479327 0.0141257 2650 
1123 1 -0.0104514 0.00594246 0.0130122 0.000175 -0.0496418 -0.00610835 -0.0355179 2650 
323 1 -0.0105753 0.00777281 0.0122527 0.000635 -0.0213374 0.00412183 -0.0169454 2650 
412 1 -0.00807956 0.0100257 0.0127315 0.000635 -0.00799887 0.00988186 -0.0111586 2650 
924 1 -0.0108643 0.0125128 0.0127066 0.000175 -2.01283e-05 0.0339694 -0.00250546 2650 
1281 1 -0.00946201 0.0283011 0.0123324 0.000635 0.0183352 0.0297093 0.00415943 2650 
145 1 -0.00113526 0.0547644 0.0126285 0.000635 0.244201 0.495137 0.0606278 2650 
73 1 -0.00887324 0.000322527 0.013586 0.000635 0.0116673 0.00026862 0.00624926 2650 
113 1 -0.00804556 0.00536834 0.0140187 0.000635 -0.0347628 -0.012743 -0.026621 2650 
386 1 -0.00288481 0.0063793 0.0139592 0.000635 -0.0250442 0.00427818 0.00216772 2650 
399 1 -0.00131528 0.00842401 0.0133981 0.000175 0.00344205 0.00955091 -0.00147197 2650 
1239 1 -0.00794408 0.0116579 0.013746 0.000635 -0.0182477 0.011818 -0.0072426 2650 
1189 1 -0.00942045 0.0119412 0.0133336 0.000175 0.0178507 -0.00287096 0.0123102 2650 
738 1 -0.00530278 0.0137046 0.0134685 0.000984 -0.0140413 0.0149818 -0.00513628 2650 
1256 1 -0.00504708 0.0186971 0.0139814 0.000175 -0.0167267 0.0154485 -0.0110037 2650 
1033 1 -0.00938876 0.0284153 0.0140883 6.3e-05 0.027921 0.0236854 0.0146771 2650 
21 1 -0.00875793 0.0284315 0.0139976 0.000175 -0.0372662 0.0109446 -0.0196812 2650 
871 1 -0.00412634 0.00409347 0.014833 0.000984 -0.0243381 -0.0034814 0.0204838 2650 
916 1 -0.00294671 0.00517248 0.0153505 0.000635 -0.0258233 0.0166172 0.00599158 2650 
1276 1 -0.00637179 0.00860178 0.014904 0.000635 -0.0122566 0.0048367 -0.00339856 2650 
76 1 -0.00700225 0.0101979 0.0144311 0.000635 -0.00981376 0.00988314 -0.00511447 2650 
114 1 -0.00626727 0.0114223 0.0147784 0.000635 -0.0163456 0.011201 -0.00738207 2650 
500 1 -0.00775781 0.0154184 0.0149008 0.000175 -0.018851 0.0227797 -0.00754191 2650 
521 1 -0.0039804 0.0294894 0.0144723 0.000635 0.0386361 0.0299658 0.0158744 2650 
285 1 -0.000543562 0.00159605 0.0161431 0.000635 -0.0320213 -0.0212363 0.000223859 2650 
868 1 -0.00149324 0.00266636 0.0158309 6.3e-05 -0.0410552 -0.00324499 0.0221117 2650 
752 1 -0.0019373 0.0133151 0.0157371 0.000635 -0.00835318 0.00972155 -0.00134691 2650 
1269 1 -0.00102386 0.0171691 0.016037 0.000635 -0.0184357 0.00082401 0.0211356 2650 
866 1 -0.00192336 0.0236787 0.0164328 0.000175 -0.0270441 0.0361701 -0.0134866 2650 
746 1 -0.0043723 0.0257244 0.0156351 0.000635 -0.0370058 0.0297423 -0.00667952 2650 
608 1 -0.00160493 0.0250108 0.0158219 0.000984 -0.0391146 0.020404 -0.00699072 2650 
1154 1 -0.00442124 0.0275056 0.0161234 0.000175 0.0209323 0.0313778 0.00633347 2650 
831 1 -0.03139 0.137503 -0.0612499 0.000175 -14.1844 -1.0178 7.26939 2650 
242 1 -0.0575348 0.0892061 -0.0362979 0.000984 -0.0690236 0.295712 0.1093 2650 
767 1 -0.00652776 0.0978407 -0.0132311 0.000175 -0.00999662 0.127802 0.00878039 2650 
711 1 -0.000277374 0.0772638 -0.00614251 0.000635 -0.00778286 0.0796406 -0.0270788 2650 
598 1 -0.00358768 0.141588 -0.00511988 0.000175 0.00414087 0.1476 -0.0321361 2650 
554 1 -0.00469188 0.0999888 -0.00124335 0.000635 -0.0214211 0.0974582 0.0116043 2650 
388 1 -0.00672313 0.109577 0.000545426 0.000635 0.00250789 0.0965066 -0.013685 2650 
552 1 -0.00514916 0.0930141 0.00323556 0.000635 0.00989924 0.117987 0.00458971 2650 
572 1 -0.000742119 0.0929118 0.00264257 6.3e-05 0.00506827 0.0682336 0.0295527 2650 
234 1 -0.00874615 0.0863826 0.00387492 0.000175 -0.027066 0.0797787 0.0172619 2650 
449 1 -0.0102185 0.0901635 0.00695834 0.000635 0.0102114 0.099245 0.0248 2650 
1201 1 -0.0123475 0.0932956 0.00675384 0.000984 -0.0317633 0.0979526 -0.0230487 2650 
807 1 -0.00902596 0.129908 0.0108519 0.000635 0.000253354 0.173913 0.03905 2650 
282 1 -0.000476361 0.0755261 0.0125393 0.000635 0.0154627 0.0795617 -0.0100252 2650 
623 1 -0.0296883 0.092271 0.0619906 0.000175 0.0146832 0.830297 -0.384517 2650 
254 1 0.000247031 -0.02537 -0.0683646 0.000635 -13.3317 -10.6168 -0.0436386 2650 
379 1 0.0436537 -0.0314784 -0.0526743 0.000635 -92.7724 -2.23092 -77.7027 2650 
539 1 0.0445387 -0.00403032 -0.0223192 6.3e-05 6.80718 -0.0951829 -3.4112 2650 
404 1 0.00737047 -0.00246565 -0.0122756 0.000175 -0.0147844 -0.0175608 -0.00532255 2650 
1056 1 0.008546 -0.0025225 -0.010429 0.000175 0 -0.01175 0 2650 
170 1 0.0127308 -0.00115666 -0.00642862 6.3e-05 -0.00313602 -0.00471075 0.00200946 2650 
261 1 0.00975167 -0.00294481 -0.00442394 0.000175 0.012019 -0.0155195 0.00221762 2650 
1219 1 0.00641859 -0.00173929 -0.00317344 0.000175 -0.0112185 0.00195502 -0.00934416 2650 
337 1 0.00801284 -0.00262853 -0.000575459 6.3e-05 -0.005446 -0.0468629 -0.0300014 2650 
1282 1 0.008233 -0.0018105 -0.00044 0.000175 0 -0.01175 0 2650 
1232 1 0.00961548 -0.00222969 0.00180619 6.3e-05 -0.0112625 -0.00818072 0.00971957 2650 
67 1 0.00448 -0.000452498 0.001268 6.3e-05 0 -0.01175 0 2650 
1052 1 0.0127067 -0.00115334 0.00408985 0.000175 0.00595584 -0.00757458 0.00913436 2650 
591 1 0.001823 -0.0026815 0.006113 0.000175 0 -0.01175 0 2650 
360 1 0.0147219 -0.00124226 0.00617055 0.000175 0.00226403 -0.0113467 0.00128316 2650 
900 1 0.011437 -0.000278498 0.006323 6.3e-05 0 -0.01175 0 2650 
1095 1 0.00549759 -0.000277204 0.00775057 0.000175 -0.00828325 -0.0118155 0.00238881 2650 
999 1 0.0682537 -0.0255531 0.009691 6.3e-05 0.00735538 -0.627418 -0.0518009 2650 
19 1 0.010431 -0.0012845 0.010403 0.000175 0 -0.01175 0 2650 
1175 1 0.000629743 -0.00245469 0.0137496 0.000635 0.0103349 -0.00450739 0.00301227 2650 
523 1 0.0019648 -0.00170679 0.014068 0.000635 -0.0159137 -0.00959111 -0.00083665 2650 
709 1 0.00356794 -0.00230476 0.0137833 0.000635 -0.0342862 -0.0180636 0.00202623 2650 
1017 1 0.000751593 -0.000919791 0.0132172 0.000635 -0.0130766 -0.0029256 0.0244619 2650 
237 1 0.00150004 -0.000796599 0.0138671 6.3e-05 -0.0104377 1.80836e-05 0.0235689 2650 
397 1 0.00012846 -0.00314118 0.0165342 0.000175 0.00519313 -0.00464371 0.00594418 2650 
359 1 0.0580198 -0.00511605 0.0361645 0.000175 3.18761 0.273946 -3.32346 2650 
877 1 0.0478877 -0.0141828 0.0441111 0.000635 0.292323 -0.583793 0.0469893 2650 
861 1 0.0179045 -0.0222425 0.0663922 0.000175 -0.0104668 -0.909405 -0.632677 2650 
703 1 0.00443592 0.00204706 -0.0162487 6.3e-05 -0.0167068 -0.00214175 0.000233312 2650 
483 1 0.00327468 0.00654864 -0.0158716 0.000635 -0.0185537 0.00394306 -0.000587647 2650 
235 1 0.00486981 0.00657618 -0.0158945 6.3e-05 -0.0509209 -0.0243013 -0.0126464 2650 
660 1 0.0027898 0.00754586 -0.016497 0.000175 -0.0223967 0.0160924 -0.00214396 2650 
768 1 0.00542169 0.0110556 -0.0156258 6.3e-05 -0.00567254 -0.000646633 -0.00525924 2650 
978 1 0.000800476 0.0192651 -0.0162272 0.000635 0.0391084 -0.0469042 -0.00121135 2650 
190 1 0.00165967 0.01912 -0.0163783 0.000175 0.0400794 -0.0369794 0.0202009 2650 
890 1 0.00529161 0.0565831 -0.015783 0.000175 -0.0598889 0.00846209 -0.0161329 2650 
320 1 0.00305949 0.00576962 -0.0145327 0.000635 -0.0235292 0.000312125 -0.0109892 2650 
685 1 0.00567952 0.0116847 -0.0151491 0.000635 -0.0126399 0.0132307 -0.00428492 2650 
1242 1 0.0066159 0.0254558 -0.014862 0.000635 0.000794594 0.0212288 0.000368967 2650 
1168 1 0.00570223 0.00256994 -0.0136739 0.000984 -0.0139368 0.00274257 0.0195113 2650 
1030 1 0.00693593 0.00478499 -0.0137504 0.000175 -0.0194705 0.00732862 0.0146565 2650 
1061 1 0.00314988 0.00936639 -0.0135742 0.000175 0.0121445 0.00305533 0.01388 2650 
1279 1 0.00332911 0.0122379 -0.0143704 0.000635 -0.0195835 0.0137219 0.00141015 2650 
1003 1 0.00553829 0.0232605 -0.0140252 0.000984 0.0185201 0.0227304 0.00693712 2650 
810 1 0.00798204 0.0471287 -0.0136508 0.000635 -0.103066 0.00320589 -0.0656402 2650 
885 1 0.0051199 0.0355767 -0.0127181 0.000635 0.499512 0.0248606 -0.0006472 2650 
620 1 0.00522282 0.0368639 -0.0125627 0.000635 0.0221237 0.177253 0.0300661 2650 
910 1 0.00974887 0.0462802 -0.0130608 0.000635 -0.0763264 -0.0573632 -0.0614131 2650 
1109 1 0.00263108 0.0708135 -0.0125443 0.000635 -0.00538408 0.0704725 -0.00847725 2650 
588 1 0.00441602 0.0112296 -0.011751 0.000635 0.0049521 0.0120684 -0.0189062 2650 
736 1 0.0122848 0.0116502 -0.0111874 6.3e-05 0.158159 0.0250604 0.20111 2650 
51 1 0.0117712 0.027328 -0.0113787 0.000635 -0.0445267 0.0105011 -0.0386965 2650 
751 1 0.00496892 0.0559271 -0.0117792 0.000635 0.00640898 0.0531835 -0.000391747 2650 
1107 1 0.000461463 0.0681505 -0.0112609 0.000635 0.00635888 0.079515 0.00759917 2650 
722 1 0.000479506 0.00182502 -0.0105767 0.000175 -0.000765307 -0.00724665 -0.00160405 2650 
557 1 0.00981419 0.00232571 -0.00967351 0.000175 -0.00959938 -0.00655618 -0.00412463 2650 
860 1 0.00349251 0.0173572 -0.00963203 0.000175 -0.0120933 0.0107767 0.00610397 2650 
409 1 0.00439601 0.00674571 -0.00948717 0.000984 0.0208694 0.0065613 -0.00205561 2650 
1238 1 0.00854378 0.0064699 -0.00907573 0.000635 0.0113425 0.00502485 -0.0150541 2650 
956 1 0.00579551 0.00990703 -0.00922687 0.000175 0.0230714 0.0136068 -0.0035528 2650 
1005 1 0.00879118 0.0200203 -0.00946845 0.000635 0.0019615 0.0127752 0.00715055 2650 
305 1 0.0139413 0.0214828 -0.00944853 6.3e-05 -0.0284209 0.00665004 -0.0381951 2650 
1124 1 0.0140785 0.0248111 -0.00894267 0.000175 -0.046095 -0.0057221 -0.0947891 2650 
1074 1 0.0137854 0.0273935 -0.00843043 0.000635 -0.0014616 0.0516416 -0.00219823 2650 
1234 1 0.00785168 0.0418066 -0.00899719 0.000984 0.124909 0.0185717 0.171015 2650 
1106 1 0.00618303 0.0747945 -0.00890237 0.000635 0.000395558 0.0752863 -0.00486683 2650 
605 1 0.0146783 0.00164086 -0.00813575 6.3e-05 -0.0154893 -0.00281891 0.00738958 2650 
1308 1 0.00705616 0.00507429 -0.00730668 0.000635 0.00489478 0.00216476 -0.0124769 2650 
231 1 0.0141783 0.0368613 -0.00785269 0.000175 0.00373877 0.0351565 0.00599121 2650 
642 1 0.00166954 0.0429645 -0.00825445 0.000635 0.02008 0.0382663 -0.0062114 2650 
1203 1 0.00952355 0.0484162 -0.00730744 0.000635 -0.00640186 0.0457231 0.00378129 2650 
1192 1 0.009165 0.000521502 -0.006182 0.000175 0 -0.01175 0 2650 
57 1 0.0151456 0.00384045 -0.00688721 0.000175 0.0159142 -0.00396299 0.0297133 2650 
120 1 0.00867655 0.0133772 -0.0066016 0.000175 0.0210338 0.00236549 -0.0229433 2650 
742 1 0.00812818 0.0449827 -0.00619711 0.000635 0.0107405 0.0507658 -0.0588903 2650 
1169 1 0.0128613 0.0549415 -0.0060842 0.000984 0.0527619 0.0335325 -0.00651232 2650 
141 1 0.0033701 0.059446 -0.00692969 0.000635 0.218403 0.638551 -0.2782 2650 
1177 1 0.0128884 0.065436 -0.00611749 0.000635 0.274417 0.767209 0.412537 2650 
820 1 0.0115923 0.0236342 -0.00496035 0.000175 -0.000592758 0.00584939 -0.022298 2650 
1212 1 0.0151737 0.0242653 -0.00585058 0.000635 -0.0471374 -0.0426394 -0.114536 2650 
1134 1 0.0069942 0.0384688 -0.00580838 0.000984 -0.0146809 0.0473338 -0.00808046 2650 
478 1 0.00855676 0.0402627 -0.00551325 0.000635 -0.00352845 0.0336233 0.0155016 2650 
516 1 0.00735072 0.0494374 -0.00565704 0.000635 -0.00790367 0.0451963 0.00764368 2650 
779 1 0.0152138 0.054556 -0.0057001 0.000635 0.112982 0.155141 0.40772 2650 
256 1 0.00331965 0.00589125 -0.00387052 0.000175 -0.00631574 0.000918348 0.0368233 2650 
830 1 0.0138544 0.027791 -0.00444052 0.000175 0.0128685 0.0268632 -0.0198152 2650 
867 1 0.00937365 0.0356685 -0.00415774 6.3e-05 -0.0108696 0.0444258 -0.0264712 2650 
522 1 0.011181 0.0497803 -0.0042634 0.000635 -0.0148673 0.0518393 0.0101064 2650 
1028 1 0.0142672 0.0043817 -0.00338564 0.000175 -0.00363572 0.00300268 0.000510861 2650 
923 1 0.000899887 0.00503061 -0.00309886 0.000175 -0.0304569 -0.00462838 0.00122172 2650 
1004 1 0.00577058 0.0155266 -0.00252651 0.000984 0.0169405 0.000456673 0.0136421 2650 
619 1 0.0154277 0.0177729 -0.00265781 0.000635 0.000510663 0.010565 0.00919671 2650 
1204 1 0.0136097 0.068055 -0.00294972 0.000635 0.00428032 0.0832394 0.0160074 2650 
585 1 0.0160026 0.00895611 -0.00221906 0.000635 0.00328412 -0.00361274 0.0114963 2650 
787 1 0.0165525 0.00987915 -0.00189363 0.000175 0.0010604 0.0032364 0.0206993 2650 
550 1 0.00639563 0.0181913 -0.00238457 0.000635 -0.007931 0.00591336 -0.034598 2650 
469 1 0.00812058 0.0266711 -0.00159723 0.000175 -0.0161487 0.0192049 0.00330734 2650 
784 1 0.00112832 0.0556579 -0.00165448 0.000635 -0.00628787 0.046465 0.00158843 2650 
225 1 0.004302 6.75024e-05 -0.001173 0.000175 0 -0.01175 0 2650 
1027 1 0.0141804 0.00952264 -0.000779415 0.000175 0.00402808 0.0116966 0.0274373 2650 
855 1 0.00792755 0.016014 -0.000555857 0.000175 0.00728108 0.00887921 -0.00383749 2650 
846 1 0.0160877 0.0548909 -0.00113462 0.000635 0.00104895 0.0457513 -0.0543353 2650 
108 1 0.0158848 0.000115629 0.000997921 0.000635 -0.00427179 -0.0144724 -0.00166053 2650 
1139 1 0.0160546 0.00252401 0.00113695 0.000635 -0.00213375 0.0159239 0.0194526 2650 
43 1 0.0161775 0.0429525 0.00103738 0.000635 -0.0101173 0.0276548 0.0471281 2650 
1097 1 0.00278999 0.0736771 0.00030715 0.000175 0.0029674 0.0682429 0.00574002 2650 
1119 1 0.00616309 0.00297158 0.0020288 0.000175 0.0024192 -0.0015535 -0.0133581 2650 
1298 1 0.0113348 0.0173262 0.00202463 6.3e-05 -0.0117743 0.0129712 0.00813167 2650 
1260 1 0.0107738 0.0387572 0.00157729 0.000175 0.0130798 0.0102584 -0.036602 2650 
677 1 0.0161272 0.0440858 0.00170523 0.000635 -0.0237038 0.00433525 0.132262 2650 
432 1 0.00612343 0.00649654 0.00328213 0.000175 0.11227 0.0532139 -0.073401 2650 
766 1 0.0021856 0.00778345 0.00305542 0.000175 0.0207512 0.0106803 -0.024586 2650 
952 1 0.00948412 0.0183849 0.00329486 0.000175 0.00490128 0.0366812 -0.0495973 2650 
1207 1 0.00611553 0.0269211 0.00308827 0.000635 0.00832544 0.0291855 -0.0249473 2650 
1010 1 0.000748242 0.032255 0.00350585 0.000635 0.0146182 0.0305339 0.00365413 2650 
553 1 0.0127245 0.0458856 0.0035337 0.000635 -0.0131815 0.0348592 0.0186872 2650 
60 1 0.0134486 0.0471791 0.00250524 0.000175 -0.00625497 0.0482598 0.0227166 2650 
615 1 0.00922996 0.0566142 0.00289903 0.000635 -0.00284708 0.0568367 0.013025 2650 
494 1 0.00134944 0.00166546 0.00471641 0.000175 0.00627975 -0.00446614 -0.00717155 2650 