LIGGGHTS (Version LIGGGHTS-PUBLIC 3.8.0, compiled 2022-11-07-16:55:38 by serperd1, git commit 86544c3f1215bc9744d7929e3eacf53ba086af9e)
Created orthogonal box = (-0.15 -0.15 -0.15) to (0.15 0.15 0.15)
  2 by 4 by 5 MPI processor grid

Reading STL file 'cone.stl' (mesh processing step 1/3) 

Reading STL file 'in_cyl.stl' (mesh processing step 1/3) 

Reading STL file 'top_cyl.stl' (mesh processing step 1/3) 

Reading STL file 'bot_cyl.stl' (mesh processing step 1/3) 

Reading STL file 'bottom_disk.stl' (mesh processing step 1/3) 

Reading STL file 'top_disk.stl' (mesh processing step 1/3) 
Fix particledistribution/discrete (id prob_par): distribution based on mass%:
    r_0to10p: d=1.260000e-04 (max. bounding sphere) mass%=10.000000%
    r_10to50p: d=3.492000e-04 (max. bounding sphere) mass%=40.000000%
    r_50to90p: d=1.269900e-03 (max. bounding sphere) mass%=40.000000%
    r_90to100p: d=1.968300e-03 (max. bounding sphere) mass%=10.000000%
Fix particledistribution/discrete (id prob_par): distribution based on number%:
    r_0to10p: d=1.260000e-04 (max. bounding sphere) number%=83.887052%
    r_10to50p: d=3.492000e-04 (max. bounding sphere) number%=15.763181%
    r_50to90p: d=1.269900e-03 (max. bounding sphere) number%=0.327762%
    r_90to100p: d=1.968300e-03 (max. bounding sphere) number%=0.022006%
Setting up run at Mon Jan  2 13:03:14 2023

Import and parallelization of mesh cone_mesh containing 868 triangle(s) successful
Import and parallelization of mesh inlet_cyl_wall_mesh containing 1064 triangle(s) successful
Import and parallelization of mesh top_cyl_wall_mesh containing 682 triangle(s) successful
Import and parallelization of mesh bot_cyl_wall_mesh containing 1280 triangle(s) successful
Import and parallelization of mesh bot_disk_wall_mesh containing 1682 triangle(s) successful
Import and parallelization of mesh top_disk_wall_mesh containing 1144 triangle(s) successful
Memory usage per processor = 955.842 Mbytes
    Step    Atoms         KinEng            CPU 
       0        0              0              0 
Loop time of 5.07176e-05 on 40 procs for 0 steps with 0 atoms, finish time Mon Jan  2 13:03:14 2023


Pair  time (%) = 0 (0)
Neigh time (%) = 0 (0)
Comm  time (%) = 0 (0)
Outpt time (%) = 0 (0)
Other time (%) = 5.07176e-05 (100)

Nlocal:    0 ave 0 max 0 min
Histogram: 40 0 0 0 0 0 0 0 0 0
Nghost:    0 ave 0 max 0 min
Histogram: 40 0 0 0 0 0 0 0 0 0
Neighs:    0 ave 0 max 0 min
Histogram: 40 0 0 0 0 0 0 0 0 0

Total # of neighbors = 0
Neighbor list builds = 0
Dangerous builds = 0
Setting up run at Mon Jan  2 13:03:14 2023

Memory usage per processor = 955.842 Mbytes
    Step    Atoms         KinEng            CPU 
       0        0              0              0 
       1        0              0    0.009675806 
Loop time of 0.009697 on 40 procs for 1 steps with 0 atoms, finish time Mon Jan  2 13:03:14 2023


Pair  time (%) = 2.6841e-06 (0.0276797)
Neigh time (%) = 0 (0)
Comm  time (%) = 0.000229822 (2.37003)
Outpt time (%) = 9.58819e-05 (0.988779)
Other time (%) = 0.00936862 (96.6135)

Nlocal:    0 ave 0 max 0 min
Histogram: 40 0 0 0 0 0 0 0 0 0
Nghost:    0 ave 0 max 0 min
Histogram: 40 0 0 0 0 0 0 0 0 0
Neighs:    0 ave 0 max 0 min
Histogram: 40 0 0 0 0 0 0 0 0 0

Total # of neighbors = 0
Neighbor list builds = 0
Dangerous builds = 0
Scanning dump file ...
Reading snapshot from dump file ...
  orthogonal box = (-0.15 -0.15 -0.15) to (0.15 0.15 0.15)
  0 atoms before read
  1331 atoms in snapshot
  0 atoms purged
  0 atoms replaced
  0 atoms trimmed
  1331 atoms added
  1331 atoms after read
Setting atom values ...
  1331 settings made for type
  1331 settings made for density
  1331 settings made for vy
Setting up run at Mon Jan  2 13:03:14 2023

Memory usage per processor = 960.195 Mbytes
    Step    Atoms         KinEng            CPU 
       1     1331    2.04396e-07              0 
       2     1331  2.5455856e-07     0.00923725 
Loop time of 0.00924482 on 40 procs for 1 steps with 1331 atoms, finish time Mon Jan  2 13:03:14 2023


Pair  time (%) = 3.001e-06 (0.0324614)
Neigh time (%) = 0 (0)
Comm  time (%) = 6.16532e-06 (0.0666895)
Outpt time (%) = 0.000166981 (1.80621)
Other time (%) = 0.00906867 (98.0946)

Nlocal:    33.275 ave 555 max 0 min
Histogram: 36 0 2 0 0 0 0 0 0 2
Nghost:    13.575 ave 173 max 0 min
Histogram: 36 0 0 0 0 1 1 0 0 2
Neighs:    10.175 ave 168 max 0 min
Histogram: 36 0 2 0 0 0 0 0 0 2

Total # of neighbors = 407
Ave neighs/atom = 0.305785
Neighbor list builds = 0
Dangerous builds = 0
Setting up run at Mon Jan  2 13:03:14 2023

Memory usage per processor = 960.195 Mbytes
    Step    Atoms         KinEng            CPU 
       2     1331  2.5455856e-07              0 
  205763     1331  6.9273694e-05      1958.6924 
Loop time of 1958.69 on 40 procs for 205761 steps with 1331 atoms, finish time Mon Jan  2 13:35:53 2023


Pair  time (%) = 0.495435 (0.0252942)
Neigh time (%) = 0.41368 (0.0211202)
Comm  time (%) = 1.11299 (0.0568231)
Outpt time (%) = 0.000221945 (1.13313e-05)
Other time (%) = 1956.67 (99.8968)

Nlocal:    33.275 ave 551 max 0 min
Histogram: 36 0 2 0 0 0 0 0 0 2
Nghost:    13.8 ave 171 max 0 min
Histogram: 36 0 0 0 0 1 1 0 0 2
Neighs:    11.175 ave 191 max 0 min
Histogram: 36 1 1 0 0 0 0 0 1 1

Total # of neighbors = 447
Ave neighs/atom = 0.335838
Neighbor list builds = 550
Dangerous builds = 0
Setting up run at Mon Jan  2 13:35:53 2023

Memory usage per processor = 960.195 Mbytes
    Step    Atoms         KinEng            CPU 
  205763     1331  6.9273694e-05              0 
  411524     1331  0.00040217614      1958.8791 
Loop time of 1958.88 on 40 procs for 205761 steps with 1331 atoms, finish time Mon Jan  2 14:08:32 2023


Pair  time (%) = 0.497617 (0.0254032)
Neigh time (%) = 0.412411 (0.0210534)
Comm  time (%) = 1.1509 (0.0587532)
Outpt time (%) = 0.000579523 (2.95844e-05)
Other time (%) = 1956.82 (99.8948)

Nlocal:    33.275 ave 538 max 0 min
Histogram: 36 0 2 0 0 0 0 0 0 2
Nghost:    13.625 ave 169 max 0 min
Histogram: 36 0 0 0 0 1 1 0 0 2
Neighs:    11.725 ave 197 max 0 min
Histogram: 36 1 1 0 0 0 0 0 0 2

Total # of neighbors = 469
Ave neighs/atom = 0.352367
Neighbor list builds = 550
Dangerous builds = 0
Setting up run at Mon Jan  2 14:08:32 2023

Memory usage per processor = 960.195 Mbytes
    Step    Atoms         KinEng            CPU 
  411524     1331  0.00040217614              0 
  617285     1331  0.00067128357      1955.0869 
Loop time of 1955.09 on 40 procs for 205761 steps with 1331 atoms, finish time Mon Jan  2 14:41:07 2023


Pair  time (%) = 0.500142 (0.0255816)
Neigh time (%) = 0.414197 (0.0211856)
Comm  time (%) = 1.18898 (0.0608149)
Outpt time (%) = 0.0296314 (0.00151561)
Other time (%) = 1952.95 (99.8909)

Nlocal:    33.275 ave 522 max 0 min
Histogram: 36 0 2 0 0 0 0 0 0 2
Nghost:    13.05 ave 158 max 0 min
Histogram: 36 0 0 0 0 0 1 1 0 2
Neighs:    11.9 ave 190 max 0 min
Histogram: 36 0 2 0 0 0 0 0 0 2

Total # of neighbors = 476
Ave neighs/atom = 0.357626
Neighbor list builds = 550
Dangerous builds = 0
Setting up run at Mon Jan  2 14:41:07 2023

Memory usage per processor = 960.195 Mbytes
    Step    Atoms         KinEng            CPU 
  617285     1331  0.00067128357              0 
  823046     1330   0.0010775495      1956.7137 
Loop time of 1956.81 on 40 procs for 205761 steps with 1330 atoms, finish time Mon Jan  2 15:13:44 2023


Pair  time (%) = 0.504854 (0.0257998)
Neigh time (%) = 0.702146 (0.0358821)
Comm  time (%) = 1.66011 (0.0848372)
Outpt time (%) = 0.000284876 (1.45582e-05)
Other time (%) = 1953.95 (99.8535)

Nlocal:    33.25 ave 512 max 0 min
Histogram: 36 0 1 1 0 0 0 0 0 2
Nghost:    12.925 ave 161 max 0 min
Histogram: 36 0 0 0 0 1 1 0 0 2
Neighs:    12.575 ave 203 max 0 min
Histogram: 36 0 2 0 0 0 0 0 0 2

Total # of neighbors = 503
Ave neighs/atom = 0.378195
Neighbor list builds = 914
Dangerous builds = 1
Setting up run at Mon Jan  2 15:13:44 2023

Memory usage per processor = 960.195 Mbytes
    Step    Atoms         KinEng            CPU 
  823046     1330   0.0010775495              0 
 1028807     1329  0.00057542063      1945.1863 
Loop time of 1945.19 on 40 procs for 205761 steps with 1329 atoms, finish time Mon Jan  2 15:46:09 2023


Pair  time (%) = 0.501425 (0.0257777)
Neigh time (%) = 0.537827 (0.0276491)
Comm  time (%) = 1.39056 (0.0714871)
Outpt time (%) = 0.000575147 (2.95677e-05)
Other time (%) = 1942.76 (99.8751)

Nlocal:    33.225 ave 498 max 0 min
Histogram: 36 0 1 1 0 0 0 0 0 2
Nghost:    12.25 ave 159 max 0 min
Histogram: 36 0 0 0 0 1 1 0 0 2
Neighs:    12.675 ave 194 max 0 min
Histogram: 36 0 1 1 0 0 0 0 0 2

Total # of neighbors = 507
Ave neighs/atom = 0.38149
Neighbor list builds = 702
Dangerous builds = 80
Setting up run at Mon Jan  2 15:46:09 2023

Memory usage per processor = 960.195 Mbytes
    Step    Atoms         KinEng            CPU 
 1028807     1329  0.00057542063              0 
 1234568     1328   0.0097366168       1965.334 
Loop time of 1965.34 on 40 procs for 205761 steps with 1328 atoms, finish time Mon Jan  2 16:18:55 2023


Pair  time (%) = 0.50949 (0.0259238)
Neigh time (%) = 1.79053 (0.0911055)
Comm  time (%) = 2.30347 (0.117205)
Outpt time (%) = 0.00154921 (7.88265e-05)
Other time (%) = 1960.73 (99.7657)

Nlocal:    33.2 ave 496 max 0 min
Histogram: 36 0 1 1 0 0 0 0 0 2
Nghost:    11.675 ave 155 max 0 min
Histogram: 36 0 0 0 0 2 0 0 1 1
Neighs:    11.875 ave 183 max 0 min
Histogram: 36 0 1 1 0 0 0 0 0 2

Total # of neighbors = 475
Ave neighs/atom = 0.357681
Neighbor list builds = 2235
Dangerous builds = 1
Setting up run at Mon Jan  2 16:18:55 2023

Memory usage per processor = 960.195 Mbytes
    Step    Atoms         KinEng            CPU 
 1234568     1328   0.0097366168              0 
 1440329     1320   0.0083485092      1973.5866 
Loop time of 1973.59 on 40 procs for 205761 steps with 1320 atoms, finish time Mon Jan  2 16:51:48 2023


Pair  time (%) = 0.513725 (0.02603)
Neigh time (%) = 3.1397 (0.159086)
Comm  time (%) = 3.56504 (0.180638)
Outpt time (%) = 0.000593376 (3.00659e-05)
Other time (%) = 1966.37 (99.6342)

Nlocal:    33 ave 490 max 0 min
Histogram: 36 0 1 1 0 0 0 0 0 2
Nghost:    11.025 ave 141 max 0 min
Histogram: 36 0 0 0 0 1 1 0 0 2
Neighs:    11.925 ave 180 max 0 min
Histogram: 36 0 0 1 1 0 0 0 0 2

Total # of neighbors = 477
Ave neighs/atom = 0.361364
Neighbor list builds = 3910
Dangerous builds = 88
Setting up run at Mon Jan  2 16:51:49 2023

Memory usage per processor = 960.195 Mbytes
    Step    Atoms         KinEng            CPU 
 1440329     1320   0.0083485092              0 
 1646090     1315   0.0006825829      1972.1738 
Loop time of 1972.17 on 40 procs for 205761 steps with 1315 atoms, finish time Mon Jan  2 17:24:41 2023


Pair  time (%) = 0.505742 (0.0256439)
Neigh time (%) = 2.25196 (0.114186)
Comm  time (%) = 2.48643 (0.126076)
Outpt time (%) = 0.000509162 (2.58173e-05)
Other time (%) = 1966.93 (99.7341)

Nlocal:    32.875 ave 487 max 0 min
Histogram: 36 0 1 1 0 0 0 0 0 2
Nghost:    10.6 ave 135 max 0 min
Histogram: 36 0 0 0 0 2 0 0 0 2
Neighs:    11.7 ave 178 max 0 min
Histogram: 36 0 0 2 0 0 0 0 0 2

Total # of neighbors = 468
Ave neighs/atom = 0.355894
Neighbor list builds = 2830
Dangerous builds = 374
Setting up run at Mon Jan  2 17:24:41 2023

Memory usage per processor = 960.195 Mbytes
    Step    Atoms         KinEng            CPU 
 1646090     1315   0.0006825829              0 
 1851851     1311   0.0010039372      1976.5678 
Loop time of 1976.57 on 40 procs for 205761 steps with 1311 atoms, finish time Mon Jan  2 17:57:37 2023


Pair  time (%) = 0.504028 (0.0255001)
Neigh time (%) = 1.98902 (0.10063)
Comm  time (%) = 2.48625 (0.125786)
Outpt time (%) = 0.000527066 (2.66657e-05)
Other time (%) = 1971.59 (99.7481)

Nlocal:    32.775 ave 485 max 0 min
Histogram: 36 0 1 1 0 0 0 0 0 2
Nghost:    10.375 ave 139 max 0 min
Histogram: 36 0 0 0 0 2 0 0 1 1
Neighs:    11.625 ave 177 max 0 min
Histogram: 36 0 0 2 0 0 0 0 0 2

Total # of neighbors = 465
Ave neighs/atom = 0.354691
Neighbor list builds = 2480
Dangerous builds = 6
Setting up run at Mon Jan  2 17:57:38 2023

Memory usage per processor = 960.195 Mbytes
    Step    Atoms         KinEng            CPU 
 1851851     1311   0.0010039372              0 
 2057612     1302    0.014774388      1986.4863 
Loop time of 1986.49 on 40 procs for 205761 steps with 1302 atoms, finish time Mon Jan  2 18:30:44 2023


Pair  time (%) = 0.499557 (0.0251478)
Neigh time (%) = 2.26473 (0.114007)
Comm  time (%) = 3.70885 (0.186704)
Outpt time (%) = 0.000553515 (2.7864e-05)
Other time (%) = 1980.01 (99.6741)

Nlocal:    32.55 ave 480 max 0 min
Histogram: 36 0 2 0 0 0 0 0 0 2
Nghost:    10.225 ave 135 max 0 min
Histogram: 36 0 0 0 0 1 1 0 1 1
Neighs:    11.2 ave 175 max 0 min
Histogram: 36 0 0 2 0 0 0 0 0 2

Total # of neighbors = 448
Ave neighs/atom = 0.344086
Neighbor list builds = 2830
Dangerous builds = 114
Setting up run at Mon Jan  2 18:30:44 2023

Memory usage per processor = 960.195 Mbytes
    Step    Atoms         KinEng            CPU 
 2057612     1302    0.014774388              0 
 2263373     1288    0.019637623      2029.8871 
Loop time of 2029.89 on 40 procs for 205761 steps with 1288 atoms, finish time Mon Jan  2 19:04:34 2023


Pair  time (%) = 0.505759 (0.0249156)
Neigh time (%) = 4.92989 (0.242865)
Comm  time (%) = 5.36654 (0.264376)
Outpt time (%) = 0.0005093 (2.50901e-05)
Other time (%) = 2019.08 (99.4678)

Nlocal:    32.2 ave 477 max 0 min
Histogram: 36 0 2 0 0 0 0 0 0 2
Nghost:    10 ave 125 max 0 min
Histogram: 36 0 0 0 0 0 2 0 0 2
Neighs:    10.7 ave 170 max 0 min
Histogram: 36 0 1 1 0 0 0 0 0 2

Total # of neighbors = 428
Ave neighs/atom = 0.332298
Neighbor list builds = 6071
Dangerous builds = 91
Setting up run at Mon Jan  2 19:04:34 2023

Memory usage per processor = 960.195 Mbytes
    Step    Atoms         KinEng            CPU 
 2263373     1288    0.019637623              0 
 2469134     1269   0.0066067895      2043.4753 
Loop time of 2043.48 on 40 procs for 205761 steps with 1269 atoms, finish time Mon Jan  2 19:38:38 2023


Pair  time (%) = 0.502954 (0.0246127)
Neigh time (%) = 5.18451 (0.253711)
Comm  time (%) = 6.0198 (0.294586)
Outpt time (%) = 0.000564046 (2.76023e-05)
Other time (%) = 2031.77 (99.4271)

Nlocal:    31.725 ave 481 max 0 min
Histogram: 36 0 2 0 0 0 0 0 0 2
Nghost:    9.4 ave 124 max 0 min
Histogram: 36 0 0 0 0 1 1 1 0 1
Neighs:    10.8 ave 176 max 0 min
Histogram: 36 1 1 0 0 0 0 0 0 2

Total # of neighbors = 432
Ave neighs/atom = 0.340426
Neighbor list builds = 6475
Dangerous builds = 1436
Setting up run at Mon Jan  2 19:38:38 2023

Memory usage per processor = 960.195 Mbytes
    Step    Atoms         KinEng            CPU 
 2469134     1269   0.0066067895              0 
 2674895     1255    0.057921747      2008.9927 
Loop time of 2008.99 on 40 procs for 205761 steps with 1255 atoms, finish time Mon Jan  2 20:12:07 2023


Pair  time (%) = 0.505948 (0.0251842)
Neigh time (%) = 5.62394 (0.279938)
Comm  time (%) = 5.31818 (0.264719)
Outpt time (%) = 0.000521597 (2.59631e-05)
Other time (%) = 1997.54 (99.4301)

Nlocal:    31.375 ave 481 max 0 min
Histogram: 36 0 2 0 0 0 0 0 0 2
Nghost:    9.25 ave 115 max 0 min
Histogram: 36 0 0 0 0 0 2 0 1 1
Neighs:    10.575 ave 178 max 0 min
Histogram: 36 1 1 0 0 0 0 0 1 1

Total # of neighbors = 423
Ave neighs/atom = 0.337052
Neighbor list builds = 6988
Dangerous builds = 1145
Setting up run at Mon Jan  2 20:12:07 2023

Memory usage per processor = 960.195 Mbytes
    Step    Atoms         KinEng            CPU 
 2674895     1255    0.057921747              0 
 2880656     1244     0.20921779      1999.9401 
Loop time of 1999.94 on 40 procs for 205761 steps with 1244 atoms, finish time Mon Jan  2 20:45:27 2023


Pair  time (%) = 0.506018 (0.0253017)
Neigh time (%) = 5.34591 (0.267304)
Comm  time (%) = 4.8541 (0.242712)
Outpt time (%) = 0.000550073 (2.75045e-05)
Other time (%) = 1989.23 (99.4647)

Nlocal:    31.1 ave 482 max 0 min
Histogram: 36 0 2 0 0 0 0 0 0 2
Nghost:    9.25 ave 117 max 0 min
Histogram: 36 0 0 0 0 0 2 0 1 1
Neighs:    10.125 ave 169 max 0 min
Histogram: 36 1 1 0 0 0 0 0 0 2

Total # of neighbors = 405
Ave neighs/atom = 0.325563
Neighbor list builds = 6564
Dangerous builds = 76
Setting up run at Mon Jan  2 20:45:27 2023

Memory usage per processor = 960.195 Mbytes
    Step    Atoms         KinEng            CPU 
 2880656     1244     0.20921779              0 
 3086417     1226     0.12394189      2004.7385 
Loop time of 2004.74 on 40 procs for 205761 steps with 1226 atoms, finish time Mon Jan  2 21:18:52 2023


Pair  time (%) = 0.503215 (0.0251013)
Neigh time (%) = 5.88942 (0.293775)
Comm  time (%) = 5.332 (0.26597)
Outpt time (%) = 0.000487683 (2.43265e-05)
Other time (%) = 1993.01 (99.4151)

Nlocal:    30.65 ave 481 max 0 min
Histogram: 36 0 2 0 0 0 0 0 0 2
Nghost:    9.325 ave 124 max 0 min
Histogram: 36 0 0 0 0 1 1 1 0 1
Neighs:    9.55 ave 168 max 0 min
Histogram: 36 1 1 0 0 0 0 0 1 1

Total # of neighbors = 382
Ave neighs/atom = 0.311582
Neighbor list builds = 7202
Dangerous builds = 15
Setting up run at Mon Jan  2 21:18:52 2023

Memory usage per processor = 960.195 Mbytes
    Step    Atoms         KinEng            CPU 
 3086417     1226     0.12394189              0 
 3292178     1210    0.052024891      2010.4039 
Loop time of 2010.4 on 40 procs for 205761 steps with 1210 atoms, finish time Mon Jan  2 21:52:22 2023


Pair  time (%) = 0.504809 (0.0251098)
Neigh time (%) = 5.96869 (0.29689)
Comm  time (%) = 5.89819 (0.293383)
Outpt time (%) = 0.000467774 (2.32677e-05)
Other time (%) = 1998.03 (99.3846)

Nlocal:    30.25 ave 477 max 0 min
Histogram: 36 0 2 0 0 0 0 0 0 2
Nghost:    8.9 ave 119 max 0 min
Histogram: 36 0 0 0 0 1 1 1 0 1
Neighs:    9.7 ave 164 max 0 min
Histogram: 37 0 1 0 0 0 0 0 0 2

Total # of neighbors = 388
Ave neighs/atom = 0.320661
Neighbor list builds = 7356
Dangerous builds = 171
Setting up run at Mon Jan  2 21:52:22 2023

Memory usage per processor = 960.195 Mbytes
    Step    Atoms         KinEng            CPU 
 3292178     1210    0.052024891              0 
 3497939     1196    0.014053806      1988.7554 
Loop time of 1988.76 on 40 procs for 205761 steps with 1196 atoms, finish time Mon Jan  2 22:25:31 2023


Pair  time (%) = 0.488376 (0.0245569)
Neigh time (%) = 4.32148 (0.217296)
Comm  time (%) = 6.17307 (0.310399)
Outpt time (%) = 0.000520356 (2.61649e-05)
Other time (%) = 1977.77 (99.4477)

Nlocal:    29.9 ave 469 max 0 min
Histogram: 36 0 2 0 0 0 0 0 0 2
Nghost:    8.65 ave 109 max 0 min
Histogram: 36 0 0 0 0 0 2 0 1 1
Neighs:    8.875 ave 163 max 0 min
Histogram: 37 1 0 0 0 0 0 0 0 2

Total # of neighbors = 355
Ave neighs/atom = 0.296823
Neighbor list builds = 5328
Dangerous builds = 165
Setting up run at Mon Jan  2 22:25:31 2023

Memory usage per processor = 960.195 Mbytes
    Step    Atoms         KinEng            CPU 
 3497939     1196    0.014053806              0 
 3703700     1185    0.023216188      2006.8503 
Loop time of 2006.85 on 40 procs for 205761 steps with 1185 atoms, finish time Mon Jan  2 22:58:58 2023


Pair  time (%) = 0.494514 (0.0246413)
Neigh time (%) = 5.48397 (0.273262)
Comm  time (%) = 6.92129 (0.344883)
Outpt time (%) = 0.000634812 (3.16323e-05)
Other time (%) = 1993.95 (99.3572)

Nlocal:    29.625 ave 463 max 0 min
Histogram: 36 0 2 0 0 0 0 0 0 2
Nghost:    8.525 ave 114 max 0 min
Histogram: 36 0 0 0 0 1 1 1 0 1
Neighs:    9.3 ave 158 max 0 min
Histogram: 36 1 1 0 0 0 0 0 0 2

Total # of neighbors = 372
Ave neighs/atom = 0.313924
Neighbor list builds = 6713
Dangerous builds = 8
Setting up run at Mon Jan  2 22:58:58 2023

Memory usage per processor = 960.195 Mbytes
    Step    Atoms         KinEng            CPU 
 3703700     1185    0.023216188              0 
 3909461     1167    0.019042881      2005.3977 
Loop time of 2005.4 on 40 procs for 205761 steps with 1167 atoms, finish time Mon Jan  2 23:32:23 2023


Pair  time (%) = 0.49367 (0.024617)
Neigh time (%) = 5.97983 (0.298187)
Comm  time (%) = 6.28182 (0.313246)
Outpt time (%) = 0.000478511 (2.38611e-05)
Other time (%) = 1992.64 (99.3639)

Nlocal:    29.175 ave 463 max 0 min
Histogram: 36 1 1 0 0 0 0 0 0 2
Nghost:    8.1 ave 105 max 0 min
Histogram: 36 0 0 0 0 0 2 1 0 1
Neighs:    9.175 ave 161 max 0 min
Histogram: 36 2 0 0 0 0 0 0 0 2

Total # of neighbors = 367
Ave neighs/atom = 0.314482
Neighbor list builds = 7326
Dangerous builds = 210
Setting up run at Mon Jan  2 23:32:23 2023

Memory usage per processor = 960.195 Mbytes
    Step    Atoms         KinEng            CPU 
 3909461     1167    0.019042881              0 
 4115222     1155    0.047558864      2005.1245 
Loop time of 2005.12 on 40 procs for 205761 steps with 1155 atoms, finish time Tue Jan  3 00:05:49 2023


Pair  time (%) = 0.484141 (0.0241452)
Neigh time (%) = 5.80793 (0.289654)
Comm  time (%) = 6.51324 (0.32483)
Outpt time (%) = 0.000497053 (2.47891e-05)
Other time (%) = 1992.32 (99.3613)

Nlocal:    28.875 ave 461 max 0 min
Histogram: 36 1 1 0 0 0 0 0 0 2
Nghost:    8.1 ave 110 max 0 min
Histogram: 36 0 0 0 0 0 3 0 0 1
Neighs:    8.525 ave 157 max 0 min
Histogram: 36 2 0 0 0 0 0 0 0 2

Total # of neighbors = 341
Ave neighs/atom = 0.295238
Neighbor list builds = 7099
Dangerous builds = 260
Setting up run at Tue Jan  3 00:05:49 2023

Memory usage per processor = 960.195 Mbytes
    Step    Atoms         KinEng            CPU 
 4115222     1155    0.047558864              0 
 4320983     1141    0.088968076      2011.6847 
Loop time of 2011.68 on 40 procs for 205761 steps with 1141 atoms, finish time Tue Jan  3 00:39:20 2023


Pair  time (%) = 0.484497 (0.0240841)
Neigh time (%) = 5.91686 (0.294124)
Comm  time (%) = 5.38362 (0.267618)
Outpt time (%) = 0.000516007 (2.56505e-05)
Other time (%) = 1999.9 (99.4141)

Nlocal:    28.525 ave 456 max 0 min
Histogram: 36 1 1 0 0 0 0 0 0 2
Nghost:    7.85 ave 105 max 0 min
Histogram: 36 0 0 0 0 0 2 1 0 1
Neighs:    7.9 ave 143 max 0 min
Histogram: 36 2 0 0 0 0 0 0 0 2

Total # of neighbors = 316
Ave neighs/atom = 0.27695
Neighbor list builds = 7217
Dangerous builds = 90
Setting up run at Tue Jan  3 00:39:20 2023

Memory usage per processor = 960.195 Mbytes
    Step    Atoms         KinEng            CPU 
 4320983     1141    0.088968076              0 
 4526744     1136    0.042754796      1988.8732 
Loop time of 1988.87 on 40 procs for 205761 steps with 1136 atoms, finish time Tue Jan  3 01:12:29 2023


Pair  time (%) = 0.474363 (0.0238508)
Neigh time (%) = 4.25038 (0.213708)
Comm  time (%) = 5.6988 (0.286534)
Outpt time (%) = 0.000540627 (2.71826e-05)
Other time (%) = 1978.45 (99.4759)

Nlocal:    28.4 ave 446 max 0 min
Histogram: 36 1 1 0 0 0 0 0 0 2
Nghost:    8.125 ave 96 max 0 min
Histogram: 36 0 0 0 0 0 1 1 0 2
Neighs:    7.475 ave 138 max 0 min
Histogram: 37 1 0 0 0 0 0 0 0 2

Total # of neighbors = 299
Ave neighs/atom = 0.263204
Neighbor list builds = 5202
Dangerous builds = 4
Setting up run at Tue Jan  3 01:12:29 2023

Memory usage per processor = 960.195 Mbytes
    Step    Atoms         KinEng            CPU 
 4526744     1136    0.042754796              0 
 4732505     1123    0.056223994      1997.5208 
Loop time of 1997.52 on 40 procs for 205761 steps with 1123 atoms, finish time Tue Jan  3 01:45:47 2023


Pair  time (%) = 0.473451 (0.0237019)
Neigh time (%) = 5.03343 (0.251984)
Comm  time (%) = 6.08707 (0.304731)
Outpt time (%) = 0.000500088 (2.50355e-05)
Other time (%) = 1985.93 (99.4196)

Nlocal:    28.075 ave 437 max 0 min
Histogram: 36 1 1 0 0 0 0 0 0 2
Nghost:    8.3 ave 98 max 0 min
Histogram: 36 0 0 0 0 0 1 1 0 2
Neighs:    6.85 ave 131 max 0 min
Histogram: 37 1 0 0 0 0 0 0 0 2

Total # of neighbors = 274
Ave neighs/atom = 0.243989
Neighbor list builds = 6188
Dangerous builds = 456
Setting up run at Tue Jan  3 01:45:47 2023

Memory usage per processor = 960.195 Mbytes
    Step    Atoms         KinEng            CPU 
 4732505     1123    0.056223994              0 
 4938266     1111    0.072874077      2004.4892 
Loop time of 2004.49 on 40 procs for 205761 steps with 1111 atoms, finish time Tue Jan  3 02:19:12 2023


Pair  time (%) = 0.474985 (0.0236961)
Neigh time (%) = 5.92603 (0.295638)
Comm  time (%) = 7.58121 (0.378211)
Outpt time (%) = 0.00050319 (2.51031e-05)
Other time (%) = 1990.51 (99.3024)

Nlocal:    27.775 ave 440 max 0 min
Histogram: 36 1 1 0 0 0 0 0 0 2
Nghost:    8.125 ave 98 max 0 min
Histogram: 36 0 0 0 0 0 1 1 0 2
Neighs:    7.1 ave 133 max 0 min
Histogram: 37 1 0 0 0 0 0 0 0 2

Total # of neighbors = 284
Ave neighs/atom = 0.255626
Neighbor list builds = 7285
Dangerous builds = 501
Setting up run at Tue Jan  3 02:19:12 2023

Memory usage per processor = 960.195 Mbytes
    Step    Atoms         KinEng            CPU 
 4938266     1111    0.072874077              0 
 5144027     1098    0.057250542      1991.0565 
Loop time of 1991.06 on 40 procs for 205761 steps with 1098 atoms, finish time Tue Jan  3 02:52:23 2023


Pair  time (%) = 0.470113 (0.0236112)
Neigh time (%) = 4.514 (0.226714)
Comm  time (%) = 4.86889 (0.244538)
Outpt time (%) = 0.000552 (2.7724e-05)
Other time (%) = 1981.2 (99.5051)

Nlocal:    27.45 ave 443 max 0 min
Histogram: 36 1 1 0 0 0 0 0 0 2
Nghost:    7.85 ave 93 max 0 min
Histogram: 36 0 0 0 0 0 1 1 0 2
Neighs:    6.925 ave 134 max 0 min
Histogram: 37 1 0 0 0 0 0 0 1 1

Total # of neighbors = 277
Ave neighs/atom = 0.252277
Neighbor list builds = 5537
Dangerous builds = 121
Setting up run at Tue Jan  3 02:52:23 2023

Memory usage per processor = 960.195 Mbytes
    Step    Atoms         KinEng            CPU 
 5144027     1098    0.057250542              0 
 5349788     1092       0.123199      2006.9208 
Loop time of 2006.92 on 40 procs for 205761 steps with 1092 atoms, finish time Tue Jan  3 03:25:50 2023


Pair  time (%) = 0.472233 (0.0235302)
Neigh time (%) = 6.27929 (0.312882)
Comm  time (%) = 7.73619 (0.385476)
Outpt time (%) = 0.000544657 (2.71389e-05)
Other time (%) = 1992.43 (99.2781)

Nlocal:    27.3 ave 439 max 0 min
Histogram: 36 2 0 0 0 0 0 0 0 2
Nghost:    7.3 ave 88 max 0 min
Histogram: 36 0 0 0 0 0 1 1 1 1
Neighs:    6.6 ave 130 max 0 min
Histogram: 37 1 0 0 0 0 0 1 0 1

Total # of neighbors = 264
Ave neighs/atom = 0.241758
Neighbor list builds = 7689
Dangerous builds = 5
Setting up run at Tue Jan  3 03:25:50 2023

Memory usage per processor = 960.195 Mbytes
    Step    Atoms         KinEng            CPU 
 5349788     1092       0.123199              0 
 5555549     1075    0.047637018      2021.7215 
Loop time of 2021.72 on 40 procs for 205761 steps with 1075 atoms, finish time Tue Jan  3 03:59:31 2023


Pair  time (%) = 0.476476 (0.0235678)
Neigh time (%) = 7.17867 (0.355077)
Comm  time (%) = 7.86439 (0.388995)
Outpt time (%) = 0.000503666 (2.49127e-05)
Other time (%) = 2006.2 (99.2323)

Nlocal:    26.875 ave 420 max 0 min
Histogram: 36 0 2 0 0 0 0 0 0 2
Nghost:    7.175 ave 89 max 0 min
Histogram: 36 0 0 0 0 1 1 0 0 2
Neighs:    6.55 ave 118 max 0 min
Histogram: 37 1 0 0 0 0 0 0 0 2

Total # of neighbors = 262
Ave neighs/atom = 0.243721
Neighbor list builds = 8815
Dangerous builds = 58
Setting up run at Tue Jan  3 03:59:32 2023

Memory usage per processor = 960.195 Mbytes
    Step    Atoms         KinEng            CPU 
 5555549     1075    0.047637018              0 
 5761310     1055    0.045833844      2010.1295 
Loop time of 2010.13 on 40 procs for 205761 steps with 1055 atoms, finish time Tue Jan  3 04:33:02 2023


Pair  time (%) = 0.471605 (0.0234614)
Neigh time (%) = 6.65961 (0.331303)
Comm  time (%) = 8.76483 (0.436033)
Outpt time (%) = 0.000514559 (2.55983e-05)
Other time (%) = 1994.23 (99.2092)

Nlocal:    26.375 ave 417 max 0 min
Histogram: 36 1 1 0 0 0 0 0 0 2
Nghost:    6.8 ave 86 max 0 min
Histogram: 36 0 0 0 1 0 1 0 0 2
Neighs:    6.25 ave 117 max 0 min
Histogram: 36 2 0 0 0 0 0 0 1 1

Total # of neighbors = 250
Ave neighs/atom = 0.236967
Neighbor list builds = 8218
Dangerous builds = 1462
Setting up run at Tue Jan  3 04:33:02 2023

Memory usage per processor = 960.195 Mbytes
    Step    Atoms         KinEng            CPU 
 5761310     1055    0.045833844              0 
 5967071     1042    0.049380344      2005.6386 
Loop time of 2005.64 on 40 procs for 205761 steps with 1042 atoms, finish time Tue Jan  3 05:06:27 2023


Pair  time (%) = 0.467608 (0.0233147)
Neigh time (%) = 6.11101 (0.304691)
Comm  time (%) = 7.59743 (0.378804)
Outpt time (%) = 0.000465727 (2.32209e-05)
Other time (%) = 1991.46 (99.2932)

Nlocal:    26.05 ave 408 max 0 min
Histogram: 36 1 1 0 0 0 0 0 0 2
Nghost:    7.1 ave 97 max 0 min
Histogram: 36 0 0 0 1 1 0 0 1 1
Neighs:    5.775 ave 114 max 0 min
Histogram: 36 2 0 0 0 0 0 0 1 1

Total # of neighbors = 231
Ave neighs/atom = 0.221689
Neighbor list builds = 7580
Dangerous builds = 492
Setting up run at Tue Jan  3 05:06:28 2023

Memory usage per processor = 960.195 Mbytes
    Step    Atoms         KinEng            CPU 
 5967071     1042    0.049380344              0 
 6172832     1023    0.033717969      2012.7112 
Loop time of 2012.71 on 40 procs for 205761 steps with 1023 atoms, finish time Tue Jan  3 05:40:00 2023


Pair  time (%) = 0.464273 (0.023067)
Neigh time (%) = 6.90083 (0.342862)
Comm  time (%) = 7.15022 (0.355253)
Outpt time (%) = 0.000457152 (2.27132e-05)
Other time (%) = 1998.2 (99.2788)

Nlocal:    25.575 ave 401 max 0 min
Histogram: 36 1 1 0 0 0 0 0 0 2
Nghost:    6.75 ave 89 max 0 min
Histogram: 36 0 0 0 1 0 1 0 0 2
Neighs:    5.475 ave 98 max 0 min
Histogram: 36 2 0 0 0 0 0 0 0 2

Total # of neighbors = 219
Ave neighs/atom = 0.214076
Neighbor list builds = 8487
Dangerous builds = 32
Setting up run at Tue Jan  3 05:40:00 2023

Memory usage per processor = 960.195 Mbytes
    Step    Atoms         KinEng            CPU 
 6172832     1023    0.033717969              0 
 6378593     1007    0.076125496      2132.2815 
Loop time of 2132.28 on 40 procs for 205761 steps with 1007 atoms, finish time Tue Jan  3 06:15:33 2023


Pair  time (%) = 0.457767 (0.0214684)
Neigh time (%) = 6.36572 (0.29854)
Comm  time (%) = 6.44288 (0.302159)
Outpt time (%) = 0.00049559 (2.32422e-05)
Other time (%) = 2119.01 (99.3778)

Nlocal:    25.175 ave 410 max 0 min
Histogram: 36 1 1 0 0 0 0 0 0 2
Nghost:    6.6 ave 84 max 0 min
Histogram: 36 0 0 0 1 0 1 0 0 2
Neighs:    5.35 ave 96 max 0 min
Histogram: 36 2 0 0 0 0 0 0 0 2

Total # of neighbors = 214
Ave neighs/atom = 0.212512
Neighbor list builds = 7845
Dangerous builds = 392
Setting up run at Tue Jan  3 06:15:33 2023

Memory usage per processor = 960.195 Mbytes
    Step    Atoms         KinEng            CPU 
 6378593     1007    0.076125496              0 
 6584354      991    0.022805353      1989.8124 
Loop time of 1989.81 on 40 procs for 205761 steps with 991 atoms, finish time Tue Jan  3 06:48:43 2023


Pair  time (%) = 0.453089 (0.0227704)
Neigh time (%) = 4.55544 (0.228938)
Comm  time (%) = 5.06156 (0.254373)
Outpt time (%) = 0.000461374 (2.31868e-05)
Other time (%) = 1979.74 (99.4939)

Nlocal:    24.775 ave 394 max 0 min
Histogram: 36 0 2 0 0 0 0 0 0 2
Nghost:    6.475 ave 89 max 0 min
Histogram: 36 0 0 1 0 0 1 0 1 1
Neighs:    5.525 ave 108 max 0 min
Histogram: 36 2 0 0 0 0 0 1 0 1

Total # of neighbors = 221
Ave neighs/atom = 0.223007
Neighbor list builds = 5647
Dangerous builds = 970
Setting up run at Tue Jan  3 06:48:43 2023

Memory usage per processor = 960.195 Mbytes
    Step    Atoms         KinEng            CPU 
 6584354      991    0.022805353              0 
 6790115      975    0.037723356      1975.5811 
Loop time of 1975.58 on 40 procs for 205761 steps with 975 atoms, finish time Tue Jan  3 07:21:38 2023


Pair  time (%) = 0.451217 (0.0228397)
Neigh time (%) = 3.03497 (0.153624)
Comm  time (%) = 3.88116 (0.196457)
Outpt time (%) = 0.000682893 (3.45667e-05)
Other time (%) = 1968.21 (99.627)

Nlocal:    24.375 ave 391 max 0 min
Histogram: 36 0 2 0 0 0 0 0 0 2
Nghost:    6.225 ave 85 max 0 min
Histogram: 36 0 0 0 1 0 1 0 1 1
Neighs:    4.9 ave 96 max 0 min
Histogram: 36 2 0 0 0 0 0 1 0 1

Total # of neighbors = 196
Ave neighs/atom = 0.201026
Neighbor list builds = 3769
Dangerous builds = 269
Setting up run at Tue Jan  3 07:21:38 2023

Memory usage per processor = 960.195 Mbytes
    Step    Atoms         KinEng            CPU 
 6790115      975    0.037723356              0 
 6995876      960    0.040132013      2009.9403 
Loop time of 2009.94 on 40 procs for 205761 steps with 960 atoms, finish time Tue Jan  3 07:55:08 2023


Pair  time (%) = 0.448876 (0.0223328)
Neigh time (%) = 6.4269 (0.319756)
Comm  time (%) = 9.88454 (0.491782)
Outpt time (%) = 0.000472933 (2.35297e-05)
Other time (%) = 1993.18 (99.1661)

Nlocal:    24 ave 404 max 0 min
Histogram: 36 1 1 0 0 0 0 1 0 1
Nghost:    5.525 ave 74 max 0 min
Histogram: 36 0 0 1 0 0 1 0 1 1
Neighs:    3.475 ave 96 max 0 min
Histogram: 38 0 0 1 0 0 0 0 0 1

Total # of neighbors = 139
Ave neighs/atom = 0.144792
Neighbor list builds = 7905
Dangerous builds = 647
Setting up run at Tue Jan  3 07:55:08 2023

Memory usage per processor = 960.195 Mbytes
    Step    Atoms         KinEng            CPU 
 6995876      960    0.040132013              0 
 7201637      949    0.035050705      1996.6858 
Loop time of 1996.69 on 40 procs for 205761 steps with 949 atoms, finish time Tue Jan  3 08:28:25 2023


Pair  time (%) = 0.444375 (0.0222556)
Neigh time (%) = 5.51131 (0.276023)
Comm  time (%) = 9.54329 (0.477956)
Outpt time (%) = 0.000467817 (2.34297e-05)
Other time (%) = 1981.19 (99.2237)

Nlocal:    23.725 ave 387 max 0 min
Histogram: 36 1 1 0 0 0 0 1 0 1
Nghost:    5.25 ave 76 max 0 min
Histogram: 36 0 1 0 0 1 0 1 0 1
Neighs:    3.3 ave 90 max 0 min
Histogram: 37 1 1 0 0 0 0 0 0 1

Total # of neighbors = 132
Ave neighs/atom = 0.139094
Neighbor list builds = 6765
Dangerous builds = 77
Setting up run at Tue Jan  3 08:28:25 2023

Memory usage per processor = 960.195 Mbytes
    Step    Atoms         KinEng            CPU 
 7201637      949    0.035050705              0 
 7407398      927    0.086105425      2019.8545 
Loop time of 2019.85 on 40 procs for 205761 steps with 927 atoms, finish time Tue Jan  3 09:02:05 2023


Pair  time (%) = 0.447317 (0.022146)
Neigh time (%) = 7.43992 (0.368339)
Comm  time (%) = 11.0353 (0.546342)
Outpt time (%) = 0.000490367 (2.42773e-05)
Other time (%) = 2000.93 (99.0631)

Nlocal:    23.175 ave 363 max 0 min
Histogram: 36 1 1 0 0 0 0 0 1 1
Nghost:    5.025 ave 82 max 0 min
Histogram: 36 0 1 0 1 0 1 0 0 1
Neighs:    3.05 ave 80 max 0 min
Histogram: 37 1 0 1 0 0 0 0 0 1

Total # of neighbors = 122
Ave neighs/atom = 0.131607
Neighbor list builds = 9150
Dangerous builds = 369
Setting up run at Tue Jan  3 09:02:05 2023

Memory usage per processor = 960.195 Mbytes
    Step    Atoms         KinEng            CPU 
 7407398      927    0.086105425              0 
 7613159      908    0.068816659      2075.4651 
Loop time of 2075.47 on 40 procs for 205761 steps with 908 atoms, finish time Tue Jan  3 09:36:41 2023


Pair  time (%) = 0.439078 (0.0211556)
Neigh time (%) = 6.84028 (0.329578)
Comm  time (%) = 12.0732 (0.58171)
Outpt time (%) = 0.000431503 (2.07907e-05)
Other time (%) = 2056.11 (99.0675)

Nlocal:    22.7 ave 349 max 0 min
Histogram: 36 1 1 0 0 0 0 0 1 1
Nghost:    5.05 ave 77 max 0 min
Histogram: 36 0 1 0 1 0 0 1 0 1
Neighs:    2.475 ave 57 max 0 min
Histogram: 37 1 0 0 1 0 0 0 0 1

Total # of neighbors = 99
Ave neighs/atom = 0.109031
Neighbor list builds = 8480
Dangerous builds = 1104
Setting up run at Tue Jan  3 09:36:41 2023

Memory usage per processor = 960.195 Mbytes
    Step    Atoms         KinEng            CPU 
 7613159      908    0.068816659              0 
 7818920      898    0.085695688      2044.9865 
Loop time of 2044.99 on 40 procs for 205761 steps with 898 atoms, finish time Tue Jan  3 10:10:46 2023


Pair  time (%) = 0.434163 (0.0212306)
Neigh time (%) = 6.6711 (0.326217)
Comm  time (%) = 10.6479 (0.520683)
Outpt time (%) = 0.000470187 (2.29922e-05)
Other time (%) = 2027.23 (99.1318)

Nlocal:    22.45 ave 342 max 0 min
Histogram: 36 1 1 0 0 0 0 0 0 2
Nghost:    4.925 ave 71 max 0 min
Histogram: 36 0 1 0 0 1 0 1 0 1
Neighs:    2.325 ave 52 max 0 min
Histogram: 36 2 0 0 1 0 0 0 0 1

Total # of neighbors = 93
Ave neighs/atom = 0.103563
Neighbor list builds = 8188
Dangerous builds = 499
Setting up run at Tue Jan  3 10:10:46 2023

Memory usage per processor = 960.195 Mbytes
    Step    Atoms         KinEng            CPU 
 7818920      898    0.085695688              0 
 8024681      861    0.098190023      2089.9036 
Loop time of 2089.9 on 40 procs for 205761 steps with 861 atoms, finish time Tue Jan  3 10:45:36 2023


Pair  time (%) = 0.43792 (0.0209541)
Neigh time (%) = 11.1859 (0.535237)
Comm  time (%) = 16.952 (0.81114)
Outpt time (%) = 0.000534384 (2.55698e-05)
Other time (%) = 2061.33 (98.6326)

Nlocal:    21.525 ave 323 max 0 min
Histogram: 36 1 1 0 0 0 0 0 0 2
Nghost:    4.725 ave 69 max 0 min
Histogram: 36 0 0 1 0 0 2 0 0 1
Neighs:    2.325 ave 52 max 0 min
Histogram: 37 1 0 0 0 1 0 0 0 1

Total # of neighbors = 93
Ave neighs/atom = 0.108014
Neighbor list builds = 13785
Dangerous builds = 1769
Setting up run at Tue Jan  3 10:45:36 2023

Memory usage per processor = 960.195 Mbytes
    Step    Atoms         KinEng            CPU 
 8024681      861    0.098190023              0 
 8230442      835    0.022020658      2050.3917 
Loop time of 2050.39 on 40 procs for 205761 steps with 835 atoms, finish time Tue Jan  3 11:19:46 2023


Pair  time (%) = 0.425853 (0.0207693)
Neigh time (%) = 7.8008 (0.380454)
Comm  time (%) = 12.6534 (0.617119)
Outpt time (%) = 0.0129987 (0.000633962)
Other time (%) = 2029.5 (98.981)

Nlocal:    20.875 ave 311 max 0 min
Histogram: 36 1 1 0 0 0 0 0 0 2
Nghost:    4.45 ave 70 max 0 min
Histogram: 36 0 0 1 1 1 0 0 0 1
Neighs:    2.025 ave 38 max 0 min
Histogram: 37 0 0 1 0 0 0 1 0 1

Total # of neighbors = 81
Ave neighs/atom = 0.097006
Neighbor list builds = 9603
Dangerous builds = 1494
Setting up run at Tue Jan  3 11:19:46 2023

Memory usage per processor = 960.195 Mbytes
    Step    Atoms         KinEng            CPU 
 8230442      835    0.022020658              0 
 8436203      816     0.25725041      2057.3537 
Loop time of 2057.35 on 40 procs for 205761 steps with 816 atoms, finish time Tue Jan  3 11:54:04 2023


Pair  time (%) = 0.426741 (0.0207422)
Neigh time (%) = 7.56797 (0.36785)
Comm  time (%) = 13.1923 (0.641227)
Outpt time (%) = 0.000428704 (2.08377e-05)
Other time (%) = 2036.17 (98.9702)

Nlocal:    20.4 ave 301 max 0 min
Histogram: 36 1 1 0 0 0 0 0 0 2
Nghost:    3.875 ave 58 max 0 min
Histogram: 36 0 0 1 0 2 0 0 0 1
Neighs:    1.475 ave 30 max 0 min
Histogram: 36 1 1 0 0 0 1 0 0 1

Total # of neighbors = 59
Ave neighs/atom = 0.0723039
Neighbor list builds = 9285
Dangerous builds = 131
Setting up run at Tue Jan  3 11:54:04 2023

Memory usage per processor = 960.195 Mbytes
    Step    Atoms         KinEng            CPU 
 8436203      816     0.25725041              0 
 8641964      793     0.06686525      2029.4963 
Loop time of 2029.5 on 40 procs for 205761 steps with 793 atoms, finish time Tue Jan  3 12:27:53 2023


Pair  time (%) = 0.428375 (0.0211075)
Neigh time (%) = 9.18012 (0.452335)
Comm  time (%) = 15.323 (0.755015)
Outpt time (%) = 0.000481169 (2.37088e-05)
Other time (%) = 2004.56 (98.7715)

Nlocal:    19.825 ave 295 max 0 min
Histogram: 36 1 1 0 0 0 0 0 0 2
Nghost:    4.025 ave 59 max 0 min
Histogram: 36 0 0 1 0 1 1 0 0 1
Neighs:    1.575 ave 31 max 0 min
Histogram: 37 0 0 1 0 0 1 0 0 1

Total # of neighbors = 63
Ave neighs/atom = 0.0794451
Neighbor list builds = 11220
Dangerous builds = 19
Setting up run at Tue Jan  3 12:27:53 2023

Memory usage per processor = 960.195 Mbytes
    Step    Atoms         KinEng            CPU 
 8641964      793     0.06686525              0 
 8847725      765      2.2611318      2004.3263 
Loop time of 2004.33 on 40 procs for 205761 steps with 765 atoms, finish time Tue Jan  3 13:01:18 2023


Pair  time (%) = 0.416766 (0.0207933)
Neigh time (%) = 6.96203 (0.34735)
Comm  time (%) = 9.93152 (0.495504)
Outpt time (%) = 0.00066874 (3.33648e-05)
Other time (%) = 1987.02 (99.1363)

Nlocal:    19.125 ave 295 max 0 min
Histogram: 36 1 1 0 0 0 0 0 0 2
Nghost:    3.825 ave 59 max 0 min
Histogram: 36 0 0 1 1 1 0 0 0 1
Neighs:    1.4 ave 26 max 0 min
Histogram: 37 0 0 1 0 0 1 0 0 1

Total # of neighbors = 56
Ave neighs/atom = 0.0732026
Neighbor list builds = 8557
Dangerous builds = 865
Setting up run at Tue Jan  3 13:01:18 2023

Memory usage per processor = 960.195 Mbytes
    Step    Atoms         KinEng            CPU 
 8847725      765      2.2611318              0 
 9053486      753    0.039294988      1979.4473 
Loop time of 1979.45 on 40 procs for 205761 steps with 753 atoms, finish time Tue Jan  3 13:34:17 2023


Pair  time (%) = 0.408537 (0.020639)
Neigh time (%) = 4.13407 (0.20885)
Comm  time (%) = 7.15926 (0.36168)
Outpt time (%) = 0.000537833 (2.71709e-05)
Other time (%) = 1967.75 (99.4088)

Nlocal:    18.825 ave 286 max 0 min
Histogram: 36 1 1 0 0 0 0 0 0 2
Nghost:    4.125 ave 60 max 0 min
Histogram: 36 0 0 1 0 1 0 1 0 1
Neighs:    1.375 ave 20 max 0 min
Histogram: 36 1 0 0 0 0 0 1 0 2

Total # of neighbors = 55
Ave neighs/atom = 0.0730412
Neighbor list builds = 5086
Dangerous builds = 253
Setting up run at Tue Jan  3 13:34:17 2023

Memory usage per processor = 960.195 Mbytes
    Step    Atoms         KinEng            CPU 
 9053486      753    0.039294988              0 
 9259247      730    0.066607148      2019.3764 
Loop time of 2019.38 on 40 procs for 205761 steps with 730 atoms, finish time Tue Jan  3 14:07:57 2023


Pair  time (%) = 0.415897 (0.0205953)
Neigh time (%) = 7.86036 (0.389247)
Comm  time (%) = 12.6304 (0.625462)
Outpt time (%) = 0.000504362 (2.49761e-05)
Other time (%) = 1998.47 (98.9647)

Nlocal:    18.25 ave 286 max 0 min
Histogram: 36 1 1 0 0 0 0 0 0 2
Nghost:    4 ave 64 max 0 min
Histogram: 36 0 0 2 0 0 1 0 0 1
Neighs:    0.975 ave 16 max 0 min
Histogram: 36 0 1 0 0 1 1 0 0 1

Total # of neighbors = 39
Ave neighs/atom = 0.0534247
Neighbor list builds = 9680
Dangerous builds = 115
Setting up run at Tue Jan  3 14:07:57 2023

Memory usage per processor = 960.195 Mbytes
    Step    Atoms         KinEng            CPU 
 9259247      730    0.066607148              0 
 9465008      714    0.047584605      1982.8401 
Loop time of 1982.84 on 40 procs for 205761 steps with 714 atoms, finish time Tue Jan  3 14:41:00 2023


Pair  time (%) = 0.412611 (0.0208091)
Neigh time (%) = 4.80629 (0.242394)
Comm  time (%) = 6.4698 (0.326289)
Outpt time (%) = 0.000473893 (2.38997e-05)
Other time (%) = 1971.15 (99.4105)

Nlocal:    17.85 ave 284 max 0 min
Histogram: 36 1 1 0 0 0 0 0 0 2
Nghost:    4.05 ave 63 max 0 min
Histogram: 36 0 1 1 0 0 0 1 0 1
Neighs:    1.1 ave 24 max 0 min
Histogram: 36 0 2 1 0 0 0 0 0 1

Total # of neighbors = 44
Ave neighs/atom = 0.0616246
Neighbor list builds = 5910
Dangerous builds = 32
Setting up run at Tue Jan  3 14:41:00 2023

Memory usage per processor = 960.195 Mbytes
    Step    Atoms         KinEng            CPU 
 9465008      714    0.047584605              0 
 9670769      701    0.039863827      2003.2137 
Loop time of 2003.21 on 40 procs for 205761 steps with 701 atoms, finish time Tue Jan  3 15:14:23 2023


Pair  time (%) = 0.407643 (0.0203495)
Neigh time (%) = 6.02523 (0.300778)
Comm  time (%) = 9.38207 (0.468351)
Outpt time (%) = 0.000516247 (2.57709e-05)
Other time (%) = 1987.4 (99.2105)

Nlocal:    17.525 ave 283 max 0 min
Histogram: 36 1 1 0 0 0 0 0 1 1
Nghost:    3.925 ave 59 max 0 min
Histogram: 36 0 0 2 0 0 0 1 0 1
Neighs:    0.975 ave 23 max 0 min
Histogram: 37 1 0 1 0 0 0 0 0 1

Total # of neighbors = 39
Ave neighs/atom = 0.0556348
Neighbor list builds = 7400
Dangerous builds = 9
Setting up run at Tue Jan  3 15:14:23 2023

Memory usage per processor = 960.195 Mbytes
    Step    Atoms         KinEng            CPU 
 9670769      701    0.039863827              0 
 9876530      692    0.054995471      1999.2958 
Loop time of 1999.3 on 40 procs for 205761 steps with 692 atoms, finish time Tue Jan  3 15:47:42 2023


Pair  time (%) = 0.405828 (0.0202985)
Neigh time (%) = 5.99097 (0.299654)
Comm  time (%) = 10.3357 (0.516969)
Outpt time (%) = 0.000547241 (2.73717e-05)
Other time (%) = 1982.56 (99.1631)

Nlocal:    17.3 ave 282 max 0 min
Histogram: 36 1 1 0 0 0 0 0 1 1
Nghost:    3.875 ave 57 max 0 min
Histogram: 36 0 0 2 0 0 0 1 0 1
Neighs:    1.025 ave 20 max 0 min
Histogram: 36 2 0 0 0 0 0 1 0 1

Total # of neighbors = 41
Ave neighs/atom = 0.0592486
Neighbor list builds = 7356
Dangerous builds = 7
Setting up run at Tue Jan  3 15:47:42 2023

Memory usage per processor = 960.195 Mbytes
    Step    Atoms         KinEng            CPU 
 9876530      692    0.054995471              0 
10082291      684    0.068091797      2013.0584 
Loop time of 2013.06 on 40 procs for 205761 steps with 684 atoms, finish time Tue Jan  3 16:21:15 2023


Pair  time (%) = 0.401333 (0.0199365)
Neigh time (%) = 7.34449 (0.364842)
Comm  time (%) = 12.7181 (0.63178)
Outpt time (%) = 0.000528013 (2.62294e-05)
Other time (%) = 1992.59 (98.9834)

Nlocal:    17.1 ave 284 max 0 min
Histogram: 36 2 0 0 0 0 0 0 1 1
Nghost:    4 ave 60 max 0 min
Histogram: 36 0 0 1 1 0 1 0 0 1
Neighs:    0.9 ave 18 max 0 min
Histogram: 37 1 0 0 0 0 0 1 0 1

Total # of neighbors = 36
Ave neighs/atom = 0.0526316
Neighbor list builds = 8964
Dangerous builds = 7
Setting up run at Tue Jan  3 16:21:15 2023

Memory usage per processor = 960.195 Mbytes
    Step    Atoms         KinEng            CPU 
10082291      684    0.068091797              0 
10288052      668    0.060401732      1996.3751 
Loop time of 1996.38 on 40 procs for 205761 steps with 668 atoms, finish time Tue Jan  3 16:54:32 2023


Pair  time (%) = 0.405438 (0.0203087)
Neigh time (%) = 5.46173 (0.273582)
Comm  time (%) = 7.84013 (0.392718)
Outpt time (%) = 0.000459648 (2.30241e-05)
Other time (%) = 1982.67 (99.3134)

Nlocal:    16.7 ave 278 max 0 min
Histogram: 36 2 0 0 0 0 0 0 1 1
Nghost:    3.675 ave 53 max 0 min
Histogram: 36 0 0 1 1 0 1 0 0 1
Neighs:    0.925 ave 20 max 0 min
Histogram: 36 2 0 0 0 0 1 0 0 1

Total # of neighbors = 37
Ave neighs/atom = 0.0553892
Neighbor list builds = 6683
Dangerous builds = 183
Setting up run at Tue Jan  3 16:54:32 2023

Memory usage per processor = 960.195 Mbytes
    Step    Atoms         KinEng            CPU 
10288052      668    0.060401732              0 
10493813      654    0.027683522      2004.2838 
Loop time of 2004.28 on 40 procs for 205761 steps with 654 atoms, finish time Tue Jan  3 17:27:56 2023


Pair  time (%) = 0.409654 (0.0204389)
Neigh time (%) = 5.85136 (0.291943)
Comm  time (%) = 7.9082 (0.394565)
Outpt time (%) = 0.00049482 (2.46881e-05)
Other time (%) = 1990.11 (99.293)

Nlocal:    16.35 ave 270 max 0 min
Histogram: 36 2 0 0 0 0 0 0 1 1
Nghost:    3.675 ave 53 max 0 min
Histogram: 36 0 0 1 1 0 0 1 0 1
Neighs:    0.7 ave 17 max 0 min
Histogram: 38 0 0 0 0 1 0 0 0 1

Total # of neighbors = 28
Ave neighs/atom = 0.0428135
Neighbor list builds = 7211
Dangerous builds = 550
Setting up run at Tue Jan  3 17:27:56 2023

Memory usage per processor = 960.195 Mbytes
    Step    Atoms         KinEng            CPU 
10493813      654    0.027683522              0 
10699574      641    0.035547801      1994.5474 
Loop time of 1994.55 on 40 procs for 205761 steps with 641 atoms, finish time Tue Jan  3 18:01:11 2023


Pair  time (%) = 0.405776 (0.0203442)
Neigh time (%) = 5.32734 (0.267095)
Comm  time (%) = 7.0531 (0.353619)
Outpt time (%) = 0.000564341 (2.82942e-05)
Other time (%) = 1981.76 (99.3589)

Nlocal:    16.025 ave 258 max 0 min
Histogram: 36 2 0 0 0 0 0 0 0 2
Nghost:    3.525 ave 46 max 0 min
Histogram: 36 0 0 1 1 0 0 0 0 2
Neighs:    0.675 ave 15 max 0 min
Histogram: 37 0 1 0 1 0 0 0 0 1

Total # of neighbors = 27
Ave neighs/atom = 0.0421217
Neighbor list builds = 6532
Dangerous builds = 13
Setting up run at Tue Jan  3 18:01:11 2023

Memory usage per processor = 960.195 Mbytes
    Step    Atoms         KinEng            CPU 
10699574      641    0.035547801              0 
10905335      632    0.086787994      1997.2542 
Loop time of 1997.25 on 40 procs for 205761 steps with 632 atoms, finish time Tue Jan  3 18:34:28 2023


Pair  time (%) = 0.405722 (0.020314)
Neigh time (%) = 5.54027 (0.277394)
Comm  time (%) = 8.40836 (0.420996)
Outpt time (%) = 0.00048331 (2.41987e-05)
Other time (%) = 1982.9 (99.2813)

Nlocal:    15.8 ave 257 max 0 min
Histogram: 36 2 0 0 0 0 0 0 0 2
Nghost:    3.25 ave 45 max 0 min
Histogram: 36 0 0 0 2 0 0 0 1 1
Neighs:    0.925 ave 25 max 0 min
Histogram: 38 0 0 1 0 0 0 0 0 1

Total # of neighbors = 37
Ave neighs/atom = 0.0585443
Neighbor list builds = 6798
Dangerous builds = 124
Setting up run at Tue Jan  3 18:34:28 2023

Memory usage per processor = 960.195 Mbytes
    Step    Atoms         KinEng            CPU 
10905335      632    0.086787994              0 
11111096      626     0.11210909      1995.3753 
Loop time of 1995.38 on 40 procs for 205761 steps with 626 atoms, finish time Tue Jan  3 19:07:44 2023


Pair  time (%) = 0.401993 (0.0201462)
Neigh time (%) = 5.54157 (0.277721)
Comm  time (%) = 6.58676 (0.330101)
Outpt time (%) = 0.000521008 (2.61108e-05)
Other time (%) = 1982.84 (99.372)

Nlocal:    15.65 ave 253 max 0 min
Histogram: 36 2 0 0 0 0 0 0 0 2
Nghost:    3.25 ave 44 max 0 min
Histogram: 36 0 0 0 1 1 0 0 1 1
Neighs:    0.9 ave 23 max 0 min
Histogram: 37 1 0 1 0 0 0 0 0 1

Total # of neighbors = 36
Ave neighs/atom = 0.057508
Neighbor list builds = 6782
Dangerous builds = 71
Setting up run at Tue Jan  3 19:07:44 2023

Memory usage per processor = 960.195 Mbytes
    Step    Atoms         KinEng            CPU 
11111096      626     0.11210909              0 
11316857      619    0.031002929      1988.6261 
Loop time of 1988.64 on 40 procs for 205761 steps with 619 atoms, finish time Tue Jan  3 19:40:52 2023


Pair  time (%) = 0.394855 (0.0198556)
Neigh time (%) = 4.21504 (0.211956)
Comm  time (%) = 6.98357 (0.351174)
Outpt time (%) = 0.0134575 (0.000676719)
Other time (%) = 1977.03 (99.4163)

Nlocal:    15.475 ave 248 max 0 min
Histogram: 36 2 0 0 0 0 0 0 0 2
Nghost:    3.55 ave 44 max 0 min
Histogram: 35 1 0 0 2 0 0 0 0 2
Neighs:    0.725 ave 15 max 0 min
Histogram: 37 1 0 0 0 0 0 1 0 1

Total # of neighbors = 29
Ave neighs/atom = 0.0468498
Neighbor list builds = 5166
Dangerous builds = 34
Setting up run at Tue Jan  3 19:40:53 2023

Memory usage per processor = 960.195 Mbytes
    Step    Atoms         KinEng            CPU 
11316857      619    0.031002929              0 
11522618      611    0.053518879      1979.0495 
Loop time of 1979.05 on 40 procs for 205761 steps with 611 atoms, finish time Tue Jan  3 20:13:52 2023


Pair  time (%) = 0.396047 (0.020012)
Neigh time (%) = 4.51132 (0.227954)
Comm  time (%) = 8.61296 (0.435207)
Outpt time (%) = 0.000503849 (2.54592e-05)
Other time (%) = 1965.53 (99.3168)

Nlocal:    15.275 ave 246 max 0 min
Histogram: 36 2 0 0 0 0 0 0 0 2
Nghost:    3.475 ave 46 max 0 min
Histogram: 36 0 0 0 2 0 0 0 0 2
Neighs:    0.775 ave 19 max 0 min
Histogram: 38 0 0 0 0 1 0 0 0 1

Total # of neighbors = 31
Ave neighs/atom = 0.0507365
Neighbor list builds = 5537
Dangerous builds = 8
Setting up run at Tue Jan  3 20:13:52 2023

Memory usage per processor = 960.195 Mbytes
    Step    Atoms         KinEng            CPU 
11522618      611    0.053518879              0 
11728379      605    0.027880851      1981.9981 
Loop time of 1982 on 40 procs for 205761 steps with 605 atoms, finish time Tue Jan  3 20:46:54 2023


Pair  time (%) = 0.397341 (0.0200475)
Neigh time (%) = 3.81986 (0.192728)
Comm  time (%) = 6.39396 (0.322602)
Outpt time (%) = 0.000489325 (2.46884e-05)
Other time (%) = 1971.39 (99.4646)

Nlocal:    15.125 ave 244 max 0 min
Histogram: 36 2 0 0 0 0 0 0 0 2
Nghost:    3.2 ave 43 max 0 min
Histogram: 36 0 0 2 0 0 0 0 0 2
Neighs:    0.7 ave 14 max 0 min
Histogram: 38 0 0 0 0 0 0 0 1 1

Total # of neighbors = 28
Ave neighs/atom = 0.046281
Neighbor list builds = 4737
Dangerous builds = 478
Setting up run at Tue Jan  3 20:46:54 2023

Memory usage per processor = 960.195 Mbytes
    Step    Atoms         KinEng            CPU 
11728379      605    0.027880851              0 
11934140      599     0.13850914      1990.1298 
Loop time of 1990.13 on 40 procs for 205761 steps with 599 atoms, finish time Tue Jan  3 21:20:04 2023


Pair  time (%) = 0.400725 (0.0201356)
Neigh time (%) = 4.68882 (0.235604)
Comm  time (%) = 7.65407 (0.384601)
Outpt time (%) = 0.000487291 (2.44854e-05)
Other time (%) = 1977.39 (99.3596)

Nlocal:    14.975 ave 241 max 0 min
Histogram: 36 2 0 0 0 0 0 0 0 2
Nghost:    3.125 ave 41 max 0 min
Histogram: 34 2 0 1 1 0 0 0 0 2
Neighs:    0.8 ave 15 max 0 min
Histogram: 37 1 0 0 0 0 0 0 0 2

Total # of neighbors = 32
Ave neighs/atom = 0.0534224
Neighbor list builds = 5769
Dangerous builds = 4
Setting up run at Tue Jan  3 21:20:04 2023

Memory usage per processor = 960.195 Mbytes
    Step    Atoms         KinEng            CPU 
11934140      599     0.13850914              0 
12139901      591    0.074348442      2004.0973 
Loop time of 2004.1 on 40 procs for 205761 steps with 591 atoms, finish time Tue Jan  3 21:53:28 2023


Pair  time (%) = 0.403439 (0.0201307)
Neigh time (%) = 5.7244 (0.285635)
Comm  time (%) = 7.26748 (0.362631)
Outpt time (%) = 0.000440573 (2.19836e-05)
Other time (%) = 1990.7 (99.3316)

Nlocal:    14.775 ave 233 max 0 min
Histogram: 37 1 0 0 0 0 0 0 0 2
Nghost:    3.125 ave 43 max 0 min
Histogram: 35 1 1 0 1 0 0 0 1 1
Neighs:    0.525 ave 13 max 0 min
Histogram: 38 0 0 0 0 1 0 0 0 1

Total # of neighbors = 21
Ave neighs/atom = 0.035533
Neighbor list builds = 7055
Dangerous builds = 724
Setting up run at Tue Jan  3 21:53:28 2023

Memory usage per processor = 960.195 Mbytes
    Step    Atoms         KinEng            CPU 
12139901      591    0.074348442              0 
12345662      577    0.059540681       1992.469 
Loop time of 1992.47 on 40 procs for 205761 steps with 577 atoms, finish time Tue Jan  3 22:26:41 2023


Pair  time (%) = 0.401399 (0.0201458)
Neigh time (%) = 4.80941 (0.241379)
Comm  time (%) = 6.83288 (0.342935)
Outpt time (%) = 0.000520495 (2.61231e-05)
Other time (%) = 1980.42 (99.3955)

Nlocal:    14.425 ave 232 max 0 min
Histogram: 36 2 0 0 0 0 0 0 0 2
Nghost:    3.05 ave 42 max 0 min
Histogram: 35 1 0 1 1 0 0 0 1 1
Neighs:    0.55 ave 13 max 0 min
Histogram: 37 0 1 0 1 0 0 0 0 1

Total # of neighbors = 22
Ave neighs/atom = 0.0381282
Neighbor list builds = 5934
Dangerous builds = 410
Setting up run at Tue Jan  3 22:26:41 2023

Memory usage per processor = 960.195 Mbytes
    Step    Atoms         KinEng            CPU 
12345662      577    0.059540681              0 
12551423      572    0.031685605      1986.4833 
Loop time of 1986.48 on 40 procs for 205761 steps with 572 atoms, finish time Tue Jan  3 22:59:47 2023


Pair  time (%) = 0.399183 (0.020095)
Neigh time (%) = 4.17279 (0.210059)
Comm  time (%) = 6.17254 (0.310727)
Outpt time (%) = 0.000494315 (2.48839e-05)
Other time (%) = 1975.74 (99.4591)

Nlocal:    14.3 ave 229 max 0 min
Histogram: 36 2 0 0 0 0 0 0 0 2
Nghost:    3.075 ave 45 max 0 min
Histogram: 35 1 1 0 1 0 0 1 0 1
Neighs:    0.7 ave 18 max 0 min
Histogram: 37 1 0 1 0 0 0 0 0 1

Total # of neighbors = 28
Ave neighs/atom = 0.048951
Neighbor list builds = 5148
Dangerous builds = 4
Setting up run at Tue Jan  3 22:59:47 2023

Memory usage per processor = 960.195 Mbytes
    Step    Atoms         KinEng            CPU 
12551423      572    0.031685605              0 
12757184      564    0.051374287      1986.7884 
Loop time of 1986.79 on 40 procs for 205761 steps with 564 atoms, finish time Tue Jan  3 23:32:54 2023


Pair  time (%) = 0.398808 (0.020073)
Neigh time (%) = 4.38093 (0.220503)
Comm  time (%) = 6.47631 (0.325969)
Outpt time (%) = 0.000527018 (2.65261e-05)
Other time (%) = 1975.53 (99.4334)

Nlocal:    14.1 ave 224 max 0 min
Histogram: 36 2 0 0 0 0 0 0 0 2
Nghost:    3.2 ave 43 max 0 min
Histogram: 34 2 0 2 0 0 0 0 1 1
Neighs:    0.525 ave 11 max 0 min
Histogram: 37 1 0 0 0 0 0 1 0 1

Total # of neighbors = 21
Ave neighs/atom = 0.037234
Neighbor list builds = 5386
Dangerous builds = 50
Setting up run at Tue Jan  3 23:32:54 2023

Memory usage per processor = 960.195 Mbytes
    Step    Atoms         KinEng            CPU 
12757184      564    0.051374287              0 
12962945      555    0.055203975      1992.1861 
Loop time of 1992.19 on 40 procs for 205761 steps with 555 atoms, finish time Wed Jan  4 00:06:06 2023


Pair  time (%) = 0.392018 (0.0196778)
Neigh time (%) = 4.42122 (0.221928)
Comm  time (%) = 5.47948 (0.275048)
Outpt time (%) = 0.000507607 (2.54799e-05)
Other time (%) = 1981.89 (99.4833)

Nlocal:    13.875 ave 224 max 0 min
Histogram: 37 1 0 0 0 0 0 0 0 2
Nghost:    3.125 ave 43 max 0 min
Histogram: 34 2 1 1 0 0 0 1 0 1
Neighs:    0.675 ave 15 max 0 min
Histogram: 37 1 0 0 0 1 0 0 0 1

Total # of neighbors = 27
Ave neighs/atom = 0.0486486
Neighbor list builds = 5403
Dangerous builds = 125
Setting up run at Wed Jan  4 00:06:06 2023

Memory usage per processor = 960.195 Mbytes
    Step    Atoms         KinEng            CPU 
12962945      555    0.055203975              0 
13168706      547    0.039308157      1983.7307 
Loop time of 1983.73 on 40 procs for 205761 steps with 547 atoms, finish time Wed Jan  4 00:39:10 2023


Pair  time (%) = 0.38982 (0.0196509)
Neigh time (%) = 4.75923 (0.239913)
Comm  time (%) = 5.96015 (0.300452)
Outpt time (%) = 0.0107133 (0.000540061)
Other time (%) = 1972.61 (99.4394)

Nlocal:    13.675 ave 220 max 0 min
Histogram: 37 1 0 0 0 0 0 0 1 1
Nghost:    3.275 ave 49 max 0 min
Histogram: 34 2 1 1 0 0 0 1 0 1
Neighs:    0.8 ave 23 max 0 min
Histogram: 38 0 0 1 0 0 0 0 0 1

Total # of neighbors = 32
Ave neighs/atom = 0.0585009
Neighbor list builds = 5802
Dangerous builds = 8
Setting up run at Wed Jan  4 00:39:10 2023

Memory usage per processor = 960.195 Mbytes
    Step    Atoms         KinEng            CPU 
13168706      547    0.039308157              0 
13374467      540    0.053191935      1989.0266 
Loop time of 1989.03 on 40 procs for 205761 steps with 540 atoms, finish time Wed Jan  4 01:12:19 2023


Pair  time (%) = 0.391097 (0.0196627)
Neigh time (%) = 4.97064 (0.249903)
Comm  time (%) = 7.26352 (0.36518)
Outpt time (%) = 0.00045718 (2.29851e-05)
Other time (%) = 1976.4 (99.3652)

Nlocal:    13.5 ave 219 max 0 min
Histogram: 37 1 0 0 0 0 0 0 1 1
Nghost:    2.975 ave 48 max 0 min
Histogram: 35 1 2 0 0 1 0 0 0 1
Neighs:    0.525 ave 15 max 0 min
Histogram: 37 0 2 0 0 0 0 0 0 1

Total # of neighbors = 21
Ave neighs/atom = 0.0388889
Neighbor list builds = 6073
Dangerous builds = 154
Setting up run at Wed Jan  4 01:12:19 2023

Memory usage per processor = 960.195 Mbytes
    Step    Atoms         KinEng            CPU 
13374467      540    0.053191935              0 
13580228      536     0.04340965      1989.0127 
Loop time of 1989.01 on 40 procs for 205761 steps with 536 atoms, finish time Wed Jan  4 01:45:28 2023


Pair  time (%) = 0.386388 (0.0194261)
Neigh time (%) = 3.79118 (0.190606)
Comm  time (%) = 7.34465 (0.369261)
Outpt time (%) = 0.00044596 (2.24212e-05)
Other time (%) = 1977.49 (99.4207)

Nlocal:    13.4 ave 212 max 0 min
Histogram: 36 2 0 0 0 0 0 0 0 2
Nghost:    3.025 ave 38 max 0 min
Histogram: 34 2 0 2 0 0 0 0 0 2
Neighs:    0.625 ave 19 max 0 min
Histogram: 37 1 1 0 0 0 0 0 0 1

Total # of neighbors = 25
Ave neighs/atom = 0.0466418
Neighbor list builds = 4627
Dangerous builds = 13
Setting up run at Wed Jan  4 01:45:29 2023

Memory usage per processor = 960.195 Mbytes
    Step    Atoms         KinEng            CPU 
13580228      536     0.04340965              0 
13785989      520    0.075880643      1995.3989 
Loop time of 1995.46 on 40 procs for 205761 steps with 520 atoms, finish time Wed Jan  4 02:18:44 2023


Pair  time (%) = 0.391077 (0.0195983)
Neigh time (%) = 6.35213 (0.318329)
Comm  time (%) = 9.82273 (0.492254)
Outpt time (%) = 0.000508725 (2.54941e-05)
Other time (%) = 1978.9 (99.1698)

Nlocal:    13 ave 206 max 0 min
Histogram: 36 2 0 0 0 0 0 0 0 2
Nghost:    3.075 ave 42 max 0 min
Histogram: 34 2 0 1 1 0 0 1 0 1
Neighs:    0.65 ave 14 max 0 min
Histogram: 37 0 1 0 0 1 0 0 0 1

Total # of neighbors = 26
Ave neighs/atom = 0.05
Neighbor list builds = 7760
Dangerous builds = 160
Setting up run at Wed Jan  4 02:18:44 2023

Memory usage per processor = 960.195 Mbytes
    Step    Atoms         KinEng            CPU 
13785989      520    0.075880643              0 
13991750      512     0.21464852      2008.3657 
Loop time of 2008.37 on 40 procs for 205761 steps with 512 atoms, finish time Wed Jan  4 02:52:12 2023


Pair  time (%) = 0.394572 (0.0196464)
Neigh time (%) = 6.35681 (0.316517)
Comm  time (%) = 8.87239 (0.441772)
Outpt time (%) = 0.000697981 (3.47537e-05)
Other time (%) = 1992.74 (99.222)

Nlocal:    12.8 ave 206 max 0 min
Histogram: 36 2 0 0 0 0 0 0 1 1
Nghost:    3.1 ave 44 max 0 min
Histogram: 35 1 0 2 0 0 0 1 0 1
Neighs:    0.525 ave 10 max 0 min
Histogram: 36 1 1 0 0 0 0 0 1 1

Total # of neighbors = 21
Ave neighs/atom = 0.0410156
Neighbor list builds = 7754
Dangerous builds = 160
Setting up run at Wed Jan  4 02:52:13 2023

Memory usage per processor = 960.195 Mbytes
    Step    Atoms         KinEng            CPU 
13991750      512     0.21464852              0 
14197511      493    0.030542676      2012.3709 
Loop time of 2012.37 on 40 procs for 205761 steps with 493 atoms, finish time Wed Jan  4 03:25:45 2023


Pair  time (%) = 0.397231 (0.0197395)
Neigh time (%) = 7.67887 (0.381583)
Comm  time (%) = 9.52166 (0.473156)
Outpt time (%) = 0.000547303 (2.71969e-05)
Other time (%) = 1994.77 (99.1255)

Nlocal:    12.325 ave 199 max 0 min
Histogram: 36 2 0 0 0 0 0 0 0 2
Nghost:    2.625 ave 42 max 0 min
Histogram: 36 0 1 1 0 0 1 0 0 1
Neighs:    0.45 ave 9 max 0 min
Histogram: 36 1 0 0 2 0 0 0 0 1

Total # of neighbors = 18
Ave neighs/atom = 0.0365112
Neighbor list builds = 9377
Dangerous builds = 324
Setting up run at Wed Jan  4 03:25:45 2023

Memory usage per processor = 960.195 Mbytes
    Step    Atoms         KinEng            CPU 
14197511      493    0.030542676              0 
14403272      483    0.072958862      1987.6842 
Loop time of 1987.68 on 40 procs for 205761 steps with 483 atoms, finish time Wed Jan  4 03:58:53 2023


Pair  time (%) = 0.387807 (0.0195105)
Neigh time (%) = 4.86821 (0.244919)
Comm  time (%) = 5.17183 (0.260194)
Outpt time (%) = 0.000508031 (2.55589e-05)
Other time (%) = 1977.26 (99.4754)

Nlocal:    12.075 ave 199 max 0 min
Histogram: 35 3 0 0 0 0 0 0 1 1
Nghost:    2.7 ave 39 max 0 min
Histogram: 35 1 0 2 0 0 0 1 0 1
Neighs:    0.425 ave 8 max 0 min
Histogram: 35 1 1 2 0 0 0 0 0 1

Total # of neighbors = 17
Ave neighs/atom = 0.0351967
Neighbor list builds = 5963
Dangerous builds = 32
Setting up run at Wed Jan  4 03:58:53 2023

Memory usage per processor = 960.195 Mbytes
    Step    Atoms         KinEng            CPU 
14403272      483    0.072958862              0 
14609033      475    0.030298561      1991.8514 
Loop time of 1991.85 on 40 procs for 205761 steps with 475 atoms, finish time Wed Jan  4 04:32:05 2023


Pair  time (%) = 0.380967 (0.0191263)
Neigh time (%) = 5.45478 (0.273855)
Comm  time (%) = 5.53782 (0.278024)
Outpt time (%) = 0.000527698 (2.64928e-05)
Other time (%) = 1980.48 (99.429)

Nlocal:    11.875 ave 198 max 0 min
Histogram: 35 3 0 0 0 0 0 0 1 1
Nghost:    2.6 ave 38 max 0 min
Histogram: 36 0 0 2 0 0 0 1 0 1
Neighs:    0.475 ave 7 max 0 min
Histogram: 35 2 0 0 1 0 0 0 0 2

Total # of neighbors = 19
Ave neighs/atom = 0.04
Neighbor list builds = 6703
Dangerous builds = 876
Setting up run at Wed Jan  4 04:32:05 2023

Memory usage per processor = 960.195 Mbytes
    Step    Atoms         KinEng            CPU 
14609033      475    0.030298561              0 
14814794      472    0.017469297      1988.0469 
Loop time of 1988.05 on 40 procs for 205761 steps with 472 atoms, finish time Wed Jan  4 05:05:13 2023


Pair  time (%) = 0.384585 (0.0193449)
Neigh time (%) = 5.01942 (0.25248)
Comm  time (%) = 5.22239 (0.26269)
Outpt time (%) = 0.000514976 (2.59036e-05)
Other time (%) = 1977.42 (99.4655)

Nlocal:    11.8 ave 191 max 0 min
Histogram: 35 3 0 0 0 0 0 0 0 2
Nghost:    2.7 ave 36 max 0 min
Histogram: 35 1 1 0 1 0 0 0 0 2
Neighs:    0.475 ave 9 max 0 min
Histogram: 36 1 0 1 0 0 1 0 0 1

Total # of neighbors = 19
Ave neighs/atom = 0.0402542
Neighbor list builds = 6117
Dangerous builds = 2
Setting up run at Wed Jan  4 05:05:13 2023

Memory usage per processor = 960.195 Mbytes
    Step    Atoms         KinEng            CPU 
14814794      472    0.017469297              0 
15020555      464   0.0066286672      1980.2769 
Loop time of 1980.28 on 40 procs for 205761 steps with 464 atoms, finish time Wed Jan  4 05:38:13 2023


Pair  time (%) = 0.381968 (0.0192886)
Neigh time (%) = 3.26 (0.164623)
Comm  time (%) = 4.16386 (0.210266)
Outpt time (%) = 0.000447706 (2.26083e-05)
Other time (%) = 1972.47 (99.6058)

Nlocal:    11.6 ave 190 max 0 min
Histogram: 36 2 0 0 0 0 0 0 0 2
Nghost:    2.875 ave 39 max 0 min
Histogram: 35 1 0 2 0 0 0 0 0 2
Neighs:    0.35 ave 6 max 0 min
Histogram: 36 1 0 1 0 0 0 0 1 1

Total # of neighbors = 14
Ave neighs/atom = 0.0301724
Neighbor list builds = 4011
Dangerous builds = 12
Setting up run at Wed Jan  4 05:38:13 2023

Memory usage per processor = 960.195 Mbytes
    Step    Atoms         KinEng            CPU 
15020555      464   0.0066286672              0 
15226316      453   0.0035974982      1973.8427 
Loop time of 1973.84 on 40 procs for 205761 steps with 453 atoms, finish time Wed Jan  4 06:11:07 2023


Pair  time (%) = 0.387949 (0.0196545)
Neigh time (%) = 3.09862 (0.156984)
Comm  time (%) = 3.99802 (0.20255)
Outpt time (%) = 0.000510088 (2.58424e-05)
Other time (%) = 1966.36 (99.6208)

Nlocal:    11.325 ave 185 max 0 min
Histogram: 36 2 0 0 0 0 0 0 0 2
Nghost:    2.675 ave 37 max 0 min
Histogram: 34 2 0 2 0 0 0 0 1 1
Neighs:    0.3 ave 5 max 0 min
Histogram: 36 0 1 0 1 0 0 0 1 1

Total # of neighbors = 12
Ave neighs/atom = 0.0264901
Neighbor list builds = 3835
Dangerous builds = 8
Setting up run at Wed Jan  4 06:11:07 2023

Memory usage per processor = 960.195 Mbytes
    Step    Atoms         KinEng            CPU 
15226316      453   0.0035974982              0 
15432077      448  0.00066816995      1971.9319 
Loop time of 1971.93 on 40 procs for 205761 steps with 448 atoms, finish time Wed Jan  4 06:43:59 2023


Pair  time (%) = 0.380783 (0.0193101)
Neigh time (%) = 2.83378 (0.143706)
Comm  time (%) = 4.46165 (0.226258)
Outpt time (%) = 0.0005211 (2.64258e-05)
Other time (%) = 1964.26 (99.6107)

Nlocal:    11.2 ave 185 max 0 min
Histogram: 36 2 0 0 0 0 0 0 1 1
Nghost:    2.5 ave 37 max 0 min
Histogram: 34 2 1 1 0 0 0 1 0 1
Neighs:    0.275 ave 6 max 0 min
Histogram: 37 1 0 0 0 0 1 0 0 1

Total # of neighbors = 11
Ave neighs/atom = 0.0245536
Neighbor list builds = 3529
Dangerous builds = 640
Setting up run at Wed Jan  4 06:43:59 2023

Memory usage per processor = 960.195 Mbytes
    Step    Atoms         KinEng            CPU 
15432077      448  0.00066816995              0 
15637838      443   0.0031799242      1963.4209 
Loop time of 1963.42 on 40 procs for 205761 steps with 443 atoms, finish time Wed Jan  4 07:16:43 2023


Pair  time (%) = 0.37444 (0.0190708)
Neigh time (%) = 2.12578 (0.108269)
Comm  time (%) = 2.74021 (0.139563)
Outpt time (%) = 0.000238143 (1.2129e-05)
Other time (%) = 1958.18 (99.7331)

Nlocal:    11.075 ave 186 max 0 min
Histogram: 36 2 0 0 0 0 0 0 1 1
Nghost:    2.3 ave 33 max 0 min
Histogram: 35 1 0 2 0 0 1 0 0 1
Neighs:    0.275 ave 5 max 0 min
Histogram: 37 0 0 0 1 0 0 0 1 1

Total # of neighbors = 11
Ave neighs/atom = 0.0248307
Neighbor list builds = 2605
Dangerous builds = 29
Setting up run at Wed Jan  4 07:16:43 2023

Memory usage per processor = 960.195 Mbytes
    Step    Atoms         KinEng            CPU 
15637838      443   0.0031799242              0 
15843599      439  0.00075993685      1963.9421 
Loop time of 1963.94 on 40 procs for 205761 steps with 439 atoms, finish time Wed Jan  4 07:49:27 2023


Pair  time (%) = 0.372107 (0.018947)
Neigh time (%) = 1.30567 (0.066482)
Comm  time (%) = 2.47016 (0.125775)
Outpt time (%) = 0.000513902 (2.61668e-05)
Other time (%) = 1959.79 (99.7888)

Nlocal:    10.975 ave 185 max 0 min
Histogram: 36 2 0 0 0 0 0 0 1 1
Nghost:    2.375 ave 35 max 0 min
Histogram: 36 0 0 1 1 0 1 0 0 1
Neighs:    0.175 ave 3 max 0 min
Histogram: 37 0 0 1 0 0 0 0 0 2

Total # of neighbors = 7
Ave neighs/atom = 0.0159453
Neighbor list builds = 1611
Dangerous builds = 3
Setting up run at Wed Jan  4 07:49:27 2023

Memory usage per processor = 960.195 Mbytes
    Step    Atoms         KinEng            CPU 
15843599      439  0.00075993685              0 
16049360      436   0.0045453928      1963.6033 
Loop time of 1963.6 on 40 procs for 205761 steps with 436 atoms, finish time Wed Jan  4 08:22:10 2023


Pair  time (%) = 0.378045 (0.0192526)
Neigh time (%) = 1.95666 (0.0996463)
Comm  time (%) = 2.8887 (0.147112)
Outpt time (%) = 0.000296877 (1.5119e-05)
Other time (%) = 1958.38 (99.734)

Nlocal:    10.9 ave 181 max 0 min
Histogram: 36 2 0 0 0 0 0 0 1 1
Nghost:    2.35 ave 36 max 0 min
Histogram: 35 1 0 2 0 0 1 0 0 1
Neighs:    0.25 ave 7 max 0 min
Histogram: 37 1 1 0 0 0 0 0 0 1

Total # of neighbors = 10
Ave neighs/atom = 0.0229358
Neighbor list builds = 2396
Dangerous builds = 2
Setting up run at Wed Jan  4 08:22:10 2023

Memory usage per processor = 960.195 Mbytes
    Step    Atoms         KinEng            CPU 
16049360      436   0.0045453928              0 
16255121      432    0.021368204      1968.2988 
Loop time of 1968.3 on 40 procs for 205761 steps with 432 atoms, finish time Wed Jan  4 08:54:59 2023


Pair  time (%) = 0.375644 (0.0190847)
Neigh time (%) = 2.53763 (0.128925)
Comm  time (%) = 3.0063 (0.152736)
Outpt time (%) = 0.013558 (0.000688816)
Other time (%) = 1962.37 (99.6986)

Nlocal:    10.8 ave 175 max 0 min
Histogram: 36 2 0 0 0 0 0 0 0 2
Nghost:    2.3 ave 32 max 0 min
Histogram: 35 1 0 2 0 0 0 0 1 1
Neighs:    0.35 ave 9 max 0 min
Histogram: 38 0 0 0 0 1 0 0 0 1

Total # of neighbors = 14
Ave neighs/atom = 0.0324074
Neighbor list builds = 3106
Dangerous builds = 5
Setting up run at Wed Jan  4 08:54:59 2023

Memory usage per processor = 960.195 Mbytes
    Step    Atoms         KinEng            CPU 
16255121      432    0.021368204              0 
16460882      426    0.026316366       1979.345 
Loop time of 1979.35 on 40 procs for 205761 steps with 426 atoms, finish time Wed Jan  4 09:27:58 2023


Pair  time (%) = 0.379973 (0.0191969)
Neigh time (%) = 3.58453 (0.181097)
Comm  time (%) = 4.44509 (0.224574)
Outpt time (%) = 0.000296646 (1.49871e-05)
Other time (%) = 1970.94 (99.5751)

Nlocal:    10.65 ave 170 max 0 min
Histogram: 35 3 0 0 0 0 0 0 0 2
Nghost:    2.15 ave 32 max 0 min
Histogram: 35 1 0 2 0 0 0 0 1 1
Neighs:    0.325 ave 8 max 0 min
Histogram: 38 0 0 0 0 0 1 0 0 1

Total # of neighbors = 13
Ave neighs/atom = 0.0305164
Neighbor list builds = 4381
Dangerous builds = 161
Setting up run at Wed Jan  4 09:27:58 2023

Memory usage per processor = 960.195 Mbytes
    Step    Atoms         KinEng            CPU 
16460882      426    0.026316366              0 
16666643      419     0.38115429      2009.8149 
Loop time of 2009.82 on 40 procs for 205761 steps with 419 atoms, finish time Wed Jan  4 10:01:28 2023


Pair  time (%) = 0.381974 (0.0190054)
Neigh time (%) = 3.30903 (0.164644)
Comm  time (%) = 2.54872 (0.126813)
Outpt time (%) = 0.000514131 (2.5581e-05)
Other time (%) = 2003.58 (99.6895)

Nlocal:    10.475 ave 166 max 0 min
Histogram: 35 3 0 0 0 0 0 0 0 2
Nghost:    2 ave 31 max 0 min
Histogram: 36 0 1 1 0 0 0 0 1 1
Neighs:    0.2 ave 3 max 0 min
Histogram: 37 0 0 0 0 0 1 0 0 2

Total # of neighbors = 8
Ave neighs/atom = 0.0190931
Neighbor list builds = 4048
Dangerous builds = 47
Setting up run at Wed Jan  4 10:01:28 2023

Memory usage per processor = 960.195 Mbytes
    Step    Atoms         KinEng            CPU 
16666643      419     0.38115429              0 
16872404      411    0.060393464      2059.0924 
Loop time of 2059.09 on 40 procs for 205761 steps with 411 atoms, finish time Wed Jan  4 10:35:47 2023


Pair  time (%) = 0.3876 (0.0188238)
Neigh time (%) = 5.215 (0.253267)
Comm  time (%) = 4.10683 (0.199449)
Outpt time (%) = 0.000303652 (1.47469e-05)
Other time (%) = 2049.38 (99.5284)

Nlocal:    10.275 ave 170 max 0 min
Histogram: 36 2 0 0 0 0 0 0 0 2
Nghost:    2.125 ave 34 max 0 min
Histogram: 36 0 0 2 0 0 0 1 0 1
Neighs:    0.25 ave 5 max 0 min
Histogram: 36 0 2 0 0 0 1 0 0 1

Total # of neighbors = 10
Ave neighs/atom = 0.0243309
Neighbor list builds = 6364
Dangerous builds = 202
Setting up run at Wed Jan  4 10:35:47 2023

Memory usage per processor = 960.195 Mbytes
    Step    Atoms         KinEng            CPU 
16872404      411    0.060393464              0 
17078165      407    0.017316421      2355.6092 
Loop time of 2355.61 on 40 procs for 205761 steps with 407 atoms, finish time Wed Jan  4 11:15:03 2023


Pair  time (%) = 0.379092 (0.0160932)
Neigh time (%) = 2.932 (0.124469)
Comm  time (%) = 3.39724 (0.144219)
Outpt time (%) = 0.000579987 (2.46215e-05)
Other time (%) = 2348.9 (99.7152)

Nlocal:    10.175 ave 164 max 0 min
Histogram: 36 2 0 0 0 0 0 0 0 2
Nghost:    2 ave 30 max 0 min
Histogram: 36 0 0 2 0 0 0 0 1 1
Neighs:    0.175 ave 4 max 0 min
Histogram: 37 0 1 0 0 1 0 0 0 1

Total # of neighbors = 7
Ave neighs/atom = 0.017199
Neighbor list builds = 3592
Dangerous builds = 18
Setting up run at Wed Jan  4 11:15:19 2023

Memory usage per processor = 960.195 Mbytes
    Step    Atoms         KinEng            CPU 
17078165      407    0.017316421              0 
17283926      404    0.016401524      1994.0459 
Loop time of 1994.05 on 40 procs for 205761 steps with 404 atoms, finish time Wed Jan  4 11:48:34 2023


Pair  time (%) = 0.378288 (0.0189709)
Neigh time (%) = 2.51057 (0.125903)
Comm  time (%) = 2.8368 (0.142264)
Outpt time (%) = 0.000268208 (1.34504e-05)
Other time (%) = 1988.32 (99.7128)

Nlocal:    10.1 ave 160 max 0 min
Histogram: 36 2 0 0 0 0 0 0 0 2
Nghost:    2.2 ave 30 max 0 min
Histogram: 35 1 0 1 1 0 0 0 0 2
Neighs:    0.2 ave 6 max 0 min
Histogram: 37 2 0 0 0 0 0 0 0 1

Total # of neighbors = 8
Ave neighs/atom = 0.019802
Neighbor list builds = 3073
Dangerous builds = 67
Setting up run at Wed Jan  4 11:48:34 2023

Memory usage per processor = 960.195 Mbytes
    Step    Atoms         KinEng            CPU 
17283926      404    0.016401524              0 
17489687      395    0.014939482      2019.3608 
Loop time of 2019.36 on 40 procs for 205761 steps with 395 atoms, finish time Wed Jan  4 12:22:13 2023


Pair  time (%) = 0.375643 (0.0186021)
Neigh time (%) = 3.58021 (0.177294)
Comm  time (%) = 3.87743 (0.192012)
Outpt time (%) = 0.000560932 (2.77777e-05)
Other time (%) = 2011.53 (99.6121)

Nlocal:    9.875 ave 160 max 0 min
Histogram: 36 2 0 0 0 0 0 0 0 2
Nghost:    2.3 ave 32 max 0 min
Histogram: 36 0 0 2 0 0 0 0 0 2
Neighs:    0.275 ave 9 max 0 min
Histogram: 37 2 0 0 0 0 0 0 0 1

Total # of neighbors = 11
Ave neighs/atom = 0.0278481
Neighbor list builds = 4383
Dangerous builds = 150
Setting up run at Wed Jan  4 12:22:13 2023

Memory usage per processor = 960.195 Mbytes
    Step    Atoms         KinEng            CPU 
17489687      395    0.014939482              0 
17695448      391    0.015854606      1981.4514 
Loop time of 1981.45 on 40 procs for 205761 steps with 391 atoms, finish time Wed Jan  4 12:55:14 2023


Pair  time (%) = 0.375162 (0.0189337)
Neigh time (%) = 2.81127 (0.141879)
Comm  time (%) = 2.91852 (0.147292)
Outpt time (%) = 0.000293452 (1.481e-05)
Other time (%) = 1975.35 (99.6919)

Nlocal:    9.775 ave 159 max 0 min
Histogram: 36 2 0 0 0 0 0 0 0 2
Nghost:    2.175 ave 31 max 0 min
Histogram: 36 0 0 2 0 0 0 0 1 1
Neighs:    0.275 ave 8 max 0 min
Histogram: 37 1 1 0 0 0 0 0 0 1

Total # of neighbors = 11
Ave neighs/atom = 0.028133
Neighbor list builds = 3458
Dangerous builds = 3
Setting up run at Wed Jan  4 12:55:15 2023

Memory usage per processor = 960.195 Mbytes
    Step    Atoms         KinEng            CPU 
17695448      391    0.015854606              0 
17901209      388    0.023995367      2059.8154 
Loop time of 2063.76 on 40 procs for 205761 steps with 388 atoms, finish time Wed Jan  4 13:29:44 2023


Pair  time (%) = 0.376001 (0.0182192)
Neigh time (%) = 2.38072 (0.115358)
Comm  time (%) = 3.12509 (0.151427)
Outpt time (%) = 0.000510879 (2.47548e-05)
Other time (%) = 2057.88 (99.715)

Nlocal:    9.7 ave 158 max 0 min
Histogram: 36 2 0 0 0 0 0 0 0 2
Nghost:    2.025 ave 29 max 0 min
Histogram: 36 0 0 0 2 0 0 1 0 1
Neighs:    0.225 ave 6 max 0 min
Histogram: 37 1 0 1 0 0 0 0 0 1

Total # of neighbors = 9
Ave neighs/atom = 0.0231959
Neighbor list builds = 2912
Dangerous builds = 2
Setting up run at Wed Jan  4 13:29:44 2023

Memory usage per processor = 960.195 Mbytes
    Step    Atoms         KinEng            CPU 
17901209      388    0.023995367              0 
18106970      383     0.33457937      2119.8853 
Loop time of 2119.89 on 40 procs for 205761 steps with 383 atoms, finish time Wed Jan  4 14:05:04 2023


Pair  time (%) = 0.375728 (0.017724)
Neigh time (%) = 2.17627 (0.10266)
Comm  time (%) = 3.64305 (0.171851)
Outpt time (%) = 0.000274132 (1.29314e-05)
Other time (%) = 2113.69 (99.7078)

Nlocal:    9.575 ave 156 max 0 min
Histogram: 36 2 0 0 0 0 0 0 0 2
Nghost:    2 ave 26 max 0 min
Histogram: 36 0 0 1 0 1 0 0 0 2
Neighs:    0.1 ave 3 max 0 min
Histogram: 38 0 0 1 0 0 0 0 0 1

Total # of neighbors = 4
Ave neighs/atom = 0.0104439
Neighbor list builds = 2663
Dangerous builds = 0
Setting up run at Wed Jan  4 14:05:04 2023

Memory usage per processor = 960.195 Mbytes
    Step    Atoms         KinEng            CPU 
18106970      383     0.33457937              0 
18312731      380    0.021339594      2088.7912 
Loop time of 2088.79 on 40 procs for 205761 steps with 380 atoms, finish time Wed Jan  4 14:39:53 2023


Pair  time (%) = 0.375064 (0.0179561)
Neigh time (%) = 2.5828 (0.12365)
Comm  time (%) = 2.94712 (0.141092)
Outpt time (%) = 0.000537709 (2.57426e-05)
Other time (%) = 2082.89 (99.7173)

Nlocal:    9.5 ave 157 max 0 min
Histogram: 36 2 0 0 0 0 0 0 0 2
Nghost:    1.8 ave 24 max 0 min
Histogram: 36 0 0 0 1 1 0 0 1 1
Neighs:    0.075 ave 3 max 0 min
Histogram: 39 0 0 0 0 0 0 0 0 1

Total # of neighbors = 3
Ave neighs/atom = 0.00789474
Neighbor list builds = 3164
Dangerous builds = 45
Setting up run at Wed Jan  4 14:39:53 2023

Memory usage per processor = 960.195 Mbytes
    Step    Atoms         KinEng            CPU 
18312731      380    0.021339594              0 
18518492      373     0.01456061       1996.698 
Loop time of 1996.7 on 40 procs for 205761 steps with 373 atoms, finish time Wed Jan  4 15:13:10 2023


Pair  time (%) = 0.374251 (0.0187435)
Neigh time (%) = 3.22031 (0.161282)
Comm  time (%) = 3.75609 (0.188115)
Outpt time (%) = 0.000220112 (1.10238e-05)
Other time (%) = 1989.35 (99.6318)

Nlocal:    9.325 ave 153 max 0 min
Histogram: 37 1 0 0 0 0 0 0 0 2
Nghost:    1.975 ave 27 max 0 min
Histogram: 35 1 0 0 2 0 0 0 1 1
Neighs:    0.15 ave 5 max 0 min
Histogram: 38 0 1 0 0 0 0 0 0 1

Total # of neighbors = 6
Ave neighs/atom = 0.0160858
Neighbor list builds = 3943
Dangerous builds = 4
Setting up run at Wed Jan  4 15:13:10 2023

Memory usage per processor = 960.195 Mbytes
    Step    Atoms         KinEng            CPU 
18518492      373     0.01456061              0 
18724253      370    0.014514541      1986.7155 
Loop time of 1986.72 on 40 procs for 205761 steps with 370 atoms, finish time Wed Jan  4 15:46:17 2023


Pair  time (%) = 0.378581 (0.0190556)
Neigh time (%) = 2.8789 (0.144908)
Comm  time (%) = 3.17166 (0.159644)
Outpt time (%) = 0.000516015 (2.59733e-05)
Other time (%) = 1980.29 (99.6764)

Nlocal:    9.25 ave 155 max 0 min
Histogram: 36 2 0 0 0 0 0 0 0 2
Nghost:    2.025 ave 26 max 0 min
Histogram: 36 0 0 0 0 2 0 0 0 2
Neighs:    0.175 ave 5 max 0 min
[...]
Neighs:    0.075 ave 3 max 0 min
Histogram: 39 0 0 0 0 0 0 0 0 1

Total # of neighbors = 3
Ave neighs/atom = 0.0131004
Neighbor list builds = 2962
Dangerous builds = 3
Setting up run at Thu Jan  5 21:51:13 2023

Memory usage per processor = 960.195 Mbytes
    Step    Atoms         KinEng            CPU 
29835377      229   0.0091900866              0 
30041138      227  0.00025385084      1967.8331 
Loop time of 1967.83 on 40 procs for 205761 steps with 227 atoms, finish time Thu Jan  5 22:24:01 2023


Pair  time (%) = 0.363071 (0.0184503)
Neigh time (%) = 2.41178 (0.12256)
Comm  time (%) = 2.47851 (0.125951)
Outpt time (%) = 0.000498448 (2.53298e-05)
Other time (%) = 1962.58 (99.733)

Nlocal:    5.675 ave 95 max 0 min
Histogram: 36 2 0 0 0 0 0 0 0 2
Nghost:    1 ave 13 max 0 min
Histogram: 34 0 1 3 0 0 1 0 0 1
Neighs:    0.075 ave 3 max 0 min
Histogram: 39 0 0 0 0 0 0 0 0 1

Total # of neighbors = 3
Ave neighs/atom = 0.0132159
Neighbor list builds = 2948
Dangerous builds = 1
Setting up run at Thu Jan  5 22:24:01 2023

Memory usage per processor = 960.195 Mbytes
    Step    Atoms         KinEng            CPU 
30041138      227  0.00025385084              0 
30246899      225  0.00020189119      1964.4562 
Loop time of 1964.46 on 40 procs for 205761 steps with 225 atoms, finish time Thu Jan  5 22:56:46 2023


Pair  time (%) = 0.358067 (0.0182273)
Neigh time (%) = 1.49697 (0.0762029)
Comm  time (%) = 1.81564 (0.0924244)
Outpt time (%) = 0.000166343 (8.46761e-06)
Other time (%) = 1960.79 (99.8131)

Nlocal:    5.625 ave 94 max 0 min
Histogram: 37 1 0 0 0 0 0 0 0 2
Nghost:    1.025 ave 13 max 0 min
Histogram: 34 0 1 2 1 0 1 0 0 1
Neighs:    0.125 ave 4 max 0 min
Histogram: 38 0 1 0 0 0 0 0 0 1

Total # of neighbors = 5
Ave neighs/atom = 0.0222222
Neighbor list builds = 1841
Dangerous builds = 2
Setting up run at Thu Jan  5 22:56:46 2023

Memory usage per processor = 960.195 Mbytes
    Step    Atoms         KinEng            CPU 
30246899      225  0.00020189119              0 
30452660      221  0.00031705623      1961.7079 
Loop time of 1961.71 on 40 procs for 205761 steps with 221 atoms, finish time Thu Jan  5 23:29:28 2023


Pair  time (%) = 0.357539 (0.0182259)
Neigh time (%) = 1.89838 (0.0967719)
Comm  time (%) = 2.35085 (0.119837)
Outpt time (%) = 0.000489276 (2.49413e-05)
Other time (%) = 1957.1 (99.7651)

Nlocal:    5.525 ave 93 max 0 min
Histogram: 38 0 0 0 0 0 0 0 0 2
Nghost:    1.05 ave 12 max 0 min
Histogram: 34 0 1 2 0 1 0 0 0 2
Neighs:    0.1 ave 2 max 0 min
Histogram: 38 0 0 0 0 0 0 0 0 2

Total # of neighbors = 4
Ave neighs/atom = 0.0180995
Neighbor list builds = 2334
Dangerous builds = 132
Setting up run at Thu Jan  5 23:29:28 2023

Memory usage per processor = 960.195 Mbytes
    Step    Atoms         KinEng            CPU 
30452660      221  0.00031705623              0 
30658421      219  0.00017313771      1951.3695 
Loop time of 1951.37 on 40 procs for 205761 steps with 219 atoms, finish time Fri Jan  6 00:01:59 2023


Pair  time (%) = 0.35315 (0.0180976)
Neigh time (%) = 0.655523 (0.033593)
Comm  time (%) = 0.992392 (0.0508562)
Outpt time (%) = 0.000242862 (1.24457e-05)
Other time (%) = 1949.37 (99.8974)

Nlocal:    5.475 ave 94 max 0 min
Histogram: 38 0 0 0 0 0 0 0 0 2
Nghost:    1.05 ave 13 max 0 min
Histogram: 34 1 0 2 1 0 0 0 0 2
Neighs:    0.05 ave 2 max 0 min
Histogram: 39 0 0 0 0 0 0 0 0 1

Total # of neighbors = 2
Ave neighs/atom = 0.00913242
Neighbor list builds = 819
Dangerous builds = 2
Setting up run at Fri Jan  6 00:01:59 2023

Memory usage per processor = 960.195 Mbytes
    Step    Atoms         KinEng            CPU 
30658421      219  0.00017313771              0 
30864182      218  0.00016143999      1950.9801 
Loop time of 1950.98 on 40 procs for 205761 steps with 218 atoms, finish time Fri Jan  6 00:34:30 2023


Pair  time (%) = 0.353522 (0.0181202)
Neigh time (%) = 0.438694 (0.0224858)
Comm  time (%) = 0.831725 (0.0426311)
Outpt time (%) = 0.000484645 (2.48411e-05)
Other time (%) = 1949.36 (99.9167)

Nlocal:    5.45 ave 95 max 0 min
Histogram: 38 0 0 0 0 0 0 0 0 2
Nghost:    1 ave 14 max 0 min
Histogram: 35 0 1 1 1 0 1 0 0 1
Neighs:    0.05 ave 2 max 0 min
Histogram: 39 0 0 0 0 0 0 0 0 1

Total # of neighbors = 2
Ave neighs/atom = 0.00917431
Neighbor list builds = 558
Dangerous builds = 1
Setting up run at Fri Jan  6 00:34:30 2023

Memory usage per processor = 960.195 Mbytes
    Step    Atoms         KinEng            CPU 
30864182      218  0.00016143999              0 
31069943      216  0.00020286817      1945.4732 
Loop time of 1945.47 on 40 procs for 205761 steps with 216 atoms, finish time Fri Jan  6 01:06:56 2023


Pair  time (%) = 0.355349 (0.0182654)
Neigh time (%) = 0.434681 (0.0223432)
Comm  time (%) = 0.847477 (0.0435615)
Outpt time (%) = 0.000221423 (1.13815e-05)
Other time (%) = 1943.84 (99.9158)

Nlocal:    5.4 ave 96 max 0 min
Histogram: 38 0 0 0 0 0 0 0 0 2
Nghost:    1.025 ave 17 max 0 min
Histogram: 35 1 1 2 0 0 0 0 0 1
Neighs:    0.025 ave 1 max 0 min
Histogram: 39 0 0 0 0 0 0 0 0 1

Total # of neighbors = 1
Ave neighs/atom = 0.00462963
Neighbor list builds = 552
Dangerous builds = 1
Setting up run at Fri Jan  6 01:06:56 2023

Memory usage per processor = 960.195 Mbytes
    Step    Atoms         KinEng            CPU 
31069943      216  0.00020286817              0 
31275704      214  0.00016077992      1953.1267 
Loop time of 1953.13 on 40 procs for 205761 steps with 214 atoms, finish time Fri Jan  6 01:39:29 2023


Pair  time (%) = 0.352809 (0.0180638)
Neigh time (%) = 0.825008 (0.0422404)
Comm  time (%) = 1.14584 (0.0586668)
Outpt time (%) = 0.000519919 (2.66198e-05)
Other time (%) = 1950.8 (99.881)

Nlocal:    5.35 ave 96 max 0 min
Histogram: 38 0 0 0 0 0 0 0 0 2
Nghost:    0.975 ave 16 max 0 min
Histogram: 35 1 0 3 0 0 0 0 0 1
Neighs:    0.05 ave 2 max 0 min
Histogram: 39 0 0 0 0 0 0 0 0 1

Total # of neighbors = 2
Ave neighs/atom = 0.00934579
Neighbor list builds = 1026
Dangerous builds = 1
Setting up run at Fri Jan  6 01:39:29 2023

Memory usage per processor = 960.195 Mbytes
    Step    Atoms         KinEng            CPU 
31275704      214  0.00016077992              0 
31481465      213  0.00022263174      1956.7642 
Loop time of 1956.76 on 40 procs for 205761 steps with 213 atoms, finish time Fri Jan  6 02:12:06 2023


Pair  time (%) = 0.352903 (0.018035)
Neigh time (%) = 0.435441 (0.0222531)
Comm  time (%) = 1.21924 (0.0623091)
Outpt time (%) = 0.000338138 (1.72804e-05)
Other time (%) = 1954.76 (99.8974)

Nlocal:    5.325 ave 98 max 0 min
Histogram: 38 0 0 0 0 0 0 0 1 1
Nghost:    0.975 ave 16 max 0 min
Histogram: 34 2 1 1 0 1 0 0 0 1
Neighs:    0.05 ave 2 max 0 min
Histogram: 39 0 0 0 0 0 0 0 0 1

Total # of neighbors = 2
Ave neighs/atom = 0.00938967
Neighbor list builds = 552
Dangerous builds = 1
Setting up run at Fri Jan  6 02:12:06 2023

Memory usage per processor = 960.195 Mbytes
    Step    Atoms         KinEng            CPU 
31481465      213  0.00022263174              0 
31687226      213  0.00018056374      1953.3598 
Loop time of 1953.36 on 40 procs for 205761 steps with 213 atoms, finish time Fri Jan  6 02:44:39 2023


Pair  time (%) = 0.356724 (0.0182621)
Neigh time (%) = 0.799068 (0.0409074)
Comm  time (%) = 1.34138 (0.0686706)
Outpt time (%) = 0.000558672 (2.86006e-05)
Other time (%) = 1950.86 (99.8721)

Nlocal:    5.325 ave 98 max 0 min
Histogram: 37 1 0 0 0 0 0 0 1 1
Nghost:    0.925 ave 16 max 0 min
Histogram: 34 2 2 0 1 0 0 0 0 1
Neighs:    0.05 ave 2 max 0 min
Histogram: 39 0 0 0 0 0 0 0 0 1

Total # of neighbors = 2
Ave neighs/atom = 0.00938967
Neighbor list builds = 994
Dangerous builds = 0
Setting up run at Fri Jan  6 02:44:39 2023

Memory usage per processor = 960.195 Mbytes
    Step    Atoms         KinEng            CPU 
31687226      213  0.00018056374              0 
31892987      213    0.027711579      1963.2118 
Loop time of 1963.21 on 40 procs for 205761 steps with 213 atoms, finish time Fri Jan  6 03:17:23 2023


Pair  time (%) = 0.360232 (0.0183491)
Neigh time (%) = 2.03374 (0.103593)
Comm  time (%) = 2.27729 (0.115998)
Outpt time (%) = 0.000174878 (8.90774e-06)
Other time (%) = 1958.54 (99.7621)

Nlocal:    5.325 ave 100 max 0 min
Histogram: 38 0 0 0 0 0 0 0 1 1
Nghost:    1.025 ave 17 max 0 min
Histogram: 34 2 2 0 0 1 0 0 0 1
Neighs:    0.05 ave 2 max 0 min
Histogram: 39 0 0 0 0 0 0 0 0 1

Total # of neighbors = 2
Ave neighs/atom = 0.00938967
Neighbor list builds = 2491
Dangerous builds = 0
Setting up run at Fri Jan  6 03:17:23 2023

Memory usage per processor = 960.195 Mbytes
    Step    Atoms         KinEng            CPU 
31892987      213    0.027711579              0 
32098748      211   0.0045795644       1965.508 
Loop time of 1965.51 on 40 procs for 205761 steps with 211 atoms, finish time Fri Jan  6 03:50:08 2023


Pair  time (%) = 0.359526 (0.0182918)
Neigh time (%) = 1.66724 (0.084825)
Comm  time (%) = 1.9887 (0.10118)
Outpt time (%) = 0.00051042 (2.59689e-05)
Other time (%) = 1961.49 (99.7957)

Nlocal:    5.275 ave 98 max 0 min
Histogram: 37 1 0 0 0 0 0 0 1 1
Nghost:    1.025 ave 16 max 0 min
Histogram: 34 2 2 0 0 0 1 0 0 1
Neighs:    0.05 ave 2 max 0 min
Histogram: 39 0 0 0 0 0 0 0 0 1

Total # of neighbors = 2
Ave neighs/atom = 0.00947867
Neighbor list builds = 2050
Dangerous builds = 2
Setting up run at Fri Jan  6 03:50:08 2023

Memory usage per processor = 960.195 Mbytes
    Step    Atoms         KinEng            CPU 
32098748      211   0.0045795644              0 
32304509      208  0.00045100649      1958.6895 
Loop time of 1958.69 on 40 procs for 205761 steps with 208 atoms, finish time Fri Jan  6 04:22:47 2023


Pair  time (%) = 0.355034 (0.0181261)
Neigh time (%) = 1.35384 (0.0691195)
Comm  time (%) = 1.46275 (0.0746803)
Outpt time (%) = 0.000195138 (9.9627e-06)
Other time (%) = 1955.52 (99.8381)

Nlocal:    5.2 ave 96 max 0 min
Histogram: 38 0 0 0 0 0 0 0 1 1
Nghost:    1.1 ave 15 max 0 min
Histogram: 34 1 2 1 0 0 0 0 0 2
Neighs:    0.025 ave 1 max 0 min
Histogram: 39 0 0 0 0 0 0 0 0 1

Total # of neighbors = 1
Ave neighs/atom = 0.00480769
Neighbor list builds = 1675
Dangerous builds = 103
Setting up run at Fri Jan  6 04:22:47 2023

Memory usage per processor = 960.195 Mbytes
    Step    Atoms         KinEng            CPU 
32304509      208  0.00045100649              0 
32510270      207   0.0075394803      1962.1737 
Loop time of 1962.17 on 40 procs for 205761 steps with 207 atoms, finish time Fri Jan  6 04:55:29 2023


Pair  time (%) = 0.356068 (0.0181466)
Neigh time (%) = 1.93148 (0.0984355)
Comm  time (%) = 1.41484 (0.072106)
Outpt time (%) = 0.000538977 (2.74683e-05)
Other time (%) = 1958.47 (99.8113)

Nlocal:    5.175 ave 96 max 0 min
Histogram: 38 0 0 0 0 0 0 0 1 1
Nghost:    0.975 ave 13 max 0 min
Histogram: 34 1 1 2 0 0 0 0 0 2
Neighs:    0.075 ave 2 max 0 min
Histogram: 38 0 0 0 0 1 0 0 0 1

Total # of neighbors = 3
Ave neighs/atom = 0.0144928
Neighbor list builds = 2370
Dangerous builds = 1
Setting up run at Fri Jan  6 04:55:29 2023

Memory usage per processor = 960.195 Mbytes
    Step    Atoms         KinEng            CPU 
32510270      207   0.0075394803              0 
32716031      205  0.00026547109      1966.7545 
Loop time of 1966.76 on 40 procs for 205761 steps with 205 atoms, finish time Fri Jan  6 05:28:16 2023


Pair  time (%) = 0.357112 (0.0181574)
Neigh time (%) = 2.44907 (0.124523)
Comm  time (%) = 1.55174 (0.0788983)
Outpt time (%) = 0.000180714 (9.18843e-06)
Other time (%) = 1962.4 (99.7784)

Nlocal:    5.125 ave 97 max 0 min
Histogram: 38 0 0 0 0 0 0 0 1 1
Nghost:    0.95 ave 17 max 0 min
Histogram: 34 2 2 0 1 0 0 0 0 1
Neighs:    0.1 ave 3 max 0 min
Histogram: 38 0 0 1 0 0 0 0 0 1

Total # of neighbors = 4
Ave neighs/atom = 0.0195122
Neighbor list builds = 2998
Dangerous builds = 2
Setting up run at Fri Jan  6 05:28:16 2023

Memory usage per processor = 960.195 Mbytes
    Step    Atoms         KinEng            CPU 
32716031      205  0.00026547109              0 
32921792      204  0.00018430403      1942.0284 
Loop time of 1942.03 on 40 procs for 205761 steps with 204 atoms, finish time Fri Jan  6 06:00:38 2023


Pair  time (%) = 0.350023 (0.0180236)
Neigh time (%) = 0.538889 (0.0277488)
Comm  time (%) = 0.828539 (0.0426636)
Outpt time (%) = 0.00055786 (2.87257e-05)
Other time (%) = 1940.31 (99.9115)

Nlocal:    5.1 ave 95 max 0 min
Histogram: 38 0 0 0 0 0 0 0 1 1
Nghost:    0.975 ave 16 max 0 min
Histogram: 34 2 1 1 0 1 0 0 0 1
Neighs:    0.125 ave 5 max 0 min
Histogram: 39 0 0 0 0 0 0 0 0 1

Total # of neighbors = 5
Ave neighs/atom = 0.0245098
Neighbor list builds = 679
Dangerous builds = 1
Setting up run at Fri Jan  6 06:00:38 2023

Memory usage per processor = 960.195 Mbytes
    Step    Atoms         KinEng            CPU 
32921792      204  0.00018430403              0 
33127553      202    0.000174532      1952.1711 
Loop time of 1952.17 on 40 procs for 205761 steps with 202 atoms, finish time Fri Jan  6 06:33:10 2023


Pair  time (%) = 0.352201 (0.0180415)
Neigh time (%) = 0.899862 (0.0460954)
Comm  time (%) = 0.966854 (0.0495271)
Outpt time (%) = 0.000194189 (9.94732e-06)
Other time (%) = 1949.95 (99.8863)

Nlocal:    5.05 ave 94 max 0 min
Histogram: 38 0 0 0 0 0 0 0 1 1
Nghost:    0.95 ave 12 max 0 min
Histogram: 34 0 1 2 1 0 0 0 1 1
Neighs:    0.15 ave 6 max 0 min
Histogram: 39 0 0 0 0 0 0 0 0 1

Total # of neighbors = 6
Ave neighs/atom = 0.029703
Neighbor list builds = 1116
Dangerous builds = 2
Setting up run at Fri Jan  6 06:33:10 2023

Memory usage per processor = 960.195 Mbytes
    Step    Atoms         KinEng            CPU 
33127553      202    0.000174532              0 
33333314      202  0.00016920971      1953.3996 
Loop time of 1953.4 on 40 procs for 205761 steps with 202 atoms, finish time Fri Jan  6 07:05:44 2023


Pair  time (%) = 0.349851 (0.0179098)
Neigh time (%) = 0.529944 (0.0271293)
Comm  time (%) = 1.12303 (0.0574912)
Outpt time (%) = 0.000479162 (2.45296e-05)
Other time (%) = 1951.4 (99.8974)

Nlocal:    5.05 ave 92 max 0 min
Histogram: 38 0 0 0 0 0 0 0 1 1
Nghost:    0.9 ave 12 max 0 min
Histogram: 34 0 3 1 0 0 0 0 0 2
Neighs:    0.175 ave 6 max 0 min
Histogram: 38 1 0 0 0 0 0 0 0 1

Total # of neighbors = 7
Ave neighs/atom = 0.0346535
Neighbor list builds = 669
Dangerous builds = 0
Setting up run at Fri Jan  6 07:05:44 2023

Memory usage per processor = 960.195 Mbytes
    Step    Atoms         KinEng            CPU 
33333314      202  0.00016920971              0 
33539075      201  0.00030096679      1946.4471 
Loop time of 1946.45 on 40 procs for 205761 steps with 201 atoms, finish time Fri Jan  6 07:38:10 2023


Pair  time (%) = 0.35409 (0.0181916)
Neigh time (%) = 0.839108 (0.0431097)
Comm  time (%) = 1.50797 (0.0774729)
Outpt time (%) = 0.000101694 (5.22461e-06)
Other time (%) = 1943.75 (99.8612)

Nlocal:    5.025 ave 91 max 0 min
Histogram: 38 0 0 0 0 0 0 0 0 2
Nghost:    0.95 ave 14 max 0 min
Histogram: 34 0 4 0 0 0 0 1 0 1
Neighs:    0.1 ave 4 max 0 min
Histogram: 39 0 0 0 0 0 0 0 0 1

Total # of neighbors = 4
Ave neighs/atom = 0.0199005
Neighbor list builds = 1041
Dangerous builds = 1
Setting up run at Fri Jan  6 07:38:10 2023

Memory usage per processor = 960.195 Mbytes
    Step    Atoms         KinEng            CPU 
33539075      201  0.00030096679              0 
33744836      199  0.00016491351      1961.3256 
Loop time of 1961.33 on 40 procs for 205761 steps with 199 atoms, finish time Fri Jan  6 08:10:52 2023


Pair  time (%) = 0.351283 (0.0179105)
Neigh time (%) = 1.39778 (0.0712672)
Comm  time (%) = 1.91108 (0.097438)
Outpt time (%) = 0.000566983 (2.89081e-05)
Other time (%) = 1957.66 (99.8134)

Nlocal:    4.975 ave 87 max 0 min
Histogram: 38 0 0 0 0 0 0 0 0 2
Nghost:    0.925 ave 14 max 0 min
Histogram: 34 0 4 0 0 0 0 1 0 1
Neighs:    0.025 ave 1 max 0 min
Histogram: 39 0 0 0 0 0 0 0 0 1

Total # of neighbors = 1
Ave neighs/atom = 0.00502513
Neighbor list builds = 1720
Dangerous builds = 2
Setting up run at Fri Jan  6 08:10:52 2023

Memory usage per processor = 960.195 Mbytes
    Step    Atoms         KinEng            CPU 
33744836      199  0.00016491351              0 
33950597      198   0.0002730251      1950.1977 
Loop time of 1950.2 on 40 procs for 205761 steps with 198 atoms, finish time Fri Jan  6 08:43:22 2023


Pair  time (%) = 0.346183 (0.0177512)
Neigh time (%) = 0.535661 (0.027467)
Comm  time (%) = 1.05401 (0.0540464)
Outpt time (%) = 0.000209656 (1.07505e-05)
Other time (%) = 1948.26 (99.9007)

Nlocal:    4.95 ave 86 max 0 min
Histogram: 38 0 0 0 0 0 0 0 0 2
Nghost:    0.925 ave 15 max 0 min
Histogram: 34 0 4 0 0 0 1 0 0 1
Neighs:    0.025 ave 1 max 0 min
Histogram: 39 0 0 0 0 0 0 0 0 1

Total # of neighbors = 1
Ave neighs/atom = 0.00505051
Neighbor list builds = 675
Dangerous builds = 1
Setting up run at Fri Jan  6 08:43:22 2023

Memory usage per processor = 960.195 Mbytes
    Step    Atoms         KinEng            CPU 
33950597      198   0.0002730251              0 
34156358      197  0.00016112864      1948.6705 
Loop time of 1948.67 on 40 procs for 205761 steps with 197 atoms, finish time Fri Jan  6 09:15:51 2023


Pair  time (%) = 0.349567 (0.0179387)
Neigh time (%) = 0.531596 (0.0272799)
Comm  time (%) = 1.06005 (0.0543986)
Outpt time (%) = 0.000478427 (2.45514e-05)
Other time (%) = 1946.73 (99.9004)

Nlocal:    4.925 ave 86 max 0 min
Histogram: 38 0 0 0 0 0 0 0 0 2
Nghost:    0.925 ave 13 max 0 min
Histogram: 34 0 2 2 0 0 0 1 0 1
Neighs:    0.025 ave 1 max 0 min
Histogram: 39 0 0 0 0 0 0 0 0 1

Total # of neighbors = 1
Ave neighs/atom = 0.00507614
Neighbor list builds = 670
Dangerous builds = 1
Setting up run at Fri Jan  6 09:15:51 2023

Memory usage per processor = 960.195 Mbytes
    Step    Atoms         KinEng            CPU 
34156358      197  0.00016112864              0 
34362119      197  0.00016913984       1952.283 
Loop time of 1952.28 on 40 procs for 205761 steps with 197 atoms, finish time Fri Jan  6 09:48:23 2023


Pair  time (%) = 0.350669 (0.017962)
Neigh time (%) = 0.530339 (0.027165)
Comm  time (%) = 1.05806 (0.0541959)
Outpt time (%) = 0.000168767 (8.6446e-06)
Other time (%) = 1950.34 (99.9007)

Nlocal:    4.925 ave 86 max 0 min
Histogram: 38 0 0 0 0 0 0 0 0 2
Nghost:    0.9 ave 12 max 0 min
Histogram: 34 0 1 3 0 0 0 1 0 1
Neighs:    0.025 ave 1 max 0 min
Histogram: 39 0 0 0 0 0 0 0 0 1

Total # of neighbors = 1
Ave neighs/atom = 0.00507614
Neighbor list builds = 668
Dangerous builds = 0
Setting up run at Fri Jan  6 09:48:23 2023

Memory usage per processor = 960.195 Mbytes
    Step    Atoms         KinEng            CPU 
34362119      197  0.00016913984              0 
34567880      197  0.00016188091       1943.718 
Loop time of 1943.72 on 40 procs for 205761 steps with 197 atoms, finish time Fri Jan  6 10:20:47 2023


Pair  time (%) = 0.351404 (0.018079)
Neigh time (%) = 0.531489 (0.0273439)
Comm  time (%) = 1.12534 (0.0578962)
Outpt time (%) = 0.000458097 (2.35681e-05)
Other time (%) = 1941.71 (99.8967)

Nlocal:    4.925 ave 87 max 0 min
Histogram: 38 0 0 0 0 0 0 0 0 2
Nghost:    0.875 ave 11 max 0 min
Histogram: 34 0 1 3 0 0 0 0 1 1
Neighs:    0.05 ave 2 max 0 min
Histogram: 39 0 0 0 0 0 0 0 0 1

Total # of neighbors = 2
Ave neighs/atom = 0.0101523
Neighbor list builds = 671
Dangerous builds = 0
Setting up run at Fri Jan  6 10:20:47 2023

Memory usage per processor = 960.195 Mbytes
    Step    Atoms         KinEng            CPU 
34567880      197  0.00016188091              0 
34773641      195  0.00017186368      1952.1473 
Loop time of 1952.15 on 40 procs for 205761 steps with 195 atoms, finish time Fri Jan  6 10:53:19 2023


Pair  time (%) = 0.351524 (0.018007)
Neigh time (%) = 0.846654 (0.0433704)
Comm  time (%) = 1.3357 (0.068422)
Outpt time (%) = 0.000182931 (9.37076e-06)
slurmstepd: error: *** JOB 14814230 ON r07c18 CANCELLED AT 2023-01-06T13:03:19 DUE TO TIME LIMIT ***
srun: Job step aborted: Waiting up to 62 seconds for job step to finish.
slurmstepd: error: *** STEP 14814230.0 ON r07c18 CANCELLED AT 2023-01-06T13:03:19 DUE TO TIME LIMIT ***
