ITEM: TIMESTEP
28394974
ITEM: NUMBER OF ATOMS
2297
ITEM: BOX BOUNDS ff ff ff
-0.15 0.15
-0.15 0.15
-0.15 0.15
ITEM: ATOMS id type x y z radius vx vy vz density 
2133 1 -0.0666466 -0.143883 -0.0111458 0.000423 -92.8782 -109.116 153.57 2650 
3906 1 -0.00185923 -0.0463177 -0.0688589 0.000116 -35.0426 3.72685 0.94617 2650 
2261 1 -0.00139374 -0.0368145 -0.0688699 0.000116 -34.1146 4.70292 0.690389 2650 
2688 1 -0.00806782 -0.0606772 -0.0681079 0.000423 -36.2905 3.9954 4.57951 2650 
383 1 -0.00692764 -0.0607852 -0.0682266 0.000423 -33.5415 -0.349399 3.40545 2650 
2247 1 -0.00332357 -0.0605678 -0.0684254 0.000423 -29.4476 -0.637295 -2.24002 2650 
3097 1 -0.00221343 -0.0604126 -0.0685416 0.000423 -32.7972 0.348948 1.05904 2650 
687 1 -0.00878734 -0.0575524 -0.0680122 0.000423 -34.6183 -0.864198 4.47622 2650 
2584 1 -0.00943739 -0.0567084 -0.067925 0.000423 -33.5115 2.13508 4.65096 2650 
3342 1 -0.0081099 -0.0536177 -0.0680962 0.000423 -34.0044 1.20836 4.04806 2650 
3437 1 -0.00837634 -0.0528029 -0.068064 0.000423 -34.1092 1.25689 4.19824 2650 
2583 1 -0.00978927 -0.0477721 -0.0678752 0.000423 -33.8633 1.06725 4.88341 2650 
2460 1 -0.00285045 -0.0473782 -0.0685181 0.000423 -33.0663 1.895 1.37549 2650 
781 1 -0.00387314 -0.045609 -0.0682357 0.000656 -30.8223 1.23866 1.74903 2650 
3545 1 -0.00961652 -0.0406867 -0.0678997 0.000423 -32.1056 3.1286 4.54672 2650 
1218 1 -0.00317846 -0.0395491 -0.0682716 0.000656 -30.9034 -1.46557 1.43834 2650 
3650 1 -0.0056779 -0.032984 -0.0683419 0.000423 -32.4407 -2.36455 2.69501 2650 
1773 1 -0.00706721 -0.0278132 -0.0682121 0.000423 -31.4613 1.05136 3.25939 2650 
2786 1 -0.00352989 -0.0258382 -0.0684866 0.000423 -35.2204 1.35401 1.8151 2650 
3311 1 -0.0100014 -0.0247231 -0.0678439 0.000423 -28.7073 -0.43417 4.2318 2650 
3443 1 -0.00233133 -0.020186 -0.0685376 0.000423 -31.5324 2.14546 1.07252 2650 
254 1 -0.00233458 -0.0126783 -0.0685373 0.000423 -26.8125 11.0148 0.913291 2650 
2991 1 -0.00372288 -0.0076485 -0.0684761 0.000423 -30.3709 -2.02701 1.65111 2650 
2063 1 -0.0141349 -0.0548705 -0.0671919 0.000116 -18.7941 -8.13319 6.86573 2650 
1261 1 -0.0147963 -0.0537169 -0.0669617 0.000423 -31.3349 2.38749 6.82619 2650 
1552 1 -0.0123142 -0.0540075 -0.0672279 0.000656 -32.0783 0.527856 5.87384 2650 
137 1 -0.0123026 -0.0485235 -0.0674649 0.000423 -32.5099 0.763954 5.92783 2650 
3757 1 -0.0116101 -0.0424817 -0.0675876 0.000423 -34.2565 5.8362 5.88384 2650 
4286 1 -0.0117452 -0.0339143 -0.0675641 0.000423 -32.3385 -1.80607 5.62115 2650 
1296 1 -0.0201396 -0.00302278 -0.0658797 0.000116 -201.619 98.3153 61.6352 2650 
4363 1 -0.0183271 -0.0595954 -0.0664012 0.000116 -32.0055 -3.4578 8.83366 2650 
3840 1 -0.0140503 -0.0467812 -0.0668869 0.000656 -32.4984 0.822765 6.82422 2650 
2210 1 -0.0159542 -0.0439509 -0.0664588 0.000656 -32.647 3.23709 7.83436 2650 
57 1 -0.0180057 -0.0249673 -0.0664891 0.000116 -34.8754 0.427044 9.44451 2650 
1675 1 -0.0171288 -0.0118984 -0.0664039 0.000423 -31.4433 -3.06781 8.1099 2650 
3991 1 -0.0165296 -0.00190629 -0.0665554 0.000423 -29.3089 -1.48141 7.27862 2650 
2474 1 -0.0204352 -0.0558094 -0.0654614 0.000423 -13.1228 2.66558 4.10419 2650 
1689 1 -0.0208326 -0.0115856 -0.0653364 0.000423 -26.8689 1.97692 8.56663 2650 
3247 1 -0.0188337 -0.00916084 -0.0662593 0.000116 9.30494 -3.40407 -2.64437 2650 
606 1 -0.021376 -0.00510825 -0.0654834 0.000116 -34.1457 -3.39491 11.1463 2650 
1918 1 -0.0218471 -0.0499276 -0.065005 0.000423 -33.5183 -1.1878 11.2627 2650 
3652 1 -0.0216602 -0.0256922 -0.0650672 0.000423 -31.9276 1.30825 10.6267 2650 
308 1 -0.0239265 -0.0221203 -0.0645951 0.000116 -21.6729 2.76647 8.0278 2650 
3484 1 -0.0230287 -0.017679 -0.0649206 0.000116 -32.3161 6.42576 11.4632 2650 
2213 1 -0.0193919 -0.0584601 -0.0646066 0.000423 -9.8707 -5.558 -2.027 2650 
2866 1 -0.0243168 -0.0480546 -0.0638771 0.000656 -33.7904 0.380601 12.8576 2650 
39 1 -0.0257938 -0.0428982 -0.063543 0.000423 -34.6418 1.09296 14.0585 2650 
536 1 -0.0255116 -0.00758563 -0.0639234 0.000116 -30.328 -0.280497 11.2065 2650 
1792 1 -0.0248157 -0.00778614 -0.0639302 0.000423 -28.2905 -0.0589865 10.97 2650 
1742 1 -0.0263009 -0.000500091 -0.0636653 0.000116 -29.416 -0.612045 12.1534 2650 
2394 1 -0.0279528 -0.0537188 -0.0629575 0.000116 -29.4499 4.22621 13.0756 2650 
2858 1 -0.0252398 -0.0466038 -0.0635187 0.000656 -34.5611 0.206527 13.7269 2650 
3479 1 -0.0272649 -0.00768162 -0.0632585 0.000116 -29.2772 -1.65594 12.6187 2650 
121 1 -0.0253015 -0.00509004 -0.0634917 0.000656 -29.2904 1.50141 11.6674 2650 
4176 1 -0.0266622 -0.00431288 -0.0631828 0.000423 -30.1327 1.05002 12.713 2650 
1511 1 -0.0301052 -0.0472222 -0.0619571 0.000116 -32.575 5.14344 15.8283 2650 
4139 1 -0.0287384 -0.0185976 -0.0626028 0.000116 -28.7042 2.77996 13.1769 2650 
743 1 -0.0305574 -0.0531626 -0.0617353 0.000116 -32.3876 0.119176 16.031 2650 
4049 1 -0.0316979 -0.00790344 -0.0612409 4.2e-05 -28.798 -5.4582 14.9057 2650 
670 1 -0.0296113 -0.00524892 -0.0616018 0.000656 -30.7946 -1.5583 14.7957 2650 
3593 1 -0.0331207 -0.0470251 -0.0603989 0.000116 -30.9963 4.34701 16.9972 2650 
2651 1 -0.0318772 -0.0262102 -0.0607205 0.000423 -33.7448 1.07502 17.6932 2650 
678 1 -0.032664 -0.0264584 -0.0603015 0.000423 -34.6655 3.21376 18.7885 2650 
3928 1 -0.0161929 -0.0133134 -0.0610432 0.000116 -21.7186 -11.8946 4.75914 2650 
616 1 -0.0328863 -0.0123285 -0.0605268 0.000116 -18.4686 1.7601 10.0346 2650 
2984 1 -0.0327187 -0.0437718 -0.0602704 0.000423 -29.23 -0.395594 15.8634 2650 
1289 1 -0.0341585 -0.0316831 -0.0598181 0.000116 -30.8957 1.29065 17.6426 2650 
4143 1 -0.0339463 -0.0145935 -0.0599388 0.000116 -25.6452 3.88858 14.4791 2650 
1587 1 -0.034223 -0.0567813 -0.0594301 0.000423 -31.5752 3.13004 18.1769 2650 
881 1 -0.034714 -0.0186655 -0.058879 0.000656 -29.9713 -0.162124 17.6618 2650 
803 1 -0.0342949 -0.01599 -0.0593871 0.000423 -25.3717 1.02658 14.6477 2650 
4301 1 -0.0366531 -0.0414238 -0.0579634 0.000423 -30.8065 -3.07888 19.474 2650 
1106 1 -0.0372561 -0.0522319 -0.0573047 0.000656 -28.469 0.181903 18.4994 2650 
2002 1 -0.010542 -0.00239085 -0.0586581 0.000423 -34.7593 -10.9966 -17.2518 2650 
4237 1 -0.0389299 -0.008883 -0.0568284 0.000116 -24.83 -0.858036 17.0095 2650 
2904 1 -0.0406753 -0.0462936 -0.0552166 0.000423 -30.5003 -0.769221 22.4604 2650 
2672 1 -0.0405693 -0.0216173 -0.0552938 0.000423 -28.2207 0.738979 20.6985 2650 
2165 1 -0.0435546 -0.00271881 -0.0533667 0.000116 -17.8156 -1.81987 14.5396 2650 
1134 1 -0.0436722 -0.0494017 -0.0528781 0.000423 -26.8815 -2.70475 22.1936 2650 
1277 1 -0.0447504 -0.0376862 -0.0523684 0.000116 -25.938 -3.46983 22.1624 2650 
4058 1 -0.0441875 -0.0310984 -0.0520696 0.000656 -11.4684 5.90878 10.0098 2650 
3981 1 -0.0461656 -0.0340301 -0.0507161 0.000423 -23.9565 -0.386089 21.799 2650 
4187 1 -0.0455937 -0.0291514 -0.0510943 0.000423 -16.0537 -1.27415 13.5634 2650 
2355 1 -0.0478569 -0.0325864 -0.0491236 0.000423 -22.6446 -7.52179 22.0524 2650 
259 1 -0.0475032 -0.0160999 -0.0494658 0.000423 -23.4236 0.150488 22.4859 2650 
2551 1 -0.0477453 -0.00657048 -0.0492302 0.000423 -16.9233 -2.95708 16.4062 2650 
3106 1 -0.0481725 -0.0264988 -0.0488122 0.000423 -23.8806 -0.382195 23.7753 2650 
3698 1 -0.0486099 -0.0261833 -0.0488045 0.000116 -22.6053 2.80515 26.0253 2650 
1030 1 -0.0481895 -0.0256005 -0.0487981 0.000423 -23.9744 -1.70841 23.6667 2650 
21 1 -0.0407806 -0.0176157 -0.0491068 0.000423 8.88594 9.51561 5.71076 2650 
3611 1 -0.0494994 -0.0614278 -0.0480108 4.2e-05 -29.1688 4.96693 30.0717 2650 
3733 1 -0.0485916 -0.0273406 -0.0480767 0.000656 -26.3482 1.17259 26.6715 2650 
1933 1 -0.0497871 -0.00100567 -0.047606 0.000116 -20.0783 -2.41976 20.9955 2650 
3866 1 -0.0505889 -0.0434674 -0.0463076 0.000423 -24.4519 -0.44069 26.703 2650 
1260 1 -0.0514034 -0.0549144 -0.0454016 0.000423 -22.7767 -1.09676 25.7782 2650 
3017 1 -0.0516224 -0.0504048 -0.045154 0.000423 -26.3625 1.55268 30.1285 2650 
2349 1 -0.051468 -0.0412836 -0.0453289 0.000423 -23.9666 -2.85697 27.2028 2650 
2910 1 -0.0515396 -0.0173837 -0.045248 0.000423 -25.2456 0.483365 28.7459 2650 
3977 1 -0.0523202 -0.0596878 -0.0443439 0.000423 -25.9232 -1.29749 30.5755 2650 
3119 1 -0.0530045 -0.05194 -0.0435221 0.000423 -21.1822 1.84743 25.7879 2650 
4031 1 -0.0539007 -0.00647704 -0.042894 0.000116 -27.5559 -1.26936 34.6229 2650 
3487 1 -0.0545958 -0.0354864 -0.0420055 0.000116 -20.3006 -3.95032 26.3822 2650 
4175 1 -0.0544251 -0.0434962 -0.0413593 0.000656 -20.7941 0.0729117 27.3488 2650 
1808 1 -0.055954 -0.0387666 -0.0396605 0.000423 -20.2857 -1.8855 28.6115 2650 
1948 1 -0.0559309 -0.0320058 -0.0402107 0.000116 -14.5309 7.32662 20.2092 2650 
4188 1 -0.0560977 -0.0284299 -0.0394599 0.000423 -25.6818 0.548224 36.498 2650 
2542 1 -0.0559874 -0.0106727 -0.0396131 0.000423 -19.8136 -1.32601 27.9935 2650 
1762 1 -0.0552291 -0.00160913 -0.0402739 0.000656 -13.6041 -0.984065 18.645 2650 
1920 1 -0.0562684 -0.0599699 -0.0392132 0.000423 -19.8485 -3.04899 28.4712 2650 
4310 1 -0.0562809 -0.0379727 -0.0391951 0.000423 -19.4179 -0.329919 27.8704 2650 
942 1 -0.0473492 -0.0202458 -0.0364749 0.000116 -45.4362 2.2412 90.633 2650 
1171 1 -0.0578071 -0.0500704 -0.0374639 0.000116 -19.4616 -0.876015 30.0261 2650 
1668 1 -0.0590382 -0.0223957 -0.0349041 0.000423 -14.4465 -0.686901 24.434 2650 
1984 1 -0.0594437 -0.0227571 -0.0337521 0.000656 -14.3206 -3.56823 25.1952 2650 
2203 1 -0.0600889 -0.0199225 -0.0325886 0.000656 -12.6787 -0.712758 23.366 2650 
2134 1 -0.0602959 -0.0131394 -0.0326853 0.000423 -15.1685 -0.867211 27.9737 2650 
404 1 -0.0611181 -0.0173844 -0.031778 0.000116 -20.683 3.09946 39.7752 2650 
1781 1 -0.0611221 -0.0279324 -0.0311166 0.000423 -18.6251 2.79692 36.5727 2650 
1787 1 -0.0609008 -0.0154062 -0.0315421 0.000423 -11.3902 2.21358 21.984 2650 
2877 1 -0.0621814 -0.0324631 -0.0289394 0.000423 -13.8165 2.8081 29.6767 2650 
3012 1 -0.0626828 -0.0417204 -0.0278346 0.000423 -10.0303 3.30967 22.5796 2650 
1873 1 -0.0629955 -0.00842045 -0.0265436 0.000656 -11.4429 -1.19722 27.1428 2650 
2297 1 -0.0651026 -0.0208549 -0.0225192 0.000116 -25.8776 -30.4319 74.9359 2650 
3712 1 -0.064711 -0.0161381 -0.0236173 0.000116 -10.3692 1.70005 28.4083 2650 
353 1 -0.0647992 -0.0159022 -0.0224757 0.000423 -10.0827 -4.35824 29.0591 2650 
3736 1 -0.0649123 -0.0185411 -0.0214424 0.000656 -11.0964 1.07483 33.5751 2650 
4157 1 -0.0658704 -0.0254717 -0.0204061 4.2e-05 -15.2088 -8.74972 49.0918 2650 
1067 1 -0.0662568 -0.0114079 -0.0188526 0.000116 -17.3059 -10.8731 60.8153 2650 
16 1 -0.0657157 -0.00686555 -0.0196457 0.000423 -13.5801 12.1307 45.4287 2650 
350 1 -0.0657627 -0.00961979 -0.0194793 0.000423 -9.31121 1.84327 31.424 2650 
2532 1 -0.0662307 -0.0238359 -0.0169329 0.000656 -7.32397 0.882494 28.6317 2650 
3432 1 -0.0669004 -0.0354843 -0.0151185 0.000423 -7.15658 2.07378 31.6573 2650 
2145 1 -0.00103465 -0.00244119 -0.0164093 0.000423 -0.0831945 -0.0103373 -0.00311532 2650 
2121 1 -0.066998 -0.0148975 -0.0146809 0.000423 -7.21895 -0.613754 32.9332 2650 
2301 1 -0.00522328 -0.00262769 -0.0135273 4.2e-05 -0.0407395 -0.0558556 0.0271209 2650 
1215 1 -0.0673827 -0.0430849 -0.0115422 0.000656 -6.32965 -1.11071 36.9337 2650 
2902 1 -0.0675996 -0.0192293 -0.0116018 0.000423 -5.89626 6.35876 34.3438 2650 
2639 1 -0.0673284 -0.00712844 -0.0118436 0.000656 -5.45324 -0.94805 30.9845 2650 
3424 1 -0.00444601 -0.000919064 -0.0130552 0.000423 -0.0187287 -0.00782046 -0.0333976 2650 
3427 1 -0.000694673 -0.000905298 -0.0133561 0.000423 -0.0127579 -0.00914173 -0.0343478 2650 
4125 1 -0.0677143 -0.0550164 -0.0126528 0.000116 3.70023 -10.8717 -19.8006 2650 
2345 1 -0.0676117 -0.0405851 -0.0115283 0.000423 -5.26529 -4.45887 30.8693 2650 
661 1 -0.0674581 -0.0288731 -0.0110914 0.000656 -5.95123 -1.90003 36.1775 2650 
2597 1 -0.00758757 -0.00326036 -0.0119006 0.000116 -0.0753065 -0.042848 0.0508418 2650 
822 1 -0.0678002 -0.0264408 -0.0103651 0.000423 -5.16458 0.233705 33.7711 2650 
2409 1 -0.002586 -0.00246897 -0.011527 4.2e-05 0 -0.01175 0 2650 
2418 1 -0.00225615 -0.00122342 -0.01181 4.2e-05 -0.0190113 0.00102534 -0.0173694 2650 
943 1 -0.0129912 -0.00165505 -0.0107077 0.000116 -0.0609268 -0.0254849 0.0505217 2650 
2211 1 -0.0126515 -0.00119748 -0.00951024 0.000656 -0.0295309 -0.0402427 0.0537347 2650 
1326 1 -0.0678386 -0.0322973 -0.00844614 0.000656 -3.88689 0.0521637 31.2029 2650 
3028 1 -0.0641655 -0.00323313 -0.00759532 0.000116 -3.57672 -17.4079 37.5683 2650 
3681 1 -0.00158153 -0.00182576 -0.00899238 0.000116 -0.00555516 -0.0123416 -0.00969441 2650 
3396 1 -0.013477 -0.00106392 -0.00903792 4.2e-05 -0.0127359 -0.0407238 0.0199105 2650 
1364 1 -0.0135043 -0.000353723 -0.00901678 0.000423 -0.0319255 -0.0114733 0.0477481 2650 
3313 1 -0.0681985 -0.0115108 -0.00728923 0.000423 -2.73308 -5.38754 25.5617 2650 
1308 1 -0.0141444 -0.003282 -0.00834418 0.000116 -0.0302855 -0.0591243 0.0863435 2650 
3615 1 -0.0139967 -0.00326677 -0.00807012 4.2e-05 -0.0314855 -0.109314 0.0424447 2650 
2059 1 -0.00536297 -0.00114308 -0.00849414 0.000116 -0.00265041 -0.00638524 0.00634598 2650 
3457 1 -0.00903488 -5.22296e-05 -0.00859971 0.000116 -0.0195877 -0.00777101 0.0236943 2650 
3492 1 -0.0685796 -0.0294865 -0.00649527 0.000116 -3.65861 1.31169 38.6251 2650 
3499 1 -0.00424 -0.00250797 -0.006869 0.000116 0 -0.01175 0 2650 
4358 1 -0.00210394 -0.00136166 -0.00699858 0.000116 0.00744107 -0.0133073 0.0016707 2650 
882 1 -0.0681852 -0.0335958 -0.00494167 0.000656 -2.62159 4.48477 36.1544 2650 
1690 1 -0.00818203 -0.00189322 -0.00612305 0.000423 -0.00950142 -0.00373525 0.0245092 2650 
858 1 -0.015759 -7.45528e-05 -0.0056623 0.000116 -0.0692293 -0.0430549 0.24382 2650 
3337 1 -0.0684711 -0.0315128 -0.00400152 0.000423 -1.89578 -0.38125 32.4278 2650 
1536 1 -0.0689297 -0.0263348 -0.00200489 4.2e-05 -1.10733 -2.65632 38.0695 2650 
761 1 -0.00452881 -0.00158022 -0.00378669 4.2e-05 -0.0153542 -0.0101589 -0.00187701 2650 
1995 1 -0.00823458 -6.9518e-05 -0.00354053 0.000423 -0.0151717 -0.00694999 0.0221089 2650 
2507 1 -0.0687736 -0.0616009 0.00403309 0.000116 12.7766 0.722564 217.856 2650 
2770 1 -0.0685644 -0.0565622 -0.00182257 0.000423 -0.990607 -0.631566 37.2533 2650 
1072 1 -0.0688718 -0.028922 -0.00142391 0.000116 -0.686138 0.19509 33.1837 2650 
3249 1 -0.0167991 -0.00349003 -0.00269006 0.000116 -0.756078 -0.413066 -0.085124 2650 
3109 1 -0.0160535 -0.00170432 -0.00239874 0.000423 -0.0222837 -0.0116935 0.0781671 2650 
3551 1 -0.00111993 -0.00206545 -0.00289351 0.000423 0.00681729 -0.000412746 0.016382 2650 
1932 1 -0.00864652 -0.0011102 -0.00253146 0.000116 0.0288399 0.0429521 -0.424056 2650 
2462 1 -0.0685802 -0.0323729 -0.00103916 0.000423 -0.506162 -1.02657 33.3924 2650 
1041 1 -0.00043 -0.00255197 -0.001594 0.000423 0 -0.01175 0 2650 
1153 1 -0.0144663 -0.000347055 -0.00166178 0.000423 0.00614588 0.0122176 0.0758772 2650 
3056 1 -0.0688862 -0.0422499 -0.00021323 0.000116 -0.0967241 -0.0718528 31.2441 2650 
236 1 -0.068587 -0.031478 0.000407088 0.000423 0.203455 -1.30274 34.2694 2650 
622 1 -0.001275 -0.00324497 -0.00065 0.000116 0 -0.01175 0 2650 
1502 1 -0.000502942 -0.00338969 -0.000532597 0.000116 -0.0424914 -0.0351251 -0.0449968 2650 
3041 1 -0.0168525 -0.00310967 -0.000149138 0.000116 -0.00827182 -0.0250029 0.146981 2650 
931 1 -0.00123503 -0.00232089 -0.000778288 0.000423 -0.0486656 -0.00828365 -0.0563529 2650 
3794 1 -0.0133531 -0.00045651 -0.000785558 0.000116 0.0522845 0.009244 0.0901315 2650 
3159 1 -0.001579 -0.000186966 -0.000637 0.000116 0 -0.01175 0 2650 
3675 1 -0.009322 -0.00274697 0.00047 0.000116 0 -0.01175 0 2650 
2946 1 -0.008642 -0.00279097 0.000303 0.000116 0 -0.01175 0 2650 
682 1 -0.0164027 -0.00154102 0.00124682 0.000423 -0.00397127 0.00147385 0.101175 2650 
2742 1 -0.0152975 -0.000728507 0.00116807 4.2e-05 0.000230632 -0.00502972 0.0408573 2650 
2077 1 -0.0688269 -0.0601299 0.00286297 0.000116 0.929573 2.39033 22.345 2650 
1618 1 -0.0116341 -0.00229545 0.00167116 0.000116 0.0285029 0.00100064 -0.0206288 2650 
123 1 -0.0151139 -0.000992074 0.00218103 0.000423 -0.0223972 -0.000227357 -0.00624872 2650 
2777 1 -0.0685025 -0.0109868 0.00341205 0.000423 1.40377 -0.558062 28.1733 2650 
1834 1 -0.00216747 -1.71379e-05 0.00260565 0.000116 -0.00212795 0.00259489 -0.00541187 2650 
1150 1 -0.00474524 -0.00303894 0.00339115 0.000423 -0.0735726 0.00823958 -0.0047143 2650 
2397 1 -0.0687153 -0.0550139 0.00485065 0.000116 0.991512 1.06919 14.0445 2650 
4284 1 -0.0249679 -0.00627036 0.00455121 0.000656 -3.42957 -0.629597 0.000698137 2650 
833 1 -0.0123438 -0.00172374 0.00472705 0.000116 0.180802 0.093867 -0.209249 2650 
1872 1 -0.0154194 -0.00124751 0.00498257 0.000656 -0.0177796 0.0363362 -0.0728954 2650 
4173 1 -0.0139352 -0.000936927 0.005048 0.000656 0.0302636 0.161723 -0.109631 2650 
3285 1 -0.009545 -0.000420966 0.005507 4.2e-05 0 -0.01175 0 2650 
2139 1 -0.0682722 -0.0191545 0.00657283 0.000423 3.10819 -2.78079 32.274 2650 
3833 1 -0.0684766 -0.0289172 0.00814168 4.2e-05 6.1471 2.25727 51.699 2650 
4273 1 -0.0135062 -0.000201947 0.00709511 4.2e-05 -0.128417 0.0207651 -0.189108 2650 
1583 1 -0.00193692 -0.000241308 0.00632682 0.000423 0.0258116 -0.000388673 -0.00650123 2650 
4287 1 -0.0680799 -0.0377968 0.00833282 0.000423 4.12828 1.2375 33.7171 2650 
3070 1 -0.014603 -0.000963725 0.00766525 4.2e-05 -5.38802e-05 -0.00565229 -0.0119279 2650 
98 1 -0.0682753 -0.0486278 0.0091555 0.000116 4.52139 2.15166 33.7139 2650 
1361 1 -0.0679369 -0.029131 0.00942826 0.000423 4.70724 0.461166 33.9074 2650 
3522 1 -0.0679574 -0.0219589 0.00928416 0.000423 5.25771 -5.82931 38.4745 2650 
459 1 -0.0679538 -0.0116494 0.00929929 0.000423 3.71737 0.637504 27.1549 2650 
4094 1 -0.0679531 -0.00550014 0.00930611 0.000423 4.04748 0.7446 29.5445 2650 
1213 1 -0.0675678 -0.030288 0.0103999 0.000656 5.3557 0.0162769 34.7785 2650 
3590 1 -0.0681428 -0.0246084 0.0100946 0.000116 4.63592 0.740477 31.291 2650 
954 1 -0.0681282 -0.0201571 0.0101926 0.000116 4.67586 0.794971 31.2505 2650 
3515 1 -0.00761281 -0.00406575 0.00908602 0.000656 -1.09842 -0.106703 1.31529 2650 
53 1 -0.0028686 -0.00372743 0.00871869 0.000423 -0.321898 -0.0967523 0.892822 2650 
2739 1 -0.005531 -0.000290966 0.009169 4.2e-05 0 -0.01175 0 2650 
2792 1 -0.00178751 -0.000535562 0.0088978 0.000423 -0.00454085 -0.01606 0.0287142 2650 
3664 1 -0.0677864 -0.0260917 0.0104523 0.000423 4.74515 -0.15192 30.7633 2650 
3746 1 -0.0675364 -0.0305022 0.011961 0.000423 5.34652 6.39726 30.1782 2650 
1351 1 -0.0667531 -0.0298323 0.0115465 0.000423 23.7538 -26.1007 32.1933 2650 
611 1 -0.0676699 -0.0531974 0.0128889 0.000116 6.65534 -3.94204 34.9386 2650 
341 1 -0.0671629 -0.0434008 0.0127536 0.000656 6.4746 1.09844 34.0797 2650 
1669 1 -0.0671356 -0.0490188 0.0140365 0.000423 6.36027 -1.62979 30.4102 2650 
3520 1 -0.0668676 -0.0357717 0.0142146 0.000656 6.40731 -0.743841 30.1255 2650 
4285 1 -0.00465739 -0.00129999 0.0136587 0.000423 -0.0624328 -0.0469925 -0.00224117 2650 
4289 1 -0.0054263 -0.00160615 0.0147658 0.000423 0.0560936 -0.0262783 0.0266981 2650 
4055 1 -0.00610013 -0.000539352 0.014601 4.2e-05 0.20858 0.0429392 0.101264 2650 
3564 1 -0.0666454 -0.0364476 0.0162063 0.000423 8.03777 5.05065 33.0426 2650 
2685 1 -0.00660558 -0.00287203 0.0150253 0.000423 0.216263 -0.0687913 0.115474 2650 
1723 1 -0.00733834 -0.000447864 0.0151809 0.000116 0.0462326 -0.0686066 0.0265855 2650 
692 1 -0.0663411 -0.0329759 0.0174118 0.000423 9.62386 -0.101476 36.6559 2650 
270 1 -0.0664894 -0.0297717 0.0168348 0.000423 8.33992 0.179905 32.9275 2650 
2327 1 -0.0663589 -0.00315675 0.0173399 0.000423 7.8287 1.33163 29.9497 2650 
3780 1 -0.00262318 -0.00585507 0.0175303 0.000423 -0.171409 -0.965621 0.974207 2650 
503 1 -0.0335608 -0.00484678 0.0179743 0.000116 -4.73468 -0.185985 2.53052 2650 
2751 1 -0.0226917 -0.0617241 0.0186325 0.000656 3.69564 -0.264476 4.46669 2650 
1871 1 -0.0643708 -0.0184289 0.0230134 0.000656 10.8101 0.576188 30.2216 2650 
2726 1 -0.0650782 -0.0036538 0.0225855 0.000116 6.82488 -2.59137 19.6632 2650 
234 1 -0.064299 -0.0105112 0.0238694 0.000423 11.3017 -2.78109 30.4338 2650 
1400 1 -0.0643789 -0.048405 0.0245078 0.000116 8.63778 3.72416 22.6879 2650 
814 1 -0.0637799 -0.0413603 0.0252243 0.000423 12.7945 -1.22727 32.3399 2650 
1788 1 -0.0636849 -0.0300807 0.0254619 0.000423 11.6549 0.0259669 29.1408 2650 
795 1 -0.0631743 -0.03932 0.0267044 0.000423 13.6342 0.0957841 32.2432 2650 
3234 1 -0.0628053 -0.0220835 0.0275601 0.000423 13.4196 1.10606 30.5704 2650 
3255 1 -0.0626377 -0.0280848 0.0285162 0.000116 4.68283 -9.45841 11.7212 2650 
385 1 -0.0622811 -0.0223132 0.0287248 0.000423 13.9819 0.27115 30.3049 2650 
1137 1 -0.0620701 -0.0106216 0.0291779 0.000423 14.4632 1.48899 30.7569 2650 
1112 1 -0.0615211 -0.018285 -0.0298012 0.000656 -13.4316 -2.31366 27.7129 2650 
3121 1 -0.0611572 -0.0258982 0.0310451 0.000423 15.1391 -0.87986 29.8127 2650 
1600 1 -0.0613394 -0.0109622 0.0313487 0.000116 18.0571 -5.56074 35.3281 2650 
3986 1 -0.0601977 -0.0247645 0.0328672 0.000423 17.4413 -1.27305 31.9333 2650 
1979 1 -0.0607119 -0.000332508 0.0327009 4.2e-05 15.8704 2.59047 29.4635 2650 
4196 1 -0.0597322 -0.0276805 0.0337059 0.000423 18.3047 0.0125106 32.4277 2650 
4293 1 -0.0599061 -0.000954572 0.0333919 0.000423 11.4507 -0.645314 20.5352 2650 
992 1 -0.0589906 -0.0334254 0.0345402 0.000656 16.6623 1.80945 28.4425 2650 
252 1 -0.05931 -0.0200703 0.034442 0.000423 17.0036 -0.335044 29.2702 2650 
2231 1 -0.0594876 -0.0147108 0.0341341 0.000423 16.3073 -0.622815 28.4097 2650 
3004 1 -0.0587334 -0.0358024 0.0354171 0.000423 19.2966 -2.59916 31.9892 2650 
1217 1 -0.0587296 -0.0304857 0.0349815 0.000656 16.5672 -4.36941 27.7998 2650 
1922 1 -0.0587668 -0.0280609 0.0353608 0.000423 17.7133 -1.87266 29.4278 2650 
1739 1 -0.0593947 -0.0249104 0.0348922 0.000116 10.0972 5.85668 17.1858 2650 
4003 1 -0.0587258 -0.0244468 0.036007 0.000116 17.7917 -5.04223 29.0141 2650 
4096 1 -0.0582443 -0.00622872 0.0362129 0.000423 14.9914 3.27617 24.103 2650 
1699 1 -0.0579383 -0.0360185 0.0367018 0.000423 18.1603 0.356533 28.6581 2650 
3406 1 -0.0575222 -0.0220327 0.0369379 0.000656 21.9988 -0.670292 34.2411 2650 
2807 1 -0.0584664 -0.00126504 0.0364263 0.000116 13.9106 -0.7573 22.3247 2650 
3658 1 -0.0574586 -0.0173791 0.0374488 0.000423 19.6735 0.0331138 30.1749 2650 
1237 1 -0.0575574 -0.0155312 0.037296 0.000423 18.0798 2.48395 27.8912 2650 
2124 1 -0.0572275 -0.00763389 0.0378013 0.000423 20.6953 5.1683 31.3207 2650 
3128 1 -0.0573647 -0.00508635 0.0375902 0.000423 15.3884 -1.31663 23.4748 2650 
886 1 -0.0566457 -0.0107436 0.0382642 0.000656 19.7717 1.06358 29.2547 2650 
3114 1 -0.0562542 -0.0176619 0.0392325 0.000423 17.2743 -1.09185 24.7599 2650 
2173 1 -0.0566618 -0.0101984 0.0391744 0.000116 20.2243 1.60134 29.2491 2650 
3955 1 -0.0562411 -0.00960937 0.0388545 0.000656 18.4268 0.745713 26.6584 2650 
2035 1 -0.0558169 -0.0445705 0.0398537 0.000423 21.0409 0.672203 29.4583 2650 
897 1 -0.0560465 -0.018661 0.039529 0.000423 18.3132 -1.53791 25.956 2650 
2922 1 -0.0558185 -0.0352301 0.0403667 0.000116 20.2649 1.61302 28.0188 2650 
125 1 -0.0553015 -0.00328789 0.0405617 0.000423 12.4695 1.74189 16.9939 2650 
3185 1 -0.0545227 -0.0434144 0.0412317 0.000656 21.4352 1.31853 28.3306 2650 
3661 1 -0.0545656 -0.0366034 0.0415497 0.000423 21.5971 1.79731 28.3526 2650 
70 1 -0.0207111 -0.0144214 0.0416765 0.000116 22.5904 -12.766 23.3652 2650 
1011 1 -0.0537953 -0.0451599 0.0425413 0.000423 20.8646 0.90768 26.3783 2650 
22 1 -0.0540865 -0.0437556 0.0421712 0.000423 21.9256 1.15263 28.1105 2650 
1800 1 -0.0533755 -0.0460662 0.0430667 0.000423 26.0238 -1.20937 32.525 2650 
1567 1 -0.052939 -0.0454983 0.0436051 0.000423 25.9871 3.68551 31.2337 2650 
409 1 -0.0539318 -0.0439539 0.0428509 0.000116 19.988 4.84581 25.3647 2650 
3454 1 -0.0532704 -0.0432479 0.0431966 0.000423 22.3531 0.449893 27.4636 2650 
2756 1 -0.0533603 -0.0362466 0.0427242 0.000656 21.7823 1.90248 27.1909 2650 
3885 1 -0.05278 -0.0435689 0.0437954 0.000423 22.824 -0.327432 27.6055 2650 
458 1 -0.053115 -0.00117581 0.043386 0.000423 17.6542 -0.531609 21.6048 2650 
786 1 -0.0521313 -0.0618653 0.0445633 0.000423 19.7458 -1.80933 23.0905 2650 
1763 1 -0.0516218 -0.0443566 0.0448079 0.000656 22.5288 -0.614687 25.9413 2650 
2219 1 -0.052162 -0.0249141 0.0445287 0.000423 22.8055 0.587765 26.7053 2650 
240 1 -0.0520634 -0.0175419 0.0446399 0.000423 12.2962 -1.48068 14.3351 2650 
2552 1 -0.0514154 -0.0387787 0.0453889 0.000423 24.5645 2.65804 27.8162 2650 
1886 1 -0.0512355 -0.00915833 0.0455889 0.000423 17.0885 1.27589 19.1975 2650 
707 1 -0.0515617 -0.00643858 0.0452189 0.000423 14.177 -1.90482 16.1587 2650 
139 1 -0.0507694 -0.0403875 0.0461096 0.000423 23.8155 -1.64865 26.2129 2650 
14 1 -0.0506239 -0.0347964 0.0462691 0.000423 23.4688 0.120757 25.6684 2650 
797 1 -0.0505471 -0.0224387 0.0463529 0.000423 23.1941 2.40679 25.2837 2650 
2798 1 -0.0509807 -0.0174886 0.0458722 0.000423 13.0763 -1.34561 14.5262 2650 
4082 1 -0.0508554 -0.00425153 0.0460129 0.000423 18.5892 -0.163537 20.5377 2650 
1544 1 -0.0493926 -0.044326 0.0472529 0.000656 24.0527 3.83562 25.1288 2650 
345 1 -0.0497366 -0.0397809 0.0472216 0.000423 24.8178 -0.486357 26.1303 2650 
3213 1 -0.0500494 -0.0143648 0.0468901 0.000423 24.7801 0.704149 26.4403 2650 
3217 1 -0.0501174 -0.0116632 0.0468148 0.000423 17.7368 -2.2315 18.9806 2650 
934 1 -0.0502826 -0.00441377 0.0466379 0.000423 18.9121 0.131417 20.3821 2650 
2988 1 -0.0491285 -0.0368759 0.0478536 0.000423 24.9295 0.970575 25.5845 2650 
3979 1 -0.0491837 -0.0311502 0.0477961 0.000423 22.6522 0.795958 23.3012 2650 
2410 1 -0.0499707 -0.012707 0.04752 4.2e-05 18.2585 -0.654967 19.1991 2650 
3574 1 -0.0408962 -0.0462677 0.0482718 0.000116 22.9324 8.55938 21.6206 2650 
338 1 -0.0481994 -0.0456288 0.0484689 0.000656 24.8283 2.80352 24.6774 2650 
491 1 -0.0483652 -0.0299893 0.0486232 0.000423 21.176 5.28522 21.0557 2650 
4098 1 -0.0481122 -0.0200401 0.0488735 0.000423 21.3994 -3.0277 21.0576 2650 
1916 1 -0.0480172 -0.0148984 0.048968 0.000423 24.9928 2.72983 24.4986 2650 
1359 1 -0.046661 -0.038566 0.0502633 0.000423 30.5146 6.78311 28.318 2650 
789 1 -0.0470892 -0.0291839 0.0498608 0.000423 25.4738 0.92498 24.0491 2650 
3621 1 -0.0458166 -0.0211864 0.0507238 0.000656 22.749 0.285575 20.5371 2650 
476 1 -0.0456923 -0.00191565 0.0511429 0.000423 23.7302 2.47856 21.214 2650 
3444 1 -0.0464568 -0.00042293 0.0504482 0.000423 19.4987 0.000132755 17.949 2650 
2916 1 -0.0453877 -0.0505012 0.0518172 0.000116 28.5198 -2.73685 24.9782 2650 
122 1 -0.0448874 -0.0135305 0.0515433 0.000656 16.2866 2.47646 14.1745 2650 
918 1 -0.0453785 -0.000878621 0.0514207 0.000423 23.1886 4.80422 20.4561 2650 
2325 1 -0.0439425 -0.0560118 0.0526534 0.000423 24.9295 -1.42551 20.7976 2650 
2793 1 -0.0445832 -0.0397973 0.052113 0.000423 27.3385 4.27926 23.38 2650 
2865 1 -0.0436149 -0.0172048 0.0526307 0.000656 27.7264 3.06347 22.9649 2650 
3990 1 -0.0436733 -0.0449643 0.0528772 0.000423 26.5254 2.91936 21.9005 2650 
3453 1 -0.0423102 -0.0432303 0.0539752 0.000423 31.7611 1.62056 24.8884 2650 
3862 1 -0.0422068 -0.036979 0.0540552 0.000423 28.7918 -1.99646 22.473 2650 
448 1 -0.041897 -0.00522572 0.0540032 0.000656 21.4961 -1.90498 16.6685 2650 
3647 1 -0.0415408 -0.0620609 0.054569 0.000423 30.7975 -0.933622 23.4366 2650 
1576 1 -0.0418111 -0.0359748 0.0543605 0.000423 25.1877 -3.07855 19.366 2650 
1975 1 -0.0409324 -0.0126136 0.0548317 4.2e-05 18.0395 -4.56553 12.4912 2650 
230 1 -0.0411638 -0.00621094 0.0545643 0.000656 22.3234 -0.867321 16.8306 2650 
2235 1 -0.0391357 -0.0616297 0.0563184 0.000423 32.3023 -0.602106 22.4393 2650 
601 1 -0.0394958 -0.0152159 0.0560628 0.000423 19.0673 -0.207138 13.4285 2650 
2869 1 -0.0395524 -0.0117963 0.0560238 0.000423 22.6571 -2.18473 15.99 2650 
1656 1 -0.037706 -0.0440818 0.0570093 0.000656 27.0666 1.41989 17.8939 2650 
1287 1 -0.0385641 -0.0418996 0.0570774 0.000116 33.7935 0.260322 22.8313 2650 
1776 1 -0.0379171 -0.037409 0.0571462 0.000423 34.6107 0.943047 22.9569 2650 
4064 1 -0.0379214 -0.0357749 0.0568659 0.000656 26.2697 0.697097 17.509 2650 
274 1 -0.0364767 -0.0611704 0.0580736 0.000423 27.0669 -3.00599 16.9954 2650 
2675 1 -0.0362365 -0.0477977 0.0582251 0.000423 32.1432 0.0933386 19.9977 2650 
1258 1 -0.0367374 -0.0445515 0.0579098 0.000423 29.6996 2.93808 18.8339 2650 
1795 1 -0.0372715 -0.0377701 0.0575693 0.000423 35.0407 1.30471 22.6785 2650 
307 1 -0.0371297 -0.0374276 0.0580206 0.000116 27.7215 -3.30055 17.7396 2650 
2336 1 -0.0355887 -0.0482701 0.0586232 0.000423 32.4596 -0.118672 19.6989 2650 
4077 1 -0.0348621 -0.0359164 0.0590568 0.000423 28.0836 0.0883539 16.5729 2650 
4303 1 -0.034182 -0.032395 0.0594521 0.000423 24.9837 -1.86753 14.3605 2650 
2340 1 -0.0344125 -0.0267612 0.0593196 0.000423 27.5675 -0.368716 15.9876 2650 
824 1 -0.0341071 -0.00982615 0.059495 0.000423 24.4349 -1.12303 14.0043 2650 
1783 1 -0.0338076 -0.0587848 0.0596653 0.000423 22.3512 -0.14624 12.6621 2650 
2461 1 -0.0336953 -0.0296615 0.0597299 0.000423 27.7502 -2.2481 15.65 2650 
1107 1 -0.0329904 -0.00642494 0.0598571 0.000656 20.0624 4.00743 10.8933 2650 
3322 1 -0.0330816 -0.0052714 0.0600721 0.000423 22.0629 5.10265 12.5875 2650 
1877 1 -0.0315772 -0.0560972 0.0606147 0.000656 23.2304 0.398994 12.0965 2650 
2011 1 -0.031342 -0.0502521 0.0609975 0.000423 29.2878 -3.77646 15.0446 2650 
3382 1 -0.0322173 -0.0489213 0.0608856 0.000116 32.7839 1.07956 17.3473 2650 
805 1 -0.0316412 -0.0480654 0.0608437 0.000423 32.8819 1.3376 17.0947 2650 
2332 1 -0.0310713 -0.0355568 0.0611361 0.000423 31.0685 2.76155 15.7854 2650 
991 1 -0.0305368 -0.0322 0.061147 0.000656 27.3202 -1.14709 13.6372 2650 
1063 1 -0.0321054 -0.0288729 0.0609446 0.000116 28.1841 5.85441 14.8472 2650 
3093 1 -0.0313106 -0.0274521 0.0610125 0.000423 23.7175 0.115641 12.1694 2650 
1842 1 -0.0319476 -0.0261867 0.0610275 0.000116 23.7539 0.709176 12.435 2650 
4309 1 -0.0321209 -0.0243691 0.0605909 0.000423 28.7439 -2.03762 15.2337 2650 
4316 1 -0.0317966 -0.00582465 0.0607598 0.000423 25.4216 2.05803 13.4233 2650 
4159 1 -0.0308731 -0.0258459 0.0616608 4.2e-05 30.0253 -2.05727 15.0334 2650 