ITEM: TIMESTEP
30864198
ITEM: NUMBER OF ATOMS
2149
ITEM: BOX BOUNDS ff ff ff
-0.15 0.15
-0.15 0.15
-0.15 0.15
ITEM: ATOMS id type x y z radius vx vy vz density 
1280 1 -0.00243743 -0.0375205 -0.0688409 0.000116 -36.0976 -0.278349 1.2781 2650 
622 1 -0.000899256 -0.0255041 -0.0688781 0.000116 -28.6173 1.43593 0.373621 2650 
3351 1 -0.00161714 -0.0157125 -0.068865 0.000116 -34.1835 3.25618 0.802722 2650 
3097 1 -0.0029411 -0.0601683 -0.0685142 0.000423 -32.8753 -1.3536 1.41112 2650 
3778 1 -0.00206672 -0.0587763 -0.068546 0.000423 -27.2809 -2.06075 0.819353 2650 
481 1 -0.00577949 -0.0564602 -0.0683335 0.000423 -34.6179 -0.937305 2.9276 2650 
2247 1 -0.00318281 -0.0567635 -0.0685033 0.000423 -31.4521 0.804805 1.45962 2650 
2677 1 -0.00232441 -0.0520261 -0.0685381 0.000423 -34.5964 -0.0820721 1.17338 2650 
2782 1 -0.00951682 -0.0508082 -0.067914 0.000423 -35.0732 -1.25044 4.91423 2650 
3657 1 -0.00191938 -0.0512808 -0.0685506 0.000423 -34.8536 0.060636 0.975556 2650 
1445 1 -0.00288073 -0.0492091 -0.0685168 0.000423 -32.9605 -0.258698 1.38569 2650 
1447 1 -0.00121642 -0.0474873 -0.0685666 0.000423 -34.1458 2.39003 0.605705 2650 
1902 1 -0.00672831 -0.0460623 -0.0682467 0.000423 -35.0333 2.96137 3.45348 2650 
443 1 -0.00529513 -0.0455168 -0.0681416 0.000656 -35.1199 1.76925 2.72809 2650 
3563 1 -0.0041754 -0.0426678 -0.0684502 0.000423 -33.6141 2.58356 2.05025 2650 
382 1 -0.000178417 -0.0413796 -0.0685779 0.000423 -40.6257 -2.96318 0.105654 2650 
1481 1 -0.00728835 -0.0370024 -0.068189 0.000423 -32.8076 0.0499858 3.50635 2650 
2535 1 -0.0029135 -0.0326839 -0.0682844 0.000656 -34.1202 -1.00943 1.4553 2650 
3845 1 -0.000897696 -0.0319636 -0.0683403 0.000656 -32.9542 1.14428 0.432713 2650 
3759 1 -0.00345037 -0.0306069 -0.0684905 0.000423 -33.4937 1.60055 1.68718 2650 
2563 1 -0.00963877 -0.0261467 -0.0678966 0.000423 -32.6676 -2.30614 4.63718 2650 
1891 1 -0.00751624 -0.0259995 -0.0681641 0.000423 -31.2395 -1.30005 3.44447 2650 
1779 1 -0.00605247 -0.0208238 -0.0683096 0.000423 -30.9742 2.34453 2.74427 2650 
2454 1 -0.0089992 -0.0169826 -0.0679843 0.000423 -31.7969 3.0394 4.20872 2650 
2542 1 -0.00904282 -0.00758507 -0.0679782 0.000423 -18.4625 -1.86129 2.45598 2650 
3517 1 -0.00806458 -0.0559976 -0.0678696 0.000656 -34.863 -0.938147 4.14106 2650 
781 1 -0.0127158 -0.0498601 -0.0671546 0.000656 -36.0203 -1.18089 6.81775 2650 
2764 1 -0.0124922 -0.0269334 -0.0674297 0.000423 -25.4082 -0.582925 4.70711 2650 
1046 1 -0.0119621 -0.0238739 -0.0678375 0.000116 -64.0278 1.28648 11.2901 2650 
731 1 -0.0146348 -0.0229238 -0.0673114 0.000116 -34.5074 2.42624 7.50259 2650 
797 1 -0.0121337 -0.0233735 -0.0675127 0.000423 -102.658 -6.41943 18.4456 2650 
2723 1 -0.0123401 -0.00976705 -0.0677697 0.000116 -28.6631 -0.0567191 5.21923 2650 
1742 1 -0.0180859 -0.0532492 -0.0664673 0.000116 -24.3338 -3.64675 6.62127 2650 
3456 1 -0.0174564 -0.0374095 -0.0663191 0.000423 -35.6189 -0.459524 9.37386 2650 
1723 1 -0.0168824 -0.0248851 -0.0667832 0.000116 -36.7453 -0.0882416 9.28902 2650 
3436 1 -0.017278 -0.021592 -0.0663654 0.000423 -33.3039 0.563333 8.66951 2650 
3028 1 -0.0152912 -0.00764921 -0.0669997 0.000116 -46.4655 -13.9452 7.75405 2650 
2984 1 -0.0196077 -0.0556822 -0.0657169 0.000423 -27.5138 1.33005 8.08808 2650 
19 1 -0.0186245 -0.0557114 -0.066004 0.000423 -25.7348 2.35236 7.2587 2650 
2347 1 -0.0195384 -0.0529281 -0.0657291 0.000423 -21.4623 2.72132 6.29738 2650 
1792 1 -0.0197453 -0.0421399 -0.0656736 0.000423 -32.255 1.11454 9.69632 2650 
2883 1 -0.0190718 -0.0409566 -0.0658728 0.000423 -35.6647 2.67383 10.3238 2650 
3991 1 -0.0191788 -0.0192756 -0.065841 0.000423 -30.2902 2.99563 8.82228 2650 
995 1 -0.0209811 -0.0532185 -0.0650442 0.000656 -21.3666 2.38985 6.88467 2650 
3760 1 -0.0217948 -0.0359298 -0.0650229 0.000423 -35.3691 -1.86635 11.8526 2650 
4174 1 -0.0218601 -0.0307871 -0.0647578 0.000656 -32.3854 -0.785221 10.9276 2650 
1116 1 -0.0233769 -0.0487956 -0.0644704 0.000423 -31.1558 2.02508 11.2949 2650 
1948 1 -0.0237856 -0.03796 -0.0646065 0.000116 -31.2452 -7.3946 10.3436 2650 
3993 1 -0.0241433 -0.0371021 -0.0641879 0.000423 -34.4083 -4.53224 12.9419 2650 
2540 1 -0.0232123 -0.0304397 -0.0642857 0.000656 -32.183 -0.74059 11.6156 2650 
3299 1 -0.0235617 -0.0286799 -0.0641577 0.000656 -30.3404 1.24231 11.1378 2650 
4300 1 -0.0175214 -0.0209465 -0.0644915 0.000423 -46.9084 -0.987694 27.7044 2650 
4320 1 -0.0242745 -0.015964 -0.0641381 0.000423 -32.3511 0.588897 12.2415 2650 
3255 1 -0.0236862 -0.012001 -0.0646836 0.000116 -16.9626 -4.25796 6.21146 2650 
3100 1 -0.0248635 -0.0312074 -0.0639117 0.000423 -29.1942 5.24803 11.3557 2650 
2067 1 -0.0283228 -0.0343595 -0.0627919 0.000116 -31.2149 0.160305 14.0797 2650 
4201 1 -0.0301027 -0.034172 -0.0616192 0.000423 -33.8145 -0.957468 16.5146 2650 
914 1 -0.031081 -0.0327181 -0.0611309 0.000423 -30.0852 -2.13125 15.2922 2650 
3977 1 -0.0312941 -0.0273159 -0.061023 0.000423 -32.8455 1.93271 16.7752 2650 
4058 1 -0.0305351 -0.0261414 -0.0611494 0.000656 -30.788 0.175069 15.3668 2650 
2430 1 -0.0312337 -0.023215 -0.0607958 0.000656 -30.661 -0.996488 15.7445 2650 
1739 1 -0.0337865 -0.0296991 -0.060029 0.000116 -30.7523 2.82723 17.3084 2650 
1881 1 -0.0319978 -0.02673 -0.0603979 0.000656 -32.535 1.46413 17.21 2650 
1305 1 -0.0336919 -0.0240971 -0.0600821 0.000116 -31.8914 2.76368 17.8835 2650 
2790 1 -0.0322415 -0.0213232 -0.0605271 0.000423 -30.1351 2.18268 16.0477 2650 
675 1 -0.0329917 -0.0140778 -0.0601215 0.000423 -29.2574 1.66151 16.0504 2650 
738 1 -0.0347682 -0.0566452 -0.0594657 0.000116 -26.0154 -9.146 15.1833 2650 
4362 1 -0.0350557 -0.0302016 -0.0592968 0.000116 -30.4441 -2.50735 17.9981 2650 
3093 1 -0.0337746 -0.0178738 -0.0596853 0.000423 -29.062 -0.391904 16.4406 2650 
2672 1 -0.0359699 -0.0312677 -0.0583882 0.000423 -25.4278 -0.604535 15.66 2650 
3089 1 -0.0371375 -0.0606092 -0.0576549 0.000423 -32.5987 1.65437 20.9911 2650 
155 1 -0.0371255 -0.0493246 -0.0576619 0.000423 -30.09 1.66459 19.367 2650 
1233 1 -0.0364421 -0.0354251 -0.0580964 0.000423 -31.2311 1.95221 19.5839 2650 
4278 1 -0.0295821 -0.00778179 -0.0578645 0.000656 -4.36837 -0.368493 -8.88382 2650 
133 1 -0.0378814 -0.0600174 -0.0571693 0.000423 -33.0772 2.24876 21.9093 2650 
3527 1 -0.0372728 -0.047661 -0.0575668 0.000423 -29.8718 -0.592069 19.3347 2650 
414 1 -0.0383665 -0.0335832 -0.0572103 0.000116 -30.7003 -0.0986843 20.5877 2650 
2998 1 -0.0381297 -0.0124179 -0.0569996 0.000423 -12.8284 -0.646529 8.62827 2650 
2546 1 -0.0390273 -0.0594503 -0.056391 0.000423 -26.7198 -4.94488 18.2712 2650 
2786 1 -0.0391478 -0.0554108 -0.0563087 0.000423 -28.5541 2.89473 19.8444 2650 
183 1 -0.0378048 -0.0568565 -0.0559136 0.000116 -21.6439 8.03032 22.4143 2650 
771 1 -0.0403032 -0.0475954 -0.0552068 0.000656 -29.8616 -6.74466 21.7894 2650 
2327 1 -0.0408733 -0.0382968 -0.0550695 0.000423 -28.2308 -2.15047 20.946 2650 
348 1 -0.0416636 -0.00694932 -0.0544734 0.000423 -24.9677 -1.04179 19.0895 2650 
829 1 -0.0430027 -0.0357963 -0.0538125 0.000116 -24.8968 1.63399 19.8941 2650 
116 1 -0.0415181 -0.0348419 -0.0542984 0.000656 -27.8116 -0.588229 21.2546 2650 
2063 1 -0.0430558 -0.0219029 -0.0537701 0.000116 -26.6697 1.42407 21.3537 2650 
3109 1 -0.0425202 -0.0170064 -0.0538062 0.000423 -19.8235 0.652843 15.6596 2650 
2085 1 -0.0427661 -0.0113506 -0.0539144 4.2e-05 -0.781397 -0.461535 -0.646832 2650 
358 1 -0.0434004 -0.0377244 -0.0531015 0.000423 -27.6144 -0.206106 22.5615 2650 
3196 1 -0.0432316 -0.0316264 -0.0532388 0.000423 -27.0562 1.36902 21.9627 2650 
2541 1 -0.0427049 -0.0259661 -0.0533707 0.000656 -27.4855 -0.802873 21.9813 2650 
2583 1 -0.0430526 -0.0233106 -0.0533878 0.000423 -39.1055 12.4348 31.5249 2650 
1778 1 -0.0439597 -0.0319756 -0.0526395 0.000423 -26.8499 1.01506 22.4146 2650 
3185 1 -0.0438968 -0.0302673 -0.0524038 0.000656 -38.5859 -5.75476 32.3325 2650 
254 1 -0.0445827 -0.0294804 -0.0521132 0.000423 -26.9127 -0.400054 23.0155 2650 
1332 1 -0.0437406 -0.0269283 -0.0525309 0.000656 -34.8935 4.98706 29.0164 2650 
344 1 -0.0439501 -0.0183432 -0.0526482 0.000423 -29.1319 2.44123 24.3104 2650 
3271 1 -0.0452226 -0.00819823 -0.0519612 0.000116 -26.2535 4.37883 22.8463 2650 
2132 1 -0.0462292 -0.050044 -0.0506582 0.000423 -24.3764 0.600376 22.237 2650 
121 1 -0.0457486 -0.00917164 -0.0507885 0.000656 -28.0048 3.43574 25.2131 2650 
715 1 -0.0471622 -0.0520134 -0.0497926 0.000423 -28.2427 -1.45305 26.7413 2650 
1361 1 -0.0470876 -0.0419282 -0.0498615 0.000423 -23.666 3.7512 22.3418 2650 
1016 1 -0.0466899 -0.0354781 -0.0502343 0.000423 -24.9813 0.173431 23.2102 2650 
3957 1 -0.0466157 -0.0340011 -0.0499925 0.000656 -25.1605 0.858069 23.4487 2650 
379 1 -0.046621 -0.0263876 -0.0502985 0.000423 -25.5517 -0.419398 23.675 2650 
4290 1 -0.0473498 -0.0552946 -0.0496145 0.000423 -28.6304 -2.37063 27.3141 2650 
3840 1 -0.0476346 -0.0538781 -0.0490223 0.000656 -23.4865 0.310604 22.8095 2650 
2210 1 -0.0470493 -0.0498319 -0.0495844 0.000656 -24.3577 1.76363 23.1002 2650 
3999 1 -0.0479781 -0.041269 -0.0490064 0.000423 -25.4647 2.8231 24.9214 2650 
489 1 -0.0476487 -0.0293637 -0.049327 0.000423 -26.7538 1.14107 25.8343 2650 
2451 1 -0.0476442 -0.0241729 -0.0493297 0.000423 -22.2538 0.867151 21.4854 2650 
4316 1 -0.0483574 -0.0454197 -0.0486304 0.000423 -22.3178 0.35135 22.67 2650 
1903 1 -0.048874 -0.0450453 -0.0481135 0.000423 -22.2825 5.3043 22.073 2650 
671 1 -0.0482136 -0.0363638 -0.0484545 0.000656 -24.9156 0.106483 24.7788 2650 
2585 1 -0.0486057 -0.0283372 -0.0488117 0.000116 -26.8729 3.30119 26.7564 2650 
82 1 -0.0494806 -0.0555882 -0.0479244 0.000116 -19.4233 -5.31285 20.0514 2650 
2105 1 -0.0495411 -0.0380313 -0.0474271 0.000423 -26.5604 -0.930604 27.7345 2650 
2971 1 -0.0360078 -0.0304946 -0.0475983 0.000656 -4.4782 -4.02824 8.04505 2650 
1589 1 -0.0485229 -0.0196743 -0.0479039 0.000423 -27.9663 -11.9493 21.2222 2650 
7 1 -0.0494825 -0.0399599 -0.0471619 0.000656 -28.2483 -0.298816 29.6236 2650 
4182 1 -0.0497842 -0.0249648 -0.0468045 0.000423 -14.1481 -0.529136 9.25573 2650 
2383 1 -0.0445508 -0.0423967 -0.0463385 0.000116 -40.0891 -4.11285 57.9758 2650 
1211 1 -0.050092 -0.0139174 -0.0465051 0.000656 -17.1939 2.84246 18.4786 2650 
2118 1 -0.051525 -0.0419487 -0.045263 0.000423 -21.2567 -1.37727 24.1886 2650 
479 1 -0.0522908 -0.0538847 -0.0443762 0.000423 -20.2353 2.62947 23.8354 2650 
954 1 -0.0522504 -0.0455136 -0.0448892 0.000116 -23.5658 6.96719 27.427 2650 
1128 1 -0.0520786 -0.0416976 -0.0446253 0.000423 -21.2563 -2.21282 24.7973 2650 
852 1 -0.0539973 -0.0319591 -0.0427719 0.000116 -17.834 3.75252 22.5118 2650 
2565 1 -0.0544053 -0.0222405 -0.0417585 0.000423 -24.4272 1.54654 32.1854 2650 
2117 1 -0.0547946 -0.0227757 -0.0412515 0.000423 -25.6652 0.450446 33.684 2650 
2861 1 -0.0548673 -0.0334366 -0.0407709 0.000656 -20.0996 1.94596 27.0347 2650 
3220 1 -0.0552054 -0.0279201 -0.0406949 0.000423 -19.1671 -2.95444 25.9914 2650 
4192 1 -0.0560592 -0.0100436 -0.0395102 0.000423 -16.9114 -2.71849 23.9859 2650 
4309 1 -0.0395819 -0.00129344 -0.0395984 0.000423 -0.214383 -2.82898 4.36396 2650 
4176 1 -0.0562388 -0.0600005 -0.039251 0.000423 -8.29417 -1.60771 11.8789 2650 
1296 1 -0.0566532 -0.0308989 -0.0391869 0.000116 -21.9562 2.16278 31.739 2650 
365 1 -0.0568602 -0.0524961 -0.0383508 0.000423 -20.1095 2.5304 29.8045 2650 
2177 1 -0.0578704 -0.0399472 -0.0373658 0.000116 -15.447 0.224538 23.9207 2650 
468 1 -0.0580396 -0.0387548 -0.0365409 0.000423 -17.3174 3.36896 27.4961 2650 
812 1 -0.0581089 -0.0199854 -0.0364319 0.000423 -19.5307 3.62578 31.1375 2650 
3625 1 -0.0582288 -0.0279044 -0.0358153 0.000656 -22.4415 -0.977334 36.4679 2650 
4177 1 -0.0584553 -0.0209767 -0.0358729 0.000423 -17.878 3.9038 29.122 2650 
3683 1 -0.0593219 -0.049666 -0.0350161 0.000116 -16.5322 -3.07481 28.0047 2650 
1337 1 -0.0589876 -0.0310255 -0.0349914 0.000423 -17.9363 2.40643 30.2259 2650 
4075 1 -0.0590761 -0.0292576 -0.0348443 0.000423 -21.7654 0.538432 36.8894 2650 
111 1 -0.0601549 -0.0308493 -0.0324741 0.000656 -17.7991 3.46145 32.9545 2650 
2208 1 -0.0600579 -0.0153078 -0.0326481 0.000656 -14.5795 2.13576 26.8054 2650 
784 1 -0.0606083 -0.0549709 -0.0321029 0.000423 -15.469 3.91459 29.1942 2650 
904 1 -0.0620598 -0.0619692 -0.0292057 0.000423 -20.9597 0.84556 44.5235 2650 
2229 1 -0.0626864 -0.0343112 -0.0278291 0.000423 -13.4815 2.43825 30.357 2650 
2284 1 -0.0629943 -0.0261858 -0.0278744 0.000116 -13.9197 -2.57232 31.4542 2650 
3339 1 -0.0626613 -0.0221274 -0.0278828 0.000423 -14.9111 1.81256 33.4559 2650 
3396 1 -0.0611424 -0.00720764 -0.0279063 4.2e-05 1.55004 -0.265716 0.907913 2650 
3646 1 -0.063155 -0.0498091 -0.0267496 0.000423 -20.898 -19.5186 50.0676 2650 
1542 1 -0.0628889 -0.0417342 -0.026796 0.000656 -12.0329 -0.299816 28.2258 2650 
3846 1 -0.0632055 -0.0437864 -0.026043 0.000656 -12.659 0.901636 30.7071 2650 
3331 1 -0.0633407 -0.0407315 -0.0263069 0.000423 -13.2404 -1.50545 31.8686 2650 
2409 1 -0.00585297 -0.00367182 -0.0260894 4.2e-05 -0.824778 -0.0684123 -3.67642 2650 
3876 1 -0.0636836 -0.0479633 -0.0255083 0.000423 -36.1459 8.50546 89.5699 2650 
2974 1 -0.0633905 -0.0393438 -0.0255897 0.000656 -12.477 1.50383 30.8916 2650 
1085 1 -0.0640769 -0.0064134 -0.0252872 0.000116 -12.4551 3.25706 31.5574 2650 
3499 1 -0.0156253 -0.00393253 -0.0253137 0.000116 -2.36232 -0.0886861 -3.82707 2650 
918 1 -0.063489 -0.0217586 -0.0242352 0.000423 -13.2981 -0.533102 93.5369 2650 
2251 1 -0.0641126 -0.0388753 -0.024366 0.000423 -12.1678 0.737175 32.0051 2650 
3282 1 -0.0646613 -0.0311733 -0.0239629 4.2e-05 -14.1445 -5.29467 38.1661 2650 
3859 1 -0.0202521 -0.0335453 -0.0237503 0.000423 -4.29295 -5.66921 -40.5518 2650 
411 1 -0.0648202 -0.00606185 -0.0233158 0.000116 -9.94101 5.56427 27.634 2650 
2934 1 -0.0652075 -0.0558356 -0.0222099 0.000116 -11.4911 -3.77146 33.7339 2650 
2121 1 -0.0651314 -0.0467543 -0.0214935 0.000423 -8.85616 2.04195 26.8271 2650 
4004 1 -0.0654748 -0.0458182 -0.0214096 0.000116 -13.9463 3.58962 42.6462 2650 
1996 1 -0.0650945 -0.0341146 -0.0216078 0.000423 -11.069 -1.78235 33.3345 2650 
139 1 -0.065502 -0.0565617 -0.0203405 0.000423 -10.8301 -1.51582 34.8641 2650 
308 1 -0.0658758 -0.041804 -0.0201416 0.000116 -9.06912 -0.616397 29.6586 2650 
573 1 -0.0655324 -0.0310614 -0.0202401 0.000423 -9.47752 -3.57247 30.6751 2650 
261 1 -0.0658383 -0.0567798 -0.0192216 0.000423 -8.73132 -0.697276 29.8963 2650 
1656 1 -0.0660342 -0.0417938 -0.0176861 0.000656 -8.25987 0.69 30.8238 2650 
4143 1 -0.0665503 -0.0334421 -0.0177865 0.000116 -6.15665 7.17214 23.0333 2650 
1289 1 -0.0665751 -0.0184772 -0.017694 0.000116 -9.31516 -0.748649 35.0455 2650 
2315 1 -0.0662361 -0.0373533 -0.0169151 0.000656 -7.97862 0.265866 31.2266 2650 
4302 1 -0.0666426 -0.0217085 -0.0162196 0.000423 -8.82369 -0.571183 36.2423 2650 
4285 1 -0.0666828 -0.0054306 -0.0160448 0.000423 -4.83612 -1.05307 20.0917 2650 
435 1 -0.00349705 -0.00335092 -0.0161762 4.2e-05 0.0607234 -0.231675 -0.105822 2650 
3420 1 -0.000480466 -0.00290114 -0.0163632 0.000423 -0.103932 -0.0105509 -0.00326548 2650 
3427 1 -0.00171534 -0.00163666 -0.016104 0.000423 -0.0127579 -0.00914173 -0.0343478 2650 
652 1 -0.0532195 -0.00614114 -0.0151168 4.2e-05 -7.97095 -0.275391 -2.25639 2650 
3424 1 -0.00573368 -0.00152803 -0.0152607 0.000423 0.00423333 -0.0060021 0.017442 2650 
3830 1 -0.006879 -5.19998e-05 -0.015411 4.2e-05 0 -0.01175 0 2650 
579 1 -0.0670261 -0.0118098 -0.0145478 0.000423 -5.64779 4.5527 26.0118 2650 
1039 1 -0.00716321 -0.00117233 -0.0147412 0.000423 -0.135458 -0.0602999 0.0589582 2650 
1877 1 -0.0669743 -0.0500661 -0.0137012 0.000656 -5.94073 -0.910888 29.0268 2650 
2809 1 -0.0674788 -0.0481484 -0.0138543 0.000116 -6.28895 2.42027 30.6277 2650 
2966 1 -0.0670506 -0.0464029 -0.013329 0.000656 -6.55633 4.4363 32.961 2650 
1023 1 -0.0127268 -0.00602639 -0.0140018 0.000423 -0.938508 -0.979769 -1.14026 2650 
2865 1 -0.0670716 -0.0398881 -0.0132083 0.000656 -4.51594 3.82659 22.9211 2650 
2523 1 -0.00933314 -0.00242844 -0.0131367 4.2e-05 0.0642421 -0.0384515 -0.026416 2650 
2418 1 -0.00377711 -0.00114139 -0.0131997 4.2e-05 -0.0190113 0.00102534 -0.0173694 2650 
3458 1 -0.000819263 -0.000746411 -0.0130516 0.000116 0.019755 -0.0153619 -0.0115681 2650 
2142 1 -0.0089834 -0.00111822 -0.012298 0.000423 -0.0379896 -0.0191802 0.00928867 2650 
1574 1 -0.0676127 -0.0277164 -0.0115232 0.000423 -5.50594 -2.2114 32.2952 2650 
122 1 -0.0401739 -0.00342019 -0.0111866 0.000656 -14.2311 -4.9716 -0.166474 2650 
1364 1 -0.0116935 -0.00249553 -0.0114784 0.000423 0.119747 -0.0527385 -0.142867 2650 
1041 1 -0.00281653 -0.00430746 -0.0104408 0.000423 -0.437233 -0.111559 -1.62081 2650 
3681 1 -0.00202596 -0.00281312 -0.00976796 0.000116 -0.00555516 -0.0123416 -0.00969441 2650 
1624 1 -0.00813844 -0.00110508 -0.00944456 0.000116 -0.0445951 -0.0423971 0.00663053 2650 
4114 1 -0.0684085 -0.0387045 -0.00810208 0.000116 -5.11714 6.208 43.2013 2650 
2059 1 -0.00557501 -0.00165392 -0.00798644 0.000116 -0.00265041 -0.00638524 0.00634598 2650 
2858 1 -0.0679262 -0.0465769 -0.00770185 0.000656 -3.15783 1.19111 27.8356 2650 
4369 1 -0.0685194 -0.0129174 -0.00710244 0.000116 -3.84909 3.68698 37.1296 2650 
3110 1 -0.0682189 -0.00920393 -0.00710135 0.000423 -3.12395 1.34823 29.9996 2650 
4358 1 -0.00150863 -0.00242629 -0.00686492 0.000116 0.00744107 -0.0133073 0.0016707 2650 
3457 1 -0.0106019 -0.000673933 -0.0067041 0.000116 -0.0195877 -0.00777101 0.0236943 2650 
931 1 -0.00512842 -0.0029836 -0.00528668 0.000423 -0.0486656 -0.00828365 -0.0563529 2650 
943 1 -0.0113814 -0.00038455 -0.00501855 0.000116 0.146088 0.0950174 0.0938026 2650 
1149 1 -0.0684348 -0.0393445 -0.00459681 0.000423 -2.68824 -2.0033 40.0076 2650 
2429 1 -0.0147734 -0.00242842 -0.00447928 0.000656 -0.0158207 -0.0769793 -0.136657 2650 
1690 1 -0.00894217 -0.00219205 -0.00416225 0.000423 -0.00950142 -0.00373525 0.0245092 2650 
1918 1 -0.0685093 -0.0567042 -0.00329462 0.000423 -1.74426 -1.2812 36.2582 2650 
2250 1 -0.0105086 -0.00351933 -0.00337742 0.000423 -0.42222 -0.103204 -0.33041 2650 
761 1 -0.00575719 -0.00239297 -0.00393686 4.2e-05 -0.0153542 -0.0101589 -0.00187701 2650 
883 1 -0.0683371 -0.0193931 -0.00193556 0.000656 -1.05806 -0.839634 37.3363 2650 
3551 1 -0.000574527 -0.00209847 -0.0015829 0.000423 0.00681729 -0.000412746 0.016382 2650 
1995 1 -0.00944836 -0.000625537 -0.00177175 0.000423 -0.0151717 -0.00694999 0.0221089 2650 
3637 1 -0.0685913 -0.0165789 -6.73339e-05 0.000423 -0.0521631 0.240195 53.0922 2650 
3159 1 -0.001579 -0.001127 -0.000637 0.000116 0 -0.01175 0 2650 
1618 1 -0.00935381 -0.0022154 2.07943e-05 0.000116 0.0285029 0.00100064 -0.0206288 2650 
3122 1 -0.0685701 -0.0167141 0.00155342 0.000423 0.692148 0.454659 30.5423 2650 
3979 1 -0.0685672 -0.0186566 0.00167849 0.000423 0.762344 -0.921879 31.132 2650 
1152 1 -0.0685109 -0.0227043 0.00325535 0.000423 1.64354 -2.87105 34.575 2650 
45 1 -0.0685398 -0.0216008 0.00256253 0.000423 1.13387 -1.89838 30.3195 2650 
2664 1 -0.068533 -0.0188505 0.00274702 0.000423 1.3311 0.821994 33.1976 2650 
3785 1 -0.0655404 -0.0117136 0.00294122 0.000116 -24.6358 -6.65125 42.5341 2650 
1150 1 -0.0106313 -0.00237975 0.003014 0.000423 -0.0735726 0.00823958 -0.0047143 2650 
2465 1 -0.0684678 -0.0303205 0.00407487 0.000423 2.33029 -3.88753 39.1419 2650 
630 1 -0.0687048 -0.0338244 0.00499904 0.000116 2.21081 -4.4415 30.3814 2650 
3285 1 -0.009545 -0.001361 0.005507 4.2e-05 0 -0.01175 0 2650 
2596 1 -0.0686447 -0.0275334 0.00576662 0.000116 2.79545 -1.43027 33.2731 2650 
3124 1 -0.068315 -0.0255846 0.00611659 0.000423 3.14989 2.5694 35.1688 2650 
3522 1 -0.0682703 -0.0419791 0.00660001 0.000423 3.62789 -0.950463 37.5048 2650 
846 1 -0.0141298 -0.00020754 0.0067841 0.000116 -0.00601545 -0.0042144 0.00539807 2650 
39 1 -0.0681904 -0.0559482 0.00740555 0.000423 5.82292 8.73391 53.6088 2650 
4206 1 -0.0427145 -0.0439442 0.00770406 0.000423 -5.29008 5.10699 0.393907 2650 
3017 1 -0.0681432 -0.0227881 0.00780686 0.000423 4.55113 1.46825 39.7122 2650 
1822 1 -0.0684908 -0.00426909 0.00737271 0.000116 3.34135 -2.54093 31.0372 2650 
521 1 -0.0017417 -0.000526172 0.00714479 0.000116 0.0313847 -0.0175056 0.0014548 2650 
1807 1 -0.0680803 -0.0606355 0.00834875 0.000423 5.89466 2.39461 48.0462 2650 
1860 1 -0.0684307 -0.0513074 0.00851813 4.2e-05 3.86297 4.35716 31.0322 2650 
1030 1 -0.0680555 -0.0117395 0.0085254 0.000423 3.69498 -0.841374 29.4857 2650 
3894 1 -0.0682501 -0.0133205 0.00934163 0.000116 4.13767 -4.76586 30.2268 2650 
3839 1 -0.0666747 -0.00782161 0.0087702 0.000656 -1.74909 -3.30723 0.321492 2650 
2739 1 -0.005531 -0.001231 0.009169 4.2e-05 0 -0.01175 0 2650 
367 1 -0.0678399 -0.0563249 0.010101 0.000423 4.80774 0.877648 32.2785 2650 
1925 1 -0.0678504 -0.0483416 0.0100423 0.000423 6.5279 1.2038 44.0914 2650 
1036 1 -0.00229708 -0.000376149 0.00983159 0.000423 -0.0168548 -0.00554876 0.00625025 2650 
3411 1 -0.0675209 -0.0435933 0.0106965 0.000656 5.22351 1.54001 32.9566 2650 
2886 1 -0.0676878 -0.0307513 0.0110731 0.000423 5.06839 -4.35904 30.9697 2650 
3204 1 -0.067752 -0.029634 0.0106753 0.000423 5.20539 -0.889789 33.0258 2650 
2203 1 -0.0673548 -0.006454 0.011693 0.000656 5.39491 1.07461 31.0605 2650 
2792 1 -0.00215079 -0.00182041 0.011195 0.000423 -0.00454085 -0.01606 0.0287142 2650 
1112 1 -0.0673356 -0.00146707 0.0118028 0.000656 5.42567 -0.904523 30.9381 2650 
803 1 -0.0674206 -0.0404426 0.0126045 0.000423 7.35206 -0.426011 39.3129 2650 
3621 1 -0.0663753 -0.0298998 0.0124866 0.000656 10.1266 -0.47585 16.372 2650 
3070 1 -0.0678474 -0.00840586 0.0123308 4.2e-05 6.92118 -2.95025 38.0808 2650 
3733 1 -0.0671129 -0.0181834 0.0130092 0.000656 6.03212 0.367941 31.1031 2650 
858 1 -0.0106602 -0.00347109 0.013138 0.000116 0.0635364 -0.178175 0.363479 2650 
680 1 -0.0672349 -0.0364633 0.0135563 0.000423 7.19289 0.00384143 35.3503 2650 
1773 1 -0.0672019 -0.026266 0.0137209 0.000423 7.65897 1.44392 37.4995 2650 
2688 1 -0.0670131 -0.0497769 0.0146125 0.000423 7.35016 -0.913804 33.6964 2650 
4279 1 -0.0667991 -0.0364046 0.0145407 0.000656 7.65331 -0.883679 35.1937 2650 
2897 1 -0.0669213 -0.023761 0.0150256 0.000423 7.06899 -3.20387 31.4731 2650 
1179 1 -0.00238854 -0.00289625 0.0165829 0.000116 0.214998 -0.0480559 0.0575949 2650 
316 1 -0.00129568 -0.00254587 0.0166739 0.000116 0.138794 -0.0359744 0.0057663 2650 
4083 1 -0.0662687 -0.0298755 0.0176777 0.000423 5.81131 -2.33959 21.7771 2650 
4363 1 -0.0666276 -0.0177096 0.0174952 0.000116 8.44346 -2.86022 32.1524 2650 
3675 1 -0.0664476 -0.00678371 0.0181668 0.000116 8.38616 0.454927 30.6703 2650 
2967 1 -0.0657812 -0.0603172 0.0186042 0.000656 8.51819 1.42736 30.1034 2650 
1800 1 -0.0660358 -0.0435637 0.0185323 0.000423 8.53477 -0.190107 30.4012 2650 
3231 1 -0.0659902 -0.0166521 0.0186958 0.000423 9.56309 -2.0108 33.7431 2650 
682 1 -0.0375302 -0.00632392 0.0187513 0.000423 -5.39233 -0.312186 2.75356 2650 
1349 1 -0.0656553 -0.0414837 0.0198402 0.000423 10.5676 3.57029 34.9584 2650 
3487 1 -0.0650219 -0.0244923 0.0227478 0.000116 13.4652 1.84782 38.4846 2650 
2895 1 -0.0617498 -0.0302056 0.0243344 0.000423 -2.57143 7.40138 -1.75794 2650 
1502 1 -0.0254741 -0.00851077 0.0237326 0.000116 -0.865912 -6.3952 9.03435 2650 
497 1 -0.015471 -0.0615189 0.0256033 0.000116 4.91296 0.287912 3.00922 2650 
3737 1 -0.0632464 -0.0170337 0.0259392 0.000656 10.3876 -0.470123 25.314 2650 
685 1 -0.0632306 -0.0461525 0.0265711 0.000423 13.8815 0.317436 33.0222 2650 
2877 1 -0.063099 -0.0257261 0.0268833 0.000423 15.1132 -2.1718 35.4609 2650 
3698 1 -0.0634792 -0.0127608 0.0267518 0.000116 10.9661 -1.85839 26.0185 2650 
1558 1 -0.0627513 -0.0469965 0.0276823 0.000423 12.9222 5.73271 29.2823 2650 
2390 1 -0.0511162 -0.0272302 0.0269753 0.000116 0.930897 -6.66711 5.76934 2650 
3550 1 -0.0629378 -0.014728 0.0272567 0.000423 13.5721 -0.65882 31.328 2650 
822 1 -0.0267477 -0.0422859 0.0292389 0.000423 -1.16814 6.46473 1.27962 2650 
1218 1 -0.0615052 -0.00508381 0.0298333 0.000656 12.7111 1.07578 26.1916 2650 
3419 1 -0.0612958 -0.0252166 0.0307715 0.000423 16.2997 -1.67158 32.4573 2650 
4323 1 -0.0611714 -0.037416 0.0310182 0.000423 16.4981 2.40869 32.5249 2650 
2180 1 -0.0607715 -0.0223239 0.0324353 0.000116 10.8162 3.60343 20.2632 2650 
3962 1 -0.0599886 -0.0148678 0.0332468 0.000423 16.9007 3.28581 30.4838 2650 
3762 1 -0.0591866 -0.0280474 0.0346524 0.000423 15.2674 -5.73619 26.0675 2650 
4046 1 -0.059074 -0.0472401 0.0355744 4.2e-05 14.5331 -3.30182 24.1323 2650 
886 1 -0.0584373 -0.0366966 0.0354707 0.000656 19.2704 0.733331 31.7317 2650 
1020 1 -0.059105 -0.0325694 0.0347871 0.000423 5.36041 -9.27421 9.10384 2650 
1706 1 -0.0591424 -0.0188442 0.0353183 0.000116 14.9866 -1.05236 25.093 2650 
387 1 -0.0586151 -0.040934 0.0361869 0.000116 19.01 1.03085 30.7888 2650 
1692 1 -0.0574495 -0.00986697 0.0374625 0.000423 19.3404 1.11177 29.6485 2650 
1887 1 -0.0567836 -0.0611951 0.0384635 0.000423 18.9599 0.248599 27.9806 2650 
240 1 -0.0566731 -0.0104345 0.0386264 0.000423 19.5957 -0.946364 28.7408 2650 
3729 1 -0.0553197 -0.00663424 0.0401502 0.000656 13.6835 -0.719415 18.8084 2650 
4064 1 -0.0549796 -0.0094947 0.0406147 0.000656 14.8007 -0.630968 20.0242 2650 
3451 1 -0.0553721 -0.00768067 0.0404662 0.000423 13.5903 -0.886401 18.5451 2650 
4318 1 -0.0552414 -0.000453573 0.0406447 0.000423 15.7894 1.29971 21.4512 2650 
2231 1 -0.0542649 -0.0139093 0.0419399 0.000423 18.1681 1.15205 23.4985 2650 
2878 1 -0.0536953 -0.00422863 0.0426663 0.000423 18.3018 1.15754 23.0242 2650 
2023 1 -0.030963 -0.0260406 0.0427635 0.000423 -3.78604 -2.54147 -0.00673988 2650 
3337 1 -0.0528925 -0.0399853 0.0436569 0.000423 17.8495 -8.72976 21.6169 2650 
119 1 -0.0525364 -0.0349749 0.0437344 0.000656 23.9603 -1.41882 28.768 2650 
2340 1 -0.0521513 -0.0362662 0.0445417 0.000423 24.0105 -3.49923 28.1026 2650 
3664 1 -0.0521483 -0.0263413 0.0445457 0.000423 25.19 1.21019 29.4789 2650 
125 1 -0.0522445 -0.00391022 0.0444317 0.000423 22.3785 -0.253877 26.3041 2650 
149 1 -0.0509832 -0.0413457 0.0458742 0.000423 26.0048 -3.36037 28.8909 2650 
3514 1 -0.0512916 -0.0331572 0.0451842 0.000656 21.3299 -2.41149 24.2001 2650 
805 1 -0.0512698 -0.0126837 0.0455519 0.000423 21.2851 1.82753 23.948 2650 
1719 1 -0.0104552 -0.00605028 0.0451247 0.000116 -1.59191 -0.22636 6.97157 2650 
164 1 -0.0502779 -0.0413437 0.0466452 0.000423 25.0532 -0.638067 26.9947 2650 
2318 1 -0.0504743 -0.0323851 0.0460937 0.000656 20.3536 -0.21284 22.2759 2650 
2137 1 -0.0502201 -0.040041 0.0467074 0.000423 25.0945 -0.118155 26.9722 2650 
370 1 -0.0488366 -0.0346276 0.0481518 0.000423 26.2425 3.46591 26.6062 2650 
4096 1 -0.0489626 -0.0101055 0.0480216 0.000423 20.2426 -2.56611 20.6314 2650 
3247 1 -0.0494372 -0.00303182 0.0479693 0.000116 21.8503 -2.00941 22.5161 2650 
130 1 -0.0493997 -0.000937317 0.0475713 0.000423 17.9355 -0.205287 18.6175 2650 
2988 1 -0.0484375 -0.0494739 0.0485528 0.000423 25.6762 4.60885 25.6061 2650 
84 1 -0.0231909 -0.0441572 0.0489774 0.000116 25.2535 -1.48014 19.4975 2650 
2207 1 -0.0484217 -0.0195756 0.0482469 0.000656 24.5845 -2.24811 24.6607 2650 
2762 1 -0.0467534 -0.0422398 0.0501745 0.000423 22.2534 6.38435 20.7282 2650 
350 1 -0.0463077 -0.0185549 0.0505868 0.000423 24.8735 -2.55281 22.7618 2650 
2579 1 -0.0463957 -0.015973 0.0505055 0.000423 22.8865 2.14428 21.0163 2650 
1037 1 -0.0465658 -0.00997794 0.0503491 0.000423 23.7077 2.15765 21.9182 2650 
13 1 -0.0459052 -0.0601105 0.0509521 0.000423 24.745 2.25402 22.2858 2650 
3484 1 -0.0462789 -0.0354512 0.0510229 0.000116 29.0792 -1.57572 26.3724 2650 
3947 1 -0.0453054 -0.0169561 0.0511812 0.000656 23.5935 0.542235 20.8737 2650 
3558 1 -0.0446755 -0.012219 0.0520313 0.000423 18.9126 -1.24852 16.2325 2650 
2459 1 -0.0438073 -0.0133687 0.0527679 0.000423 31.2515 -0.0736358 25.9357 2650 
1461 1 -0.0430028 -0.0423866 0.0534235 0.000423 26.1239 1.85914 21.0263 2650 
2562 1 -0.0428419 -0.0414309 0.0535531 0.000423 27.7856 2.12923 22.215 2650 
1563 1 -0.0435024 -0.0213391 0.0530171 0.000423 24.3913 -3.48751 20.0065 2650 
293 1 -0.0420708 -0.0619499 0.0545444 0.000116 33.675 1.51777 25.9715 2650 
1688 1 -0.0423537 -0.0292228 0.0539395 0.000423 26.7307 -3.19812 20.9816 2650 
1842 1 -0.0429619 -0.000992566 0.053845 0.000116 8.733 -0.857159 6.9679 2650 
2726 1 -0.0420467 -0.0348188 0.0545631 0.000116 34.6906 7.4239 26.7302 2650 
252 1 -0.0406744 -0.0297958 0.0552158 0.000423 25.3492 -4.16452 18.6662 2650 
4289 1 -0.00361926 -0.0064456 0.0552742 0.000423 -0.520208 -0.283665 8.28789 2650 
3955 1 -0.039074 -0.0194523 0.0560804 0.000656 25.5188 -4.5093 17.7708 2650 
458 1 -0.0401685 -0.0144508 0.0555891 0.000423 34.1499 -3.95424 24.704 2650 
4314 1 -0.0402492 -0.0132691 0.0555245 0.000423 26.0864 4.54001 18.8679 2650 
4002 1 -0.0395856 -0.00779352 0.0559903 0.000116 18.5641 9.88437 9.53225 2650 
1047 1 -0.039638 -0.0452827 0.0563369 0.000116 28.5336 -3.78735 20.0753 2650 
2767 1 -0.0391706 -0.0385725 0.0562941 0.000423 32.1588 -0.562909 22.3691 2650 
332 1 -0.0379232 -0.0357641 0.056867 0.000656 30.1149 0.463966 20.0727 2650 
2227 1 -0.0391638 -0.0293063 0.0562981 0.000423 29.725 3.33515 20.6711 2650 
934 1 -0.0389028 -0.0255675 0.0564795 0.000423 32.3786 -2.64372 22.2946 2650 
795 1 -0.0394059 -0.00872826 0.0561285 0.000423 15.873 3.21878 11.3397 2650 
4217 1 -0.0383188 -0.00501616 0.0568754 0.000423 26.4339 -0.322459 17.8033 2650 
2777 1 -0.0376683 -0.0244349 0.0573101 0.000423 33.5812 0.666914 22.0637 2650 
2551 1 -0.0362732 -0.0353956 0.0582007 0.000423 26.5414 -2.36013 16.5364 2650 
383 1 -0.034731 -0.0558374 0.0591355 0.000423 33.8724 -0.675891 19.8872 2650 
3554 1 -0.0334258 -0.053841 0.0598818 0.000423 30.8284 -1.60867 17.203 2650 
1780 1 -0.0332167 -0.0067644 0.0599962 0.000423 22.7636 -1.10541 12.6005 2650 
1698 1 -0.0325586 -0.044151 0.060358 0.000423 32.6512 -0.114412 17.6078 2650 
1393 1 -0.033392 -0.000230582 0.0602195 0.000116 37.3524 -8.73582 18.9783 2650 
897 1 -0.0313447 -0.044185 0.0609973 0.000423 34.2965 -2.73388 17.6182 2650 
1979 1 -0.0319473 -0.0280548 0.0611112 4.2e-05 31.1649 0.94631 16.2922 2650 
237 1 -0.0312631 -0.0117115 0.0610372 0.000423 25.8743 -0.74592 13.2499 2650 