LIGGGHTS (Version LIGGGHTS-PUBLIC 3.8.0, compiled 2022-11-07-16:55:38 by serperd1, git commit 86544c3f1215bc9744d7929e3eacf53ba086af9e)
units si #
dimension 3 #
newton off #
boundary f f f #
atom_style sphere #
pair_style gran model hertz tangential history #
communicate single vel yes #
region outer_basket cylinder y 0 0 0.15 -0.15 0.15 #
create_box 3 outer_basket #
Created orthogonal box = (-0.15 -0.15 -0.15) to (0.15 0.15 0.15)
  2 by 4 by 5 MPI processor grid
variable my_omega equal 157.0796 #
fix cone_mesh all mesh/surface file cone.stl type 3 scale 1 #
fix rotating_wall_1 all move/mesh mesh cone_mesh rotate/variable origin 0 0 0 axis 0 1 0 omega v_my_omega #
fix filter_mesh_walls all wall/gran model hertz tangential history primitive type 2 ycylinder_filtermesh 0.069 0 0 3 18 -0.0628 0 0.020044 0.01742 0.020544 0.01792 shear x 10.8385 #

fix inlet_cyl_wall_mesh all mesh/surface file in_cyl.stl type 3 scale 1 #
fix top_cyl_wall_mesh all mesh/surface file top_cyl.stl type 3 scale 1 #
fix rotating_wall_4 all move/mesh mesh top_cyl_wall_mesh rotate/variable origin 0 0 0 axis 0 1 0 omega v_my_omega #
fix bot_cyl_wall_mesh all mesh/surface file bot_cyl.stl type 3 scale 1 #
fix rotating_wall_5 all move/mesh mesh bot_cyl_wall_mesh rotate/variable origin 0 0 0 axis 0 1 0 omega v_my_omega #
fix bot_disk_wall_mesh all mesh/surface file bottom_disk.stl type 3 scale 1 #
fix rotating_wall_6 all move/mesh mesh bot_disk_wall_mesh rotate/variable origin 0 0 0 axis 0 1 0 omega v_my_omega #
fix top_disk_wall_mesh all mesh/surface file top_disk.stl type 3 scale 1 #
fix rotating_wall_7 all move/mesh mesh top_disk_wall_mesh rotate/variable origin 0 0 0 axis 0 1 0 omega v_my_omega #
fix GMSH_mesh_walls all wall/gran model hertz tangential history mesh n_meshes 6 meshes cone_mesh top_cyl_wall_mesh bot_cyl_wall_mesh bot_disk_wall_mesh inlet_cyl_wall_mesh top_disk_wall_mesh #
fix Young_mod all property/global youngsModulus peratomtype 375000000 46000000 1000000000 #
fix Poisson_rat all property/global poissonsRatio peratomtype 0.32 0.42 0.29 #
fix Coeff_rest all property/global coefficientRestitution peratomtypepair 3 0.15 0.32 0.475 0.32 0.49 0.645 0.475 0.645 0.8 #
fix Coeff_fric all property/global coefficientFriction peratomtypepair 3 0.04 0.145 0.12 0.145 0.25 0.225 0.12 0.225 0.2 #

neighbor 0.00026244 bin #
neigh_modify delay 0 one 100000 page 5000000 #
fix r_0to10p all particletemplate/sphere 12345787 atom_type 1 density constant 2650 radius constant 4.2e-05 #
fix r_10to50p all particletemplate/sphere 15485863 atom_type 1 density constant 2650 radius constant 0.0001164 #
fix r_50to90p all particletemplate/sphere 15485867 atom_type 1 density constant 2650 radius constant 0.0004233 #
fix r_90to100p all particletemplate/sphere 32452843 atom_type 1 density constant 2650 radius constant 0.0006561 #
fix prob_par all particledistribution/discrete 32452867 4 r_0to10p 0.1 r_10to50p 0.4 r_50to90p 0.4 r_90to100p 0.1 #
pair_coeff * * #
timestep 3.24e-08 #

fix nve_group all nve/sphere #
fix grav_fix all gravity 6.1081 vector 0.017 -0.0033 0 -1 0 #
fix cent_fix all centrifugal 157.0796 0.017 -0.0033 0.069 #

variable step equal step #
variable mycount equal count(all) #
fix print_amount_of_atoms all print 25 "${step} ${mycount}" file numatoms.txt screen no #
run 0 #
Setting up run at Tue Dec 27 15:34:29 2022

Memory usage per processor = 960.256 Mbytes
    Step    Atoms         KinEng            CPU 
       0        0              0              0 
Loop time of 5.82581e-05 on 40 procs for 0 steps with 0 atoms, finish time Tue Dec 27 15:34:29 2022


Pair  time (%) = 0 (0)
Neigh time (%) = 0 (0)
Comm  time (%) = 0 (0)
Outpt time (%) = 0 (0)
Other time (%) = 5.82581e-05 (100)

Nlocal:    0 ave 0 max 0 min
Histogram: 40 0 0 0 0 0 0 0 0 0
Nghost:    0 ave 0 max 0 min
Histogram: 40 0 0 0 0 0 0 0 0 0
Neighs:    0 ave 0 max 0 min
Histogram: 40 0 0 0 0 0 0 0 0 0

Total # of neighbors = 0
Neighbor list builds = 0
Dangerous builds = 0
run 1 #
Setting up run at Tue Dec 27 15:34:29 2022

Memory usage per processor = 960.256 Mbytes
    Step    Atoms         KinEng            CPU 
       0        0              0              0 
       1        0              0    0.009790419 
Loop time of 0.00980174 on 40 procs for 1 steps with 0 atoms, finish time Tue Dec 27 15:34:29 2022


Pair  time (%) = 2.29175e-06 (0.0233811)
Neigh time (%) = 0 (0)
Comm  time (%) = 0.000201229 (2.05299)
Outpt time (%) = 0.000125151 (1.27682)
Other time (%) = 0.00947307 (96.6468)

Nlocal:    0 ave 0 max 0 min
Histogram: 40 0 0 0 0 0 0 0 0 0
Nghost:    0 ave 0 max 0 min
Histogram: 40 0 0 0 0 0 0 0 0 0
Neighs:    0 ave 0 max 0 min
Histogram: 40 0 0 0 0 0 0 0 0 0

Total # of neighbors = 0
Neighbor list builds = 0
Dangerous builds = 0
read_dump dump.atom_info_1 1 x y z radius vx vy vz box no add yes replace no #
  orthogonal box = (-0.15 -0.15 -0.15) to (0.15 0.15 0.15)
  0 atoms before read
  4382 atoms in snapshot
  0 atoms purged
  0 atoms replaced
  0 atoms trimmed
  4382 atoms added
  4382 atoms after read
set atom * type 1 density 2650 vy -0.01175 #
  4382 settings made for type
  4382 settings made for density
  4382 settings made for vy
run 1 #
Setting up run at Tue Dec 27 15:34:29 2022

Memory usage per processor = 964.609 Mbytes
    Step    Atoms         KinEng            CPU 
       1     4382  2.0405663e-07              0 
       2     4382  2.5286639e-06    0.009342807 
Loop time of 0.00936194 on 40 procs for 1 steps with 4382 atoms, finish time Tue Dec 27 15:34:29 2022


Pair  time (%) = 4.00133e-06 (0.0427403)
Neigh time (%) = 0 (0)
Comm  time (%) = 8.71485e-06 (0.0930881)
Outpt time (%) = 0.000245881 (2.62639)
Other time (%) = 0.00910334 (97.2378)

Nlocal:    109.55 ave 1816 max 0 min
Histogram: 36 0 2 0 0 0 0 0 0 2
Nghost:    27.3 ave 345 max 0 min
Histogram: 36 0 0 0 0 1 1 0 0 2
Neighs:    35.525 ave 600 max 0 min
Histogram: 36 0 2 0 0 0 0 0 0 2

Total # of neighbors = 1421
Ave neighs/atom = 0.324281
Neighbor list builds = 0
Dangerous builds = 0
write_dump all custom dump.atom_info_ac_* id type x y z radius vx vy vz density #
run 308641
Setting up run at Tue Dec 27 15:34:29 2022

Memory usage per processor = 964.609 Mbytes
    Step    Atoms         KinEng            CPU 
       2     4382  2.5286639e-06              0 
  308643     4382  0.00030849076      3143.9902 
Loop time of 3143.99 on 40 procs for 308641 steps with 4382 atoms, finish time Tue Dec 27 16:26:53 2022


Pair  time (%) = 1.2588 (0.0400384)
Neigh time (%) = 4.21836 (0.134172)
Comm  time (%) = 4.0061 (0.127421)
Outpt time (%) = 0.000411606 (1.30918e-05)
Other time (%) = 3134.51 (99.6984)

Nlocal:    109.55 ave 1780 max 0 min
Histogram: 36 0 2 0 0 0 0 0 0 2
Nghost:    28.15 ave 360 max 0 min
Histogram: 36 0 0 0 0 1 1 0 0 2
Neighs:    39.35 ave 668 max 0 min
Histogram: 36 0 2 0 0 0 0 0 0 2

Total # of neighbors = 1574
Ave neighs/atom = 0.359197
Neighbor list builds = 1630
Dangerous builds = 0
write_dump all custom dump.atom_info_ac_* id type x y z radius vx vy vz density #
run 308641
Setting up run at Tue Dec 27 16:26:53 2022

Memory usage per processor = 964.609 Mbytes
    Step    Atoms         KinEng            CPU 
  308643     4382  0.00030849076              0 
  617284     4380  0.00035958006      3082.7905 
Loop time of 3082.79 on 40 procs for 308641 steps with 4380 atoms, finish time Tue Dec 27 17:18:16 2022


Pair  time (%) = 1.28053 (0.041538)
Neigh time (%) = 2.24499 (0.0728232)
Comm  time (%) = 3.8596 (0.125198)
Outpt time (%) = 0.000766331 (2.48584e-05)
Other time (%) = 3075.4 (99.7604)

Nlocal:    109.5 ave 1746 max 0 min
Histogram: 36 0 2 0 0 0 0 0 0 2
Nghost:    26.625 ave 327 max 0 min
Histogram: 36 0 0 0 0 0 2 0 0 2
Neighs:    41.175 ave 673 max 0 min
Histogram: 36 0 2 0 0 0 0 0 0 2

Total # of neighbors = 1647
Ave neighs/atom = 0.376027
Neighbor list builds = 882
Dangerous builds = 0
write_dump all custom dump.atom_info_ac_* id type x y z radius vx vy vz density #
run 308641
Setting up run at Tue Dec 27 17:18:16 2022

Memory usage per processor = 964.609 Mbytes
    Step    Atoms         KinEng            CPU 
  617284     4380  0.00035958006              0 
  925925     4375   0.0005990018      3093.0959 
Loop time of 3093.1 on 40 procs for 308641 steps with 4375 atoms, finish time Tue Dec 27 18:09:49 2022


Pair  time (%) = 1.26781 (0.0409884)
Neigh time (%) = 2.13661 (0.0690768)
Comm  time (%) = 4.17185 (0.134876)
Outpt time (%) = 0.000716575 (2.31669e-05)
Other time (%) = 3085.52 (99.755)

Nlocal:    109.375 ave 1729 max 0 min
Histogram: 36 0 2 0 0 0 0 0 0 2
Nghost:    24.525 ave 304 max 0 min
Histogram: 36 0 0 0 0 1 1 0 0 2
Neighs:    40.525 ave 658 max 0 min
Histogram: 36 0 2 0 0 0 0 0 0 2

Total # of neighbors = 1621
Ave neighs/atom = 0.370514
Neighbor list builds = 832
Dangerous builds = 0
write_dump all custom dump.atom_info_ac_* id type x y z radius vx vy vz density #
run 308641
Setting up run at Tue Dec 27 18:09:49 2022

Memory usage per processor = 964.609 Mbytes
    Step    Atoms         KinEng            CPU 
  925925     4375   0.0005990018              0 
 1234566     4372  0.00076918451      3099.2684 
Loop time of 3099.27 on 40 procs for 308641 steps with 4372 atoms, finish time Tue Dec 27 19:01:29 2022


Pair  time (%) = 1.26012 (0.0406585)
Neigh time (%) = 3.49666 (0.112822)
Comm  time (%) = 4.91981 (0.158741)
Outpt time (%) = 0.000760087 (2.45247e-05)
Other time (%) = 3089.59 (99.6878)

Nlocal:    109.3 ave 1704 max 0 min
Histogram: 36 0 2 0 0 0 0 0 0 2
Nghost:    23.725 ave 294 max 0 min
Histogram: 36 0 0 0 0 1 1 0 0 2
Neighs:    37.925 ave 630 max 0 min
Histogram: 36 1 1 0 0 0 0 0 0 2

Total # of neighbors = 1517
Ave neighs/atom = 0.346981
Neighbor list builds = 1340
Dangerous builds = 279
write_dump all custom dump.atom_info_ac_* id type x y z radius vx vy vz density #
run 308641
Setting up run at Tue Dec 27 19:01:29 2022

Memory usage per processor = 964.609 Mbytes
    Step    Atoms         KinEng            CPU 
 1234566     4372  0.00076918451              0 
 1543207     4364    0.010381944      3178.8234 
Loop time of 3178.82 on 40 procs for 308641 steps with 4364 atoms, finish time Tue Dec 27 19:54:28 2022


Pair  time (%) = 1.25658 (0.0395298)
Neigh time (%) = 21.3988 (0.673168)
Comm  time (%) = 11.8603 (0.373102)
Outpt time (%) = 0.000424766 (1.33624e-05)
Other time (%) = 3144.31 (98.9142)

Nlocal:    109.1 ave 1666 max 0 min
Histogram: 36 0 2 0 0 0 0 0 0 2
Nghost:    23.125 ave 300 max 0 min
Histogram: 36 0 0 0 0 2 0 0 0 2
Neighs:    38.675 ave 638 max 0 min
Histogram: 36 0 2 0 0 0 0 0 0 2

Total # of neighbors = 1547
Ave neighs/atom = 0.354491
Neighbor list builds = 8003
Dangerous builds = 438
write_dump all custom dump.atom_info_ac_* id type x y z radius vx vy vz density #
run 308641
Setting up run at Tue Dec 27 19:54:28 2022

Memory usage per processor = 964.609 Mbytes
    Step    Atoms         KinEng            CPU 
 1543207     4364    0.010381944              0 
 1851848     4363   0.0089531299      3940.4435 
Loop time of 3940.46 on 40 procs for 308641 steps with 4363 atoms, finish time Tue Dec 27 21:00:08 2022


Pair  time (%) = 1.41063 (0.0357986)
Neigh time (%) = 177.17 (4.49618)
Comm  time (%) = 81.5721 (2.07012)
Outpt time (%) = 0.0065347 (0.000165836)
Other time (%) = 3680.3 (93.3977)

Nlocal:    109.075 ave 1652 max 0 min
Histogram: 36 0 2 0 0 0 0 0 0 2
Nghost:    22.875 ave 292 max 0 min
Histogram: 36 0 0 0 0 2 0 0 0 2
Neighs:    38.6 ave 628 max 0 min
Histogram: 36 1 1 0 0 0 0 0 0 2

Total # of neighbors = 1544
Ave neighs/atom = 0.353885
Neighbor list builds = 66388
Dangerous builds = 881
write_dump all custom dump.atom_info_ac_* id type x y z radius vx vy vz density #
run 308641
Setting up run at Tue Dec 27 21:00:08 2022

Memory usage per processor = 964.609 Mbytes
    Step    Atoms         KinEng            CPU 
 1851848     4363   0.0089531299              0 
 2160489     4360    0.019133651      4585.1509 
Loop time of 4585.15 on 40 procs for 308641 steps with 4360 atoms, finish time Tue Dec 27 22:16:33 2022


Pair  time (%) = 1.52118 (0.0331761)
Neigh time (%) = 311.093 (6.7848)
Comm  time (%) = 180.199 (3.93005)
Outpt time (%) = 0.000741443 (1.61705e-05)
Other time (%) = 4092.34 (89.252)

Nlocal:    109 ave 1649 max 0 min
Histogram: 36 0 2 0 0 0 0 0 0 2
Nghost:    22.075 ave 272 max 0 min
Histogram: 36 0 0 0 0 0 2 0 0 2
Neighs:    36.525 ave 622 max 0 min
Histogram: 36 0 2 0 0 0 0 0 0 2

Total # of neighbors = 1461
Ave neighs/atom = 0.335092
Neighbor list builds = 116160
Dangerous builds = 427
write_dump all custom dump.atom_info_ac_* id type x y z radius vx vy vz density #
run 308641
Setting up run at Tue Dec 27 22:16:33 2022

Memory usage per processor = 964.609 Mbytes
    Step    Atoms         KinEng            CPU 
 2160489     4360    0.019133651              0 
 2469130     4355    0.010321804      3734.3505 
Loop time of 3734.35 on 40 procs for 308641 steps with 4355 atoms, finish time Tue Dec 27 23:18:48 2022


Pair  time (%) = 1.33975 (0.0358765)
Neigh time (%) = 135.487 (3.62813)
Comm  time (%) = 85.1081 (2.27906)
Outpt time (%) = 0.000774555 (2.07414e-05)
Other time (%) = 3512.42 (94.0569)

Nlocal:    108.875 ave 1632 max 0 min
Histogram: 36 0 2 0 0 0 0 0 0 2
Nghost:    22.225 ave 278 max 0 min
Histogram: 36 0 0 0 0 1 1 0 0 2
Neighs:    36.65 ave 628 max 0 min
Histogram: 36 1 1 0 0 0 0 0 0 2

Total # of neighbors = 1466
Ave neighs/atom = 0.336625
Neighbor list builds = 50373
Dangerous builds = 982
write_dump all custom dump.atom_info_ac_* id type x y z radius vx vy vz density #
run 308641
Setting up run at Tue Dec 27 23:18:48 2022

Memory usage per processor = 964.609 Mbytes
    Step    Atoms         KinEng            CPU 
 2469130     4355    0.010321804              0 
 2777771     4350    0.032011302      3316.5353 
Loop time of 3316.54 on 40 procs for 308641 steps with 4350 atoms, finish time Wed Dec 28 00:14:05 2022


Pair  time (%) = 1.26079 (0.0380151)
Neigh time (%) = 49.234 (1.4845)
Comm  time (%) = 42.2873 (1.27504)
Outpt time (%) = 0.000409813 (1.23567e-05)
Other time (%) = 3223.75 (97.2024)

Nlocal:    108.75 ave 1628 max 0 min
Histogram: 36 0 2 0 0 0 0 0 0 2
Nghost:    21.725 ave 261 max 0 min
Histogram: 36 0 0 0 0 0 2 0 0 2
Neighs:    36.8 ave 632 max 0 min
Histogram: 36 1 1 0 0 0 0 0 0 2

Total # of neighbors = 1472
Ave neighs/atom = 0.338391
Neighbor list builds = 18316
Dangerous builds = 684
write_dump all custom dump.atom_info_ac_* id type x y z radius vx vy vz density #
run 308641
Setting up run at Wed Dec 28 00:14:05 2022

Memory usage per processor = 964.609 Mbytes
    Step    Atoms         KinEng            CPU 
 2777771     4350    0.032011302              0 
 3086412     4341    0.017501439      3251.6165 
Loop time of 3251.62 on 40 procs for 308641 steps with 4341 atoms, finish time Wed Dec 28 01:08:16 2022


Pair  time (%) = 1.24635 (0.0383302)
Neigh time (%) = 35.5233 (1.09248)
Comm  time (%) = 31.4738 (0.967944)
Outpt time (%) = 0.000760683 (2.3394e-05)
Other time (%) = 3183.37 (97.9012)

Nlocal:    108.525 ave 1622 max 0 min
Histogram: 36 0 2 0 0 0 0 0 0 2
Nghost:    22.2 ave 271 max 0 min
Histogram: 36 0 0 0 0 2 0 0 0 2
Neighs:    37.2 ave 649 max 0 min
Histogram: 36 2 0 0 0 0 0 0 0 2

Total # of neighbors = 1488
Ave neighs/atom = 0.342778
Neighbor list builds = 13214
Dangerous builds = 217
write_dump all custom dump.atom_info_ac_* id type x y z radius vx vy vz density #
run 308641
Setting up run at Wed Dec 28 01:08:16 2022

Memory usage per processor = 964.609 Mbytes
    Step    Atoms         KinEng            CPU 
 3086412     4341    0.017501439              0 
 3395053     4330      0.0147309      3299.6825 
Loop time of 3299.68 on 40 procs for 308641 steps with 4330 atoms, finish time Wed Dec 28 02:03:16 2022


Pair  time (%) = 1.24956 (0.0378691)
Neigh time (%) = 42.9875 (1.30278)
Comm  time (%) = 42.6428 (1.29233)
Outpt time (%) = 0.000757178 (2.2947e-05)
Other time (%) = 3212.8 (97.367)

Nlocal:    108.25 ave 1619 max 0 min
Histogram: 36 0 2 0 0 0 0 0 0 2
Nghost:    21.825 ave 267 max 0 min
Histogram: 36 0 0 0 0 1 1 0 0 2
Neighs:    36.325 ave 628 max 0 min
Histogram: 36 1 1 0 0 0 0 0 1 1

Total # of neighbors = 1453
Ave neighs/atom = 0.335566
Neighbor list builds = 15966
Dangerous builds = 1231
write_dump all custom dump.atom_info_ac_* id type x y z radius vx vy vz density #
run 308641
Setting up run at Wed Dec 28 02:03:16 2022

Memory usage per processor = 964.609 Mbytes
    Step    Atoms         KinEng            CPU 
 3395053     4330      0.0147309              0 
 3703694     4316    0.042565771      3372.3615 
Loop time of 3372.36 on 40 procs for 308641 steps with 4316 atoms, finish time Wed Dec 28 02:59:28 2022


Pair  time (%) = 1.26087 (0.0373884)
Neigh time (%) = 61.2764 (1.81702)
Comm  time (%) = 60.0697 (1.78124)
Outpt time (%) = 0.000773816 (2.29458e-05)
Other time (%) = 3249.75 (96.3643)

Nlocal:    107.9 ave 1604 max 0 min
Histogram: 36 0 2 0 0 0 0 0 0 2
Nghost:    21.575 ave 261 max 0 min
Histogram: 36 0 0 0 0 1 1 0 0 2
Neighs:    35.075 ave 615 max 0 min
Histogram: 36 1 1 0 0 0 0 0 1 1

Total # of neighbors = 1403
Ave neighs/atom = 0.32507
Neighbor list builds = 22763
Dangerous builds = 5560
write_dump all custom dump.atom_info_ac_* id type x y z radius vx vy vz density #
run 308641
Setting up run at Wed Dec 28 02:59:28 2022

Memory usage per processor = 964.609 Mbytes
    Step    Atoms         KinEng            CPU 
 3703694     4316    0.042565771              0 
 4012335     4303    0.020824837      3452.8917 
Loop time of 3452.89 on 40 procs for 308641 steps with 4303 atoms, finish time Wed Dec 28 03:57:01 2022


Pair  time (%) = 1.26592 (0.0366627)
Neigh time (%) = 76.2905 (2.20947)
Comm  time (%) = 67.8934 (1.96628)
Outpt time (%) = 0.000697701 (2.02063e-05)
Other time (%) = 3307.44 (95.7876)

Nlocal:    107.575 ave 1575 max 0 min
Histogram: 36 0 2 0 0 0 0 0 0 2
Nghost:    20.25 ave 243 max 0 min
Histogram: 36 0 0 0 0 0 2 0 0 2
Neighs:    34.775 ave 587 max 0 min
Histogram: 36 2 0 0 0 0 0 0 0 2

Total # of neighbors = 1391
Ave neighs/atom = 0.323263
Neighbor list builds = 28310
Dangerous builds = 8651
write_dump all custom dump.atom_info_ac_* id type x y z radius vx vy vz density #
run 308641
Setting up run at Wed Dec 28 03:57:02 2022

Memory usage per processor = 964.609 Mbytes
    Step    Atoms         KinEng            CPU 
 4012335     4303    0.020824837              0 
 4320976     4298    0.039756123      3257.4967 
Loop time of 3257.5 on 40 procs for 308641 steps with 4298 atoms, finish time Wed Dec 28 04:51:19 2022


Pair  time (%) = 1.2226 (0.0375319)
Neigh time (%) = 35.9615 (1.10396)
Comm  time (%) = 31.9328 (0.980287)
Outpt time (%) = 0.000742348 (2.27889e-05)
Other time (%) = 3188.38 (97.8782)

Nlocal:    107.45 ave 1560 max 0 min
Histogram: 36 0 2 0 0 0 0 0 0 2
Nghost:    20.05 ave 232 max 0 min
Histogram: 36 0 0 0 0 0 1 1 0 2
Neighs:    34.75 ave 608 max 0 min
Histogram: 36 2 0 0 0 0 0 0 0 2

Total # of neighbors = 1390
Ave neighs/atom = 0.323406
Neighbor list builds = 13324
Dangerous builds = 476
write_dump all custom dump.atom_info_ac_* id type x y z radius vx vy vz density #
run 308641
Setting up run at Wed Dec 28 04:51:19 2022

Memory usage per processor = 964.609 Mbytes
    Step    Atoms         KinEng            CPU 
 4320976     4298    0.039756123              0 
 4629617     4285    0.065953154      3386.3173 
Loop time of 3386.32 on 40 procs for 308641 steps with 4285 atoms, finish time Wed Dec 28 05:47:45 2022


Pair  time (%) = 1.24935 (0.0368941)
Neigh time (%) = 65.8042 (1.94324)
Comm  time (%) = 57.9697 (1.71188)
Outpt time (%) = 0.000699023 (2.06426e-05)
Other time (%) = 3261.29 (96.308)

Nlocal:    107.125 ave 1549 max 0 min
Histogram: 36 0 2 0 0 0 0 0 0 2
Nghost:    19.9 ave 230 max 0 min
Histogram: 36 0 0 0 0 0 2 0 0 2
Neighs:    36.35 ave 619 max 0 min
Histogram: 36 2 0 0 0 0 0 0 0 2

Total # of neighbors = 1454
Ave neighs/atom = 0.339323
Neighbor list builds = 24380
Dangerous builds = 2463
write_dump all custom dump.atom_info_ac_* id type x y z radius vx vy vz density #
run 308641
Setting up run at Wed Dec 28 05:47:46 2022

Memory usage per processor = 964.609 Mbytes
    Step    Atoms         KinEng            CPU 
 4629617     4285    0.065953154              0 
 4938258     4273    0.044051381      3358.3803 
Loop time of 3358.38 on 40 procs for 308641 steps with 4273 atoms, finish time Wed Dec 28 06:43:44 2022


Pair  time (%) = 1.24621 (0.0371074)
Neigh time (%) = 57.9112 (1.72438)
Comm  time (%) = 54.8354 (1.63279)
Outpt time (%) = 0.000497072 (1.48009e-05)
Other time (%) = 3244.39 (96.6057)

Nlocal:    106.825 ave 1537 max 0 min
Histogram: 36 0 2 0 0 0 0 0 0 2
Nghost:    19.975 ave 227 max 0 min
Histogram: 36 0 0 0 0 0 2 0 0 2
Neighs:    33.275 ave 566 max 0 min
Histogram: 36 2 0 0 0 0 0 0 0 2

Total # of neighbors = 1331
Ave neighs/atom = 0.311491
Neighbor list builds = 21445
Dangerous builds = 4423
write_dump all custom dump.atom_info_ac_* id type x y z radius vx vy vz density #
run 308641
Setting up run at Wed Dec 28 06:43:44 2022

Memory usage per processor = 964.609 Mbytes
    Step    Atoms         KinEng            CPU 
 4938258     4273    0.044051381              0 
 5246899     4262     0.20817723      3215.7409 
Loop time of 3215.74 on 40 procs for 308641 steps with 4262 atoms, finish time Wed Dec 28 07:37:20 2022


Pair  time (%) = 1.20386 (0.0374366)
Neigh time (%) = 29.7838 (0.926187)
Comm  time (%) = 31.9655 (0.994032)
Outpt time (%) = 0.00628473 (0.000195436)
Other time (%) = 3152.78 (98.0421)

Nlocal:    106.55 ave 1527 max 0 min
Histogram: 36 0 2 0 0 0 0 0 0 2
Nghost:    19.65 ave 228 max 0 min
Histogram: 36 0 0 0 0 1 1 0 0 2
Neighs:    30.85 ave 514 max 0 min
Histogram: 36 1 1 0 0 0 0 0 0 2

Total # of neighbors = 1234
Ave neighs/atom = 0.289535
Neighbor list builds = 11039
Dangerous builds = 1145
write_dump all custom dump.atom_info_ac_* id type x y z radius vx vy vz density #
run 308641
Setting up run at Wed Dec 28 07:37:20 2022

Memory usage per processor = 964.609 Mbytes
    Step    Atoms         KinEng            CPU 
 5246899     4262     0.20817723              0 
 5555540     4243     0.11252845      3289.7696 
Loop time of 3289.77 on 40 procs for 308641 steps with 4243 atoms, finish time Wed Dec 28 08:32:10 2022


Pair  time (%) = 1.20193 (0.0365354)
Neigh time (%) = 45.6868 (1.38875)
Comm  time (%) = 47.1834 (1.43425)
Outpt time (%) = 0.000616064 (1.87267e-05)
Other time (%) = 3195.7 (97.1404)

Nlocal:    106.075 ave 1533 max 0 min
Histogram: 36 0 2 0 0 0 0 0 0 2
Nghost:    19.5 ave 218 max 0 min
Histogram: 36 0 0 0 0 1 0 1 0 2
Neighs:    28.775 ave 518 max 0 min
Histogram: 36 2 0 0 0 0 0 0 1 1

Total # of neighbors = 1151
Ave neighs/atom = 0.27127
Neighbor list builds = 16959
Dangerous builds = 2947
write_dump all custom dump.atom_info_ac_* id type x y z radius vx vy vz density #
run 308641
Setting up run at Wed Dec 28 08:32:10 2022

Memory usage per processor = 964.609 Mbytes
    Step    Atoms         KinEng            CPU 
 5555540     4243     0.11252845              0 
 5864181     4220    0.025366827      3351.4573 
Loop time of 3351.46 on 40 procs for 308641 steps with 4220 atoms, finish time Wed Dec 28 09:28:01 2022


Pair  time (%) = 1.19903 (0.0357764)
Neigh time (%) = 57.1327 (1.70471)
Comm  time (%) = 60.8467 (1.81553)
Outpt time (%) = 0.000715648 (2.13533e-05)
Other time (%) = 3232.28 (96.444)

Nlocal:    105.5 ave 1515 max 0 min
Histogram: 36 0 2 0 0 0 0 0 0 2
Nghost:    18.65 ave 202 max 0 min
Histogram: 36 0 0 0 0 0 1 1 0 2
Neighs:    27.3 ave 472 max 0 min
Histogram: 36 2 0 0 0 0 0 0 0 2

Total # of neighbors = 1092
Ave neighs/atom = 0.258768
Neighbor list builds = 21222
Dangerous builds = 8301
write_dump all custom dump.atom_info_ac_* id type x y z radius vx vy vz density #
run 308641
Setting up run at Wed Dec 28 09:28:01 2022

Memory usage per processor = 964.609 Mbytes
    Step    Atoms         KinEng            CPU 
 5864181     4220    0.025366827              0 
 6172822     4203    0.046023527      3330.2193 
Loop time of 3330.22 on 40 procs for 308641 steps with 4203 atoms, finish time Wed Dec 28 10:23:32 2022


Pair  time (%) = 1.16321 (0.0349288)
Neigh time (%) = 54.0548 (1.62316)
Comm  time (%) = 59.4328 (1.78465)
Outpt time (%) = 0.00075258 (2.25985e-05)
Other time (%) = 3215.57 (96.5572)

Nlocal:    105.075 ave 1510 max 0 min
Histogram: 36 0 2 0 0 0 0 0 0 2
Nghost:    18.475 ave 222 max 0 min
Histogram: 36 0 0 0 0 1 1 0 1 1
Neighs:    26.8 ave 468 max 0 min
Histogram: 36 1 1 0 0 0 0 0 1 1

Total # of neighbors = 1072
Ave neighs/atom = 0.255056
Neighbor list builds = 20076
Dangerous builds = 1942
write_dump all custom dump.atom_info_ac_* id type x y z radius vx vy vz density #
run 308641
Setting up run at Wed Dec 28 10:23:32 2022

Memory usage per processor = 964.609 Mbytes
    Step    Atoms         KinEng            CPU 
 6172822     4203    0.046023527              0 
 6481463     4178    0.032302011      3238.2553 
Loop time of 3238.26 on 40 procs for 308641 steps with 4178 atoms, finish time Wed Dec 28 11:17:30 2022


Pair  time (%) = 1.13412 (0.0350224)
Neigh time (%) = 33.2569 (1.027)
Comm  time (%) = 38.0483 (1.17496)
Outpt time (%) = 0.00608831 (0.000188012)
Other time (%) = 3165.81 (97.7628)

Nlocal:    104.45 ave 1514 max 0 min
Histogram: 35 1 2 0 0 0 0 0 0 2
Nghost:    18.125 ave 202 max 0 min
Histogram: 35 1 0 0 0 0 2 0 0 2
Neighs:    25.325 ave 456 max 0 min
Histogram: 36 2 0 0 0 0 0 1 0 1

Total # of neighbors = 1013
Ave neighs/atom = 0.242461
Neighbor list builds = 12364
Dangerous builds = 2698
write_dump all custom dump.atom_info_ac_* id type x y z radius vx vy vz density #
run 308641
Setting up run at Wed Dec 28 11:17:30 2022

Memory usage per processor = 964.609 Mbytes
    Step    Atoms         KinEng            CPU 
 6481463     4178    0.032302011              0 
 6790104     4154    0.024665203      3314.1368 
Loop time of 3314.14 on 40 procs for 308641 steps with 4154 atoms, finish time Wed Dec 28 12:12:44 2022


Pair  time (%) = 1.13266 (0.0341766)
Neigh time (%) = 50.7884 (1.53248)
Comm  time (%) = 57.7353 (1.74209)
Outpt time (%) = 0.000949253 (2.86425e-05)
Other time (%) = 3204.48 (96.6912)

Nlocal:    103.85 ave 1479 max 0 min
Histogram: 35 1 2 0 0 0 0 0 0 2
Nghost:    17.675 ave 192 max 0 min
Histogram: 34 2 0 0 0 1 0 1 0 2
Neighs:    26.125 ave 479 max 0 min
Histogram: 36 2 0 0 0 0 0 1 0 1

Total # of neighbors = 1045
Ave neighs/atom = 0.251565
Neighbor list builds = 18897
Dangerous builds = 7229
write_dump all custom dump.atom_info_ac_* id type x y z radius vx vy vz density #
run 308641
Setting up run at Wed Dec 28 12:12:44 2022

Memory usage per processor = 964.609 Mbytes
    Step    Atoms         KinEng            CPU 
 6790104     4154    0.024665203              0 
 7098745     4136    0.034682853      3202.4707 
Loop time of 3202.47 on 40 procs for 308641 steps with 4136 atoms, finish time Wed Dec 28 13:06:07 2022


Pair  time (%) = 1.10138 (0.0343915)
Neigh time (%) = 30.3965 (0.949158)
Comm  time (%) = 37.7479 (1.17871)
Outpt time (%) = 0.000458755 (1.4325e-05)
Other time (%) = 3133.22 (97.8377)

Nlocal:    103.4 ave 1460 max 0 min
Histogram: 34 2 2 0 0 0 0 0 0 2
Nghost:    18.225 ave 217 max 0 min
Histogram: 35 1 0 0 0 2 0 0 1 1
Neighs:    24.375 ave 462 max 0 min
Histogram: 36 2 0 0 0 0 1 0 0 1

Total # of neighbors = 975
Ave neighs/atom = 0.235735
Neighbor list builds = 11293
Dangerous builds = 1257
write_dump all custom dump.atom_info_ac_* id type x y z radius vx vy vz density #
run 308641
Setting up run at Wed Dec 28 13:06:07 2022

Memory usage per processor = 964.609 Mbytes
    Step    Atoms         KinEng            CPU 
 7098745     4136    0.034682853              0 
 7407386     4117    0.038902867      3639.1369 
Loop time of 3639.14 on 40 procs for 308641 steps with 4117 atoms, finish time Wed Dec 28 14:06:46 2022


Pair  time (%) = 1.14431 (0.0314445)
Neigh time (%) = 92.671 (2.54651)
Comm  time (%) = 109.423 (3.00684)
Outpt time (%) = 0.000709608 (1.94994e-05)
Other time (%) = 3435.9 (94.4152)

Nlocal:    102.925 ave 1441 max 0 min
Histogram: 35 1 2 0 0 0 0 0 0 2
Nghost:    18.85 ave 229 max 0 min
Histogram: 35 1 0 0 1 1 0 0 1 1
Neighs:    24.275 ave 402 max 0 min
Histogram: 36 1 0 1 0 0 0 0 1 1

Total # of neighbors = 971
Ave neighs/atom = 0.235851
Neighbor list builds = 34411
Dangerous builds = 3186
write_dump all custom dump.atom_info_ac_* id type x y z radius vx vy vz density #
run 308641
Setting up run at Wed Dec 28 14:06:46 2022

Memory usage per processor = 964.609 Mbytes
    Step    Atoms         KinEng            CPU 
 7407386     4117    0.038902867              0 
 7716027     4087    0.072431786      3418.3048 
Loop time of 3418.31 on 40 procs for 308641 steps with 4087 atoms, finish time Wed Dec 28 15:03:44 2022


Pair  time (%) = 1.14368 (0.0334577)
Neigh time (%) = 73.9928 (2.16461)
Comm  time (%) = 85.6181 (2.50469)
Outpt time (%) = 0.0058553 (0.000171292)
Other time (%) = 3257.54 (95.2971)

Nlocal:    102.175 ave 1427 max 0 min
Histogram: 34 2 2 0 0 0 0 0 0 2
Nghost:    18.175 ave 209 max 0 min
Histogram: 34 2 0 0 0 2 0 0 1 1
Neighs:    23.5 ave 395 max 0 min
Histogram: 36 1 1 0 0 0 0 1 0 1

Total # of neighbors = 940
Ave neighs/atom = 0.229998
Neighbor list builds = 27469
Dangerous builds = 3882
write_dump all custom dump.atom_info_ac_* id type x y z radius vx vy vz density #
run 308641
Setting up run at Wed Dec 28 15:03:44 2022

Memory usage per processor = 964.609 Mbytes
    Step    Atoms         KinEng            CPU 
 7716027     4087    0.072431786              0 
 8024668     4064     0.34786969      3428.0077 
Loop time of 3428.01 on 40 procs for 308641 steps with 4064 atoms, finish time Wed Dec 28 16:00:52 2022


Pair  time (%) = 1.12085 (0.0326967)
Neigh time (%) = 77.9543 (2.27404)
Comm  time (%) = 96.3307 (2.81011)
Outpt time (%) = 0.0062127 (0.000181233)
Other time (%) = 3252.6 (94.883)

Nlocal:    101.6 ave 1403 max 0 min
Histogram: 35 1 1 1 0 0 0 0 0 2
Nghost:    17.825 ave 217 max 0 min
Histogram: 36 0 0 0 0 2 0 0 1 1
Neighs:    21.825 ave 348 max 0 min
Histogram: 36 0 1 1 0 0 0 0 0 2

Total # of neighbors = 873
Ave neighs/atom = 0.214813
Neighbor list builds = 28947
Dangerous builds = 1982
write_dump all custom dump.atom_info_ac_* id type x y z radius vx vy vz density #
run 308641
Setting up run at Wed Dec 28 16:00:52 2022

Memory usage per processor = 964.609 Mbytes
    Step    Atoms         KinEng            CPU 
 8024668     4064     0.34786969              0 
 8333309     4030    0.071753386      3463.1287 
Loop time of 3463.13 on 40 procs for 308641 steps with 4030 atoms, finish time Wed Dec 28 16:58:36 2022


Pair  time (%) = 1.11345 (0.0321515)
Neigh time (%) = 85.7139 (2.47504)
Comm  time (%) = 94.4247 (2.72657)
Outpt time (%) = 0.00621282 (0.000179399)
Other time (%) = 3281.87 (94.7661)

Nlocal:    100.75 ave 1378 max 0 min
Histogram: 34 2 2 0 0 0 0 0 0 2
Nghost:    17.85 ave 194 max 0 min
Histogram: 35 1 0 0 0 1 1 0 0 2
Neighs:    22.275 ave 366 max 0 min
Histogram: 35 2 0 1 0 0 0 0 1 1

Total # of neighbors = 891
Ave neighs/atom = 0.221092
Neighbor list builds = 31896
Dangerous builds = 6354
write_dump all custom dump.atom_info_ac_* id type x y z radius vx vy vz density #
run 308641
Setting up run at Wed Dec 28 16:58:36 2022

Memory usage per processor = 964.609 Mbytes
    Step    Atoms         KinEng            CPU 
 8333309     4030    0.071753386              0 
 8641950     4012    0.075927402       3300.837 
Loop time of 3300.84 on 40 procs for 308641 steps with 4012 atoms, finish time Wed Dec 28 17:53:37 2022


Pair  time (%) = 1.07925 (0.0326962)
Neigh time (%) = 52.2385 (1.58258)
Comm  time (%) = 59.4464 (1.80095)
Outpt time (%) = 0.000641424 (1.94322e-05)
Other time (%) = 3188.07 (96.5838)

Nlocal:    100.3 ave 1338 max 0 min
Histogram: 33 3 2 0 0 0 0 0 0 2
Nghost:    17.075 ave 187 max 0 min
Histogram: 35 1 0 0 0 1 0 1 0 2
Neighs:    20.6 ave 303 max 0 min
Histogram: 36 1 0 1 0 0 0 0 0 2

Total # of neighbors = 824
Ave neighs/atom = 0.205384
Neighbor list builds = 19433
Dangerous builds = 1251
write_dump all custom dump.atom_info_ac_* id type x y z radius vx vy vz density #
run 308641
Setting up run at Wed Dec 28 17:53:37 2022

Memory usage per processor = 964.609 Mbytes
    Step    Atoms         KinEng            CPU 
 8641950     4012    0.075927402              0 
 8950591     3989    0.094716742      3523.3932 
Loop time of 3523.39 on 40 procs for 308641 steps with 3989 atoms, finish time Wed Dec 28 18:52:20 2022


Pair  time (%) = 1.09931 (0.0312004)
Neigh time (%) = 100.802 (2.86094)
Comm  time (%) = 101.218 (2.87275)
Outpt time (%) = 0.0101243 (0.000287346)
Other time (%) = 3320.26 (94.2348)

Nlocal:    99.725 ave 1315 max 0 min
Histogram: 35 1 2 0 0 0 0 0 0 2
Nghost:    17.275 ave 194 max 0 min
Histogram: 35 1 0 0 0 1 1 0 0 2
Neighs:    19.8 ave 307 max 0 min
Histogram: 35 2 0 0 1 0 0 0 1 1

Total # of neighbors = 792
Ave neighs/atom = 0.198546
Neighbor list builds = 37504
Dangerous builds = 3250
write_dump all custom dump.atom_info_ac_* id type x y z radius vx vy vz density #
run 308641
Setting up run at Wed Dec 28 18:52:20 2022

Memory usage per processor = 964.609 Mbytes
    Step    Atoms         KinEng            CPU 
 8950591     3989    0.094716742              0 
 9259232     3965     0.25201348      3621.4666 
Loop time of 3621.47 on 40 procs for 308641 steps with 3965 atoms, finish time Wed Dec 28 19:52:42 2022


Pair  time (%) = 1.09132 (0.0301347)
Neigh time (%) = 120.004 (3.31369)
Comm  time (%) = 129.303 (3.57047)
Outpt time (%) = 0.000674393 (1.86221e-05)
Other time (%) = 3371.07 (93.0857)

Nlocal:    99.125 ave 1298 max 0 min
Histogram: 33 3 2 0 0 0 0 0 0 2
Nghost:    16.4 ave 188 max 0 min
Histogram: 35 1 0 0 0 2 0 0 0 2
Neighs:    19.65 ave 303 max 0 min
Histogram: 36 1 0 1 0 0 0 0 1 1

Total # of neighbors = 786
Ave neighs/atom = 0.198235
Neighbor list builds = 44616
Dangerous builds = 1546
write_dump all custom dump.atom_info_ac_* id type x y z radius vx vy vz density #
run 308641
Setting up run at Wed Dec 28 19:52:42 2022

Memory usage per processor = 964.609 Mbytes
    Step    Atoms         KinEng            CPU 
 9259232     3965     0.25201348              0 
 9567873     3926     0.11291311      3597.6251 
Loop time of 3597.63 on 40 procs for 308641 steps with 3926 atoms, finish time Wed Dec 28 20:52:39 2022


Pair  time (%) = 1.06772 (0.0296786)
Neigh time (%) = 113.112 (3.14408)
Comm  time (%) = 131.226 (3.64756)
Outpt time (%) = 0.000696528 (1.93608e-05)
Other time (%) = 3352.22 (93.1787)

Nlocal:    98.15 ave 1263 max 0 min
Histogram: 33 3 1 1 0 0 0 0 0 2
Nghost:    16.825 ave 205 max 0 min
Histogram: 36 0 0 0 1 1 0 0 1 1
Neighs:    17.125 ave 266 max 0 min
Histogram: 36 0 1 1 0 0 0 0 1 1

Total # of neighbors = 685
Ave neighs/atom = 0.174478
Neighbor list builds = 42211
Dangerous builds = 4190
write_dump all custom dump.atom_info_ac_* id type x y z radius vx vy vz density #
run 308641
Setting up run at Wed Dec 28 20:52:39 2022

Memory usage per processor = 964.609 Mbytes
    Step    Atoms         KinEng            CPU 
 9567873     3926     0.11291311              0 
 9876514     3905     0.11062954      3537.7325 
Loop time of 3537.74 on 40 procs for 308641 steps with 3905 atoms, finish time Wed Dec 28 21:51:37 2022


Pair  time (%) = 1.04028 (0.0294051)
Neigh time (%) = 89.2535 (2.52289)
Comm  time (%) = 99.7034 (2.81828)
Outpt time (%) = 0.00044597 (1.2606e-05)
Other time (%) = 3347.75 (94.6294)

Nlocal:    97.625 ave 1249 max 0 min
Histogram: 33 3 2 0 0 0 0 0 0 2
Nghost:    16.975 ave 229 max 0 min
Histogram: 35 1 0 1 1 0 1 0 0 1
Neighs:    17.55 ave 268 max 0 min
Histogram: 35 2 0 0 1 0 0 0 1 1

Total # of neighbors = 702
Ave neighs/atom = 0.17977
Neighbor list builds = 33314
Dangerous builds = 3475
write_dump all custom dump.atom_info_ac_* id type x y z radius vx vy vz density #
run 308641
Setting up run at Wed Dec 28 21:51:37 2022

Memory usage per processor = 964.609 Mbytes
    Step    Atoms         KinEng            CPU 
 9876514     3905     0.11062954              0 
10185155     3880     0.14980979      3426.6842 
Loop time of 3426.68 on 40 procs for 308641 steps with 3880 atoms, finish time Wed Dec 28 22:48:44 2022


Pair  time (%) = 1.03011 (0.0300615)
Neigh time (%) = 76.6629 (2.23723)
Comm  time (%) = 87.3831 (2.55008)
Outpt time (%) = 0.000650179 (1.8974e-05)
Other time (%) = 3261.61 (95.1826)

Nlocal:    97 ave 1257 max 0 min
Histogram: 34 2 2 0 0 0 0 0 0 2
Nghost:    15.575 ave 209 max 0 min
Histogram: 36 0 0 1 0 1 0 1 0 1
Neighs:    16.4 ave 259 max 0 min
Histogram: 36 1 0 1 0 0 0 0 1 1

Total # of neighbors = 656
Ave neighs/atom = 0.169072
Neighbor list builds = 28590
Dangerous builds = 2908
write_dump all custom dump.atom_info_ac_* id type x y z radius vx vy vz density #
run 308641
Setting up run at Wed Dec 28 22:48:44 2022

Memory usage per processor = 964.609 Mbytes
    Step    Atoms         KinEng            CPU 
10185155     3880     0.14980979              0 
10493796     3849     0.13466986      3542.9702 
Loop time of 3542.97 on 40 procs for 308641 steps with 3849 atoms, finish time Wed Dec 28 23:47:47 2022


Pair  time (%) = 1.02864 (0.0290333)
Neigh time (%) = 97.1341 (2.7416)
Comm  time (%) = 116.3 (3.28255)
Outpt time (%) = 0.000699548 (1.97447e-05)
Other time (%) = 3328.51 (93.9468)

Nlocal:    96.225 ave 1258 max 0 min
Histogram: 34 2 1 1 0 0 0 0 0 2
Nghost:    15.85 ave 210 max 0 min
Histogram: 36 0 0 1 0 1 0 1 0 1
Neighs:    15.05 ave 251 max 0 min
Histogram: 36 0 2 0 0 0 0 1 0 1

Total # of neighbors = 602
Ave neighs/atom = 0.156404
Neighbor list builds = 36280
Dangerous builds = 9205
write_dump all custom dump.atom_info_ac_* id type x y z radius vx vy vz density #
run 308641
Setting up run at Wed Dec 28 23:47:47 2022

Memory usage per processor = 964.609 Mbytes
    Step    Atoms         KinEng            CPU 
10493796     3849     0.13466986              0 
10802437     3812     0.16737617      3575.2213 
Loop time of 3575.22 on 40 procs for 308641 steps with 3812 atoms, finish time Thu Dec 29 00:47:22 2022


Pair  time (%) = 1.04176 (0.0291384)
Neigh time (%) = 112.344 (3.14231)
Comm  time (%) = 128.422 (3.59201)
Outpt time (%) = 0.000709563 (1.98467e-05)
Other time (%) = 3333.41 (93.2365)

Nlocal:    95.3 ave 1256 max 0 min
Histogram: 32 4 2 0 0 0 0 0 0 2
Nghost:    16.025 ave 207 max 0 min
Histogram: 36 0 0 0 1 1 0 0 1 1
Neighs:    14.4 ave 264 max 0 min
Histogram: 36 1 1 0 0 0 1 0 0 1

Total # of neighbors = 576
Ave neighs/atom = 0.151102
Neighbor list builds = 41966
Dangerous builds = 12728
write_dump all custom dump.atom_info_ac_* id type x y z radius vx vy vz density #
run 308641
Setting up run at Thu Dec 29 00:47:23 2022

Memory usage per processor = 964.609 Mbytes
    Step    Atoms         KinEng            CPU 
10802437     3812     0.16737617              0 
11111078     3787         0.1559      3491.4765 
Loop time of 3491.48 on 40 procs for 308641 steps with 3787 atoms, finish time Thu Dec 29 01:45:34 2022


Pair  time (%) = 1.02894 (0.0294702)
Neigh time (%) = 94.4321 (2.70465)
Comm  time (%) = 111.212 (3.18523)
Outpt time (%) = 0.00595186 (0.000170468)
Other time (%) = 3284.8 (94.0805)

Nlocal:    94.675 ave 1248 max 0 min
Histogram: 33 3 2 0 0 0 0 0 1 1
Nghost:    15 ave 190 max 0 min
Histogram: 36 0 0 1 0 1 0 0 1 1
Neighs:    12.925 ave 226 max 0 min
Histogram: 36 1 1 0 0 0 1 0 0 1

Total # of neighbors = 517
Ave neighs/atom = 0.13652
Neighbor list builds = 35293
Dangerous builds = 8725
write_dump all custom dump.atom_info_ac_* id type x y z radius vx vy vz density #
run 308641
Setting up run at Thu Dec 29 01:45:34 2022

Memory usage per processor = 964.609 Mbytes
    Step    Atoms         KinEng            CPU 
11111078     3787         0.1559              0 
11419719     3759     0.38688701      3667.0477 
Loop time of 3667.05 on 40 procs for 308641 steps with 3759 atoms, finish time Thu Dec 29 02:46:41 2022


Pair  time (%) = 1.01605 (0.0277077)
Neigh time (%) = 131.986 (3.59924)
Comm  time (%) = 158.486 (4.32191)
Outpt time (%) = 0.000579962 (1.58155e-05)
Other time (%) = 3375.56 (92.0511)

Nlocal:    93.975 ave 1236 max 0 min
Histogram: 33 3 2 0 0 0 0 0 1 1
Nghost:    15.15 ave 190 max 0 min
Histogram: 36 0 0 1 0 0 1 0 1 1
Neighs:    12.025 ave 210 max 0 min
Histogram: 36 1 1 0 0 0 1 0 0 1

Total # of neighbors = 481
Ave neighs/atom = 0.12796
Neighbor list builds = 49265
Dangerous builds = 1746
write_dump all custom dump.atom_info_ac_* id type x y z radius vx vy vz density #
run 308641
Setting up run at Thu Dec 29 02:46:41 2022

Memory usage per processor = 964.609 Mbytes
    Step    Atoms         KinEng            CPU 
11419719     3759     0.38688701              0 
11728360     3736      0.4979127      3409.9924 
Loop time of 3409.99 on 40 procs for 308641 steps with 3736 atoms, finish time Thu Dec 29 03:43:31 2022


Pair  time (%) = 0.98266 (0.0288171)
Neigh time (%) = 77.3644 (2.26876)
Comm  time (%) = 93.3775 (2.73835)
Outpt time (%) = 0.00583392 (0.000171083)
Other time (%) = 3238.26 (94.9639)

Nlocal:    93.4 ave 1229 max 0 min
Histogram: 33 3 2 0 0 0 0 0 1 1
Nghost:    14.7 ave 203 max 0 min
Histogram: 36 0 0 1 0 1 0 1 0 1
Neighs:    12 ave 210 max 0 min
Histogram: 35 2 1 0 0 0 0 1 0 1

Total # of neighbors = 480
Ave neighs/atom = 0.12848
Neighbor list builds = 28857
Dangerous builds = 2483
write_dump all custom dump.atom_info_ac_* id type x y z radius vx vy vz density #
run 308641
Setting up run at Thu Dec 29 03:43:31 2022

Memory usage per processor = 964.609 Mbytes
    Step    Atoms         KinEng            CPU 
11728360     3736      0.4979127              0 
12037001     3700     0.18201599      3514.3614 
Loop time of 3514.36 on 40 procs for 308641 steps with 3700 atoms, finish time Thu Dec 29 04:42:06 2022


Pair  time (%) = 0.98688 (0.0280813)
Neigh time (%) = 97.9415 (2.78689)
Comm  time (%) = 122.337 (3.48106)
Outpt time (%) = 0.00591936 (0.000168433)
Other time (%) = 3293.09 (93.7038)

Nlocal:    92.5 ave 1219 max 0 min
Histogram: 32 4 2 0 0 0 0 0 1 1
Nghost:    13.925 ave 188 max 0 min
Histogram: 36 0 0 1 0 1 0 1 0 1
Neighs:    11.525 ave 188 max 0 min
Histogram: 35 2 0 1 0 0 0 1 0 1

Total # of neighbors = 461
Ave neighs/atom = 0.124595
Neighbor list builds = 36534
Dangerous builds = 5530
write_dump all custom dump.atom_info_ac_* id type x y z radius vx vy vz density #
run 308641
Setting up run at Thu Dec 29 04:42:06 2022

Memory usage per processor = 964.609 Mbytes
    Step    Atoms         KinEng            CPU 
12037001     3700     0.18201599              0 
12345642     3660      17.018089      3541.6518 
Loop time of 3541.65 on 40 procs for 308641 steps with 3660 atoms, finish time Thu Dec 29 05:41:07 2022


Pair  time (%) = 0.990017 (0.0279535)
Neigh time (%) = 106.499 (3.00704)
Comm  time (%) = 129.393 (3.65346)
Outpt time (%) = 0.0060275 (0.000170189)
Other time (%) = 3304.76 (93.3114)

Nlocal:    91.5 ave 1201 max 0 min
Histogram: 32 4 2 0 0 0 0 0 1 1
Nghost:    13.875 ave 185 max 0 min
Histogram: 36 0 0 0 2 0 0 0 1 1
Neighs:    11.3 ave 176 max 0 min
Histogram: 36 1 0 1 0 0 0 0 1 1

Total # of neighbors = 452
Ave neighs/atom = 0.123497
Neighbor list builds = 39754
Dangerous builds = 13599
write_dump all custom dump.atom_info_ac_* id type x y z radius vx vy vz density #
run 308641
Setting up run at Thu Dec 29 05:41:08 2022

Memory usage per processor = 964.609 Mbytes
    Step    Atoms         KinEng            CPU 
12345642     3660      17.018089              0 
12654283     3634     0.20444183      3408.7549 
Loop time of 3408.76 on 40 procs for 308641 steps with 3634 atoms, finish time Thu Dec 29 06:37:56 2022


Pair  time (%) = 0.962889 (0.0282475)
Neigh time (%) = 77.1057 (2.26199)
Comm  time (%) = 99.6421 (2.92312)
Outpt time (%) = 0.000695912 (2.04154e-05)
Other time (%) = 3231.04 (94.7866)

Nlocal:    90.85 ave 1184 max 0 min
Histogram: 32 5 1 0 0 0 0 0 1 1
Nghost:    14.05 ave 174 max 0 min
Histogram: 36 0 0 1 0 1 0 0 1 1
Neighs:    10.65 ave 175 max 0 min
Histogram: 36 1 0 1 0 0 0 1 0 1

Total # of neighbors = 426
Ave neighs/atom = 0.117226
Neighbor list builds = 28780
Dangerous builds = 4383
write_dump all custom dump.atom_info_ac_* id type x y z radius vx vy vz density #
run 308641
Setting up run at Thu Dec 29 06:37:56 2022

Memory usage per processor = 964.609 Mbytes
    Step    Atoms         KinEng            CPU 
12654283     3634     0.20444183              0 
12962924     3592      0.2514014      3424.5032 
Loop time of 3424.5 on 40 procs for 308641 steps with 3592 atoms, finish time Thu Dec 29 07:35:01 2022


Pair  time (%) = 0.963862 (0.028146)
Neigh time (%) = 80.7122 (2.3569)
Comm  time (%) = 98.9844 (2.89048)
Outpt time (%) = 0.00565032 (0.000164997)
Other time (%) = 3243.84 (94.7243)

Nlocal:    89.8 ave 1171 max 0 min
Histogram: 32 4 2 0 0 0 0 0 1 1
Nghost:    12.875 ave 151 max 0 min
Histogram: 36 0 0 0 1 0 1 0 0 2
Neighs:    10.225 ave 165 max 0 min
Histogram: 35 2 1 0 0 0 0 1 0 1

Total # of neighbors = 409
Ave neighs/atom = 0.113864
Neighbor list builds = 30153
Dangerous builds = 10569
write_dump all custom dump.atom_info_ac_* id type x y z radius vx vy vz density #
run 308641
Setting up run at Thu Dec 29 07:35:01 2022

Memory usage per processor = 964.609 Mbytes
    Step    Atoms         KinEng            CPU 
12962924     3592      0.2514014              0 
13271565     3551     0.23882504      3460.0226 
Loop time of 3460.02 on 40 procs for 308641 steps with 3551 atoms, finish time Thu Dec 29 08:32:41 2022


Pair  time (%) = 0.965558 (0.0279061)
Neigh time (%) = 89.7081 (2.5927)
Comm  time (%) = 109.362 (3.16074)
Outpt time (%) = 0.000653166 (1.88775e-05)
Other time (%) = 3259.99 (94.2186)

Nlocal:    88.775 ave 1149 max 0 min
Histogram: 32 5 1 0 0 0 0 0 0 2
Nghost:    13.375 ave 177 max 0 min
Histogram: 36 0 0 0 2 0 0 1 0 1
Neighs:    10.9 ave 175 max 0 min
Histogram: 35 2 0 1 0 0 0 1 0 1

Total # of neighbors = 436
Ave neighs/atom = 0.122782
Neighbor list builds = 33501
Dangerous builds = 8300
write_dump all custom dump.atom_info_ac_* id type x y z radius vx vy vz density #
run 308641
Setting up run at Thu Dec 29 08:32:41 2022

Memory usage per processor = 964.609 Mbytes
    Step    Atoms         KinEng            CPU 
13271565     3551     0.23882504              0 
13580206     3525     0.26111126      3504.1133 
Loop time of 3504.11 on 40 procs for 308641 steps with 3525 atoms, finish time Thu Dec 29 09:31:05 2022


Pair  time (%) = 0.969779 (0.0276755)
Neigh time (%) = 98.7537 (2.81822)
Comm  time (%) = 114.755 (3.27486)
Outpt time (%) = 0.0060188 (0.000171764)
Other time (%) = 3289.63 (93.8791)

Nlocal:    88.125 ave 1140 max 0 min
Histogram: 32 4 2 0 0 0 0 0 1 1
Nghost:    13.025 ave 158 max 0 min
Histogram: 36 0 0 0 1 0 1 0 0 2
Neighs:    9.775 ave 177 max 0 min
Histogram: 36 0 2 0 0 0 1 0 0 1

Total # of neighbors = 391
Ave neighs/atom = 0.110922
Neighbor list builds = 36908
Dangerous builds = 15456
write_dump all custom dump.atom_info_ac_* id type x y z radius vx vy vz density #
run 308641
Setting up run at Thu Dec 29 09:31:05 2022

Memory usage per processor = 964.609 Mbytes
    Step    Atoms         KinEng            CPU 
13580206     3525     0.26111126              0 
13888847     3495     0.41348898      3485.0741 
Loop time of 3485.07 on 40 procs for 308641 steps with 3495 atoms, finish time Thu Dec 29 10:29:10 2022


Pair  time (%) = 0.948055 (0.0272033)
Neigh time (%) = 93.4745 (2.68214)
Comm  time (%) = 106.566 (3.05777)
Outpt time (%) = 0.000692065 (1.9858e-05)
Other time (%) = 3284.09 (94.2329)

Nlocal:    87.375 ave 1134 max 0 min
Histogram: 33 4 1 0 0 0 0 0 1 1
Nghost:    12.8 ave 162 max 0 min
Histogram: 36 0 0 0 1 1 0 1 0 1
Neighs:    9.1 ave 151 max 0 min
Histogram: 36 1 0 1 0 0 0 1 0 1

Total # of neighbors = 364
Ave neighs/atom = 0.104149
Neighbor list builds = 34912
Dangerous builds = 5386
write_dump all custom dump.atom_info_ac_* id type x y z radius vx vy vz density #
run 308641
Setting up run at Thu Dec 29 10:29:10 2022

Memory usage per processor = 964.609 Mbytes
    Step    Atoms         KinEng            CPU 
13888847     3495     0.41348898              0 
14197488     3469     0.43108979      3544.6371 
Loop time of 3544.64 on 40 procs for 308641 steps with 3469 atoms, finish time Thu Dec 29 11:28:15 2022


Pair  time (%) = 0.960077 (0.0270853)
Neigh time (%) = 107.503 (3.03283)
Comm  time (%) = 129.105 (3.64226)
Outpt time (%) = 0.000703105 (1.98357e-05)
Other time (%) = 3307.07 (93.2978)

Nlocal:    86.725 ave 1108 max 0 min
Histogram: 32 4 1 1 0 0 0 0 0 2
Nghost:    11.675 ave 150 max 0 min
Histogram: 36 0 0 0 1 1 0 0 1 1
Neighs:    9.4 ave 156 max 0 min
Histogram: 36 1 0 1 0 0 1 0 0 1

Total # of neighbors = 376
Ave neighs/atom = 0.108389
Neighbor list builds = 40137
Dangerous builds = 9066
write_dump all custom dump.atom_info_ac_* id type x y z radius vx vy vz density #
run 308641
Setting up run at Thu Dec 29 11:28:15 2022

Memory usage per processor = 964.609 Mbytes
    Step    Atoms         KinEng            CPU 
14197488     3469     0.43108979              0 
14506129     3438     0.33312878      3732.6076 
Loop time of 3732.61 on 40 procs for 308641 steps with 3438 atoms, finish time Thu Dec 29 12:30:28 2022


Pair  time (%) = 0.969487 (0.0259735)
Neigh time (%) = 145.548 (3.89935)
Comm  time (%) = 169.792 (4.54888)
Outpt time (%) = 0.000712313 (1.90835e-05)
Other time (%) = 3416.3 (91.5258)

Nlocal:    85.95 ave 1098 max 0 min
Histogram: 33 4 0 1 0 0 0 0 0 2
Nghost:    11.525 ave 134 max 0 min
Histogram: 36 0 0 0 1 0 1 0 1 1
Neighs:    9.2 ave 136 max 0 min
Histogram: 34 3 0 0 1 0 0 1 0 1

Total # of neighbors = 368
Ave neighs/atom = 0.107039
Neighbor list builds = 54307
Dangerous builds = 9972
write_dump all custom dump.atom_info_ac_* id type x y z radius vx vy vz density #
run 308641
Setting up run at Thu Dec 29 12:30:28 2022

Memory usage per processor = 964.609 Mbytes
    Step    Atoms         KinEng            CPU 
14506129     3438     0.33312878              0 
14814770     3401      1.0817848       3673.826 
Loop time of 3673.83 on 40 procs for 308641 steps with 3401 atoms, finish time Thu Dec 29 13:31:42 2022


Pair  time (%) = 0.964713 (0.0262591)
Neigh time (%) = 138.72 (3.77591)
Comm  time (%) = 157.52 (4.28763)
Outpt time (%) = 0.0104375 (0.000284104)
Other time (%) = 3376.61 (91.9099)

Nlocal:    85.025 ave 1079 max 0 min
Histogram: 32 4 2 0 0 0 0 0 0 2
Nghost:    10.975 ave 127 max 0 min
Histogram: 36 0 0 0 1 0 1 0 1 1
Neighs:    8.875 ave 128 max 0 min
Histogram: 35 1 2 0 0 0 0 0 0 2

Total # of neighbors = 355
Ave neighs/atom = 0.104381
Neighbor list builds = 51683
Dangerous builds = 9739
write_dump all custom dump.atom_info_ac_* id type x y z radius vx vy vz density #
run 308641
Setting up run at Thu Dec 29 13:31:42 2022

Memory usage per processor = 964.609 Mbytes
    Step    Atoms         KinEng            CPU 
14814770     3401      1.0817848              0 
15123411     3374      0.3635139      3683.7321 
Loop time of 3683.79 on 40 procs for 308641 steps with 3374 atoms, finish time Thu Dec 29 14:33:06 2022


Pair  time (%) = 0.957325 (0.0259875)
Neigh time (%) = 137.46 (3.73149)
Comm  time (%) = 151.057 (4.10059)
Outpt time (%) = 0.0139976 (0.000379978)
Other time (%) = 3394.3 (92.1415)

Nlocal:    84.35 ave 1066 max 0 min
Histogram: 32 4 2 0 0 0 0 0 0 2
Nghost:    10.625 ave 122 max 0 min
Histogram: 36 0 0 0 0 1 1 0 0 2
Neighs:    9.55 ave 131 max 0 min
Histogram: 34 3 0 0 0 1 0 0 1 1

Total # of neighbors = 382
Ave neighs/atom = 0.113219
Neighbor list builds = 51152
Dangerous builds = 4496
write_dump all custom dump.atom_info_ac_* id type x y z radius vx vy vz density #
run 308641
Setting up run at Thu Dec 29 14:33:06 2022

Memory usage per processor = 964.609 Mbytes
    Step    Atoms         KinEng            CPU 
15123411     3374      0.3635139              0 
15432052     3342     0.38056591      3690.1349 
Loop time of 3690.15 on 40 procs for 308641 steps with 3342 atoms, finish time Thu Dec 29 15:34:36 2022


Pair  time (%) = 0.947411 (0.0256741)
Neigh time (%) = 132.676 (3.5954)
Comm  time (%) = 153.028 (4.14694)
Outpt time (%) = 0.0207674 (0.00056278)
Other time (%) = 3403.47 (92.2314)

Nlocal:    83.55 ave 1044 max 0 min
Histogram: 34 1 3 0 0 0 0 0 0 2
Nghost:    11.125 ave 131 max 0 min
Histogram: 36 0 0 0 1 1 0 0 0 2
Neighs:    9.225 ave 120 max 0 min
Histogram: 35 0 1 1 0 1 0 0 1 1

Total # of neighbors = 369
Ave neighs/atom = 0.110413
Neighbor list builds = 49477
Dangerous builds = 5541
write_dump all custom dump.atom_info_ac_* id type x y z radius vx vy vz density #
run 308641
Setting up run at Thu Dec 29 15:34:36 2022

Memory usage per processor = 964.609 Mbytes
    Step    Atoms         KinEng            CPU 
15432052     3342     0.38056591              0 
15740693     3306      1.0259333      3457.2167 
Loop time of 3457.22 on 40 procs for 308641 steps with 3306 atoms, finish time Thu Dec 29 16:32:14 2022


Pair  time (%) = 0.929074 (0.0268735)
Neigh time (%) = 89.8976 (2.60029)
Comm  time (%) = 101.773 (2.94377)
Outpt time (%) = 0.00618553 (0.000178916)
Other time (%) = 3264.61 (94.4289)

Nlocal:    82.65 ave 1033 max 0 min
Histogram: 33 4 0 1 0 0 0 0 0 2
Nghost:    10.575 ave 127 max 0 min
Histogram: 36 0 0 0 1 1 0 0 0 2
Neighs:    8.6 ave 111 max 0 min
Histogram: 35 1 1 0 0 1 0 0 1 1

Total # of neighbors = 344
Ave neighs/atom = 0.104053
Neighbor list builds = 33531
Dangerous builds = 4024
write_dump all custom dump.atom_info_ac_* id type x y z radius vx vy vz density #
run 308641
Setting up run at Thu Dec 29 16:32:14 2022

Memory usage per processor = 964.609 Mbytes
    Step    Atoms         KinEng            CPU 
15740693     3306      1.0259333              0 
16049334     3271     0.50338206      3516.7651 
Loop time of 3516.77 on 40 procs for 308641 steps with 3271 atoms, finish time Thu Dec 29 17:30:50 2022


Pair  time (%) = 0.931392 (0.0264843)
Neigh time (%) = 104.147 (2.96143)
Comm  time (%) = 116.274 (3.30627)
Outpt time (%) = 0.030402 (0.000864486)
Other time (%) = 3295.38 (93.705)

Nlocal:    81.775 ave 1024 max 0 min
Histogram: 34 2 1 1 0 0 0 0 0 2
Nghost:    9.925 ave 124 max 0 min
Histogram: 36 0 0 0 1 1 0 1 0 1
Neighs:    8.2 ave 108 max 0 min
Histogram: 35 0 2 0 0 0 1 1 0 1

Total # of neighbors = 328
Ave neighs/atom = 0.100275
Neighbor list builds = 38877
Dangerous builds = 8603
write_dump all custom dump.atom_info_ac_* id type x y z radius vx vy vz density #
run 308641
Setting up run at Thu Dec 29 17:30:51 2022

Memory usage per processor = 964.609 Mbytes
    Step    Atoms         KinEng            CPU 
16049334     3271     0.50338206              0 
16357975     3240     0.45123314      3649.2246 
Loop time of 3649.22 on 40 procs for 308641 steps with 3240 atoms, finish time Thu Dec 29 18:31:40 2022


Pair  time (%) = 0.95343 (0.0261269)
Neigh time (%) = 132.809 (3.63937)
Comm  time (%) = 150.59 (4.12664)
Outpt time (%) = 0.0224763 (0.00061592)
Other time (%) = 3364.85 (92.2073)

Nlocal:    81 ave 1018 max 0 min
Histogram: 33 3 1 1 0 0 0 0 1 1
Nghost:    9.95 ave 115 max 0 min
Histogram: 36 0 0 0 1 0 1 0 0 2
Neighs:    8.35 ave 106 max 0 min
Histogram: 35 1 1 0 0 0 1 0 1 1

Total # of neighbors = 334
Ave neighs/atom = 0.103086
Neighbor list builds = 49554
Dangerous builds = 10056
write_dump all custom dump.atom_info_ac_* id type x y z radius vx vy vz density #
run 308641
Setting up run at Thu Dec 29 18:31:40 2022

Memory usage per processor = 964.609 Mbytes
    Step    Atoms         KinEng            CPU 
16357975     3240     0.45123314              0 
16666616     3209     0.52722495      3498.4884 
Loop time of 3498.49 on 40 procs for 308641 steps with 3209 atoms, finish time Thu Dec 29 19:29:59 2022


Pair  time (%) = 0.936802 (0.0267773)
Neigh time (%) = 93.7655 (2.68017)
Comm  time (%) = 109.447 (3.12842)
Outpt time (%) = 0.0059583 (0.000170311)
Other time (%) = 3294.33 (94.1645)

Nlocal:    80.225 ave 977 max 0 min
Histogram: 33 3 1 1 0 0 0 0 0 2
Nghost:    10.225 ave 126 max 0 min
Histogram: 36 0 0 0 2 0 0 0 1 1
Neighs:    8.1 ave 108 max 0 min
Histogram: 35 1 1 0 0 0 1 1 0 1

Total # of neighbors = 324
Ave neighs/atom = 0.100966
Neighbor list builds = 35008
Dangerous builds = 4964
write_dump all custom dump.atom_info_ac_* id type x y z radius vx vy vz density #
run 308641
Setting up run at Thu Dec 29 19:29:59 2022

Memory usage per processor = 964.609 Mbytes
    Step    Atoms         KinEng            CPU 
16666616     3209     0.52722495              0 
16975257     3170      0.4891133       3656.765 
Loop time of 3656.77 on 40 procs for 308641 steps with 3170 atoms, finish time Thu Dec 29 20:30:55 2022


Pair  time (%) = 0.953163 (0.0260657)
Neigh time (%) = 124.4 (3.40191)
Comm  time (%) = 141.037 (3.85687)
Outpt time (%) = 0.000699612 (1.9132e-05)
Other time (%) = 3390.38 (92.7151)

Nlocal:    79.25 ave 933 max 0 min
Histogram: 34 1 2 0 1 0 0 0 0 2
Nghost:    10.35 ave 128 max 0 min
Histogram: 36 0 0 0 1 1 0 0 1 1
Neighs:    8.975 ave 103 max 0 min
Histogram: 35 0 2 0 0 0 0 0 1 2

Total # of neighbors = 359
Ave neighs/atom = 0.113249
Neighbor list builds = 46452
Dangerous builds = 5919
write_dump all custom dump.atom_info_ac_* id type x y z radius vx vy vz density #
run 308641
Setting up run at Thu Dec 29 20:30:55 2022

Memory usage per processor = 964.609 Mbytes
    Step    Atoms         KinEng            CPU 
16975257     3170      0.4891133              0 
17283898     3138     0.54032806      3561.0463 
Loop time of 3561.05 on 40 procs for 308641 steps with 3138 atoms, finish time Thu Dec 29 21:30:17 2022


Pair  time (%) = 0.945855 (0.0265612)
Neigh time (%) = 108.169 (3.03757)
Comm  time (%) = 126.096 (3.54099)
Outpt time (%) = 0.000682038 (1.91528e-05)
Other time (%) = 3325.83 (93.3949)

Nlocal:    78.45 ave 904 max 0 min
Histogram: 34 1 2 0 1 0 0 0 0 2
Nghost:    9.825 ave 122 max 0 min
Histogram: 36 0 0 0 2 0 0 0 1 1
Neighs:    10.45 ave 198 max 0 min
Histogram: 36 1 0 0 2 0 0 0 0 1

Total # of neighbors = 418
Ave neighs/atom = 0.133206
Neighbor list builds = 40362
Dangerous builds = 7553
write_dump all custom dump.atom_info_ac_* id type x y z radius vx vy vz density #
run 308641
Setting up run at Thu Dec 29 21:30:17 2022

Memory usage per processor = 964.609 Mbytes
    Step    Atoms         KinEng            CPU 
17283898     3138     0.54032806              0 
17592539     3104     0.56310393      3574.2173 
Loop time of 3574.22 on 40 procs for 308641 steps with 3104 atoms, finish time Thu Dec 29 22:29:51 2022


Pair  time (%) = 0.951212 (0.0266132)
Neigh time (%) = 115.217 (3.22355)
Comm  time (%) = 122.243 (3.42014)
Outpt time (%) = 0.000766298 (2.14396e-05)
Other time (%) = 3335.81 (93.3297)

Nlocal:    77.6 ave 871 max 0 min
Histogram: 34 1 1 1 1 0 0 0 0 2
Nghost:    10.025 ave 128 max 0 min
Histogram: 36 0 0 0 2 0 0 0 1 1
Neighs:    10.1 ave 163 max 0 min
Histogram: 35 2 0 0 1 1 0 0 0 1

Total # of neighbors = 404
Ave neighs/atom = 0.130155
Neighbor list builds = 42959
Dangerous builds = 5815
write_dump all custom dump.atom_info_ac_* id type x y z radius vx vy vz density #
run 308641
Setting up run at Thu Dec 29 22:29:51 2022

Memory usage per processor = 964.609 Mbytes
    Step    Atoms         KinEng            CPU 
17592539     3104     0.56310393              0 
17901180     3082     0.51812467       3515.288 
Loop time of 3515.29 on 40 procs for 308641 steps with 3082 atoms, finish time Thu Dec 29 23:28:26 2022


Pair  time (%) = 0.947398 (0.0269508)
Neigh time (%) = 97.4709 (2.77277)
Comm  time (%) = 111.486 (3.17147)
Outpt time (%) = 0.000713565 (2.02989e-05)
Other time (%) = 3305.38 (94.0288)

Nlocal:    77.05 ave 852 max 0 min
Histogram: 32 4 0 1 1 0 0 0 0 2
Nghost:    9.525 ave 108 max 0 min
Histogram: 36 0 0 0 0 2 0 0 0 2
Neighs:    10.025 ave 150 max 0 min
Histogram: 35 1 0 1 1 0 1 0 0 1

Total # of neighbors = 401
Ave neighs/atom = 0.13011
Neighbor list builds = 36358
Dangerous builds = 5532
write_dump all custom dump.atom_info_ac_* id type x y z radius vx vy vz density #
run 308641
Setting up run at Thu Dec 29 23:28:26 2022

Memory usage per processor = 964.609 Mbytes
    Step    Atoms         KinEng            CPU 
17901180     3082     0.51812467              0 
18209821     3041     0.48327213      3575.8208 
Loop time of 3575.82 on 40 procs for 308641 steps with 3041 atoms, finish time Fri Dec 30 00:28:02 2022


Pair  time (%) = 0.942823 (0.0263666)
Neigh time (%) = 107.229 (2.99872)
Comm  time (%) = 117.321 (3.28095)
Outpt time (%) = 0.000572503 (1.60104e-05)
Other time (%) = 3350.33 (93.6939)

Nlocal:    76.025 ave 844 max 0 min
Histogram: 34 1 1 1 1 0 0 0 0 2
Nghost:    9.975 ave 106 max 0 min
Histogram: 35 1 0 0 0 0 2 0 0 2
Neighs:    9.425 ave 159 max 0 min
Histogram: 35 1 1 0 2 0 0 0 0 1

Total # of neighbors = 377
Ave neighs/atom = 0.123972
Neighbor list builds = 40024
Dangerous builds = 7779
write_dump all custom dump.atom_info_ac_* id type x y z radius vx vy vz density #
run 308641
Setting up run at Fri Dec 30 00:28:02 2022

Memory usage per processor = 964.609 Mbytes
    Step    Atoms         KinEng            CPU 
18209821     3041     0.48327213              0 
18518462     3009     0.54677926      3457.7267 
Loop time of 3457.73 on 40 procs for 308641 steps with 3009 atoms, finish time Fri Dec 30 01:25:40 2022


Pair  time (%) = 0.931003 (0.0269253)
Neigh time (%) = 91.5502 (2.6477)
Comm  time (%) = 100.803 (2.91531)
Outpt time (%) = 0.000660256 (1.90951e-05)
Other time (%) = 3264.44 (94.41)

Nlocal:    75.225 ave 831 max 0 min
Histogram: 33 3 0 1 1 0 0 0 0 2
Nghost:    10.175 ave 122 max 0 min
Histogram: 36 0 0 0 0 2 0 0 1 1
Neighs:    11.775 ave 272 max 0 min
Histogram: 36 1 2 0 0 0 0 0 0 1

Total # of neighbors = 471
Ave neighs/atom = 0.15653
Neighbor list builds = 34135
Dangerous builds = 6059
write_dump all custom dump.atom_info_ac_* id type x y z radius vx vy vz density #
run 308641
Setting up run at Fri Dec 30 01:25:40 2022

Memory usage per processor = 964.609 Mbytes
    Step    Atoms         KinEng            CPU 
18518462     3009     0.54677926              0 
18827103     2983     0.72596341      3456.3419 
Loop time of 3456.34 on 40 procs for 308641 steps with 2983 atoms, finish time Fri Dec 30 02:23:16 2022


Pair  time (%) = 0.932978 (0.0269932)
Neigh time (%) = 91.7196 (2.65366)
Comm  time (%) = 109.917 (3.18016)
Outpt time (%) = 0.00068049 (1.96881e-05)
Other time (%) = 3253.77 (94.1392)

Nlocal:    74.575 ave 804 max 0 min
Histogram: 34 1 2 0 0 1 0 0 0 2
Nghost:    10.2 ave 118 max 0 min
Histogram: 36 0 0 0 1 1 0 0 0 2
Neighs:    12.25 ave 299 max 0 min
Histogram: 37 0 2 0 0 0 0 0 0 1

Total # of neighbors = 490
Ave neighs/atom = 0.164264
Neighbor list builds = 34216
Dangerous builds = 4346
write_dump all custom dump.atom_info_ac_* id type x y z radius vx vy vz density #
run 308641
Setting up run at Fri Dec 30 02:23:16 2022

Memory usage per processor = 964.609 Mbytes
    Step    Atoms         KinEng            CPU 
18827103     2983     0.72596341              0 
19135744     2961     0.60097163      3650.6014 
Loop time of 3650.6 on 40 procs for 308641 steps with 2961 atoms, finish time Fri Dec 30 03:24:07 2022


Pair  time (%) = 0.964077 (0.0264087)
Neigh time (%) = 132.879 (3.63992)
Comm  time (%) = 145.822 (3.99447)
Outpt time (%) = 0.000732118 (2.00547e-05)
Other time (%) = 3370.94 (92.3392)

Nlocal:    74.025 ave 788 max 0 min
Histogram: 33 2 1 1 0 1 0 0 0 2
Nghost:    10.175 ave 119 max 0 min
Histogram: 35 1 0 0 1 1 0 0 1 1
Neighs:    11.725 ave 262 max 0 min
Histogram: 36 0 3 0 0 0 0 0 0 1

Total # of neighbors = 469
Ave neighs/atom = 0.158392
Neighbor list builds = 49545
Dangerous builds = 4345
write_dump all custom dump.atom_info_ac_* id type x y z radius vx vy vz density #
run 308641
Setting up run at Fri Dec 30 03:24:07 2022

Memory usage per processor = 964.609 Mbytes
    Step    Atoms         KinEng            CPU 
19135744     2961     0.60097163              0 
19444385     2933     0.53428324      3545.3466 
Loop time of 3545.35 on 40 procs for 308641 steps with 2933 atoms, finish time Fri Dec 30 04:23:13 2022


Pair  time (%) = 0.963775 (0.0271842)
Neigh time (%) = 110.066 (3.10451)
Comm  time (%) = 121.893 (3.43812)
Outpt time (%) = 0.00064065 (1.80702e-05)
Other time (%) = 3312.42 (93.4302)

Nlocal:    73.325 ave 779 max 0 min
Histogram: 32 2 2 1 0 1 0 0 0 2
Nghost:    10.4 ave 119 max 0 min
Histogram: 33 2 1 0 1 1 0 0 1 1
Neighs:    14.05 ave 271 max 0 min
Histogram: 36 0 2 1 0 0 0 0 0 1

Total # of neighbors = 562
Ave neighs/atom = 0.191613
Neighbor list builds = 41094
Dangerous builds = 4922
write_dump all custom dump.atom_info_ac_* id type x y z radius vx vy vz density #
run 308641
Setting up run at Fri Dec 30 04:23:13 2022

Memory usage per processor = 964.609 Mbytes
    Step    Atoms         KinEng            CPU 
19444385     2933     0.53428324              0 
19753026     2911      0.7206618      3517.8611 
Loop time of 3517.86 on 40 procs for 308641 steps with 2911 atoms, finish time Fri Dec 30 05:21:51 2022


Pair  time (%) = 0.949471 (0.02699)
Neigh time (%) = 106.026 (3.01393)
Comm  time (%) = 118.291 (3.36257)
Outpt time (%) = 0.00122433 (3.48032e-05)
Other time (%) = 3292.59 (93.5965)

Nlocal:    72.775 ave 750 max 0 min
Histogram: 33 2 1 1 0 0 1 0 0 2
Nghost:    9.325 ave 118 max 0 min
Histogram: 36 0 0 1 0 1 0 0 1 1
Neighs:    11.975 ave 265 max 0 min
Histogram: 36 1 2 0 0 0 0 0 0 1

Total # of neighbors = 479
Ave neighs/atom = 0.164548
Neighbor list builds = 39570
Dangerous builds = 7422
write_dump all custom dump.atom_info_ac_* id type x y z radius vx vy vz density #
run 308641
Setting up run at Fri Dec 30 05:21:51 2022

Memory usage per processor = 964.609 Mbytes
    Step    Atoms         KinEng            CPU 
19753026     2911      0.7206618              0 
20061667     2882     0.59747493      3585.4654 
Loop time of 3585.47 on 40 procs for 308641 steps with 2882 atoms, finish time Fri Dec 30 06:21:36 2022


Pair  time (%) = 0.93698 (0.0261327)
Neigh time (%) = 118.623 (3.30845)
Comm  time (%) = 127.393 (3.55304)
Outpt time (%) = 0.000672444 (1.87547e-05)
Other time (%) = 3338.51 (93.1124)

Nlocal:    72.05 ave 741 max 0 min
Histogram: 33 2 0 1 2 0 0 0 0 2
Nghost:    10.65 ave 115 max 0 min
Histogram: 34 0 2 0 2 0 0 0 0 2
Neighs:    13.025 ave 174 max 0 min
Histogram: 35 0 2 1 0 0 0 0 0 2

Total # of neighbors = 521
Ave neighs/atom = 0.180777
Neighbor list builds = 44293
Dangerous builds = 6764
write_dump all custom dump.atom_info_ac_* id type x y z radius vx vy vz density #
run 308641
Setting up run at Fri Dec 30 06:21:36 2022

Memory usage per processor = 964.609 Mbytes
    Step    Atoms         KinEng            CPU 
20061667     2882     0.59747493              0 
20370308     2859     0.70466775      3597.9747 
Loop time of 3597.98 on 40 procs for 308641 steps with 2859 atoms, finish time Fri Dec 30 07:21:34 2022


Pair  time (%) = 0.966162 (0.0268529)
Neigh time (%) = 124.215 (3.45235)
Comm  time (%) = 144.296 (4.01047)
Outpt time (%) = 0.000664614 (1.84719e-05)
Other time (%) = 3328.5 (92.5103)

Nlocal:    71.475 ave 737 max 0 min
Histogram: 33 1 3 0 0 0 0 1 0 2
Nghost:    9.15 ave 123 max 0 min
Histogram: 36 0 0 1 1 0 0 0 1 1
Neighs:    15.8 ave 449 max 0 min
Histogram: 37 2 0 0 0 0 0 0 0 1

Total # of neighbors = 632
Ave neighs/atom = 0.221056
Neighbor list builds = 46340
Dangerous builds = 5273
write_dump all custom dump.atom_info_ac_* id type x y z radius vx vy vz density #
run 308641
Setting up run at Fri Dec 30 07:21:34 2022

Memory usage per processor = 964.609 Mbytes
    Step    Atoms         KinEng            CPU 
20370308     2859     0.70466775              0 
20678949     2827     0.60976915      3644.0276 
Loop time of 3644.03 on 40 procs for 308641 steps with 2827 atoms, finish time Fri Dec 30 08:22:18 2022


Pair  time (%) = 0.987307 (0.0270938)
Neigh time (%) = 131.636 (3.61239)
Comm  time (%) = 148.714 (4.08104)
Outpt time (%) = 0.000737692 (2.02439e-05)
Other time (%) = 3362.69 (92.2795)

Nlocal:    70.675 ave 720 max 0 min
Histogram: 33 1 1 2 1 0 0 0 0 2
Nghost:    10.65 ave 121 max 0 min
Histogram: 34 1 1 0 1 1 0 0 0 2
Neighs:    12.9 ave 296 max 0 min
Histogram: 35 4 0 0 0 0 0 0 0 1

Total # of neighbors = 516
Ave neighs/atom = 0.182526
Neighbor list builds = 49084
Dangerous builds = 4445
write_dump all custom dump.atom_info_ac_* id type x y z radius vx vy vz density #
run 308641
Setting up run at Fri Dec 30 08:22:18 2022

Memory usage per processor = 964.609 Mbytes
    Step    Atoms         KinEng            CPU 
20678949     2827     0.60976915              0 
20987590     2798     0.56939012       3580.138 
Loop time of 3580.14 on 40 procs for 308641 steps with 2798 atoms, finish time Fri Dec 30 09:21:58 2022


Pair  time (%) = 0.941245 (0.0262907)
Neigh time (%) = 112.641 (3.14627)
Comm  time (%) = 121.228 (3.38613)
Outpt time (%) = 0.000695105 (1.94156e-05)
Other time (%) = 3345.33 (93.4413)

Nlocal:    69.95 ave 710 max 0 min
Histogram: 32 3 2 0 0 0 0 1 0 2
Nghost:    9.65 ave 118 max 0 min
Histogram: 35 1 0 0 2 0 0 0 0 2
Neighs:    11.95 ave 303 max 0 min
Histogram: 37 2 0 0 0 0 0 0 0 1

Total # of neighbors = 478
Ave neighs/atom = 0.170836
Neighbor list builds = 42056
Dangerous builds = 6558
write_dump all custom dump.atom_info_ac_* id type x y z radius vx vy vz density #
run 308641
Setting up run at Fri Dec 30 09:21:59 2022

Memory usage per processor = 964.609 Mbytes
    Step    Atoms         KinEng            CPU 
20987590     2798     0.56939012              0 
21296231     2775     0.63967806      3615.6556 
Loop time of 3615.66 on 40 procs for 308641 steps with 2775 atoms, finish time Fri Dec 30 10:22:14 2022


Pair  time (%) = 0.951706 (0.0263218)
Neigh time (%) = 126.063 (3.48659)
Comm  time (%) = 134.601 (3.72272)
Outpt time (%) = 0.000642323 (1.7765e-05)
Other time (%) = 3354.04 (92.7643)

Nlocal:    69.375 ave 708 max 0 min
Histogram: 32 2 1 1 2 0 0 0 0 2
Nghost:    9.5 ave 101 max 0 min
Histogram: 33 2 1 0 1 1 0 0 0 2
Neighs:    10.525 ave 229 max 0 min
Histogram: 35 3 1 0 0 0 0 0 0 1

Total # of neighbors = 421
Ave neighs/atom = 0.151712
Neighbor list builds = 47085
Dangerous builds = 7475
write_dump all custom dump.atom_info_ac_* id type x y z radius vx vy vz density #
run 308641
Setting up run at Fri Dec 30 10:22:14 2022

Memory usage per processor = 964.609 Mbytes
    Step    Atoms         KinEng            CPU 
21296231     2775     0.63967806              0 
21604872     2742     0.55879992      3657.8503 
Loop time of 3657.85 on 40 procs for 308641 steps with 2742 atoms, finish time Fri Dec 30 11:23:12 2022


Pair  time (%) = 0.94771 (0.0259089)
Neigh time (%) = 129.44 (3.5387)
Comm  time (%) = 148.151 (4.05022)
Outpt time (%) = 0.000648083 (1.77176e-05)
Other time (%) = 3379.31 (92.3852)

Nlocal:    68.55 ave 685 max 0 min
Histogram: 32 2 2 1 0 0 1 0 0 2
Nghost:    9.125 ave 108 max 0 min
Histogram: 35 1 0 1 0 1 0 0 0 2
Neighs:    11.85 ave 280 max 0 min
Histogram: 36 3 0 0 0 0 0 0 0 1

Total # of neighbors = 474
Ave neighs/atom = 0.172867
Neighbor list builds = 48313
Dangerous builds = 7045
write_dump all custom dump.atom_info_ac_* id type x y z radius vx vy vz density #
run 308641
Setting up run at Fri Dec 30 11:23:12 2022

Memory usage per processor = 964.609 Mbytes
    Step    Atoms         KinEng            CPU 
21604872     2742     0.55879992              0 
21913513     2710     0.58062034      3549.4774 
Loop time of 3549.48 on 40 procs for 308641 steps with 2710 atoms, finish time Fri Dec 30 12:22:22 2022


Pair  time (%) = 0.948172 (0.026713)
Neigh time (%) = 112.295 (3.1637)
Comm  time (%) = 122.742 (3.45804)
Outpt time (%) = 0.000647179 (1.82331e-05)
Other time (%) = 3313.49 (93.3515)

Nlocal:    67.75 ave 694 max 0 min
Histogram: 33 1 1 2 0 1 0 0 0 2
Nghost:    8.275 ave 104 max 0 min
Histogram: 36 0 0 0 2 0 0 0 1 1
Neighs:    9.525 ave 227 max 0 min
Histogram: 36 3 0 0 0 0 0 0 0 1

Total # of neighbors = 381
Ave neighs/atom = 0.14059
Neighbor list builds = 41926
Dangerous builds = 7400
write_dump all custom dump.atom_info_ac_* id type x y z radius vx vy vz density #
run 308641
Setting up run at Fri Dec 30 12:22:22 2022

Memory usage per processor = 964.609 Mbytes
    Step    Atoms         KinEng            CPU 
21913513     2710     0.58062034              0 
22222154     2677     0.67756992      3541.5728 
Loop time of 3541.57 on 40 procs for 308641 steps with 2677 atoms, finish time Fri Dec 30 13:21:23 2022


Pair  time (%) = 0.930774 (0.0262814)
Neigh time (%) = 108.564 (3.0654)
Comm  time (%) = 117.319 (3.31262)
Outpt time (%) = 0.000649737 (1.8346e-05)
Other time (%) = 3314.76 (93.5957)

Nlocal:    66.925 ave 685 max 0 min
Histogram: 32 2 2 0 1 1 0 0 0 2
Nghost:    9.3 ave 106 max 0 min
Histogram: 36 0 0 0 1 0 1 0 1 1
Neighs:    10.425 ave 180 max 0 min
Histogram: 36 0 2 0 0 0 0 1 0 1

Total # of neighbors = 417
Ave neighs/atom = 0.155771
Neighbor list builds = 40509
Dangerous builds = 4646
write_dump all custom dump.atom_info_ac_* id type x y z radius vx vy vz density #
run 308641
Setting up run at Fri Dec 30 13:21:23 2022

Memory usage per processor = 964.609 Mbytes
    Step    Atoms         KinEng            CPU 
22222154     2677     0.67756992              0 
22530795     2659     0.62960248      6968.2548 
Loop time of 6968.26 on 40 procs for 308641 steps with 2659 atoms, finish time Fri Dec 30 15:17:32 2022


Pair  time (%) = 0.950415 (0.0136392)
Neigh time (%) = 96.0813 (1.37884)
Comm  time (%) = 102 (1.46378)
Outpt time (%) = 0.000638592 (9.1643e-06)
Other time (%) = 6769.22 (97.1437)

Nlocal:    66.475 ave 681 max 0 min
Histogram: 32 2 3 0 0 0 1 0 0 2
Nghost:    8.9 ave 110 max 0 min
Histogram: 33 3 0 0 2 0 1 0 0 1
Neighs:    8.35 ave 202 max 0 min
Histogram: 37 2 0 0 0 0 0 0 0 1

Total # of neighbors = 334
Ave neighs/atom = 0.125611
Neighbor list builds = 35883
Dangerous builds = 5278
write_dump all custom dump.atom_info_ac_* id type x y z radius vx vy vz density #
run 308641
Setting up run at Fri Dec 30 15:17:32 2022

Memory usage per processor = 964.609 Mbytes
    Step    Atoms         KinEng            CPU 
22530795     2659     0.62960248              0 
22839436     2626     0.65907491      3527.7492 
Loop time of 3527.75 on 40 procs for 308641 steps with 2626 atoms, finish time Fri Dec 30 16:16:20 2022


Pair  time (%) = 0.885019 (0.0250874)
Neigh time (%) = 108.685 (3.08085)
Comm  time (%) = 117.373 (3.32713)
Outpt time (%) = 0.00065668 (1.86147e-05)
Other time (%) = 3300.81 (93.5669)

Nlocal:    65.65 ave 669 max 0 min
Histogram: 32 2 2 0 1 1 0 0 0 2
Nghost:    8.95 ave 105 max 0 min
Histogram: 35 1 0 0 0 2 0 1 0 1
Neighs:    9.05 ave 176 max 0 min
Histogram: 36 1 1 0 1 0 0 0 0 1

Total # of neighbors = 362
Ave neighs/atom = 0.137852
Neighbor list builds = 40514
Dangerous builds = 3865
write_dump all custom dump.atom_info_ac_* id type x y z radius vx vy vz density #
run 308641
Setting up run at Fri Dec 30 16:16:20 2022

Memory usage per processor = 964.609 Mbytes
    Step    Atoms         KinEng            CPU 
22839436     2626     0.65907491              0 
23148077     2603     0.78049388      3501.5189 
Loop time of 3501.52 on 40 procs for 308641 steps with 2603 atoms, finish time Fri Dec 30 17:14:41 2022


Pair  time (%) = 0.882145 (0.0251932)
Neigh time (%) = 104.15 (2.97442)
Comm  time (%) = 113.459 (3.24028)
Outpt time (%) = 0.000323637 (9.24276e-06)
Other time (%) = 3283.03 (93.7601)

Nlocal:    65.075 ave 647 max 0 min
Histogram: 32 2 2 1 0 1 0 0 0 2
Nghost:    8.45 ave 100 max 0 min
Histogram: 34 2 0 0 1 1 0 1 0 1
Neighs:    7.425 ave 156 max 0 min
Histogram: 34 3 2 0 0 0 0 0 0 1

Total # of neighbors = 297
Ave neighs/atom = 0.114099
Neighbor list builds = 38865
Dangerous builds = 4404
write_dump all custom dump.atom_info_ac_* id type x y z radius vx vy vz density #
run 308641
Setting up run at Fri Dec 30 17:14:41 2022

Memory usage per processor = 964.609 Mbytes
    Step    Atoms         KinEng            CPU 
23148077     2603     0.78049388              0 
23456718     2582      0.7236721      3687.9446 
Loop time of 3687.94 on 40 procs for 308641 steps with 2582 atoms, finish time Fri Dec 30 18:16:09 2022


Pair  time (%) = 0.893452 (0.0242263)
Neigh time (%) = 144.908 (3.92924)
Comm  time (%) = 148.433 (4.02481)
Outpt time (%) = 0.000705861 (1.91397e-05)
Other time (%) = 3393.71 (92.0217)

Nlocal:    64.55 ave 619 max 0 min
Histogram: 32 1 2 1 1 1 0 0 0 2
Nghost:    7.625 ave 90 max 0 min
Histogram: 33 3 0 0 1 1 0 0 1 1
Neighs:    6.6 ave 82 max 0 min
Histogram: 33 2 1 1 1 0 0 0 1 1

Total # of neighbors = 264
Ave neighs/atom = 0.102246
Neighbor list builds = 54003
Dangerous builds = 7143
write_dump all custom dump.atom_info_ac_* id type x y z radius vx vy vz density #
run 308641
Setting up run at Fri Dec 30 18:16:09 2022

Memory usage per processor = 964.609 Mbytes
    Step    Atoms         KinEng            CPU 
23456718     2582      0.7236721              0 
23765359     2568     0.70595643      4152.5988 
Loop time of 4152.6 on 40 procs for 308641 steps with 2568 atoms, finish time Fri Dec 30 19:25:22 2022


Pair  time (%) = 0.96772 (0.0233039)
Neigh time (%) = 246.762 (5.94236)
Comm  time (%) = 252.602 (6.08298)
Outpt time (%) = 0.000529337 (1.27471e-05)
Other time (%) = 3652.27 (87.9513)

Nlocal:    64.2 ave 611 max 0 min
Histogram: 32 0 2 3 0 1 0 0 0 2
Nghost:    7.175 ave 91 max 0 min
Histogram: 35 1 0 1 1 0 0 0 1 1
Neighs:    6.625 ave 121 max 0 min
Histogram: 35 2 1 1 0 0 0 0 0 1

Total # of neighbors = 265
Ave neighs/atom = 0.103193
Neighbor list builds = 92131
Dangerous builds = 2946
write_dump all custom dump.atom_info_ac_* id type x y z radius vx vy vz density #
run 308641
Setting up run at Fri Dec 30 19:25:22 2022

Memory usage per processor = 964.609 Mbytes
    Step    Atoms         KinEng            CPU 
23765359     2568     0.70595643              0 
24074000     2549     0.71347856      4453.2573 
Loop time of 4453.26 on 40 procs for 308641 steps with 2549 atoms, finish time Fri Dec 30 20:39:35 2022


Pair  time (%) = 1.01434 (0.0227775)
Neigh time (%) = 306.987 (6.89354)
Comm  time (%) = 322.733 (7.24711)
Outpt time (%) = 0.000774353 (1.73885e-05)
Other time (%) = 3822.52 (85.8365)

Nlocal:    63.725 ave 611 max 0 min
Histogram: 32 1 2 1 2 0 0 0 0 2
Nghost:    6.85 ave 86 max 0 min
Histogram: 34 2 0 1 1 0 0 1 0 1
Neighs:    7.6 ave 151 max 0 min
Histogram: 35 2 2 0 0 0 0 0 0 1

Total # of neighbors = 304
Ave neighs/atom = 0.119262
Neighbor list builds = 114715
Dangerous builds = 10246
write_dump all custom dump.atom_info_ac_* id type x y z radius vx vy vz density #
run 308641
Setting up run at Fri Dec 30 20:39:36 2022

Memory usage per processor = 964.609 Mbytes
    Step    Atoms         KinEng            CPU 
24074000     2549     0.71347856              0 
24382641     2521     0.70631081      3601.3433 
Loop time of 3601.34 on 40 procs for 308641 steps with 2521 atoms, finish time Fri Dec 30 21:39:37 2022


Pair  time (%) = 0.890878 (0.0247374)
Neigh time (%) = 125.024 (3.47159)
Comm  time (%) = 128.894 (3.57906)
Outpt time (%) = 0.000388737 (1.07942e-05)
Other time (%) = 3346.53 (92.9246)

Nlocal:    63.025 ave 602 max 0 min
Histogram: 32 2 1 1 1 1 0 0 0 2
Nghost:    6.775 ave 82 max 0 min
Histogram: 35 1 0 1 1 0 0 0 0 2
Neighs:    7.75 ave 166 max 0 min
Histogram: 36 2 0 1 0 0 0 0 0 1

Total # of neighbors = 310
Ave neighs/atom = 0.122967
Neighbor list builds = 46584
Dangerous builds = 2807
write_dump all custom dump.atom_info_ac_* id type x y z radius vx vy vz density #
run 308641
Setting up run at Fri Dec 30 21:39:37 2022

Memory usage per processor = 964.609 Mbytes
    Step    Atoms         KinEng            CPU 
24382641     2521     0.70631081              0 
24691282     2497     0.78789501      3593.2843 
Loop time of 3593.28 on 40 procs for 308641 steps with 2497 atoms, finish time Fri Dec 30 22:39:30 2022


Pair  time (%) = 0.88972 (0.0247606)
Neigh time (%) = 123.835 (3.44628)
Comm  time (%) = 124.009 (3.45114)
[...]


Pair  time (%) = 1.11822 (0.026644)
Neigh time (%) = 265.811 (6.33353)
Comm  time (%) = 256.276 (6.10633)
Outpt time (%) = 0.000568847 (1.3554e-05)
Other time (%) = 3673.68 (87.5335)

Nlocal:    43.7 ave 521 max 0 min
Histogram: 32 4 0 1 0 2 0 0 0 1
Nghost:    2.925 ave 27 max 0 min
Histogram: 30 3 2 0 1 2 0 1 0 1
Neighs:    20 ave 736 max 0 min
Histogram: 39 0 0 0 0 0 0 0 0 1

Total # of neighbors = 800
Ave neighs/atom = 0.457666
Neighbor list builds = 99408
Dangerous builds = 4179
write_dump all custom dump.atom_info_ac_* id type x y z radius vx vy vz density #
run 308641
Setting up run at Sun Jan  1 20:17:28 2023

Memory usage per processor = 964.609 Mbytes
    Step    Atoms         KinEng            CPU 
38888864     1748     0.68450556              0 
39197505     1735      0.7990191      3816.8267 
Loop time of 3816.83 on 40 procs for 308641 steps with 1735 atoms, finish time Sun Jan  1 21:21:05 2023


Pair  time (%) = 0.9862 (0.0258382)
Neigh time (%) = 179.214 (4.69536)
Comm  time (%) = 161.976 (4.24373)
Outpt time (%) = 0.00593048 (0.000155377)
Other time (%) = 3474.65 (91.0349)

Nlocal:    43.375 ave 430 max 0 min
Histogram: 31 4 1 0 0 1 1 1 0 1
Nghost:    3.1 ave 28 max 0 min
Histogram: 32 1 2 1 0 1 1 0 0 2
Neighs:    16.4 ave 354 max 0 min
Histogram: 38 0 0 0 0 0 0 1 0 1

Total # of neighbors = 656
Ave neighs/atom = 0.378098
Neighbor list builds = 66813
Dangerous builds = 1265
write_dump all custom dump.atom_info_ac_* id type x y z radius vx vy vz density #
run 308641
Setting up run at Sun Jan  1 21:21:05 2023

Memory usage per processor = 964.609 Mbytes
    Step    Atoms         KinEng            CPU 
39197505     1735      0.7990191              0 
39506146     1725     0.67061539      3622.8585 
Loop time of 3622.86 on 40 procs for 308641 steps with 1725 atoms, finish time Sun Jan  1 22:21:28 2023


Pair  time (%) = 0.903435 (0.0249371)
Neigh time (%) = 134.564 (3.71432)
Comm  time (%) = 117.886 (3.25395)
Outpt time (%) = 0.000697973 (1.92658e-05)
Other time (%) = 3369.5 (93.0068)

Nlocal:    43.125 ave 587 max 0 min
Histogram: 34 2 1 0 1 1 0 0 0 1
Nghost:    2.95 ave 27 max 0 min
Histogram: 31 1 3 0 2 1 0 0 1 1
Neighs:    15.375 ave 584 max 0 min
Histogram: 39 0 0 0 0 0 0 0 0 1

Total # of neighbors = 615
Ave neighs/atom = 0.356522
Neighbor list builds = 50180
Dangerous builds = 6395
write_dump all custom dump.atom_info_ac_* id type x y z radius vx vy vz density #
run 308641
Setting up run at Sun Jan  1 22:21:28 2023

Memory usage per processor = 964.609 Mbytes
    Step    Atoms         KinEng            CPU 
39506146     1725     0.67061539              0 
39814787     1710     0.78510435      3600.9745 
Loop time of 3600.97 on 40 procs for 308641 steps with 1710 atoms, finish time Sun Jan  1 23:21:29 2023


Pair  time (%) = 0.931256 (0.0258612)
Neigh time (%) = 131.065 (3.6397)
Comm  time (%) = 134.772 (3.74265)
Outpt time (%) = 0.000681044 (1.89128e-05)
Other time (%) = 3334.21 (92.5918)

Nlocal:    42.75 ave 416 max 0 min
Histogram: 31 5 0 0 0 0 2 1 0 1
Nghost:    3.625 ave 38 max 0 min
Histogram: 31 4 1 0 0 1 2 0 0 1
Neighs:    16.625 ave 442 max 0 min
Histogram: 38 0 0 0 1 0 0 0 0 1

Total # of neighbors = 665
Ave neighs/atom = 0.388889
Neighbor list builds = 48995
Dangerous builds = 2847
write_dump all custom dump.atom_info_ac_* id type x y z radius vx vy vz density #
run 308641
Setting up run at Sun Jan  1 23:21:29 2023

Memory usage per processor = 964.609 Mbytes
    Step    Atoms         KinEng            CPU 
39814787     1710     0.78510435              0 
40123428     1693     0.66117773      3337.3285 
Loop time of 3337.33 on 40 procs for 308641 steps with 1693 atoms, finish time Mon Jan  2 00:17:06 2023


Pair  time (%) = 0.901232 (0.0270046)
Neigh time (%) = 70.3518 (2.10803)
Comm  time (%) = 67.5908 (2.0253)
Outpt time (%) = 0.000623224 (1.86743e-05)
Other time (%) = 3198.48 (95.8397)

Nlocal:    42.325 ave 562 max 0 min
Histogram: 32 4 1 0 1 1 0 0 0 1
Nghost:    2.175 ave 23 max 0 min
Histogram: 31 3 2 2 0 0 0 0 0 2
Neighs:    16.45 ave 626 max 0 min
Histogram: 39 0 0 0 0 0 0 0 0 1

Total # of neighbors = 658
Ave neighs/atom = 0.388659
Neighbor list builds = 26266
Dangerous builds = 402
write_dump all custom dump.atom_info_ac_* id type x y z radius vx vy vz density #
run 308641
Setting up run at Mon Jan  2 00:17:06 2023

Memory usage per processor = 964.609 Mbytes
    Step    Atoms         KinEng            CPU 
40123428     1693     0.66117773              0 
40432069     1675     0.70471918      3459.9749 
Loop time of 3459.98 on 40 procs for 308641 steps with 1675 atoms, finish time Mon Jan  2 01:14:46 2023


Pair  time (%) = 0.935467 (0.0270368)
Neigh time (%) = 98.8053 (2.85566)
Comm  time (%) = 92.3649 (2.66952)
Outpt time (%) = 0.000643855 (1.86087e-05)
Other time (%) = 3267.87 (94.4478)

Nlocal:    41.875 ave 530 max 0 min
Histogram: 32 4 1 0 0 2 0 0 0 1
Nghost:    2.175 ave 22 max 0 min
Histogram: 32 4 0 1 0 1 0 0 1 1
Neighs:    18 ave 678 max 0 min
Histogram: 39 0 0 0 0 0 0 0 0 1

Total # of neighbors = 720
Ave neighs/atom = 0.429851
Neighbor list builds = 36866
Dangerous builds = 1823
write_dump all custom dump.atom_info_ac_* id type x y z radius vx vy vz density #
run 308641
Setting up run at Mon Jan  2 01:14:46 2023

Memory usage per processor = 964.609 Mbytes
    Step    Atoms         KinEng            CPU 
40432069     1675     0.70471918              0 
40740710     1661     0.62873522      3333.8323 
Loop time of 3333.83 on 40 procs for 308641 steps with 1661 atoms, finish time Mon Jan  2 02:10:20 2023


Pair  time (%) = 0.969053 (0.0290673)
Neigh time (%) = 72.4927 (2.17446)
Comm  time (%) = 62.702 (1.88078)
Outpt time (%) = 0.000694329 (2.08267e-05)
Other time (%) = 3197.67 (95.9157)

Nlocal:    41.525 ave 444 max 0 min
Histogram: 32 3 1 1 0 0 2 0 0 1
Nghost:    2.6 ave 28 max 0 min
Histogram: 32 3 1 1 0 0 0 1 1 1
Neighs:    19.175 ave 698 max 0 min
Histogram: 39 0 0 0 0 0 0 0 0 1

Total # of neighbors = 767
Ave neighs/atom = 0.46177
Neighbor list builds = 27072
Dangerous builds = 6796
write_dump all custom dump.atom_info_ac_* id type x y z radius vx vy vz density #
run 308641
Setting up run at Mon Jan  2 02:10:20 2023

Memory usage per processor = 964.609 Mbytes
    Step    Atoms         KinEng            CPU 
40740710     1661     0.62873522              0 
41049351     1655     0.66590026       3364.917 
Loop time of 3364.92 on 40 procs for 308641 steps with 1655 atoms, finish time Mon Jan  2 03:06:25 2023


Pair  time (%) = 0.948755 (0.0281955)
Neigh time (%) = 79.093 (2.35052)
Comm  time (%) = 61.7524 (1.83518)
Outpt time (%) = 0.000552977 (1.64336e-05)
Other time (%) = 3223.12 (95.7861)

Nlocal:    41.375 ave 339 max 0 min
Histogram: 31 3 1 1 0 0 0 0 3 1
Nghost:    3.65 ave 31 max 0 min
Histogram: 30 4 0 2 0 0 1 0 2 1
Neighs:    17.8 ave 435 max 0 min
Histogram: 38 0 0 0 0 1 0 0 0 1

Total # of neighbors = 712
Ave neighs/atom = 0.430211
Neighbor list builds = 29536
Dangerous builds = 1546
write_dump all custom dump.atom_info_ac_* id type x y z radius vx vy vz density #
run 308641
Setting up run at Mon Jan  2 03:06:25 2023

Memory usage per processor = 964.609 Mbytes
    Step    Atoms         KinEng            CPU 
41049351     1655     0.66590026              0 
41357992     1643     0.70029628       3338.579 
Loop time of 3338.58 on 40 procs for 308641 steps with 1643 atoms, finish time Mon Jan  2 04:02:04 2023


Pair  time (%) = 0.916222 (0.0274435)
Neigh time (%) = 71.0673 (2.12867)
Comm  time (%) = 62.8673 (1.88305)
Outpt time (%) = 0.000641659 (1.92195e-05)
Other time (%) = 3203.73 (95.9608)

Nlocal:    41.075 ave 408 max 0 min
Histogram: 32 2 2 0 0 1 1 1 0 1
Nghost:    3.825 ave 39 max 0 min
Histogram: 34 1 0 1 0 0 2 1 0 1
Neighs:    17.625 ave 534 max 0 min
Histogram: 38 0 1 0 0 0 0 0 0 1

Total # of neighbors = 705
Ave neighs/atom = 0.429093
Neighbor list builds = 26535
Dangerous builds = 2372
write_dump all custom dump.atom_info_ac_* id type x y z radius vx vy vz density #
run 308641
Setting up run at Mon Jan  2 04:02:04 2023

Memory usage per processor = 964.609 Mbytes
    Step    Atoms         KinEng            CPU 
41357992     1643     0.70029628              0 
41666633     1629         1.0087      3261.3322 
Loop time of 3261.33 on 40 procs for 308641 steps with 1629 atoms, finish time Mon Jan  2 04:56:26 2023


Pair  time (%) = 0.892532 (0.0273671)
Neigh time (%) = 56.4547 (1.73103)
Comm  time (%) = 51.7586 (1.58704)
Outpt time (%) = 0.000370425 (1.13581e-05)
Other time (%) = 3152.23 (96.6546)

Nlocal:    40.725 ave 485 max 0 min
Histogram: 32 3 2 0 0 2 0 0 0 1
Nghost:    2.875 ave 30 max 0 min
Histogram: 30 6 0 1 0 1 0 0 0 2
Neighs:    14.35 ave 522 max 0 min
Histogram: 39 0 0 0 0 0 0 0 0 1

Total # of neighbors = 574
Ave neighs/atom = 0.352363
Neighbor list builds = 21099
Dangerous builds = 729
write_dump all custom dump.atom_info_ac_* id type x y z radius vx vy vz density #
run 308641
Setting up run at Mon Jan  2 04:56:26 2023

Memory usage per processor = 964.609 Mbytes
    Step    Atoms         KinEng            CPU 
41666633     1629         1.0087              0 
41975274     1612     0.93799754      3375.9297 
Loop time of 3375.93 on 40 procs for 308641 steps with 1612 atoms, finish time Mon Jan  2 05:52:42 2023


Pair  time (%) = 0.876046 (0.0259498)
Neigh time (%) = 82.4333 (2.4418)
Comm  time (%) = 78.5394 (2.32645)
Outpt time (%) = 0.00591698 (0.000175269)
Other time (%) = 3214.08 (95.2056)

Nlocal:    40.3 ave 464 max 0 min
Histogram: 32 3 2 0 0 1 1 0 0 1
Nghost:    3.2 ave 29 max 0 min
Histogram: 27 6 3 1 0 0 1 0 0 2
Neighs:    13.675 ave 513 max 0 min
Histogram: 39 0 0 0 0 0 0 0 0 1

Total # of neighbors = 547
Ave neighs/atom = 0.33933
Neighbor list builds = 30835
Dangerous builds = 3314
write_dump all custom dump.atom_info_ac_* id type x y z radius vx vy vz density #
run 308641
Setting up run at Mon Jan  2 05:52:42 2023

Memory usage per processor = 964.609 Mbytes
    Step    Atoms         KinEng            CPU 
41975274     1612     0.93799754              0 
42283915     1600     0.69436527      3465.3281 
Loop time of 3465.33 on 40 procs for 308641 steps with 1600 atoms, finish time Mon Jan  2 06:50:27 2023


Pair  time (%) = 0.894312 (0.0258074)
Neigh time (%) = 101.674 (2.93404)
Comm  time (%) = 92.578 (2.67155)
Outpt time (%) = 0.000686713 (1.98167e-05)
Other time (%) = 3270.18 (94.3686)

Nlocal:    40 ave 318 max 0 min
Histogram: 32 0 3 1 0 0 0 0 3 1
Nghost:    3.45 ave 28 max 0 min
Histogram: 32 2 1 0 0 1 0 1 1 2
Neighs:    14.025 ave 332 max 0 min
Histogram: 38 0 0 0 0 0 1 0 0 1

Total # of neighbors = 561
Ave neighs/atom = 0.350625
Neighbor list builds = 38036
Dangerous builds = 2996
write_dump all custom dump.atom_info_ac_* id type x y z radius vx vy vz density #
run 308641
Setting up run at Mon Jan  2 06:50:27 2023

Memory usage per processor = 964.609 Mbytes
    Step    Atoms         KinEng            CPU 
42283915     1600     0.69436527              0 
42592556     1592     0.72456065      3282.1977 
Loop time of 3282.2 on 40 procs for 308641 steps with 1592 atoms, finish time Mon Jan  2 07:45:09 2023


Pair  time (%) = 0.887932 (0.027053)
Neigh time (%) = 61.6026 (1.87687)
Comm  time (%) = 56.2959 (1.71519)
Outpt time (%) = 0.0426053 (0.00129807)
Other time (%) = 3163.37 (96.3796)

Nlocal:    39.8 ave 437 max 0 min
Histogram: 32 2 2 1 0 0 2 0 0 1
Nghost:    3.125 ave 27 max 0 min
Histogram: 31 3 0 1 0 2 0 2 0 1
Neighs:    12.025 ave 395 max 0 min
Histogram: 38 1 0 0 0 0 0 0 0 1

Total # of neighbors = 481
Ave neighs/atom = 0.302136
Neighbor list builds = 23018
Dangerous builds = 1963
write_dump all custom dump.atom_info_ac_* id type x y z radius vx vy vz density #
run 308641
Setting up run at Mon Jan  2 07:45:10 2023

Memory usage per processor = 964.609 Mbytes
    Step    Atoms         KinEng            CPU 
42592556     1592     0.72456065              0 
42901197     1583     0.72749963      3407.6592 
Loop time of 3407.67 on 40 procs for 308641 steps with 1583 atoms, finish time Mon Jan  2 08:41:58 2023


Pair  time (%) = 0.838801 (0.0246151)
Neigh time (%) = 90.9102 (2.66781)
Comm  time (%) = 82.4175 (2.41859)
Outpt time (%) = 0.000667022 (1.95741e-05)
Other time (%) = 3233.5 (94.889)

Nlocal:    39.575 ave 376 max 0 min
Histogram: 32 3 1 0 0 0 0 3 0 1
Nghost:    2.825 ave 29 max 0 min
Histogram: 32 2 1 0 2 1 0 0 1 1
Neighs:    12.775 ave 379 max 0 min
Histogram: 38 0 1 0 0 0 0 0 0 1

Total # of neighbors = 511
Ave neighs/atom = 0.322805
Neighbor list builds = 33976
Dangerous builds = 1243
write_dump all custom dump.atom_info_ac_* id type x y z radius vx vy vz density #
run 308641
Setting up run at Mon Jan  2 08:41:58 2023

Memory usage per processor = 964.609 Mbytes
    Step    Atoms         KinEng            CPU 
42901197     1583     0.72749963              0 
43209838     1572     0.77158941      3373.5491 
Loop time of 3373.55 on 40 procs for 308641 steps with 1572 atoms, finish time Mon Jan  2 09:38:12 2023


Pair  time (%) = 0.842034 (0.0249599)
Neigh time (%) = 85.2456 (2.52688)
Comm  time (%) = 72.3895 (2.1458)
Outpt time (%) = 0.000645349 (1.91297e-05)
Other time (%) = 3215.07 (95.3023)

Nlocal:    39.3 ave 307 max 0 min
Histogram: 32 0 3 0 1 0 0 0 2 2
Nghost:    2.525 ave 30 max 0 min
Histogram: 32 2 2 0 2 0 1 0 0 1
Neighs:    11.525 ave 290 max 0 min
Histogram: 38 0 0 0 1 0 0 0 0 1

Total # of neighbors = 461
Ave neighs/atom = 0.293257
Neighbor list builds = 31895
Dangerous builds = 3042
write_dump all custom dump.atom_info_ac_* id type x y z radius vx vy vz density #
run 308641
Setting up run at Mon Jan  2 09:38:12 2023

Memory usage per processor = 964.609 Mbytes
    Step    Atoms         KinEng            CPU 
43209838     1572     0.77158941              0 
43518479     1561     0.73131507      3372.8967 
Loop time of 3372.9 on 40 procs for 308641 steps with 1561 atoms, finish time Mon Jan  2 10:34:25 2023


Pair  time (%) = 0.840135 (0.0249084)
Neigh time (%) = 79.7865 (2.36552)
Comm  time (%) = 70.6953 (2.09598)
Outpt time (%) = 0.000604469 (1.79213e-05)
Other time (%) = 3221.57 (95.5136)

Nlocal:    39.025 ave 373 max 0 min
Histogram: 32 2 2 0 0 0 2 1 0 1
Nghost:    3.425 ave 27 max 0 min
Histogram: 32 1 1 0 1 1 1 0 1 2
Neighs:    12.325 ave 384 max 0 min
Histogram: 38 1 0 0 0 0 0 0 0 1

Total # of neighbors = 493
Ave neighs/atom = 0.315823
Neighbor list builds = 29844
Dangerous builds = 1695
write_dump all custom dump.atom_info_ac_* id type x y z radius vx vy vz density #
run 308641
Setting up run at Mon Jan  2 10:34:25 2023

Memory usage per processor = 964.609 Mbytes
    Step    Atoms         KinEng            CPU 
43518479     1561     0.73131507              0 
43827120     1554      0.7591227      3318.1381 
Loop time of 3318.14 on 40 procs for 308641 steps with 1554 atoms, finish time Mon Jan  2 11:29:43 2023


Pair  time (%) = 0.828922 (0.0249815)
Neigh time (%) = 68.956 (2.07815)
Comm  time (%) = 52.0938 (1.56997)
Outpt time (%) = 0.000381473 (1.14966e-05)
Other time (%) = 3196.26 (96.3269)

Nlocal:    38.85 ave 307 max 0 min
Histogram: 32 1 2 0 1 0 0 0 3 1
Nghost:    2.55 ave 26 max 0 min
Histogram: 32 2 2 0 1 0 1 0 1 1
Neighs:    11 ave 253 max 0 min
Histogram: 38 0 0 0 0 0 1 0 0 1

Total # of neighbors = 440
Ave neighs/atom = 0.28314
Neighbor list builds = 25789
Dangerous builds = 1217
write_dump all custom dump.atom_info_ac_* id type x y z radius vx vy vz density #
run 308641
Setting up run at Mon Jan  2 11:29:43 2023

Memory usage per processor = 964.609 Mbytes
    Step    Atoms         KinEng            CPU 
43827120     1554      0.7591227              0 
44135761     1545      0.7227649      3592.8901 
Loop time of 3592.89 on 40 procs for 308641 steps with 1545 atoms, finish time Mon Jan  2 12:29:36 2023


Pair  time (%) = 0.843826 (0.023486)
Neigh time (%) = 120.561 (3.35555)
Comm  time (%) = 96.3859 (2.68268)
Outpt time (%) = 0.000675265 (1.87945e-05)
Other time (%) = 3375.1 (93.9383)

Nlocal:    38.625 ave 358 max 0 min
Histogram: 32 1 2 1 0 1 0 2 0 1
Nghost:    4.05 ave 38 max 0 min
Histogram: 33 1 1 0 0 2 1 1 0 1
Neighs:    13.275 ave 382 max 0 min
Histogram: 38 1 0 0 0 0 0 0 0 1

Total # of neighbors = 531
Ave neighs/atom = 0.343689
Neighbor list builds = 45040
Dangerous builds = 833
write_dump all custom dump.atom_info_ac_* id type x y z radius vx vy vz density #
run 308641
Setting up run at Mon Jan  2 12:29:36 2023

Memory usage per processor = 964.609 Mbytes
    Step    Atoms         KinEng            CPU 
44135761     1545      0.7227649              0 
44444402     1543       0.714348      3513.6693 
Loop time of 3513.67 on 40 procs for 308641 steps with 1543 atoms, finish time Mon Jan  2 13:28:10 2023


Pair  time (%) = 0.845837 (0.0240728)
Neigh time (%) = 110.447 (3.14334)
Comm  time (%) = 93.2585 (2.65416)
Outpt time (%) = 0.000584793 (1.66434e-05)
Other time (%) = 3309.12 (94.1784)

Nlocal:    38.575 ave 305 max 0 min
Histogram: 32 1 1 1 0 1 0 1 2 1
Nghost:    2.85 ave 28 max 0 min
Histogram: 32 0 5 0 0 0 1 0 0 2
Neighs:    10.75 ave 219 max 0 min
Histogram: 38 0 0 0 0 0 0 1 0 1

Total # of neighbors = 430
Ave neighs/atom = 0.278678
Neighbor list builds = 41286
Dangerous builds = 567
write_dump all custom dump.atom_info_ac_* id type x y z radius vx vy vz density #
run 308641
Setting up run at Mon Jan  2 13:28:10 2023

Memory usage per processor = 964.609 Mbytes
    Step    Atoms         KinEng            CPU 
44444402     1543       0.714348              0 
44753043     1532     0.72255037       3459.168 
Loop time of 3459.18 on 40 procs for 308641 steps with 1532 atoms, finish time Mon Jan  2 14:25:49 2023


Pair  time (%) = 0.936677 (0.027078)
Neigh time (%) = 99.5405 (2.87758)
Comm  time (%) = 87.9703 (2.5431)
Outpt time (%) = 0.0620651 (0.00179421)
Other time (%) = 3270.67 (94.5505)

Nlocal:    38.3 ave 296 max 0 min
Histogram: 32 1 1 1 1 0 0 0 2 2
Nghost:    2.5 ave 28 max 0 min
Histogram: 34 0 1 2 1 0 0 1 0 1
Neighs:    12.9 ave 296 max 0 min
Histogram: 38 0 0 0 0 1 0 0 0 1

Total # of neighbors = 516
Ave neighs/atom = 0.336815
Neighbor list builds = 37176
Dangerous builds = 3917
write_dump all custom dump.atom_info_ac_* id type x y z radius vx vy vz density #
run 308641
Setting up run at Mon Jan  2 14:25:50 2023

Memory usage per processor = 964.609 Mbytes
    Step    Atoms         KinEng            CPU 
44753043     1532     0.72255037              0 
45061684     1525     0.71011081      3468.1126 
Loop time of 3468.11 on 40 procs for 308641 steps with 1525 atoms, finish time Mon Jan  2 15:23:38 2023


Pair  time (%) = 0.860654 (0.0248162)
Neigh time (%) = 99.6993 (2.87474)
Comm  time (%) = 83.1045 (2.39625)
Outpt time (%) = 0.00583277 (0.000168183)
Other time (%) = 3284.44 (94.704)

Nlocal:    38.125 ave 316 max 0 min
Histogram: 32 0 2 1 1 1 0 1 1 1
Nghost:    2.475 ave 26 max 0 min
Histogram: 31 2 3 1 1 0 0 1 0 1
Neighs:    11.85 ave 268 max 0 min
Histogram: 37 1 0 0 0 1 0 0 0 1

Total # of neighbors = 474
Ave neighs/atom = 0.31082
Neighbor list builds = 37208
Dangerous builds = 1705
write_dump all custom dump.atom_info_ac_* id type x y z radius vx vy vz density #
run 308641
Setting up run at Mon Jan  2 15:23:38 2023

Memory usage per processor = 964.609 Mbytes
    Step    Atoms         KinEng            CPU 
45061684     1525     0.71011081              0 
WARNING: Forced restart written (../output.cpp:427)
45119882     1524     0.83187147      651.56796 
Loop time of 651.579 on 40 procs for 308641 steps with 1524 atoms, finish time Mon Jan  2 15:34:30 2023


Pair  time (%) = 0.159805 (0.0245258)
Neigh time (%) = 18.5723 (2.85036)
Comm  time (%) = 15.8231 (2.42842)
Outpt time (%) = 0.31913 (0.0489779)
Other time (%) = 616.705 (94.6477)

Nlocal:    38.1 ave 286 max 0 min
Histogram: 31 1 2 0 1 1 0 1 1 2
Nghost:    2.5 ave 26 max 0 min
Histogram: 33 2 0 0 2 1 0 0 1 1
Neighs:    10.975 ave 235 max 0 min
Histogram: 37 1 0 0 0 0 1 0 0 1

Total # of neighbors = 439
Ave neighs/atom = 0.288058
Neighbor list builds = 6934
Dangerous builds = 0
