LIGGGHTS (Version LIGGGHTS-PUBLIC 3.8.0, compiled 2022-11-07-16:55:38 by serperd1, git commit 86544c3f1215bc9744d7929e3eacf53ba086af9e)
Created orthogonal box = (-0.15 -0.15 -0.15) to (0.15 0.15 0.15)
  2 by 4 by 5 MPI processor grid

Reading STL file 'cone.stl' (mesh processing step 1/3) 

Reading STL file 'in_cyl.stl' (mesh processing step 1/3) 

Reading STL file 'top_cyl.stl' (mesh processing step 1/3) 

Reading STL file 'bot_cyl.stl' (mesh processing step 1/3) 

Reading STL file 'bottom_disk.stl' (mesh processing step 1/3) 

Reading STL file 'top_disk.stl' (mesh processing step 1/3) 
Fix particledistribution/discrete (id prob_par): distribution based on mass%:
    r_0to10p: d=1.260000e-04 (max. bounding sphere) mass%=10.000000%
    r_10to50p: d=3.492000e-04 (max. bounding sphere) mass%=40.000000%
    r_50to90p: d=1.269900e-03 (max. bounding sphere) mass%=40.000000%
    r_90to100p: d=1.968300e-03 (max. bounding sphere) mass%=10.000000%
Fix particledistribution/discrete (id prob_par): distribution based on number%:
    r_0to10p: d=1.260000e-04 (max. bounding sphere) number%=83.887052%
    r_10to50p: d=3.492000e-04 (max. bounding sphere) number%=15.763181%
    r_50to90p: d=1.269900e-03 (max. bounding sphere) number%=0.327762%
    r_90to100p: d=1.968300e-03 (max. bounding sphere) number%=0.022006%
Setting up run at Thu Dec 29 02:03:19 2022

Import and parallelization of mesh cone_mesh containing 868 triangle(s) successful
Import and parallelization of mesh inlet_cyl_wall_mesh containing 1064 triangle(s) successful
Import and parallelization of mesh top_cyl_wall_mesh containing 682 triangle(s) successful
Import and parallelization of mesh bot_cyl_wall_mesh containing 1280 triangle(s) successful
Import and parallelization of mesh bot_disk_wall_mesh containing 1682 triangle(s) successful
Import and parallelization of mesh top_disk_wall_mesh containing 1144 triangle(s) successful
Memory usage per processor = 955.842 Mbytes
    Step    Atoms         KinEng            CPU 
       0        0              0              0 
Loop time of 6.62294e-05 on 40 procs for 0 steps with 0 atoms, finish time Thu Dec 29 02:03:19 2022


Pair  time (%) = 0 (0)
Neigh time (%) = 0 (0)
Comm  time (%) = 0 (0)
Outpt time (%) = 0 (0)
Other time (%) = 6.62294e-05 (100)

Nlocal:    0 ave 0 max 0 min
Histogram: 40 0 0 0 0 0 0 0 0 0
Nghost:    0 ave 0 max 0 min
Histogram: 40 0 0 0 0 0 0 0 0 0
Neighs:    0 ave 0 max 0 min
Histogram: 40 0 0 0 0 0 0 0 0 0

Total # of neighbors = 0
Neighbor list builds = 0
Dangerous builds = 0
Setting up run at Thu Dec 29 02:03:19 2022

Memory usage per processor = 955.842 Mbytes
    Step    Atoms         KinEng            CPU 
       0        0              0              0 
       1        0              0    0.009659131 
Loop time of 0.00966985 on 40 procs for 1 steps with 0 atoms, finish time Thu Dec 29 02:03:19 2022


Pair  time (%) = 2.49203e-06 (0.0257711)
Neigh time (%) = 0 (0)
Comm  time (%) = 0.000236111 (2.44172)
Outpt time (%) = 0.000118177 (1.22212)
Other time (%) = 0.00931307 (96.3104)

Nlocal:    0 ave 0 max 0 min
Histogram: 40 0 0 0 0 0 0 0 0 0
Nghost:    0 ave 0 max 0 min
Histogram: 40 0 0 0 0 0 0 0 0 0
Neighs:    0 ave 0 max 0 min
Histogram: 40 0 0 0 0 0 0 0 0 0

Total # of neighbors = 0
Neighbor list builds = 0
Dangerous builds = 0
Scanning dump file ...
Reading snapshot from dump file ...
  orthogonal box = (-0.15 -0.15 -0.15) to (0.15 0.15 0.15)
  0 atoms before read
  1331 atoms in snapshot
  0 atoms purged
  0 atoms replaced
  0 atoms trimmed
  1331 atoms added
  1331 atoms after read
Setting atom values ...
  1331 settings made for type
  1331 settings made for density
  1331 settings made for vy
Setting up run at Thu Dec 29 02:03:19 2022

Memory usage per processor = 960.195 Mbytes
    Step    Atoms         KinEng            CPU 
       1     1331    2.04396e-07              0 
       2     1331  2.5455856e-07    0.009192278 
Loop time of 0.00920134 on 40 procs for 1 steps with 1331 atoms, finish time Thu Dec 29 02:03:19 2022


Pair  time (%) = 2.41187e-06 (0.0262122)
Neigh time (%) = 0 (0)
Comm  time (%) = 6.1682e-06 (0.0670359)
Outpt time (%) = 0.000157531 (1.71204)
Other time (%) = 0.00903523 (98.1947)

Nlocal:    33.275 ave 555 max 0 min
Histogram: 36 0 2 0 0 0 0 0 0 2
Nghost:    13.575 ave 173 max 0 min
Histogram: 36 0 0 0 0 1 1 0 0 2
Neighs:    10.175 ave 168 max 0 min
Histogram: 36 0 2 0 0 0 0 0 0 2

Total # of neighbors = 407
Ave neighs/atom = 0.305785
Neighbor list builds = 0
Dangerous builds = 0
Setting up run at Thu Dec 29 02:03:19 2022

Memory usage per processor = 960.195 Mbytes
    Step    Atoms         KinEng            CPU 
       2     1331  2.5455856e-07              0 
  205763     1331  6.9273694e-05       2000.098 
Loop time of 2000.1 on 40 procs for 205761 steps with 1331 atoms, finish time Thu Dec 29 02:36:39 2022


Pair  time (%) = 0.505542 (0.0252759)
Neigh time (%) = 0.415499 (0.0207739)
Comm  time (%) = 1.23871 (0.0619325)
Outpt time (%) = 0.000185397 (9.2694e-06)
Other time (%) = 1997.94 (99.892)

Nlocal:    33.275 ave 551 max 0 min
Histogram: 36 0 2 0 0 0 0 0 0 2
Nghost:    13.8 ave 171 max 0 min
Histogram: 36 0 0 0 0 1 1 0 0 2
Neighs:    11.175 ave 191 max 0 min
Histogram: 36 1 1 0 0 0 0 0 1 1

Total # of neighbors = 447
Ave neighs/atom = 0.335838
Neighbor list builds = 550
Dangerous builds = 0
Setting up run at Thu Dec 29 02:36:39 2022

Memory usage per processor = 960.195 Mbytes
    Step    Atoms         KinEng            CPU 
  205763     1331  6.9273694e-05              0 
  411524     1331  0.00040217614      2002.9359 
Loop time of 2002.94 on 40 procs for 205761 steps with 1331 atoms, finish time Thu Dec 29 03:10:02 2022


Pair  time (%) = 0.507384 (0.025332)
Neigh time (%) = 0.415765 (0.0207578)
Comm  time (%) = 1.30541 (0.0651749)
Outpt time (%) = 0.000515579 (2.57412e-05)
Other time (%) = 2000.71 (99.8887)

Nlocal:    33.275 ave 538 max 0 min
Histogram: 36 0 2 0 0 0 0 0 0 2
Nghost:    13.625 ave 169 max 0 min
Histogram: 36 0 0 0 0 1 1 0 0 2
Neighs:    11.725 ave 197 max 0 min
Histogram: 36 1 1 0 0 0 0 0 0 2

Total # of neighbors = 469
Ave neighs/atom = 0.352367
Neighbor list builds = 550
Dangerous builds = 0
Setting up run at Thu Dec 29 03:10:02 2022

Memory usage per processor = 960.195 Mbytes
    Step    Atoms         KinEng            CPU 
  411524     1331  0.00040217614              0 
  617285     1331  0.00067128357      2002.3464 
Loop time of 2002.35 on 40 procs for 205761 steps with 1331 atoms, finish time Thu Dec 29 03:43:25 2022


Pair  time (%) = 0.50945 (0.0254427)
Neigh time (%) = 0.41571 (0.0207611)
Comm  time (%) = 1.33308 (0.0665761)
Outpt time (%) = 0.000425432 (2.12467e-05)
Other time (%) = 2000.09 (99.8872)

Nlocal:    33.275 ave 522 max 0 min
Histogram: 36 0 2 0 0 0 0 0 0 2
Nghost:    13.05 ave 158 max 0 min
Histogram: 36 0 0 0 0 0 1 1 0 2
Neighs:    11.9 ave 190 max 0 min
Histogram: 36 0 2 0 0 0 0 0 0 2

Total # of neighbors = 476
Ave neighs/atom = 0.357626
Neighbor list builds = 550
Dangerous builds = 0
Setting up run at Thu Dec 29 03:43:25 2022

Memory usage per processor = 960.195 Mbytes
    Step    Atoms         KinEng            CPU 
  617285     1331  0.00067128357              0 
  823046     1331    0.026573725      2009.5478 
Loop time of 2009.55 on 40 procs for 205761 steps with 1331 atoms, finish time Thu Dec 29 04:16:54 2022


Pair  time (%) = 0.513245 (0.0255403)
Neigh time (%) = 1.88789 (0.0939458)
Comm  time (%) = 2.59139 (0.128954)
Outpt time (%) = 0.000253072 (1.25935e-05)
Other time (%) = 2004.56 (99.7515)

Nlocal:    33.275 ave 512 max 0 min
Histogram: 36 0 1 1 0 0 0 0 0 2
Nghost:    12.925 ave 161 max 0 min
Histogram: 36 0 0 0 0 1 1 0 0 2
Neighs:    12.575 ave 203 max 0 min
Histogram: 36 0 2 0 0 0 0 0 0 2

Total # of neighbors = 503
Ave neighs/atom = 0.377911
Neighbor list builds = 2360
Dangerous builds = 0
Setting up run at Thu Dec 29 04:16:54 2022

Memory usage per processor = 960.195 Mbytes
    Step    Atoms         KinEng            CPU 
  823046     1331    0.026573725              0 
 1028807     1331    0.026162138      2015.1213 
Loop time of 2015.13 on 40 procs for 205761 steps with 1331 atoms, finish time Thu Dec 29 04:50:29 2022


Pair  time (%) = 0.517113 (0.0256615)
Neigh time (%) = 2.81062 (0.139476)
Comm  time (%) = 3.1427 (0.155955)
Outpt time (%) = 0.000508549 (2.52365e-05)
Other time (%) = 2008.66 (99.6789)

Nlocal:    33.275 ave 498 max 0 min
Histogram: 36 0 1 1 0 0 0 0 0 2
Nghost:    12.275 ave 159 max 0 min
Histogram: 36 0 0 0 0 1 1 0 0 2
Neighs:    12.65 ave 194 max 0 min
Histogram: 36 0 1 1 0 0 0 0 0 2

Total # of neighbors = 506
Ave neighs/atom = 0.380165
Neighbor list builds = 3487
Dangerous builds = 0
Setting up run at Thu Dec 29 04:50:29 2022

Memory usage per processor = 960.195 Mbytes
    Step    Atoms         KinEng            CPU 
 1028807     1331    0.026162138              0 
 1234568     1330    0.020340665       2020.419 
Loop time of 2020.42 on 40 procs for 205761 steps with 1330 atoms, finish time Thu Dec 29 05:24:10 2022


Pair  time (%) = 0.51837 (0.0256565)
Neigh time (%) = 2.82929 (0.140035)
Comm  time (%) = 3.03564 (0.150248)
Outpt time (%) = 0.000250884 (1.24174e-05)
Other time (%) = 2014.04 (99.684)

Nlocal:    33.25 ave 496 max 0 min
Histogram: 36 0 1 1 0 0 0 0 0 2
Nghost:    11.675 ave 155 max 0 min
Histogram: 36 0 0 0 0 2 0 0 1 1
Neighs:    11.9 ave 183 max 0 min
Histogram: 36 0 1 1 0 0 0 0 0 2

Total # of neighbors = 476
Ave neighs/atom = 0.357895
Neighbor list builds = 3501
Dangerous builds = 160
Setting up run at Thu Dec 29 05:24:10 2022

Memory usage per processor = 960.195 Mbytes
    Step    Atoms         KinEng            CPU 
 1234568     1330    0.020340665              0 
 1440329     1328    0.020465004      2016.7211 
Loop time of 2016.72 on 40 procs for 205761 steps with 1328 atoms, finish time Thu Dec 29 05:57:47 2022


Pair  time (%) = 0.514776 (0.0255254)
Neigh time (%) = 2.89073 (0.143338)
Comm  time (%) = 3.22823 (0.160073)
Outpt time (%) = 0.000554534 (2.74968e-05)
Other time (%) = 2010.09 (99.671)

Nlocal:    33.2 ave 490 max 0 min
Histogram: 36 0 1 1 0 0 0 0 0 2
Nghost:    11.05 ave 140 max 0 min
Histogram: 36 0 0 0 0 1 1 0 0 2
Neighs:    11.925 ave 180 max 0 min
Histogram: 36 0 0 1 1 0 0 0 0 2

Total # of neighbors = 477
Ave neighs/atom = 0.359187
Neighbor list builds = 3568
Dangerous builds = 169
Setting up run at Thu Dec 29 05:57:47 2022

Memory usage per processor = 960.195 Mbytes
    Step    Atoms         KinEng            CPU 
 1440329     1328    0.020465004              0 
 1646090     1328     0.01061023      2005.8403 
Loop time of 2005.84 on 40 procs for 205761 steps with 1328 atoms, finish time Thu Dec 29 06:31:13 2022


Pair  time (%) = 0.510195 (0.0254355)
Neigh time (%) = 2.02247 (0.100829)
Comm  time (%) = 2.39918 (0.11961)
Outpt time (%) = 0.000210761 (1.05074e-05)
Other time (%) = 2000.91 (99.7541)

Nlocal:    33.2 ave 487 max 0 min
Histogram: 36 0 1 1 0 0 0 0 0 2
Nghost:    10.625 ave 135 max 0 min
Histogram: 36 0 0 0 0 2 0 0 0 2
Neighs:    11.7 ave 178 max 0 min
Histogram: 36 0 0 2 0 0 0 0 0 2

Total # of neighbors = 468
Ave neighs/atom = 0.35241
Neighbor list builds = 2495
Dangerous builds = 0
Setting up run at Thu Dec 29 06:31:13 2022

Memory usage per processor = 960.195 Mbytes
    Step    Atoms         KinEng            CPU 
 1646090     1328     0.01061023              0 
 1851851     1327   0.0074317177      2007.2021 
Loop time of 2007.2 on 40 procs for 205761 steps with 1327 atoms, finish time Thu Dec 29 07:04:40 2022


Pair  time (%) = 0.505928 (0.0252057)
Neigh time (%) = 1.37115 (0.0683115)
Comm  time (%) = 2.04267 (0.101767)
Outpt time (%) = 0.000509023 (2.53598e-05)
Other time (%) = 2003.28 (99.8047)

Nlocal:    33.175 ave 485 max 0 min
Histogram: 36 0 1 1 0 0 0 0 0 2
Nghost:    10.35 ave 139 max 0 min
Histogram: 36 0 0 0 0 2 0 0 1 1
Neighs:    11.625 ave 177 max 0 min
Histogram: 36 0 0 2 0 0 0 0 0 2

Total # of neighbors = 465
Ave neighs/atom = 0.350414
Neighbor list builds = 1700
Dangerous builds = 9
Setting up run at Thu Dec 29 07:04:40 2022

Memory usage per processor = 960.195 Mbytes
    Step    Atoms         KinEng            CPU 
 1851851     1327   0.0074317177              0 
 2057612     1325   0.0070287533      2001.8594 
Loop time of 2001.86 on 40 procs for 205761 steps with 1325 atoms, finish time Thu Dec 29 07:38:02 2022


Pair  time (%) = 0.504509 (0.025202)
Neigh time (%) = 1.13635 (0.0567645)
Comm  time (%) = 2.07127 (0.103467)
Outpt time (%) = 0.000247608 (1.23689e-05)
Other time (%) = 1998.15 (99.8146)

Nlocal:    33.125 ave 480 max 0 min
Histogram: 36 0 1 1 0 0 0 0 0 2
Nghost:    10.275 ave 135 max 0 min
Histogram: 36 0 0 0 0 1 1 0 1 1
Neighs:    11.25 ave 175 max 0 min
Histogram: 36 0 0 2 0 0 0 0 0 2

Total # of neighbors = 450
Ave neighs/atom = 0.339623
Neighbor list builds = 1415
Dangerous builds = 15
Setting up run at Thu Dec 29 07:38:02 2022

Memory usage per processor = 960.195 Mbytes
    Step    Atoms         KinEng            CPU 
 2057612     1325   0.0070287533              0 
 2263373     1324    0.010407212      2014.1188 
Loop time of 2014.12 on 40 procs for 205761 steps with 1324 atoms, finish time Thu Dec 29 08:11:36 2022


Pair  time (%) = 0.510286 (0.0253355)
Neigh time (%) = 2.16663 (0.107572)
Comm  time (%) = 3.84107 (0.190707)
Outpt time (%) = 0.000555919 (2.76011e-05)
Other time (%) = 2007.6 (99.6764)

Nlocal:    33.1 ave 477 max 0 min
Histogram: 36 0 1 1 0 0 0 0 0 2
Nghost:    10.15 ave 125 max 0 min
Histogram: 36 0 0 0 0 1 1 0 0 2
Neighs:    10.725 ave 170 max 0 min
Histogram: 36 0 1 1 0 0 0 0 0 2

Total # of neighbors = 429
Ave neighs/atom = 0.324018
Neighbor list builds = 2688
Dangerous builds = 72
Setting up run at Thu Dec 29 08:11:36 2022

Memory usage per processor = 960.195 Mbytes
    Step    Atoms         KinEng            CPU 
 2263373     1324    0.010407212              0 
 2469134     1319   0.0065280356      2058.1018 
Loop time of 2058.1 on 40 procs for 205761 steps with 1319 atoms, finish time Thu Dec 29 08:45:55 2022


Pair  time (%) = 0.513762 (0.0249629)
Neigh time (%) = 5.67713 (0.275843)
Comm  time (%) = 8.84558 (0.429793)
Outpt time (%) = 0.00046362 (2.25266e-05)
Other time (%) = 2043.07 (99.2694)

Nlocal:    32.975 ave 481 max 0 min
Histogram: 36 0 1 1 0 0 0 0 0 2
Nghost:    9.575 ave 125 max 0 min
Histogram: 36 0 0 0 0 1 1 1 0 1
Neighs:    10.8 ave 176 max 0 min
Histogram: 36 1 1 0 0 0 0 0 0 2

Total # of neighbors = 432
Ave neighs/atom = 0.327521
Neighbor list builds = 6953
Dangerous builds = 560
Setting up run at Thu Dec 29 08:45:55 2022

Memory usage per processor = 960.195 Mbytes
    Step    Atoms         KinEng            CPU 
 2469134     1319   0.0065280356              0 
 2674895     1314   0.0056512842      2040.3305 
Loop time of 2040.33 on 40 procs for 205761 steps with 1314 atoms, finish time Thu Dec 29 09:19:55 2022


Pair  time (%) = 0.508062 (0.024901)
Neigh time (%) = 5.08646 (0.249296)
Comm  time (%) = 8.1287 (0.398401)
Outpt time (%) = 0.000532498 (2.60986e-05)
Other time (%) = 2026.61 (99.3274)

Nlocal:    32.85 ave 481 max 0 min
Histogram: 36 0 1 1 0 0 0 0 0 2
Nghost:    9.475 ave 115 max 0 min
Histogram: 36 0 0 0 0 0 2 0 1 1
Neighs:    10.65 ave 178 max 0 min
Histogram: 36 1 1 0 0 0 0 0 1 1

Total # of neighbors = 426
Ave neighs/atom = 0.324201
Neighbor list builds = 6230
Dangerous builds = 438
Setting up run at Thu Dec 29 09:19:55 2022

Memory usage per processor = 960.195 Mbytes
    Step    Atoms         KinEng            CPU 
 2674895     1314   0.0056512842              0 
 2880656     1312      1.1093407      2054.5855 
Loop time of 2054.59 on 40 procs for 205761 steps with 1312 atoms, finish time Thu Dec 29 09:54:10 2022


Pair  time (%) = 0.507008 (0.0246769)
Neigh time (%) = 5.75329 (0.280022)
Comm  time (%) = 9.08834 (0.442344)
Outpt time (%) = 0.000469046 (2.28292e-05)
Other time (%) = 2039.24 (99.2529)

Nlocal:    32.8 ave 481 max 0 min
Histogram: 36 0 2 0 0 0 0 0 0 2
Nghost:    9.575 ave 117 max 0 min
Histogram: 36 0 0 0 0 0 2 0 1 1
Neighs:    10.175 ave 169 max 0 min
Histogram: 36 1 1 0 0 0 0 0 0 2

Total # of neighbors = 407
Ave neighs/atom = 0.310213
Neighbor list builds = 7044
Dangerous builds = 391
Setting up run at Thu Dec 29 09:54:10 2022

Memory usage per processor = 960.195 Mbytes
    Step    Atoms         KinEng            CPU 
 2880656     1312      1.1093407              0 
 3086417     1309    0.031580102      2029.6296 
Loop time of 2029.63 on 40 procs for 205761 steps with 1309 atoms, finish time Thu Dec 29 10:27:59 2022


Pair  time (%) = 0.502699 (0.024768)
Neigh time (%) = 3.57383 (0.176083)
Comm  time (%) = 6.98192 (0.344)
Outpt time (%) = 0.000559976 (2.75901e-05)
Other time (%) = 2018.57 (99.4551)

Nlocal:    32.725 ave 483 max 0 min
Histogram: 36 0 2 0 0 0 0 0 0 2
Nghost:    9.375 ave 122 max 0 min
Histogram: 36 0 0 0 0 1 1 1 0 1
Neighs:    9.625 ave 166 max 0 min
Histogram: 36 1 1 0 0 0 0 0 0 2

Total # of neighbors = 385
Ave neighs/atom = 0.294118
Neighbor list builds = 4404
Dangerous builds = 513
Setting up run at Thu Dec 29 10:27:59 2022

Memory usage per processor = 960.195 Mbytes
    Step    Atoms         KinEng            CPU 
 3086417     1309    0.031580102              0 
 3292178     1305    0.026424384      2044.0947 
Loop time of 2044.1 on 40 procs for 205761 steps with 1305 atoms, finish time Thu Dec 29 11:02:03 2022


Pair  time (%) = 0.519512 (0.0254153)
Neigh time (%) = 4.17682 (0.204336)
Comm  time (%) = 7.38868 (0.361464)
Outpt time (%) = 0.000503253 (2.46198e-05)
Other time (%) = 2032.01 (99.4088)

Nlocal:    32.625 ave 482 max 0 min
Histogram: 35 1 2 0 0 0 0 0 0 2
Nghost:    9.225 ave 118 max 0 min
Histogram: 36 0 0 0 0 0 2 1 0 1
Neighs:    9.8 ave 166 max 0 min
Histogram: 37 0 1 0 0 0 0 0 0 2

Total # of neighbors = 392
Ave neighs/atom = 0.300383
Neighbor list builds = 5146
Dangerous builds = 746
Setting up run at Thu Dec 29 11:02:04 2022

Memory usage per processor = 960.195 Mbytes
    Step    Atoms         KinEng            CPU 
 3292178     1305    0.026424384              0 
 3497939     1302    0.016492043      2016.0376 
Loop time of 2016.04 on 40 procs for 205761 steps with 1302 atoms, finish time Thu Dec 29 11:35:40 2022


Pair  time (%) = 0.494699 (0.0245382)
Neigh time (%) = 1.85995 (0.0922578)
Comm  time (%) = 4.8841 (0.242262)
Outpt time (%) = 0.000537307 (2.66516e-05)
Other time (%) = 2008.8 (99.6409)

Nlocal:    32.55 ave 474 max 0 min
Histogram: 36 0 2 0 0 0 0 0 0 2
Nghost:    8.975 ave 111 max 0 min
Histogram: 36 0 0 0 0 0 2 0 1 1
Neighs:    9.05 ave 162 max 0 min
Histogram: 37 1 0 0 0 0 0 0 0 2

Total # of neighbors = 362
Ave neighs/atom = 0.278034
Neighbor list builds = 2304
Dangerous builds = 96
Setting up run at Thu Dec 29 11:35:40 2022

Memory usage per processor = 960.195 Mbytes
    Step    Atoms         KinEng            CPU 
 3497939     1302    0.016492043              0 
 3703700     1300    0.079380882      2040.8304 
Loop time of 2040.83 on 40 procs for 205761 steps with 1300 atoms, finish time Thu Dec 29 12:09:41 2022


Pair  time (%) = 0.499589 (0.0244797)
Neigh time (%) = 3.8703 (0.189644)
Comm  time (%) = 6.71468 (0.329017)
Outpt time (%) = 0.000715442 (3.50564e-05)
Other time (%) = 2029.75 (99.4568)

Nlocal:    32.5 ave 484 max 0 min
Histogram: 35 1 2 0 0 0 0 0 0 2
Nghost:    8.2 ave 96 max 0 min
Histogram: 36 0 0 0 0 0 1 1 0 2
Neighs:    9.05 ave 167 max 0 min
Histogram: 36 2 0 0 0 0 0 0 1 1

Total # of neighbors = 362
Ave neighs/atom = 0.278462
Neighbor list builds = 4728
Dangerous builds = 19
Setting up run at Thu Dec 29 12:09:41 2022

Memory usage per processor = 960.195 Mbytes
    Step    Atoms         KinEng            CPU 
 3703700     1300    0.079380882              0 
 3909461     1297    0.028593707       2005.659 
Loop time of 2005.66 on 40 procs for 205761 steps with 1297 atoms, finish time Thu Dec 29 12:43:06 2022


Pair  time (%) = 0.482216 (0.0240428)
Neigh time (%) = 2.57806 (0.128539)
Comm  time (%) = 5.14883 (0.256715)
Outpt time (%) = 0.000473931 (2.36297e-05)
Other time (%) = 1997.45 (99.5907)

Nlocal:    32.425 ave 483 max 0 min
Histogram: 36 0 2 0 0 0 0 0 0 2
Nghost:    7.975 ave 94 max 0 min
Histogram: 36 0 0 0 0 0 1 1 1 1
Neighs:    8.85 ave 158 max 0 min
Histogram: 36 2 0 0 0 0 0 0 0 2

Total # of neighbors = 354
Ave neighs/atom = 0.272938
Neighbor list builds = 3148
Dangerous builds = 75
Setting up run at Thu Dec 29 12:43:06 2022

Memory usage per processor = 960.195 Mbytes
    Step    Atoms         KinEng            CPU 
 3909461     1297    0.028593707              0 
 4115222     1293    0.031874953      2041.1486 
Loop time of 2041.15 on 40 procs for 205761 steps with 1293 atoms, finish time Thu Dec 29 13:17:08 2022


Pair  time (%) = 0.485599 (0.0237905)
Neigh time (%) = 5.49549 (0.269235)
Comm  time (%) = 11.2563 (0.551468)
Outpt time (%) = 0.000489627 (2.39878e-05)
Other time (%) = 2023.91 (99.1555)

Nlocal:    32.325 ave 478 max 0 min
Histogram: 36 0 2 0 0 0 0 0 0 2
Nghost:    7.725 ave 101 max 0 min
Histogram: 36 0 0 0 0 1 2 0 0 1
Neighs:    8.125 ave 140 max 0 min
Histogram: 36 2 0 0 0 0 0 0 0 2

Total # of neighbors = 325
Ave neighs/atom = 0.251353
Neighbor list builds = 6662
Dangerous builds = 65
Setting up run at Thu Dec 29 13:17:08 2022

Memory usage per processor = 960.195 Mbytes
    Step    Atoms         KinEng            CPU 
 4115222     1293    0.031874953              0 
 4320983     1287    0.015024845      2003.9646 
Loop time of 2003.96 on 40 procs for 205761 steps with 1287 atoms, finish time Thu Dec 29 13:50:32 2022


Pair  time (%) = 0.475359 (0.0237209)
Neigh time (%) = 2.83988 (0.141713)
Comm  time (%) = 5.6076 (0.279825)
Outpt time (%) = 0.000498639 (2.48826e-05)
Other time (%) = 1995.04 (99.5547)

Nlocal:    32.175 ave 471 max 0 min
Histogram: 36 0 2 0 0 0 0 0 0 2
Nghost:    7.3 ave 92 max 0 min
Histogram: 36 0 0 0 0 1 1 1 0 1
Neighs:    7.875 ave 151 max 0 min
Histogram: 36 2 0 0 0 0 0 1 0 1

Total # of neighbors = 315
Ave neighs/atom = 0.244755
Neighbor list builds = 3468
Dangerous builds = 107
Setting up run at Thu Dec 29 13:50:32 2022

Memory usage per processor = 960.195 Mbytes
    Step    Atoms         KinEng            CPU 
 4320983     1287    0.015024845              0 
 4526744     1283   0.0090676588      2000.7963 
Loop time of 2000.8 on 40 procs for 205761 steps with 1283 atoms, finish time Thu Dec 29 14:23:52 2022


Pair  time (%) = 0.473543 (0.0236677)
Neigh time (%) = 2.1683 (0.108372)
Comm  time (%) = 5.88731 (0.294249)
Outpt time (%) = 0.000520819 (2.60306e-05)
Other time (%) = 1992.27 (99.5737)

Nlocal:    32.075 ave 461 max 0 min
Histogram: 36 0 2 0 0 0 0 0 0 2
Nghost:    7.55 ave 96 max 0 min
Histogram: 36 0 0 0 0 2 0 1 0 1
Neighs:    7.725 ave 152 max 0 min
Histogram: 36 2 0 0 0 0 0 1 0 1

Total # of neighbors = 309
Ave neighs/atom = 0.240842
Neighbor list builds = 2647
Dangerous builds = 0
Setting up run at Thu Dec 29 14:23:53 2022

Memory usage per processor = 960.195 Mbytes
    Step    Atoms         KinEng            CPU 
 4526744     1283   0.0090676588              0 
 4732505     1278    0.012240903      2032.7867 
Loop time of 2032.79 on 40 procs for 205761 steps with 1278 atoms, finish time Thu Dec 29 14:57:45 2022


Pair  time (%) = 0.482626 (0.0237421)
Neigh time (%) = 5.22843 (0.257205)
Comm  time (%) = 10.7579 (0.529217)
Outpt time (%) = 0.000541505 (2.66386e-05)
Other time (%) = 2016.32 (99.1898)

Nlocal:    31.95 ave 454 max 0 min
Histogram: 35 1 2 0 0 0 0 0 0 2
Nghost:    7.475 ave 90 max 0 min
Histogram: 36 0 0 0 0 2 0 0 1 1
Neighs:    7.1 ave 146 max 0 min
Histogram: 37 1 0 0 0 0 1 0 0 1

Total # of neighbors = 284
Ave neighs/atom = 0.222222
Neighbor list builds = 6386
Dangerous builds = 766
Setting up run at Thu Dec 29 14:57:45 2022

Memory usage per processor = 960.195 Mbytes
    Step    Atoms         KinEng            CPU 
 4732505     1278    0.012240903              0 
 4938266     1272    0.014617958       2059.184 
Loop time of 2059.18 on 40 procs for 205761 steps with 1272 atoms, finish time Thu Dec 29 15:32:05 2022


Pair  time (%) = 0.482351 (0.0234244)
Neigh time (%) = 5.28545 (0.256677)
Comm  time (%) = 10.9154 (0.530082)
Outpt time (%) = 0.000485397 (2.35723e-05)
Other time (%) = 2042.5 (99.1898)

Nlocal:    31.8 ave 453 max 0 min
Histogram: 34 2 2 0 0 0 0 0 0 2
Nghost:    7.325 ave 86 max 0 min
Histogram: 36 0 0 0 0 1 1 0 0 2
Neighs:    7.6 ave 155 max 0 min
Histogram: 37 1 0 0 0 0 1 0 0 1

Total # of neighbors = 304
Ave neighs/atom = 0.238994
Neighbor list builds = 6402
Dangerous builds = 12
Setting up run at Thu Dec 29 15:32:05 2022

Memory usage per processor = 960.195 Mbytes
    Step    Atoms         KinEng            CPU 
 4938266     1272    0.014617958              0 
 5144027     1266    0.010038565      2063.6212 
Loop time of 2063.62 on 40 procs for 205761 steps with 1266 atoms, finish time Thu Dec 29 16:06:28 2022


Pair  time (%) = 0.48542 (0.0235227)
Neigh time (%) = 7.93447 (0.384493)
Comm  time (%) = 15.9659 (0.773682)
Outpt time (%) = 0.000527654 (2.55693e-05)
Other time (%) = 2039.23 (98.8183)

Nlocal:    31.65 ave 447 max 0 min
Histogram: 35 1 2 0 0 0 0 0 0 2
Nghost:    7.05 ave 79 max 0 min
Histogram: 36 0 0 0 0 1 0 1 0 2
Neighs:    7.425 ave 148 max 0 min
Histogram: 37 1 0 0 0 0 0 1 0 1

Total # of neighbors = 297
Ave neighs/atom = 0.234597
Neighbor list builds = 9643
Dangerous builds = 793
Setting up run at Thu Dec 29 16:06:29 2022

Memory usage per processor = 960.195 Mbytes
    Step    Atoms         KinEng            CPU 
 5144027     1266    0.010038565              0 
 5349788     1261    0.010975543      2042.3267 
Loop time of 2042.33 on 40 procs for 205761 steps with 1261 atoms, finish time Thu Dec 29 16:40:31 2022


Pair  time (%) = 0.477794 (0.0233946)
Neigh time (%) = 5.31752 (0.260366)
Comm  time (%) = 11.4681 (0.561522)
Outpt time (%) = 0.000502466 (2.46026e-05)
Other time (%) = 2025.06 (99.1547)

Nlocal:    31.525 ave 445 max 0 min
Histogram: 36 0 2 0 0 0 0 0 0 2
Nghost:    7.025 ave 81 max 0 min
Histogram: 36 0 0 0 0 0 2 0 0 2
Neighs:    7.075 ave 152 max 0 min
Histogram: 37 1 0 0 0 0 1 0 0 1

Total # of neighbors = 283
Ave neighs/atom = 0.224425
Neighbor list builds = 6484
Dangerous builds = 550
Setting up run at Thu Dec 29 16:40:31 2022

Memory usage per processor = 960.195 Mbytes
    Step    Atoms         KinEng            CPU 
 5349788     1261    0.010975543              0 
 5555549     1254    0.010312051      2030.7433 
Loop time of 2030.74 on 40 procs for 205761 steps with 1254 atoms, finish time Thu Dec 29 17:14:22 2022


Pair  time (%) = 0.474549 (0.0233682)
Neigh time (%) = 4.3144 (0.212454)
Comm  time (%) = 8.94353 (0.440407)
Outpt time (%) = 0.000498372 (2.45414e-05)
Other time (%) = 2017.01 (99.3237)

Nlocal:    31.35 ave 436 max 0 min
Histogram: 35 1 2 0 0 0 0 0 0 2
Nghost:    7.25 ave 82 max 0 min
Histogram: 36 0 0 0 0 1 1 0 0 2
Neighs:    6.85 ave 145 max 0 min
Histogram: 37 1 0 0 0 0 1 0 0 1

Total # of neighbors = 274
Ave neighs/atom = 0.218501
Neighbor list builds = 5256
Dangerous builds = 374
Setting up run at Thu Dec 29 17:14:22 2022

Memory usage per processor = 960.195 Mbytes
    Step    Atoms         KinEng            CPU 
 5555549     1254    0.010312051              0 
 5761310     1247    0.026817942        2049.55 
Loop time of 2049.55 on 40 procs for 205761 steps with 1247 atoms, finish time Thu Dec 29 17:48:31 2022


Pair  time (%) = 0.478988 (0.0233704)
Neigh time (%) = 4.85569 (0.236915)
Comm  time (%) = 10.2942 (0.502266)
Outpt time (%) = 0.000456458 (2.22712e-05)
Other time (%) = 2033.92 (99.2374)

Nlocal:    31.175 ave 429 max 0 min
Histogram: 35 1 2 0 0 0 0 0 0 2
Nghost:    7.225 ave 80 max 0 min
Histogram: 35 0 1 0 0 0 2 0 1 1
Neighs:    7.1 ave 140 max 0 min
Histogram: 36 2 0 0 0 0 1 0 0 1

Total # of neighbors = 284
Ave neighs/atom = 0.227747
Neighbor list builds = 5941
Dangerous builds = 1193
Setting up run at Thu Dec 29 17:48:31 2022

Memory usage per processor = 960.195 Mbytes
    Step    Atoms         KinEng            CPU 
 5761310     1247    0.026817942              0 
 5967071     1241    0.028102399      2036.8998 
Loop time of 2036.9 on 40 procs for 205761 steps with 1241 atoms, finish time Thu Dec 29 18:22:28 2022


Pair  time (%) = 0.480272 (0.0235786)
Neigh time (%) = 6.06085 (0.297553)
Comm  time (%) = 12.6291 (0.620015)
Outpt time (%) = 0.000508026 (2.49411e-05)
Other time (%) = 2017.73 (99.0588)

Nlocal:    31.025 ave 425 max 0 min
Histogram: 34 2 2 0 0 0 0 0 0 2
Nghost:    7.575 ave 85 max 0 min
Histogram: 34 2 0 0 1 0 1 0 1 1
Neighs:    7.175 ave 129 max 0 min
Histogram: 35 3 0 0 0 0 0 1 0 1

Total # of neighbors = 287
Ave neighs/atom = 0.231265
Neighbor list builds = 7373
Dangerous builds = 609
Setting up run at Thu Dec 29 18:22:28 2022

Memory usage per processor = 960.195 Mbytes
    Step    Atoms         KinEng            CPU 
 5967071     1241    0.028102399              0 
 6172832     1233    0.029525593      2030.3878 
Loop time of 2030.39 on 40 procs for 205761 steps with 1233 atoms, finish time Thu Dec 29 18:56:19 2022


Pair  time (%) = 0.485253 (0.0238995)
Neigh time (%) = 5.42485 (0.267183)
Comm  time (%) = 9.4806 (0.466935)
Outpt time (%) = 0.00049355 (2.43082e-05)
Other time (%) = 2015 (99.242)

Nlocal:    30.825 ave 421 max 0 min
Histogram: 34 2 2 0 0 0 0 0 0 2
Nghost:    7.65 ave 80 max 0 min
Histogram: 35 1 0 0 0 1 0 0 1 2
Neighs:    7.1 ave 137 max 0 min
Histogram: 36 2 0 0 0 0 1 0 0 1

Total # of neighbors = 284
Ave neighs/atom = 0.230333
Neighbor list builds = 6604
Dangerous builds = 483
Setting up run at Thu Dec 29 18:56:19 2022

Memory usage per processor = 960.195 Mbytes
    Step    Atoms         KinEng            CPU 
 6172832     1233    0.029525593              0 
 6378593     1225    0.041505669      2100.6879 
Loop time of 2100.69 on 40 procs for 205761 steps with 1225 atoms, finish time Thu Dec 29 19:31:19 2022


Pair  time (%) = 0.491361 (0.0233905)
Neigh time (%) = 6.278 (0.298854)
Comm  time (%) = 12.8379 (0.611126)
Outpt time (%) = 0.000454961 (2.16577e-05)
Other time (%) = 2081.08 (99.0666)

Nlocal:    30.625 ave 411 max 0 min
Histogram: 34 2 2 0 0 0 0 0 0 2
Nghost:    7.375 ave 86 max 0 min
Histogram: 34 2 0 0 1 0 1 0 1 1
Neighs:    6.75 ave 117 max 0 min
Histogram: 36 1 1 0 0 0 0 0 1 1

Total # of neighbors = 270
Ave neighs/atom = 0.220408
Neighbor list builds = 7651
Dangerous builds = 570
Setting up run at Thu Dec 29 19:31:20 2022

Memory usage per processor = 960.195 Mbytes
    Step    Atoms         KinEng            CPU 
 6378593     1225    0.041505669              0 
 6584354     1224     0.53720646      2094.9031 
Loop time of 2094.9 on 40 procs for 205761 steps with 1224 atoms, finish time Thu Dec 29 20:06:14 2022


Pair  time (%) = 0.48385 (0.0230965)
Neigh time (%) = 5.11749 (0.244283)
Comm  time (%) = 11.0052 (0.52533)
Outpt time (%) = 0.00441281 (0.000210645)
Other time (%) = 2078.29 (99.2071)

Nlocal:    30.6 ave 408 max 0 min
Histogram: 33 3 2 0 0 0 0 0 0 2
Nghost:    7.375 ave 80 max 0 min
Histogram: 34 1 1 0 1 0 1 0 0 2
Neighs:    6.65 ave 111 max 0 min
Histogram: 36 1 1 0 0 0 0 1 0 1

Total # of neighbors = 266
Ave neighs/atom = 0.21732
Neighbor list builds = 6207
Dangerous builds = 24
Setting up run at Thu Dec 29 20:06:15 2022

Memory usage per processor = 960.195 Mbytes
    Step    Atoms         KinEng            CPU 
 6584354     1224     0.53720646              0 
 6790115     1216    0.024112375      2041.2962 
Loop time of 2041.3 on 40 procs for 205761 steps with 1216 atoms, finish time Thu Dec 29 20:40:16 2022


Pair  time (%) = 0.480544 (0.0235411)
Neigh time (%) = 6.37922 (0.312508)
Comm  time (%) = 12.0257 (0.589118)
Outpt time (%) = 0.000493619 (2.41817e-05)
Other time (%) = 2022.41 (99.0748)

Nlocal:    30.4 ave 407 max 0 min
Histogram: 33 4 1 0 0 0 0 0 0 2
Nghost:    7.4 ave 81 max 0 min
Histogram: 35 0 1 0 0 1 1 0 0 2
Neighs:    6.65 ave 92 max 0 min
Histogram: 35 1 1 1 0 0 0 0 0 2

Total # of neighbors = 266
Ave neighs/atom = 0.21875
Neighbor list builds = 7829
Dangerous builds = 1723
Setting up run at Thu Dec 29 20:40:16 2022

Memory usage per processor = 960.195 Mbytes
    Step    Atoms         KinEng            CPU 
 6790115     1216    0.024112375              0 
 6995876     1211    0.015025137      2091.1554 
Loop time of 2091.16 on 40 procs for 205761 steps with 1211 atoms, finish time Thu Dec 29 21:15:07 2022


Pair  time (%) = 0.48539 (0.0232116)
Neigh time (%) = 7.19431 (0.344035)
Comm  time (%) = 16.9223 (0.809231)
Outpt time (%) = 0.00047123 (2.25344e-05)
Other time (%) = 2066.55 (98.8235)

Nlocal:    30.275 ave 402 max 0 min
Histogram: 34 2 2 0 0 0 0 0 0 2
Nghost:    7.375 ave 82 max 0 min
Histogram: 34 1 1 0 1 1 0 0 0 2
Neighs:    5.525 ave 87 max 0 min
Histogram: 35 2 0 1 0 0 0 0 1 1

Total # of neighbors = 221
Ave neighs/atom = 0.182494
Neighbor list builds = 8883
Dangerous builds = 2908
Setting up run at Thu Dec 29 21:15:07 2022

Memory usage per processor = 960.195 Mbytes
    Step    Atoms         KinEng            CPU 
 6995876     1211    0.015025137              0 
 7201637     1205    0.017967918       2055.509 
Loop time of 2055.51 on 40 procs for 205761 steps with 1205 atoms, finish time Thu Dec 29 21:49:23 2022


Pair  time (%) = 0.480749 (0.0233883)
Neigh time (%) = 7.54075 (0.366855)
Comm  time (%) = 14.9428 (0.726962)
Outpt time (%) = 0.000455559 (2.21629e-05)
Other time (%) = 2032.54 (98.8828)

Nlocal:    30.125 ave 389 max 0 min
Histogram: 35 1 1 1 0 0 0 0 0 2
Nghost:    7.5 ave 94 max 0 min
Histogram: 35 1 0 1 0 1 0 0 1 1
Neighs:    5.025 ave 72 max 0 min
Histogram: 35 1 1 1 0 0 0 0 0 2

Total # of neighbors = 201
Ave neighs/atom = 0.166805
Neighbor list builds = 9177
Dangerous builds = 472
Setting up run at Thu Dec 29 21:49:23 2022

Memory usage per processor = 960.195 Mbytes
    Step    Atoms         KinEng            CPU 
 7201637     1205    0.017967918              0 
 7407398     1200    0.011629796      2031.8136 
Loop time of 2031.81 on 40 procs for 205761 steps with 1200 atoms, finish time Thu Dec 29 22:23:15 2022


Pair  time (%) = 0.475862 (0.0234206)
Neigh time (%) = 4.7353 (0.233058)
Comm  time (%) = 10.8328 (0.533161)
Outpt time (%) = 0.000501659 (2.46902e-05)
Other time (%) = 2015.77 (99.2103)

Nlocal:    30 ave 384 max 0 min
Histogram: 34 2 2 0 0 0 0 0 0 2
Nghost:    7.625 ave 85 max 0 min
Histogram: 33 3 0 1 0 1 0 0 0 2
Neighs:    4.95 ave 71 max 0 min
Histogram: 35 2 1 0 0 0 0 0 0 2

Total # of neighbors = 198
Ave neighs/atom = 0.165
Neighbor list builds = 5751
Dangerous builds = 1
Setting up run at Thu Dec 29 22:23:42 2022

Memory usage per processor = 960.195 Mbytes
    Step    Atoms         KinEng            CPU 
 7407398     1200    0.011629796              0 
 7613159     1194     0.10461786      2065.2697 
Loop time of 2065.27 on 40 procs for 205761 steps with 1194 atoms, finish time Thu Dec 29 22:58:07 2022


Pair  time (%) = 0.478089 (0.023149)
Neigh time (%) = 7.43285 (0.359897)
Comm  time (%) = 19.0007 (0.920009)
Outpt time (%) = 0.000478526 (2.31701e-05)
Other time (%) = 2038.36 (98.6969)

Nlocal:    29.85 ave 383 max 0 min
Histogram: 32 4 2 0 0 0 0 0 0 2
Nghost:    8.05 ave 95 max 0 min
Histogram: 34 1 1 1 1 0 0 0 0 2
Neighs:    4.375 ave 54 max 0 min
Histogram: 34 2 0 0 2 0 0 0 0 2

Total # of neighbors = 175
Ave neighs/atom = 0.146566
Neighbor list builds = 9059
Dangerous builds = 710
Setting up run at Thu Dec 29 22:58:07 2022

Memory usage per processor = 960.195 Mbytes
    Step    Atoms         KinEng            CPU 
 7613159     1194     0.10461786              0 
 7818920     1190    0.077366295      2126.9797 
Loop time of 2126.98 on 40 procs for 205761 steps with 1190 atoms, finish time Thu Dec 29 23:33:34 2022


Pair  time (%) = 0.477607 (0.0224547)
Neigh time (%) = 5.93586 (0.279075)
Comm  time (%) = 14.9421 (0.702503)
Outpt time (%) = 0.000445925 (2.09652e-05)
Other time (%) = 2105.62 (98.9959)

Nlocal:    29.75 ave 374 max 0 min
Histogram: 34 1 3 0 0 0 0 0 0 2
Nghost:    8.25 ave 106 max 0 min
Histogram: 34 1 2 0 1 0 0 1 0 1
Neighs:    4.3 ave 62 max 0 min
Histogram: 34 1 3 0 0 0 0 0 1 1

Total # of neighbors = 172
Ave neighs/atom = 0.144538
Neighbor list builds = 7270
Dangerous builds = 582
Setting up run at Thu Dec 29 23:33:34 2022

Memory usage per processor = 960.195 Mbytes
    Step    Atoms         KinEng            CPU 
 7818920     1190    0.077366295              0 
 8024681     1189    0.048404492      2037.5699 
Loop time of 2037.57 on 40 procs for 205761 steps with 1189 atoms, finish time Fri Dec 30 00:07:32 2022


Pair  time (%) = 0.477152 (0.0234177)
Neigh time (%) = 5.46364 (0.268145)
Comm  time (%) = 14.2819 (0.700926)
Outpt time (%) = 0.000546981 (2.68448e-05)
Other time (%) = 2017.35 (99.0075)

Nlocal:    29.725 ave 372 max 0 min
Histogram: 32 4 1 1 0 0 0 0 0 2
Nghost:    7.775 ave 99 max 0 min
Histogram: 34 2 0 1 1 0 0 0 0 2
Neighs:    4.25 ave 55 max 0 min
Histogram: 35 1 1 0 0 0 1 0 1 1

Total # of neighbors = 170
Ave neighs/atom = 0.142977
Neighbor list builds = 6656
Dangerous builds = 0
Setting up run at Fri Dec 30 00:07:32 2022

Memory usage per processor = 960.195 Mbytes
    Step    Atoms         KinEng            CPU 
 8024681     1189    0.048404492              0 
 8230442     1186    0.038933788      2060.6808 
Loop time of 2060.68 on 40 procs for 205761 steps with 1186 atoms, finish time Fri Dec 30 00:41:52 2022


Pair  time (%) = 0.474348 (0.023019)
Neigh time (%) = 5.51282 (0.267524)
Comm  time (%) = 13.1237 (0.636861)
Outpt time (%) = 0.000490808 (2.38177e-05)
Other time (%) = 2041.57 (99.0726)

Nlocal:    29.65 ave 369 max 0 min
Histogram: 32 3 3 0 0 0 0 0 0 2
Nghost:    8.325 ave 106 max 0 min
Histogram: 34 2 0 2 0 0 1 0 0 1
Neighs:    4.35 ave 48 max 0 min
Histogram: 34 0 1 1 1 1 0 0 0 2

Total # of neighbors = 174
Ave neighs/atom = 0.146712
Neighbor list builds = 6734
Dangerous builds = 341
Setting up run at Fri Dec 30 00:41:52 2022

Memory usage per processor = 960.195 Mbytes
    Step    Atoms         KinEng            CPU 
 8230442     1186    0.038933788              0 
 8436203     1180       0.027745      2038.2337 
Loop time of 2038.25 on 40 procs for 205761 steps with 1180 atoms, finish time Fri Dec 30 01:15:51 2022


Pair  time (%) = 0.477943 (0.0234487)
Neigh time (%) = 5.2709 (0.2586)
Comm  time (%) = 13.8381 (0.678921)
Outpt time (%) = 0.000321438 (1.57703e-05)
Other time (%) = 2018.66 (99.039)

Nlocal:    29.5 ave 374 max 0 min
Histogram: 32 3 3 0 0 0 0 0 0 2
Nghost:    7.375 ave 96 max 0 min
Histogram: 34 1 1 2 0 0 0 1 0 1
Neighs:    4.25 ave 49 max 0 min
Histogram: 33 1 2 0 2 0 0 0 1 1

Total # of neighbors = 170
Ave neighs/atom = 0.144068
Neighbor list builds = 6446
Dangerous builds = 572
Setting up run at Fri Dec 30 01:15:51 2022

Memory usage per processor = 960.195 Mbytes
    Step    Atoms         KinEng            CPU 
 8436203     1180       0.027745              0 
 8641964     1173    0.028250917       2057.159 
Loop time of 2057.16 on 40 procs for 205761 steps with 1173 atoms, finish time Fri Dec 30 01:50:08 2022


Pair  time (%) = 0.471963 (0.0229425)
Neigh time (%) = 6.50954 (0.316433)
Comm  time (%) = 15.9261 (0.774179)
Outpt time (%) = 0.000483817 (2.35187e-05)
Other time (%) = 2034.25 (98.8864)

Nlocal:    29.325 ave 372 max 0 min
Histogram: 32 3 3 0 0 0 0 0 0 2
Nghost:    7.75 ave 92 max 0 min
Histogram: 34 1 1 1 1 0 0 0 1 1
Neighs:    4.15 ave 49 max 0 min
Histogram: 34 1 0 1 1 1 0 1 0 1

Total # of neighbors = 166
Ave neighs/atom = 0.141517
Neighbor list builds = 7945
Dangerous builds = 245
Setting up run at Fri Dec 30 01:50:08 2022

Memory usage per processor = 960.195 Mbytes
    Step    Atoms         KinEng            CPU 
 8641964     1173    0.028250917              0 
 8847725     1169       0.029137      2043.9206 
Loop time of 2043.92 on 40 procs for 205761 steps with 1169 atoms, finish time Fri Dec 30 02:24:12 2022


Pair  time (%) = 0.478756 (0.0234234)
Neigh time (%) = 5.86855 (0.287122)
Comm  time (%) = 14.2158 (0.695517)
Outpt time (%) = 0.000101477 (4.96483e-06)
Other time (%) = 2023.36 (98.9939)

Nlocal:    29.225 ave 365 max 0 min
Histogram: 32 4 1 1 0 0 0 0 0 2
Nghost:    7.45 ave 97 max 0 min
Histogram: 33 3 0 2 0 0 1 0 0 1
Neighs:    4.375 ave 52 max 0 min
Histogram: 33 2 0 2 1 0 0 1 0 1

Total # of neighbors = 175
Ave neighs/atom = 0.149701
Neighbor list builds = 7123
Dangerous builds = 16
Setting up run at Fri Dec 30 02:24:12 2022

Memory usage per processor = 960.195 Mbytes
    Step    Atoms         KinEng            CPU 
 8847725     1169       0.029137              0 
 9053486     1161     0.16396141      2088.5461 
Loop time of 2088.55 on 40 procs for 205761 steps with 1161 atoms, finish time Fri Dec 30 02:59:01 2022


Pair  time (%) = 0.487592 (0.023346)
Neigh time (%) = 10.3895 (0.497452)
Comm  time (%) = 22.8227 (1.09276)
Outpt time (%) = 0.000571824 (2.73791e-05)
Other time (%) = 2054.85 (98.3864)

Nlocal:    29.025 ave 371 max 0 min
Histogram: 32 3 3 0 0 0 0 0 1 1
Nghost:    8.125 ave 94 max 0 min
Histogram: 33 1 2 1 1 0 0 1 0 1
Neighs:    3.9 ave 43 max 0 min
Histogram: 33 1 1 1 1 1 0 1 0 1

Total # of neighbors = 156
Ave neighs/atom = 0.134367
Neighbor list builds = 12707
Dangerous builds = 2193
Setting up run at Fri Dec 30 02:59:01 2022

Memory usage per processor = 960.195 Mbytes
    Step    Atoms         KinEng            CPU 
 9053486     1161     0.16396141              0 
 9259247     1157    0.043251152      2079.5377 
Loop time of 2079.54 on 40 procs for 205761 steps with 1157 atoms, finish time Fri Dec 30 03:33:40 2022


Pair  time (%) = 0.484921 (0.0233187)
Neigh time (%) = 9.00502 (0.43303)
Comm  time (%) = 20.661 (0.99354)
Outpt time (%) = 0.000471301 (2.26637e-05)
Other time (%) = 2049.39 (98.5501)

Nlocal:    28.925 ave 365 max 0 min
Histogram: 32 3 3 0 0 0 0 0 1 1
Nghost:    7.925 ave 77 max 0 min
Histogram: 33 1 1 0 2 1 0 0 0 2
Neighs:    4.2 ave 46 max 0 min
Histogram: 32 3 0 2 0 0 1 1 0 1

Total # of neighbors = 168
Ave neighs/atom = 0.145203
Neighbor list builds = 11171
Dangerous builds = 4542
Setting up run at Fri Dec 30 03:33:40 2022

Memory usage per processor = 960.195 Mbytes
    Step    Atoms         KinEng            CPU 
 9259247     1157    0.043251152              0 
 9465008     1153     0.10285174      2051.7915 
Loop time of 2051.79 on 40 procs for 205761 steps with 1153 atoms, finish time Fri Dec 30 04:07:52 2022


Pair  time (%) = 0.47599 (0.0231988)
Neigh time (%) = 5.84652 (0.284947)
Comm  time (%) = 16.3534 (0.797031)
Outpt time (%) = 0.000181663 (8.85386e-06)
Other time (%) = 2029.12 (98.8948)

Nlocal:    28.825 ave 361 max 0 min
Histogram: 32 4 1 1 0 0 0 0 1 1
Nghost:    7.45 ave 82 max 0 min
Histogram: 34 0 1 0 3 0 0 1 0 1
Neighs:    4.3 ave 51 max 0 min
Histogram: 33 1 1 2 0 1 1 0 0 1

Total # of neighbors = 172
Ave neighs/atom = 0.149176
Neighbor list builds = 7097
Dangerous builds = 2
Setting up run at Fri Dec 30 04:07:52 2022

Memory usage per processor = 960.195 Mbytes
    Step    Atoms         KinEng            CPU 
 9465008     1153     0.10285174              0 
 9670769     1147    0.051856264      2064.6986 
Loop time of 2064.7 on 40 procs for 205761 steps with 1147 atoms, finish time Fri Dec 30 04:42:17 2022


Pair  time (%) = 0.482343 (0.0233614)
Neigh time (%) = 7.85304 (0.380348)
Comm  time (%) = 18.4555 (0.893857)
Outpt time (%) = 0.000526518 (2.5501e-05)
Other time (%) = 2037.91 (98.7024)

Nlocal:    28.675 ave 352 max 0 min
Histogram: 32 4 2 0 0 0 0 0 1 1
Nghost:    7.575 ave 85 max 0 min
Histogram: 33 1 2 2 0 0 0 0 0 2
Neighs:    4.25 ave 47 max 0 min
Histogram: 32 1 2 1 1 1 1 0 0 1

Total # of neighbors = 170
Ave neighs/atom = 0.148213
Neighbor list builds = 9498
Dangerous builds = 8
Setting up run at Fri Dec 30 04:42:17 2022

Memory usage per processor = 960.195 Mbytes
    Step    Atoms         KinEng            CPU 
 9670769     1147    0.051856264              0 
 9876530     1139    0.083401674      2091.0262 
Loop time of 2091.03 on 40 procs for 205761 steps with 1139 atoms, finish time Fri Dec 30 05:17:08 2022


Pair  time (%) = 0.480945 (0.0230004)
Neigh time (%) = 10.2321 (0.489332)
Comm  time (%) = 23.1224 (1.10579)
Outpt time (%) = 0.000506488 (2.4222e-05)
Other time (%) = 2057.19 (98.3819)

Nlocal:    28.475 ave 351 max 0 min
Histogram: 33 3 1 1 0 0 0 0 1 1
Nghost:    7.65 ave 85 max 0 min
Histogram: 33 2 1 1 1 0 0 0 0 2
Neighs:    4.275 ave 51 max 0 min
Histogram: 33 1 0 2 3 0 0 0 0 1

Total # of neighbors = 171
Ave neighs/atom = 0.150132
Neighbor list builds = 12385
Dangerous builds = 87
Setting up run at Fri Dec 30 05:17:08 2022

Memory usage per processor = 960.195 Mbytes
    Step    Atoms         KinEng            CPU 
 9876530     1139    0.083401674              0 
10082291     1131    0.059507159      2090.1544 
Loop time of 2090.15 on 40 procs for 205761 steps with 1131 atoms, finish time Fri Dec 30 05:51:58 2022


Pair  time (%) = 0.47586 (0.0227668)
Neigh time (%) = 10.9144 (0.522183)
Comm  time (%) = 25.6534 (1.22735)
Outpt time (%) = 0.000499126 (2.38799e-05)
Other time (%) = 2053.11 (98.2277)

Nlocal:    28.275 ave 345 max 0 min
Histogram: 33 1 4 0 0 0 0 0 1 1
Nghost:    7.275 ave 92 max 0 min
Histogram: 34 1 1 2 0 0 0 1 0 1
Neighs:    4.275 ave 46 max 0 min
Histogram: 34 0 0 1 1 2 1 0 0 1

Total # of neighbors = 171
Ave neighs/atom = 0.151194
Neighbor list builds = 13223
Dangerous builds = 176
Setting up run at Fri Dec 30 05:51:58 2022

Memory usage per processor = 960.195 Mbytes
    Step    Atoms         KinEng            CPU 
10082291     1131    0.059507159              0 
10288052     1120    0.044518542      2078.2405 
Loop time of 2078.24 on 40 procs for 205761 steps with 1120 atoms, finish time Fri Dec 30 06:26:37 2022


Pair  time (%) = 0.469426 (0.0225877)
Neigh time (%) = 9.00487 (0.433293)
Comm  time (%) = 24.9778 (1.20187)
Outpt time (%) = 0.000537667 (2.58713e-05)
Other time (%) = 2043.79 (98.3422)

Nlocal:    28 ave 350 max 0 min
Histogram: 32 4 2 0 0 0 0 0 1 1
Nghost:    7.05 ave 83 max 0 min
Histogram: 33 2 1 2 0 0 0 0 1 1
Neighs:    4.075 ave 53 max 0 min
Histogram: 32 2 2 1 1 1 0 0 0 1

Total # of neighbors = 163
Ave neighs/atom = 0.145536
Neighbor list builds = 10914
Dangerous builds = 550
Setting up run at Fri Dec 30 06:26:37 2022

Memory usage per processor = 960.195 Mbytes
    Step    Atoms         KinEng            CPU 
10288052     1120    0.044518542              0 
10493813     1110      0.1900134      2105.5388 
Loop time of 2105.54 on 40 procs for 205761 steps with 1110 atoms, finish time Fri Dec 30 07:01:42 2022


Pair  time (%) = 0.466119 (0.0221377)
Neigh time (%) = 12.0267 (0.571194)
Comm  time (%) = 31.0191 (1.47321)
Outpt time (%) = 0.00060708 (2.88325e-05)
Other time (%) = 2062.03 (97.9334)

Nlocal:    27.75 ave 345 max 0 min
Histogram: 32 4 1 1 0 0 0 0 1 1
Nghost:    7.65 ave 88 max 0 min
Histogram: 32 4 1 1 0 0 0 0 0 2
Neighs:    3.225 ave 35 max 0 min
Histogram: 33 1 1 1 1 0 0 2 0 1

Total # of neighbors = 129
Ave neighs/atom = 0.116216
Neighbor list builds = 14619
Dangerous builds = 573
Setting up run at Fri Dec 30 07:01:42 2022

Memory usage per processor = 960.195 Mbytes
    Step    Atoms         KinEng            CPU 
10493813     1110      0.1900134              0 
10699574     1102     0.10276869      2695.9048 
Loop time of 2695.91 on 40 procs for 205761 steps with 1102 atoms, finish time Fri Dec 30 07:46:38 2022


Pair  time (%) = 0.583712 (0.0216518)
Neigh time (%) = 76.3984 (2.83387)
Comm  time (%) = 200.174 (7.4251)
Outpt time (%) = 0.000543408 (2.01568e-05)
Other time (%) = 2418.75 (89.7194)

Nlocal:    27.55 ave 340 max 0 min
Histogram: 32 3 3 0 0 0 0 1 0 1
Nghost:    6.85 ave 81 max 0 min
Histogram: 33 3 1 1 0 0 0 0 0 2
Neighs:    2.325 ave 32 max 0 min
Histogram: 34 2 1 0 0 0 2 0 0 1

Total # of neighbors = 93
Ave neighs/atom = 0.084392
Neighbor list builds = 97361
Dangerous builds = 91940
Setting up run at Fri Dec 30 07:46:38 2022

Memory usage per processor = 960.195 Mbytes
    Step    Atoms         KinEng            CPU 
10699574     1102     0.10276869              0 
10905335     1095     0.07151688      2046.6151 
Loop time of 2046.62 on 40 procs for 205761 steps with 1095 atoms, finish time Fri Dec 30 08:20:45 2022


Pair  time (%) = 0.450969 (0.0220349)
Neigh time (%) = 5.15323 (0.251793)
Comm  time (%) = 13.6469 (0.666802)
Outpt time (%) = 0.000876132 (4.28088e-05)
Other time (%) = 2027.36 (99.0593)

Nlocal:    27.375 ave 337 max 0 min
Histogram: 32 4 2 0 0 0 0 1 0 1
Nghost:    6.975 ave 80 max 0 min
Histogram: 33 1 2 2 0 0 0 0 0 2
Neighs:    2.95 ave 39 max 0 min
Histogram: 34 0 3 0 0 1 1 0 0 1

Total # of neighbors = 118
Ave neighs/atom = 0.107763
Neighbor list builds = 6250
Dangerous builds = 251
Setting up run at Fri Dec 30 08:20:45 2022

Memory usage per processor = 960.195 Mbytes
    Step    Atoms         KinEng            CPU 
10905335     1095     0.07151688              0 
11111096     1089    0.066605161      2041.7957 
Loop time of 2041.8 on 40 procs for 205761 steps with 1089 atoms, finish time Fri Dec 30 08:54:47 2022


Pair  time (%) = 0.45353 (0.0222123)
Neigh time (%) = 5.36697 (0.262855)
Comm  time (%) = 13.819 (0.676808)
Outpt time (%) = 0.0004793 (2.34745e-05)
Other time (%) = 2022.16 (99.0381)

Nlocal:    27.225 ave 338 max 0 min
Histogram: 32 4 1 1 0 0 0 1 0 1
Nghost:    7.25 ave 90 max 0 min
Histogram: 34 2 1 1 0 0 0 0 0 2
Neighs:    3.25 ave 47 max 0 min
Histogram: 32 5 0 1 0 1 0 0 0 1

Total # of neighbors = 130
Ave neighs/atom = 0.119376
Neighbor list builds = 6507
Dangerous builds = 2
Setting up run at Fri Dec 30 08:54:47 2022

Memory usage per processor = 960.195 Mbytes
    Step    Atoms         KinEng            CPU 
11111096     1089    0.066605161              0 
11316857     1083     0.17868734      2070.9646 
Loop time of 2070.96 on 40 procs for 205761 steps with 1083 atoms, finish time Fri Dec 30 09:29:18 2022


Pair  time (%) = 0.449356 (0.0216979)
Neigh time (%) = 6.10175 (0.294633)
Comm  time (%) = 16.5282 (0.798093)
Outpt time (%) = 0.000570467 (2.7546e-05)
Other time (%) = 2047.88 (98.8855)

Nlocal:    27.075 ave 335 max 0 min
Histogram: 32 3 3 0 0 0 0 1 0 1
Nghost:    7.025 ave 84 max 0 min
Histogram: 33 2 1 2 0 0 0 1 0 1
Neighs:    3.275 ave 49 max 0 min
Histogram: 34 2 1 1 0 1 0 0 0 1

Total # of neighbors = 131
Ave neighs/atom = 0.12096
Neighbor list builds = 7458
Dangerous builds = 1081
Setting up run at Fri Dec 30 09:29:18 2022

Memory usage per processor = 960.195 Mbytes
    Step    Atoms         KinEng            CPU 
11316857     1083     0.17868734              0 
11522618     1074    0.098415089      2066.7828 
Loop time of 2066.78 on 40 procs for 205761 steps with 1074 atoms, finish time Fri Dec 30 10:03:45 2022


Pair  time (%) = 0.452991 (0.0219177)
Neigh time (%) = 7.49665 (0.362721)
Comm  time (%) = 19.9861 (0.967015)
Outpt time (%) = 0.0129761 (0.000627841)
Other time (%) = 2038.83 (98.6477)

Nlocal:    26.85 ave 333 max 0 min
Histogram: 32 4 2 0 0 0 0 1 0 1
Nghost:    6.75 ave 83 max 0 min
Histogram: 32 4 1 1 0 0 0 1 0 1
Neighs:    3.1 ave 50 max 0 min
Histogram: 32 3 3 1 0 0 0 0 0 1

Total # of neighbors = 124
Ave neighs/atom = 0.115456
Neighbor list builds = 9135
Dangerous builds = 57
Setting up run at Fri Dec 30 10:03:45 2022

Memory usage per processor = 960.195 Mbytes
    Step    Atoms         KinEng            CPU 
11522618     1074    0.098415089              0 
11728379     1065     0.15055734      2153.1063 
Loop time of 2153.11 on 40 procs for 205761 steps with 1065 atoms, finish time Fri Dec 30 10:39:38 2022


Pair  time (%) = 0.472182 (0.0219302)
Neigh time (%) = 16.6645 (0.773975)
Comm  time (%) = 41.3494 (1.92045)
Outpt time (%) = 0.000523842 (2.43296e-05)
Other time (%) = 2094.62 (97.2836)

Nlocal:    26.625 ave 332 max 0 min
Histogram: 32 4 1 1 0 0 0 1 0 1
Nghost:    7 ave 81 max 0 min
Histogram: 33 2 1 2 0 0 0 0 0 2
Neighs:    3.225 ave 53 max 0 min
Histogram: 34 1 1 3 0 0 0 0 0 1

Total # of neighbors = 129
Ave neighs/atom = 0.121127
Neighbor list builds = 20720
Dangerous builds = 10109
Setting up run at Fri Dec 30 10:39:38 2022

Memory usage per processor = 960.195 Mbytes
    Step    Atoms         KinEng            CPU 
11728379     1065     0.15055734              0 
11934140     1055     0.21042821      2091.2626 
Loop time of 2091.26 on 40 procs for 205761 steps with 1055 atoms, finish time Fri Dec 30 11:14:30 2022


Pair  time (%) = 0.456848 (0.0218456)
Neigh time (%) = 8.45136 (0.404127)
Comm  time (%) = 22.9786 (1.09879)
Outpt time (%) = 0.000470016 (2.24752e-05)
Other time (%) = 2059.38 (98.4752)

Nlocal:    26.375 ave 334 max 0 min
Histogram: 32 2 4 0 0 0 0 1 0 1
Nghost:    7.3 ave 77 max 0 min
Histogram: 32 3 0 2 1 0 0 0 0 2
Neighs:    3.075 ave 43 max 0 min
Histogram: 33 3 1 0 1 0 1 0 0 1

Total # of neighbors = 123
Ave neighs/atom = 0.116588
Neighbor list builds = 10287
Dangerous builds = 83
Setting up run at Fri Dec 30 11:14:30 2022

Memory usage per processor = 960.195 Mbytes
    Step    Atoms         KinEng            CPU 
11934140     1055     0.21042821              0 
12139901     1048     0.09972542      2071.7065 
Loop time of 2071.71 on 40 procs for 205761 steps with 1048 atoms, finish time Fri Dec 30 11:49:01 2022


Pair  time (%) = 0.459536 (0.0221815)
Neigh time (%) = 8.9072 (0.429945)
Comm  time (%) = 22.7379 (1.09755)
Outpt time (%) = 0.000494377 (2.38633e-05)
Other time (%) = 2039.6 (98.4503)

Nlocal:    26.2 ave 327 max 0 min
Histogram: 32 3 3 0 0 0 0 1 0 1
Nghost:    6.9 ave 70 max 0 min
Histogram: 31 4 0 2 1 0 0 0 0 2
Neighs:    3.25 ave 49 max 0 min
Histogram: 35 1 1 0 1 0 1 0 0 1

Total # of neighbors = 130
Ave neighs/atom = 0.124046
Neighbor list builds = 10850
Dangerous builds = 283
Setting up run at Fri Dec 30 11:49:02 2022

Memory usage per processor = 960.195 Mbytes
    Step    Atoms         KinEng            CPU 
12139901     1048     0.09972542              0 
12345662     1036     0.11566503      2066.0257 
Loop time of 2066.03 on 40 procs for 205761 steps with 1036 atoms, finish time Fri Dec 30 12:23:28 2022


Pair  time (%) = 0.455293 (0.0220372)
Neigh time (%) = 7.22565 (0.349737)
Comm  time (%) = 19.2607 (0.932257)
Outpt time (%) = 0.00048879 (2.36585e-05)
Other time (%) = 2039.08 (98.6959)

Nlocal:    25.9 ave 321 max 0 min
Histogram: 32 4 2 0 0 0 0 1 0 1
Nghost:    6.875 ave 82 max 0 min
Histogram: 34 2 0 0 2 0 0 0 1 1
Neighs:    3.3 ave 38 max 0 min
Histogram: 35 0 0 0 2 0 1 0 1 1

Total # of neighbors = 132
Ave neighs/atom = 0.127413
Neighbor list builds = 8798
Dangerous builds = 640
Setting up run at Fri Dec 30 12:23:28 2022

Memory usage per processor = 960.195 Mbytes
    Step    Atoms         KinEng            CPU 
12345662     1036     0.11566503              0 
12551423     1029     0.16292255      2040.2628 
Loop time of 2040.26 on 40 procs for 205761 steps with 1029 atoms, finish time Fri Dec 30 12:57:28 2022


Pair  time (%) = 0.449381 (0.0220256)
Neigh time (%) = 5.41753 (0.265531)
Comm  time (%) = 14.5926 (0.715233)
Outpt time (%) = 0.000559296 (2.7413e-05)
Other time (%) = 2019.8 (98.9972)

Nlocal:    25.725 ave 318 max 0 min
Histogram: 32 3 3 0 0 0 0 1 0 1
Nghost:    6.5 ave 65 max 0 min
Histogram: 31 3 2 0 2 0 0 0 1 1
Neighs:    2.45 ave 32 max 0 min
Histogram: 34 2 1 0 0 1 0 1 0 1

Total # of neighbors = 98
Ave neighs/atom = 0.0952381
Neighbor list builds = 6577
Dangerous builds = 3
Setting up run at Fri Dec 30 12:57:28 2022

Memory usage per processor = 960.195 Mbytes
    Step    Atoms         KinEng            CPU 
12551423     1029     0.16292255              0 
12757184     1024     0.13584383      2061.2171 
Loop time of 2061.22 on 40 procs for 205761 steps with 1024 atoms, finish time Fri Dec 30 13:31:49 2022


Pair  time (%) = 0.444822 (0.0215806)
Neigh time (%) = 6.8417 (0.331925)
Comm  time (%) = 19.1699 (0.930027)
Outpt time (%) = 0.000508271 (2.46588e-05)
Other time (%) = 2034.76 (98.7164)

Nlocal:    25.6 ave 310 max 0 min
Histogram: 32 4 1 1 0 0 0 1 0 1
Nghost:    6.925 ave 84 max 0 min
Histogram: 35 1 0 1 1 0 0 0 1 1
Neighs:    2.525 ave 28 max 0 min
Histogram: 33 1 2 0 1 0 0 1 1 1

Total # of neighbors = 101
Ave neighs/atom = 0.0986328
Neighbor list builds = 8256
Dangerous builds = 6
Setting up run at Fri Dec 30 13:31:49 2022

Memory usage per processor = 960.195 Mbytes
    Step    Atoms         KinEng            CPU 
12757184     1024     0.13584383              0 
12962945     1016     0.15665514      4026.9576 
Loop time of 4026.96 on 40 procs for 205761 steps with 1016 atoms, finish time Fri Dec 30 14:38:56 2022


Pair  time (%) = 0.43775 (0.0108705)
Neigh time (%) = 5.10125 (0.126678)
Comm  time (%) = 13.4935 (0.335078)
Outpt time (%) = 0.000475278 (1.18024e-05)
Other time (%) = 4007.93 (99.5274)

Nlocal:    25.4 ave 310 max 0 min
Histogram: 32 3 3 0 0 0 0 1 0 1
Nghost:    6.775 ave 69 max 0 min
Histogram: 32 3 0 1 1 1 0 0 0 2
Neighs:    2.4 ave 22 max 0 min
Histogram: 32 2 1 1 0 1 0 0 1 2

Total # of neighbors = 96
Ave neighs/atom = 0.0944882
Neighbor list builds = 6199
Dangerous builds = 240
Setting up run at Fri Dec 30 14:45:46 2022

Memory usage per processor = 960.195 Mbytes
    Step    Atoms         KinEng            CPU 
12962945     1016     0.15665514              0 
13168706     1002     0.13597575      2232.3174 
Loop time of 2232.32 on 40 procs for 205761 steps with 1002 atoms, finish time Fri Dec 30 15:22:58 2022


Pair  time (%) = 0.439399 (0.0196835)
Neigh time (%) = 5.83461 (0.26137)
Comm  time (%) = 14.4056 (0.645321)
Outpt time (%) = 0.00405571 (0.000181682)
Other time (%) = 2211.63 (99.0734)

Nlocal:    25.05 ave 310 max 0 min
Histogram: 32 3 3 0 0 0 0 1 0 1
Nghost:    6.7 ave 66 max 0 min
Histogram: 31 4 0 1 1 1 0 0 0 2
Neighs:    2.35 ave 26 max 0 min
Histogram: 32 2 2 0 1 0 1 0 1 1

Total # of neighbors = 94
Ave neighs/atom = 0.0938124
Neighbor list builds = 7053
Dangerous builds = 212
Setting up run at Fri Dec 30 15:22:58 2022

Memory usage per processor = 960.195 Mbytes
    Step    Atoms         KinEng            CPU 
13168706     1002     0.13597575              0 
13374467      994     0.12874699      2044.5273 
Loop time of 2044.53 on 40 procs for 205761 steps with 994 atoms, finish time Fri Dec 30 15:57:02 2022


Pair  time (%) = 0.436091 (0.0213297)
Neigh time (%) = 6.0342 (0.295139)
Comm  time (%) = 16.8558 (0.824434)
Outpt time (%) = 0.000520119 (2.54396e-05)
Other time (%) = 2021.2 (98.8591)

Nlocal:    24.85 ave 306 max 0 min
Histogram: 32 4 1 1 0 0 0 1 0 1
Nghost:    6.425 ave 86 max 0 min
Histogram: 35 1 0 1 1 0 0 1 0 1
Neighs:    2.025 ave 25 max 0 min
Histogram: 34 2 0 1 0 0 0 1 1 1

Total # of neighbors = 81
Ave neighs/atom = 0.0814889
Neighbor list builds = 7403
Dangerous builds = 1790
Setting up run at Fri Dec 30 15:57:03 2022

Memory usage per processor = 960.195 Mbytes
    Step    Atoms         KinEng            CPU 
13374467      994     0.12874699              0 
13580228      987     0.17866524      2020.5798 
Loop time of 2020.62 on 40 procs for 205761 steps with 987 atoms, finish time Fri Dec 30 16:30:43 2022


Pair  time (%) = 0.432696 (0.0214141)
Neigh time (%) = 3.31097 (0.16386)
Comm  time (%) = 9.58265 (0.474244)
Outpt time (%) = 0.000270774 (1.34006e-05)
Other time (%) = 2007.29 (99.3405)

Nlocal:    24.675 ave 303 max 0 min
Histogram: 32 2 3 1 0 0 0 1 0 1
Nghost:    6.575 ave 65 max 0 min
Histogram: 32 2 2 1 0 0 1 0 0 2
Neighs:    2.075 ave 29 max 0 min
Histogram: 33 3 0 1 1 0 1 0 0 1

Total # of neighbors = 83
Ave neighs/atom = 0.0840932
Neighbor list builds = 4016
Dangerous builds = 167
Setting up run at Fri Dec 30 16:30:43 2022

Memory usage per processor = 960.195 Mbytes
    Step    Atoms         KinEng            CPU 
13580228      987     0.17866524              0 
13785989      977     0.10905352      2018.9775 
Loop time of 2018.98 on 40 procs for 205761 steps with 977 atoms, finish time Fri Dec 30 17:04:22 2022


Pair  time (%) = 0.432434 (0.0214185)
Neigh time (%) = 3.98644 (0.197448)
Comm  time (%) = 11.1603 (0.55277)
Outpt time (%) = 0.000490867 (2.43127e-05)
Other time (%) = 2003.4 (99.2283)

Nlocal:    24.425 ave 304 max 0 min
Histogram: 32 4 1 1 0 0 0 1 0 1
Nghost:    6.575 ave 70 max 0 min
Histogram: 34 2 0 0 1 1 0 0 0 2
Neighs:    2.5 ave 32 max 0 min
Histogram: 35 0 1 0 1 0 2 0 0 1

Total # of neighbors = 100
Ave neighs/atom = 0.102354
Neighbor list builds = 4865
Dangerous builds = 437
Setting up run at Fri Dec 30 17:04:23 2022

Memory usage per processor = 960.195 Mbytes
    Step    Atoms         KinEng            CPU 
13785989      977     0.10905352              0 
13991750      967     0.21250497       2076.063 
Loop time of 2076.06 on 40 procs for 205761 steps with 967 atoms, finish time Fri Dec 30 17:38:59 2022


Pair  time (%) = 0.433208 (0.0208668)
Neigh time (%) = 8.8715 (0.427323)
Comm  time (%) = 22.1623 (1.06751)
Outpt time (%) = 9.08037e-05 (4.37384e-06)
Other time (%) = 2044.6 (98.4843)

Nlocal:    24.175 ave 305 max 0 min
Histogram: 32 3 3 0 0 0 0 1 0 1
Nghost:    6.275 ave 66 max 0 min
Histogram: 34 1 0 1 1 0 1 0 1 1
Neighs:    2.5 ave 30 max 0 min
Histogram: 33 1 1 1 2 0 0 1 0 1

Total # of neighbors = 100
Ave neighs/atom = 0.103413
Neighbor list builds = 10773
Dangerous builds = 995
Setting up run at Fri Dec 30 17:38:59 2022

Memory usage per processor = 960.195 Mbytes
    Step    Atoms         KinEng            CPU 
13991750      967     0.21250497              0 
14197511      962     0.23671335      2053.2658 
Loop time of 2053.27 on 40 procs for 205761 steps with 962 atoms, finish time Fri Dec 30 18:13:12 2022


Pair  time (%) = 0.430662 (0.0209745)
Neigh time (%) = 6.93801 (0.337901)
Comm  time (%) = 17.7475 (0.864356)
Outpt time (%) = 0.00052844 (2.57366e-05)
Other time (%) = 2028.15 (98.7767)

Nlocal:    24.05 ave 305 max 0 min
Histogram: 32 2 4 0 0 0 0 1 0 1
Nghost:    6.375 ave 62 max 0 min
Histogram: 33 1 1 1 1 0 1 0 1 1
Neighs:    2.025 ave 27 max 0 min
Histogram: 33 2 0 3 0 0 1 0 0 1

Total # of neighbors = 81
Ave neighs/atom = 0.0841996
Neighbor list builds = 8382
Dangerous builds = 104
Setting up run at Fri Dec 30 18:13:12 2022

Memory usage per processor = 960.195 Mbytes
    Step    Atoms         KinEng            CPU 
14197511      962     0.23671335              0 
14403272      957      0.1889788      2063.7385 
Loop time of 2063.74 on 40 procs for 205761 steps with 957 atoms, finish time Fri Dec 30 18:47:36 2022


Pair  time (%) = 0.430919 (0.0208805)
Neigh time (%) = 7.6474 (0.37056)
Comm  time (%) = 18.9356 (0.91754)
Outpt time (%) = 0.000491204 (2.38016e-05)
Other time (%) = 2036.72 (98.691)

Nlocal:    23.925 ave 294 max 0 min
Histogram: 32 3 3 0 0 0 0 1 0 1
Nghost:    6 ave 63 max 0 min
Histogram: 33 3 0 0 1 0 1 0 1 1
Neighs:    1.725 ave 20 max 0 min
Histogram: 32 3 1 0 0 1 2 0 0 1

Total # of neighbors = 69
Ave neighs/atom = 0.0721003
Neighbor list builds = 9250
Dangerous builds = 53
Setting up run at Fri Dec 30 18:47:36 2022

Memory usage per processor = 960.195 Mbytes
    Step    Atoms         KinEng            CPU 
14403272      957      0.1889788              0 
14609033      946     0.16737967      2029.3651 
Loop time of 2029.37 on 40 procs for 205761 steps with 946 atoms, finish time Fri Dec 30 19:21:25 2022


Pair  time (%) = 0.426331 (0.0210081)
Neigh time (%) = 5.07878 (0.250264)
Comm  time (%) = 12.4529 (0.613634)
Outpt time (%) = 0.000275972 (1.35989e-05)
Other time (%) = 2011.41 (99.1151)

Nlocal:    23.65 ave 285 max 0 min
Histogram: 32 3 3 0 0 0 0 0 1 1
Nghost:    5.675 ave 61 max 0 min
Histogram: 34 2 0 0 1 1 0 0 0 2
Neighs:    1.475 ave 21 max 0 min
Histogram: 33 3 1 1 0 1 0 0 0 1

Total # of neighbors = 59
Ave neighs/atom = 0.0623679
Neighbor list builds = 6193
Dangerous builds = 1021
Setting up run at Fri Dec 30 19:21:25 2022

Memory usage per processor = 960.195 Mbytes
    Step    Atoms         KinEng            CPU 
14609033      946     0.16737967              0 
14814794      938     0.14665667      2058.4687 
Loop time of 2058.47 on 40 procs for 205761 steps with 938 atoms, finish time Fri Dec 30 19:55:44 2022


Pair  time (%) = 0.436114 (0.0211863)
Neigh time (%) = 7.87431 (0.382532)
Comm  time (%) = 18.3176 (0.889864)
Outpt time (%) = 0.00053418 (2.59504e-05)
Other time (%) = 2031.84 (98.7064)

Nlocal:    23.45 ave 288 max 0 min
Histogram: 32 3 3 0 0 0 0 1 0 1
Nghost:    5.825 ave 53 max 0 min
Histogram: 30 4 1 1 1 0 0 1 0 2
Neighs:    2.075 ave 25 max 0 min
Histogram: 33 2 0 0 3 0 1 0 0 1

Total # of neighbors = 83
Ave neighs/atom = 0.0884861
Neighbor list builds = 9560
Dangerous builds = 757
Setting up run at Fri Dec 30 19:55:44 2022

Memory usage per processor = 960.195 Mbytes
    Step    Atoms         KinEng            CPU 
14814794      938     0.14665667              0 
15020555      923     0.13432763      2193.4764 
Loop time of 2193.48 on 40 procs for 205761 steps with 923 atoms, finish time Fri Dec 30 20:32:17 2022


Pair  time (%) = 0.429638 (0.0195871)
Neigh time (%) = 7.4438 (0.339361)
Comm  time (%) = 18.0732 (0.823953)
Outpt time (%) = 0.000278671 (1.27045e-05)
Other time (%) = 2167.53 (98.8171)

Nlocal:    23.075 ave 285 max 0 min
Histogram: 32 4 2 0 0 0 0 1 0 1
Nghost:    5 ave 56 max 0 min
Histogram: 35 1 0 1 0 0 1 0 0 2
Neighs:    1.8 ave 29 max 0 min
Histogram: 33 2 3 0 1 0 0 0 0 1

Total # of neighbors = 72
Ave neighs/atom = 0.0780065
Neighbor list builds = 9050
Dangerous builds = 1045
Setting up run at Fri Dec 30 20:32:17 2022

Memory usage per processor = 960.195 Mbytes
    Step    Atoms         KinEng            CPU 
15020555      923     0.13432763              0 
15226316      916     0.17961937      2114.2209 
Loop time of 2114.22 on 40 procs for 205761 steps with 916 atoms, finish time Fri Dec 30 21:07:32 2022


Pair  time (%) = 0.425217 (0.0201123)
Neigh time (%) = 7.03349 (0.332675)
Comm  time (%) = 18.0217 (0.852402)
Outpt time (%) = 0.000516423 (2.44262e-05)
Other time (%) = 2088.74 (98.7948)

Nlocal:    22.9 ave 281 max 0 min
Histogram: 32 3 3 0 0 0 0 1 0 1
Nghost:    5.425 ave 53 max 0 min
Histogram: 32 3 1 0 1 0 0 1 0 2
Neighs:    1.625 ave 30 max 0 min
Histogram: 35 2 0 1 1 0 0 0 0 1

Total # of neighbors = 65
Ave neighs/atom = 0.0709607
Neighbor list builds = 8543
Dangerous builds = 1044
Setting up run at Fri Dec 30 21:07:32 2022

Memory usage per processor = 960.195 Mbytes
    Step    Atoms         KinEng            CPU 
15226316      916     0.17961937              0 
15432077      912     0.22244987      2068.0775 
Loop time of 2068.08 on 40 procs for 205761 steps with 912 atoms, finish time Fri Dec 30 21:42:00 2022


Pair  time (%) = 0.429432 (0.0207648)
Neigh time (%) = 8.21396 (0.397179)
Comm  time (%) = 21.7164 (1.05008)
Outpt time (%) = 0.000289676 (1.4007e-05)
Other time (%) = 2037.72 (98.532)

Nlocal:    22.8 ave 274 max 0 min
Histogram: 32 2 4 0 0 0 0 1 0 1
Nghost:    4.9 ave 57 max 0 min
Histogram: 34 2 0 1 0 1 0 0 1 1
Neighs:    1.15 ave 21 max 0 min
Histogram: 35 2 1 1 0 0 0 0 0 1

Total # of neighbors = 46
Ave neighs/atom = 0.0504386
Neighbor list builds = 9977
Dangerous builds = 1376
Setting up run at Fri Dec 30 21:42:00 2022

Memory usage per processor = 960.195 Mbytes
    Step    Atoms         KinEng            CPU 
15432077      912     0.22244987              0 
15637838      906     0.32246319      2054.7527 
Loop time of 2054.75 on 40 procs for 205761 steps with 906 atoms, finish time Fri Dec 30 22:16:15 2022


Pair  time (%) = 0.422647 (0.0205693)
Neigh time (%) = 7.2867 (0.354627)
Comm  time (%) = 17.8141 (0.866971)
Outpt time (%) = 0.0163629 (0.000796342)
Other time (%) = 2029.21 (98.757)

Nlocal:    22.65 ave 272 max 0 min
Histogram: 32 2 3 1 0 0 0 1 0 1
Nghost:    4.95 ave 55 max 0 min
Histogram: 35 1 0 0 0 1 1 0 1 1
Neighs:    1.175 ave 22 max 0 min
Histogram: 36 1 1 0 0 1 0 0 0 1

Total # of neighbors = 47
Ave neighs/atom = 0.0518764
Neighbor list builds = 8792
Dangerous builds = 2
Setting up run at Fri Dec 30 22:16:15 2022

Memory usage per processor = 960.195 Mbytes
    Step    Atoms         KinEng            CPU 
15637838      906     0.32246319              0 
15843599      898     0.39809179      2045.4632 
Loop time of 2045.47 on 40 procs for 205761 steps with 898 atoms, finish time Fri Dec 30 22:50:20 2022


Pair  time (%) = 0.423327 (0.0206958)
Neigh time (%) = 6.38019 (0.311917)
Comm  time (%) = 14.0146 (0.685151)
Outpt time (%) = 0.00882434 (0.000431408)
Other time (%) = 2024.65 (98.9818)

Nlocal:    22.45 ave 268 max 0 min
Histogram: 32 2 3 1 0 0 0 1 0 1
Nghost:    4.675 ave 50 max 0 min
Histogram: 34 2 0 0 1 0 1 0 0 2
Neighs:    1.25 ave 15 max 0 min
Histogram: 33 1 2 0 2 0 0 1 0 1

Total # of neighbors = 50
Ave neighs/atom = 0.0556793
Neighbor list builds = 7735
Dangerous builds = 1011
Setting up run at Fri Dec 30 22:50:20 2022

Memory usage per processor = 960.195 Mbytes
    Step    Atoms         KinEng            CPU 
15843599      898     0.39809179              0 
16049360      892     0.23185596      2045.5621 
Loop time of 2045.56 on 40 procs for 205761 steps with 892 atoms, finish time Fri Dec 30 23:24:26 2022


Pair  time (%) = 0.420235 (0.0205437)
Neigh time (%) = 6.76583 (0.330757)
Comm  time (%) = 12.3676 (0.604606)
Outpt time (%) = 0.000533709 (2.60911e-05)
Other time (%) = 2026.01 (99.0441)

Nlocal:    22.3 ave 260 max 0 min
Histogram: 32 3 2 1 0 0 0 0 1 1
Nghost:    4.8 ave 51 max 0 min
Histogram: 34 2 0 0 1 0 1 0 0 2
Neighs:    1.225 ave 14 max 0 min
Histogram: 34 1 1 1 0 0 1 0 0 2

Total # of neighbors = 49
Ave neighs/atom = 0.0549327
Neighbor list builds = 8146
Dangerous builds = 111
Setting up run at Fri Dec 30 23:24:26 2022

Memory usage per processor = 960.195 Mbytes
    Step    Atoms         KinEng            CPU 
16049360      892     0.23185596              0 
16255121      885     0.33635713      2039.0834 
Loop time of 2039.08 on 40 procs for 205761 steps with 885 atoms, finish time Fri Dec 30 23:58:25 2022


Pair  time (%) = 0.422527 (0.0207214)
Neigh time (%) = 5.40539 (0.265089)
Comm  time (%) = 12.1326 (0.595003)
Outpt time (%) = 0.000284893 (1.39716e-05)
Other time (%) = 2021.12 (99.1192)

Nlocal:    22.125 ave 259 max 0 min
Histogram: 32 4 0 2 0 0 0 0 1 1
Nghost:    4.25 ave 49 max 0 min
Histogram: 34 2 0 1 0 1 0 0 0 2
Neighs:    1.3 ave 16 max 0 min
Histogram: 35 1 0 1 0 0 1 0 1 1

Total # of neighbors = 52
Ave neighs/atom = 0.0587571
Neighbor list builds = 6539
Dangerous builds = 609
Setting up run at Fri Dec 30 23:58:25 2022

Memory usage per processor = 960.195 Mbytes
    Step    Atoms         KinEng            CPU 
16255121      885     0.33635713              0 
16460882      881     0.30060525      2054.0748 
Loop time of 2054.07 on 40 procs for 205761 steps with 881 atoms, finish time Sat Dec 31 00:32:39 2022


Pair  time (%) = 0.425648 (0.0207221)
Neigh time (%) = 8.08863 (0.393785)
Comm  time (%) = 19.38 (0.943489)
Outpt time (%) = 0.000422608 (2.05741e-05)
Other time (%) = 2026.18 (98.642)

Nlocal:    22.025 ave 261 max 0 min
Histogram: 32 4 0 2 0 0 0 1 0 1
Nghost:    4.275 ave 50 max 0 min
Histogram: 33 3 0 1 0 1 0 0 1 1
Neighs:    1.2 ave 18 max 0 min
Histogram: 33 2 3 0 0 0 1 0 0 1

Total # of neighbors = 48
Ave neighs/atom = 0.0544835
Neighbor list builds = 9784
Dangerous builds = 983
Setting up run at Sat Dec 31 00:32:39 2022

Memory usage per processor = 960.195 Mbytes
    Step    Atoms         KinEng            CPU 
16460882      881     0.30060525              0 
16666643      874     0.25859118      2046.3234 
Loop time of 2046.32 on 40 procs for 205761 steps with 874 atoms, finish time Sat Dec 31 01:06:46 2022


Pair  time (%) = 0.420333 (0.0205409)
Neigh time (%) = 6.47823 (0.316579)
Comm  time (%) = 16.2728 (0.795222)
Outpt time (%) = 0.00028874 (1.41102e-05)
Other time (%) = 2023.15 (98.8676)

Nlocal:    21.85 ave 254 max 0 min
Histogram: 32 3 2 1 0 0 0 0 1 1
Nghost:    4.075 ave 49 max 0 min
Histogram: 35 1 0 0 2 0 0 0 1 1
Neighs:    1.225 ave 18 max 0 min
Histogram: 33 4 1 0 0 0 0 1 0 1

Total # of neighbors = 49
Ave neighs/atom = 0.0560641
Neighbor list builds = 7849
Dangerous builds = 862
Setting up run at Sat Dec 31 01:06:46 2022

Memory usage per processor = 960.195 Mbytes
    Step    Atoms         KinEng            CPU 
16666643      874     0.25859118              0 
16872404      861     0.31287892      2067.7527 
Loop time of 2067.75 on 40 procs for 205761 steps with 861 atoms, finish time Sat Dec 31 01:41:13 2022


Pair  time (%) = 0.422633 (0.0204393)
Neigh time (%) = 9.14619 (0.442325)
Comm  time (%) = 20.2186 (0.977804)
Outpt time (%) = 0.00445125 (0.00021527)
Other time (%) = 2037.96 (98.5592)

Nlocal:    21.525 ave 251 max 0 min
Histogram: 32 2 4 0 0 0 0 0 1 1
Nghost:    4.075 ave 52 max 0 min
Histogram: 35 1 0 1 1 0 0 0 1 1
Neighs:    1.1 ave 16 max 0 min
Histogram: 34 2 2 0 0 0 0 0 1 1

Total # of neighbors = 44
Ave neighs/atom = 0.0511034
Neighbor list builds = 11076
Dangerous builds = 1379
Setting up run at Sat Dec 31 01:41:13 2022

Memory usage per processor = 960.195 Mbytes
    Step    Atoms         KinEng            CPU 
16872404      861     0.31287892              0 
17078165      852     0.26159914      2064.9386 
Loop time of 2064.94 on 40 procs for 205761 steps with 852 atoms, finish time Sat Dec 31 02:15:38 2022


Pair  time (%) = 0.421697 (0.0204218)
Neigh time (%) = 8.54792 (0.413955)
Comm  time (%) = 19.6785 (0.95298)
Outpt time (%) = 0.00024205 (1.17219e-05)
Other time (%) = 2036.29 (98.6126)

Nlocal:    21.3 ave 249 max 0 min
Histogram: 32 3 2 1 0 0 0 0 1 1
Nghost:    4.075 ave 44 max 0 min
Histogram: 32 4 0 0 1 0 1 0 0 2
Neighs:    1.05 ave 15 max 0 min
Histogram: 35 1 1 0 1 0 0 0 0 2

Total # of neighbors = 42
Ave neighs/atom = 0.0492958
Neighbor list builds = 10369
Dangerous builds = 1058
Setting up run at Sat Dec 31 02:15:38 2022

Memory usage per processor = 960.195 Mbytes
    Step    Atoms         KinEng            CPU 
17078165      852     0.26159914              0 
17283926      849     0.30027226      2032.8545 
Loop time of 2032.85 on 40 procs for 205761 steps with 849 atoms, finish time Sat Dec 31 02:49:31 2022


Pair  time (%) = 0.417112 (0.0205185)
Neigh time (%) = 5.92396 (0.291411)
Comm  time (%) = 12.5633 (0.618013)
Outpt time (%) = 0.00055762 (2.74304e-05)
Other time (%) = 2013.95 (99.07)

Nlocal:    21.225 ave 247 max 0 min
Histogram: 32 2 4 0 0 0 0 0 1 1
Nghost:    3.725 ave 40 max 0 min
Histogram: 34 2 0 0 1 1 0 0 0 2
Neighs:    1.175 ave 16 max 0 min
Histogram: 33 3 2 0 0 0 0 0 1 1

Total # of neighbors = 47
Ave neighs/atom = 0.0553592
Neighbor list builds = 7134
Dangerous builds = 204
Setting up run at Sat Dec 31 02:49:31 2022

Memory usage per processor = 960.195 Mbytes
    Step    Atoms         KinEng            CPU 
17283926      849     0.30027226              0 
17489687      839     0.38153241      2055.4441 
Loop time of 2055.44 on 40 procs for 205761 steps with 839 atoms, finish time Sat Dec 31 03:23:47 2022


Pair  time (%) = 0.417281 (0.0203013)
Neigh time (%) = 7.90498 (0.384588)
Comm  time (%) = 16.126 (0.78455)
Outpt time (%) = 0.000246551 (1.1995e-05)
Other time (%) = 2031 (98.8105)

Nlocal:    20.975 ave 247 max 0 min
Histogram: 32 3 2 1 0 0 0 0 1 1
Nghost:    3.95 ave 39 max 0 min
Histogram: 31 4 1 0 0 1 1 0 0 2
Neighs:    1.175 ave 23 max 0 min
Histogram: 37 1 0 0 0 0 1 0 0 1

Total # of neighbors = 47
Ave neighs/atom = 0.0560191
Neighbor list builds = 9529
Dangerous builds = 801
Setting up run at Sat Dec 31 03:23:47 2022

Memory usage per processor = 960.195 Mbytes
    Step    Atoms         KinEng            CPU 
17489687      839     0.38153241              0 
17695448      834     0.36479562      2056.4883 
Loop time of 2056.49 on 40 procs for 205761 steps with 834 atoms, finish time Sat Dec 31 03:58:03 2022


Pair  time (%) = 0.417465 (0.0202999)
Neigh time (%) = 7.53842 (0.366567)
Comm  time (%) = 17.1021 (0.831616)
Outpt time (%) = 0.000558445 (2.71553e-05)
Other time (%) = 2031.43 (98.7815)

Nlocal:    20.85 ave 243 max 0 min
Histogram: 32 2 4 0 0 0 0 0 1 1
Nghost:    3.55 ave 37 max 0 min
Histogram: 31 5 0 0 1 1 0 0 0 2
Neighs:    1.375 ave 26 max 0 min
Histogram: 34 4 0 0 1 0 0 0 0 1

Total # of neighbors = 55
Ave neighs/atom = 0.0659472
Neighbor list builds = 9083
Dangerous builds = 214
Setting up run at Sat Dec 31 03:58:03 2022

Memory usage per processor = 960.195 Mbytes
    Step    Atoms         KinEng            CPU 
17695448      834     0.36479562              0 
17901209      831      0.5222416      2083.2855 
Loop time of 2083.29 on 40 procs for 205761 steps with 831 atoms, finish time Sat Dec 31 04:32:47 2022


Pair  time (%) = 0.426849 (0.0204892)
Neigh time (%) = 11.4744 (0.550782)
Comm  time (%) = 26.2301 (1.25908)
Outpt time (%) = 0.000475632 (2.28308e-05)
Other time (%) = 2045.15 (98.1696)

Nlocal:    20.775 ave 242 max 0 min
Histogram: 32 2 3 1 0 0 0 0 1 1
Nghost:    3.475 ave 43 max 0 min
Histogram: 35 1 0 2 0 0 0 1 0 1
Neighs:    1.025 ave 22 max 0 min
Histogram: 37 1 0 0 0 1 0 0 0 1

Total # of neighbors = 41
Ave neighs/atom = 0.0493381
Neighbor list builds = 14156
Dangerous builds = 6235
Setting up run at Sat Dec 31 04:32:47 2022

Memory usage per processor = 960.195 Mbytes
    Step    Atoms         KinEng            CPU 
17901209      831      0.5222416              0 
18106970      825     0.48259447      2036.0329 
Loop time of 2036.03 on 40 procs for 205761 steps with 825 atoms, finish time Sat Dec 31 05:06:43 2022


Pair  time (%) = 0.415228 (0.020394)
Neigh time (%) = 6.42922 (0.315772)
Comm  time (%) = 14.2774 (0.701235)
Outpt time (%) = 0.000226536 (1.11263e-05)
Other time (%) = 2014.91 (98.9626)

Nlocal:    20.625 ave 233 max 0 min
Histogram: 32 2 3 1 0 0 0 0 0 2
Nghost:    3.55 ave 46 max 0 min
Histogram: 35 1 0 1 1 0 1 0 0 1
Neighs:    1.3 ave 18 max 0 min
Histogram: 35 1 0 1 0 1 0 0 1 1

Total # of neighbors = 52
Ave neighs/atom = 0.0630303
Neighbor list builds = 7732
Dangerous builds = 192
Setting up run at Sat Dec 31 05:06:43 2022

Memory usage per processor = 960.195 Mbytes
    Step    Atoms         KinEng            CPU 
18106970      825     0.48259447              0 
18312731      821     0.43335237       2035.923 
Loop time of 2035.92 on 40 procs for 205761 steps with 821 atoms, finish time Sat Dec 31 05:40:39 2022


Pair  time (%) = 0.421489 (0.0207026)
Neigh time (%) = 5.62731 (0.276401)
Comm  time (%) = 12.3867 (0.608406)
Outpt time (%) = 0.000542663 (2.66544e-05)
Other time (%) = 2017.49 (99.0945)

Nlocal:    20.525 ave 231 max 0 min
Histogram: 32 2 3 1 0 0 0 0 0 2
Nghost:    3.65 ave 44 max 0 min
Histogram: 35 1 0 0 2 0 0 0 1 1
Neighs:    1.175 ave 16 max 0 min
Histogram: 32 4 1 1 0 0 0 0 1 1

Total # of neighbors = 47
Ave neighs/atom = 0.0572473
Neighbor list builds = 6775
Dangerous builds = 1
Setting up run at Sat Dec 31 05:40:39 2022

Memory usage per processor = 960.195 Mbytes
    Step    Atoms         KinEng            CPU 
18312731      821     0.43335237              0 
18518492      818     0.40965315      2020.4903 
Loop time of 2020.5 on 40 procs for 205761 steps with 818 atoms, finish time Sat Dec 31 06:14:19 2022


Pair  time (%) = 0.418673 (0.0207212)
Neigh time (%) = 4.62123 (0.228717)
Comm  time (%) = 10.6013 (0.524685)
Outpt time (%) = 0.00957845 (0.000474063)
Other time (%) = 2004.85 (99.2254)

Nlocal:    20.45 ave 234 max 0 min
Histogram: 32 2 3 1 0 0 0 0 0 2
Nghost:    3.6 ave 45 max 0 min
Histogram: 35 1 0 0 1 1 0 1 0 1
Neighs:    1.15 ave 16 max 0 min
Histogram: 33 4 0 1 0 0 0 0 1 1

Total # of neighbors = 46
Ave neighs/atom = 0.0562347
Neighbor list builds = 5602
Dangerous builds = 587
Setting up run at Sat Dec 31 06:14:20 2022

Memory usage per processor = 960.195 Mbytes
    Step    Atoms         KinEng            CPU 
18518492      818     0.40965315              0 
18724253      812      0.3812355      2071.0228 
Loop time of 2071.02 on 40 procs for 205761 steps with 812 atoms, finish time Sat Dec 31 06:48:51 2022


Pair  time (%) = 0.419334 (0.0202477)
Neigh time (%) = 9.8801 (0.477064)
Comm  time (%) = 21.6167 (1.04377)
Outpt time (%) = 0.00052353 (2.52788e-05)
Other time (%) = 2039.11 (98.4589)

[...]
Neigh time (%) = 5.37725 (0.265902)
Comm  time (%) = 10.7633 (0.53224)
Outpt time (%) = 0.00058494 (2.89249e-05)
Other time (%) = 2005.73 (99.1822)

Nlocal:    13.7 ave 126 max 0 min
Histogram: 31 1 1 3 2 0 0 0 1 1
Nghost:    2.025 ave 27 max 0 min
Histogram: 33 4 1 0 0 0 0 1 0 1
Neighs:    0.55 ave 6 max 0 min
Histogram: 32 2 0 3 0 1 0 0 1 1

Total # of neighbors = 22
Ave neighs/atom = 0.040146
Neighbor list builds = 6443
Dangerous builds = 0
Setting up run at Sun Jan  1 11:11:07 2023

Memory usage per processor = 960.195 Mbytes
    Step    Atoms         KinEng            CPU 
28806572      548     0.46152812              0 
29012333      546     0.47599163       2018.961 
Loop time of 2018.96 on 40 procs for 205761 steps with 546 atoms, finish time Sun Jan  1 11:44:46 2023


Pair  time (%) = 0.39958 (0.0197914)
Neigh time (%) = 4.35802 (0.215855)
Comm  time (%) = 9.12525 (0.451977)
Outpt time (%) = 0.000275824 (1.36617e-05)
Other time (%) = 2005.08 (99.3124)

Nlocal:    13.65 ave 122 max 0 min
Histogram: 31 2 1 2 1 1 0 0 1 1
Nghost:    2.125 ave 26 max 0 min
Histogram: 32 4 1 1 0 0 0 0 1 1
Neighs:    0.55 ave 6 max 0 min
Histogram: 33 1 0 2 0 1 2 0 0 1

Total # of neighbors = 22
Ave neighs/atom = 0.040293
Neighbor list builds = 5281
Dangerous builds = 548
Setting up run at Sun Jan  1 11:44:46 2023

Memory usage per processor = 960.195 Mbytes
    Step    Atoms         KinEng            CPU 
29012333      546     0.47599163              0 
29218094      542     0.55342235      2027.2476 
Loop time of 2027.25 on 40 procs for 205761 steps with 542 atoms, finish time Sun Jan  1 12:18:34 2023


Pair  time (%) = 0.400439 (0.0197528)
Neigh time (%) = 5.16915 (0.254983)
Comm  time (%) = 9.40217 (0.46379)
Outpt time (%) = 0.000509877 (2.51512e-05)
Other time (%) = 2012.28 (99.2614)

Nlocal:    13.55 ave 125 max 0 min
Histogram: 31 1 1 4 1 0 0 0 1 1
Nghost:    2.1 ave 23 max 0 min
Histogram: 32 1 3 2 0 0 0 0 1 1
Neighs:    0.575 ave 6 max 0 min
Histogram: 32 0 0 4 0 3 0 0 0 1

Total # of neighbors = 23
Ave neighs/atom = 0.0424354
Neighbor list builds = 6196
Dangerous builds = 0
Setting up run at Sun Jan  1 12:18:34 2023

Memory usage per processor = 960.195 Mbytes
    Step    Atoms         KinEng            CPU 
29218094      542     0.55342235              0 
29423855      534      0.6429518      2052.3222 
Loop time of 2052.32 on 40 procs for 205761 steps with 534 atoms, finish time Sun Jan  1 12:52:46 2023


Pair  time (%) = 0.404033 (0.0196866)
Neigh time (%) = 8.52426 (0.415347)
Comm  time (%) = 14.3421 (0.698821)
Outpt time (%) = 0.000184242 (8.97726e-06)
Other time (%) = 2029.05 (98.8661)

Nlocal:    13.35 ave 124 max 0 min
Histogram: 31 1 2 2 2 0 0 0 1 1
Nghost:    1.875 ave 21 max 0 min
Histogram: 33 2 1 2 0 0 0 0 1 1
Neighs:    0.475 ave 5 max 0 min
Histogram: 34 0 2 0 0 0 1 0 1 2

Total # of neighbors = 19
Ave neighs/atom = 0.0355805
Neighbor list builds = 10231
Dangerous builds = 439
Setting up run at Sun Jan  1 12:52:46 2023

Memory usage per processor = 960.195 Mbytes
    Step    Atoms         KinEng            CPU 
29423855      534      0.6429518              0 
29629616      530     0.60791713        2060.13 
Loop time of 2060.13 on 40 procs for 205761 steps with 530 atoms, finish time Sun Jan  1 13:27:06 2023


Pair  time (%) = 0.40529 (0.019673)
Neigh time (%) = 8.6792 (0.421294)
Comm  time (%) = 15.2162 (0.738605)
Outpt time (%) = 0.00051368 (2.49343e-05)
Other time (%) = 2035.83 (98.8204)

Nlocal:    13.25 ave 125 max 0 min
Histogram: 31 2 2 2 0 1 0 1 0 1
Nghost:    2.075 ave 27 max 0 min
Histogram: 33 3 0 1 1 1 0 0 0 1
Neighs:    0.6 ave 4 max 0 min
Histogram: 32 0 1 0 0 1 0 3 0 3

Total # of neighbors = 24
Ave neighs/atom = 0.045283
Neighbor list builds = 10389
Dangerous builds = 13
Setting up run at Sun Jan  1 13:27:06 2023

Memory usage per processor = 960.195 Mbytes
    Step    Atoms         KinEng            CPU 
29629616      530     0.60791713              0 
29835377      528     0.61770161      2050.9334 
Loop time of 2050.93 on 40 procs for 205761 steps with 528 atoms, finish time Sun Jan  1 14:01:17 2023


Pair  time (%) = 0.400034 (0.019505)
Neigh time (%) = 6.91315 (0.337073)
Comm  time (%) = 12.5609 (0.612449)
Outpt time (%) = 0.00024695 (1.20408e-05)
Other time (%) = 2031.06 (99.031)

Nlocal:    13.2 ave 129 max 0 min
Histogram: 31 1 2 3 1 0 0 1 0 1
Nghost:    1.875 ave 22 max 0 min
Histogram: 34 2 0 1 0 0 1 1 0 1
Neighs:    0.875 ave 9 max 0 min
Histogram: 32 2 0 1 1 2 0 1 0 1

Total # of neighbors = 35
Ave neighs/atom = 0.0662879
Neighbor list builds = 8277
Dangerous builds = 1
Setting up run at Sun Jan  1 14:01:17 2023

Memory usage per processor = 960.195 Mbytes
    Step    Atoms         KinEng            CPU 
29835377      528     0.61770161              0 
30041138      524     0.60747157      2033.2894 
Loop time of 2033.29 on 40 procs for 205761 steps with 524 atoms, finish time Sun Jan  1 14:35:11 2023


Pair  time (%) = 0.401678 (0.0197551)
Neigh time (%) = 6.09685 (0.299852)
Comm  time (%) = 11.2293 (0.552273)
Outpt time (%) = 0.000463702 (2.28055e-05)
Other time (%) = 2015.56 (99.1281)

Nlocal:    13.1 ave 121 max 0 min
Histogram: 31 1 3 1 2 0 0 0 1 1
Nghost:    1.975 ave 21 max 0 min
Histogram: 33 2 1 0 1 1 0 0 1 1
Neighs:    0.675 ave 6 max 0 min
Histogram: 32 2 0 2 0 0 1 0 1 2

Total # of neighbors = 27
Ave neighs/atom = 0.0515267
Neighbor list builds = 7308
Dangerous builds = 43
Setting up run at Sun Jan  1 14:35:11 2023

Memory usage per processor = 960.195 Mbytes
    Step    Atoms         KinEng            CPU 
30041138      524     0.60747157              0 
30246899      520     0.67137285       2065.598 
Loop time of 2065.6 on 40 procs for 205761 steps with 520 atoms, finish time Sun Jan  1 15:09:36 2023


Pair  time (%) = 0.410899 (0.0198925)
Neigh time (%) = 8.69962 (0.421167)
Comm  time (%) = 15.0652 (0.72934)
Outpt time (%) = 0.000208046 (1.0072e-05)
Other time (%) = 2041.42 (98.8296)

Nlocal:    13 ave 120 max 0 min
Histogram: 31 2 2 0 3 0 0 0 1 1
Nghost:    1.8 ave 20 max 0 min
Histogram: 33 3 0 1 0 0 1 0 0 2
Neighs:    0.425 ave 4 max 0 min
Histogram: 33 0 3 0 0 0 0 2 0 2

Total # of neighbors = 17
Ave neighs/atom = 0.0326923
Neighbor list builds = 10421
Dangerous builds = 29
Setting up run at Sun Jan  1 15:09:36 2023

Memory usage per processor = 960.195 Mbytes
    Step    Atoms         KinEng            CPU 
30246899      520     0.67137285              0 
30452660      518     0.60406516      2022.9375 
Loop time of 2022.94 on 40 procs for 205761 steps with 518 atoms, finish time Sun Jan  1 15:43:19 2023


Pair  time (%) = 0.409482 (0.0202419)
Neigh time (%) = 5.37212 (0.26556)
Comm  time (%) = 7.63224 (0.377285)
Outpt time (%) = 0.000474414 (2.34517e-05)
Other time (%) = 2009.52 (99.3369)

Nlocal:    12.95 ave 121 max 0 min
Histogram: 32 0 3 2 1 0 0 0 1 1
Nghost:    1.725 ave 20 max 0 min
Histogram: 30 6 0 1 1 0 0 0 0 2
Neighs:    0.4 ave 4 max 0 min
Histogram: 34 0 0 0 0 3 0 2 0 1

Total # of neighbors = 16
Ave neighs/atom = 0.030888
Neighbor list builds = 6475
Dangerous builds = 547
Setting up run at Sun Jan  1 15:43:19 2023

Memory usage per processor = 960.195 Mbytes
    Step    Atoms         KinEng            CPU 
30452660      518     0.60406516              0 
30658421      517     0.59519091      2042.3872 
Loop time of 2042.39 on 40 procs for 205761 steps with 517 atoms, finish time Sun Jan  1 16:17:22 2023


Pair  time (%) = 0.407014 (0.0199283)
Neigh time (%) = 6.18609 (0.302885)
Comm  time (%) = 9.33734 (0.457178)
Outpt time (%) = 0.00363511 (0.000177983)
Other time (%) = 2026.45 (99.2198)

Nlocal:    12.925 ave 116 max 0 min
Histogram: 31 1 2 2 1 1 0 0 1 1
Nghost:    1.625 ave 18 max 0 min
Histogram: 32 4 0 1 1 0 0 0 0 2
Neighs:    0.475 ave 5 max 0 min
Histogram: 34 0 1 0 1 0 2 0 0 2

Total # of neighbors = 19
Ave neighs/atom = 0.0367505
Neighbor list builds = 7405
Dangerous builds = 0
Setting up run at Sun Jan  1 16:17:22 2023

Memory usage per processor = 960.195 Mbytes
    Step    Atoms         KinEng            CPU 
30658421      517     0.59519091              0 
30864182      513     0.58968354      2048.2421 
Loop time of 2048.24 on 40 procs for 205761 steps with 513 atoms, finish time Sun Jan  1 16:51:30 2023


Pair  time (%) = 0.414191 (0.0202218)
Neigh time (%) = 7.61489 (0.371777)
Comm  time (%) = 10.681 (0.521473)
Outpt time (%) = 0.000524947 (2.56291e-05)
Other time (%) = 2029.53 (99.0865)

Nlocal:    12.825 ave 120 max 0 min
Histogram: 31 1 3 1 2 0 0 0 1 1
Nghost:    1.65 ave 19 max 0 min
Histogram: 30 5 1 2 0 0 0 0 1 1
Neighs:    0.5 ave 5 max 0 min
Histogram: 32 0 2 0 3 0 1 0 1 1

Total # of neighbors = 20
Ave neighs/atom = 0.0389864
Neighbor list builds = 9143
Dangerous builds = 391
Setting up run at Sun Jan  1 16:51:30 2023

Memory usage per processor = 960.195 Mbytes
    Step    Atoms         KinEng            CPU 
30864182      513     0.58968354              0 
31069943      510     0.57812208      2021.6423 
Loop time of 2021.64 on 40 procs for 205761 steps with 510 atoms, finish time Sun Jan  1 17:25:12 2023


Pair  time (%) = 0.406273 (0.0200962)
Neigh time (%) = 4.9883 (0.246745)
Comm  time (%) = 9.16957 (0.45357)
Outpt time (%) = 0.000481817 (2.3833e-05)
Other time (%) = 2007.08 (99.2796)

Nlocal:    12.75 ave 119 max 0 min
Histogram: 31 1 2 2 2 0 0 0 1 1
Nghost:    1.625 ave 17 max 0 min
Histogram: 31 5 0 0 2 0 0 0 0 2
Neighs:    0.425 ave 3 max 0 min
Histogram: 33 0 0 1 0 0 2 0 0 4

Total # of neighbors = 17
Ave neighs/atom = 0.0333333
Neighbor list builds = 5996
Dangerous builds = 1
Setting up run at Sun Jan  1 17:25:12 2023

Memory usage per processor = 960.195 Mbytes
    Step    Atoms         KinEng            CPU 
31069943      510     0.57812208              0 
31275704      510     0.57633777      2035.2285 
Loop time of 2035.23 on 40 procs for 205761 steps with 510 atoms, finish time Sun Jan  1 17:59:07 2023


Pair  time (%) = 0.406609 (0.0199785)
Neigh time (%) = 6.35123 (0.312065)
Comm  time (%) = 11.9071 (0.585049)
Outpt time (%) = 0.000208401 (1.02397e-05)
Other time (%) = 2016.56 (99.0829)

Nlocal:    12.75 ave 113 max 0 min
Histogram: 31 1 0 5 1 0 0 0 1 1
Nghost:    1.675 ave 21 max 0 min
Histogram: 34 2 1 0 0 1 0 1 0 1
Neighs:    0.625 ave 4 max 0 min
Histogram: 32 0 0 0 0 2 0 3 0 3

Total # of neighbors = 25
Ave neighs/atom = 0.0490196
Neighbor list builds = 7606
Dangerous builds = 0
Setting up run at Sun Jan  1 17:59:07 2023

Memory usage per processor = 960.195 Mbytes
    Step    Atoms         KinEng            CPU 
31275704      510     0.57633777              0 
31481465      508      0.5823688      2031.7036 
Loop time of 2031.7 on 40 procs for 205761 steps with 508 atoms, finish time Sun Jan  1 18:32:59 2023


Pair  time (%) = 0.413474 (0.0203511)
Neigh time (%) = 6.2109 (0.305699)
Comm  time (%) = 10.6869 (0.526006)
Outpt time (%) = 0.000464745 (2.28747e-05)
Other time (%) = 2014.39 (99.1479)

Nlocal:    12.7 ave 112 max 0 min
Histogram: 31 1 2 2 2 0 0 0 1 1
Nghost:    1.575 ave 22 max 0 min
Histogram: 34 2 1 1 0 1 0 0 0 1
Neighs:    0.55 ave 6 max 0 min
Histogram: 32 2 0 3 0 0 2 0 0 1

Total # of neighbors = 22
Ave neighs/atom = 0.0433071
Neighbor list builds = 7443
Dangerous builds = 3
Setting up run at Sun Jan  1 18:32:59 2023

Memory usage per processor = 960.195 Mbytes
    Step    Atoms         KinEng            CPU 
31481465      508      0.5823688              0 
31687226      506     0.57607836      2028.9115 
Loop time of 2028.91 on 40 procs for 205761 steps with 506 atoms, finish time Sun Jan  1 19:06:48 2023


Pair  time (%) = 0.408638 (0.0201408)
Neigh time (%) = 5.53343 (0.272729)
Comm  time (%) = 8.40981 (0.414498)
Outpt time (%) = 0.000189325 (9.33136e-06)
Other time (%) = 2014.56 (99.2926)

Nlocal:    12.65 ave 114 max 0 min
Histogram: 31 1 1 3 2 0 0 0 1 1
Nghost:    1.675 ave 18 max 0 min
Histogram: 31 2 3 2 0 0 0 0 1 1
Neighs:    0.575 ave 8 max 0 min
Histogram: 33 2 2 1 0 0 0 1 0 1

Total # of neighbors = 23
Ave neighs/atom = 0.0454545
Neighbor list builds = 6658
Dangerous builds = 399
Setting up run at Sun Jan  1 19:06:48 2023

Memory usage per processor = 960.195 Mbytes
    Step    Atoms         KinEng            CPU 
31687226      506     0.57607836              0 
31892987      504     0.51511024      2035.2456 
Loop time of 2035.25 on 40 procs for 205761 steps with 504 atoms, finish time Sun Jan  1 19:40:43 2023


Pair  time (%) = 0.406975 (0.0199964)
Neigh time (%) = 6.52042 (0.320375)
Comm  time (%) = 9.99468 (0.49108)
Outpt time (%) = 0.000528045 (2.5945e-05)
Other time (%) = 2018.32 (99.1685)

Nlocal:    12.6 ave 113 max 0 min
Histogram: 31 1 0 5 1 0 0 0 1 1
Nghost:    1.9 ave 18 max 0 min
Histogram: 31 3 1 1 0 2 0 0 0 2
Neighs:    0.525 ave 8 max 0 min
Histogram: 31 3 5 0 0 0 0 0 0 1

Total # of neighbors = 21
Ave neighs/atom = 0.0416667
Neighbor list builds = 7822
Dangerous builds = 249
Setting up run at Sun Jan  1 19:40:43 2023

Memory usage per processor = 960.195 Mbytes
    Step    Atoms         KinEng            CPU 
31892987      504     0.51511024              0 
32098748      502     0.54564934      2029.7546 
Loop time of 2029.76 on 40 procs for 205761 steps with 502 atoms, finish time Sun Jan  1 20:14:33 2023


Pair  time (%) = 0.406928 (0.0200481)
Neigh time (%) = 5.69608 (0.280629)
Comm  time (%) = 9.24782 (0.455613)
Outpt time (%) = 0.000239177 (1.17836e-05)
Other time (%) = 2014.4 (99.2437)

Nlocal:    12.55 ave 108 max 0 min
Histogram: 31 1 1 3 2 0 0 0 0 2
Nghost:    1.925 ave 19 max 0 min
Histogram: 30 3 3 1 1 0 0 0 0 2
Neighs:    0.6 ave 7 max 0 min
Histogram: 32 3 0 0 2 2 0 0 0 1

Total # of neighbors = 24
Ave neighs/atom = 0.0478088
Neighbor list builds = 6846
Dangerous builds = 0
Setting up run at Sun Jan  1 20:14:33 2023

Memory usage per processor = 960.195 Mbytes
    Step    Atoms         KinEng            CPU 
32098748      502     0.54564934              0 
32304509      498     0.51566284      2056.1777 
Loop time of 2056.18 on 40 procs for 205761 steps with 498 atoms, finish time Sun Jan  1 20:48:49 2023


Pair  time (%) = 0.412323 (0.0200529)
Neigh time (%) = 7.08239 (0.344444)
Comm  time (%) = 10.699 (0.520334)
Outpt time (%) = 0.000509929 (2.47999e-05)
Other time (%) = 2037.98 (99.1151)

Nlocal:    12.45 ave 111 max 0 min
Histogram: 31 1 2 2 1 0 1 0 1 1
Nghost:    1.725 ave 17 max 0 min
Histogram: 29 7 1 0 0 0 0 1 0 2
Neighs:    0.45 ave 7 max 0 min
Histogram: 34 2 1 0 1 1 0 0 0 1

Total # of neighbors = 18
Ave neighs/atom = 0.0361446
Neighbor list builds = 8506
Dangerous builds = 435
Setting up run at Sun Jan  1 20:48:49 2023

Memory usage per processor = 960.195 Mbytes
    Step    Atoms         KinEng            CPU 
32304509      498     0.51566284              0 
32510270      496      0.5019176      2032.7117 
Loop time of 2032.71 on 40 procs for 205761 steps with 496 atoms, finish time Sun Jan  1 21:22:42 2023


Pair  time (%) = 0.410345 (0.0201871)
Neigh time (%) = 5.63409 (0.277171)
Comm  time (%) = 8.69302 (0.427656)
Outpt time (%) = 0.000237748 (1.16961e-05)
Other time (%) = 2017.97 (99.275)

Nlocal:    12.4 ave 115 max 0 min
Histogram: 31 1 2 3 0 1 0 0 1 1
Nghost:    1.575 ave 18 max 0 min
Histogram: 31 4 2 0 1 0 0 0 1 1
Neighs:    0.5 ave 5 max 0 min
Histogram: 33 0 1 0 3 0 0 0 2 1

Total # of neighbors = 20
Ave neighs/atom = 0.0403226
Neighbor list builds = 6792
Dangerous builds = 657
Setting up run at Sun Jan  1 21:22:42 2023

Memory usage per processor = 960.195 Mbytes
    Step    Atoms         KinEng            CPU 
32510270      496      0.5019176              0 
32716031      494     0.47936705      2021.0902 
Loop time of 2021.09 on 40 procs for 205761 steps with 494 atoms, finish time Sun Jan  1 21:56:23 2023


Pair  time (%) = 0.410137 (0.0202928)
Neigh time (%) = 4.54763 (0.225009)
Comm  time (%) = 6.96345 (0.344539)
Outpt time (%) = 0.000493511 (2.4418e-05)
Other time (%) = 2009.17 (99.4101)

Nlocal:    12.35 ave 107 max 0 min
Histogram: 30 2 0 4 2 0 0 0 1 1
Nghost:    1.6 ave 18 max 0 min
Histogram: 31 5 1 0 0 1 0 0 0 2
Neighs:    0.45 ave 5 max 0 min
Histogram: 33 0 1 0 3 0 2 0 0 1

Total # of neighbors = 18
Ave neighs/atom = 0.0364372
Neighbor list builds = 5457
Dangerous builds = 1
Setting up run at Sun Jan  1 21:56:23 2023

Memory usage per processor = 960.195 Mbytes
    Step    Atoms         KinEng            CPU 
32716031      494     0.47936705              0 
32921792      490     0.46459744      2036.1186 
Loop time of 2036.12 on 40 procs for 205761 steps with 490 atoms, finish time Sun Jan  1 22:30:19 2023


Pair  time (%) = 0.41171 (0.0202203)
Neigh time (%) = 6.24088 (0.306509)
Comm  time (%) = 8.78743 (0.431578)
Outpt time (%) = 0.000253406 (1.24456e-05)
Other time (%) = 2020.68 (99.2417)

Nlocal:    12.25 ave 110 max 0 min
Histogram: 31 1 1 3 2 0 0 0 1 1
Nghost:    1.525 ave 20 max 0 min
Histogram: 32 3 2 0 1 0 0 1 0 1
Neighs:    0.6 ave 6 max 0 min
Histogram: 32 3 0 1 0 1 1 0 0 2

Total # of neighbors = 24
Ave neighs/atom = 0.0489796
Neighbor list builds = 7508
Dangerous builds = 622
Setting up run at Sun Jan  1 22:30:19 2023

Memory usage per processor = 960.195 Mbytes
    Step    Atoms         KinEng            CPU 
32921792      490     0.46459744              0 
33127553      488     0.48660014      2022.6231 
Loop time of 2022.62 on 40 procs for 205761 steps with 488 atoms, finish time Sun Jan  1 23:04:02 2023


Pair  time (%) = 0.409028 (0.0202226)
Neigh time (%) = 4.88812 (0.241672)
Comm  time (%) = 7.54748 (0.373153)
Outpt time (%) = 0.000537015 (2.65504e-05)
Other time (%) = 2009.78 (99.3649)

Nlocal:    12.2 ave 116 max 0 min
Histogram: 31 1 2 3 1 0 0 1 0 1
Nghost:    1.7 ave 22 max 0 min
Histogram: 32 5 0 1 0 1 0 0 0 1
Neighs:    0.65 ave 7 max 0 min
Histogram: 32 2 2 0 1 1 0 0 1 1

Total # of neighbors = 26
Ave neighs/atom = 0.0532787
Neighbor list builds = 5861
Dangerous builds = 43
Setting up run at Sun Jan  1 23:04:02 2023

Memory usage per processor = 960.195 Mbytes
    Step    Atoms         KinEng            CPU 
33127553      488     0.48660014              0 
33333314      484     0.46540265      2037.8389 
Loop time of 2037.84 on 40 procs for 205761 steps with 484 atoms, finish time Sun Jan  1 23:38:00 2023


Pair  time (%) = 0.410045 (0.0201215)
Neigh time (%) = 5.89652 (0.289351)
Comm  time (%) = 9.6229 (0.472211)
Outpt time (%) = 0.000252237 (1.23777e-05)
Other time (%) = 2021.91 (99.2183)

Nlocal:    12.1 ave 114 max 0 min
Histogram: 31 1 4 1 0 1 0 1 0 1
Nghost:    1.75 ave 17 max 0 min
Histogram: 30 4 1 1 1 1 0 0 0 2
Neighs:    0.5 ave 8 max 0 min
Histogram: 33 3 2 0 0 0 1 0 0 1

Total # of neighbors = 20
Ave neighs/atom = 0.0413223
Neighbor list builds = 7114
Dangerous builds = 700
Setting up run at Sun Jan  1 23:38:00 2023

Memory usage per processor = 960.195 Mbytes
    Step    Atoms         KinEng            CPU 
33333314      484     0.46540265              0 
33539075      482     0.44507424      2006.1587 
Loop time of 2006.16 on 40 procs for 205761 steps with 482 atoms, finish time Mon Jan  2 00:11:26 2023


Pair  time (%) = 0.405456 (0.0202106)
Neigh time (%) = 3.62974 (0.18093)
Comm  time (%) = 5.76517 (0.287373)
Outpt time (%) = 0.000751795 (3.74743e-05)
Other time (%) = 1996.36 (99.5114)

Nlocal:    12.05 ave 110 max 0 min
Histogram: 31 1 3 0 3 0 0 0 1 1
Nghost:    1.275 ave 16 max 0 min
Histogram: 34 1 1 2 0 0 0 0 1 1
Neighs:    0.65 ave 7 max 0 min
Histogram: 32 2 1 0 3 0 0 0 1 1

Total # of neighbors = 26
Ave neighs/atom = 0.0539419
Neighbor list builds = 4357
Dangerous builds = 0
Setting up run at Mon Jan  2 00:11:26 2023

Memory usage per processor = 960.195 Mbytes
    Step    Atoms         KinEng            CPU 
33539075      482     0.44507424              0 
slurmstepd: error: *** JOB 14706124 ON r02c12 CANCELLED AT 2023-01-02T02:03:13 DUE TO TIME LIMIT ***
srun: Job step aborted: Waiting up to 62 seconds for job step to finish.
slurmstepd: error: *** STEP 14706124.0 ON r02c12 CANCELLED AT 2023-01-02T02:03:13 DUE TO TIME LIMIT ***
