ITEM: TIMESTEP
30658421
ITEM: NUMBER OF ATOMS
178
ITEM: BOX BOUNDS ff ff ff
-0.15 0.15
-0.15 0.15
-0.15 0.15
ITEM: ATOMS id type x y z radius vx vy vz density 
463 1 -0.00514928 -0.0106725 -0.0686335 0.000175 -81.9344 5.78141 6.1465 2650 
558 1 -0.0163988 -0.0588732 -0.066857 0.000175 -237.404 1.81054 58.2252 2650 
936 1 -0.00694322 -0.0471183 -0.0677104 0.000984 -76.453 -0.67376 7.83543 2650 
1100 1 -0.0156151 -0.0172307 -0.0671461 6.3e-05 -152.618 -2.675 35.4905 2650 
672 1 -0.0190521 -0.02362 -0.0653145 0.000984 -43.893 -0.95723 12.7952 2650 
744 1 -0.0400009 -0.0453566 -0.0524423 0.000635 -26.321 -1.79475 16.6555 2650 
1052 1 -0.0480009 -0.0452477 -0.0493287 0.000175 -62.795 14.1439 61.0968 2650 
562 1 -0.0587013 -0.0569404 -0.0348751 0.000175 -22.023 6.72309 12.3993 2650 
320 1 -0.0664365 -0.0411586 -0.0162 0.000635 -8.43623 -0.31362 34.5801 2650 
1239 1 -0.0666931 -0.0285434 -0.0151266 0.000635 -10.3736 -1.95561 45.7163 2650 
43 1 -0.00146702 -0.00154488 -0.0161762 0.000635 -0.208059 -0.0218621 0.0391882 2650 
682 1 -0.0673969 -0.00636633 -0.00323038 0.000635 1.14775 6.3093 -7.55405 2650 
61 1 -0.0686972 -0.0301559 0.00341789 0.000175 12.899 3.88097 140.589 2650 
160 1 -0.0685175 -0.0295395 0.00542469 0.000175 4.95947 1.55566 61.146 2650 
788 1 -0.0123086 -0.000633645 0.00536447 0.000175 0.0130354 -0.00167232 0.00310345 2650 
660 1 -0.0138213 -0.00242856 0.00926972 0.000175 0.0219437 -0.00397578 0.0297943 2650 
863 1 -0.0661956 -0.00912704 0.0188715 0.000175 34.7399 12.5534 121.843 2650 
850 1 -0.0651619 -0.00383193 0.0207571 0.000635 15.5273 8.35082 48.7227 2650 
147 1 -0.0639708 -0.0361004 0.0242135 0.000635 28.3553 2.63542 74.8845 2650 
4 1 -0.0282268 -0.00135487 0.0586883 0.000984 75.6456 -6.80871 2.41236 2650 
565 1 -0.0405545 0.0532611 -0.0556247 0.000175 -188.555 -49.1627 137.458 2650 
1066 1 -0.0465452 0.0735843 -0.0508513 6.3e-05 -0.172342 -0.10402 0.157748 2650 
656 1 -0.00501519 0.0527229 -0.0159446 0.000175 -0.0549922 0.0370173 0.0239289 2650 
1137 1 -0.00166836 0.0540952 -0.0161368 0.000635 -0.367175 -0.0129821 0.0692551 2650 
432 1 -0.00582757 0.00548608 -0.0155971 0.000175 -0.0824887 -0.00952871 0.0356402 2650 
141 1 -0.00553487 0.0455702 -0.0152334 0.000635 -0.206032 -0.0448407 0.0888203 2650 
134 1 -0.00974088 0.00595066 -0.0135621 6.3e-05 -0.127432 -0.020081 0.0951728 2650 
1056 1 -0.0679311 0.0647691 -0.0111031 0.000175 -18.4268 11.6669 112.722 2650 
1254 1 -0.00723232 0.021099 -0.0126244 0.000175 0.00860543 0.0115318 0.0356852 2650 
54 1 -0.0104322 0.047948 -0.012908 0.000175 -0.11062 0.119879 0.083881 2650 
1177 1 -0.00895111 0.0266955 -0.00961878 0.000635 -0.122927 -0.050618 0.00443134 2650 
871 1 -0.0125854 0.0319927 -0.00983978 0.000984 -0.222071 -0.0161173 0.2551 2650 
1107 1 -0.0131193 0.0373991 -0.00968486 0.000635 -0.144603 0.0292285 0.166501 2650 
846 1 -0.0041088 0.0079649 -0.00762734 0.000635 0.00897348 0.00165835 -0.00491199 2650 
1068 1 -0.0141592 0.0226297 -0.00702395 0.000984 -0.090635 -0.00759813 0.203121 2650 
635 1 -0.0154755 0.0278131 -0.00647504 0.000175 -0.128943 -0.0340154 0.245589 2650 
225 1 -0.00352085 0.0163243 -0.00554207 0.000175 -0.00886261 0.011726 -0.00494978 2650 
1276 1 -0.0151239 0.02194 -0.00585933 0.000635 -0.0594131 -0.0355176 0.231156 2650 
507 1 -0.0147973 0.028764 -0.0054515 0.000984 -0.079407 -0.0486178 0.17916 2650 
1278 1 -0.0159488 0.0030441 -0.00294542 0.000635 -0.032506 -0.00419409 0.119572 2650 
538 1 -0.0134581 0.0235079 -0.00253562 6.3e-05 0.00443992 0.0107398 0.0380778 2650 
1272 1 -0.0118007 0.030495 -0.00302352 0.000635 -0.0346614 0.0248425 0.0137131 2650 
487 1 -0.0142923 0.00760411 -0.0020392 0.000635 -0.0138333 -0.000355899 0.013036 2650 
838 1 -0.00706813 0.0129389 -0.00159229 0.000984 -0.0311969 -0.00173592 -0.0116693 2650 
209 1 -0.016118 0.0327305 -0.00229751 0.000635 -0.0144193 -0.00643138 0.359042 2650 
924 1 -0.0166639 0.00681284 0.000381208 0.000175 -0.00367679 0.00599098 0.0868349 2650 
132 1 -0.0112457 0.0606126 0.000522057 0.000175 0.00593451 0.0402281 0.0123134 2650 
469 1 -0.016662 0.00233279 0.00131965 0.000175 0.0578754 0.00548187 0.304677 2650 
1150 1 -0.0042774 0.00420395 0.002121 0.000175 0.0154145 -0.000606924 0.0129637 2650 
527 1 -0.0135685 0.00851678 0.0014121 0.000175 0.0209875 -0.00183264 0.00403539 2650 
1217 1 -0.0159938 0.0104472 0.00352653 0.000175 0.0698866 0.0116493 0.269641 2650 
156 1 -0.0131653 0.0129337 0.00351731 0.000175 0.0232408 0.00365805 -0.0214707 2650 
190 1 -0.0160771 0.00326743 0.0043686 0.000175 0.0627789 -0.0502533 0.329775 2650 
159 1 -0.00463019 0.0050591 0.0039905 0.000175 0.00597023 0.00244823 0.0347663 2650 
793 1 -0.0128447 0.0114557 0.00450598 0.000175 0.0135912 0.00194001 -0.00254596 2650 
679 1 -0.00576326 0.0205441 0.00536141 0.000635 0.00117082 0.00732137 -0.0232718 2650 
1139 1 -0.00667539 0.0249264 0.0052249 0.000635 0.000413824 0.0155499 0.0164938 2650 
30 1 -0.0113489 0.0315529 0.00544171 0.000175 -0.00445845 0.00423201 0.01616 2650 
537 1 -0.00547926 0.0200687 0.00603641 6.3e-05 -0.0315666 -0.0134718 0.0235126 2650 
956 1 -0.0148575 0.00819602 0.00772569 0.000175 0.00397427 0.00035109 -0.0108639 2650 
410 1 -0.0130774 0.0274402 0.00908191 0.000984 0.157154 0.0223065 0.211645 2650 
686 1 -0.0104189 0.0293755 0.00890085 0.000635 0.0133986 0.0197344 0.00406062 2650 
714 1 -0.012765 0.046192 0.00893911 0.000635 0.0102326 0.023602 0.0173465 2650 
42 1 -0.000914229 0.0665775 0.00953362 0.000635 0.0163641 0.0442842 0.0266331 2650 
445 1 -0.0118308 0.0100857 0.00998986 0.000635 0.00595883 0.00192861 -0.0121372 2650 
123 1 -0.00541826 0.0690809 0.00982839 0.000175 0.0205797 0.0417711 0.0161647 2650 
801 1 -0.0126563 0.00463305 0.0110539 6.3e-05 0.139972 -0.0411832 0.1039 2650 
1297 1 -0.00677727 0.00745684 0.0113488 6.3e-05 0.0239409 0.00138797 0.0107401 2650 
759 1 -0.0111742 0.0209495 0.0124894 0.000175 0.268486 -0.00411591 0.233865 2650 
1046 1 -0.006158 0.0566477 0.0125999 0.000635 -0.0454734 0.046384 0.0117596 2650 
1082 1 -0.00809654 0.0589606 0.0125114 0.000635 -0.0164756 0.0357684 -0.0242393 2650 
1154 1 -0.00769274 0.00786541 0.0136656 0.000175 0.124885 -0.0428106 0.0686355 2650 
110 1 -0.00673226 0.018155 0.0147897 0.000635 0.228233 0.00164551 0.120518 2650 
1266 1 -0.00633926 0.0197586 0.0146185 0.000984 0.208123 -0.00189043 0.109903 2650 
747 1 -0.00236843 0.00330156 0.0160894 0.000635 0.194586 0.0387813 0.00819234 2650 
76 1 -0.0031047 0.0274382 0.0159192 0.000635 0.304214 0.0034425 0.0751562 2650 
1025 1 -0.00405018 0.0347238 0.0161468 0.000175 0.260445 -0.0464833 0.0655909 2650 
1088 1 -0.00401986 0.0406628 0.0161383 0.000175 0.237169 -0.0358576 0.0615529 2650 
1093 1 -0.0030908 0.0464568 0.0164322 0.000175 0.03091 0.0190578 0.0005693 2650 
969 1 -0.0619167 0.0743837 0.0281888 0.000984 -0.12231 0.0851905 -0.268404 2650 
806 1 -0.039013 0.0348851 0.055796 0.000984 71.2067 -10.1473 49.7614 2650 
102 1 -0.00286159 0.0770314 -0.00569929 6.3e-05 0.00971112 0.0599359 -0.000824985 2650 
479 1 -0.0124805 0.116856 -0.00285516 0.000635 -0.0929548 0.498278 0.0915692 2650 
929 1 -0.0100329 0.0892909 0.00679191 0.000175 0.0146219 0.0752462 0.0174894 2650 
860 1 0.0401325 -0.0208969 -0.0559132 0.000175 -23.4799 7.8795 -16.8518 2650 
278 1 0.043685 -0.0516369 -0.0526233 0.000635 -60.2535 3.91827 -49.9997 2650 
421 1 0.0447241 -0.0570182 -0.0517165 0.000635 -23.4634 3.93874 -20.2804 2650 
409 1 0.049842 -0.0579197 -0.0463495 0.000984 -42.843 -1.10974 -46.0436 2650 
1330 1 0.000274337 -0.00401415 -0.0151139 6.3e-05 0.0418657 -0.0941395 -2.30648 2650 
722 1 0.000188689 -0.000928704 -0.0111862 0.000175 -0.000765307 -0.00724665 -0.00160405 2650 
1193 1 0.0663327 -0.0616488 -0.00842081 0.000175 1.19515 1.04146 -16.7858 2650 
1146 1 0.067738 -0.0452077 -0.00947618 0.000635 -9.9503 13.8521 -71.0993 2650 
7 1 0.0280862 -0.0541653 -0.00664396 0.000635 -0.879727 3.28039e-06 -3.93846 2650 
812 1 0.068201 -0.0591965 -0.00504404 0.000635 -3.35758 -1.49875 -45.3781 2650 
364 1 0.0687961 -0.0178539 0.00212787 0.000175 1.07211 -5.87693 -34.657 2650 
577 1 0.0682821 -0.0424557 0.00365241 0.000635 0.949229 -0.453571 -17.7362 2650 
1119 1 0.0102236 -9.04684e-05 0.00530312 0.000175 0.00710112 -0.00366798 -0.00347903 2650 
540 1 0.000887298 -0.00215295 0.00711179 0.000984 -0.00690425 -0.00929944 0.00158592 2650 
739 1 0.0553194 -0.0449682 0.0395923 0.000984 6.24332 -2.34002 -8.71516 2650 
136 1 0.00602611 -0.00330678 0.0686731 6.3e-05 13.8576 1.34674 -1.21515 2650 
789 1 0.00305722 0.0131611 -0.0164186 0.000175 0.0597286 0.000904113 0.010615 2650 
1144 1 0.00347663 0.0383851 -0.0158223 0.000635 -0.212333 -0.0371078 -0.0551665 2650 
224 1 0.00198994 0.0418061 -0.0165685 0.000175 -0.312276 -0.0379933 -0.012312 2650 
1169 1 0.00239092 0.0490127 -0.0157373 0.000984 -0.196442 -0.0176018 -0.00816006 2650 
1061 1 0.0080082 0.036694 -0.0146279 0.000175 -0.419791 -0.0397459 -0.223286 2650 
1101 1 0.00622115 0.0383862 -0.0146343 0.000984 -0.1665 -0.00358456 -0.0880867 2650 
797 1 0.00754888 0.0388341 -0.014939 0.000175 -0.155015 0.0246949 -0.0939559 2650 
1124 1 0.00797709 0.0381101 -0.0146357 0.000175 -0.387061 -0.054071 -0.205965 2650 
135 1 0.00737059 0.0410845 -0.0150672 6.3e-05 -0.246717 0.0655522 -0.131311 2650 
288 1 0.00526978 0.00204863 -0.0104588 0.000635 -0.00791557 -0.00619523 -0.0311408 2650 
772 1 0.0100961 0.0380196 -0.0104596 0.000984 0.00463278 0.0223044 -0.032437 2650 
485 1 0.00295484 0.0232831 -0.00905797 0.000635 0.0184557 0.00863656 -0.00136015 2650 
787 1 0.0032928 0.0214318 -0.00799754 0.000175 0.00830457 0.00756528 0.0038969 2650 
303 1 0.00186331 0.0252064 -0.0083107 6.3e-05 0.00873389 0.00534622 0.0221488 2650 
1192 1 0.0153474 0.00891272 -0.00630145 0.000175 -0.00210718 0.000507093 0.0023073 2650 
807 1 0.0147142 0.0117786 -0.0068184 0.000635 -0.057816 0.0100413 -0.136809 2650 
98 1 0.0151108 0.0343386 -0.00718952 0.000175 -0.0716559 -0.0465527 -0.174341 2650 
373 1 0.0152735 0.0467873 -0.00686517 6.3e-05 -0.0737207 -0.0193934 -0.170901 2650 
738 1 0.00863215 0.00518996 -0.00599835 0.000984 0.039925 0.00453948 -0.00612941 2650 
579 1 0.00801939 0.0336942 -0.00490406 0.000635 0.0138335 0.0214316 0.00356859 2650 
1080 1 0.0118862 0.0461242 -0.00570435 0.000635 0.00926895 0.0253392 -0.0306054 2650 
272 1 0.00364871 0.0106906 -0.00362703 6.3e-05 0.0130743 0.00151405 -0.00760195 2650 
499 1 0.0024177 0.0315782 -0.00453216 0.000175 0.0260214 0.023403 0.0157907 2650 
902 1 0.00323721 0.0366187 -0.00261639 6.3e-05 -0.0294471 0.0128563 -0.00973635 2650 
51 1 0.012859 0.0623357 -0.00309396 0.000635 0.0143777 0.0343697 0.0206191 2650 
771 1 0.0156785 0.0099661 -0.00220234 0.000984 -0.0409428 -0.00320579 -0.218339 2650 
815 1 0.00983212 0.0182658 -0.002248 0.000635 -0.0196345 0.00244627 -0.0198842 2650 
811 1 0.016125 0.0222037 -0.00173121 0.000635 0.000499919 0.0148888 -0.0301777 2650 
843 1 0.0162073 0.0432821 -0.00125115 0.000635 -0.0325692 -0.00626356 -0.173738 2650 
832 1 0.0125239 0.0608153 -0.00179458 0.000175 0.0253057 0.0347211 -0.0194402 2650 
1075 1 0.0106634 0.00160316 -0.000141631 0.000635 0.0161718 -0.0215638 -0.0295861 2650 
500 1 0.01666 0.00343711 -0.000522781 0.000175 0.00918784 -0.0135699 -0.22125 2650 
319 1 0.0162644 0.00537067 -0.00077663 0.000635 -0.0137713 -0.00901098 -0.0501506 2650 
1214 1 0.00695433 0.0278431 2.88922e-05 0.000635 0.0109284 0.018326 0.0118844 2650 
90 1 0.00211731 0.00923824 0.00224754 0.000175 0.0143101 -0.000334238 0.00032448 2650 
505 1 0.0167256 0.0240606 0.00140695 6.3e-05 0.0131589 0.0392752 -0.337677 2650 
52 1 0.00488251 0.0409964 0.00124992 0.000175 -0.0166244 -0.0418658 -0.0382049 2650 
589 1 0.0159383 0.00806764 0.00296618 0.000635 0.0409361 0.020133 -0.161179 2650 
449 1 0.0132303 0.017651 0.00344055 0.000635 0.0153804 0.00921713 0.0151838 2650 
1078 1 0.0138603 0.00810686 0.00466697 0.000635 0.0039494 0.00171195 -0.0152791 2650 
120 1 0.0163922 0.00790727 0.0037139 0.000175 0.0559321 -0.000190796 -0.16076 2650 
1235 1 0.0154308 0.0172013 0.00368243 0.000984 0.0688857 0.0481238 -0.154855 2650 
1059 1 0.00773525 0.0224349 0.00455082 0.000175 0.0124347 0.013643 0.015467 2650 
154 1 0.00680951 0.00383068 0.00548866 0.000175 -0.0149932 -0.0120186 -0.0199015 2650 
121 1 0.0126136 0.0098124 0.00542145 0.000175 0.0140339 -0.000324354 -0.0254263 2650 
750 1 0.00823239 0.0538545 0.0055224 0.000635 -0.00863236 0.0372666 -0.0140246 2650 
475 1 0.0142987 0.00314535 0.00665743 0.000984 0.0295672 0.00160307 -0.0563557 2650 
1190 1 0.000125121 0.0158606 0.00633086 0.000175 -0.013565 0.00299412 0.017719 2650 
1256 1 0.0127252 0.031298 0.00645012 0.000175 0.0203096 0.0158007 0.00110055 2650 
481 1 0.0143343 0.0259311 0.0076677 0.000635 0.09769 0.0122183 -0.185975 2650 
1106 1 0.00339439 0.0479569 0.00839859 0.000635 -0.0111982 0.0300881 0.0153277 2650 
1277 1 0.00206499 0.000308573 0.00858879 0.000635 -0.00176649 -0.000630758 0.00114423 2650 
378 1 0.0132094 0.00223168 0.0088028 0.000984 0.0813661 0.0205644 -0.151529 2650 
229 1 0.0130067 0.031973 0.0105792 0.000175 0.194968 -0.0493587 -0.223516 2650 
704 1 0.0133289 0.0514361 0.0101565 6.3e-05 0.111197 0.0248983 -0.12778 2650 
361 1 0.00488757 0.0561035 0.0119043 0.000175 -0.0189547 0.0310761 -0.000894064 2650 
360 1 0.00162131 0.000922785 0.0125163 0.000175 -0.000838052 -0.0126342 0.0173561 2650 
331 1 0.0110419 0.0233311 0.0126143 0.000175 0.240588 -0.00882482 -0.178652 2650 
1225 1 0.0025521 0.0661506 0.012081 0.000175 0.0112418 0.0584262 0.0147774 2650 
459 1 0.00923968 0.018379 0.0137476 0.000175 0.0239471 0.00213203 -0.0157491 2650 
1270 1 0.00921613 0.0290881 0.0133937 0.000635 0.203003 -0.0208694 -0.152921 2650 
1281 1 0.00168371 0.00517272 0.0154029 0.000635 0.0595001 -0.0403854 -0.0199053 2650 
830 1 0.00624273 0.0180006 0.0154884 0.000175 0.289697 -0.014595 -0.120302 2650 
752 1 0.00137587 0.0063153 0.0160677 0.000635 0.148076 0.0388912 -0.0466429 2650 
492 1 0.00124097 0.0139238 0.016508 0.000175 0.173996 -0.0105142 -0.045878 2650 
683 1 0.00263635 0.0169428 0.0159666 0.000635 0.223687 0.0250169 -0.039968 2650 
1 1 4.72774e-05 0.0188645 0.0158255 0.000984 0.239763 -0.023438 0.00880705 2650 
341 1 0.00257911 0.0192839 0.0156045 0.000984 0.249247 0.028176 -0.0449828 2650 
269 1 0.00161297 0.0213774 0.0163099 6.3e-05 0.206512 0.0549522 -0.0204528 2650 
518 1 0.00019724 0.026231 0.0162197 0.000635 0.225188 -0.0132931 0.0087813 2650 
1232 1 0.00470419 0.0456531 0.0160418 6.3e-05 -0.0162058 0.0312459 -0.000127821 2650 
1331 1 7.87287e-05 0.0494575 0.0167671 6.3e-05 0.142438 0.00865898 0.0061873 2650 
805 1 0.00226737 0.0764547 -0.0130425 0.000984 0.00901095 0.048698 -0.000328599 2650 
1188 1 0.00683438 0.118382 -0.0120128 0.000175 0.000648427 0.0737987 -0.0317424 2650 
1224 1 0.00456735 0.0800701 -0.00390438 0.000175 -0.0242197 0.0692596 -0.0194845 2650 
1140 1 0.0080039 0.0760927 -0.00296685 0.000635 0.0112179 0.0524232 -0.00194534 2650 
1047 1 0.00420284 0.0770628 -0.00061146 0.000635 0.0109138 0.0474931 0.00722191 2650 
572 1 0.00118382 0.11884 0.0138726 6.3e-05 0.00506827 0.0682336 0.0295527 2650 
