ITEM: TIMESTEP
14197511
ITEM: NUMBER OF ATOMS
560
ITEM: BOX BOUNDS ff ff ff
-0.15 0.15
-0.15 0.15
-0.15 0.15
ITEM: ATOMS id type x y z radius vx vy vz density 
1269 1 -0.000922337 -0.0493267 -0.0683589 0.000635 -21.6023 3.83138 0.291442 2650 
781 1 -0.0060995 -0.034247 -0.068103 0.000635 -53.7471 -0.807615 4.81174 2650 
10 1 -0.0156283 -0.0150732 -0.0665664 0.000635 -52.9023 0.817442 12.415 2650 
1313 1 -0.0204842 -0.00162059 -0.0652264 0.000635 -29.7578 3.7354 9.34211 2650 
766 1 -0.0275747 -0.0177457 -0.0630597 0.000175 -35.4745 5.25929 15.5119 2650 
907 1 -0.0367208 -0.0434326 -0.0576842 0.000635 -47.1596 -1.16044 30.008 2650 
1131 1 -0.0355905 -0.00753474 -0.0546302 6.3e-05 -0.390643 -0.294887 -0.225412 2650 
946 1 -0.0444084 -0.0571164 -0.0520003 0.000635 -42.1704 0.646215 35.998 2650 
751 1 -0.044823 -0.0363494 -0.0516385 0.000635 -35.1578 2.3122 30.5034 2650 
1202 1 -0.0512443 -0.0476148 -0.0447833 0.000984 -36.107 -4.81766 41.2901 2650 
685 1 -0.0533799 -0.017926 -0.0427391 0.000635 -29.2828 -10.0556 36.5566 2650 
936 1 -0.0533916 -0.0304972 -0.0421773 0.000984 -22.2965 -5.30207 28.2044 2650 
957 1 -0.0590932 -0.0523639 -0.035288 0.000175 -19.0803 1.76087 31.9467 2650 
139 1 -0.0618528 -0.0392068 -0.0283814 0.000984 -19.0387 -6.45478 41.4641 2650 
653 1 -0.0622147 -0.0368868 -0.0283904 0.000635 -20.848 -3.14664 45.6608 2650 
990 1 -0.0629379 -0.0366735 -0.0278584 0.000175 -10.2591 -6.17327 23.1736 2650 
11 1 -0.0627275 -0.0186487 -0.0272262 0.000635 -14.0546 -10.289 32.3649 2650 
1175 1 -0.0628757 -0.000958856 -0.0255557 0.000635 -15.0196 -1.28004 62.1703 2650 
108 1 -0.0656265 -0.0333572 -0.0192187 0.000635 -9.99579 -1.37574 34.1161 2650 
523 1 -0.0659753 -0.0288502 -0.0179937 0.000635 -11.0802 -6.56947 40.6072 2650 
1203 1 -0.00977725 -0.00569541 -0.0187227 0.000635 -1.23546 -0.436989 -2.05846 2650 
1327 1 -0.0518131 -0.0266615 -0.013953 0.000175 2.92165 -5.15336 -13.0457 2650 
1326 1 -0.0117024 -0.00371081 -0.012287 0.000175 -0.919865 -0.460716 0.261868 2650 
457 1 -0.00987029 -0.0038307 -0.0131126 0.000635 -0.126876 -0.312936 -0.24999 2650 
386 1 -0.0130155 -0.00190477 -0.00974025 0.000635 -0.269409 -0.0928948 0.303081 2650 
1211 1 -0.00802656 -0.00285487 -0.00918001 0.000635 -0.131678 -0.09555 0.20233 2650 
991 1 -0.0684559 -0.0487883 -0.00715734 0.000175 -4.15994 -10.8634 39.7816 2650 
49 1 -0.0123087 -0.0027515 -0.00753745 0.000635 -0.0328978 -0.0335944 -0.00780159 2650 
116 1 -0.064181 -0.0283357 -0.00432 0.000635 0.0477952 14.2536 11.751 2650 
534 1 -0.00443798 -0.00320602 -0.00431835 0.000175 -0.0132597 -0.00635732 0.000873181 2650 
812 1 -0.0683169 -0.00199259 -0.00303061 0.000635 -1.57876 -0.734838 35.571 2650 
403 1 -0.000132 -0.000671488 -0.004486 0.000175 0 -0.01175 0 2650 
886 1 -0.008763 -0.00207649 -0.001992 0.000175 0 -0.01175 0 2650 
541 1 -0.0101348 -0.00036859 0.00124148 0.000984 0.00333243 -0.0169285 0.010076 2650 
4 1 -0.0679679 -0.0402029 0.00343329 0.000984 2.10429 2.09819 41.6314 2650 
968 1 -0.00978371 -0.00243052 0.00312774 6.3e-05 0.026644 -0.0152415 0.00182284 2650 
453 1 -0.00155413 -0.00239385 0.00457544 0.000635 0.00879519 -0.0177803 0.0114859 2650 
1062 1 -0.0685289 -0.0174571 0.00642652 0.000175 4.95964 -13.7318 52.875 2650 
1186 1 -0.0157417 -0.00172901 0.00487844 0.000175 -0.0231288 -0.0542984 0.167802 2650 
828 1 -0.0142823 -0.00102755 0.00497832 0.000175 -0.013832 -0.0143126 0.00115989 2650 
1152 1 -0.004408 -0.000377488 0.005639 0.000175 0 -0.01175 0 2650 
707 1 -0.0141261 -0.00164368 0.00688064 0.000984 0.061226 0.0115535 0.0187447 2650 
1286 1 -0.0101166 -0.00222459 0.00698459 0.000175 -0.00331993 -0.0080972 0.0615309 2650 
320 1 -0.00811683 -0.00143463 0.00607202 0.000635 0.0811784 -0.00913788 0.12246 2650 
1243 1 -0.0107856 -0.000419781 0.00706622 0.000635 0.0281581 -0.0168665 0.0438283 2650 
1271 1 -0.00229502 -0.00294138 0.00791005 0.000635 0.0359492 -0.0136038 -0.00539534 2650 
1166 1 -0.002781 -0.00220849 0.007491 6.3e-05 0 -0.01175 0 2650 
7 1 -0.0271203 -0.0540378 0.00873586 0.000635 0.181062 0.231573 1.18198 2650 
1026 1 -0.0680437 -0.0447884 0.0103639 0.000175 2.38648 1.70381 15.6659 2650 
1051 1 -0.000516 -0.00134849 0.009814 0.000175 0 -0.01175 0 2650 
569 1 -0.000802342 -0.00338174 0.0166607 0.000175 -0.0034163 -0.0802185 0.0863173 2650 
819 1 -0.0632386 -0.0618849 0.0260868 0.000635 36.9963 -1.01915 89.6787 2650 
976 1 -0.0634044 -0.0125833 0.0255943 0.000635 0.364505 -0.180208 0.904151 2650 
873 1 -0.0624936 -0.0489951 0.0277517 0.000635 10.1481 6.09815 22.8402 2650 
684 1 -0.0624279 -0.0449806 0.0279132 0.000635 17.7823 -3.83305 39.7518 2650 
543 1 -0.0615225 -0.00739948 -0.0298594 0.000635 -21.5348 8.82886 44.3504 2650 
576 1 -0.0596949 -0.0535721 0.0333658 0.000635 26.0877 -4.99857 46.6531 2650 
931 1 -0.0604916 -0.0114551 0.0328338 0.000175 19.175 2.0887 35.3218 2650 
46 1 -0.0592406 -0.0560621 0.0341527 0.000635 18.0455 5.52325 31.2859 2650 
83 1 -0.059438 -0.0444526 0.0338157 0.000635 23.1213 4.24462 40.6217 2650 
285 1 -0.0593312 -0.0362754 0.0340019 0.000635 22.6794 -0.493487 39.5558 2650 
124 1 -0.0377638 -0.0233817 0.0344084 0.000175 17.8426 -16.2473 14.7108 2650 
513 1 -0.0575809 -0.0563978 0.0368807 0.000635 19.3223 5.47659 30.1524 2650 
1128 1 -0.0575915 -0.037626 0.0376885 0.000175 18.9456 11.8515 28.9459 2650 
865 1 -0.0550215 -0.0360631 0.0413487 0.000175 9.76929 4.62769 12.9973 2650 
998 1 -0.0531192 -0.050051 0.0437666 0.000175 26.402 -8.77281 32.0388 2650 
152 1 -0.0338143 -0.00705506 0.0423541 0.000635 -5.06476 -0.328945 6.33551 2650 
145 1 -0.0514219 -0.0573025 0.0450709 0.000635 26.1654 3.54209 29.8378 2650 
1206 1 -0.0519857 -0.0504325 0.0444214 0.000635 27.6038 -10.8237 32.289 2650 
149 1 -0.0481156 -0.0258327 0.0462638 0.000635 33.0995 17.8176 24.6523 2650 
383 1 -0.0486562 -0.0280928 0.0480327 0.000635 14.253 -3.63682 14.4295 2650 
1167 1 -0.0177978 -0.0409699 0.0498899 0.000984 26.1903 13.0748 17.0201 2650 
1213 1 -0.0450085 -0.0600625 0.0514847 0.000635 44.8358 2.08154 39.1792 2650 
416 1 -0.0120096 -0.0062477 0.0507292 0.000635 102.494 -29.6238 -41.1095 2650 
1003 1 -0.0401333 -0.00570767 0.0549314 0.000984 24.4675 -3.97957 17.8628 2650 
178 1 -0.0383661 -0.0176786 0.0565912 0.000635 24.8418 -7.16748 16.8319 2650 
633 1 -0.0368912 -0.0169224 0.058103 0.000175 32.7776 -7.72125 20.8094 2650 
1036 1 -0.0285032 -0.0483471 0.0586036 0.000984 -0.0867163 -6.20925 4.40332 2650 
376 1 -0.0254302 -0.0233004 0.0630987 0.000984 34.1115 3.58745 13.7382 2650 
273 1 -0.0233659 -0.0109799 0.0638983 0.000984 37.1997 1.83112 13.6293 2650 
585 1 -0.0217861 -0.0455742 0.0648171 0.000635 58.1845 9.43594 19.5487 2650 
205 1 -0.0182326 -0.0353938 0.0655386 0.000984 33.8191 -4.45578 9.40199 2650 
409 1 -0.0125107 -0.0529067 0.0665571 0.000984 -17.7263 -4.82198 -3.24149 2650 
623 1 -0.0147261 -0.00338603 0.0672311 0.000175 32.6815 -0.662908 7.15844 2650 
174 1 -0.00561396 -0.0578467 0.067805 0.000984 47.7332 -0.847957 3.94827 2650 
779 1 -0.00546743 -0.0552297 0.0681524 0.000635 44.2429 2.81249 3.54473 2650 
243 1 -0.00579272 -0.0435084 0.0673525 0.000635 7.41497 22.0032 -1.84908 2650 
1104 1 -0.00869054 -0.0403907 0.0678213 0.000635 53.8593 0.927756 6.89854 2650 
245 1 -0.00703754 -0.0259857 0.0680178 0.000635 67.631 -34.4272 7.08993 2650 
1273 1 -0.00490652 -0.0210666 0.0682083 0.000635 72.5915 -3.48124 5.12048 2650 
833 1 -0.00486421 -0.059188 0.068653 0.000175 47.9032 -2.18886 3.3944 2650 
113 1 -0.0611642 -0.0580452 0.0305839 0.000635 20.5613 -1.65913 41.1015 2650 
768 1 -0.00569949 0.0100374 -0.0156182 6.3e-05 -0.442461 0.335971 0.123754 2650 
234 1 -0.00194719 0.0340851 -0.015617 0.000175 -0.0393838 0.0305362 -0.0158768 2650 
258 1 -0.00106481 0.0440746 -0.0166829 0.000175 -0.532975 -0.0971463 -0.0212853 2650 
1118 1 -0.0082136 0.00398872 -0.0145538 0.000175 -0.406548 0.0102074 0.17722 2650 
93 1 -0.00680889 0.0591306 -0.0155104 0.000175 -0.292563 0.3394 0.0579054 2650 
973 1 -0.00925918 0.000905641 -0.0132066 0.000635 -0.57674 -0.216032 0.430852 2650 
860 1 -0.0103846 0.00414028 -0.0129522 0.000175 -0.237859 0.0314003 0.17642 2650 
333 1 -0.00692524 0.00562915 -0.0123732 0.000175 -0.185351 -0.136587 0.12325 2650 
167 1 -0.00595364 0.00768713 -0.0123128 6.3e-05 -0.0866359 -0.0242555 0.0202072 2650 
487 1 -0.00322559 0.00788883 -0.012468 0.000635 -0.0138333 -0.000355899 0.013036 2650 
1266 1 -0.00840157 0.0210754 -0.0128626 0.000984 -0.0170213 0.0289635 -0.00219031 2650 
805 1 -0.00494139 0.0374963 -0.0127796 0.000984 0.00901095 0.048698 -0.000328599 2650 
242 1 -0.0111659 0.00315571 -0.0112604 0.000984 -0.261461 -0.153967 0.303335 2650 
475 1 -0.000489693 0.00947529 -0.0116727 0.000984 -0.0236331 -0.0187531 0.0592529 2650 
787 1 -0.00335086 0.0153795 -0.0111151 0.000175 0.00830457 0.00756528 0.0038969 2650 
324 1 -0.0110275 0.0157778 -0.0110985 0.000175 -0.0260046 0.0233576 0.0311135 2650 
58 1 -0.0102167 0.0163017 -0.011334 0.000175 -0.0095569 0.0175092 -0.027906 2650 
797 1 -0.00838745 0.0171275 -0.0109009 0.000175 0.00469929 0.0140138 -0.0278607 2650 
1005 1 -0.00547408 0.0289021 -0.0115634 0.000635 -0.0115839 0.0367956 0.0168006 2650 
51 1 -0.00156301 0.0336574 -0.0118037 0.000635 0.0304834 0.0408923 -0.022325 2650 
659 1 -0.00856141 0.0436424 -0.0117763 0.000175 -0.200766 0.181906 0.0296967 2650 
855 1 -0.0062842 0.0433079 -0.0113577 0.000175 -0.181883 0.145973 -0.0536782 2650 
153 1 -0.00290738 0.0514626 -0.0111481 0.000635 -0.00617474 0.0652939 -0.0153319 2650 
1154 1 -0.0132163 0.00558972 -0.0102984 0.000175 -0.200729 -0.00776958 0.464779 2650 
397 1 -9.73884e-05 0.00882477 -0.0103446 0.000175 0.0186532 0.0629644 -0.141535 2650 
945 1 -0.00154302 0.0164991 -0.00990164 0.000635 -0.0240349 0.00665535 -0.0303935 2650 
704 1 -0.0117006 0.0380976 -0.0101483 6.3e-05 -0.0879575 0.0442142 0.221742 2650 
1056 1 -0.0111349 0.0540641 -0.00975175 0.000175 -0.00421405 0.0864438 0.0294132 2650 
1265 1 -0.00980323 0.0596473 -0.01014 6.3e-05 -0.0237117 0.0585808 -0.0669344 2650 
1129 1 -0.00844263 0.0607778 -0.0103078 0.000175 -0.00519824 0.106172 -0.0203891 2650 
572 1 -0.00287079 0.0642536 -0.00976957 6.3e-05 0.00506827 0.0682336 0.0295527 2650 
1165 1 -0.000850429 3.69951e-05 -0.00945407 6.3e-05 0.0077224 -0.018109 0.00484478 2650 
660 1 -0.0105415 0.00131477 -0.00916632 0.000175 -0.00881201 -0.00590314 -0.00252555 2650 
868 1 -0.005513 0.00289051 -0.008425 6.3e-05 0 -0.01175 0 2650 
1214 1 -0.00178836 0.0131822 -0.00947865 0.000635 0.0109284 0.018326 0.0118844 2650 
42 1 -0.011573 0.0305687 -0.0094912 0.000635 -0.0274022 0.0536873 -0.00996453 2650 
1297 1 -0.00833558 0.005068 -0.00754897 6.3e-05 -0.0149136 0.00421127 0.0334985 2650 
1059 1 -0.00221254 0.0115205 -0.0078228 0.000175 0.0124347 0.013643 0.015467 2650 
1139 1 -0.00700645 0.0124865 -0.00797013 0.000635 0.000413824 0.0155499 0.0164938 2650 
1239 1 -0.0139695 0.0160868 -0.00765359 0.000635 0.0218403 0.0276058 -0.0619455 2650 
485 1 -0.0118097 0.0163738 -0.00796984 0.000635 0.0184557 0.00863656 -0.00136015 2650 
579 1 -0.00304743 0.0165489 -0.00775893 0.000635 0.0138335 0.0214316 0.00356859 2650 
662 1 -0.0114323 0.0173488 -0.00829167 0.000175 -0.0564538 0.153534 -0.0373881 2650 
1331 1 -0.0084075 0.0193271 -0.00816576 6.3e-05 -0.230942 0.141821 0.485772 2650 
30 1 -0.00778217 0.0281672 -0.00748632 0.000175 -0.00445845 0.00423201 0.01616 2650 
1048 1 -0.0139511 0.0625197 -0.00749437 0.000635 -0.0514234 0.078091 -0.0302504 2650 
1150 1 -0.011504 0.00495187 -0.00692239 0.000175 -0.0413808 -0.00352608 -0.00180627 2650 
929 1 -0.00400326 0.0270361 -0.00664129 0.000175 -0.0368114 0.0812169 0.0158694 2650 
331 1 -0.0137909 0.0298058 -0.00696451 0.000175 -0.0493631 0.0312073 0.0174878 2650 
1047 1 -0.00452818 0.0390684 -0.00638899 0.000635 0.0109138 0.0474931 0.00722191 2650 
1263 1 -0.00869279 0.0516958 -0.00666987 6.3e-05 -0.0137252 0.0895463 0.0169239 2650 
269 1 -0.000738651 0.00774829 -0.00562803 6.3e-05 -0.0273034 0.0116509 0.0103358 2650 
476 1 -0.0133323 0.0174549 -0.0058312 0.000984 -0.00823331 -0.0104614 0.0126585 2650 
1290 1 -0.00315033 0.0168899 -0.00507679 0.000175 -0.0603529 -0.0016016 -0.0347722 2650 
413 1 -0.0138853 0.0190629 -0.00533167 0.000635 0.0465978 0.0324073 0.0609239 2650 
714 1 -0.00881772 0.0256412 -0.00566554 0.000635 -0.0147752 0.0270412 0.0188496 2650 
132 1 -0.0119643 0.0282356 -0.00597746 0.000175 -0.0214686 0.0415514 -0.0104796 2650 
102 1 -0.0106305 0.0290826 -0.0050393 6.3e-05 0.00971112 0.0599359 -0.000824985 2650 
123 1 -0.0075719 0.03452 -0.00590432 0.000175 -0.0364384 0.0463294 0.0273249 2650 
788 1 -0.00629011 0.000575656 -0.0036613 0.000175 -0.0194999 -0.00141801 0.0160469 2650 
78 1 -0.00562096 0.000183092 -0.00396661 0.000635 0.00677484 -0.0212839 0.0615608 2650 
156 1 -0.00363402 0.00293993 -0.00413307 0.000175 0.12377 0.0251861 0.0320315 2650 
589 1 -0.00402862 0.0057741 -0.00396679 0.000635 -0.0175167 -0.00301026 0.0148432 2650 
846 1 -0.0112876 0.00663821 -0.00369775 0.000635 0.00897348 0.00165835 -0.00491199 2650 
544 1 -0.0158197 0.0126986 -0.00377274 0.000635 -0.179357 0.218993 0.397007 2650 
686 1 -0.0101622 0.0134733 -0.00360874 0.000635 -0.00878804 0.0199662 0.0227815 2650 
1061 1 -0.0127983 0.0178889 -0.00403538 0.000175 -0.000755913 0.0287146 -0.007194 2650 
260 1 -0.00811418 0.0230387 -0.00401215 0.000175 0.032143 0.0846401 -0.057944 2650 
1093 1 -0.0128102 0.0276297 -0.0047859 0.000175 -0.0122318 0.0263197 0.039505 2650 
439 1 -0.01127 0.0741246 -0.00446666 6.3e-05 -0.0243268 0.0803513 -0.0586153 2650 
1126 1 -0.0137717 0.000607268 -0.00309672 0.000175 0.0447978 -0.0398724 0.139233 2650 
406 1 -0.003114 0.00105351 -0.002553 6.3e-05 0 -0.01175 0 2650 
304 1 -0.0165613 0.0023197 -0.00305624 6.3e-05 -0.0311777 -0.802128 0.487892 2650 
1222 1 -0.005802 0.00313451 -0.002479 0.000175 0 -0.01175 0 2650 
635 1 -0.0162983 0.0168879 -0.00338069 0.000175 -0.0499197 0.0137667 0.199613 2650 
1008 1 -0.00452985 0.0325458 -0.00350695 0.000635 -0.0270252 0.0402104 -0.00218799 2650 
131 1 -0.0117141 0.0737879 -0.00245139 0.000175 -0.0304792 0.148176 -0.000251089 2650 
1295 1 -0.002608 0.000175512 -0.002004 0.000175 0 -0.01175 0 2650 
916 1 -0.0161582 0.00467531 -0.00171339 0.000635 -0.0393337 -0.502065 0.771085 2650 
1177 1 -0.0108455 0.00830085 -0.00133079 0.000635 -0.056594 0.0508073 -0.0832007 2650 
793 1 -0.000757315 0.0106704 -0.001439 0.000175 -0.0265497 0.000599624 0.0114083 2650 
1140 1 -0.00097039 0.0341541 -0.00141058 0.000635 0.0112179 0.0524232 -0.00194534 2650 
863 1 -0.004917 0.00271051 -0.000782 0.000175 0 -0.01175 0 2650 
433 1 -0.009115 0.00492651 -0.000375 0.000175 0 -0.01175 0 2650 
252 1 -0.0126713 0.00788496 -0.000330301 0.000635 0.0293503 -0.0367223 0.00984136 2650 
309 1 -0.00305318 0.00813092 -0.00070679 0.000984 0.0293029 -0.020542 -0.00323511 2650 
645 1 -0.0101595 0.0259927 -0.000624089 0.000635 0.0118927 0.0494732 0.0190623 2650 
664 1 -0.00284781 0.0308527 -0.000672928 0.000175 0.0126188 0.0562591 0.0133742 2650 
558 1 -0.011131 0.00465351 0.000798 0.000175 0 -0.01175 0 2650 
925 1 -0.009738 0.00490051 0.000245 0.000175 0 -0.01175 0 2650 
935 1 -0.015402 0.00818142 0.000618804 6.3e-05 -0.0235092 0.0297256 0.0381044 2650 
57 1 -0.0165769 0.00905995 4.31929e-05 0.000175 -0.00109657 -0.00664838 0.0429083 2650 
815 1 -0.010643 0.0134406 0.0010048 0.000635 0.0547735 0.00785274 0.00594797 2650 
1225 1 -0.00644133 0.0194096 0.000259129 0.000175 0.0112418 0.0584262 0.0147774 2650 
378 1 -0.0158253 0.022342 0.00091124 0.000984 0.0312789 0.0373079 0.136516 2650 
172 1 -0.00647286 0.0288659 0.000396362 0.000984 -0.0189105 0.0383462 0.0351545 2650 
738 1 -0.000561814 4.5874e-06 0.00150054 0.000984 -0.0803076 0.0127536 -0.0198481 2650 
1060 1 -0.003566 0.00264851 0.00229 0.000175 0 -0.01175 0 2650 
54 1 -0.0147371 0.00568639 0.00164946 0.000175 -0.0111447 -0.0127656 0.0400306 2650 
90 1 -0.00933079 0.00950563 0.00198795 0.000175 0.0143101 -0.000334238 0.00032448 2650 
1281 1 -0.00162549 0.00857312 0.00154125 0.000635 0.00370192 -0.00396683 0.0176194 2650 
121 1 -0.0073645 0.0095579 0.00227987 0.000175 0.0351141 0.000913819 0.0311411 2650 
1075 1 -0.00443735 0.0166866 0.00233429 0.000635 0.0248732 -0.0128453 0.055656 2650 
1224 1 -0.00463807 0.0203004 0.00191577 0.000175 0.0617094 0.0823737 0.0098812 2650 
902 1 -0.005168 0.0217226 0.00169576 6.3e-05 0.0641799 0.0263632 0.00044842 2650 
778 1 -0.00521599 0.0278213 0.00190186 0.000635 0.00399627 0.0486178 0.0216768 2650 
343 1 -0.0140888 0.0524386 0.00218491 0.000984 -0.169353 0.51146 0.241776 2650 
1223 1 -0.004473 0.00249251 0.002721 0.000175 0 -0.01175 0 2650 
1276 1 -0.00568456 0.0063043 0.00314231 0.000635 -0.0479097 0.0152084 -0.00252504 2650 
272 1 -0.00681071 0.00947935 0.00245453 6.3e-05 0.0130743 0.00151405 -0.00760195 2650 
1088 1 -0.0146426 0.029467 0.00339246 0.000175 -0.0225544 0.0571495 0.00345449 2650 
66 1 -0.006818 0.00211751 0.004587 6.3e-05 0 -0.01175 0 2650 
319 1 -0.0142775 0.00975398 0.0036235 0.000635 -0.00233785 0.00973074 0.0271604 2650 
303 1 -0.00252503 0.0178504 0.00364713 6.3e-05 0.00250987 0.0127205 -0.0489267 2650 
481 1 -0.00774353 0.0193476 0.00406092 0.000635 -0.00352626 0.0270785 0.0412731 2650 
195 1 -0.00421182 0.0302612 0.00448007 0.000175 0.0157341 0.038828 0.0137612 2650 
932 1 -0.0159017 0.0509098 0.00378671 0.000175 0.0193402 0.0765045 0.0729754 2650 
735 1 -0.010003 0.00317251 0.004837 6.3e-05 0 -0.01175 0 2650 
956 1 -0.0152009 0.00612408 0.00559826 0.000175 -0.0226867 0.00615413 0.016731 2650 
459 1 -0.0107233 0.0142746 0.00561404 0.000175 -0.00411793 0.00792938 0.0522038 2650 
1256 1 -0.0035225 0.0186574 0.00556968 0.000175 0.0203096 0.0158007 0.00110055 2650 
98 1 -0.0156784 0.0195504 0.00563438 0.000175 0.0294231 0.0461214 0.0697954 2650 
947 1 -0.0144163 0.0225105 0.00518044 0.000635 0.0167469 0.0173525 -0.00581061 2650 
209 1 -0.00421154 0.0257056 0.00566165 0.000635 -0.0207037 0.0354086 0.0572698 2650 
110 1 -0.0132639 0.0307838 0.00573333 0.000635 -0.031535 0.0427706 0.0495042 2650 
134 1 -0.0151371 0.00697134 0.00719011 6.3e-05 0.0260305 0.0122522 0.060472 2650 
432 1 -0.0153651 0.0130637 0.00669916 0.000175 0.0406915 0.00393874 0.098959 2650 
891 1 -0.00644403 0.0481678 0.00679397 0.000175 -0.0459448 0.147922 -0.0354575 2650 
1315 1 -0.00970585 0.000648425 0.00722145 0.000175 -0.00239028 -0.0111752 0.0182369 2650 
1010 1 -0.00290119 0.0182393 0.00826402 0.000635 0.0170247 0.0232265 0.0249986 2650 
410 1 -0.0121896 0.0208241 0.00722621 0.000984 0.143719 0.00875112 0.188907 2650 
126 1 -0.0143293 0.0261717 0.00820789 0.000175 -0.0409161 0.0431073 -0.0942933 2650 
1204 1 -0.0110392 0.0265845 0.00798934 0.000635 -0.0127415 0.0311845 0.0509298 2650 
1173 1 -0.0137283 0.0366368 0.00781216 0.000635 0.0592355 0.0506025 0.0995937 2650 
1017 1 -0.00911326 0.0186388 0.00900887 0.000635 -0.0179783 0.0277308 0.0622075 2650 
601 1 -0.0141417 0.025187 0.00893263 0.000175 0.184038 0.096746 0.244223 2650 
443 1 -0.00412611 0.030779 0.00937877 0.000984 0.0127122 0.0766293 0.0451517 2650 
1240 1 -0.0133999 0.0524644 0.00911665 0.000635 0.0379524 0.0824397 0.0808695 2650 
256 1 -0.00488286 0.00258972 0.0106032 0.000175 0.000970979 -0.0118608 -0.000158841 2650 
749 1 -0.00168312 0.0152894 0.00989281 0.000635 -0.0173164 0.00664928 0.0126024 2650 
1284 1 -0.0126857 0.0390968 0.0107506 0.000175 0.412826 0.762488 0.543155 2650 
76 1 -0.0038749 0.00085414 0.0117999 0.000635 0.00956755 -0.00447154 0.0363384 2650 
1193 1 -0.000135 0.00550551 0.010956 0.000175 0 -0.01175 0 2650 
1235 1 -0.00940284 0.020525 0.012931 0.000984 0.025396 -0.00126468 0.00174097 2650 
1007 1 -0.00289759 0.0227857 0.0120106 0.000635 0.0268798 0.0736885 0.0360338 2650 
229 1 -0.00965348 0.0294543 0.0124082 0.000175 0.0354281 0.117464 0.0475962 2650 
1205 1 -0.0165252 0.0690297 0.0121214 0.000635 -1.37712 0.177575 1.18449 2650 
789 1 -0.000139765 0.00233747 0.0142667 0.000175 -0.0527069 0.00736859 0.095591 2650 
832 1 -0.00772062 0.0330384 0.0137576 0.000175 0.0253057 0.0347211 -0.0194402 2650 
1210 1 -0.00331592 0.0377238 0.0137035 0.000635 0.635081 0.00237561 0.221226 2650 
1278 1 -0.00536516 0.00828437 0.0151853 0.000635 0.0532131 0.0226018 0.0340086 2650 
1182 1 -0.00233128 0.0529175 0.0145053 0.000635 0.112703 0.384458 -0.035251 2650 
506 1 -0.00165792 0.00100087 0.0165198 6.3e-05 -0.00948944 -0.00635906 -0.00297319 2650 
466 1 -0.003486 0.00222851 0.016364 0.000175 0 -0.01175 0 2650 
120 1 -3.00728e-05 0.00777578 0.0166438 0.000175 0.619839 0.0609967 0.025325 2650 
190 1 -0.00158213 0.0124275 0.0165078 0.000175 0.123535 0.00460932 0.00275359 2650 
1163 1 -0.0041241 0.0179617 0.0161169 0.000175 0.216627 -0.223089 0.0536464 2650 
822 1 -0.00574599 0.0195483 0.0156741 0.000175 0.217001 -0.138403 0.0499694 2650 
498 1 -0.0039436 0.045847 0.0161954 0.000175 -0.0550832 0.0602529 -0.0102234 2650 
488 1 -0.0625692 0.00794094 0.0260794 0.000635 -13.8104 5.71776 55.9441 2650 
512 1 -0.00340019 0.0459592 0.0682804 0.000635 14.9276 -7.50179 0.743356 2650 
1058 1 -0.0204984 0.133586 -0.0657043 0.000175 -91.2685 -6.48644 28.4705 2650 
524 1 -0.0264931 0.0935293 -0.0635105 0.000175 -0.16509 0.0119502 -0.0275935 2650 
845 1 -0.0374952 0.121577 -0.0571654 0.000635 -2.83047 -0.179118 1.85651 2650 
595 1 -0.00250148 0.111527 -0.0140184 0.000175 0.0161191 0.190258 -0.081687 2650 
847 1 -0.00769146 0.081357 -0.00110722 0.000635 -0.0269593 0.142316 0.0158804 2650 
358 1 -0.0688189 0.0856881 -0.00115058 0.000175 -0.00347097 1.05232 0.207574 2650 
241 1 -0.00355269 0.111182 0.000698024 0.000984 -0.0235059 0.147325 -0.0182819 2650 
300 1 -0.00773233 0.113312 0.00716694 0.000175 0.00170115 0.148187 0.035275 2650 
754 1 -0.00149151 0.116141 0.00949719 0.000635 0.00621309 0.149098 0.0468521 2650 
385 1 -0.0677316 0.142447 0.00937786 0.000635 -0.00576737 0.0562712 -0.041631 2650 
1115 1 -0.0639993 0.0872891 0.023872 0.000635 4.21898 2.57489 8.36021 2650 
310 1 -0.0581869 0.0774521 0.0352441 0.000984 -0.108439 -0.106387 -0.178856 2650 
114 1 -0.0177059 0.109179 0.0660514 0.000635 66.099 -6.44216 17.7115 2650 
307 1 0.0103543 -0.0580297 -0.0672367 0.000984 -38.283 -2.08355 -5.89161 2650 
1304 1 0.0217993 -0.0198792 -0.0648055 0.000635 -44.2042 -8.08299 -14.8629 2650 
348 1 0.023952 -0.00632424 -0.064034 0.000635 -27.0181 -3.59992 -10.102 2650 
548 1 0.0232478 -0.00219769 -0.0642942 0.000635 -30.6312 -2.21936 -11.0722 2650 
817 1 0.0255802 -0.0480127 -0.0634039 0.000635 -32.73 -3.00032 -13.1991 2650 
246 1 0.0263371 -0.0266799 -0.0630934 0.000635 -32.6771 -8.85381 -13.6343 2650 
1146 1 0.0281583 -0.0420229 -0.0623042 0.000635 -36.1677 3.80248 -16.3385 2650 
118 1 0.0276974 -0.00819232 -0.06251 0.000635 -35.5822 -1.24605 -15.7582 2650 
917 1 0.0275484 -0.00440039 -0.0625771 0.000635 -38.2738 -0.05071 -16.8424 2650 
522 1 0.0331223 -0.0199323 -0.0598118 0.000635 -29.8599 -1.37992 -16.5277 2650 
91 1 0.0348437 -0.0425266 -0.0593541 0.000175 -45.7747 -1.94828 -26.8684 2650 
983 1 0.0394008 -0.00152435 -0.0558745 0.000635 -21.6563 -1.05892 -15.264 2650 
549 1 0.0462902 -0.0495255 -0.0503229 0.000635 -26.621 3.85173 -24.4754 2650 
557 1 0.0473405 -0.061186 -0.0494046 0.000175 -24.1873 1.61155 -27.1915 2650 
986 1 0.0495603 -0.0103384 -0.0477584 0.000175 -27.0002 -2.12676 -28.0141 2650 
672 1 0.0490662 -0.00122839 -0.0471244 0.000984 -16.8176 11.7887 -17.4964 2650 
848 1 0.0515567 -0.0076395 -0.0449161 0.000635 -25.335 1.80308 -29.0665 2650 
516 1 0.054423 -0.0343555 -0.0413877 0.000635 -10.321 -3.43479 -13.5632 2650 
710 1 0.0574109 -0.0425661 -0.0371508 0.000635 -24.5515 1.17181 -37.923 2650 
739 1 0.0574236 -0.0405633 -0.0365137 0.000984 -23.2463 1.74467 -36.5337 2650 
682 1 0.0584195 -0.0385425 -0.0355266 0.000635 -6.85601 -6.97866 -11.2674 2650 
44 1 0.0540719 -0.0317477 -0.0319867 0.000635 16.7237 -0.880146 27.8097 2650 
289 1 0.0600773 -0.0490545 -0.0326682 0.000635 -23.0425 -1.08892 -42.3564 2650 
2 1 0.0592143 -0.0366874 -0.0305767 0.000984 -40.6733 -27.3663 -30.4142 2650 
1198 1 0.0627668 -0.00961564 0.0285092 6.3e-05 15.0911 -2.52653 -33.2232 2650 
461 1 0.0641272 -0.0343363 -0.0250034 0.000175 -22.3975 2.58466 -57.4357 2650 
147 1 0.00113946 -0.00480642 -0.0194982 0.000635 -0.265128 -0.348788 -1.71922 2650 
218 1 0.0661421 -0.0271245 -0.0173489 0.000635 -5.62676 0.0972543 -21.4405 2650 
1040 1 0.0660079 -0.0119834 -0.0178898 0.000635 -13.9198 -5.66609 -51.3377 2650 
1029 1 0.0041191 -0.00249378 -0.0161401 0.000175 -0.372367 -0.29722 -0.08122 2650 
616 1 0.00499134 -0.00333592 -0.0154002 0.000635 -0.341366 -0.212544 -0.141517 2650 
278 1 0.0666885 -0.0375043 -0.0151654 0.000635 -12.7682 -4.05501 -56.1054 2650 
503 1 0.0677362 -0.00623895 -0.0122123 0.000175 0.00450978 -0.167803 0.0250097 2650 
497 1 0.003564 -0.00286049 -0.01296 0.000175 0 -0.01175 0 2650 
884 1 0.00924962 -0.00319741 -0.0128331 0.000635 -0.102536 -0.157659 -0.0750615 2650 
928 1 0.00957082 -0.00161949 -0.0121797 0.000175 0.0199017 -0.0211995 0.0189867 2650 
816 1 0.0672862 -0.0159888 -0.0121844 0.000635 -4.27037 -7.26579 -23.5687 2650 
866 1 0.00668265 -0.00315956 -0.0115803 0.000175 -0.053071 -0.0113907 -0.155248 2650 
290 1 0.0678598 -0.0287327 -0.0115091 0.000175 -6.13465 -11.6885 -36.1652 2650 
1035 1 0.0672947 -0.0235927 -0.0101139 0.000984 -5.41345 -3.30046 -35.9948 2650 
1176 1 0.0676925 -0.0125128 -0.00967214 0.000635 -2.95959 1.83028 -20.6989 2650 
755 1 0.0132653 -0.00109463 -0.00694503 0.000175 -0.0466566 -0.0601177 -0.0835219 2650 
1091 1 0.068503 -0.055385 -0.00669089 0.000175 -3.56806 -2.53894 -36.5253 2650 
614 1 0.0682074 -0.0377913 -0.0049561 0.000635 -3.28921 0.742205 -45.2471 2650 
1079 1 0.0154726 -0.00229094 -0.00455888 0.000635 0.00744756 -0.0164715 0.0328427 2650 
1292 1 0.0687213 -0.0037059 -0.00385255 0.000175 -2.37904 -1.99661 -42.4308 2650 
1319 1 0.009274 -0.000931488 -0.003096 0.000175 0 -0.01175 0 2650 
55 1 0.0687495 -0.0194141 -0.00331237 0.000175 -2.14616 8.30662 -44.5381 2650 
184 1 0.0158975 -0.00262224 -0.00152572 0.000635 -0.0212729 -0.0140215 -0.14607 2650 
921 1 0.0086468 -0.00154262 -0.000174108 0.000175 -0.000222284 -0.0107779 0.000900049 2650 
1219 1 0.00979389 -0.00131651 -0.000804825 0.000175 0.00164097 -0.0135435 -0.00732385 2650 
219 1 0.000926691 -0.00274063 0.00160745 0.000635 0.0172316 -0.0243015 -0.0024599 2650 
598 1 0.00393 -0.00304749 0.001957 0.000175 0 -0.01175 0 2650 
867 1 0.0165901 -0.0026987 0.00241182 6.3e-05 0.00354256 -0.118681 -0.101478 2650 
733 1 0.0687694 -0.0510341 0.00288501 0.000175 2.5624 -4.13389 -61.0709 2650 
1316 1 0.01145 -0.00218649 0.003743 0.000175 0 -0.01175 0 2650 
200 1 0.013022 -0.00235649 0.003646 0.000175 0 -0.01175 0 2650 
1072 1 0.0681969 -0.0465589 0.00505988 0.000635 2.70392 1.17911 -36.4253 2650 
253 1 0.0682799 -0.0358004 0.00381348 0.000635 2.37833 -14.2585 -42.5632 2650 
723 1 0.0684379 -0.0328984 0.0073272 0.000175 4.01749 3.80919 -37.5187 2650 
133 1 0.0173873 -0.00473735 0.0107846 6.3e-05 1.64278 -0.355681 0.856686 2650 
668 1 0.0676644 -0.0567264 0.0126129 0.000175 12.0949 8.85419 -64.8767 2650 
798 1 0.004927 -0.00245449 0.013693 0.000175 0 -0.01175 0 2650 
760 1 0.00865643 -0.000269659 0.0136856 0.000175 0.0579605 -0.00261203 0.0224347 2650 
654 1 0.0668276 -0.00823874 0.014504 0.000635 7.63077 -1.83197 -35.1419 2650 
43 1 0.00531538 -0.00015754 0.0153063 0.000635 0.74881 0.120586 -0.327783 2650 
1023 1 0.0671367 -0.0497845 0.0151773 0.000175 19.0219 19.6064 -84.1324 2650 
852 1 0.0658845 -0.0137657 0.0183325 0.000635 13.1472 -1.89334 -47.228 2650 
105 1 0.0629532 -0.0272009 0.0258304 0.000984 13.3245 -7.84533 -32.4508 2650 
323 1 0.0631137 -0.0172203 0.0263203 0.000635 14.2063 1.89087 -34.0488 2650 
201 1 0.0633973 -0.00561509 0.0270782 6.3e-05 0.065627 -0.204405 -0.153641 2650 
912 1 0.0557987 -0.0354959 0.0395372 0.000635 32.5157 -12.271 -45.8698 2650 
521 1 0.0560521 -0.0162482 0.0391623 0.000635 19.1242 -1.15035 -27.358 2650 
1050 1 0.0554145 -0.00531106 0.0400547 0.000635 14.8909 1.10659 -20.5905 2650 
1022 1 0.0515772 -0.0352153 0.0412029 0.000175 1.61477 11.7645 -7.61893 2650 
261 1 0.0529089 -0.0327109 0.0440193 0.000175 13.4075 -5.45277 -16.1121 2650 
721 1 0.0481005 -0.0156611 0.0485971 0.000635 27.1573 -3.11961 -26.8665 2650 
380 1 0.0456941 -0.0378957 0.050869 0.000635 33.7261 5.94247 -30.2811 2650 
978 1 0.0425154 -0.0514554 0.0535544 0.000635 37.7423 -0.41066 -29.9489 2650 
482 1 0.0409941 -0.00200133 0.0547149 0.000635 17.8198 -1.92389 -13.3437 2650 
1236 1 0.0364141 -0.0564447 0.0571681 0.000635 45.5436 5.89681 -26.347 2650 
355 1 0.0362599 -0.0187701 0.0579759 0.000635 48.9163 4.89387 -30.5807 2650 
150 1 0.0375859 -0.00351583 0.057117 0.000635 34.3452 -3.6296 -22.5902 2650 
919 1 0.0343989 -0.0185804 0.0596132 0.000175 49.222 5.83293 -28.3992 2650 
1089 1 0.012696 -0.00486387 0.0603608 0.000175 1.98045 -0.147151 9.3456 2650 
618 1 0.0233122 -0.000761408 0.0603343 0.000635 61.6277 -0.828049 -22.7639 2650 
525 1 0.0324178 -0.0526511 0.0607125 0.000175 38.6794 2.20875 -20.6515 2650 
1283 1 0.0309518 -0.0067477 0.0614726 0.000175 33.5702 -1.92716 -16.9043 2650 
622 1 0.0271812 -0.0149967 0.0627378 0.000635 39.3655 3.08213 -17.0475 2650 
336 1 0.0135021 -0.0315923 0.0674876 0.000175 36.5787 -10.0078 -7.31818 2650 
1028 1 0.00661562 -0.0394343 0.0685064 0.000175 51.465 -14.9296 -4.96981 2650 
1257 1 0.00308309 -0.0254769 0.0687559 0.000175 37.0537 13.1446 -1.66153 2650 
963 1 0.00426928 0.066169 -0.0663892 0.000175 -1.14588 0.155017 2.5586 2650 
1043 1 0.0308818 0.067779 -0.056304 0.000635 -1.41074 -5.82808 -23.4852 2650 
1260 1 0.0483207 0.0724075 -0.0490104 0.000175 0.134513 -0.166599 0.132586 2650 
887 1 0.00396068 0.0725929 -0.0480091 0.000175 0.499206 0.360815 -7.067 2650 
759 1 0.00182266 0.0249689 -0.0166 0.000175 -2.58045 0.274809 -0.100797 2650 
500 1 0.000501834 0.0279795 -0.0160622 0.000175 -0.228763 -0.100552 0.0260187 2650 
940 1 0.000877518 0.0290379 -0.0162099 0.000635 -0.508487 0.224418 -0.0203465 2650 
1025 1 0.00419219 0.0326439 -0.0162129 0.000175 -0.387279 0.345505 -0.100661 2650 
1289 1 0.0036538 0.0336703 -0.0162508 0.000175 -0.234567 0.0220925 -0.0587771 2650 