LIGGGHTS (Version LIGGGHTS-PUBLIC 3.8.0, compiled 2022-11-07-16:55:38 by serperd1, git commit 86544c3f1215bc9744d7929e3eacf53ba086af9e)
units si #
dimension 3 #
newton off #
boundary f f f #
atom_style sphere #
pair_style gran model hertz tangential history #
communicate single vel yes #
region outer_basket cylinder y 0 0 0.15 -0.15 0.15 #
create_box 3 outer_basket #
Created orthogonal box = (-0.15 -0.15 -0.15) to (0.15 0.15 0.15)
  2 by 4 by 5 MPI processor grid
variable my_omega equal 157.0796 #
fix cone_mesh all mesh/surface file cone.stl type 3 scale 1 #
fix rotating_wall_1 all move/mesh mesh cone_mesh rotate/variable origin 0 0 0 axis 0 1 0 omega v_my_omega #
fix filter_mesh_walls all wall/gran model hertz tangential history primitive type 2 ycylinder_filtermesh 0.069 0 0 2 12 -0.0628 0 0.018559 0.01613 0.056059 0.05363 shear x 10.8385 #

fix inlet_cyl_wall_mesh all mesh/surface file in_cyl.stl type 3 scale 1 #
fix top_cyl_wall_mesh all mesh/surface file top_cyl.stl type 3 scale 1 #
fix rotating_wall_4 all move/mesh mesh top_cyl_wall_mesh rotate/variable origin 0 0 0 axis 0 1 0 omega v_my_omega #
fix bot_cyl_wall_mesh all mesh/surface file bot_cyl.stl type 3 scale 1 #
fix rotating_wall_5 all move/mesh mesh bot_cyl_wall_mesh rotate/variable origin 0 0 0 axis 0 1 0 omega v_my_omega #
fix bot_disk_wall_mesh all mesh/surface file bottom_disk.stl type 3 scale 1 #
fix rotating_wall_6 all move/mesh mesh bot_disk_wall_mesh rotate/variable origin 0 0 0 axis 0 1 0 omega v_my_omega #
fix top_disk_wall_mesh all mesh/surface file top_disk.stl type 3 scale 1 #
fix rotating_wall_7 all move/mesh mesh top_disk_wall_mesh rotate/variable origin 0 0 0 axis 0 1 0 omega v_my_omega #
fix GMSH_mesh_walls all wall/gran model hertz tangential history mesh n_meshes 6 meshes cone_mesh top_cyl_wall_mesh bot_cyl_wall_mesh bot_disk_wall_mesh inlet_cyl_wall_mesh top_disk_wall_mesh #
fix Young_mod all property/global youngsModulus peratomtype 375000000 46000000 1000000000 #
fix Poisson_rat all property/global poissonsRatio peratomtype 0.32 0.42 0.29 #
fix Coeff_rest all property/global coefficientRestitution peratomtypepair 3 0.15 0.32 0.475 0.32 0.49 0.645 0.475 0.645 0.8 #
fix Coeff_fric all property/global coefficientFriction peratomtypepair 3 0.04 0.145 0.12 0.145 0.25 0.225 0.12 0.225 0.2 #

neighbor 0.00039366 bin #
neigh_modify delay 0 one 100000 page 5000000 #
fix r_0to10p all particletemplate/sphere 12345787 atom_type 1 density constant 2650 radius constant 6.3e-05 #
fix r_10to50p all particletemplate/sphere 15485863 atom_type 1 density constant 2650 radius constant 0.0001746 #
fix r_50to90p all particletemplate/sphere 15485867 atom_type 1 density constant 2650 radius constant 0.00063495 #
fix r_90to100p all particletemplate/sphere 32452843 atom_type 1 density constant 2650 radius constant 0.00098415 #
fix prob_par all particledistribution/discrete 32452867 4 r_0to10p 0.1 r_10to50p 0.4 r_50to90p 0.4 r_90to100p 0.1 #
pair_coeff * * #
timestep 4.86e-08 #

fix nve_group all nve/sphere #
fix grav_fix all gravity 6.1081 vector 0.017 -0.0033 0 -1 0 #
fix cent_fix all centrifugal 157.0796 0.017 -0.0033 0.069 #

variable step equal step #
variable mycount equal count(all) #
fix print_amount_of_atoms all print 25 "${step} ${mycount}" file numatoms.txt screen no #
run 0 #
Setting up run at Mon Jan  2 13:00:06 2023

Memory usage per processor = 955.842 Mbytes
    Step    Atoms         KinEng            CPU 
       0        0              0              0 
Loop time of 5.37758e-05 on 40 procs for 0 steps with 0 atoms, finish time Mon Jan  2 13:00:06 2023


Pair  time (%) = 0 (0)
Neigh time (%) = 0 (0)
Comm  time (%) = 0 (0)
Outpt time (%) = 0 (0)
Other time (%) = 5.37758e-05 (100)

Nlocal:    0 ave 0 max 0 min
Histogram: 40 0 0 0 0 0 0 0 0 0
Nghost:    0 ave 0 max 0 min
Histogram: 40 0 0 0 0 0 0 0 0 0
Neighs:    0 ave 0 max 0 min
Histogram: 40 0 0 0 0 0 0 0 0 0

Total # of neighbors = 0
Neighbor list builds = 0
Dangerous builds = 0
run 1 #
Setting up run at Mon Jan  2 13:00:06 2023

Memory usage per processor = 955.842 Mbytes
    Step    Atoms         KinEng            CPU 
       0        0              0              0 
       1        0              0    0.009782511 
Loop time of 0.00980261 on 40 procs for 1 steps with 0 atoms, finish time Mon Jan  2 13:00:06 2023


Pair  time (%) = 2.49445e-06 (0.0254468)
Neigh time (%) = 0 (0)
Comm  time (%) = 0.000245736 (2.50684)
Outpt time (%) = 0.000109058 (1.11254)
Other time (%) = 0.00944533 (96.3552)

Nlocal:    0 ave 0 max 0 min
Histogram: 40 0 0 0 0 0 0 0 0 0
Nghost:    0 ave 0 max 0 min
Histogram: 40 0 0 0 0 0 0 0 0 0
Neighs:    0 ave 0 max 0 min
Histogram: 40 0 0 0 0 0 0 0 0 0

Total # of neighbors = 0
Neighbor list builds = 0
Dangerous builds = 0
read_dump dump.atom_info_1 1 x y z radius vx vy vz box no add yes replace no #
  orthogonal box = (-0.15 -0.15 -0.15) to (0.15 0.15 0.15)
  0 atoms before read
  1331 atoms in snapshot
  0 atoms purged
  0 atoms replaced
  0 atoms trimmed
  1331 atoms added
  1331 atoms after read
set atom * type 1 density 2650 vy -0.01175 #
  1331 settings made for type
  1331 settings made for density
  1331 settings made for vy
run 1 #
Setting up run at Mon Jan  2 13:00:07 2023

Memory usage per processor = 960.195 Mbytes
    Step    Atoms         KinEng            CPU 
       1     1331    2.04396e-07              0 
       2     1331  2.5455856e-07    0.009209162 
Loop time of 0.00922329 on 40 procs for 1 steps with 1331 atoms, finish time Mon Jan  2 13:00:07 2023


Pair  time (%) = 2.66177e-06 (0.0288593)
Neigh time (%) = 0 (0)
Comm  time (%) = 5.13255e-06 (0.0556477)
Outpt time (%) = 0.000173091 (1.87668)
Other time (%) = 0.0090424 (98.0388)

Nlocal:    33.275 ave 555 max 0 min
Histogram: 36 0 2 0 0 0 0 0 0 2
Nghost:    13.575 ave 173 max 0 min
Histogram: 36 0 0 0 0 1 1 0 0 2
Neighs:    10.175 ave 168 max 0 min
Histogram: 36 0 2 0 0 0 0 0 0 2

Total # of neighbors = 407
Ave neighs/atom = 0.305785
Neighbor list builds = 0
Dangerous builds = 0
write_dump all custom dump.atom_info_ac_* id type x y z radius vx vy vz density #
run 205761
Setting up run at Mon Jan  2 13:00:07 2023

Memory usage per processor = 960.195 Mbytes
    Step    Atoms         KinEng            CPU 
       2     1331  2.5455856e-07              0 
  205763     1331  6.9273694e-05       1999.147 
Loop time of 1999.15 on 40 procs for 205761 steps with 1331 atoms, finish time Mon Jan  2 13:33:26 2023


Pair  time (%) = 0.531911 (0.0266069)
Neigh time (%) = 0.41589 (0.0208034)
Comm  time (%) = 1.178 (0.0589253)
Outpt time (%) = 0.000582741 (2.91495e-05)
Other time (%) = 1997.02 (99.8936)

Nlocal:    33.275 ave 551 max 0 min
Histogram: 36 0 2 0 0 0 0 0 0 2
Nghost:    13.8 ave 171 max 0 min
Histogram: 36 0 0 0 0 1 1 0 0 2
Neighs:    11.175 ave 191 max 0 min
Histogram: 36 1 1 0 0 0 0 0 1 1

Total # of neighbors = 447
Ave neighs/atom = 0.335838
Neighbor list builds = 550
Dangerous builds = 0
write_dump all custom dump.atom_info_ac_* id type x y z radius vx vy vz density #
run 205761
Setting up run at Mon Jan  2 13:33:26 2023

Memory usage per processor = 960.195 Mbytes
    Step    Atoms         KinEng            CPU 
  205763     1331  6.9273694e-05              0 
  411524     1331  0.00040217614      2006.6634 
Loop time of 2006.66 on 40 procs for 205761 steps with 1331 atoms, finish time Mon Jan  2 14:06:53 2023


Pair  time (%) = 0.530946 (0.0264592)
Neigh time (%) = 0.41596 (0.0207289)
Comm  time (%) = 1.21706 (0.0606507)
Outpt time (%) = 0.000315163 (1.57058e-05)
Other time (%) = 2004.5 (99.8921)

Nlocal:    33.275 ave 538 max 0 min
Histogram: 36 0 2 0 0 0 0 0 0 2
Nghost:    13.625 ave 169 max 0 min
Histogram: 36 0 0 0 0 1 1 0 0 2
Neighs:    11.725 ave 197 max 0 min
Histogram: 36 1 1 0 0 0 0 0 0 2

Total # of neighbors = 469
Ave neighs/atom = 0.352367
Neighbor list builds = 550
Dangerous builds = 0
write_dump all custom dump.atom_info_ac_* id type x y z radius vx vy vz density #
run 205761
Setting up run at Mon Jan  2 14:06:53 2023

Memory usage per processor = 960.195 Mbytes
    Step    Atoms         KinEng            CPU 
  411524     1331  0.00040217614              0 
  617285     1331  0.00067128357      1994.5379 
Loop time of 1994.54 on 40 procs for 205761 steps with 1331 atoms, finish time Mon Jan  2 14:40:07 2023


Pair  time (%) = 0.531322 (0.0266389)
Neigh time (%) = 0.417199 (0.0209171)
Comm  time (%) = 1.25764 (0.0630544)
Outpt time (%) = 0.000506978 (2.54183e-05)
Other time (%) = 1992.33 (99.8894)

Nlocal:    33.275 ave 522 max 0 min
Histogram: 36 0 2 0 0 0 0 0 0 2
Nghost:    13.05 ave 158 max 0 min
Histogram: 36 0 0 0 0 0 1 1 0 2
Neighs:    11.9 ave 190 max 0 min
Histogram: 36 0 2 0 0 0 0 0 0 2

Total # of neighbors = 476
Ave neighs/atom = 0.357626
Neighbor list builds = 550
Dangerous builds = 0
write_dump all custom dump.atom_info_ac_* id type x y z radius vx vy vz density #
run 205761
Setting up run at Mon Jan  2 14:40:07 2023

Memory usage per processor = 960.195 Mbytes
    Step    Atoms         KinEng            CPU 
  617285     1331  0.00067128357              0 
  823046     1331    0.063440029      2009.2536 
Loop time of 2009.25 on 40 procs for 205761 steps with 1331 atoms, finish time Mon Jan  2 15:13:37 2023


Pair  time (%) = 0.529894 (0.0263727)
Neigh time (%) = 2.80692 (0.1397)
Comm  time (%) = 3.09487 (0.154031)
Outpt time (%) = 0.000283599 (1.41146e-05)
Other time (%) = 2002.82 (99.6799)

Nlocal:    33.275 ave 512 max 0 min
Histogram: 36 0 1 1 0 0 0 0 0 2
Nghost:    12.925 ave 161 max 0 min
Histogram: 36 0 0 0 0 1 1 0 0 2
Neighs:    12.575 ave 203 max 0 min
Histogram: 36 0 2 0 0 0 0 0 0 2

Total # of neighbors = 503
Ave neighs/atom = 0.377911
Neighbor list builds = 3477
Dangerous builds = 0
write_dump all custom dump.atom_info_ac_* id type x y z radius vx vy vz density #
run 205761
Setting up run at Mon Jan  2 15:13:37 2023

Memory usage per processor = 960.195 Mbytes
    Step    Atoms         KinEng            CPU 
  823046     1331    0.063440029              0 
 1028807     1331    0.062176167      2013.3396 
Loop time of 2013.34 on 40 procs for 205761 steps with 1331 atoms, finish time Mon Jan  2 15:47:10 2023


Pair  time (%) = 0.526128 (0.0261321)
Neigh time (%) = 4.41559 (0.219317)
Comm  time (%) = 4.00299 (0.198823)
Outpt time (%) = 0.000501034 (2.48857e-05)
Other time (%) = 2004.39 (99.5557)

Nlocal:    33.275 ave 498 max 0 min
Histogram: 36 0 1 1 0 0 0 0 0 2
Nghost:    12.25 ave 159 max 0 min
Histogram: 36 0 0 0 0 1 1 0 0 2
Neighs:    12.65 ave 194 max 0 min
Histogram: 36 0 1 1 0 0 0 0 0 2

Total # of neighbors = 506
Ave neighs/atom = 0.380165
Neighbor list builds = 5444
Dangerous builds = 0
write_dump all custom dump.atom_info_ac_* id type x y z radius vx vy vz density #
run 205761
Setting up run at Mon Jan  2 15:47:10 2023

Memory usage per processor = 960.195 Mbytes
    Step    Atoms         KinEng            CPU 
 1028807     1331    0.062176167              0 
 1234568     1330    0.041225632      2013.4312 
Loop time of 2013.43 on 40 procs for 205761 steps with 1330 atoms, finish time Mon Jan  2 16:20:44 2023


Pair  time (%) = 0.532282 (0.0264366)
Neigh time (%) = 4.10146 (0.203705)
Comm  time (%) = 3.86041 (0.191733)
Outpt time (%) = 0.000512009 (2.54297e-05)
Other time (%) = 2004.94 (99.5781)

Nlocal:    33.25 ave 496 max 0 min
Histogram: 36 0 1 1 0 0 0 0 0 2
Nghost:    11.7 ave 155 max 0 min
Histogram: 36 0 0 0 0 2 0 0 1 1
Neighs:    11.9 ave 183 max 0 min
Histogram: 36 0 1 1 0 0 0 0 0 2

Total # of neighbors = 476
Ave neighs/atom = 0.357895
Neighbor list builds = 5049
Dangerous builds = 0
write_dump all custom dump.atom_info_ac_* id type x y z radius vx vy vz density #
run 205761
Setting up run at Mon Jan  2 16:20:44 2023

Memory usage per processor = 960.195 Mbytes
    Step    Atoms         KinEng            CPU 
 1234568     1330    0.041225632              0 
 1440329     1327     0.20432878      2012.1196 
Loop time of 2012.12 on 40 procs for 205761 steps with 1327 atoms, finish time Mon Jan  2 16:54:16 2023


Pair  time (%) = 0.527829 (0.0262325)
Neigh time (%) = 3.85541 (0.191609)
Comm  time (%) = 4.79137 (0.238126)
Outpt time (%) = 0.000487407 (2.42235e-05)
Other time (%) = 2002.94 (99.544)

Nlocal:    33.175 ave 490 max 0 min
Histogram: 36 0 1 1 0 0 0 0 0 2
Nghost:    11.075 ave 140 max 0 min
Histogram: 36 0 0 0 0 1 1 0 0 2
Neighs:    11.925 ave 180 max 0 min
Histogram: 36 0 0 1 1 0 0 0 0 2

Total # of neighbors = 477
Ave neighs/atom = 0.359457
Neighbor list builds = 4773
Dangerous builds = 218
write_dump all custom dump.atom_info_ac_* id type x y z radius vx vy vz density #
run 205761
Setting up run at Mon Jan  2 16:54:16 2023

Memory usage per processor = 960.195 Mbytes
    Step    Atoms         KinEng            CPU 
 1440329     1327     0.20432878              0 
 1646090     1326    0.033083303      2013.1251 
Loop time of 2013.13 on 40 procs for 205761 steps with 1326 atoms, finish time Mon Jan  2 17:27:49 2023


Pair  time (%) = 0.526582 (0.0261574)
Neigh time (%) = 3.95822 (0.196621)
Comm  time (%) = 4.60182 (0.228591)
Outpt time (%) = 0.000533673 (2.65097e-05)
Other time (%) = 2004.04 (99.5486)

Nlocal:    33.15 ave 487 max 0 min
Histogram: 36 0 0 2 0 0 0 0 0 2
Nghost:    10.675 ave 135 max 0 min
Histogram: 36 0 0 0 0 2 0 0 0 2
Neighs:    11.7 ave 178 max 0 min
Histogram: 36 0 0 2 0 0 0 0 0 2

Total # of neighbors = 468
Ave neighs/atom = 0.352941
Neighbor list builds = 4876
Dangerous builds = 0
write_dump all custom dump.atom_info_ac_* id type x y z radius vx vy vz density #
run 205761
Setting up run at Mon Jan  2 17:27:49 2023

Memory usage per processor = 960.195 Mbytes
    Step    Atoms         KinEng            CPU 
 1646090     1326    0.033083303              0 
 1851851     1324     0.17964477      2078.9714 
Loop time of 2078.97 on 40 procs for 205761 steps with 1324 atoms, finish time Mon Jan  2 18:02:28 2023


Pair  time (%) = 0.524648 (0.025236)
Neigh time (%) = 3.28944 (0.158224)
Comm  time (%) = 4.06403 (0.195483)
Outpt time (%) = 0.000527812 (2.53881e-05)
Other time (%) = 2071.09 (99.621)

Nlocal:    33.1 ave 485 max 0 min
Histogram: 36 0 1 1 0 0 0 0 0 2
Nghost:    10.425 ave 139 max 0 min
Histogram: 36 0 0 0 0 2 0 0 1 1
Neighs:    11.625 ave 177 max 0 min
Histogram: 36 0 0 2 0 0 0 0 0 2

Total # of neighbors = 465
Ave neighs/atom = 0.351208
Neighbor list builds = 4059
Dangerous builds = 6
write_dump all custom dump.atom_info_ac_* id type x y z radius vx vy vz density #
run 205761
Setting up run at Mon Jan  2 18:02:28 2023

Memory usage per processor = 960.195 Mbytes
    Step    Atoms         KinEng            CPU 
 1851851     1324     0.17964477              0 
 2057612     1319    0.089506024      2099.2036 
Loop time of 2099.2 on 40 procs for 205761 steps with 1319 atoms, finish time Mon Jan  2 18:37:27 2023


Pair  time (%) = 0.543109 (0.0258721)
Neigh time (%) = 8.97909 (0.427738)
Comm  time (%) = 11.9323 (0.568421)
Outpt time (%) = 0.00414438 (0.000197426)
Other time (%) = 2077.75 (98.9778)

Nlocal:    32.975 ave 480 max 0 min
Histogram: 36 0 2 0 0 0 0 0 0 2
Nghost:    10.275 ave 135 max 0 min
Histogram: 36 0 0 0 0 1 1 0 1 1
Neighs:    11.2 ave 175 max 0 min
Histogram: 36 0 0 2 0 0 0 0 0 2

Total # of neighbors = 448
Ave neighs/atom = 0.339651
Neighbor list builds = 11048
Dangerous builds = 936
write_dump all custom dump.atom_info_ac_* id type x y z radius vx vy vz density #
run 205761
Setting up run at Mon Jan  2 18:37:27 2023

Memory usage per processor = 960.195 Mbytes
    Step    Atoms         KinEng            CPU 
 2057612     1319    0.089506024              0 
 2263373     1312     0.12975077      2092.7366 
Loop time of 2092.74 on 40 procs for 205761 steps with 1312 atoms, finish time Mon Jan  2 19:12:20 2023


Pair  time (%) = 0.5352 (0.0255742)
Neigh time (%) = 6.58538 (0.314678)
Comm  time (%) = 7.35677 (0.351538)
Outpt time (%) = 0.000517197 (2.47139e-05)
Other time (%) = 2078.26 (99.3082)

Nlocal:    32.8 ave 475 max 0 min
Histogram: 36 0 1 1 0 0 0 0 0 2
Nghost:    10.025 ave 125 max 0 min
Histogram: 36 0 0 0 0 0 2 0 0 2
Neighs:    10.675 ave 171 max 0 min
Histogram: 36 0 1 1 0 0 0 0 0 2

Total # of neighbors = 427
Ave neighs/atom = 0.325457
Neighbor list builds = 8077
Dangerous builds = 407
write_dump all custom dump.atom_info_ac_* id type x y z radius vx vy vz density #
run 205761
Setting up run at Mon Jan  2 19:12:20 2023

Memory usage per processor = 960.195 Mbytes
    Step    Atoms         KinEng            CPU 
 2263373     1312     0.12975077              0 
 2469134     1305     0.29560369      2083.8226 
Loop time of 2083.82 on 40 procs for 205761 steps with 1305 atoms, finish time Mon Jan  2 19:47:04 2023


Pair  time (%) = 0.545896 (0.0261968)
Neigh time (%) = 9.94651 (0.47732)
Comm  time (%) = 12.7499 (0.611849)
Outpt time (%) = 0.00050533 (2.42501e-05)
Other time (%) = 2060.58 (98.8846)

Nlocal:    32.625 ave 478 max 0 min
Histogram: 36 0 2 0 0 0 0 0 0 2
Nghost:    9.45 ave 124 max 0 min
Histogram: 36 0 0 0 0 1 1 1 0 1
Neighs:    10.9 ave 176 max 0 min
Histogram: 36 1 0 1 0 0 0 0 0 2

Total # of neighbors = 436
Ave neighs/atom = 0.3341
Neighbor list builds = 12231
Dangerous builds = 861
write_dump all custom dump.atom_info_ac_* id type x y z radius vx vy vz density #
run 205761
Setting up run at Mon Jan  2 19:47:04 2023

Memory usage per processor = 960.195 Mbytes
    Step    Atoms         KinEng            CPU 
 2469134     1305     0.29560369              0 
 2674895     1296      0.1885281      2095.3165 
Loop time of 2095.32 on 40 procs for 205761 steps with 1296 atoms, finish time Mon Jan  2 20:22:00 2023


Pair  time (%) = 0.548672 (0.0261856)
Neigh time (%) = 11.0964 (0.529583)
Comm  time (%) = 12.809 (0.611317)
Outpt time (%) = 0.000572344 (2.73154e-05)
Other time (%) = 2070.86 (98.8329)

Nlocal:    32.4 ave 475 max 0 min
Histogram: 36 0 2 0 0 0 0 0 0 2
Nghost:    9.3 ave 113 max 0 min
Histogram: 36 0 0 0 0 0 2 0 1 1
Neighs:    10.675 ave 177 max 0 min
Histogram: 36 1 1 0 0 0 0 0 0 2

Total # of neighbors = 427
Ave neighs/atom = 0.329475
Neighbor list builds = 13544
Dangerous builds = 337
write_dump all custom dump.atom_info_ac_* id type x y z radius vx vy vz density #
run 205761
Setting up run at Mon Jan  2 20:22:00 2023

Memory usage per processor = 960.195 Mbytes
    Step    Atoms         KinEng            CPU 
 2674895     1296      0.1885281              0 
 2880656     1289     0.15258193      2085.4696 
Loop time of 2085.47 on 40 procs for 205761 steps with 1289 atoms, finish time Mon Jan  2 20:56:45 2023


Pair  time (%) = 0.542178 (0.0259979)
Neigh time (%) = 10.0721 (0.482965)
Comm  time (%) = 11.4739 (0.550183)
Outpt time (%) = 0.00415685 (0.000199324)
Other time (%) = 2063.38 (98.9407)

Nlocal:    32.225 ave 477 max 0 min
Histogram: 36 0 2 0 0 0 0 0 0 2
Nghost:    9.45 ave 118 max 0 min
Histogram: 36 0 0 0 0 0 2 0 1 1
Neighs:    10.275 ave 169 max 0 min
Histogram: 36 1 1 0 0 0 0 0 0 2

Total # of neighbors = 411
Ave neighs/atom = 0.318852
Neighbor list builds = 12265
Dangerous builds = 193
write_dump all custom dump.atom_info_ac_* id type x y z radius vx vy vz density #
run 205761
Setting up run at Mon Jan  2 20:56:45 2023

Memory usage per processor = 960.195 Mbytes
    Step    Atoms         KinEng            CPU 
 2880656     1289     0.15258193              0 
 3086417     1279     0.21169738      2095.2376 
Loop time of 2095.24 on 40 procs for 205761 steps with 1279 atoms, finish time Mon Jan  2 21:31:40 2023


Pair  time (%) = 0.54719 (0.0261159)
Neigh time (%) = 11.4508 (0.546513)
Comm  time (%) = 14.2227 (0.678812)
Outpt time (%) = 0.000504499 (2.40784e-05)
Other time (%) = 2069.02 (98.7485)

Nlocal:    31.975 ave 478 max 0 min
Histogram: 36 0 1 1 0 0 0 0 0 2
Nghost:    9.4 ave 123 max 0 min
Histogram: 36 0 0 0 0 1 1 1 0 1
Neighs:    9.3 ave 165 max 0 min
Histogram: 36 1 1 0 0 0 0 0 1 1

Total # of neighbors = 372
Ave neighs/atom = 0.290852
Neighbor list builds = 14004
Dangerous builds = 1252
write_dump all custom dump.atom_info_ac_* id type x y z radius vx vy vz density #
run 205761
Setting up run at Mon Jan  2 21:31:41 2023

Memory usage per processor = 960.195 Mbytes
    Step    Atoms         KinEng            CPU 
 3086417     1279     0.21169738              0 
 3292178     1272     0.15762866      2075.6155 
Loop time of 2075.62 on 40 procs for 205761 steps with 1272 atoms, finish time Mon Jan  2 22:06:16 2023


Pair  time (%) = 0.535771 (0.0258126)
Neigh time (%) = 8.61659 (0.415134)
Comm  time (%) = 13.1388 (0.633005)
Outpt time (%) = 0.000497635 (2.39753e-05)
Other time (%) = 2053.32 (98.926)

Nlocal:    31.8 ave 469 max 0 min
Histogram: 36 0 1 1 0 0 0 0 0 2
Nghost:    9.25 ave 124 max 0 min
Histogram: 36 0 0 0 0 2 0 1 0 1
Neighs:    9.65 ave 167 max 0 min
Histogram: 37 0 1 0 0 0 0 0 0 2

Total # of neighbors = 386
Ave neighs/atom = 0.303459
Neighbor list builds = 10519
Dangerous builds = 738
write_dump all custom dump.atom_info_ac_* id type x y z radius vx vy vz density #
run 205761
Setting up run at Mon Jan  2 22:06:16 2023

Memory usage per processor = 960.195 Mbytes
    Step    Atoms         KinEng            CPU 
 3292178     1272     0.15762866              0 
 3497939     1260      0.2838914      2076.7646 
Loop time of 2076.76 on 40 procs for 205761 steps with 1260 atoms, finish time Mon Jan  2 22:40:53 2023


Pair  time (%) = 0.534104 (0.0257181)
Neigh time (%) = 9.22846 (0.444367)
Comm  time (%) = 12.7197 (0.612478)
Outpt time (%) = 0.000588615 (2.83429e-05)
Other time (%) = 2054.28 (98.9174)

Nlocal:    31.5 ave 455 max 0 min
Histogram: 36 0 1 1 0 0 0 0 0 2
Nghost:    8.75 ave 113 max 0 min
Histogram: 36 0 0 0 0 2 0 0 1 1
Neighs:    8.725 ave 156 max 0 min
Histogram: 36 1 1 0 0 0 0 0 1 1

Total # of neighbors = 349
Ave neighs/atom = 0.276984
Neighbor list builds = 11230
Dangerous builds = 350
write_dump all custom dump.atom_info_ac_* id type x y z radius vx vy vz density #
run 205761
Setting up run at Mon Jan  2 22:40:53 2023

Memory usage per processor = 960.195 Mbytes
    Step    Atoms         KinEng            CPU 
 3497939     1260      0.2838914              0 
 3703700     1254     0.34256552      2075.8154 
Loop time of 2075.82 on 40 procs for 205761 steps with 1254 atoms, finish time Mon Jan  2 23:15:29 2023


Pair  time (%) = 0.523763 (0.0252317)
Neigh time (%) = 8.5524 (0.412002)
Comm  time (%) = 14.6126 (0.703946)
Outpt time (%) = 0.000701728 (3.38049e-05)
Other time (%) = 2052.13 (98.8588)

Nlocal:    31.35 ave 452 max 0 min
Histogram: 36 0 2 0 0 0 0 0 0 2
Nghost:    8.125 ave 110 max 0 min
Histogram: 36 0 0 0 0 2 0 1 0 1
Neighs:    8.425 ave 143 max 0 min
Histogram: 36 1 1 0 0 0 0 0 0 2

Total # of neighbors = 337
Ave neighs/atom = 0.26874
Neighbor list builds = 10399
Dangerous builds = 374
write_dump all custom dump.atom_info_ac_* id type x y z radius vx vy vz density #
run 205761
Setting up run at Mon Jan  2 23:15:29 2023

Memory usage per processor = 960.195 Mbytes
    Step    Atoms         KinEng            CPU 
 3703700     1254     0.34256552              0 
 3909461     1242     0.22560323      2121.1215 
Loop time of 2121.12 on 40 procs for 205761 steps with 1242 atoms, finish time Mon Jan  2 23:50:50 2023


Pair  time (%) = 0.534809 (0.0252135)
Neigh time (%) = 13.1451 (0.619724)
Comm  time (%) = 20.8754 (0.984169)
Outpt time (%) = 0.000598719 (2.82265e-05)
Other time (%) = 2086.57 (98.3709)

Nlocal:    31.05 ave 453 max 0 min
Histogram: 36 0 2 0 0 0 0 0 0 2
Nghost:    7.85 ave 98 max 0 min
Histogram: 36 0 0 0 0 2 0 0 1 1
Neighs:    8.9 ave 167 max 0 min
Histogram: 36 2 0 0 0 0 0 0 1 1

Total # of neighbors = 356
Ave neighs/atom = 0.286634
Neighbor list builds = 15976
Dangerous builds = 504
write_dump all custom dump.atom_info_ac_* id type x y z radius vx vy vz density #
run 205761
Setting up run at Mon Jan  2 23:50:50 2023

Memory usage per processor = 960.195 Mbytes
    Step    Atoms         KinEng            CPU 
 3909461     1242     0.22560323              0 
 4115222     1230     0.33197389      2097.8969 
Loop time of 2097.9 on 40 procs for 205761 steps with 1230 atoms, finish time Tue Jan  3 00:25:48 2023


Pair  time (%) = 0.525315 (0.0250401)
Neigh time (%) = 10.3017 (0.491047)
Comm  time (%) = 16.3293 (0.778364)
Outpt time (%) = 0.000466142 (2.22195e-05)
Other time (%) = 2070.74 (98.7055)

Nlocal:    30.75 ave 449 max 0 min
Histogram: 36 0 1 1 0 0 0 0 0 2
Nghost:    8.15 ave 99 max 0 min
Histogram: 36 0 0 0 0 2 0 0 0 2
Neighs:    8.225 ave 143 max 0 min
Histogram: 36 1 1 0 0 0 0 0 0 2

Total # of neighbors = 329
Ave neighs/atom = 0.26748
Neighbor list builds = 12513
Dangerous builds = 169
write_dump all custom dump.atom_info_ac_* id type x y z radius vx vy vz density #
run 205761
Setting up run at Tue Jan  3 00:25:48 2023

Memory usage per processor = 960.195 Mbytes
    Step    Atoms         KinEng            CPU 
 4115222     1230     0.33197389              0 
 4320983     1218      664.05916      2062.3462 
Loop time of 2062.35 on 40 procs for 205761 steps with 1218 atoms, finish time Tue Jan  3 01:00:11 2023


Pair  time (%) = 0.521691 (0.025296)
Neigh time (%) = 7.37072 (0.357395)
Comm  time (%) = 11.4223 (0.55385)
Outpt time (%) = 0.00425141 (0.000206144)
Other time (%) = 2043.03 (99.0633)

Nlocal:    30.45 ave 452 max 0 min
Histogram: 36 0 2 0 0 0 0 0 0 2
Nghost:    7.825 ave 98 max 0 min
Histogram: 36 0 0 0 0 1 1 0 0 2
Neighs:    7.325 ave 129 max 0 min
Histogram: 36 1 1 0 0 0 0 0 1 1

Total # of neighbors = 293
Ave neighs/atom = 0.240558
Neighbor list builds = 8990
Dangerous builds = 531
write_dump all custom dump.atom_info_ac_* id type x y z radius vx vy vz density #
run 205761
Setting up run at Tue Jan  3 01:00:11 2023

Memory usage per processor = 960.195 Mbytes
    Step    Atoms         KinEng            CPU 
 4320983     1218      664.05916              0 
 4526744     1205      9.8737741      2118.4841 
Loop time of 2118.51 on 40 procs for 205761 steps with 1205 atoms, finish time Tue Jan  3 01:35:29 2023


Pair  time (%) = 0.521478 (0.0246153)
Neigh time (%) = 12.353 (0.583096)
Comm  time (%) = 21.7097 (1.02476)
Outpt time (%) = 0.000576278 (2.7202e-05)
Other time (%) = 2083.93 (98.3675)

Nlocal:    30.125 ave 455 max 0 min
Histogram: 36 0 2 0 0 0 0 0 1 1
Nghost:    8.05 ave 101 max 0 min
Histogram: 36 0 0 0 1 1 0 0 0 2
Neighs:    7.625 ave 155 max 0 min
Histogram: 36 2 0 0 0 0 1 0 0 1

Total # of neighbors = 305
Ave neighs/atom = 0.253112
Neighbor list builds = 15044
Dangerous builds = 253
write_dump all custom dump.atom_info_ac_* id type x y z radius vx vy vz density #
run 205761
Setting up run at Tue Jan  3 01:35:29 2023

Memory usage per processor = 960.195 Mbytes
    Step    Atoms         KinEng            CPU 
 4526744     1205      9.8737741              0 
 4732505     1190     0.37228558      2080.8133 
Loop time of 2080.81 on 40 procs for 205761 steps with 1190 atoms, finish time Tue Jan  3 02:10:10 2023


Pair  time (%) = 0.512373 (0.0246237)
Neigh time (%) = 8.93375 (0.429339)
Comm  time (%) = 15.8785 (0.76309)
Outpt time (%) = 0.000639406 (3.07287e-05)
Other time (%) = 2055.49 (98.7829)

Nlocal:    29.75 ave 459 max 0 min
Histogram: 36 0 2 0 0 0 0 0 1 1
Nghost:    7.65 ave 95 max 0 min
Histogram: 36 0 0 0 1 0 1 0 0 2
Neighs:    7.1 ave 150 max 0 min
Histogram: 37 1 0 0 0 0 1 0 0 1

Total # of neighbors = 284
Ave neighs/atom = 0.238655
Neighbor list builds = 10878
Dangerous builds = 353
write_dump all custom dump.atom_info_ac_* id type x y z radius vx vy vz density #
run 205761
Setting up run at Tue Jan  3 02:10:10 2023

Memory usage per processor = 960.195 Mbytes
    Step    Atoms         KinEng            CPU 
 4732505     1190     0.37228558              0 
 4938266     1172     0.37689973      2126.8991 
Loop time of 2126.9 on 40 procs for 205761 steps with 1172 atoms, finish time Tue Jan  3 02:45:37 2023


Pair  time (%) = 0.518583 (0.0243821)
Neigh time (%) = 13.3123 (0.6259)
Comm  time (%) = 22.9075 (1.07704)
Outpt time (%) = 0.000579861 (2.72632e-05)
Other time (%) = 2090.16 (98.2727)

Nlocal:    29.3 ave 461 max 0 min
Histogram: 36 0 2 0 0 0 0 1 0 1
Nghost:    7.675 ave 99 max 0 min
Histogram: 36 0 0 0 1 1 0 0 0 2
Neighs:    6.9 ave 147 max 0 min
Histogram: 36 2 0 0 0 1 0 0 0 1

Total # of neighbors = 276
Ave neighs/atom = 0.235495
Neighbor list builds = 16192
Dangerous builds = 937
write_dump all custom dump.atom_info_ac_* id type x y z radius vx vy vz density #
run 205761
Setting up run at Tue Jan  3 02:45:37 2023

Memory usage per processor = 960.195 Mbytes
    Step    Atoms         KinEng            CPU 
 4938266     1172     0.37689973              0 
 5144027     1159     0.38908923      2076.4973 
Loop time of 2076.5 on 40 procs for 205761 steps with 1159 atoms, finish time Tue Jan  3 03:20:14 2023


Pair  time (%) = 0.511608 (0.024638)
Neigh time (%) = 8.42554 (0.405757)
Comm  time (%) = 13.2463 (0.637916)
Outpt time (%) = 0.000486971 (2.34516e-05)
Other time (%) = 2054.31 (98.9317)

Nlocal:    28.975 ave 461 max 0 min
Histogram: 36 0 2 0 0 0 0 1 0 1
Nghost:    7.25 ave 98 max 0 min
Histogram: 36 0 0 0 1 0 1 0 1 1
Neighs:    6.6 ave 136 max 0 min
Histogram: 36 2 0 0 0 0 1 0 0 1

Total # of neighbors = 264
Ave neighs/atom = 0.227783
Neighbor list builds = 10258
Dangerous builds = 778
write_dump all custom dump.atom_info_ac_* id type x y z radius vx vy vz density #
run 205761
Setting up run at Tue Jan  3 03:20:14 2023

Memory usage per processor = 960.195 Mbytes
    Step    Atoms         KinEng            CPU 
 5144027     1159     0.38908923              0 
 5349788     1143     0.52325857      2127.2167 
Loop time of 2127.22 on 40 procs for 205761 steps with 1143 atoms, finish time Tue Jan  3 03:55:41 2023


Pair  time (%) = 0.5169 (0.0242993)
Neigh time (%) = 13.6473 (0.641557)
Comm  time (%) = 20.4815 (0.962831)
Outpt time (%) = 0.000531159 (2.49697e-05)
Other time (%) = 2092.57 (98.3713)

Nlocal:    28.575 ave 469 max 0 min
Histogram: 36 1 1 0 0 0 0 1 0 1
Nghost:    7.275 ave 94 max 0 min
Histogram: 36 0 0 0 0 1 1 0 1 1
Neighs:    6.175 ave 142 max 0 min
Histogram: 37 1 0 0 1 0 0 0 0 1

Total # of neighbors = 247
Ave neighs/atom = 0.216098
Neighbor list builds = 16564
Dangerous builds = 726
write_dump all custom dump.atom_info_ac_* id type x y z radius vx vy vz density #
run 205761
Setting up run at Tue Jan  3 03:55:41 2023

Memory usage per processor = 960.195 Mbytes
    Step    Atoms         KinEng            CPU 
 5349788     1143     0.52325857              0 
 5555549     1126      1.0241619      2138.6379 
Loop time of 2138.64 on 40 procs for 205761 steps with 1126 atoms, finish time Tue Jan  3 04:31:20 2023


Pair  time (%) = 0.506288 (0.0236734)
Neigh time (%) = 14.8032 (0.692179)
Comm  time (%) = 28.0189 (1.31013)
Outpt time (%) = 0.00435142 (0.000203467)
Other time (%) = 2095.31 (97.9738)

Nlocal:    28.15 ave 461 max 0 min
Histogram: 36 1 1 0 0 0 0 1 0 1
Nghost:    7.225 ave 99 max 0 min
Histogram: 36 0 0 0 1 1 0 1 0 1
Neighs:    5.75 ave 134 max 0 min
Histogram: 37 1 0 0 0 1 0 0 0 1

Total # of neighbors = 230
Ave neighs/atom = 0.204263
Neighbor list builds = 18013
Dangerous builds = 469
write_dump all custom dump.atom_info_ac_* id type x y z radius vx vy vz density #
run 205761
Setting up run at Tue Jan  3 04:31:20 2023

Memory usage per processor = 960.195 Mbytes
    Step    Atoms         KinEng            CPU 
 5555549     1126      1.0241619              0 
 5761310     1108     0.67615931      2124.4738 
Loop time of 2124.47 on 40 procs for 205761 steps with 1108 atoms, finish time Tue Jan  3 05:06:44 2023


Pair  time (%) = 0.513803 (0.0241849)
Neigh time (%) = 13.7432 (0.6469)
Comm  time (%) = 20.3741 (0.959021)
Outpt time (%) = 0.000498867 (2.34819e-05)
Other time (%) = 2089.84 (98.3699)

Nlocal:    27.7 ave 472 max 0 min
Histogram: 36 1 1 0 0 0 1 0 0 1
Nghost:    7.025 ave 96 max 0 min
Histogram: 36 0 0 0 1 1 0 0 1 1
Neighs:    5.4 ave 146 max 0 min
Histogram: 37 1 1 0 0 0 0 0 0 1

Total # of neighbors = 216
Ave neighs/atom = 0.194946
Neighbor list builds = 16685
Dangerous builds = 1091
write_dump all custom dump.atom_info_ac_* id type x y z radius vx vy vz density #
run 205761
Setting up run at Tue Jan  3 05:06:44 2023

Memory usage per processor = 960.195 Mbytes
    Step    Atoms         KinEng            CPU 
 5761310     1108     0.67615931              0 
 5967071     1092      0.5896977      2104.6438 
Loop time of 2104.64 on 40 procs for 205761 steps with 1092 atoms, finish time Tue Jan  3 05:41:49 2023


Pair  time (%) = 0.499209 (0.0237194)
Neigh time (%) = 12.0524 (0.572656)
Comm  time (%) = 21.6453 (1.02845)
Outpt time (%) = 0.000597528 (2.83909e-05)
Other time (%) = 2070.45 (98.3751)

Nlocal:    27.3 ave 476 max 0 min
Histogram: 36 1 1 0 0 0 1 0 0 1
Nghost:    7.45 ave 105 max 0 min
Histogram: 36 0 0 1 0 1 0 1 0 1
Neighs:    5.125 ave 135 max 0 min
Histogram: 37 1 0 1 0 0 0 0 0 1

Total # of neighbors = 205
Ave neighs/atom = 0.187729
Neighbor list builds = 14637
Dangerous builds = 1053
write_dump all custom dump.atom_info_ac_* id type x y z radius vx vy vz density #
run 205761
Setting up run at Tue Jan  3 05:41:49 2023

Memory usage per processor = 960.195 Mbytes
    Step    Atoms         KinEng            CPU 
 5967071     1092      0.5896977              0 
 6172832     1086     0.61166135      2139.1856 
Loop time of 2139.19 on 40 procs for 205761 steps with 1086 atoms, finish time Tue Jan  3 06:17:28 2023


Pair  time (%) = 0.497531 (0.023258)
Neigh time (%) = 14.0767 (0.65804)
Comm  time (%) = 27.2464 (1.27368)
Outpt time (%) = 0.000528907 (2.47247e-05)
Other time (%) = 2097.36 (98.045)

Nlocal:    27.15 ave 484 max 0 min
Histogram: 36 1 1 0 0 1 0 0 0 1
Nghost:    7.1 ave 100 max 0 min
Histogram: 36 0 0 1 0 1 0 1 0 1
Neighs:    4.7 ave 133 max 0 min
Histogram: 37 1 1 0 0 0 0 0 0 1

Total # of neighbors = 188
Ave neighs/atom = 0.173112
Neighbor list builds = 17034
Dangerous builds = 51
write_dump all custom dump.atom_info_ac_* id type x y z radius vx vy vz density #
run 205761
Setting up run at Tue Jan  3 06:17:28 2023

Memory usage per processor = 960.195 Mbytes
    Step    Atoms         KinEng            CPU 
 6172832     1086     0.61166135              0 
 6378593     1075      1.5742727      2104.5952 
Loop time of 2104.6 on 40 procs for 205761 steps with 1075 atoms, finish time Tue Jan  3 06:52:33 2023


Pair  time (%) = 0.495552 (0.0235462)
Neigh time (%) = 11.895 (0.565193)
Comm  time (%) = 19.1281 (0.908875)
Outpt time (%) = 0.000498244 (2.36741e-05)
Other time (%) = 2073.08 (98.5024)

Nlocal:    26.875 ave 485 max 0 min
Histogram: 36 2 0 0 0 1 0 0 0 1
Nghost:    7.15 ave 107 max 0 min
Histogram: 36 0 0 1 1 0 0 1 0 1
Neighs:    5.3 ave 149 max 0 min
Histogram: 37 1 1 0 0 0 0 0 0 1

Total # of neighbors = 212
Ave neighs/atom = 0.197209
Neighbor list builds = 14403
Dangerous builds = 111
write_dump all custom dump.atom_info_ac_* id type x y z radius vx vy vz density #
run 205761
Setting up run at Tue Jan  3 06:52:33 2023

Memory usage per processor = 960.195 Mbytes
    Step    Atoms         KinEng            CPU 
 6378593     1075      1.5742727              0 
 6584354     1064     0.47759204      2122.4972 
Loop time of 2122.5 on 40 procs for 205761 steps with 1064 atoms, finish time Tue Jan  3 07:27:56 2023


Pair  time (%) = 0.504715 (0.0237793)
Neigh time (%) = 13.2815 (0.62575)
Comm  time (%) = 17.6881 (0.833363)
Outpt time (%) = 0.000542487 (2.55589e-05)
Other time (%) = 2091.02 (98.5171)

Nlocal:    26.6 ave 492 max 0 min
Histogram: 36 1 1 0 0 1 0 0 0 1
Nghost:    7.175 ave 96 max 0 min
Histogram: 36 0 0 0 1 1 0 0 0 2
Neighs:    5.425 ave 158 max 0 min
Histogram: 37 2 0 0 0 0 0 0 0 1

Total # of neighbors = 217
Ave neighs/atom = 0.203947
Neighbor list builds = 16167
Dangerous builds = 1985
write_dump all custom dump.atom_info_ac_* id type x y z radius vx vy vz density #
run 205761
Setting up run at Tue Jan  3 07:27:56 2023

Memory usage per processor = 960.195 Mbytes
    Step    Atoms         KinEng            CPU 
 6584354     1064     0.47759204              0 
 6790115     1049     0.46075047       2125.308 
Loop time of 2125.31 on 40 procs for 205761 steps with 1049 atoms, finish time Tue Jan  3 08:03:21 2023


Pair  time (%) = 0.494474 (0.023266)
Neigh time (%) = 14.6011 (0.68701)
Comm  time (%) = 22.7624 (1.07102)
Outpt time (%) = 0.000550637 (2.59086e-05)
Other time (%) = 2087.45 (98.2187)

Nlocal:    26.225 ave 489 max 0 min
Histogram: 36 1 1 0 0 1 0 0 0 1
Nghost:    7.25 ave 96 max 0 min
Histogram: 36 0 0 0 1 1 0 0 1 1
Neighs:    5.475 ave 155 max 0 min
Histogram: 37 2 0 0 0 0 0 0 0 1

Total # of neighbors = 219
Ave neighs/atom = 0.20877
Neighbor list builds = 17713
Dangerous builds = 1002
write_dump all custom dump.atom_info_ac_* id type x y z radius vx vy vz density #
run 205761
Setting up run at Tue Jan  3 08:03:21 2023

Memory usage per processor = 960.195 Mbytes
    Step    Atoms         KinEng            CPU 
 6790115     1049     0.46075047              0 
 6995876     1039     0.54578393      2137.5936 
Loop time of 2137.6 on 40 procs for 205761 steps with 1039 atoms, finish time Tue Jan  3 08:38:59 2023


Pair  time (%) = 0.4885 (0.0228527)
Neigh time (%) = 14.3969 (0.673506)
Comm  time (%) = 26.5854 (1.2437)
Outpt time (%) = 0.000521594 (2.44009e-05)
Other time (%) = 2096.13 (98.0599)

Nlocal:    25.975 ave 481 max 0 min
Histogram: 36 1 1 0 0 1 0 0 0 1
Nghost:    6.675 ave 96 max 0 min
Histogram: 36 0 0 1 1 0 0 0 1 1
Neighs:    5.225 ave 151 max 0 min
Histogram: 37 2 0 0 0 0 0 0 0 1

Total # of neighbors = 209
Ave neighs/atom = 0.201155
Neighbor list builds = 17450
Dangerous builds = 462
write_dump all custom dump.atom_info_ac_* id type x y z radius vx vy vz density #
run 205761
Setting up run at Tue Jan  3 08:38:59 2023

Memory usage per processor = 960.195 Mbytes
    Step    Atoms         KinEng            CPU 
 6995876     1039     0.54578393              0 
 7201637     1029      0.7955524      2130.4574 
Loop time of 2130.46 on 40 procs for 205761 steps with 1029 atoms, finish time Tue Jan  3 09:14:29 2023


Pair  time (%) = 0.490359 (0.0230166)
Neigh time (%) = 14.8689 (0.69792)
Comm  time (%) = 22.5862 (1.06016)
Outpt time (%) = 0.00045067 (2.11537e-05)
Other time (%) = 2092.51 (98.2189)

Nlocal:    25.725 ave 477 max 0 min
Histogram: 36 1 1 0 1 0 0 0 0 1
Nghost:    6.625 ave 92 max 0 min
Histogram: 36 0 0 0 2 0 0 0 1 1
Neighs:    4.7 ave 139 max 0 min
Histogram: 37 2 0 0 0 0 0 0 0 1

Total # of neighbors = 188
Ave neighs/atom = 0.182702
Neighbor list builds = 17986
Dangerous builds = 134
write_dump all custom dump.atom_info_ac_* id type x y z radius vx vy vz density #
run 205761
Setting up run at Tue Jan  3 09:14:29 2023

Memory usage per processor = 960.195 Mbytes
    Step    Atoms         KinEng            CPU 
 7201637     1029      0.7955524              0 
 7407398     1017      0.5219038      2134.7427 
Loop time of 2134.74 on 40 procs for 205761 steps with 1017 atoms, finish time Tue Jan  3 09:50:04 2023


Pair  time (%) = 0.488528 (0.0228846)
Neigh time (%) = 15.3512 (0.719111)
Comm  time (%) = 27.5414 (1.29015)
Outpt time (%) = 0.000515195 (2.41338e-05)
Other time (%) = 2091.36 (97.9678)

Nlocal:    25.425 ave 479 max 0 min
Histogram: 36 1 1 0 1 0 0 0 0 1
Nghost:    6.275 ave 92 max 0 min
Histogram: 36 0 0 1 1 0 0 1 0 1
Neighs:    4.375 ave 127 max 0 min
Histogram: 37 2 0 0 0 0 0 0 0 1

Total # of neighbors = 175
Ave neighs/atom = 0.172075
Neighbor list builds = 18656
Dangerous builds = 1377
write_dump all custom dump.atom_info_ac_* id type x y z radius vx vy vz density #
run 205761
Setting up run at Tue Jan  3 09:50:04 2023

Memory usage per processor = 960.195 Mbytes
    Step    Atoms         KinEng            CPU 
 7407398     1017      0.5219038              0 
 7613159     1010     0.60344582      2118.3834 
Loop time of 2118.38 on 40 procs for 205761 steps with 1010 atoms, finish time Tue Jan  3 10:25:22 2023


Pair  time (%) = 0.480823 (0.0226976)
Neigh time (%) = 13.4536 (0.635088)
Comm  time (%) = 24.5637 (1.15955)
Outpt time (%) = 0.000575934 (2.71874e-05)
Other time (%) = 2079.88 (98.1826)

Nlocal:    25.25 ave 480 max 0 min
Histogram: 36 1 1 0 1 0 0 0 0 1
Nghost:    6.15 ave 90 max 0 min
Histogram: 36 0 0 0 2 0 0 1 0 1
Neighs:    3.925 ave 119 max 0 min
Histogram: 37 2 0 0 0 0 0 0 0 1

Total # of neighbors = 157
Ave neighs/atom = 0.155446
Neighbor list builds = 16316
Dangerous builds = 753
write_dump all custom dump.atom_info_ac_* id type x y z radius vx vy vz density #
run 205761
Setting up run at Tue Jan  3 10:25:23 2023

Memory usage per processor = 960.195 Mbytes
    Step    Atoms         KinEng            CPU 
 7613159     1010     0.60344582              0 
 7818920     1001      1.5537907      2121.9306 
Loop time of 2121.93 on 40 procs for 205761 steps with 1001 atoms, finish time Tue Jan  3 11:00:44 2023


Pair  time (%) = 0.479019 (0.0225747)
Neigh time (%) = 13.6834 (0.644857)
Comm  time (%) = 20.8009 (0.98028)
Outpt time (%) = 0.00056248 (2.65079e-05)
Other time (%) = 2086.97 (98.3523)

Nlocal:    25.025 ave 479 max 0 min
Histogram: 36 2 0 0 1 0 0 0 0 1
Nghost:    6.025 ave 88 max 0 min
Histogram: 36 0 0 1 0 1 1 0 0 1
Neighs:    4.025 ave 128 max 0 min
Histogram: 38 1 0 0 0 0 0 0 0 1

Total # of neighbors = 161
Ave neighs/atom = 0.160839
Neighbor list builds = 16510
Dangerous builds = 87
write_dump all custom dump.atom_info_ac_* id type x y z radius vx vy vz density #
run 205761
Setting up run at Tue Jan  3 11:00:45 2023

Memory usage per processor = 960.195 Mbytes
    Step    Atoms         KinEng            CPU 
 7818920     1001      1.5537907              0 
 8024681      991      1.0527781      2114.9108 
Loop time of 2114.91 on 40 procs for 205761 steps with 991 atoms, finish time Tue Jan  3 11:36:00 2023


Pair  time (%) = 0.477612 (0.0225831)
Neigh time (%) = 13.6602 (0.645898)
Comm  time (%) = 20.3524 (0.962327)
Outpt time (%) = 0.000576235 (2.72463e-05)
Other time (%) = 2080.42 (98.3692)

Nlocal:    24.775 ave 477 max 0 min
Histogram: 36 2 0 0 1 0 0 0 0 1
Nghost:    6.05 ave 81 max 0 min
Histogram: 36 0 0 0 1 0 1 1 0 1
Neighs:    3.775 ave 115 max 0 min
Histogram: 38 1 0 0 0 0 0 0 0 1

Total # of neighbors = 151
Ave neighs/atom = 0.152371
Neighbor list builds = 16522
Dangerous builds = 756
write_dump all custom dump.atom_info_ac_* id type x y z radius vx vy vz density #
run 205761
Setting up run at Tue Jan  3 11:36:00 2023

Memory usage per processor = 960.195 Mbytes
    Step    Atoms         KinEng            CPU 
 8024681      991      1.0527781              0 
 8230442      984     0.95111165      2110.6679 
Loop time of 2110.67 on 40 procs for 205761 steps with 984 atoms, finish time Tue Jan  3 12:11:10 2023


Pair  time (%) = 0.485922 (0.0230222)
Neigh time (%) = 12.5366 (0.593965)
Comm  time (%) = 18.1899 (0.86181)
Outpt time (%) = 0.000520556 (2.46631e-05)
Other time (%) = 2079.46 (98.5212)

Nlocal:    24.6 ave 458 max 0 min
Histogram: 36 2 0 0 1 0 0 0 0 1
Nghost:    5.525 ave 76 max 0 min
Histogram: 36 0 0 0 1 0 2 0 0 1
Neighs:    3.95 ave 111 max 0 min
Histogram: 37 2 0 0 0 0 0 0 0 1

Total # of neighbors = 158
Ave neighs/atom = 0.160569
Neighbor list builds = 15173
Dangerous builds = 1206
write_dump all custom dump.atom_info_ac_* id type x y z radius vx vy vz density #
run 205761
Setting up run at Tue Jan  3 12:11:10 2023

Memory usage per processor = 960.195 Mbytes
    Step    Atoms         KinEng            CPU 
 8230442      984     0.95111165              0 
 8436203      973      3.1516031      2132.2104 
Loop time of 2132.21 on 40 procs for 205761 steps with 973 atoms, finish time Tue Jan  3 12:46:43 2023


Pair  time (%) = 0.476121 (0.0223299)
Neigh time (%) = 14.6713 (0.68808)
Comm  time (%) = 25.763 (1.20828)
Outpt time (%) = 0.000500693 (2.34823e-05)
Other time (%) = 2091.3 (98.0813)

Nlocal:    24.325 ave 445 max 0 min
Histogram: 36 1 1 0 1 0 0 0 0 1
Nghost:    5.375 ave 76 max 0 min
Histogram: 36 0 0 0 1 1 1 0 0 1
Neighs:    3.6 ave 99 max 0 min
Histogram: 37 2 0 0 0 0 0 0 0 1

Total # of neighbors = 144
Ave neighs/atom = 0.147996
Neighbor list builds = 17710
Dangerous builds = 297
write_dump all custom dump.atom_info_ac_* id type x y z radius vx vy vz density #
run 205761
Setting up run at Tue Jan  3 12:46:43 2023

Memory usage per processor = 960.195 Mbytes
    Step    Atoms         KinEng            CPU 
 8436203      973      3.1516031              0 
 8641964      959     0.73496621      2113.0695 
Loop time of 2113.07 on 40 procs for 205761 steps with 959 atoms, finish time Tue Jan  3 13:21:56 2023


Pair  time (%) = 0.471889 (0.0223319)
Neigh time (%) = 12.6057 (0.59656)
Comm  time (%) = 23.0516 (1.09091)
Outpt time (%) = 0.000436482 (2.06563e-05)
Other time (%) = 2076.94 (98.2902)

Nlocal:    23.975 ave 440 max 0 min
Histogram: 36 1 1 0 1 0 0 0 0 1
Nghost:    5 ave 72 max 0 min
Histogram: 36 0 0 1 0 1 1 0 0 1
Neighs:    3.225 ave 89 max 0 min
Histogram: 37 1 1 0 0 0 0 0 0 1

Total # of neighbors = 129
Ave neighs/atom = 0.134515
Neighbor list builds = 15177
Dangerous builds = 508
write_dump all custom dump.atom_info_ac_* id type x y z radius vx vy vz density #
run 205761
Setting up run at Tue Jan  3 13:21:56 2023

Memory usage per processor = 960.195 Mbytes
    Step    Atoms         KinEng            CPU 
 8641964      959     0.73496621              0 
 8847725      949     0.48302263      2096.5552 
Loop time of 2096.56 on 40 procs for 205761 steps with 949 atoms, finish time Tue Jan  3 13:56:52 2023


Pair  time (%) = 0.470316 (0.0224328)
Neigh time (%) = 11.621 (0.554292)
Comm  time (%) = 20.403 (0.973166)
Outpt time (%) = 0.000653154 (3.11537e-05)
Other time (%) = 2064.06 (98.4501)

Nlocal:    23.725 ave 432 max 0 min
Histogram: 36 1 1 0 1 0 0 0 0 1
Nghost:    5.1 ave 68 max 0 min
Histogram: 36 0 0 0 1 1 0 1 0 1
Neighs:    3.175 ave 90 max 0 min
Histogram: 37 1 1 0 0 0 0 0 0 1

Total # of neighbors = 127
Ave neighs/atom = 0.133825
Neighbor list builds = 13999
Dangerous builds = 289
write_dump all custom dump.atom_info_ac_* id type x y z radius vx vy vz density #
run 205761
Setting up run at Tue Jan  3 13:56:52 2023

Memory usage per processor = 960.195 Mbytes
    Step    Atoms         KinEng            CPU 
 8847725      949     0.48302263              0 
 9053486      935      0.6012663      2110.1824 
Loop time of 2110.18 on 40 procs for 205761 steps with 935 atoms, finish time Tue Jan  3 14:32:03 2023


Pair  time (%) = 0.46522 (0.0220464)
Neigh time (%) = 12.3976 (0.587513)
Comm  time (%) = 24.2751 (1.15038)
Outpt time (%) = 0.000517416 (2.45199e-05)
Other time (%) = 2073.04 (98.24)

Nlocal:    23.375 ave 422 max 0 min
Histogram: 36 1 1 0 1 0 0 0 0 1
Nghost:    4.975 ave 73 max 0 min
Histogram: 36 0 0 1 0 1 1 0 0 1
Neighs:    3.375 ave 95 max 0 min
Histogram: 37 1 1 0 0 0 0 0 0 1

Total # of neighbors = 135
Ave neighs/atom = 0.144385
Neighbor list builds = 14982
Dangerous builds = 980
write_dump all custom dump.atom_info_ac_* id type x y z radius vx vy vz density #
run 205761
Setting up run at Tue Jan  3 14:32:03 2023

Memory usage per processor = 960.195 Mbytes
    Step    Atoms         KinEng            CPU 
 9053486      935      0.6012663              0 
 9259247      928     0.64266404      2087.1733 
Loop time of 2087.17 on 40 procs for 205761 steps with 928 atoms, finish time Tue Jan  3 15:06:50 2023


Pair  time (%) = 0.46326 (0.0221956)
Neigh time (%) = 10.6659 (0.511023)
Comm  time (%) = 20.7307 (0.993243)
Outpt time (%) = 0.000532025 (2.54902e-05)
Other time (%) = 2055.31 (98.4735)

Nlocal:    23.2 ave 406 max 0 min
Histogram: 36 1 1 0 1 0 0 0 0 1
Nghost:    5.05 ave 70 max 0 min
Histogram: 36 0 0 1 0 1 0 1 0 1
Neighs:    3.175 ave 88 max 0 min
Histogram: 37 1 1 0 0 0 0 0 0 1

Total # of neighbors = 127
Ave neighs/atom = 0.136853
Neighbor list builds = 12902
Dangerous builds = 956
write_dump all custom dump.atom_info_ac_* id type x y z radius vx vy vz density #
run 205761
Setting up run at Tue Jan  3 15:06:50 2023

Memory usage per processor = 960.195 Mbytes
    Step    Atoms         KinEng            CPU 
 9259247      928     0.64266404              0 
 9465008      909      3.7973734      2126.3848 
Loop time of 2126.38 on 40 procs for 205761 steps with 909 atoms, finish time Tue Jan  3 15:42:16 2023


Pair  time (%) = 0.465078 (0.0218718)
Neigh time (%) = 14.5193 (0.682815)
Comm  time (%) = 28.9372 (1.36087)
Outpt time (%) = 0.000408444 (1.92084e-05)
Other time (%) = 2082.46 (97.9344)

Nlocal:    22.725 ave 385 max 0 min
Histogram: 36 1 1 0 0 1 0 0 0 1
Nghost:    5.125 ave 71 max 0 min
Histogram: 36 0 0 1 0 1 1 0 0 1
Neighs:    2.575 ave 65 max 0 min
Histogram: 37 1 0 1 0 0 0 0 0 1

Total # of neighbors = 103
Ave neighs/atom = 0.113311
Neighbor list builds = 17532
Dangerous builds = 958
write_dump all custom dump.atom_info_ac_* id type x y z radius vx vy vz density #
run 205761
Setting up run at Tue Jan  3 15:42:16 2023

Memory usage per processor = 960.195 Mbytes
    Step    Atoms         KinEng            CPU 
 9465008      909      3.7973734              0 
 9670769      898     0.58371343      2105.0835 
Loop time of 2105.08 on 40 procs for 205761 steps with 898 atoms, finish time Tue Jan  3 16:17:21 2023


Pair  time (%) = 0.453211 (0.0215293)
Neigh time (%) = 12.4998 (0.59379)
Comm  time (%) = 22.6959 (1.07815)
Outpt time (%) = 0.00045949 (2.18276e-05)
Other time (%) = 2069.43 (98.3065)

Nlocal:    22.45 ave 372 max 0 min
Histogram: 36 1 1 0 0 1 0 0 0 1
Nghost:    4.95 ave 69 max 0 min
Histogram: 36 0 0 1 0 1 1 0 0 1
Neighs:    2.375 ave 49 max 0 min
Histogram: 37 1 0 0 0 0 1 0 0 1

Total # of neighbors = 95
Ave neighs/atom = 0.105791
Neighbor list builds = 15026
Dangerous builds = 494
write_dump all custom dump.atom_info_ac_* id type x y z radius vx vy vz density #
run 205761
Setting up run at Tue Jan  3 16:17:22 2023

Memory usage per processor = 960.195 Mbytes
    Step    Atoms         KinEng            CPU 
 9670769      898     0.58371343              0 
 9876530      887      1.3033872      2101.1857 
Loop time of 2101.19 on 40 procs for 205761 steps with 887 atoms, finish time Tue Jan  3 16:52:23 2023


Pair  time (%) = 0.456593 (0.0217302)
Neigh time (%) = 12.1569 (0.578574)
Comm  time (%) = 21.3447 (1.01584)
Outpt time (%) = 0.00449992 (0.000214161)
Other time (%) = 2067.22 (98.3836)

Nlocal:    22.175 ave 354 max 0 min
Histogram: 35 2 0 1 0 1 0 0 0 1
Nghost:    4.675 ave 72 max 0 min
Histogram: 36 0 0 1 1 1 0 0 0 1
Neighs:    2.5 ave 51 max 0 min
Histogram: 37 0 1 0 0 0 1 0 0 1

Total # of neighbors = 100
Ave neighs/atom = 0.11274
Neighbor list builds = 14600
Dangerous builds = 880
write_dump all custom dump.atom_info_ac_* id type x y z radius vx vy vz density #
run 205761
Setting up run at Tue Jan  3 16:52:23 2023

Memory usage per processor = 960.195 Mbytes
    Step    Atoms         KinEng            CPU 
 9876530      887      1.3033872              0 
10082291      868     0.88266399      2114.6921 
Loop time of 2114.69 on 40 procs for 205761 steps with 868 atoms, finish time Tue Jan  3 17:27:38 2023


Pair  time (%) = 0.455069 (0.0215194)
Neigh time (%) = 14.1997 (0.671479)
Comm  time (%) = 24.2968 (1.14895)
Outpt time (%) = 0.000524314 (2.47938e-05)
Other time (%) = 2075.74 (98.158)

Nlocal:    21.7 ave 343 max 0 min
Histogram: 34 3 0 1 0 1 0 0 0 1
Nghost:    4.425 ave 70 max 0 min
Histogram: 36 0 1 1 0 0 1 0 0 1
Neighs:    1.55 ave 36 max 0 min
Histogram: 37 0 1 1 0 0 0 0 0 1

Total # of neighbors = 62
Ave neighs/atom = 0.0714286
Neighbor list builds = 17036
Dangerous builds = 105
write_dump all custom dump.atom_info_ac_* id type x y z radius vx vy vz density #
run 205761
Setting up run at Tue Jan  3 17:27:38 2023

Memory usage per processor = 960.195 Mbytes
    Step    Atoms         KinEng            CPU 
10082291      868     0.88266399              0 
10288052      847     0.69290962      2089.7557 
Loop time of 2089.76 on 40 procs for 205761 steps with 847 atoms, finish time Tue Jan  3 18:02:27 2023


Pair  time (%) = 0.446285 (0.0213558)
Neigh time (%) = 11.3728 (0.544217)
Comm  time (%) = 24.7508 (1.18439)
Outpt time (%) = 0.000559645 (2.67804e-05)
Other time (%) = 2053.19 (98.25)

Nlocal:    21.175 ave 315 max 0 min
Histogram: 35 1 1 1 0 0 1 0 0 1
Nghost:    4.675 ave 65 max 0 min
Histogram: 36 0 0 1 1 0 0 0 1 1
Neighs:    1.675 ave 33 max 0 min
Histogram: 36 1 1 0 0 1 0 0 0 1

Total # of neighbors = 67
Ave neighs/atom = 0.0791027
Neighbor list builds = 13763
Dangerous builds = 2091
write_dump all custom dump.atom_info_ac_* id type x y z radius vx vy vz density #
run 205761
Setting up run at Tue Jan  3 18:02:27 2023

Memory usage per processor = 960.195 Mbytes
    Step    Atoms         KinEng            CPU 
10288052      847     0.69290962              0 
10493813      832     0.69656579      2110.8368 
Loop time of 2110.84 on 40 procs for 205761 steps with 832 atoms, finish time Tue Jan  3 18:37:38 2023


Pair  time (%) = 0.450186 (0.0213274)
Neigh time (%) = 12.7437 (0.603727)
Comm  time (%) = 24.7081 (1.17054)
Outpt time (%) = 0.000541053 (2.56321e-05)
Other time (%) = 2072.93 (98.2044)

Nlocal:    20.8 ave 289 max 0 min
Histogram: 34 2 1 1 0 0 0 1 0 1
Nghost:    4.875 ave 66 max 0 min
Histogram: 36 0 0 1 1 0 0 0 1 1
Neighs:    1.65 ave 29 max 0 min
Histogram: 36 0 1 1 0 0 1 0 0 1

Total # of neighbors = 66
Ave neighs/atom = 0.0793269
Neighbor list builds = 15378
Dangerous builds = 930
write_dump all custom dump.atom_info_ac_* id type x y z radius vx vy vz density #
run 205761
Setting up run at Tue Jan  3 18:37:38 2023

Memory usage per processor = 960.195 Mbytes
    Step    Atoms         KinEng            CPU 
10493813      832     0.69656579              0 
10699574      820     0.55750603      2108.8285 
Loop time of 2108.83 on 40 procs for 205761 steps with 820 atoms, finish time Tue Jan  3 19:12:47 2023


Pair  time (%) = 0.441366 (0.0209294)
Neigh time (%) = 13.7911 (0.65397)
Comm  time (%) = 25.4806 (1.20828)
Outpt time (%) = 0.000532772 (2.52639e-05)
Other time (%) = 2069.11 (98.1168)

Nlocal:    20.5 ave 275 max 0 min
Histogram: 33 3 2 0 0 0 0 0 1 1
Nghost:    4 ave 55 max 0 min
Histogram: 36 0 0 0 2 0 0 1 0 1
Neighs:    1.3 ave 19 max 0 min
Histogram: 35 1 2 0 0 0 0 0 0 2

Total # of neighbors = 52
Ave neighs/atom = 0.0634146
Neighbor list builds = 16588
Dangerous builds = 676
write_dump all custom dump.atom_info_ac_* id type x y z radius vx vy vz density #
run 205761
Setting up run at Tue Jan  3 19:12:47 2023

Memory usage per processor = 960.195 Mbytes
    Step    Atoms         KinEng            CPU 
10699574      820     0.55750603              0 
10905335      806     0.52153787       2094.754 
Loop time of 2094.75 on 40 procs for 205761 steps with 806 atoms, finish time Tue Jan  3 19:47:42 2023


Pair  time (%) = 0.430719 (0.0205618)
Neigh time (%) = 11.1332 (0.531479)
Comm  time (%) = 20.7737 (0.991699)
Outpt time (%) = 0.000601396 (2.87096e-05)
Other time (%) = 2062.42 (98.4562)

Nlocal:    20.15 ave 268 max 0 min
Histogram: 33 3 2 0 0 0 0 0 1 1
Nghost:    4.225 ave 51 max 0 min
Histogram: 36 0 0 0 0 2 0 0 0 2
Neighs:    1.025 ave 21 max 0 min
Histogram: 38 0 0 0 0 0 0 1 0 1

Total # of neighbors = 41
Ave neighs/atom = 0.0508685
Neighbor list builds = 13384
Dangerous builds = 734
write_dump all custom dump.atom_info_ac_* id type x y z radius vx vy vz density #
run 205761
Setting up run at Tue Jan  3 19:47:42 2023

Memory usage per processor = 960.195 Mbytes
    Step    Atoms         KinEng            CPU 
10905335      806     0.52153787              0 
11111096      790     0.65729555      2086.5641 
Loop time of 2086.56 on 40 procs for 205761 steps with 790 atoms, finish time Tue Jan  3 20:22:29 2023


Pair  time (%) = 0.440754 (0.0211235)
Neigh time (%) = 11.4232 (0.547466)
Comm  time (%) = 17.8338 (0.854695)
Outpt time (%) = 0.000456966 (2.19004e-05)
Other time (%) = 2056.87 (98.5767)

Nlocal:    19.75 ave 257 max 0 min
Histogram: 33 3 2 0 0 0 0 0 1 1
Nghost:    3.95 ave 47 max 0 min
Histogram: 34 2 0 0 1 1 0 0 0 2
Neighs:    1.25 ave 21 max 0 min
Histogram: 37 0 0 1 0 0 0 0 1 1

Total # of neighbors = 50
Ave neighs/atom = 0.0632911
Neighbor list builds = 13726
Dangerous builds = 33
write_dump all custom dump.atom_info_ac_* id type x y z radius vx vy vz density #
run 205761
Setting up run at Tue Jan  3 20:22:29 2023

Memory usage per processor = 960.195 Mbytes
    Step    Atoms         KinEng            CPU 
11111096      790     0.65729555              0 
11316857      772      1.3003687      2086.6454 
Loop time of 2086.65 on 40 procs for 205761 steps with 772 atoms, finish time Tue Jan  3 20:57:15 2023


Pair  time (%) = 0.437314 (0.0209578)
Neigh time (%) = 10.9312 (0.523867)
Comm  time (%) = 20.3131 (0.97348)
Outpt time (%) = 0.00047239 (2.26387e-05)
Other time (%) = 2054.96 (98.4817)

Nlocal:    19.3 ave 261 max 0 min
Histogram: 32 4 2 0 0 0 0 1 0 1
Nghost:    4.1 ave 52 max 0 min
Histogram: 36 0 0 0 1 0 1 1 0 1
Neighs:    1.025 ave 17 max 0 min
Histogram: 36 1 1 0 0 0 0 0 0 2

Total # of neighbors = 41
Ave neighs/atom = 0.0531088
Neighbor list builds = 13191
Dangerous builds = 1046
write_dump all custom dump.atom_info_ac_* id type x y z radius vx vy vz density #
run 205761
Setting up run at Tue Jan  3 20:57:16 2023

Memory usage per processor = 960.195 Mbytes
    Step    Atoms         KinEng            CPU 
11316857      772      1.3003687              0 
11522618      756     0.74123519      2110.2548 
Loop time of 2110.26 on 40 procs for 205761 steps with 756 atoms, finish time Tue Jan  3 21:32:26 2023


Pair  time (%) = 0.440408 (0.0208699)
Neigh time (%) = 14.2957 (0.67744)
Comm  time (%) = 23.4906 (1.11316)
Outpt time (%) = 0.000475265 (2.25217e-05)
Other time (%) = 2072.03 (98.1885)

Nlocal:    18.9 ave 251 max 0 min
Histogram: 33 3 2 0 0 0 0 0 1 1
Nghost:    3.875 ave 47 max 0 min
Histogram: 36 0 0 0 1 1 0 0 0 2
Neighs:    0.9 ave 16 max 0 min
Histogram: 37 1 0 0 0 0 0 0 0 2

Total # of neighbors = 36
Ave neighs/atom = 0.047619
Neighbor list builds = 17199
Dangerous builds = 53
write_dump all custom dump.atom_info_ac_* id type x y z radius vx vy vz density #
run 205761
Setting up run at Tue Jan  3 21:32:26 2023

Memory usage per processor = 960.195 Mbytes
    Step    Atoms         KinEng            CPU 
11522618      756     0.74123519              0 
11728379      738     0.97717463       2149.732 
Loop time of 2149.73 on 40 procs for 205761 steps with 738 atoms, finish time Tue Jan  3 22:08:16 2023


Pair  time (%) = 0.442216 (0.0205707)
Neigh time (%) = 18.0842 (0.84123)
Comm  time (%) = 33.7276 (1.56892)
Outpt time (%) = 0.000468312 (2.17846e-05)
Other time (%) = 2097.48 (97.5693)

Nlocal:    18.45 ave 241 max 0 min
Histogram: 34 2 2 0 0 0 0 0 1 1
Nghost:    3.625 ave 43 max 0 min
Histogram: 35 1 0 0 1 1 0 0 0 2
Neighs:    0.85 ave 14 max 0 min
Histogram: 36 1 0 1 0 0 0 1 0 1

Total # of neighbors = 34
Ave neighs/atom = 0.0460705
Neighbor list builds = 21815
Dangerous builds = 1304
write_dump all custom dump.atom_info_ac_* id type x y z radius vx vy vz density #
run 205761
Setting up run at Tue Jan  3 22:08:16 2023

Memory usage per processor = 960.195 Mbytes
    Step    Atoms         KinEng            CPU 
11728379      738     0.97717463              0 
11934140      727     0.75859745      2109.4736 
Loop time of 2109.47 on 40 procs for 205761 steps with 727 atoms, finish time Tue Jan  3 22:43:25 2023


Pair  time (%) = 0.436036 (0.0206704)
Neigh time (%) = 13.3863 (0.634581)
Comm  time (%) = 25.1958 (1.19441)
Outpt time (%) = 0.000476187 (2.25738e-05)
Other time (%) = 2070.46 (98.1503)

Nlocal:    18.175 ave 236 max 0 min
Histogram: 32 4 2 0 0 0 0 0 1 1
Nghost:    3.475 ave 44 max 0 min
Histogram: 36 0 0 0 2 0 0 0 0 2
Neighs:    0.775 ave 16 max 0 min
Histogram: 37 0 1 0 0 0 1 0 0 1

Total # of neighbors = 31
Ave neighs/atom = 0.042641
Neighbor list builds = 16091
Dangerous builds = 11
write_dump all custom dump.atom_info_ac_* id type x y z radius vx vy vz density #
run 205761
Setting up run at Tue Jan  3 22:43:25 2023

Memory usage per processor = 960.195 Mbytes
    Step    Atoms         KinEng            CPU 
11934140      727     0.75859745              0 
12139901      709       0.708438      2103.8458 
Loop time of 2103.85 on 40 procs for 205761 steps with 709 atoms, finish time Tue Jan  3 23:18:29 2023


Pair  time (%) = 0.435587 (0.0207043)
Neigh time (%) = 13.0011 (0.61797)
Comm  time (%) = 22.235 (1.05688)
Outpt time (%) = 0.000450547 (2.14154e-05)
Other time (%) = 2068.17 (98.3044)

Nlocal:    17.725 ave 230 max 0 min
Histogram: 33 3 2 0 0 0 0 0 1 1
Nghost:    3.325 ave 41 max 0 min
Histogram: 36 0 0 0 2 0 0 0 0 2
Neighs:    0.625 ave 9 max 0 min
Histogram: 34 1 2 0 0 1 1 0 0 1

Total # of neighbors = 25
Ave neighs/atom = 0.0352609
Neighbor list builds = 15633
Dangerous builds = 705
write_dump all custom dump.atom_info_ac_* id type x y z radius vx vy vz density #
run 205761
Setting up run at Tue Jan  3 23:18:29 2023

Memory usage per processor = 960.195 Mbytes
    Step    Atoms         KinEng            CPU 
12139901      709       0.708438              0 
12345662      684     0.60603389      2095.2824 
Loop time of 2095.28 on 40 procs for 205761 steps with 684 atoms, finish time Tue Jan  3 23:53:24 2023


Pair  time (%) = 0.433723 (0.0207)
Neigh time (%) = 12.7 (0.606125)
Comm  time (%) = 23.5787 (1.12532)
Outpt time (%) = 0.000517137 (2.4681e-05)
Other time (%) = 2058.57 (98.2478)

Nlocal:    17.1 ave 221 max 0 min
Histogram: 33 3 2 0 0 0 0 0 0 2
Nghost:    3.225 ave 44 max 0 min
Histogram: 36 0 0 1 1 0 0 1 0 1
Neighs:    0.675 ave 12 max 0 min
Histogram: 38 0 0 0 0 0 0 0 0 2

Total # of neighbors = 27
Ave neighs/atom = 0.0394737
Neighbor list builds = 15335
Dangerous builds = 2188
write_dump all custom dump.atom_info_ac_* id type x y z radius vx vy vz density #
run 205761
Setting up run at Tue Jan  3 23:53:25 2023

Memory usage per processor = 960.195 Mbytes
    Step    Atoms         KinEng            CPU 
12345662      684     0.60603389              0 
12551423      667     0.76209156      2095.6534 
Loop time of 2095.65 on 40 procs for 205761 steps with 667 atoms, finish time Wed Jan  4 00:28:20 2023


Pair  time (%) = 0.425059 (0.0202829)
Neigh time (%) = 12.9144 (0.616247)
Comm  time (%) = 23.0175 (1.09835)
Outpt time (%) = 0.000550134 (2.62512e-05)
Other time (%) = 2059.3 (98.2651)

Nlocal:    16.675 ave 218 max 0 min
Histogram: 32 4 2 0 0 0 0 0 0 2
Nghost:    3.4 ave 43 max 0 min
Histogram: 36 0 0 1 0 1 0 0 1 1
Neighs:    0.725 ave 13 max 0 min
Histogram: 37 0 1 0 0 0 0 0 1 1

Total # of neighbors = 29
Ave neighs/atom = 0.0434783
Neighbor list builds = 15528
Dangerous builds = 725
write_dump all custom dump.atom_info_ac_* id type x y z radius vx vy vz density #
run 205761
Setting up run at Wed Jan  4 00:28:20 2023

Memory usage per processor = 960.195 Mbytes
    Step    Atoms         KinEng            CPU 
12551423      667     0.76209156              0 
12757184      656     0.81972269      2131.9758 
Loop time of 2131.98 on 40 procs for 205761 steps with 656 atoms, finish time Wed Jan  4 01:03:52 2023


Pair  time (%) = 0.429949 (0.0201667)
Neigh time (%) = 15.9282 (0.747111)
Comm  time (%) = 25.7117 (1.206)
Outpt time (%) = 0.0005079 (2.3823e-05)
Other time (%) = 2089.91 (98.0267)

Nlocal:    16.4 ave 212 max 0 min
Histogram: 32 4 2 0 0 0 0 0 0 2
Nghost:    3.55 ave 47 max 0 min
Histogram: 34 2 1 0 0 1 0 0 1 1
Neighs:    0.625 ave 15 max 0 min
Histogram: 37 0 1 1 0 0 0 0 0 1

Total # of neighbors = 25
Ave neighs/atom = 0.0381098
Neighbor list builds = 19143
Dangerous builds = 538
write_dump all custom dump.atom_info_ac_* id type x y z radius vx vy vz density #
run 205761
Setting up run at Wed Jan  4 01:03:52 2023

Memory usage per processor = 960.195 Mbytes
    Step    Atoms         KinEng            CPU 
12757184      656     0.81972269              0 
12962945      640     0.64516707      2219.3039 
Loop time of 2219.31 on 40 procs for 205761 steps with 640 atoms, finish time Wed Jan  4 01:40:52 2023


Pair  time (%) = 0.425887 (0.0191901)
Neigh time (%) = 13.3074 (0.59962)
Comm  time (%) = 22.0273 (0.992529)
Outpt time (%) = 0.00049649 (2.23714e-05)
Other time (%) = 2183.55 (98.3886)

Nlocal:    16 ave 197 max 0 min
Histogram: 32 4 2 0 0 0 0 0 0 2
Nghost:    3.275 ave 41 max 0 min
Histogram: 36 0 0 1 0 1 0 0 1 1
Neighs:    0.6 ave 11 max 0 min
Histogram: 37 0 1 0 0 0 1 0 0 1

Total # of neighbors = 24
Ave neighs/atom = 0.0375
Neighbor list builds = 15996
Dangerous builds = 437
write_dump all custom dump.atom_info_ac_* id type x y z radius vx vy vz density #
run 205761
Setting up run at Wed Jan  4 01:40:52 2023

Memory usage per processor = 960.195 Mbytes
    Step    Atoms         KinEng            CPU 
12962945      640     0.64516707              0 
13168706      635     0.47772867      2078.5299 
Loop time of 2078.53 on 40 procs for 205761 steps with 635 atoms, finish time Wed Jan  4 02:15:30 2023


Pair  time (%) = 0.421779 (0.0202922)
Neigh time (%) = 11.2129 (0.539462)
Comm  time (%) = 20.2141 (0.97252)
Outpt time (%) = 0.000475741 (2.28883e-05)
Other time (%) = 2046.68 (98.4677)

Nlocal:    15.875 ave 193 max 0 min
Histogram: 32 3 3 0 0 0 0 0 0 2
Nghost:    3.175 ave 39 max 0 min
Histogram: 35 1 0 0 1 1 0 0 1 1
Neighs:    0.625 ave 9 max 0 min
Histogram: 34 1 1 2 0 0 0 1 0 1

Total # of neighbors = 25
Ave neighs/atom = 0.0393701
Neighbor list builds = 13425
Dangerous builds = 3
write_dump all custom dump.atom_info_ac_* id type x y z radius vx vy vz density #
run 205761
Setting up run at Wed Jan  4 02:15:30 2023

Memory usage per processor = 960.195 Mbytes
    Step    Atoms         KinEng            CPU 
13168706      635     0.47772867              0 
13374467      621     0.88930652      2089.9952 
Loop time of 2090 on 40 procs for 205761 steps with 621 atoms, finish time Wed Jan  4 02:50:20 2023


Pair  time (%) = 0.422234 (0.0202027)
Neigh time (%) = 12.5093 (0.598531)
Comm  time (%) = 22.3763 (1.07064)
Outpt time (%) = 0.00405089 (0.000193823)
Other time (%) = 2054.68 (98.3104)

Nlocal:    15.525 ave 189 max 0 min
Histogram: 33 3 1 1 0 0 0 0 0 2
Nghost:    3.175 ave 35 max 0 min
Histogram: 35 1 0 0 0 1 0 1 1 1
Neighs:    0.6 ave 11 max 0 min
Histogram: 35 3 0 0 0 0 1 0 0 1

Total # of neighbors = 24
Ave neighs/atom = 0.0386473
Neighbor list builds = 15021
Dangerous builds = 731
write_dump all custom dump.atom_info_ac_* id type x y z radius vx vy vz density #
run 205761
Setting up run at Wed Jan  4 02:50:20 2023

Memory usage per processor = 960.195 Mbytes
    Step    Atoms         KinEng            CPU 
13374467      621     0.88930652              0 
13580228      605     0.60945719      2108.6673 
Loop time of 2108.67 on 40 procs for 205761 steps with 605 atoms, finish time Wed Jan  4 03:25:29 2023


Pair  time (%) = 0.428761 (0.0203333)
Neigh time (%) = 14.4113 (0.683433)
Comm  time (%) = 21.2358 (1.00707)
Outpt time (%) = 0.000451682 (2.14203e-05)
Other time (%) = 2072.59 (98.2891)

Nlocal:    15.125 ave 187 max 0 min
Histogram: 32 4 2 0 0 0 0 0 0 2
Nghost:    3.525 ave 39 max 0 min
Histogram: 35 1 0 0 1 0 0 1 0 2
Neighs:    0.725 ave 12 max 0 min
Histogram: 35 1 1 0 1 1 0 0 0 1

Total # of neighbors = 29
Ave neighs/atom = 0.0479339
Neighbor list builds = 17340
Dangerous builds = 1332
write_dump all custom dump.atom_info_ac_* id type x y z radius vx vy vz density #
run 205761
Setting up run at Wed Jan  4 03:25:29 2023

Memory usage per processor = 960.195 Mbytes
    Step    Atoms         KinEng            CPU 
13580228      605     0.60945719              0 
13785989      591     0.73578817      2100.3514 
Loop time of 2100.35 on 40 procs for 205761 steps with 591 atoms, finish time Wed Jan  4 04:00:30 2023


Pair  time (%) = 0.43415 (0.0206703)
Neigh time (%) = 12.5258 (0.596369)
Comm  time (%) = 16.4709 (0.784198)
Outpt time (%) = 0.0197821 (0.000941849)
Other time (%) = 2070.9 (98.5978)

Nlocal:    14.775 ave 185 max 0 min
Histogram: 32 3 3 0 0 0 0 0 0 2
Nghost:    3.075 ave 38 max 0 min
Histogram: 35 1 0 0 1 0 1 1 0 1
Neighs:    0.425 ave 9 max 0 min
Histogram: 33 4 2 0 0 0 0 0 0 1

Total # of neighbors = 17
Ave neighs/atom = 0.0287648
Neighbor list builds = 15033
Dangerous builds = 11
write_dump all custom dump.atom_info_ac_* id type x y z radius vx vy vz density #
run 205761
Setting up run at Wed Jan  4 04:00:30 2023

Memory usage per processor = 960.195 Mbytes
    Step    Atoms         KinEng            CPU 
13785989      591     0.73578817              0 
13991750      581      1.1980061       2096.076 
Loop time of 2096.08 on 40 procs for 205761 steps with 581 atoms, finish time Wed Jan  4 04:35:26 2023


Pair  time (%) = 0.425127 (0.0202821)
Neigh time (%) = 12.4064 (0.591885)
Comm  time (%) = 19.0543 (0.909048)
Outpt time (%) = 0.000785076 (3.74546e-05)
Other time (%) = 2064.19 (98.4787)

Nlocal:    14.525 ave 182 max 0 min
Histogram: 33 3 2 0 0 0 0 0 0 2
Nghost:    3.025 ave 32 max 0 min
Histogram: 35 1 0 0 1 0 0 0 1 2
Neighs:    0.675 ave 14 max 0 min
Histogram: 36 1 1 0 0 1 0 0 0 1

Total # of neighbors = 27
Ave neighs/atom = 0.0464716
Neighbor list builds = 14833
Dangerous builds = 311
write_dump all custom dump.atom_info_ac_* id type x y z radius vx vy vz density #
run 205761
Setting up run at Wed Jan  4 04:35:26 2023

Memory usage per processor = 960.195 Mbytes
    Step    Atoms         KinEng            CPU 
13991750      581      1.1980061              0 
14197511      560     0.44185968      2094.0576 
Loop time of 2094.06 on 40 procs for 205761 steps with 560 atoms, finish time Wed Jan  4 05:10:20 2023


Pair  time (%) = 0.421846 (0.0201449)
Neigh time (%) = 12.8078 (0.611625)
Comm  time (%) = 23.9877 (1.14551)
Outpt time (%) = 0.00048197 (2.30161e-05)
Other time (%) = 2056.84 (98.2227)

Nlocal:    14 ave 181 max 0 min
Histogram: 33 3 2 0 0 0 0 0 1 1
Nghost:    2.75 ave 29 max 0 min
Histogram: 34 2 0 0 0 1 0 0 2 1
Neighs:    0.55 ave 14 max 0 min
Histogram: 37 1 0 0 1 0 0 0 0 1

Total # of neighbors = 22
Ave neighs/atom = 0.0392857
Neighbor list builds = 15402
Dangerous builds = 1339
write_dump all custom dump.atom_info_ac_* id type x y z radius vx vy vz density #
run 205761
Setting up run at Wed Jan  4 05:10:20 2023

Memory usage per processor = 960.195 Mbytes
    Step    Atoms         KinEng            CPU 
14197511      560     0.44185968              0 
14403272      549     0.57502694      2075.8777 
Loop time of 2075.88 on 40 procs for 205761 steps with 549 atoms, finish time Wed Jan  4 05:44:56 2023


Pair  time (%) = 0.418867 (0.0201778)
Neigh time (%) = 10.0769 (0.485427)
Comm  time (%) = 17.8482 (0.859793)
Outpt time (%) = 0.00049239 (2.37196e-05)
Other time (%) = 2047.53 (98.6346)

Nlocal:    13.725 ave 175 max 0 min
Histogram: 32 4 2 0 0 0 0 0 1 1
Nghost:    2.75 ave 31 max 0 min
Histogram: 35 1 0 0 1 0 0 1 0 2
Neighs:    0.425 ave 11 max 0 min
Histogram: 38 1 0 0 0 0 0 0 0 1

Total # of neighbors = 17
Ave neighs/atom = 0.0309654
Neighbor list builds = 12106
Dangerous builds = 565
write_dump all custom dump.atom_info_ac_* id type x y z radius vx vy vz density #
run 205761
Setting up run at Wed Jan  4 05:44:56 2023

Memory usage per processor = 960.195 Mbytes
    Step    Atoms         KinEng            CPU 
14403272      549     0.57502694              0 
14609033      535     0.61598147       2149.253 
Loop time of 2149.25 on 40 procs for 205761 steps with 535 atoms, finish time Wed Jan  4 06:20:45 2023


Pair  time (%) = 0.437475 (0.0203548)
Neigh time (%) = 18.0255 (0.838687)
Comm  time (%) = 22.1059 (1.02854)
Outpt time (%) = 0.000495509 (2.30549e-05)
Other time (%) = 2108.68 (98.1124)

Nlocal:    13.375 ave 171 max 0 min
Histogram: 32 5 1 0 0 0 0 0 0 2
Nghost:    2.5 ave 31 max 0 min
Histogram: 35 1 0 1 0 1 0 0 1 1
Neighs:    0.55 ave 11 max 0 min
Histogram: 38 0 0 0 0 1 0 0 0 1

Total # of neighbors = 22
Ave neighs/atom = 0.0411215
Neighbor list builds = 21604
Dangerous builds = 1
write_dump all custom dump.atom_info_ac_* id type x y z radius vx vy vz density #
run 205761
Setting up run at Wed Jan  4 06:20:46 2023

Memory usage per processor = 960.195 Mbytes
    Step    Atoms         KinEng            CPU 
14609033      535     0.61598147              0 
14814794      525     0.69667784       2104.779 
Loop time of 2104.78 on 40 procs for 205761 steps with 525 atoms, finish time Wed Jan  4 06:55:50 2023


Pair  time (%) = 0.417517 (0.0198366)
Neigh time (%) = 14.0617 (0.668084)
Comm  time (%) = 23.7258 (1.12724)
Outpt time (%) = 0.00414642 (0.000197)
Other time (%) = 2066.57 (98.1846)

Nlocal:    13.125 ave 163 max 0 min
Histogram: 32 4 2 0 0 0 0 0 0 2
Nghost:    2.4 ave 28 max 0 min
Histogram: 33 3 0 1 0 0 1 0 1 1
Neighs:    0.4 ave 10 max 0 min
Histogram: 37 1 0 0 0 1 0 0 0 1

Total # of neighbors = 16
Ave neighs/atom = 0.0304762
Neighbor list builds = 16834
Dangerous builds = 592
write_dump all custom dump.atom_info_ac_* id type x y z radius vx vy vz density #
run 205761
Setting up run at Wed Jan  4 06:55:50 2023

Memory usage per processor = 960.195 Mbytes
    Step    Atoms         KinEng            CPU 
14814794      525     0.69667784              0 
15020555      517     0.58228996      2090.9249 
Loop time of 2090.93 on 40 procs for 205761 steps with 517 atoms, finish time Wed Jan  4 07:30:41 2023


Pair  time (%) = 0.418295 (0.0200052)
Neigh time (%) = 12.1872 (0.582862)
Comm  time (%) = 17.8168 (0.852101)
Outpt time (%) = 0.000271054 (1.29634e-05)
Other time (%) = 2060.5 (98.545)

Nlocal:    12.925 ave 162 max 0 min
Histogram: 34 1 2 1 0 0 0 0 0 2
Nghost:    2.175 ave 26 max 0 min
Histogram: 36 0 0 1 0 0 0 0 2 1
Neighs:    0.375 ave 6 max 0 min
Histogram: 36 1 0 0 0 1 0 0 1 1

Total # of neighbors = 15
Ave neighs/atom = 0.0290135
Neighbor list builds = 14572
Dangerous builds = 373
write_dump all custom dump.atom_info_ac_* id type x y z radius vx vy vz density #
run 205761
Setting up run at Wed Jan  4 07:30:41 2023

Memory usage per processor = 960.195 Mbytes
    Step    Atoms         KinEng            CPU 
15020555      517     0.58228996              0 
15226316      506     0.53737072      2094.8022 
Loop time of 2094.8 on 40 procs for 205761 steps with 506 atoms, finish time Wed Jan  4 08:05:36 2023


Pair  time (%) = 0.416576 (0.0198862)
Neigh time (%) = 12.5372 (0.598493)
Comm  time (%) = 19.642 (0.937653)
Outpt time (%) = 0.00051389 (2.45317e-05)
Other time (%) = 2062.21 (98.4439)

Nlocal:    12.65 ave 161 max 0 min
Histogram: 33 3 2 0 0 0 0 0 0 2
Nghost:    2.275 ave 25 max 0 min
Histogram: 36 0 0 0 1 0 0 0 1 2
Neighs:    0.5 ave 8 max 0 min
Histogram: 35 1 2 0 0 0 0 0 1 1

Total # of neighbors = 20
Ave neighs/atom = 0.0395257
Neighbor list builds = 15006
Dangerous builds = 314
write_dump all custom dump.atom_info_ac_* id type x y z radius vx vy vz density #
run 205761
Setting up run at Wed Jan  4 08:05:36 2023

Memory usage per processor = 960.195 Mbytes
    Step    Atoms         KinEng            CPU 
15226316      506     0.53737072              0 
15432077      499     0.55860183      2100.3412 
Loop time of 2100.34 on 40 procs for 205761 steps with 499 atoms, finish time Wed Jan  4 08:40:37 2023


Pair  time (%) = 0.417491 (0.0198773)
Neigh time (%) = 12.8367 (0.611173)
Comm  time (%) = 20.2094 (0.962197)
Outpt time (%) = 0.000311496 (1.48308e-05)
Other time (%) = 2066.88 (98.4067)

Nlocal:    12.475 ave 158 max 0 min
Histogram: 33 2 3 0 0 0 0 0 0 2
Nghost:    2.25 ave 31 max 0 min
Histogram: 36 0 0 1 0 1 1 0 0 1
Neighs:    0.275 ave 6 max 0 min
Histogram: 36 2 0 0 0 1 0 0 0 1

Total # of neighbors = 11
Ave neighs/atom = 0.0220441
Neighbor list builds = 15332
Dangerous builds = 0
write_dump all custom dump.atom_info_ac_* id type x y z radius vx vy vz density #
run 205761
Setting up run at Wed Jan  4 08:40:37 2023

Memory usage per processor = 960.195 Mbytes
    Step    Atoms         KinEng            CPU 
15432077      499     0.55860183              0 
15637838      489     0.51129022      2097.7614 
Loop time of 2097.76 on 40 procs for 205761 steps with 489 atoms, finish time Wed Jan  4 09:15:35 2023


Pair  time (%) = 0.417208 (0.0198883)
Neigh time (%) = 13.2279 (0.630572)
Comm  time (%) = 19.3934 (0.92448)
Outpt time (%) = 0.00399204 (0.0001903)
Other time (%) = 2064.72 (98.4249)

Nlocal:    12.225 ave 156 max 0 min
Histogram: 32 4 2 0 0 0 0 0 0 2
Nghost:    2.25 ave 29 max 0 min
Histogram: 34 2 0 0 1 1 1 0 0 1
Neighs:    0.175 ave 4 max 0 min
Histogram: 37 0 1 0 0 1 0 0 0 1

Total # of neighbors = 7
Ave neighs/atom = 0.0143149
Neighbor list builds = 15860
Dangerous builds = 1122
write_dump all custom dump.atom_info_ac_* id type x y z radius vx vy vz density #
run 205761
Setting up run at Wed Jan  4 09:15:35 2023

Memory usage per processor = 960.195 Mbytes
    Step    Atoms         KinEng            CPU 
15637838      489     0.51129022              0 
15843599      481     0.74218212      2096.2793 
Loop time of 2096.28 on 40 procs for 205761 steps with 481 atoms, finish time Wed Jan  4 09:50:31 2023


Pair  time (%) = 0.414233 (0.0197604)
Neigh time (%) = 13.0145 (0.620836)
Comm  time (%) = 19.5869 (0.934367)
Outpt time (%) = 0.00414372 (0.00019767)
Other time (%) = 2063.26 (98.4248)

Nlocal:    12.025 ave 152 max 0 min
Histogram: 32 4 2 0 0 0 0 0 0 2
Nghost:    2.4 ave 32 max 0 min
Histogram: 35 1 0 0 2 0 1 0 0 1
Neighs:    0.35 ave 6 max 0 min
Histogram: 35 2 0 1 0 0 1 0 0 1

Total # of neighbors = 14
Ave neighs/atom = 0.029106
Neighbor list builds = 15567
Dangerous builds = 3
write_dump all custom dump.atom_info_ac_* id type x y z radius vx vy vz density #
run 205761
Setting up run at Wed Jan  4 09:50:31 2023

Memory usage per processor = 960.195 Mbytes
    Step    Atoms         KinEng            CPU 
15843599      481     0.74218212              0 
16049360      468      0.6073048       2097.873 
Loop time of 2097.87 on 40 procs for 205761 steps with 468 atoms, finish time Wed Jan  4 10:25:29 2023


Pair  time (%) = 0.414771 (0.019771)
Neigh time (%) = 13.1544 (0.627037)
Comm  time (%) = 20.9367 (0.997997)
Outpt time (%) = 0.000252215 (1.20224e-05)
Other time (%) = 2063.37 (98.3552)

Nlocal:    11.7 ave 150 max 0 min
Histogram: 32 4 2 0 0 0 0 0 0 2
Nghost:    2.425 ave 27 max 0 min
Histogram: 34 2 0 0 1 1 0 0 1 1
Neighs:    0.3 ave 5 max 0 min
Histogram: 35 0 2 0 1 0 1 0 0 1

Total # of neighbors = 12
Ave neighs/atom = 0.025641
Neighbor list builds = 15784
Dangerous builds = 874
write_dump all custom dump.atom_info_ac_* id type x y z radius vx vy vz density #
run 205761
Setting up run at Wed Jan  4 10:25:29 2023

Memory usage per processor = 960.195 Mbytes
    Step    Atoms         KinEng            CPU 
16049360      468      0.6073048              0 
16255121      462     0.55927414       2094.901 
Loop time of 2094.9 on 40 procs for 205761 steps with 462 atoms, finish time Wed Jan  4 11:00:24 2023


Pair  time (%) = 0.412733 (0.0197018)
Neigh time (%) = 11.2729 (0.538112)
Comm  time (%) = 16.3824 (0.782014)
Outpt time (%) = 0.000492038 (2.34874e-05)
Other time (%) = 2066.83 (98.6601)

Nlocal:    11.55 ave 152 max 0 min
Histogram: 34 2 2 0 0 0 0 0 1 1
Nghost:    2.525 ave 30 max 0 min
Histogram: 34 2 0 0 0 1 1 0 1 1
Neighs:    0.4 ave 9 max 0 min
Histogram: 36 1 0 2 0 0 0 0 0 1

Total # of neighbors = 16
Ave neighs/atom = 0.034632
Neighbor list builds = 13532
Dangerous builds = 54
write_dump all custom dump.atom_info_ac_* id type x y z radius vx vy vz density #
run 205761
Setting up run at Wed Jan  4 11:00:24 2023

Memory usage per processor = 960.195 Mbytes
    Step    Atoms         KinEng            CPU 
16255121      462     0.55927414              0 
16460882      451     0.68798114       2108.594 
Loop time of 2108.59 on 40 procs for 205761 steps with 451 atoms, finish time Wed Jan  4 11:35:32 2023


Pair  time (%) = 0.42399 (0.0201077)
Neigh time (%) = 13.3014 (0.630816)
Comm  time (%) = 13.7355 (0.651406)
Outpt time (%) = 0.00382478 (0.00018139)
Other time (%) = 2081.13 (98.6975)

Nlocal:    11.275 ave 148 max 0 min
Histogram: 32 6 0 0 0 0 0 0 0 2
Nghost:    2.7 ave 33 max 0 min
Histogram: 36 0 0 0 0 1 1 0 1 1
Neighs:    0.4 ave 9 max 0 min
Histogram: 35 2 1 1 0 0 0 0 0 1

Total # of neighbors = 16
[...]
29629616      187     0.32544574       2081.497 
Loop time of 2081.5 on 40 procs for 205761 steps with 187 atoms, finish time Fri Jan  6 01:21:19 2023


Pair  time (%) = 0.391572 (0.018812)
Neigh time (%) = 11.7513 (0.564558)
Comm  time (%) = 13.6077 (0.653747)
Outpt time (%) = 0.000467322 (2.24513e-05)
Other time (%) = 2055.75 (98.7629)

Nlocal:    4.675 ave 68 max 0 min
Histogram: 35 3 0 0 0 0 0 0 0 2
Nghost:    0.8 ave 11 max 0 min
Histogram: 34 0 2 1 1 1 0 0 0 1
Neighs:    0.075 ave 2 max 0 min
Histogram: 38 0 0 0 0 1 0 0 0 1

Total # of neighbors = 3
Ave neighs/atom = 0.0160428
Neighbor list builds = 14090
Dangerous builds = 0
write_dump all custom dump.atom_info_ac_* id type x y z radius vx vy vz density #
run 205761
Setting up run at Fri Jan  6 01:21:19 2023

Memory usage per processor = 960.195 Mbytes
    Step    Atoms         KinEng            CPU 
29629616      187     0.32544574              0 
29835377      185      0.1468369      2081.4211 
Loop time of 2081.42 on 40 procs for 205761 steps with 185 atoms, finish time Fri Jan  6 01:56:00 2023


Pair  time (%) = 0.395573 (0.0190049)
Neigh time (%) = 11.8837 (0.570944)
Comm  time (%) = 12.3799 (0.59478)
Outpt time (%) = 0.000216667 (1.04096e-05)
Other time (%) = 2056.76 (98.8153)

Nlocal:    4.625 ave 68 max 0 min
Histogram: 35 3 0 0 0 0 0 0 0 2
Nghost:    0.875 ave 9 max 0 min
Histogram: 32 2 0 1 2 1 0 0 1 1
Neighs:    0.15 ave 4 max 0 min
Histogram: 37 0 2 0 0 0 0 0 0 1

Total # of neighbors = 6
Ave neighs/atom = 0.0324324
Neighbor list builds = 14242
Dangerous builds = 27
write_dump all custom dump.atom_info_ac_* id type x y z radius vx vy vz density #
run 205761
Setting up run at Fri Jan  6 01:56:00 2023

Memory usage per processor = 960.195 Mbytes
    Step    Atoms         KinEng            CPU 
29835377      185      0.1468369              0 
30041138      184     0.18520527      2071.2653 
Loop time of 2071.27 on 40 procs for 205761 steps with 184 atoms, finish time Fri Jan  6 02:30:32 2023


Pair  time (%) = 0.394752 (0.0190585)
Neigh time (%) = 11.0674 (0.53433)
Comm  time (%) = 11.956 (0.57723)
Outpt time (%) = 0.000508128 (2.45323e-05)
Other time (%) = 2047.85 (98.8694)

Nlocal:    4.6 ave 69 max 0 min
Histogram: 35 3 0 0 0 0 0 0 0 2
Nghost:    0.725 ave 9 max 0 min
Histogram: 31 3 1 2 1 1 0 0 0 1
Neighs:    0.075 ave 3 max 0 min
Histogram: 39 0 0 0 0 0 0 0 0 1

Total # of neighbors = 3
Ave neighs/atom = 0.0163043
Neighbor list builds = 13257
Dangerous builds = 1
write_dump all custom dump.atom_info_ac_* id type x y z radius vx vy vz density #
run 205761
Setting up run at Fri Jan  6 02:30:32 2023

Memory usage per processor = 960.195 Mbytes
    Step    Atoms         KinEng            CPU 
30041138      184     0.18520527              0 
30246899      180     0.21931058      2070.2873 
Loop time of 2070.29 on 40 procs for 205761 steps with 180 atoms, finish time Fri Jan  6 03:05:02 2023


Pair  time (%) = 0.396937 (0.0191731)
Neigh time (%) = 10.7314 (0.518355)
Comm  time (%) = 10.3111 (0.498051)
Outpt time (%) = 0.0128777 (0.000622024)
Other time (%) = 2048.84 (98.9638)

Nlocal:    4.5 ave 65 max 0 min
Histogram: 35 3 0 0 0 0 0 0 0 2
Nghost:    0.775 ave 10 max 0 min
Histogram: 31 4 1 2 0 0 0 0 0 2
Neighs:    0.1 ave 3 max 0 min
Histogram: 38 0 0 1 0 0 0 0 0 1

Total # of neighbors = 4
Ave neighs/atom = 0.0222222
Neighbor list builds = 12854
Dangerous builds = 180
write_dump all custom dump.atom_info_ac_* id type x y z radius vx vy vz density #
run 205761
Setting up run at Fri Jan  6 03:05:02 2023

Memory usage per processor = 960.195 Mbytes
    Step    Atoms         KinEng            CPU 
30246899      180     0.21931058              0 
30452660      179     0.16387101      2072.3095 
Loop time of 2072.31 on 40 procs for 205761 steps with 179 atoms, finish time Fri Jan  6 03:39:35 2023


Pair  time (%) = 0.398036 (0.0192074)
Neigh time (%) = 11.3184 (0.546174)
Comm  time (%) = 7.84447 (0.378538)
Outpt time (%) = 0.000205717 (9.92692e-06)
Other time (%) = 2052.75 (99.0561)

Nlocal:    4.475 ave 68 max 0 min
Histogram: 35 3 0 0 0 0 0 0 1 1
Nghost:    1 ave 13 max 0 min
Histogram: 35 0 1 1 1 0 0 0 1 1
Neighs:    0.125 ave 3 max 0 min
Histogram: 38 0 0 0 0 0 1 0 0 1

Total # of neighbors = 5
Ave neighs/atom = 0.027933
Neighbor list builds = 13563
Dangerous builds = 0
write_dump all custom dump.atom_info_ac_* id type x y z radius vx vy vz density #
run 205761
Setting up run at Fri Jan  6 03:39:35 2023

Memory usage per processor = 960.195 Mbytes
    Step    Atoms         KinEng            CPU 
30452660      179     0.16387101              0 
30658421      178     0.18098303      2062.4155 
Loop time of 2062.43 on 40 procs for 205761 steps with 178 atoms, finish time Fri Jan  6 04:13:57 2023


Pair  time (%) = 0.391421 (0.0189787)
Neigh time (%) = 9.92292 (0.481128)
Comm  time (%) = 10.1427 (0.491783)
Outpt time (%) = 0.000484884 (2.35103e-05)
Other time (%) = 2041.97 (99.0081)

Nlocal:    4.45 ave 72 max 0 min
Histogram: 35 3 0 0 0 0 0 0 1 1
Nghost:    0.875 ave 12 max 0 min
Histogram: 34 1 2 0 1 0 1 0 0 1
Neighs:    0.15 ave 3 max 0 min
Histogram: 38 0 0 0 0 0 0 0 0 2

Total # of neighbors = 6
Ave neighs/atom = 0.0337079
Neighbor list builds = 11872
Dangerous builds = 0
write_dump all custom dump.atom_info_ac_* id type x y z radius vx vy vz density #
run 205761
Setting up run at Fri Jan  6 04:13:57 2023

Memory usage per processor = 960.195 Mbytes
    Step    Atoms         KinEng            CPU 
30658421      178     0.18098303              0 
30864182      176     0.26076646      2082.8439 
Loop time of 2082.84 on 40 procs for 205761 steps with 176 atoms, finish time Fri Jan  6 04:48:40 2023


Pair  time (%) = 0.394907 (0.01896)
Neigh time (%) = 11.2481 (0.540033)
Comm  time (%) = 10.1819 (0.488845)
Outpt time (%) = 0.000214674 (1.03068e-05)
Other time (%) = 2061.02 (98.9522)

Nlocal:    4.4 ave 71 max 0 min
Histogram: 37 1 0 0 0 0 0 0 1 1
Nghost:    0.825 ave 11 max 0 min
Histogram: 34 2 1 0 0 1 0 1 0 1
Neighs:    0.175 ave 4 max 0 min
Histogram: 38 0 0 0 0 0 0 1 0 1

Total # of neighbors = 7
Ave neighs/atom = 0.0397727
Neighbor list builds = 13479
Dangerous builds = 1
write_dump all custom dump.atom_info_ac_* id type x y z radius vx vy vz density #
run 205761
Setting up run at Fri Jan  6 04:48:40 2023

Memory usage per processor = 960.195 Mbytes
    Step    Atoms         KinEng            CPU 
30864182      176     0.26076646              0 
31069943      174     0.15617337      2079.6649 
Loop time of 2079.67 on 40 procs for 205761 steps with 174 atoms, finish time Fri Jan  6 05:23:20 2023


Pair  time (%) = 0.40064 (0.0192647)
Neigh time (%) = 12.0497 (0.579408)
Comm  time (%) = 7.09431 (0.341127)
Outpt time (%) = 0.000473942 (2.27893e-05)
Other time (%) = 2060.12 (99.0602)

Nlocal:    4.35 ave 72 max 0 min
Histogram: 37 1 0 0 0 0 0 0 1 1
Nghost:    0.775 ave 10 max 0 min
Histogram: 34 2 0 0 1 0 1 0 0 2
Neighs:    0.1 ave 3 max 0 min
Histogram: 38 0 0 1 0 0 0 0 0 1

Total # of neighbors = 4
Ave neighs/atom = 0.0229885
Neighbor list builds = 14452
Dangerous builds = 587
write_dump all custom dump.atom_info_ac_* id type x y z radius vx vy vz density #
run 205761
Setting up run at Fri Jan  6 05:23:20 2023

Memory usage per processor = 960.195 Mbytes
    Step    Atoms         KinEng            CPU 
31069943      174     0.15617337              0 
31275704      171     0.13332859      2097.3963 
Loop time of 2097.4 on 40 procs for 205761 steps with 171 atoms, finish time Fri Jan  6 05:58:17 2023


Pair  time (%) = 0.402348 (0.0191832)
Neigh time (%) = 13.3543 (0.636707)
Comm  time (%) = 7.09923 (0.338478)
Outpt time (%) = 0.00028288 (1.34872e-05)
Other time (%) = 2076.54 (99.0056)

Nlocal:    4.275 ave 71 max 0 min
Histogram: 37 1 0 0 0 0 0 0 1 1
Nghost:    0.55 ave 6 max 0 min
Histogram: 33 3 0 0 0 1 0 0 2 1
Neighs:    0.075 ave 3 max 0 min
Histogram: 39 0 0 0 0 0 0 0 0 1

Total # of neighbors = 3
Ave neighs/atom = 0.0175439
Neighbor list builds = 16001
Dangerous builds = 3
write_dump all custom dump.atom_info_ac_* id type x y z radius vx vy vz density #
run 205761
Setting up run at Fri Jan  6 05:58:17 2023

Memory usage per processor = 960.195 Mbytes
    Step    Atoms         KinEng            CPU 
31275704      171     0.13332859              0 
31481465      168     0.11778303      2060.3637 
Loop time of 2060.36 on 40 procs for 205761 steps with 168 atoms, finish time Fri Jan  6 06:32:38 2023


Pair  time (%) = 0.394668 (0.0191552)
Neigh time (%) = 10.2217 (0.496113)
Comm  time (%) = 6.07494 (0.294848)
Outpt time (%) = 0.000468982 (2.27621e-05)
Other time (%) = 2043.67 (99.1899)

Nlocal:    4.2 ave 71 max 0 min
Histogram: 37 1 0 0 0 0 0 0 1 1
Nghost:    0.575 ave 6 max 0 min
Histogram: 34 1 0 1 0 0 1 0 2 1
Neighs:    0.1 ave 2 max 0 min
Histogram: 37 0 0 0 0 2 0 0 0 1

Total # of neighbors = 4
Ave neighs/atom = 0.0238095
Neighbor list builds = 12248
Dangerous builds = 1
write_dump all custom dump.atom_info_ac_* id type x y z radius vx vy vz density #
run 205761
Setting up run at Fri Jan  6 06:32:38 2023

Memory usage per processor = 960.195 Mbytes
    Step    Atoms         KinEng            CPU 
31481465      168     0.11778303              0 
31687226      168     0.12490531      2085.1485 
Loop time of 2085.15 on 40 procs for 205761 steps with 168 atoms, finish time Fri Jan  6 07:07:23 2023


Pair  time (%) = 0.395253 (0.0189556)
Neigh time (%) = 12.1856 (0.584398)
Comm  time (%) = 7.09426 (0.340228)
Outpt time (%) = 0.000236166 (1.13261e-05)
Other time (%) = 2065.47 (99.0564)

Nlocal:    4.2 ave 70 max 0 min
Histogram: 36 2 0 0 0 0 0 0 1 1
Nghost:    0.575 ave 8 max 0 min
Histogram: 35 0 1 1 0 0 2 0 0 1
Neighs:    0.075 ave 3 max 0 min
Histogram: 39 0 0 0 0 0 0 0 0 1

Total # of neighbors = 3
Ave neighs/atom = 0.0178571
Neighbor list builds = 14595
Dangerous builds = 0
write_dump all custom dump.atom_info_ac_* id type x y z radius vx vy vz density #
run 205761
Setting up run at Fri Jan  6 07:07:23 2023

Memory usage per processor = 960.195 Mbytes
    Step    Atoms         KinEng            CPU 
31687226      168     0.12490531              0 
31892987      168     0.11816176       2070.509 
Loop time of 2070.51 on 40 procs for 205761 steps with 168 atoms, finish time Fri Jan  6 07:41:53 2023


Pair  time (%) = 0.395231 (0.0190886)
Neigh time (%) = 10.3504 (0.499897)
Comm  time (%) = 7.68705 (0.371263)
Outpt time (%) = 0.000465578 (2.24862e-05)
Other time (%) = 2052.08 (99.1097)

Nlocal:    4.2 ave 72 max 0 min
Histogram: 37 1 0 0 0 0 0 1 0 1
Nghost:    0.5 ave 5 max 0 min
Histogram: 35 0 1 0 0 0 0 0 1 3
Neighs:    0.125 ave 5 max 0 min
Histogram: 39 0 0 0 0 0 0 0 0 1

Total # of neighbors = 5
Ave neighs/atom = 0.0297619
Neighbor list builds = 12397
Dangerous builds = 0
write_dump all custom dump.atom_info_ac_* id type x y z radius vx vy vz density #
run 205761
Setting up run at Fri Jan  6 07:41:54 2023

Memory usage per processor = 960.195 Mbytes
    Step    Atoms         KinEng            CPU 
31892987      168     0.11816176              0 
32098748      164     0.13112032      2062.1365 
Loop time of 2062.14 on 40 procs for 205761 steps with 164 atoms, finish time Fri Jan  6 08:16:16 2023


Pair  time (%) = 0.396187 (0.0192125)
Neigh time (%) = 9.63128 (0.467053)
Comm  time (%) = 6.23341 (0.302279)
Outpt time (%) = 0.000211161 (1.02399e-05)
Other time (%) = 2045.88 (99.2114)

Nlocal:    4.1 ave 74 max 0 min
Histogram: 37 1 0 0 0 0 0 1 0 1
Nghost:    0.575 ave 8 max 0 min
Histogram: 35 1 0 0 0 2 0 1 0 1
Neighs:    0.075 ave 3 max 0 min
Histogram: 39 0 0 0 0 0 0 0 0 1

Total # of neighbors = 3
Ave neighs/atom = 0.0182927
Neighbor list builds = 11551
Dangerous builds = 2
write_dump all custom dump.atom_info_ac_* id type x y z radius vx vy vz density #
run 205761
Setting up run at Fri Jan  6 08:16:16 2023

Memory usage per processor = 960.195 Mbytes
    Step    Atoms         KinEng            CPU 
32098748      164     0.13112032              0 
32304509      163      0.1784872       2050.634 
Loop time of 2050.63 on 40 procs for 205761 steps with 163 atoms, finish time Fri Jan  6 08:50:26 2023


Pair  time (%) = 0.39064 (0.0190497)
Neigh time (%) = 8.87396 (0.432742)
Comm  time (%) = 5.38231 (0.262471)
Outpt time (%) = 0.000569285 (2.77614e-05)
Other time (%) = 2035.99 (99.2857)

Nlocal:    4.075 ave 73 max 0 min
Histogram: 37 1 0 0 0 0 0 1 0 1
Nghost:    0.6 ave 9 max 0 min
Histogram: 35 1 0 1 0 1 1 0 0 1
Neighs:    0.125 ave 5 max 0 min
Histogram: 39 0 0 0 0 0 0 0 0 1

Total # of neighbors = 5
Ave neighs/atom = 0.0306748
Neighbor list builds = 10624
Dangerous builds = 22
write_dump all custom dump.atom_info_ac_* id type x y z radius vx vy vz density #
run 205761
Setting up run at Fri Jan  6 08:50:26 2023

Memory usage per processor = 960.195 Mbytes
    Step    Atoms         KinEng            CPU 
32304509      163      0.1784872              0 
32510270      161     0.19291556      2054.0442 
Loop time of 2054.04 on 40 procs for 205761 steps with 161 atoms, finish time Fri Jan  6 09:24:41 2023


Pair  time (%) = 0.38977 (0.0189757)
Neigh time (%) = 8.83265 (0.430012)
Comm  time (%) = 4.74094 (0.23081)
Outpt time (%) = 0.000239066 (1.16388e-05)
Other time (%) = 2040.08 (99.3202)

Nlocal:    4.025 ave 75 max 0 min
Histogram: 37 1 0 0 0 0 1 0 0 1
Nghost:    0.575 ave 7 max 0 min
Histogram: 35 1 0 0 0 1 0 1 1 1
Neighs:    0.1 ave 4 max 0 min
Histogram: 39 0 0 0 0 0 0 0 0 1

Total # of neighbors = 4
Ave neighs/atom = 0.0248447
Neighbor list builds = 10594
Dangerous builds = 0
write_dump all custom dump.atom_info_ac_* id type x y z radius vx vy vz density #
run 205761
Setting up run at Fri Jan  6 09:24:41 2023

Memory usage per processor = 960.195 Mbytes
    Step    Atoms         KinEng            CPU 
32510270      161     0.19291556              0 
32716031      161     0.19677085      2044.4134 
Loop time of 2044.41 on 40 procs for 205761 steps with 161 atoms, finish time Fri Jan  6 09:58:45 2023


Pair  time (%) = 0.387646 (0.0189612)
Neigh time (%) = 8.29912 (0.405941)
Comm  time (%) = 5.19634 (0.254173)
Outpt time (%) = 0.000536526 (2.62435e-05)
Other time (%) = 2030.53 (99.3209)

Nlocal:    4.025 ave 75 max 0 min
Histogram: 36 2 0 0 0 0 1 0 0 1
Nghost:    0.6 ave 9 max 0 min
Histogram: 35 1 0 0 1 2 0 0 0 1
Neighs:    0.075 ave 2 max 0 min
Histogram: 38 0 0 0 0 1 0 0 0 1

Total # of neighbors = 3
Ave neighs/atom = 0.0186335
Neighbor list builds = 9936
Dangerous builds = 0
write_dump all custom dump.atom_info_ac_* id type x y z radius vx vy vz density #
run 205761
Setting up run at Fri Jan  6 09:58:45 2023

Memory usage per processor = 960.195 Mbytes
    Step    Atoms         KinEng            CPU 
32716031      161     0.19677085              0 
32921792      160     0.14896579      2050.9758 
Loop time of 2050.98 on 40 procs for 205761 steps with 160 atoms, finish time Fri Jan  6 10:32:56 2023


Pair  time (%) = 0.388488 (0.0189416)
Neigh time (%) = 8.33981 (0.406626)
Comm  time (%) = 5.40956 (0.263755)
Outpt time (%) = 0.000261636 (1.27567e-05)
Other time (%) = 2036.84 (99.3107)

Nlocal:    4 ave 72 max 0 min
Histogram: 36 2 0 0 0 0 0 1 0 1
Nghost:    0.7 ave 9 max 0 min
Histogram: 33 3 0 0 0 2 1 0 0 1
Neighs:    0.075 ave 3 max 0 min
Histogram: 39 0 0 0 0 0 0 0 0 1

Total # of neighbors = 3
Ave neighs/atom = 0.01875
Neighbor list builds = 10004
Dangerous builds = 0
write_dump all custom dump.atom_info_ac_* id type x y z radius vx vy vz density #
run 205761
Setting up run at Fri Jan  6 10:32:56 2023

Memory usage per processor = 960.195 Mbytes
    Step    Atoms         KinEng            CPU 
32921792      160     0.14896579              0 
33127553      158     0.14484729      2052.4479 
Loop time of 2052.45 on 40 procs for 205761 steps with 158 atoms, finish time Fri Jan  6 11:07:09 2023


Pair  time (%) = 0.392802 (0.0191382)
Neigh time (%) = 9.1565 (0.446126)
Comm  time (%) = 7.4246 (0.361744)
Outpt time (%) = 0.000504372 (2.45742e-05)
Other time (%) = 2035.47 (99.173)

Nlocal:    3.95 ave 72 max 0 min
Histogram: 38 0 0 0 0 0 0 1 0 1
Nghost:    0.65 ave 7 max 0 min
Histogram: 35 1 0 0 0 0 0 1 1 2
Neighs:    0.1 ave 4 max 0 min
Histogram: 39 0 0 0 0 0 0 0 0 1

Total # of neighbors = 4
Ave neighs/atom = 0.0253165
Neighbor list builds = 11002
Dangerous builds = 1
write_dump all custom dump.atom_info_ac_* id type x y z radius vx vy vz density #
run 205761
Setting up run at Fri Jan  6 11:07:09 2023

Memory usage per processor = 960.195 Mbytes
    Step    Atoms         KinEng            CPU 
33127553      158     0.14484729              0 
33333314      158     0.14422547      2057.5265 
Loop time of 2057.53 on 40 procs for 205761 steps with 158 atoms, finish time Fri Jan  6 11:41:26 2023


Pair  time (%) = 0.389053 (0.0189088)
Neigh time (%) = 8.16451 (0.396812)
Comm  time (%) = 6.95902 (0.338222)
Outpt time (%) = 0.00019797 (9.62174e-06)
Other time (%) = 2042.01 (99.246)

Nlocal:    3.95 ave 70 max 0 min
Histogram: 37 1 0 0 0 0 0 1 0 1
Nghost:    0.7 ave 10 max 0 min
Histogram: 34 1 1 0 2 0 0 1 0 1
Neighs:    0.15 ave 5 max 0 min
Histogram: 38 0 1 0 0 0 0 0 0 1

Total # of neighbors = 6
Ave neighs/atom = 0.0379747
Neighbor list builds = 9798
Dangerous builds = 0
write_dump all custom dump.atom_info_ac_* id type x y z radius vx vy vz density #
run 205761
Setting up run at Fri Jan  6 11:41:26 2023

Memory usage per processor = 960.195 Mbytes
    Step    Atoms         KinEng            CPU 
33333314      158     0.14422547              0 
33539075      156     0.15865884      2050.5874 
Loop time of 2050.59 on 40 procs for 205761 steps with 156 atoms, finish time Fri Jan  6 12:15:37 2023


Pair  time (%) = 0.388724 (0.0189567)
Neigh time (%) = 8.46264 (0.412694)
Comm  time (%) = 8.53803 (0.41637)
Outpt time (%) = 0.000760118 (3.70683e-05)
Other time (%) = 2033.2 (99.1519)

Nlocal:    3.9 ave 69 max 0 min
Histogram: 37 1 0 0 0 0 0 1 0 1
Nghost:    0.725 ave 11 max 0 min
Histogram: 35 1 0 1 1 1 0 0 0 1
Neighs:    0.15 ave 5 max 0 min
Histogram: 38 0 1 0 0 0 0 0 0 1

Total # of neighbors = 6
Ave neighs/atom = 0.0384615
Neighbor list builds = 10160
Dangerous builds = 1
write_dump all custom dump.atom_info_ac_* id type x y z radius vx vy vz density #
run 205761
Setting up run at Fri Jan  6 12:15:37 2023

Memory usage per processor = 960.195 Mbytes
    Step    Atoms         KinEng            CPU 
33539075      156     0.15865884              0 
33744836      154     0.11913128      2109.3362 
Loop time of 2109.34 on 40 procs for 205761 steps with 154 atoms, finish time Fri Jan  6 12:50:46 2023


Pair  time (%) = 0.385904 (0.018295)
Neigh time (%) = 7.8879 (0.373952)
Comm  time (%) = 7.52798 (0.356889)
Outpt time (%) = 0.000528159 (2.50391e-05)
Other time (%) = 2093.53 (99.2508)

Nlocal:    3.85 ave 71 max 0 min
Histogram: 37 1 0 0 0 0 0 1 0 1
Nghost:    0.725 ave 9 max 0 min
Histogram: 33 1 1 2 1 0 0 1 0 1
Neighs:    0.1 ave 4 max 0 min
Histogram: 39 0 0 0 0 0 0 0 0 1

Total # of neighbors = 4
Ave neighs/atom = 0.025974
Neighbor list builds = 9460
Dangerous builds = 0
write_dump all custom dump.atom_info_ac_* id type x y z radius vx vy vz density #
run 205761
Setting up run at Fri Jan  6 12:50:46 2023

Memory usage per processor = 960.195 Mbytes
    Step    Atoms         KinEng            CPU 
33744836      154     0.11913128              0 
WARNING: Forced restart written (../output.cpp:427)
33802114      153     0.11089891      573.51119 
Loop time of 573.511 on 40 procs for 205761 steps with 153 atoms, finish time Fri Jan  6 13:00:20 2023


Pair  time (%) = 0.107629 (0.0187666)
Neigh time (%) = 2.17672 (0.379543)
Comm  time (%) = 2.07665 (0.362094)
Outpt time (%) = 0.100563 (0.0175346)
Other time (%) = 569.05 (99.2221)

Nlocal:    3.825 ave 70 max 0 min
Histogram: 36 2 0 0 0 0 0 1 0 1
Nghost:    0.725 ave 9 max 0 min
Histogram: 33 1 2 1 1 0 0 0 1 1
Neighs:    0.1 ave 4 max 0 min
Histogram: 39 0 0 0 0 0 0 0 0 1

Total # of neighbors = 4
Ave neighs/atom = 0.0261438
Neighbor list builds = 2613
Dangerous builds = 1
