ITEM: TIMESTEP
35493813
ITEM: NUMBER OF ATOMS
860
ITEM: BOX BOUNDS ff ff ff
-0.15 0.15
-0.15 0.15
-0.15 0.15
ITEM: ATOMS id type x y z radius vx vy vz density 
3440 1 -0.0647455 -0.132558 -0.0228323 0.000423 -88.1281 -20.4564 249.819 2650 
3238 1 -0.00864287 -0.0552386 -0.0680302 0.000423 -16.7349 -3.80405 2.12527 2650 
1471 1 -0.00752778 -0.0519845 -0.0681626 0.000423 -14.7047 -1.77381 1.62397 2650 
2759 1 -0.00848455 -0.0374904 -0.0678204 0.000656 -39.8475 0.459344 4.94927 2650 
3871 1 -0.00877788 -0.0351929 -0.0680141 0.000423 -36.6908 3.22559 4.77065 2650 
3237 1 -0.0011608 -0.028608 -0.0685672 0.000423 -16.6374 2.845 0.281671 2650 
619 1 -0.00951208 -0.0152661 -0.0682241 0.000116 -23.8903 -3.43922 3.33089 2650 
730 1 -0.00605092 -0.00387362 -0.0686177 0.000116 -8.63862 -0.857755 0.761809 2650 
4060 1 -0.00704929 -0.00092451 -0.0679796 0.000656 -20.792 -0.285 2.15599 2650 
2863 1 -0.0121764 -0.0581125 -0.0671562 0.000656 -17.7496 -7.30589 3.13847 2650 
3635 1 -0.00965015 -0.0575389 -0.0677294 0.000423 -11.8573 -3.11737 1.74156 2650 
54 1 -0.0115683 -0.0361223 -0.0675943 0.000423 -22.0487 1.83751 3.77347 2650 
2766 1 -0.0104055 -0.0120393 -0.067783 0.000423 -18.2467 -0.138342 2.80109 2650 
2786 1 -0.0116172 -0.00661405 -0.0675859 0.000423 -25.6383 1.29897 4.40683 2650 
3644 1 -0.0148901 -0.0618284 -0.0669411 0.000423 -16.345 1.12436 3.53335 2650 
2005 1 -0.0171797 -0.0566015 -0.0663903 0.000423 -19.1789 -2.29683 4.96167 2650 
671 1 -0.0138434 -0.0517011 -0.0669279 0.000656 -18.1142 -1.2742 3.79298 2650 
2985 1 -0.0155226 -0.0496027 -0.066797 0.000423 -14.1746 2.30161 3.43599 2650 
26 1 -0.0152752 -0.0190516 -0.0666884 0.000423 -9.12231 1.51511 2.48659 2650 
4170 1 -0.0187684 -0.0555204 -0.0657165 0.000656 -17.2156 -1.42173 4.92071 2650 
3662 1 -0.0179948 -0.0541476 -0.066174 0.000423 -18.8404 -0.659334 5.12327 2650 
4206 1 -0.0205647 -0.00178217 -0.0654186 0.000423 -18.1886 -2.39052 6.00531 2650 
2374 1 -0.0230746 -0.0279702 -0.0649009 0.000116 1.384 6.05366 -0.575659 2650 
2224 1 -0.0237545 -0.0547612 -0.0643316 0.000423 -24.5609 -1.91981 9.07145 2650 
2879 1 -0.0237841 -0.0288881 -0.0643206 0.000423 -22.3899 1.99644 8.27893 2650 
2561 1 -0.0232607 -0.00695335 -0.0645116 0.000423 -18.4693 -1.55846 6.65929 2650 
3741 1 -0.0266843 -0.0132855 -0.0631726 0.000423 -22.3118 0.958688 9.42408 2650 
3521 1 -0.0275013 -0.0107232 -0.0625692 0.000656 -25.402 1.24502 11.1607 2650 
579 1 -0.0299257 -0.0386281 -0.0617052 0.000423 -33.2142 -14.2722 16.1036 2650 
701 1 -0.030341 -0.0208887 -0.0615004 0.000423 -24.3211 2.85528 11.9969 2650 
4068 1 -0.0312515 -0.0513291 -0.0610425 0.000423 -20.288 3.30058 10.3859 2650 
36 1 -0.0335902 -0.0603398 -0.0597875 0.000423 -19.7592 -1.53976 11.1 2650 
2998 1 -0.0323558 -0.0529501 -0.0604645 0.000423 -21.3261 -4.32382 11.4106 2650 
1684 1 -0.0328648 -0.0502015 -0.0601891 0.000423 -17.1674 3.6256 9.3734 2650 
3239 1 -0.0219445 -0.0083068 -0.06026 0.000116 -20.0119 19.4594 -0.331402 2650 
3302 1 -0.034075 -0.0252995 -0.0592447 0.000656 -16.8287 1.16182 9.67615 2650 
3104 1 -0.0350792 -0.0210836 -0.0587187 0.000423 -6.42424 3.15268 4.05699 2650 
4300 1 -0.0385104 -0.0441892 -0.0567436 0.000423 -17.541 -1.41987 11.9019 2650 
2668 1 -0.0391452 -0.0617552 -0.056307 0.000423 -11.2906 0.269366 7.84906 2650 
3079 1 -0.00636088 -0.00247467 -0.0564942 0.000656 -8.75981 -9.268 -17.6973 2650 
484 1 -0.0416287 -0.0551934 -0.054497 0.000423 -12.7077 1.5006 9.70467 2650 
2553 1 -0.0418423 -0.00202313 -0.0543337 0.000423 -15.2449 -1.01658 11.7363 2650 
485 1 -0.0426516 -0.0547636 -0.0537022 0.000423 -19.7355 -4.46897 15.6685 2650 
2201 1 -0.0428323 -0.0389098 -0.0532684 0.000656 -27.2323 4.68548 21.8914 2650 
235 1 -0.0434794 -0.0333116 -0.0530389 0.000423 -33.4569 -10.5321 27.4176 2650 
2335 1 -0.0433464 -0.0550687 -0.0531099 0.000423 -25.3744 11.7025 20.4662 2650 
355 1 -0.0435424 -0.00640196 -0.0529815 0.000423 -15.0897 -2.84404 12.3966 2650 
3624 1 -0.0428598 -0.00425394 -0.0532408 0.000656 -18.4171 0.120667 14.8177 2650 
3234 1 -0.0461465 -0.0299903 -0.0507378 0.000423 -36.0442 -1.88375 32.7719 2650 
3890 1 -0.0461312 -0.0226935 -0.0507443 0.000423 -14.2365 -0.779339 12.9369 2650 
3110 1 -0.0465206 -0.0269762 -0.0501886 0.000423 -9.08077 0.7978 7.40238 2650 
1121 1 -0.0491037 -0.0530087 -0.0478778 0.000423 -21.8814 -13.8432 22.4327 2650 
1451 1 -0.0493516 -0.0272833 -0.0476205 0.000423 -16.4618 8.86887 17.0533 2650 
2143 1 -0.0502426 -0.0579939 -0.0466798 0.000423 -16.0087 -1.92478 17.2235 2650 
3108 1 -0.050295 -0.0307495 -0.0466234 0.000423 -16.0331 4.90647 17.2887 2650 
3869 1 -0.0515192 -0.0317363 -0.045267 0.000423 -14.0017 -0.624587 15.929 2650 
1196 1 -0.0519665 -0.0159884 -0.0452171 0.000116 -14.9576 -2.27649 17.188 2650 
1290 1 -0.0526787 -0.00241618 -0.044386 0.000116 -26.4022 16.5551 31.3313 2650 
2481 1 -0.0529017 -0.0508277 -0.0441194 0.000116 -13.8655 1.11486 16.6234 2650 
3405 1 -0.0526716 -0.0372858 -0.0435647 0.000656 -16.2546 -4.02672 19.6413 2650 
3103 1 -0.0539653 -0.0393163 -0.0423217 0.000423 -11.0734 -3.08256 14.1139 2650 
2211 1 -0.0538059 -0.0175803 -0.0421585 0.000656 -18.0276 -0.607634 22.9983 2650 
2993 1 -0.0537943 -0.000705592 -0.0425394 0.000423 -12.9233 -1.17051 16.3345 2650 
3129 1 -0.0541996 -0.0313669 -0.0420217 0.000423 -11.9233 -1.01342 15.3723 2650 
2346 1 -0.0546642 -0.0175545 -0.0414178 0.000423 -17.4542 -0.696584 23.0287 2650 
3993 1 -0.0552853 -0.0256064 -0.0405845 0.000423 -14.9808 0.211568 20.3993 2650 
2566 1 -0.055559 -0.051209 -0.0402081 0.000423 -11.9038 -0.281502 16.4418 2650 
3347 1 -0.0560778 -0.0233003 -0.0394816 0.000423 -11.6379 -1.13377 16.5232 2650 
1483 1 -0.0559436 -0.0101253 -0.0396712 0.000423 -10.8582 -2.51207 15.3057 2650 
2751 1 -0.0559828 -0.00745621 -0.0392165 0.000656 -8.57824 0.237467 12.238 2650 
467 1 -0.0528983 -0.0235148 -0.0389528 0.000423 -4.35664 6.82804 9.38067 2650 
1569 1 -0.0563804 -0.0217176 -0.039048 0.000423 -10.2205 -1.9498 14.751 2650 
1655 1 -0.0562348 -0.0056721 -0.0388556 0.000656 -10.118 1.57549 14.6348 2650 
538 1 -0.0568247 -0.0108217 -0.0371225 0.000116 -12.9429 -1.86699 13.9692 2650 
1779 1 -0.0579988 -0.0292956 -0.0366024 0.000423 -10.5743 1.4296 16.7487 2650 
1460 1 -0.0583938 -0.024587 -0.035969 0.000423 -9.895 -3.07838 16.0576 2650 
4050 1 -0.058498 -0.0122684 -0.0365098 4.2e-05 -8.94024 -10.6461 14.3566 2650 
17 1 -0.0589456 -0.0301318 -0.0350582 0.000423 -10.7382 -0.462183 18.0479 2650 
1334 1 -0.0588998 -0.0258944 -0.0351365 0.000423 -14.0313 1.12807 23.5104 2650 
2121 1 -0.0588462 -0.0130965 -0.0352241 0.000423 -9.33295 -1.8187 15.5856 2650 
4 1 -0.0323946 -0.00719983 -0.0360807 0.000656 -4.83306 -0.36054 -5.29241 2650 
2574 1 -0.0593237 -0.0360577 -0.0344156 0.000423 -12.1677 -2.44495 20.966 2650 
1702 1 -0.0590312 -0.0267173 -0.0349137 0.000423 -9.868 -3.32551 16.6795 2650 
2908 1 -0.0592992 -0.0216291 -0.034458 0.000423 -12.5432 1.34119 21.5776 2650 
2244 1 -0.0595056 -0.0387457 -0.0340997 0.000423 -10.9854 -0.0418538 19.1626 2650 
228 1 -0.0596591 -0.0323266 -0.0333681 0.000656 -12.6873 -1.46027 22.6713 2650 
1030 1 -0.0597188 -0.0104784 -0.0337275 0.000423 -15.2169 2.41203 26.9333 2650 
3666 1 -0.0596895 -0.00762505 -0.0337788 0.000423 -12.483 -0.491344 20.8683 2650 
1104 1 -0.0591919 -0.00646831 -0.0341881 0.000656 -10.868 -0.00936976 19.0779 2650 
4065 1 -0.0597212 -0.0621442 -0.0332491 0.000656 -3.57333 -1.81769e-06 6.41424 2650 
2029 1 -0.0604472 -0.0328114 -0.032402 0.000423 -10.6438 -2.10774 19.8488 2650 
454 1 -0.0606727 -0.00698965 -0.03198 0.000423 -14.059 7.96328 26.6636 2650 
472 1 -0.060852 -0.0212775 -0.031635 0.000423 -9.28703 -1.46708 17.8573 2650 
2664 1 -0.0608904 -0.00450359 -0.0315619 0.000423 -10.6909 -0.972031 20.6175 2650 
3772 1 -0.0614722 -0.0429126 -0.0304125 0.000423 -8.41039 -5.19911 16.9932 2650 
2904 1 -0.0612567 -0.0337401 -0.0308374 0.000423 -8.01078 -2.67981 15.6514 2650 
337 1 -0.0612682 -0.0504097 -0.0303096 0.000656 -7.76982 0.235192 15.6968 2650 
4064 1 -0.0611524 -0.0309362 -0.0305393 0.000656 -4.18658 -1.44259 8.37818 2650 
882 1 -0.0613345 -0.00117845 -0.0301771 0.000656 -9.36103 -0.384507 19.0153 2650 
3128 1 -0.0615419 -0.0331338 -0.0302754 0.000423 -7.275 0.642726 15.1687 2650 
761 1 -0.0625376 -0.0102606 -0.0290576 4.2e-05 -11.4284 -1.83646 24.5951 2650 
3112 1 -0.0623474 -0.00792055 -0.0285831 0.000423 -16.7926 9.07971 36.6177 2650 
1587 1 -0.00336694 -0.0543772 -0.0288766 0.000423 -3.7111 2.53728e-06 0.436038 2650 
2692 1 -0.0623143 -0.00611695 -0.0286489 0.000423 -9.31101 -3.43064 20.2447 2650 
700 1 -0.00903684 -0.0563888 -0.0282003 0.000423 -8.34918 -0.158547 2.72418 2650 
2562 1 -0.0626538 -0.0359349 -0.0278984 0.000423 -8.04848 -7.53272 18.0681 2650 
3427 1 -0.0111486 -0.056541 -0.027454 0.000423 -8.67022 -0.569933 3.3898 2650 
711 1 -0.0632563 -0.0489021 -0.0265047 0.000423 -7.96542 -0.840228 19.0031 2650 
2884 1 -0.0636705 -0.0545983 -0.0254954 0.000423 -9.33857 1.48367 23.313 2650 
4082 1 -0.0360922 -0.048184 -0.0263963 0.000423 -21.4568 0.535565 -0.0450349 2650 
4061 1 -0.0630981 -0.0241582 -0.0262937 0.000656 -8.42165 -2.73451 20.1985 2650 
377 1 -0.0634362 -0.021869 -0.0259926 0.000423 -9.60243 -1.27875 22.0919 2650 
2987 1 -0.0634714 -0.01266 -0.0259873 0.000423 -9.89929 0.229976 24.1691 2650 
2536 1 -0.0630518 -0.00712285 -0.0264016 0.000656 -6.59814 -2.76017 15.7488 2650 
1461 1 -0.0637306 -0.0137096 -0.0253439 0.000423 -8.23274 -2.04965 20.6946 2650 
1434 1 -0.0635339 -0.00267157 -0.0252221 0.000656 -7.47426 0.215337 18.8161 2650 
2004 1 -0.0168814 -0.0570447 -0.0243903 0.000423 -6.89807 -0.797467 4.73225 2650 
3535 1 -0.0640562 -0.0102856 -0.0245073 0.000423 -4.64452 7.09338 12.135 2650 
3037 1 -0.0647477 -0.0538555 -0.0235163 0.000116 -7.85682 3.79981 21.6299 2650 
122 1 -0.0642585 -0.00179814 -0.0233162 0.000656 -7.3593 -0.226995 20.2706 2650 
1115 1 -0.0645668 -0.0398596 -0.0231309 0.000423 -6.64044 -10.3286 18.5286 2650 
4298 1 -0.0648768 -0.023132 -0.0222501 0.000423 -9.3547 -3.05679 27.2666 2650 
3083 1 -0.0642816 -0.0103975 -0.0232477 0.000656 -4.66019 7.06597 12.8779 2650 
2666 1 -0.0650592 -0.0422811 -0.0217075 0.000423 -5.68459 0.0247997 17.0309 2650 
155 1 -0.0650329 -0.0316374 -0.0217862 0.000423 -5.76897 -4.85081 17.214 2650 
373 1 -0.0654263 -0.0451032 -0.0205773 0.000423 -7.3613 1.25951 23.397 2650 
3094 1 -0.0656058 -0.0357198 -0.019997 0.000423 -6.7129 -3.56515 22.0155 2650 
1790 1 -0.065509 -0.0112325 -0.0203117 0.000423 -6.58889 -0.371911 21.2426 2650 
1217 1 -0.0654338 -0.0328212 -0.0197871 0.000656 -8.09113 -0.152652 26.7422 2650 
3097 1 -0.0657331 -0.000867962 -0.0195753 0.000423 -6.82261 1.09162 22.9017 2650 
3770 1 -0.0658776 -0.0347896 -0.019083 0.000423 -6.44971 -2.02406 22.2572 2650 
1766 1 -0.0657651 -0.0224682 -0.0186534 0.000656 -6.63792 -2.36392 23.3901 2650 
1690 1 -0.0658882 -0.0205795 -0.0190451 0.000423 -5.40657 -0.261232 18.6976 2650 
4299 1 -0.0233403 -0.0585113 -0.0184491 0.000423 -5.26177 0.678528 6.65604 2650 
3823 1 -0.0665498 -0.0275739 -0.0177883 0.000116 -5.4956 3.31378 20.558 2650 
348 1 -0.0644949 -0.0409298 -0.017385 0.000423 -12.3253 5.6761 23.9795 2650 
3771 1 -0.0664509 -0.0275435 -0.0169789 0.000423 -4.96655 -1.14414 19.4305 2650 
1139 1 -0.0664189 -0.0106607 -0.0171061 0.000423 -6.36397 -0.79579 24.7008 2650 
811 1 -0.0666259 -0.010671 -0.0162815 0.000423 -6.05943 -0.84165 24.787 2650 
4235 1 -0.0672471 -0.0453102 -0.0149383 0.000116 -7.77084 9.57495 34.978 2650 
384 1 -0.0211508 -0.0282053 -0.0163775 0.000423 -4.17559 20.1835 -7.65508 2650 
1215 1 -0.066582 -0.00861365 -0.0154915 0.000656 -6.13042 -0.0963199 26.3343 2650 
2117 1 -0.0672006 -0.0239229 -0.0137465 0.000423 -11.9793 5.19474 58.5501 2650 
3830 1 -0.006879 -0.00181449 -0.015411 4.2e-05 0 -0.01175 0 2650 
1450 1 -0.0672054 -0.0129888 -0.0136964 0.000423 -5.58221 -4.44258 27.3811 2650 
991 1 -0.066953 -0.00553876 -0.0137832 0.000656 -1.45266 1.56631 7.05238 2650 
376 1 -0.0568544 -0.0430793 -0.0110413 0.000423 -19.4937 -2.63167 79.3427 2650 
15 1 -0.0674539 -0.0316152 -0.0124132 0.000423 -4.39722 -3.42966 23.8861 2650 
1457 1 -0.00965539 -0.00169755 -0.012953 0.000423 -0.0142514 -0.0148001 -0.00669017 2650 
3188 1 -0.0672951 -0.0575221 -0.0120177 0.000656 -4.0028 1.63994 22.4022 2650 
3774 1 -0.0677483 -0.0254012 -0.0106909 0.000423 -3.70057 5.41878 23.4421 2650 
2261 1 -0.007381 -0.00171049 -0.010514 0.000116 0 -0.01175 0 2650 
3646 1 -0.0677777 -0.000937626 -0.0104969 0.000423 -2.03261 -0.798473 13.1192 2650 
2025 1 -0.00306905 -0.00148121 -0.0106352 0.000423 0.000653102 -0.00716485 -0.00365727 2650 
2246 1 -0.0680008 -0.0272334 -0.00894437 0.000423 -2.81935 1.58195 21.4267 2650 
3303 1 -0.0677878 -0.00997538 -0.00883932 0.000656 -3.78057 1.01255 28.9776 2650 
2446 1 -0.067842 -0.00689766 -0.00948691 0.000423 -1.65236 -5.40217 9.81316 2650 
2973 1 -0.0678191 -0.0120548 -0.00859249 0.000656 -3.43033 -0.871421 27.064 2650 
2758 1 -0.0678094 -0.00411795 -0.00863737 0.000656 -1.24231 1.34818 9.39901 2650 
824 1 -0.0681498 -0.0606369 -0.00772275 0.000423 -1.62806 0.820308 14.3615 2650 
2748 1 -0.0679772 -0.0404834 -0.0072378 0.000656 -2.93182 3.35707 27.5231 2650 
1689 1 -0.0681495 -0.0022278 -0.00772763 0.000423 -2.05372 -1.38605 18.1044 2650 
2539 1 -0.0680272 -0.0136496 -0.00675868 0.000656 -2.98414 -0.111898 30.02 2650 
2678 1 -0.0682716 -0.00890493 -0.00657285 0.000423 -2.66983 -3.96804 27.7215 2650 
1370 1 -0.00386126 -0.000351329 -0.00728489 0.000423 -0.0140623 -0.0135089 -0.00380837 2650 
3557 1 -0.0683185 -0.0118506 -0.00606751 0.000423 -2.56471 2.6043 28.8702 2650 
872 1 -0.0155563 -0.0032267 -0.00645127 4.2e-05 -0.0214632 -0.000609302 0.0313868 2650 
4062 1 -0.0682071 -0.0537888 -0.00458977 0.000656 -1.81607 2.54243 26.9795 2650 
2750 1 -0.068213 -0.0418991 -0.00453049 0.000656 -2.22799 4.99294 33.5378 2650 
562 1 -0.0682083 -0.0242304 -0.00454554 0.000656 -1.31866 3.70803 19.7761 2650 
2797 1 -0.00317655 -0.000867026 -0.00552016 0.000423 0.00938327 -0.00121135 0.0162106 2650 
923 1 -0.0684923 -0.0461643 -0.00359934 0.000423 -1.2126 1.58259 23.0663 2650 
2757 1 -0.0682567 -0.0447144 -0.00376174 0.000656 -1.23707 1.95226 22.4342 2650 
586 1 -0.0684844 -0.0405929 -0.00377298 0.000423 -1.93492 5.6005 35.0873 2650 
3520 1 -0.0683589 -0.0504334 -0.000939779 0.000656 -0.544706 -0.726029 39.6803 2650 
2145 1 -0.0685711 -0.0219426 -0.0014662 0.000423 -0.485959 4.53799 22.7189 2650 
3189 1 -0.0683649 -0.0530763 0.00016162 0.000656 0.0935007 -3.18107 39.1356 2650 
423 1 -0.0688836 -0.0491223 -0.000630384 0.000116 -0.276251 6.33694 30.1834 2650 
4063 1 -0.0683603 -0.0479797 0.000611017 0.000656 0.352692 2.8199 35.7944 2650 
4042 1 -0.0688857 -0.0260362 0.000314849 0.000116 0.101607 2.03726 22.2264 2650 
592 1 -0.0685823 -0.0546318 0.000958203 0.000423 0.371013 -5.04833 31.2973 2650 
1111 1 -0.068352 -0.0500277 0.00131345 0.000656 0.628774 -6.96813 32.9385 2650 
2225 1 -0.0685607 -0.0542602 0.00187539 0.000423 0.911957 1.57214 33.1293 2650 
4130 1 -0.003058 -0.00314849 0.001127 0.000116 0 -0.01175 0 2650 
4177 1 -0.0685319 -0.0319389 0.00275608 0.000423 1.11888 7.72511 27.8783 2650 
3973 1 -0.0685365 -0.00746007 0.00264015 0.000423 1.06995 2.10127 27.767 2650 
1212 1 -0.0682896 -0.0526771 0.00311568 0.000656 1.09418 1.52209 23.97 2650 
3309 1 -0.0684942 -0.0375943 0.00356625 0.000423 1.27703 3.53607 24.5184 2650 
385 1 -0.0684066 -0.0547336 0.00499315 0.000423 2.71834 15.9497 37.2239 2650 
580 1 -0.0683746 -0.0606465 0.00538797 0.000423 1.55176 5.78459 19.5333 2650 
3805 1 -0.0138299 -0.00207425 0.00524458 0.000116 0.0510512 -0.00623744 0.0234063 2650 
2079 1 -0.000281 -0.00154849 0.005134 4.2e-05 0 -0.01175 0 2650 
4058 1 -0.0680118 -0.0398773 0.0068997 0.000656 2.56799 -1.19103 25.3 2650 
4104 1 -0.0387952 -0.0380336 0.00557697 0.000423 -3.20635 -0.920678 1.39841 2650 
1032 1 -0.0681806 -0.0623572 0.00740761 0.000423 3.38125 -3.95624 31.297 2650 
573 1 -0.0682257 -0.0565126 0.00702132 0.000423 1.59031 2.03697 15.4473 2650 
3765 1 -0.0681304 -0.0616583 0.00795292 0.000423 3.27099 6.69396 26.4475 2650 
338 1 -0.067866 -0.0474555 0.00819608 0.000656 2.14347 -1.1336 17.7388 2650 
3076 1 -0.0679072 -0.0425071 0.00786049 0.000656 2.87213 -3.48625 24.5708 2650 
1130 1 -0.0680181 -0.0430962 0.00881429 0.000423 3.42507 -1.92458 26.2436 2650 
796 1 -0.067954 -0.0391708 0.00929489 0.000423 3.2956 1.33518 24.0852 2650 
2466 1 -0.0276086 -0.0543772 0.00913853 0.000423 1.16256 2.41104e-06 3.5565 2650 
3332 1 -0.0679335 -0.0462908 0.00944519 0.000423 3.63856 -3.40529 26.1608 2650 
2667 1 -0.0603057 -0.0229509 0.0115691 0.000423 -12.4906 -2.60891 69.1861 2650 
2314 1 -0.0674355 -0.00436588 0.0112051 0.000656 2.67462 -4.78149 15.9499 2650 
1096 1 -0.0647197 -0.0484764 0.0122273 4.2e-05 -16.9647 -14.972 18.3387 2650 
3874 1 -0.0675075 -0.0336982 0.0121189 0.000423 4.44804 1.45171 24.7688 2650 
3072 1 -0.000399789 -0.000933758 0.0117319 4.2e-05 0.0338813 -0.000158982 0.0429591 2650 
913 1 -0.0674105 -0.0462983 0.0126453 0.000423 3.8708 1.01004 20.6271 2650 
1373 1 -0.0674741 -0.0323806 0.0122984 0.000423 2.80015 -3.63524 15.357 2650 
2112 1 -0.0672496 -0.0573998 0.0134737 0.000423 3.94632 2.32645 19.6896 2650 
999 1 -0.0669396 -0.0536527 0.0138677 0.000656 5.66376 2.12793 27.3248 2650 
3932 1 -0.0024306 -0.000568383 0.0132905 0.000116 0.0561766 -0.00988135 0.0105093 2650 
3057 1 -0.005156 -0.000966494 0.013529 0.000116 0 -0.01175 0 2650 
883 1 -0.0246872 -0.0541443 0.0146141 0.000656 1.86026 2.13152e-06 3.18487 2650 
2011 1 -0.0669829 -0.00273486 0.0147408 0.000423 3.73309 0.185229 16.9575 2650 
1773 1 -0.0666149 -0.0390742 0.0163265 0.000423 6.12032 0.817109 24.9631 2650 
3854 1 -0.0666006 -0.0559079 0.0163814 0.000423 4.30269 -1.19539 17.4866 2650 
1871 1 -0.0661274 -0.0192249 0.0173482 0.000656 10.7001 -6.22109 40.7728 2650 
1475 1 -0.066539 -0.00549353 0.0166296 0.000423 4.2236 -2.23392 16.893 2650 
2095 1 -0.0658328 -0.0444219 0.0184129 0.000656 6.39141 -0.808631 22.8393 2650 
4294 1 -0.0582257 -0.0344865 0.0188804 0.000423 -4.79959 7.34965 15.0432 2650 
2554 1 -0.0655755 -0.0504882 0.020098 0.000423 7.69335 1.45177 25.0887 2650 
1578 1 -0.0656693 -0.0492589 0.0197871 0.000423 6.22292 4.55063 20.6494 2650 
1209 1 -0.0661773 -0.00506922 0.0193874 4.2e-05 -2.01215 -2.4417 -6.86803 2650 
3404 1 -0.0655006 -0.00332252 0.0195604 0.000656 6.50294 6.02112 21.7631 2650 
1135 1 -0.0654578 -0.0377398 0.0204745 0.000423 5.11747 2.8291 16.3546 2650 
19 1 -0.0651969 -0.048445 0.0212908 0.000423 5.81748 0.0561456 17.8074 2650 
3622 1 -0.0646723 -0.00937434 0.0221486 0.000656 8.9991 1.51002 26.2645 2650 
3319 1 -0.0631856 -0.0493981 0.0226518 0.000423 5.31344 2.18983 14.2317 2650 
3658 1 -0.0643716 -0.00634787 0.0236691 0.000423 7.24095 4.95345 19.6859 2650 
2442 1 -0.0632248 -0.0418028 0.0265947 0.000423 22.078 -10.7755 52.4678 2650 
1258 1 -0.0633542 -0.0291675 0.0262858 0.000423 22.366 16.8385 53.888 2650 
3530 1 -0.024883 -0.0289204 0.0249981 0.000423 0.24635 -7.11682 -3.85038 2650 
362 1 -0.0638031 -0.00845047 0.0251613 0.000423 8.30068 -1.20278 21.0404 2650 
3135 1 -0.0631701 -0.01477 0.0274738 0.000116 12.4211 -4.40563 28.5566 2650 
992 1 -0.0615348 -0.0343873 -0.0297681 0.000656 -10.2364 1.36511 21.1482 2650 
3426 1 -0.0616981 -0.0384905 -0.0299538 0.000423 -11.6871 -4.70178 24.0639 2650 
3647 1 -0.0586714 -0.060772 0.032747 0.000423 10.5706 -12.2942 29.2723 2650 
1804 1 -0.0588972 -0.0285418 0.0351395 0.000423 10.5893 1.55359 17.7417 2650 
3200 1 -0.0591968 -0.0244155 0.0346322 0.000423 9.50501 4.49513 16.2405 2650 
3753 1 -0.0577832 -0.0388811 0.0362685 0.000423 10.2564 -1.96009 19.1972 2650 
25 1 -0.057625 -0.0377799 0.0371886 0.000423 12.2256 2.46733 18.936 2650 
3202 1 -0.0573004 -0.0184496 0.0376877 0.000423 14.6347 3.08786 22.2423 2650 
2971 1 -0.0564476 -0.0389558 0.0385483 0.000656 12.6094 -0.138914 18.4531 2650 
2578 1 -0.0534212 -0.0617104 0.0430068 0.000423 12.6588 2.06133 15.7177 2650 
912 1 -0.000221122 -0.0459282 0.042217 0.000423 2.87116 0.968678 -5.76583 2650 
2775 1 -0.0521942 -0.0345622 0.0444876 0.000423 14.077 2.29181 16.5088 2650 
400 1 -0.0517646 -0.030692 0.0453178 0.000116 20.7962 -4.71274 23.9449 2650 
266 1 -0.0511732 -0.0307142 0.0456571 0.000423 11.9072 -0.304532 13.3399 2650 
115 1 -0.0501152 -0.0330847 0.0464795 0.000656 14.6773 -2.58529 15.8158 2650 
151 1 -0.0501872 -0.0562588 0.0467364 0.000423 1.72411 0.909991 1.85044 2650 
4178 1 -0.0496712 -0.0479254 0.0472882 0.000423 18.9088 -0.0926744 19.8539 2650 
4073 1 -0.0491273 -0.0286344 0.0478515 0.000423 15.2798 -4.24885 15.6807 2650 
3120 1 -0.0454634 -0.0173031 0.0513432 0.000423 13.851 -3.63856 12.2595 2650 
487 1 -0.0447501 -0.0341575 0.0519697 0.000423 26.6107 3.95551 22.9057 2650 
4075 1 -0.044574 -0.014749 0.0521176 0.000423 16.5881 -0.958162 14.1817 2650 
1563 1 -0.0445015 -0.00751661 0.0521799 0.000423 18.2489 -4.1041 15.5573 2650 
858 1 -0.0424428 -0.0625883 0.052582 0.000116 77.0421 11.121 -1.62948 2650 
52 1 -0.0427414 -0.0573633 0.0536303 0.000423 17.5857 2.30423 14.0098 2650 
3317 1 -0.0424341 -0.0306842 0.0538727 0.000423 13.7579 -1.01619 10.833 2650 
3631 1 -0.0423361 -0.0129495 0.0539509 0.000423 18.7035 0.69536 14.6711 2650 
128 1 -0.0401435 -0.000804431 0.0554188 0.000423 25.6007 -6.72699 16.3295 2650 
3100 1 -0.0398501 -0.0230383 0.0558108 0.000423 14.9535 -0.168084 10.6747 2650 
1539 1 -0.0409296 -0.0186623 0.0554975 4.2e-05 5.79769 -4.44336 4.27582 2650 
2693 1 -0.0374516 -0.0440466 0.0574473 0.000423 11.6688 2.97162 7.60701 2650 
13 1 -0.0368614 -0.0412699 0.0578278 0.000423 14.0223 2.06539 8.93772 2650 
4166 1 -0.0367162 -0.011153 0.0576488 0.000656 22.6036 -7.86785 14.3879 2650 
814 1 -0.0364585 -0.00578859 0.0580853 0.000423 27.873 6.74151 17.4887 2650 
898 1 -0.0356321 -0.0286238 0.0585935 0.000423 17.1335 -2.76915 10.4181 2650 
3223 1 -0.0358612 -0.00341199 0.0584565 0.000423 30.859 -4.53329 18.9247 2650 
3095 1 -0.03493 -0.0417251 0.0590144 0.000423 12.7859 4.31152 7.56772 2650 
47 1 -0.034752 -0.00276181 0.0591196 0.000423 16.8806 1.48226 9.92209 2650 
1418 1 -0.0346016 -0.0441917 0.0595628 0.000116 5.05437 0.758644 2.93611 2650 
2655 1 -0.00698023 -0.0463026 0.0594601 0.000423 50.1268 -17.354 -20.4956 2650 
3687 1 -0.0240653 -0.0383057 0.0608535 0.000116 39.9982 -33.2349 6.52875 2650 
2873 1 -0.031032 -0.0171904 0.0611592 0.000423 42.4353 -0.52629 21.4694 2650 
776 1 -0.0315524 -0.0019158 0.0606317 0.000656 31.5344 -1.96128 16.4035 2650 
2621 1 -0.0290617 -0.0618654 0.0624048 0.000116 10.3512 1.48427 5.15451 2650 
1444 1 -0.0291432 -0.0598372 0.0620764 0.000423 10.4444 0.137871 4.90329 2650 
7 1 -0.0286238 -0.0363612 0.0620627 0.000656 22.0926 -7.23343 10.1854 2650 
1431 1 -0.028806 -0.0293185 0.0619782 0.000656 17.975 4.84985 8.38516 2650 
989 1 -0.025452 -0.00151842 0.0622649 4.2e-05 20.951 13.2739 7.75064 2650 
2009 1 -0.0267653 -0.00406117 0.0631382 0.000423 20.3768 -0.925603 8.63773 2650 
3045 1 -0.0237528 -0.0420328 0.0646592 0.000116 27.3637 -3.37867 10.0521 2650 
1360 1 -0.0240045 -0.0135627 0.0642388 0.000423 25.3333 -8.72737 9.46594 2650 
160 1 -0.0221815 -0.000731324 0.0648906 0.000423 19.949 2.02916 6.81905 2650 
593 1 -0.021278 -0.0347868 0.0651929 0.000423 29.0161 -0.518662 9.46923 2650 
3212 1 -0.0175343 -0.0611398 0.0662981 0.000423 32.3164 1.93315 8.54588 2650 
893 1 -0.00258034 -0.0199923 0.0655755 0.000423 37.9598 1.19448 -0.106268 2650 
3552 1 -0.0148125 -0.0549209 0.0669583 0.000423 26.2374 4.27423 5.80408 2650 
2764 1 -0.0158552 -0.02853 0.0667189 0.000423 17.9725 0.00088519 4.27092 2650 
668 1 -0.0146874 -0.0285119 0.0667473 0.000656 18.2269 -0.675818 4.01064 2650 
2857 1 -0.0127252 -0.0263247 0.067149 0.000656 18.9589 -0.172056 3.59274 2650 
1983 1 -0.0136884 -0.0253203 0.0669593 0.000656 19.1311 0.376091 3.91082 2650 
1342 1 -0.0145776 -0.0221528 0.0670097 0.000423 22.0678 0.568064 4.80068 2650 
1541 1 -0.0113267 -0.0068183 0.067399 0.000656 18.4254 -0.92012 3.09642 2650 
2975 1 -0.00938259 -0.00409628 0.0676969 0.000656 15.5701 -0.0820938 2.15796 2650 
2698 1 -0.00453348 0.0587118 -0.0687347 0.000116 0.0317523 -0.136026 -0.0019933 2650 
627 1 -0.0119412 0.0224126 -0.0678411 0.000116 -10.4596 -2.08654 1.84107 2650 
4315 1 -0.0317916 0.0212225 -0.060837 0.000423 -223.981 3.67431 116.911 2650 
3085 1 -0.0541681 0.0432804 -0.0417329 0.000656 -52.1235 3.76945 67.6284 2650 
1749 1 -0.00178299 0.0195072 -0.016712 4.2e-05 0.194002 0.015829 -0.00710129 2650 
1756 1 -0.00303792 0.00132934 -0.0164688 4.2e-05 -0.142109 -0.0108741 0.026991 2650 
405 1 -0.00179682 0.00562153 -0.0160536 0.000116 0.0273425 0.00770537 -0.00457015 2650 
2394 1 -0.00507537 0.0397842 -0.0158687 0.000116 0.0617023 0.0764092 -0.0150937 2650 
4195 1 -0.00135599 0.0423379 -0.0164023 0.000423 -0.745311 -0.140451 0.13972 2650 
463 1 -0.00578672 0.0608049 -0.0162656 0.000423 -0.399501 0.141085 -0.369321 2650 
2710 1 -0.00688533 0.00384963 -0.0151207 0.000116 -0.00135793 -0.0779128 0.0524504 2650 
2288 1 -0.00674849 0.0167598 -0.0153687 0.000116 0.267081 0.0365578 -0.142267 2650 
18 1 -0.00290505 0.0170608 -0.0150969 0.000423 -0.0119195 -0.00540394 -0.0118697 2650 
4002 1 -0.00605448 0.0454315 -0.015571 0.000116 -0.308638 -0.037842 0.133157 2650 
3226 1 -0.00661703 0.0091884 -0.0146607 0.000423 0.0268619 0.00618009 -0.0108973 2650 
1412 1 -0.00859567 0.0162932 -0.0144871 0.000116 0.0734688 0.0925244 -0.0306224 2650 
2933 1 -0.00258804 0.000458199 -0.0136274 0.000116 -0.0327409 -0.0283074 -0.00412665 2650 
2170 1 -0.00990866 0.0101843 -0.0135421 0.000116 0.189603 0.0257095 -0.165623 2650 
1792 1 -0.00864034 0.0158634 -0.0137601 0.000423 0.078829 0.0726189 -0.0420913 2650 
53 1 -0.00323046 0.027666 -0.0138701 0.000423 -0.0351416 0.0159371 -0.0294916 2650 
3577 1 -0.005632 0.0326812 -0.0134317 0.000116 0.00681951 0.0312369 0.00536246 2650 
3811 1 -0.00318982 0.0426999 -0.0140963 0.000116 -0.110229 0.02358 0.0946065 2650 
3333 1 -0.00169682 0.0431223 -0.0135769 0.000423 -0.0126652 0.0352741 0.00944363 2650 
1454 1 -0.00942996 0.00733318 -0.0126861 0.000423 0.0831573 -0.112952 -0.0495515 2650 
1168 1 -0.00781646 0.00835104 -0.013271 0.000116 0.0368715 -0.00237085 -0.0106159 2650 
325 1 -0.011814 0.000984951 -0.0119027 4.2e-05 0.187778 0.0100415 -0.162664 2650 
2416 1 -0.00552257 0.00417898 -0.0122799 4.2e-05 0.016291 -0.00457412 0.00767719 2650 
3822 1 -0.000314502 0.0447456 -0.0123077 0.000116 -0.0126185 0.0303676 -0.00926205 2650 
551 1 -0.0103504 0.0121444 -0.0115326 0.000656 -0.0120626 -0.0132707 0.00868941 2650 
438 1 -0.00775769 0.0129915 -0.0113496 4.2e-05 -0.00118577 0.0066752 0.0490336 2650 
2267 1 -0.00955451 0.0154028 -0.0117151 0.000116 -0.0103354 0.0144078 0.0121925 2650 
813 1 -0.00431359 0.0184678 -0.011487 0.000423 0.0586176 -0.000302971 -0.0294787 2650 
1395 1 -0.00326489 0.0406727 -0.0112287 0.000116 0.0365954 0.0113667 -0.0406804 2650 
1715 1 -0.00773188 0.0466514 -0.0117608 0.000116 -0.0286739 0.0749341 -0.085006 2650 
3199 1 -0.0124048 0.0179552 -0.0104007 0.000423 0.014242 -0.0011428 -0.00739808 2650 
2262 1 -0.0130482 0.0186366 -0.0106602 0.000116 0.0269188 0.0127635 -0.025665 2650 
448 1 -0.00890366 0.0122407 -0.00982672 0.000656 -0.00673947 -0.000828403 0.0576698 2650 
620 1 -0.00657204 0.0229644 -0.0100096 0.000116 -0.000424052 0.0113071 -0.00596347 2650 
3941 1 -0.0105662 0.0532403 -0.00979781 4.2e-05 0.615633 0.694722 -0.369139 2650 
1416 1 -0.0132871 0.00174735 -0.00876987 0.000116 -0.00115033 0.00448455 -0.0173356 2650 
1811 1 -0.0136826 0.00771219 -0.00914139 0.000423 -0.0561558 0.00111657 0.0641691 2650 
881 1 -0.0022478 0.0129709 -0.00915505 0.000656 -0.158214 0.0143766 -0.0583682 2650 
1064 1 -0.0140946 0.0220922 -0.00912533 0.000116 -0.0609959 0.0348014 0.116449 2650 
3526 1 -0.00456275 0.00406775 -0.0086489 0.000423 0.0160342 -0.0328768 0.0332701 2650 
4129 1 -0.00243433 0.00148903 -0.00716148 0.000116 -0.0156484 -0.0323757 -0.0189127 2650 
4361 1 -0.00783076 0.0125346 -0.0069558 0.000116 0.0156319 0.0123326 -0.00784442 2650 
3922 1 -0.0687751 0.0278959 -0.00394452 0.000116 -6.40689 17.5169 111.699 2650 
3242 1 -0.00372602 0.0439309 -0.0065676 0.000116 -0.0149101 0.0352693 0.0269995 2650 
1313 1 -0.00609623 0.00673903 -0.00609054 4.2e-05 0.027259 0.00261147 -0.00070265 2650 
201 1 -0.0151627 0.0151775 -0.006212 0.000116 -0.0124689 0.015158 0.0259974 2650 
697 1 -0.00349805 0.022199 -0.00583169 0.000423 -0.0103154 0.0131123 0.0282225 2650 
1396 1 -0.0154404 0.0488472 -0.00614995 0.000116 -0.0193005 0.129289 0.128256 2650 
1726 1 -0.0130922 0.00633771 -0.00522631 0.000116 0.00526821 -0.00265429 0.00924932 2650 
918 1 -0.0122594 0.0115046 -0.00497902 0.000423 -0.0118166 0.0093794 -0.00244129 2650 
836 1 -0.0159199 0.0386563 -0.00535945 0.000116 0.0102308 0.00523242 -0.059132 2650 
402 1 -0.0109561 0.0488331 -0.0049995 0.000116 0.024858 0.0538184 -0.0327993 2650 
3717 1 -0.0117344 0.000361848 -0.00427016 0.000116 -0.0032273 0.00115805 0.0246538 2650 
2287 1 -0.00558007 0.0401253 -0.00401792 0.000116 0.0419656 0.00718463 0.014762 2650 
3781 1 -0.0130993 0.0597394 -0.00404794 0.000423 -0.128015 0.146361 0.188838 2650 
2330 1 -0.0103489 0.0297624 -0.00327745 0.000423 -0.0469504 0.0375361 0.0226893 2650 
768 1 -0.0164294 0.0310196 -0.00349287 4.2e-05 -0.100239 -0.0599 0.402818 2650 
1707 1 -0.00887816 0.0332267 -0.00360446 0.000116 0.00663529 0.0167605 0.0233692 2650 
4160 1 -0.00559402 0.0588782 -0.00338507 4.2e-05 -0.0113036 0.0617943 0.00338393 2650 
234 1 -0.0160051 0.00397943 -0.00313352 0.000423 -0.0264638 0.0116195 0.103098 2650 
1974 1 -0.0138453 0.0223023 -0.00239971 4.2e-05 -0.0157528 0.0228086 0.0150889 2650 
750 1 -0.00380901 0.0304827 -0.0026055 0.000116 -0.0107246 0.0254527 0.0113598 2650 
2844 1 -0.0164512 0.0556106 -0.00261985 0.000116 0.00536825 0.0112726 0.110621 2650 
4232 1 -0.0147772 0.0188913 -0.00215854 0.000116 0.00321748 0.0295538 -0.00347969 2650 
4234 1 -0.0164959 0.033377 -0.00187865 0.000116 0.13297 0.0282447 -0.54187 2650 
1665 1 -0.00772228 0.00132779 -0.00143868 0.000423 -0.0114877 -0.00519064 0.00746789 2650 
2613 1 -0.00381788 0.00285793 -0.000963963 0.000116 0.0129272 0.00300109 0.00925269 2650 