ITEM: TIMESTEP
2160489
ITEM: NUMBER OF ATOMS
4353
ITEM: BOX BOUNDS ff ff ff
-0.15 0.15
-0.15 0.15
-0.15 0.15
ITEM: ATOMS id type x y z radius vx vy vz density 
4345 1 -0.00483862 -0.0183796 -0.0687139 0.000116 -0.0355548 -0.371373 0.0024861 2650 
3945 1 -9.1699e-05 -0.0163051 -0.0689579 4.2e-05 -0.00252995 -0.34633 -0.00227706 2650 
2559 1 -0.00073648 -0.0262382 -0.068573 0.000423 -0.0280561 -0.856547 -0.00475016 2650 
691 1 -0.00753757 -0.0193869 -0.0681615 0.000423 -0.0654083 -0.447504 0.00750821 2650 
4310 1 -0.00681409 -0.0188599 -0.0682376 0.000423 -0.0387578 -0.465413 0.00422413 2650 
187 1 -0.0073906 -0.014571 -0.0684864 0.000116 -0.0471789 -0.302938 0.00536218 2650 
2663 1 -0.000130521 -0.0148671 -0.0685769 0.000423 0.0153128 -0.327852 -0.000230739 2650 
3642 1 -0.00226959 -0.00777611 -0.0685394 0.000423 -0.0401765 -0.185548 -0.000845799 2650 
152 1 -0.00386041 -0.00528555 -0.068469 0.000423 -28.6988 -5.97471 1.91587 2650 
2002 1 -0.0127682 -0.0122211 -0.0673779 0.000423 -0.103039 -0.284063 0.0198413 2650 
1957 1 -0.0139812 -0.0109356 -0.0674502 0.000116 -0.0849657 -0.253539 0.017723 2650 
259 1 -0.00840211 -0.00735075 -0.067346 0.000423 -0.106648 -0.187964 -0.314808 2650 
1943 1 -0.0182161 -0.0344164 -0.0664318 0.000116 -0.123764 -0.898791 0.0339682 2650 
4068 1 -0.013211 -0.0138859 -0.0665203 0.000423 0.543281 -0.641147 3.32846 2650 
4074 1 -0.00360485 -0.00708579 -0.0665699 0.000423 -0.186369 -0.183565 -2.87575 2650 
2123 1 -0.0189 -0.015797 -0.0659211 0.000423 -0.105337 -0.328962 0.0302104 2650 
3502 1 -0.0194947 -0.00915732 -0.066145 4.2e-05 -0.138551 -0.229511 0.039955 2650 
406 1 -0.0190626 -0.00655795 -0.0661938 0.000116 -0.11242 -0.155961 0.0312839 2650 
2729 1 -0.0216154 -0.0214128 -0.0654045 0.000116 -10.3977 -2.96724 3.45657 2650 
3650 1 -0.0221662 -0.010362 -0.0648958 0.000423 -0.135751 -0.253994 0.0463099 2650 
1560 1 -0.0253121 -0.0147419 -0.0637346 0.000423 -0.163069 -0.299161 0.0647627 2650 
2835 1 -0.0283277 -0.0283719 -0.0627897 0.000116 -37.005 -1.88585 16.6948 2650 
1417 1 -0.0307229 -0.0548478 -0.061102 0.000116 -12.2299 -0.415624 5.6429 2650 
1239 1 -0.031599 -0.0543658 -0.060863 0.000423 -0.173881 -1.30119 0.0902761 2650 
2208 1 -0.0322718 -0.0165475 -0.0602448 0.000656 -0.15905 -0.353546 0.0851993 2650 
671 1 -0.0336071 -0.00976369 -0.05951 0.000656 -0.197172 -0.289695 0.0616319 2650 
1107 1 -0.0335476 -0.00270378 -0.0595438 0.000656 -9.31341 -0.418731 5.24713 2650 
3599 1 -0.0359877 -0.0193939 -0.0587358 0.000116 -0.168035 -0.396122 0.102818 2650 
4036 1 -0.0382374 -0.00730174 -0.0572967 0.000116 -0.121257 -0.201448 0.0808393 2650 
198 1 -0.0391336 -0.00989124 -0.0566883 0.000116 -0.161921 -0.235367 0.111874 2650 
821 1 -0.0405495 -0.0183515 -0.0553041 0.000423 -0.182132 -0.370224 0.13354 2650 
3073 1 -0.0345935 -0.0148591 -0.0551185 4.2e-05 -0.044025 -0.71508 0.302779 2650 
2846 1 -0.0415972 -0.00630711 -0.0549989 4.2e-05 -0.168939 -0.153472 0.127287 2650 
3409 1 -0.0452826 -0.0126787 -0.0511905 0.000656 -0.136869 -0.352164 0.121005 2650 
4138 1 -0.046002 -0.00795297 -0.051272 0.000116 -0.164727 -0.194873 0.147795 2650 
3266 1 -0.0484954 -0.0482786 -0.0489207 0.000116 8.20017 0.142789 -8.12756 2650 
2337 1 -0.0506288 -0.0126151 -0.0462578 0.000423 -0.077274 -0.338181 0.0845317 2650 
3810 1 -0.0519448 -0.0495972 -0.0452417 0.000116 -0.351813 -0.325558 0.403877 2650 
3143 1 -0.0523213 -0.0287566 -0.0448059 0.000116 -0.415685 -1.4948 0.485337 2650 
2618 1 -0.00526919 -0.0106839 -0.0446222 0.000116 -0.642599 -0.825092 -6.68204 2650 
3652 1 -0.0522378 -0.00786834 -0.0430073 0.000423 -2.26887 -0.285504 -1.54891 2650 
3918 1 -0.0550154 -0.0201316 -0.041454 0.000116 -0.114522 -0.534073 0.151967 2650 
1068 1 -0.0510478 -0.0154128 -0.0414358 0.000116 0.15795 -0.760203 0.454209 2650 
3779 1 -0.00795001 -0.00486647 -0.0415318 0.000423 -1.2412 -0.158615 -6.34069 2650 
1372 1 -0.0553255 -0.0105277 -0.0405264 0.000423 -0.113952 -0.249604 0.155492 2650 
3189 1 -0.0561326 -0.031996 -0.038999 0.000656 -0.108796 -1.04964 0.156487 2650 
2174 1 -0.053537 -0.00657025 -0.0382749 0.000116 0.397959 -0.18509 0.591317 2650 
4307 1 -0.0575629 -0.00893682 -0.0372818 0.000423 -0.103157 -0.220196 0.159203 2650 
3875 1 -0.0578241 -0.0180772 -0.0368755 0.000423 -0.133495 -0.376152 0.209239 2650 
4342 1 -0.0581564 -0.014898 -0.0369189 0.000116 -0.120412 -0.349284 0.189655 2650 
3204 1 -0.0588149 -0.0138462 -0.0352746 0.000423 -0.10296 -0.534836 0.171595 2650 
1721 1 -0.0597914 -0.0113469 -0.0342079 0.000116 -0.0929327 -0.274151 0.162416 2650 
1387 1 -0.0598777 -0.0100102 -0.0340566 0.000116 -0.0948248 -0.24544 0.166699 2650 
3583 1 -0.0606497 -0.00757207 -0.0326621 0.000116 -0.0875375 -0.176651 0.162527 2650 
2160 1 -0.0572371 -0.00419222 -0.032668 0.000116 -8.84389 -0.10506 -5.04764 2650 
3586 1 -0.0608836 -0.00607743 -0.0322242 0.000116 -0.0855002 -0.146025 0.161523 2650 
1670 1 -0.0613245 -0.0115125 -0.030707 0.000423 -0.0803064 -0.260303 0.160312 2650 
811 1 -0.0381289 -0.00644708 -0.0283935 0.000423 -5.62147 -0.292451 -4.19369 2650 
3527 1 -0.0310161 -0.00458119 -0.0275071 0.000423 -4.80812 -0.130219 -4.24884 2650 
3547 1 -0.0635516 -0.0183358 -0.0257859 0.000423 -0.175015 -0.601971 0.431166 2650 
4254 1 -0.0616496 -0.00920351 -0.0249167 0.000116 -1.03235 -0.392082 -0.212491 2650 
827 1 -0.00861353 -0.00482333 -0.0232189 0.000116 -0.951051 -0.249828 -2.98201 2650 
3422 1 -0.0644468 -0.000605016 -0.0234602 0.000423 -0.0635134 -0.0409302 0.174406 2650 
1312 1 -0.0650612 -0.00891911 -0.0228548 4.2e-05 -0.0459573 -0.212343 0.130822 2650 
634 1 -0.0653965 -0.0618186 -0.0216465 0.000116 -0.0963375 0.023688 0.291014 2650 
3295 1 -0.00486315 -0.00502378 -0.0215292 0.000656 -0.45941 -0.295122 -2.2716 2650 
2806 1 -0.00269578 -0.0054091 -0.0217932 0.000116 -0.280929 -0.386488 -2.22318 2650 
649 1 -0.0656769 -0.0181142 -0.0207803 0.000116 -0.0321467 -0.368863 0.101589 2650 
4133 1 -0.0662708 -0.0521603 -0.0188006 0.000116 -0.0347103 -0.810796 0.122338 2650 
2465 1 -0.0659941 -0.0197671 -0.0186715 0.000423 -0.0242016 -0.395238 0.0855065 2650 
455 1 -0.0659397 -0.0123203 -0.0188627 0.000423 -0.0325296 -0.400587 0.113671 2650 
1877 1 -0.00657431 -0.00480745 -0.0171328 0.000656 -0.795306 -1.05455 -1.99941 2650 
3015 1 -0.0118209 -0.0045375 -0.0173681 0.000423 -1.19429 -0.228101 -1.69332 2650 
2167 1 -0.0663974 -0.00472009 -0.0160372 0.000116 -10.1409 -0.145219 -2.45249 2650 
4116 1 -0.004072 -0.0010955 -0.016193 0.000116 0 -0.01175 0 2650 
93 1 -0.00354 -0.000684498 -0.016299 0.000116 0 -0.01175 0 2650 
3386 1 -0.0637478 -0.0124019 -0.0157398 0.000116 -9.67249 -0.724756 -2.41201 2650 
3441 1 -0.00552913 -0.00283024 -0.0150681 0.000423 -0.000696002 -0.0184602 -0.00469031 2650 
330 1 -0.001698 -0.0014205 -0.015557 4.2e-05 0 -0.01175 0 2650 
3733 1 -0.002363 -0.0013735 -0.015249 0.000656 0 -0.01175 0 2650 
4038 1 -0.001501 -0.0014025 -0.015239 0.000116 0 -0.01175 0 2650 
2965 1 -2.2e-05 -0.0011145 -0.015341 4.2e-05 0 -0.01175 0 2650 
1475 1 -0.0670884 -0.0105342 -0.0142496 0.000423 -0.0128367 -0.352907 0.0604133 2650 
854 1 -0.0673071 -0.00769719 -0.0146649 0.000116 -0.0177992 -0.187909 0.0816839 2650 
2256 1 -0.00177029 -0.00331294 -0.0149207 0.000116 -0.0387703 -0.0172071 -0.326772 2650 
747 1 -0.001416 -0.0032905 -0.014317 0.000116 0 -0.01175 0 2650 
4056 1 -0.00346544 -0.00257656 -0.0149736 0.000656 0.0521895 -0.0212305 -0.0356551 2650 
3303 1 -0.00507035 -0.00214666 -0.014272 0.000656 0.0141456 -0.0372944 0.000810427 2650 
1640 1 -0.001358 -0.000982498 -0.014495 4.2e-05 0 -0.01175 0 2650 
2313 1 -0.005044 -0.000138498 -0.014923 0.000656 0 -0.01175 0 2650 
2413 1 -0.003433 -0.000300498 -0.014868 4.2e-05 0 -0.01175 0 2650 
2578 1 -0.0671437 -0.0288885 -0.013987 0.000423 -0.0398799 -0.600661 0.191367 2650 
428 1 -0.0108557 -0.0039722 -0.0139025 0.000116 -0.601078 -0.29879 -0.572905 2650 
3229 1 -0.00666739 -0.00316732 -0.0137783 0.000423 -0.00821758 -0.00787463 -0.00588763 2650 
327 1 -0.00365735 -0.00317032 -0.0139931 4.2e-05 0.0375808 -0.0309318 -0.0233552 2650 
1487 1 -0.00285463 -0.00332536 -0.0136414 0.000116 0.0257666 -0.0355646 -0.274174 2650 
2705 1 -0.001432 -0.0032535 -0.013674 0.000116 0 -0.01175 0 2650 
3622 1 -0.00410533 -0.00279314 -0.0135955 0.000656 0.0528034 -0.0214679 -0.0121879 2650 
1393 1 -0.009523 -0.0019655 -0.013534 0.000116 0 -0.01175 0 2650 
2939 1 -0.008405 -0.0022695 -0.013483 0.000116 0 -0.01175 0 2650 
3191 1 -0.00429516 -0.00118635 -0.013792 0.000656 0.0280748 0.0114558 -0.0815944 2650 
2783 1 -0.00323765 -0.000902713 -0.0137791 0.000423 0.0404022 0.000675978 -0.00942396 2650 
4126 1 -0.001667 -0.000857498 -0.013741 0.000116 0 -0.01175 0 2650 
3261 1 -0.00653876 -0.000421034 -0.0135753 0.000116 0.169453 0.0419202 -0.00790207 2650 
167 1 -0.004273 -0.0032385 -0.012826 0.000116 0 -0.01175 0 2650 
2732 1 -0.00299527 -0.00330377 -0.0131974 0.000116 -0.0219837 -0.0135682 -0.0968622 2650 
3314 1 -0.00166709 -0.00322611 -0.0127335 0.000423 -0.0557227 -0.0143743 0.00661475 2650 
3633 1 -0.00941557 -0.00268433 -0.0131081 0.000423 -0.000862281 -0.00939919 0.000448575 2650 
2238 1 -0.00827575 -0.00314168 -0.01271 0.000423 -0.0515583 -0.0227754 -0.00183557 2650 
450 1 -0.00602599 -0.00220571 -0.0127412 0.000656 -0.00404762 -0.0294498 -0.0872293 2650 
3999 1 -0.00884196 -6.83577e-05 -0.013055 0.000423 -0.140456 0.101443 -0.0161452 2650 
2151 1 -0.0202099 -0.00368158 -0.0118714 0.000116 -2.35888 -0.0787217 -1.50174 2650 
2957 1 -0.010592 -0.0030195 -0.012102 4.2e-05 0 -0.01175 0 2650 
4150 1 -0.001319 -0.0026945 -0.012208 0.000116 0 -0.01175 0 2650 
868 1 -0.000201 -0.0030695 -0.012301 0.000116 0 -0.01175 0 2650 
2468 1 -0.003167 -0.000870498 -0.012131 0.000423 0 -0.01175 0 2650 
545 1 -0.002328 -0.0012435 -0.012432 4.2e-05 0 -0.01175 0 2650 
2819 1 -0.007468 -0.000709498 -0.012046 0.000116 0 -0.01175 0 2650 
1763 1 -0.001143 -0.000582498 -0.012442 0.000656 0 -0.01175 0 2650 
2820 1 -0.00718486 -0.00331915 -0.0111685 0.000116 -0.216036 -0.0192864 -0.335818 2650 
3265 1 -0.00638146 -0.00334203 -0.0113614 0.000116 -0.34094 -0.0255245 -0.606999 2650 
3679 1 -0.012092 -0.0025325 -0.011604 0.000116 0 -0.01175 0 2650 
2072 1 -0.009308 -0.0026705 -0.011721 0.000116 0 -0.01175 0 2650 
1022 1 -0.002093 -0.0017045 -0.011454 0.000423 0 -0.01175 0 2650 
2166 1 -0.009005 -0.0011645 -0.011549 0.000116 0 -0.01175 0 2650 
3505 1 -0.006952 -0.0015745 -0.011235 4.2e-05 0 -0.01175 0 2650 
950 1 -0.00821098 -5.59561e-05 -0.0112352 0.000116 0.0244257 -0.0244832 0.0109092 2650 
2827 1 -0.001988 -3.54978e-05 -0.011163 0.000116 0 -0.01175 0 2650 
440 1 -0.00061 -0.000272498 -0.011485 4.2e-05 0 -0.01175 0 2650 
707 1 -0.0677574 -0.0167198 -0.0106246 0.000423 -0.0214038 -0.438825 0.136448 2650 
3426 1 -0.000992 -0.0025685 -0.010574 0.000423 0 -0.01175 0 2650 
3603 1 -0.004768 -0.0019705 -0.010424 0.000116 0 -0.01175 0 2650 
4373 1 -0.004239 -0.0023085 -0.010869 4.2e-05 0 -0.01175 0 2650 
15 1 -0.00189389 -0.00189413 -0.0104279 0.000423 -6.89698e-05 -0.0108985 -0.000761284 2650 
2848 1 -0.010456 -0.0012735 -0.010698 4.2e-05 0 -0.01175 0 2650 
2130 1 -0.000316 -0.000853498 -0.010491 0.000423 0 -0.01175 0 2650 
1735 1 -0.0110344 -0.000663237 -0.0105993 0.000116 -0.0300294 -0.0195102 0.146301 2650 
3093 1 -0.002889 -0.000678498 -0.010782 0.000423 0 -0.01175 0 2650 
1193 1 -4.3e-05 -0.000287498 -0.010628 0.000116 0 -0.01175 0 2650 
3812 1 -0.0683075 -0.0412741 -0.00891396 0.000116 -5.97327 -0.539149 45.7684 2650 
250 1 -0.012244 -0.00239083 -0.00989928 0.000423 -0.0291506 -0.0504356 -0.0794674 2650 
661 1 -0.00899629 -0.00314758 -0.00988814 0.000656 -0.0136897 -0.0433832 -0.0273745 2650 
3933 1 -0.006596 -0.0026075 -0.009623 0.000116 0 -0.01175 0 2650 
2291 1 -0.000187089 -0.00296233 -0.00954116 0.000116 -0.102628 0.029422 -0.33154 2650 
417 1 -0.004944 -0.0012415 -0.009884 0.000116 0 -0.01175 0 2650 
939 1 -0.001916 -0.0015515 -0.009682 0.000116 0 -0.01175 0 2650 
1630 1 -0.00227 -0.0014865 -0.00958 0.000116 0 -0.01175 0 2650 
1774 1 -0.00128193 -0.000600019 -0.00984424 0.000423 -0.015372 0.0739013 -0.0470318 2650 
121 1 -0.0131903 -0.00214294 -0.00933019 0.000656 0.00724736 -0.0122382 0.0529437 2650 
756 1 -0.007322 -0.0023425 -0.009147 0.000116 0 -0.01175 0 2650 
538 1 -0.0050986 -0.00211599 -0.00938533 0.000116 -0.2365 0.116851 -0.195541 2650 
430 1 -0.0140341 -0.00113015 -0.00924186 4.2e-05 -0.189866 -0.199621 0.353688 2650 
1693 1 -0.0125666 -0.00128978 -0.00888877 0.000423 -0.0666228 -0.00873744 -0.0389529 2650 
3393 1 -0.006109 -0.0010825 -0.008736 4.2e-05 0 -0.01175 0 2650 
1690 1 -0.00461883 -0.00104432 -0.00919818 0.000423 0.00134853 -0.00825361 -0.000611251 2650 
159 1 -0.005821 -0.000470498 -0.009096 0.000423 0 -0.01175 0 2650 
509 1 -0.00101742 -0.00579876 -0.00791655 0.000116 -0.144359 -0.307496 -1.12094 2650 
1169 1 -0.007648 -0.0020315 -0.008568 0.000116 0 -0.01175 0 2650 
3960 1 -0.014242 -0.000440537 -0.00821456 0.000423 -0.0566132 0.0162307 0.0467916 2650 
1990 1 -0.012166 -0.0005035 -0.00820709 0.000656 -0.14097 0.0511159 -0.0309463 2650 
3283 1 -0.006893 -0.000626498 -0.007981 4.2e-05 0 -0.01175 0 2650 
3482 1 -0.002928 -0.000150498 -0.008025 0.000116 0 -0.01175 0 2650 
3913 1 -0.0114466 -0.00551619 -0.00719173 0.000116 -1.64379 -0.249855 -1.0279 2650 
2545 1 -0.0144738 -0.0021723 -0.00744307 0.000423 -0.0551115 0.0147731 0.0163675 2650 
3256 1 -0.001226 -0.0021245 -0.007466 0.000116 0 -0.01175 0 2650 
123 1 -0.0136892 -0.00134908 -0.0078317 0.000423 -0.0447561 0.00739263 0.0615797 2650 
1012 1 -0.0022137 -0.00151343 -0.00742601 0.000423 -0.0330361 -0.0408762 -0.0124709 2650 
249 1 -0.0148713 -0.000503639 -0.00722988 0.000423 -0.0595325 0.062116 0.0967715 2650 
4124 1 -0.0134209 -0.000458761 -0.00770034 0.000116 -0.0486174 0.0545144 0.0461516 2650 
2246 1 -0.011009 -0.0028575 -0.007071 0.000423 0 -0.01175 0 2650 
1185 1 -0.0135517 -0.00213267 -0.00636727 0.000116 -0.0125051 0.0322697 -0.0620202 2650 
3815 1 -0.004619 -0.0023225 -0.007068 0.000116 0 -0.01175 0 2650 
4306 1 -0.015175 -0.000836322 -0.00642077 0.000423 -0.0319453 -0.0279566 0.100674 2650 
3376 1 -0.008969 -7.64978e-05 -0.006983 0.000116 0 -0.01175 0 2650 
848 1 -0.004556 -0.000239498 -0.006748 0.000116 0 -0.01175 0 2650 
1716 1 -0.0115319 -0.00332252 -0.00606252 0.000116 -0.393157 -0.0203262 -0.20669 2650 
115 1 -0.0137262 -0.00273942 -0.0057981 0.000656 -0.100087 -0.0155684 -0.0754417 2650 
4229 1 -0.012102 -0.0026355 -0.005607 0.000116 0 -0.01175 0 2650 
1585 1 -0.00559003 -0.00246539 -0.00578351 0.000423 -0.0204306 -0.0251245 -0.0407779 2650 
2714 1 -0.012967 -0.0018585 -0.005682 0.000116 0 -0.01175 0 2650 
454 1 -0.0064184 -0.00203861 -0.00557307 0.000423 0.0335123 -0.0825034 -0.138707 2650 
3783 1 -0.00434 -0.0015805 -0.005911 0.000423 0 -0.01175 0 2650 
3756 1 -0.0146716 -7.97329e-05 -0.00626906 0.000423 -0.0603244 0.0355229 0.0681715 2650 
4182 1 -0.012848 -0.000101498 -0.005897 0.000423 0 -0.01175 0 2650 
4332 1 -0.014304 -0.0028985 -0.005099 0.000116 0 -0.01175 0 2650 
161 1 -0.00515368 -0.0026353 -0.00505578 0.000423 0.0712781 -0.0642741 -0.0687839 2650 
711 1 -0.00441177 -0.00172513 -0.00502378 0.000423 0.000661899 -0.0122712 -0.000258495 2650 
542 1 -0.0144106 -0.00109955 -0.0048931 4.2e-05 0.0664644 -0.0350046 0.0889419 2650 
3694 1 -0.012245 -0.0012515 -0.004934 0.000116 0 -0.01175 0 2650 
2361 1 -0.0131915 -0.000617946 -0.00483581 0.000423 0.0351745 -0.0353359 0.0369264 2650 
1596 1 -0.0130022 -4.77959e-05 -0.0053486 0.000116 0.071211 -0.0592321 -0.0129655 2650 
80 1 -0.015152 -0.0024605 -0.00435 0.000116 0 -0.01175 0 2650 
3097 1 -0.014841 -0.0028045 -0.004628 0.000423 0 -0.01175 0 2650 
4128 1 -0.009012 -0.0031555 -0.004291 0.000116 0 -0.01175 0 2650 
4178 1 -0.003324 -0.0015405 -0.004376 0.000423 0 -0.01175 0 2650 
203 1 -0.002373 -0.0011395 -0.004593 0.000116 0 -0.01175 0 2650 
1787 1 -0.0153944 -0.000224088 -0.00456467 0.000423 -0.039725 0.00890247 0.158147 2650 
2811 1 -0.000246283 -0.000297998 -0.0039912 0.000116 -0.0159125 -0.0952987 -0.066211 2650 
2254 1 -0.011951 -0.00163852 -0.00335903 0.000423 -0.00297472 -0.0102793 0.00351807 2650 
1746 1 -0.0125613 -0.0011646 -0.00345041 0.000116 0.0540658 -0.0437814 0.0284205 2650 
2933 1 -0.00413727 -0.00100121 -0.00390511 0.000116 0.0362333 0.00920352 0.0498824 2650 
1218 1 -0.000722921 -0.000938977 -0.00341333 0.000656 -0.0177642 -0.0362509 0.0375739 2650 
2414 1 -0.008032 -0.000339498 -0.003754 4.2e-05 0 -0.01175 0 2650 
4023 1 -0.00879444 -0.00210962 -0.0025642 0.000116 -0.0668235 -0.0670328 -0.0372269 2650 
3759 1 -0.00835175 -0.00172846 -0.00245568 0.000423 -0.0538064 -0.0531343 -0.0539649 2650 
980 1 -0.006322 -0.0022725 -0.002426 4.2e-05 0 -0.01175 0 2650 
3055 1 -0.006631 -0.0022575 -0.002403 0.000116 0 -0.01175 0 2650 
1944 1 -0.004594 -0.0018845 -0.002792 0.000116 0 -0.01175 0 2650 
788 1 -0.010917 -0.00156154 -0.00280077 0.000423 -0.026784 0.0298501 0.00858683 2650 
2389 1 -0.00819827 -0.00105941 -0.00270234 0.000116 0.0905715 0.0305884 0.00422473 2650 
465 1 -0.00687482 -0.00116682 -0.00256373 0.000423 -0.105681 -0.0333896 -0.0398108 2650 
2603 1 -0.0160513 -0.000154711 -0.00315484 0.000116 0.085789 0.0258099 0.00867848 2650 
801 1 -0.013224 -0.000641498 -0.002836 0.000423 0 -0.01175 0 2650 
1056 1 -0.015399 -0.00429396 -0.00166151 0.000116 -1.76251 -0.180835 -0.218787 2650 
889 1 -0.01575 -0.0026695 -0.001798 0.000656 0 -0.01175 0 2650 
2172 1 -0.0122944 -0.00306227 -0.00203477 0.000116 -0.0967659 -0.114047 0.0243815 2650 
1174 1 -0.000418325 -0.00265433 -0.00163543 0.000116 -0.0836098 -0.0780276 -0.00390229 2650 
3882 1 -0.005144 -0.0023205 -0.002331 0.000423 0 -0.01175 0 2650 
1072 1 -0.003652 -0.0020845 -0.001792 0.000116 0 -0.01175 0 2650 
2799 1 -0.0158167 -0.00142041 -0.0022081 0.000423 -0.00680082 -0.017742 -0.00342491 2650 
2380 1 -0.011859 -0.0011295 -0.002175 0.000116 0 -0.01175 0 2650 
3174 1 -0.00691974 -0.00140745 -0.00198264 4.2e-05 0.00347277 -0.040113 -0.0972204 2650 
518 1 -0.005505 -0.0014105 -0.002272 0.000116 0 -0.01175 0 2650 
2275 1 -0.0165063 -0.000429729 -0.00181635 0.000116 0.0360037 0.0168242 -0.00777095 2650 
2698 1 -0.01646 -0.000531498 -0.002073 0.000116 0 -0.01175 0 2650 
890 1 -0.015486 -0.000140853 -0.00217762 0.000656 -0.0318364 0.0235456 -0.0342346 2650 
2881 1 -0.0144279 -0.00324784 -0.000986427 0.000423 -0.0680022 -0.0603914 0.0501352 2650 
1336 1 -0.00464763 -0.00244602 -0.0015569 0.000423 -0.000662789 -0.0131631 -0.00085834 2650 
3358 1 -0.015677 -0.0016645 -0.000915 0.000116 0 -0.01175 0 2650 
3337 1 -0.00581005 -0.00211077 -0.00142009 0.000423 -0.0205455 -0.0282464 -0.0225842 2650 
3947 1 -0.00776515 -0.00130036 -0.00145747 0.000656 -0.0182269 -0.06137 -0.0473829 2650 
1609 1 -0.00457 -0.0015215 -0.000974 0.000116 0 -0.01175 0 2650 
1031 1 -0.0162975 -0.000485312 -0.000917636 0.000423 -0.0455105 0.0365509 -0.0229704 2650 
263 1 -0.0150268 -0.000272976 -0.000804347 0.000423 -0.16993 0.137038 0.0545204 2650 
1558 1 -0.00564417 -0.000315673 -0.00125364 0.000423 0.0288064 -0.0214492 -0.0248021 2650 
2967 1 -0.00790801 -0.00322143 -0.000628256 0.000656 -0.0235858 -0.0463674 0.020323 2650 
2347 1 -0.0165625 -0.00279874 -6.23628e-06 0.000423 0.0187759 -0.0279211 0.00731439 2650 
3915 1 -0.009241 -0.0026365 -0.000667 0.000116 0 -0.01175 0 2650 
338 1 -0.00635085 -0.00271023 -0.000468416 0.000656 -0.0213032 -0.0268449 -0.00315809 2650 
42 1 -0.0120267 -0.00166584 -9.79618e-05 0.000423 -0.00744215 -0.0127679 0.00435602 2650 
1123 1 -0.0117579 -0.00212562 -0.000766162 0.000423 -0.00623315 -0.00798228 0.00333197 2650 
3043 1 -0.00444614 -0.00224754 -0.000756482 0.000116 -0.0679801 -0.12367 0.0463152 2650 
94 1 -0.0166385 -0.00103773 -7.79441e-05 0.000116 -0.058473 0.037568 -0.0146537 2650 
3134 1 -0.0155813 -0.00127308 -0.00050574 0.000116 -0.0852362 0.0293279 -0.00533622 2650 
3561 1 -0.00763195 -0.00103402 -8.03848e-05 0.000423 -0.0780935 0.00121287 0.0107342 2650 
1267 1 -0.003657 -0.0011865 -0.000707 0.000116 0 -0.01175 0 2650 
3349 1 -0.00928491 -0.000723155 -6.04053e-05 0.000116 0.00224869 -0.0220272 -0.030741 2650 
3626 1 -0.00716089 -5.1015e-05 -0.000279704 0.000656 -0.00562549 -0.0578026 -0.0571901 2650 
3589 1 -0.0201298 -0.00433652 0.000337067 0.000116 -2.30599 -0.19545 -0.144169 2650 
1335 1 -0.00433062 -0.00342076 0.000438948 0.000423 -0.110533 -0.123998 -0.01141 2650 
1203 1 -0.007162 -0.0031445 0.000245 4.2e-05 0 -0.01175 0 2650 
3993 1 -0.00771503 -0.00199479 6.64623e-05 0.000423 -0.000445847 -0.0129728 -0.000209168 2650 
4237 1 -0.00755775 -0.00214677 0.000609782 0.000116 -0.0461322 -0.0473003 0.0311101 2650 
1649 1 -0.00767772 -0.00191455 0.000657664 4.2e-05 -0.00548207 -0.0426609 0.0332191 2650 
892 1 -0.0160594 -0.00152508 0.000170623 0.000656 -0.0698701 0.0183707 0.0192824 2650 
4201 1 -0.0094715 -0.00101062 0.000631819 0.000423 -0.00540799 -0.0463008 -0.0207837 2650 
199 1 -0.00833924 -0.00130866 0.000431994 0.000116 -0.0771818 0.00544547 0.0535701 2650 
2118 1 -0.00141233 -0.00121037 0.000457476 0.000423 0.0104401 -0.0412271 0.0303016 2650 
2667 1 -0.0145648 -0.000557292 3.49731e-05 0.000423 -0.0696596 0.00919274 0.0603744 2650 
647 1 -0.00868769 -0.000331868 0.000484053 0.000116 -0.0261271 -0.0247812 0.00249257 2650 
1529 1 -0.007601 -0.000752498 0.000457 4.2e-05 0 -0.01175 0 2650 
2336 1 -0.00388225 -0.000608636 4.70275e-05 0.000423 -0.0645906 -0.0485564 0.0423883 2650 
859 1 -0.00868 -0.0032115 0.001235 0.000116 0 -0.01175 0 2650 
2708 1 -0.01582 -0.0030415 0.001367 0.000116 0 -0.01175 0 2650 
3543 1 -0.00699375 -0.00278111 0.00106617 0.000423 -0.101114 0.00516664 0.0471235 2650 
4137 1 -0.00339537 -0.00307522 0.00103343 0.000116 -0.0260432 -0.0743516 0.0264269 2650 
2905 1 -0.015359 -0.0022375 0.001441 0.000423 0 -0.01175 0 2650 
1825 1 -0.010078 -0.0015875 0.000971 0.000116 0 -0.01175 0 2650 
1257 1 -0.0144625 -0.00155325 0.0013269 0.000423 -0.0474423 -0.0252532 0.0654747 2650 
2711 1 -0.00690454 -0.00081292 0.00127965 0.000116 -0.0299632 0.00107739 0.0323023 2650 
3118 1 -0.000758938 -0.00129083 0.00147194 0.000423 -0.00604054 -0.0666762 0.0330778 2650 
3395 1 -0.011442 -0.000263524 0.00139726 4.2e-05 -0.0442654 -0.0835252 0.0601924 2650 
283 1 -0.010842 -0.000537498 0.00093 0.000116 0 -0.01175 0 2650 
1104 1 -0.00355862 -0.000663544 0.00113889 0.000656 0.0131616 -0.0240403 0.0491864 2650 
2349 1 -0.00198251 -0.000779627 0.00139153 0.000423 0.00962684 -0.0169412 0.0419934 2650 
2271 1 -0.0688593 -0.0113701 0.0019288 0.000116 0.00276311 -0.306537 0.0986342 2650 
3391 1 -0.0689209 -0.00511905 0.00228734 4.2e-05 -0.000486163 -0.116506 -0.0146482 2650 
3556 1 -0.00965 -0.0032055 0.001826 0.000423 0 -0.01175 0 2650 
1278 1 -0.016395 -0.0030435 0.00198 0.000116 0 -0.01175 0 2650 
4196 1 -0.013959 -0.00249618 0.00204744 0.000423 -0.0185869 -0.000545791 0.0350845 2650 
2709 1 -0.011471 -0.0026295 0.001928 0.000116 0 -0.01175 0 2650 
2308 1 -0.011723 -0.0025055 0.00182 4.2e-05 0 -0.01175 0 2650 
2480 1 -0.000434772 -0.00258465 0.00200323 0.000116 0.0238812 -0.0533792 0.038061 2650 
1613 1 -0.008946 -0.0017015 0.001748 0.000116 0 -0.01175 0 2650 
1323 1 -0.00241266 -0.00196132 0.00184632 0.000656 -0.0064066 -0.036741 0.0268953 2650 
971 1 -0.012418 -0.0011585 0.002346 0.000116 0 -0.01175 0 2650 
914 1 -0.00344506 -0.000883545 0.00225196 0.000423 0.00802731 -0.0362301 0.0451485 2650 
3350 1 -0.0149163 -0.000765825 0.00180618 0.000116 0.0408505 -0.156642 -0.0488544 2650 
3275 1 -0.00465334 -0.000141402 0.00160893 0.000116 -0.000965655 -0.0581582 0.00845109 2650 
235 1 -0.068518 -0.00662109 0.00291509 0.000423 -0.30627 -0.160899 -0.00915446 2650 
3601 1 -0.0180459 -0.00351961 0.00285259 0.000116 -1.8873 -0.0585643 0.316143 2650 
2998 1 -0.0065422 -0.00289477 0.0024522 0.000423 0.00684747 -0.0224972 0.0111011 2650 
1832 1 -0.00283434 -0.00261001 0.00315245 0.000116 0.0384022 -0.0450229 -0.00839926 2650 
1517 1 -0.016122 -0.0023115 0.002817 0.000116 0 -0.01175 0 2650 
1683 1 -0.00856519 -0.00193051 0.00241179 0.000423 0.0142843 -0.0254934 -0.00541478 2650 
1734 1 -0.016002 -0.0014795 0.002665 0.000116 0 -0.01175 0 2650 
1791 1 -0.0157664 -0.000864384 0.00313337 0.000423 -0.0227658 -0.0251303 0.0207963 2650 
1474 1 -0.0148308 -0.000923592 0.00297815 0.000423 -0.00552427 -0.0458201 -0.00263045 2650 
2901 1 -0.0138163 -0.00104192 0.00252246 0.000423 0.0241816 -0.0599046 0.0742897 2650 
1524 1 -0.0161607 -5.70409e-05 0.0031326 0.000116 0.00367881 -0.0607152 0.0579629 2650 
3232 1 -0.0154982 -0.000472805 0.00243128 0.000423 -0.0320075 -0.021898 0.0201477 2650 
1732 1 -0.003062 -0.000209803 0.00278839 0.000116 -0.0284284 -0.0246411 -0.0385728 2650 
2765 1 -0.00197417 -0.000399091 0.00313111 0.000423 -0.000600997 -0.0214928 0.0328304 2650 
4106 1 -0.00325013 -0.00347942 0.00356854 0.000423 -0.195499 -0.0672356 0.235721 2650 
4251 1 -0.015077 -0.0024325 0.00391 0.000116 0 -0.01175 0 2650 
3242 1 -0.001269 -0.0025895 0.003631 0.000116 0 -0.01175 0 2650 
2355 1 -0.01566 -0.0017035 0.003437 0.000423 0 -0.01175 0 2650 
3000 1 -0.012814 -0.0010725 0.003849 0.000423 0 -0.01175 0 2650 
3566 1 -0.011615 -0.0015505 0.003338 0.000116 0 -0.01175 0 2650 
2462 1 -0.011107 -0.0012015 0.003923 0.000423 0 -0.01175 0 2650 
1377 1 -0.007523 -0.0013825 0.003255 0.000116 0 -0.01175 0 2650 
1050 1 -0.007068 -0.0015525 0.00389 0.000116 0 -0.01175 0 2650 
2038 1 -0.00177518 -0.000946856 0.0032079 0.000116 0.00626137 -0.0327544 0.0121394 2650 
1047 1 -0.008296 -0.000143498 0.003622 0.000116 0 -0.01175 0 2650 
381 1 -0.00274862 -0.000516376 0.003531 0.000423 -0.00102563 -0.0153275 0.00219181 2650 
1618 1 -0.00218713 -0.000330621 0.00380637 0.000116 0.0409378 -0.0575012 0.1065 2650 
14 1 -0.001684 -0.0031525 0.004084 0.000423 0 -0.01175 0 2650 
2768 1 -0.0155877 -0.00236512 0.00460966 0.000423 0.00357136 -0.00559609 0.00874915 2650 
1116 1 -0.0120003 -0.00212789 0.00432101 0.000423 -0.0505266 0.0133488 0.0916758 2650 
956 1 -0.007659 -0.0017175 0.004073 0.000116 0 -0.01175 0 2650 
2515 1 -0.0158059 -0.0014342 0.0042322 0.000116 0.0136571 -0.0685597 -0.119471 2650 
1792 1 -0.013782 -0.0012815 0.004117 0.000423 0 -0.01175 0 2650 
630 1 -0.012148 -0.0012535 0.004712 0.000116 0 -0.01175 0 2650 
2325 1 -0.008715 -0.0014985 0.003966 0.000423 0 -0.01175 0 2650 
789 1 -0.004249 -0.000912498 0.003973 0.000423 0 -0.01175 0 2650 
2203 1 -0.0150283 -0.000373565 0.00420982 0.000656 -0.00494075 -0.0228807 0.0106287 2650 
293 1 -0.007685 -0.000565498 0.00423 0.000116 0 -0.01175 0 2650 
2430 1 -0.0223585 -0.0059428 0.00477256 0.000656 -2.56172 -0.363046 0.454162 2650 
2833 1 -0.013555 -0.0031175 0.004794 0.000116 0 -0.01175 0 2650 
2162 1 -0.007254 -0.0028545 0.004762 0.000116 0 -0.01175 0 2650 
209 1 -0.01062 -0.0016885 0.004959 0.000116 0 -0.01175 0 2650 
2837 1 -0.002844 -0.0022025 0.005392 0.000116 0 -0.01175 0 2650 
3920 1 -0.001233 -0.0012865 0.005416 0.000116 0 -0.01175 0 2650 
2405 1 -0.0138681 -0.000294442 0.00550621 0.000116 -0.137867 -0.0979863 -0.0964757 2650 
2857 1 -0.00185676 -0.00076949 0.00498715 0.000656 0.00805311 -0.0329624 0.0042423 2650 
646 1 -0.00979083 -0.00358176 0.00567211 0.000116 -1.29874 -0.0598339 0.7524 2650 
1379 1 -0.006806 -0.0031625 0.005911 0.000116 0 -0.01175 0 2650 
3828 1 -0.009376 -0.0019555 0.005579 4.2e-05 0 -0.01175 0 2650 
2 1 -0.000104965 -0.0010521 0.00559175 0.000656 0.00920418 -0.0413423 0.0421006 2650 
2674 1 -0.0152568 -0.000435091 0.00618329 0.000423 0.00278799 -0.0102772 0.00307578 2650 
2503 1 -0.011962 -0.000500498 0.006036 0.000116 0 -0.01175 0 2650 
1505 1 -0.00395305 -0.000737037 0.00600642 0.000116 0.0174066 -0.1454 0.0800621 2650 
3260 1 -0.00348578 -0.00347229 0.00660052 0.000116 -0.396347 -0.0473577 0.750504 2650 
3353 1 -0.013035 -0.0030585 0.006785 0.000116 0 -0.01175 0 2650 
1994 1 -0.00592142 -0.0023895 0.00706924 0.000423 -0.000567327 -0.0118993 0.00103033 2650 
2728 1 -0.009657 -0.0016455 0.006365 0.000116 0 -0.01175 0 2650 
3878 1 -0.010726 -0.0010195 0.006483 0.000423 0 -0.01175 0 2650 
1183 1 -0.011911 -0.000776498 0.006745 0.000116 0 -0.01175 0 2650 
3491 1 -0.008995 -0.000457498 0.006806 0.000116 0 -0.01175 0 2650 
1455 1 -0.0042066 -0.000440232 0.00703677 0.000423 0.0734503 -0.0209309 0.00425026 2650 
1111 1 -0.00193943 -0.000210912 0.00709293 0.000656 -0.00224449 -0.048267 0.0450307 2650 
2098 1 -0.013601 -0.0025335 0.007652 0.000656 0 -0.01175 0 2650 
2132 1 -0.011115 -0.0030105 0.007765 0.000423 0 -0.01175 0 2650 
4048 1 -0.009708 -0.0026035 0.007388 4.2e-05 0 -0.01175 0 2650 
2314 1 -0.00693213 -0.00314946 0.00731027 0.000656 0.0107987 -0.0567018 0.00687116 2650 
312 1 -0.000835532 -0.00297162 0.0072827 0.000116 0.00143769 -0.0416726 0.107659 2650 
725 1 -0.000191815 -0.00267622 0.007383 0.000116 -0.0269909 -0.0312233 0.223905 2650 
3775 1 -0.014565 -0.0018885 0.007539 0.000423 0 -0.01175 0 2650 
636 1 -0.0093019 -0.00204928 0.00730233 0.000116 -0.0233243 -0.0217429 0.00944616 2650 
1552 1 -0.013664 -0.0012395 0.007417 0.000656 0 -0.01175 0 2650 
3418 1 -0.00375 -0.0012975 0.007885 0.000423 0 -0.01175 0 2650 
3873 1 -0.000124085 -0.0036643 0.00799755 0.000423 -0.0259262 -0.0926913 0.944475 2650 
4041 1 -0.00962077 -0.00275244 0.00859082 0.000116 0.0444806 0.0097703 -0.247667 2650 
4270 1 -0.007852 -0.0028175 0.008014 4.2e-05 0 -0.01175 0 2650 
3871 1 -0.00339168 -0.0028551 0.00830523 0.000423 -0.0923251 -0.0710189 0.0886353 2650 
1164 1 -0.00987 -0.0014855 0.008611 0.000116 0 -0.01175 0 2650 
3472 1 -0.006085 -0.0013425 0.008141 0.000116 0 -0.01175 0 2650 
2982 1 -0.00544707 -0.00118883 0.00801746 0.000423 -0.00522833 0.0129428 -0.0327545 2650 
436 1 -0.00152491 -0.00112603 0.00793551 4.2e-05 -0.0296344 -0.148922 0.119723 2650 
523 1 -0.013124 -5.34978e-05 0.008593 0.000116 0 -0.01175 0 2650 
2450 1 -0.00573402 -0.000151402 0.00838747 0.000423 -0.0144175 -0.0330068 0.0384387 2650 
229 1 -0.00252387 -0.000185968 0.00830583 0.000656 0.000241149 -0.0408423 0.0488756 2650 
817 1 -0.0679329 -0.032861 0.00943828 0.000423 0.452039 -2.36979 3.25234 2650 
2274 1 -0.011259 -0.0029975 0.008945 0.000116 0 -0.01175 0 2650 
1071 1 -0.007631 -0.0029915 0.009336 0.000116 0 -0.01175 0 2650 