LIGGGHTS (Version LIGGGHTS-PUBLIC 3.8.0, compiled 2022-11-07-16:55:38 by serperd1, git commit 86544c3f1215bc9744d7929e3eacf53ba086af9e)
units si #
dimension 3 #
newton off #
boundary f f f #
atom_style sphere #
pair_style gran model hertz tangential history #
communicate single vel yes #
region outer_basket cylinder y 0 0 0.15 -0.15 0.15 #
create_box 3 outer_basket #
Created orthogonal box = (-0.15 -0.15 -0.15) to (0.15 0.15 0.15)
  2 by 4 by 5 MPI processor grid
variable my_omega equal 157.0796 #
fix cone_mesh all mesh/surface file cone.stl type 3 scale 1 #
fix rotating_wall_1 all move/mesh mesh cone_mesh rotate/variable origin 0 0 0 axis 0 1 0 omega v_my_omega #
fix filter_mesh_walls all wall/gran model hertz tangential history primitive type 2 ycylinder_filtermesh 0.069 0 0 3 18 -0.0628 0 0.019963 0.017351 0.022463 0.019851 shear x 10.8385 #

fix inlet_cyl_wall_mesh all mesh/surface file in_cyl.stl type 3 scale 1 #
fix top_cyl_wall_mesh all mesh/surface file top_cyl.stl type 3 scale 1 #
fix rotating_wall_4 all move/mesh mesh top_cyl_wall_mesh rotate/variable origin 0 0 0 axis 0 1 0 omega v_my_omega #
fix bot_cyl_wall_mesh all mesh/surface file bot_cyl.stl type 3 scale 1 #
fix rotating_wall_5 all move/mesh mesh bot_cyl_wall_mesh rotate/variable origin 0 0 0 axis 0 1 0 omega v_my_omega #
fix bot_disk_wall_mesh all mesh/surface file bottom_disk.stl type 3 scale 1 #
fix rotating_wall_6 all move/mesh mesh bot_disk_wall_mesh rotate/variable origin 0 0 0 axis 0 1 0 omega v_my_omega #
fix top_disk_wall_mesh all mesh/surface file top_disk.stl type 3 scale 1 #
fix rotating_wall_7 all move/mesh mesh top_disk_wall_mesh rotate/variable origin 0 0 0 axis 0 1 0 omega v_my_omega #
fix GMSH_mesh_walls all wall/gran model hertz tangential history mesh n_meshes 6 meshes cone_mesh top_cyl_wall_mesh bot_cyl_wall_mesh bot_disk_wall_mesh inlet_cyl_wall_mesh top_disk_wall_mesh #
fix Young_mod all property/global youngsModulus peratomtype 375000000 46000000 1000000000 #
fix Poisson_rat all property/global poissonsRatio peratomtype 0.32 0.42 0.29 #
fix Coeff_rest all property/global coefficientRestitution peratomtypepair 3 0.15 0.32 0.475 0.32 0.49 0.645 0.475 0.645 0.8 #
fix Coeff_fric all property/global coefficientFriction peratomtypepair 3 0.04 0.145 0.12 0.145 0.25 0.225 0.12 0.225 0.2 #

neighbor 0.00026244 bin #
neigh_modify delay 0 one 100000 page 5000000 #
fix r_0to10p all particletemplate/sphere 12345787 atom_type 1 density constant 2650 radius constant 4.2e-05 #
fix r_10to50p all particletemplate/sphere 15485863 atom_type 1 density constant 2650 radius constant 0.0001164 #
fix r_50to90p all particletemplate/sphere 15485867 atom_type 1 density constant 2650 radius constant 0.0004233 #
fix r_90to100p all particletemplate/sphere 32452843 atom_type 1 density constant 2650 radius constant 0.0006561 #
fix prob_par all particledistribution/discrete 32452867 4 r_0to10p 0.1 r_10to50p 0.4 r_50to90p 0.4 r_90to100p 0.1 #
pair_coeff * * #
timestep 3.24e-08 #

fix nve_group all nve/sphere #
fix grav_fix all gravity 6.1081 vector 0.017 -0.0033 0 -1 0 #
fix cent_fix all centrifugal 157.0796 0.017 -0.0033 0.069 #

variable step equal step #
variable mycount equal count(all) #
fix print_amount_of_atoms all print 25 "${step} ${mycount}" file numatoms.txt screen no #
run 0 #
Setting up run at Sun Nov 27 05:06:17 2022

Memory usage per processor = 960.256 Mbytes
    Step    Atoms         KinEng            CPU 
       0        0              0              0 
Loop time of 0.00960585 on 40 procs for 0 steps with 0 atoms, finish time Sun Nov 27 05:06:17 2022


Pair  time (%) = 0 (0)
Neigh time (%) = 0 (0)
Comm  time (%) = 0 (0)
Outpt time (%) = 0 (0)
Other time (%) = 0.00960585 (100)

Nlocal:    0 ave 0 max 0 min
Histogram: 40 0 0 0 0 0 0 0 0 0
Nghost:    0 ave 0 max 0 min
Histogram: 40 0 0 0 0 0 0 0 0 0
Neighs:    0 ave 0 max 0 min
Histogram: 40 0 0 0 0 0 0 0 0 0

Total # of neighbors = 0
Neighbor list builds = 0
Dangerous builds = 0
run 1 #
Setting up run at Sun Nov 27 05:06:17 2022

Memory usage per processor = 960.256 Mbytes
    Step    Atoms         KinEng            CPU 
       0        0              0              0 
       1        0              0    0.009664051 
Loop time of 0.00968495 on 40 procs for 1 steps with 0 atoms, finish time Sun Nov 27 05:06:17 2022


Pair  time (%) = 2.58295e-06 (0.0266697)
Neigh time (%) = 0 (0)
Comm  time (%) = 0.000198412 (2.04866)
Outpt time (%) = 8.80777e-05 (0.909429)
Other time (%) = 0.00939588 (97.0152)

Nlocal:    0 ave 0 max 0 min
Histogram: 40 0 0 0 0 0 0 0 0 0
Nghost:    0 ave 0 max 0 min
Histogram: 40 0 0 0 0 0 0 0 0 0
Neighs:    0 ave 0 max 0 min
Histogram: 40 0 0 0 0 0 0 0 0 0

Total # of neighbors = 0
Neighbor list builds = 0
Dangerous builds = 0
read_dump dump.atom_info_1 1 x y z radius vx vy vz box no add yes replace no #
  orthogonal box = (-0.15 -0.15 -0.15) to (0.15 0.15 0.15)
  0 atoms before read
  4382 atoms in snapshot
  0 atoms purged
  0 atoms replaced
  0 atoms trimmed
  4382 atoms added
  4382 atoms after read
set atom * type 1 density 2650 vy -0.01175 #
  4382 settings made for type
  4382 settings made for density
  4382 settings made for vy
run 1 #
Setting up run at Sun Nov 27 05:06:17 2022

Memory usage per processor = 964.609 Mbytes
    Step    Atoms         KinEng            CPU 
       1     4382  2.0405663e-07              0 
       2     4382  2.5286639e-06    0.009358058 
Loop time of 0.00938279 on 40 procs for 1 steps with 4382 atoms, finish time Sun Nov 27 05:06:17 2022


Pair  time (%) = 4.25122e-06 (0.0453088)
Neigh time (%) = 0 (0)
Comm  time (%) = 8.55797e-06 (0.0912093)
Outpt time (%) = 0.000221451 (2.36018)
Other time (%) = 0.00914853 (97.5033)

Nlocal:    109.55 ave 1816 max 0 min
Histogram: 36 0 2 0 0 0 0 0 0 2
Nghost:    27.3 ave 345 max 0 min
Histogram: 36 0 0 0 0 1 1 0 0 2
Neighs:    35.525 ave 600 max 0 min
Histogram: 36 0 2 0 0 0 0 0 0 2

Total # of neighbors = 1421
Ave neighs/atom = 0.324281
Neighbor list builds = 0
Dangerous builds = 0
write_dump all custom dump.atom_info_ac_* id type x y z radius vx vy vz density #
run 308641
Setting up run at Sun Nov 27 05:06:17 2022

Memory usage per processor = 964.609 Mbytes
    Step    Atoms         KinEng            CPU 
       2     4382  2.5286639e-06              0 
  308643     4382  0.00030849076      3013.1057 
Loop time of 3013.11 on 40 procs for 308641 steps with 4382 atoms, finish time Sun Nov 27 05:56:30 2022


Pair  time (%) = 1.27586 (0.0423435)
Neigh time (%) = 4.10132 (0.136116)
Comm  time (%) = 4.2495 (0.141034)
Outpt time (%) = 0.000269636 (8.94879e-06)
Other time (%) = 3003.48 (99.6805)

Nlocal:    109.55 ave 1780 max 0 min
Histogram: 36 0 2 0 0 0 0 0 0 2
Nghost:    28.15 ave 360 max 0 min
Histogram: 36 0 0 0 0 1 1 0 0 2
Neighs:    39.35 ave 668 max 0 min
Histogram: 36 0 2 0 0 0 0 0 0 2

Total # of neighbors = 1574
Ave neighs/atom = 0.359197
Neighbor list builds = 1630
Dangerous builds = 0
write_dump all custom dump.atom_info_ac_* id type x y z radius vx vy vz density #
run 308641
Setting up run at Sun Nov 27 05:56:30 2022

Memory usage per processor = 964.609 Mbytes
    Step    Atoms         KinEng            CPU 
  308643     4382  0.00030849076              0 
  617284     4380   0.0003596636      2995.9178 
Loop time of 2995.92 on 40 procs for 308641 steps with 4380 atoms, finish time Sun Nov 27 06:46:26 2022


Pair  time (%) = 1.29327 (0.0431679)
Neigh time (%) = 3.23685 (0.108042)
Comm  time (%) = 4.52109 (0.150908)
Outpt time (%) = 0.000643963 (2.14947e-05)
Other time (%) = 2986.87 (99.6979)

Nlocal:    109.5 ave 1746 max 0 min
Histogram: 36 0 2 0 0 0 0 0 0 2
Nghost:    26.65 ave 328 max 0 min
Histogram: 36 0 0 0 0 0 2 0 0 2
Neighs:    41.125 ave 672 max 0 min
Histogram: 36 0 2 0 0 0 0 0 0 2

Total # of neighbors = 1645
Ave neighs/atom = 0.375571
Neighbor list builds = 1289
Dangerous builds = 0
write_dump all custom dump.atom_info_ac_* id type x y z radius vx vy vz density #
run 308641
Setting up run at Sun Nov 27 06:46:26 2022

Memory usage per processor = 964.609 Mbytes
    Step    Atoms         KinEng            CPU 
  617284     4380   0.0003596636              0 
  925925     4375  0.00059908021      2995.7095 
Loop time of 2995.71 on 40 procs for 308641 steps with 4375 atoms, finish time Sun Nov 27 07:36:22 2022


Pair  time (%) = 1.27868 (0.0426837)
Neigh time (%) = 2.69761 (0.090049)
Comm  time (%) = 4.72571 (0.157749)
Outpt time (%) = 0.000658882 (2.19942e-05)
Other time (%) = 2987.01 (99.7095)

Nlocal:    109.375 ave 1729 max 0 min
Histogram: 36 0 2 0 0 0 0 0 0 2
Nghost:    24.525 ave 304 max 0 min
Histogram: 36 0 0 0 0 1 1 0 0 2
Neighs:    40.45 ave 656 max 0 min
Histogram: 36 0 2 0 0 0 0 0 0 2

Total # of neighbors = 1618
Ave neighs/atom = 0.369829
Neighbor list builds = 1075
Dangerous builds = 0
write_dump all custom dump.atom_info_ac_* id type x y z radius vx vy vz density #
run 308641
Setting up run at Sun Nov 27 07:36:22 2022

Memory usage per processor = 964.609 Mbytes
    Step    Atoms         KinEng            CPU 
  925925     4375  0.00059908021              0 
 1234566     4371  0.00075944732      3003.5687 
Loop time of 3003.57 on 40 procs for 308641 steps with 4371 atoms, finish time Sun Nov 27 08:26:26 2022


Pair  time (%) = 1.2525 (0.0417004)
Neigh time (%) = 5.41991 (0.180449)
Comm  time (%) = 5.91047 (0.196782)
Outpt time (%) = 0.000589822 (1.96374e-05)
Other time (%) = 2990.99 (99.581)

Nlocal:    109.275 ave 1704 max 0 min
Histogram: 36 0 2 0 0 0 0 0 0 2
Nghost:    23.725 ave 295 max 0 min
Histogram: 36 0 0 0 0 1 1 0 0 2
Neighs:    37.95 ave 630 max 0 min
Histogram: 36 1 1 0 0 0 0 0 0 2

Total # of neighbors = 1518
Ave neighs/atom = 0.347289
Neighbor list builds = 2115
Dangerous builds = 1026
write_dump all custom dump.atom_info_ac_* id type x y z radius vx vy vz density #
run 308641
Setting up run at Sun Nov 27 08:26:26 2022

Memory usage per processor = 964.609 Mbytes
    Step    Atoms         KinEng            CPU 
 1234566     4371  0.00075944732              0 
 1543207     4360   0.0032377774      3087.4985 
Loop time of 3087.5 on 40 procs for 308641 steps with 4360 atoms, finish time Sun Nov 27 09:17:53 2022


Pair  time (%) = 1.25022 (0.040493)
Neigh time (%) = 18.0191 (0.583616)
Comm  time (%) = 11.2343 (0.363866)
Outpt time (%) = 0.000689627 (2.23361e-05)
Other time (%) = 3056.99 (99.012)

Nlocal:    109 ave 1666 max 0 min
Histogram: 36 0 2 0 0 0 0 0 0 2
Nghost:    23.125 ave 300 max 0 min
Histogram: 36 0 0 0 0 2 0 0 0 2
Neighs:    38.675 ave 638 max 0 min
Histogram: 36 0 2 0 0 0 0 0 0 2

Total # of neighbors = 1547
Ave neighs/atom = 0.354817
Neighbor list builds = 6901
Dangerous builds = 865
write_dump all custom dump.atom_info_ac_* id type x y z radius vx vy vz density #
run 308641
Setting up run at Sun Nov 27 09:17:53 2022

Memory usage per processor = 964.609 Mbytes
    Step    Atoms         KinEng            CPU 
 1543207     4360   0.0032377774              0 
 1851848     4358   0.0035115513      3573.4411 
Loop time of 3573.44 on 40 procs for 308641 steps with 4358 atoms, finish time Sun Nov 27 10:17:27 2022


Pair  time (%) = 1.35712 (0.0379781)
Neigh time (%) = 120.398 (3.36926)
Comm  time (%) = 60.2506 (1.68607)
Outpt time (%) = 0.000504208 (1.41099e-05)
Other time (%) = 3391.43 (94.9067)

Nlocal:    108.95 ave 1652 max 0 min
Histogram: 36 0 2 0 0 0 0 0 0 2
Nghost:    22.9 ave 292 max 0 min
Histogram: 36 0 0 0 0 2 0 0 0 2
Neighs:    38.625 ave 628 max 0 min
Histogram: 36 1 1 0 0 0 0 0 0 2

Total # of neighbors = 1545
Ave neighs/atom = 0.35452
Neighbor list builds = 46140
Dangerous builds = 1081
write_dump all custom dump.atom_info_ac_* id type x y z radius vx vy vz density #
run 308641
Setting up run at Sun Nov 27 10:17:27 2022

Memory usage per processor = 964.609 Mbytes
    Step    Atoms         KinEng            CPU 
 1851848     4358   0.0035115513              0 
 2160489     4353   0.0094606059      4332.3999 
Loop time of 4332.4 on 40 procs for 308641 steps with 4353 atoms, finish time Sun Nov 27 11:29:39 2022


Pair  time (%) = 1.48699 (0.0343226)
Neigh time (%) = 269.678 (6.22468)
Comm  time (%) = 154.716 (3.57113)
Outpt time (%) = 0.000550359 (1.27033e-05)
Other time (%) = 3906.52 (90.1699)

Nlocal:    108.825 ave 1649 max 0 min
Histogram: 36 0 2 0 0 0 0 0 0 2
Nghost:    22.1 ave 272 max 0 min
Histogram: 36 0 0 0 0 1 1 0 0 2
Neighs:    36.55 ave 622 max 0 min
Histogram: 36 0 2 0 0 0 0 0 0 2

Total # of neighbors = 1462
Ave neighs/atom = 0.33586
Neighbor list builds = 103279
Dangerous builds = 297
write_dump all custom dump.atom_info_ac_* id type x y z radius vx vy vz density #
run 308641
Setting up run at Sun Nov 27 11:29:39 2022

Memory usage per processor = 964.609 Mbytes
    Step    Atoms         KinEng            CPU 
 2160489     4353   0.0094606059              0 
 2469130     4345    0.019505659      4332.0265 
Loop time of 4332.03 on 40 procs for 308641 steps with 4345 atoms, finish time Sun Nov 27 12:41:52 2022


Pair  time (%) = 1.46404 (0.0337957)
Neigh time (%) = 269.789 (6.22779)
Comm  time (%) = 172.005 (3.97055)
Outpt time (%) = 0.000526158 (1.21458e-05)
Other time (%) = 3888.77 (89.7679)

Nlocal:    108.625 ave 1633 max 0 min
Histogram: 36 0 2 0 0 0 0 0 0 2
Nghost:    22.175 ave 280 max 0 min
Histogram: 36 0 0 0 0 2 0 0 0 2
Neighs:    36.65 ave 628 max 0 min
Histogram: 36 1 1 0 0 0 0 0 0 2

Total # of neighbors = 1466
Ave neighs/atom = 0.337399
Neighbor list builds = 103297
Dangerous builds = 229
write_dump all custom dump.atom_info_ac_* id type x y z radius vx vy vz density #
run 308641
Setting up run at Sun Nov 27 12:41:52 2022

Memory usage per processor = 964.609 Mbytes
    Step    Atoms         KinEng            CPU 
 2469130     4345    0.019505659              0 
 2777771     4335    0.021683556      4345.7767 
Loop time of 4345.78 on 40 procs for 308641 steps with 4335 atoms, finish time Sun Nov 27 13:54:17 2022


Pair  time (%) = 1.46581 (0.0337295)
Neigh time (%) = 270.86 (6.23272)
Comm  time (%) = 191.648 (4.40998)
Outpt time (%) = 0.000544738 (1.25349e-05)
Other time (%) = 3881.8 (89.3236)

Nlocal:    108.375 ave 1625 max 0 min
Histogram: 36 0 2 0 0 0 0 0 0 2
Nghost:    21.725 ave 260 max 0 min
Histogram: 36 0 0 0 0 0 2 0 0 2
Neighs:    36.725 ave 630 max 0 min
Histogram: 36 1 1 0 0 0 0 0 0 2

Total # of neighbors = 1469
Ave neighs/atom = 0.33887
Neighbor list builds = 103867
Dangerous builds = 629
write_dump all custom dump.atom_info_ac_* id type x y z radius vx vy vz density #
run 308641
Setting up run at Sun Nov 27 13:54:18 2022

Memory usage per processor = 964.609 Mbytes
    Step    Atoms         KinEng            CPU 
 2777771     4335    0.021683556              0 
 3086412     4316     0.03490913      4362.4858 
Loop time of 4362.49 on 40 procs for 308641 steps with 4316 atoms, finish time Sun Nov 27 15:07:00 2022


Pair  time (%) = 1.45802 (0.0334217)
Neigh time (%) = 274.103 (6.28317)
Comm  time (%) = 192.772 (4.41887)
Outpt time (%) = 0.000582691 (1.33569e-05)
Other time (%) = 3894.15 (89.2645)

Nlocal:    107.9 ave 1619 max 0 min
Histogram: 36 0 2 0 0 0 0 0 0 2
Nghost:    21.55 ave 267 max 0 min
Histogram: 36 0 0 0 0 1 1 0 0 2
Neighs:    37.175 ave 643 max 0 min
Histogram: 36 2 0 0 0 0 0 0 0 2

Total # of neighbors = 1487
Ave neighs/atom = 0.344532
Neighbor list builds = 105075
Dangerous builds = 2802
write_dump all custom dump.atom_info_ac_* id type x y z radius vx vy vz density #
run 308641
Setting up run at Sun Nov 27 15:07:00 2022

Memory usage per processor = 964.609 Mbytes
    Step    Atoms         KinEng            CPU 
 3086412     4316     0.03490913              0 
 3395053     4304    0.033730098      4360.0178 
Loop time of 4360.02 on 40 procs for 308641 steps with 4304 atoms, finish time Sun Nov 27 16:19:40 2022


Pair  time (%) = 1.43202 (0.0328444)
Neigh time (%) = 271.688 (6.23134)
Comm  time (%) = 237.687 (5.45152)
Outpt time (%) = 0.00608226 (0.000139501)
Other time (%) = 3849.21 (88.2842)

Nlocal:    107.6 ave 1615 max 0 min
Histogram: 36 0 2 0 0 0 0 0 0 2
Nghost:    21.3 ave 261 max 0 min
Histogram: 36 0 0 0 0 1 1 0 0 2
Neighs:    36.425 ave 613 max 0 min
Histogram: 36 1 1 0 0 0 0 0 0 2

Total # of neighbors = 1457
Ave neighs/atom = 0.338522
Neighbor list builds = 104188
Dangerous builds = 1410
write_dump all custom dump.atom_info_ac_* id type x y z radius vx vy vz density #
run 308641
Setting up run at Sun Nov 27 16:19:40 2022

Memory usage per processor = 964.609 Mbytes
    Step    Atoms         KinEng            CPU 
 3395053     4304    0.033730098              0 
 3703694     4284    0.067385666      4359.0553 
Loop time of 4359.06 on 40 procs for 308641 steps with 4284 atoms, finish time Sun Nov 27 17:32:20 2022


Pair  time (%) = 1.42305 (0.0326459)
Neigh time (%) = 273.74 (6.2798)
Comm  time (%) = 254.675 (5.84244)
Outpt time (%) = 0.000655451 (1.50365e-05)
Other time (%) = 3829.22 (87.8451)

Nlocal:    107.1 ave 1590 max 0 min
Histogram: 36 0 2 0 0 0 0 0 0 2
Nghost:    20.55 ave 250 max 0 min
Histogram: 36 0 0 0 0 1 1 0 0 2
Neighs:    35.125 ave 592 max 0 min
Histogram: 36 1 1 0 0 0 0 0 0 2

Total # of neighbors = 1405
Ave neighs/atom = 0.327965
Neighbor list builds = 104941
Dangerous builds = 2651
write_dump all custom dump.atom_info_ac_* id type x y z radius vx vy vz density #
run 308641
Setting up run at Sun Nov 27 17:32:20 2022

Memory usage per processor = 964.609 Mbytes
    Step    Atoms         KinEng            CPU 
 3703694     4284    0.067385666              0 
 4012335     4267    0.062513348      4363.3598 
Loop time of 4363.36 on 40 procs for 308641 steps with 4267 atoms, finish time Sun Nov 27 18:45:03 2022


Pair  time (%) = 1.43334 (0.0328496)
Neigh time (%) = 274.442 (6.2897)
Comm  time (%) = 220.397 (5.05108)
Outpt time (%) = 0.000590899 (1.35423e-05)
Other time (%) = 3867.09 (88.6264)

Nlocal:    106.675 ave 1579 max 0 min
Histogram: 36 0 2 0 0 0 0 0 0 2
Nghost:    20.175 ave 246 max 0 min
Histogram: 36 0 0 0 0 1 1 0 0 2
Neighs:    35.45 ave 604 max 0 min
Histogram: 36 2 0 0 0 0 0 0 0 2

Total # of neighbors = 1418
Ave neighs/atom = 0.332318
Neighbor list builds = 104787
Dangerous builds = 2004
write_dump all custom dump.atom_info_ac_* id type x y z radius vx vy vz density #
run 308641
Setting up run at Sun Nov 27 18:45:03 2022

Memory usage per processor = 964.609 Mbytes
    Step    Atoms         KinEng            CPU 
 4012335     4267    0.062513348              0 
 4320976     4251     0.09814039      4369.0329 
Loop time of 4369.03 on 40 procs for 308641 steps with 4251 atoms, finish time Sun Nov 27 19:57:52 2022


Pair  time (%) = 1.43406 (0.0328233)
Neigh time (%) = 275.54 (6.30666)
Comm  time (%) = 218.849 (5.00909)
Outpt time (%) = 0.000621521 (1.42256e-05)
Other time (%) = 3873.21 (88.6514)

Nlocal:    106.275 ave 1566 max 0 min
Histogram: 36 0 2 0 0 0 0 0 0 2
Nghost:    19.5 ave 240 max 0 min
Histogram: 36 0 0 0 0 1 1 0 0 2
Neighs:    35.525 ave 614 max 0 min
Histogram: 36 1 1 0 0 0 0 0 0 2

Total # of neighbors = 1421
Ave neighs/atom = 0.334274
Neighbor list builds = 105175
Dangerous builds = 2782
write_dump all custom dump.atom_info_ac_* id type x y z radius vx vy vz density #
run 308641
Setting up run at Sun Nov 27 19:57:53 2022

Memory usage per processor = 964.609 Mbytes
    Step    Atoms         KinEng            CPU 
 4320976     4251     0.09814039              0 
 4629617     4235     0.16718733      4372.1752 
Loop time of 4372.18 on 40 procs for 308641 steps with 4235 atoms, finish time Sun Nov 27 21:10:45 2022


Pair  time (%) = 1.40971 (0.0322428)
Neigh time (%) = 277.035 (6.33631)
Comm  time (%) = 234.755 (5.3693)
Outpt time (%) = 0.0061844 (0.000141449)
Other time (%) = 3858.97 (88.262)

Nlocal:    105.875 ave 1560 max 0 min
Histogram: 36 0 2 0 0 0 0 0 0 2
Nghost:    19.075 ave 225 max 0 min
Histogram: 36 0 0 0 0 0 2 0 0 2
Neighs:    35.025 ave 601 max 0 min
Histogram: 36 1 1 0 0 0 0 0 0 2

Total # of neighbors = 1401
Ave neighs/atom = 0.330815
Neighbor list builds = 105572
Dangerous builds = 3573
write_dump all custom dump.atom_info_ac_* id type x y z radius vx vy vz density #
run 308641
Setting up run at Sun Nov 27 21:10:45 2022

Memory usage per processor = 964.609 Mbytes
    Step    Atoms         KinEng            CPU 
 4629617     4235     0.16718733              0 
 4938258     4214     0.17519221      4371.3106 
Loop time of 4371.31 on 40 procs for 308641 steps with 4214 atoms, finish time Sun Nov 27 22:23:37 2022


Pair  time (%) = 1.40441 (0.0321279)
Neigh time (%) = 278.654 (6.37462)
Comm  time (%) = 238.533 (5.45678)
Outpt time (%) = 0.000603157 (1.37981e-05)
Other time (%) = 3852.72 (88.1365)

Nlocal:    105.35 ave 1547 max 0 min
Histogram: 36 0 2 0 0 0 0 0 0 2
Nghost:    19.825 ave 227 max 0 min
Histogram: 36 0 0 0 0 0 1 1 0 2
Neighs:    34.175 ave 573 max 0 min
Histogram: 36 1 1 0 0 0 0 0 0 2

Total # of neighbors = 1367
Ave neighs/atom = 0.324395
Neighbor list builds = 106021
Dangerous builds = 3139
write_dump all custom dump.atom_info_ac_* id type x y z radius vx vy vz density #
run 308641
Setting up run at Sun Nov 27 22:23:37 2022

Memory usage per processor = 964.609 Mbytes
    Step    Atoms         KinEng            CPU 
 4938258     4214     0.17519221              0 
 5246899     4191      0.2590112       4345.495 
Loop time of 4345.51 on 40 procs for 308641 steps with 4191 atoms, finish time Sun Nov 27 23:36:02 2022


Pair  time (%) = 1.37963 (0.0317484)
Neigh time (%) = 274.869 (6.32536)
Comm  time (%) = 251.999 (5.79908)
Outpt time (%) = 0.00612413 (0.00014093)
Other time (%) = 3817.25 (87.8437)

Nlocal:    104.775 ave 1525 max 0 min
Histogram: 36 0 2 0 0 0 0 0 0 2
Nghost:    19.7 ave 224 max 0 min
Histogram: 36 0 0 0 0 0 1 1 0 2
Neighs:    32.975 ave 577 max 0 min
Histogram: 36 2 0 0 0 0 0 0 0 2

Total # of neighbors = 1319
Ave neighs/atom = 0.314722
Neighbor list builds = 104652
Dangerous builds = 1584
write_dump all custom dump.atom_info_ac_* id type x y z radius vx vy vz density #
run 308641
Setting up run at Sun Nov 27 23:36:03 2022

Memory usage per processor = 964.609 Mbytes
    Step    Atoms         KinEng            CPU 
 5246899     4191      0.2590112              0 
 5555540     4168     0.26934111      4367.1532 
Loop time of 4367.15 on 40 procs for 308641 steps with 4168 atoms, finish time Mon Nov 28 00:48:50 2022


Pair  time (%) = 1.33411 (0.0305488)
Neigh time (%) = 278.976 (6.38806)
Comm  time (%) = 272.05 (6.22945)
Outpt time (%) = 0.000632636 (1.44862e-05)
Other time (%) = 3814.79 (87.3519)

Nlocal:    104.2 ave 1525 max 0 min
Histogram: 36 0 2 0 0 0 0 0 0 2
Nghost:    19.65 ave 245 max 0 min
Histogram: 36 0 0 0 0 1 1 0 1 1
Neighs:    30.1 ave 525 max 0 min
Histogram: 36 2 0 0 0 0 0 0 0 2

Total # of neighbors = 1204
Ave neighs/atom = 0.288868
Neighbor list builds = 106207
Dangerous builds = 3920
write_dump all custom dump.atom_info_ac_* id type x y z radius vx vy vz density #
run 308641
Setting up run at Mon Nov 28 00:48:50 2022

Memory usage per processor = 964.609 Mbytes
    Step    Atoms         KinEng            CPU 
 5555540     4168     0.26934111              0 
 5864181     4140     0.14659348       4347.051 
Loop time of 4347.05 on 40 procs for 308641 steps with 4140 atoms, finish time Mon Nov 28 02:01:17 2022


Pair  time (%) = 1.3173 (0.0303034)
Neigh time (%) = 277.04 (6.37306)
Comm  time (%) = 266.774 (6.13689)
Outpt time (%) = 0.0060905 (0.000140106)
Other time (%) = 3801.91 (87.4596)

Nlocal:    103.5 ave 1513 max 0 min
Histogram: 36 0 2 0 0 0 0 0 0 2
Nghost:    19.025 ave 223 max 0 min
Histogram: 36 0 0 0 0 0 1 1 1 1
Neighs:    29.325 ave 494 max 0 min
Histogram: 36 1 1 0 0 0 0 0 0 2

Total # of neighbors = 1173
Ave neighs/atom = 0.283333
Neighbor list builds = 105324
Dangerous builds = 2167
write_dump all custom dump.atom_info_ac_* id type x y z radius vx vy vz density #
run 308641
Setting up run at Mon Nov 28 02:01:17 2022

Memory usage per processor = 964.609 Mbytes
    Step    Atoms         KinEng            CPU 
 5864181     4140     0.14659348              0 
 6172822     4111      0.1639011      4354.2498 
Loop time of 4354.25 on 40 procs for 308641 steps with 4111 atoms, finish time Mon Nov 28 03:13:52 2022


Pair  time (%) = 1.29136 (0.0296574)
Neigh time (%) = 279.668 (6.42287)
Comm  time (%) = 292.623 (6.7204)
Outpt time (%) = 0.00594759 (0.000136593)
Other time (%) = 3780.66 (86.8269)

Nlocal:    102.775 ave 1511 max 0 min
Histogram: 36 0 2 0 0 0 0 0 0 2
Nghost:    19.45 ave 214 max 0 min
Histogram: 36 0 0 0 0 0 1 1 0 2
Neighs:    29.325 ave 497 max 0 min
Histogram: 36 1 1 0 0 0 0 0 0 2

Total # of neighbors = 1173
Ave neighs/atom = 0.285332
Neighbor list builds = 106169
Dangerous builds = 3751
write_dump all custom dump.atom_info_ac_* id type x y z radius vx vy vz density #
run 308641
Setting up run at Mon Nov 28 03:13:52 2022

Memory usage per processor = 964.609 Mbytes
    Step    Atoms         KinEng            CPU 
 6172822     4111      0.1639011              0 
 6481463     4085      0.2042564      4348.2565 
Loop time of 4348.26 on 40 procs for 308641 steps with 4085 atoms, finish time Mon Nov 28 04:26:20 2022


Pair  time (%) = 1.30244 (0.0299531)
Neigh time (%) = 277.054 (6.37162)
Comm  time (%) = 292.279 (6.72176)
Outpt time (%) = 0.000584598 (1.34444e-05)
Other time (%) = 3777.62 (86.8767)

Nlocal:    102.125 ave 1468 max 0 min
Histogram: 35 1 2 0 0 0 0 0 0 2
Nghost:    19.9 ave 235 max 0 min
Histogram: 36 0 0 0 0 1 0 1 1 1
Neighs:    27.65 ave 459 max 0 min
Histogram: 36 1 1 0 0 0 0 0 0 2

Total # of neighbors = 1106
Ave neighs/atom = 0.270747
Neighbor list builds = 105224
Dangerous builds = 2133
write_dump all custom dump.atom_info_ac_* id type x y z radius vx vy vz density #
run 308641
Setting up run at Mon Nov 28 04:26:20 2022

Memory usage per processor = 964.609 Mbytes
    Step    Atoms         KinEng            CPU 
 6481463     4085      0.2042564              0 
 6790104     4064     0.22254699      4351.2707 
Loop time of 4351.27 on 40 procs for 308641 steps with 4064 atoms, finish time Mon Nov 28 05:38:51 2022


Pair  time (%) = 1.28364 (0.0295003)
Neigh time (%) = 279.448 (6.42222)
Comm  time (%) = 284.093 (6.52896)
Outpt time (%) = 0.000559502 (1.28584e-05)
Other time (%) = 3786.45 (87.0193)

Nlocal:    101.6 ave 1439 max 0 min
Histogram: 36 0 2 0 0 0 0 0 0 2
Nghost:    19.85 ave 224 max 0 min
Histogram: 36 0 0 0 0 0 1 1 0 2
Neighs:    25.625 ave 521 max 0 min
Histogram: 36 2 0 0 0 0 1 0 0 1

Total # of neighbors = 1025
Ave neighs/atom = 0.252215
Neighbor list builds = 106178
Dangerous builds = 2854
write_dump all custom dump.atom_info_ac_* id type x y z radius vx vy vz density #
run 308641
Setting up run at Mon Nov 28 05:38:52 2022

Memory usage per processor = 964.609 Mbytes
    Step    Atoms         KinEng            CPU 
 6790104     4064     0.22254699              0 
 7098745     4040     0.40189897      4351.9387 
Loop time of 4351.94 on 40 procs for 308641 steps with 4040 atoms, finish time Mon Nov 28 06:51:24 2022


Pair  time (%) = 1.27182 (0.0292242)
Neigh time (%) = 275.112 (6.3216)
Comm  time (%) = 284.706 (6.54205)
Outpt time (%) = 0.0060675 (0.000139421)
Other time (%) = 3790.84 (87.107)

Nlocal:    101 ave 1460 max 0 min
Histogram: 36 0 2 0 0 0 0 0 1 1
Nghost:    18.325 ave 205 max 0 min
Histogram: 36 0 0 0 0 0 1 1 0 2
Neighs:    25.075 ave 534 max 0 min
Histogram: 36 1 1 0 1 0 0 0 0 1

Total # of neighbors = 1003
Ave neighs/atom = 0.248267
Neighbor list builds = 104535
Dangerous builds = 2054
write_dump all custom dump.atom_info_ac_* id type x y z radius vx vy vz density #
run 308641
Setting up run at Mon Nov 28 06:51:24 2022

Memory usage per processor = 964.609 Mbytes
    Step    Atoms         KinEng            CPU 
 7098745     4040     0.40189897              0 
 7407386     4023     0.19130746       4329.624 
Loop time of 4329.62 on 40 procs for 308641 steps with 4023 atoms, finish time Mon Nov 28 08:03:34 2022


Pair  time (%) = 1.24473 (0.0287491)
Neigh time (%) = 276.49 (6.38599)
Comm  time (%) = 286.947 (6.62752)
Outpt time (%) = 0.000602903 (1.39251e-05)
Other time (%) = 3764.94 (86.9577)

Nlocal:    100.575 ave 1455 max 0 min
Histogram: 36 0 2 0 0 0 0 0 1 1
Nghost:    18.05 ave 210 max 0 min
Histogram: 36 0 0 0 0 0 2 0 0 2
Neighs:    24.1 ave 521 max 0 min
Histogram: 36 1 1 0 1 0 0 0 0 1

Total # of neighbors = 964
Ave neighs/atom = 0.239622
Neighbor list builds = 105045
Dangerous builds = 1782
write_dump all custom dump.atom_info_ac_* id type x y z radius vx vy vz density #
run 308641
Setting up run at Mon Nov 28 08:03:34 2022

Memory usage per processor = 964.609 Mbytes
    Step    Atoms         KinEng            CPU 
 7407386     4023     0.19130746              0 
 7716027     3990      1.1203955      4333.0849 
Loop time of 4333.09 on 40 procs for 308641 steps with 3990 atoms, finish time Mon Nov 28 09:15:47 2022


Pair  time (%) = 1.24678 (0.0287735)
Neigh time (%) = 275.386 (6.35543)
Comm  time (%) = 276.69 (6.38552)
Outpt time (%) = 0.00605053 (0.000139636)
Other time (%) = 3779.76 (87.2301)

Nlocal:    99.75 ave 1458 max 0 min
Histogram: 35 1 2 0 0 0 0 0 1 1
Nghost:    17.6 ave 198 max 0 min
Histogram: 36 0 0 0 0 0 1 1 0 2
Neighs:    25.675 ave 577 max 0 min
Histogram: 36 1 1 1 0 0 0 0 0 1

Total # of neighbors = 1027
Ave neighs/atom = 0.257393
Neighbor list builds = 104547
Dangerous builds = 1537
write_dump all custom dump.atom_info_ac_* id type x y z radius vx vy vz density #
run 308641
Setting up run at Mon Nov 28 09:15:47 2022

Memory usage per processor = 964.609 Mbytes
    Step    Atoms         KinEng            CPU 
 7716027     3990      1.1203955              0 
 8024668     3953     0.19014764      4303.2331 
Loop time of 4303.23 on 40 procs for 308641 steps with 3953 atoms, finish time Mon Nov 28 10:27:30 2022


Pair  time (%) = 1.23195 (0.0286285)
Neigh time (%) = 271.631 (6.31226)
Comm  time (%) = 294.394 (6.84122)
Outpt time (%) = 0.000605605 (1.40732e-05)
Other time (%) = 3735.98 (86.8179)

Nlocal:    98.825 ave 1427 max 0 min
Histogram: 34 2 2 0 0 0 0 0 1 1
Nghost:    17.7 ave 205 max 0 min
Histogram: 36 0 0 0 0 1 0 1 1 1
Neighs:    25.175 ave 566 max 0 min
Histogram: 36 1 1 1 0 0 0 0 0 1

Total # of neighbors = 1007
Ave neighs/atom = 0.254743
Neighbor list builds = 102892
Dangerous builds = 7662
write_dump all custom dump.atom_info_ac_* id type x y z radius vx vy vz density #
run 308641
Setting up run at Mon Nov 28 10:27:30 2022

Memory usage per processor = 964.609 Mbytes
    Step    Atoms         KinEng            CPU 
 8024668     3953     0.19014764              0 
 8333309     3927     0.26614086      4045.4377 
Loop time of 4045.44 on 40 procs for 308641 steps with 3927 atoms, finish time Mon Nov 28 11:34:56 2022


Pair  time (%) = 1.17021 (0.0289266)
Neigh time (%) = 219.74 (5.4318)
Comm  time (%) = 223.779 (5.53164)
Outpt time (%) = 0.000585745 (1.44792e-05)
Other time (%) = 3600.75 (89.0076)

Nlocal:    98.175 ave 1418 max 0 min
Histogram: 35 1 2 0 0 0 0 0 1 1
Nghost:    17.325 ave 201 max 0 min
Histogram: 36 0 0 0 0 1 0 1 1 1
Neighs:    23.65 ave 528 max 0 min
Histogram: 36 1 1 1 0 0 0 0 0 1

Total # of neighbors = 946
Ave neighs/atom = 0.240896
Neighbor list builds = 83035
Dangerous builds = 5089
write_dump all custom dump.atom_info_ac_* id type x y z radius vx vy vz density #
run 308641
Setting up run at Mon Nov 28 11:34:56 2022

Memory usage per processor = 964.609 Mbytes
    Step    Atoms         KinEng            CPU 
 8333309     3927     0.26614086              0 
 8641950     3901     0.27768582      4083.9311 
Loop time of 4083.93 on 40 procs for 308641 steps with 3901 atoms, finish time Mon Nov 28 12:43:00 2022


Pair  time (%) = 1.15444 (0.0282679)
Neigh time (%) = 219.823 (5.38263)
Comm  time (%) = 219.102 (5.36498)
Outpt time (%) = 0.000753711 (1.84555e-05)
Other time (%) = 3643.85 (89.2241)

Nlocal:    97.525 ave 1421 max 0 min
Histogram: 34 2 2 0 0 0 0 1 0 1
Nghost:    17.2 ave 194 max 0 min
Histogram: 36 0 0 0 0 1 0 0 1 2
Neighs:    23.375 ave 549 max 0 min
Histogram: 36 1 2 0 0 0 0 0 0 1

Total # of neighbors = 935
Ave neighs/atom = 0.239682
Neighbor list builds = 83007
Dangerous builds = 3505
write_dump all custom dump.atom_info_ac_* id type x y z radius vx vy vz density #
run 308641
Setting up run at Mon Nov 28 12:43:00 2022

Memory usage per processor = 964.609 Mbytes
    Step    Atoms         KinEng            CPU 
 8641950     3901     0.27768582              0 
 8950591     3862      0.2353758      4422.7457 
Loop time of 4422.81 on 40 procs for 308641 steps with 3862 atoms, finish time Mon Nov 28 13:56:43 2022


Pair  time (%) = 1.13968 (0.0257683)
Neigh time (%) = 202.946 (4.58863)
Comm  time (%) = 209.174 (4.72943)
Outpt time (%) = 0.000581681 (1.31518e-05)
Other time (%) = 4009.55 (90.6562)

Nlocal:    96.55 ave 1416 max 0 min
Histogram: 33 3 2 0 0 0 0 1 0 1
Nghost:    16.525 ave 197 max 0 min
Histogram: 36 0 0 0 0 1 0 1 1 1
Neighs:    23.125 ave 536 max 0 min
Histogram: 36 1 2 0 0 0 0 0 0 1

Total # of neighbors = 925
Ave neighs/atom = 0.239513
Neighbor list builds = 76611
Dangerous builds = 7529
write_dump all custom dump.atom_info_ac_* id type x y z radius vx vy vz density #
run 308641
Setting up run at Mon Nov 28 13:56:44 2022

Memory usage per processor = 964.609 Mbytes
    Step    Atoms         KinEng            CPU 
 8950591     3862      0.2353758              0 
 9259232     3830      0.3907473      3879.4618 
Loop time of 3879.46 on 40 procs for 308641 steps with 3830 atoms, finish time Mon Nov 28 15:01:23 2022


Pair  time (%) = 1.11979 (0.0288645)
Neigh time (%) = 179.043 (4.61514)
Comm  time (%) = 186.189 (4.79936)
Outpt time (%) = 0.000595502 (1.53501e-05)
Other time (%) = 3513.11 (90.5566)

Nlocal:    95.75 ave 1406 max 0 min
Histogram: 34 2 2 0 0 0 0 1 0 1
Nghost:    16.675 ave 199 max 0 min
Histogram: 36 0 0 0 0 1 0 1 1 1
Neighs:    22.05 ave 508 max 0 min
Histogram: 36 1 2 0 0 0 0 0 0 1

Total # of neighbors = 882
Ave neighs/atom = 0.230287
Neighbor list builds = 67516
Dangerous builds = 12044
write_dump all custom dump.atom_info_ac_* id type x y z radius vx vy vz density #
run 308641
Setting up run at Mon Nov 28 15:01:25 2022

Memory usage per processor = 964.609 Mbytes
    Step    Atoms         KinEng            CPU 
 9259232     3830      0.3907473              0 
 9567873     3789     0.31371357      4143.9233 
Loop time of 4143.92 on 40 procs for 308641 steps with 3789 atoms, finish time Mon Nov 28 16:10:29 2022


Pair  time (%) = 1.12982 (0.0272646)
Neigh time (%) = 215.508 (5.20058)
Comm  time (%) = 228.304 (5.50938)
Outpt time (%) = 0.000636874 (1.53689e-05)
Other time (%) = 3698.98 (89.2628)

Nlocal:    94.725 ave 1393 max 0 min
Histogram: 34 2 2 0 0 0 0 1 0 1
Nghost:    16.275 ave 204 max 0 min
Histogram: 36 0 0 0 1 0 1 0 1 1
Neighs:    22.325 ave 510 max 0 min
Histogram: 36 1 2 0 0 0 0 0 0 1

Total # of neighbors = 893
Ave neighs/atom = 0.235682
Neighbor list builds = 81467
Dangerous builds = 11333
write_dump all custom dump.atom_info_ac_* id type x y z radius vx vy vz density #
run 308641
Setting up run at Mon Nov 28 16:10:30 2022

Memory usage per processor = 964.609 Mbytes
    Step    Atoms         KinEng            CPU 
 9567873     3789     0.31371357              0 
 9876514     3753     0.42263468      3818.1663 
Loop time of 3818.17 on 40 procs for 308641 steps with 3753 atoms, finish time Mon Nov 28 17:14:08 2022


Pair  time (%) = 1.08002 (0.0282863)
Neigh time (%) = 156.798 (4.10663)
Comm  time (%) = 162.401 (4.25337)
Outpt time (%) = 0.000575532 (1.50735e-05)
Other time (%) = 3497.89 (91.6117)

Nlocal:    93.825 ave 1384 max 0 min
Histogram: 34 2 2 0 0 0 0 1 0 1
Nghost:    16.125 ave 205 max 0 min
Histogram: 36 0 0 0 1 0 1 0 1 1
Neighs:    21.5 ave 506 max 0 min
Histogram: 36 1 2 0 0 0 0 0 0 1

Total # of neighbors = 860
Ave neighs/atom = 0.22915
Neighbor list builds = 59209
Dangerous builds = 3160
write_dump all custom dump.atom_info_ac_* id type x y z radius vx vy vz density #
run 308641
Setting up run at Mon Nov 28 17:14:08 2022

Memory usage per processor = 964.609 Mbytes
    Step    Atoms         KinEng            CPU 
 9876514     3753     0.42263468              0 
10185155     3718     0.35100952      3546.1272 
Loop time of 3546.13 on 40 procs for 308641 steps with 3718 atoms, finish time Mon Nov 28 18:13:14 2022


Pair  time (%) = 1.08194 (0.0305103)
Neigh time (%) = 116.573 (3.28733)
Comm  time (%) = 123.5 (3.48267)
Outpt time (%) = 0.00571707 (0.00016122)
Other time (%) = 3304.97 (93.1993)

Nlocal:    92.95 ave 1386 max 0 min
Histogram: 33 4 0 1 0 0 1 0 0 1
Nghost:    16.625 ave 209 max 0 min
Histogram: 36 0 0 1 0 0 1 0 1 1
Neighs:    22.8 ave 561 max 0 min
Histogram: 36 2 1 0 0 0 0 0 0 1

Total # of neighbors = 912
Ave neighs/atom = 0.245293
Neighbor list builds = 43947
Dangerous builds = 10332
write_dump all custom dump.atom_info_ac_* id type x y z radius vx vy vz density #
run 308641
Setting up run at Mon Nov 28 18:13:14 2022

Memory usage per processor = 964.609 Mbytes
    Step    Atoms         KinEng            CPU 
10185155     3718     0.35100952              0 
10493796     3676     0.36861708       3939.352 
Loop time of 3939.35 on 40 procs for 308641 steps with 3676 atoms, finish time Mon Nov 28 19:18:53 2022


Pair  time (%) = 1.1106 (0.0281925)
Neigh time (%) = 195.212 (4.95544)
Comm  time (%) = 237.927 (6.03975)
Outpt time (%) = 0.000657686 (1.66953e-05)
Other time (%) = 3505.1 (88.9766)

Nlocal:    91.9 ave 1344 max 0 min
Histogram: 34 2 2 0 0 0 0 1 0 1
Nghost:    15.15 ave 187 max 0 min
Histogram: 36 0 0 0 1 0 1 0 1 1
Neighs:    18.8 ave 422 max 0 min
Histogram: 36 0 2 1 0 0 0 0 0 1

Total # of neighbors = 752
Ave neighs/atom = 0.20457
Neighbor list builds = 73610
Dangerous builds = 32284
write_dump all custom dump.atom_info_ac_* id type x y z radius vx vy vz density #
run 308641
Setting up run at Mon Nov 28 19:18:54 2022

Memory usage per processor = 964.609 Mbytes
    Step    Atoms         KinEng            CPU 
10493796     3676     0.36861708              0 
10802437     3622      0.3724072      3460.0255 
Loop time of 3460.03 on 40 procs for 308641 steps with 3622 atoms, finish time Mon Nov 28 20:16:34 2022


Pair  time (%) = 1.03679 (0.0299649)
Neigh time (%) = 101.58 (2.93582)
Comm  time (%) = 112.157 (3.24151)
Outpt time (%) = 0.000601643 (1.73884e-05)
Other time (%) = 3245.25 (93.7927)

Nlocal:    90.55 ave 1249 max 0 min
Histogram: 34 2 1 1 0 0 0 1 0 1
Nghost:    15.1 ave 194 max 0 min
Histogram: 36 0 0 1 0 0 1 0 1 1
Neighs:    18.4 ave 330 max 0 min
Histogram: 36 0 2 0 0 1 0 0 0 1

Total # of neighbors = 736
Ave neighs/atom = 0.203203
Neighbor list builds = 38247
Dangerous builds = 4172
write_dump all custom dump.atom_info_ac_* id type x y z radius vx vy vz density #
run 308641
Setting up run at Mon Nov 28 20:16:34 2022

Memory usage per processor = 964.609 Mbytes
    Step    Atoms         KinEng            CPU 
10802437     3622      0.3724072              0 
11111078     3575     0.33825675      3547.9886 
Loop time of 3547.99 on 40 procs for 308641 steps with 3575 atoms, finish time Mon Nov 28 21:15:42 2022


Pair  time (%) = 1.0288 (0.0289966)
Neigh time (%) = 123.796 (3.48918)
Comm  time (%) = 140.104 (3.94883)
Outpt time (%) = 0.000633526 (1.78559e-05)
Other time (%) = 3283.06 (92.533)

Nlocal:    89.375 ave 1180 max 0 min
Histogram: 34 2 0 2 0 0 0 1 0 1
Nghost:    14.475 ave 185 max 0 min
Histogram: 36 0 0 0 1 1 0 0 1 1
Neighs:    15.775 ave 271 max 0 min
Histogram: 36 0 1 1 0 0 1 0 0 1

Total # of neighbors = 631
Ave neighs/atom = 0.176503
Neighbor list builds = 46643
Dangerous builds = 6056
write_dump all custom dump.atom_info_ac_* id type x y z radius vx vy vz density #
run 308641
Setting up run at Mon Nov 28 21:15:42 2022

Memory usage per processor = 964.609 Mbytes
    Step    Atoms         KinEng            CPU 
11111078     3575     0.33825675              0 
11419719     3538     0.35215175      3437.7352 
Loop time of 3437.74 on 40 procs for 308641 steps with 3538 atoms, finish time Mon Nov 28 22:13:00 2022


Pair  time (%) = 0.994547 (0.0289303)
Neigh time (%) = 102.942 (2.99448)
Comm  time (%) = 117.92 (3.43016)
Outpt time (%) = 0.000600045 (1.74547e-05)
Other time (%) = 3215.88 (93.5464)

Nlocal:    88.45 ave 1155 max 0 min
Histogram: 32 4 0 2 0 0 0 1 0 1
Nghost:    13.05 ave 155 max 0 min
Histogram: 36 0 0 0 0 1 1 0 0 2
Neighs:    13.225 ave 256 max 0 min
Histogram: 36 0 2 0 0 1 0 0 0 1

Total # of neighbors = 529
Ave neighs/atom = 0.14952
Neighbor list builds = 38728
Dangerous builds = 5141
write_dump all custom dump.atom_info_ac_* id type x y z radius vx vy vz density #
run 308641
Setting up run at Mon Nov 28 22:13:00 2022

Memory usage per processor = 964.609 Mbytes
    Step    Atoms         KinEng            CPU 
11419719     3538     0.35215175              0 
11728360     3489     0.37839483      3534.3779 
Loop time of 3534.38 on 40 procs for 308641 steps with 3489 atoms, finish time Mon Nov 28 23:11:54 2022


Pair  time (%) = 0.991682 (0.0280582)
Neigh time (%) = 122.857 (3.47607)
Comm  time (%) = 141.999 (4.01766)
Outpt time (%) = 0.00059445 (1.68191e-05)
Other time (%) = 3268.53 (92.4782)

Nlocal:    87.225 ave 1129 max 0 min
Histogram: 33 3 0 2 0 0 0 1 0 1
Nghost:    13.35 ave 156 max 0 min
Histogram: 36 0 0 0 1 0 1 0 0 2
Neighs:    13.175 ave 232 max 0 min
Histogram: 36 0 2 0 0 0 1 0 0 1

Total # of neighbors = 527
Ave neighs/atom = 0.151046
Neighbor list builds = 46207
Dangerous builds = 5722
write_dump all custom dump.atom_info_ac_* id type x y z radius vx vy vz density #
run 308641
Setting up run at Mon Nov 28 23:11:54 2022

Memory usage per processor = 964.609 Mbytes
    Step    Atoms         KinEng            CPU 
11728360     3489     0.37839483              0 
12037001     3437     0.34710334        3540.73 
Loop time of 3540.73 on 40 procs for 308641 steps with 3437 atoms, finish time Tue Nov 29 00:10:55 2022


Pair  time (%) = 0.999483 (0.0282282)
Neigh time (%) = 127.531 (3.60184)
Comm  time (%) = 140.263 (3.96143)
Outpt time (%) = 0.000646558 (1.82606e-05)
Other time (%) = 3271.94 (92.4085)

Nlocal:    85.925 ave 1103 max 0 min
Histogram: 32 3 1 2 0 0 0 1 0 1
Nghost:    13 ave 144 max 0 min
Histogram: 36 0 0 0 0 1 1 0 0 2
Neighs:    12.8 ave 200 max 0 min
Histogram: 36 0 1 1 0 0 0 0 1 1

Total # of neighbors = 512
Ave neighs/atom = 0.148967
Neighbor list builds = 47933
Dangerous builds = 12879
write_dump all custom dump.atom_info_ac_* id type x y z radius vx vy vz density #
run 308641
Setting up run at Tue Nov 29 00:10:55 2022

Memory usage per processor = 964.609 Mbytes
    Step    Atoms         KinEng            CPU 
12037001     3437     0.34710334              0 
12345642     3396     0.36866179      3482.0408 
Loop time of 3482.04 on 40 procs for 308641 steps with 3396 atoms, finish time Tue Nov 29 01:08:57 2022


Pair  time (%) = 0.97295 (0.027942)
Neigh time (%) = 113.396 (3.2566)
Comm  time (%) = 134.998 (3.87698)
Outpt time (%) = 0.00574728 (0.000165055)
Other time (%) = 3232.67 (92.8383)

Nlocal:    84.9 ave 1067 max 0 min
Histogram: 32 4 1 1 0 0 0 1 0 1
Nghost:    12.775 ave 153 max 0 min
Histogram: 36 0 0 0 0 1 1 0 1 1
Neighs:    12.1 ave 189 max 0 min
Histogram: 36 1 1 0 0 0 0 0 0 2

Total # of neighbors = 484
Ave neighs/atom = 0.142521
Neighbor list builds = 42576
Dangerous builds = 10223
write_dump all custom dump.atom_info_ac_* id type x y z radius vx vy vz density #
run 308641
Setting up run at Tue Nov 29 01:08:57 2022

Memory usage per processor = 964.609 Mbytes
    Step    Atoms         KinEng            CPU 
12345642     3396     0.36866179              0 
12654283     3351     0.50899224      3568.8045 
Loop time of 3568.8 on 40 procs for 308641 steps with 3351 atoms, finish time Tue Nov 29 02:08:26 2022


Pair  time (%) = 0.972618 (0.0272533)
Neigh time (%) = 133.19 (3.73208)
Comm  time (%) = 162.57 (4.55529)
Outpt time (%) = 0.000562454 (1.57603e-05)
Other time (%) = 3272.07 (91.6854)

Nlocal:    83.775 ave 1024 max 0 min
Histogram: 32 3 1 2 0 0 0 1 0 1
Nghost:    13.1 ave 146 max 0 min
Histogram: 36 0 0 0 0 1 1 0 1 1
Neighs:    11.25 ave 166 max 0 min
Histogram: 34 3 1 0 0 0 0 0 0 2

Total # of neighbors = 450
Ave neighs/atom = 0.134288
Neighbor list builds = 50020
Dangerous builds = 9880
write_dump all custom dump.atom_info_ac_* id type x y z radius vx vy vz density #
run 308641
Setting up run at Tue Nov 29 02:08:26 2022

Memory usage per processor = 964.609 Mbytes
    Step    Atoms         KinEng            CPU 
12654283     3351     0.50899224              0 
12962924     3300     0.43187854        3619.82 
Loop time of 3619.82 on 40 procs for 308641 steps with 3300 atoms, finish time Tue Nov 29 03:08:46 2022


Pair  time (%) = 0.961301 (0.0265566)
Neigh time (%) = 144.296 (3.98628)
Comm  time (%) = 171.373 (4.73429)
Outpt time (%) = 0.000564404 (1.5592e-05)
Other time (%) = 3303.19 (91.2529)

Nlocal:    82.5 ave 979 max 0 min
Histogram: 32 2 3 1 0 0 0 1 0 1
Nghost:    12.25 ave 140 max 0 min
Histogram: 36 0 0 0 1 1 0 0 1 1
Neighs:    10.6 ave 163 max 0 min
Histogram: 34 3 1 0 0 0 0 0 1 1

Total # of neighbors = 424
Ave neighs/atom = 0.128485
Neighbor list builds = 54189
Dangerous builds = 4958
write_dump all custom dump.atom_info_ac_* id type x y z radius vx vy vz density #
run 308641
Setting up run at Tue Nov 29 03:08:46 2022

Memory usage per processor = 964.609 Mbytes
    Step    Atoms         KinEng            CPU 
12962924     3300     0.43187854              0 
13271565     3250     0.46946265      3458.8539 
Loop time of 3458.85 on 40 procs for 308641 steps with 3250 atoms, finish time Tue Nov 29 04:06:25 2022


Pair  time (%) = 0.929264 (0.0268662)
Neigh time (%) = 111.498 (3.22355)
Comm  time (%) = 135.023 (3.9037)
Outpt time (%) = 0.000614752 (1.77733e-05)
Other time (%) = 3211.4 (92.8459)

Nlocal:    81.25 ave 944 max 0 min
Histogram: 32 2 3 1 0 0 0 1 0 1
Nghost:    11.05 ave 131 max 0 min
Histogram: 35 1 0 1 0 1 0 0 1 1
Neighs:    9.1 ave 134 max 0 min
Histogram: 33 3 2 0 0 0 0 0 1 1

Total # of neighbors = 364
Ave neighs/atom = 0.112
Neighbor list builds = 41821
Dangerous builds = 3957
write_dump all custom dump.atom_info_ac_* id type x y z radius vx vy vz density #
run 308641
Setting up run at Tue Nov 29 04:06:25 2022

Memory usage per processor = 964.609 Mbytes
    Step    Atoms         KinEng            CPU 
13271565     3250     0.46946265              0 
13580206     3198      0.3992224      3579.5376 
Loop time of 3579.54 on 40 procs for 308641 steps with 3198 atoms, finish time Tue Nov 29 05:06:05 2022


Pair  time (%) = 0.949761 (0.0265331)
Neigh time (%) = 136.724 (3.8196)
Comm  time (%) = 158.766 (4.43538)
Outpt time (%) = 0.000476746 (1.33186e-05)
Other time (%) = 3283.1 (91.7185)

Nlocal:    79.95 ave 887 max 0 min
Histogram: 32 1 3 1 1 0 0 1 0 1
Nghost:    10.275 ave 123 max 0 min
Histogram: 36 0 0 1 0 1 0 0 0 2
Neighs:    8.475 ave 133 max 0 min
Histogram: 34 2 1 1 0 0 1 0 0 1

Total # of neighbors = 339
Ave neighs/atom = 0.106004
Neighbor list builds = 51226
Dangerous builds = 10087
write_dump all custom dump.atom_info_ac_* id type x y z radius vx vy vz density #
run 308641
Setting up run at Tue Nov 29 05:06:05 2022

Memory usage per processor = 964.609 Mbytes
    Step    Atoms         KinEng            CPU 
13580206     3198      0.3992224              0 
13888847     3147     0.39697539      3460.3786 
Loop time of 3460.38 on 40 procs for 308641 steps with 3147 atoms, finish time Tue Nov 29 06:03:45 2022


Pair  time (%) = 0.916271 (0.0264789)
Neigh time (%) = 112.1 (3.23954)
Comm  time (%) = 127.535 (3.68559)
Outpt time (%) = 0.00030034 (8.67941e-06)
Other time (%) = 3219.83 (93.0484)

Nlocal:    78.675 ave 828 max 0 min
Histogram: 32 0 5 0 1 0 0 0 1 1
Nghost:    11.575 ave 130 max 0 min
Histogram: 34 2 0 0 1 0 1 0 1 1
Neighs:    7.15 ave 118 max 0 min
Histogram: 34 2 2 0 0 1 0 0 0 1

Total # of neighbors = 286
Ave neighs/atom = 0.0908802
Neighbor list builds = 42022
Dangerous builds = 4653
write_dump all custom dump.atom_info_ac_* id type x y z radius vx vy vz density #
run 308641
Setting up run at Tue Nov 29 06:03:46 2022

Memory usage per processor = 964.609 Mbytes
    Step    Atoms         KinEng            CPU 
13888847     3147     0.39697539              0 
14197488     3095     0.51297622      3393.9494 
Loop time of 3393.95 on 40 procs for 308641 steps with 3095 atoms, finish time Tue Nov 29 07:00:19 2022


Pair  time (%) = 0.902723 (0.026598)
Neigh time (%) = 99.6101 (2.93493)
Comm  time (%) = 116.916 (3.44484)
Outpt time (%) = 0.000569594 (1.67826e-05)
Other time (%) = 3176.52 (93.5936)

Nlocal:    77.375 ave 796 max 0 min
Histogram: 32 0 4 1 1 0 0 0 1 1
Nghost:    11.75 ave 120 max 0 min
Histogram: 30 6 0 0 1 0 1 0 1 1
Neighs:    6.475 ave 80 max 0 min
Histogram: 32 3 1 2 0 0 1 0 0 1

Total # of neighbors = 259
Ave neighs/atom = 0.0836834
Neighbor list builds = 37324
Dangerous builds = 5529
write_dump all custom dump.atom_info_ac_* id type x y z radius vx vy vz density #
run 308641
Setting up run at Tue Nov 29 07:00:20 2022

Memory usage per processor = 964.609 Mbytes
    Step    Atoms         KinEng            CPU 
14197488     3095     0.51297622              0 
14506129     3041     0.46070351      3454.9663 
Loop time of 3454.97 on 40 procs for 308641 steps with 3041 atoms, finish time Tue Nov 29 07:57:55 2022


Pair  time (%) = 0.899661 (0.0260396)
Neigh time (%) = 111.152 (3.21718)
Comm  time (%) = 132.04 (3.82176)
Outpt time (%) = 0.00558312 (0.000161597)
Other time (%) = 3210.87 (92.9349)

Nlocal:    76.025 ave 749 max 0 min
Histogram: 31 1 3 2 1 0 0 0 1 1
Nghost:    10.925 ave 122 max 0 min
Histogram: 34 2 0 1 0 0 1 0 1 1
Neighs:    5.9 ave 74 max 0 min
Histogram: 32 3 1 2 0 0 0 0 1 1

Total # of neighbors = 236
Ave neighs/atom = 0.0776061
Neighbor list builds = 41622
Dangerous builds = 5648
write_dump all custom dump.atom_info_ac_* id type x y z radius vx vy vz density #
run 308641
Setting up run at Tue Nov 29 07:57:55 2022

Memory usage per processor = 964.609 Mbytes
    Step    Atoms         KinEng            CPU 
14506129     3041     0.46070351              0 
14814770     2995     0.39386798      4195.2257 
Loop time of 4195.23 on 40 procs for 308641 steps with 2995 atoms, finish time Tue Nov 29 09:07:50 2022


Pair  time (%) = 0.972003 (0.0231693)
Neigh time (%) = 271.343 (6.46789)
Comm  time (%) = 329.179 (7.84651)
Outpt time (%) = 0.000560607 (1.3363e-05)
Other time (%) = 3593.73 (85.6624)

Nlocal:    74.875 ave 703 max 0 min
Histogram: 32 0 3 1 2 0 0 0 0 2
Nghost:    10.775 ave 114 max 0 min
Histogram: 36 0 0 0 1 0 1 0 0 2
Neighs:    5.15 ave 59 max 0 min
Histogram: 32 1 1 3 0 2 0 0 0 1

Total # of neighbors = 206
Ave neighs/atom = 0.0687813
Neighbor list builds = 101851
Dangerous builds = 9074
write_dump all custom dump.atom_info_ac_* id type x y z radius vx vy vz density #
run 308641
Setting up run at Tue Nov 29 09:07:50 2022

Memory usage per processor = 964.609 Mbytes
    Step    Atoms         KinEng            CPU 
14814770     2995     0.39386798              0 
15123411     2935     0.48362875      3642.0257 
Loop time of 3642.03 on 40 procs for 308641 steps with 2935 atoms, finish time Tue Nov 29 10:08:32 2022


Pair  time (%) = 0.889573 (0.0244252)
Neigh time (%) = 150.147 (4.12261)
Comm  time (%) = 183.798 (5.04658)
Outpt time (%) = 0.000510268 (1.40105e-05)
Other time (%) = 3307.19 (90.8064)

Nlocal:    73.375 ave 669 max 0 min
Histogram: 32 0 3 2 0 1 0 0 0 2
Nghost:    9.85 ave 115 max 0 min
Histogram: 34 2 0 1 0 1 1 0 0 1
Neighs:    5.05 ave 48 max 0 min
Histogram: 32 0 3 2 0 0 0 0 1 2

Total # of neighbors = 202
Ave neighs/atom = 0.0688245
Neighbor list builds = 56221
Dangerous builds = 9313
write_dump all custom dump.atom_info_ac_* id type x y z radius vx vy vz density #
run 308641
Setting up run at Tue Nov 29 10:08:32 2022

Memory usage per processor = 964.609 Mbytes
    Step    Atoms         KinEng            CPU 
15123411     2935     0.48362875              0 
15432052     2883     0.51205985      3575.8139 
Loop time of 3575.81 on 40 procs for 308641 steps with 2883 atoms, finish time Tue Nov 29 11:08:08 2022


Pair  time (%) = 0.866504 (0.0242323)
Neigh time (%) = 128.181 (3.58466)
Comm  time (%) = 156.428 (4.37462)
Outpt time (%) = 0.000536442 (1.5002e-05)
Other time (%) = 3290.34 (92.0165)

Nlocal:    72.075 ave 638 max 0 min
Histogram: 31 1 2 2 2 0 0 0 0 2
Nghost:    9.2 ave 118 max 0 min
Histogram: 34 2 0 1 1 0 1 0 0 1
Neighs:    4.35 ave 36 max 0 min
Histogram: 32 0 1 2 0 0 1 2 1 1

Total # of neighbors = 174
Ave neighs/atom = 0.0603538
Neighbor list builds = 47978
Dangerous builds = 7217
write_dump all custom dump.atom_info_ac_* id type x y z radius vx vy vz density #
run 308641
Setting up run at Tue Nov 29 11:08:08 2022

Memory usage per processor = 964.609 Mbytes
    Step    Atoms         KinEng            CPU 
15432052     2883     0.51205985              0 
15740693     2814     0.54673566      3540.5566 
Loop time of 3540.56 on 40 procs for 308641 steps with 2814 atoms, finish time Tue Nov 29 12:07:09 2022


Pair  time (%) = 0.873995 (0.0246853)
Neigh time (%) = 131.496 (3.71398)
Comm  time (%) = 150.497 (4.25065)
Outpt time (%) = 0.000541338 (1.52896e-05)
Other time (%) = 3257.69 (92.0107)

Nlocal:    70.35 ave 632 max 0 min
Histogram: 31 1 1 4 1 0 0 0 0 2
Nghost:    9 ave 101 max 0 min
Histogram: 35 1 0 0 1 1 0 0 1 1
Neighs:    4.05 ave 40 max 0 min
Histogram: 32 0 1 4 0 1 0 0 1 1

Total # of neighbors = 162
Ave neighs/atom = 0.0575693
Neighbor list builds = 49216
Dangerous builds = 10166
write_dump all custom dump.atom_info_ac_* id type x y z radius vx vy vz density #
run 308641
Setting up run at Tue Nov 29 12:07:09 2022

Memory usage per processor = 964.609 Mbytes
    Step    Atoms         KinEng            CPU 
15740693     2814     0.54673566              0 
16049334     2752     0.49548609      3550.2483 
Loop time of 3550.25 on 40 procs for 308641 steps with 2752 atoms, finish time Tue Nov 29 13:06:19 2022


Pair  time (%) = 0.857623 (0.0241567)
Neigh time (%) = 132.878 (3.74277)
Comm  time (%) = 161.274 (4.5426)
Outpt time (%) = 0.000529148 (1.49045e-05)
Other time (%) = 3255.24 (91.6905)

Nlocal:    68.8 ave 612 max 0 min
Histogram: 30 2 3 1 1 1 0 0 0 2
Nghost:    9.2 ave 106 max 0 min
Histogram: 36 0 0 0 1 1 0 0 1 1
Neighs:    3.95 ave 46 max 0 min
Histogram: 32 4 1 0 0 0 1 0 1 1

Total # of neighbors = 158
Ave neighs/atom = 0.0574128
Neighbor list builds = 49747
Dangerous builds = 8503
write_dump all custom dump.atom_info_ac_* id type x y z radius vx vy vz density #
run 308641
Setting up run at Tue Nov 29 13:06:19 2022

Memory usage per processor = 964.609 Mbytes
    Step    Atoms         KinEng            CPU 
16049334     2752     0.49548609              0 
16357975     2682     0.43132189      3568.8333 
Loop time of 3568.83 on 40 procs for 308641 steps with 2682 atoms, finish time Tue Nov 29 14:05:48 2022


Pair  time (%) = 0.874469 (0.0245029)
Neigh time (%) = 140.019 (3.92339)
Comm  time (%) = 169.555 (4.75099)
Outpt time (%) = 0.000779779 (2.18497e-05)
Other time (%) = 3258.38 (91.3011)

Nlocal:    67.05 ave 589 max 0 min
Histogram: 31 1 3 0 2 1 0 0 0 2
Nghost:    9.6 ave 97 max 0 min
Histogram: 32 4 0 0 1 1 0 0 0 2
Neighs:    4.9 ave 50 max 0 min
Histogram: 32 1 1 1 2 0 2 0 0 1

Total # of neighbors = 196
Ave neighs/atom = 0.0730798
Neighbor list builds = 52423
Dangerous builds = 20312
write_dump all custom dump.atom_info_ac_* id type x y z radius vx vy vz density #
run 308641
Setting up run at Tue Nov 29 14:05:48 2022

Memory usage per processor = 964.609 Mbytes
    Step    Atoms         KinEng            CPU 
16357975     2682     0.43132189              0 
16666616     2614      0.4837498      3377.7262 
Loop time of 3377.73 on 40 procs for 308641 steps with 2614 atoms, finish time Tue Nov 29 15:02:06 2022


Pair  time (%) = 0.838357 (0.0248202)
Neigh time (%) = 100.054 (2.96216)
Comm  time (%) = 121.487 (3.59671)
Outpt time (%) = 0.00059702 (1.76752e-05)
Other time (%) = 3155.35 (93.4163)

Nlocal:    65.35 ave 550 max 0 min
Histogram: 30 2 1 3 0 2 0 0 0 2
Nghost:    9.425 ave 91 max 0 min
Histogram: 30 5 1 1 0 0 1 0 0 2
Neighs:    3.55 ave 33 max 0 min
Histogram: 32 0 1 1 1 2 2 0 0 1

Total # of neighbors = 142
Ave neighs/atom = 0.0543229
Neighbor list builds = 37458
Dangerous builds = 4565
write_dump all custom dump.atom_info_ac_* id type x y z radius vx vy vz density #
run 308641
Setting up run at Tue Nov 29 15:02:06 2022

Memory usage per processor = 964.609 Mbytes
    Step    Atoms         KinEng            CPU 
16666616     2614      0.4837498              0 
16975257     2554     0.46239315      3406.6691 
Loop time of 3406.67 on 40 procs for 308641 steps with 2554 atoms, finish time Tue Nov 29 15:58:53 2022


Pair  time (%) = 0.829057 (0.0243363)
Neigh time (%) = 105.802 (3.10574)
Comm  time (%) = 120.718 (3.54357)
Outpt time (%) = 0.000504149 (1.47989e-05)
Other time (%) = 3179.32 (93.3263)

Nlocal:    63.85 ave 542 max 0 min
Histogram: 30 2 1 1 4 0 0 0 0 2
Nghost:    8.025 ave 83 max 0 min
Histogram: 32 3 1 1 0 0 1 1 0 1
Neighs:    2.9 ave 38 max 0 min
Histogram: 33 0 4 1 0 1 0 0 0 1

Total # of neighbors = 116
Ave neighs/atom = 0.045419
Neighbor list builds = 39580
Dangerous builds = 5338
write_dump all custom dump.atom_info_ac_* id type x y z radius vx vy vz density #
run 308641
Setting up run at Tue Nov 29 15:58:53 2022

Memory usage per processor = 964.609 Mbytes
    Step    Atoms         KinEng            CPU 
16975257     2554     0.46239315              0 
17283898     2499     0.66471695      3492.5881 
Loop time of 3492.59 on 40 procs for 308641 steps with 2499 atoms, finish time Tue Nov 29 16:57:05 2022


Pair  time (%) = 0.821794 (0.0235297)
Neigh time (%) = 123.715 (3.54222)
Comm  time (%) = 144.603 (4.14027)
Outpt time (%) = 0.000221126 (6.33128e-06)
Other time (%) = 3223.45 (92.294)

Nlocal:    62.475 ave 539 max 0 min
Histogram: 30 2 1 1 4 0 0 0 1 1
Nghost:    7.675 ave 72 max 0 min
Histogram: 32 3 1 0 0 2 0 0 0 2
Neighs:    3.475 ave 36 max 0 min
Histogram: 32 0 1 3 1 2 0 0 0 1

Total # of neighbors = 139
Ave neighs/atom = 0.0556222
Neighbor list builds = 46279
Dangerous builds = 8715
write_dump all custom dump.atom_info_ac_* id type x y z radius vx vy vz density #
run 308641
Setting up run at Tue Nov 29 16:57:05 2022

Memory usage per processor = 964.609 Mbytes
    Step    Atoms         KinEng            CPU 
17283898     2499     0.66471695              0 
17592539     2449     0.37690968      3444.2791 
Loop time of 3444.28 on 40 procs for 308641 steps with 2449 atoms, finish time Tue Nov 29 17:54:30 2022


Pair  time (%) = 0.82928 (0.024077)
Neigh time (%) = 115.038 (3.33996)
Comm  time (%) = 135.79 (3.94249)
Outpt time (%) = 0.00541849 (0.000157318)
Other time (%) = 3192.62 (92.6933)

Nlocal:    61.225 ave 522 max 0 min
Histogram: 30 2 0 4 1 1 0 0 1 1
Nghost:    7.475 ave 85 max 0 min
Histogram: 33 3 0 1 1 0 0 1 0 1
Neighs:    3.7 ave 54 max 0 min
Histogram: 32 3 2 2 0 0 0 0 0 1

Total # of neighbors = 148
Ave neighs/atom = 0.0604328
Neighbor list builds = 43020
Dangerous builds = 8642
write_dump all custom dump.atom_info_ac_* id type x y z radius vx vy vz density #
run 308641
Setting up run at Tue Nov 29 17:54:30 2022

Memory usage per processor = 964.609 Mbytes
    Step    Atoms         KinEng            CPU 
17592539     2449     0.37690968              0 
17901180     2388     0.60743694      3489.7783 
Loop time of 3489.78 on 40 procs for 308641 steps with 2388 atoms, finish time Tue Nov 29 18:52:40 2022


Pair  time (%) = 0.828811 (0.0237497)
Neigh time (%) = 125.478 (3.59558)
Comm  time (%) = 148.403 (4.25251)
Outpt time (%) = 0.000516291 (1.47944e-05)
Other time (%) = 3215.07 (92.1281)

Nlocal:    59.7 ave 508 max 0 min
Histogram: 30 2 1 2 3 0 0 0 1 1
Nghost:    6.575 ave 63 max 0 min
Histogram: 29 7 0 0 2 0 0 0 0 2
Neighs:    3.375 ave 37 max 0 min
Histogram: 32 0 2 2 2 1 0 0 0 1

Total # of neighbors = 135
Ave neighs/atom = 0.0565327
Neighbor list builds = 46933
Dangerous builds = 5648
write_dump all custom dump.atom_info_ac_* id type x y z radius vx vy vz density #
run 308641
Setting up run at Tue Nov 29 18:52:40 2022

Memory usage per processor = 964.609 Mbytes
    Step    Atoms         KinEng            CPU 
17901180     2388     0.60743694              0 
18209821     2334      0.7534093      3415.4392 
Loop time of 3415.44 on 40 procs for 308641 steps with 2334 atoms, finish time Tue Nov 29 19:49:35 2022


Pair  time (%) = 0.802067 (0.0234836)
Neigh time (%) = 106.681 (3.1235)
Comm  time (%) = 127.442 (3.73136)
Outpt time (%) = 0.00551501 (0.000161473)
Other time (%) = 3180.51 (93.1215)

Nlocal:    58.35 ave 508 max 0 min
Histogram: 30 2 2 1 2 1 0 0 1 1
Nghost:    6.95 ave 63 max 0 min
Histogram: 29 6 1 0 1 0 1 0 1 1
Neighs:    3.55 ave 62 max 0 min
Histogram: 32 4 2 1 0 0 0 0 0 1

Total # of neighbors = 142
Ave neighs/atom = 0.0608398
Neighbor list builds = 39889
Dangerous builds = 3966
write_dump all custom dump.atom_info_ac_* id type x y z radius vx vy vz density #
run 308641
Setting up run at Tue Nov 29 19:49:36 2022

Memory usage per processor = 964.609 Mbytes
    Step    Atoms         KinEng            CPU 
18209821     2334      0.7534093              0 
18518462     2268     0.61990223       3457.471 
Loop time of 3457.47 on 40 procs for 308641 steps with 2268 atoms, finish time Tue Nov 29 20:47:13 2022


Pair  time (%) = 0.809066 (0.0234005)
Neigh time (%) = 115.02 (3.3267)
Comm  time (%) = 140.566 (4.06557)
Outpt time (%) = 0.000580417 (1.67873e-05)
Other time (%) = 3201.08 (92.5843)

Nlocal:    56.7 ave 507 max 0 min
Histogram: 31 1 1 3 1 1 0 1 0 1
Nghost:    6.575 ave 63 max 0 min
Histogram: 30 5 1 1 0 1 0 0 0 2
Neighs:    4.075 ave 69 max 0 min
Histogram: 33 3 2 1 0 0 0 0 0 1

Total # of neighbors = 163
Ave neighs/atom = 0.0718695
Neighbor list builds = 43038
Dangerous builds = 6211
write_dump all custom dump.atom_info_ac_* id type x y z radius vx vy vz density #
run 308641
Setting up run at Tue Nov 29 20:47:13 2022

Memory usage per processor = 964.609 Mbytes
    Step    Atoms         KinEng            CPU 
18518462     2268     0.61990223              0 
18827103     2195     0.53043666      3356.2176 
Loop time of 3356.22 on 40 procs for 308641 steps with 2195 atoms, finish time Tue Nov 29 21:43:10 2022


Pair  time (%) = 0.790071 (0.0235405)
Neigh time (%) = 96.4379 (2.87341)
Comm  time (%) = 113.646 (3.38614)
Outpt time (%) = 0.00061228 (1.82432e-05)
Other time (%) = 3145.34 (93.7169)

Nlocal:    54.875 ave 475 max 0 min
Histogram: 30 2 2 1 1 2 0 1 0 1
Nghost:    6.375 ave 58 max 0 min
Histogram: 30 4 2 1 0 0 1 0 0 2
Neighs:    2.875 ave 39 max 0 min
Histogram: 32 4 1 0 0 1 1 0 0 1

Total # of neighbors = 115
Ave neighs/atom = 0.0523918
Neighbor list builds = 36100
Dangerous builds = 7165
write_dump all custom dump.atom_info_ac_* id type x y z radius vx vy vz density #
run 308641
Setting up run at Tue Nov 29 21:43:10 2022

Memory usage per processor = 964.609 Mbytes
    Step    Atoms         KinEng            CPU 
18827103     2195     0.53043666              0 
19135744     2141     0.46369994      3475.0697 
Loop time of 3475.07 on 40 procs for 308641 steps with 2141 atoms, finish time Tue Nov 29 22:41:05 2022


Pair  time (%) = 0.804639 (0.0231546)
Neigh time (%) = 122.826 (3.53448)
Comm  time (%) = 124.062 (3.57006)
Outpt time (%) = 0.000514946 (1.48183e-05)
Other time (%) = 3227.38 (92.8723)

Nlocal:    53.525 ave 464 max 0 min
Histogram: 31 1 2 2 1 0 1 1 0 1
Nghost:    6.1 ave 63 max 0 min
Histogram: 32 2 1 2 0 1 0 1 0 1
Neighs:    3.6 ave 58 max 0 min
Histogram: 35 2 1 0 0 0 0 1 0 1

Total # of neighbors = 144
Ave neighs/atom = 0.0672583
Neighbor list builds = 46018
Dangerous builds = 9156
write_dump all custom dump.atom_info_ac_* id type x y z radius vx vy vz density #
run 308641
Setting up run at Tue Nov 29 22:41:05 2022

Memory usage per processor = 964.609 Mbytes
    Step    Atoms         KinEng            CPU 
19135744     2141     0.46369994              0 
19444385     2091     0.46586098      3758.2022 
Loop time of 3758.2 on 40 procs for 308641 steps with 2091 atoms, finish time Tue Nov 29 23:43:43 2022


Pair  time (%) = 0.823007 (0.021899)
Neigh time (%) = 183.649 (4.88662)
Comm  time (%) = 187.439 (4.98745)
Outpt time (%) = 0.000465943 (1.2398e-05)
Other time (%) = 3386.29 (90.104)

Nlocal:    52.275 ave 438 max 0 min
Histogram: 30 2 2 1 1 0 2 0 1 1
Nghost:    6.05 ave 62 max 0 min
Histogram: 30 4 3 0 1 0 0 1 0 1
Neighs:    3.975 ave 68 max 0 min
Histogram: 36 1 1 0 0 0 0 1 0 1

Total # of neighbors = 159
Ave neighs/atom = 0.0760402
Neighbor list builds = 68860
Dangerous builds = 14912
write_dump all custom dump.atom_info_ac_* id type x y z radius vx vy vz density #
run 308641
Setting up run at Tue Nov 29 23:43:43 2022

Memory usage per processor = 964.609 Mbytes
    Step    Atoms         KinEng            CPU 
19444385     2091     0.46586098              0 
19753026     2049     0.51208531      3596.0738 
Loop time of 3596.07 on 40 procs for 308641 steps with 2049 atoms, finish time Wed Nov 30 00:43:39 2022


Pair  time (%) = 0.804805 (0.0223801)
Neigh time (%) = 145.696 (4.05152)
Comm  time (%) = 151.788 (4.22094)
Outpt time (%) = 0.000441575 (1.22794e-05)
Other time (%) = 3297.79 (91.7052)

Nlocal:    51.225 ave 431 max 0 min
Histogram: 30 3 1 2 0 0 2 0 1 1
Nghost:    5.525 ave 49 max 0 min
Histogram: 28 6 1 1 1 1 0 0 0 2
Neighs:    3.275 ave 47 max 0 min
Histogram: 33 4 1 0 0 0 0 0 0 2

Total # of neighbors = 131
Ave neighs/atom = 0.0639336
Neighbor list builds = 54611
Dangerous builds = 4874
write_dump all custom dump.atom_info_ac_* id type x y z radius vx vy vz density #
run 308641
Setting up run at Wed Nov 30 00:43:39 2022

Memory usage per processor = 964.609 Mbytes
    Step    Atoms         KinEng            CPU 
19753026     2049     0.51208531              0 
20061667     2008     0.80296345      3465.9916 
Loop time of 3465.99 on 40 procs for 308641 steps with 2008 atoms, finish time Wed Nov 30 01:41:25 2022


Pair  time (%) = 0.790621 (0.0228108)
Neigh time (%) = 119.369 (3.444)
Comm  time (%) = 129.331 (3.73143)
Outpt time (%) = 0.000179281 (5.17257e-06)
Other time (%) = 3216.5 (92.8017)

Nlocal:    50.2 ave 415 max 0 min
Histogram: 30 2 3 0 1 0 1 1 1 1
Nghost:    5.575 ave 53 max 0 min
Histogram: 30 4 1 2 0 1 0 0 1 1
Neighs:    3.7 ave 84 max 0 min
Histogram: 36 2 0 1 0 0 0 0 0 1

Total # of neighbors = 148
Ave neighs/atom = 0.0737052
Neighbor list builds = 44755
Dangerous builds = 4176
write_dump all custom dump.atom_info_ac_* id type x y z radius vx vy vz density #
run 308641
Setting up run at Wed Nov 30 01:41:25 2022

Memory usage per processor = 964.609 Mbytes
    Step    Atoms         KinEng            CPU 
20061667     2008     0.80296345              0 
20370308     1966     0.50384141      3458.7939 
Loop time of 3458.79 on 40 procs for 308641 steps with 1966 atoms, finish time Wed Nov 30 02:39:04 2022


Pair  time (%) = 0.787567 (0.02277)
Neigh time (%) = 119.41 (3.45237)
Comm  time (%) = 124.482 (3.599)
Outpt time (%) = 0.000482286 (1.39438e-05)
Other time (%) = 3214.11 (92.9259)

Nlocal:    49.15 ave 390 max 0 min
Histogram: 30 3 1 1 0 1 2 0 1 1
Nghost:    4.375 ave 47 max 0 min
Histogram: 32 4 0 0 2 0 0 0 0 2
Neighs:    3.1 ave 52 max 0 min
Histogram: 36 1 0 1 0 0 0 1 0 1

Total # of neighbors = 124
Ave neighs/atom = 0.0630722
Neighbor list builds = 44782
Dangerous builds = 5460
write_dump all custom dump.atom_info_ac_* id type x y z radius vx vy vz density #
run 308641
Setting up run at Wed Nov 30 02:39:04 2022

Memory usage per processor = 964.609 Mbytes
    Step    Atoms         KinEng            CPU 
20370308     1966     0.50384141              0 
20678949     1925     0.44502464       3406.083 
Loop time of 3406.08 on 40 procs for 308641 steps with 1925 atoms, finish time Wed Nov 30 03:35:50 2022


Pair  time (%) = 0.787482 (0.0231199)
Neigh time (%) = 106.924 (3.1392)
Comm  time (%) = 109.94 (3.22776)
Outpt time (%) = 0.0235512 (0.000691445)
Other time (%) = 3188.41 (93.6092)

Nlocal:    48.125 ave 374 max 0 min
Histogram: 30 2 2 0 1 1 2 0 0 2
Nghost:    4.675 ave 43 max 0 min
Histogram: 32 1 2 1 2 0 0 0 0 2
Neighs:    3.55 ave 57 max 0 min
Histogram: 34 3 0 1 0 1 0 0 0 1

Total # of neighbors = 142
Ave neighs/atom = 0.0737662
Neighbor list builds = 40100
Dangerous builds = 6515
write_dump all custom dump.atom_info_ac_* id type x y z radius vx vy vz density #
run 308641
Setting up run at Wed Nov 30 03:35:51 2022

Memory usage per processor = 964.609 Mbytes
    Step    Atoms         KinEng            CPU 
20678949     1925     0.44502464              0 
20987590     1888      0.4453265      3410.1025 
Loop time of 3410.1 on 40 procs for 308641 steps with 1888 atoms, finish time Wed Nov 30 04:32:41 2022


Pair  time (%) = 0.776483 (0.0227701)
Neigh time (%) = 108.163 (3.17184)
Comm  time (%) = 110.702 (3.2463)
Outpt time (%) = 0.000491837 (1.44229e-05)
Other time (%) = 3190.46 (93.5591)

Nlocal:    47.2 ave 367 max 0 min
Histogram: 30 2 1 1 1 3 0 0 0 2
Nghost:    4.725 ave 52 max 0 min
Histogram: 31 4 1 1 1 0 0 1 0 1
Neighs:    2.925 ave 40 max 0 min
Histogram: 34 1 1 2 0 0 0 1 0 1

Total # of neighbors = 117
Ave neighs/atom = 0.0619703
Neighbor list builds = 40581
Dangerous builds = 2615
write_dump all custom dump.atom_info_ac_* id type x y z radius vx vy vz density #
run 308641
Setting up run at Wed Nov 30 04:32:41 2022

Memory usage per processor = 964.609 Mbytes
    Step    Atoms         KinEng            CPU 
20987590     1888      0.4453265              0 
21296231     1851     0.49713363      3710.6935 
Loop time of 3710.69 on 40 procs for 308641 steps with 1851 atoms, finish time Wed Nov 30 05:34:32 2022


Pair  time (%) = 0.791995 (0.0213436)
Neigh time (%) = 173.017 (4.66266)
Comm  time (%) = 169.622 (4.57117)
Outpt time (%) = 0.00255145 (6.87594e-05)
Other time (%) = 3367.26 (90.7448)

Nlocal:    46.275 ave 366 max 0 min
Histogram: 30 2 1 2 0 2 1 0 1 1
Nghost:    4.875 ave 44 max 0 min
Histogram: 30 4 1 1 2 0 0 0 0 2
Neighs:    3.175 ave 53 max 0 min
Histogram: 34 3 1 0 0 0 1 0 0 1

Total # of neighbors = 127
Ave neighs/atom = 0.0686116
Neighbor list builds = 64942
Dangerous builds = 10863
write_dump all custom dump.atom_info_ac_* id type x y z radius vx vy vz density #
run 308641
Setting up run at Wed Nov 30 05:34:32 2022

Memory usage per processor = 964.609 Mbytes
    Step    Atoms         KinEng            CPU 
21296231     1851     0.49713363              0 
21604872     1826     0.55096601      3386.3654 
Loop time of 3386.38 on 40 procs for 308641 steps with 1826 atoms, finish time Wed Nov 30 06:30:58 2022


Pair  time (%) = 0.763822 (0.0225557)
Neigh time (%) = 102.762 (3.03458)
Comm  time (%) = 103.797 (3.06513)
Outpt time (%) = 0.000578059 (1.70701e-05)
Other time (%) = 3179.05 (93.8777)

Nlocal:    45.65 ave 361 max 0 min
Histogram: 30 2 0 2 3 0 1 0 1 1
Nghost:    4.55 ave 49 max 0 min
Histogram: 31 4 1 2 0 0 0 0 0 2
Neighs:    2.5 ave 41 max 0 min
Histogram: 35 2 1 0 0 1 0 0 0 1

Total # of neighbors = 100
Ave neighs/atom = 0.0547645
Neighbor list builds = 38525
Dangerous builds = 1359
write_dump all custom dump.atom_info_ac_* id type x y z radius vx vy vz density #
run 308641
Setting up run at Wed Nov 30 06:30:58 2022

Memory usage per processor = 964.609 Mbytes
    Step    Atoms         KinEng            CPU 
21604872     1826     0.55096601              0 
21913513     1802     0.77690588      4982.1543 
Loop time of 4982.15 on 40 procs for 308641 steps with 1802 atoms, finish time Wed Nov 30 07:54:00 2022


Pair  time (%) = 1.05785 (0.0212327)
Neigh time (%) = 474.097 (9.51591)
Comm  time (%) = 468.886 (9.4113)
Outpt time (%) = 0.00602775 (0.000120987)
Other time (%) = 4038.11 (81.0514)

Nlocal:    45.05 ave 362 max 0 min
Histogram: 30 2 0 2 3 0 1 0 1 1
Nghost:    4.8 ave 44 max 0 min
Histogram: 30 3 2 1 2 0 0 0 0 2
Neighs:    2.725 ave 48 max 0 min
Histogram: 33 2 3 1 0 0 0 0 0 1

Total # of neighbors = 109
Ave neighs/atom = 0.0604883
Neighbor list builds = 178057
Dangerous builds = 165021
write_dump all custom dump.atom_info_ac_* id type x y z radius vx vy vz density #
run 308641
Setting up run at Wed Nov 30 07:54:01 2022

Memory usage per processor = 964.609 Mbytes
    Step    Atoms         KinEng            CPU 
21913513     1802     0.77690588              0 
22222154     1768     0.41627288      4495.3477 
Loop time of 4495.36 on 40 procs for 308641 steps with 1768 atoms, finish time Wed Nov 30 09:08:56 2022


Pair  time (%) = 0.948442 (0.0210982)
Neigh time (%) = 356.214 (7.92403)
Comm  time (%) = 386.272 (8.59269)
Outpt time (%) = 0.0114324 (0.000254315)
Other time (%) = 3751.91 (83.4619)

Nlocal:    44.2 ave 354 max 0 min
Histogram: 30 2 0 4 0 0 1 1 1 1
Nghost:    3.975 ave 42 max 0 min
Histogram: 33 3 0 0 1 1 0 0 1 1
Neighs:    2.425 ave 28 max 0 min
Histogram: 32 2 2 2 0 0 0 0 0 2

Total # of neighbors = 97
Ave neighs/atom = 0.0548643
Neighbor list builds = 134046
Dangerous builds = 111840
write_dump all custom dump.atom_info_ac_* id type x y z radius vx vy vz density #
run 308641
Setting up run at Wed Nov 30 09:08:56 2022

Memory usage per processor = 964.609 Mbytes
    Step    Atoms         KinEng            CPU 
22222154     1768     0.41627288              0 
22530795     1735     0.58499223      3712.9808 
Loop time of 3712.99 on 40 procs for 308641 steps with 1735 atoms, finish time Wed Nov 30 10:10:49 2022


Pair  time (%) = 0.774128 (0.0208492)
Neigh time (%) = 174.292 (4.69411)
Comm  time (%) = 171.107 (4.60833)
Outpt time (%) = 0.0210129 (0.000565928)
Other time (%) = 3366.8 (90.6761)

Nlocal:    43.375 ave 353 max 0 min
Histogram: 30 2 0 4 0 1 1 1 0 1
Nghost:    4.425 ave 52 max 0 min
Histogram: 34 1 2 0 0 1 0 1 0 1
Neighs:    2.75 ave 44 max 0 min
Histogram: 33 4 1 0 0 0 1 0 0 1

Total # of neighbors = 110
Ave neighs/atom = 0.0634006
Neighbor list builds = 65446
Dangerous builds = 3715
write_dump all custom dump.atom_info_ac_* id type x y z radius vx vy vz density #
run 308641
Setting up run at Wed Nov 30 10:10:49 2022

Memory usage per processor = 964.609 Mbytes
    Step    Atoms         KinEng            CPU 
22530795     1735     0.58499223              0 
22839436     1706     0.48811554      3635.7112 
Loop time of 3635.71 on 40 procs for 308641 steps with 1706 atoms, finish time Wed Nov 30 11:11:25 2022


Pair  time (%) = 0.768666 (0.0211421)
Neigh time (%) = 155.86 (4.28692)
Comm  time (%) = 147.178 (4.04812)
Outpt time (%) = 0.000542557 (1.4923e-05)
Other time (%) = 3331.9 (91.6438)

Nlocal:    42.65 ave 350 max 0 min
Histogram: 30 2 2 1 1 0 2 1 0 1
Nghost:    3.95 ave 42 max 0 min
Histogram: 31 3 2 2 0 0 0 1 0 1
Neighs:    2.475 ave 38 max 0 min
Histogram: 34 3 0 1 0 0 0 1 0 1

Total # of neighbors = 99
Ave neighs/atom = 0.0580305
Neighbor list builds = 58497
Dangerous builds = 3799
write_dump all custom dump.atom_info_ac_* id type x y z radius vx vy vz density #
run 308641
Setting up run at Wed Nov 30 11:11:25 2022

Memory usage per processor = 964.609 Mbytes
    Step    Atoms         KinEng            CPU 
22839436     1706     0.48811554              0 
23148077     1663      0.4564255      3670.8196 
Loop time of 3670.82 on 40 procs for 308641 steps with 1663 atoms, finish time Wed Nov 30 12:12:36 2022


Pair  time (%) = 0.768167 (0.0209263)
Neigh time (%) = 166.861 (4.54561)
Comm  time (%) = 169.858 (4.62726)
Outpt time (%) = 0.000572362 (1.55922e-05)
Other time (%) = 3333.33 (90.8062)

Nlocal:    41.575 ave 332 max 0 min
Histogram: 30 2 0 3 1 1 1 0 1 1
Nghost:    3.75 ave 37 max 0 min
Histogram: 30 4 2 1 1 0 0 0 1 1
Neighs:    2.275 ave 41 max 0 min
Histogram: 36 2 0 0 0 0 1 0 0 1

Total # of neighbors = 91
Ave neighs/atom = 0.0547204
Neighbor list builds = 62629
Dangerous builds = 12004
write_dump all custom dump.atom_info_ac_* id type x y z radius vx vy vz density #
run 308641
Setting up run at Wed Nov 30 12:12:36 2022

Memory usage per processor = 964.609 Mbytes
    Step    Atoms         KinEng            CPU 
23148077     1663      0.4564255              0 
23456718     1633     0.48748297      3390.8982 
Loop time of 3390.9 on 40 procs for 308641 steps with 1633 atoms, finish time Wed Nov 30 13:09:07 2022


Pair  time (%) = 0.739316 (0.0218029)
Neigh time (%) = 103.198 (3.04338)
Comm  time (%) = 107.888 (3.18169)
Outpt time (%) = 0.000533555 (1.57349e-05)
Other time (%) = 3179.07 (93.7531)

Nlocal:    40.825 ave 317 max 0 min
Histogram: 30 2 2 1 0 1 1 0 2 1
Nghost:    4.125 ave 45 max 0 min
Histogram: 30 4 3 1 0 0 0 1 0 1
Neighs:    2.3 ave 43 max 0 min
Histogram: 36 1 0 1 1 0 0 0 0 1

Total # of neighbors = 92
Ave neighs/atom = 0.056338
Neighbor list builds = 38709
Dangerous builds = 1655
write_dump all custom dump.atom_info_ac_* id type x y z radius vx vy vz density #
run 308641
Setting up run at Wed Nov 30 13:09:07 2022

Memory usage per processor = 964.609 Mbytes
    Step    Atoms         KinEng            CPU 
23456718     1633     0.48748297              0 
23765359     1608     0.43333156      3508.4681 
Loop time of 3508.47 on 40 procs for 308641 steps with 1608 atoms, finish time Wed Nov 30 14:07:36 2022


Pair  time (%) = 0.753788 (0.0214848)
Neigh time (%) = 131.568 (3.75002)
Comm  time (%) = 132.068 (3.76426)
Outpt time (%) = 0.000482542 (1.37536e-05)
Other time (%) = 3244.08 (92.4642)

Nlocal:    40.2 ave 319 max 0 min
Histogram: 30 2 2 0 2 1 0 0 2 1
Nghost:    4.05 ave 39 max 0 min
Histogram: 31 3 1 1 2 0 0 0 0 2
Neighs:    2.375 ave 48 max 0 min
Histogram: 36 1 0 2 0 0 0 0 0 1

Total # of neighbors = 95
Ave neighs/atom = 0.0590796
Neighbor list builds = 49453
Dangerous builds = 6293
write_dump all custom dump.atom_info_ac_* id type x y z radius vx vy vz density #
run 308641
Setting up run at Wed Nov 30 14:07:36 2022

Memory usage per processor = 964.609 Mbytes
    Step    Atoms         KinEng            CPU 
23765359     1608     0.43333156              0 
24074000     1577     0.50884358      3598.3399 
Loop time of 3598.34 on 40 procs for 308641 steps with 1577 atoms, finish time Wed Nov 30 15:07:34 2022


Pair  time (%) = 0.763328 (0.0212133)
Neigh time (%) = 149.448 (4.15325)
Comm  time (%) = 137.848 (3.83089)
Outpt time (%) = 0.000759977 (2.11202e-05)
Other time (%) = 3310.28 (91.9946)

Nlocal:    39.425 ave 305 max 0 min
Histogram: 30 2 2 2 0 0 0 1 2 1
Nghost:    4.525 ave 41 max 0 min
Histogram: 29 5 2 1 0 0 0 1 1 1
Neighs:    2.325 ave 45 max 0 min
Histogram: 36 2 0 0 0 0 1 0 0 1

Total # of neighbors = 93
Ave neighs/atom = 0.0589727
Neighbor list builds = 56216
Dangerous builds = 3854
write_dump all custom dump.atom_info_ac_* id type x y z radius vx vy vz density #
run 308641
Setting up run at Wed Nov 30 15:07:34 2022

Memory usage per processor = 964.609 Mbytes
    Step    Atoms         KinEng            CPU 
24074000     1577     0.50884358              0 
24382641     1548     0.45120416       3615.439 
Loop time of 3615.44 on 40 procs for 308641 steps with 1548 atoms, finish time Wed Nov 30 16:07:50 2022


Pair  time (%) = 0.756463 (0.0209231)
Neigh time (%) = 153.883 (4.25628)
Comm  time (%) = 139.627 (3.86195)
Outpt time (%) = 0.000567719 (1.57026e-05)
Other time (%) = 3321.17 (91.8608)

Nlocal:    38.7 ave 289 max 0 min
Histogram: 30 2 2 1 0 1 0 1 1 2
Nghost:    4.1 ave 37 max 0 min
Histogram: 30 4 1 2 0 1 0 0 0 2
Neighs:    2.475 ave 42 max 0 min
Histogram: 37 0 0 0 1 0 0 1 0 1

Total # of neighbors = 99
Ave neighs/atom = 0.0639535
Neighbor list builds = 57867
Dangerous builds = 4909
write_dump all custom dump.atom_info_ac_* id type x y z radius vx vy vz density #
run 308641
Setting up run at Wed Nov 30 16:07:50 2022

Memory usage per processor = 964.609 Mbytes
    Step    Atoms         KinEng            CPU 
24382641     1548     0.45120416              0 
24691282     1517     0.71223301      3615.5657 
Loop time of 3615.57 on 40 procs for 308641 steps with 1517 atoms, finish time Wed Nov 30 17:08:05 2022


Pair  time (%) = 0.766445 (0.0211985)
Neigh time (%) = 156.034 (4.31561)
Comm  time (%) = 150.638 (4.16636)
Outpt time (%) = 0.000474875 (1.31342e-05)
[...]
55555478      395     0.22073863      3165.7544 
Loop time of 3165.75 on 40 procs for 308641 steps with 395 atoms, finish time Sun Dec  4 14:33:36 2022


Pair  time (%) = 0.583056 (0.0184176)
Neigh time (%) = 53.7469 (1.69776)
Comm  time (%) = 29.7249 (0.938953)
Outpt time (%) = 0.0127048 (0.000401319)
Other time (%) = 3081.69 (97.3445)

Nlocal:    9.875 ave 79 max 0 min
Histogram: 31 1 0 2 2 2 0 0 1 1
Nghost:    0.9 ave 7 max 0 min
Histogram: 27 7 0 0 2 1 0 1 0 2
Neighs:    0.175 ave 4 max 0 min
Histogram: 36 0 3 0 0 0 0 0 0 1

Total # of neighbors = 7
Ave neighs/atom = 0.0177215
Neighbor list builds = 20410
Dangerous builds = 1088
write_dump all custom dump.atom_info_ac_* id type x y z radius vx vy vz density #
run 308641
Setting up run at Sun Dec  4 14:33:36 2022

Memory usage per processor = 964.609 Mbytes
    Step    Atoms         KinEng            CPU 
55555478      395     0.22073863              0 
55864119      392     0.19327148      3137.8196 
Loop time of 3137.82 on 40 procs for 308641 steps with 392 atoms, finish time Sun Dec  4 15:25:54 2022


Pair  time (%) = 0.5816 (0.0185352)
Neigh time (%) = 51.7881 (1.65045)
Comm  time (%) = 31.6188 (1.00767)
Outpt time (%) = 0.000563753 (1.79664e-05)
Other time (%) = 3053.83 (97.3233)

Nlocal:    9.8 ave 79 max 0 min
Histogram: 31 1 0 1 2 3 0 0 1 1
Nghost:    0.75 ave 6 max 0 min
Histogram: 29 4 0 1 0 3 1 0 1 1
Neighs:    0.1 ave 2 max 0 min
Histogram: 37 0 0 0 0 2 0 0 0 1

Total # of neighbors = 4
Ave neighs/atom = 0.0102041
Neighbor list builds = 19665
Dangerous builds = 453
write_dump all custom dump.atom_info_ac_* id type x y z radius vx vy vz density #
run 308641
Setting up run at Sun Dec  4 15:25:54 2022

Memory usage per processor = 964.609 Mbytes
    Step    Atoms         KinEng            CPU 
55864119      392     0.19327148              0 
56172760      390     0.20515855      3326.3403 
Loop time of 3326.34 on 40 procs for 308641 steps with 390 atoms, finish time Sun Dec  4 16:21:21 2022


Pair  time (%) = 0.583355 (0.0175374)
Neigh time (%) = 48.2672 (1.45106)
Comm  time (%) = 26.5701 (0.798777)
Outpt time (%) = 0.000490609 (1.47492e-05)
Other time (%) = 3250.92 (97.7326)

Nlocal:    9.75 ave 77 max 0 min
Histogram: 31 1 0 1 3 1 0 1 1 1
Nghost:    1 ave 7 max 0 min
Histogram: 29 2 1 0 4 0 0 2 0 2
Neighs:    0.1 ave 2 max 0 min
Histogram: 37 0 0 0 0 2 0 0 0 1

Total # of neighbors = 4
Ave neighs/atom = 0.0102564
Neighbor list builds = 18327
Dangerous builds = 1
write_dump all custom dump.atom_info_ac_* id type x y z radius vx vy vz density #
run 308641
Setting up run at Sun Dec  4 16:21:21 2022

Memory usage per processor = 964.609 Mbytes
    Step    Atoms         KinEng            CPU 
56172760      390     0.20515855              0 
56481401      387     0.20434941      3149.7445 
Loop time of 3149.74 on 40 procs for 308641 steps with 387 atoms, finish time Sun Dec  4 17:13:50 2022


Pair  time (%) = 0.579202 (0.0183888)
Neigh time (%) = 47.9328 (1.5218)
Comm  time (%) = 29.5534 (0.938279)
Outpt time (%) = 0.000286151 (9.08489e-06)
Other time (%) = 3071.68 (97.5215)

Nlocal:    9.675 ave 75 max 0 min
Histogram: 31 1 0 0 5 0 1 0 1 1
Nghost:    0.85 ave 7 max 0 min
Histogram: 29 4 2 0 1 1 0 1 0 2
Neighs:    0.15 ave 2 max 0 min
Histogram: 36 0 0 0 0 2 0 0 0 2

Total # of neighbors = 6
Ave neighs/atom = 0.0155039
Neighbor list builds = 18187
Dangerous builds = 0
write_dump all custom dump.atom_info_ac_* id type x y z radius vx vy vz density #
run 308641
Setting up run at Sun Dec  4 17:13:50 2022

Memory usage per processor = 964.609 Mbytes
    Step    Atoms         KinEng            CPU 
56481401      387     0.20434941              0 
56790042      386     0.21781005      3229.8681 
Loop time of 3229.87 on 40 procs for 308641 steps with 386 atoms, finish time Sun Dec  4 18:07:40 2022


Pair  time (%) = 0.590292 (0.018276)
Neigh time (%) = 72.4746 (2.24389)
Comm  time (%) = 43.6047 (1.35005)
Outpt time (%) = 0.00598742 (0.000185377)
Other time (%) = 3113.19 (96.3876)

Nlocal:    9.65 ave 76 max 0 min
Histogram: 31 1 0 2 2 1 1 0 1 1
Nghost:    1 ave 9 max 0 min
Histogram: 28 4 2 2 1 1 0 0 1 1
Neighs:    0.025 ave 1 max 0 min
Histogram: 39 0 0 0 0 0 0 0 0 1

Total # of neighbors = 1
Ave neighs/atom = 0.00259067
Neighbor list builds = 27536
Dangerous builds = 680
write_dump all custom dump.atom_info_ac_* id type x y z radius vx vy vz density #
run 308641
Setting up run at Sun Dec  4 18:07:40 2022

Memory usage per processor = 964.609 Mbytes
    Step    Atoms         KinEng            CPU 
56790042      386     0.21781005              0 
57098683      379     0.25006713      3356.7554 
Loop time of 3356.76 on 40 procs for 308641 steps with 379 atoms, finish time Sun Dec  4 19:03:37 2022


Pair  time (%) = 0.595444 (0.0177387)
Neigh time (%) = 73.1819 (2.18014)
Comm  time (%) = 43.4862 (1.29548)
Outpt time (%) = 0.000549482 (1.63695e-05)
Other time (%) = 3239.49 (96.5066)

Nlocal:    9.475 ave 75 max 0 min
Histogram: 32 0 0 1 4 0 1 0 1 1
Nghost:    0.9 ave 10 max 0 min
Histogram: 29 4 3 1 0 1 0 0 1 1
Neighs:    0.1 ave 1 max 0 min
Histogram: 36 0 0 0 0 0 0 0 0 4

Total # of neighbors = 4
Ave neighs/atom = 0.0105541
Neighbor list builds = 27773
Dangerous builds = 439
write_dump all custom dump.atom_info_ac_* id type x y z radius vx vy vz density #
run 308641
Setting up run at Sun Dec  4 19:03:37 2022

Memory usage per processor = 964.609 Mbytes
    Step    Atoms         KinEng            CPU 
57098683      379     0.25006713              0 
57407324      374     0.24963646      3146.3455 
Loop time of 3146.35 on 40 procs for 308641 steps with 374 atoms, finish time Sun Dec  4 19:56:04 2022


Pair  time (%) = 0.575214 (0.018282)
Neigh time (%) = 51.1727 (1.62642)
Comm  time (%) = 37.1837 (1.18181)
Outpt time (%) = 0.000247571 (7.86853e-06)
Other time (%) = 3057.41 (97.1735)

Nlocal:    9.35 ave 72 max 0 min
Histogram: 32 0 1 2 1 1 0 0 1 2
Nghost:    0.975 ave 10 max 0 min
Histogram: 28 6 2 1 0 0 0 0 2 1
Neighs:    0.225 ave 4 max 0 min
Histogram: 36 0 1 0 0 2 0 0 0 1

Total # of neighbors = 9
Ave neighs/atom = 0.0240642
Neighbor list builds = 19434
Dangerous builds = 490
write_dump all custom dump.atom_info_ac_* id type x y z radius vx vy vz density #
run 308641
Setting up run at Sun Dec  4 19:56:04 2022

Memory usage per processor = 964.609 Mbytes
    Step    Atoms         KinEng            CPU 
57407324      374     0.24963646              0 
57715965      368     0.41927662      3112.6237 
Loop time of 3112.62 on 40 procs for 308641 steps with 368 atoms, finish time Sun Dec  4 20:47:56 2022


Pair  time (%) = 0.575095 (0.0184762)
Neigh time (%) = 46.0615 (1.47983)
Comm  time (%) = 24.5596 (0.789031)
Outpt time (%) = 0.000568001 (1.82483e-05)
Other time (%) = 3041.43 (97.7126)

Nlocal:    9.2 ave 70 max 0 min
Histogram: 32 0 0 1 2 1 2 0 0 2
Nghost:    0.95 ave 9 max 0 min
Histogram: 28 5 2 2 0 0 1 0 1 1
Neighs:    0.15 ave 2 max 0 min
Histogram: 36 0 0 0 0 2 0 0 0 2

Total # of neighbors = 6
Ave neighs/atom = 0.0163043
Neighbor list builds = 17489
Dangerous builds = 689
write_dump all custom dump.atom_info_ac_* id type x y z radius vx vy vz density #
run 308641
Setting up run at Sun Dec  4 20:47:56 2022

Memory usage per processor = 964.609 Mbytes
    Step    Atoms         KinEng            CPU 
57715965      368     0.41927662              0 
58024606      365     0.46081316      4251.3501 
Loop time of 4251.35 on 40 procs for 308641 steps with 365 atoms, finish time Sun Dec  4 21:58:48 2022


Pair  time (%) = 0.584434 (0.013747)
Neigh time (%) = 55.0225 (1.29424)
Comm  time (%) = 27.6947 (0.651433)
Outpt time (%) = 0.000515006 (1.21139e-05)
Other time (%) = 4168.05 (98.0406)

Nlocal:    9.125 ave 70 max 0 min
Histogram: 32 0 1 0 3 1 0 1 0 2
Nghost:    1.05 ave 11 max 0 min
Histogram: 32 2 2 1 0 0 1 1 0 1
Neighs:    0.15 ave 2 max 0 min
Histogram: 36 0 0 0 0 2 0 0 0 2

Total # of neighbors = 6
Ave neighs/atom = 0.0164384
Neighbor list builds = 20898
Dangerous builds = 0
write_dump all custom dump.atom_info_ac_* id type x y z radius vx vy vz density #
run 308641
Setting up run at Sun Dec  4 21:58:48 2022

Memory usage per processor = 964.609 Mbytes
    Step    Atoms         KinEng            CPU 
58024606      365     0.46081316              0 
58333247      361       0.277199      3320.0426 
Loop time of 3320.04 on 40 procs for 308641 steps with 361 atoms, finish time Sun Dec  4 22:54:08 2022


Pair  time (%) = 0.579502 (0.0174546)
Neigh time (%) = 66.9161 (2.01552)
Comm  time (%) = 41.7008 (1.25603)
Outpt time (%) = 0.000582095 (1.75328e-05)
Other time (%) = 3210.85 (96.711)

Nlocal:    9.025 ave 72 max 0 min
Histogram: 31 1 0 1 4 0 1 0 1 1
Nghost:    0.975 ave 10 max 0 min
Histogram: 28 5 2 1 1 0 1 1 0 1
Neighs:    0.1 ave 1 max 0 min
Histogram: 36 0 0 0 0 0 0 0 0 4

Total # of neighbors = 4
Ave neighs/atom = 0.0110803
Neighbor list builds = 25417
Dangerous builds = 2070
write_dump all custom dump.atom_info_ac_* id type x y z radius vx vy vz density #
run 308641
Setting up run at Sun Dec  4 22:54:08 2022

Memory usage per processor = 964.609 Mbytes
    Step    Atoms         KinEng            CPU 
58333247      361       0.277199              0 
58641888      357     0.23863059      3248.1186 
Loop time of 3248.12 on 40 procs for 308641 steps with 357 atoms, finish time Sun Dec  4 23:48:16 2022


Pair  time (%) = 0.573837 (0.0176668)
Neigh time (%) = 48.378 (1.48942)
Comm  time (%) = 26.9983 (0.831198)
Outpt time (%) = 0.000557957 (1.71778e-05)
Other time (%) = 3172.17 (97.6617)

Nlocal:    8.925 ave 68 max 0 min
Histogram: 31 1 0 2 0 3 1 0 0 2
Nghost:    1 ave 8 max 0 min
Histogram: 28 3 2 1 0 3 2 0 0 1
Neighs:    0.175 ave 2 max 0 min
Histogram: 35 0 0 0 0 3 0 0 0 2

Total # of neighbors = 7
Ave neighs/atom = 0.0196078
Neighbor list builds = 18393
Dangerous builds = 1
write_dump all custom dump.atom_info_ac_* id type x y z radius vx vy vz density #
run 308641
Setting up run at Sun Dec  4 23:48:16 2022

Memory usage per processor = 964.609 Mbytes
    Step    Atoms         KinEng            CPU 
58641888      357     0.23863059              0 
58950529      355      0.3132201      3143.2401 
Loop time of 3143.24 on 40 procs for 308641 steps with 355 atoms, finish time Mon Dec  5 00:40:39 2022


Pair  time (%) = 0.573372 (0.0182414)
Neigh time (%) = 51.605 (1.64178)
Comm  time (%) = 36.8109 (1.17111)
Outpt time (%) = 0.000496941 (1.58098e-05)
Other time (%) = 3054.25 (97.1689)

Nlocal:    8.875 ave 67 max 0 min
Histogram: 31 1 0 1 2 3 0 0 0 2
Nghost:    1.025 ave 8 max 0 min
Histogram: 28 3 3 2 0 0 1 1 1 1
Neighs:    0.075 ave 3 max 0 min
Histogram: 39 0 0 0 0 0 0 0 0 1

Total # of neighbors = 3
Ave neighs/atom = 0.0084507
Neighbor list builds = 19618
Dangerous builds = 16
write_dump all custom dump.atom_info_ac_* id type x y z radius vx vy vz density #
run 308641
Setting up run at Mon Dec  5 00:40:40 2022

Memory usage per processor = 964.609 Mbytes
    Step    Atoms         KinEng            CPU 
58950529      355      0.3132201              0 
59259170      348      0.2345174      3149.9797 
Loop time of 3149.98 on 40 procs for 308641 steps with 348 atoms, finish time Mon Dec  5 01:33:10 2022


Pair  time (%) = 0.571687 (0.0181489)
Neigh time (%) = 55.9629 (1.77661)
Comm  time (%) = 41.3384 (1.31234)
Outpt time (%) = 0.00053238 (1.69011e-05)
Other time (%) = 3052.11 (96.8929)

Nlocal:    8.7 ave 68 max 0 min
Histogram: 31 1 0 2 2 1 1 0 0 2
Nghost:    0.95 ave 7 max 0 min
Histogram: 27 5 3 0 2 0 0 0 0 3
Neighs:    0.15 ave 2 max 0 min
Histogram: 35 0 0 0 0 4 0 0 0 1

Total # of neighbors = 6
Ave neighs/atom = 0.0172414
Neighbor list builds = 21261
Dangerous builds = 581
write_dump all custom dump.atom_info_ac_* id type x y z radius vx vy vz density #
run 308641
Setting up run at Mon Dec  5 01:33:10 2022

Memory usage per processor = 964.609 Mbytes
    Step    Atoms         KinEng            CPU 
59259170      348      0.2345174              0 
59567811      344     0.23264488      3186.7273 
Loop time of 3186.73 on 40 procs for 308641 steps with 344 atoms, finish time Mon Dec  5 02:26:16 2022


Pair  time (%) = 0.580713 (0.0182229)
Neigh time (%) = 63.4553 (1.99124)
Comm  time (%) = 43.6276 (1.36904)
Outpt time (%) = 0.000279996 (8.78632e-06)
Other time (%) = 3079.06 (96.6215)

Nlocal:    8.6 ave 70 max 0 min
Histogram: 31 1 0 2 3 1 0 0 1 1
Nghost:    1.1 ave 11 max 0 min
Histogram: 32 2 0 2 2 0 1 0 0 1
Neighs:    0.1 ave 2 max 0 min
Histogram: 37 0 0 0 0 2 0 0 0 1

Total # of neighbors = 4
Ave neighs/atom = 0.0116279
Neighbor list builds = 24114
Dangerous builds = 1
write_dump all custom dump.atom_info_ac_* id type x y z radius vx vy vz density #
run 308641
Setting up run at Mon Dec  5 02:26:16 2022

Memory usage per processor = 964.609 Mbytes
    Step    Atoms         KinEng            CPU 
59567811      344     0.23264488              0 
59876452      338     0.29087711      3153.2905 
Loop time of 3153.29 on 40 procs for 308641 steps with 338 atoms, finish time Mon Dec  5 03:18:50 2022


Pair  time (%) = 0.577776 (0.018323)
Neigh time (%) = 55.3538 (1.75543)
Comm  time (%) = 34.285 (1.08728)
Outpt time (%) = 0.000492662 (1.56238e-05)
Other time (%) = 3063.07 (97.139)

Nlocal:    8.45 ave 72 max 0 min
Histogram: 31 2 0 1 1 2 1 0 1 1
Nghost:    1.05 ave 10 max 0 min
Histogram: 27 6 1 2 0 1 1 1 0 1
Neighs:    0.05 ave 1 max 0 min
Histogram: 38 0 0 0 0 0 0 0 0 2

Total # of neighbors = 2
Ave neighs/atom = 0.00591716
Neighbor list builds = 21035
Dangerous builds = 308
write_dump all custom dump.atom_info_ac_* id type x y z radius vx vy vz density #
run 308641
Setting up run at Mon Dec  5 03:18:50 2022

Memory usage per processor = 964.609 Mbytes
    Step    Atoms         KinEng            CPU 
59876452      338     0.29087711              0 
60185093      334     0.27019398      3188.1128 
Loop time of 3188.11 on 40 procs for 308641 steps with 334 atoms, finish time Mon Dec  5 04:11:58 2022


Pair  time (%) = 0.578976 (0.0181605)
Neigh time (%) = 62.3981 (1.95721)
Comm  time (%) = 43.7074 (1.37095)
Outpt time (%) = 0.00044541 (1.3971e-05)
Other time (%) = 3081.43 (96.6537)

Nlocal:    8.35 ave 71 max 0 min
Histogram: 32 0 0 3 1 2 0 0 1 1
Nghost:    0.85 ave 8 max 0 min
Histogram: 28 4 4 1 0 0 1 1 0 1
Neighs:    0.1 ave 2 max 0 min
Histogram: 37 0 0 0 0 2 0 0 0 1

Total # of neighbors = 4
Ave neighs/atom = 0.011976
Neighbor list builds = 23712
Dangerous builds = 302
write_dump all custom dump.atom_info_ac_* id type x y z radius vx vy vz density #
run 308641
Setting up run at Mon Dec  5 04:11:58 2022

Memory usage per processor = 964.609 Mbytes
    Step    Atoms         KinEng            CPU 
60185093      334     0.27019398              0 
60493734      332     0.23146025      3163.4413 
Loop time of 3163.44 on 40 procs for 308641 steps with 332 atoms, finish time Mon Dec  5 05:04:42 2022


Pair  time (%) = 0.580293 (0.0183437)
Neigh time (%) = 59.019 (1.86566)
Comm  time (%) = 42.8695 (1.35515)
Outpt time (%) = 0.000423606 (1.33907e-05)
Other time (%) = 3060.97 (96.7608)

Nlocal:    8.3 ave 69 max 0 min
Histogram: 31 1 0 3 1 1 1 0 1 1
Nghost:    0.9 ave 8 max 0 min
Histogram: 26 5 3 4 0 0 1 0 0 1
Neighs:    0.175 ave 3 max 0 min
Histogram: 36 0 0 2 0 0 1 0 0 1

Total # of neighbors = 7
Ave neighs/atom = 0.0210843
Neighbor list builds = 22446
Dangerous builds = 0
write_dump all custom dump.atom_info_ac_* id type x y z radius vx vy vz density #
run 308641
Setting up run at Mon Dec  5 05:04:42 2022

Memory usage per processor = 964.609 Mbytes
    Step    Atoms         KinEng            CPU 
60493734      332     0.23146025              0 
60802375      322     0.81618048      3121.8465 
Loop time of 3121.85 on 40 procs for 308641 steps with 322 atoms, finish time Mon Dec  5 05:56:43 2022


Pair  time (%) = 0.569045 (0.0182278)
Neigh time (%) = 48.4513 (1.55201)
Comm  time (%) = 37.0237 (1.18596)
Outpt time (%) = 0.000653604 (2.09365e-05)
Other time (%) = 3035.8 (97.2438)

Nlocal:    8.05 ave 69 max 0 min
Histogram: 31 1 1 3 0 1 1 0 1 1
Nghost:    0.9 ave 11 max 0 min
Histogram: 33 2 1 2 0 1 0 0 0 1
Neighs:    0.125 ave 2 max 0 min
Histogram: 36 0 0 0 0 3 0 0 0 1

Total # of neighbors = 5
Ave neighs/atom = 0.015528
Neighbor list builds = 18423
Dangerous builds = 1168
write_dump all custom dump.atom_info_ac_* id type x y z radius vx vy vz density #
run 308641
Setting up run at Mon Dec  5 05:56:44 2022

Memory usage per processor = 964.609 Mbytes
    Step    Atoms         KinEng            CPU 
60802375      322     0.81618048              0 
61111016      317     0.17284666      3142.1688 
Loop time of 3142.17 on 40 procs for 308641 steps with 317 atoms, finish time Mon Dec  5 06:49:06 2022


Pair  time (%) = 0.564067 (0.0179515)
Neigh time (%) = 51.9642 (1.65377)
Comm  time (%) = 33.4813 (1.06555)
Outpt time (%) = 0.0130202 (0.00041437)
Other time (%) = 3056.15 (97.2623)

Nlocal:    7.925 ave 63 max 0 min
Histogram: 31 1 2 1 0 0 3 0 0 2
Nghost:    1.125 ave 10 max 0 min
Histogram: 30 2 2 0 1 0 3 1 0 1
Neighs:    0.075 ave 2 max 0 min
Histogram: 38 0 0 0 0 1 0 0 0 1

Total # of neighbors = 3
Ave neighs/atom = 0.00946372
Neighbor list builds = 19760
Dangerous builds = 0
write_dump all custom dump.atom_info_ac_* id type x y z radius vx vy vz density #
run 308641
Setting up run at Mon Dec  5 06:49:06 2022

Memory usage per processor = 964.609 Mbytes
    Step    Atoms         KinEng            CPU 
61111016      317     0.17284666              0 
61419657      312     0.23097082      3124.2858 
Loop time of 3124.29 on 40 procs for 308641 steps with 312 atoms, finish time Mon Dec  5 07:41:10 2022


Pair  time (%) = 0.560943 (0.0179543)
Neigh time (%) = 49.3258 (1.57879)
Comm  time (%) = 36.044 (1.15367)
Outpt time (%) = 0.000331357 (1.06058e-05)
Other time (%) = 3038.36 (97.2496)

Nlocal:    7.8 ave 62 max 0 min
Histogram: 31 1 0 1 3 2 0 0 0 2
Nghost:    0.975 ave 7 max 0 min
Histogram: 28 2 3 0 4 0 0 0 2 1
Neighs:    0.025 ave 1 max 0 min
Histogram: 39 0 0 0 0 0 0 0 0 1

Total # of neighbors = 1
Ave neighs/atom = 0.00320513
Neighbor list builds = 18759
Dangerous builds = 256
write_dump all custom dump.atom_info_ac_* id type x y z radius vx vy vz density #
run 308641
Setting up run at Mon Dec  5 07:41:10 2022

Memory usage per processor = 964.609 Mbytes
    Step    Atoms         KinEng            CPU 
61419657      312     0.23097082              0 
61728298      311     0.18742829      3125.1835 
Loop time of 3125.18 on 40 procs for 308641 steps with 311 atoms, finish time Mon Dec  5 08:33:16 2022


Pair  time (%) = 0.558499 (0.0178709)
Neigh time (%) = 48.7181 (1.55889)
Comm  time (%) = 38.7036 (1.23844)
Outpt time (%) = 0.000537397 (1.71957e-05)
Other time (%) = 3037.2 (97.1848)

Nlocal:    7.775 ave 64 max 0 min
Histogram: 31 1 1 1 2 2 0 0 1 1
Nghost:    1.1 ave 11 max 0 min
Histogram: 28 8 1 1 0 0 0 1 0 1
Neighs:    0.05 ave 2 max 0 min
Histogram: 39 0 0 0 0 0 0 0 0 1

Total # of neighbors = 2
Ave neighs/atom = 0.00643087
Neighbor list builds = 18519
Dangerous builds = 234
write_dump all custom dump.atom_info_ac_* id type x y z radius vx vy vz density #
run 96
Setting up run at Mon Dec  5 08:33:16 2022

Memory usage per processor = 964.609 Mbytes
    Step    Atoms         KinEng            CPU 
61728298      311     0.18742829              0 
61728394      311     0.18738886     0.92833555 
Loop time of 0.928348 on 40 procs for 96 steps with 311 atoms, finish time Mon Dec  5 08:33:17 2022


Pair  time (%) = 0.000172962 (0.0186312)
Neigh time (%) = 0.0131515 (1.41665)
Comm  time (%) = 0.0114189 (1.23002)
Outpt time (%) = 0.00012424 (0.0133829)
Other time (%) = 0.903481 (97.3213)

Nlocal:    7.775 ave 64 max 0 min
Histogram: 31 1 1 1 2 2 0 0 1 1
Nghost:    1.125 ave 11 max 0 min
Histogram: 28 7 2 1 0 0 0 1 0 1
Neighs:    0.05 ave 2 max 0 min
Histogram: 39 0 0 0 0 0 0 0 0 1

Total # of neighbors = 2
Ave neighs/atom = 0.00643087
Neighbor list builds = 5
Dangerous builds = 0
write_dump all custom dump.atom_info_ac_* id type x y z radius vx vy vz density #
