ITEM: TIMESTEP
10493762
ITEM: NUMBER OF ATOMS
345
ITEM: BOX BOUNDS ff ff ff
-0.15 0.15
-0.15 0.15
-0.15 0.15
ITEM: ATOMS id type x y z radius vx vy vz density 
306 1 -0.0629755 -0.0161408 -0.0260922 0.000847 -0.0483461 -0.436219 0.116594 2650 
189 1 -0.0652203 -0.00707925 -0.0198347 0.000847 -3.36309 -6.81375 11.0326 2650 
501 1 -0.00524074 -0.000867954 -0.0115034 0.000847 -0.000751241 -0.0161231 0.00965427 2650 
164 1 -0.00958673 -0.0026167 -0.00968079 0.000847 -0.000888007 -0.013126 -0.00103349 2650 
51 1 -0.0179914 -0.00496907 -0.00934869 0.000233 -2.18551 -0.291828 -1.09491 2650 
483 1 -0.012384 -0.00339265 -0.00802342 8.4e-05 -1.06431 -0.0356362 -0.689554 2650 
468 1 -0.0107114 -0.00212251 -0.00937361 0.000233 -0.00176601 -0.0124053 -0.00189406 2650 
289 1 -0.0120926 -0.00117156 -0.00829738 0.001312 0.00112953 -0.00972815 0.0011596 2650 
336 1 -0.000699 -0.00023995 -0.008095 0.000233 0 -0.01175 0 2650 
266 1 -0.0121007 -0.00269056 -0.00676167 0.000847 -0.00479114 -0.0116936 0.000425943 2650 
287 1 -0.00831206 -0.0019238 -0.00673636 0.000233 -0.0111027 -0.0134129 0.00953401 2650 
248 1 -0.0102513 -0.000602363 -0.00676713 0.000233 0.0126334 -0.00646132 0.00219922 2650 
32 1 -0.00644689 -0.00229489 -0.00571124 0.000847 -0.0412313 -0.0207273 0.0416011 2650 
455 1 -0.00733251 -0.000659692 -0.00542904 0.000233 -0.00547798 -0.00773272 0.0139802 2650 
286 1 -0.016281 -0.00311395 -0.003576 0.000233 0 -0.01175 0 2650 
84 1 -0.004923 -0.00314095 -0.002038 0.000847 0 -0.01175 0 2650 
201 1 -0.00588273 -0.00168679 -0.000819593 0.000847 -0.000300803 -0.0150209 0.00639832 2650 
505 1 -0.0137438 -0.00035155 0.000966275 0.000233 -0.00378522 -0.00213289 0.00845565 2650 
364 1 -0.0139 -0.00215895 0.002152 0.000233 0 -0.01175 0 2650 
323 1 -0.008651 -0.00282095 0.002916 0.000233 0 -0.01175 0 2650 
441 1 -0.014312 -0.00268295 0.004679 0.000233 0 -0.01175 0 2650 
302 1 -0.01139 -0.00298795 0.00396 0.001312 0 -0.01175 0 2650 
206 1 -0.002945 -0.00201295 0.003686 0.000233 0 -0.01175 0 2650 
316 1 -0.00919635 -0.00151131 0.00472583 0.000847 0.0130194 -0.0292987 0.0342531 2650 
270 1 -0.0075419 -0.000379747 0.00323481 0.000233 -0.0377887 -0.0230306 0.00455896 2650 
274 1 -0.005863 -0.00290795 0.005228 0.000233 0 -0.01175 0 2650 
431 1 -0.007173 -0.00063895 0.006023 8.4e-05 0 -0.01175 0 2650 
384 1 -8.08175e-05 -0.00021557 0.00553367 0.000847 0.00453983 1.76909e-05 0.0213336 2650 
96 1 -7.1e-05 -0.00144795 0.006733 0.000847 0 -0.01175 0 2650 
41 1 -0.008377 -0.00263395 0.009542 8.4e-05 0 -0.01175 0 2650 
259 1 -0.007193 -0.00260195 0.011052 0.000233 0 -0.01175 0 2650 
176 1 -0.003497 -0.00060795 0.009518 0.000847 0 -0.01175 0 2650 
195 1 -0.00679013 -0.00202535 0.0139761 0.000233 0.0321105 -0.0130954 0.0347571 2650 
419 1 -0.00307769 -0.00297128 0.0152578 0.001312 -0.00662059 -0.0146696 -0.000948716 2650 
311 1 -0.00424086 -0.00116094 0.0159455 0.000233 -0.00566322 -0.0102297 0.000656674 2650 
26 1 -0.0294838 -0.0017109 0.0264448 0.000233 -35.7668 -0.729972 5.23053 2650 
264 1 -0.0493165 -0.0230539 0.0470495 0.000847 -9.61571 4.20215 -10.0707 2650 
397 1 -0.0253826 -0.0334939 0.05937 0.000847 33.6119 -29.893 -25.687 2650 
246 1 -0.00166173 0.00476883 -0.0159233 0.000233 0.00894914 -0.00419042 0.0116887 2650 
177 1 -0.00161517 0.0210718 -0.0158674 0.000847 -0.0208499 0.0420621 0.00437092 2650 
37 1 -0.007724 0.00224705 -0.014299 0.000233 0 -0.01175 0 2650 
422 1 -0.000754344 0.00332773 -0.0146418 0.000847 0.004675 -0.00890963 -0.00859259 2650 
309 1 -0.005736 0.00496605 -0.014845 0.000233 0 -0.01175 0 2650 
139 1 -3.13266e-05 0.00635792 -0.015217 0.000847 -0.00581699 0.00185973 -0.0131407 2650 
209 1 -4.17105e-06 0.0136205 -0.014212 0.000233 0.0340512 0.0239701 -0.0215177 2650 
67 1 -0.00661966 0.0397286 -0.0152221 8.4e-05 -0.0293765 0.089247 0.016235 2650 
36 1 -0.008519 0.00151005 -0.013643 0.000233 0 -0.01175 0 2650 
233 1 -0.00638476 0.000553388 -0.0133987 0.000233 0.001282 -0.0107579 -0.00349916 2650 
394 1 -0.00293147 0.00155924 -0.0140636 0.000847 -0.0722224 -0.00499752 0.175166 2650 
495 1 -0.00260865 7.66406e-05 -0.0128392 0.000233 -0.0564576 -0.00539728 0.0429157 2650 
68 1 -0.00629747 0.00329779 -0.0138135 0.001312 -4.29593e-05 -0.00581506 -0.00289914 2650 
198 1 -0.00302199 0.00371648 -0.0140048 0.001312 -0.00277496 0.0313066 -0.000842493 2650 
143 1 -0.00959618 0.0126206 -0.0135888 0.000233 0.0345024 -0.00482688 -0.0172306 2650 
470 1 -0.00541138 0.0114861 -0.0128962 8.4e-05 -0.00894397 0.0134427 -0.0284364 2650 
251 1 -0.000818365 0.014512 -0.013287 0.000847 0.0216114 0.0213356 0.010273 2650 
444 1 -0.00124649 0.0277481 -0.013618 8.4e-05 -0.00448298 0.0465385 0.0015305 2650 
76 1 -0.005578 0.00267305 -0.011829 0.000233 0 -0.01175 0 2650 
147 1 -0.00522918 0.00644495 -0.0122949 0.001312 -0.00740526 -0.000992877 -0.0095243 2650 
149 1 -0.010677 0.0140134 -0.011109 0.000847 0.014616 0.0129417 0.00365242 2650 
48 1 -0.0106492 0.0252008 -0.0119347 0.000847 -0.0220916 0.0384547 0.0130565 2650 
72 1 -0.00971478 0.0352464 -0.0120549 0.000847 0.0131193 0.0325042 0.0089407 2650 
13 1 -0.012448 0.00242305 -0.010914 8.4e-05 0 -0.01175 0 2650 
271 1 -0.00963033 0.00229578 -0.00958618 0.000233 -0.0179225 0.00192721 0.00285039 2650 
435 1 -0.00403327 0.00299382 -0.0110072 0.000847 0.00431169 -0.00441156 0.000105613 2650 
392 1 -0.003997 0.00301405 -0.009609 8.4e-05 0 -0.01175 0 2650 
69 1 -0.0108879 0.0037705 -0.0106476 0.001312 -0.00599405 -0.00724038 0.000302025 2650 
95 1 -0.00668056 0.00464578 -0.00953885 0.001312 0.00327909 0.00340773 0.00547985 2650 
413 1 -0.00897946 0.0103946 -0.0101249 0.000233 -0.0418746 0.0189691 -0.0258674 2650 
15 1 -0.00222309 0.0112909 -0.01078 0.001312 0.00420752 0.0131592 -0.0134881 2650 
16 1 -0.0047194 0.0229502 -0.00978951 0.001312 -0.0139168 0.0374299 0.012099 2650 
213 1 -0.0120473 0.050018 -0.0097106 0.000847 0.0100469 0.055921 0.0298514 2650 
133 1 -0.00774645 0.00142003 -0.00844212 0.001312 -0.0163205 -0.000544761 0.00845774 2650 
121 1 -0.00491027 0.00156341 -0.008651 0.001312 -0.0158986 -0.00140131 0.0115814 2650 
348 1 -0.011402 0.00395905 -0.008993 0.000233 0 -0.01175 0 2650 
332 1 -0.013253 0.00515405 -0.008686 0.000847 0 -0.01175 0 2650 
449 1 -0.00293681 0.00813482 -0.00792694 0.000847 -0.0087478 0.0294643 0.0269399 2650 
7 1 -0.00781885 0.0101406 -0.00893021 0.000847 -0.0388938 0.0221036 -0.0134158 2650 
214 1 -0.0035131 0.00976062 -0.00907816 0.000847 -0.00590429 0.00455034 -0.0167851 2650 
222 1 -0.00378354 0.0293683 -0.00936614 0.000233 -0.0404047 0.0139169 0.0287244 2650 
66 1 -0.01378 0.034392 -0.00940581 0.000233 0.00377936 0.0342087 0.00385618 2650 
482 1 -0.00880498 0.0353924 -0.00855355 0.000233 0.000351426 0.0488467 0.0205314 2650 
158 1 -0.00432898 0.000559621 -0.00737137 8.4e-05 -0.00184406 -0.011926 0.00030382 2650 
136 1 -0.00175483 0.00112455 -0.00695308 0.000847 0.0065673 0.000110857 -0.00223369 2650 
324 1 -0.00624907 0.00206163 -0.00766021 0.000233 -0.0242504 0.00810095 0.00750865 2650 
407 1 -0.00359518 0.00290312 -0.00682347 0.000847 -0.00303477 0.00281684 0.00482374 2650 
79 1 -0.00692538 0.00452681 -0.00644791 0.000233 0.0116224 -0.00870638 -0.00201173 2650 
2 1 -0.00904149 0.00480723 -0.0076338 0.001312 0.00863009 -0.00562463 -0.00842506 2650 
512 1 -0.0103759 0.0077092 -0.00749996 0.000847 -0.0166001 0.000849647 0.00116294 2650 
199 1 -0.00736202 0.012447 -0.00769563 0.001312 -8.22847e-05 0.00621402 -0.00802024 2650 
386 1 -0.00203961 0.00590706 -0.00554746 0.000847 -0.0165994 0.00558365 0.0198342 2650 
405 1 -0.00266238 0.00791424 -0.00483361 8.4e-05 -0.0173842 0.0117352 0.0210276 2650 
228 1 -0.0151933 0.017029 -0.00518976 0.000847 -0.00578167 0.0253723 0.0333152 2650 
216 1 -0.000627471 0.0182555 -0.00496971 0.000847 0.00347878 0.0283419 0.0066285 2650 
331 1 -0.0121621 0.0195462 -0.00560289 0.000847 0.0114133 0.0413502 0.0102172 2650 
478 1 -0.010102 0.00040805 -0.003546 0.000233 0 -0.01175 0 2650 
237 1 -0.00178882 2.24524e-06 -0.00469271 0.001312 0.000355703 -0.00487507 -1.6002e-05 2650 
160 1 -0.00566288 0.00280385 -0.00368471 0.001312 -0.00428395 0.0181872 0.0157261 2650 
112 1 -0.00770112 0.00329247 -0.00424525 0.000847 -0.0095368 -0.00573703 -0.00200719 2650 
145 1 -0.007489 0.00340605 -0.00326 8.4e-05 0 -0.01175 0 2650 
464 1 -0.00208649 0.00517951 -0.0033893 0.000233 -0.0138944 -0.0011629 0.028037 2650 
225 1 -0.0089 0.0108401 -0.00429541 0.001312 -0.0221208 0.0161144 -4.95919e-05 2650 
186 1 -0.0148381 0.0225865 -0.00351704 0.001312 0.00327682 0.0457497 -0.0114777 2650 
312 1 -0.00772954 0.000610053 -0.00232024 0.000233 -0.0103024 -0.0278865 0.00176669 2650 
60 1 -0.00588881 0.000516623 -0.0016472 0.000847 -0.0009898 0.000428572 0.0136178 2650 
467 1 -0.00855924 0.00277893 -0.00209915 0.000233 0.0050306 -0.0120246 0.00624024 2650 
285 1 -0.004117 0.00298905 -0.002186 0.000233 0 -0.01175 0 2650 
399 1 -0.00283 0.00203405 -0.001648 0.000847 0 -0.01175 0 2650 
301 1 -0.000431 0.00214705 -0.003081 8.4e-05 0 -0.01175 0 2650 
245 1 -0.015895 0.00386605 -0.001607 0.000233 0 -0.01175 0 2650 
204 1 -0.00587263 0.0053546 -0.00251986 0.000847 -0.000799262 -0.00254539 0.00136773 2650 
520 1 -0.00284988 0.00791327 -0.00293151 0.000233 -0.0408881 0.00975514 -0.0298724 2650 
273 1 -0.00722851 0.0113911 -0.00190437 0.000233 -0.0203117 0.004391 0.0297204 2650 
174 1 -0.000255095 0.0241869 -0.00229224 0.000847 0.00404523 0.0418625 -0.0134125 2650 
208 1 -0.003072 3.20504e-05 -0.000554 0.000233 0 -0.01175 0 2650 
168 1 -0.0111131 0.00295967 -0.000310083 0.000233 -6.1116e-05 0.00638121 0.00638153 2650 
345 1 -0.00856247 0.00160447 -0.00113346 0.000847 0.00932615 0.0050878 0.00460666 2650 
175 1 -0.00945453 0.00316583 -0.000598882 0.000847 -0.0384237 -0.00777323 0.0234095 2650 
75 1 -0.004976 0.00340005 -0.001105 0.000233 0 -0.01175 0 2650 
343 1 -0.00352957 0.00760449 -0.00112587 0.000847 -0.00610036 0.0180617 0.0681614 2650 
8 1 -0.00708183 0.00926128 -5.54578e-05 0.000233 -0.0377859 0.00117362 -0.00427534 2650 
430 1 -0.0162252 0.0320673 -0.000575116 0.000233 0.00307122 0.0229503 -0.0681661 2650 
440 1 -0.0137698 5.5624e-05 0.00176404 0.000233 0.00637766 0.0032616 -0.0067895 2650 
242 1 -0.010702 0.00248105 0.00289 0.000847 0 -0.01175 0 2650 
376 1 -0.005395 0.00289005 0.002758 0.000233 0 -0.01175 0 2650 
515 1 -0.00519701 0.00718937 0.00227411 0.000847 -0.035469 -0.00436281 0.00158004 2650 
131 1 -0.009967 0.00274005 0.004313 0.000233 0 -0.01175 0 2650 
256 1 -0.00435637 0.00159805 0.00441737 0.000847 0.00287093 -0.0109614 -0.0104852 2650 
296 1 -0.002285 0.00457905 0.004233 0.000233 0 -0.01175 0 2650 
219 1 -0.00661192 0.00503467 0.00392782 0.000233 0.0043841 0.00604252 -0.0151097 2650 
374 1 -0.006913 0.00554505 0.00361 0.000233 0 -0.01175 0 2650 
77 1 -0.00696117 0.016404 0.00405848 0.000233 0.022645 0.0508553 0.0284117 2650 
137 1 -0.0121735 0.024324 0.00316601 0.000847 0.0202347 0.0234308 -0.000934137 2650 
188 1 -0.00145114 0.0314826 0.00329591 0.000847 0.00797073 0.0304807 0.00488408 2650 
56 1 -0.011864 0.00139005 0.004858 0.001312 0 -0.01175 0 2650 
135 1 -0.00844764 5.32045e-06 0.00535501 0.000847 0.00900114 -0.000763851 0.00963581 2650 
283 1 -0.00639467 0.000506078 0.00575221 0.000233 0.00411522 -0.014298 -0.00503883 2650 
223 1 -0.014414 0.00203205 0.005039 8.4e-05 0 -0.01175 0 2650 
469 1 -0.012765 0.00327905 0.005129 0.000233 0 -0.01175 0 2650 
90 1 -0.009269 0.00352205 0.005356 0.000233 0 -0.01175 0 2650 
361 1 -0.012031 0.00489705 0.0053 0.000233 0 -0.01175 0 2650 
244 1 -0.002251 0.00510005 0.006118 0.000233 0 -0.01175 0 2650 
466 1 -0.0139726 0.0536947 0.00558968 0.000233 0.00860235 0.156793 0.028965 2650 
329 1 -0.000212 0.00145105 0.006779 0.000847 0 -0.01175 0 2650 
355 1 -0.00738717 0.00160691 0.00897848 0.000847 0.0197412 -0.0223973 0.0085623 2650 
45 1 -0.00110171 0.0030567 0.00799123 0.000847 0.00391322 -0.00700637 -0.00278578 2650 
462 1 -0.013341 0.00341405 0.008656 0.000847 0 -0.01175 0 2650 
31 1 -0.00985422 0.0209081 0.00947439 0.000847 0.0151872 0.0685855 0.0489155 2650 
511 1 -0.00775661 0.0306802 0.00895869 0.000847 -0.0411457 0.0321393 0.0170147 2650 
235 1 -0.0123205 0.00426695 0.0102031 0.000233 -0.020895 -0.00370629 -0.00690756 2650 
87 1 -0.00667361 0.0351545 0.00965017 0.000847 -0.0284966 0.0364342 0.00984131 2650 
226 1 -0.00484032 0.000996561 0.0112164 0.000847 0.000543163 -0.0117255 -0.000986213 2650 
518 1 -0.011612 0.00225305 0.01181 0.000233 0 -0.01175 0 2650 
128 1 -0.003888 0.00267205 0.011415 0.000233 0 -0.01175 0 2650 
313 1 -0.004641 0.00531805 0.011299 0.000233 0 -0.01175 0 2650 
85 1 -0.00805856 0.026784 0.0123192 0.000847 0.0215624 0.0883325 0.0523264 2650 
418 1 -0.0119325 0.0347229 0.0119084 8.4e-05 0.0835423 0.0341732 0.0724273 2650 
229 1 -0.00443427 0.0435104 0.0113261 0.000847 0.0301831 0.124992 0.0511799 2650 
192 1 -0.009107 0.00253605 0.013183 0.000233 0 -0.01175 0 2650 
379 1 -0.006906 0.00190305 0.013866 8.4e-05 0 -0.01175 0 2650 
180 1 -0.00304159 0.0296228 0.0127763 0.000233 0.00860892 0.0812149 0.00119763 2650 
362 1 -0.0673894 0.0701521 0.0137178 0.000233 -0.0114757 -0.0609702 -0.0563629 2650 
504 1 -0.00360923 0.0108754 0.0157121 0.000233 0.0632932 0.0154719 0.0106173 2650 
196 1 -0.00820354 0.0167435 0.0146013 0.000233 0.0126842 0.0305104 -0.000979182 2650 
129 1 -8.18584e-06 0.043606 0.0166185 0.000233 0.185196 0.112418 0.00818652 2650 
477 1 0.00367873 -0.0117798 -0.0686017 0.000233 0.00714334 -0.316212 0.180292 2650 
489 1 0.0126913 -0.0105887 -0.0669673 0.000847 0.110101 -0.328273 0.0729482 2650 
153 1 0.0227542 -0.0221424 -0.0648929 0.000233 0.116163 -0.806022 0.0746922 2650 
110 1 0.0473316 -0.0180583 -0.0490399 0.000847 0.130578 -0.453593 0.125908 2650 
298 1 0.0376718 -0.0493405 -0.0286576 0.000233 7.49742 3.20723 0.989574 2650 
29 1 0.00479016 -0.00142787 -0.0147406 0.001312 -0.0175903 -0.00288057 0.0101321 2650 
35 1 0.00523541 -0.00268557 -0.0128294 0.000847 -0.0432679 -0.0942784 -0.0119721 2650 
144 1 0.000962453 -0.000296663 -0.0137694 0.000233 0.00309997 -0.00849047 -0.0369584 2650 
404 1 0.00785266 -0.000117595 -0.0119248 0.000233 -0.0177971 -0.00568737 -0.0069963 2650 
522 1 0.00308825 -0.00175561 -0.00984276 8.4e-05 -0.178931 -0.00611246 0.0324436 2650 
93 1 0.00848888 -0.00292473 -0.00793721 8.4e-05 -0.0114059 -0.00928271 0.00571047 2650 
157 1 0.005391 -0.00139359 -0.00889613 0.000233 -0.0662049 0.00392713 0.0356455 2650 
371 1 0.0133043 -0.00121527 -0.00860134 0.000847 -0.000440737 -0.00775639 -0.00237121 2650 
486 1 0.00529832 -0.00277991 -0.00625458 0.000847 0.0117434 -0.0254171 -0.0303243 2650 
447 1 0.00717285 -0.00085252 -0.00630472 0.000847 -0.0219749 -0.00182361 0.022348 2650 
142 1 0.000422 -0.00090295 -0.00166 0.000233 0 -0.01175 0 2650 
220 1 0.004447 -0.00228095 0.000291 0.000233 0 -0.01175 0 2650 
408 1 0.0080997 -0.00119971 0.000802138 0.000847 -0.0122062 -0.00815859 0.00391405 2650 
184 1 0.066797 -0.00963456 0.00242541 8.4e-05 -1.20976 -0.350274 -0.145212 2650 
485 1 0.0146677 -0.00324452 0.00306657 0.000847 0.00500572 -0.0118012 -0.000871921 2650 
432 1 0.0123012 -0.00303561 0.00357505 0.001312 0.00356332 -0.0117779 -0.00313425 2650 
70 1 0.0154305 -0.00234141 0.00446808 0.000847 -0.00037036 -0.00737029 0.003272 2650 
122 1 0.00807105 -0.000728497 0.00336324 0.000847 -0.00783666 -0.0104526 0.01123 2650 
295 1 0.014819 -0.000913701 0.00516178 0.000847 -0.000952717 -0.00702461 0.00283427 2650 
338 1 0.008907 -0.00133795 0.008617 0.000233 0 -0.01175 0 2650 
267 1 0.00185993 -0.000342286 0.0103306 0.000847 0.026628 -0.0196938 0.0067696 2650 
150 1 0.00917239 -0.00234999 0.0112472 0.000847 0.00214125 -0.002193 -0.00843556 2650 
98 1 0.00770774 -0.00141729 0.0113024 0.000847 0.00798283 -0.0140865 -0.0133543 2650 
130 1 0.00222745 -0.000319007 0.0138795 0.000233 0.0264062 -0.0172385 0.016743 2650 
428 1 0.0629237 -0.0135469 0.0277486 0.000233 0.054586 -0.507239 -0.123753 2650 
123 1 0.0590865 -0.0185137 0.0340006 0.000847 12.9743 -1.01414 -22.5312 2650 
203 1 0.0559988 -0.0548906 0.0388981 0.000847 -28.6218 -3.95683 41.1816 2650 
24 1 0.0432748 -0.0137479 0.0534433 0.000233 0.16639 -0.296374 -0.134732 2650 
425 1 0.00300385 0.0235626 -0.0158107 0.000847 -0.00178317 0.0169229 0.0136358 2650 
279 1 0.00202274 0.0580501 -0.0159428 0.000847 -0.093484 0.036132 -0.0251177 2650 
210 1 0.00849891 0.00413583 -0.0144482 8.4e-05 -0.00722799 0.00367103 -0.00178987 2650 
395 1 0.00630399 0.00507642 -0.0144912 0.000847 0.0418211 0.0112413 0.0112509 2650 
366 1 0.00657659 0.0101631 -0.0155178 8.4e-05 -0.0125884 0.00661102 -0.00168045 2650 
502 1 0.00687721 0.0106397 -0.0144832 0.000847 -0.198444 0.0857627 -0.101493 2650 
304 1 0.00571581 0.0169535 -0.0143647 0.000847 0.041851 0.0166811 0.0299896 2650 
30 1 0.00302859 0.02006 -0.0143331 0.001312 -0.0016686 0.0351881 0.0116121 2650 
293 1 0.00455536 0.0366025 -0.015239 0.000847 -0.0686901 0.0570895 0.0172499 2650 
224 1 0.00653706 0.00257566 -0.012761 0.001312 0.019666 0.000277188 0.0113307 2650 
65 1 0.00791291 0.0016174 -0.0139186 0.000233 0.0505173 0.00612005 0.00626301 2650 
342 1 0.000829826 0.003256 -0.0133266 0.000847 -0.00890271 -0.0100685 -0.00160998 2650 
12 1 0.00743004 0.00419894 -0.013456 0.000233 0.00819602 0.0165468 0.00279179 2650 
412 1 0.00845262 0.00329512 -0.0135849 0.000847 0.0172709 0.00422265 -0.000804066 2650 
207 1 0.007509 0.00506705 -0.013163 0.000233 0 -0.01175 0 2650 
6 1 0.00609749 0.0255338 -0.0129127 0.000847 -0.0386172 0.0206024 -5.52892e-05 2650 
291 1 0.00332668 0.00025581 -0.0116243 0.000847 -0.11501 0.0700165 0.0112894 2650 
423 1 0.00861507 0.00143446 -0.0118893 0.000847 0.0223523 -0.00954716 0.0178664 2650 
234 1 0.00396961 0.00166435 -0.0115982 0.000233 0.0220209 -0.00227701 0.00432638 2650 
212 1 0.00316466 0.0076608 -0.0118095 0.001312 0.00495456 0.00131207 -0.0105538 2650 
34 1 0.0108586 0.0154873 -0.0117969 0.000847 -0.081167 0.28901 -0.0786107 2650 
163 1 0.0129075 0.000670803 -0.00953665 0.000847 0.00144595 -0.0108475 0.00407628 2650 
284 1 0.00275467 0.00318925 -0.00958936 0.000233 -0.0288039 0.00640103 -0.00556492 2650 
325 1 0.00933542 0.00289593 -0.0108228 0.000233 -0.00828508 0.0222106 0.00129811 2650 
109 1 0.00629497 0.00372367 -0.0106314 0.000847 0.00782057 0.0018382 0.0175381 2650 
276 1 0.00902039 0.00471327 -0.0107627 0.001312 -0.00672955 0.00215973 0.00387187 2650 
172 1 0.00297172 0.00506784 -0.0105477 0.001312 0.00761491 -0.00388137 -0.0372256 2650 
146 1 0.0010611 0.00782681 -0.0100444 0.001312 0.0100841 0.0114333 0.00307778 2650 
63 1 0.00393585 0.00992846 -0.00964802 0.000233 0.015053 0.00544111 -0.0256247 2650 
58 1 0.00599782 0.0116009 -0.00995655 0.000847 -0.0145899 0.0148736 0.00524947 2650 
94 1 0.00755739 0.0144688 -0.00999791 0.001312 0.0116418 0.0134669 0.0120787 2650 
391 1 0.00664995 0.0157355 -0.00976904 0.000233 0.0163256 0.0241937 -0.00281456 2650 
282 1 0.00158106 0.0032657 -0.00906684 0.000847 0.0175671 -0.00514941 0.0142517 2650 
215 1 0.00193403 0.00944042 -0.00855846 0.000847 0.003733 0.0204181 0.00643478 2650 
5 1 0.0064944 0.00984297 -0.00923004 0.000847 0.00272408 0.00596777 -0.000232352 2650 
81 1 0.0126184 0.0117748 -0.00853318 0.001312 -0.00733521 0.0116818 -0.000769902 2650 
420 1 0.0127963 0.0152967 -0.00844279 0.000847 0.0349919 0.0216338 -0.0512301 2650 
403 1 0.013861 0.0197955 -0.00920274 0.000233 -0.00992673 0.0221863 -0.0117494 2650 
368 1 0.00733581 0.0240159 -0.00933053 0.000847 0.0335713 0.0207598 0.00538703 2650 
49 1 0.0130812 0.0504456 -0.00883377 0.000233 0.0423918 0.145051 0.0504669 2650 
105 1 0.000311885 0.00443162 -0.00657546 0.000233 0.000474342 -0.0161422 -0.0120322 2650 
400 1 0.008609 0.00587905 -0.006808 0.000233 0 -0.01175 0 2650 
421 1 0.00345502 0.0096724 -0.00727582 0.000847 0.0151632 0.00622558 -0.0198916 2650 
493 1 0.0139351 0.012033 -0.00633604 0.000233 -0.0118703 0.00376708 0.00232476 2650 
363 1 0.0149313 0.013741 -0.00672909 0.000233 -0.00516116 0.0058541 -0.00751722 2650 
211 1 0.00177507 0.0198049 -0.00657252 0.001312 -0.00854215 0.0127125 -0.0169799 2650 
3 1 0.00930648 0.0374607 -0.00675159 0.000847 0.0277643 0.0375434 0.0182655 2650 
377 1 0.002656 0.00572505 -0.00627 0.000233 0 -0.01175 0 2650 
351 1 0.00412195 0.0180574 -0.00541984 0.000233 0.00409184 0.0180406 0.0328294 2650 
28 1 0.0150831 0.0216313 -0.0056322 8.4e-05 0.00684607 0.0440032 0.0211436 2650 
152 1 0.00133598 0.0336776 -0.00503336 0.000847 -0.0635902 0.0695379 -0.0365097 2650 
187 1 0.0103102 0.0034186 -0.00471571 0.000847 -0.0115529 0.00257543 0.00246599 2650 
27 1 0.00956299 0.00396437 -0.00451383 8.4e-05 -0.0165967 0.000109191 0.00379322 2650 
494 1 0.0143619 0.00397024 -0.00418959 0.000233 -0.00704744 -0.0143221 0.0103924 2650 
11 1 0.0151485 0.0033758 -0.00343803 0.000233 -0.0271983 -0.0533447 0.0109781 2650 
80 1 0.00644978 0.0067437 -0.00398919 8.4e-05 0.0232256 -0.00658413 -0.00451181 2650 
255 1 0.0102446 0.0069287 -0.00318851 0.000847 0.0155229 0.00362749 0.0110952 2650 
510 1 0.0150511 0.00641116 -0.00345184 0.001312 -0.00014416 -2.53583e-05 0.00667053 2650 
437 1 0.00927595 0.0135443 -0.00459602 0.000847 0.00684365 0.0217551 0.00538804 2650 
108 1 0.0143468 0.0148273 -0.00363 0.001312 0.0050814 0.00986723 0.00783954 2650 
356 1 0.0151729 0.0166138 -0.00471117 0.000847 0.0154597 0.0252592 0.0260199 2650 
457 1 0.00774561 0.0211674 -0.0031903 8.4e-05 0.00801527 0.0347161 0.0147456 2650 
227 1 0.0140279 0.00476323 -0.00183978 0.000847 0.00316871 -0.00459192 0.0078752 2650 
398 1 0.0149942 0.00940746 -0.00184772 0.000847 -0.00348009 0.00393025 0.0039623 2650 
217 1 0.00339788 0.0100078 -0.00210317 0.000847 -0.00257813 0.0141642 0.0271072 2650 
17 1 0.00396672 0.00292445 -0.00149078 0.000847 -0.000232265 -0.01105 -0.00146143 2650 
292 1 0.00808699 0.00623442 -0.00123629 0.000847 0.000789497 -0.00762925 0.0146941 2650 
74 1 0.0062435 0.0115434 -0.000810313 0.000847 -0.00423609 0.00905328 0.00538328 2650 
383 1 0.00963856 0.0138261 -0.000265268 0.000847 -0.0178103 0.00948738 0.00375842 2650 
443 1 0.0134309 0.038189 -0.000624817 0.000233 0.0580166 0.108965 -0.0455308 2650 
471 1 0.00829013 0.00100142 0.000970748 0.001312 -0.0125985 -0.00838204 0.0121139 2650 
165 1 0.0149501 0.000607938 0.000592881 0.000847 0.00261844 0.00037774 -0.000247616 2650 
438 1 0.0111922 0.00273184 0.00134723 0.000847 -0.00469604 -0.00431271 0.00409818 2650 
14 1 0.0118417 0.00388022 0.00115565 8.4e-05 0.00372036 -0.00952606 0.0111418 2650 
388 1 0.0160714 0.00546911 0.00120968 0.000233 0.00816597 -0.00260384 0.0151025 2650 
281 1 0.00529581 0.0128862 0.000579934 0.000847 -0.00695836 0.0309939 -0.0195121 2650 
116 1 8e-05 0.00086405 0.00308 0.000233 0 -0.01175 0 2650 
50 1 0.0112758 0.00113041 0.00197298 0.000233 -0.00146529 -0.00852389 -0.00218405 2650 
328 1 0.0128946 0.000177355 0.00251245 0.001312 0.00267826 -0.00765408 -0.00326262 2650 
132 1 0.013326 0.00142105 0.002036 8.4e-05 0 -0.01175 0 2650 
252 1 0.00262458 0.00240242 0.00246222 0.000847 -0.0017506 -0.0104656 -0.0157732 2650 
426 1 0.00790103 0.00310728 0.0024952 0.000233 0.00270092 -0.011541 -0.000995869 2650 
303 1 0.00950646 0.00192849 0.00288453 0.000847 0.00208271 -0.00640181 0.0109734 2650 
99 1 0.0109491 0.00545887 0.00217377 0.000847 -0.0110203 0.00375868 0.0128879 2650 
83 1 0.0134541 0.00493517 0.00273831 0.000847 -0.000379633 -0.00951986 -0.000817454 2650 
104 1 0.015216 0.00663822 0.00225812 0.000233 -0.0127088 -0.00137457 -0.0290747 2650 
474 1 0.00171381 0.0201618 0.00302704 0.000847 0.0292048 0.0292379 0.00704819 2650 
178 1 0.0161043 0.0586291 0.00175563 0.000847 0.038059 0.139797 -0.0522656 2650 
387 1 0.000462138 0.00131274 0.00371067 0.000233 -0.00835909 -0.0144822 -0.00649526 2650 
456 1 0.00972901 0.00271688 0.0037226 0.000233 0.00251167 -0.00392892 0.0112826 2650 
433 1 0.0145258 0.00192191 0.00327144 0.000847 -0.00295404 -0.00986245 -0.0146305 2650 
472 1 0.0110777 0.00443354 0.00369014 0.000847 -0.004036 -0.00393912 0.0121369 2650 
299 1 0.0124189 0.00749333 0.00431612 0.000233 -0.0067092 0.00573937 -0.00119716 2650 
375 1 0.0137347 0.00751635 0.00348543 0.000233 -0.0182452 -0.00353034 -0.0189375 2650 
427 1 0.0157968 0.00686366 0.00399915 0.000233 -0.0064393 0.0307872 0.00793576 2650 
126 1 0.0113215 0.0180846 0.00367986 0.000847 0.00227538 0.0154211 0.0314358 2650 
506 1 0.0151517 0.0230321 0.00386345 0.000233 -0.00220319 0.0243737 0.0201119 2650 
38 1 0.0158462 0.022943 0.00467153 0.000233 -0.0108563 0.0381487 0.00282041 2650 
499 1 0.0051872 0.00193901 0.00494725 0.000847 0.00264403 -0.0118973 -0.00296701 2650 
359 1 0.0080482 0.00287082 0.00589775 0.000847 0.0123146 -0.00245717 -0.0106401 2650 
503 1 0.00159052 0.00429631 0.00597927 0.000233 -0.0201065 -0.00306569 0.0132487 2650 
254 1 0.0123758 0.00472288 0.00610388 0.000847 -0.0118132 0.000556762 -0.00495687 2650 
54 1 0.0132523 0.00402228 0.0060475 8.4e-05 -0.0136844 -0.00183931 -0.00696332 2650 
261 1 0.000382 0.00497505 0.006142 0.000233 0 -0.01175 0 2650 
191 1 0.0123738 0.00599499 0.00481507 0.000847 -0.0086693 0.00611798 -0.00336668 2650 
476 1 0.0103149 0.0104412 0.00533863 0.000847 0.0248318 0.00537313 -0.0147623 2650 
354 1 0.0136203 0.0181897 0.00600437 0.001312 -0.0135592 0.00937684 0.00348369 2650 
71 1 0.000989106 0.0411288 0.00574547 0.000847 -0.0146025 0.0443271 0.015827 2650 
417 1 0.00350243 0.00143446 0.00746969 0.000233 0.0303345 -0.010503 -0.00758611 2650 
492 1 0.00379012 0.000245436 0.00773814 0.000233 -0.0187418 -0.0143038 0.0254154 2650 
167 1 0.009498 0.00028905 0.007687 0.000233 0 -0.01175 0 2650 
18 1 0.0128333 0.000550493 0.007439 0.000847 0.0419535 -0.00193755 -0.0225199 2650 
475 1 0.00389892 0.00556201 0.00660155 0.000847 0.035617 -0.00671254 -0.00995434 2650 
333 1 0.00815824 0.00762545 0.00663837 0.000847 0.00473152 -0.00372576 0.00493378 2650 
260 1 0.0114231 0.00779307 0.00696981 0.000233 0.0291177 -0.000979717 -0.0220271 2650 
39 1 0.0146994 0.00877347 0.00780518 0.000233 -0.0189106 0.00477021 0.0179524 2650 
372 1 0.00606106 0.0300837 0.00658634 0.000847 0.0235674 0.0821236 -0.0303315 2650 
319 1 0.00739142 0.0580179 0.00666242 0.000847 0.0377775 0.150426 0.127836 2650 
119 1 0.00722 0.00053605 0.008414 8.4e-05 0 -0.01175 0 2650 
265 1 0.0068211 0.00376097 0.00941408 0.000847 -0.0060608 -0.00538555 0.0133672 2650 
352 1 0.009336 0.00559905 0.009757 0.000233 0 -0.01175 0 2650 
238 1 0.00790123 0.0101517 0.0109384 0.001312 0.00393038 0.00465132 -0.0110608 2650 
277 1 0.000179004 0.0158215 0.0109322 0.000847 -0.032433 0.0326574 0.0370989 2650 
321 1 0.00254014 0.0322289 0.0110351 0.000847 0.0364837 0.0794391 0.00283765 2650 
479 1 0.00813976 0.000311534 0.0117242 0.000233 0.00525777 -0.00885538 -0.0083303 2650 
43 1 0.00979511 0.000542884 0.0112807 0.001312 0.00744851 -0.00724636 -0.00517346 2650 
200 1 0.00834 0.00424305 0.011213 0.000847 0 -0.01175 0 2650 
89 1 0.003537 0.00590505 0.012461 0.000233 0 -0.01175 0 2650 
107 1 0.00860594 0.0123437 0.0125513 0.001312 0.0139555 0.00419878 -0.00942809 2650 
55 1 0.00805321 0.0162062 0.0115035 0.001312 0.0217515 0.0211519 -0.00442956 2650 
446 1 0.00553319 0.0259547 0.012105 0.000847 0.0431759 0.0535511 -0.0370998 2650 
509 1 0.00105286 0.000402845 0.0128927 8.4e-05 0.0173922 -0.0142978 0.0189932 2650 
390 1 0.000310447 0.00319507 0.0138059 0.000233 -0.00511716 -0.00910385 0.00447344 2650 
263 1 0.00267504 0.00320386 0.0141191 0.001312 0.00157737 -0.0044016 -0.00247314 2650 
406 1 0.00543881 0.00381645 0.0137814 0.001312 0.00369435 -0.00109004 0.00273674 2650 
381 1 0.00788184 0.00362816 0.0137892 0.000847 0.00456873 -0.00113554 -0.00529203 2650 
514 1 0.00647091 0.00948608 0.0135082 0.000847 0.0058423 0.00402624 -0.00550066 2650 
103 1 0.0101539 0.00872712 0.0130762 0.000233 -0.0110492 -0.00251187 -0.00895235 2650 
484 1 0.00641951 0.0172568 0.0137573 0.001312 0.0156445 0.0271737 -0.00746185 2650 
91 1 0.00850226 0.0283982 0.0128521 0.000233 -0.0363941 0.045077 -0.00579716 2650 
156 1 0.0108462 0.0283714 0.0128632 0.000233 0.0598845 0.0592461 -0.0711506 2650 
1 1 0.00547719 0.00779338 0.01448 0.001312 0.00234152 0.00692962 -0.00167775 2650 
97 1 0.00551957 0.0201445 0.0151269 0.000847 0.0770789 0.0349916 -0.0315688 2650 
450 1 0.00538075 0.02546 0.0147849 0.000847 0.0566994 0.0512717 -0.0169245 2650 
517 1 0.000656393 0.0456742 0.0155735 0.000233 -0.0347349 0.09511 0.123599 2650 
73 1 0.000477525 0.0174797 0.0158523 0.000847 0.0344698 0.0325476 0.0115641 2650 
154 1 0.00791446 0.0888171 -0.00895266 0.000233 -0.00924804 0.118602 0.00100956 2650 
369 1 0.0678694 0.0759228 0.00639966 0.000847 0.000823722 -0.0902035 -0.0087291 2650 
