ITEM: TIMESTEP
22469072
ITEM: NUMBER OF ATOMS
168
ITEM: BOX BOUNDS ff ff ff
-0.15 0.15
-0.15 0.15
-0.15 0.15
ITEM: ATOMS id type x y z radius vx vy vz density 
259 1 -0.00202322 -0.0431659 -0.0679195 0.001058 -30.4844 1.61362 0.907464 2650 
1 1 -0.00915116 -0.0327408 -0.0667431 0.00164 -19.9809 1.96815 2.73705 2650 
89 1 -0.0029617 -0.0257846 -0.0673009 0.00164 -19.3432 -0.650007 0.850476 2650 
35 1 -0.0360401 -0.0525816 -0.0576046 0.001058 -18.8034 -1.25855 11.7546 2650 
208 1 -0.0377688 -0.0198403 -0.0564813 0.001058 -12.6032 -0.269182 8.42101 2650 
159 1 -0.0434716 -0.0467593 -0.0532088 0.000291 -13.1448 -3.56102 10.7373 2650 
171 1 -0.0438481 -0.0296257 -0.0519142 0.001058 -17.1836 1.43517 14.501 2650 
225 1 -0.0509215 -0.0125672 -0.0449983 0.001058 -11.2256 -0.460115 12.6912 2650 
172 1 -0.0563214 -0.0444163 -0.0380288 0.001058 -8.62684 0.554031 12.7645 2650 
36 1 -0.061688 -0.041199 -0.0285251 0.001058 -7.76545 0.535727 16.7785 2650 
252 1 -0.0630582 -0.0142409 -0.0253595 0.001058 -7.94662 0.775406 19.7428 2650 
122 1 -0.0634723 -0.0107321 -0.0243416 0.001058 -14.7873 -6.45646 38.0865 2650 
278 1 -0.0635429 -0.00805833 -0.0241336 0.001058 -9.62442 6.27019 25.8694 2650 
272 1 -0.064134 -0.0417404 -0.0224913 0.001058 -4.31597 0.45307 12.2957 2650 
178 1 -0.0653791 -0.0145211 -0.0185612 0.001058 -1.97312 0.445312 6.94346 2650 
291 1 -0.0658733 -0.0275861 -0.0142488 0.000291 -20.4123 3.73309 84.4351 2650 
105 1 -0.00146119 -0.00220291 -0.0150751 0.00164 -0.00279846 -0.00570972 0.00212775 2650 
135 1 -0.00372271 -0.00168712 -0.0158947 0.000291 -0.00520082 -0.0033352 0.00291956 2650 
97 1 -0.00633377 -0.000181779 -0.00647982 0.00164 0.00587724 -0.00270027 -0.00409197 2650 
186 1 -0.067763 -0.0203329 -0.00528328 0.001058 -1.3784 -0.170597 17.6637 2650 
33 1 -0.00196102 -0.0032029 -0.00488552 0.00164 0.00139121 -0.00702858 0.00589607 2650 
26 1 -0.0679658 -0.0357466 -0.000731946 0.001058 -0.210848 0.477217 19.559 2650 
229 1 -0.0679642 -0.0328148 -0.000820177 0.001058 -0.222923 1.27793 18.4544 2650 
137 1 -0.0673984 -0.0376666 0.00113018 0.00164 0.323723 0.587822 19.2848 2650 
67 1 -0.00257143 -0.00206664 0.000482032 0.001058 -0.0055431 -0.00515644 0.00696255 2650 
271 1 -0.000892587 -0.00159131 0.00302158 0.001058 -0.0143022 -0.00514114 -0.00504971 2650 
76 1 -0.0671597 -0.0495581 0.0106221 0.001058 8.3286 10.3795 52.6242 2650 
299 1 -0.0668748 -0.0341293 0.0121506 0.001058 3.77854 1.0461 20.7792 2650 
300 1 -0.00795703 -5.06953e-05 0.0136364 0.001058 0.00571142 -0.000260479 0.00306619 2650 
211 1 -0.0564219 -0.0346401 0.0378896 0.001058 13.493 -1.72692 20.0754 2650 
121 1 -0.0514501 -0.0215043 0.0435257 0.00164 13.0954 -3.19585 15.4595 2650 
177 1 -0.040488 -0.0262568 0.0538627 0.00164 16.9573 0.94452 12.7303 2650 
258 1 -0.0312569 -0.010641 0.0603296 0.001058 16.9231 0.760781 8.7617 2650 
37 1 -0.0263008 -0.0606325 0.063476 0.000291 24.4936 -11.7435 10.1486 2650 
243 1 -0.0194558 -0.056842 0.0650968 0.001058 10.0008 1.03723 2.98896 2650 
269 1 -0.0206595 -0.0289333 0.0655295 0.000291 5.36018 1.28944 1.68895 2650 
16 1 -0.0252985 -0.000104996 0.064082 0.000105 8.33032 1.51498e-05 3.2882 2650 
253 1 -0.0186176 -0.0381205 0.0661386 0.000291 18.9309 3.29532 5.32893 2650 
11 1 -0.0551217 0.0352031 -0.0397841 0.001058 -26.4539 -10.8386 36.6262 2650 
104 1 -0.00236824 0.00170881 -0.0163461 0.000105 0.0139931 -0.000990409 -0.00173116 2650 
71 1 -0.00299171 0.00047777 -0.0157286 0.000291 0.002567 -0.00215737 0.00948928 2650 
46 1 -0.00645739 0.00435708 -0.0151987 0.000291 -0.295995 -0.160622 0.128188 2650 
134 1 -0.00558779 0.00825737 -0.0152437 0.000291 -0.0118829 0.00375813 -0.00608975 2650 
54 1 -0.00488883 0.0320322 -0.0159219 0.000291 -0.0425736 -0.00216206 0.0175629 2650 
194 1 -7.53709e-05 0.0534768 -0.015803 0.001058 -0.0479607 0.0776892 -0.00228446 2650 
260 1 -0.00678005 0.00443195 -0.010756 0.000291 -0.0120055 0.0019441 0.00651081 2650 
301 1 -0.00734732 0.0513937 -0.00919314 0.001058 -0.203445 0.0046558 0.0613888 2650 
212 1 -0.000885163 0.00616688 -0.00346457 0.000291 -0.0026474 0.0067937 -0.00109041 2650 
7 1 -0.0020403 0.0352668 -0.00329964 0.000291 0.00379351 0.0136266 -0.000190797 2650 
201 1 -0.000586506 0.0721031 -0.00195295 0.00164 0.038351 0.0792669 0.0124736 2650 
234 1 -0.0123519 0.010399 0.00102566 0.000291 -0.000530972 0.00319134 0.0114593 2650 
59 1 -0.00876446 0.0231588 2.49777e-05 0.001058 -0.00678086 0.00769962 0.0204659 2650 
65 1 -0.0147738 0.0304061 0.00277739 0.00164 -0.00343699 0.0118581 0.00338465 2650 
273 1 -0.00362385 0.0596407 0.00394788 0.001058 -0.000465026 0.0310927 -0.0151219 2650 
124 1 -0.0144013 0.0656211 0.00383174 0.001058 0.000501626 0.0410145 -0.000846304 2650 
4 1 -0.0147983 0.00384762 0.00412667 0.001058 -0.000962198 -0.00289426 -0.00306323 2650 
304 1 -0.00705099 0.0134971 0.00748588 0.000291 0.00483691 0.00442522 -0.0020989 2650 
242 1 -0.0136077 0.019357 0.00632742 0.000291 0.0039053 0.00473342 -0.00164707 2650 
68 1 -0.000129831 0.00534574 0.008013 0.001058 0.0027366 -0.00341554 -0.0016946 2650 
220 1 -0.0119104 0.0324586 0.00997072 0.000291 0.00700129 0.0121426 0.00761609 2650 
100 1 -0.00735363 0.0332789 0.00895064 0.001058 -0.0229933 0.0455058 -0.0178975 2650 
240 1 -0.0132371 0.0433939 0.00936221 0.000291 0.00630226 0.028255 0.00334286 2650 
28 1 -0.0103166 0.0712014 0.00957078 0.001058 0.00321107 0.0436165 0.0028608 2650 
222 1 -0.00835829 0.0114272 0.0116765 0.001058 -0.030215 0.0188938 -0.00627839 2650 
17 1 -0.00804187 0.0173628 0.0107373 0.00164 0.00712226 0.00856571 0.00734967 2650 
187 1 -0.0115884 0.028949 0.0105787 0.001058 0.00220575 0.0137802 0.0133562 2650 
155 1 -0.0123239 0.0384069 0.0100996 0.001058 -0.0165318 -0.000777787 -0.0185034 2650 
286 1 -0.0121505 0.0528705 0.0100217 0.001058 -0.0303667 0.0699091 -0.0335986 2650 
217 1 -0.00561443 0.0656263 0.011873 0.001058 0.0050448 0.0355067 -0.000306287 2650 
115 1 -0.00941381 0.0152831 0.0128149 0.001058 0.0122668 0.00122698 0.00620159 2650 
52 1 -0.00752655 0.0165658 0.0138823 0.001058 0.0115748 0.00840909 0.00616151 2650 
224 1 -0.00821274 0.0192909 0.0134468 0.001058 0.0075791 0.0103582 0.000624137 2650 
266 1 -0.00337306 0.0205423 0.0137604 0.001058 -0.0055861 0.00943706 -0.00598749 2650 
170 1 -0.00034465 0.00168178 0.0148023 0.001058 0.0120343 0.00223595 0.00751203 2650 
55 1 -0.00485741 0.0177041 0.0153869 0.000291 0.00439797 0.00637099 0.00132786 2650 
256 1 -0.007238 0.0181295 0.0148507 0.000291 0.0157159 0.00605035 0.00710944 2650 
10 1 -0.00249254 0.0282161 0.0154688 0.001058 0.0169518 0.0153093 0.00320967 2650 
47 1 -0.00081331 0.0165816 0.0162854 0.000291 0.0054213 -0.000773179 -0.000544609 2650 
77 1 -0.0143346 0.0841359 -0.000893239 0.000291 -1.70903 3.83221 -1.46869 2650 
250 1 -0.00547271 0.078585 0.0122831 0.001058 -0.0207209 0.0499207 0.0196622 2650 
51 1 0.0113878 -0.0397041 -0.0669844 0.001058 -23.8243 -3.27634 -4.04826 2650 
50 1 0.0082465 -0.028469 -0.0674467 0.001058 -29.0673 -1.13516 -3.55167 2650 
213 1 0.0166701 -0.0230634 -0.0666561 0.000291 -19.6451 -0.624769 -4.91305 2650 
83 1 0.00953599 -0.0103622 -0.06727 0.001058 -16.5591 -0.00465658 -2.34712 2650 
174 1 0.0282097 -0.0575307 -0.0626509 0.000291 6.34943 0.821423 2.8664 2650 
34 1 0.0301254 -0.0598648 -0.0609026 0.001058 -17.6759 0.657103 -8.73729 2650 
193 1 0.0397308 -0.0126842 -0.054404 0.00164 -7.686 -0.208206 -5.60518 2650 
25 1 0.0489687 -0.0237903 -0.046299 0.00164 -14.8598 0.418194 -15.6965 2650 
232 1 0.051932 -0.0120538 -0.0438323 0.001058 -12.5509 3.38559 -14.8567 2650 
185 1 0.0512651 -0.00685063 -0.043743 0.00164 -13.1508 1.76056 -15.3922 2650 
246 1 0.0537938 -0.0570211 -0.0415249 0.001058 -9.66776 0.32093 -12.5123 2650 
113 1 0.0554793 -0.0587285 -0.0382847 0.00164 -15.9384 -0.987401 -23.0694 2650 
14 1 0.0577262 -0.0273646 -0.03727 0.000291 -5.66007 2.17053 -8.76406 2650 
78 1 0.0639905 -0.00500061 -0.025036 0.000291 -4.46028 -1.28511 -11.3971 2650 
293 1 0.0658808 -0.0478024 -0.0167182 0.001058 -5.21133 4.19543 -20.5189 2650 
73 1 0.0667779 -0.0436484 -0.00912619 0.00164 -1.35145 -1.5323 -9.87541 2650 
190 1 0.00198506 -0.00238969 -0.0053333 0.000291 -0.00521913 -0.00362216 -0.00639973 2650 
160 1 0.0136322 -0.00110629 0.00619541 0.000105 -0.00597896 0.000269468 0.0180444 2650 
82 1 0.00310357 -0.00225372 0.00980812 0.001058 -0.000391042 -0.00138864 -0.00588319 2650 
210 1 0.0669879 -0.0391257 0.0115062 0.001058 3.33022 -0.960167 -19.3714 2650 
218 1 0.0668977 -0.00498085 0.0120186 0.001058 3.43596 0.465846 -19.1086 2650 
138 1 0.060391 -0.0444991 0.0311814 0.001058 10.8425 -0.512488 -20.9814 2650 
264 1 0.0581948 -0.00211717 0.0350987 0.001058 8.43648 -0.348714 -13.975 2650 
237 1 0.0540121 -0.0513727 0.041242 0.001058 10.6643 1.7675 -13.9534 2650 
169 1 0.0476559 -0.0514986 0.0476424 0.00164 13.9129 0.0910436 -13.8986 2650 
287 1 0.0487151 -0.0335838 0.0473836 0.001058 17.3626 -3.40348 -17.8353 2650 
146 1 0.0446096 -0.0592804 0.0512646 0.001058 19.0744 -0.883244 -16.5841 2650 
44 1 0.0460002 -0.0532057 0.0500159 0.001058 14.2152 0.35612 -13.0619 2650 
132 1 0.0425088 -0.0424769 0.0530127 0.001058 15.2026 1.69342 -12.1794 2650 
3 1 0.0391758 -0.0474697 0.0555186 0.001058 15.5684 0.135557 -10.9761 2650 
18 1 0.037281 -0.0615037 0.0568049 0.001058 13.4353 -0.822269 -8.81057 2650 
2 1 0.0319445 -0.0352696 0.0599682 0.001058 16.5535 1.50256 -8.81188 2650 
98 1 0.0295159 -0.015315 0.0611974 0.001058 13.7852 -2.24316 -6.6461 2650 
285 1 0.0276531 -0.0356253 0.0620621 0.001058 16.1118 0.553097 -7.17556 2650 
244 1 0.0270229 -0.0273293 0.0623576 0.001058 35.7559 3.41868 -15.4837 2650 
43 1 0.0260274 -0.0228879 0.0627639 0.001058 20.6608 3.33007 -8.56216 2650 
108 1 0.0265985 -0.0143771 0.0625201 0.001058 14.0394 -3.68874 -5.97122 2650 
9 1 0.0263428 -0.00580701 0.0619998 0.00164 12.7967 0.0560447 -5.43258 2650 
162 1 0.0211888 -0.00117329 0.0645537 0.001058 12.3179 -0.21002 -4.0428 2650 
257 1 0.00363258 -0.0616603 0.0678474 0.001058 23.3224 -0.00270711 -1.24813 2650 
49 1 0.00552708 -0.0409338 0.0671408 0.00164 20.6198 -1.35923 -1.69584 2650 
196 1 0.0124188 -0.0334549 0.0667975 0.001058 11.7323 -1.06385 -2.18117 2650 
20 1 0.00708127 -0.00256618 0.0675728 0.001058 18.6138 -0.785048 -1.95025 2650 
140 1 4.74779e-05 -0.0177616 0.0679454 0.001058 24.8889 4.38319 -0.0173366 2650 
116 1 0.0317892 0.0282142 -0.0602987 0.001058 -172.159 -0.582282 -90.7228 2650 
85 1 0.00298328 0.0189878 -0.0161919 0.000291 0.00302158 0.0132939 0.000274953 2650 
42 1 0.000488726 0.0284129 -0.0153822 0.001058 3.23139 1.0767 0.271768 2650 
80 1 0.0017626 0.00254459 -0.0127541 0.000105 0.0130288 -0.0027678 -0.00975077 2650 
195 1 0.00765713 0.0160071 -0.0135754 0.001058 -0.0132264 0.00906577 -0.0176249 2650 
292 1 0.00384804 0.0293084 -0.0138181 0.001058 -0.0249092 0.0104633 -0.0123747 2650 
153 1 0.00605811 0.00403119 -0.0107712 0.00164 -0.00940421 -0.000246349 0.0055768 2650 
276 1 0.0123 0.000500645 -0.00989894 0.000291 0.0100232 -0.00342096 0.0170631 2650 
161 1 0.0108394 0.00279405 -0.00816986 0.00164 0.000745282 -0.000712 -0.00114313 2650 
95 1 0.0144663 0.0117137 -0.00821611 0.000291 -0.0313106 0.0147434 -0.0420821 2650 
279 1 0.00229234 0.0167056 -0.00968297 0.001058 -0.00655734 0.00883723 -0.00295144 2650 
284 1 0.0128528 0.00432484 -0.00778517 0.000291 -0.00241431 -0.00119174 -0.000406097 2650 
249 1 0.00850909 0.0403635 -0.0067607 0.000291 0.00967839 0.0183331 -0.0129307 2650 
79 1 0.00608856 0.00387228 -0.00406567 0.000291 -0.0098558 -0.00054128 -0.00920898 2650 
92 1 0.0061871 0.0142727 -0.00440242 0.001058 -0.00319297 0.00820736 -7.57342e-07 2650 
19 1 0.0140699 0.00382842 -0.0024805 0.001058 -0.000934858 -0.000672318 0.00257047 2650 
99 1 0.00185375 0.0233162 -0.00211968 0.001058 0.0112842 0.0140299 -0.00166045 2650 
298 1 0.0168139 0.00109767 -8.46624e-05 0.000105 4.35547e-05 -0.00450645 -0.0145131 2650 
129 1 0.00435143 0.00408145 -0.00107803 0.00164 0.0137141 0.00233646 -0.00334931 2650 
156 1 0.015798 0.0117313 -0.000824997 0.001058 -0.00602559 -0.000148478 -0.0079869 2650 
81 1 0.00691451 0.00285079 0.001591 0.00164 8.70564e-05 0.0050329 0.00133521 2650 
209 1 0.00477659 0.0139953 0.00341892 0.001058 0.0134316 0.00655067 0.00545932 2650 
238 1 0.00564781 0.0456805 0.00396467 0.001058 -0.00539285 0.0228554 -0.0112404 2650 
145 1 0.00729484 0.0037657 0.0065557 0.00164 -0.00697266 0.000571824 -0.00264258 2650 
265 1 0.0144529 0.0085942 0.00660088 0.001058 0.00177128 0.00285968 -0.00741488 2650 
74 1 0.00730114 0.0139781 0.00706819 0.001058 0.0120085 0.00759219 0.0108605 2650 
106 1 0.0100217 0.0749456 0.00690494 0.001058 0.0168325 0.0449922 -0.00167347 2650 
199 1 0.0116901 0.00820358 0.00966909 0.000291 -0.00652159 0.0115982 0.010153 2650 
66 1 0.00903467 0.0105416 0.00993619 0.001058 -0.00243266 0.00123622 -0.00504944 2650 
87 1 0.0137028 0.0107953 0.00940533 0.000291 -0.00144678 0.00608866 0.000221964 2650 
204 1 0.00408036 0.000979143 0.0105205 0.001058 -0.00161874 0.00229652 -0.00428399 2650 
130 1 0.0109013 0.00388085 0.0113902 0.001058 -0.0150138 0.00617952 0.0130924 2650 
101 1 0.0056068 0.00944319 0.0103508 0.000291 -0.000754547 0.0112167 0.0101384 2650 
41 1 0.00481158 0.0222243 0.010763 0.00164 0.00675228 0.00472229 -0.0112217 2650 
203 1 0.0067615 0.0678541 0.0100596 0.001058 -0.0104617 0.0489781 0.0207311 2650 
144 1 0.00202958 0.0286046 0.0133929 0.000105 0.0157353 0.0126694 -0.00626058 2650 
123 1 0.0067279 0.0467215 0.0128923 0.001058 -0.0034637 0.0288055 -0.00682417 2650 
112 1 0.0045177 0.00423506 0.0150932 0.000105 -0.0109427 -0.000159124 0.00547551 2650 
139 1 0.00549087 0.0267946 0.0142997 0.001058 -0.0136668 0.00686955 0.0124231 2650 
147 1 0.004024 0.0543866 0.0152101 0.001058 0.032366 0.0412784 -0.00630583 2650 
175 1 0.0648641 0.0255108 0.0226986 0.000291 29.6368 0.043837 -84.6744 2650 
127 1 0.025601 0.112916 -0.0637684 0.000291 -80.1795 -7.26978 -32.1832 2650 
202 1 0.00435437 0.127999 0.00297549 0.001058 -0.322365 6.21265 1.14048 2650 
57 1 0.00677738 0.0903685 0.00615741 0.00164 0.00164073 0.114548 0.00845379 2650 
