ITEM: TIMESTEP
10493762
ITEM: NUMBER OF ATOMS
240
ITEM: BOX BOUNDS ff ff ff
-0.15 0.15
-0.15 0.15
-0.15 0.15
ITEM: ATOMS id type x y z radius vx vy vz density 
241 1 -0.0247607 -0.0567282 -0.0640924 0.000291 -18.5047 -0.855555 7.14886 2650 
243 1 -0.0184267 -0.0559489 -0.0653972 0.001058 -18.7081 -0.476767 5.26939 2650 
20 1 -0.0235918 -0.0446896 -0.0637204 0.001058 -22.8629 5.68806 8.46106 2650 
226 1 -0.0250151 -0.0445596 -0.0638365 0.000291 -23.7335 5.69405 8.24321 2650 
179 1 -0.0221629 -0.0404755 -0.0642273 0.001058 -17.5224 2.0967 6.04421 2650 
193 1 -0.0188612 -0.00534293 -0.064666 0.00164 -8.92295 0.274546 2.6022 2650 
264 1 -0.028131 -0.0490716 -0.06185 0.001058 -20.1099 2.06458 9.14024 2650 
237 1 -0.0296112 -0.0209864 -0.0611527 0.001058 -16.0976 -0.519422 7.79038 2650 
165 1 -0.0516645 -0.0260564 -0.0452983 0.000291 -7.55128 -0.0101728 8.60965 2650 
162 1 -0.0551911 -0.0198779 -0.039649 0.001058 -8.46258 0.73497 11.7685 2650 
15 1 -0.0529723 -0.031854 -0.0306804 0.000291 -8.87737 -1.57283 51.3268 2650 
70 1 -0.002345 -0.00133344 -0.015511 0.000291 0 -0.01175 0 2650 
114 1 -0.0117499 -0.000532709 -0.0103241 0.001058 0.00321985 -0.00836985 -0.0228365 2650 
135 1 -0.00248121 -0.000251236 -0.0105564 0.000291 0.0022501 0.000177671 -0.0146391 2650 
169 1 -0.0668121 -0.0532691 -0.00892173 0.00164 -2.32833 1.53628 17.4133 2650 
188 1 -0.067956 -0.0471397 -0.00133949 0.001058 -0.363523 -1.28652 18.4252 2650 
13 1 -0.014201 -1.43703e-06 -0.003882 0.000291 0 -0.01175 0 2650 
138 1 -0.0679244 -0.0600869 0.00243231 0.001058 0.566997 -1.89161 15.8207 2650 
168 1 -0.00784368 -0.00269355 0.000168148 0.000105 -0.00474988 -0.00776886 -0.0188469 2650 
120 1 -0.016055 -0.000749437 0.000189 0.000105 0 -0.01175 0 2650 
211 1 -0.0678866 -0.0506852 0.00330358 0.001058 0.649272 1.88498 13.3306 2650 
184 1 -0.0164829 -0.00328052 0.00268701 0.000105 0.0165952 0.00025513 0.088892 2650 
18 1 -0.0127264 -0.000484655 0.00290863 0.001058 0.0998935 0.0117625 -0.0140564 2650 
225 1 -0.0677512 -0.0572505 0.00542249 0.001058 1.27086 -0.0965272 15.8652 2650 
53 1 -0.000389 -0.00267444 0.004762 0.000291 0 -0.01175 0 2650 
164 1 -0.003894 -0.000376437 0.005467 0.001058 0 -0.01175 0 2650 
38 1 -0.00289354 -0.001488 0.0058601 0.000291 -0.00540624 -0.00234689 -0.00641771 2650 
170 1 -0.0116949 -0.000592335 0.00687449 0.001058 -0.0043652 0.00288856 0.0358235 2650 
58 1 -0.0131199 -0.00156759 0.0084663 0.001058 0.00269593 -0.00940518 -0.00252922 2650 
285 1 -0.011246 -0.00135582 0.0108678 0.001058 -0.00567287 -0.013081 -0.00684475 2650 
196 1 -0.063611 -0.0597509 0.0239352 0.001058 6.10225 1.37247 16.2033 2650 
247 1 -0.0635631 -0.0550778 0.0261021 0.000291 5.56131 1.92853 13.539 2650 
178 1 -0.0580739 -0.00110865 0.0352939 0.001058 5.70088 -0.209709 9.34966 2650 
205 1 -0.0256517 -0.00615758 0.0411564 0.000291 -4.02873 -0.187081 6.46356 2650 
132 1 -0.0522235 -0.043811 0.043479 0.001058 8.14819 1.30031 9.77723 2650 
150 1 -0.0501371 -0.047856 0.0469827 0.000291 7.3651 -0.324453 7.85686 2650 
232 1 -0.0381725 -0.00622864 0.0562123 0.001058 15.1059 0.623908 10.2492 2650 
191 1 -0.0318513 -0.0560501 0.0608804 0.000291 1.75822 0.172721 0.919867 2650 
229 1 -0.0248357 -0.0430844 0.0632407 0.001058 13.2365 -0.196061 5.19732 2650 
26 1 -0.021734 -0.0277105 0.0643721 0.001058 10.9656 -0.222544 3.70213 2650 
140 1 -0.0200931 -0.0247999 0.0649035 0.001058 14.9026 -1.7742 4.6129 2650 
16 1 -0.00421611 -0.000104995 0.0687659 0.000105 8.27196 -6.1331e-05 0.508733 2650 
11 1 -0.0413857 0.0556776 -0.054014 0.001058 -87.4639 -18.8121 66.981 2650 
147 1 -0.00845539 0.0239715 -0.0134438 0.001058 -0.0443509 0.0333805 0.0328117 2650 
94 1 -0.011556 0.00379637 -0.011855 0.000291 8.54657e-05 -0.0117335 8.54657e-05 2650 
33 1 -0.00331049 0.00361482 -0.0106047 0.00164 0.00139121 -0.00702858 0.00589607 2650 
234 1 -0.0118369 0.00730337 -0.0100899 0.000291 -0.000530972 0.00319134 0.0114593 2650 
127 1 -0.00102614 0.0393232 -0.0107894 0.000291 0.0287766 0.0561217 0.00113528 2650 
276 1 -0.00755322 0.00348076 -0.00924386 0.000291 0.0231998 -0.00215193 -0.0242449 2650 
75 1 -0.00782105 0.0452737 -0.0085977 0.001058 0.0171891 0.064434 -0.0211867 2650 
104 1 -0.0143725 0.00312318 -0.00746198 0.000105 0.011981 -0.00157217 -0.0109702 2650 
159 1 -0.012707 0.00389256 -0.00588 0.000291 0 -0.01175 0 2650 
175 1 -0.0160148 0.00558327 -0.0041337 0.000291 0.043016 0.196268 -0.22446 2650 
97 1 -0.0120347 0.00243749 -0.00251061 0.00164 0.00587724 -0.00270027 -0.00409197 2650 
80 1 -0.0108753 0.00522936 -0.00329583 0.000105 0.0130288 -0.0027678 -0.00975077 2650 
74 1 -0.00474599 0.00686174 -0.00319804 0.001058 0.0197531 0.00277685 0.00564839 2650 
187 1 -0.0137279 0.0155822 -0.0023768 0.001058 0.00220575 0.0137802 0.0133562 2650 
7 1 -0.00572 0.0220491 -0.00311456 0.000291 0.00379351 0.0136266 -0.000190797 2650 
61 1 -0.016439 0.00361056 -0.001038 0.000291 0 -0.01175 0 2650 
209 1 -0.00825205 0.00764117 -0.00187662 0.001058 0.0134316 0.00655067 0.00545932 2650 
17 1 -0.013753 0.00795634 -7.11379e-05 0.00164 0.00532312 0.0101535 0.0126934 2650 
99 1 -0.00909194 0.00970718 -0.00050904 0.001058 0.0112842 0.0140299 -0.00166045 2650 
115 1 -0.0156955 0.0113756 -0.00160253 0.001058 -0.000778858 0.00570077 0.0190053 2650 
256 1 -0.0166544 0.011888 -0.000464082 0.000291 -0.00248712 0.00686779 0.0223943 2650 
65 1 -0.0114399 0.0189038 -0.000505723 0.00164 -0.00343699 0.0118581 0.00338465 2650 
154 1 -0.0150601 0.0481342 -0.00127776 0.001058 -0.0457969 0.0551383 0.0326121 2650 
126 1 -0.00318821 7.77914e-05 0.000517607 0.000291 -0.00813257 -0.0158529 -0.0248811 2650 
268 1 -0.011054 0.00247256 0.000789 0.000291 0 -0.01175 0 2650 
240 1 -0.0122345 0.0147215 0.00136343 0.000291 -0.00215606 0.0297587 0.00899639 2650 
144 1 -0.00945188 0.0147864 0.001733 0.000105 0.00862261 0.0155448 0.0270904 2650 
220 1 -0.0132657 0.0200239 0.00022434 0.000291 -0.00515653 0.0136107 0.0128916 2650 
176 1 -0.003983 0.000587563 0.002552 0.000105 0 -0.01175 0 2650 
129 1 -0.00862055 0.00216725 0.00207877 0.00164 0.000219449 -0.0120332 0.000405385 2650 
71 1 -0.00224038 0.00621513 0.00219584 0.000291 -0.00101545 -0.00618567 -0.020495 2650 
52 1 -0.0155582 0.00820251 0.00327677 0.001058 0.00324999 0.00881232 0.0149724 2650 
47 1 -0.016311 0.012025 0.00345003 0.000291 0.00571001 0.0110472 0.0346634 2650 
10 1 -0.0146809 0.0122709 0.0033356 0.001058 0.00786106 0.0172796 0.0191737 2650 
41 1 -0.00371419 0.0151367 0.00287486 0.00164 0.0101493 0.00903205 0.0210511 2650 
291 1 -0.008194 0.00399756 0.004767 0.000291 0 -0.01175 0 2650 
242 1 -0.0103769 0.0137523 0.00553145 0.000291 -0.0086111 0.00654042 0.00262129 2650 
249 1 -0.000878944 0.0225804 0.00578206 0.000291 0.00967839 0.0183331 -0.0129307 2650 
124 1 -0.0148879 0.025837 0.00465265 0.001058 0.000501626 0.0410145 -0.000846304 2650 
186 1 -0.006177 0.00193956 0.006545 0.001058 0 -0.01175 0 2650 
4 1 -0.0138649 0.00665505 0.007098 0.001058 -0.000962198 -0.00289426 -0.00306323 2650 
28 1 -0.0134313 0.0288934 0.0067958 0.001058 0.00321107 0.0436165 0.0028608 2650 
300 1 -0.0126007 0.000212451 0.00958178 0.001058 -0.00145822 -0.00625883 -0.00374683 2650 
304 1 -0.0117428 0.00920461 0.00952181 0.000291 0.00483691 0.00442522 -0.0020989 2650 
68 1 -0.00278433 0.00865882 0.00965676 0.001058 0.0027366 -0.00341554 -0.0016946 2650 
273 1 -0.00250731 0.0281699 0.00934908 0.001058 -0.00378567 0.0376334 0.0311204 2650 
106 1 -0.00630581 0.0313032 0.0085282 0.001058 0.0168325 0.0449922 -0.00167347 2650 
217 1 -0.0103207 0.0311458 0.0119619 0.001058 -0.00233988 0.0370461 0.00790606 2650 
266 1 -0.00881683 0.0102373 0.0129212 0.001058 0.0114944 0.0113642 0.00462513 2650 
55 1 -0.00906288 0.0117658 0.0139448 0.000291 0.00145012 0.00253835 0.00869702 2650 
224 1 -0.00824838 0.0128083 0.0132153 0.001058 -0.00136791 0.00490756 -0.00324686 2650 
157 1 -0.00528838 0.0618273 0.0128844 0.000291 0.0200522 0.0842483 0.026686 2650 
299 1 -0.00560554 0.00190053 0.014659 0.001058 0.0133133 -0.0112639 0.0106099 2650 
206 1 -0.0168195 0.105489 0.000513322 0.000291 -0.00229865 0.236368 -0.00599883 2650 
223 1 0.0196161 -0.0493045 -0.065049 0.001058 -13.3318 4.47801 -4.01989 2650 
30 1 0.019864 -0.00662935 -0.065775 0.000291 -20.0658 -2.91297 -6.05984 2650 
148 1 0.0297822 -0.0233424 -0.061072 0.001058 -18.8386 -0.937997 -9.18015 2650 
218 1 0.0337419 -0.0135149 -0.0589716 0.001058 -7.56206 -1.97845 -4.32617 2650 
111 1 0.0315609 -0.00162075 -0.0610418 0.000291 -33.6683 -8.2675 -18.187 2650 
121 1 0.035831 -0.0251751 -0.0570603 0.00164 -16.84 0.638828 -10.5612 2650 
88 1 0.0401076 -0.0350213 -0.0556891 0.000105 -13.4643 -1.73685 -9.01449 2650 
93 1 0.0401905 -0.0333352 -0.055729 0.000291 -14.1412 5.11305 -10.187 2650 
98 1 0.0403965 -0.0249804 -0.0546408 0.001058 -17.732 -1.09675 -13.098 2650 
14 1 0.0428176 -0.00739904 -0.0537362 0.000291 -9.73083 -0.290309 -7.75323 2650 
207 1 0.0445812 -0.0111777 -0.0522824 0.000291 -7.767 -0.31646 -6.6222 2650 
152 1 0.0387836 -0.0529449 -0.0501478 0.000105 -8.34452 -8.41038 -6.40953 2650 
90 1 0.0458586 -0.048422 -0.050149 0.001058 -16.4569 2.23148 -15.0357 2650 
270 1 0.0486833 -0.0474082 -0.0484882 0.000291 -16.3959 -11.3759 -16.457 2650 
108 1 0.0491647 -0.0322848 -0.0469045 0.001058 -6.61727 -0.0736875 -6.92882 2650 
25 1 0.050562 -0.0578565 -0.0445484 0.00164 -11.9384 0.404679 -13.5318 2650 
63 1 0.0526369 -0.0351688 -0.0441654 0.000291 -10.4031 -1.18355 -12.3946 2650 
50 1 0.0518294 -0.0203655 -0.0439501 0.001058 -10.224 -1.25778 -12.0454 2650 
36 1 0.0568992 -0.0594546 -0.0371637 0.001058 -10.4381 1.56959 -15.9668 2650 
274 1 0.0568134 -0.0145162 -0.0386473 0.000291 -9.99248 5.24869 -14.6852 2650 
180 1 0.0600322 -0.0528525 -0.0318887 0.001058 -17.629 -0.998311 -33.1628 2650 
296 1 0.0661988 -0.029286 0.0184252 0.000291 7.48286 10.757 -26.8779 2650 
185 1 0.0637661 -0.0463108 -0.0216881 0.00164 4.56059 0.57872 10.4405 2650 
21 1 0.0654698 -0.0517921 -0.0208679 0.000291 -1.49826 -3.80524 -4.63962 2650 
272 1 0.0645559 -0.0516655 -0.0193738 0.001058 3.13073 -7.22404 11.2719 2650 
269 1 0.00795523 -0.00123973 -0.0140201 0.000291 -0.00749531 -0.00226906 0.00353502 2650 
289 1 0.001465 -0.00202844 -0.012477 0.000291 0 -0.01175 0 2650 
263 1 0.006877 -0.00319544 -0.012319 0.000291 0 -0.01175 0 2650 
142 1 0.002378 -0.00161344 -0.013184 0.000291 0 -0.01175 0 2650 
280 1 0.0671074 -0.0331948 -0.0107642 0.001058 -1.64861 -1.64676 -10.2686 2650 
160 1 0.00754861 -0.0015722 -0.0116098 0.000105 0.0189834 0.00069911 0.018679 2650 
46 1 0.0679325 -0.050293 -0.0103405 0.000291 -2.34582 -3.1376 -15.407 2650 
201 1 0.0122701 -0.00135179 -0.00847381 0.00164 0.0258363 0.00451728 0.0344242 2650 
34 1 0.0675064 -0.0470785 -0.00791235 0.001058 -2.07718 -1.91294 -17.7102 2650 
83 1 0.0673781 -0.0434321 -0.00895286 0.001058 -2.81976 1.13741 -21.195 2650 
102 1 0.003423 -0.00329044 -0.006065 0.000291 0 -0.01175 0 2650 
117 1 0.004754 -0.00302844 -0.007063 0.000291 0 -0.01175 0 2650 
60 1 0.007579 -0.000387437 -0.006312 0.001058 0 -0.01175 0 2650 
45 1 0.010575 -0.000467437 -0.007722 0.000291 0 -0.01175 0 2650 
246 1 0.0677152 -0.0460361 -0.00589889 0.001058 -2.03226 -3.00064 -23.3197 2650 
43 1 0.0677381 -0.0211546 -0.0055773 0.001058 -1.20841 3.83967 -14.6638 2650 
253 1 0.014729 -0.00161844 -0.002617 0.000291 0 -0.01175 0 2650 
261 1 0.047138 -0.0163176 -0.000411886 0.000291 6.92395 -1.25749 -0.100512 2650 
177 1 0.00156707 -0.00192303 -0.00110171 0.00164 -0.00972365 -0.00599557 0.0042022 2650 
113 1 0.0103922 -0.00139044 -0.000384114 0.00164 0.00679641 -0.00587846 0.00176234 2650 
2 1 0.0679591 -0.0323087 0.00100312 0.001058 0.175633 -4.00733 -11.8872 2650 
81 1 0.00734449 -0.00265174 7.54933e-05 0.00164 -0.00360408 0.0094992 0.00296658 2650 
210 1 0.00907622 -0.00302179 0.00222054 0.001058 -0.0010314 -0.00673881 0.00545953 2650 
1 1 0.0673346 -0.00311209 0.0029917 0.00164 0.551731 0.0525812 -12.4005 2650 
35 1 0.00240333 -0.00161186 0.00271143 0.001058 0.00657044 -0.0107373 -0.00948648 2650 
133 1 0.068534 -0.0591486 0.00498407 0.000291 0.797992 0.92281 -10.97 2650 
171 1 0.0675826 -0.0063202 0.00720189 0.001058 0.96311 0.0844241 -9.0295 2650 
258 1 0.0118301 -0.00100255 0.0078869 0.001058 0.00409759 -0.0073608 -0.00772301 2650 
49 1 0.0669664 -0.00930303 0.00762082 0.00164 1.1175 -0.655272 -9.80594 2650 
3 1 0.0134122 -0.00241602 0.008391 0.001058 0.00642628 -0.00698809 -0.0102347 2650 
42 1 0.0673229 -0.0206099 0.00932641 0.001058 1.61492 -3.61615 -11.6456 2650 
259 1 0.0672522 -0.00522204 0.00982092 0.001058 1.60217 0.301599 -10.9614 2650 
146 1 0.0667724 -0.0105276 0.012674 0.001058 1.74813 -1.01736 -9.20143 2650 
103 1 0.00560511 -0.00331326 0.0130467 0.000291 0.10723 -0.0191205 0.262448 2650 
82 1 0.00141424 -0.00248876 0.0157131 0.001058 0.00400128 0.00197046 -0.0063043 2650 
174 1 0.0661109 -0.0394995 0.0187359 0.000291 -4.46711 -0.0377306 15.7584 2650 
122 1 0.0580978 -0.0583636 0.0353379 0.001058 34.0692 7.17564 -55.9772 2650 
76 1 0.0539629 -0.0356393 0.0413311 0.001058 23.3272 -5.21182 -30.4287 2650 
198 1 0.0520521 -0.042725 0.0448561 0.000291 27.0658 -0.201549 -31.3999 2650 
137 1 0.0480296 -0.0213839 0.0472606 0.00164 11.7366 -0.400604 -11.9124 2650 
172 1 0.0494058 -0.00221647 0.0466516 0.001058 7.84508 -0.374377 -8.29967 2650 
44 1 0.047795 -0.0186717 0.0483047 0.001058 13.2771 0.0282711 -13.1242 2650 
89 1 0.044315 -0.0275814 0.0507548 0.00164 12.343 -4.517 -10.7605 2650 
233 1 0.0429661 -0.0167276 0.053618 0.000291 14.9016 -4.77004 -11.9389 2650 
73 1 0.031238 -0.0410747 0.0597097 0.00164 24.855 5.15559 -12.9882 2650 
239 1 0.0132751 -0.0298186 0.0638269 0.001058 24.624 2.39697 -9.62982 2650 
293 1 0.00454248 -0.0530806 0.0677909 0.001058 19.1716 -7.73396 -1.28436 2650 
29 1 0.0201215 -0.0462509 0.0656965 0.000291 20.3568 1.03089 -6.16287 2650 
230 1 0.00232337 -0.0364095 0.0679028 0.001058 17.6617 -3.93226 -0.604223 2650 
213 1 0.0173781 -0.0331792 0.066475 0.000291 24.4177 4.80159 -6.38335 2650 
257 1 0.016474 -0.0252689 0.0659147 0.001058 13.0638 -2.10141 -3.26483 2650 
85 1 5.23418e-05 0.00609279 -0.0164586 0.000291 0.00302158 0.0132939 0.000274953 2650 
252 1 0.00187863 0.00151068 -0.0146781 0.001058 -0.00166999 -0.0122494 -0.00385255 2650 
110 1 0.00410586 5.48492e-05 -0.0140661 0.000291 -0.00350107 -0.0220031 -0.0105184 2650 
260 1 0.00494505 0.00254612 -0.0142054 0.000291 -0.0126887 0.00194451 -0.0180502 2650 
37 1 0.006156 0.00331056 -0.015157 0.000291 0 -0.01175 0 2650 
78 1 0.000282577 0.0035465 -0.013188 0.000291 -0.00533626 -0.0103826 -0.00367069 2650 
105 1 0.00215782 0.00400723 -0.0120905 0.00164 -0.00380999 -0.0064552 -0.00344187 2650 
130 1 0.0111045 0.00102845 -0.0112147 0.001058 0.0220008 -0.000782458 0.025394 2650 
275 1 0.012705 0.00104356 -0.010476 0.000291 0 -0.01175 0 2650 
134 1 0.00593861 0.00461198 -0.00933663 0.000291 -0.0118829 0.00375813 -0.00608975 2650 
59 1 0.000772994 0.014239 -0.00897055 0.001058 -0.0209148 0.0146292 -0.0313729 2650 
67 1 0.00282112 0.00285569 -0.00636223 0.001058 -0.00558703 -0.00493479 0.00721537 2650 
161 1 0.0118358 0.00266637 -0.00656031 0.00164 -0.00276466 0.000958617 -0.00216536 2650 
284 1 0.014705 0.00552963 -0.00698968 0.000291 0.00198088 -0.00162967 -0.00401056 2650 
279 1 0.00865296 0.00813349 -0.00682007 0.001058 -0.00655734 0.00883723 -0.00295144 2650 
203 1 0.00707146 0.0189152 -0.00720849 0.001058 0.0383176 0.0560696 0.0066439 2650 
250 1 0.0142511 0.0301102 -0.00668853 0.001058 0.056604 0.0605666 -0.00107285 2650 
199 1 0.014464 2.3563e-05 -0.004562 0.000291 0 -0.01175 0 2650 
278 1 7.4e-05 0.00212356 -0.004448 0.001058 0 -0.01175 0 2650 
19 1 0.0149767 0.00448057 -0.00497385 0.001058 -0.000934858 -0.000672318 0.00257047 2650 
92 1 0.00928428 0.00631152 -0.00440169 0.001058 -0.00319297 0.00820736 -7.57342e-07 2650 
123 1 0.00996252 0.021249 -0.00478668 0.001058 0.00532989 0.0294064 0.0427642 2650 
227 1 0.00944 0.000210563 -0.002109 0.000291 0 -0.01175 0 2650 
77 1 0.00122459 0.0110763 -0.00339163 0.000291 0.0277953 0.00207908 -0.016867 2650 
190 1 0.005899 0.00291256 -0.000534 0.000291 0 -0.01175 0 2650 
139 1 0.0112315 0.019671 -0.000805575 0.001058 0.0124295 0.00846741 0.0230295 2650 
155 1 0.0157347 0.0189456 -0.00113987 0.001058 0.00218242 0.0331681 0.059836 2650 
301 1 0.0105184 0.0308506 -0.00033964 0.001058 0.0113125 0.0256345 -0.0254985 2650 
48 1 0.009671 0.000804563 0.000233 0.000105 0 -0.01175 0 2650 
212 1 0.000926324 0.00339369 0.00194667 0.000291 -0.000536105 -0.00385845 -0.0132408 2650 
128 1 0.00361 0.00251156 0.000511 0.000105 0 -0.01175 0 2650 
9 1 0.012984 0.00254956 0.000468 0.00164 0 -0.01175 0 2650 
286 1 0.015584 0.00321756 0.000132 0.001058 0 -0.01175 0 2650 
153 1 0.00301865 0.00651084 0.000813027 0.00164 0.00916448 -0.00410288 -0.0197232 2650 
202 1 0.00399446 0.00176176 0.00296243 0.001058 0.00902415 -0.00711253 -0.0136345 2650 
101 1 0.00509552 0.00114696 0.00231817 0.000291 0.0120929 -0.0154866 -0.00848068 2650 
294 1 0.006997 0.000518563 0.003581 0.001058 0 -0.01175 0 2650 
245 1 0.000398368 0.0599301 0.00259482 0.001058 0.0132501 0.0534812 -0.0221989 2650 
24 1 0.005464 0.000600563 0.005551 0.000105 0 -0.01175 0 2650 
51 1 0.00948684 0.00152242 0.0048427 0.001058 -0.00119198 -0.0127786 0.00180812 2650 
244 1 0.0148904 0.00109883 0.00411257 0.001058 0.0015266 -0.0108736 -0.00696002 2650 
79 1 0.0156487 0.00439732 0.00486704 0.000291 -0.0098558 -0.00054128 -0.00920898 2650 
195 1 0.00750938 0.00791744 0.00549331 0.001058 0.0216865 0.00727933 -0.0225594 2650 
231 1 0.006459 0.000225563 0.007445 0.001058 0 -0.01175 0 2650 
100 1 0.0125399 0.00164771 0.00604197 0.001058 0.00434944 0.00129187 -0.0119031 2650 
208 1 0.014567 0.00104203 0.00623139 0.001058 0.0019715 -0.00401018 -0.00449407 2650 
222 1 0.009219 0.00287256 0.006833 0.001058 0 -0.01175 0 2650 
271 1 0.0139084 0.00340355 0.0067537 0.001058 -0.0207212 -0.00347592 0.00514984 2650 
112 1 0.0135144 0.00433732 0.00764337 0.000105 -0.00362665 7.64353e-05 0.0151472 2650 
194 1 0.0125395 0.00195442 0.00960456 0.001058 0.00965479 -0.00844737 -0.00170701 2650 
156 1 0.00651096 0.0119171 0.00887306 0.001058 0.00972231 -0.000191895 -0.0100171 2650 
287 1 0.0105673 0.000593022 0.0117873 0.001058 0.000606337 -0.00699142 -0.0042577 2650 
145 1 0.0110715 0.00495488 0.0103888 0.00164 0.0110313 -0.00631937 0.0021615 2650 
66 1 0.00675039 0.00935299 0.0114837 0.001058 0.00619263 0.00109789 0.000884431 2650 
292 1 0.00384099 0.0162765 0.0108964 0.001058 0.0152425 0.0152519 -0.0334915 2650 
57 1 0.00622555 0.0228597 0.0110037 0.00164 -0.000944415 0.00612769 -0.0239867 2650 
54 1 0.0067728 0.0312033 0.0118968 0.000291 0.0527092 0.00944275 -0.0227616 2650 
204 1 0.00694852 0.000196431 0.0129508 0.001058 0.00309304 0.0005573 0.0141749 2650 
265 1 0.00826059 0.00555412 0.0131713 0.001058 0.0138468 -0.000204256 -0.0123584 2650 
298 1 0.0105121 0.00583458 0.0124491 0.000105 0.00384822 -0.00429062 -0.00813409 2650 
238 1 0.000523545 0.0227574 0.0129762 0.001058 0.0206406 0.0247492 -0.00648467 2650 
116 1 0.0039179 0.0338987 0.013792 0.001058 -0.0498801 0.0513823 -0.0203473 2650 
95 1 0.00711715 0.00351546 0.0143029 0.000291 0.000317815 -0.00292264 0.00231518 2650 
87 1 0.00110693 0.0210563 0.0164117 0.000291 0.0584589 0.0238916 0.00843225 2650 
216 1 0.03836 0.070519 0.056214 0.001058 97.2865 -0.913942 -66.3536 2650 
136 1 0.0075684 0.0962364 0.00334636 0.000105 0.0370802 0.101801 0.0201257 2650 
91 1 0.0243338 0.0938996 0.0635258 0.001058 91.8891 4.81743 -35.1793 2650 
