ITEM: TIMESTEP
20617232
ITEM: NUMBER OF ATOMS
174
ITEM: BOX BOUNDS ff ff ff
-0.15 0.15
-0.15 0.15
-0.15 0.15
ITEM: ATOMS id type x y z radius vx vy vz density 
258 1 -0.026575 -0.0223996 -0.0625301 0.001058 -13.7647 -1.70246 5.84842 2650 
237 1 -0.0248922 -0.00479716 -0.062805 0.001058 -2.54362 -2.37154 1.45871 2650 
140 1 -0.0349851 -0.0306934 -0.0587404 0.001058 29.6796 1.22079 11.2473 2650 
278 1 -0.0410723 -0.0307433 -0.0541559 0.001058 -33.4743 2.96452 25.3687 2650 
159 1 -0.0446238 -0.0404064 -0.0522479 0.000291 -21.9103 4.22373 18.7081 2650 
174 1 -0.0513084 -0.0377818 -0.0457029 0.000291 -19.433 -2.80041 21.8104 2650 
121 1 -0.0479654 -0.0163695 -0.0473302 0.00164 -13.4435 -1.03483 13.6059 2650 
257 1 -0.0517677 -0.0473575 -0.0440318 0.001058 -16.5793 0.123131 19.4755 2650 
35 1 -0.0529784 -0.0276796 -0.0425671 0.001058 -15.0848 -2.33042 18.7582 2650 
108 1 -0.0561642 -0.0205193 -0.0382695 0.001058 -13.5933 -2.1845 19.9324 2650 
178 1 -0.0555953 -0.00582537 -0.0366349 0.001058 -25.4959 -5.08296 36.7725 2650 
78 1 -0.0610614 -0.00344422 -0.0315131 0.000291 -11.6234 -1.6054 22.5161 2650 
44 1 -0.0653555 -0.0475888 -0.018663 0.001058 -5.67177 -1.37155 19.8447 2650 
135 1 -0.00294259 -0.00118685 -0.0163326 0.000291 -0.00520082 -0.0033352 0.00291956 2650 
105 1 -0.000954608 -0.0012811 -0.014898 0.00164 -0.00376222 -0.00643515 -0.0033816 2650 
285 1 -0.0665589 -0.0455433 -0.0137572 0.001058 -2.75281 2.85364 13.3063 2650 
14 1 -0.0679475 -0.0212338 -0.0102427 0.000291 -3.06477 3.72472 20.3257 2650 
34 1 -0.0675233 -0.0563507 -0.00777384 0.001058 -2.23995 -4.25851 19.4393 2650 
33 1 -0.0021697 -0.00214862 -0.00576992 0.00164 0.00139121 -0.00702858 0.00589607 2650 
67 1 -0.00173997 -0.00129318 -0.000562344 0.001058 -0.0055431 -0.00515644 0.00696255 2650 
218 1 -0.0679554 -0.0148323 0.00151213 0.001058 0.536339 -1.48911 24.0853 2650 
138 1 -0.0677456 -0.0386696 0.00486112 0.001058 1.26781 -1.74545 22.3431 2650 
51 1 -0.0676763 -0.0353093 0.00632754 0.001058 2.13518 1.86336 22.8309 2650 
73 1 -0.0669656 -0.0386233 0.00783211 0.00164 2.90772 -1.49854 24.1449 2650 
213 1 -0.068363 -0.013525 0.00694901 0.000291 2.12197 0.365173 20.8702 2650 
37 1 -0.068142 -0.0094138 0.00885512 0.000291 1.75135 -2.25446 13.4735 2650 
25 1 -0.0663763 -0.0264999 0.0117734 0.00164 4.48565 5.03588 25.1915 2650 
232 1 -0.0432368 -0.0269523 0.0105459 0.001058 -3.97238 1.02465 19.2095 2650 
122 1 -0.0670001 -0.00397816 0.0114433 0.001058 3.72612 -2.27517 21.7983 2650 
2 1 -0.0666491 -0.0323213 0.0133823 0.001058 7.30752 -7.62773 36.6611 2650 
300 1 -0.00876807 -2.27071e-05 0.0130866 0.001058 0.00506621 -0.000103925 0.00433634 2650 
61 1 -0.0668598 -0.0151623 0.0158602 0.000291 6.13475 7.35924 25.855 2650 
94 1 -0.0664536 -0.00823491 0.0174824 0.000291 5.11382 2.02458 19.4335 2650 
16 1 -0.064659 -0.000104996 0.0237901 0.000105 3.07369 2.94901e-08 8.35314 2650 
299 1 -0.0630416 -0.0368824 0.0254008 0.001058 7.78867 -0.664628 19.3139 2650 
259 1 -0.0585203 -0.0196258 0.0345708 0.001058 15.0728 1.16139 25.4943 2650 
186 1 -0.0572918 -0.0144483 0.0365568 0.001058 10.5479 -1.95344 16.516 2650 
18 1 -0.055684 -0.0557978 0.0389555 0.001058 8.62167 1.93891 12.3124 2650 
20 1 -0.0547514 -0.0353301 0.0402777 0.001058 20.7412 -3.54622 28.1727 2650 
272 1 -0.0557216 -0.00849279 0.0389065 0.001058 11.4135 -2.02149 16.3318 2650 
3 1 -0.052823 -0.0582907 0.0427517 0.001058 9.77598 1.10183 12.0675 2650 
50 1 -0.0480202 -0.0475436 0.0480848 0.001058 15.6468 -5.11579 15.612 2650 
98 1 -0.0465746 -0.0108446 0.0494842 0.001058 15.5048 -0.517484 14.5782 2650 
229 1 -0.0453203 -0.0120999 0.0506341 0.001058 15.3449 -1.45759 13.7261 2650 
162 1 -0.0439598 -0.0107506 0.0518176 0.001058 15.152 0.50654 12.8399 2650 
169 1 -0.0407448 -0.053267 0.0536669 0.00164 16.0455 0.578553 12.1662 2650 
264 1 -0.038149 -0.00198352 0.0562293 0.001058 16.1471 0.388082 10.9456 2650 
243 1 -0.0234255 -0.0195234 0.0637814 0.001058 22.482 -3.33137 8.25159 2650 
43 1 -0.0198179 -0.0452412 0.0649915 0.001058 22.14 -0.724464 6.74721 2650 
193 1 -0.0188659 -0.0415984 0.0646789 0.00164 22.1171 -0.559576 6.44403 2650 
252 1 -0.0193009 -0.016685 0.0651479 0.001058 23.6131 0.391644 6.9913 2650 
291 1 -0.0243147 -0.0148227 0.0642629 0.000291 21.3856 -3.42438 8.09149 2650 
172 1 -0.0211768 -0.0153825 0.0645624 0.001058 22.7569 0.0295242 7.45965 2650 
89 1 -0.0189859 -0.0110263 0.0646444 0.00164 22.4473 -0.879594 6.58532 2650 
36 1 -0.0183969 -0.00450114 0.0654081 0.001058 22.8488 -0.767629 6.42279 2650 
225 1 -0.0145842 -0.0502113 0.0663594 0.001058 18.3506 0.879131 4.03203 2650 
113 1 -0.00668213 -0.0474307 0.0670392 0.00164 22.8503 0.546943 2.2753 2650 
104 1 -0.0044672 0.00185737 -0.0160864 0.000105 0.0139931 -0.000990409 -0.00173116 2650 
71 1 -0.00307305 0.00114287 -0.0146101 0.000291 -0.00101545 -0.00618567 -0.020495 2650 
134 1 -0.00380537 0.00769365 -0.0143302 0.000291 -0.0118829 0.00375813 -0.00608975 2650 
80 1 -0.000191704 0.00295976 -0.0112915 0.000105 0.0130288 -0.0027678 -0.00975077 2650 
260 1 -0.00497923 0.00414033 -0.0117326 0.000291 -0.0120055 0.0019441 0.00651081 2650 
116 1 -0.0118401 0.072231 -0.0118141 0.001058 0.0060965 0.0429198 -0.0402084 2650 
97 1 -0.00721535 0.00022326 -0.00586602 0.00164 0.00587724 -0.00270027 -0.00409197 2650 
212 1 -0.000488056 0.00514783 -0.00330101 0.000291 -0.0026474 0.0067937 -0.00109041 2650 
59 1 -0.00774734 0.0220039 -0.00304489 0.001058 -0.00678086 0.00769962 0.0204659 2650 
7 1 -0.00260932 0.0332229 -0.00327102 0.000291 0.00379351 0.0136266 -0.000190797 2650 
201 1 -0.00633911 0.0602132 -0.00382399 0.00164 0.038351 0.0792669 0.0124736 2650 
234 1 -0.0122722 0.00992026 -0.000693222 0.000291 -0.000530972 0.00319134 0.0114593 2650 
65 1 -0.0142582 0.0286274 0.0022697 0.00164 -0.00343699 0.0118581 0.00338465 2650 
124 1 -0.0144765 0.0594689 0.00395868 0.001058 0.000501626 0.0410145 -0.000846304 2650 
4 1 -0.0146539 0.00428175 0.00458615 0.001058 -0.000962198 -0.00289426 -0.00306323 2650 
304 1 -0.00777652 0.0128333 0.00780071 0.000291 0.00483691 0.00442522 -0.0020989 2650 
242 1 -0.0141935 0.018647 0.00657448 0.000291 0.0039053 0.00473342 -0.00164707 2650 
273 1 -0.0035541 0.0549768 0.00621615 0.001058 -0.000465026 0.0310927 -0.0151219 2650 
68 1 -0.000540318 0.00585807 0.00826718 0.001058 0.0027366 -0.00341554 -0.0016946 2650 
17 1 -0.0091102 0.0160779 0.00963484 0.00164 0.00712226 0.00856571 0.00734967 2650 
187 1 -0.0119192 0.026882 0.00857532 0.001058 0.00220575 0.0137802 0.0133562 2650 
220 1 -0.0129606 0.0306373 0.00882832 0.000291 0.00700129 0.0121426 0.00761609 2650 
240 1 -0.0140025 0.0391237 0.00874048 0.000291 -0.00215606 0.0297587 0.00899639 2650 
28 1 -0.0107982 0.064659 0.00914166 0.001058 0.00321107 0.0436165 0.0028608 2650 
250 1 -0.0023646 0.071097 0.00933382 0.001058 -0.0207209 0.0499207 0.0196622 2650 
115 1 -0.0109715 0.0150308 0.0114571 0.001058 0.0100003 0.00177418 0.00963295 2650 
100 1 -0.00390467 0.0264531 0.0116352 0.001058 -0.0229933 0.0455058 -0.0178975 2650 
217 1 -0.00637115 0.0603003 0.0119189 0.001058 0.0050448 0.0355067 -0.000306287 2650 
170 1 -0.00214979 0.00134639 0.0136755 0.001058 0.0120343 0.00223595 0.00751203 2650 
222 1 -0.00382607 0.00859312 0.0126183 0.001058 -0.030215 0.0188938 -0.00627839 2650 
52 1 -0.009253 0.0153035 0.0129368 0.001058 0.0102442 0.00854631 0.00905676 2650 
224 1 -0.00885005 0.0176418 0.0123187 0.001058 0.00272956 0.0112845 0.010667 2650 
256 1 -0.0094656 0.0172093 0.0134993 0.000291 0.012635 0.00634989 0.0138765 2650 
155 1 -0.00945909 0.0384399 0.0124876 0.001058 -0.0195952 -0.000111918 -0.0154205 2650 
286 1 -0.00650137 0.0421469 0.0137441 0.001058 -0.0450467 0.0731475 -0.0153806 2650 
55 1 -0.00551711 0.0167484 0.0151878 0.000291 0.00439797 0.00637099 0.00132786 2650 
266 1 -0.00253515 0.0191268 0.0146586 0.001058 -0.0055861 0.00943706 -0.00598749 2650 
10 1 -0.00503529 0.0259197 0.0149873 0.001058 0.0169518 0.0153093 0.00320967 2650 
144 1 -0.000330705 0.0267042 0.0143319 0.000105 0.0157353 0.0126694 -0.00626058 2650 
147 1 -0.000861962 0.0481412 0.0157693 0.001058 0.0330115 0.0423931 0.00172215 2650 
47 1 -0.0016265 0.0166976 0.0163671 0.000291 0.0054213 -0.000773179 -0.000544609 2650 
42 1 0.0191115 -0.0358933 -0.0652039 0.001058 -23.8404 3.90066 -6.98328 2650 
211 1 0.0236106 -0.0373905 -0.0637138 0.001058 -23.2025 4.1928 -8.59224 2650 
253 1 0.025887 -0.0360373 -0.0636459 0.000291 -22.1388 4.33189 -9.00456 2650 
114 1 0.0228716 -0.0332467 -0.0639825 0.001058 -23.1086 3.5504 -8.25497 2650 
177 1 0.0441961 -0.0310845 -0.0508493 0.00164 -18.2551 2.34177 -16.4961 2650 
210 1 0.0491843 -0.0267556 -0.0469058 0.001058 -22.2266 4.7458 -23.2878 2650 
289 1 0.0574098 -0.0466675 -0.0377583 0.000291 -20.0537 -3.27021 -30.4831 2650 
83 1 0.0133124 -0.00573037 -0.0225843 0.001058 7.41679 -1.80802 6.77092 2650 
269 1 0.00180907 -0.00310036 -0.0111214 0.000291 -0.00749531 -0.00226906 0.00353502 2650 
190 1 0.00276792 -0.00184637 -0.00437335 0.000291 -0.00521913 -0.00362216 -0.00639973 2650 
271 1 0.00125273 -0.000820148 0.00377903 0.001058 -0.0143022 -0.00514114 -0.00504971 2650 
160 1 0.014529 -0.00114671 0.00348877 0.000105 -0.00597896 0.000269468 0.0180444 2650 
9 1 0.0077271 -0.00283509 0.00847464 0.00164 -0.00822201 -0.00531381 0.0121797 2650 
82 1 0.00316222 -0.00204543 0.0106906 0.001058 -0.000391042 -0.00138864 -0.00588319 2650 
76 1 0.0658642 -0.0239278 0.0167885 0.001058 5.84616 5.3964 -22.9163 2650 
185 1 0.0604657 -0.0119922 0.0297896 0.00164 10.7688 1.50032 -21.8311 2650 
132 1 0.0217254 -0.0137153 0.0643819 0.001058 25.1712 -4.92617 -8.48809 2650 
208 1 0.0597027 -0.0566222 0.0324782 0.001058 11.0969 -2.12836 -20.3812 2650 
293 1 0.058346 -0.0391594 0.034856 0.001058 12.4616 -0.711775 -20.842 2650 
196 1 0.0572965 -0.00697587 0.0365409 0.001058 5.84405 -0.203798 -9.15451 2650 
246 1 0.0552561 -0.0412359 0.0395693 0.001058 14.6868 2.4094 -20.4896 2650 
287 1 0.0558198 -0.0393597 0.0387722 0.001058 14.8747 1.97092 -21.3997 2650 
244 1 0.0467786 -0.0269435 0.0492943 0.001058 17.7178 -0.982242 -16.7991 2650 
1 1 0.0470467 -0.0137916 0.0482602 0.00164 19.8142 0.632514 -19.2929 2650 
49 1 0.0424494 -0.0518764 0.0523504 0.00164 23.4433 -2.76744 -18.9874 2650 
171 1 0.0338402 -0.0520676 0.0589256 0.001058 21.9704 -5.22067 -12.6072 2650 
146 1 0.0342874 -0.0321689 0.0586642 0.001058 19.4792 0.151564 -11.3759 2650 
110 1 0.0360394 -0.0282741 0.0584988 0.000291 19.9798 -2.87968 -12.3083 2650 
26 1 0.0270493 -0.0319517 0.0623312 0.001058 21.2473 -4.71469 -9.21411 2650 
137 1 0.0265668 -0.0147933 0.0619263 0.00164 25.4444 -2.41453 -10.9033 2650 
85 1 0.00253004 0.0169938 -0.0162331 0.000291 0.00302158 0.0132939 0.000274953 2650 
54 1 0.00201724 0.0323386 -0.016435 0.000291 -0.0465638 -0.00199725 -0.00181027 2650 
194 1 0.00698975 0.0416543 -0.0141553 0.001058 -0.0444567 0.0804433 -0.0230231 2650 
276 1 0.0107965 0.00101378 -0.0124584 0.000291 0.0100232 -0.00342096 0.0170631 2650 
153 1 0.00746873 0.00406815 -0.0116077 0.00164 -0.00940421 -0.000246349 0.0055768 2650 
77 1 0.00754687 0.0103736 -0.0110623 0.000291 -0.019582 -0.00741499 -0.0133594 2650 
195 1 0.00964108 0.0146473 -0.0109317 0.001058 -0.0132264 0.00906577 -0.0176249 2650 
292 1 0.00758439 0.0277389 -0.0119619 0.001058 -0.0249092 0.0104633 -0.0123747 2650 
301 1 0.00449736 0.0491132 -0.0115232 0.001058 -0.0177704 0.0203916 -0.00700909 2650 
279 1 0.00327593 0.01538 -0.00924026 0.001058 -0.00655734 0.00883723 -0.00295144 2650 
161 1 0.0107276 0.00290084 -0.00799839 0.00164 0.000745282 -0.000712 -0.00114313 2650 
284 1 0.0132149 0.00450361 -0.00772426 0.000291 -0.00241431 -0.00119174 -0.000406097 2650 
202 1 0.00229554 0.00675538 -0.00425644 0.001058 -0.00434778 0.00879769 -0.00781258 2650 
92 1 0.00666604 0.0130416 -0.00440231 0.001058 -0.00319297 0.00820736 -7.57342e-07 2650 
249 1 0.00705734 0.0376135 -0.00482111 0.000291 0.00967839 0.0183331 -0.0129307 2650 
19 1 0.0142102 0.00392927 -0.00286606 0.001058 -0.000934858 -0.000672318 0.00257047 2650 
79 1 0.00756692 0.00395347 -0.00268434 0.000291 -0.0098558 -0.00054128 -0.00920898 2650 
129 1 0.00229432 0.00373098 -0.00057564 0.00164 0.0137141 0.00233646 -0.00334931 2650 
95 1 0.0165731 0.00915528 -0.000611727 0.000291 0.00228583 0.0187175 -0.0535179 2650 
99 1 0.000161125 0.0212117 -0.00187061 0.001058 0.0112842 0.0140299 -0.00166045 2650 
81 1 0.00690145 0.00209586 0.00139072 0.00164 8.70564e-05 0.0050329 0.00133521 2650 
156 1 0.0144833 0.0117597 0.000659026 0.001058 0.00972231 -0.000191895 -0.0100171 2650 
298 1 0.0163377 0.00180559 0.00209493 0.000105 0.00504241 -0.00484656 -0.0145413 2650 
209 1 0.00276186 0.0130127 0.00260002 0.001058 0.0134316 0.00655067 0.00545932 2650 
74 1 0.00549988 0.0128393 0.00543913 0.001058 0.0120085 0.00759219 0.0108605 2650 
238 1 0.00645673 0.0422522 0.00565071 0.001058 -0.00539285 0.0228554 -0.0112404 2650 
57 1 0.00653127 0.0731864 0.00488935 0.00164 0.00164073 0.114548 0.00845379 2650 
145 1 0.00834074 0.00367992 0.00695209 0.00164 -0.00697266 0.000571824 -0.00264258 2650 
265 1 0.0138933 0.00815498 0.007653 0.001058 0.00483337 0.0029739 -0.00662202 2650 
203 1 0.00833074 0.0605075 0.00694993 0.001058 -0.0104617 0.0489781 0.0207311 2650 
106 1 0.00749688 0.0681969 0.00715596 0.001058 0.0168325 0.0449922 -0.00167347 2650 
130 1 0.0128474 0.00293627 0.0090223 0.001058 -0.0124038 0.00633019 0.0165397 2650 
101 1 0.00571998 0.0077607 0.00883002 0.000291 -0.000754547 0.0112167 0.0101384 2650 
199 1 0.0126684 0.00646386 0.00814614 0.000291 -0.00652159 0.0115982 0.010153 2650 
87 1 0.0135302 0.00985299 0.00905633 0.000291 0.00136869 0.00629832 0.00250342 2650 
204 1 0.00432317 0.000634667 0.0111631 0.001058 -0.00161874 0.00229652 -0.00428399 2650 
66 1 0.00939956 0.0103562 0.0106936 0.001058 -0.00243266 0.00123622 -0.00504944 2650 
41 1 0.00379874 0.0215159 0.0124463 0.00164 0.00675228 0.00472229 -0.0112217 2650 
139 1 0.00754088 0.0257642 0.0124362 0.001058 -0.0136668 0.00686955 0.0124231 2650 
46 1 0.00997364 0.0380775 0.0130967 0.000291 0.243938 -0.276992 -0.182274 2650 
123 1 0.00724745 0.0424007 0.0139159 0.001058 -0.0034637 0.0288055 -0.00682417 2650 
112 1 0.0061591 0.00425893 0.0142719 0.000105 -0.0109427 -0.000159124 0.00547551 2650 
11 1 0.0386755 0.0736172 0.0559084 0.001058 46.1116 -10.3253 -31.8773 2650 
175 1 0.00197412 0.0247642 0.0686868 0.000291 90.0029 -1.21251 -2.58628 2650 
127 1 0.0664553 0.0861655 0.0174972 0.000291 20.521 -15.8801 -77.9242 2650 
245 1 0.059531 0.0922526 0.0328113 0.001058 -17.3199 0.209791 31.4004 2650 
