LIGGGHTS (Version LIGGGHTS-PUBLIC 3.8.0, compiled 2022-11-07-16:55:38 by serperd1, git commit 86544c3f1215bc9744d7929e3eacf53ba086af9e)
Created orthogonal box = (-0.15 -0.15 -0.15) to (0.15 0.15 0.15)
  2 by 4 by 5 MPI processor grid

Reading STL file 'cone.stl' (mesh processing step 1/3) 

Reading STL file 'in_cyl.stl' (mesh processing step 1/3) 

Reading STL file 'top_cyl.stl' (mesh processing step 1/3) 

Reading STL file 'bot_cyl.stl' (mesh processing step 1/3) 

Reading STL file 'bottom_disk.stl' (mesh processing step 1/3) 

Reading STL file 'top_disk.stl' (mesh processing step 1/3) 
Fix particledistribution/discrete (id prob_par): distribution based on mass%:
    r_0to10p: d=2.100000e-04 (max. bounding sphere) mass%=10.000000%
    r_10to50p: d=5.820000e-04 (max. bounding sphere) mass%=40.000000%
    r_50to90p: d=2.116400e-03 (max. bounding sphere) mass%=40.000000%
    r_90to100p: d=3.280400e-03 (max. bounding sphere) mass%=10.000000%
Fix particledistribution/discrete (id prob_par): distribution based on number%:
    r_0to10p: d=2.100000e-04 (max. bounding sphere) number%=83.887011%
    r_10to50p: d=5.820000e-04 (max. bounding sphere) number%=15.763173%
    r_50to90p: d=2.116400e-03 (max. bounding sphere) number%=0.327808%
    r_90to100p: d=3.280400e-03 (max. bounding sphere) number%=0.022008%
Setting up run at Fri Jan  6 04:36:28 2023

Import and parallelization of mesh cone_mesh containing 868 triangle(s) successful
Import and parallelization of mesh inlet_cyl_wall_mesh containing 1064 triangle(s) successful
Import and parallelization of mesh top_cyl_wall_mesh containing 682 triangle(s) successful
Import and parallelization of mesh bot_cyl_wall_mesh containing 1280 triangle(s) successful
Import and parallelization of mesh bot_disk_wall_mesh containing 1682 triangle(s) successful
Import and parallelization of mesh top_disk_wall_mesh containing 1144 triangle(s) successful
Memory usage per processor = 954.231 Mbytes
    Step    Atoms         KinEng            CPU 
       0        0              0              0 
Loop time of 5.33957e-05 on 40 procs for 0 steps with 0 atoms, finish time Fri Jan  6 04:36:28 2023


Pair  time (%) = 0 (0)
Neigh time (%) = 0 (0)
Comm  time (%) = 0 (0)
Outpt time (%) = 0 (0)
Other time (%) = 5.33957e-05 (100)

Nlocal:    0 ave 0 max 0 min
Histogram: 40 0 0 0 0 0 0 0 0 0
Nghost:    0 ave 0 max 0 min
Histogram: 40 0 0 0 0 0 0 0 0 0
Neighs:    0 ave 0 max 0 min
Histogram: 40 0 0 0 0 0 0 0 0 0

Total # of neighbors = 0
Neighbor list builds = 0
Dangerous builds = 0
Setting up run at Fri Jan  6 04:36:28 2023

Memory usage per processor = 954.231 Mbytes
    Step    Atoms         KinEng            CPU 
       0        0              0              0 
       1        0              0     0.00975044 
Loop time of 0.00976128 on 40 procs for 1 steps with 0 atoms, finish time Fri Jan  6 04:36:28 2023


Pair  time (%) = 2.55932e-06 (0.0262191)
Neigh time (%) = 0 (0)
Comm  time (%) = 0.000208552 (2.13652)
Outpt time (%) = 0.000103695 (1.0623)
Other time (%) = 0.00944648 (96.775)

Nlocal:    0 ave 0 max 0 min
Histogram: 40 0 0 0 0 0 0 0 0 0
Nghost:    0 ave 0 max 0 min
Histogram: 40 0 0 0 0 0 0 0 0 0
Neighs:    0 ave 0 max 0 min
Histogram: 40 0 0 0 0 0 0 0 0 0

Total # of neighbors = 0
Neighbor list builds = 0
Dangerous builds = 0
Scanning dump file ...
Reading snapshot from dump file ...
  orthogonal box = (-0.15 -0.15 -0.15) to (0.15 0.15 0.15)
  0 atoms before read
  305 atoms in snapshot
  0 atoms purged
  0 atoms replaced
  0 atoms trimmed
  305 atoms added
  305 atoms after read
Setting atom values ...
  305 settings made for type
  305 settings made for density
  305 settings made for vy
Setting up run at Fri Jan  6 04:36:28 2023

Memory usage per processor = 958.583 Mbytes
    Step    Atoms         KinEng            CPU 
       1      305  2.0462467e-07              0 
       2      305  2.4125357e-07    0.009174957 
Loop time of 0.00918491 on 40 procs for 1 steps with 305 atoms, finish time Fri Jan  6 04:36:28 2023


Pair  time (%) = 1.97965e-06 (0.0215533)
Neigh time (%) = 0 (0)
Comm  time (%) = 4.3797e-06 (0.0476836)
Outpt time (%) = 0.000118748 (1.29286)
Other time (%) = 0.00905981 (98.6379)

Nlocal:    7.625 ave 134 max 0 min
Histogram: 36 2 0 0 0 0 0 0 0 2
Nghost:    5.125 ave 59 max 0 min
Histogram: 36 0 0 0 0 0 0 2 0 2
Neighs:    2.375 ave 54 max 0 min
Histogram: 37 1 0 0 0 1 0 0 0 1

Total # of neighbors = 95
Ave neighs/atom = 0.311475
Neighbor list builds = 0
Dangerous builds = 0
Setting up run at Fri Jan  6 04:36:28 2023

Memory usage per processor = 958.583 Mbytes
    Step    Atoms         KinEng            CPU 
       2      305  2.4125357e-07              0 
  123458      305  6.0816412e-05      1177.0199 
Loop time of 1177.02 on 40 procs for 123456 steps with 305 atoms, finish time Fri Jan  6 04:56:05 2023


Pair  time (%) = 0.231904 (0.0197026)
Neigh time (%) = 0.0584871 (0.00496908)
Comm  time (%) = 0.404088 (0.0343315)
Outpt time (%) = 0.00016501 (1.40193e-05)
Other time (%) = 1176.33 (99.941)

Nlocal:    7.625 ave 136 max 0 min
Histogram: 36 2 0 0 0 0 0 0 1 1
Nghost:    5.15 ave 59 max 0 min
Histogram: 36 0 0 0 0 0 0 2 0 2
Neighs:    2.5 ave 57 max 0 min
Histogram: 36 2 0 0 1 0 0 0 0 1

Total # of neighbors = 100
Ave neighs/atom = 0.327869
Neighbor list builds = 330
Dangerous builds = 0
Setting up run at Fri Jan  6 04:56:06 2023

Memory usage per processor = 958.583 Mbytes
    Step    Atoms         KinEng            CPU 
  123458      305  6.0816412e-05              0 
  246914      305  4.3842796e-05       1178.188 
Loop time of 1178.19 on 40 procs for 123456 steps with 305 atoms, finish time Fri Jan  6 05:15:44 2023


Pair  time (%) = 0.232841 (0.0197627)
Neigh time (%) = 0.0588501 (0.00499496)
Comm  time (%) = 0.403519 (0.0342491)
Outpt time (%) = 0.000147165 (1.24908e-05)
Other time (%) = 1177.49 (99.941)

Nlocal:    7.625 ave 138 max 0 min
Histogram: 36 2 0 0 0 0 0 0 1 1
Nghost:    5.125 ave 56 max 0 min
Histogram: 36 0 0 0 0 0 0 0 2 2
Neighs:    2.475 ave 57 max 0 min
Histogram: 36 2 0 0 1 0 0 0 0 1

Total # of neighbors = 99
Ave neighs/atom = 0.32459
Neighbor list builds = 330
Dangerous builds = 0
Setting up run at Fri Jan  6 05:15:44 2023

Memory usage per processor = 958.583 Mbytes
    Step    Atoms         KinEng            CPU 
  246914      305  4.3842796e-05              0 
  370370      305  0.00038250452      1171.7436 
Loop time of 1171.74 on 40 procs for 123456 steps with 305 atoms, finish time Fri Jan  6 05:35:16 2023


Pair  time (%) = 0.231953 (0.0197955)
Neigh time (%) = 0.0593313 (0.0050635)
Comm  time (%) = 0.411404 (0.0351105)
Outpt time (%) = 0.000165801 (1.41499e-05)
Other time (%) = 1171.04 (99.94)

Nlocal:    7.625 ave 134 max 0 min
Histogram: 36 0 2 0 0 0 0 0 1 1
Nghost:    5.025 ave 61 max 0 min
Histogram: 36 0 0 0 0 0 0 2 1 1
Neighs:    2.475 ave 57 max 0 min
Histogram: 36 2 0 0 1 0 0 0 0 1

Total # of neighbors = 99
Ave neighs/atom = 0.32459
Neighbor list builds = 330
Dangerous builds = 0
Setting up run at Fri Jan  6 05:35:16 2023

Memory usage per processor = 958.583 Mbytes
    Step    Atoms         KinEng            CPU 
  370370      305  0.00038250452              0 
  493826      305   0.0002185812      1175.7432 
Loop time of 1175.74 on 40 procs for 123456 steps with 305 atoms, finish time Fri Jan  6 05:54:51 2023


Pair  time (%) = 0.228338 (0.0194208)
Neigh time (%) = 0.0596408 (0.0050726)
Comm  time (%) = 0.422431 (0.0359289)
Outpt time (%) = 0.000488284 (4.15298e-05)
Other time (%) = 1175.03 (99.9395)

Nlocal:    7.625 ave 134 max 0 min
Histogram: 36 0 2 0 0 0 0 0 1 1
Nghost:    5.025 ave 59 max 0 min
Histogram: 36 0 0 0 0 0 0 2 0 2
Neighs:    2.425 ave 54 max 0 min
Histogram: 36 1 1 0 1 0 0 0 0 1

Total # of neighbors = 97
Ave neighs/atom = 0.318033
Neighbor list builds = 330
Dangerous builds = 0
Setting up run at Fri Jan  6 05:54:51 2023

Memory usage per processor = 958.583 Mbytes
    Step    Atoms         KinEng            CPU 
  493826      305   0.0002185812              0 
  617282      305    0.001796919      1174.8226 
Loop time of 1174.82 on 40 procs for 123456 steps with 305 atoms, finish time Fri Jan  6 06:14:26 2023


Pair  time (%) = 0.229425 (0.0195285)
Neigh time (%) = 0.0591787 (0.00503725)
Comm  time (%) = 0.422392 (0.0359537)
Outpt time (%) = 0.000508146 (4.3253e-05)
Other time (%) = 1174.11 (99.9394)

Nlocal:    7.625 ave 134 max 0 min
Histogram: 36 0 2 0 0 0 0 1 0 1
Nghost:    4.975 ave 59 max 0 min
Histogram: 36 0 0 0 0 0 1 1 0 2
Neighs:    2.5 ave 55 max 0 min
Histogram: 36 1 1 0 1 0 0 0 0 1

Total # of neighbors = 100
Ave neighs/atom = 0.327869
Neighbor list builds = 330
Dangerous builds = 0
Setting up run at Fri Jan  6 06:14:26 2023

Memory usage per processor = 958.583 Mbytes
    Step    Atoms         KinEng            CPU 
  617282      305    0.001796919              0 
  740738      305  9.1153157e-05      1168.0223 
Loop time of 1168.02 on 40 procs for 123456 steps with 305 atoms, finish time Fri Jan  6 06:33:54 2023


Pair  time (%) = 0.231253 (0.0197987)
Neigh time (%) = 0.0596414 (0.00510618)
Comm  time (%) = 0.434924 (0.0372359)
Outpt time (%) = 0.000200683 (1.71815e-05)
Other time (%) = 1167.3 (99.9378)

Nlocal:    7.625 ave 133 max 0 min
Histogram: 36 0 2 0 0 0 0 1 0 1
Nghost:    5 ave 58 max 0 min
Histogram: 36 0 0 0 0 0 1 1 0 2
Neighs:    2.4 ave 54 max 0 min
Histogram: 36 1 1 0 1 0 0 0 0 1

Total # of neighbors = 96
Ave neighs/atom = 0.314754
Neighbor list builds = 330
Dangerous builds = 0
Setting up run at Fri Jan  6 06:33:54 2023

Memory usage per processor = 958.583 Mbytes
    Step    Atoms         KinEng            CPU 
  740738      305  9.1153157e-05              0 
  864194      304  0.00054024268      1179.8936 
Loop time of 1179.89 on 40 procs for 123456 steps with 304 atoms, finish time Fri Jan  6 06:53:34 2023


Pair  time (%) = 0.231273 (0.0196012)
Neigh time (%) = 0.0593387 (0.00502915)
Comm  time (%) = 0.481329 (0.0407942)
Outpt time (%) = 0.000204308 (1.73158e-05)
Other time (%) = 1179.12 (99.9346)

Nlocal:    7.6 ave 131 max 0 min
Histogram: 36 0 2 0 0 0 0 1 0 1
Nghost:    5.25 ave 60 max 0 min
Histogram: 36 0 0 0 0 0 1 0 1 2
Neighs:    2.4 ave 54 max 0 min
Histogram: 36 1 1 1 0 0 0 0 0 1

Total # of neighbors = 96
Ave neighs/atom = 0.315789
Neighbor list builds = 332
Dangerous builds = 2
Setting up run at Fri Jan  6 06:53:34 2023

Memory usage per processor = 958.583 Mbytes
    Step    Atoms         KinEng            CPU 
  864194      304  0.00054024268              0 
  987650      304   0.0011250449      1167.1877 
Loop time of 1167.19 on 40 procs for 123456 steps with 304 atoms, finish time Fri Jan  6 07:13:02 2023


Pair  time (%) = 0.231208 (0.019809)
Neigh time (%) = 0.0637593 (0.00546265)
Comm  time (%) = 0.449874 (0.0385435)
Outpt time (%) = 0.000721435 (6.18097e-05)
Other time (%) = 1166.44 (99.9361)

Nlocal:    7.6 ave 132 max 0 min
Histogram: 36 1 1 0 0 0 0 1 0 1
Nghost:    5.325 ave 61 max 0 min
Histogram: 36 0 0 0 0 0 1 0 1 2
Neighs:    2.375 ave 56 max 0 min
Histogram: 36 2 0 1 0 0 0 0 0 1

Total # of neighbors = 95
Ave neighs/atom = 0.3125
Neighbor list builds = 354
Dangerous builds = 0
Setting up run at Fri Jan  6 07:13:02 2023

Memory usage per processor = 958.583 Mbytes
    Step    Atoms         KinEng            CPU 
  987650      304   0.0011250449              0 
 1111106      303   0.0012384353      1174.1704 
Loop time of 1174.17 on 40 procs for 123456 steps with 303 atoms, finish time Fri Jan  6 07:32:36 2023


Pair  time (%) = 0.229175 (0.019518)
Neigh time (%) = 0.0591195 (0.005035)
Comm  time (%) = 0.477536 (0.0406701)
Outpt time (%) = 0.000146401 (1.24684e-05)
Other time (%) = 1173.4 (99.9348)

Nlocal:    7.575 ave 129 max 0 min
Histogram: 36 1 1 0 0 0 0 1 0 1
Nghost:    5.35 ave 59 max 0 min
Histogram: 36 0 0 0 0 0 0 1 0 3
Neighs:    2.425 ave 58 max 0 min
Histogram: 36 2 0 1 0 0 0 0 0 1

Total # of neighbors = 97
Ave neighs/atom = 0.320132
Neighbor list builds = 333
Dangerous builds = 3
Setting up run at Fri Jan  6 07:32:36 2023

Memory usage per processor = 958.583 Mbytes
    Step    Atoms         KinEng            CPU 
 1111106      303   0.0012384353              0 
 1234562      303     0.29720142      1195.2609 
Loop time of 1195.26 on 40 procs for 123456 steps with 303 atoms, finish time Fri Jan  6 07:52:31 2023


Pair  time (%) = 0.240293 (0.0201038)
Neigh time (%) = 0.693864 (0.0580513)
Comm  time (%) = 2.35198 (0.196775)
Outpt time (%) = 0.000136943 (1.14572e-05)
Other time (%) = 1191.98 (99.7251)

Nlocal:    7.575 ave 128 max 0 min
Histogram: 36 1 1 0 0 0 0 0 1 1
Nghost:    5.3 ave 55 max 0 min
Histogram: 36 0 0 0 0 0 0 0 1 3
Neighs:    2.425 ave 58 max 0 min
Histogram: 36 2 0 1 0 0 0 0 0 1

Total # of neighbors = 97
Ave neighs/atom = 0.320132
Neighbor list builds = 3975
Dangerous builds = 0
Setting up run at Fri Jan  6 07:52:31 2023

Memory usage per processor = 958.583 Mbytes
    Step    Atoms         KinEng            CPU 
 1234562      303     0.29720142              0 
 1358018      302      0.3004786      1208.9512 
Loop time of 1208.95 on 40 procs for 123456 steps with 302 atoms, finish time Fri Jan  6 08:12:40 2023


Pair  time (%) = 0.244133 (0.0201938)
Neigh time (%) = 1.2518 (0.103544)
Comm  time (%) = 3.39326 (0.280678)
Outpt time (%) = 0.000473325 (3.91517e-05)
Other time (%) = 1204.06 (99.5955)

Nlocal:    7.55 ave 123 max 0 min
Histogram: 36 0 2 0 0 0 0 0 1 1
Nghost:    5.2 ave 59 max 0 min
Histogram: 36 0 0 0 0 0 0 1 2 1
Neighs:    2.5 ave 60 max 0 min
Histogram: 36 2 0 1 0 0 0 0 0 1

Total # of neighbors = 100
Ave neighs/atom = 0.331126
Neighbor list builds = 7141
Dangerous builds = 20
Setting up run at Fri Jan  6 08:12:40 2023

Memory usage per processor = 958.583 Mbytes
    Step    Atoms         KinEng            CPU 
 1358018      302      0.3004786              0 
 1481474      302     0.29088169      1207.0783 
Loop time of 1207.08 on 40 procs for 123456 steps with 302 atoms, finish time Fri Jan  6 08:32:47 2023


Pair  time (%) = 0.245585 (0.0203454)
Neigh time (%) = 1.25863 (0.104271)
Comm  time (%) = 3.98569 (0.330194)
Outpt time (%) = 0.000209415 (1.73489e-05)
Other time (%) = 1201.59 (99.5452)

Nlocal:    7.55 ave 120 max 0 min
Histogram: 36 0 2 0 0 0 0 0 1 1
Nghost:    5.3 ave 61 max 0 min
Histogram: 36 0 0 0 0 0 0 1 1 2
Neighs:    2.6 ave 60 max 0 min
Histogram: 36 1 1 1 0 0 0 0 0 1

Total # of neighbors = 104
Ave neighs/atom = 0.344371
Neighbor list builds = 7155
Dangerous builds = 0
Setting up run at Fri Jan  6 08:32:47 2023

Memory usage per processor = 958.583 Mbytes
    Step    Atoms         KinEng            CPU 
 1481474      302     0.29088169              0 
 1604930      302     0.17207813      1193.3249 
Loop time of 1193.33 on 40 procs for 123456 steps with 302 atoms, finish time Fri Jan  6 08:52:41 2023


Pair  time (%) = 0.238351 (0.0199737)
Neigh time (%) = 0.784428 (0.0657346)
Comm  time (%) = 2.09707 (0.175733)
Outpt time (%) = 0.000163078 (1.36658e-05)
Other time (%) = 1190.21 (99.7385)

Nlocal:    7.55 ave 119 max 0 min
Histogram: 36 0 1 1 0 0 0 0 1 1
Nghost:    5.275 ave 61 max 0 min
Histogram: 36 0 0 0 0 0 1 0 1 2
Neighs:    2.65 ave 59 max 0 min
Histogram: 36 1 1 1 0 0 0 0 0 1

Total # of neighbors = 106
Ave neighs/atom = 0.350993
Neighbor list builds = 4437
Dangerous builds = 0
Setting up run at Fri Jan  6 08:52:41 2023

Memory usage per processor = 958.583 Mbytes
    Step    Atoms         KinEng            CPU 
 1604930      302     0.17207813              0 
 1728386      302     0.10900503      1196.0983 
Loop time of 1196.11 on 40 procs for 123456 steps with 302 atoms, finish time Fri Jan  6 09:12:37 2023


Pair  time (%) = 0.23764 (0.0198678)
Neigh time (%) = 0.665458 (0.0556353)
Comm  time (%) = 2.06279 (0.172459)
Outpt time (%) = 0.000159508 (1.33356e-05)
Other time (%) = 1193.14 (99.752)

Nlocal:    7.55 ave 116 max 0 min
Histogram: 36 0 2 0 0 0 0 0 1 1
Nghost:    5.25 ave 62 max 0 min
Histogram: 36 0 0 0 0 0 1 1 0 2
Neighs:    2.75 ave 56 max 0 min
Histogram: 36 1 0 1 1 0 0 0 0 1

Total # of neighbors = 110
Ave neighs/atom = 0.364238
Neighbor list builds = 3741
Dangerous builds = 0
Setting up run at Fri Jan  6 09:12:37 2023

Memory usage per processor = 958.583 Mbytes
    Step    Atoms         KinEng            CPU 
 1728386      302     0.10900503              0 
 1851842      301    0.055730079       1183.842 
Loop time of 1183.84 on 40 procs for 123456 steps with 301 atoms, finish time Fri Jan  6 09:32:21 2023


Pair  time (%) = 0.238409 (0.0201386)
Neigh time (%) = 0.633335 (0.0534983)
Comm  time (%) = 2.2066 (0.186393)
Outpt time (%) = 0.000500038 (4.22386e-05)
Other time (%) = 1180.76 (99.7399)

Nlocal:    7.525 ave 113 max 0 min
Histogram: 36 0 1 1 0 0 0 0 1 1
Nghost:    5.35 ave 66 max 0 min
Histogram: 36 0 0 0 0 0 2 0 1 1
Neighs:    2.625 ave 50 max 0 min
Histogram: 36 1 0 0 2 0 0 0 0 1

Total # of neighbors = 105
Ave neighs/atom = 0.348837
Neighbor list builds = 3564
Dangerous builds = 41
Setting up run at Fri Jan  6 09:32:21 2023

Memory usage per processor = 958.583 Mbytes
    Step    Atoms         KinEng            CPU 
 1851842      301    0.055730079              0 
 1975298      300    0.062731713      1182.3803 
Loop time of 1182.38 on 40 procs for 123456 steps with 300 atoms, finish time Fri Jan  6 09:52:03 2023


Pair  time (%) = 0.232688 (0.0196796)
Neigh time (%) = 0.414508 (0.0350571)
Comm  time (%) = 1.57678 (0.133357)
Outpt time (%) = 0.000178512 (1.50977e-05)
Other time (%) = 1180.16 (99.8119)

Nlocal:    7.5 ave 110 max 0 min
Histogram: 36 0 0 2 0 0 0 0 1 1
Nghost:    5.025 ave 63 max 0 min
Histogram: 36 0 0 0 0 0 2 0 1 1
Neighs:    2.525 ave 51 max 0 min
Histogram: 36 1 0 0 2 0 0 0 0 1

Total # of neighbors = 101
Ave neighs/atom = 0.336667
Neighbor list builds = 2317
Dangerous builds = 0
Setting up run at Fri Jan  6 09:52:03 2023

Memory usage per processor = 958.583 Mbytes
    Step    Atoms         KinEng            CPU 
 1975298      300    0.062731713              0 
 2098754      300    0.052718697      1180.3683 
Loop time of 1180.37 on 40 procs for 123456 steps with 300 atoms, finish time Fri Jan  6 10:11:44 2023


Pair  time (%) = 0.230852 (0.0195576)
Neigh time (%) = 0.364018 (0.0308394)
Comm  time (%) = 1.10318 (0.0934603)
Outpt time (%) = 0.000179748 (1.52281e-05)
Other time (%) = 1178.67 (99.8561)

Nlocal:    7.5 ave 106 max 0 min
Histogram: 36 0 0 2 0 0 0 0 0 2
Nghost:    5 ave 68 max 0 min
Histogram: 36 0 0 0 0 1 1 1 0 1
Neighs:    2.675 ave 52 max 0 min
Histogram: 36 1 0 1 0 1 0 0 0 1

Total # of neighbors = 107
Ave neighs/atom = 0.356667
Neighbor list builds = 2018
Dangerous builds = 0
Setting up run at Fri Jan  6 10:11:44 2023

Memory usage per processor = 958.583 Mbytes
    Step    Atoms         KinEng            CPU 
 2098754      300    0.052718697              0 
 2222210      299    0.068228374      1181.4493 
Loop time of 1181.45 on 40 procs for 123456 steps with 299 atoms, finish time Fri Jan  6 10:31:25 2023


Pair  time (%) = 0.23267 (0.0196936)
Neigh time (%) = 0.360451 (0.0305092)
Comm  time (%) = 1.22072 (0.103324)
Outpt time (%) = 0.0004941 (4.18215e-05)
Other time (%) = 1179.64 (99.8464)

Nlocal:    7.475 ave 105 max 0 min
Histogram: 36 0 0 1 1 0 0 0 0 2
Nghost:    5.2 ave 68 max 0 min
Histogram: 36 0 0 0 0 0 2 1 0 1
Neighs:    2.6 ave 49 max 0 min
Histogram: 36 1 0 0 1 1 0 0 0 1

Total # of neighbors = 104
Ave neighs/atom = 0.347826
Neighbor list builds = 2128
Dangerous builds = 306
Setting up run at Fri Jan  6 10:31:25 2023

Memory usage per processor = 958.583 Mbytes
    Step    Atoms         KinEng            CPU 
 2222210      299    0.068228374              0 
 2345666      298     0.10665724       1184.985 
Loop time of 1184.99 on 40 procs for 123456 steps with 298 atoms, finish time Fri Jan  6 10:51:10 2023


Pair  time (%) = 0.233697 (0.0197215)
Neigh time (%) = 0.492381 (0.0415516)
Comm  time (%) = 1.6779 (0.141596)
Outpt time (%) = 0.000176531 (1.48973e-05)
Other time (%) = 1182.58 (99.7971)

Nlocal:    7.45 ave 103 max 0 min
Histogram: 36 0 0 1 1 0 0 0 0 2
Nghost:    5.125 ave 68 max 0 min
Histogram: 36 0 0 0 0 1 1 1 0 1
Neighs:    2.325 ave 40 max 0 min
Histogram: 36 1 0 0 0 1 1 0 0 1

Total # of neighbors = 93
Ave neighs/atom = 0.312081
Neighbor list builds = 2777
Dangerous builds = 2
Setting up run at Fri Jan  6 10:51:10 2023

Memory usage per processor = 958.583 Mbytes
    Step    Atoms         KinEng            CPU 
 2345666      298     0.10665724              0 
 2469122      297    0.033370513      1180.8461 
Loop time of 1180.85 on 40 procs for 123456 steps with 297 atoms, finish time Fri Jan  6 11:10:51 2023


Pair  time (%) = 0.232391 (0.0196799)
Neigh time (%) = 0.367154 (0.0310923)
Comm  time (%) = 1.43378 (0.121419)
Outpt time (%) = 0.000158998 (1.34647e-05)
Other time (%) = 1178.82 (99.8278)

Nlocal:    7.425 ave 102 max 0 min
Histogram: 36 0 0 1 1 0 0 0 0 2
Nghost:    5.05 ave 66 max 0 min
Histogram: 36 0 0 0 0 1 1 1 0 1
Neighs:    2.325 ave 42 max 0 min
Histogram: 36 1 0 0 0 2 0 0 0 1

Total # of neighbors = 93
Ave neighs/atom = 0.313131
Neighbor list builds = 2038
Dangerous builds = 0
Setting up run at Fri Jan  6 11:10:51 2023

Memory usage per processor = 958.583 Mbytes
    Step    Atoms         KinEng            CPU 
 2469122      297    0.033370513              0 
 2592578      296    0.032511714      1179.2258 
Loop time of 1179.23 on 40 procs for 123456 steps with 296 atoms, finish time Fri Jan  6 11:30:31 2023


Pair  time (%) = 0.230067 (0.01951)
Neigh time (%) = 0.326741 (0.0277081)
Comm  time (%) = 1.10545 (0.0937433)
Outpt time (%) = 0.000503609 (4.27067e-05)
Other time (%) = 1177.56 (99.859)

Nlocal:    7.4 ave 100 max 0 min
Histogram: 36 0 0 1 1 0 0 0 0 2
Nghost:    5.075 ave 68 max 0 min
Histogram: 36 0 0 0 0 1 1 1 0 1
Neighs:    2.15 ave 35 max 0 min
Histogram: 36 0 1 0 0 1 1 0 0 1

Total # of neighbors = 86
Ave neighs/atom = 0.290541
Neighbor list builds = 1808
Dangerous builds = 0
Setting up run at Fri Jan  6 11:30:31 2023

Memory usage per processor = 958.583 Mbytes
    Step    Atoms         KinEng            CPU 
 2592578      296    0.032511714              0 
 2716034      295    0.032146984      1184.6255 
Loop time of 1184.63 on 40 procs for 123456 steps with 295 atoms, finish time Fri Jan  6 11:50:15 2023


Pair  time (%) = 0.234352 (0.0197828)
Neigh time (%) = 0.458599 (0.0387126)
Comm  time (%) = 1.2006 (0.101349)
Outpt time (%) = 0.000266125 (2.24649e-05)
Other time (%) = 1182.73 (99.8401)

Nlocal:    7.375 ave 100 max 0 min
Histogram: 36 0 0 1 1 0 0 0 0 2
Nghost:    4.925 ave 62 max 0 min
Histogram: 36 0 0 0 0 0 2 1 0 1
Neighs:    2.125 ave 36 max 0 min
Histogram: 36 0 1 0 1 0 1 0 0 1

Total # of neighbors = 85
Ave neighs/atom = 0.288136
Neighbor list builds = 2516
Dangerous builds = 0
Setting up run at Fri Jan  6 11:50:15 2023

Memory usage per processor = 958.583 Mbytes
    Step    Atoms         KinEng            CPU 
 2716034      295    0.032146984              0 
 2839490      294    0.020045422      1218.4046 
Loop time of 1218.4 on 40 procs for 123456 steps with 294 atoms, finish time Fri Jan  6 12:10:34 2023


Pair  time (%) = 0.230965 (0.0189563)
Neigh time (%) = 0.342963 (0.0281485)
Comm  time (%) = 1.0555 (0.08663)
Outpt time (%) = 0.000175525 (1.44062e-05)
Other time (%) = 1216.77 (99.8663)

Nlocal:    7.35 ave 99 max 0 min
Histogram: 36 0 0 1 1 0 0 0 0 2
Nghost:    4.925 ave 61 max 0 min
Histogram: 36 0 0 0 0 0 2 0 1 1
Neighs:    2 ave 34 max 0 min
Histogram: 36 0 1 0 1 0 1 0 0 1

Total # of neighbors = 80
Ave neighs/atom = 0.272109
Neighbor list builds = 1956
Dangerous builds = 0
Setting up run at Fri Jan  6 12:10:34 2023

Memory usage per processor = 958.583 Mbytes
    Step    Atoms         KinEng            CPU 
 2839490      294    0.020045422              0 
 2962946      294     0.44051732      1252.3814 
Loop time of 1252.38 on 40 procs for 123456 steps with 294 atoms, finish time Fri Jan  6 12:31:26 2023


Pair  time (%) = 0.23779 (0.018987)
Neigh time (%) = 0.787001 (0.0628403)
Comm  time (%) = 2.77354 (0.221461)
Outpt time (%) = 0.000159996 (1.27753e-05)
Other time (%) = 1248.58 (99.6967)

Nlocal:    7.35 ave 97 max 0 min
Histogram: 35 1 0 0 2 0 0 0 0 2
Nghost:    4.8 ave 62 max 0 min
Histogram: 36 0 0 0 0 1 1 1 0 1
Neighs:    2.075 ave 32 max 0 min
Histogram: 36 0 0 1 1 0 0 0 1 1

Total # of neighbors = 83
Ave neighs/atom = 0.282313
Neighbor list builds = 4349
Dangerous builds = 0
Setting up run at Fri Jan  6 12:31:26 2023

Memory usage per processor = 958.583 Mbytes
    Step    Atoms         KinEng            CPU 
 2962946      294     0.44051732              0 
 3086402      293     0.33896644      1199.5037 
Loop time of 1199.5 on 40 procs for 123456 steps with 293 atoms, finish time Fri Jan  6 12:51:26 2023


Pair  time (%) = 0.233896 (0.0194994)
Neigh time (%) = 0.645316 (0.0537986)
Comm  time (%) = 1.96983 (0.16422)
Outpt time (%) = 0.000485124 (4.04437e-05)
Other time (%) = 1196.65 (99.7624)

Nlocal:    7.325 ave 97 max 0 min
Histogram: 35 1 0 2 0 0 0 0 0 2
Nghost:    4.825 ave 61 max 0 min
Histogram: 36 0 0 0 0 0 1 2 0 1
Neighs:    2.075 ave 31 max 0 min
Histogram: 36 0 0 2 0 0 0 0 0 2

Total # of neighbors = 83
Ave neighs/atom = 0.283276
Neighbor list builds = 3551
Dangerous builds = 0
Setting up run at Fri Jan  6 12:51:26 2023

Memory usage per processor = 958.583 Mbytes
    Step    Atoms         KinEng            CPU 
 3086402      293     0.33896644              0 
 3209858      293     0.27565047      1261.1328 
Loop time of 1261.13 on 40 procs for 123456 steps with 293 atoms, finish time Fri Jan  6 13:12:27 2023


Pair  time (%) = 0.232801 (0.0184597)
Neigh time (%) = 0.560685 (0.0444588)
Comm  time (%) = 1.97136 (0.156317)
Outpt time (%) = 0.000179257 (1.4214e-05)
Other time (%) = 1258.37 (99.7808)

Nlocal:    7.325 ave 96 max 0 min
Histogram: 35 1 0 2 0 0 0 0 0 2
Nghost:    4.75 ave 60 max 0 min
Histogram: 36 0 0 0 0 0 2 1 0 1
Neighs:    2 ave 31 max 0 min
Histogram: 36 0 1 1 0 0 0 0 0 2

Total # of neighbors = 80
Ave neighs/atom = 0.273038
Neighbor list builds = 3078
Dangerous builds = 0
Setting up run at Fri Jan  6 13:12:27 2023

Memory usage per processor = 958.583 Mbytes
    Step    Atoms         KinEng            CPU 
 3209858      293     0.27565047              0 
 3333314      292     0.20422945      1215.6661 
Loop time of 1215.67 on 40 procs for 123456 steps with 292 atoms, finish time Fri Jan  6 13:32:43 2023


Pair  time (%) = 0.228779 (0.0188193)
Neigh time (%) = 0.510393 (0.0419846)
Comm  time (%) = 1.70328 (0.140111)
Outpt time (%) = 0.000201785 (1.65987e-05)
Other time (%) = 1213.22 (99.7991)

Nlocal:    7.3 ave 94 max 0 min
Histogram: 36 0 0 1 1 0 0 0 0 2
Nghost:    4.675 ave 61 max 0 min
Histogram: 36 0 0 0 0 1 2 0 0 1
Neighs:    1.975 ave 30 max 0 min
Histogram: 36 0 1 0 1 0 0 0 0 2

Total # of neighbors = 79
Ave neighs/atom = 0.270548
Neighbor list builds = 2815
Dangerous builds = 0
Setting up run at Fri Jan  6 13:32:43 2023

Memory usage per processor = 958.583 Mbytes
    Step    Atoms         KinEng            CPU 
 3333314      292     0.20422945              0 
 3456770      292     0.17819756      1304.6218 
Loop time of 1304.62 on 40 procs for 123456 steps with 292 atoms, finish time Fri Jan  6 13:54:27 2023


Pair  time (%) = 0.225404 (0.0172774)
Neigh time (%) = 0.403939 (0.0309622)
Comm  time (%) = 1.48803 (0.114059)
Outpt time (%) = 0.00044761 (3.43096e-05)
Other time (%) = 1302.5 (99.8377)

Nlocal:    7.3 ave 94 max 0 min
Histogram: 35 1 0 1 1 0 0 0 0 2
Nghost:    4.8 ave 61 max 0 min
Histogram: 36 0 0 0 0 0 2 1 0 1
Neighs:    1.9 ave 29 max 0 min
Histogram: 36 0 1 0 1 0 0 0 1 1

Total # of neighbors = 76
Ave neighs/atom = 0.260274
Neighbor list builds = 2219
Dangerous builds = 0
Setting up run at Fri Jan  6 13:54:27 2023

Memory usage per processor = 958.583 Mbytes
    Step    Atoms         KinEng            CPU 
 3456770      292     0.17819756              0 
 3580226      292     0.15134468      1205.4632 
Loop time of 1205.46 on 40 procs for 123456 steps with 292 atoms, finish time Fri Jan  6 14:14:33 2023


Pair  time (%) = 0.223675 (0.0185551)
Neigh time (%) = 0.331511 (0.0275007)
Comm  time (%) = 1.35233 (0.112184)
Outpt time (%) = 0.000107707 (8.9349e-06)
Other time (%) = 1203.56 (99.8418)

Nlocal:    7.3 ave 94 max 0 min
Histogram: 35 1 0 2 0 0 0 0 0 2
Nghost:    4.725 ave 60 max 0 min
Histogram: 36 0 0 0 0 0 2 1 0 1
Neighs:    1.875 ave 28 max 0 min
Histogram: 36 0 1 0 1 0 0 0 0 2

Total # of neighbors = 75
Ave neighs/atom = 0.256849
Neighbor list builds = 1817
Dangerous builds = 0
Setting up run at Fri Jan  6 14:14:33 2023

Memory usage per processor = 958.583 Mbytes
    Step    Atoms         KinEng            CPU 
 3580226      292     0.15134468              0 
 3703682      292     0.12348635      1201.5619 
Loop time of 1201.56 on 40 procs for 123456 steps with 292 atoms, finish time Fri Jan  6 14:34:35 2023


Pair  time (%) = 0.225683 (0.0187824)
Neigh time (%) = 0.457 (0.0380338)
Comm  time (%) = 1.51073 (0.12573)
Outpt time (%) = 0.000143735 (1.19624e-05)
Other time (%) = 1199.37 (99.8174)

Nlocal:    7.3 ave 92 max 0 min
Histogram: 34 2 0 0 2 0 0 0 0 2
Nghost:    4.725 ave 62 max 0 min
Histogram: 36 0 0 0 0 1 1 1 0 1
Neighs:    1.85 ave 27 max 0 min
Histogram: 36 0 0 1 1 0 0 0 0 2

Total # of neighbors = 74
Ave neighs/atom = 0.253425
Neighbor list builds = 2502
Dangerous builds = 0
Setting up run at Fri Jan  6 14:34:35 2023

Memory usage per processor = 958.583 Mbytes
    Step    Atoms         KinEng            CPU 
 3703682      292     0.12348635              0 
 3827138      291     0.11848797      1196.9843 
Loop time of 1196.98 on 40 procs for 123456 steps with 291 atoms, finish time Fri Jan  6 14:54:32 2023


Pair  time (%) = 0.224557 (0.0187603)
Neigh time (%) = 0.3211 (0.0268257)
Comm  time (%) = 1.30236 (0.108804)
Outpt time (%) = 0.00050282 (4.20072e-05)
Other time (%) = 1195.14 (99.8456)

Nlocal:    7.275 ave 92 max 0 min
Histogram: 35 1 0 0 1 1 0 0 0 2
Nghost:    4.65 ave 60 max 0 min
Histogram: 36 0 0 0 0 0 2 1 0 1
Neighs:    1.9 ave 27 max 0 min
Histogram: 36 0 0 0 2 0 0 0 0 2

Total # of neighbors = 76
Ave neighs/atom = 0.261168
Neighbor list builds = 1764
Dangerous builds = 0
Setting up run at Fri Jan  6 14:54:32 2023

Memory usage per processor = 958.583 Mbytes
    Step    Atoms         KinEng            CPU 
 3827138      291     0.11848797              0 
 3950594      291    0.094646529      1174.8637 
Loop time of 1174.86 on 40 procs for 123456 steps with 291 atoms, finish time Fri Jan  6 15:14:07 2023


Pair  time (%) = 0.222478 (0.0189365)
Neigh time (%) = 0.252478 (0.02149)
Comm  time (%) = 0.994855 (0.0846783)
Outpt time (%) = 0.000184205 (1.56788e-05)
Other time (%) = 1173.39 (99.8749)

Nlocal:    7.275 ave 92 max 0 min
Histogram: 35 1 0 0 2 0 0 0 0 2
Nghost:    4.675 ave 58 max 0 min
Histogram: 36 0 0 0 0 0 2 1 0 1
Neighs:    2 ave 27 max 0 min
Histogram: 36 0 0 0 1 1 0 0 0 2

Total # of neighbors = 80
Ave neighs/atom = 0.274914
Neighbor list builds = 1388
Dangerous builds = 0
Setting up run at Fri Jan  6 15:14:07 2023

Memory usage per processor = 958.583 Mbytes
    Step    Atoms         KinEng            CPU 
 3950594      291    0.094646529              0 
 4074050      291    0.091139048      1177.7946 
Loop time of 1177.81 on 40 procs for 123456 steps with 291 atoms, finish time Fri Jan  6 15:33:45 2023


Pair  time (%) = 0.223207 (0.0189511)
Neigh time (%) = 0.320771 (0.0272346)
Comm  time (%) = 1.34993 (0.114614)
Outpt time (%) = 5.07501e-05 (4.30886e-06)
Other time (%) = 1175.91 (99.8392)

Nlocal:    7.275 ave 95 max 0 min
Histogram: 34 2 0 1 1 0 0 0 1 1
Nghost:    4.6 ave 53 max 0 min
Histogram: 36 0 0 0 0 0 1 1 0 2
Neighs:    1.9 ave 28 max 0 min
Histogram: 36 0 1 1 0 0 0 0 0 2

Total # of neighbors = 76
Ave neighs/atom = 0.261168
Neighbor list builds = 1759
Dangerous builds = 0
Setting up run at Fri Jan  6 15:33:45 2023

Memory usage per processor = 958.583 Mbytes
    Step    Atoms         KinEng            CPU 
 4074050      291    0.091139048              0 
 4197506      290    0.086677765      1198.7188 
Loop time of 1198.72 on 40 procs for 123456 steps with 290 atoms, finish time Fri Jan  6 15:53:43 2023


Pair  time (%) = 0.221318 (0.0184628)
Neigh time (%) = 0.257497 (0.021481)
Comm  time (%) = 1.09034 (0.0909586)
Outpt time (%) = 0.000518233 (4.32322e-05)
Other time (%) = 1197.15 (99.8691)

Nlocal:    7.25 ave 94 max 0 min
Histogram: 33 3 0 2 0 0 0 0 1 1
Nghost:    4.65 ave 52 max 0 min
Histogram: 36 0 0 0 0 0 0 1 1 2
Neighs:    1.85 ave 28 max 0 min
Histogram: 36 0 1 1 0 0 0 0 0 2

Total # of neighbors = 74
Ave neighs/atom = 0.255172
Neighbor list builds = 1425
Dangerous builds = 25
Setting up run at Fri Jan  6 15:53:43 2023

Memory usage per processor = 958.583 Mbytes
    Step    Atoms         KinEng            CPU 
 4197506      290    0.086677765              0 
 4320962      289    0.083284666      1199.7016 
Loop time of 1199.7 on 40 procs for 123456 steps with 289 atoms, finish time Fri Jan  6 16:13:43 2023


Pair  time (%) = 0.223414 (0.0186225)
Neigh time (%) = 0.328699 (0.0273984)
Comm  time (%) = 1.20847 (0.10073)
Outpt time (%) = 0.000151267 (1.26087e-05)
Other time (%) = 1197.94 (99.8532)

Nlocal:    7.225 ave 93 max 0 min
Histogram: 33 3 0 2 0 0 0 0 1 1
Nghost:    4.65 ave 52 max 0 min
Histogram: 36 0 0 0 0 0 1 0 1 2
Neighs:    2.075 ave 30 max 0 min
Histogram: 35 1 0 2 0 0 0 0 0 2

Total # of neighbors = 83
Ave neighs/atom = 0.287197
Neighbor list builds = 1882
Dangerous builds = 1
Setting up run at Fri Jan  6 16:13:43 2023

Memory usage per processor = 958.583 Mbytes
    Step    Atoms         KinEng            CPU 
 4320962      289    0.083284666              0 
 4444418      287    0.078581088       1207.787 
Loop time of 1207.79 on 40 procs for 123456 steps with 287 atoms, finish time Fri Jan  6 16:33:51 2023


Pair  time (%) = 0.22498 (0.0186274)
Neigh time (%) = 0.483783 (0.0400553)
Comm  time (%) = 1.73514 (0.143663)
Outpt time (%) = 0.000155083 (1.28402e-05)
Other time (%) = 1205.34 (99.7976)

Nlocal:    7.175 ave 92 max 0 min
Histogram: 34 2 0 1 1 0 0 0 1 1
Nghost:    4.65 ave 54 max 0 min
Histogram: 36 0 0 0 0 0 1 1 1 1
Neighs:    1.875 ave 32 max 0 min
Histogram: 36 1 1 0 0 0 0 0 0 2

Total # of neighbors = 75
Ave neighs/atom = 0.261324
Neighbor list builds = 2750
Dangerous builds = 206
Setting up run at Fri Jan  6 16:33:51 2023

Memory usage per processor = 958.583 Mbytes
    Step    Atoms         KinEng            CPU 
 4444418      287    0.078581088              0 
 4567874      287    0.069343459      1186.1955 
Loop time of 1186.2 on 40 procs for 123456 steps with 287 atoms, finish time Fri Jan  6 16:53:37 2023


Pair  time (%) = 0.226873 (0.0191261)
Neigh time (%) = 0.513137 (0.043259)
Comm  time (%) = 2.02014 (0.170304)
Outpt time (%) = 0.00049977 (4.21321e-05)
Other time (%) = 1183.43 (99.7673)

Nlocal:    7.175 ave 92 max 0 min
Histogram: 32 4 0 1 1 0 0 0 1 1
Nghost:    4.45 ave 51 max 0 min
Histogram: 36 0 0 0 0 0 0 2 1 1
Neighs:    2.025 ave 35 max 0 min
Histogram: 36 1 1 0 0 0 0 0 1 1

Total # of neighbors = 81
Ave neighs/atom = 0.28223
Neighbor list builds = 2829
Dangerous builds = 0
Setting up run at Fri Jan  6 16:53:37 2023

Memory usage per processor = 958.583 Mbytes
    Step    Atoms         KinEng            CPU 
 4567874      287    0.069343459              0 
 4691330      287    0.068069594      1256.7621 
Loop time of 1256.77 on 40 procs for 123456 steps with 287 atoms, finish time Fri Jan  6 17:14:34 2023


Pair  time (%) = 0.223891 (0.0178149)
Neigh time (%) = 0.18188 (0.014472)
Comm  time (%) = 0.969667 (0.0771557)
Outpt time (%) = 0.000144002 (1.14582e-05)
Other time (%) = 1255.39 (99.8905)

Nlocal:    7.175 ave 92 max 0 min
Histogram: 33 3 0 1 1 0 0 0 0 2
Nghost:    4.225 ave 47 max 0 min
Histogram: 36 0 0 0 0 0 0 1 1 2
Neighs:    1.8 ave 33 max 0 min
Histogram: 36 1 1 0 0 0 0 1 0 1

Total # of neighbors = 72
Ave neighs/atom = 0.250871
Neighbor list builds = 1001
Dangerous builds = 0
Setting up run at Fri Jan  6 17:14:34 2023

Memory usage per processor = 958.583 Mbytes
    Step    Atoms         KinEng            CPU 
 4691330      287    0.068069594              0 
 4814786      287    0.073823996       1225.652 
Loop time of 1225.65 on 40 procs for 123456 steps with 287 atoms, finish time Fri Jan  6 17:35:00 2023


Pair  time (%) = 0.219141 (0.0178796)
Neigh time (%) = 0.201692 (0.0164559)
Comm  time (%) = 0.900479 (0.0734694)
Outpt time (%) = 0.00013925 (1.13613e-05)
Other time (%) = 1224.33 (99.8922)

Nlocal:    7.175 ave 92 max 0 min
Histogram: 33 3 0 1 1 0 0 0 1 1
Nghost:    4.3 ave 46 max 0 min
Histogram: 36 0 0 0 0 0 0 1 1 2
Neighs:    1.7 ave 31 max 0 min
Histogram: 36 1 1 0 0 0 0 1 0 1

Total # of neighbors = 68
Ave neighs/atom = 0.236934
Neighbor list builds = 1106
Dangerous builds = 0
Setting up run at Fri Jan  6 17:35:00 2023

Memory usage per processor = 958.583 Mbytes
    Step    Atoms         KinEng            CPU 
 4814786      287    0.073823996              0 
 4938242      287    0.072404668      1216.1704 
Loop time of 1216.17 on 40 procs for 123456 steps with 287 atoms, finish time Fri Jan  6 17:55:16 2023


Pair  time (%) = 0.222484 (0.0182938)
Neigh time (%) = 0.491636 (0.0404249)
Comm  time (%) = 1.85522 (0.152546)
Outpt time (%) = 0.000196338 (1.6144e-05)
Other time (%) = 1213.6 (99.7887)

Nlocal:    7.175 ave 91 max 0 min
Histogram: 34 2 0 1 1 0 0 0 1 1
Nghost:    4.35 ave 44 max 0 min
Histogram: 36 0 0 0 0 0 1 0 0 3
Neighs:    1.85 ave 33 max 0 min
Histogram: 36 0 2 0 0 0 0 1 0 1

Total # of neighbors = 74
Ave neighs/atom = 0.25784
Neighbor list builds = 2681
Dangerous builds = 0
Setting up run at Fri Jan  6 17:55:16 2023

Memory usage per processor = 958.583 Mbytes
    Step    Atoms         KinEng            CPU 
 4938242      287    0.072404668              0 
 5061698      286     0.20168126      1188.5549 
Loop time of 1188.55 on 40 procs for 123456 steps with 286 atoms, finish time Fri Jan  6 18:15:05 2023


Pair  time (%) = 0.226608 (0.0190659)
Neigh time (%) = 0.66411 (0.0558754)
Comm  time (%) = 2.85958 (0.240593)
Outpt time (%) = 0.000515731 (4.33914e-05)
Other time (%) = 1184.8 (99.6844)

Nlocal:    7.15 ave 91 max 0 min
Histogram: 34 2 0 0 2 0 0 0 1 1
Nghost:    4.1 ave 44 max 0 min
Histogram: 36 0 0 0 0 0 0 1 0 3
Neighs:    1.8 ave 30 max 0 min
Histogram: 36 0 1 1 0 0 0 0 1 1

Total # of neighbors = 72
Ave neighs/atom = 0.251748
Neighbor list builds = 3727
Dangerous builds = 189
Setting up run at Fri Jan  6 18:15:05 2023

Memory usage per processor = 958.583 Mbytes
    Step    Atoms         KinEng            CPU 
 5061698      286     0.20168126              0 
 5185154      285     0.23217444      1203.8886 
Loop time of 1203.89 on 40 procs for 123456 steps with 285 atoms, finish time Fri Jan  6 18:35:09 2023


Pair  time (%) = 0.229803 (0.0190884)
Neigh time (%) = 0.973269 (0.0808438)
Comm  time (%) = 3.52434 (0.292746)
Outpt time (%) = 0.000164088 (1.36298e-05)
Other time (%) = 1199.16 (99.6073)

Nlocal:    7.125 ave 89 max 0 min
Histogram: 33 3 0 1 1 0 0 0 1 1
Nghost:    4.05 ave 43 max 0 min
Histogram: 36 0 0 0 0 0 0 1 0 3
Neighs:    1.675 ave 29 max 0 min
Histogram: 36 0 1 1 0 0 0 1 0 1

Total # of neighbors = 67
Ave neighs/atom = 0.235088
Neighbor list builds = 5448
Dangerous builds = 0
Setting up run at Fri Jan  6 18:35:09 2023

Memory usage per processor = 958.583 Mbytes
    Step    Atoms         KinEng            CPU 
 5185154      285     0.23217444              0 
 5308610      281     0.15512302      1184.2257 
Loop time of 1184.23 on 40 procs for 123456 steps with 281 atoms, finish time Fri Jan  6 18:54:53 2023


Pair  time (%) = 0.226418 (0.0191194)
Neigh time (%) = 0.844269 (0.0712929)
Comm  time (%) = 2.9502 (0.249125)
Outpt time (%) = 0.000158822 (1.34114e-05)
Other time (%) = 1180.21 (99.6604)

Nlocal:    7.025 ave 87 max 0 min
Histogram: 33 3 0 1 1 0 0 0 0 2
Nghost:    4.025 ave 41 max 0 min
Histogram: 36 0 0 0 0 0 0 1 0 3
Neighs:    1.7 ave 29 max 0 min
Histogram: 36 0 2 0 0 0 0 0 1 1

Total # of neighbors = 68
Ave neighs/atom = 0.241993
Neighbor list builds = 4768
Dangerous builds = 333
Setting up run at Fri Jan  6 18:54:53 2023

Memory usage per processor = 958.583 Mbytes
    Step    Atoms         KinEng            CPU 
 5308610      281     0.15512302              0 
 5432066      279     0.14808618      1189.6036 
Loop time of 1189.6 on 40 procs for 123456 steps with 279 atoms, finish time Fri Jan  6 19:14:43 2023


Pair  time (%) = 0.225814 (0.0189823)
Neigh time (%) = 0.820943 (0.0690098)
Comm  time (%) = 2.94531 (0.247588)
Outpt time (%) = 0.000442683 (3.72127e-05)
Other time (%) = 1185.61 (99.6644)

Nlocal:    6.975 ave 85 max 0 min
Histogram: 32 3 2 0 1 0 0 0 0 2
Nghost:    3.7 ave 41 max 0 min
Histogram: 36 0 0 0 0 0 1 0 2 1
Neighs:    1.75 ave 29 max 0 min
Histogram: 36 1 1 0 0 0 0 0 1 1

Total # of neighbors = 70
Ave neighs/atom = 0.250896
Neighbor list builds = 4696
Dangerous builds = 508
Setting up run at Fri Jan  6 19:14:43 2023

Memory usage per processor = 958.583 Mbytes
    Step    Atoms         KinEng            CPU 
 5432066      279     0.14808618              0 
 5555522      278     0.38777056      1191.2664 
Loop time of 1191.27 on 40 procs for 123456 steps with 278 atoms, finish time Fri Jan  6 19:34:34 2023


Pair  time (%) = 0.230061 (0.0193123)
Neigh time (%) = 1.01681 (0.0853557)
Comm  time (%) = 3.53327 (0.296598)
Outpt time (%) = 0.000306934 (2.57654e-05)
Other time (%) = 1186.49 (99.5987)

Nlocal:    6.95 ave 83 max 0 min
Histogram: 33 3 0 1 1 0 0 0 0 2
Nghost:    3.675 ave 41 max 0 min
Histogram: 36 0 0 0 0 0 1 1 0 2
Neighs:    1.625 ave 31 max 0 min
Histogram: 36 2 0 0 0 0 0 1 0 1

Total # of neighbors = 65
Ave neighs/atom = 0.233813
Neighbor list builds = 5669
Dangerous builds = 261
Setting up run at Fri Jan  6 19:34:34 2023

Memory usage per processor = 958.583 Mbytes
    Step    Atoms         KinEng            CPU 
 5555522      278     0.38777056              0 
 5678978      277     0.40594516      1198.4047 
Loop time of 1198.41 on 40 procs for 123456 steps with 277 atoms, finish time Fri Jan  6 19:54:32 2023


Pair  time (%) = 0.23043 (0.0192281)
Neigh time (%) = 1.08244 (0.0903232)
Comm  time (%) = 3.7971 (0.316846)
Outpt time (%) = 0.000156506 (1.30595e-05)
Other time (%) = 1193.3 (99.5736)

Nlocal:    6.925 ave 86 max 0 min
Histogram: 34 2 0 1 1 0 0 0 1 1
Nghost:    3.725 ave 40 max 0 min
Histogram: 36 0 0 0 0 0 0 1 1 2
Neighs:    1.625 ave 29 max 0 min
Histogram: 36 2 0 0 0 0 0 0 1 1

Total # of neighbors = 65
Ave neighs/atom = 0.234657
Neighbor list builds = 5900
Dangerous builds = 23
Setting up run at Fri Jan  6 19:54:33 2023

Memory usage per processor = 958.583 Mbytes
    Step    Atoms         KinEng            CPU 
 5678978      277     0.40594516              0 
 5802434      276     0.42003848      1207.9871 
Loop time of 1207.99 on 40 procs for 123456 steps with 276 atoms, finish time Fri Jan  6 20:14:41 2023


Pair  time (%) = 0.233404 (0.0193217)
Neigh time (%) = 1.40621 (0.11641)
Comm  time (%) = 5.37458 (0.444921)
Outpt time (%) = 0.000481449 (3.98555e-05)
Other time (%) = 1200.97 (99.4193)

Nlocal:    6.9 ave 86 max 0 min
Histogram: 32 3 2 0 1 0 0 0 1 1
Nghost:    3.7 ave 39 max 0 min
Histogram: 35 1 0 0 0 0 0 1 2 1
Neighs:    1.75 ave 29 max 0 min
Histogram: 35 3 0 0 0 0 0 0 0 2

Total # of neighbors = 70
Ave neighs/atom = 0.253623
Neighbor list builds = 7784
Dangerous builds = 145
Setting up run at Fri Jan  6 20:14:41 2023

Memory usage per processor = 958.583 Mbytes
    Step    Atoms         KinEng            CPU 
 5802434      276     0.42003848              0 
 5925890      276     0.44938916      1198.8866 
Loop time of 1198.89 on 40 procs for 123456 steps with 276 atoms, finish time Fri Jan  6 20:34:39 2023


Pair  time (%) = 0.231961 (0.019348)
Neigh time (%) = 1.08101 (0.0901679)
Comm  time (%) = 3.97047 (0.33118)
Outpt time (%) = 0.000216171 (1.8031e-05)
Other time (%) = 1193.6 (99.5593)

Nlocal:    6.9 ave 84 max 0 min
Histogram: 34 1 1 1 0 1 0 0 1 1
Nghost:    3.7 ave 45 max 0 min
Histogram: 36 0 0 0 0 0 2 1 0 1
Neighs:    1.625 ave 29 max 0 min
Histogram: 37 0 1 0 0 0 0 0 0 2

Total # of neighbors = 65
Ave neighs/atom = 0.235507
Neighbor list builds = 5876
Dangerous builds = 0
Setting up run at Fri Jan  6 20:34:40 2023

Memory usage per processor = 958.583 Mbytes
    Step    Atoms         KinEng            CPU 
 5925890      276     0.44938916              0 
 6049346      274     0.32764307      1199.4362 
Loop time of 1199.44 on 40 procs for 123456 steps with 274 atoms, finish time Fri Jan  6 20:54:39 2023


Pair  time (%) = 0.23059 (0.0192248)
Neigh time (%) = 1.039 (0.0866237)
Comm  time (%) = 3.61153 (0.301102)
Outpt time (%) = 0.00011077 (9.23517e-06)
Other time (%) = 1194.56 (99.593)

Nlocal:    6.85 ave 84 max 0 min
Histogram: 33 2 2 0 1 0 0 0 1 1
Nghost:    3.875 ave 43 max 0 min
Histogram: 36 0 0 0 0 0 1 1 1 1
Neighs:    1.55 ave 29 max 0 min
Histogram: 37 0 1 0 0 0 0 0 1 1

Total # of neighbors = 62
Ave neighs/atom = 0.226277
Neighbor list builds = 5807
Dangerous builds = 160
Setting up run at Fri Jan  6 20:54:39 2023

Memory usage per processor = 958.583 Mbytes
    Step    Atoms         KinEng            CPU 
 6049346      274     0.32764307              0 
 6172802      274     0.31719155      1183.3255 
Loop time of 1183.33 on 40 procs for 123456 steps with 274 atoms, finish time Fri Jan  6 21:14:22 2023


Pair  time (%) = 0.224631 (0.018983)
Neigh time (%) = 0.735314 (0.0621396)
Comm  time (%) = 3.14505 (0.26578)
Outpt time (%) = 0.00048051 (4.06067e-05)
Other time (%) = 1179.22 (99.6531)

Nlocal:    6.85 ave 83 max 0 min
Histogram: 33 3 0 1 0 1 0 0 1 1
Nghost:    3.975 ave 44 max 0 min
Histogram: 36 0 0 0 0 0 1 1 1 1
Neighs:    1.75 ave 30 max 0 min
Histogram: 36 1 1 0 0 0 0 0 0 2

Total # of neighbors = 70
Ave neighs/atom = 0.255474
Neighbor list builds = 3982
Dangerous builds = 0
Setting up run at Fri Jan  6 21:14:23 2023

Memory usage per processor = 958.583 Mbytes
    Step    Atoms         KinEng            CPU 
 6172802      274     0.31719155              0 
 6296258      273     0.31141987      1189.8209 
Loop time of 1189.82 on 40 procs for 123456 steps with 273 atoms, finish time Fri Jan  6 21:34:12 2023


Pair  time (%) = 0.223536 (0.0187874)
Neigh time (%) = 0.735875 (0.0618475)
Comm  time (%) = 3.05261 (0.256561)
Outpt time (%) = 0.000144458 (1.21411e-05)
Other time (%) = 1185.81 (99.6628)

Nlocal:    6.825 ave 81 max 0 min
Histogram: 32 4 1 0 0 1 0 0 0 2
Nghost:    3.825 ave 41 max 0 min
Histogram: 36 0 0 0 0 0 0 1 1 2
Neighs:    1.7 ave 29 max 0 min
Histogram: 37 0 1 0 0 0 0 0 0 2

Total # of neighbors = 68
Ave neighs/atom = 0.249084
Neighbor list builds = 3986
Dangerous builds = 4
Setting up run at Fri Jan  6 21:34:12 2023

Memory usage per processor = 958.583 Mbytes
    Step    Atoms         KinEng            CPU 
 6296258      273     0.31141987              0 
 6419714      272     0.35240685      1186.5998 
Loop time of 1186.6 on 40 procs for 123456 steps with 272 atoms, finish time Fri Jan  6 21:53:59 2023


Pair  time (%) = 0.225773 (0.0190269)
Neigh time (%) = 0.780175 (0.0657488)
Comm  time (%) = 3.31918 (0.279722)
Outpt time (%) = 0.000128757 (1.08509e-05)
Other time (%) = 1182.27 (99.6355)

Nlocal:    6.8 ave 80 max 0 min
Histogram: 32 3 1 1 1 0 0 0 0 2
Nghost:    3.975 ave 40 max 0 min
Histogram: 36 0 0 0 0 0 0 0 2 2
Neighs:    1.775 ave 31 max 0 min
Histogram: 37 0 1 0 0 0 0 0 0 2

Total # of neighbors = 71
Ave neighs/atom = 0.261029
Neighbor list builds = 4297
Dangerous builds = 161
Setting up run at Fri Jan  6 21:53:59 2023

Memory usage per processor = 958.583 Mbytes
    Step    Atoms         KinEng            CPU 
 6419714      272     0.35240685              0 
 6543170      271     0.33938449       1267.821 
Loop time of 1267.82 on 40 procs for 123456 steps with 271 atoms, finish time Fri Jan  6 22:15:07 2023


Pair  time (%) = 0.227227 (0.0179226)
Neigh time (%) = 0.830869 (0.0655352)
Comm  time (%) = 3.69987 (0.291829)
Outpt time (%) = 0.000160429 (1.26539e-05)
Other time (%) = 1263.06 (99.6247)

Nlocal:    6.775 ave 78 max 0 min
Histogram: 33 2 1 1 0 1 0 0 0 2
Nghost:    3.8 ave 42 max 0 min
Histogram: 36 0 0 0 0 0 1 1 1 1
Neighs:    1.675 ave 27 max 0 min
Histogram: 36 1 0 1 0 0 0 0 0 2

Total # of neighbors = 67
Ave neighs/atom = 0.247232
Neighbor list builds = 4558
Dangerous builds = 0
Setting up run at Fri Jan  6 22:15:07 2023

Memory usage per processor = 958.583 Mbytes
    Step    Atoms         KinEng            CPU 
 6543170      271     0.33938449              0 
 6666626      271     0.31585498      1259.2908 
Loop time of 1259.29 on 40 procs for 123456 steps with 271 atoms, finish time Fri Jan  6 22:36:06 2023


Pair  time (%) = 0.224621 (0.0178371)
Neigh time (%) = 0.735688 (0.0584208)
Comm  time (%) = 3.35923 (0.266756)
Outpt time (%) = 0.000473807 (3.76249e-05)
Other time (%) = 1254.97 (99.6569)

Nlocal:    6.775 ave 77 max 0 min
Histogram: 32 4 0 1 1 0 0 0 0 2
Nghost:    3.7 ave 41 max 0 min
Histogram: 36 0 0 0 0 0 0 2 0 2
Neighs:    1.7 ave 29 max 0 min
Histogram: 37 0 0 1 0 0 0 0 1 1

Total # of neighbors = 68
Ave neighs/atom = 0.250923
Neighbor list builds = 3982
Dangerous builds = 0
Setting up run at Fri Jan  6 22:36:06 2023

Memory usage per processor = 958.583 Mbytes
    Step    Atoms         KinEng            CPU 
 6666626      271     0.31585498              0 
 6790082      269     0.31611043      1221.2926 
Loop time of 1221.29 on 40 procs for 123456 steps with 269 atoms, finish time Fri Jan  6 22:56:28 2023


Pair  time (%) = 0.230231 (0.0188514)
Neigh time (%) = 0.817412 (0.06693)
Comm  time (%) = 4.09659 (0.33543)
Outpt time (%) = 0.000141771 (1.16082e-05)
Other time (%) = 1216.15 (99.5788)

Nlocal:    6.725 ave 77 max 0 min
Histogram: 32 3 1 1 0 1 0 0 0 2
Nghost:    3.9 ave 44 max 0 min
Histogram: 36 0 0 0 0 0 2 0 1 1
Neighs:    1.675 ave 30 max 0 min
Histogram: 37 0 0 0 1 0 0 1 0 1

Total # of neighbors = 67
Ave neighs/atom = 0.249071
Neighbor list builds = 4803
Dangerous builds = 847
Setting up run at Fri Jan  6 22:56:28 2023

Memory usage per processor = 958.583 Mbytes
    Step    Atoms         KinEng            CPU 
 6790082      269     0.31611043              0 
 6913538      268     0.32770202      1213.6261 
Loop time of 1213.63 on 40 procs for 123456 steps with 268 atoms, finish time Fri Jan  6 23:16:41 2023


Pair  time (%) = 0.229182 (0.018884)
Neigh time (%) = 0.876067 (0.0721859)
Comm  time (%) = 3.55519 (0.29294)
Outpt time (%) = 0.000181413 (1.4948e-05)
Other time (%) = 1208.97 (99.616)

Nlocal:    6.7 ave 76 max 0 min
Histogram: 33 1 2 1 0 1 0 0 0 2
Nghost:    3.7 ave 43 max 0 min
Histogram: 36 0 0 0 0 0 2 0 1 1
Neighs:    1.6 ave 28 max 0 min
Histogram: 37 0 0 1 0 0 0 0 1 1

Total # of neighbors = 64
Ave neighs/atom = 0.238806
Neighbor list builds = 4811
Dangerous builds = 1
Setting up run at Fri Jan  6 23:16:41 2023

Memory usage per processor = 958.583 Mbytes
    Step    Atoms         KinEng            CPU 
 6913538      268     0.32770202              0 
 7036994      267     0.32340012      1193.0458 
Loop time of 1193.05 on 40 procs for 123456 steps with 267 atoms, finish time Fri Jan  6 23:36:34 2023


Pair  time (%) = 0.227447 (0.0190644)
Neigh time (%) = 0.772532 (0.0647529)
Comm  time (%) = 3.19509 (0.267809)
Outpt time (%) = 0.000557052 (4.66916e-05)
Other time (%) = 1188.85 (99.6483)

Nlocal:    6.675 ave 74 max 0 min
Histogram: 32 1 3 1 0 1 0 0 0 2
Nghost:    3.525 ave 44 max 0 min
Histogram: 36 0 0 0 0 1 1 0 1 1
Neighs:    1.575 ave 28 max 0 min
Histogram: 37 0 0 1 0 0 0 1 0 1

Total # of neighbors = 63
Ave neighs/atom = 0.235955
Neighbor list builds = 4188
Dangerous builds = 1
Setting up run at Fri Jan  6 23:36:34 2023

Memory usage per processor = 958.583 Mbytes
    Step    Atoms         KinEng            CPU 
 7036994      267     0.32340012              0 
 7160450      267     0.32118708      1190.7556 
Loop time of 1190.76 on 40 procs for 123456 steps with 267 atoms, finish time Fri Jan  6 23:56:25 2023


Pair  time (%) = 0.226716 (0.0190397)
Neigh time (%) = 0.74375 (0.0624604)
Comm  time (%) = 2.81407 (0.236326)
Outpt time (%) = 3.27015e-05 (2.74628e-06)
Other time (%) = 1186.97 (99.6822)

Nlocal:    6.675 ave 75 max 0 min
Histogram: 32 1 4 0 1 0 0 0 0 2
Nghost:    3.575 ave 41 max 0 min
Histogram: 36 0 0 0 0 0 2 0 1 1
Neighs:    1.475 ave 25 max 0 min
Histogram: 37 0 0 0 1 0 0 0 1 1

Total # of neighbors = 59
Ave neighs/atom = 0.220974
Neighbor list builds = 3982
Dangerous builds = 0
Setting up run at Fri Jan  6 23:56:25 2023

Memory usage per processor = 958.583 Mbytes
    Step    Atoms         KinEng            CPU 
 7160450      267     0.32118708              0 
 7283906      265     0.33158379      1189.3721 
Loop time of 1189.37 on 40 procs for 123456 steps with 265 atoms, finish time Sat Jan  7 00:16:15 2023


Pair  time (%) = 0.228772 (0.0192347)
Neigh time (%) = 0.841329 (0.0707372)
Comm  time (%) = 3.36273 (0.282731)
Outpt time (%) = 0.000230861 (1.94103e-05)
Other time (%) = 1184.94 (99.6273)

Nlocal:    6.625 ave 74 max 0 min
Histogram: 32 2 3 0 0 1 0 0 0 2
Nghost:    3.575 ave 46 max 0 min
Histogram: 36 0 0 0 0 2 0 1 0 1
Neighs:    1.6 ave 24 max 0 min
Histogram: 36 1 0 0 1 0 0 0 0 2

Total # of neighbors = 64
Ave neighs/atom = 0.241509
Neighbor list builds = 4754
Dangerous builds = 118
Setting up run at Sat Jan  7 00:16:15 2023

Memory usage per processor = 958.583 Mbytes
    Step    Atoms         KinEng            CPU 
 7283906      265     0.33158379              0 
 7407362      264     0.33906681      1196.4704 
Loop time of 1196.47 on 40 procs for 123456 steps with 264 atoms, finish time Sat Jan  7 00:36:11 2023


Pair  time (%) = 0.223887 (0.0187123)
Neigh time (%) = 0.731127 (0.061107)
Comm  time (%) = 3.02452 (0.252787)
Outpt time (%) = 0.000476461 (3.98222e-05)
Other time (%) = 1192.49 (99.6674)

Nlocal:    6.6 ave 72 max 0 min
Histogram: 32 3 1 1 0 1 0 0 0 2
Nghost:    3.375 ave 40 max 0 min
Histogram: 36 0 0 0 0 1 1 0 0 2
Neighs:    1.525 ave 25 max 0 min
Histogram: 37 0 0 1 0 0 0 0 0 2

Total # of neighbors = 61
Ave neighs/atom = 0.231061
Neighbor list builds = 3987
Dangerous builds = 48
Setting up run at Sat Jan  7 00:36:11 2023

Memory usage per processor = 958.583 Mbytes
    Step    Atoms         KinEng            CPU 
 7407362      264     0.33906681              0 
 7530818      262     0.34218912      1191.8825 
Loop time of 1191.88 on 40 procs for 123456 steps with 262 atoms, finish time Sat Jan  7 00:56:03 2023


Pair  time (%) = 0.223756 (0.0187733)
Neigh time (%) = 0.753034 (0.0631802)
Comm  time (%) = 2.90378 (0.243629)
Outpt time (%) = 0.000198861 (1.66846e-05)
Other time (%) = 1188 (99.6744)

Nlocal:    6.55 ave 72 max 0 min
Histogram: 32 1 3 1 1 0 0 0 0 2
Nghost:    3.4 ave 39 max 0 min
Histogram: 36 0 0 0 0 0 2 0 1 1
Neighs:    1.45 ave 25 max 0 min
Histogram: 37 0 0 1 0 0 0 0 1 1

Total # of neighbors = 58
Ave neighs/atom = 0.221374
Neighbor list builds = 4182
Dangerous builds = 206
Setting up run at Sat Jan  7 00:56:03 2023

Memory usage per processor = 958.583 Mbytes
    Step    Atoms         KinEng            CPU 
 7530818      262     0.34218912              0 
 7654274      260     0.34197074      1183.0172 
Loop time of 1183.02 on 40 procs for 123456 steps with 260 atoms, finish time Sat Jan  7 01:15:46 2023


Pair  time (%) = 0.222984 (0.0188488)
Neigh time (%) = 0.688594 (0.0582066)
Comm  time (%) = 2.87812 (0.243286)
Outpt time (%) = 0.000188672 (1.59483e-05)
Other time (%) = 1179.23 (99.6796)

Nlocal:    6.5 ave 74 max 0 min
Histogram: 32 3 1 1 0 1 0 0 0 2
Nghost:    3.425 ave 39 max 0 min
Histogram: 34 2 0 0 0 1 1 0 1 1
Neighs:    1.475 ave 25 max 0 min
Histogram: 36 1 0 1 0 0 0 0 1 1

Total # of neighbors = 59
Ave neighs/atom = 0.226923
Neighbor list builds = 3772
Dangerous builds = 79
Setting up run at Sat Jan  7 01:15:46 2023

Memory usage per processor = 958.583 Mbytes
    Step    Atoms         KinEng            CPU 
 7654274      260     0.34197074              0 
 7777730      258     0.35449686      1190.1782 
Loop time of 1190.18 on 40 procs for 123456 steps with 258 atoms, finish time Sat Jan  7 01:35:36 2023


Pair  time (%) = 0.222711 (0.0187124)
Neigh time (%) = 0.745491 (0.062637)
Comm  time (%) = 4.0343 (0.338966)
Outpt time (%) = 0.000497677 (4.18153e-05)
Other time (%) = 1185.18 (99.5796)

Nlocal:    6.45 ave 70 max 0 min
Histogram: 33 0 2 2 0 1 0 0 0 2
Nghost:    3.175 ave 33 max 0 min
Histogram: 36 0 0 0 0 0 0 1 1 2
Neighs:    1.475 ave 24 max 0 min
Histogram: 36 1 0 1 0 0 0 0 1 1

Total # of neighbors = 59
Ave neighs/atom = 0.228682
Neighbor list builds = 4109
Dangerous builds = 2
Setting up run at Sat Jan  7 01:35:37 2023

Memory usage per processor = 958.583 Mbytes
    Step    Atoms         KinEng            CPU 
 7777730      258     0.35449686              0 
 7901186      258     0.33090176      1183.6726 
Loop time of 1183.67 on 40 procs for 123456 steps with 258 atoms, finish time Sat Jan  7 01:55:20 2023


Pair  time (%) = 0.221927 (0.018749)
Neigh time (%) = 0.672787 (0.0568389)
Comm  time (%) = 3.4973 (0.295462)
Outpt time (%) = 0.00253391 (0.000214072)
Other time (%) = 1179.28 (99.6287)

Nlocal:    6.45 ave 70 max 0 min
Histogram: 32 3 1 0 1 1 0 0 0 2
Nghost:    3.275 ave 34 max 0 min
Histogram: 36 0 0 0 0 0 0 2 0 2
Neighs:    1.325 ave 23 max 0 min
Histogram: 36 1 0 0 1 0 1 0 0 1

Total # of neighbors = 53
Ave neighs/atom = 0.205426
Neighbor list builds = 3685
Dangerous builds = 0
Setting up run at Sat Jan  7 01:55:20 2023

Memory usage per processor = 958.583 Mbytes
    Step    Atoms         KinEng            CPU 
 7901186      258     0.33090176              0 
 8024642      256     0.30989509      1197.4213 
Loop time of 1197.42 on 40 procs for 123456 steps with 256 atoms, finish time Sat Jan  7 02:15:18 2023


Pair  time (%) = 0.225677 (0.0188469)
Neigh time (%) = 0.87471 (0.0730495)
Comm  time (%) = 3.92898 (0.32812)
Outpt time (%) = 0.000198498 (1.65771e-05)
Other time (%) = 1192.39 (99.58)

Nlocal:    6.4 ave 68 max 0 min
Histogram: 32 2 2 1 1 0 0 0 0 2
Nghost:    3.375 ave 37 max 0 min
Histogram: 35 1 0 0 0 0 1 1 1 1
Neighs:    1.25 ave 22 max 0 min
Histogram: 36 1 0 0 1 0 1 0 0 1

Total # of neighbors = 50
Ave neighs/atom = 0.195312
Neighbor list builds = 4927
Dangerous builds = 15
Setting up run at Sat Jan  7 02:15:18 2023

Memory usage per processor = 958.583 Mbytes
    Step    Atoms         KinEng            CPU 
 8024642      256     0.30989509              0 
 8148098      255     0.29977912      1190.9376 
Loop time of 1190.94 on 40 procs for 123456 steps with 255 atoms, finish time Sat Jan  7 02:35:09 2023


Pair  time (%) = 0.222009 (0.0186415)
Neigh time (%) = 0.697988 (0.0586082)
Comm  time (%) = 2.9474 (0.247485)
Outpt time (%) = 0.000198011 (1.66264e-05)
Other time (%) = 1187.07 (99.6752)

Nlocal:    6.375 ave 68 max 0 min
Histogram: 33 1 1 2 1 0 0 0 0 2
Nghost:    3.4 ave 38 max 0 min
Histogram: 36 0 0 0 0 0 1 1 1 1
Neighs:    1.325 ave 22 max 0 min
Histogram: 36 1 0 0 1 0 1 0 0 1

Total # of neighbors = 53
Ave neighs/atom = 0.207843
Neighbor list builds = 3877
Dangerous builds = 193
Setting up run at Sat Jan  7 02:35:09 2023

Memory usage per processor = 958.583 Mbytes
    Step    Atoms         KinEng            CPU 
 8148098      255     0.29977912              0 
 8271554      253     0.29015961       1191.029 
Loop time of 1191.03 on 40 procs for 123456 steps with 253 atoms, finish time Sat Jan  7 02:55:00 2023


Pair  time (%) = 0.222055 (0.018644)
Neigh time (%) = 0.706452 (0.0593145)
Comm  time (%) = 2.97063 (0.249417)
Outpt time (%) = 0.00275892 (0.000231641)
Other time (%) = 1187.13 (99.6724)

Nlocal:    6.325 ave 67 max 0 min
Histogram: 33 2 0 1 1 1 0 0 0 2
Nghost:    3.075 ave 33 max 0 min
Histogram: 36 0 0 0 0 0 1 0 1 2
Neighs:    1.275 ave 20 max 0 min
Histogram: 35 2 0 0 0 0 2 0 0 1

Total # of neighbors = 51
Ave neighs/atom = 0.201581
Neighbor list builds = 3867
Dangerous builds = 9
Setting up run at Sat Jan  7 02:55:00 2023

Memory usage per processor = 958.583 Mbytes
    Step    Atoms         KinEng            CPU 
 8271554      253     0.29015961              0 
 8395010      252     0.34680588      1192.8327 
Loop time of 1192.83 on 40 procs for 123456 steps with 252 atoms, finish time Sat Jan  7 03:14:53 2023


Pair  time (%) = 0.22479 (0.018845)
Neigh time (%) = 0.757829 (0.0635319)
Comm  time (%) = 2.96156 (0.24828)
Outpt time (%) = 0.000221151 (1.85399e-05)
Other time (%) = 1188.89 (99.6693)

Nlocal:    6.3 ave 66 max 0 min
Histogram: 33 2 1 0 1 0 1 0 0 2
Nghost:    3.35 ave 39 max 0 min
Histogram: 36 0 0 0 0 1 1 0 1 1
Neighs:    1.25 ave 20 max 0 min
Histogram: 35 2 0 0 0 0 2 0 0 1

Total # of neighbors = 50
Ave neighs/atom = 0.198413
Neighbor list builds = 4162
Dangerous builds = 165
Setting up run at Sat Jan  7 03:14:53 2023

Memory usage per processor = 958.583 Mbytes
    Step    Atoms         KinEng            CPU 
 8395010      252     0.34680588              0 
 8518466      251     0.32362042      1192.2117 
Loop time of 1192.21 on 40 procs for 123456 steps with 251 atoms, finish time Sat Jan  7 03:34:45 2023


Pair  time (%) = 0.223069 (0.0187106)
Neigh time (%) = 0.712624 (0.0597732)
Comm  time (%) = 2.91573 (0.244565)
Outpt time (%) = 0.000158898 (1.3328e-05)
Other time (%) = 1188.36 (99.6769)

Nlocal:    6.275 ave 66 max 0 min
Histogram: 33 1 2 0 1 1 0 0 0 2
Nghost:    3.275 ave 37 max 0 min
Histogram: 36 0 0 0 0 1 0 1 0 2
Neighs:    1.125 ave 19 max 0 min
Histogram: 36 1 0 0 0 2 0 0 0 1

Total # of neighbors = 45
Ave neighs/atom = 0.179283
Neighbor list builds = 3959
Dangerous builds = 225
Setting up run at Sat Jan  7 03:34:45 2023

Memory usage per processor = 958.583 Mbytes
    Step    Atoms         KinEng            CPU 
 8518466      251     0.32362042              0 
 8641922      251     0.42026261      1198.2939 
Loop time of 1198.29 on 40 procs for 123456 steps with 251 atoms, finish time Sat Jan  7 03:54:43 2023


Pair  time (%) = 0.223691 (0.0186675)
Neigh time (%) = 0.733652 (0.0612247)
Comm  time (%) = 2.76247 (0.230534)
Outpt time (%) = 0.000548117 (4.57414e-05)
Other time (%) = 1194.57 (99.6895)

Nlocal:    6.275 ave 68 max 0 min
Histogram: 32 2 2 1 1 0 0 0 0 2
Nghost:    3.55 ave 37 max 0 min
Histogram: 35 1 0 0 0 0 1 0 2 1
Neighs:    1.1 ave 18 max 0 min
Histogram: 36 1 0 0 0 1 1 0 0 1

Total # of neighbors = 44
Ave neighs/atom = 0.175299
Neighbor list builds = 3967
Dangerous builds = 0
Setting up run at Sat Jan  7 03:54:43 2023

Memory usage per processor = 958.583 Mbytes
    Step    Atoms         KinEng            CPU 
 8641922      251     0.42026261              0 
 8765378      250     0.31972538      1186.1359 
Loop time of 1186.14 on 40 procs for 123456 steps with 250 atoms, finish time Sat Jan  7 04:14:30 2023


Pair  time (%) = 0.221925 (0.0187099)
Neigh time (%) = 0.699633 (0.0589842)
Comm  time (%) = 2.83059 (0.238639)
Outpt time (%) = 0.000247303 (2.08495e-05)
Other time (%) = 1182.38 (99.6836)

Nlocal:    6.25 ave 67 max 0 min
Histogram: 32 2 1 1 1 1 0 0 0 2
Nghost:    3.35 ave 37 max 0 min
Histogram: 35 1 0 0 0 0 1 1 1 1
Neighs:    1.025 ave 15 max 0 min
Histogram: 36 1 0 0 0 0 1 1 0 1

Total # of neighbors = 41
Ave neighs/atom = 0.164
Neighbor list builds = 3834
Dangerous builds = 91
Setting up run at Sat Jan  7 04:14:30 2023

Memory usage per processor = 958.583 Mbytes
    Step    Atoms         KinEng            CPU 
 8765378      250     0.31972538              0 
 8888834      249     0.31477829      1192.6703 
Loop time of 1192.67 on 40 procs for 123456 steps with 249 atoms, finish time Sat Jan  7 04:34:22 2023


Pair  time (%) = 0.219251 (0.0183832)
Neigh time (%) = 0.693144 (0.058117)
Comm  time (%) = 3.53182 (0.296127)
Outpt time (%) = 0.000165309 (1.38604e-05)
Other time (%) = 1188.23 (99.6274)

Nlocal:    6.225 ave 67 max 0 min
Histogram: 32 1 3 1 0 1 0 0 1 1
Nghost:    3.6 ave 45 max 0 min
Histogram: 34 2 0 0 0 1 2 0 0 1
Neighs:    1.175 ave 15 max 0 min
Histogram: 35 0 1 0 1 0 1 1 0 1

Total # of neighbors = 47
Ave neighs/atom = 0.188755
Neighbor list builds = 3772
Dangerous builds = 7
Setting up run at Sat Jan  7 04:34:22 2023

Memory usage per processor = 958.583 Mbytes
    Step    Atoms         KinEng            CPU 
 8888834      249     0.31477829              0 
 9012290      246     0.23707486      1194.6029 
Loop time of 1194.6 on 40 procs for 123456 steps with 246 atoms, finish time Sat Jan  7 04:54:17 2023


Pair  time (%) = 0.22501 (0.0188356)
Neigh time (%) = 0.736597 (0.0616604)
Comm  time (%) = 2.9494 (0.246894)
Outpt time (%) = 0.000493457 (4.13072e-05)
Other time (%) = 1190.69 (99.6726)

Nlocal:    6.15 ave 65 max 0 min
Histogram: 33 1 2 0 1 0 1 0 0 2
Nghost:    3.45 ave 41 max 0 min
Histogram: 36 0 0 0 0 0 2 0 1 1
Neighs:    0.925 ave 12 max 0 min
Histogram: 36 1 0 0 0 0 0 1 0 2

Total # of neighbors = 37
Ave neighs/atom = 0.150407
Neighbor list builds = 4067
Dangerous builds = 101
Setting up run at Sat Jan  7 04:54:17 2023

Memory usage per processor = 958.583 Mbytes
    Step    Atoms         KinEng            CPU 
 9012290      246     0.23707486              0 
 9135746      246     0.23313946      1189.4527 
Loop time of 1189.45 on 40 procs for 123456 steps with 246 atoms, finish time Sat Jan  7 05:14:07 2023


Pair  time (%) = 0.220604 (0.0185467)
Neigh time (%) = 0.59884 (0.0503458)
Comm  time (%) = 2.46266 (0.207041)
Outpt time (%) = 0.000167098 (1.40483e-05)
Other time (%) = 1186.17 (99.7241)

Nlocal:    6.15 ave 64 max 0 min
Histogram: 32 2 2 1 0 0 1 0 0 2
Nghost:    3.3 ave 38 max 0 min
Histogram: 36 0 0 0 0 0 1 2 0 1
Neighs:    0.9 ave 12 max 0 min
Histogram: 36 1 0 0 0 0 0 1 0 2

Total # of neighbors = 36
Ave neighs/atom = 0.146341
Neighbor list builds = 3248
Dangerous builds = 0
Setting up run at Sat Jan  7 05:14:07 2023

Memory usage per processor = 958.583 Mbytes
    Step    Atoms         KinEng            CPU 
 9135746      246     0.23313946              0 
 9259202      245     0.41458013      1195.2612 
Loop time of 1195.26 on 40 procs for 123456 steps with 245 atoms, finish time Sat Jan  7 05:34:02 2023


Pair  time (%) = 0.222873 (0.0186464)
Neigh time (%) = 0.758592 (0.0634667)
Comm  time (%) = 3.17997 (0.266048)
Outpt time (%) = 0.000188281 (1.57523e-05)
Other time (%) = 1191.1 (99.6518)

Nlocal:    6.125 ave 63 max 0 min
Histogram: 32 0 4 1 1 0 0 0 0 2
Nghost:    3.375 ave 37 max 0 min
Histogram: 35 1 0 0 0 0 1 0 2 1
Neighs:    0.95 ave 11 max 0 min
Histogram: 36 0 0 1 0 0 0 0 1 2

Total # of neighbors = 38
Ave neighs/atom = 0.155102
Neighbor list builds = 4178
Dangerous builds = 132
Setting up run at Sat Jan  7 05:34:02 2023

Memory usage per processor = 958.583 Mbytes
    Step    Atoms         KinEng            CPU 
 9259202      245     0.41458013              0 
 9382658      245     0.42171321      1199.6391 
Loop time of 1199.64 on 40 procs for 123456 steps with 245 atoms, finish time Sat Jan  7 05:54:02 2023


Pair  time (%) = 0.226523 (0.0188826)
Neigh time (%) = 0.880725 (0.0734158)
Comm  time (%) = 3.35146 (0.279372)
Outpt time (%) = 0.000528537 (4.4058e-05)
Other time (%) = 1195.18 (99.6283)

Nlocal:    6.125 ave 61 max 0 min
Histogram: 33 1 1 1 1 1 0 0 0 2
Nghost:    3.325 ave 38 max 0 min
Histogram: 36 0 0 0 0 0 1 1 1 1
Neighs:    0.925 ave 13 max 0 min
Histogram: 36 1 0 0 0 0 1 0 0 2

Total # of neighbors = 37
Ave neighs/atom = 0.15102
Neighbor list builds = 4780
Dangerous builds = 0
Setting up run at Sat Jan  7 05:54:02 2023

Memory usage per processor = 958.583 Mbytes
    Step    Atoms         KinEng            CPU 
 9382658      245     0.42171321              0 
 9506114      244     0.38259907      1204.2246 
Loop time of 1204.22 on 40 procs for 123456 steps with 244 atoms, finish time Sat Jan  7 06:14:06 2023


Pair  time (%) = 0.223968 (0.0185985)
Neigh time (%) = 0.889579 (0.0738715)
Comm  time (%) = 3.69731 (0.307028)
Outpt time (%) = 0.000255654 (2.12298e-05)
Other time (%) = 1199.41 (99.6005)

Nlocal:    6.1 ave 62 max 0 min
Histogram: 32 2 1 2 0 1 0 0 0 2
Nghost:    3.575 ave 38 max 0 min
Histogram: 35 1 0 0 0 0 1 1 1 1
Neighs:    0.875 ave 12 max 0 min
Histogram: 35 2 0 0 0 0 0 2 0 1

Total # of neighbors = 35
Ave neighs/atom = 0.143443
Neighbor list builds = 4900
Dangerous builds = 186
Setting up run at Sat Jan  7 06:14:06 2023

Memory usage per processor = 958.583 Mbytes
    Step    Atoms         KinEng            CPU 
 9506114      244     0.38259907              0 
 9629570      244     0.45332449      1191.6077 
Loop time of 1191.61 on 40 procs for 123456 steps with 244 atoms, finish time Sat Jan  7 06:33:57 2023


Pair  time (%) = 0.219177 (0.0183934)
Neigh time (%) = 0.695306 (0.0583503)
Comm  time (%) = 3.07372 (0.257947)
Outpt time (%) = 0.000181183 (1.52049e-05)
Other time (%) = 1187.62 (99.6653)

Nlocal:    6.1 ave 61 max 0 min
Histogram: 32 0 3 2 1 0 0 0 0 2
Nghost:    3.575 ave 34 max 0 min
Histogram: 34 2 0 0 0 0 0 2 0 2
Neighs:    0.825 ave 11 max 0 min
Histogram: 36 0 0 0 1 0 1 1 0 1

Total # of neighbors = 33
Ave neighs/atom = 0.135246
Neighbor list builds = 3770
Dangerous builds = 0
Setting up run at Sat Jan  7 06:33:58 2023

Memory usage per processor = 958.583 Mbytes
    Step    Atoms         KinEng            CPU 
 9629570      244     0.45332449              0 
 9753026      243     0.35883743      1185.7446 
Loop time of 1185.75 on 40 procs for 123456 steps with 243 atoms, finish time Sat Jan  7 06:53:43 2023


Pair  time (%) = 0.219831 (0.0185395)
Neigh time (%) = 0.654539 (0.0552007)
Comm  time (%) = 2.84495 (0.23993)
Outpt time (%) = 0.000256075 (2.15961e-05)
Other time (%) = 1182.03 (99.6863)

Nlocal:    6.075 ave 63 max 0 min
Histogram: 32 3 1 0 0 2 0 0 0 2
Nghost:    3.2 ave 37 max 0 min
Histogram: 35 1 0 0 1 0 0 1 1 1
Neighs:    0.875 ave 13 max 0 min
Histogram: 35 1 0 1 0 1 1 0 0 1

Total # of neighbors = 35
Ave neighs/atom = 0.144033
Neighbor list builds = 3527
Dangerous builds = 0
Setting up run at Sat Jan  7 06:53:43 2023

Memory usage per processor = 958.583 Mbytes
    Step    Atoms         KinEng            CPU 
 9753026      243     0.35883743              0 
 9876482      242     0.34489796      1192.2305 
Loop time of 1192.23 on 40 procs for 123456 steps with 242 atoms, finish time Sat Jan  7 07:13:36 2023


Pair  time (%) = 0.222204 (0.0186377)
Neigh time (%) = 0.675877 (0.0566901)
Comm  time (%) = 2.89254 (0.242615)
Outpt time (%) = 0.000514651 (4.31671e-05)
Other time (%) = 1188.44 (99.682)

Nlocal:    6.05 ave 61 max 0 min
Histogram: 32 1 3 0 1 1 0 0 0 2
Nghost:    3.125 ave 30 max 0 min
Histogram: 32 4 0 0 0 0 1 0 0 3
Neighs:    0.85 ave 13 max 0 min
Histogram: 34 2 1 0 0 2 0 0 0 1

Total # of neighbors = 34
Ave neighs/atom = 0.140496
Neighbor list builds = 3658
Dangerous builds = 1
Setting up run at Sat Jan  7 07:13:36 2023

Memory usage per processor = 958.583 Mbytes
    Step    Atoms         KinEng            CPU 
 9876482      242     0.34489796              0 
 9999938      242     0.34776221      1198.1135 
Loop time of 1198.11 on 40 procs for 123456 steps with 242 atoms, finish time Sat Jan  7 07:33:34 2023


Pair  time (%) = 0.220534 (0.0184068)
Neigh time (%) = 0.652831 (0.0544882)
Comm  time (%) = 2.75722 (0.23013)
Outpt time (%) = 0.000276988 (2.31187e-05)
Other time (%) = 1194.48 (99.697)

Nlocal:    6.05 ave 62 max 0 min
Histogram: 32 2 2 0 0 2 0 0 0 2
Nghost:    3.15 ave 34 max 0 min
Histogram: 36 0 0 0 0 1 0 0 1 2
Neighs:    0.825 ave 12 max 0 min
Histogram: 36 0 0 1 0 1 1 0 0 1

Total # of neighbors = 33
Ave neighs/atom = 0.136364
Neighbor list builds = 3539
Dangerous builds = 0
Setting up run at Sat Jan  7 07:33:34 2023

Memory usage per processor = 958.583 Mbytes
    Step    Atoms         KinEng            CPU 
 9999938      242     0.34776221              0 
10123394      242       0.338164      1192.5071 
Loop time of 1192.51 on 40 procs for 123456 steps with 242 atoms, finish time Sat Jan  7 07:53:26 2023


Pair  time (%) = 0.221104 (0.0185411)
Neigh time (%) = 0.656391 (0.0550429)
Comm  time (%) = 2.62821 (0.220394)
Outpt time (%) = 0.000191299 (1.60418e-05)
Other time (%) = 1189 (99.706)

Nlocal:    6.05 ave 61 max 0 min
Histogram: 32 1 2 2 0 0 1 0 0 2
Nghost:    2.95 ave 32 max 0 min
Histogram: 35 1 0 0 0 1 0 0 1 2
Neighs:    0.8 ave 10 max 0 min
Histogram: 35 0 1 0 1 0 0 1 0 2

Total # of neighbors = 32
Ave neighs/atom = 0.132231
Neighbor list builds = 3557
Dangerous builds = 0
Setting up run at Sat Jan  7 07:53:26 2023

Memory usage per processor = 958.583 Mbytes
    Step    Atoms         KinEng            CPU 
10123394      242       0.338164              0 
10246850      240     0.41239988      1205.4859 
Loop time of 1205.49 on 40 procs for 123456 steps with 240 atoms, finish time Sat Jan  7 08:13:32 2023


Pair  time (%) = 0.226281 (0.0187709)
Neigh time (%) = 1.08141 (0.0897077)
Comm  time (%) = 4.68089 (0.388299)
Outpt time (%) = 0.000788093 (6.53755e-05)
Other time (%) = 1199.5 (99.5032)

Nlocal:    6 ave 62 max 0 min
Histogram: 32 1 2 1 1 1 0 0 0 2
Nghost:    2.9 ave 31 max 0 min
Histogram: 36 0 0 0 0 0 1 0 0 3
Neighs:    0.8 ave 10 max 0 min
Histogram: 33 3 0 1 0 0 0 0 2 1

Total # of neighbors = 32
Ave neighs/atom = 0.133333
Neighbor list builds = 5959
Dangerous builds = 95
Setting up run at Sat Jan  7 08:13:32 2023

Memory usage per processor = 958.583 Mbytes
    Step    Atoms         KinEng            CPU 
10246850      240     0.41239988              0 
10370306      240      1.1109722      1192.4493 
Loop time of 1192.45 on 40 procs for 123456 steps with 240 atoms, finish time Sat Jan  7 08:33:24 2023


Pair  time (%) = 0.217855 (0.0182696)
Neigh time (%) = 0.673653 (0.0564932)
Comm  time (%) = 2.84562 (0.238637)
Outpt time (%) = 0.000232148 (1.94682e-05)
Other time (%) = 1188.71 (99.6866)

Nlocal:    6 ave 64 max 0 min
Histogram: 32 1 2 1 2 0 0 0 1 1
Nghost:    2.85 ave 32 max 0 min
Histogram: 36 0 0 0 0 1 0 0 1 2
Neighs:    0.95 ave 11 max 0 min
Histogram: 33 3 0 1 0 0 1 0 0 2

Total # of neighbors = 38
Ave neighs/atom = 0.158333
Neighbor list builds = 3640
Dangerous builds = 0
Setting up run at Sat Jan  7 08:33:24 2023

Memory usage per processor = 958.583 Mbytes
    Step    Atoms         KinEng            CPU 
10370306      240      1.1109722              0 
10493762      240     0.43552987      1188.7808 
Loop time of 1188.78 on 40 procs for 123456 steps with 240 atoms, finish time Sat Jan  7 08:53:13 2023


Pair  time (%) = 0.219037 (0.0184254)
Neigh time (%) = 0.740959 (0.0623293)
Comm  time (%) = 2.87348 (0.241717)
Outpt time (%) = 0.000168374 (1.41635e-05)
Other time (%) = 1184.95 (99.6775)

Nlocal:    6 ave 64 max 0 min
Histogram: 32 2 1 2 0 0 1 0 1 1
Nghost:    2.725 ave 31 max 0 min
Histogram: 36 0 0 0 0 1 0 0 1 2
Neighs:    0.975 ave 13 max 0 min
Histogram: 36 0 0 1 0 0 1 0 1 1

Total # of neighbors = 39
Ave neighs/atom = 0.1625
Neighbor list builds = 4027
Dangerous builds = 0
Setting up run at Sat Jan  7 08:53:13 2023

Memory usage per processor = 958.583 Mbytes
    Step    Atoms         KinEng            CPU 
10493762      240     0.43552987              0 
10617218      239     0.41618893      1192.9193 
Loop time of 1192.92 on 40 procs for 123456 steps with 239 atoms, finish time Sat Jan  7 09:13:06 2023


Pair  time (%) = 0.21764 (0.0182443)
Neigh time (%) = 0.705895 (0.0591737)
Comm  time (%) = 3.0182 (0.25301)
Outpt time (%) = 0.000477155 (3.9999e-05)
Other time (%) = 1188.98 (99.6695)

Nlocal:    5.975 ave 62 max 0 min
Histogram: 32 1 2 1 2 0 0 0 1 1
Nghost:    2.925 ave 33 max 0 min
Histogram: 36 0 0 0 1 0 0 0 1 2
Neighs:    1 ave 13 max 0 min
Histogram: 35 1 0 0 1 0 1 1 0 1

Total # of neighbors = 40
Ave neighs/atom = 0.167364
Neighbor list builds = 3839
Dangerous builds = 1
Setting up run at Sat Jan  7 09:13:06 2023

Memory usage per processor = 958.583 Mbytes
    Step    Atoms         KinEng            CPU 
10617218      239     0.41618893              0 
10740674      237     0.38326846      1192.7696 
Loop time of 1192.77 on 40 procs for 123456 steps with 237 atoms, finish time Sat Jan  7 09:32:59 2023


Pair  time (%) = 0.218891 (0.0183515)
Neigh time (%) = 0.729224 (0.061137)
Comm  time (%) = 3.01427 (0.252712)
Outpt time (%) = 0.000241866 (2.02777e-05)
Other time (%) = 1188.81 (99.6678)

Nlocal:    5.925 ave 60 max 0 min
Histogram: 32 0 3 1 2 0 0 0 1 1
Nghost:    3.125 ave 35 max 0 min
Histogram: 35 1 0 0 1 0 0 0 2 1
Neighs:    1.05 ave 12 max 0 min
Histogram: 35 1 0 0 0 1 0 1 0 2

Total # of neighbors = 42
Ave neighs/atom = 0.177215
Neighbor list builds = 3954
Dangerous builds = 1
Setting up run at Sat Jan  7 09:32:59 2023

Memory usage per processor = 958.583 Mbytes
    Step    Atoms         KinEng            CPU 
10740674      237     0.38326846              0 
10864130      235     0.41578631      1196.5239 
Loop time of 1196.52 on 40 procs for 123456 steps with 235 atoms, finish time Sat Jan  7 09:52:56 2023


Pair  time (%) = 0.2196 (0.0183532)
Neigh time (%) = 0.852567 (0.0712537)
Comm  time (%) = 3.58564 (0.299671)
Outpt time (%) = 0.000148556 (1.24156e-05)
Other time (%) = 1191.87 (99.6107)

Nlocal:    5.875 ave 62 max 0 min
Histogram: 32 2 0 1 3 0 0 0 1 1
Nghost:    3.125 ave 33 max 0 min
Histogram: 36 0 0 0 0 1 0 0 0 3
Neighs:    1.025 ave 11 max 0 min
Histogram: 34 1 1 0 0 1 0 1 0 2

Total # of neighbors = 41
Ave neighs/atom = 0.174468
Neighbor list builds = 4692
Dangerous builds = 184
Setting up run at Sat Jan  7 09:52:56 2023

Memory usage per processor = 958.583 Mbytes
    Step    Atoms         KinEng            CPU 
10864130      235     0.41578631              0 
10987586      234     0.40829554      1190.7403 
Loop time of 1190.74 on 40 procs for 123456 steps with 234 atoms, finish time Sat Jan  7 10:12:46 2023


Pair  time (%) = 0.215886 (0.0181304)
Neigh time (%) = 0.671672 (0.0564079)
Comm  time (%) = 2.58944 (0.217465)
Outpt time (%) = 0.000525427 (4.4126e-05)
Other time (%) = 1187.26 (99.708)

Nlocal:    5.85 ave 61 max 0 min
Histogram: 34 0 1 0 2 0 1 0 1 1
Nghost:    3.15 ave 32 max 0 min
Histogram: 35 1 0 0 0 1 0 0 0 3
Neighs:    0.975 ave 11 max 0 min
Histogram: 35 0 0 1 0 1 1 0 0 2

Total # of neighbors = 39
Ave neighs/atom = 0.166667
Neighbor list builds = 3770
Dangerous builds = 250
Setting up run at Sat Jan  7 10:12:47 2023

Memory usage per processor = 958.583 Mbytes
    Step    Atoms         KinEng            CPU 
10987586      234     0.40829554              0 
11111042      234     0.40903881      1189.6272 
Loop time of 1189.63 on 40 procs for 123456 steps with 234 atoms, finish time Sat Jan  7 10:32:36 2023


Pair  time (%) = 0.213848 (0.0179761)
Neigh time (%) = 0.678532 (0.0570374)
Comm  time (%) = 2.6548 (0.223162)
Outpt time (%) = 0.000268424 (2.25637e-05)
Other time (%) = 1186.08 (99.7018)

Nlocal:    5.85 ave 59 max 0 min
Histogram: 32 2 2 0 1 0 0 1 0 2
Nghost:    3.025 ave 31 max 0 min
Histogram: 36 0 0 0 0 1 0 0 0 3
Neighs:    0.9 ave 10 max 0 min
Histogram: 35 1 0 0 0 0 1 0 0 3

Total # of neighbors = 36
Ave neighs/atom = 0.153846
Neighbor list builds = 3680
Dangerous builds = 0
Setting up run at Sat Jan  7 10:32:36 2023

Memory usage per processor = 958.583 Mbytes
    Step    Atoms         KinEng            CPU 
11111042      234     0.40903881              0 
11234498      233     0.50231767      1193.7061 
Loop time of 1193.71 on 40 procs for 123456 steps with 233 atoms, finish time Sat Jan  7 10:52:30 2023


Pair  time (%) = 0.217463 (0.0182175)
Neigh time (%) = 0.799993 (0.0670176)
Comm  time (%) = 3.31756 (0.277921)
Outpt time (%) = 0.000188891 (1.58239e-05)
Other time (%) = 1189.37 (99.6368)

Nlocal:    5.825 ave 57 max 0 min
Histogram: 32 2 1 1 1 0 1 0 0 2
Nghost:    3 ave 31 max 0 min
Histogram: 35 1 0 0 0 1 0 0 0 3
Neighs:    0.875 ave 13 max 0 min
Histogram: 36 0 0 1 1 0 0 1 0 1

Total # of neighbors = 35
Ave neighs/atom = 0.150215
Neighbor list builds = 4374
Dangerous builds = 1
Setting up run at Sat Jan  7 10:52:30 2023

[...]
Histogram: 36 0 0 0 1 0 2 0 0 1
Neighs:    0.375 ave 7 max 0 min
Histogram: 34 2 3 0 0 0 0 0 0 1

Total # of neighbors = 15
Ave neighs/atom = 0.0833333
Neighbor list builds = 2766
Dangerous builds = 51
Setting up run at Sun Jan  8 08:11:54 2023

Memory usage per processor = 958.583 Mbytes
    Step    Atoms         KinEng            CPU 
19135760      180     0.33716932              0 
19259216      178     0.36471333      1256.2945 
Loop time of 1256.3 on 40 procs for 123456 steps with 178 atoms, finish time Sun Jan  8 08:32:50 2023


Pair  time (%) = 0.236223 (0.0188031)
Neigh time (%) = 2.67173 (0.212667)
Comm  time (%) = 11.4371 (0.910381)
Outpt time (%) = 0.000198529 (1.58027e-05)
Other time (%) = 1241.95 (98.8581)

Nlocal:    4.45 ave 42 max 0 min
Histogram: 32 0 2 3 0 1 0 0 0 2
Nghost:    1.55 ave 22 max 0 min
Histogram: 35 1 0 1 0 1 1 0 0 1
Neighs:    0.375 ave 7 max 0 min
Histogram: 35 1 2 0 1 0 0 0 0 1

Total # of neighbors = 15
Ave neighs/atom = 0.0842697
Neighbor list builds = 16379
Dangerous builds = 4
Setting up run at Sun Jan  8 08:32:50 2023

Memory usage per processor = 958.583 Mbytes
    Step    Atoms         KinEng            CPU 
19259216      178     0.36471333              0 
19382672      178     0.38350833      1187.8077 
Loop time of 1187.81 on 40 procs for 123456 steps with 178 atoms, finish time Sun Jan  8 08:52:38 2023


Pair  time (%) = 0.213009 (0.0179329)
Neigh time (%) = 0.608306 (0.0512125)
Comm  time (%) = 2.13797 (0.179993)
Outpt time (%) = 0.000507236 (4.27035e-05)
Other time (%) = 1184.85 (99.7508)

Nlocal:    4.45 ave 42 max 0 min
Histogram: 32 0 2 2 2 0 0 0 0 2
Nghost:    1.675 ave 22 max 0 min
Histogram: 36 0 0 0 1 1 1 0 0 1
Neighs:    0.4 ave 7 max 0 min
Histogram: 33 4 1 0 1 0 0 0 0 1

Total # of neighbors = 16
Ave neighs/atom = 0.0898876
Neighbor list builds = 3274
Dangerous builds = 0
Setting up run at Sun Jan  8 08:52:38 2023

Memory usage per processor = 958.583 Mbytes
    Step    Atoms         KinEng            CPU 
19382672      178     0.38350833              0 
19506128      178     0.37079078      1185.0992 
Loop time of 1185.1 on 40 procs for 123456 steps with 178 atoms, finish time Sun Jan  8 09:12:23 2023


Pair  time (%) = 0.214247 (0.0180784)
Neigh time (%) = 0.72961 (0.0615653)
Comm  time (%) = 2.38625 (0.201355)
Outpt time (%) = 0.000268172 (2.26287e-05)
Other time (%) = 1181.77 (99.719)

Nlocal:    4.45 ave 43 max 0 min
Histogram: 32 0 3 1 1 1 0 0 0 2
Nghost:    1.55 ave 21 max 0 min
Histogram: 36 0 0 1 0 0 2 0 0 1
Neighs:    0.35 ave 7 max 0 min
Histogram: 34 3 2 0 0 0 0 0 0 1

Total # of neighbors = 14
Ave neighs/atom = 0.0786517
Neighbor list builds = 3923
Dangerous builds = 0
Setting up run at Sun Jan  8 09:12:23 2023

Memory usage per processor = 958.583 Mbytes
    Step    Atoms         KinEng            CPU 
19506128      178     0.37079078              0 
19629584      177     0.44409864      1193.3275 
Loop time of 1193.33 on 40 procs for 123456 steps with 177 atoms, finish time Sun Jan  8 09:32:17 2023


Pair  time (%) = 0.212737 (0.0178272)
Neigh time (%) = 0.839 (0.0703076)
Comm  time (%) = 2.75603 (0.230953)
Outpt time (%) = 0.000202964 (1.70082e-05)
Other time (%) = 1189.52 (99.6809)

Nlocal:    4.425 ave 45 max 0 min
Histogram: 32 1 1 2 2 0 0 0 1 1
Nghost:    1.525 ave 21 max 0 min
Histogram: 36 0 0 1 0 0 2 0 0 1
Neighs:    0.35 ave 6 max 0 min
Histogram: 35 2 0 0 0 2 0 0 0 1

Total # of neighbors = 14
Ave neighs/atom = 0.079096
Neighbor list builds = 4487
Dangerous builds = 3
Setting up run at Sun Jan  8 09:32:17 2023

Memory usage per processor = 958.583 Mbytes
    Step    Atoms         KinEng            CPU 
19629584      177     0.44409864              0 
19753040      176     0.36007265      1193.4327 
Loop time of 1193.43 on 40 procs for 123456 steps with 176 atoms, finish time Sun Jan  8 09:52:10 2023


Pair  time (%) = 0.215451 (0.0180531)
Neigh time (%) = 0.827869 (0.0693687)
Comm  time (%) = 2.75168 (0.230568)
Outpt time (%) = 0.000489615 (4.10257e-05)
Other time (%) = 1189.64 (99.682)

Nlocal:    4.4 ave 43 max 0 min
Histogram: 32 0 3 1 1 1 0 0 0 2
Nghost:    1.575 ave 23 max 0 min
Histogram: 36 0 0 1 0 2 0 0 0 1
Neighs:    0.375 ave 6 max 0 min
Histogram: 34 3 0 0 0 2 0 0 0 1

Total # of neighbors = 15
Ave neighs/atom = 0.0852273
Neighbor list builds = 4495
Dangerous builds = 89
Setting up run at Sun Jan  8 09:52:10 2023

Memory usage per processor = 958.583 Mbytes
    Step    Atoms         KinEng            CPU 
19753040      176     0.36007265              0 
19876496      175     0.34488792      1192.4631 
Loop time of 1192.46 on 40 procs for 123456 steps with 175 atoms, finish time Sun Jan  8 10:12:03 2023


Pair  time (%) = 0.212865 (0.0178509)
Neigh time (%) = 0.823202 (0.0690337)
Comm  time (%) = 3.09102 (0.259213)
Outpt time (%) = 0.000184574 (1.54784e-05)
Other time (%) = 1188.34 (99.6539)

Nlocal:    4.375 ave 43 max 0 min
Histogram: 32 0 3 1 2 0 0 0 0 2
Nghost:    1.65 ave 23 max 0 min
Histogram: 36 0 0 0 1 1 1 0 0 1
Neighs:    0.25 ave 6 max 0 min
Histogram: 37 0 0 2 0 0 0 0 0 1

Total # of neighbors = 10
Ave neighs/atom = 0.0571429
Neighbor list builds = 4409
Dangerous builds = 0
Setting up run at Sun Jan  8 10:12:03 2023

Memory usage per processor = 958.583 Mbytes
    Step    Atoms         KinEng            CPU 
19876496      175     0.34488792              0 
19999952      175     0.40040602      1193.5175 
Loop time of 1193.52 on 40 procs for 123456 steps with 175 atoms, finish time Sun Jan  8 10:31:56 2023


Pair  time (%) = 0.213634 (0.0178995)
Neigh time (%) = 0.836015 (0.0700463)
Comm  time (%) = 2.74677 (0.230141)
Outpt time (%) = 0.000163888 (1.37315e-05)
Other time (%) = 1189.72 (99.6819)

Nlocal:    4.375 ave 43 max 0 min
Histogram: 32 1 0 3 2 0 0 0 0 2
Nghost:    1.475 ave 20 max 0 min
Histogram: 35 1 0 0 1 0 2 0 0 1
Neighs:    0.325 ave 6 max 0 min
Histogram: 33 5 0 1 0 0 0 0 0 1

Total # of neighbors = 13
Ave neighs/atom = 0.0742857
Neighbor list builds = 4490
Dangerous builds = 0
Setting up run at Sun Jan  8 10:31:56 2023

Memory usage per processor = 958.583 Mbytes
    Step    Atoms         KinEng            CPU 
19999952      175     0.40040602              0 
20123408      175     0.36566103      1193.1969 
Loop time of 1193.2 on 40 procs for 123456 steps with 175 atoms, finish time Sun Jan  8 10:51:50 2023


Pair  time (%) = 0.215877 (0.0180923)
Neigh time (%) = 0.831472 (0.0696844)
Comm  time (%) = 3.16835 (0.265535)
Outpt time (%) = 0.000489284 (4.10062e-05)
Other time (%) = 1188.98 (99.6466)

Nlocal:    4.375 ave 43 max 0 min
Histogram: 32 0 0 5 1 0 0 0 0 2
Nghost:    1.475 ave 20 max 0 min
Histogram: 34 2 0 0 1 0 1 1 0 1
Neighs:    0.35 ave 6 max 0 min
Histogram: 33 4 0 2 0 0 0 0 0 1

Total # of neighbors = 14
Ave neighs/atom = 0.08
Neighbor list builds = 4467
Dangerous builds = 0
Setting up run at Sun Jan  8 10:51:50 2023

Memory usage per processor = 958.583 Mbytes
    Step    Atoms         KinEng            CPU 
20123408      175     0.36566103              0 
20246864      175     0.50053849      1194.6339 
Loop time of 1194.63 on 40 procs for 123456 steps with 175 atoms, finish time Sun Jan  8 11:11:44 2023


Pair  time (%) = 0.214393 (0.0179463)
Neigh time (%) = 0.865189 (0.0724229)
Comm  time (%) = 3.14249 (0.26305)
Outpt time (%) = 0.00246608 (0.00020643)
Other time (%) = 1190.41 (99.6464)

Nlocal:    4.375 ave 44 max 0 min
Histogram: 32 0 2 3 1 0 0 0 0 2
Nghost:    1.65 ave 21 max 0 min
Histogram: 36 0 0 0 1 1 0 1 0 1
Neighs:    0.4 ave 6 max 0 min
Histogram: 33 3 0 2 0 1 0 0 0 1

Total # of neighbors = 16
Ave neighs/atom = 0.0914286
Neighbor list builds = 4636
Dangerous builds = 0
Setting up run at Sun Jan  8 11:11:44 2023

Memory usage per processor = 958.583 Mbytes
    Step    Atoms         KinEng            CPU 
20246864      175     0.50053849              0 
20370320      175     0.46996239      1194.5631 
Loop time of 1194.56 on 40 procs for 123456 steps with 175 atoms, finish time Sun Jan  8 11:31:39 2023


Pair  time (%) = 0.214143 (0.0179265)
Neigh time (%) = 0.866312 (0.0725212)
Comm  time (%) = 2.91745 (0.244227)
Outpt time (%) = 0.000215977 (1.808e-05)
Other time (%) = 1190.56 (99.6653)

Nlocal:    4.375 ave 42 max 0 min
Histogram: 32 1 1 1 2 1 0 0 0 2
Nghost:    1.675 ave 20 max 0 min
Histogram: 34 2 0 0 0 0 2 1 0 1
Neighs:    0.2 ave 5 max 0 min
Histogram: 37 0 1 0 1 0 0 0 0 1

Total # of neighbors = 8
Ave neighs/atom = 0.0457143
Neighbor list builds = 4642
Dangerous builds = 0
Setting up run at Sun Jan  8 11:31:39 2023

Memory usage per processor = 958.583 Mbytes
    Step    Atoms         KinEng            CPU 
20370320      175     0.46996239              0 
20493776      174     0.39968736      1189.1431 
Loop time of 1189.14 on 40 procs for 123456 steps with 174 atoms, finish time Sun Jan  8 11:51:28 2023


Pair  time (%) = 0.213148 (0.0179245)
Neigh time (%) = 0.654092 (0.0550053)
Comm  time (%) = 3.2831 (0.27609)
Outpt time (%) = 0.000533277 (4.48455e-05)
Other time (%) = 1184.99 (99.6509)

Nlocal:    4.35 ave 42 max 0 min
Histogram: 32 2 1 1 1 0 0 1 0 2
Nghost:    1.725 ave 18 max 0 min
Histogram: 32 4 0 0 1 0 0 1 1 1
Neighs:    0.425 ave 6 max 0 min
Histogram: 33 4 0 1 0 0 0 0 1 1

Total # of neighbors = 17
Ave neighs/atom = 0.0977011
Neighbor list builds = 3642
Dangerous builds = 1
Setting up run at Sun Jan  8 11:51:28 2023

Memory usage per processor = 958.583 Mbytes
    Step    Atoms         KinEng            CPU 
20493776      174     0.39968736              0 
20617232      174     0.41119819      1182.9873 
Loop time of 1183 on 40 procs for 123456 steps with 174 atoms, finish time Sun Jan  8 12:11:11 2023


Pair  time (%) = 0.210852 (0.0178235)
Neigh time (%) = 0.532107 (0.0449795)
Comm  time (%) = 2.59536 (0.219389)
Outpt time (%) = 0.0190652 (0.0016116)
Other time (%) = 1179.64 (99.7162)

Nlocal:    4.35 ave 42 max 0 min
Histogram: 32 1 2 1 0 2 0 0 0 2
Nghost:    1.55 ave 17 max 0 min
Histogram: 34 2 0 0 0 1 0 1 0 2
Neighs:    0.3 ave 6 max 0 min
Histogram: 36 1 0 1 0 1 0 0 0 1

Total # of neighbors = 12
Ave neighs/atom = 0.0689655
Neighbor list builds = 2873
Dangerous builds = 0
Setting up run at Sun Jan  8 12:11:11 2023

Memory usage per processor = 958.583 Mbytes
    Step    Atoms         KinEng            CPU 
20617232      174     0.41119819              0 
20740688      174     0.39131461      1173.8571 
Loop time of 1173.86 on 40 procs for 123456 steps with 174 atoms, finish time Sun Jan  8 12:30:45 2023


Pair  time (%) = 0.209195 (0.0178212)
Neigh time (%) = 0.501024 (0.0426819)
Comm  time (%) = 2.4458 (0.208356)
Outpt time (%) = 0.000180251 (1.53555e-05)
Other time (%) = 1170.7 (99.7311)

Nlocal:    4.35 ave 42 max 0 min
Histogram: 33 0 1 2 1 0 1 0 0 2
Nghost:    1.775 ave 19 max 0 min
Histogram: 33 2 1 0 1 0 0 1 1 1
Neighs:    0.3 ave 6 max 0 min
Histogram: 36 1 0 1 0 1 0 0 0 1

Total # of neighbors = 12
Ave neighs/atom = 0.0689655
Neighbor list builds = 2705
Dangerous builds = 0
Setting up run at Sun Jan  8 12:30:45 2023

Memory usage per processor = 958.583 Mbytes
    Step    Atoms         KinEng            CPU 
20740688      174     0.39131461              0 
20864144      174     0.38282613      1189.9467 
Loop time of 1189.95 on 40 procs for 123456 steps with 174 atoms, finish time Sun Jan  8 12:50:35 2023


Pair  time (%) = 0.210163 (0.0176615)
Neigh time (%) = 0.502533 (0.0422315)
Comm  time (%) = 2.58997 (0.217654)
Outpt time (%) = 0.000177867 (1.49475e-05)
Other time (%) = 1186.64 (99.7224)

Nlocal:    4.35 ave 42 max 0 min
Histogram: 32 1 0 3 2 0 0 0 0 2
Nghost:    1.825 ave 19 max 0 min
Histogram: 33 3 0 0 0 0 1 1 1 1
Neighs:    0.325 ave 6 max 0 min
Histogram: 36 1 0 1 0 0 1 0 0 1

Total # of neighbors = 13
Ave neighs/atom = 0.0747126
Neighbor list builds = 2704
Dangerous builds = 0
Setting up run at Sun Jan  8 12:50:35 2023

Memory usage per processor = 958.583 Mbytes
    Step    Atoms         KinEng            CPU 
20864144      174     0.38282613              0 
20987600      173     0.38934924       1185.989 
Loop time of 1185.99 on 40 procs for 123456 steps with 173 atoms, finish time Sun Jan  8 13:10:21 2023


Pair  time (%) = 0.211154 (0.017804)
Neigh time (%) = 0.540064 (0.045537)
Comm  time (%) = 2.90819 (0.245212)
Outpt time (%) = 0.000718798 (6.06074e-05)
Other time (%) = 1182.33 (99.6914)

Nlocal:    4.325 ave 45 max 0 min
Histogram: 32 2 0 2 2 0 0 0 1 1
Nghost:    1.675 ave 18 max 0 min
Histogram: 33 3 0 0 1 0 0 1 1 1
Neighs:    0.175 ave 5 max 0 min
Histogram: 38 0 0 0 1 0 0 0 0 1

Total # of neighbors = 7
Ave neighs/atom = 0.0404624
Neighbor list builds = 3039
Dangerous builds = 292
Setting up run at Sun Jan  8 13:10:21 2023

Memory usage per processor = 958.583 Mbytes
    Step    Atoms         KinEng            CPU 
20987600      173     0.38934924              0 
21111056      171     0.40259753      1187.3492 
Loop time of 1187.35 on 40 procs for 123456 steps with 171 atoms, finish time Sun Jan  8 13:30:09 2023


Pair  time (%) = 0.208467 (0.0175574)
Neigh time (%) = 0.593828 (0.0500129)
Comm  time (%) = 3.19745 (0.269293)
Outpt time (%) = 0.000194207 (1.63564e-05)
Other time (%) = 1183.35 (99.6631)

Nlocal:    4.275 ave 44 max 0 min
Histogram: 33 0 1 2 1 1 0 0 1 1
Nghost:    1.9 ave 19 max 0 min
Histogram: 35 1 0 0 0 0 1 1 0 2
Neighs:    0.15 ave 5 max 0 min
Histogram: 38 0 1 0 0 0 0 0 0 1

Total # of neighbors = 6
Ave neighs/atom = 0.0350877
Neighbor list builds = 3332
Dangerous builds = 12
Setting up run at Sun Jan  8 13:30:09 2023

Memory usage per processor = 958.583 Mbytes
    Step    Atoms         KinEng            CPU 
21111056      171     0.40259753              0 
21234512      170     0.34521679      1187.1476 
Loop time of 1187.15 on 40 procs for 123456 steps with 170 atoms, finish time Sun Jan  8 13:49:56 2023


Pair  time (%) = 0.209875 (0.0176789)
Neigh time (%) = 0.545777 (0.0459738)
Comm  time (%) = 2.86513 (0.241345)
Outpt time (%) = 0.000260263 (2.19234e-05)
Other time (%) = 1183.53 (99.695)

Nlocal:    4.25 ave 43 max 0 min
Histogram: 32 1 1 2 2 0 0 0 1 1
Nghost:    1.525 ave 17 max 0 min
Histogram: 36 0 0 0 0 1 0 0 2 1
Neighs:    0.275 ave 6 max 0 min
Histogram: 36 1 0 2 0 0 0 0 0 1

Total # of neighbors = 11
Ave neighs/atom = 0.0647059
Neighbor list builds = 3112
Dangerous builds = 286
Setting up run at Sun Jan  8 13:49:56 2023

Memory usage per processor = 958.583 Mbytes
    Step    Atoms         KinEng            CPU 
21234512      170     0.34521679              0 
21357968      170     0.34146239      1186.2387 
Loop time of 1186.24 on 40 procs for 123456 steps with 170 atoms, finish time Sun Jan  8 14:09:42 2023


Pair  time (%) = 0.210709 (0.0177628)
Neigh time (%) = 0.550293 (0.0463897)
Comm  time (%) = 2.30443 (0.194263)
Outpt time (%) = 0.00053638 (4.52169e-05)
Other time (%) = 1183.17 (99.7415)

Nlocal:    4.25 ave 44 max 0 min
Histogram: 32 0 4 0 2 0 0 0 1 1
Nghost:    1.425 ave 15 max 0 min
Histogram: 36 0 0 0 0 0 1 0 1 2
Neighs:    0.225 ave 6 max 0 min
Histogram: 37 1 0 1 0 0 0 0 0 1

Total # of neighbors = 9
Ave neighs/atom = 0.0529412
Neighbor list builds = 2944
Dangerous builds = 0
Setting up run at Sun Jan  8 14:09:42 2023

Memory usage per processor = 958.583 Mbytes
    Step    Atoms         KinEng            CPU 
21357968      170     0.34146239              0 
21481424      170     0.35780071      1185.5628 
Loop time of 1185.56 on 40 procs for 123456 steps with 170 atoms, finish time Sun Jan  8 14:29:28 2023


Pair  time (%) = 0.21051 (0.0177562)
Neigh time (%) = 0.534895 (0.0451174)
Comm  time (%) = 2.27851 (0.192188)
Outpt time (%) = 0.000161436 (1.36168e-05)
Other time (%) = 1182.54 (99.7449)

Nlocal:    4.25 ave 44 max 0 min
Histogram: 32 0 4 1 1 0 0 0 1 1
Nghost:    1.725 ave 18 max 0 min
Histogram: 35 1 0 0 0 0 0 2 1 1
Neighs:    0.275 ave 6 max 0 min
Histogram: 36 1 0 2 0 0 0 0 0 1

Total # of neighbors = 11
Ave neighs/atom = 0.0647059
Neighbor list builds = 2872
Dangerous builds = 0
Setting up run at Sun Jan  8 14:29:28 2023

Memory usage per processor = 958.583 Mbytes
    Step    Atoms         KinEng            CPU 
21481424      170     0.35780071              0 
21604880      170     0.34743454      1182.2018 
Loop time of 1182.2 on 40 procs for 123456 steps with 170 atoms, finish time Sun Jan  8 14:49:10 2023


Pair  time (%) = 0.207816 (0.0175787)
Neigh time (%) = 0.623125 (0.0527089)
Comm  time (%) = 2.61397 (0.221111)
Outpt time (%) = 0.000185099 (1.56572e-05)
Other time (%) = 1178.76 (99.7086)

Nlocal:    4.25 ave 44 max 0 min
Histogram: 32 1 3 0 1 1 0 0 1 1
Nghost:    1.625 ave 18 max 0 min
Histogram: 33 3 0 0 0 1 1 0 1 1
Neighs:    0.275 ave 6 max 0 min
Histogram: 36 1 0 2 0 0 0 0 0 1

Total # of neighbors = 11
Ave neighs/atom = 0.0647059
Neighbor list builds = 3349
Dangerous builds = 0
Setting up run at Sun Jan  8 14:49:10 2023

Memory usage per processor = 958.583 Mbytes
    Step    Atoms         KinEng            CPU 
21604880      170     0.34743454              0 
21728336      169     0.29838361      1184.8741 
Loop time of 1184.87 on 40 procs for 123456 steps with 169 atoms, finish time Sun Jan  8 15:08:55 2023


Pair  time (%) = 0.208949 (0.0176347)
Neigh time (%) = 0.503706 (0.0425114)
Comm  time (%) = 2.2353 (0.188653)
Outpt time (%) = 0.00053302 (4.49854e-05)
Other time (%) = 1181.93 (99.7512)

Nlocal:    4.225 ave 43 max 0 min
Histogram: 32 1 1 2 1 1 0 0 1 1
Nghost:    1.625 ave 21 max 0 min
Histogram: 36 0 0 0 1 1 0 0 1 1
Neighs:    0.2 ave 6 max 0 min
Histogram: 37 2 0 0 0 0 0 0 0 1

Total # of neighbors = 8
Ave neighs/atom = 0.0473373
Neighbor list builds = 2729
Dangerous builds = 35
Setting up run at Sun Jan  8 15:08:55 2023

Memory usage per processor = 958.583 Mbytes
    Step    Atoms         KinEng            CPU 
21728336      169     0.29838361              0 
21851792      169      0.2765989      1184.9589 
Loop time of 1184.96 on 40 procs for 123456 steps with 169 atoms, finish time Sun Jan  8 15:28:40 2023


Pair  time (%) = 0.209355 (0.0176676)
Neigh time (%) = 0.511993 (0.0432074)
Comm  time (%) = 2.34337 (0.197759)
Outpt time (%) = 0.000190756 (1.6098e-05)
Other time (%) = 1181.9 (99.7414)

Nlocal:    4.225 ave 43 max 0 min
Histogram: 32 0 2 3 1 0 0 0 1 1
Nghost:    1.475 ave 20 max 0 min
Histogram: 35 1 0 0 1 0 1 1 0 1
Neighs:    0.2 ave 6 max 0 min
Histogram: 37 2 0 0 0 0 0 0 0 1

Total # of neighbors = 8
Ave neighs/atom = 0.0473373
Neighbor list builds = 2759
Dangerous builds = 0
Setting up run at Sun Jan  8 15:28:40 2023

Memory usage per processor = 958.583 Mbytes
    Step    Atoms         KinEng            CPU 
21851792      169      0.2765989              0 
21975248      168      0.2957578      1189.5153 
Loop time of 1189.52 on 40 procs for 123456 steps with 168 atoms, finish time Sun Jan  8 15:48:30 2023


Pair  time (%) = 0.210912 (0.0177309)
Neigh time (%) = 0.675766 (0.0568102)
Comm  time (%) = 2.86085 (0.240506)
Outpt time (%) = 0.000215149 (1.80871e-05)
Other time (%) = 1185.77 (99.6849)

Nlocal:    4.2 ave 43 max 0 min
Histogram: 32 0 2 3 1 0 0 0 1 1
Nghost:    1.65 ave 19 max 0 min
Histogram: 32 3 2 0 0 0 1 0 1 1
Neighs:    0.275 ave 6 max 0 min
Histogram: 36 1 0 2 0 0 0 0 0 1

Total # of neighbors = 11
Ave neighs/atom = 0.0654762
Neighbor list builds = 3635
Dangerous builds = 0
Setting up run at Sun Jan  8 15:48:30 2023

Memory usage per processor = 958.583 Mbytes
    Step    Atoms         KinEng            CPU 
21975248      168      0.2957578              0 
22098704      168     0.27352441      1189.2569 
Loop time of 1189.28 on 40 procs for 123456 steps with 168 atoms, finish time Sun Jan  8 16:08:19 2023


Pair  time (%) = 0.209843 (0.0176446)
Neigh time (%) = 0.499864 (0.0420308)
Comm  time (%) = 2.15593 (0.18128)
Outpt time (%) = 0.000186049 (1.56438e-05)
srun: Job step aborted: Waiting up to 62 seconds for job step to finish.
slurmstepd: error: *** JOB 14814302 ON r04c02 CANCELLED AT 2023-01-08T17:15:03 ***
slurmstepd: error: *** STEP 14814302.0 ON r04c02 CANCELLED AT 2023-01-08T17:15:03 ***
