LIGGGHTS (Version LIGGGHTS-PUBLIC 3.8.0, compiled 2022-11-07-16:55:38 by serperd1, git commit 86544c3f1215bc9744d7929e3eacf53ba086af9e)
Created orthogonal box = (-0.15 -0.15 -0.15) to (0.15 0.15 0.15)
  2 by 4 by 5 MPI processor grid

Reading STL file 'cone.stl' (mesh processing step 1/3) 

Reading STL file 'in_cyl.stl' (mesh processing step 1/3) 

Reading STL file 'top_cyl.stl' (mesh processing step 1/3) 

Reading STL file 'bot_cyl.stl' (mesh processing step 1/3) 

Reading STL file 'bottom_disk.stl' (mesh processing step 1/3) 

Reading STL file 'top_disk.stl' (mesh processing step 1/3) 
Fix particledistribution/discrete (id prob_par): distribution based on mass%:
    r_0to10p: d=8.400000e-05 (max. bounding sphere) mass%=10.000000%
    r_10to50p: d=2.328000e-04 (max. bounding sphere) mass%=40.000000%
    r_50to90p: d=8.466000e-04 (max. bounding sphere) mass%=40.000000%
    r_90to100p: d=1.312200e-03 (max. bounding sphere) mass%=10.000000%
Fix particledistribution/discrete (id prob_par): distribution based on number%:
    r_0to10p: d=8.400000e-05 (max. bounding sphere) number%=83.887052%
    r_10to50p: d=2.328000e-04 (max. bounding sphere) number%=15.763181%
    r_50to90p: d=8.466000e-04 (max. bounding sphere) number%=0.327762%
    r_90to100p: d=1.312200e-03 (max. bounding sphere) number%=0.022006%
Setting up run at Wed Dec 28 06:00:26 2022

Import and parallelization of mesh cone_mesh containing 868 triangle(s) successful
Import and parallelization of mesh inlet_cyl_wall_mesh containing 1064 triangle(s) successful
Import and parallelization of mesh top_cyl_wall_mesh containing 682 triangle(s) successful
Import and parallelization of mesh bot_cyl_wall_mesh containing 1280 triangle(s) successful
Import and parallelization of mesh bot_disk_wall_mesh containing 1682 triangle(s) successful
Import and parallelization of mesh top_disk_wall_mesh containing 1144 triangle(s) successful
Memory usage per processor = 960.256 Mbytes
    Step    Atoms         KinEng            CPU 
       0        0              0              0 
Loop time of 6.18558e-05 on 40 procs for 0 steps with 0 atoms, finish time Wed Dec 28 06:00:27 2022


Pair  time (%) = 0 (0)
Neigh time (%) = 0 (0)
Comm  time (%) = 0 (0)
Outpt time (%) = 0 (0)
Other time (%) = 6.18558e-05 (100)

Nlocal:    0 ave 0 max 0 min
Histogram: 40 0 0 0 0 0 0 0 0 0
Nghost:    0 ave 0 max 0 min
Histogram: 40 0 0 0 0 0 0 0 0 0
Neighs:    0 ave 0 max 0 min
Histogram: 40 0 0 0 0 0 0 0 0 0

Total # of neighbors = 0
Neighbor list builds = 0
Dangerous builds = 0
Setting up run at Wed Dec 28 06:00:27 2022

Memory usage per processor = 960.256 Mbytes
    Step    Atoms         KinEng            CPU 
       0        0              0              0 
       1        0              0    0.009853185 
Loop time of 0.00986423 on 40 procs for 1 steps with 0 atoms, finish time Wed Dec 28 06:00:27 2022


Pair  time (%) = 4.75245e-06 (0.0481786)
Neigh time (%) = 0 (0)
Comm  time (%) = 0.000222121 (2.25178)
Outpt time (%) = 0.000155861 (1.58006)
Other time (%) = 0.00948149 (96.12)

Nlocal:    0 ave 0 max 0 min
Histogram: 40 0 0 0 0 0 0 0 0 0
Nghost:    0 ave 0 max 0 min
Histogram: 40 0 0 0 0 0 0 0 0 0
Neighs:    0 ave 0 max 0 min
Histogram: 40 0 0 0 0 0 0 0 0 0

Total # of neighbors = 0
Neighbor list builds = 0
Dangerous builds = 0
Scanning dump file ...
Reading snapshot from dump file ...
  orthogonal box = (-0.15 -0.15 -0.15) to (0.15 0.15 0.15)
  0 atoms before read
  4382 atoms in snapshot
  0 atoms purged
  0 atoms replaced
  0 atoms trimmed
  4382 atoms added
  4382 atoms after read
Setting atom values ...
  4382 settings made for type
  4382 settings made for density
  4382 settings made for vy
Setting up run at Wed Dec 28 06:00:27 2022

Memory usage per processor = 964.609 Mbytes
    Step    Atoms         KinEng            CPU 
       1     4382  2.0405663e-07              0 
       2     4382  2.5286639e-06    0.009368761 
Loop time of 0.00938415 on 40 procs for 1 steps with 4382 atoms, finish time Wed Dec 28 06:00:27 2022


Pair  time (%) = 4.42052e-06 (0.0471063)
Neigh time (%) = 0 (0)
Comm  time (%) = 8.89482e-06 (0.0947856)
Outpt time (%) = 0.000267965 (2.8555)
Other time (%) = 0.00910287 (97.0026)

Nlocal:    109.55 ave 1816 max 0 min
Histogram: 36 0 2 0 0 0 0 0 0 2
Nghost:    27.3 ave 345 max 0 min
Histogram: 36 0 0 0 0 1 1 0 0 2
Neighs:    35.525 ave 600 max 0 min
Histogram: 36 0 2 0 0 0 0 0 0 2

Total # of neighbors = 1421
Ave neighs/atom = 0.324281
Neighbor list builds = 0
Dangerous builds = 0
Setting up run at Wed Dec 28 06:00:27 2022

Memory usage per processor = 964.609 Mbytes
    Step    Atoms         KinEng            CPU 
       2     4382  2.5286639e-06              0 
  308643     4382  0.00030849076       3167.431 
Loop time of 3167.43 on 40 procs for 308641 steps with 4382 atoms, finish time Wed Dec 28 06:53:14 2022


Pair  time (%) = 1.28359 (0.0405247)
Neigh time (%) = 4.27966 (0.135114)
Comm  time (%) = 4.19166 (0.132336)
Outpt time (%) = 0.000349865 (1.10457e-05)
Other time (%) = 3157.68 (99.692)

Nlocal:    109.55 ave 1780 max 0 min
Histogram: 36 0 2 0 0 0 0 0 0 2
Nghost:    28.15 ave 360 max 0 min
Histogram: 36 0 0 0 0 1 1 0 0 2
Neighs:    39.35 ave 668 max 0 min
Histogram: 36 0 2 0 0 0 0 0 0 2

Total # of neighbors = 1574
Ave neighs/atom = 0.359197
Neighbor list builds = 1630
Dangerous builds = 0
Setting up run at Wed Dec 28 06:53:14 2022

Memory usage per processor = 964.609 Mbytes
    Step    Atoms         KinEng            CPU 
  308643     4382  0.00030849076              0 
  617284     4380  0.00035966076      3141.2306 
Loop time of 3141.23 on 40 procs for 308641 steps with 4380 atoms, finish time Wed Dec 28 07:45:36 2022


Pair  time (%) = 1.3133 (0.0418084)
Neigh time (%) = 3.31342 (0.105482)
Comm  time (%) = 4.3531 (0.138579)
Outpt time (%) = 0.000637715 (2.03014e-05)
Other time (%) = 3132.25 (99.7141)

Nlocal:    109.5 ave 1746 max 0 min
Histogram: 36 0 2 0 0 0 0 0 0 2
Nghost:    26.625 ave 327 max 0 min
Histogram: 36 0 0 0 0 0 2 0 0 2
Neighs:    41.175 ave 673 max 0 min
Histogram: 36 0 2 0 0 0 0 0 0 2

Total # of neighbors = 1647
Ave neighs/atom = 0.376027
Neighbor list builds = 1267
Dangerous builds = 0
Setting up run at Wed Dec 28 07:45:36 2022

Memory usage per processor = 964.609 Mbytes
    Step    Atoms         KinEng            CPU 
  617284     4380  0.00035966076              0 
  925925     4374   0.0010742731      3219.7317 
Loop time of 3219.73 on 40 procs for 308641 steps with 4374 atoms, finish time Wed Dec 28 08:39:16 2022


Pair  time (%) = 1.3252 (0.0411586)
Neigh time (%) = 15.7237 (0.488353)
Comm  time (%) = 9.56357 (0.29703)
Outpt time (%) = 0.000700306 (2.17505e-05)
Other time (%) = 3193.12 (99.1734)

Nlocal:    109.35 ave 1729 max 0 min
Histogram: 36 0 2 0 0 0 0 0 0 2
Nghost:    24.525 ave 304 max 0 min
Histogram: 36 0 0 0 0 1 1 0 0 2
Neighs:    40.525 ave 658 max 0 min
Histogram: 36 0 2 0 0 0 0 0 0 2

Total # of neighbors = 1621
Ave neighs/atom = 0.370599
Neighbor list builds = 5789
Dangerous builds = 10
Setting up run at Wed Dec 28 08:39:16 2022

Memory usage per processor = 964.609 Mbytes
    Step    Atoms         KinEng            CPU 
  925925     4374   0.0010742731              0 
 1234566     4368    0.021154755      3359.7867 
Loop time of 3359.79 on 40 procs for 308641 steps with 4368 atoms, finish time Wed Dec 28 09:35:16 2022


Pair  time (%) = 1.32962 (0.0395744)
Neigh time (%) = 46.0905 (1.37183)
Comm  time (%) = 21.7518 (0.647417)
Outpt time (%) = 0.000680573 (2.02564e-05)
Other time (%) = 3290.61 (97.9412)

Nlocal:    109.2 ave 1704 max 0 min
Histogram: 36 0 2 0 0 0 0 0 0 2
Nghost:    23.7 ave 294 max 0 min
Histogram: 36 0 0 0 0 1 1 0 0 2
Neighs:    37.925 ave 630 max 0 min
Histogram: 36 1 1 0 0 0 0 0 0 2

Total # of neighbors = 1517
Ave neighs/atom = 0.347299
Neighbor list builds = 16897
Dangerous builds = 256
Setting up run at Wed Dec 28 09:35:16 2022

Memory usage per processor = 964.609 Mbytes
    Step    Atoms         KinEng            CPU 
 1234566     4368    0.021154755              0 
 1543207     4351    0.069228373      3517.1236 
Loop time of 3517.12 on 40 procs for 308641 steps with 4351 atoms, finish time Wed Dec 28 10:33:53 2022


Pair  time (%) = 1.35042 (0.0383957)
Neigh time (%) = 76.4869 (2.1747)
Comm  time (%) = 39.1338 (1.11266)
Outpt time (%) = 0.00688216 (0.000195676)
Other time (%) = 3400.15 (96.674)

Nlocal:    108.775 ave 1666 max 0 min
Histogram: 36 0 2 0 0 0 0 0 0 2
Nghost:    23.1 ave 300 max 0 min
Histogram: 36 0 0 0 0 2 0 0 0 2
Neighs:    38.675 ave 638 max 0 min
Histogram: 36 0 2 0 0 0 0 0 0 2

Total # of neighbors = 1547
Ave neighs/atom = 0.35555
Neighbor list builds = 27999
Dangerous builds = 4097
Setting up run at Wed Dec 28 10:33:53 2022

Memory usage per processor = 964.609 Mbytes
    Step    Atoms         KinEng            CPU 
 1543207     4351    0.069228373              0 
 1851848     4339    0.078867959      3711.6345 
Loop time of 3711.63 on 40 procs for 308641 steps with 4339 atoms, finish time Wed Dec 28 11:35:45 2022


Pair  time (%) = 1.37831 (0.0371349)
Neigh time (%) = 116.124 (3.12864)
Comm  time (%) = 63.9206 (1.72217)
Outpt time (%) = 0.000694059 (1.86995e-05)
Other time (%) = 3530.21 (95.112)

Nlocal:    108.475 ave 1648 max 0 min
Histogram: 36 0 2 0 0 0 0 0 0 2
Nghost:    22.975 ave 294 max 0 min
Histogram: 36 0 0 0 0 2 0 0 0 2
Neighs:    38.7 ave 633 max 0 min
Histogram: 36 1 1 0 0 0 0 0 0 2

Total # of neighbors = 1548
Ave neighs/atom = 0.356764
Neighbor list builds = 42497
Dangerous builds = 2441
Setting up run at Wed Dec 28 11:35:45 2022

Memory usage per processor = 964.609 Mbytes
    Step    Atoms         KinEng            CPU 
 1851848     4339    0.078867959              0 
 2160489     4321    0.059535171      3683.5078 
Loop time of 3683.57 on 40 procs for 308641 steps with 4321 atoms, finish time Wed Dec 28 12:37:08 2022


Pair  time (%) = 1.34006 (0.0363795)
Neigh time (%) = 98.4545 (2.6728)
Comm  time (%) = 67.932 (1.84419)
Outpt time (%) = 0.000679088 (1.84356e-05)
Other time (%) = 3515.85 (95.4466)

Nlocal:    108.025 ave 1639 max 0 min
Histogram: 36 0 2 0 0 0 0 0 0 2
Nghost:    22.4 ave 275 max 0 min
Histogram: 36 0 0 0 0 1 1 0 0 2
Neighs:    36.5 ave 616 max 0 min
Histogram: 36 0 2 0 0 0 0 0 0 2

Total # of neighbors = 1460
Ave neighs/atom = 0.337885
Neighbor list builds = 35995
Dangerous builds = 3286
Setting up run at Wed Dec 28 12:37:09 2022

Memory usage per processor = 964.609 Mbytes
    Step    Atoms         KinEng            CPU 
 2160489     4321    0.059535171              0 
 2469130     4308     0.24456642      3558.0157 
Loop time of 3558.02 on 40 procs for 308641 steps with 4308 atoms, finish time Wed Dec 28 13:36:27 2022


Pair  time (%) = 1.32149 (0.0371413)
Neigh time (%) = 82.9078 (2.33017)
Comm  time (%) = 60.453 (1.69907)
Outpt time (%) = 0.000639578 (1.79757e-05)
Other time (%) = 3413.33 (95.9336)

Nlocal:    107.7 ave 1631 max 0 min
Histogram: 36 0 2 0 0 0 0 0 0 2
Nghost:    22.25 ave 281 max 0 min
Histogram: 36 0 0 0 0 2 0 0 0 2
Neighs:    36.475 ave 610 max 0 min
Histogram: 36 1 1 0 0 0 0 0 0 2

Total # of neighbors = 1459
Ave neighs/atom = 0.338672
Neighbor list builds = 30234
Dangerous builds = 1188
Setting up run at Wed Dec 28 13:36:27 2022

Memory usage per processor = 964.609 Mbytes
    Step    Atoms         KinEng            CPU 
 2469130     4308     0.24456642              0 
 2777771     4279     0.25725476      3797.3764 
Loop time of 3797.38 on 40 procs for 308641 steps with 4279 atoms, finish time Wed Dec 28 14:39:44 2022


Pair  time (%) = 1.33388 (0.0351263)
Neigh time (%) = 108.233 (2.85019)
Comm  time (%) = 81.7095 (2.15174)
Outpt time (%) = 0.000702343 (1.84955e-05)
Other time (%) = 3606.1 (94.9629)

Nlocal:    106.975 ave 1639 max 0 min
Histogram: 36 0 2 0 0 0 0 0 0 2
Nghost:    21.875 ave 264 max 0 min
Histogram: 36 0 0 0 0 0 2 0 0 2
Neighs:    35.5 ave 602 max 0 min
Histogram: 36 0 2 0 0 0 0 0 0 2

Total # of neighbors = 1420
Ave neighs/atom = 0.331853
Neighbor list builds = 39471
Dangerous builds = 3975
Setting up run at Wed Dec 28 14:39:44 2022

Memory usage per processor = 964.609 Mbytes
    Step    Atoms         KinEng            CPU 
 2777771     4279     0.25725476              0 
 3086412     4251     0.20420903      3697.2435 
Loop time of 3697.24 on 40 procs for 308641 steps with 4251 atoms, finish time Wed Dec 28 15:41:21 2022


Pair  time (%) = 1.33218 (0.0360318)
Neigh time (%) = 111.343 (3.01151)
Comm  time (%) = 82.5344 (2.23232)
Outpt time (%) = 0.000693754 (1.87641e-05)
Other time (%) = 3502.03 (94.7201)

Nlocal:    106.275 ave 1614 max 0 min
Histogram: 36 0 2 0 0 0 0 0 0 2
Nghost:    21.95 ave 278 max 0 min
Histogram: 36 0 0 0 0 1 1 0 0 2
Neighs:    35.275 ave 606 max 0 min
Histogram: 36 0 2 0 0 0 0 0 1 1

Total # of neighbors = 1411
Ave neighs/atom = 0.331922
Neighbor list builds = 40623
Dangerous builds = 1949
Setting up run at Wed Dec 28 15:41:21 2022

Memory usage per processor = 964.609 Mbytes
    Step    Atoms         KinEng            CPU 
 3086412     4251     0.20420903              0 
 3395053     4226      7.0515415      3965.8874 
Loop time of 3965.89 on 40 procs for 308641 steps with 4226 atoms, finish time Wed Dec 28 16:47:27 2022


Pair  time (%) = 1.35589 (0.0341887)
Neigh time (%) = 166.072 (4.1875)
Comm  time (%) = 146.952 (3.70539)
Outpt time (%) = 0.00685844 (0.000172936)
Other time (%) = 3651.5 (92.0727)

Nlocal:    105.65 ave 1592 max 0 min
Histogram: 36 0 2 0 0 0 0 0 0 2
Nghost:    21.325 ave 267 max 0 min
Histogram: 36 0 0 0 0 1 1 0 0 2
Neighs:    34.175 ave 612 max 0 min
Histogram: 36 0 2 0 0 0 0 1 0 1

Total # of neighbors = 1367
Ave neighs/atom = 0.323474
Neighbor list builds = 60597
Dangerous builds = 6804
Setting up run at Wed Dec 28 16:47:27 2022

Memory usage per processor = 964.609 Mbytes
    Step    Atoms         KinEng            CPU 
 3395053     4226      7.0515415              0 
 3703694     4183      0.3632465      4095.0713 
Loop time of 4095.08 on 40 procs for 308641 steps with 4183 atoms, finish time Wed Dec 28 17:55:43 2022


Pair  time (%) = 1.33197 (0.0325261)
Neigh time (%) = 168.003 (4.10256)
Comm  time (%) = 146.821 (3.58529)
Outpt time (%) = 0.0172435 (0.000421078)
Other time (%) = 3778.91 (92.2792)

Nlocal:    104.575 ave 1569 max 0 min
Histogram: 36 0 2 0 0 0 0 0 0 2
Nghost:    19.925 ave 244 max 0 min
Histogram: 36 0 0 0 0 1 1 0 0 2
Neighs:    30.95 ave 544 max 0 min
Histogram: 36 0 2 0 0 0 0 1 0 1

Total # of neighbors = 1238
Ave neighs/atom = 0.29596
Neighbor list builds = 61301
Dangerous builds = 3535
Setting up run at Wed Dec 28 17:55:43 2022

Memory usage per processor = 964.609 Mbytes
    Step    Atoms         KinEng            CPU 
 3703694     4183      0.3632465              0 
 4012335     4142      0.4296882      3930.1604 
Loop time of 3930.17 on 40 procs for 308641 steps with 4142 atoms, finish time Wed Dec 28 19:01:13 2022


Pair  time (%) = 1.28124 (0.0326001)
Neigh time (%) = 149.428 (3.80207)
Comm  time (%) = 141.03 (3.58839)
Outpt time (%) = 0.000615447 (1.56595e-05)
Other time (%) = 3638.43 (92.5769)

Nlocal:    103.55 ave 1551 max 0 min
Histogram: 36 0 2 0 0 0 0 0 0 2
Nghost:    18.65 ave 224 max 0 min
Histogram: 36 0 0 0 0 1 1 0 0 2
Neighs:    29.975 ave 522 max 0 min
Histogram: 36 0 2 0 0 0 0 1 0 1

Total # of neighbors = 1199
Ave neighs/atom = 0.289474
Neighbor list builds = 54440
Dangerous builds = 5380
Setting up run at Wed Dec 28 19:01:13 2022

Memory usage per processor = 964.609 Mbytes
    Step    Atoms         KinEng            CPU 
 4012335     4142      0.4296882              0 
 4320976     4095      2.1515671      3920.6902 
Loop time of 3920.69 on 40 procs for 308641 steps with 4095 atoms, finish time Wed Dec 28 20:06:34 2022


Pair  time (%) = 1.27459 (0.0325094)
Neigh time (%) = 152.106 (3.87957)
Comm  time (%) = 136.94 (3.49275)
Outpt time (%) = 0.000627372 (1.60016e-05)
Other time (%) = 3630.37 (92.5952)

Nlocal:    102.375 ave 1535 max 0 min
Histogram: 36 0 2 0 0 0 0 0 1 1
Nghost:    18.025 ave 217 max 0 min
Histogram: 36 0 0 0 0 1 1 0 0 2
Neighs:    27.95 ave 523 max 0 min
Histogram: 36 0 2 0 0 0 1 0 0 1

Total # of neighbors = 1118
Ave neighs/atom = 0.273016
Neighbor list builds = 55334
Dangerous builds = 5096
Setting up run at Wed Dec 28 20:06:34 2022

Memory usage per processor = 964.609 Mbytes
    Step    Atoms         KinEng            CPU 
 4320976     4095      2.1515671              0 
 4629617     4039     0.44745134      3836.9365 
Loop time of 3836.94 on 40 procs for 308641 steps with 4039 atoms, finish time Wed Dec 28 21:10:31 2022


Pair  time (%) = 1.24349 (0.0324084)
Neigh time (%) = 145.276 (3.78626)
Comm  time (%) = 136.061 (3.54608)
Outpt time (%) = 0.000603708 (1.57341e-05)
Other time (%) = 3554.36 (92.6352)

Nlocal:    100.975 ave 1512 max 0 min
Histogram: 36 0 2 0 0 0 0 0 1 1
Nghost:    17.5 ave 207 max 0 min
Histogram: 36 0 0 0 0 1 1 0 0 2
Neighs:    27.625 ave 551 max 0 min
Histogram: 36 1 1 0 0 0 1 0 0 1

Total # of neighbors = 1105
Ave neighs/atom = 0.273583
Neighbor list builds = 52858
Dangerous builds = 11157
Setting up run at Wed Dec 28 21:10:31 2022

Memory usage per processor = 964.609 Mbytes
    Step    Atoms         KinEng            CPU 
 4629617     4039     0.44745134              0 
 4938258     3973     0.72731212       3804.471 
Loop time of 3804.47 on 40 procs for 308641 steps with 3973 atoms, finish time Wed Dec 28 22:13:55 2022


Pair  time (%) = 1.18738 (0.0312102)
Neigh time (%) = 136.946 (3.5996)
Comm  time (%) = 143.882 (3.78192)
Outpt time (%) = 0.000639106 (1.67988e-05)
Other time (%) = 3522.46 (92.5873)

Nlocal:    99.325 ave 1490 max 0 min
Histogram: 36 0 2 0 0 0 0 0 1 1
Nghost:    17.575 ave 203 max 0 min
Histogram: 36 0 0 0 0 0 2 0 0 2
Neighs:    26.425 ave 504 max 0 min
Histogram: 36 1 1 0 0 0 1 0 0 1

Total # of neighbors = 1057
Ave neighs/atom = 0.266046
Neighbor list builds = 49809
Dangerous builds = 5426
Setting up run at Wed Dec 28 22:13:55 2022

Memory usage per processor = 964.609 Mbytes
    Step    Atoms         KinEng            CPU 
 4938258     3973     0.72731212              0 
 5246899     3916     0.73189722      3848.7018 
Loop time of 3848.7 on 40 procs for 308641 steps with 3916 atoms, finish time Wed Dec 28 23:18:04 2022


Pair  time (%) = 1.17683 (0.0305774)
Neigh time (%) = 152.191 (3.95434)
Comm  time (%) = 157.887 (4.10235)
Outpt time (%) = 0.00657318 (0.00017079)
Other time (%) = 3537.44 (91.9126)

Nlocal:    97.9 ave 1453 max 0 min
Histogram: 36 0 2 0 0 0 0 0 1 1
Nghost:    18.075 ave 206 max 0 min
Histogram: 36 0 0 0 0 1 0 1 0 2
Neighs:    25.725 ave 481 max 0 min
Histogram: 36 1 1 0 0 0 0 1 0 1

Total # of neighbors = 1029
Ave neighs/atom = 0.262768
Neighbor list builds = 55336
Dangerous builds = 6070
Setting up run at Wed Dec 28 23:18:04 2022

Memory usage per processor = 964.609 Mbytes
    Step    Atoms         KinEng            CPU 
 5246899     3916     0.73189722              0 
 5555540     3837     0.56495205      3969.5577 
Loop time of 3969.56 on 40 procs for 308641 steps with 3837 atoms, finish time Thu Dec 29 00:24:14 2022


Pair  time (%) = 1.18494 (0.0298507)
Neigh time (%) = 178.181 (4.48868)
Comm  time (%) = 183.222 (4.61567)
Outpt time (%) = 0.000636641 (1.60381e-05)
Other time (%) = 3606.97 (90.8658)

Nlocal:    95.925 ave 1401 max 0 min
Histogram: 36 0 2 0 0 0 0 0 1 1
Nghost:    16.775 ave 195 max 0 min
Histogram: 36 0 0 0 0 1 0 1 0 2
Neighs:    23.925 ave 428 max 0 min
Histogram: 36 0 2 0 0 0 0 1 0 1

Total # of neighbors = 957
Ave neighs/atom = 0.249414
Neighbor list builds = 64761
Dangerous builds = 9719
Setting up run at Thu Dec 29 00:24:14 2022

Memory usage per processor = 964.609 Mbytes
    Step    Atoms         KinEng            CPU 
 5555540     3837     0.56495205              0 
 5864181     3790      1.9028429      3801.9864 
Loop time of 3801.99 on 40 procs for 308641 steps with 3790 atoms, finish time Thu Dec 29 01:27:36 2022


Pair  time (%) = 1.14267 (0.0300547)
Neigh time (%) = 145.215 (3.81944)
Comm  time (%) = 155.101 (4.07946)
Outpt time (%) = 0.000566798 (1.4908e-05)
Other time (%) = 3500.53 (92.071)

Nlocal:    94.75 ave 1353 max 0 min
Histogram: 36 0 2 0 0 0 0 0 1 1
Nghost:    16.175 ave 200 max 0 min
Histogram: 36 0 0 0 0 1 1 0 0 2
Neighs:    23.625 ave 392 max 0 min
Histogram: 36 0 2 0 0 0 0 0 1 1

Total # of neighbors = 945
Ave neighs/atom = 0.24934
Neighbor list builds = 52738
Dangerous builds = 5290
Setting up run at Thu Dec 29 01:27:36 2022

Memory usage per processor = 964.609 Mbytes
    Step    Atoms         KinEng            CPU 
 5864181     3790      1.9028429              0 
 6172822     3710     0.69473725      3875.6472 
Loop time of 3875.65 on 40 procs for 308641 steps with 3710 atoms, finish time Thu Dec 29 02:32:12 2022


Pair  time (%) = 1.14365 (0.0295086)
Neigh time (%) = 159.648 (4.11926)
Comm  time (%) = 176.847 (4.56304)
Outpt time (%) = 0.000589246 (1.52038e-05)
Other time (%) = 3538.01 (91.2882)

Nlocal:    92.75 ave 1343 max 0 min
Histogram: 36 0 2 0 0 0 0 0 1 1
Nghost:    14.775 ave 177 max 0 min
Histogram: 36 0 0 0 0 1 1 0 0 2
Neighs:    19.625 ave 390 max 0 min
Histogram: 36 1 1 0 0 1 0 0 0 1

Total # of neighbors = 785
Ave neighs/atom = 0.21159
Neighbor list builds = 57972
Dangerous builds = 10379
Setting up run at Thu Dec 29 02:32:12 2022

Memory usage per processor = 964.609 Mbytes
    Step    Atoms         KinEng            CPU 
 6172822     3710     0.69473725              0 
 6481463     3620     0.66731908      4007.4886 
Loop time of 4007.49 on 40 procs for 308641 steps with 3620 atoms, finish time Thu Dec 29 03:38:59 2022


Pair  time (%) = 1.12354 (0.0280361)
Neigh time (%) = 188.396 (4.7011)
Comm  time (%) = 210.864 (5.26175)
Outpt time (%) = 0.00059965 (1.49632e-05)
Other time (%) = 3607.1 (90.0091)

Nlocal:    90.5 ave 1396 max 0 min
Histogram: 36 0 2 0 0 0 0 1 0 1
Nghost:    15.1 ave 192 max 0 min
Histogram: 36 0 0 0 1 0 0 1 1 1
Neighs:    16.65 ave 372 max 0 min
Histogram: 36 1 1 1 0 0 0 0 0 1

Total # of neighbors = 666
Ave neighs/atom = 0.183978
Neighbor list builds = 68532
Dangerous builds = 12128
Setting up run at Thu Dec 29 03:38:59 2022

Memory usage per processor = 964.609 Mbytes
    Step    Atoms         KinEng            CPU 
 6481463     3620     0.66731908              0 
 6790104     3532     0.66159401      4034.6532 
Loop time of 4034.65 on 40 procs for 308641 steps with 3532 atoms, finish time Thu Dec 29 04:46:14 2022


Pair  time (%) = 1.09701 (0.0271896)
Neigh time (%) = 192.822 (4.77914)
Comm  time (%) = 221.573 (5.49174)
Outpt time (%) = 0.00058441 (1.44848e-05)
Other time (%) = 3619.16 (89.7019)

Nlocal:    88.3 ave 1368 max 0 min
Histogram: 34 2 2 0 0 0 1 0 0 1
Nghost:    14.7 ave 196 max 0 min
Histogram: 36 0 0 1 0 0 1 1 0 1
Neighs:    13.925 ave 298 max 0 min
Histogram: 36 1 1 0 1 0 0 0 0 1

Total # of neighbors = 557
Ave neighs/atom = 0.157701
Neighbor list builds = 70100
Dangerous builds = 12219
Setting up run at Thu Dec 29 04:46:14 2022

Memory usage per processor = 964.609 Mbytes
    Step    Atoms         KinEng            CPU 
 6790104     3532     0.66159401              0 
 7098745     3442      1.1784522      4012.9309 
Loop time of 4012.94 on 40 procs for 308641 steps with 3442 atoms, finish time Thu Dec 29 05:53:07 2022


Pair  time (%) = 1.0639 (0.0265118)
Neigh time (%) = 189.309 (4.71746)
Comm  time (%) = 231.071 (5.75815)
Outpt time (%) = 0.00064021 (1.59536e-05)
Other time (%) = 3591.49 (89.4979)

Nlocal:    86.05 ave 1287 max 0 min
Histogram: 35 1 1 1 0 0 1 0 0 1
Nghost:    14.75 ave 181 max 0 min
Histogram: 36 0 0 0 1 0 0 1 1 1
Neighs:    11.4 ave 225 max 0 min
Histogram: 36 1 1 0 0 0 1 0 0 1

Total # of neighbors = 456
Ave neighs/atom = 0.132481
Neighbor list builds = 68736
Dangerous builds = 8489
Setting up run at Thu Dec 29 05:53:07 2022

Memory usage per processor = 964.609 Mbytes
    Step    Atoms         KinEng            CPU 
 7098745     3442      1.1784522              0 
 7407386     3344      2.7782768      4086.5483 
Loop time of 4086.55 on 40 procs for 308641 steps with 3344 atoms, finish time Thu Dec 29 07:01:14 2022


Pair  time (%) = 1.03484 (0.0253231)
Neigh time (%) = 205.616 (5.03153)
Comm  time (%) = 253.739 (6.20914)
Outpt time (%) = 0.00610145 (0.000149306)
Other time (%) = 3626.15 (88.7339)

Nlocal:    83.6 ave 1207 max 0 min
Histogram: 33 3 1 1 0 0 1 0 0 1
Nghost:    12.95 ave 161 max 0 min
Histogram: 36 0 0 0 1 0 1 0 1 1
Neighs:    8.275 ave 187 max 0 min
Histogram: 37 1 0 1 0 0 0 0 0 1

Total # of neighbors = 331
Ave neighs/atom = 0.0989833
Neighbor list builds = 74548
Dangerous builds = 10434
Setting up run at Thu Dec 29 07:01:14 2022

Memory usage per processor = 964.609 Mbytes
    Step    Atoms         KinEng            CPU 
 7407386     3344      2.7782768              0 
 7716027     3245     0.85444124      4379.6691 
Loop time of 4379.67 on 40 procs for 308641 steps with 3245 atoms, finish time Thu Dec 29 08:14:13 2022


Pair  time (%) = 1.04448 (0.0238485)
Neigh time (%) = 270.867 (6.18464)
Comm  time (%) = 344.756 (7.87174)
Outpt time (%) = 0.000565376 (1.29091e-05)
Other time (%) = 3763 (85.9198)

Nlocal:    81.125 ave 1171 max 0 min
Histogram: 33 3 1 1 0 1 0 0 0 1
Nghost:    12.225 ave 139 max 0 min
Histogram: 36 0 0 0 1 0 1 0 0 2
Neighs:    6.75 ave 145 max 0 min
Histogram: 36 2 0 0 1 0 0 0 0 1

Total # of neighbors = 270
Ave neighs/atom = 0.0832049
Neighbor list builds = 98298
Dangerous builds = 12296
Setting up run at Thu Dec 29 08:14:14 2022

Memory usage per processor = 964.609 Mbytes
    Step    Atoms         KinEng            CPU 
 7716027     3245     0.85444124              0 
 8024668     3128      1.0579065      4062.5616 
Loop time of 4062.56 on 40 procs for 308641 steps with 3128 atoms, finish time Thu Dec 29 09:21:56 2022


Pair  time (%) = 0.975259 (0.024006)
Neigh time (%) = 204.011 (5.02172)
Comm  time (%) = 245.514 (6.04333)
Outpt time (%) = 0.000560716 (1.3802e-05)
Other time (%) = 3612.06 (88.9109)

Nlocal:    78.2 ave 1097 max 0 min
Histogram: 33 3 1 1 0 1 0 0 0 1
Nghost:    10.375 ave 117 max 0 min
Histogram: 35 1 0 0 1 0 1 0 1 1
Neighs:    5.15 ave 117 max 0 min
Histogram: 36 2 1 0 0 0 0 0 0 1

Total # of neighbors = 206
Ave neighs/atom = 0.0658568
Neighbor list builds = 73901
Dangerous builds = 11813
Setting up run at Thu Dec 29 09:21:56 2022

Memory usage per processor = 964.609 Mbytes
    Step    Atoms         KinEng            CPU 
 8024668     3128      1.0579065              0 
 8333309     3020      1.2769825      3894.4102 
Loop time of 3894.41 on 40 procs for 308641 steps with 3020 atoms, finish time Thu Dec 29 10:26:51 2022


Pair  time (%) = 0.926948 (0.023802)
Neigh time (%) = 168.202 (4.31906)
Comm  time (%) = 205.322 (5.27222)
Outpt time (%) = 0.000554684 (1.42431e-05)
Other time (%) = 3519.96 (90.3849)

Nlocal:    75.5 ave 1019 max 0 min
Histogram: 32 4 2 0 0 0 1 0 0 1
Nghost:    9.625 ave 98 max 0 min
Histogram: 36 0 0 0 0 1 0 0 1 2
Neighs:    4.325 ave 86 max 0 min
Histogram: 35 2 1 1 0 0 0 0 0 1

Total # of neighbors = 173
Ave neighs/atom = 0.0572848
Neighbor list builds = 60854
Dangerous builds = 6667
Setting up run at Thu Dec 29 10:26:51 2022

Memory usage per processor = 964.609 Mbytes
    Step    Atoms         KinEng            CPU 
 8333309     3020      1.2769825              0 
 8641950     2906     0.89008071      3984.2443 
Loop time of 3984.24 on 40 procs for 308641 steps with 2906 atoms, finish time Thu Dec 29 11:33:15 2022


Pair  time (%) = 0.922952 (0.023165)
Neigh time (%) = 186.402 (4.67848)
Comm  time (%) = 230.28 (5.77978)
Outpt time (%) = 0.000702413 (1.76298e-05)
Other time (%) = 3566.64 (89.5186)

Nlocal:    72.65 ave 931 max 0 min
Histogram: 32 4 1 1 0 0 1 0 0 1
Nghost:    9.4 ave 97 max 0 min
Histogram: 35 1 0 0 0 0 1 0 2 1
Neighs:    3.55 ave 66 max 0 min
Histogram: 35 1 2 1 0 0 0 0 0 1

Total # of neighbors = 142
Ave neighs/atom = 0.0488644
Neighbor list builds = 67553
Dangerous builds = 6915
Setting up run at Thu Dec 29 11:33:15 2022

Memory usage per processor = 964.609 Mbytes
    Step    Atoms         KinEng            CPU 
 8641950     2906     0.89008071              0 
 8950591     2782     0.82051083       4418.695 
Loop time of 4418.7 on 40 procs for 308641 steps with 2782 atoms, finish time Thu Dec 29 12:46:54 2022


Pair  time (%) = 0.961662 (0.0217635)
Neigh time (%) = 283.608 (6.41837)
Comm  time (%) = 355.23 (8.03925)
Outpt time (%) = 0.000581963 (1.31705e-05)
Other time (%) = 3778.9 (85.5206)

Nlocal:    69.55 ave 856 max 0 min
Histogram: 32 4 1 1 0 0 0 1 0 1
Nghost:    8.675 ave 98 max 0 min
Histogram: 36 0 0 0 1 0 1 1 0 1
Neighs:    3.125 ave 58 max 0 min
Histogram: 34 3 0 2 0 0 0 0 0 1

Total # of neighbors = 125
Ave neighs/atom = 0.0449317
Neighbor list builds = 103025
Dangerous builds = 27266
Setting up run at Thu Dec 29 12:46:54 2022

Memory usage per processor = 964.609 Mbytes
    Step    Atoms         KinEng            CPU 
 8950591     2782     0.82051083              0 
 9259232     2669      15.643113      4025.2951 
Loop time of 4025.3 on 40 procs for 308641 steps with 2669 atoms, finish time Thu Dec 29 13:54:00 2022


Pair  time (%) = 0.892236 (0.0221657)
Neigh time (%) = 202.267 (5.02489)
Comm  time (%) = 245.699 (6.10386)
Outpt time (%) = 0.00637214 (0.000158302)
Other time (%) = 3576.43 (88.8489)

Nlocal:    66.725 ave 806 max 0 min
Histogram: 32 3 2 1 0 0 0 1 0 1
Nghost:    7.825 ave 84 max 0 min
Histogram: 35 1 0 0 0 1 0 2 0 1
Neighs:    2.8 ave 46 max 0 min
Histogram: 35 1 1 1 1 0 0 0 0 1

Total # of neighbors = 112
Ave neighs/atom = 0.0419633
Neighbor list builds = 73381
Dangerous builds = 10782
Setting up run at Thu Dec 29 13:54:00 2022

Memory usage per processor = 964.609 Mbytes
    Step    Atoms         KinEng            CPU 
 9259232     2669      15.643113              0 
 9567873     2540     0.81711519      4498.9307 
Loop time of 4498.93 on 40 procs for 308641 steps with 2540 atoms, finish time Thu Dec 29 15:08:59 2022


Pair  time (%) = 0.973862 (0.0216465)
Neigh time (%) = 307.018 (6.82424)
Comm  time (%) = 371.167 (8.25012)
Outpt time (%) = 0.000563522 (1.25257e-05)
Other time (%) = 3819.77 (84.904)

Nlocal:    63.5 ave 739 max 0 min
Histogram: 32 3 2 1 0 0 0 1 0 1
Nghost:    8.05 ave 89 max 0 min
Histogram: 36 0 0 0 1 0 0 1 1 1
Neighs:    2.675 ave 36 max 0 min
Histogram: 34 2 0 1 0 2 0 0 0 1

Total # of neighbors = 107
Ave neighs/atom = 0.042126
Neighbor list builds = 111641
Dangerous builds = 71523
Setting up run at Thu Dec 29 15:08:59 2022

Memory usage per processor = 964.609 Mbytes
    Step    Atoms         KinEng            CPU 
 9567873     2540     0.81711519              0 
 9876514     2434      1.0535056      3891.8244 
Loop time of 3891.82 on 40 procs for 308641 steps with 2434 atoms, finish time Thu Dec 29 16:13:51 2022


Pair  time (%) = 0.8526 (0.0219075)
Neigh time (%) = 174.33 (4.47939)
Comm  time (%) = 209.098 (5.37276)
Outpt time (%) = 0.000586696 (1.50751e-05)
Other time (%) = 3507.54 (90.1259)

Nlocal:    60.85 ave 676 max 0 min
Histogram: 32 2 3 1 0 0 0 0 1 1
Nghost:    7.625 ave 78 max 0 min
Histogram: 33 3 0 0 1 0 0 1 0 2
Neighs:    2.25 ave 29 max 0 min
Histogram: 32 3 1 1 1 0 1 0 0 1

Total # of neighbors = 90
Ave neighs/atom = 0.0369762
Neighbor list builds = 63224
Dangerous builds = 7253
Setting up run at Thu Dec 29 16:13:51 2022

Memory usage per processor = 964.609 Mbytes
    Step    Atoms         KinEng            CPU 
 9876514     2434      1.0535056              0 
10185155     2301      1.0858167      4086.0332 
Loop time of 4086.03 on 40 procs for 308641 steps with 2301 atoms, finish time Thu Dec 29 17:21:57 2022


Pair  time (%) = 0.858912 (0.0210207)
Neigh time (%) = 215.186 (5.26638)
Comm  time (%) = 266.014 (6.51033)
Outpt time (%) = 0.00604483 (0.000147939)
Other time (%) = 3603.97 (88.2021)

Nlocal:    57.525 ave 625 max 0 min
Histogram: 32 2 2 2 0 0 0 0 1 1
Nghost:    7.55 ave 81 max 0 min
Histogram: 35 1 0 0 1 0 1 0 0 2
Neighs:    2.05 ave 31 max 0 min
Histogram: 33 4 0 1 0 0 1 0 0 1

Total # of neighbors = 82
Ave neighs/atom = 0.0356367
Neighbor list builds = 78112
Dangerous builds = 14255
Setting up run at Thu Dec 29 17:21:57 2022

Memory usage per processor = 964.609 Mbytes
    Step    Atoms         KinEng            CPU 
10185155     2301      1.0858167              0 
10493796     2190      2.6668314      3940.7648 
Loop time of 3940.77 on 40 procs for 308641 steps with 2190 atoms, finish time Thu Dec 29 18:27:38 2022


Pair  time (%) = 0.829341 (0.0210452)
Neigh time (%) = 184.85 (4.6907)
Comm  time (%) = 222.235 (5.63939)
Outpt time (%) = 0.000579593 (1.47076e-05)
Other time (%) = 3532.85 (89.6488)

Nlocal:    54.75 ave 579 max 0 min
Histogram: 32 0 4 2 0 0 0 0 1 1
Nghost:    6.25 ave 68 max 0 min
Histogram: 34 2 0 1 0 0 1 0 0 2
Neighs:    1.225 ave 18 max 0 min
Histogram: 35 2 0 1 0 0 0 0 0 2

Total # of neighbors = 49
Ave neighs/atom = 0.0223744
Neighbor list builds = 67175
Dangerous builds = 9344
Setting up run at Thu Dec 29 18:27:38 2022

Memory usage per processor = 964.609 Mbytes
    Step    Atoms         KinEng            CPU 
10493796     2190      2.6668314              0 
10802437     2087     0.80127268      3924.7735 
Loop time of 3924.78 on 40 procs for 308641 steps with 2087 atoms, finish time Thu Dec 29 19:33:03 2022


Pair  time (%) = 0.812363 (0.0206983)
Neigh time (%) = 171.86 (4.37884)
Comm  time (%) = 201.95 (5.1455)
Outpt time (%) = 0.000574034 (1.46259e-05)
Other time (%) = 3550.16 (90.455)

Nlocal:    52.175 ave 545 max 0 min
Histogram: 31 2 3 2 0 0 0 0 1 1
Nghost:    6.675 ave 73 max 0 min
Histogram: 36 0 0 0 1 0 1 0 1 1
Neighs:    1.225 ave 16 max 0 min
Histogram: 34 2 0 1 0 1 1 0 0 1

Total # of neighbors = 49
Ave neighs/atom = 0.0234787
Neighbor list builds = 62380
Dangerous builds = 5716
Setting up run at Thu Dec 29 19:33:03 2022

Memory usage per processor = 964.609 Mbytes
    Step    Atoms         KinEng            CPU 
10802437     2087     0.80127268              0 
11111078     2004     0.92803141      3773.5186 
Loop time of 3773.52 on 40 procs for 308641 steps with 2004 atoms, finish time Thu Dec 29 20:35:56 2022


Pair  time (%) = 0.792347 (0.0209976)
Neigh time (%) = 149.25 (3.95518)
Comm  time (%) = 174.62 (4.62752)
Outpt time (%) = 0.000568417 (1.50633e-05)
Other time (%) = 3448.86 (91.3963)

Nlocal:    50.1 ave 490 max 0 min
Histogram: 30 2 4 2 0 0 0 0 0 2
Nghost:    6.325 ave 73 max 0 min
Histogram: 36 0 0 0 0 2 0 1 0 1
Neighs:    1.475 ave 18 max 0 min
Histogram: 33 2 1 1 0 1 0 0 1 1

Total # of neighbors = 59
Ave neighs/atom = 0.0294411
Neighbor list builds = 54184
Dangerous builds = 3811
Setting up run at Thu Dec 29 20:35:56 2022

Memory usage per processor = 964.609 Mbytes
    Step    Atoms         KinEng            CPU 
11111078     2004     0.92803141              0 
11419719     1905      1.0022934      3985.7307 
Loop time of 3985.73 on 40 procs for 308641 steps with 1905 atoms, finish time Thu Dec 29 21:42:22 2022


Pair  time (%) = 0.817086 (0.0205003)
Neigh time (%) = 192.759 (4.83622)
Comm  time (%) = 207.449 (5.20479)
Outpt time (%) = 0.000572775 (1.43706e-05)
Other time (%) = 3584.71 (89.9385)

Nlocal:    47.625 ave 467 max 0 min
Histogram: 30 2 3 3 0 0 0 0 0 2
Nghost:    5.6 ave 59 max 0 min
Histogram: 35 1 0 0 0 0 1 1 1 1
Neighs:    0.875 ave 8 max 0 min
Histogram: 32 0 2 2 0 1 0 1 1 1

Total # of neighbors = 35
Ave neighs/atom = 0.0183727
Neighbor list builds = 70088
Dangerous builds = 12610
Setting up run at Thu Dec 29 21:42:22 2022

Memory usage per processor = 964.609 Mbytes
    Step    Atoms         KinEng            CPU 
11419719     1905      1.0022934              0 
11728360     1814     0.91875041      3867.5136 
Loop time of 3867.51 on 40 procs for 308641 steps with 1814 atoms, finish time Thu Dec 29 22:46:50 2022


Pair  time (%) = 0.796633 (0.0205981)
Neigh time (%) = 171.91 (4.44497)
Comm  time (%) = 178.215 (4.608)
Outpt time (%) = 0.000635548 (1.6433e-05)
Other time (%) = 3516.59 (90.9264)

Nlocal:    45.35 ave 438 max 0 min
Histogram: 30 2 4 1 1 0 0 0 0 2
Nghost:    5.475 ave 56 max 0 min
Histogram: 33 3 0 0 0 1 1 0 1 1
Neighs:    1.35 ave 13 max 0 min
Histogram: 33 0 2 1 0 1 0 1 1 1

Total # of neighbors = 54
Ave neighs/atom = 0.0297685
Neighbor list builds = 62492
Dangerous builds = 9971
Setting up run at Thu Dec 29 22:46:50 2022

Memory usage per processor = 964.609 Mbytes
    Step    Atoms         KinEng            CPU 
11728360     1814     0.91875041              0 
12037001     1733      1.0367094      3876.3526 
Loop time of 3876.35 on 40 procs for 308641 steps with 1733 atoms, finish time Thu Dec 29 23:51:26 2022


Pair  time (%) = 0.784666 (0.0202424)
Neigh time (%) = 170.723 (4.40422)
Comm  time (%) = 186.89 (4.82128)
Outpt time (%) = 0.000568756 (1.46725e-05)
Other time (%) = 3517.95 (90.7542)

Nlocal:    43.325 ave 417 max 0 min
Histogram: 31 1 4 2 0 0 0 0 0 2
Nghost:    5.4 ave 63 max 0 min
Histogram: 36 0 0 0 1 1 0 0 1 1
Neighs:    1.2 ave 13 max 0 min
Histogram: 32 1 2 2 0 1 0 0 1 1

Total # of neighbors = 48
Ave neighs/atom = 0.0276976
Neighbor list builds = 62099
Dangerous builds = 7528
Setting up run at Thu Dec 29 23:51:26 2022

Memory usage per processor = 964.609 Mbytes
    Step    Atoms         KinEng            CPU 
12037001     1733      1.0367094              0 
12345642     1652     0.78701836      3815.0757 
Loop time of 3815.08 on 40 procs for 308641 steps with 1652 atoms, finish time Fri Dec 30 00:55:01 2022


Pair  time (%) = 0.779143 (0.0204227)
Neigh time (%) = 155.926 (4.0871)
Comm  time (%) = 164.896 (4.32222)
Outpt time (%) = 0.000602943 (1.58042e-05)
Other time (%) = 3493.47 (91.5702)

Nlocal:    41.3 ave 395 max 0 min
Histogram: 31 1 2 4 0 0 0 0 0 2
Nghost:    5.3 ave 63 max 0 min
Histogram: 36 0 0 0 1 1 0 0 0 2
Neighs:    0.9 ave 9 max 0 min
Histogram: 32 1 2 0 1 1 1 1 0 1

Total # of neighbors = 36
Ave neighs/atom = 0.0217918
Neighbor list builds = 56770
Dangerous builds = 8058
Setting up run at Fri Dec 30 00:55:02 2022

Memory usage per processor = 964.609 Mbytes
    Step    Atoms         KinEng            CPU 
12345642     1652     0.78701836              0 
12654283     1575      0.7649698      3965.6393 
Loop time of 3965.64 on 40 procs for 308641 steps with 1575 atoms, finish time Fri Dec 30 02:01:07 2022


Pair  time (%) = 0.786586 (0.019835)
Neigh time (%) = 193.695 (4.88433)
Comm  time (%) = 200.778 (5.06295)
Outpt time (%) = 0.000522466 (1.31748e-05)
Other time (%) = 3570.38 (90.0329)

Nlocal:    39.375 ave 395 max 0 min
Histogram: 32 1 3 2 0 0 0 0 0 2
Nghost:    5.25 ave 65 max 0 min
Histogram: 36 0 0 0 1 1 0 1 0 1
Neighs:    0.75 ave 9 max 0 min
Histogram: 32 2 2 0 2 0 0 1 0 1

Total # of neighbors = 30
Ave neighs/atom = 0.0190476
Neighbor list builds = 70630
Dangerous builds = 11693
Setting up run at Fri Dec 30 02:01:07 2022

Memory usage per processor = 964.609 Mbytes
    Step    Atoms         KinEng            CPU 
12654283     1575      0.7649698              0 
12962924     1515     0.74510185      3789.1014 
Loop time of 3789.1 on 40 procs for 308641 steps with 1515 atoms, finish time Fri Dec 30 03:04:16 2022


Pair  time (%) = 0.754865 (0.019922)
Neigh time (%) = 155.092 (4.09311)
Comm  time (%) = 160.693 (4.24093)
Outpt time (%) = 0.000601975 (1.5887e-05)
Other time (%) = 3472.56 (91.646)

Nlocal:    37.875 ave 376 max 0 min
Histogram: 32 0 3 3 0 0 0 0 0 2
Nghost:    4.95 ave 64 max 0 min
Histogram: 36 0 0 1 0 1 0 1 0 1
Neighs:    0.925 ave 10 max 0 min
Histogram: 32 1 1 0 2 2 1 0 0 1

Total # of neighbors = 37
Ave neighs/atom = 0.0244224
Neighbor list builds = 56527
Dangerous builds = 5470
Setting up run at Fri Dec 30 03:04:17 2022

Memory usage per processor = 964.609 Mbytes
    Step    Atoms         KinEng            CPU 
12962924     1515     0.74510185              0 
13271565     1457      1.0063325      3758.1782 
Loop time of 3758.18 on 40 procs for 308641 steps with 1457 atoms, finish time Fri Dec 30 04:06:55 2022


Pair  time (%) = 0.741963 (0.0197426)
Neigh time (%) = 149.879 (3.98807)
Comm  time (%) = 160.929 (4.2821)
Outpt time (%) = 0.000587012 (1.56196e-05)
Other time (%) = 3446.63 (91.7101)

Nlocal:    36.425 ave 364 max 0 min
Histogram: 32 0 4 2 0 0 0 0 0 2
Nghost:    4.575 ave 46 max 0 min
Histogram: 32 4 0 0 0 1 1 0 0 2
Neighs:    0.7 ave 9 max 0 min
Histogram: 33 0 2 2 1 1 0 0 0 1

Total # of neighbors = 28
Ave neighs/atom = 0.0192176
Neighbor list builds = 54602
Dangerous builds = 6052
Setting up run at Fri Dec 30 04:06:55 2022

Memory usage per processor = 964.609 Mbytes
    Step    Atoms         KinEng            CPU 
13271565     1457      1.0063325              0 
13580206     1396     0.86566291      3737.6106 
Loop time of 3737.61 on 40 procs for 308641 steps with 1396 atoms, finish time Fri Dec 30 05:09:12 2022


Pair  time (%) = 0.748964 (0.0200386)
Neigh time (%) = 144.753 (3.87288)
Comm  time (%) = 128.804 (3.44617)
Outpt time (%) = 0.000493173 (1.31949e-05)
Other time (%) = 3463.3 (92.6609)

Nlocal:    34.9 ave 351 max 0 min
Histogram: 32 1 2 3 0 0 0 0 0 2
Nghost:    4.225 ave 46 max 0 min
Histogram: 35 1 0 1 0 0 0 1 1 1
Neighs:    0.575 ave 12 max 0 min
Histogram: 35 2 2 0 0 0 0 0 0 1

Total # of neighbors = 23
Ave neighs/atom = 0.0164756
Neighbor list builds = 52781
Dangerous builds = 6941
Setting up run at Fri Dec 30 05:09:12 2022

Memory usage per processor = 964.609 Mbytes
    Step    Atoms         KinEng            CPU 
13580206     1396     0.86566291              0 
13888847     1346     0.78529732      3730.0944 
Loop time of 3730.09 on 40 procs for 308641 steps with 1346 atoms, finish time Fri Dec 30 06:11:23 2022


Pair  time (%) = 0.74323 (0.0199252)
Neigh time (%) = 143.533 (3.84797)
Comm  time (%) = 138.808 (3.7213)
Outpt time (%) = 0.000656732 (1.76063e-05)
Other time (%) = 3447.01 (92.4108)

Nlocal:    33.65 ave 342 max 0 min
Histogram: 31 1 5 1 0 0 0 0 0 2
Nghost:    4.15 ave 49 max 0 min
Histogram: 35 1 0 1 0 1 0 0 1 1
Neighs:    0.925 ave 15 max 0 min
Histogram: 34 0 4 1 0 0 0 0 0 1

Total # of neighbors = 37
Ave neighs/atom = 0.0274889
Neighbor list builds = 52352
Dangerous builds = 5622
Setting up run at Fri Dec 30 06:11:23 2022

Memory usage per processor = 964.609 Mbytes
    Step    Atoms         KinEng            CPU 
13888847     1346     0.78529732              0 
14197488     1294       1.005441      3813.0051 
Loop time of 3813.01 on 40 procs for 308641 steps with 1294 atoms, finish time Fri Dec 30 07:14:56 2022


Pair  time (%) = 0.746885 (0.0195878)
Neigh time (%) = 162.439 (4.26014)
Comm  time (%) = 145.195 (3.80789)
Outpt time (%) = 0.000596834 (1.56526e-05)
Other time (%) = 3504.62 (91.9124)

Nlocal:    32.35 ave 325 max 0 min
Histogram: 30 3 3 2 0 0 0 0 0 2
Nghost:    3.75 ave 46 max 0 min
Histogram: 33 3 0 2 0 0 0 1 0 1
Neighs:    0.675 ave 9 max 0 min
Histogram: 32 2 1 2 2 0 0 0 0 1

Total # of neighbors = 27
Ave neighs/atom = 0.0208655
Neighbor list builds = 59338
Dangerous builds = 6543
Setting up run at Fri Dec 30 07:14:56 2022

Memory usage per processor = 964.609 Mbytes
    Step    Atoms         KinEng            CPU 
14197488     1294       1.005441              0 
14506129     1235     0.63527945      3704.0458 
Loop time of 3704.05 on 40 procs for 308641 steps with 1235 atoms, finish time Fri Dec 30 08:16:40 2022


Pair  time (%) = 0.72188 (0.019489)
Neigh time (%) = 136.933 (3.69685)
Comm  time (%) = 137.035 (3.69961)
Outpt time (%) = 0.00611646 (0.000165129)
Other time (%) = 3429.35 (92.5839)

Nlocal:    30.875 ave 309 max 0 min
Histogram: 30 3 2 3 0 0 0 0 0 2
Nghost:    3.825 ave 47 max 0 min
Histogram: 32 4 0 2 0 0 0 1 0 1
Neighs:    0.4 ave 4 max 0 min
Histogram: 34 0 1 0 0 1 0 3 0 1

Total # of neighbors = 16
Ave neighs/atom = 0.0129555
Neighbor list builds = 49946
Dangerous builds = 4267
Setting up run at Fri Dec 30 08:16:40 2022

Memory usage per processor = 964.609 Mbytes
    Step    Atoms         KinEng            CPU 
14506129     1235     0.63527945              0 
14814770     1176     0.76252185      3685.1883 
Loop time of 3685.19 on 40 procs for 308641 steps with 1176 atoms, finish time Fri Dec 30 09:18:05 2022


Pair  time (%) = 0.71677 (0.01945)
Neigh time (%) = 131.913 (3.57954)
Comm  time (%) = 123.315 (3.34623)
Outpt time (%) = 0.000576913 (1.56549e-05)
Other time (%) = 3429.24 (93.0548)

Nlocal:    29.4 ave 296 max 0 min
Histogram: 31 3 2 2 0 0 0 0 0 2
Nghost:    3.525 ave 51 max 0 min
Histogram: 35 1 0 2 0 1 0 0 0 1
Neighs:    0.5 ave 12 max 0 min
Histogram: 37 1 0 0 0 1 0 0 0 1

Total # of neighbors = 20
Ave neighs/atom = 0.0170068
Neighbor list builds = 48149
Dangerous builds = 4881
Setting up run at Fri Dec 30 09:18:05 2022

Memory usage per processor = 964.609 Mbytes
    Step    Atoms         KinEng            CPU 
14814770     1176     0.76252185              0 
15123411     1137     0.72884915      3523.4127 
Loop time of 3523.41 on 40 procs for 308641 steps with 1137 atoms, finish time Fri Dec 30 10:16:49 2022


Pair  time (%) = 0.700933 (0.0198936)
Neigh time (%) = 100.855 (2.86243)
Comm  time (%) = 86.5037 (2.45511)
Outpt time (%) = 0.000467921 (1.32803e-05)
Other time (%) = 3335.35 (94.6626)

Nlocal:    28.425 ave 292 max 0 min
Histogram: 31 1 4 2 0 0 0 0 0 2
Nghost:    3.275 ave 42 max 0 min
Histogram: 35 1 0 1 0 2 0 0 0 1
Neighs:    0.375 ave 9 max 0 min
Histogram: 35 3 0 1 0 0 0 0 0 1

Total # of neighbors = 15
Ave neighs/atom = 0.0131926
Neighbor list builds = 36822
Dangerous builds = 1095
Setting up run at Fri Dec 30 10:16:49 2022

Memory usage per processor = 964.609 Mbytes
    Step    Atoms         KinEng            CPU 
15123411     1137     0.72884915              0 
15432052     1085     0.56153969      3834.6112 
Loop time of 3834.61 on 40 procs for 308641 steps with 1085 atoms, finish time Fri Dec 30 11:20:43 2022


Pair  time (%) = 0.726687 (0.0189507)
Neigh time (%) = 167.055 (4.3565)
Comm  time (%) = 144.966 (3.78045)
Outpt time (%) = 0.000562957 (1.4681e-05)
Other time (%) = 3521.86 (91.8441)

Nlocal:    27.125 ave 278 max 0 min
Histogram: 30 3 4 0 1 0 0 0 0 2
Nghost:    3.2 ave 47 max 0 min
Histogram: 36 0 1 0 1 1 0 0 0 1
Neighs:    0.4 ave 5 max 0 min
Histogram: 33 0 2 0 3 0 1 0 0 1

Total # of neighbors = 16
Ave neighs/atom = 0.0147465
Neighbor list builds = 61068
Dangerous builds = 5937
Setting up run at Fri Dec 30 11:20:43 2022

Memory usage per processor = 964.609 Mbytes
    Step    Atoms         KinEng            CPU 
15432052     1085     0.56153969              0 
15740693     1048     0.67881202      3702.3691 
Loop time of 3702.37 on 40 procs for 308641 steps with 1048 atoms, finish time Fri Dec 30 12:22:26 2022


Pair  time (%) = 0.713528 (0.0192722)
Neigh time (%) = 136.753 (3.69367)
Comm  time (%) = 116.689 (3.15175)
Outpt time (%) = 0.000548275 (1.48088e-05)
Other time (%) = 3448.21 (93.1353)

Nlocal:    26.2 ave 273 max 0 min
Histogram: 30 4 3 0 1 0 0 0 0 2
Nghost:    3.05 ave 48 max 0 min
Histogram: 35 1 0 2 1 0 0 0 0 1
Neighs:    0.225 ave 4 max 0 min
Histogram: 35 0 3 0 0 1 0 0 0 1

Total # of neighbors = 9
Ave neighs/atom = 0.00858779
Neighbor list builds = 50005
Dangerous builds = 3774
Setting up run at Fri Dec 30 12:22:26 2022

Memory usage per processor = 964.609 Mbytes
    Step    Atoms         KinEng            CPU 
15740693     1048     0.67881202              0 
16049334     1008     0.64237873      3578.8126 
Loop time of 3578.81 on 40 procs for 308641 steps with 1008 atoms, finish time Fri Dec 30 13:22:05 2022


Pair  time (%) = 0.701583 (0.0196038)
Neigh time (%) = 111.279 (3.10938)
Comm  time (%) = 85.2166 (2.38114)
Outpt time (%) = 0.000572155 (1.59873e-05)
Other time (%) = 3381.62 (94.4899)

Nlocal:    25.2 ave 268 max 0 min
Histogram: 31 3 3 1 0 0 0 0 0 2
Nghost:    3.225 ave 46 max 0 min
Histogram: 36 0 0 1 1 1 0 0 0 1
Neighs:    0.175 ave 3 max 0 min
Histogram: 37 0 0 1 0 0 0 0 0 2

Total # of neighbors = 7
Ave neighs/atom = 0.00694444
Neighbor list builds = 40669
Dangerous builds = 4180
Setting up run at Fri Dec 30 13:22:05 2022

Memory usage per processor = 964.609 Mbytes
    Step    Atoms         KinEng            CPU 
16049334     1008     0.64237873              0 
16357975      978     0.53048843       4685.223 
Loop time of 4685.22 on 40 procs for 308641 steps with 978 atoms, finish time Fri Dec 30 14:40:10 2022


Pair  time (%) = 0.685183 (0.0146243)
Neigh time (%) = 107.162 (2.28723)
Comm  time (%) = 91.7134 (1.9575)
Outpt time (%) = 0.00079437 (1.69548e-05)
Other time (%) = 4485.66 (95.7406)

Nlocal:    24.45 ave 259 max 0 min
Histogram: 32 2 2 2 0 0 0 0 0 2
Nghost:    3.175 ave 45 max 0 min
Histogram: 35 1 1 1 0 0 0 1 0 1
Neighs:    0.325 ave 7 max 0 min
Histogram: 36 1 1 0 1 0 0 0 0 1

Total # of neighbors = 13
Ave neighs/atom = 0.0132924
Neighbor list builds = 39147
Dangerous builds = 1323
Setting up run at Fri Dec 30 14:47:21 2022

Memory usage per processor = 964.609 Mbytes
    Step    Atoms         KinEng            CPU 
16357975      978     0.53048843              0 
16666616      943     0.49095632      3676.6472 
Loop time of 3676.65 on 40 procs for 308641 steps with 943 atoms, finish time Fri Dec 30 15:48:38 2022


Pair  time (%) = 0.698715 (0.0190041)
Neigh time (%) = 129.833 (3.53128)
Comm  time (%) = 112.408 (3.05736)
Outpt time (%) = 0.000612343 (1.66549e-05)
Other time (%) = 3433.71 (93.3923)

Nlocal:    23.575 ave 252 max 0 min
Histogram: 30 4 2 2 0 0 0 0 0 2
Nghost:    2.875 ave 42 max 0 min
Histogram: 36 0 1 1 0 0 0 0 1 1
Neighs:    0.575 ave 11 max 0 min
Histogram: 36 0 2 0 1 0 0 0 0 1

Total # of neighbors = 23
Ave neighs/atom = 0.0243902
Neighbor list builds = 47503
Dangerous builds = 2356
Setting up run at Fri Dec 30 15:48:38 2022

Memory usage per processor = 964.609 Mbytes
    Step    Atoms         KinEng            CPU 
16666616      943     0.49095632              0 
16975257      905     0.49660326      3641.3523 
Loop time of 3641.35 on 40 procs for 308641 steps with 905 atoms, finish time Fri Dec 30 16:49:19 2022


Pair  time (%) = 0.694109 (0.0190619)
Neigh time (%) = 126.518 (3.47448)
Comm  time (%) = 97.9467 (2.68984)
Outpt time (%) = 0.000576261 (1.58255e-05)
Other time (%) = 3416.19 (93.8166)

Nlocal:    22.625 ave 253 max 0 min
Histogram: 32 2 3 1 0 0 0 0 0 2
Nghost:    2.925 ave 42 max 0 min
Histogram: 35 1 2 0 0 0 0 0 1 1
Neighs:    0.4 ave 8 max 0 min
Histogram: 34 3 1 1 0 0 0 0 0 1

Total # of neighbors = 16
Ave neighs/atom = 0.0176796
Neighbor list builds = 46262
Dangerous builds = 1874
Setting up run at Fri Dec 30 16:49:19 2022

Memory usage per processor = 964.609 Mbytes
    Step    Atoms         KinEng            CPU 
16975257      905     0.49660326              0 
17283898      881     0.51878236      3599.4703 
Loop time of 3599.47 on 40 procs for 308641 steps with 881 atoms, finish time Fri Dec 30 17:49:19 2022


Pair  time (%) = 0.693956 (0.0192794)
Neigh time (%) = 116.575 (3.23867)
Comm  time (%) = 82.6213 (2.29537)
Outpt time (%) = 0.0202355 (0.000562179)
Other time (%) = 3399.56 (94.4461)

Nlocal:    22.025 ave 243 max 0 min
Histogram: 31 4 2 1 0 0 0 0 0 2
Nghost:    2.675 ave 34 max 0 min
Histogram: 33 3 1 1 0 0 0 0 1 1
Neighs:    0.35 ave 7 max 0 min
Histogram: 35 2 1 0 1 0 0 0 0 1

Total # of neighbors = 14
Ave neighs/atom = 0.015891
Neighbor list builds = 42679
Dangerous builds = 4154
Setting up run at Fri Dec 30 17:49:19 2022

Memory usage per processor = 964.609 Mbytes
    Step    Atoms         KinEng            CPU 
17283898      881     0.51878236              0 
17592539      845     0.92010972      3641.0298 
Loop time of 3641.03 on 40 procs for 308641 steps with 845 atoms, finish time Fri Dec 30 18:50:00 2022


Pair  time (%) = 0.696196 (0.0191209)
Neigh time (%) = 126.469 (3.47344)
Comm  time (%) = 96.3634 (2.6466)
Outpt time (%) = 0.000537505 (1.47624e-05)
Other time (%) = 3417.5 (93.8608)

Nlocal:    21.125 ave 232 max 0 min
Histogram: 30 4 3 1 0 0 0 0 0 2
Nghost:    2.6 ave 35 max 0 min
Histogram: 35 1 1 1 0 0 0 0 0 2
Neighs:    0.25 ave 5 max 0 min
Histogram: 36 0 1 0 2 0 0 0 0 1

Total # of neighbors = 10
Ave neighs/atom = 0.0118343
Neighbor list builds = 46317
Dangerous builds = 5116
Setting up run at Fri Dec 30 18:50:00 2022

Memory usage per processor = 964.609 Mbytes
    Step    Atoms         KinEng            CPU 
17592539      845     0.92010972              0 
17901180      818     0.40936085      3516.2985 
Loop time of 3516.3 on 40 procs for 308641 steps with 818 atoms, finish time Fri Dec 30 19:48:37 2022


Pair  time (%) = 0.676871 (0.0192495)
Neigh time (%) = 98.0595 (2.78871)
Comm  time (%) = 61.2352 (1.74147)
Outpt time (%) = 0.00642781 (0.0001828)
Other time (%) = 3356.32 (95.4504)

Nlocal:    20.45 ave 227 max 0 min
Histogram: 30 4 3 1 0 0 0 0 0 2
Nghost:    2.45 ave 32 max 0 min
Histogram: 36 0 0 1 0 1 0 1 0 1
Neighs:    0.225 ave 4 max 0 min
Histogram: 35 0 3 0 0 1 0 0 0 1

Total # of neighbors = 9
Ave neighs/atom = 0.0110024
Neighbor list builds = 35869
Dangerous builds = 2460
Setting up run at Fri Dec 30 19:48:37 2022

Memory usage per processor = 964.609 Mbytes
    Step    Atoms         KinEng            CPU 
17901180      818     0.40936085              0 
18209821      799      0.4092281       3516.082 
Loop time of 3516.08 on 40 procs for 308641 steps with 799 atoms, finish time Fri Dec 30 20:47:13 2022


Pair  time (%) = 0.673976 (0.0191684)
Neigh time (%) = 100.145 (2.84819)
Comm  time (%) = 59.8671 (1.70266)
Outpt time (%) = 0.000597816 (1.70023e-05)
Other time (%) = 3355.4 (95.43)

Nlocal:    19.975 ave 226 max 0 min
Histogram: 31 4 2 1 0 0 0 0 0 2
Nghost:    2.125 ave 33 max 0 min
Histogram: 35 2 0 1 0 0 1 0 0 1
Neighs:    0.225 ave 2 max 0 min
Histogram: 33 0 0 0 0 5 0 0 0 2

Total # of neighbors = 9
Ave neighs/atom = 0.0112641
Neighbor list builds = 36665
Dangerous builds = 2997
Setting up run at Fri Dec 30 20:47:13 2022

Memory usage per processor = 964.609 Mbytes
    Step    Atoms         KinEng            CPU 
18209821      799      0.4092281              0 
18518462      767     0.36424711      3710.4172 
Loop time of 3710.42 on 40 procs for 308641 steps with 767 atoms, finish time Fri Dec 30 21:49:03 2022


Pair  time (%) = 0.707352 (0.0190639)
Neigh time (%) = 143.315 (3.86249)
Comm  time (%) = 109.216 (2.94351)
Outpt time (%) = 0.00631259 (0.000170132)
Other time (%) = 3457.17 (93.1748)

Nlocal:    19.175 ave 219 max 0 min
Histogram: 32 4 1 1 0 0 0 0 0 2
Nghost:    2.425 ave 29 max 0 min
Histogram: 35 0 2 0 1 0 0 0 0 2
Neighs:    0.125 ave 2 max 0 min
Histogram: 37 0 0 0 0 1 0 0 0 2

Total # of neighbors = 5
Ave neighs/atom = 0.0065189
Neighbor list builds = 52641
Dangerous builds = 20559
Setting up run at Fri Dec 30 21:49:03 2022

Memory usage per processor = 964.609 Mbytes
    Step    Atoms         KinEng            CPU 
18518462      767     0.36424711              0 
18827103      746     0.37107864      3531.4704 
Loop time of 3531.47 on 40 procs for 308641 steps with 746 atoms, finish time Fri Dec 30 22:47:55 2022


Pair  time (%) = 0.663542 (0.0187894)
Neigh time (%) = 100.325 (2.84089)
Comm  time (%) = 83.8641 (2.37477)
Outpt time (%) = 0.00056916 (1.61168e-05)
Other time (%) = 3346.62 (94.7655)

Nlocal:    18.65 ave 213 max 0 min
Histogram: 33 3 1 1 0 0 0 0 0 2
Nghost:    2.3 ave 31 max 0 min
Histogram: 35 1 1 1 0 0 0 0 1 1
Neighs:    0.225 ave 4 max 0 min
Histogram: 35 0 3 0 0 1 0 0 0 1

Total # of neighbors = 9
Ave neighs/atom = 0.0120643
Neighbor list builds = 36786
Dangerous builds = 1479
Setting up run at Fri Dec 30 22:47:55 2022

Memory usage per processor = 964.609 Mbytes
    Step    Atoms         KinEng            CPU 
18827103      746     0.37107864              0 
19135744      730       1.129618      3480.8076 
Loop time of 3480.81 on 40 procs for 308641 steps with 730 atoms, finish time Fri Dec 30 23:45:56 2022


Pair  time (%) = 0.664819 (0.0190996)
Neigh time (%) = 89.2837 (2.56503)
Comm  time (%) = 61.9165 (1.7788)
Outpt time (%) = 0.00612169 (0.00017587)
Other time (%) = 3328.94 (95.6369)

Nlocal:    18.25 ave 211 max 0 min
Histogram: 32 4 1 1 0 0 0 0 0 2
Nghost:    2.325 ave 32 max 0 min
Histogram: 34 3 0 1 0 0 0 0 1 1
Neighs:    0.225 ave 4 max 0 min
Histogram: 36 0 2 0 0 0 0 1 0 1

Total # of neighbors = 9
Ave neighs/atom = 0.0123288
Neighbor list builds = 32705
Dangerous builds = 828
Setting up run at Fri Dec 30 23:45:56 2022

Memory usage per processor = 964.609 Mbytes
    Step    Atoms         KinEng            CPU 
19135744      730       1.129618              0 
19444385      711     0.37048499      3478.6954 
Loop time of 3478.7 on 40 procs for 308641 steps with 711 atoms, finish time Sat Dec 31 00:43:54 2022


Pair  time (%) = 0.666932 (0.0191719)
Neigh time (%) = 90.4833 (2.60107)
Comm  time (%) = 55.743 (1.60241)
Outpt time (%) = 0.000575004 (1.65293e-05)
Other time (%) = 3331.8 (95.7773)

Nlocal:    17.775 ave 212 max 0 min
Histogram: 33 3 2 0 0 0 0 0 1 1
Nghost:    2.025 ave 27 max 0 min
Histogram: 34 3 1 0 0 0 0 0 1 1
Neighs:    0.15 ave 3 max 0 min
Histogram: 38 0 0 0 0 0 0 0 0 2

Total # of neighbors = 6
Ave neighs/atom = 0.00843882
Neighbor list builds = 33172
Dangerous builds = 1499
Setting up run at Sat Dec 31 00:43:55 2022

Memory usage per processor = 964.609 Mbytes
    Step    Atoms         KinEng            CPU 
19444385      711     0.37048499              0 
19753026      687      0.3527352      3673.7298 
Loop time of 3673.73 on 40 procs for 308641 steps with 687 atoms, finish time Sat Dec 31 01:45:08 2022


Pair  time (%) = 0.694262 (0.018898)
Neigh time (%) = 133.712 (3.63969)
Comm  time (%) = 64.4649 (1.75475)
Outpt time (%) = 0.00635139 (0.000172887)
Other time (%) = 3474.85 (94.5865)

Nlocal:    17.175 ave 207 max 0 min
Histogram: 32 4 1 1 0 0 0 0 0 2
Nghost:    1.875 ave 27 max 0 min
Histogram: 35 2 1 0 0 0 0 1 0 1
Neighs:    0.175 ave 3 max 0 min
Histogram: 37 0 0 1 0 0 0 0 0 2

Total # of neighbors = 7
Ave neighs/atom = 0.0101892
Neighbor list builds = 49099
Dangerous builds = 2962
Setting up run at Sat Dec 31 01:45:08 2022

Memory usage per processor = 964.609 Mbytes
    Step    Atoms         KinEng            CPU 
19753026      687      0.3527352              0 
20061667      664     0.42408457      3587.7779 
Loop time of 3587.78 on 40 procs for 308641 steps with 664 atoms, finish time Sat Dec 31 02:44:56 2022


Pair  time (%) = 0.666252 (0.01857)
Neigh time (%) = 114.237 (3.18406)
Comm  time (%) = 74.6928 (2.08187)
Outpt time (%) = 0.000562878 (1.56888e-05)
Other time (%) = 3398.18 (94.7155)

Nlocal:    16.6 ave 205 max 0 min
Histogram: 33 3 1 1 0 0 0 0 0 2
Nghost:    1.425 ave 20 max 0 min
Histogram: 33 3 1 1 0 0 0 0 1 1
Neighs:    0.15 ave 4 max 0 min
Histogram: 38 0 0 0 0 1 0 0 0 1

Total # of neighbors = 6
Ave neighs/atom = 0.00903614
Neighbor list builds = 41901
Dangerous builds = 408
Setting up run at Sat Dec 31 02:44:56 2022

Memory usage per processor = 964.609 Mbytes
    Step    Atoms         KinEng            CPU 
20061667      664     0.42408457              0 
20370308      651     0.49615313      3561.8414 
Loop time of 3561.84 on 40 procs for 308641 steps with 651 atoms, finish time Sat Dec 31 03:44:18 2022


Pair  time (%) = 0.661087 (0.0185603)
Neigh time (%) = 108.594 (3.04881)
Comm  time (%) = 72.0736 (2.02349)
Outpt time (%) = 0.000603549 (1.69449e-05)
Other time (%) = 3380.51 (94.9091)

Nlocal:    16.275 ave 193 max 0 min
Histogram: 31 5 2 0 0 0 0 0 0 2
Nghost:    1.725 ave 22 max 0 min
Histogram: 34 2 1 1 0 0 0 1 0 1
Neighs:    0.05 ave 2 max 0 min
Histogram: 39 0 0 0 0 0 0 0 0 1

Total # of neighbors = 2
Ave neighs/atom = 0.0030722
Neighbor list builds = 39826
Dangerous builds = 345
Setting up run at Sat Dec 31 03:44:18 2022

Memory usage per processor = 964.609 Mbytes
    Step    Atoms         KinEng            CPU 
20370308      651     0.49615313              0 
20678949      646     0.46722123      3545.0402 
Loop time of 3545.04 on 40 procs for 308641 steps with 646 atoms, finish time Sat Dec 31 04:43:23 2022


Pair  time (%) = 0.667457 (0.0188279)
Neigh time (%) = 105.356 (2.97193)
Comm  time (%) = 46.4492 (1.31026)
Outpt time (%) = 0.000557955 (1.5739e-05)
Other time (%) = 3392.57 (95.699)

Nlocal:    16.15 ave 192 max 0 min
Histogram: 33 3 2 0 0 0 0 0 0 2
Nghost:    1.5 ave 20 max 0 min
Histogram: 34 2 1 0 1 0 0 1 0 1
Neighs:    0.15 ave 3 max 0 min
Histogram: 36 0 0 3 0 0 0 0 0 1

Total # of neighbors = 6
Ave neighs/atom = 0.00928793
Neighbor list builds = 38630
Dangerous builds = 1552
Setting up run at Sat Dec 31 04:43:23 2022

Memory usage per processor = 964.609 Mbytes
    Step    Atoms         KinEng            CPU 
20678949      646     0.46722123              0 
20987590      623      0.4048809      3785.7918 
Loop time of 3785.79 on 40 procs for 308641 steps with 623 atoms, finish time Sat Dec 31 05:46:29 2022


Pair  time (%) = 0.684347 (0.0180767)
Neigh time (%) = 158.694 (4.19183)
Comm  time (%) = 81.121 (2.14277)
Outpt time (%) = 0.000588062 (1.55334e-05)
Other time (%) = 3545.29 (93.6473)

Nlocal:    15.575 ave 190 max 0 min
Histogram: 31 5 2 0 0 0 0 0 0 2
Nghost:    1.55 ave 23 max 0 min
Histogram: 34 3 0 1 0 0 0 1 0 1
Neighs:    0.125 ave 2 max 0 min
Histogram: 37 0 0 0 0 1 0 0 0 2

Total # of neighbors = 5
Ave neighs/atom = 0.00802568
Neighbor list builds = 58222
Dangerous builds = 2172
Setting up run at Sat Dec 31 05:46:29 2022

Memory usage per processor = 964.609 Mbytes
    Step    Atoms         KinEng            CPU 
20987590      623      0.4048809              0 
21296231      608     0.37205014      3594.3804 
Loop time of 3594.38 on 40 procs for 308641 steps with 608 atoms, finish time Sat Dec 31 06:46:24 2022


Pair  time (%) = 0.666682 (0.0185479)
Neigh time (%) = 116.753 (3.24822)
Comm  time (%) = 52.0612 (1.4484)
Outpt time (%) = 0.000597327 (1.66184e-05)
Other time (%) = 3424.9 (95.2848)

Nlocal:    15.2 ave 190 max 0 min
Histogram: 32 4 2 0 0 0 0 0 0 2
Nghost:    1.65 ave 31 max 0 min
Histogram: 36 2 0 0 0 1 0 0 0 1
Neighs:    0.1 ave 2 max 0 min
Histogram: 37 0 0 0 0 2 0 0 0 1

Total # of neighbors = 4
Ave neighs/atom = 0.00657895
Neighbor list builds = 42867
Dangerous builds = 1576
Setting up run at Sat Dec 31 06:46:24 2022

Memory usage per processor = 964.609 Mbytes
    Step    Atoms         KinEng            CPU 
21296231      608     0.37205014              0 
21604872      592     0.31232515      3437.7185 
Loop time of 3437.72 on 40 procs for 308641 steps with 592 atoms, finish time Sat Dec 31 07:43:42 2022


Pair  time (%) = 0.64545 (0.0187755)
Neigh time (%) = 81.1348 (2.36013)
Comm  time (%) = 42.6981 (1.24205)
Outpt time (%) = 0.00057727 (1.67923e-05)
Other time (%) = 3313.24 (96.379)

Nlocal:    14.8 ave 183 max 0 min
Histogram: 33 3 2 0 0 0 0 0 0 2
Nghost:    1.4 ave 22 max 0 min
Histogram: 36 0 1 1 0 0 1 0 0 1
Neighs:    0.15 ave 4 max 0 min
Histogram: 37 0 2 0 0 0 0 0 0 1

Total # of neighbors = 6
Ave neighs/atom = 0.0101351
Neighbor list builds = 29763
Dangerous builds = 874
Setting up run at Sat Dec 31 07:43:42 2022

Memory usage per processor = 964.609 Mbytes
    Step    Atoms         KinEng            CPU 
21604872      592     0.31232515              0 
21913513      572     0.27614304      3428.1165 
Loop time of 3428.12 on 40 procs for 308641 steps with 572 atoms, finish time Sat Dec 31 08:40:50 2022


Pair  time (%) = 0.649799 (0.018955)
Neigh time (%) = 79.2961 (2.31311)
Comm  time (%) = 36.5133 (1.06511)
Outpt time (%) = 0.000626408 (1.82727e-05)
Other time (%) = 3311.66 (96.6028)

Nlocal:    14.3 ave 182 max 0 min
Histogram: 34 2 2 0 0 0 0 0 0 2
Nghost:    1.7 ave 18 max 0 min
Histogram: 31 4 1 1 0 1 0 0 0 2
Neighs:    0.175 ave 4 max 0 min
Histogram: 37 0 1 0 0 1 0 0 0 1

Total # of neighbors = 7
Ave neighs/atom = 0.0122378
Neighbor list builds = 29142
Dangerous builds = 1206
Setting up run at Sat Dec 31 08:40:50 2022

Memory usage per processor = 964.609 Mbytes
    Step    Atoms         KinEng            CPU 
21913513      572     0.27614304              0 
22222154      562     0.34246797      3445.0395 
Loop time of 3445.04 on 40 procs for 308641 steps with 562 atoms, finish time Sat Dec 31 09:38:15 2022


Pair  time (%) = 0.642738 (0.0186569)
Neigh time (%) = 81.206 (2.35719)
Comm  time (%) = 48.8956 (1.4193)
Outpt time (%) = 0.000525186 (1.52447e-05)
Other time (%) = 3314.3 (96.2048)

Nlocal:    14.05 ave 177 max 0 min
Histogram: 34 2 2 0 0 0 0 0 0 2
Nghost:    2.025 ave 26 max 0 min
Histogram: 33 3 0 2 0 0 1 0 0 1
Neighs:    0.2 ave 3 max 0 min
Histogram: 37 0 0 0 0 0 1 0 0 2

Total # of neighbors = 8
Ave neighs/atom = 0.0142349
Neighbor list builds = 29811
Dangerous builds = 1273
Setting up run at Sat Dec 31 09:38:15 2022

Memory usage per processor = 964.609 Mbytes
    Step    Atoms         KinEng            CPU 
22222154      562     0.34246797              0 
22530795      546     0.31232042      3399.6637 
Loop time of 3399.66 on 40 procs for 308641 steps with 546 atoms, finish time Sat Dec 31 10:34:55 2022


Pair  time (%) = 0.635725 (0.0186997)
Neigh time (%) = 75.0233 (2.20679)
Comm  time (%) = 39.8529 (1.17226)
Outpt time (%) = 0.000284588 (8.37107e-06)
Other time (%) = 3284.15 (96.6022)

Nlocal:    13.65 ave 171 max 0 min
Histogram: 34 2 2 0 0 0 0 0 0 2
Nghost:    1.7 ave 26 max 0 min
Histogram: 35 0 1 2 0 0 1 0 0 1
Neighs:    0.1 ave 2 max 0 min
Histogram: 37 0 0 0 0 2 0 0 0 1

Total # of neighbors = 4
Ave neighs/atom = 0.00732601
Neighbor list builds = 27531
Dangerous builds = 285
Setting up run at Sat Dec 31 10:34:55 2022

Memory usage per processor = 964.609 Mbytes
    Step    Atoms         KinEng            CPU 
22530795      546     0.31232042              0 
22839436      540     0.29019841      3469.4167 
Loop time of 3469.42 on 40 procs for 308641 steps with 540 atoms, finish time Sat Dec 31 11:32:44 2022


Pair  time (%) = 0.645811 (0.0186144)
Neigh time (%) = 87.5488 (2.52345)
Comm  time (%) = 50.1622 (1.44584)
Outpt time (%) = 0.000608064 (1.75264e-05)
Other time (%) = 3331.06 (96.0121)

Nlocal:    13.5 ave 168 max 0 min
Histogram: 32 4 2 0 0 0 0 0 0 2
Nghost:    1.925 ave 25 max 0 min
Histogram: 35 0 1 1 0 1 0 1 0 1
Neighs:    0.125 ave 3 max 0 min
Histogram: 38 0 0 0 0 0 1 0 0 1

Total # of neighbors = 5
Ave neighs/atom = 0.00925926
Neighbor list builds = 32164
Dangerous builds = 1370
Setting up run at Sat Dec 31 11:32:44 2022

Memory usage per processor = 964.609 Mbytes
    Step    Atoms         KinEng            CPU 
22839436      540     0.29019841              0 
23148077      530     0.28305722      3495.5857 
Loop time of 3495.59 on 40 procs for 308641 steps with 530 atoms, finish time Sat Dec 31 12:31:00 2022


Pair  time (%) = 0.644135 (0.0184271)
Neigh time (%) = 94.0398 (2.69024)
Comm  time (%) = 52.8226 (1.51112)
Outpt time (%) = 0.000537225 (1.53687e-05)
Other time (%) = 3348.08 (95.7802)

Nlocal:    13.25 ave 163 max 0 min
Histogram: 32 4 2 0 0 0 0 0 0 2
Nghost:    1.8 ave 24 max 0 min
Histogram: 35 1 0 2 0 0 0 1 0 1
Neighs:    0.075 ave 2 max 0 min
Histogram: 38 0 0 0 0 1 0 0 0 1

Total # of neighbors = 3
Ave neighs/atom = 0.00566038
Neighbor list builds = 34528
Dangerous builds = 351
Setting up run at Sat Dec 31 12:31:00 2022

Memory usage per processor = 964.609 Mbytes
    Step    Atoms         KinEng            CPU 
23148077      530     0.28305722              0 
23456718      519     0.24920005      3480.7571 
Loop time of 3480.76 on 40 procs for 308641 steps with 519 atoms, finish time Sat Dec 31 13:29:01 2022


Pair  time (%) = 0.643112 (0.0184762)
Neigh time (%) = 94.1457 (2.70475)
Comm  time (%) = 45.6575 (1.31171)
Outpt time (%) = 0.000570231 (1.63824e-05)
Other time (%) = 3340.31 (95.965)

Nlocal:    12.975 ave 166 max 0 min
Histogram: 32 4 2 0 0 0 0 0 0 2
Nghost:    1.5 ave 17 max 0 min
Histogram: 34 1 1 1 1 0 0 0 0 2
Neighs:    0.1 ave 1 max 0 min
Histogram: 36 0 0 0 0 0 0 0 0 4

Total # of neighbors = 4
Ave neighs/atom = 0.00770713
Neighbor list builds = 34578
Dangerous builds = 2770
Setting up run at Sat Dec 31 13:29:01 2022

Memory usage per processor = 964.609 Mbytes
    Step    Atoms         KinEng            CPU 
23456718      519     0.24920005              0 
23765359      509     0.25085571      3680.6413 
Loop time of 3680.64 on 40 procs for 308641 steps with 509 atoms, finish time Sat Dec 31 14:30:22 2022


Pair  time (%) = 0.654701 (0.0177877)
Neigh time (%) = 133.661 (3.63145)
Comm  time (%) = 79.3184 (2.15502)
Outpt time (%) = 0.000555773 (1.50999e-05)
Other time (%) = 3467.01 (94.1957)

Nlocal:    12.725 ave 163 max 0 min
Histogram: 34 2 2 0 0 0 0 0 0 2
Nghost:    1.575 ave 15 max 0 min
Histogram: 32 1 3 0 1 0 1 0 1 1
Neighs:    0.125 ave 4 max 0 min
Histogram: 38 0 1 0 0 0 0 0 0 1

Total # of neighbors = 5
Ave neighs/atom = 0.00982318
Neighbor list builds = 49137
Dangerous builds = 1894
Setting up run at Sat Dec 31 14:30:22 2022

Memory usage per processor = 964.609 Mbytes
    Step    Atoms         KinEng            CPU 
23765359      509     0.25085571              0 
24074000      499     0.25433395      3593.6424 
Loop time of 3593.64 on 40 procs for 308641 steps with 499 atoms, finish time Sat Dec 31 15:30:15 2022


Pair  time (%) = 0.65007 (0.0180894)
Neigh time (%) = 117.543 (3.27085)
Comm  time (%) = 55.8462 (1.55403)
Outpt time (%) = 0.00079987 (2.22579e-05)
Other time (%) = 3419.6 (95.157)

Nlocal:    12.475 ave 156 max 0 min
Histogram: 32 5 1 0 0 0 0 0 0 2
Nghost:    1.475 ave 18 max 0 min
Histogram: 33 2 1 2 0 0 1 0 0 1
Neighs:    0.075 ave 1 max 0 min
Histogram: 37 0 0 0 0 0 0 0 0 3

Total # of neighbors = 3
Ave neighs/atom = 0.00601202
Neighbor list builds = 43178
Dangerous builds = 1192
Setting up run at Sat Dec 31 15:30:15 2022

Memory usage per processor = 964.609 Mbytes
    Step    Atoms         KinEng            CPU 
24074000      499     0.25433395              0 
24382641      481     0.27441886      3571.6532 
Loop time of 3571.65 on 40 procs for 308641 steps with 481 atoms, finish time Sat Dec 31 16:29:47 2022


Pair  time (%) = 0.64844 (0.0181552)
Neigh time (%) = 112.351 (3.14564)
Comm  time (%) = 51.6268 (1.44546)
Outpt time (%) = 0.00997667 (0.000279329)
Other time (%) = 3407.02 (95.3905)

Nlocal:    12.025 ave 154 max 0 min
Histogram: 33 3 2 0 0 0 0 0 0 2
Nghost:    1.225 ave 15 max 0 min
Histogram: 34 0 2 0 2 0 1 0 0 1
Neighs:    0.05 ave 1 max 0 min
Histogram: 38 0 0 0 0 0 0 0 0 2

Total # of neighbors = 2
Ave neighs/atom = 0.004158
Neighbor list builds = 41235
Dangerous builds = 2828
Setting up run at Sat Dec 31 16:29:47 2022

Memory usage per processor = 964.609 Mbytes
    Step    Atoms         KinEng            CPU 
24382641      481     0.27441886              0 
24691282      470     0.29080009      3572.6035 
Loop time of 3572.6 on 40 procs for 308641 steps with 470 atoms, finish time Sat Dec 31 17:29:20 2022


Pair  time (%) = 0.646371 (0.0180924)
Neigh time (%) = 111.686 (3.12617)
Comm  time (%) = 59.5885 (1.66793)
Outpt time (%) = 0.000578212 (1.61846e-05)
Other time (%) = 3400.68 (95.1878)

Nlocal:    11.75 ave 152 max 0 min
Histogram: 34 3 1 0 0 0 0 0 0 2
Nghost:    1.55 ave 16 max 0 min
Histogram: 32 1 2 2 1 0 0 0 1 1
Neighs:    0.075 ave 2 max 0 min
Histogram: 38 0 0 0 0 1 0 0 0 1

Total # of neighbors = 3
Ave neighs/atom = 0.00638298
Neighbor list builds = 41033
Dangerous builds = 371
Setting up run at Sat Dec 31 17:29:20 2022

Memory usage per processor = 964.609 Mbytes
    Step    Atoms         KinEng            CPU 
24691282      470     0.29080009              0 
24999923      465     0.29606965      3534.0188 
Loop time of 3534.02 on 40 procs for 308641 steps with 465 atoms, finish time Sat Dec 31 18:28:14 2022


Pair  time (%) = 0.639538 (0.0180966)
Neigh time (%) = 103.766 (2.9362)
Comm  time (%) = 51.0322 (1.44403)
Outpt time (%) = 0.000576688 (1.63182e-05)
Other time (%) = 3378.58 (95.6017)

Nlocal:    11.625 ave 152 max 0 min
Histogram: 34 3 1 0 0 0 0 0 0 2
Nghost:    1.225 ave 19 max 0 min
Histogram: 35 1 0 2 0 1 0 0 0 1
Neighs:    0.1 ave 2 max 0 min
Histogram: 37 0 0 0 0 2 0 0 0 1

Total # of neighbors = 4
Ave neighs/atom = 0.00860215
Neighbor list builds = 38099
Dangerous builds = 250
Setting up run at Sat Dec 31 18:28:14 2022

Memory usage per processor = 964.609 Mbytes
    Step    Atoms         KinEng            CPU 
24999923      465     0.29606965              0 
25308564      456     0.44318224      3623.6601 
Loop time of 3623.67 on 40 procs for 308641 steps with 456 atoms, finish time Sat Dec 31 19:28:38 2022


Pair  time (%) = 0.645891 (0.0178242)
Neigh time (%) = 124.648 (3.43983)
Comm  time (%) = 62.8074 (1.73325)
Outpt time (%) = 0.00056235 (1.55188e-05)
Other time (%) = 3435.57 (94.8091)

Nlocal:    11.4 ave 152 max 0 min
Histogram: 34 3 1 0 0 0 0 0 0 2
Nghost:    1.25 ave 17 max 0 min
Histogram: 34 2 0 0 2 1 0 0 0 1
Neighs:    0.05 ave 1 max 0 min
Histogram: 38 0 0 0 0 0 0 0 0 2

Total # of neighbors = 2
Ave neighs/atom = 0.00438596
Neighbor list builds = 45849
Dangerous builds = 1426
Setting up run at Sat Dec 31 19:28:38 2022

Memory usage per processor = 964.609 Mbytes
    Step    Atoms         KinEng            CPU 
25308564      456     0.44318224              0 
25617205      440     0.24815821      3787.1255 
Loop time of 3787.13 on 40 procs for 308641 steps with 440 atoms, finish time Sat Dec 31 20:31:45 2022


Pair  time (%) = 0.666658 (0.0176033)
Neigh time (%) = 159.388 (4.20869)
Comm  time (%) = 63.4284 (1.67484)
Outpt time (%) = 0.000516846 (1.36475e-05)
Other time (%) = 3563.64 (94.0989)

Nlocal:    11 ave 151 max 0 min
Histogram: 33 5 0 0 0 0 0 0 0 2
Nghost:    1.375 ave 17 max 0 min
Histogram: 32 4 1 0 1 0 0 0 1 1
Neighs:    0.075 ave 1 max 0 min
Histogram: 37 0 0 0 0 0 0 0 0 3

Total # of neighbors = 3
Ave neighs/atom = 0.00681818
Neighbor list builds = 58661
Dangerous builds = 2271
Setting up run at Sat Dec 31 20:31:45 2022

Memory usage per processor = 964.609 Mbytes
    Step    Atoms         KinEng            CPU 
25617205      440     0.24815821              0 
25925846      429      0.4392594      3765.1564 
Loop time of 3765.16 on 40 procs for 308641 steps with 429 atoms, finish time Sat Dec 31 21:34:30 2022


Pair  time (%) = 0.661843 (0.0175781)
Neigh time (%) = 154.88 (4.11352)
Comm  time (%) = 52.5924 (1.39682)
Outpt time (%) = 0.000518133 (1.37613e-05)
Other time (%) = 3557.02 (94.4721)

Nlocal:    10.725 ave 152 max 0 min
Histogram: 34 4 0 0 0 0 0 0 1 1
Nghost:    1.225 ave 16 max 0 min
Histogram: 35 0 2 0 0 0 2 0 0 1
Neighs:    0.075 ave 2 max 0 min
Histogram: 38 0 0 0 0 1 0 0 0 1

Total # of neighbors = 3
Ave neighs/atom = 0.00699301
Neighbor list builds = 57013
Dangerous builds = 3094
Setting up run at Sat Dec 31 21:34:30 2022

Memory usage per processor = 964.609 Mbytes
    Step    Atoms         KinEng            CPU 
25925846      429      0.4392594              0 
26234487      421     0.21316903      3619.2588 
Loop time of 3619.26 on 40 procs for 308641 steps with 421 atoms, finish time Sat Dec 31 22:34:50 2022


Pair  time (%) = 0.639157 (0.0176599)
Neigh time (%) = 122.4 (3.3819)
Comm  time (%) = 59.4109 (1.64152)
Outpt time (%) = 0.000566578 (1.56545e-05)
Other time (%) = 3436.81 (94.9589)

Nlocal:    10.525 ave 147 max 0 min
Histogram: 35 2 1 0 0 0 0 0 1 1
Nghost:    1.425 ave 15 max 0 min
Histogram: 32 3 2 0 0 0 0 1 0 2
Neighs:    0.05 ave 1 max 0 min
Histogram: 38 0 0 0 0 0 0 0 0 2

Total # of neighbors = 2
Ave neighs/atom = 0.00475059
Neighbor list builds = 45036
Dangerous builds = 533
Setting up run at Sat Dec 31 22:34:50 2022

Memory usage per processor = 964.609 Mbytes
    Step    Atoms         KinEng            CPU 
26234487      421     0.21316903              0 
26543128      418      0.1852557      3574.2327 
Loop time of 3574.23 on 40 procs for 308641 steps with 418 atoms, finish time Sat Dec 31 23:34:24 2022


Pair  time (%) = 0.637804 (0.0178445)
Neigh time (%) = 111.23 (3.11201)
Comm  time (%) = 48.6234 (1.36039)
Outpt time (%) = 0.000294615 (8.24275e-06)
Other time (%) = 3413.74 (95.5098)

Nlocal:    10.45 ave 146 max 0 min
Histogram: 35 2 1 0 0 0 0 0 1 1
Nghost:    1.35 ave 16 max 0 min
Histogram: 32 5 0 0 0 1 0 0 0 2
Neighs:    0 ave 0 max 0 min
Histogram: 40 0 0 0 0 0 0 0 0 0

Total # of neighbors = 0
Ave neighs/atom = 0
Neighbor list builds = 40896
Dangerous builds = 87
Setting up run at Sat Dec 31 23:34:24 2022

Memory usage per processor = 964.609 Mbytes
    Step    Atoms         KinEng            CPU 
26543128      418      0.1852557              0 
26851769      409     0.18142381      3575.4969 
Loop time of 3575.5 on 40 procs for 308641 steps with 409 atoms, finish time Sun Jan  1 00:34:00 2023


Pair  time (%) = 0.64281 (0.0179782)
Neigh time (%) = 111.915 (3.13007)
Comm  time (%) = 61.3089 (1.7147)
Outpt time (%) = 0.00647291 (0.000181035)
Other time (%) = 3401.62 (95.1371)

Nlocal:    10.225 ave 140 max 0 min
Histogram: 35 2 1 0 0 0 0 0 0 2
Nghost:    1.075 ave 13 max 0 min
Histogram: 33 4 0 0 0 1 0 0 0 2
Neighs:    0.05 ave 2 max 0 min
Histogram: 39 0 0 0 0 0 0 0 0 1

Total # of neighbors = 2
Ave neighs/atom = 0.00488998
Neighbor list builds = 41148
Dangerous builds = 130
Setting up run at Sun Jan  1 00:34:00 2023

Memory usage per processor = 964.609 Mbytes
    Step    Atoms         KinEng            CPU 
26851769      409     0.18142381              0 
27160410      402      0.1728738      3553.4619 
Loop time of 3553.46 on 40 procs for 308641 steps with 402 atoms, finish time Sun Jan  1 01:33:13 2023


Pair  time (%) = 0.643098 (0.0180978)
Neigh time (%) = 107.664 (3.02983)
Comm  time (%) = 38.9909 (1.09726)
Outpt time (%) = 0.00055608 (1.5649e-05)
Other time (%) = 3406.16 (95.8548)

Nlocal:    10.05 ave 139 max 0 min
Histogram: 36 0 2 0 0 0 0 0 0 2
Nghost:    1.275 ave 15 max 0 min
Histogram: 33 2 2 0 1 0 0 0 0 2
Neighs:    0.025 ave 1 max 0 min
Histogram: 39 0 0 0 0 0 0 0 0 1

Total # of neighbors = 1
Ave neighs/atom = 0.00248756
Neighbor list builds = 39563
Dangerous builds = 824
Setting up run at Sun Jan  1 01:33:13 2023

Memory usage per processor = 964.609 Mbytes
    Step    Atoms         KinEng            CPU 
27160410      402      0.1728738              0 
27469051      400     0.11745843      3545.9774 
Loop time of 3545.99 on 40 procs for 308641 steps with 400 atoms, finish time Sun Jan  1 02:32:19 2023


Pair  time (%) = 0.63782 (0.0179871)
Neigh time (%) = 105.955 (2.98802)
Comm  time (%) = 53.4157 (1.50637)
Outpt time (%) = 0.0021646 (6.10437e-05)
Other time (%) = 3385.98 (95.4876)

Nlocal:    10 ave 136 max 0 min
Histogram: 35 3 0 0 0 0 0 0 0 2
Nghost:    1.3 ave 15 max 0 min
Histogram: 33 2 1 1 1 0 0 0 0 2
Neighs:    0.075 ave 2 max 0 min
Histogram: 38 0 0 0 0 1 0 0 0 1

Total # of neighbors = 3
Ave neighs/atom = 0.0075
Neighbor list builds = 38934
Dangerous builds = 2
Setting up run at Sun Jan  1 02:32:19 2023

Memory usage per processor = 964.609 Mbytes
    Step    Atoms         KinEng            CPU 
27469051      400     0.11745843              0 
27777692      393      0.1638168      3495.6743 
Loop time of 3495.67 on 40 procs for 308641 steps with 393 atoms, finish time Sun Jan  1 03:30:35 2023


Pair  time (%) = 0.63956 (0.0182958)
Neigh time (%) = 94.9353 (2.71579)
Comm  time (%) = 40.423 (1.15637)
Outpt time (%) = 0.00632141 (0.000180835)
Other time (%) = 3359.67 (96.1094)

Nlocal:    9.825 ave 134 max 0 min
Histogram: 36 1 1 0 0 0 0 0 0 2
Nghost:    1.075 ave 15 max 0 min
Histogram: 35 1 0 2 0 0 0 0 0 2
Neighs:    0.025 ave 1 max 0 min
Histogram: 39 0 0 0 0 0 0 0 0 1

Total # of neighbors = 1
Ave neighs/atom = 0.00254453
Neighbor list builds = 34942
Dangerous builds = 3043
Setting up run at Sun Jan  1 03:30:35 2023

Memory usage per processor = 964.609 Mbytes
    Step    Atoms         KinEng            CPU 
27777692      393      0.1638168              0 
28086333      382     0.22295117      3520.2282 
Loop time of 3520.23 on 40 procs for 308641 steps with 382 atoms, finish time Sun Jan  1 04:29:15 2023


Pair  time (%) = 0.642091 (0.01824)
Neigh time (%) = 99.3414 (2.82202)
Comm  time (%) = 30.5926 (0.869052)
Outpt time (%) = 0.000571144 (1.62246e-05)
Other time (%) = 3389.65 (96.2907)

Nlocal:    9.55 ave 133 max 0 min
[...]
Neighbor list builds = 20253
Dangerous builds = 0
Setting up run at Mon Jan  2 03:21:36 2023

Memory usage per processor = 964.609 Mbytes
    Step    Atoms         KinEng            CPU 
35493813      282     0.12986687              0 
35802454      281     0.16833006      3513.4374 
Loop time of 3513.44 on 40 procs for 308641 steps with 281 atoms, finish time Mon Jan  2 04:20:10 2023


Pair  time (%) = 0.609186 (0.0173387)
Neigh time (%) = 98.7517 (2.81069)
Comm  time (%) = 37.1218 (1.05657)
Outpt time (%) = 0.000554171 (1.57729e-05)
Other time (%) = 3376.95 (96.1154)

Nlocal:    7.025 ave 103 max 0 min
Histogram: 36 1 1 0 0 0 0 0 0 2
Nghost:    1 ave 18 max 0 min
Histogram: 36 0 1 1 0 0 1 0 0 1
Neighs:    0.05 ave 1 max 0 min
Histogram: 38 0 0 0 0 0 0 0 0 2

Total # of neighbors = 2
Ave neighs/atom = 0.00711744
Neighbor list builds = 36438
Dangerous builds = 0
Setting up run at Mon Jan  2 04:20:10 2023

Memory usage per processor = 964.609 Mbytes
    Step    Atoms         KinEng            CPU 
35802454      281     0.16833006              0 
36111095      274     0.16944779      3565.7211 
Loop time of 3565.72 on 40 procs for 308641 steps with 274 atoms, finish time Mon Jan  2 05:19:35 2023


Pair  time (%) = 0.613715 (0.0172115)
Neigh time (%) = 110.85 (3.10876)
Comm  time (%) = 47.9369 (1.34438)
Outpt time (%) = 0.000574565 (1.61136e-05)
Other time (%) = 3406.32 (95.5296)

Nlocal:    6.85 ave 106 max 0 min
Histogram: 36 1 1 0 0 0 0 0 0 2
Nghost:    1.125 ave 19 max 0 min
Histogram: 35 1 2 0 0 0 1 0 0 1
Neighs:    0.075 ave 3 max 0 min
Histogram: 39 0 0 0 0 0 0 0 0 1

Total # of neighbors = 3
Ave neighs/atom = 0.0109489
Neighbor list builds = 40894
Dangerous builds = 223
Setting up run at Mon Jan  2 05:19:35 2023

Memory usage per processor = 964.609 Mbytes
    Step    Atoms         KinEng            CPU 
36111095      274     0.16944779              0 
36419736      267     0.13468597       3666.589 
Loop time of 3666.59 on 40 procs for 308641 steps with 267 atoms, finish time Mon Jan  2 06:20:42 2023


Pair  time (%) = 0.626365 (0.0170831)
Neigh time (%) = 135.378 (3.69221)
Comm  time (%) = 39.4555 (1.07608)
Outpt time (%) = 0.000575754 (1.57027e-05)
Other time (%) = 3491.13 (95.2146)

Nlocal:    6.675 ave 109 max 0 min
Histogram: 36 1 1 0 0 0 0 0 1 1
Nghost:    0.85 ave 16 max 0 min
Histogram: 36 1 1 0 0 0 1 0 0 1
Neighs:    0.025 ave 1 max 0 min
Histogram: 39 0 0 0 0 0 0 0 0 1

Total # of neighbors = 1
Ave neighs/atom = 0.00374532
Neighbor list builds = 49963
Dangerous builds = 739
Setting up run at Mon Jan  2 06:20:42 2023

Memory usage per processor = 964.609 Mbytes
    Step    Atoms         KinEng            CPU 
36419736      267     0.13468597              0 
36728377      264     0.12384625      3507.8223 
Loop time of 3507.82 on 40 procs for 308641 steps with 264 atoms, finish time Mon Jan  2 07:19:10 2023


Pair  time (%) = 0.608056 (0.0173343)
Neigh time (%) = 98.239 (2.80057)
Comm  time (%) = 28.371 (0.808792)
Outpt time (%) = 0.000620231 (1.76814e-05)
Other time (%) = 3380.6 (96.3733)

Nlocal:    6.6 ave 110 max 0 min
Histogram: 36 2 0 0 0 0 0 0 1 1
Nghost:    0.8 ave 12 max 0 min
Histogram: 36 0 1 1 0 0 0 0 0 2
Neighs:    0.025 ave 1 max 0 min
Histogram: 39 0 0 0 0 0 0 0 0 1

Total # of neighbors = 1
Ave neighs/atom = 0.00378788
Neighbor list builds = 36212
Dangerous builds = 500
Setting up run at Mon Jan  2 07:19:10 2023

Memory usage per processor = 964.609 Mbytes
    Step    Atoms         KinEng            CPU 
36728377      264     0.12384625              0 
37037018      263     0.10089382      3536.6625 
Loop time of 3536.66 on 40 procs for 308641 steps with 263 atoms, finish time Mon Jan  2 08:18:07 2023


Pair  time (%) = 0.610861 (0.0172722)
Neigh time (%) = 104.208 (2.94652)
Comm  time (%) = 23.5993 (0.667277)
Outpt time (%) = 0.000515712 (1.45819e-05)
Other time (%) = 3408.24 (96.3689)

Nlocal:    6.575 ave 110 max 0 min
Histogram: 35 3 0 0 0 0 0 1 0 1
Nghost:    0.8 ave 12 max 0 min
Histogram: 36 0 0 1 1 0 0 0 1 1
Neighs:    0.025 ave 1 max 0 min
Histogram: 39 0 0 0 0 0 0 0 0 1

Total # of neighbors = 1
Ave neighs/atom = 0.00380228
Neighbor list builds = 38372
Dangerous builds = 0
Setting up run at Mon Jan  2 08:18:07 2023

Memory usage per processor = 964.609 Mbytes
    Step    Atoms         KinEng            CPU 
37037018      263     0.10089382              0 
37345659      257    0.093174398      3530.0036 
Loop time of 3530 on 40 procs for 308641 steps with 257 atoms, finish time Mon Jan  2 09:16:57 2023


Pair  time (%) = 0.609591 (0.0172688)
Neigh time (%) = 104.353 (2.95618)
Comm  time (%) = 29.6506 (0.83996)
Outpt time (%) = 0.000272696 (7.72509e-06)
Other time (%) = 3395.39 (96.1866)

Nlocal:    6.425 ave 107 max 0 min
Histogram: 36 2 0 0 0 0 0 0 1 1
Nghost:    0.8 ave 14 max 0 min
Histogram: 36 0 1 1 0 0 0 1 0 1
Neighs:    0.025 ave 1 max 0 min
Histogram: 39 0 0 0 0 0 0 0 0 1

Total # of neighbors = 1
Ave neighs/atom = 0.00389105
Neighbor list builds = 38460
Dangerous builds = 2
Setting up run at Mon Jan  2 09:16:57 2023

Memory usage per processor = 964.609 Mbytes
    Step    Atoms         KinEng            CPU 
37345659      257    0.093174398              0 
37654300      257     0.11042258      3371.3897 
Loop time of 3371.39 on 40 procs for 308641 steps with 257 atoms, finish time Mon Jan  2 10:13:08 2023


Pair  time (%) = 0.592586 (0.0175769)
Neigh time (%) = 68.656 (2.03643)
Comm  time (%) = 18.8191 (0.558199)
Outpt time (%) = 0.000764266 (2.26692e-05)
Other time (%) = 3283.32 (97.3878)

Nlocal:    6.425 ave 106 max 0 min
Histogram: 37 1 0 0 0 0 0 0 1 1
Nghost:    0.775 ave 12 max 0 min
Histogram: 36 0 1 1 0 0 0 1 0 1
Neighs:    0.025 ave 1 max 0 min
Histogram: 39 0 0 0 0 0 0 0 0 1

Total # of neighbors = 1
Ave neighs/atom = 0.00389105
Neighbor list builds = 25322
Dangerous builds = 0
Setting up run at Mon Jan  2 10:13:08 2023

Memory usage per processor = 964.609 Mbytes
    Step    Atoms         KinEng            CPU 
37654300      257     0.11042258              0 
37962941      257      0.1283529      3361.1465 
Loop time of 3361.15 on 40 procs for 308641 steps with 257 atoms, finish time Mon Jan  2 11:09:10 2023


Pair  time (%) = 0.5851 (0.0174077)
Neigh time (%) = 56.444 (1.67931)
Comm  time (%) = 18.2346 (0.54251)
Outpt time (%) = 0.000593232 (1.76497e-05)
Other time (%) = 3285.88 (97.7608)

Nlocal:    6.425 ave 105 max 0 min
Histogram: 36 2 0 0 0 0 0 0 1 1
Nghost:    0.7 ave 12 max 0 min
Histogram: 36 0 2 0 0 0 0 1 0 1
Neighs:    0.05 ave 2 max 0 min
Histogram: 39 0 0 0 0 0 0 0 0 1

Total # of neighbors = 2
Ave neighs/atom = 0.0077821
Neighbor list builds = 20820
Dangerous builds = 0
Setting up run at Mon Jan  2 11:09:10 2023

Memory usage per processor = 964.609 Mbytes
    Step    Atoms         KinEng            CPU 
37962941      257      0.1283529              0 
38271582      255     0.13099434      3371.3669 
Loop time of 3371.37 on 40 procs for 308641 steps with 255 atoms, finish time Mon Jan  2 12:05:21 2023


Pair  time (%) = 0.587655 (0.0174308)
Neigh time (%) = 57.5738 (1.70773)
Comm  time (%) = 15.9405 (0.472819)
Outpt time (%) = 0.000612388 (1.81644e-05)
Other time (%) = 3297.26 (97.802)

Nlocal:    6.375 ave 108 max 0 min
Histogram: 36 2 0 0 0 0 0 1 0 1
Nghost:    0.725 ave 13 max 0 min
Histogram: 36 0 2 0 0 1 0 0 0 1
Neighs:    0.1 ave 2 max 0 min
Histogram: 37 0 0 0 0 2 0 0 0 1

Total # of neighbors = 4
Ave neighs/atom = 0.0156863
Neighbor list builds = 21231
Dangerous builds = 72
Setting up run at Mon Jan  2 12:05:21 2023

Memory usage per processor = 964.609 Mbytes
    Step    Atoms         KinEng            CPU 
38271582      255     0.13099434              0 
38580223      255     0.15827526      3336.4082 
Loop time of 3336.41 on 40 procs for 308641 steps with 255 atoms, finish time Mon Jan  2 13:00:58 2023


Pair  time (%) = 0.583671 (0.017494)
Neigh time (%) = 61.8498 (1.85378)
Comm  time (%) = 25.5118 (0.764647)
Outpt time (%) = 0.000564284 (1.69129e-05)
Other time (%) = 3248.46 (97.3641)

Nlocal:    6.375 ave 112 max 0 min
Histogram: 36 2 0 0 0 0 0 1 0 1
Nghost:    0.7 ave 13 max 0 min
Histogram: 36 0 2 1 0 0 0 0 0 1
Neighs:    0.05 ave 1 max 0 min
Histogram: 38 0 0 0 0 0 0 0 0 2

Total # of neighbors = 2
Ave neighs/atom = 0.00784314
Neighbor list builds = 22823
Dangerous builds = 0
Setting up run at Mon Jan  2 13:00:58 2023

Memory usage per processor = 964.609 Mbytes
    Step    Atoms         KinEng            CPU 
38580223      255     0.15827526              0 
38888864      252     0.13375326      3456.7845 
Loop time of 3456.78 on 40 procs for 308641 steps with 252 atoms, finish time Mon Jan  2 13:58:34 2023


Pair  time (%) = 0.596626 (0.0172596)
Neigh time (%) = 87.9529 (2.54435)
Comm  time (%) = 30.1834 (0.873164)
Outpt time (%) = 0.000548563 (1.58692e-05)
Other time (%) = 3338.05 (96.5652)

Nlocal:    6.3 ave 109 max 0 min
Histogram: 36 2 0 0 0 0 0 1 0 1
Nghost:    0.7 ave 9 max 0 min
Histogram: 32 4 0 1 0 1 0 1 0 1
Neighs:    0 ave 0 max 0 min
Histogram: 40 0 0 0 0 0 0 0 0 0

Total # of neighbors = 0
Ave neighs/atom = 0
Neighbor list builds = 32438
Dangerous builds = 54
Setting up run at Mon Jan  2 13:58:35 2023

Memory usage per processor = 964.609 Mbytes
    Step    Atoms         KinEng            CPU 
38888864      252     0.13375326              0 
39197505      251     0.10086479      3429.3129 
Loop time of 3429.31 on 40 procs for 308641 steps with 251 atoms, finish time Mon Jan  2 14:55:44 2023


Pair  time (%) = 0.597202 (0.0174146)
Neigh time (%) = 80.3358 (2.34262)
Comm  time (%) = 22.0715 (0.643613)
Outpt time (%) = 0.000517819 (1.50998e-05)
Other time (%) = 3326.31 (96.9963)

Nlocal:    6.275 ave 112 max 0 min
Histogram: 37 1 0 0 0 0 1 0 0 1
Nghost:    0.5 ave 6 max 0 min
Histogram: 32 4 0 1 0 1 0 0 1 1
Neighs:    0.1 ave 3 max 0 min
Histogram: 38 0 0 1 0 0 0 0 0 1

Total # of neighbors = 4
Ave neighs/atom = 0.0159363
Neighbor list builds = 29624
Dangerous builds = 2
Setting up run at Mon Jan  2 14:55:44 2023

Memory usage per processor = 964.609 Mbytes
    Step    Atoms         KinEng            CPU 
39197505      251     0.10086479              0 
39506146      248    0.097238752      3372.5455 
Loop time of 3372.55 on 40 procs for 308641 steps with 248 atoms, finish time Mon Jan  2 15:51:56 2023


Pair  time (%) = 0.591807 (0.0175478)
Neigh time (%) = 67.8358 (2.01141)
Comm  time (%) = 20.4468 (0.606271)
Outpt time (%) = 0.000551853 (1.63631e-05)
Other time (%) = 3283.67 (97.3648)

Nlocal:    6.2 ave 111 max 0 min
Histogram: 36 2 0 0 0 0 0 1 0 1
Nghost:    0.6 ave 8 max 0 min
Histogram: 32 4 0 2 0 0 0 1 0 1
Neighs:    0.025 ave 1 max 0 min
Histogram: 39 0 0 0 0 0 0 0 0 1

Total # of neighbors = 1
Ave neighs/atom = 0.00403226
Neighbor list builds = 25038
Dangerous builds = 2
Setting up run at Mon Jan  2 15:51:57 2023

Memory usage per processor = 964.609 Mbytes
    Step    Atoms         KinEng            CPU 
39506146      248    0.097238752              0 
39814787      247    0.066786086      3325.7024 
Loop time of 3325.7 on 40 procs for 308641 steps with 247 atoms, finish time Mon Jan  2 16:47:22 2023


Pair  time (%) = 0.58887 (0.0177066)
Neigh time (%) = 56.8486 (1.70937)
Comm  time (%) = 21.388 (0.643112)
Outpt time (%) = 0.000573522 (1.72451e-05)
Other time (%) = 3246.88 (97.6298)

Nlocal:    6.175 ave 108 max 0 min
Histogram: 36 2 0 0 0 0 0 1 0 1
Nghost:    0.6 ave 8 max 0 min
Histogram: 33 3 0 2 0 0 0 0 1 1
Neighs:    0.025 ave 1 max 0 min
Histogram: 39 0 0 0 0 0 0 0 0 1

Total # of neighbors = 1
Ave neighs/atom = 0.00404858
Neighbor list builds = 20998
Dangerous builds = 322
Setting up run at Mon Jan  2 16:47:22 2023

Memory usage per processor = 964.609 Mbytes
    Step    Atoms         KinEng            CPU 
39814787      247    0.066786086              0 
40123428      242    0.066655639      3477.0602 
Loop time of 3477.06 on 40 procs for 308641 steps with 242 atoms, finish time Mon Jan  2 17:45:19 2023


Pair  time (%) = 0.58801 (0.0169111)
Neigh time (%) = 56.2312 (1.6172)
Comm  time (%) = 26.2016 (0.753556)
Outpt time (%) = 0.000868168 (2.49684e-05)
Other time (%) = 3394.04 (97.6123)

Nlocal:    6.05 ave 106 max 0 min
Histogram: 36 2 0 0 0 0 0 1 0 1
Nghost:    0.4 ave 5 max 0 min
Histogram: 34 0 2 0 2 0 0 0 0 2
Neighs:    0.025 ave 1 max 0 min
Histogram: 39 0 0 0 0 0 0 0 0 1

Total # of neighbors = 1
Ave neighs/atom = 0.00413223
Neighbor list builds = 20779
Dangerous builds = 71
Setting up run at Mon Jan  2 17:45:20 2023

Memory usage per processor = 964.609 Mbytes
    Step    Atoms         KinEng            CPU 
40123428      242    0.066655639              0 
40432069      238    0.066958903      3455.4111 
Loop time of 3455.41 on 40 procs for 308641 steps with 238 atoms, finish time Mon Jan  2 18:42:55 2023


Pair  time (%) = 0.594713 (0.0172111)
Neigh time (%) = 55.9333 (1.61872)
Comm  time (%) = 16.4746 (0.476778)
Outpt time (%) = 0.000570871 (1.65211e-05)
Other time (%) = 3382.41 (97.8873)

Nlocal:    5.95 ave 108 max 0 min
Histogram: 36 2 0 0 0 0 0 1 0 1
Nghost:    0.5 ave 9 max 0 min
Histogram: 33 3 2 0 1 0 0 0 0 1
Neighs:    0.05 ave 2 max 0 min
Histogram: 39 0 0 0 0 0 0 0 0 1

Total # of neighbors = 2
Ave neighs/atom = 0.00840336
Neighbor list builds = 20686
Dangerous builds = 58
Setting up run at Mon Jan  2 18:42:55 2023

Memory usage per processor = 964.609 Mbytes
    Step    Atoms         KinEng            CPU 
40432069      238    0.066958903              0 
40740710      233     0.06640668      3479.3287 
Loop time of 3479.33 on 40 procs for 308641 steps with 233 atoms, finish time Mon Jan  2 19:40:55 2023


Pair  time (%) = 0.589247 (0.0169357)
Neigh time (%) = 54.6579 (1.57093)
Comm  time (%) = 14.5328 (0.417689)
Outpt time (%) = 0.000543351 (1.56165e-05)
Other time (%) = 3409.55 (97.9944)

Nlocal:    5.825 ave 110 max 0 min
Histogram: 36 2 0 0 0 0 1 0 0 1
Nghost:    0.525 ave 9 max 0 min
Histogram: 33 3 2 0 0 1 0 0 0 1
Neighs:    0 ave 0 max 0 min
Histogram: 40 0 0 0 0 0 0 0 0 0

Total # of neighbors = 0
Ave neighs/atom = 0
Neighbor list builds = 20221
Dangerous builds = 4
Setting up run at Mon Jan  2 19:40:55 2023

Memory usage per processor = 964.609 Mbytes
    Step    Atoms         KinEng            CPU 
40740710      233     0.06640668              0 
41049351      232    0.079194711      3286.4704 
Loop time of 3286.47 on 40 procs for 308641 steps with 232 atoms, finish time Mon Jan  2 20:35:41 2023


Pair  time (%) = 0.581365 (0.0176896)
Neigh time (%) = 46.7597 (1.42279)
Comm  time (%) = 13.4646 (0.409699)
Outpt time (%) = 0.000497577 (1.51402e-05)
Other time (%) = 3225.66 (98.1498)

Nlocal:    5.8 ave 111 max 0 min
Histogram: 37 1 0 0 0 0 1 0 0 1
Nghost:    0.475 ave 7 max 0 min
Histogram: 35 1 1 0 0 1 0 1 0 1
Neighs:    0 ave 0 max 0 min
Histogram: 40 0 0 0 0 0 0 0 0 0

Total # of neighbors = 0
Ave neighs/atom = 0
Neighbor list builds = 17296
Dangerous builds = 1
Setting up run at Mon Jan  2 20:35:41 2023

Memory usage per processor = 964.609 Mbytes
    Step    Atoms         KinEng            CPU 
41049351      232    0.079194711              0 
41357992      231    0.079341249      3294.3835 
Loop time of 3294.38 on 40 procs for 308641 steps with 231 atoms, finish time Mon Jan  2 21:30:36 2023


Pair  time (%) = 0.582986 (0.0176964)
Neigh time (%) = 48.7188 (1.47884)
Comm  time (%) = 15.3842 (0.466983)
Outpt time (%) = 0.000569145 (1.72762e-05)
Other time (%) = 3229.7 (98.0365)

Nlocal:    5.775 ave 111 max 0 min
Histogram: 37 1 0 0 0 0 1 0 0 1
Nghost:    0.45 ave 8 max 0 min
Histogram: 34 2 2 0 0 1 0 0 0 1
Neighs:    0 ave 0 max 0 min
Histogram: 40 0 0 0 0 0 0 0 0 0

Total # of neighbors = 0
Ave neighs/atom = 0
Neighbor list builds = 18013
Dangerous builds = 0
Setting up run at Mon Jan  2 21:30:36 2023

Memory usage per processor = 964.609 Mbytes
    Step    Atoms         KinEng            CPU 
41357992      231    0.079341249              0 
41666633      228     0.06412634      3287.8315 
Loop time of 3287.83 on 40 procs for 308641 steps with 228 atoms, finish time Mon Jan  2 22:25:24 2023


Pair  time (%) = 0.588797 (0.0179084)
Neigh time (%) = 47.7573 (1.45255)
Comm  time (%) = 11.5878 (0.352446)
Outpt time (%) = 0.000521903 (1.58738e-05)
Other time (%) = 3227.9 (98.1771)

Nlocal:    5.7 ave 110 max 0 min
Histogram: 37 1 0 0 0 0 1 0 0 1
Nghost:    0.425 ave 6 max 0 min
Histogram: 34 3 0 0 0 1 0 0 1 1
Neighs:    0 ave 0 max 0 min
Histogram: 40 0 0 0 0 0 0 0 0 0

Total # of neighbors = 0
Ave neighs/atom = 0
Neighbor list builds = 17651
Dangerous builds = 46
Setting up run at Mon Jan  2 22:25:24 2023

Memory usage per processor = 964.609 Mbytes
    Step    Atoms         KinEng            CPU 
41666633      228     0.06412634              0 
41975274      225    0.044746054      3257.6961 
Loop time of 3257.7 on 40 procs for 308641 steps with 225 atoms, finish time Mon Jan  2 23:19:41 2023


Pair  time (%) = 0.581304 (0.017844)
Neigh time (%) = 41.3765 (1.27012)
Comm  time (%) = 12.383 (0.380115)
Outpt time (%) = 0.000551806 (1.69385e-05)
Other time (%) = 3203.36 (98.3319)

Nlocal:    5.625 ave 110 max 0 min
Histogram: 37 1 0 0 0 0 1 0 0 1
Nghost:    0.35 ave 5 max 0 min
Histogram: 36 0 1 0 0 0 0 0 2 1
Neighs:    0 ave 0 max 0 min
Histogram: 40 0 0 0 0 0 0 0 0 0

Total # of neighbors = 0
Ave neighs/atom = 0
Neighbor list builds = 15318
Dangerous builds = 2
Setting up run at Mon Jan  2 23:19:42 2023

Memory usage per processor = 964.609 Mbytes
    Step    Atoms         KinEng            CPU 
41975274      225    0.044746054              0 
42283915      224    0.045526712       3273.689 
Loop time of 3273.69 on 40 procs for 308641 steps with 224 atoms, finish time Tue Jan  3 00:14:15 2023


Pair  time (%) = 0.583966 (0.0178382)
Neigh time (%) = 44.33 (1.35413)
Comm  time (%) = 10.0981 (0.308462)
Outpt time (%) = 0.000555962 (1.69827e-05)
Other time (%) = 3218.68 (98.3196)

Nlocal:    5.6 ave 105 max 0 min
Histogram: 37 1 0 0 0 0 0 1 0 1
Nghost:    0.525 ave 9 max 0 min
Histogram: 33 4 1 0 0 0 1 0 0 1
Neighs:    0 ave 0 max 0 min
Histogram: 40 0 0 0 0 0 0 0 0 0

Total # of neighbors = 0
Ave neighs/atom = 0
Neighbor list builds = 16395
Dangerous builds = 0
Setting up run at Tue Jan  3 00:14:15 2023

Memory usage per processor = 964.609 Mbytes
    Step    Atoms         KinEng            CPU 
42283915      224    0.045526712              0 
42592556      224    0.043578177      3267.5648 
Loop time of 3267.56 on 40 procs for 308641 steps with 224 atoms, finish time Tue Jan  3 01:08:43 2023


Pair  time (%) = 0.584124 (0.0178764)
Neigh time (%) = 42.6766 (1.30607)
Comm  time (%) = 12.458 (0.381263)
Outpt time (%) = 0.000576513 (1.76435e-05)
Other time (%) = 3211.85 (98.2948)

Nlocal:    5.6 ave 105 max 0 min
Histogram: 37 1 0 0 0 0 0 1 0 1
Nghost:    0.45 ave 7 max 0 min
Histogram: 34 3 1 0 0 0 0 0 1 1
Neighs:    0.025 ave 1 max 0 min
Histogram: 39 0 0 0 0 0 0 0 0 1

Total # of neighbors = 1
Ave neighs/atom = 0.00446429
Neighbor list builds = 15783
Dangerous builds = 0
Setting up run at Tue Jan  3 01:08:43 2023

Memory usage per processor = 964.609 Mbytes
    Step    Atoms         KinEng            CPU 
42592556      224    0.043578177              0 
42901197      224    0.048814176      3272.6031 
Loop time of 3272.6 on 40 procs for 308641 steps with 224 atoms, finish time Tue Jan  3 02:03:16 2023


Pair  time (%) = 0.584485 (0.0178599)
Neigh time (%) = 42.7014 (1.30482)
Comm  time (%) = 12.3042 (0.375975)
Outpt time (%) = 0.000560673 (1.71323e-05)
Other time (%) = 3217.01 (98.3013)

Nlocal:    5.6 ave 102 max 0 min
Histogram: 36 2 0 0 0 0 0 1 0 1
Nghost:    0.5 ave 7 max 0 min
Histogram: 33 2 3 0 0 0 0 1 0 1
Neighs:    0.05 ave 1 max 0 min
Histogram: 38 0 0 0 0 0 0 0 0 2

slurmstepd: error: *** JOB 14706096 ON r02c20 CANCELLED AT 2023-01-03T06:00:45 DUE TO TIME LIMIT ***
srun: Job step aborted: Waiting up to 62 seconds for job step to finish.
slurmstepd: error: *** STEP 14706096.0 ON r02c20 CANCELLED AT 2023-01-03T06:00:45 DUE TO TIME LIMIT ***
