LIGGGHTS (Version LIGGGHTS-PUBLIC 3.8.0, compiled 2022-11-07-16:55:38 by serperd1, git commit 86544c3f1215bc9744d7929e3eacf53ba086af9e)
Created orthogonal box = (-0.15 -0.15 -0.15) to (0.15 0.15 0.15)
  2 by 4 by 5 MPI processor grid

Reading STL file 'cone.stl' (mesh processing step 1/3) 

Reading STL file 'in_cyl.stl' (mesh processing step 1/3) 

Reading STL file 'top_cyl.stl' (mesh processing step 1/3) 

Reading STL file 'bot_cyl.stl' (mesh processing step 1/3) 

Reading STL file 'bottom_disk.stl' (mesh processing step 1/3) 

Reading STL file 'top_disk.stl' (mesh processing step 1/3) 
Fix particledistribution/discrete (id prob_par): distribution based on mass%:
    r_0to10p: d=8.400000e-05 (max. bounding sphere) mass%=10.000000%
    r_10to50p: d=2.328000e-04 (max. bounding sphere) mass%=40.000000%
    r_50to90p: d=8.466000e-04 (max. bounding sphere) mass%=40.000000%
    r_90to100p: d=1.312200e-03 (max. bounding sphere) mass%=10.000000%
Fix particledistribution/discrete (id prob_par): distribution based on number%:
    r_0to10p: d=8.400000e-05 (max. bounding sphere) number%=83.887052%
    r_10to50p: d=2.328000e-04 (max. bounding sphere) number%=15.763181%
    r_50to90p: d=8.466000e-04 (max. bounding sphere) number%=0.327762%
    r_90to100p: d=1.312200e-03 (max. bounding sphere) number%=0.022006%
Setting up run at Tue Dec 27 15:34:29 2022

Import and parallelization of mesh cone_mesh containing 868 triangle(s) successful
Import and parallelization of mesh inlet_cyl_wall_mesh containing 1064 triangle(s) successful
Import and parallelization of mesh top_cyl_wall_mesh containing 682 triangle(s) successful
Import and parallelization of mesh bot_cyl_wall_mesh containing 1280 triangle(s) successful
Import and parallelization of mesh bot_disk_wall_mesh containing 1682 triangle(s) successful
Import and parallelization of mesh top_disk_wall_mesh containing 1144 triangle(s) successful
Memory usage per processor = 960.256 Mbytes
    Step    Atoms         KinEng            CPU 
       0        0              0              0 
Loop time of 5.38573e-05 on 40 procs for 0 steps with 0 atoms, finish time Tue Dec 27 15:34:29 2022


Pair  time (%) = 0 (0)
Neigh time (%) = 0 (0)
Comm  time (%) = 0 (0)
Outpt time (%) = 0 (0)
Other time (%) = 5.38573e-05 (100)

Nlocal:    0 ave 0 max 0 min
Histogram: 40 0 0 0 0 0 0 0 0 0
Nghost:    0 ave 0 max 0 min
Histogram: 40 0 0 0 0 0 0 0 0 0
Neighs:    0 ave 0 max 0 min
Histogram: 40 0 0 0 0 0 0 0 0 0

Total # of neighbors = 0
Neighbor list builds = 0
Dangerous builds = 0
Setting up run at Tue Dec 27 15:34:29 2022

Memory usage per processor = 960.256 Mbytes
    Step    Atoms         KinEng            CPU 
       0        0              0              0 
       1        0              0    0.009797846 
Loop time of 0.00981779 on 40 procs for 1 steps with 0 atoms, finish time Tue Dec 27 15:34:29 2022


Pair  time (%) = 4.6225e-06 (0.0470829)
Neigh time (%) = 0 (0)
Comm  time (%) = 0.000270925 (2.75953)
Outpt time (%) = 8.89709e-05 (0.906222)
Other time (%) = 0.00945327 (96.2872)

Nlocal:    0 ave 0 max 0 min
Histogram: 40 0 0 0 0 0 0 0 0 0
Nghost:    0 ave 0 max 0 min
Histogram: 40 0 0 0 0 0 0 0 0 0
Neighs:    0 ave 0 max 0 min
Histogram: 40 0 0 0 0 0 0 0 0 0

Total # of neighbors = 0
Neighbor list builds = 0
Dangerous builds = 0
Scanning dump file ...
Reading snapshot from dump file ...
  orthogonal box = (-0.15 -0.15 -0.15) to (0.15 0.15 0.15)
  0 atoms before read
  4382 atoms in snapshot
  0 atoms purged
  0 atoms replaced
  0 atoms trimmed
  4382 atoms added
  4382 atoms after read
Setting atom values ...
  4382 settings made for type
  4382 settings made for density
  4382 settings made for vy
Setting up run at Tue Dec 27 15:34:29 2022

Memory usage per processor = 964.609 Mbytes
    Step    Atoms         KinEng            CPU 
       1     4382  2.0405663e-07              0 
       2     4382  2.5286639e-06    0.009370184 
Loop time of 0.0093809 on 40 procs for 1 steps with 4382 atoms, finish time Tue Dec 27 15:34:29 2022


Pair  time (%) = 4.266e-06 (0.0454754)
Neigh time (%) = 0 (0)
Comm  time (%) = 9.69353e-06 (0.103333)
Outpt time (%) = 0.000275474 (2.93654)
Other time (%) = 0.00909147 (96.9147)

Nlocal:    109.55 ave 1816 max 0 min
Histogram: 36 0 2 0 0 0 0 0 0 2
Nghost:    27.3 ave 345 max 0 min
Histogram: 36 0 0 0 0 1 1 0 0 2
Neighs:    35.525 ave 600 max 0 min
Histogram: 36 0 2 0 0 0 0 0 0 2

Total # of neighbors = 1421
Ave neighs/atom = 0.324281
Neighbor list builds = 0
Dangerous builds = 0
Setting up run at Tue Dec 27 15:34:29 2022

Memory usage per processor = 964.609 Mbytes
    Step    Atoms         KinEng            CPU 
       2     4382  2.5286639e-06              0 
  308643     4382  0.00030849076      3077.5694 
Loop time of 3077.57 on 40 procs for 308641 steps with 4382 atoms, finish time Tue Dec 27 16:25:47 2022


Pair  time (%) = 1.24327 (0.0403979)
Neigh time (%) = 4.14351 (0.134636)
Comm  time (%) = 4.17243 (0.135575)
Outpt time (%) = 0.000305465 (9.92553e-06)
Other time (%) = 3068.01 (99.6894)

Nlocal:    109.55 ave 1780 max 0 min
Histogram: 36 0 2 0 0 0 0 0 0 2
Nghost:    28.15 ave 360 max 0 min
Histogram: 36 0 0 0 0 1 1 0 0 2
Neighs:    39.35 ave 668 max 0 min
Histogram: 36 0 2 0 0 0 0 0 0 2

Total # of neighbors = 1574
Ave neighs/atom = 0.359197
Neighbor list builds = 1630
Dangerous builds = 0
Setting up run at Tue Dec 27 16:25:47 2022

Memory usage per processor = 964.609 Mbytes
    Step    Atoms         KinEng            CPU 
  308643     4382  0.00030849076              0 
  617284     4380  0.00035966223      3025.7363 
Loop time of 3025.74 on 40 procs for 308641 steps with 4380 atoms, finish time Tue Dec 27 17:16:13 2022


Pair  time (%) = 1.27696 (0.0422034)
Neigh time (%) = 3.22219 (0.106493)
Comm  time (%) = 4.48702 (0.148295)
Outpt time (%) = 0.000620916 (2.05212e-05)
Other time (%) = 3016.75 (99.703)

Nlocal:    109.5 ave 1746 max 0 min
Histogram: 36 0 2 0 0 0 0 0 0 2
Nghost:    26.625 ave 327 max 0 min
Histogram: 36 0 0 0 0 0 2 0 0 2
Neighs:    41.125 ave 672 max 0 min
Histogram: 36 0 2 0 0 0 0 0 0 2

Total # of neighbors = 1645
Ave neighs/atom = 0.375571
Neighbor list builds = 1274
Dangerous builds = 0
Setting up run at Tue Dec 27 17:16:13 2022

Memory usage per processor = 964.609 Mbytes
    Step    Atoms         KinEng            CPU 
  617284     4380  0.00035966223              0 
  925925     4374   0.0013262206      3056.1187 
Loop time of 3056.12 on 40 procs for 308641 steps with 4374 atoms, finish time Tue Dec 27 18:07:09 2022


Pair  time (%) = 1.27578 (0.0417452)
Neigh time (%) = 8.232 (0.269361)
Comm  time (%) = 7.05248 (0.230766)
Outpt time (%) = 0.000704492 (2.30518e-05)
Other time (%) = 3039.56 (99.4581)

Nlocal:    109.35 ave 1729 max 0 min
Histogram: 36 0 2 0 0 0 0 0 0 2
Nghost:    24.525 ave 304 max 0 min
Histogram: 36 0 0 0 0 1 1 0 0 2
Neighs:    40.525 ave 658 max 0 min
Histogram: 36 0 2 0 0 0 0 0 0 2

Total # of neighbors = 1621
Ave neighs/atom = 0.370599
Neighbor list builds = 3136
Dangerous builds = 3
Setting up run at Tue Dec 27 18:07:09 2022

Memory usage per processor = 964.609 Mbytes
    Step    Atoms         KinEng            CPU 
  925925     4374   0.0013262206              0 
 1234566     4367   0.0068448814      3121.8097 
Loop time of 3121.81 on 40 procs for 308641 steps with 4367 atoms, finish time Tue Dec 27 18:59:11 2022


Pair  time (%) = 1.28376 (0.0411224)
Neigh time (%) = 20.9723 (0.671801)
Comm  time (%) = 11.6477 (0.373106)
Outpt time (%) = 0.0064073 (0.000205243)
Other time (%) = 3087.9 (98.9138)

Nlocal:    109.175 ave 1704 max 0 min
Histogram: 36 0 2 0 0 0 0 0 0 2
Nghost:    23.675 ave 294 max 0 min
Histogram: 36 0 0 0 0 1 1 0 0 2
Neighs:    37.925 ave 630 max 0 min
Histogram: 36 1 1 0 0 0 0 0 0 2

Total # of neighbors = 1517
Ave neighs/atom = 0.347378
Neighbor list builds = 7879
Dangerous builds = 729
Setting up run at Tue Dec 27 18:59:11 2022

Memory usage per processor = 964.609 Mbytes
    Step    Atoms         KinEng            CPU 
 1234566     4367   0.0068448814              0 
 1543207     4358    0.040769909      3390.6155 
Loop time of 3390.62 on 40 procs for 308641 steps with 4358 atoms, finish time Tue Dec 27 19:55:41 2022


Pair  time (%) = 1.32513 (0.0390823)
Neigh time (%) = 75.3081 (2.22107)
Comm  time (%) = 35.9303 (1.0597)
Outpt time (%) = 0.000664956 (1.96117e-05)
Other time (%) = 3278.05 (96.6801)

Nlocal:    108.95 ave 1666 max 0 min
Histogram: 36 0 2 0 0 0 0 0 0 2
Nghost:    23.15 ave 299 max 0 min
Histogram: 36 0 0 0 0 2 0 0 0 2
Neighs:    38.675 ave 638 max 0 min
Histogram: 36 0 2 0 0 0 0 0 0 2

Total # of neighbors = 1547
Ave neighs/atom = 0.354979
Neighbor list builds = 28143
Dangerous builds = 663
Setting up run at Tue Dec 27 19:55:42 2022

Memory usage per processor = 964.609 Mbytes
    Step    Atoms         KinEng            CPU 
 1543207     4358    0.040769909              0 
 1851848     4353     0.14062856      3791.2474 
Loop time of 3791.25 on 40 procs for 308641 steps with 4353 atoms, finish time Tue Dec 27 20:58:53 2022


Pair  time (%) = 1.42184 (0.0375032)
Neigh time (%) = 158.107 (4.17032)
Comm  time (%) = 93.0295 (2.4538)
Outpt time (%) = 0.000313851 (8.27829e-06)
Other time (%) = 3538.69 (93.3384)

Nlocal:    108.825 ave 1652 max 0 min
Histogram: 36 0 2 0 0 0 0 0 0 2
Nghost:    22.95 ave 292 max 0 min
Histogram: 36 0 0 0 0 2 0 0 0 2
Neighs:    38.575 ave 628 max 0 min
Histogram: 36 1 1 0 0 0 0 0 0 2

Total # of neighbors = 1543
Ave neighs/atom = 0.354468
Neighbor list builds = 59033
Dangerous builds = 1625
Setting up run at Tue Dec 27 20:58:53 2022

Memory usage per processor = 964.609 Mbytes
    Step    Atoms         KinEng            CPU 
 1851848     4353     0.14062856              0 
 2160489     4340    0.053069728       3694.577 
Loop time of 3694.58 on 40 procs for 308641 steps with 4340 atoms, finish time Tue Dec 27 22:00:27 2022


Pair  time (%) = 1.39056 (0.0376379)
Neigh time (%) = 136.535 (3.69554)
Comm  time (%) = 84.7532 (2.29399)
Outpt time (%) = 0.000592555 (1.60385e-05)
Other time (%) = 3471.9 (93.9728)

Nlocal:    108.5 ave 1649 max 0 min
Histogram: 36 0 2 0 0 0 0 0 0 2
Nghost:    22.075 ave 271 max 0 min
Histogram: 36 0 0 0 0 1 1 0 0 2
Neighs:    36.475 ave 622 max 0 min
Histogram: 36 0 2 0 0 0 0 0 0 2

Total # of neighbors = 1459
Ave neighs/atom = 0.336175
Neighbor list builds = 50932
Dangerous builds = 4188
Setting up run at Tue Dec 27 22:00:27 2022

Memory usage per processor = 964.609 Mbytes
    Step    Atoms         KinEng            CPU 
 2160489     4340    0.053069728              0 
 2469130     4320    0.041985535      3430.1869 
Loop time of 3430.19 on 40 procs for 308641 steps with 4320 atoms, finish time Tue Dec 27 22:57:38 2022


Pair  time (%) = 1.31929 (0.0384611)
Neigh time (%) = 84.1985 (2.45463)
Comm  time (%) = 62.5307 (1.82295)
Outpt time (%) = 0.000641098 (1.86899e-05)
Other time (%) = 3282.14 (95.6839)

Nlocal:    108 ave 1632 max 0 min
Histogram: 36 0 2 0 0 0 0 0 0 2
Nghost:    22.2 ave 277 max 0 min
Histogram: 36 0 0 0 0 1 1 0 0 2
Neighs:    36.625 ave 628 max 0 min
Histogram: 36 1 1 0 0 0 0 0 0 2

Total # of neighbors = 1465
Ave neighs/atom = 0.33912
Neighbor list builds = 31347
Dangerous builds = 4360
Setting up run at Tue Dec 27 22:57:38 2022

Memory usage per processor = 964.609 Mbytes
    Step    Atoms         KinEng            CPU 
 2469130     4320    0.041985535              0 
 2777771     4305    0.094740372      3347.2236 
Loop time of 3347.22 on 40 procs for 308641 steps with 4305 atoms, finish time Tue Dec 27 23:53:25 2022


Pair  time (%) = 1.29884 (0.0388035)
Neigh time (%) = 67.1483 (2.00609)
Comm  time (%) = 53.898 (1.61023)
Outpt time (%) = 0.000578774 (1.72912e-05)
Other time (%) = 3224.88 (96.3449)

Nlocal:    107.625 ave 1625 max 0 min
Histogram: 36 0 2 0 0 0 0 0 0 2
Nghost:    21.575 ave 261 max 0 min
Histogram: 36 0 0 0 0 0 2 0 0 2
Neighs:    36.725 ave 630 max 0 min
Histogram: 36 1 1 0 0 0 0 0 0 2

Total # of neighbors = 1469
Ave neighs/atom = 0.341231
Neighbor list builds = 25026
Dangerous builds = 437
Setting up run at Tue Dec 27 23:53:25 2022

Memory usage per processor = 964.609 Mbytes
    Step    Atoms         KinEng            CPU 
 2777771     4305    0.094740372              0 
 3086412     4290    0.084844625       3553.286 
Loop time of 3553.29 on 40 procs for 308641 steps with 4290 atoms, finish time Wed Dec 28 00:52:38 2022


Pair  time (%) = 1.34044 (0.0377238)
Neigh time (%) = 107.467 (3.02445)
Comm  time (%) = 84.4694 (2.37722)
Outpt time (%) = 0.00064311 (1.8099e-05)
Other time (%) = 3360.01 (94.5606)

Nlocal:    107.25 ave 1616 max 0 min
Histogram: 36 0 2 0 0 0 0 0 0 2
Nghost:    21.95 ave 271 max 0 min
Histogram: 36 0 0 0 0 1 1 0 0 2
Neighs:    36.975 ave 642 max 0 min
Histogram: 36 2 0 0 0 0 0 0 0 2

Total # of neighbors = 1479
Ave neighs/atom = 0.344755
Neighbor list builds = 40002
Dangerous builds = 5162
Setting up run at Wed Dec 28 00:52:38 2022

Memory usage per processor = 964.609 Mbytes
    Step    Atoms         KinEng            CPU 
 3086412     4290    0.084844625              0 
 3395053     4265     0.12529049      3705.2821 
Loop time of 3705.29 on 40 procs for 308641 steps with 4265 atoms, finish time Wed Dec 28 01:54:24 2022


Pair  time (%) = 1.36388 (0.036809)
Neigh time (%) = 137.971 (3.72363)
Comm  time (%) = 118.727 (3.20426)
Outpt time (%) = 0.0129674 (0.000349971)
Other time (%) = 3447.22 (93.035)

Nlocal:    106.625 ave 1613 max 0 min
Histogram: 36 0 2 0 0 0 0 0 0 2
Nghost:    21.475 ave 261 max 0 min
Histogram: 36 0 0 0 0 1 1 0 0 2
Neighs:    36.125 ave 617 max 0 min
Histogram: 36 1 1 0 0 0 0 0 0 2

Total # of neighbors = 1445
Ave neighs/atom = 0.338804
Neighbor list builds = 51342
Dangerous builds = 5444
Setting up run at Wed Dec 28 01:54:24 2022

Memory usage per processor = 964.609 Mbytes
    Step    Atoms         KinEng            CPU 
 3395053     4265     0.12529049              0 
 3703694     4235     0.27922573      3716.4583 
Loop time of 3716.46 on 40 procs for 308641 steps with 4235 atoms, finish time Wed Dec 28 02:56:20 2022


Pair  time (%) = 1.34889 (0.0362952)
Neigh time (%) = 139.87 (3.76353)
Comm  time (%) = 125.773 (3.3842)
Outpt time (%) = 0.0124952 (0.000336213)
Other time (%) = 3449.46 (92.8156)

Nlocal:    105.875 ave 1576 max 0 min
Histogram: 36 0 2 0 0 0 0 0 0 2
Nghost:    20.95 ave 260 max 0 min
Histogram: 36 0 0 0 0 1 1 0 0 2
Neighs:    34.925 ave 593 max 0 min
Histogram: 36 1 1 0 0 0 0 0 0 2

Total # of neighbors = 1397
Ave neighs/atom = 0.32987
Neighbor list builds = 52002
Dangerous builds = 4273
Setting up run at Wed Dec 28 02:56:21 2022

Memory usage per processor = 964.609 Mbytes
    Step    Atoms         KinEng            CPU 
 3703694     4235     0.27922573              0 
 4012335     4224      1.2047499      3701.8771 
Loop time of 3701.88 on 40 procs for 308641 steps with 4224 atoms, finish time Wed Dec 28 03:58:03 2022


Pair  time (%) = 1.33115 (0.0359589)
Neigh time (%) = 135.525 (3.66099)
Comm  time (%) = 112.28 (3.03305)
Outpt time (%) = 0.000673465 (1.81925e-05)
Other time (%) = 3452.74 (93.27)

Nlocal:    105.6 ave 1558 max 0 min
Histogram: 36 0 2 0 0 0 0 0 0 2
Nghost:    20.6 ave 242 max 0 min
Histogram: 36 0 0 0 0 0 2 0 0 2
Neighs:    35.35 ave 598 max 0 min
Histogram: 36 2 0 0 0 0 0 0 0 2

Total # of neighbors = 1414
Ave neighs/atom = 0.334754
Neighbor list builds = 50347
Dangerous builds = 1824
Setting up run at Wed Dec 28 03:58:03 2022

Memory usage per processor = 964.609 Mbytes
    Step    Atoms         KinEng            CPU 
 4012335     4224      1.2047499              0 
 4320976     4200     0.46564202      3793.8095 
Loop time of 3793.81 on 40 procs for 308641 steps with 4200 atoms, finish time Wed Dec 28 05:01:16 2022


Pair  time (%) = 1.3594 (0.0358322)
Neigh time (%) = 157.008 (4.13852)
Comm  time (%) = 128.897 (3.39756)
Outpt time (%) = 0.000615732 (1.62299e-05)
Other time (%) = 3506.55 (92.4281)

Nlocal:    105 ave 1543 max 0 min
Histogram: 36 0 2 0 0 0 0 0 0 2
Nghost:    19.85 ave 233 max 0 min
Histogram: 36 0 0 0 0 0 2 0 0 2
Neighs:    34.9 ave 592 max 0 min
Histogram: 36 1 1 0 0 0 0 0 0 2

Total # of neighbors = 1396
Ave neighs/atom = 0.332381
Neighbor list builds = 58303
Dangerous builds = 3231
Setting up run at Wed Dec 28 05:01:17 2022

Memory usage per processor = 964.609 Mbytes
    Step    Atoms         KinEng            CPU 
 4320976     4200     0.46564202              0 
 4629617     4173     0.19343536       3760.129 
Loop time of 3760.15 on 40 procs for 308641 steps with 4173 atoms, finish time Wed Dec 28 06:03:57 2022


Pair  time (%) = 1.35123 (0.0359356)
Neigh time (%) = 151.831 (4.0379)
Comm  time (%) = 125.305 (3.33243)
Outpt time (%) = 0.000635722 (1.69068e-05)
Other time (%) = 3481.66 (92.5937)

Nlocal:    104.325 ave 1502 max 0 min
Histogram: 36 0 2 0 0 0 0 0 0 2
Nghost:    20.125 ave 230 max 0 min
Histogram: 36 0 0 0 0 0 1 1 0 2
Neighs:    33.925 ave 562 max 0 min
Histogram: 36 1 1 0 0 0 0 0 0 2

Total # of neighbors = 1357
Ave neighs/atom = 0.325186
Neighbor list builds = 56282
Dangerous builds = 3920
Setting up run at Wed Dec 28 06:03:57 2022

Memory usage per processor = 964.609 Mbytes
    Step    Atoms         KinEng            CPU 
 4629617     4173     0.19343536              0 
 4938258     4150       1.615407      3745.8883 
Loop time of 3745.9 on 40 procs for 308641 steps with 4150 atoms, finish time Wed Dec 28 07:06:23 2022


Pair  time (%) = 1.34031 (0.0357808)
Neigh time (%) = 149.255 (3.98448)
Comm  time (%) = 129.749 (3.46377)
Outpt time (%) = 0.0135031 (0.000360477)
Other time (%) = 3465.54 (92.5156)

Nlocal:    103.75 ave 1465 max 0 min
Histogram: 36 0 2 0 0 0 0 0 0 2
Nghost:    19.9 ave 233 max 0 min
Histogram: 36 0 0 0 0 0 1 1 0 2
Neighs:    32.6 ave 520 max 0 min
Histogram: 36 0 2 0 0 0 0 0 0 2

Total # of neighbors = 1304
Ave neighs/atom = 0.314217
Neighbor list builds = 55324
Dangerous builds = 6707
Setting up run at Wed Dec 28 07:06:23 2022

Memory usage per processor = 964.609 Mbytes
    Step    Atoms         KinEng            CPU 
 4938258     4150       1.615407              0 
 5246899     4112     0.52266168      3838.6644 
Loop time of 3838.66 on 40 procs for 308641 steps with 4112 atoms, finish time Wed Dec 28 08:10:22 2022


Pair  time (%) = 1.33111 (0.0346763)
Neigh time (%) = 167.065 (4.35218)
Comm  time (%) = 154.13 (4.01519)
Outpt time (%) = 0.000603321 (1.57169e-05)
Other time (%) = 3516.14 (91.5979)

Nlocal:    102.8 ave 1453 max 0 min
Histogram: 36 0 2 0 0 0 0 0 0 2
Nghost:    19.75 ave 231 max 0 min
Histogram: 36 0 0 0 0 0 1 1 0 2
Neighs:    29.825 ave 510 max 0 min
Histogram: 36 1 1 0 0 0 0 0 1 1

Total # of neighbors = 1193
Ave neighs/atom = 0.290126
Neighbor list builds = 61986
Dangerous builds = 3807
Setting up run at Wed Dec 28 08:10:22 2022

Memory usage per processor = 964.609 Mbytes
    Step    Atoms         KinEng            CPU 
 5246899     4112     0.52266168              0 
 5555540     4080      0.3687588      3809.6097 
Loop time of 3809.61 on 40 procs for 308641 steps with 4080 atoms, finish time Wed Dec 28 09:13:51 2022


Pair  time (%) = 1.28401 (0.0337045)
Neigh time (%) = 162.628 (4.2689)
Comm  time (%) = 152.966 (4.01527)
Outpt time (%) = 0.000580055 (1.52261e-05)
Other time (%) = 3492.73 (91.6821)

Nlocal:    102 ave 1441 max 0 min
Histogram: 36 0 2 0 0 0 0 0 0 2
Nghost:    18.225 ave 218 max 0 min
Histogram: 36 0 0 0 0 0 2 0 1 1
Neighs:    26.5 ave 477 max 0 min
Histogram: 36 2 0 0 0 0 0 0 1 1

Total # of neighbors = 1060
Ave neighs/atom = 0.259804
Neighbor list builds = 60345
Dangerous builds = 4380
Setting up run at Wed Dec 28 09:13:51 2022

Memory usage per processor = 964.609 Mbytes
    Step    Atoms         KinEng            CPU 
 5555540     4080      0.3687588              0 
 5864181     4046       0.518872       3814.521 
Loop time of 3814.52 on 40 procs for 308641 steps with 4046 atoms, finish time Wed Dec 28 10:17:26 2022


Pair  time (%) = 1.24267 (0.0325773)
Neigh time (%) = 162.329 (4.25555)
Comm  time (%) = 149.573 (3.92114)
Outpt time (%) = 0.0175812 (0.000460901)
Other time (%) = 3501.36 (91.7903)

Nlocal:    101.15 ave 1420 max 0 min
Histogram: 36 0 1 1 0 0 0 0 0 2
Nghost:    17.6 ave 208 max 0 min
Histogram: 36 0 0 0 0 1 1 0 0 2
Neighs:    22.725 ave 433 max 0 min
Histogram: 36 2 0 0 0 0 0 1 0 1

Total # of neighbors = 909
Ave neighs/atom = 0.224666
Neighbor list builds = 60234
Dangerous builds = 5556
Setting up run at Wed Dec 28 10:17:26 2022

Memory usage per processor = 964.609 Mbytes
    Step    Atoms         KinEng            CPU 
 5864181     4046       0.518872              0 
 6172822     4003      0.3153271      3777.8621 
Loop time of 3777.86 on 40 procs for 308641 steps with 4003 atoms, finish time Wed Dec 28 11:20:24 2022


Pair  time (%) = 1.20293 (0.0318414)
Neigh time (%) = 156.33 (4.13806)
Comm  time (%) = 162.605 (4.30414)
Outpt time (%) = 0.000609801 (1.61414e-05)
Other time (%) = 3457.72 (91.5259)

Nlocal:    100.075 ave 1418 max 0 min
Histogram: 35 1 2 0 0 0 0 0 1 1
Nghost:    16.75 ave 206 max 0 min
Histogram: 36 0 0 0 1 0 1 0 1 1
Neighs:    19.925 ave 376 max 0 min
Histogram: 36 1 1 0 0 0 1 0 0 1

Total # of neighbors = 797
Ave neighs/atom = 0.199101
Neighbor list builds = 57949
Dangerous builds = 6854
Setting up run at Wed Dec 28 11:20:24 2022

Memory usage per processor = 964.609 Mbytes
    Step    Atoms         KinEng            CPU 
 6172822     4003      0.3153271              0 
 6481463     3941     0.35923536      3812.0551 
Loop time of 3812.06 on 40 procs for 308641 steps with 3941 atoms, finish time Wed Dec 28 12:23:56 2022


Pair  time (%) = 1.16248 (0.0304949)
Neigh time (%) = 163.464 (4.28808)
Comm  time (%) = 183.02 (4.80109)
Outpt time (%) = 0.000610734 (1.60211e-05)
Other time (%) = 3464.41 (90.8803)

Nlocal:    98.525 ave 1445 max 0 min
Histogram: 36 0 2 0 0 0 0 1 0 1
Nghost:    15.825 ave 192 max 0 min
Histogram: 36 0 0 0 0 1 0 1 1 1
Neighs:    17.45 ave 390 max 0 min
Histogram: 36 1 1 0 1 0 0 0 0 1

Total # of neighbors = 698
Ave neighs/atom = 0.177112
Neighbor list builds = 60634
Dangerous builds = 8498
Setting up run at Wed Dec 28 12:23:56 2022

Memory usage per processor = 964.609 Mbytes
    Step    Atoms         KinEng            CPU 
 6481463     3941     0.35923536              0 
 6790104     3886     0.38383714      3886.4492 
Loop time of 3886.45 on 40 procs for 308641 steps with 3886 atoms, finish time Wed Dec 28 13:28:43 2022


Pair  time (%) = 1.15717 (0.0297745)
Neigh time (%) = 174.265 (4.48391)
Comm  time (%) = 189.509 (4.87615)
Outpt time (%) = 0.000584049 (1.50278e-05)
Other time (%) = 3521.52 (90.6101)

Nlocal:    97.15 ave 1402 max 0 min
Histogram: 35 1 2 0 0 0 0 1 0 1
Nghost:    14.875 ave 172 max 0 min
Histogram: 36 0 0 0 0 1 0 1 0 2
Neighs:    15.375 ave 354 max 0 min
Histogram: 36 1 1 1 0 0 0 0 0 1

Total # of neighbors = 615
Ave neighs/atom = 0.15826
Neighbor list builds = 64505
Dangerous builds = 8624
Setting up run at Wed Dec 28 13:28:43 2022

Memory usage per processor = 964.609 Mbytes
    Step    Atoms         KinEng            CPU 
 6790104     3886     0.38383714              0 
 7098745     3829     0.83276252      3794.7201 
Loop time of 3794.72 on 40 procs for 308641 steps with 3829 atoms, finish time Wed Dec 28 14:31:58 2022


Pair  time (%) = 1.10656 (0.0291605)
Neigh time (%) = 157.651 (4.15448)
Comm  time (%) = 183.87 (4.84542)
Outpt time (%) = 0.000635507 (1.67471e-05)
Other time (%) = 3452.09 (90.9709)

Nlocal:    95.725 ave 1358 max 0 min
Histogram: 34 2 2 0 0 0 0 1 0 1
Nghost:    14.8 ave 183 max 0 min
Histogram: 36 0 0 0 1 0 1 1 0 1
Neighs:    13.725 ave 315 max 0 min
Histogram: 36 1 1 1 0 0 0 0 0 1

Total # of neighbors = 549
Ave neighs/atom = 0.143379
Neighbor list builds = 58282
Dangerous builds = 7844
Setting up run at Wed Dec 28 14:31:58 2022

Memory usage per processor = 964.609 Mbytes
    Step    Atoms         KinEng            CPU 
 7098745     3829     0.83276252              0 
 7407386     3760      1.0577485      3780.8272 
Loop time of 3780.83 on 40 procs for 308641 steps with 3760 atoms, finish time Wed Dec 28 15:34:59 2022


Pair  time (%) = 1.08761 (0.0287665)
Neigh time (%) = 152.374 (4.03017)
Comm  time (%) = 189.917 (5.02316)
Outpt time (%) = 0.00059423 (1.57169e-05)
Other time (%) = 3437.45 (90.9179)

Nlocal:    94 ave 1366 max 0 min
Histogram: 33 3 2 0 0 0 1 0 0 1
Nghost:    13.625 ave 162 max 0 min
Histogram: 36 0 0 0 1 0 0 1 0 2
Neighs:    13.5 ave 312 max 0 min
Histogram: 36 1 2 0 0 0 0 0 0 1

Total # of neighbors = 540
Ave neighs/atom = 0.143617
Neighbor list builds = 56292
Dangerous builds = 10469
Setting up run at Wed Dec 28 15:34:59 2022

Memory usage per processor = 964.609 Mbytes
    Step    Atoms         KinEng            CPU 
 7407386     3760      1.0577485              0 
 7716027     3697     0.43029154      3896.5082 
Loop time of 3896.51 on 40 procs for 308641 steps with 3697 atoms, finish time Wed Dec 28 16:39:55 2022


Pair  time (%) = 1.092 (0.028025)
Neigh time (%) = 183.33 (4.70498)
Comm  time (%) = 210.769 (5.40919)
Outpt time (%) = 0.00060299 (1.54751e-05)
Other time (%) = 3501.32 (89.8578)

Nlocal:    92.425 ave 1358 max 0 min
Histogram: 33 3 2 0 0 0 1 0 0 1
Nghost:    13.725 ave 147 max 0 min
Histogram: 36 0 0 0 1 0 0 0 1 2
Neighs:    12.525 ave 281 max 0 min
Histogram: 37 0 1 1 0 0 0 0 0 1

Total # of neighbors = 501
Ave neighs/atom = 0.135515
Neighbor list builds = 67619
Dangerous builds = 8852
Setting up run at Wed Dec 28 16:39:55 2022

Memory usage per processor = 964.609 Mbytes
    Step    Atoms         KinEng            CPU 
 7716027     3697     0.43029154              0 
 8024668     3633     0.46573245      3877.5777 
Loop time of 3877.58 on 40 procs for 308641 steps with 3633 atoms, finish time Wed Dec 28 17:44:33 2022


Pair  time (%) = 1.07221 (0.0276515)
Neigh time (%) = 172.243 (4.44202)
Comm  time (%) = 199.415 (5.14278)
Outpt time (%) = 0.000583268 (1.50421e-05)
Other time (%) = 3504.85 (90.3875)

Nlocal:    90.825 ave 1297 max 0 min
Histogram: 32 4 2 0 0 0 1 0 0 1
Nghost:    12.675 ave 146 max 0 min
Histogram: 36 0 0 0 1 0 0 1 1 1
Neighs:    10.75 ave 265 max 0 min
Histogram: 37 1 1 0 0 0 0 0 0 1

Total # of neighbors = 430
Ave neighs/atom = 0.118359
Neighbor list builds = 63489
Dangerous builds = 7943
Setting up run at Wed Dec 28 17:44:33 2022

Memory usage per processor = 964.609 Mbytes
    Step    Atoms         KinEng            CPU 
 8024668     3633     0.46573245              0 
 8333309     3566       0.505304      4252.0217 
Loop time of 4252.02 on 40 procs for 308641 steps with 3566 atoms, finish time Wed Dec 28 18:55:25 2022


Pair  time (%) = 1.05805 (0.0248835)
Neigh time (%) = 183.748 (4.32144)
Comm  time (%) = 215.179 (5.06063)
Outpt time (%) = 0.00587109 (0.000138077)
Other time (%) = 3852.03 (90.5929)

Nlocal:    89.15 ave 1274 max 0 min
Histogram: 32 5 1 0 0 0 1 0 0 1
Nghost:    12.95 ave 149 max 0 min
Histogram: 36 0 0 0 1 0 0 1 1 1
Neighs:    11.025 ave 258 max 0 min
Histogram: 37 0 2 0 0 0 0 0 0 1

Total # of neighbors = 441
Ave neighs/atom = 0.123668
Neighbor list builds = 67681
Dangerous builds = 13360
Setting up run at Wed Dec 28 18:55:25 2022

Memory usage per processor = 964.609 Mbytes
    Step    Atoms         KinEng            CPU 
 8333309     3566       0.505304              0 
 8641950     3505     0.50919824      3815.7751 
Loop time of 3815.78 on 40 procs for 308641 steps with 3505 atoms, finish time Wed Dec 28 19:59:01 2022


Pair  time (%) = 1.03194 (0.0270441)
Neigh time (%) = 162.933 (4.26999)
Comm  time (%) = 190.405 (4.98994)
Outpt time (%) = 0.000695877 (1.82368e-05)
Other time (%) = 3461.4 (90.713)

Nlocal:    87.625 ave 1237 max 0 min
Histogram: 32 4 2 0 0 0 1 0 0 1
Nghost:    12.525 ave 159 max 0 min
Histogram: 36 0 0 0 1 1 0 1 0 1
Neighs:    10.05 ave 215 max 0 min
Histogram: 36 1 1 1 0 0 0 0 0 1

Total # of neighbors = 402
Ave neighs/atom = 0.114693
Neighbor list builds = 60027
Dangerous builds = 10608
Setting up run at Wed Dec 28 19:59:01 2022

Memory usage per processor = 964.609 Mbytes
    Step    Atoms         KinEng            CPU 
 8641950     3505     0.50919824              0 
 8950591     3428     0.59050426      3792.5202 
Loop time of 3792.52 on 40 procs for 308641 steps with 3428 atoms, finish time Wed Dec 28 21:02:14 2022


Pair  time (%) = 1.00228 (0.0264278)
Neigh time (%) = 162.339 (4.28051)
Comm  time (%) = 196.112 (5.17101)
Outpt time (%) = 0.00574209 (0.000151406)
Other time (%) = 3433.06 (90.5219)

Nlocal:    85.7 ave 1194 max 0 min
Histogram: 32 4 2 0 0 0 1 0 0 1
Nghost:    11.325 ave 133 max 0 min
Histogram: 36 0 0 0 0 2 0 0 1 1
Neighs:    9.675 ave 233 max 0 min
Histogram: 36 1 2 0 0 0 0 0 0 1

Total # of neighbors = 387
Ave neighs/atom = 0.112894
Neighbor list builds = 59769
Dangerous builds = 7951
Setting up run at Wed Dec 28 21:02:14 2022

Memory usage per processor = 964.609 Mbytes
    Step    Atoms         KinEng            CPU 
 8950591     3428     0.59050426              0 
 9259232     3349     0.46322511      3695.3813 
Loop time of 3695.38 on 40 procs for 308641 steps with 3349 atoms, finish time Wed Dec 28 22:03:49 2022


Pair  time (%) = 0.971699 (0.0262949)
Neigh time (%) = 146.969 (3.97711)
Comm  time (%) = 167.652 (4.53681)
Outpt time (%) = 0.000596685 (1.61468e-05)
Other time (%) = 3379.79 (91.4598)

Nlocal:    83.725 ave 1176 max 0 min
Histogram: 32 4 1 1 0 1 0 0 0 1
Nghost:    10.625 ave 134 max 0 min
Histogram: 36 0 0 0 1 0 1 1 0 1
Neighs:    7.875 ave 177 max 0 min
Histogram: 37 0 1 1 0 0 0 0 0 1

Total # of neighbors = 315
Ave neighs/atom = 0.0940579
Neighbor list builds = 54020
Dangerous builds = 8880
Setting up run at Wed Dec 28 22:03:49 2022

Memory usage per processor = 964.609 Mbytes
    Step    Atoms         KinEng            CPU 
 9259232     3349     0.46322511              0 
 9567873     3284     0.73809718      3795.2441 
Loop time of 3795.24 on 40 procs for 308641 steps with 3284 atoms, finish time Wed Dec 28 23:07:04 2022


Pair  time (%) = 0.974575 (0.0256788)
Neigh time (%) = 174.581 (4.6)
Comm  time (%) = 199.535 (5.2575)
Outpt time (%) = 0.000477999 (1.25947e-05)
Other time (%) = 3420.15 (90.1168)

Nlocal:    82.1 ave 1147 max 0 min
Histogram: 32 3 3 0 0 1 0 0 0 1
Nghost:    10.6 ave 129 max 0 min
Histogram: 36 0 0 0 1 1 0 1 0 1
Neighs:    7.25 ave 146 max 0 min
Histogram: 35 2 1 1 0 0 0 0 0 1

Total # of neighbors = 290
Ave neighs/atom = 0.0883069
Neighbor list builds = 64065
Dangerous builds = 17415
Setting up run at Wed Dec 28 23:07:04 2022

Memory usage per processor = 964.609 Mbytes
    Step    Atoms         KinEng            CPU 
 9567873     3284     0.73809718              0 
 9876514     3227     0.83087168      3850.3896 
Loop time of 3850.39 on 40 procs for 308641 steps with 3227 atoms, finish time Thu Dec 29 00:11:15 2022


Pair  time (%) = 0.946197 (0.0245741)
Neigh time (%) = 183.116 (4.75578)
Comm  time (%) = 207.629 (5.3924)
Outpt time (%) = 0.000593757 (1.54207e-05)
Other time (%) = 3458.7 (89.8272)

Nlocal:    80.675 ave 1093 max 0 min
Histogram: 32 4 2 0 0 1 0 0 0 1
Nghost:    9.575 ave 118 max 0 min
Histogram: 36 0 0 0 1 0 1 1 0 1
Neighs:    6.65 ave 141 max 0 min
Histogram: 36 1 1 1 0 0 0 0 0 1

Total # of neighbors = 266
Ave neighs/atom = 0.0824295
Neighbor list builds = 67209
Dangerous builds = 7703
Setting up run at Thu Dec 29 00:11:15 2022

Memory usage per processor = 964.609 Mbytes
    Step    Atoms         KinEng            CPU 
 9876514     3227     0.83087168              0 
10185155     3143     0.95340592      3918.0588 
Loop time of 3918.06 on 40 procs for 308641 steps with 3143 atoms, finish time Thu Dec 29 01:16:33 2022


Pair  time (%) = 0.963057 (0.0245799)
Neigh time (%) = 203.215 (5.18661)
Comm  time (%) = 237.609 (6.06447)
Outpt time (%) = 0.000595034 (1.5187e-05)
Other time (%) = 3476.27 (88.7243)

Nlocal:    78.575 ave 977 max 0 min
Histogram: 32 3 2 1 0 0 1 0 0 1
Nghost:    10.725 ave 123 max 0 min
Histogram: 35 1 0 0 1 1 0 0 0 2
Neighs:    5.825 ave 109 max 0 min
Histogram: 36 0 2 1 0 0 0 0 0 1

Total # of neighbors = 233
Ave neighs/atom = 0.074133
Neighbor list builds = 74603
Dangerous builds = 13911
Setting up run at Thu Dec 29 01:16:33 2022

Memory usage per processor = 964.609 Mbytes
    Step    Atoms         KinEng            CPU 
10185155     3143     0.95340592              0 
10493796     3049      1.3366338      3840.8245 
Loop time of 3840.82 on 40 procs for 308641 steps with 3049 atoms, finish time Thu Dec 29 02:20:34 2022


Pair  time (%) = 0.936984 (0.0243954)
Neigh time (%) = 185.717 (4.83534)
Comm  time (%) = 209.466 (5.45367)
Outpt time (%) = 0.000633814 (1.6502e-05)
Other time (%) = 3444.7 (89.6866)

Nlocal:    76.225 ave 912 max 0 min
Histogram: 32 3 1 2 0 0 1 0 0 1
Nghost:    9.3 ave 109 max 0 min
Histogram: 36 0 0 0 1 1 0 0 0 2
Neighs:    4.9 ave 75 max 0 min
Histogram: 33 3 0 3 0 0 0 0 0 1

Total # of neighbors = 196
Ave neighs/atom = 0.0642834
Neighbor list builds = 68220
Dangerous builds = 10317
Setting up run at Thu Dec 29 02:20:34 2022

Memory usage per processor = 964.609 Mbytes
    Step    Atoms         KinEng            CPU 
10493796     3049      1.3366338              0 
10802437     2969     0.91217113      3939.5888 
Loop time of 3939.61 on 40 procs for 308641 steps with 2969 atoms, finish time Thu Dec 29 03:26:14 2022


Pair  time (%) = 0.938302 (0.0238171)
Neigh time (%) = 211.516 (5.36898)
Comm  time (%) = 241.381 (6.12702)
Outpt time (%) = 0.0155382 (0.000394409)
Other time (%) = 3485.76 (88.4798)

Nlocal:    74.225 ave 851 max 0 min
Histogram: 32 1 4 1 0 0 0 1 0 1
Nghost:    9.925 ave 97 max 0 min
Histogram: 33 3 0 0 0 1 0 0 1 2
Neighs:    4.65 ave 58 max 0 min
Histogram: 32 1 2 3 0 0 1 0 0 1

Total # of neighbors = 186
Ave neighs/atom = 0.0626474
Neighbor list builds = 77640
Dangerous builds = 12048
Setting up run at Thu Dec 29 03:26:14 2022

Memory usage per processor = 964.609 Mbytes
    Step    Atoms         KinEng            CPU 
10802437     2969     0.91217113              0 
11111078     2887     0.98291445      3830.5026 
Loop time of 3830.5 on 40 procs for 308641 steps with 2887 atoms, finish time Thu Dec 29 04:30:04 2022


Pair  time (%) = 0.901012 (0.023522)
Neigh time (%) = 185.098 (4.83222)
Comm  time (%) = 215.408 (5.62348)
Outpt time (%) = 0.000559399 (1.46038e-05)
Other time (%) = 3429.1 (89.5208)

Nlocal:    72.175 ave 782 max 0 min
Histogram: 32 0 4 2 0 0 0 1 0 1
Nghost:    8.975 ave 102 max 0 min
Histogram: 36 0 0 1 0 0 1 1 0 1
Neighs:    4.125 ave 48 max 0 min
Histogram: 32 3 1 0 0 1 2 0 0 1

Total # of neighbors = 165
Ave neighs/atom = 0.0571528
Neighbor list builds = 67965
Dangerous builds = 8149
Setting up run at Thu Dec 29 04:30:05 2022

Memory usage per processor = 964.609 Mbytes
    Step    Atoms         KinEng            CPU 
11111078     2887     0.98291445              0 
11419719     2805      1.8234016      3887.1706 
Loop time of 3887.17 on 40 procs for 308641 steps with 2805 atoms, finish time Thu Dec 29 05:34:52 2022


Pair  time (%) = 0.904832 (0.0232774)
Neigh time (%) = 197.271 (5.07491)
Comm  time (%) = 227.767 (5.85944)
Outpt time (%) = 0.000496852 (1.27818e-05)
Other time (%) = 3461.23 (89.0424)

Nlocal:    70.125 ave 720 max 0 min
Histogram: 32 0 3 2 1 0 0 1 0 1
Nghost:    9.175 ave 103 max 0 min
Histogram: 35 1 0 1 0 0 1 1 0 1
Neighs:    4.25 ave 48 max 0 min
Histogram: 32 1 2 1 1 1 1 0 0 1

Total # of neighbors = 170
Ave neighs/atom = 0.0606061
Neighbor list builds = 72405
Dangerous builds = 4810
Setting up run at Thu Dec 29 05:34:52 2022

Memory usage per processor = 964.609 Mbytes
    Step    Atoms         KinEng            CPU 
11419719     2805      1.8234016              0 
11728360     2728       1.240872      3895.9734 
Loop time of 3895.97 on 40 procs for 308641 steps with 2728 atoms, finish time Thu Dec 29 06:39:48 2022


Pair  time (%) = 0.912708 (0.023427)
Neigh time (%) = 204.883 (5.25883)
Comm  time (%) = 233.885 (6.00325)
Outpt time (%) = 0.000562369 (1.44346e-05)
Other time (%) = 3456.29 (88.7145)

Nlocal:    68.2 ave 676 max 0 min
Histogram: 32 0 3 2 1 0 0 1 0 1
Nghost:    7.8 ave 88 max 0 min
Histogram: 36 0 0 0 1 1 0 0 1 1
Neighs:    3.35 ave 36 max 0 min
Histogram: 32 2 0 1 2 2 0 0 0 1

Total # of neighbors = 134
Ave neighs/atom = 0.0491202
Neighbor list builds = 75185
Dangerous builds = 7875
Setting up run at Thu Dec 29 06:39:48 2022

Memory usage per processor = 964.609 Mbytes
    Step    Atoms         KinEng            CPU 
11728360     2728       1.240872              0 
12037001     2630     0.93866723      3743.7628 
Loop time of 3743.76 on 40 procs for 308641 steps with 2630 atoms, finish time Thu Dec 29 07:42:12 2022


Pair  time (%) = 0.857802 (0.0229128)
Neigh time (%) = 168.801 (4.50886)
Comm  time (%) = 200.316 (5.35065)
Outpt time (%) = 0.000505588 (1.35048e-05)
Other time (%) = 3373.79 (90.1176)

Nlocal:    65.75 ave 595 max 0 min
Histogram: 31 1 1 3 2 0 0 0 0 2
Nghost:    8.125 ave 94 max 0 min
Histogram: 34 2 0 0 1 1 1 0 0 1
Neighs:    2.95 ave 24 max 0 min
Histogram: 32 0 2 0 1 1 0 2 1 1

Total # of neighbors = 118
Ave neighs/atom = 0.0448669
Neighbor list builds = 61897
Dangerous builds = 8221
Setting up run at Thu Dec 29 07:42:12 2022

Memory usage per processor = 964.609 Mbytes
    Step    Atoms         KinEng            CPU 
12037001     2630     0.93866723              0 
12345642     2555      1.1606448      3905.2865 
Loop time of 3905.29 on 40 procs for 308641 steps with 2555 atoms, finish time Thu Dec 29 08:47:17 2022


Pair  time (%) = 0.875414 (0.0224161)
Neigh time (%) = 204.7 (5.24161)
Comm  time (%) = 234.304 (5.99966)
Outpt time (%) = 0.000565346 (1.44764e-05)
Other time (%) = 3465.41 (88.7363)

Nlocal:    63.875 ave 564 max 0 min
Histogram: 31 1 1 3 2 0 0 0 0 2
Nghost:    8 ave 89 max 0 min
Histogram: 32 4 0 0 0 2 0 1 0 1
Neighs:    2.95 ave 26 max 0 min
Histogram: 32 0 1 1 0 2 3 0 0 1

Total # of neighbors = 118
Ave neighs/atom = 0.046184
Neighbor list builds = 75053
Dangerous builds = 12072
Setting up run at Thu Dec 29 08:47:17 2022

Memory usage per processor = 964.609 Mbytes
    Step    Atoms         KinEng            CPU 
12345642     2555      1.1606448              0 
12654283     2474      1.3232775      3865.5037 
Loop time of 3865.5 on 40 procs for 308641 steps with 2474 atoms, finish time Thu Dec 29 09:51:43 2022


Pair  time (%) = 0.860008 (0.0222483)
Neigh time (%) = 193.958 (5.01767)
Comm  time (%) = 217.453 (5.62547)
Outpt time (%) = 0.000498151 (1.28871e-05)
Other time (%) = 3453.23 (89.3346)

Nlocal:    61.85 ave 499 max 0 min
Histogram: 30 2 0 2 3 1 0 0 0 2
Nghost:    7.575 ave 92 max 0 min
Histogram: 36 0 0 1 0 1 0 1 0 1
Neighs:    2.675 ave 32 max 0 min
Histogram: 32 3 1 1 0 0 2 0 0 1

Total # of neighbors = 107
Ave neighs/atom = 0.0432498
Neighbor list builds = 71122
Dangerous builds = 8708
Setting up run at Thu Dec 29 09:51:43 2022

Memory usage per processor = 964.609 Mbytes
    Step    Atoms         KinEng            CPU 
12654283     2474      1.3232775              0 
12962924     2387       1.274728      3936.1889 
Loop time of 3936.19 on 40 procs for 308641 steps with 2387 atoms, finish time Thu Dec 29 10:57:19 2022


Pair  time (%) = 0.873653 (0.0221954)
Neigh time (%) = 212.526 (5.39927)
Comm  time (%) = 232.642 (5.91034)
Outpt time (%) = 0.000498227 (1.26576e-05)
Other time (%) = 3490.15 (88.6682)

Nlocal:    59.675 ave 477 max 0 min
Histogram: 31 1 0 3 1 2 0 0 0 2
Nghost:    7.425 ave 81 max 0 min
Histogram: 32 4 0 1 0 1 0 0 0 2
Neighs:    2.6 ave 21 max 0 min
Histogram: 32 1 1 0 1 1 1 0 1 2

Total # of neighbors = 104
Ave neighs/atom = 0.0435693
Neighbor list builds = 77923
Dangerous builds = 13801
Setting up run at Thu Dec 29 10:57:19 2022

Memory usage per processor = 964.609 Mbytes
    Step    Atoms         KinEng            CPU 
12962924     2387       1.274728              0 
13271565     2308      2.7473368      3847.8098 
Loop time of 3847.81 on 40 procs for 308641 steps with 2308 atoms, finish time Thu Dec 29 12:01:27 2022


Pair  time (%) = 0.853825 (0.0221899)
Neigh time (%) = 195.235 (5.07392)
Comm  time (%) = 200.513 (5.2111)
Outpt time (%) = 0.000421167 (1.09456e-05)
Other time (%) = 3451.21 (89.6928)

Nlocal:    57.7 ave 448 max 0 min
Histogram: 31 1 0 2 1 3 0 0 0 2
Nghost:    6.375 ave 69 max 0 min
Histogram: 32 4 0 0 1 1 0 0 1 1
Neighs:    2.425 ave 22 max 0 min
Histogram: 32 1 0 2 1 1 1 0 0 2

Total # of neighbors = 97
Ave neighs/atom = 0.0420277
Neighbor list builds = 71564
Dangerous builds = 12013
Setting up run at Thu Dec 29 12:01:27 2022

Memory usage per processor = 964.609 Mbytes
    Step    Atoms         KinEng            CPU 
13271565     2308      2.7473368              0 
13580206     2238      1.1616309      3870.1555 
Loop time of 3870.16 on 40 procs for 308641 steps with 2238 atoms, finish time Thu Dec 29 13:05:57 2022


Pair  time (%) = 0.844938 (0.0218321)
Neigh time (%) = 197.379 (5.10003)
Comm  time (%) = 212.938 (5.50204)
Outpt time (%) = 0.000530129 (1.36979e-05)
Other time (%) = 3458.99 (89.3761)

Nlocal:    55.95 ave 455 max 0 min
Histogram: 31 1 1 2 1 1 1 0 1 1
Nghost:    6.175 ave 68 max 0 min
Histogram: 32 4 0 1 0 1 0 1 0 1
Neighs:    2.2 ave 25 max 0 min
Histogram: 32 2 2 0 1 1 0 1 0 1

Total # of neighbors = 88
Ave neighs/atom = 0.0393208
Neighbor list builds = 72417
Dangerous builds = 6382
Setting up run at Thu Dec 29 13:05:57 2022

Memory usage per processor = 964.609 Mbytes
    Step    Atoms         KinEng            CPU 
13580206     2238      1.1616309              0 
13888847     2183      1.0245152      3818.2223 
Loop time of 3818.22 on 40 procs for 308641 steps with 2183 atoms, finish time Thu Dec 29 14:09:36 2022


Pair  time (%) = 0.815317 (0.0213533)
Neigh time (%) = 181.597 (4.75605)
Comm  time (%) = 188.441 (4.93531)
Outpt time (%) = 0.00582853 (0.00015265)
Other time (%) = 3447.36 (90.2871)

Nlocal:    54.575 ave 440 max 0 min
Histogram: 31 1 2 1 1 1 0 1 0 2
Nghost:    6.025 ave 64 max 0 min
Histogram: 33 3 0 0 1 1 0 0 1 1
Neighs:    2.225 ave 33 max 0 min
Histogram: 33 1 3 2 0 0 0 0 0 1

Total # of neighbors = 89
Ave neighs/atom = 0.0407696
Neighbor list builds = 66630
Dangerous builds = 4272
Setting up run at Thu Dec 29 14:09:36 2022

Memory usage per processor = 964.609 Mbytes
    Step    Atoms         KinEng            CPU 
13888847     2183      1.0245152              0 
14197488     2118      1.0271142      3925.2963 
Loop time of 3925.3 on 40 procs for 308641 steps with 2118 atoms, finish time Thu Dec 29 15:15:01 2022


Pair  time (%) = 0.833434 (0.0212324)
Neigh time (%) = 212.412 (5.41136)
Comm  time (%) = 225.656 (5.74876)
Outpt time (%) = 0.000536268 (1.36619e-05)
Other time (%) = 3486.4 (88.8186)

Nlocal:    52.95 ave 421 max 0 min
Histogram: 31 1 0 3 1 1 1 0 1 1
Nghost:    6.3 ave 75 max 0 min
Histogram: 34 2 0 1 1 0 0 1 0 1
Neighs:    2.625 ave 37 max 0 min
Histogram: 33 2 2 1 0 0 1 0 0 1

Total # of neighbors = 105
Ave neighs/atom = 0.0495751
Neighbor list builds = 77945
Dangerous builds = 7323
Setting up run at Thu Dec 29 15:15:01 2022

Memory usage per processor = 964.609 Mbytes
    Step    Atoms         KinEng            CPU 
14197488     2118      1.0271142              0 
14506129     2057      1.0795651      3842.5812 
Loop time of 3842.58 on 40 procs for 308641 steps with 2057 atoms, finish time Thu Dec 29 16:19:04 2022


Pair  time (%) = 0.809226 (0.0210594)
Neigh time (%) = 190.713 (4.96315)
Comm  time (%) = 197.464 (5.13882)
Outpt time (%) = 0.000518752 (1.35001e-05)
Other time (%) = 3453.6 (89.877)

Nlocal:    51.425 ave 408 max 0 min
Histogram: 31 1 0 3 1 1 0 1 1 1
Nghost:    5.625 ave 76 max 0 min
Histogram: 32 4 0 2 0 1 0 0 0 1
Neighs:    2.275 ave 33 max 0 min
Histogram: 33 2 1 2 0 1 0 0 0 1

Total # of neighbors = 91
Ave neighs/atom = 0.0442392
Neighbor list builds = 70017
Dangerous builds = 6744
Setting up run at Thu Dec 29 16:19:04 2022

Memory usage per processor = 964.609 Mbytes
    Step    Atoms         KinEng            CPU 
14506129     2057      1.0795651              0 
14814770     2003       1.460936      3844.7649 
Loop time of 3844.77 on 40 procs for 308641 steps with 2003 atoms, finish time Thu Dec 29 17:23:09 2022


Pair  time (%) = 0.817013 (0.02125)
Neigh time (%) = 195.189 (5.07674)
Comm  time (%) = 195.983 (5.09739)
Outpt time (%) = 0.000529367 (1.37685e-05)
Other time (%) = 3452.78 (89.8046)

Nlocal:    50.075 ave 384 max 0 min
Histogram: 32 0 0 0 4 2 0 0 0 2
Nghost:    5.425 ave 55 max 0 min
Histogram: 34 2 0 0 0 1 1 0 0 2
Neighs:    1.925 ave 18 max 0 min
Histogram: 32 0 0 2 1 4 0 0 0 1

Total # of neighbors = 77
Ave neighs/atom = 0.0384423
Neighbor list builds = 71691
Dangerous builds = 6146
Setting up run at Thu Dec 29 17:23:09 2022

Memory usage per processor = 964.609 Mbytes
    Step    Atoms         KinEng            CPU 
14814770     2003       1.460936              0 
15123411     1952      1.2302904      3780.9179 
Loop time of 3780.92 on 40 procs for 308641 steps with 1952 atoms, finish time Thu Dec 29 18:26:10 2022


Pair  time (%) = 0.797416 (0.0210905)
Neigh time (%) = 180.117 (4.76384)
Comm  time (%) = 183.005 (4.84021)
Outpt time (%) = 0.000546874 (1.4464e-05)
Other time (%) = 3417 (90.3748)

Nlocal:    48.8 ave 370 max 0 min
Histogram: 31 1 0 0 4 1 1 0 0 2
Nghost:    5.15 ave 57 max 0 min
Histogram: 33 3 0 0 2 0 0 1 0 1
Neighs:    1.65 ave 18 max 0 min
Histogram: 32 1 0 4 0 2 0 0 0 1

Total # of neighbors = 66
Ave neighs/atom = 0.0338115
Neighbor list builds = 66127
Dangerous builds = 8487
Setting up run at Thu Dec 29 18:26:10 2022

Memory usage per processor = 964.609 Mbytes
    Step    Atoms         KinEng            CPU 
15123411     1952      1.2302904              0 
15432052     1897     0.97634464         3810.3 
Loop time of 3810.3 on 40 procs for 308641 steps with 1897 atoms, finish time Thu Dec 29 19:29:40 2022


Pair  time (%) = 0.804561 (0.0211154)
Neigh time (%) = 188.203 (4.93933)
Comm  time (%) = 203.931 (5.35209)
Outpt time (%) = 0.000502232 (1.31809e-05)
Other time (%) = 3417.36 (89.6874)

Nlocal:    47.425 ave 361 max 0 min
Histogram: 31 1 0 1 2 3 0 0 0 2
Nghost:    5.35 ave 55 max 0 min
Histogram: 30 6 0 0 1 1 0 0 1 1
Neighs:    1.85 ave 13 max 0 min
Histogram: 32 0 0 1 0 1 2 1 1 2

Total # of neighbors = 74
Ave neighs/atom = 0.039009
Neighbor list builds = 69132
Dangerous builds = 8189
Setting up run at Thu Dec 29 19:29:40 2022

Memory usage per processor = 964.609 Mbytes
    Step    Atoms         KinEng            CPU 
15432052     1897     0.97634464              0 
15740693     1839      1.1922298      3774.4784 
Loop time of 3774.48 on 40 procs for 308641 steps with 1839 atoms, finish time Thu Dec 29 20:32:35 2022


Pair  time (%) = 0.795195 (0.0210677)
Neigh time (%) = 181.605 (4.8114)
Comm  time (%) = 182.125 (4.82517)
Outpt time (%) = 0.000531734 (1.40876e-05)
Other time (%) = 3409.95 (90.3424)

Nlocal:    45.975 ave 353 max 0 min
Histogram: 31 1 0 1 1 4 0 0 0 2
Nghost:    4.775 ave 47 max 0 min
Histogram: 32 4 0 0 1 1 0 0 1 1
Neighs:    1.65 ave 13 max 0 min
Histogram: 32 0 1 2 0 0 1 0 3 1

Total # of neighbors = 66
Ave neighs/atom = 0.0358891
Neighbor list builds = 66706
Dangerous builds = 8249
Setting up run at Thu Dec 29 20:32:35 2022

Memory usage per processor = 964.609 Mbytes
    Step    Atoms         KinEng            CPU 
15740693     1839      1.1922298              0 
16049334     1786      1.0256811      3789.4089 
Loop time of 3789.41 on 40 procs for 308641 steps with 1786 atoms, finish time Thu Dec 29 21:35:44 2022


Pair  time (%) = 0.78765 (0.0207856)
Neigh time (%) = 183.704 (4.84783)
Comm  time (%) = 189.488 (5.00046)
Outpt time (%) = 0.00581587 (0.000153477)
Other time (%) = 3415.42 (90.1308)

Nlocal:    44.65 ave 330 max 0 min
Histogram: 31 1 0 0 3 2 1 0 0 2
Nghost:    4.125 ave 42 max 0 min
Histogram: 33 3 0 0 0 2 0 1 0 1
Neighs:    1.475 ave 15 max 0 min
Histogram: 32 2 1 0 2 0 1 0 1 1

Total # of neighbors = 59
Ave neighs/atom = 0.0330347
Neighbor list builds = 67451
Dangerous builds = 7039
Setting up run at Thu Dec 29 21:35:44 2022

Memory usage per processor = 964.609 Mbytes
    Step    Atoms         KinEng            CPU 
16049334     1786      1.0256811              0 
16357975     1727      1.2957115      4007.3552 
Loop time of 4007.37 on 40 procs for 308641 steps with 1727 atoms, finish time Thu Dec 29 22:42:32 2022


Pair  time (%) = 0.826312 (0.0206198)
Neigh time (%) = 234.264 (5.84583)
Comm  time (%) = 228.799 (5.70947)
Outpt time (%) = 0.0109398 (0.000272993)
Other time (%) = 3543.47 (88.4238)

Nlocal:    43.175 ave 307 max 0 min
Histogram: 31 1 0 0 1 4 1 0 0 2
Nghost:    4.075 ave 44 max 0 min
Histogram: 31 5 0 1 0 1 0 1 0 1
Neighs:    1.4 ave 13 max 0 min
Histogram: 32 0 0 3 2 0 2 0 0 1

Total # of neighbors = 56
Ave neighs/atom = 0.0324262
Neighbor list builds = 86053
Dangerous builds = 8032
Setting up run at Thu Dec 29 22:42:32 2022

Memory usage per processor = 964.609 Mbytes
    Step    Atoms         KinEng            CPU 
16357975     1727      1.2957115              0 
16666616     1673      1.0607426      4266.9886 
Loop time of 4266.99 on 40 procs for 308641 steps with 1673 atoms, finish time Thu Dec 29 23:53:39 2022


Pair  time (%) = 0.847504 (0.0198619)
Neigh time (%) = 294.761 (6.90793)
Comm  time (%) = 302.686 (7.09366)
Outpt time (%) = 0.000568473 (1.33226e-05)
Other time (%) = 3668.69 (85.9785)

Nlocal:    41.825 ave 298 max 0 min
Histogram: 30 2 0 0 3 0 3 0 1 1
Nghost:    4.2 ave 36 max 0 min
Histogram: 29 5 2 0 0 0 2 0 1 1
Neighs:    1.225 ave 14 max 0 min
Histogram: 32 2 1 1 1 1 0 1 0 1

Total # of neighbors = 49
Ave neighs/atom = 0.0292887
Neighbor list builds = 108094
Dangerous builds = 6911
Setting up run at Thu Dec 29 23:53:39 2022

Memory usage per processor = 964.609 Mbytes
    Step    Atoms         KinEng            CPU 
16666616     1673      1.0607426              0 
16975257     1619     0.89149775      4037.8893 
Loop time of 4037.89 on 40 procs for 308641 steps with 1619 atoms, finish time Fri Dec 30 01:00:57 2022


Pair  time (%) = 0.801285 (0.0198442)
Neigh time (%) = 238.159 (5.89812)
Comm  time (%) = 241.469 (5.98007)
Outpt time (%) = 0.00582599 (0.000144283)
Other time (%) = 3557.45 (88.1018)

Nlocal:    40.475 ave 276 max 0 min
Histogram: 30 2 0 1 1 1 3 0 0 2
Nghost:    3.075 ave 30 max 0 min
Histogram: 29 7 0 0 0 2 0 0 1 1
Neighs:    1.55 ave 16 max 0 min
Histogram: 32 1 0 4 0 0 1 1 0 1

Total # of neighbors = 62
Ave neighs/atom = 0.0382952
Neighbor list builds = 87555
Dangerous builds = 8701
Setting up run at Fri Dec 30 01:00:57 2022

Memory usage per processor = 964.609 Mbytes
    Step    Atoms         KinEng            CPU 
16975257     1619     0.89149775              0 
17283898     1562       1.427611      3771.4373 
Loop time of 3771.44 on 40 procs for 308641 steps with 1562 atoms, finish time Fri Dec 30 02:03:49 2022


Pair  time (%) = 0.764587 (0.0202731)
Neigh time (%) = 177.92 (4.71757)
Comm  time (%) = 162.23 (4.30155)
Outpt time (%) = 0.00055731 (1.47771e-05)
Other time (%) = 3430.53 (90.9606)

Nlocal:    39.05 ave 275 max 0 min
Histogram: 31 1 0 0 1 4 1 0 1 1
Nghost:    3.15 ave 34 max 0 min
Histogram: 31 3 3 0 1 0 0 1 0 1
Neighs:    1.175 ave 14 max 0 min
Histogram: 33 0 4 0 1 0 0 0 0 2

Total # of neighbors = 47
Ave neighs/atom = 0.0300896
Neighbor list builds = 65345
Dangerous builds = 7395
Setting up run at Fri Dec 30 02:03:49 2022

Memory usage per processor = 964.609 Mbytes
    Step    Atoms         KinEng            CPU 
17283898     1562       1.427611              0 
17592539     1515     0.87578916      3686.4591 
Loop time of 3686.46 on 40 procs for 308641 steps with 1515 atoms, finish time Fri Dec 30 03:05:15 2022


Pair  time (%) = 0.736267 (0.0199722)
Neigh time (%) = 159.963 (4.33921)
Comm  time (%) = 158.296 (4.29399)
Outpt time (%) = 0.000481276 (1.30552e-05)
Other time (%) = 3367.46 (91.3468)

Nlocal:    37.875 ave 264 max 0 min
Histogram: 31 1 0 0 0 5 1 0 1 1
Nghost:    3.725 ave 33 max 0 min
Histogram: 28 7 1 1 0 0 0 1 1 1
Neighs:    0.775 ave 11 max 0 min
Histogram: 35 1 1 1 0 0 0 0 0 2

Total # of neighbors = 31
Ave neighs/atom = 0.020462
Neighbor list builds = 58817
Dangerous builds = 3596
Setting up run at Fri Dec 30 03:05:15 2022

Memory usage per processor = 964.609 Mbytes
    Step    Atoms         KinEng            CPU 
17592539     1515     0.87578916              0 
17901180     1466      1.0164745      3760.9539 
Loop time of 3760.95 on 40 procs for 308641 steps with 1466 atoms, finish time Fri Dec 30 04:07:56 2022


Pair  time (%) = 0.751857 (0.0199911)
Neigh time (%) = 177.931 (4.73101)
Comm  time (%) = 187.839 (4.99444)
Outpt time (%) = 0.00577096 (0.000153444)
Other time (%) = 3394.43 (90.2544)

Nlocal:    36.65 ave 262 max 0 min
Histogram: 31 1 0 1 1 3 0 0 2 1
Nghost:    3.575 ave 28 max 0 min
Histogram: 28 5 1 2 0 1 0 2 0 1
Neighs:    1.425 ave 30 max 0 min
Histogram: 36 1 1 0 1 0 0 0 0 1

Total # of neighbors = 57
Ave neighs/atom = 0.0388813
Neighbor list builds = 65392
Dangerous builds = 10174
Setting up run at Fri Dec 30 04:07:56 2022

Memory usage per processor = 964.609 Mbytes
    Step    Atoms         KinEng            CPU 
17901180     1466      1.0164745              0 
18209821     1430     0.96046341      3937.9857 
Loop time of 3937.99 on 40 procs for 308641 steps with 1430 atoms, finish time Fri Dec 30 05:13:34 2022


Pair  time (%) = 0.775037 (0.019681)
Neigh time (%) = 219.099 (5.56372)
Comm  time (%) = 207.903 (5.27943)
Outpt time (%) = 0.0056429 (0.000143294)
Other time (%) = 3510.2 (89.137)

Nlocal:    35.75 ave 255 max 0 min
Histogram: 32 0 0 1 1 2 2 0 1 1
Nghost:    3.1 ave 26 max 0 min
Histogram: 30 4 0 2 0 0 1 0 2 1
Neighs:    1.125 ave 19 max 0 min
Histogram: 35 1 1 1 0 1 0 0 0 1

Total # of neighbors = 45
Ave neighs/atom = 0.0314685
Neighbor list builds = 80499
Dangerous builds = 6253
Setting up run at Fri Dec 30 05:13:35 2022

Memory usage per processor = 964.609 Mbytes
    Step    Atoms         KinEng            CPU 
18209821     1430     0.96046341              0 
18518462     1388     0.88600219      3888.4941 
Loop time of 3888.49 on 40 procs for 308641 steps with 1388 atoms, finish time Fri Dec 30 06:18:23 2022


Pair  time (%) = 0.747621 (0.0192265)
Neigh time (%) = 206.395 (5.30785)
Comm  time (%) = 206.214 (5.30317)
Outpt time (%) = 0.00592178 (0.00015229)
Other time (%) = 3475.13 (89.3696)

Nlocal:    34.7 ave 235 max 0 min
Histogram: 32 0 0 1 1 0 1 3 0 2
Nghost:    3.35 ave 32 max 0 min
Histogram: 32 2 1 1 1 0 1 0 1 1
Neighs:    0.975 ave 10 max 0 min
Histogram: 32 0 3 1 0 0 1 2 0 1

Total # of neighbors = 39
Ave neighs/atom = 0.028098
Neighbor list builds = 75856
Dangerous builds = 1831
Setting up run at Fri Dec 30 06:18:23 2022

Memory usage per processor = 964.609 Mbytes
    Step    Atoms         KinEng            CPU 
18518462     1388     0.88600219              0 
18827103     1340     0.84511467      3829.3912 
Loop time of 3829.4 on 40 procs for 308641 steps with 1340 atoms, finish time Fri Dec 30 07:22:13 2022


Pair  time (%) = 0.750849 (0.0196075)
Neigh time (%) = 194.58 (5.08122)
Comm  time (%) = 198.264 (5.17741)
Outpt time (%) = 0.000514742 (1.34419e-05)
Other time (%) = 3435.8 (89.7217)

Nlocal:    33.5 ave 217 max 0 min
Histogram: 31 1 0 0 0 2 2 2 0 2
Nghost:    3.475 ave 39 max 0 min
Histogram: 28 5 4 0 2 0 0 0 0 1
Neighs:    1.175 ave 14 max 0 min
Histogram: 34 0 1 2 0 1 1 0 0 1

Total # of neighbors = 47
Ave neighs/atom = 0.0350746
Neighbor list builds = 71554
Dangerous builds = 15914
Setting up run at Fri Dec 30 07:22:13 2022

Memory usage per processor = 964.609 Mbytes
    Step    Atoms         KinEng            CPU 
18827103     1340     0.84511467              0 
19135744     1304     0.74403111      3712.1568 
Loop time of 3712.16 on 40 procs for 308641 steps with 1304 atoms, finish time Fri Dec 30 08:24:05 2022


Pair  time (%) = 0.72139 (0.0194332)
Neigh time (%) = 164.464 (4.43041)
Comm  time (%) = 174.49 (4.70051)
Outpt time (%) = 0.000522593 (1.40779e-05)
Other time (%) = 3372.48 (90.8496)

Nlocal:    32.6 ave 205 max 0 min
Histogram: 32 0 0 0 0 2 2 2 0 2
Nghost:    3.075 ave 26 max 0 min
Histogram: 29 3 3 2 0 1 0 0 1 1
Neighs:    0.725 ave 11 max 0 min
Histogram: 34 1 2 1 1 0 0 0 0 1

Total # of neighbors = 29
Ave neighs/atom = 0.0222393
Neighbor list builds = 60571
Dangerous builds = 3748
Setting up run at Fri Dec 30 08:24:05 2022

Memory usage per processor = 964.609 Mbytes
    Step    Atoms         KinEng            CPU 
19135744     1304     0.74403111              0 
19444385     1268     0.78201077      3618.6174 
Loop time of 3618.62 on 40 procs for 308641 steps with 1268 atoms, finish time Fri Dec 30 09:24:24 2022


Pair  time (%) = 0.705892 (0.0195072)
Neigh time (%) = 144.22 (3.98551)
Comm  time (%) = 144.809 (4.00178)
Outpt time (%) = 0.000529973 (1.46457e-05)
Other time (%) = 3328.88 (91.9932)

Nlocal:    31.7 ave 206 max 0 min
Histogram: 31 1 0 0 1 1 3 0 1 2
Nghost:    2.95 ave 28 max 0 min
Histogram: 28 6 2 1 0 1 0 0 1 1
Neighs:    0.7 ave 8 max 0 min
Histogram: 32 2 2 0 0 2 0 1 0 1

Total # of neighbors = 28
Ave neighs/atom = 0.022082
Neighbor list builds = 53157
Dangerous builds = 6189
Setting up run at Fri Dec 30 09:24:24 2022

Memory usage per processor = 964.609 Mbytes
    Step    Atoms         KinEng            CPU 
19444385     1268     0.78201077              0 
19753026     1229     0.69729481      3666.7512 
Loop time of 3666.75 on 40 procs for 308641 steps with 1229 atoms, finish time Fri Dec 30 10:25:30 2022


Pair  time (%) = 0.718931 (0.0196068)
Neigh time (%) = 155.327 (4.23609)
Comm  time (%) = 145.732 (3.97441)
Outpt time (%) = 0.000503506 (1.37317e-05)
Other time (%) = 3364.97 (91.7699)

Nlocal:    30.725 ave 194 max 0 min
Histogram: 32 0 0 0 0 3 0 3 0 2
Nghost:    2.9 ave 29 max 0 min
Histogram: 28 6 2 2 0 0 0 0 1 1
Neighs:    0.725 ave 9 max 0 min
Histogram: 33 3 0 0 0 2 0 1 0 1

Total # of neighbors = 29
Ave neighs/atom = 0.0235964
Neighbor list builds = 57285
Dangerous builds = 1580
Setting up run at Fri Dec 30 10:25:30 2022

Memory usage per processor = 964.609 Mbytes
    Step    Atoms         KinEng            CPU 
19753026     1229     0.69729481              0 
20061667     1178     0.65356352      3735.6281 
Loop time of 3735.63 on 40 procs for 308641 steps with 1178 atoms, finish time Fri Dec 30 11:27:46 2022


Pair  time (%) = 0.733816 (0.0196437)
Neigh time (%) = 173.515 (4.64487)
Comm  time (%) = 163.35 (4.37277)
Outpt time (%) = 0.000698171 (1.86895e-05)
Other time (%) = 3398.03 (90.9627)

Nlocal:    29.45 ave 182 max 0 min
Histogram: 31 1 0 0 1 1 1 2 1 2
Nghost:    2.5 ave 24 max 0 min
Histogram: 31 2 2 2 0 1 0 0 1 1
Neighs:    0.825 ave 10 max 0 min
Histogram: 33 1 1 0 2 1 0 1 0 1

Total # of neighbors = 33
Ave neighs/atom = 0.0280136
Neighbor list builds = 64024
Dangerous builds = 5526
Setting up run at Fri Dec 30 11:27:46 2022

Memory usage per processor = 964.609 Mbytes
    Step    Atoms         KinEng            CPU 
20061667     1178     0.65356352              0 
20370308     1143     0.71349778      3651.2976 
Loop time of 3651.3 on 40 procs for 308641 steps with 1143 atoms, finish time Fri Dec 30 12:28:38 2022


Pair  time (%) = 0.710531 (0.0194597)
Neigh time (%) = 152.105 (4.16579)
Comm  time (%) = 153.704 (4.20958)
Outpt time (%) = 0.000469045 (1.2846e-05)
Other time (%) = 3344.78 (91.6052)

Nlocal:    28.575 ave 174 max 0 min
Histogram: 30 2 0 0 0 2 1 1 2 2
Nghost:    2.1 ave 20 max 0 min
Histogram: 28 4 4 1 0 0 1 1 0 1
Neighs:    0.725 ave 11 max 0 min
Histogram: 34 2 1 1 0 1 0 0 0 1

Total # of neighbors = 29
Ave neighs/atom = 0.0253718
Neighbor list builds = 56135
Dangerous builds = 1891
Setting up run at Fri Dec 30 12:28:38 2022

Memory usage per processor = 964.609 Mbytes
    Step    Atoms         KinEng            CPU 
20370308     1143     0.71349778              0 
20678949     1106     0.70095529      3730.1852 
Loop time of 3730.19 on 40 procs for 308641 steps with 1106 atoms, finish time Fri Dec 30 13:30:48 2022


Pair  time (%) = 0.726352 (0.0194723)
Neigh time (%) = 173.539 (4.6523)
Comm  time (%) = 151.502 (4.06152)
Outpt time (%) = 0.00598381 (0.000160416)
Other time (%) = 3404.41 (91.2666)

Nlocal:    27.65 ave 166 max 0 min
Histogram: 30 2 0 0 0 0 4 1 1 2
Nghost:    2.2 ave 19 max 0 min
Histogram: 29 2 3 1 3 0 0 0 1 1
Neighs:    0.725 ave 9 max 0 min
Histogram: 33 2 0 1 1 1 1 0 0 1

Total # of neighbors = 29
Ave neighs/atom = 0.0262206
Neighbor list builds = 64067
Dangerous builds = 6589
Setting up run at Fri Dec 30 13:30:48 2022

Memory usage per processor = 964.609 Mbytes
    Step    Atoms         KinEng            CPU 
20678949     1106     0.70095529              0 
20987590     1069      0.6536055      4997.4543 
Loop time of 4997.45 on 40 procs for 308641 steps with 1069 atoms, finish time Fri Dec 30 14:54:05 2022


Pair  time (%) = 0.717417 (0.0143556)
Neigh time (%) = 163.332 (3.26831)
Comm  time (%) = 136.874 (2.73888)
Outpt time (%) = 0.000452811 (9.06084e-06)
Other time (%) = 4696.53 (93.9784)

Nlocal:    26.725 ave 162 max 0 min
Histogram: 30 2 0 0 0 0 4 2 0 2
Nghost:    2.125 ave 19 max 0 min
Histogram: 27 5 2 2 2 0 0 1 0 1
Neighs:    0.375 ave 5 max 0 min
Histogram: 35 0 0 0 2 0 2 0 0 1

Total # of neighbors = 15
Ave neighs/atom = 0.0140318
Neighbor list builds = 60318
Dangerous builds = 5498
Setting up run at Fri Dec 30 14:54:06 2022

Memory usage per processor = 964.609 Mbytes
    Step    Atoms         KinEng            CPU 
20987590     1069      0.6536055              0 
21296231     1046     0.68230225      3631.7941 
Loop time of 3631.79 on 40 procs for 308641 steps with 1046 atoms, finish time Fri Dec 30 15:54:37 2022


Pair  time (%) = 0.697002 (0.0191917)
Neigh time (%) = 149.766 (4.12374)
Comm  time (%) = 140.604 (3.87146)
Outpt time (%) = 0.000509815 (1.40376e-05)
Other time (%) = 3340.73 (91.9856)

Nlocal:    26.15 ave 157 max 0 min
Histogram: 30 2 0 0 0 0 4 1 0 3
Nghost:    2.95 ave 24 max 0 min
Histogram: 27 5 4 1 0 0 0 1 1 1
Neighs:    0.55 ave 5 max 0 min
Histogram: 33 0 1 0 1 0 2 0 2 1

Total # of neighbors = 22
Ave neighs/atom = 0.0210325
Neighbor list builds = 55294
Dangerous builds = 9700
Setting up run at Fri Dec 30 15:54:37 2022

Memory usage per processor = 964.609 Mbytes
    Step    Atoms         KinEng            CPU 
21296231     1046     0.68230225              0 
21604872     1016     0.56922722      3611.4195 
Loop time of 3611.42 on 40 procs for 308641 steps with 1016 atoms, finish time Fri Dec 30 16:54:49 2022


Pair  time (%) = 0.695991 (0.0192719)
Neigh time (%) = 148.909 (4.12327)
Comm  time (%) = 126.552 (3.50422)
Outpt time (%) = 0.000523022 (1.44825e-05)
Other time (%) = 3335.26 (92.3532)

Nlocal:    25.4 ave 168 max 0 min
Histogram: 31 1 0 0 0 1 3 3 0 1
Nghost:    2.1 ave 20 max 0 min
Histogram: 29 3 4 0 1 0 1 1 0 1
Neighs:    0.475 ave 4 max 0 min
Histogram: 32 0 2 0 0 2 0 3 0 1

Total # of neighbors = 19
Ave neighs/atom = 0.0187008
Neighbor list builds = 55032
Dangerous builds = 2647
Setting up run at Fri Dec 30 16:54:49 2022

Memory usage per processor = 964.609 Mbytes
    Step    Atoms         KinEng            CPU 
21604872     1016     0.56922722              0 
21913513      983     0.55764918      3588.6202 
Loop time of 3588.62 on 40 procs for 308641 steps with 983 atoms, finish time Fri Dec 30 17:54:38 2022


Pair  time (%) = 0.692228 (0.0192895)
Neigh time (%) = 139.741 (3.89401)
Comm  time (%) = 113.288 (3.15687)
Outpt time (%) = 0.000539666 (1.50383e-05)
Other time (%) = 3334.9 (92.9298)

Nlocal:    24.575 ave 156 max 0 min
Histogram: 31 1 0 0 0 2 1 2 2 1
Nghost:    2.075 ave 16 max 0 min
Histogram: 26 7 1 2 1 0 0 1 0 2
Neighs:    0.425 ave 5 max 0 min
Histogram: 33 0 2 0 2 0 2 0 0 1

Total # of neighbors = 17
Ave neighs/atom = 0.017294
Neighbor list builds = 51676
Dangerous builds = 2246
Setting up run at Fri Dec 30 17:54:38 2022

Memory usage per processor = 964.609 Mbytes
    Step    Atoms         KinEng            CPU 
21913513      983     0.55764918              0 
22222154      955     0.62390557      3760.3847 
Loop time of 3760.39 on 40 procs for 308641 steps with 955 atoms, finish time Fri Dec 30 18:57:18 2022


Pair  time (%) = 0.69466 (0.0184731)
Neigh time (%) = 179.174 (4.76479)
Comm  time (%) = 175.587 (4.6694)
Outpt time (%) = 0.000551201 (1.46581e-05)
Other time (%) = 3404.93 (90.5473)

Nlocal:    23.875 ave 147 max 0 min
Histogram: 31 1 0 0 0 0 5 0 1 2
Nghost:    1.7 ave 16 max 0 min
Histogram: 31 4 0 1 1 1 0 0 1 1
Neighs:    0.375 ave 4 max 0 min
Histogram: 35 0 0 0 0 1 0 3 0 1

Total # of neighbors = 15
Ave neighs/atom = 0.0157068
Neighbor list builds = 66256
Dangerous builds = 7294
Setting up run at Fri Dec 30 18:57:18 2022

Memory usage per processor = 964.609 Mbytes
    Step    Atoms         KinEng            CPU 
22222154      955     0.62390557              0 
22530795      928      1.5828143      3625.1934 
Loop time of 3625.19 on 40 procs for 308641 steps with 928 atoms, finish time Fri Dec 30 19:57:43 2022


Pair  time (%) = 0.686521 (0.0189375)
Neigh time (%) = 150.58 (4.15371)
Comm  time (%) = 117.993 (3.25479)
Outpt time (%) = 0.000616764 (1.70133e-05)
Other time (%) = 3355.93 (92.5725)

Nlocal:    23.2 ave 152 max 0 min
Histogram: 31 1 0 0 1 2 2 0 1 2
Nghost:    2.1 ave 16 max 0 min
Histogram: 29 3 2 1 1 1 1 0 0 2
Neighs:    0.625 ave 9 max 0 min
Histogram: 34 2 1 0 1 0 0 0 1 1

Total # of neighbors = 25
Ave neighs/atom = 0.0269397
Neighbor list builds = 55683
Dangerous builds = 4607
Setting up run at Fri Dec 30 19:57:43 2022

Memory usage per processor = 964.609 Mbytes
    Step    Atoms         KinEng            CPU 
22530795      928      1.5828143              0 
22839436      898     0.55760993      3703.0676 
Loop time of 3703.07 on 40 procs for 308641 steps with 898 atoms, finish time Fri Dec 30 20:59:27 2022


Pair  time (%) = 0.671232 (0.0181264)
Neigh time (%) = 136.959 (3.69854)
Comm  time (%) = 123.232 (3.32783)
Outpt time (%) = 0.00588168 (0.000158833)
Other time (%) = 3442.2 (92.9553)

Nlocal:    22.45 ave 138 max 0 min
Histogram: 30 2 0 0 0 1 3 1 1 2
Nghost:    1.925 ave 15 max 0 min
Histogram: 29 1 5 1 0 0 1 1 1 1
Neighs:    0.325 ave 6 max 0 min
Histogram: 34 3 0 2 0 0 0 0 0 1

Total # of neighbors = 13
Ave neighs/atom = 0.0144766
Neighbor list builds = 50630
Dangerous builds = 4589
Setting up run at Fri Dec 30 20:59:27 2022

Memory usage per processor = 964.609 Mbytes
    Step    Atoms         KinEng            CPU 
22839436      898     0.55760993              0 
23148077      872     0.54602094      3573.6126 
Loop time of 3573.61 on 40 procs for 308641 steps with 872 atoms, finish time Fri Dec 30 21:59:00 2022


Pair  time (%) = 0.665817 (0.0186315)
Neigh time (%) = 134.464 (3.76269)
Comm  time (%) = 115.408 (3.22945)
Outpt time (%) = 0.000515005 (1.44113e-05)
Other time (%) = 3323.07 (92.9892)

Nlocal:    21.8 ave 130 max 0 min
Histogram: 30 2 0 0 0 1 2 1 2 2
Nghost:    1.95 ave 16 max 0 min
Histogram: 30 2 3 1 0 1 1 0 1 1
Neighs:    0.475 ave 5 max 0 min
Histogram: 34 0 2 0 0 0 0 0 3 1

Total # of neighbors = 19
Ave neighs/atom = 0.021789
Neighbor list builds = 49692
Dangerous builds = 3253
Setting up run at Fri Dec 30 21:59:00 2022

Memory usage per processor = 964.609 Mbytes
    Step    Atoms         KinEng            CPU 
23148077      872     0.54602094              0 
23456718      854       0.618922      3481.4192 
Loop time of 3481.42 on 40 procs for 308641 steps with 854 atoms, finish time Fri Dec 30 22:57:02 2022


Pair  time (%) = 0.662285 (0.0190234)
Neigh time (%) = 117.178 (3.36581)
Comm  time (%) = 90.5201 (2.60009)
Outpt time (%) = 0.000481643 (1.38347e-05)
Other time (%) = 3273.06 (94.0151)

Nlocal:    21.35 ave 126 max 0 min
Histogram: 30 2 0 0 0 0 1 5 0 2
Nghost:    1.675 ave 14 max 0 min
Histogram: 32 2 1 0 1 0 0 1 0 3
Neighs:    0.3 ave 2 max 0 min
Histogram: 33 0 0 0 0 2 0 0 0 5

Total # of neighbors = 12
Ave neighs/atom = 0.0140515
Neighbor list builds = 43372
Dangerous builds = 895
Setting up run at Fri Dec 30 22:57:02 2022

Memory usage per processor = 964.609 Mbytes
    Step    Atoms         KinEng            CPU 
23456718      854       0.618922              0 
23765359      828     0.48864516      3570.6813 
Loop time of 3570.68 on 40 procs for 308641 steps with 828 atoms, finish time Fri Dec 30 23:56:32 2022


Pair  time (%) = 0.672394 (0.018831)
Neigh time (%) = 136.564 (3.82459)
Comm  time (%) = 106.49 (2.98234)
Outpt time (%) = 0.000491054 (1.37524e-05)
Other time (%) = 3326.95 (93.1742)

Nlocal:    20.7 ave 128 max 0 min
Histogram: 30 2 0 0 0 1 3 0 2 2
Nghost:    1.725 ave 15 max 0 min
Histogram: 29 4 2 1 0 0 2 0 1 1
Neighs:    0.3 ave 5 max 0 min
Histogram: 34 0 3 0 2 0 0 0 0 1

Total # of neighbors = 12
Ave neighs/atom = 0.0144928
Neighbor list builds = 50489
Dangerous builds = 3914
Setting up run at Fri Dec 30 23:56:33 2022

Memory usage per processor = 964.609 Mbytes
    Step    Atoms         KinEng            CPU 
23765359      828     0.48864516              0 
24074000      800     0.54240839       3690.316 
Loop time of 3690.32 on 40 procs for 308641 steps with 800 atoms, finish time Sat Dec 31 00:58:03 2022


Pair  time (%) = 0.694625 (0.0188229)
Neigh time (%) = 164.435 (4.45584)
Comm  time (%) = 119.296 (3.23267)
Outpt time (%) = 0.000663055 (1.79674e-05)
Other time (%) = 3405.89 (92.2926)

Nlocal:    20 ave 121 max 0 min
Histogram: 31 1 0 0 0 0 3 3 0 2
Nghost:    1.75 ave 17 max 0 min
Histogram: 29 6 0 1 1 1 0 1 0 1
Neighs:    0.35 ave 6 max 0 min
Histogram: 34 3 0 1 0 1 0 0 0 1

Total # of neighbors = 14
Ave neighs/atom = 0.0175
Neighbor list builds = 60827
Dangerous builds = 5125
Setting up run at Sat Dec 31 00:58:03 2022

Memory usage per processor = 964.609 Mbytes
    Step    Atoms         KinEng            CPU 
24074000      800     0.54240839              0 
24382641      781     0.47981291      3536.3701 
Loop time of 3536.37 on 40 procs for 308641 steps with 781 atoms, finish time Sat Dec 31 01:56:59 2022


Pair  time (%) = 0.657625 (0.018596)
Neigh time (%) = 128.532 (3.63458)
Comm  time (%) = 106.125 (3.00095)
Outpt time (%) = 0.000290258 (8.20779e-06)
Other time (%) = 3301.06 (93.3459)

Nlocal:    19.525 ave 127 max 0 min
Histogram: 31 1 0 0 0 1 5 0 1 1
Nghost:    1.775 ave 17 max 0 min
Histogram: 29 5 1 1 1 0 2 0 0 1
Neighs:    0.4 ave 4 max 0 min
Histogram: 34 0 1 0 0 1 0 3 0 1

Total # of neighbors = 16
Ave neighs/atom = 0.0204866
Neighbor list builds = 47587
Dangerous builds = 1471
Setting up run at Sat Dec 31 01:56:59 2022

Memory usage per processor = 964.609 Mbytes
    Step    Atoms         KinEng            CPU 
24382641      781     0.47981291              0 
24691282      764     0.52403956      3572.8206 
Loop time of 3572.82 on 40 procs for 308641 steps with 764 atoms, finish time Sat Dec 31 02:56:32 2022


Pair  time (%) = 0.67112 (0.018784)
Neigh time (%) = 135.688 (3.79779)
Comm  time (%) = 96.9555 (2.7137)
Outpt time (%) = 0.00586448 (0.000164141)
Other time (%) = 3339.5 (93.4696)

Nlocal:    19.1 ave 126 max 0 min
Histogram: 32 0 0 0 0 2 4 0 1 1
Nghost:    1.625 ave 14 max 0 min
Histogram: 33 0 1 1 1 0 0 2 0 2
Neighs:    0.275 ave 2 max 0 min
Histogram: 33 0 0 0 0 3 0 0 0 4

Total # of neighbors = 11
Ave neighs/atom = 0.0143979
Neighbor list builds = 50236
Dangerous builds = 4129
Setting up run at Sat Dec 31 02:56:32 2022

Memory usage per processor = 964.609 Mbytes
    Step    Atoms         KinEng            CPU 
24691282      764     0.52403956              0 
24999923      745     0.51467392      3555.5928 
Loop time of 3555.59 on 40 procs for 308641 steps with 745 atoms, finish time Sat Dec 31 03:55:48 2022


Pair  time (%) = 0.663549 (0.0186621)
Neigh time (%) = 133.331 (3.74988)
Comm  time (%) = 94.3904 (2.6547)
Outpt time (%) = 0.000525215 (1.47715e-05)
Other time (%) = 3327.21 (93.5767)

Nlocal:    18.625 ave 125 max 0 min
Histogram: 32 0 0 0 0 2 3 1 1 1
Nghost:    1.475 ave 16 max 0 min
Histogram: 31 3 1 2 0 2 0 0 0 1
Neighs:    0.275 ave 4 max 0 min
Histogram: 34 0 4 0 0 0 0 1 0 1

Total # of neighbors = 11
Ave neighs/atom = 0.0147651
Neighbor list builds = 49362
Dangerous builds = 4574
Setting up run at Sat Dec 31 03:55:48 2022

Memory usage per processor = 964.609 Mbytes
    Step    Atoms         KinEng            CPU 
24999923      745     0.51467392              0 
25308564      731     0.57558923      3569.3567 
Loop time of 3569.36 on 40 procs for 308641 steps with 731 atoms, finish time Sat Dec 31 04:55:17 2022


Pair  time (%) = 0.669388 (0.0187537)
Neigh time (%) = 136.655 (3.82855)
Comm  time (%) = 102.704 (2.87739)
Outpt time (%) = 0.000515551 (1.44438e-05)
Other time (%) = 3329.33 (93.2753)

Nlocal:    18.275 ave 119 max 0 min
Histogram: 32 0 0 0 0 3 1 2 1 1
Nghost:    1.7 ave 14 max 0 min
Histogram: 30 2 3 0 0 2 1 0 0 2
Neighs:    0.35 ave 3 max 0 min
Histogram: 33 0 0 1 0 0 5 0 0 1

Total # of neighbors = 14
Ave neighs/atom = 0.0191518
Neighbor list builds = 50643
Dangerous builds = 2691
Setting up run at Sat Dec 31 04:55:17 2022

Memory usage per processor = 964.609 Mbytes
    Step    Atoms         KinEng            CPU 
25308564      731     0.57558923              0 
25617205      713     0.49318255      3584.0885 
Loop time of 3584.1 on 40 procs for 308641 steps with 713 atoms, finish time Sat Dec 31 05:55:02 2022


Pair  time (%) = 0.660825 (0.0184377)
Neigh time (%) = 139.6 (3.89498)
Comm  time (%) = 113.55 (3.16817)
Outpt time (%) = 0.0232638 (0.000649084)
Other time (%) = 3330.27 (92.9178)

Nlocal:    17.825 ave 115 max 0 min
Histogram: 31 1 0 0 1 1 1 2 1 2
Nghost:    1.875 ave 15 max 0 min
Histogram: 28 4 2 1 2 0 1 0 0 2
Neighs:    0.4 ave 5 max 0 min
Histogram: 34 0 2 0 1 0 1 0 1 1

Total # of neighbors = 16
Ave neighs/atom = 0.0224404
Neighbor list builds = 51731
Dangerous builds = 2627
Setting up run at Sat Dec 31 05:55:02 2022

Memory usage per processor = 964.609 Mbytes
    Step    Atoms         KinEng            CPU 
25617205      713     0.49318255              0 
25925846      702     0.53132225      3658.1854 
Loop time of 3658.2 on 40 procs for 308641 steps with 702 atoms, finish time Sat Dec 31 06:56:00 2022


Pair  time (%) = 0.665925 (0.0182036)
Neigh time (%) = 154.305 (4.21805)
Comm  time (%) = 127.644 (3.48926)
Outpt time (%) = 0.0228411 (0.00062438)
Other time (%) = 3375.56 (92.2739)

Nlocal:    17.55 ave 118 max 0 min
Histogram: 31 1 0 0 1 1 3 1 1 1
Nghost:    1.625 ave 17 max 0 min
Histogram: 29 4 3 1 0 2 0 0 0 1
Neighs:    0.225 ave 3 max 0 min
Histogram: 35 0 0 2 0 0 2 0 0 1

Total # of neighbors = 9
Ave neighs/atom = 0.0128205
Neighbor list builds = 57221
Dangerous builds = 2214
Setting up run at Sat Dec 31 06:56:00 2022

Memory usage per processor = 964.609 Mbytes
    Step    Atoms         KinEng            CPU 
25925846      702     0.53132225              0 
26234487      687     0.49714998      3874.5759 
Loop time of 3874.58 on 40 procs for 308641 steps with 687 atoms, finish time Sat Dec 31 08:00:35 2022


Pair  time (%) = 0.688815 (0.0177778)
Neigh time (%) = 204.198 (5.2702)
Comm  time (%) = 143.528 (3.70435)
Outpt time (%) = 0.00610445 (0.000157552)
Other time (%) = 3526.16 (91.0075)

Nlocal:    17.175 ave 118 max 0 min
Histogram: 32 0 0 0 1 2 2 1 1 1
Nghost:    1.35 ave 15 max 0 min
Histogram: 30 5 2 0 0 0 1 0 1 1
Neighs:    0.3 ave 6 max 0 min
Histogram: 35 3 0 0 0 1 0 0 0 1

Total # of neighbors = 12
Ave neighs/atom = 0.0174672
Neighbor list builds = 75772
Dangerous builds = 2928
Setting up run at Sat Dec 31 08:00:35 2022

Memory usage per processor = 964.609 Mbytes
    Step    Atoms         KinEng            CPU 
26234487      687     0.49714998              0 
26543128      669     0.48815694      3984.4754 
Loop time of 3984.48 on 40 procs for 308641 steps with 669 atoms, finish time Sat Dec 31 09:06:59 2022


Pair  time (%) = 0.711709 (0.0178621)
Neigh time (%) = 229.107 (5.75)
Comm  time (%) = 158.394 (3.97528)
Outpt time (%) = 0.000499364 (1.25327e-05)
Other time (%) = 3596.26 (90.2568)

Nlocal:    16.725 ave 104 max 0 min
Histogram: 32 0 0 0 0 2 1 3 0 2
Nghost:    1.35 ave 12 max 0 min
Histogram: 33 2 0 0 2 0 1 0 0 2
Neighs:    0.275 ave 6 max 0 min
Histogram: 35 3 0 1 0 0 0 0 0 1

Total # of neighbors = 11
Ave neighs/atom = 0.0164425
Neighbor list builds = 85022
Dangerous builds = 4148
Setting up run at Sat Dec 31 09:06:59 2022

Memory usage per processor = 964.609 Mbytes
    Step    Atoms         KinEng            CPU 
26543128      669     0.48815694              0 
26851769      653     0.56164672      3896.6084 
Loop time of 3896.61 on 40 procs for 308641 steps with 653 atoms, finish time Sat Dec 31 10:11:56 2022


Pair  time (%) = 0.684603 (0.0175692)
Neigh time (%) = 209.395 (5.37377)
Comm  time (%) = 160.29 (4.11358)
Outpt time (%) = 0.00046282 (1.18775e-05)
Other time (%) = 3526.24 (90.4951)

Nlocal:    16.325 ave 103 max 0 min
Histogram: 31 1 0 0 0 0 6 0 0 2
Nghost:    1.475 ave 14 max 0 min
Histogram: 31 3 1 1 1 1 0 0 0 2
Neighs:    0.25 ave 3 max 0 min
Histogram: 34 0 0 3 0 0 2 0 0 1

Total # of neighbors = 10
Ave neighs/atom = 0.0153139
Neighbor list builds = 77795
Dangerous builds = 2017
Setting up run at Sat Dec 31 10:11:56 2022

Memory usage per processor = 964.609 Mbytes
    Step    Atoms         KinEng            CPU 
26851769      653     0.56164672              0 
27160410      639     0.47900577      3845.0979 
Loop time of 3845.1 on 40 procs for 308641 steps with 639 atoms, finish time Sat Dec 31 11:16:01 2022


Pair  time (%) = 0.66905 (0.0174001)
Neigh time (%) = 198.147 (5.15323)
Comm  time (%) = 148.079 (3.85111)
Outpt time (%) = 0.0235398 (0.000612203)
Other time (%) = 3498.18 (90.9777)

Nlocal:    15.975 ave 105 max 0 min
Histogram: 32 0 0 0 0 2 4 0 0 2
Nghost:    1.5 ave 15 max 0 min
Histogram: 28 4 5 0 0 0 1 1 0 1
Neighs:    0.275 ave 2 max 0 min
Histogram: 33 0 0 0 0 3 0 0 0 4

Total # of neighbors = 11
Ave neighs/atom = 0.0172144
Neighbor list builds = 73574
Dangerous builds = 1750
Setting up run at Sat Dec 31 11:16:02 2022

Memory usage per processor = 964.609 Mbytes
    Step    Atoms         KinEng            CPU 
27160410      639     0.47900577              0 
27469051      631     0.49108455      3617.3262 
Loop time of 3617.33 on 40 procs for 308641 steps with 631 atoms, finish time Sat Dec 31 12:16:19 2022


Pair  time (%) = 0.640997 (0.0177202)
Neigh time (%) = 147.868 (4.08778)
Comm  time (%) = 123.17 (3.40499)
Outpt time (%) = 0.000457548 (1.26488e-05)
Other time (%) = 3345.65 (92.4895)

Nlocal:    15.775 ave 105 max 0 min
Histogram: 31 1 0 0 2 0 2 2 1 1
Nghost:    1.7 ave 14 max 0 min
Histogram: 27 4 5 0 1 0 0 1 0 2
Neighs:    0.2 ave 2 max 0 min
Histogram: 34 0 0 0 0 4 0 0 0 2

Total # of neighbors = 8
Ave neighs/atom = 0.0126783
Neighbor list builds = 54877
Dangerous builds = 3663
Setting up run at Sat Dec 31 12:16:19 2022

Memory usage per processor = 964.609 Mbytes
    Step    Atoms         KinEng            CPU 
27469051      631     0.49108455              0 
27777692      617     0.48617951      3578.3177 
Loop time of 3578.32 on 40 procs for 308641 steps with 617 atoms, finish time Sat Dec 31 13:15:57 2022


Pair  time (%) = 0.646946 (0.0180796)
Neigh time (%) = 141.004 (3.9405)
Comm  time (%) = 108.299 (3.02652)
Outpt time (%) = 0.00053693 (1.50051e-05)
Other time (%) = 3328.37 (93.0149)

Nlocal:    15.425 ave 100 max 0 min
Histogram: 30 2 0 0 1 1 2 2 1 1
Nghost:    1.525 ave 17 max 0 min
Histogram: 32 3 1 0 0 2 0 1 0 1
Neighs:    0.3 ave 3 max 0 min
Histogram: 34 0 0 2 0 0 2 0 0 2

Total # of neighbors = 12
Ave neighs/atom = 0.0194489
Neighbor list builds = 52349
Dangerous builds = 587
Setting up run at Sat Dec 31 13:15:58 2022

Memory usage per processor = 964.609 Mbytes
    Step    Atoms         KinEng            CPU 
27777692      617     0.48617951              0 
28086333      599     0.44267889      3612.1321 
Loop time of 3612.13 on 40 procs for 308641 steps with 599 atoms, finish time Sat Dec 31 14:16:10 2022


Pair  time (%) = 0.652873 (0.0180744)
Neigh time (%) = 145.414 (4.02571)
Comm  time (%) = 92.9843 (2.57422)
[...]
Neighs:    0.075 ave 1 max 0 min
Histogram: 37 0 0 0 0 0 0 0 0 3

Total # of neighbors = 3
Ave neighs/atom = 0.00817439
Neighbor list builds = 47152
Dangerous builds = 1298
Setting up run at Sun Jan  1 13:59:09 2023

Memory usage per processor = 964.609 Mbytes
    Step    Atoms         KinEng            CPU 
35493813      367     0.55554737              0 
35802454      359      0.5215394      3442.8617 
Loop time of 3442.86 on 40 procs for 308641 steps with 359 atoms, finish time Sun Jan  1 14:56:32 2023


Pair  time (%) = 0.60644 (0.0176144)
Neigh time (%) = 105.716 (3.07058)
Comm  time (%) = 73.3717 (2.13112)
Outpt time (%) = 0.000539881 (1.56812e-05)
Other time (%) = 3263.17 (94.7807)

Nlocal:    8.975 ave 69 max 0 min
Histogram: 31 1 0 2 1 2 1 0 1 1
Nghost:    1.275 ave 12 max 0 min
Histogram: 33 2 1 0 0 2 0 0 0 2
Neighs:    0.15 ave 2 max 0 min
Histogram: 36 0 0 0 0 2 0 0 0 2

Total # of neighbors = 6
Ave neighs/atom = 0.0167131
Neighbor list builds = 39344
Dangerous builds = 0
Setting up run at Sun Jan  1 14:56:32 2023

Memory usage per processor = 964.609 Mbytes
    Step    Atoms         KinEng            CPU 
35802454      359      0.5215394              0 
36111095      352     0.47931557      3430.3849 
Loop time of 3430.38 on 40 procs for 308641 steps with 352 atoms, finish time Sun Jan  1 15:53:42 2023


Pair  time (%) = 0.614375 (0.0179098)
Neigh time (%) = 106.34 (3.09994)
Comm  time (%) = 55.7026 (1.6238)
Outpt time (%) = 0.000256462 (7.47617e-06)
Other time (%) = 3267.73 (95.2583)

Nlocal:    8.8 ave 71 max 0 min
Histogram: 31 1 0 2 2 1 1 1 0 1
Nghost:    1.05 ave 9 max 0 min
Histogram: 28 5 2 1 0 0 1 1 1 1
Neighs:    0.1 ave 1 max 0 min
Histogram: 36 0 0 0 0 0 0 0 0 4

Total # of neighbors = 4
Ave neighs/atom = 0.0113636
Neighbor list builds = 39572
Dangerous builds = 612
Setting up run at Sun Jan  1 15:53:42 2023

Memory usage per processor = 964.609 Mbytes
    Step    Atoms         KinEng            CPU 
36111095      352     0.47931557              0 
36419736      347      2.1205145      3494.9199 
Loop time of 3494.92 on 40 procs for 308641 steps with 347 atoms, finish time Sun Jan  1 16:51:57 2023


Pair  time (%) = 0.614845 (0.0175925)
Neigh time (%) = 120.724 (3.45428)
Comm  time (%) = 69.9547 (2.00161)
Outpt time (%) = 0.000513887 (1.47038e-05)
Other time (%) = 3303.63 (94.5265)

Nlocal:    8.675 ave 69 max 0 min
Histogram: 31 1 0 2 2 2 0 1 0 1
Nghost:    0.95 ave 10 max 0 min
Histogram: 30 5 1 0 0 0 2 0 0 2
Neighs:    0.05 ave 2 max 0 min
Histogram: 39 0 0 0 0 0 0 0 0 1

Total # of neighbors = 2
Ave neighs/atom = 0.00576369
Neighbor list builds = 44972
Dangerous builds = 811
Setting up run at Sun Jan  1 16:51:57 2023

Memory usage per processor = 964.609 Mbytes
    Step    Atoms         KinEng            CPU 
36419736      347      2.1205145              0 
36728377      339      0.4989123      3700.2971 
Loop time of 3700.3 on 40 procs for 308641 steps with 339 atoms, finish time Sun Jan  1 17:53:38 2023


Pair  time (%) = 0.636488 (0.017201)
Neigh time (%) = 168.537 (4.55469)
Comm  time (%) = 93.3865 (2.52376)
Outpt time (%) = 0.000547673 (1.48008e-05)
Other time (%) = 3437.74 (92.9043)

Nlocal:    8.475 ave 67 max 0 min
Histogram: 32 0 0 1 3 1 1 0 1 1
Nghost:    1.325 ave 11 max 0 min
Histogram: 33 1 0 0 0 1 3 0 0 2
Neighs:    0.1 ave 1 max 0 min
Histogram: 36 0 0 0 0 0 0 0 0 4

Total # of neighbors = 4
Ave neighs/atom = 0.0117994
Neighbor list builds = 62859
Dangerous builds = 4365
Setting up run at Sun Jan  1 17:53:38 2023

Memory usage per processor = 964.609 Mbytes
    Step    Atoms         KinEng            CPU 
36728377      339      0.4989123              0 
37037018      334     0.44551989      3556.7705 
Loop time of 3556.77 on 40 procs for 308641 steps with 334 atoms, finish time Sun Jan  1 18:52:55 2023


Pair  time (%) = 0.62122 (0.0174658)
Neigh time (%) = 135.138 (3.79947)
Comm  time (%) = 73.6613 (2.07102)
Outpt time (%) = 0.000554953 (1.56027e-05)
Other time (%) = 3347.35 (94.112)

Nlocal:    8.35 ave 65 max 0 min
Histogram: 31 1 0 0 5 0 1 0 1 1
Nghost:    0.925 ave 11 max 0 min
Histogram: 35 1 0 0 2 0 0 0 1 1
Neighs:    0.025 ave 1 max 0 min
Histogram: 39 0 0 0 0 0 0 0 0 1

Total # of neighbors = 1
Ave neighs/atom = 0.00299401
Neighbor list builds = 50369
Dangerous builds = 1219
Setting up run at Sun Jan  1 18:52:55 2023

Memory usage per processor = 964.609 Mbytes
    Step    Atoms         KinEng            CPU 
37037018      334     0.44551989              0 
37345659      330     0.43837257      3428.6042 
Loop time of 3428.6 on 40 procs for 308641 steps with 330 atoms, finish time Sun Jan  1 19:50:03 2023


Pair  time (%) = 0.601173 (0.0175341)
Neigh time (%) = 105.455 (3.07573)
Comm  time (%) = 75.9484 (2.21514)
Outpt time (%) = 0.000503211 (1.46769e-05)
Other time (%) = 3246.6 (94.6916)

Nlocal:    8.25 ave 67 max 0 min
Histogram: 31 1 1 0 4 0 1 1 0 1
Nghost:    1.025 ave 9 max 0 min
Histogram: 26 5 4 0 2 1 1 0 0 1
Neighs:    0.05 ave 1 max 0 min
Histogram: 38 0 0 0 0 0 0 0 0 2

Total # of neighbors = 2
Ave neighs/atom = 0.00606061
Neighbor list builds = 39314
Dangerous builds = 1
Setting up run at Sun Jan  1 19:50:03 2023

Memory usage per processor = 964.609 Mbytes
    Step    Atoms         KinEng            CPU 
37345659      330     0.43837257              0 
37654300      325     0.41986325      3460.6144 
Loop time of 3460.61 on 40 procs for 308641 steps with 325 atoms, finish time Sun Jan  1 20:47:44 2023


Pair  time (%) = 0.608277 (0.0175771)
Neigh time (%) = 114.061 (3.29596)
Comm  time (%) = 79.7402 (2.30422)
Outpt time (%) = 0.000729814 (2.10891e-05)
Other time (%) = 3266.21 (94.3822)

Nlocal:    8.125 ave 67 max 0 min
Histogram: 31 1 1 2 1 1 1 1 0 1
Nghost:    0.775 ave 8 max 0 min
Histogram: 29 6 1 0 0 1 1 1 0 1
Neighs:    0.05 ave 1 max 0 min
Histogram: 38 0 0 0 0 0 0 0 0 2

Total # of neighbors = 2
Ave neighs/atom = 0.00615385
Neighbor list builds = 42540
Dangerous builds = 954
Setting up run at Sun Jan  1 20:47:44 2023

Memory usage per processor = 964.609 Mbytes
    Step    Atoms         KinEng            CPU 
37654300      325     0.41986325              0 
37962941      320     0.42361549      3476.9789 
Loop time of 3476.98 on 40 procs for 308641 steps with 320 atoms, finish time Sun Jan  1 21:45:41 2023


Pair  time (%) = 0.611765 (0.0175947)
Neigh time (%) = 116.832 (3.36016)
Comm  time (%) = 71.4892 (2.05607)
Outpt time (%) = 0.000483609 (1.39089e-05)
Other time (%) = 3288.05 (94.5662)

Nlocal:    8 ave 62 max 0 min
Histogram: 31 1 0 1 3 1 1 0 1 1
Nghost:    1.1 ave 7 max 0 min
Histogram: 28 3 2 0 2 0 0 1 2 2
Neighs:    0.05 ave 2 max 0 min
Histogram: 39 0 0 0 0 0 0 0 0 1

Total # of neighbors = 2
Ave neighs/atom = 0.00625
Neighbor list builds = 43567
Dangerous builds = 399
Setting up run at Sun Jan  1 21:45:41 2023

Memory usage per processor = 964.609 Mbytes
    Step    Atoms         KinEng            CPU 
37962941      320     0.42361549              0 
38271582      312     0.43882414      3514.3219 
Loop time of 3514.32 on 40 procs for 308641 steps with 312 atoms, finish time Sun Jan  1 22:44:15 2023


Pair  time (%) = 0.606505 (0.0172581)
Neigh time (%) = 125.482 (3.57059)
Comm  time (%) = 81.5033 (2.31918)
Outpt time (%) = 0.000532698 (1.51579e-05)
Other time (%) = 3306.73 (94.093)

Nlocal:    7.8 ave 64 max 0 min
Histogram: 30 2 0 3 1 1 1 1 0 1
Nghost:    0.9 ave 8 max 0 min
Histogram: 30 3 2 0 0 2 0 1 1 1
Neighs:    0.075 ave 2 max 0 min
Histogram: 38 0 0 0 0 1 0 0 0 1

Total # of neighbors = 3
Ave neighs/atom = 0.00961538
Neighbor list builds = 46803
Dangerous builds = 38
Setting up run at Sun Jan  1 22:44:15 2023

Memory usage per processor = 964.609 Mbytes
    Step    Atoms         KinEng            CPU 
38271582      312     0.43882414              0 
38580223      303     0.42935416      3401.0412 
Loop time of 3401.04 on 40 procs for 308641 steps with 303 atoms, finish time Sun Jan  1 23:40:57 2023


Pair  time (%) = 0.609332 (0.017916)
Neigh time (%) = 102.912 (3.02591)
Comm  time (%) = 55.1968 (1.62294)
Outpt time (%) = 0.00047172 (1.38699e-05)
Other time (%) = 3242.32 (95.3332)

Nlocal:    7.575 ave 62 max 0 min
Histogram: 31 2 0 2 2 0 0 1 1 1
Nghost:    0.825 ave 8 max 0 min
Histogram: 28 5 3 1 0 0 1 1 0 1
Neighs:    0.05 ave 1 max 0 min
Histogram: 38 0 0 0 0 0 0 0 0 2

Total # of neighbors = 2
Ave neighs/atom = 0.00660066
Neighbor list builds = 38400
Dangerous builds = 813
Setting up run at Sun Jan  1 23:40:57 2023

Memory usage per processor = 964.609 Mbytes
    Step    Atoms         KinEng            CPU 
38580223      303     0.42935416              0 
38888864      295      0.3865117      3428.3395 
Loop time of 3428.34 on 40 procs for 308641 steps with 295 atoms, finish time Mon Jan  2 00:38:05 2023


Pair  time (%) = 0.600105 (0.0175042)
Neigh time (%) = 107.517 (3.13612)
Comm  time (%) = 56.7699 (1.6559)
Outpt time (%) = 0.000489315 (1.42727e-05)
Other time (%) = 3263.45 (95.1905)

Nlocal:    7.375 ave 60 max 0 min
Histogram: 30 2 1 1 2 1 1 1 0 1
Nghost:    0.85 ave 7 max 0 min
Histogram: 29 5 0 0 2 0 0 2 1 1
Neighs:    0 ave 0 max 0 min
Histogram: 40 0 0 0 0 0 0 0 0 0

Total # of neighbors = 0
Ave neighs/atom = 0
Neighbor list builds = 40110
Dangerous builds = 905
Setting up run at Mon Jan  2 00:38:05 2023

Memory usage per processor = 964.609 Mbytes
    Step    Atoms         KinEng            CPU 
38888864      295      0.3865117              0 
39197505      286     0.36965029      3390.1983 
Loop time of 3390.2 on 40 procs for 308641 steps with 286 atoms, finish time Mon Jan  2 01:34:35 2023


Pair  time (%) = 0.595909 (0.0175774)
Neigh time (%) = 99.3149 (2.92947)
Comm  time (%) = 54.2911 (1.60141)
Outpt time (%) = 0.00567441 (0.000167377)
Other time (%) = 3235.99 (95.4514)

Nlocal:    7.15 ave 60 max 0 min
Histogram: 31 1 2 2 0 1 1 1 0 1
Nghost:    0.8 ave 7 max 0 min
Histogram: 29 4 2 0 1 1 0 2 0 1
Neighs:    0.025 ave 1 max 0 min
Histogram: 39 0 0 0 0 0 0 0 0 1

Total # of neighbors = 1
Ave neighs/atom = 0.0034965
Neighbor list builds = 37067
Dangerous builds = 353
Setting up run at Mon Jan  2 01:34:35 2023

Memory usage per processor = 964.609 Mbytes
    Step    Atoms         KinEng            CPU 
39197505      286     0.36965029              0 
39506146      280     0.40078022      3368.1844 
Loop time of 3368.18 on 40 procs for 308641 steps with 280 atoms, finish time Mon Jan  2 02:30:44 2023


Pair  time (%) = 0.596738 (0.0177169)
Neigh time (%) = 94.0207 (2.79144)
Comm  time (%) = 57.0098 (1.6926)
Outpt time (%) = 0.000512151 (1.52055e-05)
Other time (%) = 3216.56 (95.4982)

Nlocal:    7 ave 61 max 0 min
Histogram: 31 1 3 1 1 0 1 1 0 1
Nghost:    0.625 ave 5 max 0 min
Histogram: 30 0 4 0 2 0 1 0 1 2
Neighs:    0.05 ave 1 max 0 min
Histogram: 38 0 0 0 0 0 0 0 0 2

Total # of neighbors = 2
Ave neighs/atom = 0.00714286
Neighbor list builds = 35058
Dangerous builds = 2106
Setting up run at Mon Jan  2 02:30:44 2023

Memory usage per processor = 964.609 Mbytes
    Step    Atoms         KinEng            CPU 
39506146      280     0.40078022              0 
39814787      272     0.40620563      3449.5361 
Loop time of 3449.54 on 40 procs for 308641 steps with 272 atoms, finish time Mon Jan  2 03:28:13 2023


Pair  time (%) = 0.611133 (0.0177164)
Neigh time (%) = 113.589 (3.29289)
Comm  time (%) = 70.7812 (2.05191)
Outpt time (%) = 0.000470794 (1.3648e-05)
Other time (%) = 3264.55 (94.6375)

Nlocal:    6.8 ave 54 max 0 min
Histogram: 31 1 2 2 0 1 0 1 0 2
Nghost:    0.675 ave 5 max 0 min
Histogram: 28 0 5 0 3 0 1 0 2 1
Neighs:    0 ave 0 max 0 min
Histogram: 40 0 0 0 0 0 0 0 0 0

Total # of neighbors = 0
Ave neighs/atom = 0
Neighbor list builds = 42360
Dangerous builds = 3707
Setting up run at Mon Jan  2 03:28:13 2023

Memory usage per processor = 964.609 Mbytes
    Step    Atoms         KinEng            CPU 
39814787      272     0.40620563              0 
40123428      263     0.40425574      3337.7868 
Loop time of 3337.79 on 40 procs for 308641 steps with 263 atoms, finish time Mon Jan  2 04:23:51 2023


Pair  time (%) = 0.599225 (0.0179528)
Neigh time (%) = 87.0176 (2.60704)
Comm  time (%) = 47.1456 (1.41248)
Outpt time (%) = 0.000490529 (1.46962e-05)
Other time (%) = 3203.02 (95.9625)

Nlocal:    6.575 ave 51 max 0 min
Histogram: 31 0 2 3 0 1 1 0 0 2
Nghost:    0.875 ave 6 max 0 min
Histogram: 29 3 0 3 0 0 2 0 0 3
Neighs:    0.05 ave 2 max 0 min
Histogram: 39 0 0 0 0 0 0 0 0 1

Total # of neighbors = 2
Ave neighs/atom = 0.00760456
Neighbor list builds = 32446
Dangerous builds = 562
Setting up run at Mon Jan  2 04:23:51 2023

Memory usage per processor = 964.609 Mbytes
    Step    Atoms         KinEng            CPU 
40123428      263     0.40425574              0 
40432069      258     0.41641941      3354.6684 
Loop time of 3354.67 on 40 procs for 308641 steps with 258 atoms, finish time Mon Jan  2 05:19:46 2023


Pair  time (%) = 0.605965 (0.0180633)
Neigh time (%) = 90.283 (2.69126)
Comm  time (%) = 43.741 (1.30388)
Outpt time (%) = 0.0061079 (0.000182072)
Other time (%) = 3220.03 (95.9866)

Nlocal:    6.45 ave 52 max 0 min
Histogram: 31 1 2 2 0 1 0 1 1 1
Nghost:    0.675 ave 7 max 0 min
Histogram: 32 3 1 0 0 1 0 1 1 1
Neighs:    0.025 ave 1 max 0 min
Histogram: 39 0 0 0 0 0 0 0 0 1

Total # of neighbors = 1
Ave neighs/atom = 0.00387597
Neighbor list builds = 33679
Dangerous builds = 479
Setting up run at Mon Jan  2 05:19:46 2023

Memory usage per processor = 964.609 Mbytes
    Step    Atoms         KinEng            CPU 
40432069      258     0.41641941              0 
40740710      253      0.3999077      3341.0799 
Loop time of 3341.08 on 40 procs for 308641 steps with 253 atoms, finish time Mon Jan  2 06:15:27 2023


Pair  time (%) = 0.60234 (0.0180283)
Neigh time (%) = 89.4951 (2.67863)
Comm  time (%) = 45.0172 (1.34739)
Outpt time (%) = 0.000511685 (1.53149e-05)
Other time (%) = 3205.97 (95.9559)

Nlocal:    6.325 ave 57 max 0 min
Histogram: 31 0 4 1 0 2 0 1 0 1
Nghost:    0.775 ave 7 max 0 min
Histogram: 30 3 2 0 1 1 0 2 0 1
Neighs:    0.025 ave 1 max 0 min
Histogram: 39 0 0 0 0 0 0 0 0 1

Total # of neighbors = 1
Ave neighs/atom = 0.00395257
Neighbor list builds = 33394
Dangerous builds = 891
Setting up run at Mon Jan  2 06:15:27 2023

Memory usage per processor = 964.609 Mbytes
    Step    Atoms         KinEng            CPU 
40740710      253      0.3999077              0 
41049351      253     0.43775891      3414.1674 
Loop time of 3414.17 on 40 procs for 308641 steps with 253 atoms, finish time Mon Jan  2 07:12:21 2023


Pair  time (%) = 0.609685 (0.0178575)
Neigh time (%) = 102.736 (3.00911)
Comm  time (%) = 54.9689 (1.61002)
Outpt time (%) = 0.005984 (0.00017527)
Other time (%) = 3255.85 (95.3628)

Nlocal:    6.325 ave 56 max 0 min
Histogram: 31 2 2 0 2 0 1 1 0 1
Nghost:    0.725 ave 7 max 0 min
Histogram: 31 3 2 0 0 1 0 1 1 1
Neighs:    0 ave 0 max 0 min
Histogram: 40 0 0 0 0 0 0 0 0 0

Total # of neighbors = 0
Ave neighs/atom = 0
Neighbor list builds = 38331
Dangerous builds = 0
Setting up run at Mon Jan  2 07:12:21 2023

Memory usage per processor = 964.609 Mbytes
    Step    Atoms         KinEng            CPU 
41049351      253     0.43775891              0 
41357992      249     0.49531247      3330.6632 
Loop time of 3330.66 on 40 procs for 308641 steps with 249 atoms, finish time Mon Jan  2 08:07:52 2023


Pair  time (%) = 0.604936 (0.0181626)
Neigh time (%) = 85.7293 (2.57394)
Comm  time (%) = 39.3108 (1.18027)
Outpt time (%) = 0.000235254 (7.06328e-06)
Other time (%) = 3205.02 (96.2276)

Nlocal:    6.225 ave 58 max 0 min
Histogram: 31 1 3 1 0 2 1 0 0 1
Nghost:    0.675 ave 7 max 0 min
Histogram: 31 3 2 0 0 2 0 1 0 1
Neighs:    0 ave 0 max 0 min
Histogram: 40 0 0 0 0 0 0 0 0 0

Total # of neighbors = 0
Ave neighs/atom = 0
Neighbor list builds = 31985
Dangerous builds = 739
Setting up run at Mon Jan  2 08:07:52 2023

Memory usage per processor = 964.609 Mbytes
    Step    Atoms         KinEng            CPU 
41357992      249     0.49531247              0 
41666633      245     0.46318472      3336.5337 
Loop time of 3336.53 on 40 procs for 308641 steps with 245 atoms, finish time Mon Jan  2 09:03:29 2023


Pair  time (%) = 0.603633 (0.0180916)
Neigh time (%) = 86.9461 (2.60588)
Comm  time (%) = 41.9404 (1.257)
Outpt time (%) = 0.000548419 (1.64368e-05)
Other time (%) = 3207.04 (96.119)

Nlocal:    6.125 ave 56 max 0 min
Histogram: 32 1 2 2 0 0 0 2 0 1
Nghost:    0.75 ave 5 max 0 min
Histogram: 30 0 4 0 0 0 1 0 2 3
Neighs:    0.05 ave 2 max 0 min
Histogram: 39 0 0 0 0 0 0 0 0 1

Total # of neighbors = 2
Ave neighs/atom = 0.00816327
Neighbor list builds = 32428
Dangerous builds = 1558
Setting up run at Mon Jan  2 09:03:29 2023

Memory usage per processor = 964.609 Mbytes
    Step    Atoms         KinEng            CPU 
41666633      245     0.46318472              0 
41975274      237     0.47817598      3430.7049 
Loop time of 3430.71 on 40 procs for 308641 steps with 237 atoms, finish time Mon Jan  2 10:00:39 2023


Pair  time (%) = 0.603985 (0.0176053)
Neigh time (%) = 107.844 (3.1435)
Comm  time (%) = 53.8933 (1.57091)
Outpt time (%) = 0.00136598 (3.98163e-05)
Other time (%) = 3268.36 (95.2679)

Nlocal:    5.925 ave 52 max 0 min
Histogram: 31 1 1 3 1 1 0 0 1 1
Nghost:    0.7 ave 6 max 0 min
Histogram: 31 3 0 1 0 1 1 0 2 1
Neighs:    0 ave 0 max 0 min
Histogram: 40 0 0 0 0 0 0 0 0 0

Total # of neighbors = 0
Ave neighs/atom = 0
Neighbor list builds = 40262
Dangerous builds = 202
Setting up run at Mon Jan  2 10:00:39 2023

Memory usage per processor = 964.609 Mbytes
    Step    Atoms         KinEng            CPU 
41975274      237     0.47817598              0 
42283915      234     0.46478267       3346.485 
Loop time of 3346.49 on 40 procs for 308641 steps with 234 atoms, finish time Mon Jan  2 10:56:26 2023


Pair  time (%) = 0.603614 (0.0180372)
Neigh time (%) = 90.7214 (2.71095)
Comm  time (%) = 37.9672 (1.13454)
Outpt time (%) = 0.000472804 (1.41284e-05)
Other time (%) = 3217.19 (96.1365)

Nlocal:    5.85 ave 53 max 0 min
Histogram: 31 2 2 1 1 0 1 0 1 1
Nghost:    0.675 ave 6 max 0 min
Histogram: 28 8 0 0 0 1 0 0 2 1
Neighs:    0.075 ave 1 max 0 min
Histogram: 37 0 0 0 0 0 0 0 0 3

Total # of neighbors = 3
Ave neighs/atom = 0.0128205
Neighbor list builds = 33858
Dangerous builds = 730
Setting up run at Mon Jan  2 10:56:26 2023

Memory usage per processor = 964.609 Mbytes
    Step    Atoms         KinEng            CPU 
42283915      234     0.46478267              0 
42592556      231     0.52476797      3303.3473 
Loop time of 3303.35 on 40 procs for 308641 steps with 231 atoms, finish time Mon Jan  2 11:51:29 2023


Pair  time (%) = 0.598441 (0.0181162)
Neigh time (%) = 78.9166 (2.38899)
Comm  time (%) = 37.1811 (1.12556)
Outpt time (%) = 0.000522196 (1.58081e-05)
Other time (%) = 3186.65 (96.4673)

Nlocal:    5.775 ave 54 max 0 min
Histogram: 31 1 3 2 0 1 0 1 0 1
Nghost:    0.7 ave 6 max 0 min
Histogram: 29 3 0 4 0 2 0 0 1 1
Neighs:    0 ave 0 max 0 min
Histogram: 40 0 0 0 0 0 0 0 0 0

Total # of neighbors = 0
Ave neighs/atom = 0
Neighbor list builds = 29469
Dangerous builds = 187
Setting up run at Mon Jan  2 11:51:29 2023

Memory usage per processor = 964.609 Mbytes
    Step    Atoms         KinEng            CPU 
42592556      231     0.52476797              0 
42901197      227     0.50564896      3314.9102 
Loop time of 3314.91 on 40 procs for 308641 steps with 227 atoms, finish time Mon Jan  2 12:46:44 2023


Pair  time (%) = 0.597087 (0.0180121)
Neigh time (%) = 80.2389 (2.42054)
Comm  time (%) = 37.7496 (1.13878)
Outpt time (%) = 0.0113981 (0.000343844)
Other time (%) = 3196.31 (96.4223)

Nlocal:    5.675 ave 48 max 0 min
Histogram: 31 1 2 2 0 2 0 0 1 1
slurmstepd: error: *** JOB 14706088 ON r07c25 CANCELLED AT 2023-01-02T15:34:29 DUE TO TIME LIMIT ***
srun: Job step aborted: Waiting up to 62 seconds for job step to finish.
slurmstepd: error: *** STEP 14706088.0 ON r07c25 CANCELLED AT 2023-01-02T15:34:29 DUE TO TIME LIMIT ***
