ITEM: TIMESTEP
17901209
ITEM: NUMBER OF ATOMS
505
ITEM: BOX BOUNDS ff ff ff
-0.15 0.15
-0.15 0.15
-0.15 0.15
ITEM: ATOMS id type x y z radius vx vy vz density 
263 1 -0.00704079 -0.019874 -0.0684634 0.000175 -7.86083 -4.67449 0.810221 2650 
119 1 -0.00866381 -0.00736975 -0.0678232 0.000635 -47.8081 -9.12454 6.23179 2650 
1002 1 -0.0129104 -0.0134756 -0.0667796 0.000984 -13.1566 2.29244 2.5435 2650 
863 1 -0.0162952 -0.00853296 -0.0668683 0.000175 -50.1382 15.0142 12.2177 2650 
566 1 -0.0217895 -0.000478539 -0.0651815 0.000175 -18.3399 -3.11039 6.75709 2650 
1152 1 -0.0382221 -0.0206336 -0.0572362 0.000175 -30.4216 -9.90361 20.3134 2650 
883 1 -0.0464383 -0.0413753 -0.0502 0.000635 -44.8714 1.8956 41.4914 2650 
428 1 -0.030164 -0.0543812 -0.0499791 0.000175 -18.1621 8.31378 5.22272 2650 
1283 1 -0.0513917 -0.0333541 -0.045793 0.000175 -71.864 -3.75647 81.7172 2650 
516 1 -0.0507316 -0.018489 -0.0458442 0.000635 -24.6066 -2.41742 27.2163 2650 
240 1 -0.0519092 -0.0474438 -0.0439941 0.000984 -26.788 -0.648899 31.5856 2650 
876 1 -0.0503035 -0.0347086 -0.0369785 0.000635 -45.5184 -3.76963 32.2603 2650 
982 1 -0.0148302 -0.0558757 -0.0253778 0.000635 8.81186 -0.41026 -4.80463 2650 
278 1 -0.0667333 -0.0255017 -0.0149437 0.000635 -9.61386 0.14218 42.9123 2650 
890 1 -0.008469 -0.000869485 -0.008886 0.000175 0 -0.01175 0 2650 
409 1 -0.0148424 -0.00245309 -0.00556384 0.000984 0.0214247 -0.0431262 -0.0107744 2650 
1074 1 -0.0682851 -0.0218664 -0.00378772 0.000635 -2.94057 -6.29164 52.9885 2650 
366 1 -0.0101986 -0.00329345 -0.00418908 0.000175 0.0123126 -0.000924957 -0.00290459 2650 
403 1 -0.000132 -0.00278648 -0.004486 0.000175 0 -0.01175 0 2650 
959 1 -0.0687811 -0.025741 -0.00259077 0.000175 -2.29399 10.6775 61.0321 2650 
1224 1 -0.0150788 -0.00135048 -0.00324373 0.000175 0.00253105 -0.0124932 0.00831492 2650 
406 1 -0.003114 -0.00106148 -0.002553 6.3e-05 0 -0.01175 0 2650 
404 1 -0.0144858 -0.00231948 -0.00167939 0.000175 -0.0175163 -0.0113764 0.0422339 2650 
1295 1 -0.002608 -0.00193948 -0.002004 0.000175 0 -0.01175 0 2650 
219 1 -0.004445 -0.000561485 0.000972 0.000635 0 -0.01175 0 2650 
144 1 -0.00562138 -0.00220593 0.00357927 0.000635 -0.0213436 -0.00926831 0.0170579 2650 
358 1 -0.001101 -0.00202248 0.005262 0.000175 0 -0.01175 0 2650 
518 1 -0.0142859 -0.00254995 0.00710894 0.000635 0.0115671 -0.0223994 0.022738 2650 
123 1 -0.0153831 -0.000129708 0.00652147 0.000175 0.00962122 -0.0170148 0.0225583 2650 
1017 1 -0.0675187 -0.0458362 0.0109508 0.000635 12.7088 5.51402 78.3275 2650 
637 1 -0.002438 -0.00102148 0.010331 6.3e-05 0 -0.01175 0 2650 
798 1 -0.0678774 -0.022988 0.0114034 0.000175 4.00081 -7.18721 23.8108 2650 
1167 1 -0.00429316 -0.000677314 0.0125111 0.000984 0.0188955 -0.0056496 0.0169775 2650 
139 1 -0.00795073 -0.00247813 0.0133226 0.000984 0.0692756 -0.0414389 0.048685 2650 
766 1 -0.007586 -0.000342485 0.014412 0.000175 0 -0.01175 0 2650 
829 1 -0.00543581 -0.000702618 0.0157386 0.000175 0.156268 -0.0732645 0.0430373 2650 
781 1 -0.065752 -0.0469665 0.0188064 0.000635 14.3109 12.3065 50.0124 2650 
1082 1 -0.0651446 -0.0521279 0.0207888 0.000635 9.43158 -2.77467 29.5404 2650 
1222 1 -0.0502427 -0.0213749 0.0238116 0.000175 0.241166 -6.79001 8.30607 2650 
586 1 -0.0564976 -0.00180257 0.0369366 0.000635 -1.31527 2.9617 9.68288 2650 
558 1 -0.0529331 -0.00115312 0.0439924 0.000175 35.5514 16.5315 42.7702 2650 
757 1 -0.0506335 -0.00401885 0.0454487 0.000175 29.8112 -16.4527 37.2113 2650 
1236 1 -0.0491901 -0.0481535 0.0474974 0.000635 29.9507 1.55679 31.0034 2650 
985 1 -0.0469433 -0.0537588 0.049498 0.000175 20.2286 -14.8019 22.0374 2650 
686 1 -0.0449076 -0.0231135 0.0515741 0.000635 46.7641 7.74784 40.7045 2650 
742 1 -0.0435569 -0.0296587 0.0527192 0.000635 47.3835 -9.81955 39.1263 2650 
707 1 -0.0416175 -0.0443298 0.0538321 0.000984 36.0554 3.91424 27.8553 2650 
39 1 -0.0419155 -0.0400706 0.0540121 0.000635 16.2016 9.01931 12.5655 2650 
276 1 -0.0346308 -0.0618013 0.0585631 0.000984 52.44 -0.410066 30.7487 2650 
1182 1 -0.0267183 -0.0351928 0.0629411 0.000635 48.5448 5.17235 20.5981 2650 
655 1 -0.0148939 -0.0408353 0.0667322 0.000635 48.0186 -5.3999 10.7126 2650 
1202 1 -0.0105526 -0.0316598 0.0672817 0.000984 113.375 -1.80158 17.7118 2650 
184 1 -0.0134537 -0.0115396 0.0670304 0.000635 0.00301586 -0.388727 -0.153243 2650 
1006 1 -0.00585846 -0.00508368 0.0681318 0.000635 69.4856 14.9412 5.96715 2650 
277 1 -0.0233048 0.0374285 -0.0642728 0.000635 -28.7337 -22.4077 10.4154 2650 
293 1 -0.0506426 0.0617064 -0.0374762 0.000175 -7.6854 0.100507 -5.63613 2650 
364 1 -0.00252024 0.0121844 -0.016373 0.000175 -0.0420851 -0.000164006 0.0103364 2650 
1254 1 -0.000583482 0.0198687 -0.0158929 0.000175 0.0180195 0.0151182 -0.0100108 2650 
492 1 -0.00289275 0.024196 -0.0160547 0.000175 -0.173911 0.0525979 0.0475167 2650 
1169 1 -0.0014102 0.00966515 -0.0148935 0.000984 -0.00172537 -0.00127081 -0.0613419 2650 
220 1 -0.00533026 0.0191837 -0.0146262 0.000635 -0.0607538 0.020005 0.0151616 2650 
331 1 -0.00646883 0.0205008 -0.0153801 0.000175 -0.240257 0.0122632 0.070484 2650 
478 1 -0.00387806 0.021606 -0.0155452 0.000635 0.0296992 0.000276118 -0.00574502 2650 
1230 1 -0.0039191 0.0222034 -0.0146813 6.3e-05 -0.0163264 0.0267323 0.00376858 2650 
947 1 -0.00407285 0.0399212 -0.0155852 0.000635 0.000534707 0.0402503 0.0108265 2650 
513 1 -0.00291823 0.0425093 -0.0155517 0.000635 -0.0038699 0.0953889 0.00512063 2650 
234 1 -0.0031631 0.0451181 -0.0150355 0.000175 0.0405859 0.130802 -0.00403385 2650 
912 1 -0.000193547 0.0699376 -0.0146463 0.000635 0.00976657 0.107707 0.00880392 2650 
945 1 -0.00801394 0.0190656 -0.0139724 0.000635 -0.0989146 0.0297993 -0.0165674 2650 
577 1 -0.00604863 0.0194057 -0.0135319 0.000635 -0.0730632 0.0525289 0.013052 2650 
849 1 -0.00879691 0.0271379 -0.0137956 0.000635 -0.0372932 -0.0126279 0.0266429 2650 
1137 1 -0.00403377 0.0326401 -0.0134861 0.000635 -0.124822 0.00971256 0.00746923 2650 
1143 1 -0.00670591 0.04278 -0.0133873 0.000635 -0.0417083 0.0489277 -0.00307732 2650 
483 1 -0.00961342 0.00557313 -0.012151 0.000635 -0.096317 0.00989693 0.0990517 2650 
58 1 -0.00879275 0.0189959 -0.0128326 0.000175 0.0163643 0.0137378 0.00115129 2650 
721 1 -0.00440943 0.0271429 -0.0128289 0.000635 -0.0338247 0.0296517 -0.00957262 2650 
494 1 -0.00905253 0.0321645 -0.0131005 0.000175 0.0300295 0.0475799 0.0178478 2650 
92 1 -0.0101162 0.0360769 -0.0128218 0.000175 -0.0710901 0.0371839 0.0409615 2650 
1192 1 -0.0112714 0.0616546 -0.0124497 0.000175 -0.153878 0.29804 0.109273 2650 
1070 1 -0.0111117 0.000715668 -0.0113234 0.000984 -0.114806 -0.023601 0.131822 2650 
984 1 -0.000878554 0.0259369 -0.0113665 0.000635 0.0526556 0.0313989 -0.0188022 2650 
814 1 -0.00503518 0.0454483 -0.0111479 0.000635 -0.0855482 0.0664602 -0.122056 2650 
960 1 -0.0119203 0.0550702 -0.0116015 0.000175 -0.116514 0.0120389 0.134769 2650 
190 1 -0.000724831 0.0044651 -0.0101851 0.000175 -0.0034306 -0.0413788 0.0357594 2650 
942 1 -0.0121829 0.00795219 -0.0105943 0.000635 -0.0446759 0.035623 0.0489695 2650 
136 1 -0.0131497 0.0140374 -0.0104941 6.3e-05 -0.153309 -0.0327997 0.176466 2650 
493 1 -0.00247264 0.059633 -0.0107276 0.000175 -0.053172 0.0774736 -0.0474896 2650 
497 1 -0.00790216 0.000940084 -0.00928761 0.000175 0.0361079 0.00198341 -0.0396511 2650 
868 1 -0.005513 0.000775515 -0.008425 6.3e-05 0 -0.01175 0 2650 
98 1 -0.0142301 0.00639282 -0.00870313 0.000175 -0.0881334 0.0530829 0.156457 2650 
512 1 -0.0129891 0.00990011 -0.00843383 0.000635 -0.039671 0.0471571 0.0639317 2650 
539 1 -0.00239558 0.0217405 -0.00953108 6.3e-05 -0.00668862 0.027453 0.0211597 2650 
1088 1 -0.0143775 0.0327174 -0.00852005 0.000175 -0.0235227 0.0352662 0.013512 2650 
946 1 -0.00148655 0.0374266 -0.00908303 0.000635 -0.0165255 0.0424986 0.0269554 2650 
442 1 -0.0112497 0.018412 -0.00721176 0.000984 0.000419435 -0.0175878 0.012583 2650 
164 1 -0.0133029 0.0194506 -0.0077054 0.000175 -0.0176431 0.022443 -0.0037286 2650 
1304 1 -0.00934051 0.0230619 -0.00759606 0.000635 -0.000756845 0.0697735 -0.0273825 2650 
677 1 -0.0106286 0.0342262 -0.00797905 0.000635 -0.0342417 0.0508238 0.0149414 2650 
1278 1 -0.0146691 0.00181464 -0.00680268 0.000635 -0.107936 -0.0224652 0.201075 2650 
948 1 -0.0126485 0.00293598 -0.00613693 0.000635 0.0259534 0.0125046 -0.0185835 2650 
261 1 -0.000427 0.00306752 -0.006302 0.000175 0 -0.01175 0 2650 
1051 1 -0.00304669 0.00713641 -0.00692041 0.000175 -0.00564506 0.00848476 -0.0409121 2650 
1244 1 -0.00111417 0.0234678 -0.00620623 0.000635 -0.0260787 0.0224498 -0.00581728 2650 
797 1 -0.0140081 0.0238642 -0.00669591 0.000175 -0.00863712 0.0237636 -0.0110266 2650 
633 1 -0.0110221 0.0390023 -0.00661146 0.000175 -0.0701442 0.0643207 -0.0257047 2650 
832 1 -0.00926453 0.0523812 -0.00634501 0.000175 -0.0124321 0.068675 -0.0107553 2650 
780 1 -0.0106375 0.0601588 -0.00712778 0.000635 -0.0124281 0.0831321 0.0302215 2650 
1146 1 -0.0128042 0.0208935 -0.0052085 0.000635 -0.020354 0.0234562 0.0188028 2650 
443 1 -0.00426997 0.0213733 -0.00501238 0.000984 0.00382702 0.0221485 0.00856622 2650 
791 1 -0.0152911 0.0225383 -0.00504716 0.000175 0.0127266 -0.00765996 0.00593648 2650 
217 1 -0.0153509 0.0408258 -0.00536039 0.000635 -0.0125929 0.0235773 0.048261 2650 
530 1 -0.0109882 0.0427565 -0.0059569 0.000175 0.00857753 0.0912183 0.02306 2650 
860 1 -0.0147646 0.0570009 -0.00529078 0.000175 -0.0295794 0.0721555 0.0349685 2650 
134 1 -0.0150404 0.0633166 -0.00512468 6.3e-05 -0.00898174 0.19621 -0.130642 2650 
1005 1 -0.00534374 0.0170666 -0.00464924 0.000635 0.0114662 0.0157394 0.0147236 2650 
490 1 -0.0154352 0.0244701 -0.003712 0.000635 -0.00545031 0.0245178 0.0391369 2650 
457 1 -0.00936622 0.0274886 -0.00392905 0.000635 -0.0422269 0.0305005 0.00359776 2650 
1097 1 -0.00179197 0.0286376 -0.00435461 0.000175 -0.0135114 0.0256055 0.00191624 2650 
30 1 -0.0159742 0.0356143 -0.00441069 0.000175 -0.0517845 0.127738 0.212347 2650 
587 1 -0.0151447 0.0395225 -0.00464443 0.000635 -0.00515737 0.018592 0.0438101 2650 
181 1 -0.00961581 0.0506193 -0.00394278 0.000635 0.00568644 0.0275754 0.0540726 2650 
1141 1 -0.00494015 0.00465383 -0.00283678 0.000635 -0.0132659 0.00405862 -0.0216285 2650 
943 1 -0.014108 0.0112514 -0.00261321 0.000635 0.000376073 0.0070486 0.0298723 2650 
378 1 -0.012232 0.0107149 -0.00244644 0.000984 0.0144487 -0.0377402 -0.0246407 2650 
303 1 -0.00915374 0.0371501 -0.00277719 6.3e-05 0.0208333 0.0806111 -0.00333994 2650 
1060 1 -0.00889495 0.000355791 -0.00139957 0.000175 -0.0260291 -0.01296 -0.0152645 2650 
1129 1 -0.011329 0.0049339 -0.00184546 0.000175 -0.0117335 -0.00389042 -0.00243884 2650 
700 1 -0.00395457 0.0332374 -0.00120292 0.000175 0.0159228 0.0392687 -0.00583605 2650 
270 1 -0.00515747 0.0176084 -0.000221164 6.3e-05 0.000631057 0.0149424 -0.0171158 2650 
615 1 -0.0154603 0.0201353 -0.000128753 0.000635 8.17574e-05 0.0111686 0.0358238 2650 
1292 1 -0.014823 0.0264437 -0.000497648 0.000175 0.0185555 0.0580333 0.00474034 2650 
332 1 -0.0165248 0.0366791 -0.000917051 0.000175 3.76209e-06 0.0375373 -0.00618876 2650 
789 1 -0.0165665 0.039455 -0.000902212 0.000175 -0.00418624 -0.0663072 0.105209 2650 
806 1 -0.0110792 0.0402356 -0.000334775 0.000984 0.0105145 0.0331435 -0.0121513 2650 
1186 1 -0.0132244 0.00903844 0.0009965 0.000175 -0.0452204 0.0206558 -0.00354699 2650 
487 1 -0.0160984 0.0186955 0.000249707 0.000635 -0.000827566 0.026607 0.0444651 2650 
949 1 -0.0157114 0.0232957 0.000500168 0.000635 -0.00352697 0.017646 0.0389907 2650 
1216 1 -0.016636 0.0335462 0.000879076 0.000175 -0.0102664 0.0632961 -0.251324 2650 
567 1 -0.0127204 0.0377254 0.000344591 0.000175 0.0178787 0.0312192 0.0477022 2650 
1140 1 -0.00106925 0.0502543 0.000703938 0.000635 -0.0327575 0.108973 0.00732732 2650 
1238 1 -0.0162868 0.0614958 0.0008923 0.000635 -0.0197758 0.18033 -0.0818754 2650 
1290 1 -0.010208 0.000977515 0.001685 0.000175 0 -0.01175 0 2650 
1196 1 -0.0113839 0.0164217 0.00225403 0.000175 -0.0183116 0.0320315 -0.0312625 2650 
1317 1 -0.00831598 0.0187077 0.00208559 0.000175 0.00848764 0.0303563 0.0148876 2650 
75 1 -0.0150852 0.0233745 0.0018286 0.000635 0.00496358 0.0296142 0.0409182 2650 
571 1 -0.00365304 0.0289462 0.00146226 6.3e-05 0.00922284 0.037485 0.0218909 2650 
1240 1 -0.00881255 0.0535566 0.00146369 0.000635 0.0199168 0.0391433 0.102291 2650 
629 1 -0.00248 0.000750515 0.002813 0.000175 0 -0.01175 0 2650 
272 1 -0.0137001 0.00213434 0.00242468 6.3e-05 -0.000536309 0.00874001 -0.0031638 2650 
769 1 -0.003816 0.00140152 0.003188 6.3e-05 0 -0.01175 0 2650 
541 1 -0.00526481 0.00310041 0.00338815 0.000984 0.0221672 -0.00635207 0.00354967 2650 
522 1 -0.0157972 0.00868903 0.00285236 0.000635 0.00163775 0.00891175 0.00438233 2650 
90 1 -0.0161174 0.0163972 0.00353254 0.000175 0.0096115 0.00872598 0.0449064 2650 
559 1 -0.0102611 0.0156976 0.00245847 0.000175 0.0637988 0.0202265 -0.102778 2650 
384 1 -0.0158921 0.0187823 0.00258373 0.000635 0.0109866 0.0583434 0.0549706 2650 
1094 1 -0.0131324 0.0210673 0.00291225 0.000175 -0.0153431 0.00224402 0.0396531 2650 
1164 1 -0.0164623 0.0256493 0.00309608 6.3e-05 0.00847272 -0.00385382 0.0485069 2650 
1003 1 -0.0156264 0.0280352 0.00331891 0.000984 0.0139584 0.0348429 0.0508771 2650 
1245 1 -0.0157696 0.0417072 0.00331711 0.000635 0.0147341 -0.0879166 0.0642614 2650 
858 1 -0.00489561 0.0581954 0.00277283 0.000175 0.0249949 0.0498135 -0.00159121 2650 
319 1 -0.0110865 0.000188116 0.00431845 0.000635 0.0157624 -0.018726 0.0118424 2650 
66 1 -0.006818 2.51517e-06 0.004587 6.3e-05 0 -0.01175 0 2650 
383 1 -0.015357 0.0202059 0.004601 0.000635 0.00493532 0.0479156 0.0612719 2650 
1203 1 -0.0110263 0.0206016 0.00433207 0.000635 0.0389138 0.0152427 0.00361955 2650 
1056 1 -0.0103443 0.0202754 0.00387632 0.000175 0.0601667 0.030828 0.00271117 2650 
222 1 -0.0088633 0.0263134 0.00394404 0.000175 0.0278537 0.0369445 -0.00666503 2650 
1305 1 -0.00261501 0.0304492 0.00426291 0.000635 0.0303928 0.0529111 -0.00962903 2650 
830 1 -0.0111023 0.0379664 0.00446058 0.000175 -0.00733428 0.0569478 -0.0251425 2650 
311 1 -0.0154716 0.0442596 0.00474629 0.000635 0.0311604 -0.0366891 0.129661 2650 
1217 1 -0.0047691 0.00156223 0.00504185 0.000175 -0.000942621 -0.0101844 -0.000321658 2650 
579 1 -0.0145634 0.00867277 0.00561526 0.000635 0.012859 -0.00738128 0.0377227 2650 
125 1 -0.0153198 0.0133518 0.0050624 0.000175 0.0127875 0.00713527 0.0190827 2650 
1068 1 -0.014953 0.0162254 0.00554784 0.000984 0.0135635 0.0181757 0.0590014 2650 
772 1 -0.0123737 0.0180625 0.005896 0.000984 0.0329389 0.0380139 0.0424925 2650 
605 1 -0.0117293 0.0193063 0.00494605 6.3e-05 0.0322101 0.0266793 0.0567209 2650 
224 1 -0.015444 0.0225651 0.00594854 0.000175 0.0281467 0.0903306 0.0401104 2650 
932 1 -0.0159104 0.0435645 0.0050594 0.000175 0.138291 -0.136633 0.359714 2650 
1021 1 -0.004268 0.00232552 0.006589 0.000175 0 -0.01175 0 2650 
158 1 -0.01019 0.00459762 0.00629156 0.000175 0.0163133 0.00255781 0.00345346 2650 
372 1 -0.00910589 0.00854403 0.00618056 6.3e-05 -0.0106514 0.00351897 0.00342164 2650 
102 1 -0.0128861 0.0143576 0.00611759 6.3e-05 0.00339052 0.017933 0.0217971 2650 
1069 1 -0.00928843 0.01611 0.00628533 0.000984 0.004016 0.0142548 0.0244673 2650 
329 1 -0.0142116 0.0183354 0.00608664 0.000175 0.0274332 0.0239411 0.0196132 2650 
689 1 -0.00800328 0.0193955 0.00653174 0.000175 0.0322153 0.000172548 -0.00916671 2650 
427 1 -0.0153432 0.0215709 0.00675817 0.000175 0.016151 0.0188284 0.0397095 2650 
235 1 -0.00529884 0.00264089 0.00760881 6.3e-05 0.0298891 -0.0322092 -0.00759011 2650 
1326 1 -0.012547 0.0217108 0.00828401 0.000175 -0.0317033 0.0451697 0.0125459 2650 
1020 1 -0.0150528 0.0471022 0.0072365 0.000175 0.0237395 0.0557964 0.0909057 2650 
179 1 -0.0118482 0.00314598 0.00890713 0.000635 0.00815821 -0.0054542 0.025742 2650 
760 1 -0.00822479 0.00328161 0.00897206 0.000175 0.0174122 0.00330585 0.0152122 2650 
562 1 -0.0118067 0.0051923 0.00918076 0.000175 0.0200744 -0.00140515 0.0107638 2650 
380 1 -0.0133249 0.00858906 0.00922656 0.000635 -0.0043273 0.00870556 0.0416799 2650 
267 1 -0.00603088 0.00872575 0.00921852 0.000175 0.014904 0.00469267 -5.3787e-06 2650 
1010 1 -0.00707573 0.0370196 0.00896354 0.000635 0.00428556 0.0810421 0.0118931 2650 
646 1 -0.0105323 0.000888452 0.00975134 0.000635 0.0110327 -0.0114066 0.0267309 2650 
256 1 -0.00470809 0.000454779 0.0105746 0.000175 0.000970979 -0.0118608 -0.000158841 2650 
956 1 -0.00692542 0.014955 0.0102959 0.000175 0.0494887 0.0323349 -0.010262 2650 
612 1 -0.00865364 0.0188572 0.0102083 0.000635 0.000442679 0.0287858 0.0163609 2650 
1150 1 -0.00594623 0.0222363 0.0106856 0.000175 0.0623982 0.051812 0.0157522 2650 
101 1 -0.0134398 0.0245684 0.0104574 6.3e-05 0.0489153 0.0356993 0.0785076 2650 
975 1 -0.00291582 0.0260544 0.00986131 0.000635 -0.0170389 0.0287203 0.00779373 2650 
556 1 -0.00013605 0.025512 0.00974274 0.000635 -0.0658231 0.054637 -0.0427997 2650 
735 1 -0.0107719 0.0308406 0.0107533 6.3e-05 0.0135612 0.0549184 -0.00195144 2650 
1284 1 -0.00535446 0.0301826 0.0106085 0.000175 -0.0184046 0.0155818 -0.0281279 2650 
906 1 -0.00870174 0.0432748 0.00986663 0.000635 0.0117638 0.120382 0.0161391 2650 
103 1 -0.00564041 0.000450734 0.0114045 0.000984 0.0186644 0.000807467 0.0195383 2650 
1193 1 -0.000135 0.00339052 0.010956 0.000175 0 -0.01175 0 2650 
1165 1 -0.00490372 0.00770175 0.0108805 6.3e-05 0.0313783 0.029394 0.0274106 2650 
991 1 -0.00462602 0.021872 0.0115599 0.000175 -0.0332245 0.0266316 -0.0191281 2650 
113 1 -0.00169091 0.0363069 0.011928 0.000635 -0.0260546 0.0421297 -0.0216943 2650 
631 1 -0.0123546 0.03697 0.0111194 0.000175 -0.0311142 0.0247007 -0.0369615 2650 
17 1 -0.00344718 0.0521388 0.0112968 0.000635 0.0139214 0.0593761 -0.0283879 2650 
660 1 -0.00820408 0.000591184 0.0130893 0.000175 0.0205251 -0.00433101 -0.00984263 2650 
770 1 -0.00859416 0.00509009 0.0122791 6.3e-05 0.0166411 0.00481218 0.00363284 2650 
361 1 -0.0102004 0.0106513 0.0126552 0.000175 0.173251 0.0232689 0.126087 2650 
1015 1 -0.000292645 0.010028 0.0125995 0.000635 0.0499893 0.0320987 0.0430945 2650 
440 1 -0.00811452 0.0152624 0.0130285 6.3e-05 -0.0120538 0.0142272 0.00137083 2650 
1147 1 -0.00571565 0.0152505 0.012084 0.000635 0.0179713 0.0102462 0.0383615 2650 
463 1 -0.000479231 0.0217748 0.0120741 0.000175 0.0139291 -0.00720344 -0.0404105 2650 
415 1 -0.00997511 0.0242078 0.0129185 0.000635 0.0385436 0.00487878 0.0742624 2650 
1080 1 -0.00540442 0.0281572 0.012354 0.000635 0.0210112 0.0229922 -0.0094622 2650 
687 1 -0.00940153 0.0331256 0.0131133 0.000635 0.0630862 0.193475 0.0487585 2650 
1289 1 -0.0101748 0.0334634 0.0121332 0.000175 0.0526455 0.180405 0.00598804 2650 
822 1 -0.00246342 0.0333414 0.0127307 0.000175 0.107679 0.192309 0.0551116 2650 
599 1 -0.00372079 0.0512215 0.0126378 0.000175 0.0303161 0.164344 0.00132684 2650 
500 1 -0.007362 0.00260352 0.013936 0.000175 0 -0.01175 0 2650 
1296 1 -0.010143 0.00598891 0.013426 6.3e-05 0.0141594 -0.285557 0.00440435 2650 
138 1 -0.00876138 0.00672201 0.0132641 0.000984 0.0570715 -0.0339144 0.0493866 2650 
491 1 -0.000683977 0.00620026 0.0135448 0.000175 -0.00634925 -0.00182601 0.00257761 2650 
1089 1 -0.00484897 0.0141191 0.0140954 0.000175 0.0145978 0.0153567 -0.0077566 2650 
363 1 -0.00572187 0.0178282 0.013844 0.000175 0.0876428 -0.0546015 0.0836982 2650 
750 1 -0.00592061 0.0227349 0.0140527 0.000635 0.0111268 0.0279858 0.0302127 2650 
1270 1 -0.00854427 0.032033 0.0138104 0.000635 0.0378872 0.05738 0.0283458 2650 
283 1 -0.00847494 0.0372158 0.0137778 0.000635 0.18047 -0.0274473 0.0813048 2650 
433 1 -0.00978891 0.0388763 0.0135957 0.000175 0.14957 0.0146674 0.128545 2650 
258 1 -0.00941422 0.0477898 0.0137969 0.000175 0.28255 -0.0506238 0.152125 2650 
884 1 -0.00729477 0.0499702 0.014313 0.000635 0.493451 0.125711 0.259334 2650 
204 1 -0.0054247 0.032137 0.0154056 6.3e-05 0.0367058 0.0229019 0.0129608 2650 
313 1 -0.0063582 0.0432617 0.0148794 0.000635 -0.0501122 0.0445735 -0.0217257 2650 
55 1 -0.00140535 0.0100966 0.0165736 0.000175 0.135106 0.0214051 0.00535643 2650 
1197 1 -0.00404449 0.0117083 0.0162465 6.3e-05 0.164823 -0.00215228 0.0426518 2650 
1205 1 -0.0015693 0.0224802 0.0161525 0.000635 0.0264916 0.0221274 -0.0112189 2650 
495 1 -0.0036164 0.0326841 0.0163247 0.000175 -0.0140932 0.0259219 -0.0189945 2650 
803 1 -0.00396722 0.0438777 0.0164169 6.3e-05 0.0419791 0.0377438 0.0172117 2650 
846 1 -0.00210969 0.0445358 0.0158588 0.000635 0.23764 -0.055528 0.0436169 2650 
1163 1 -0.00339688 0.0472508 0.0163903 0.000175 0.424932 -0.0226164 0.0444681 2650 
1263 1 -0.0644404 0.0672017 0.0244926 6.3e-05 -0.0634265 -0.292272 -0.166866 2650 
1172 1 -0.00874965 0.0670075 0.0247205 0.000635 -1.04446 0.0857948 2.9576 2650 
1242 1 -0.0589657 0.0541428 0.0346107 0.000635 -0.11192 -0.179546 -0.190556 2650 
1104 1 -0.0521376 0.0658351 0.0393433 0.000635 -0.169988 0.10206 -0.665732 2650 
1280 1 -0.0051814 0.0918107 -0.0139016 0.000635 -0.0196663 0.151946 0.00247169 2650 
171 1 -0.0669262 0.0752095 -0.0122373 0.000984 -0.014889 -0.0846239 0.0813568 2650 
84 1 -0.0671431 0.0766947 -0.0129335 0.000635 -0.35509 -1.14565 1.84231 2650 
572 1 -0.00195851 0.0765356 -0.0044501 6.3e-05 0.00506827 0.0682336 0.0295527 2650 
728 1 -0.0125726 0.106146 -0.00327531 0.000175 -0.0401008 0.108387 0.00907622 2650 
652 1 -0.00629338 0.144043 -0.00104865 0.000635 0.0148594 0.161894 -0.00454226 2650 
598 1 -0.0073738 0.112802 0.000223745 0.000175 0.0115316 0.158943 -0.0302672 2650 
195 1 -0.00198565 0.119305 0.00287136 0.000175 0.0237933 0.207767 0.036709 2650 
650 1 -0.0159796 0.130446 0.00276747 0.000635 -0.0360623 0.173234 0.0316363 2650 
1072 1 -0.0682678 0.148729 0.00388195 0.000635 -0.00156638 0.196237 -0.0275306 2650 
408 1 -0.00749816 0.0766979 0.00651744 0.000984 0.00423174 0.193971 -0.0190699 2650 
1063 1 -0.00975333 0.140119 0.00703145 0.000175 -0.0311021 0.238894 0.0441078 2650 
458 1 -0.00812732 0.0878627 0.0110717 0.000175 -0.0273517 0.0853488 0.0354585 2650 
1039 1 -0.0645866 0.0858167 0.0224464 0.000635 -0.0419548 -0.102735 -0.120648 2650 
1212 1 -0.0561841 0.0818825 0.0390572 0.000635 76.4031 5.79054 109.871 2650 
754 1 -0.00191105 0.141582 0.0681653 0.000635 -0.00799712 0.0110003 -0.208646 2650 
480 1 0.0270102 -0.05547 -0.0628288 0.000635 -70.2917 10.7964 -30.2067 2650 
1025 1 0.0370377 -0.0144185 -0.0580097 0.000175 -31.9289 -1.3636 -20.3839 2650 
269 1 0.00177611 -0.0472783 -0.056205 6.3e-05 3.10935 1.03398 -4.53815 2650 
552 1 0.0499407 -0.019772 -0.046699 0.000635 -17.6791 14.2041 -18.8951 2650 
48 1 0.0526094 -0.00862572 -0.0436788 0.000635 -24.4083 -2.35427 -29.3845 2650 
544 1 0.0518693 -0.00291707 -0.0188115 0.000635 8.84916 -2.73325 -2.41851 2650 
1273 1 0.00384977 -0.000463831 -0.0157236 0.000635 -0.152055 -0.00970827 -0.0417124 2650 
289 1 0.0670864 -0.0585372 -0.0117353 0.000635 1.28819 3.79209 -11.4399 2650 
159 1 0.00498801 -0.000627325 -0.0118567 0.000175 -0.0114095 -0.0125147 -0.0294455 2650 
714 1 0.067684 -0.0389638 -0.00977236 0.000635 -5.97116 -7.11609 -41.3376 2650 
585 1 0.0673681 -0.0181183 -0.00905232 0.000635 -5.10383 -1.48054 -23.3705 2650 
198 1 0.0137121 -0.00184949 -0.00931369 0.000175 -0.0294204 -0.0242881 -0.0430584 2650 
532 1 0.000760373 -0.000768818 -0.0089289 0.000175 -0.011734 -0.00303476 0.0102471 2650 
475 1 0.00296022 -0.000666442 -0.00738486 0.000984 -0.00283549 -0.0123684 0.0240905 2650 
897 1 0.0683976 -0.0179179 -0.00773714 0.000175 -15.2578 8.23031 -134.867 2650 
854 1 0.00776214 -0.00160815 -0.00660124 0.000175 -0.0244237 -0.00558922 -0.0103206 2650 
698 1 0.0143049 -0.00153876 -0.00551861 0.000175 0.0542069 -0.00661308 0.0364783 2650 
1149 1 0.0292655 -0.0618846 -0.00229292 0.000635 0.758049 0.364323 12.0252 2650 
1319 1 0.009274 -0.00304648 -0.003096 0.000175 0 -0.01175 0 2650 
42 1 0.00403977 -0.00231687 -0.00175265 0.000635 0.000896008 -0.0150091 -0.00389615 2650 
1105 1 0.00632339 -0.00224563 -0.00127655 0.000635 -0.0181517 -0.0170709 -0.00824241 2650 
169 1 0.006597 -8.14848e-05 -0.002208 6.3e-05 0 -0.01175 0 2650 
603 1 0.012685 -0.000324792 -0.00149271 6.3e-05 -0.00610794 -0.00945122 -0.0193199 2650 
568 1 0.00571395 -0.000455809 5.33068e-05 0.000175 -0.0134663 -0.0150726 -0.0263791 2650 
1107 1 0.0683148 -0.0466475 0.00309979 0.000635 1.76428 -0.817622 -38.863 2650 
729 1 0.010208 -0.00185148 0.002656 0.000175 0 -0.01175 0 2650 
999 1 0.015784 -0.000967485 0.002439 6.3e-05 0 -0.01175 0 2650 
115 1 0.00802983 -0.00208379 0.00528854 0.000635 0.00982159 -0.00934003 -0.0123116 2650 
291 1 0.00766788 -0.000614343 0.00589012 0.000175 0.0323958 0.0018307 -0.00427381 2650 
725 1 0.00264574 -0.000497891 0.00614526 0.000175 0.0391548 -0.0297855 0.0108421 2650 
1054 1 0.005655 -0.00187848 0.008743 0.000175 0 -0.01175 0 2650 
1153 1 0.00389888 -0.00117631 0.0107895 0.000175 -0.00223142 -0.0109785 -0.000131074 2650 
1136 1 0.0669566 -0.0361361 0.0121668 0.000984 7.27699 5.54818 -40.0193 2650 
1206 1 0.0668666 -0.0425693 0.0143682 0.000635 13.0035 4.3585 -60.4899 2650 
824 1 0.00629892 -0.00275957 0.0148844 0.000175 0.0712982 -0.0413482 -0.0450238 2650 
861 1 0.00712437 -0.00277745 0.0149815 0.000175 -0.0209675 -0.00243486 -0.0114074 2650 
505 1 0.0585282 -0.0535102 0.0200098 6.3e-05 5.77126 0.225275 26.9678 2650 
1103 1 0.0018697 -0.0538166 0.0280606 0.000984 3.01768 1.02664e-06 -0.138717 2650 
1154 1 0.0595905 -0.0143061 0.0344415 0.000175 17.1772 -4.26695 -29.715 2650 
355 1 0.05562 -0.0576526 0.0397736 0.000635 19.8762 -3.7967 -27.7811 2650 
951 1 0.0555448 -0.0186891 0.0398794 0.000635 20.8569 -10.3621 -29.0353 2650 
616 1 0.0524369 -0.0460997 0.0439039 0.000635 43.0963 17.8795 -51.4511 2650 
1223 1 0.0476884 -0.0246119 0.0496257 0.000175 0.520244 -0.544426 -0.499839 2650 
542 1 0.0396908 -0.0396108 0.0547032 0.000984 22.8093 -0.806509 -18.082 2650 
878 1 0.035853 -0.0506951 0.0582148 0.000635 25.572 -1.11515 -15.7414 2650 
928 1 0.0177573 -0.0248751 0.0578918 0.000175 -5.79663 3.21802 -0.641845 2650 
594 1 0.0356112 -0.0351874 0.0588988 0.000175 70.2993 -2.80203 -42.4986 2650 
983 1 0.010014 -0.0551944 0.0676277 0.000635 19.9734 3.54203 -2.9575 2650 
137 1 0.00526777 -0.0246903 0.0678732 0.000984 87.7827 -4.23064 -6.80948 2650 
549 1 0.00828561 -0.0172704 0.0678631 0.000635 32.6662 3.00624 -3.9871 2650 
589 1 0.0418511 0.0702851 -0.054058 0.000635 0.0704444 0.0212792 0.0545344 2650 
57 1 0.00198009 0.0050828 -0.016578 0.000175 0.0228196 -0.00704641 0.00430385 2650 
262 1 0.000972684 0.0197821 -0.0166081 0.000175 -0.183345 0.0544266 -0.00709116 2650 
191 1 0.00411197 0.0341599 -0.0161246 0.000175 -0.218959 0.00204592 -0.0548385 2650 
1260 1 0.000879163 0.0522838 -0.0156902 0.000175 -0.0473147 0.049016 -0.00115624 2650 
1235 1 0.00605755 0.00259306 -0.0147184 0.000984 -0.0931469 -0.0776467 -0.0258017 2650 
341 1 0.00162369 0.00950531 -0.0149542 0.000984 0.0254846 -0.0101507 -0.0443779 2650 
659 1 0.00129311 0.0146252 -0.0152723 0.000175 -0.0347234 0.086209 0.00226078 2650 
128 1 0.00545832 0.015749 -0.0153437 0.000175 -0.0167694 0.00976592 -0.00144946 2650 
162 1 0.00690161 0.0176271 -0.0152068 0.000175 0.402015 0.00156539 0.168383 2650 
937 1 0.00280662 0.0297346 -0.0155957 0.000984 0.0365248 0.0380429 -0.0012233 2650 
649 1 0.00318837 0.00657878 -0.0141725 0.000635 0.0110457 -0.0203351 0.0142847 2650 
34 1 0.00858619 0.00790429 -0.0142327 6.3e-05 -0.00147874 0.00132131 0.0116478 2650 
49 1 0.00465077 0.0112822 -0.0137977 0.000635 0.00495162 0.00371022 0.0103456 2650 
548 1 0.00809999 0.0154274 -0.0138308 0.000635 0.0224544 0.000749107 -0.00237845 2650 
536 1 0.00117139 0.0172985 -0.0134847 0.000175 0.0671314 0.110035 -0.0569143 2650 
588 1 0.00917362 0.00206362 -0.0122237 0.000635 0.0234995 -0.00724163 -0.0353318 2650 
1091 1 0.00225292 0.00264626 -0.0122636 0.000175 0.0492982 -0.00428542 -0.0456314 2650 
886 1 0.00757087 0.0136174 -0.0127613 0.000175 0.117468 0.0249025 -0.0146991 2650 
703 1 0.0119901 0.0162527 -0.0110665 6.3e-05 -0.0185257 0.0407955 -0.0182266 2650 
972 1 0.00893008 0.01715 -0.0115357 0.000635 0.0187492 0.0215484 0.0208215 2650 
16 1 0.00527095 0.0219313 -0.011806 0.000635 0.0135171 0.0416293 -0.0053926 2650 
1256 1 0.0119845 0.0482995 -0.0108065 0.000175 0.168633 -0.0684833 0.0563263 2650 
545 1 0.00852455 0.0652573 -0.0108776 0.000635 -0.055666 0.100525 -0.0416564 2650 
722 1 0.00066318 0.00356422 -0.0101917 0.000175 -0.000765307 -0.00724665 -0.00160405 2650 
445 1 0.00523706 0.00980403 -0.00972156 0.000635 0.0186416 -0.000872035 0.0209725 2650 
940 1 0.0113636 0.0118399 -0.0100732 0.000635 -0.0827933 -0.00833367 -0.0577619 2650 
807 1 0.0102041 0.0264088 -0.00961959 0.000635 0.0268093 0.0290242 0.0483826 2650 
910 1 0.008205 0.0500294 -0.0100315 0.000635 0.027791 0.0497803 0.0230222 2650 
1279 1 0.00293883 0.0103604 -0.00858639 0.000635 0.0667906 0.0376262 -0.0406548 2650 
939 1 0.0112248 0.0162125 -0.00840214 0.000635 -0.00814603 0.0158399 -0.021122 2650 
469 1 0.00972698 0.017336 -0.00898868 0.000175 -0.00104116 0.0268647 -0.0130071 2650 
1046 1 0.00860298 0.0330419 -0.00924489 0.000635 -0.0153697 0.0892275 -0.12896 2650 
499 1 0.0133323 0.0473497 -0.00980851 0.000175 -15.354 -5.05087 -29.2116 2650 
719 1 0.00504801 4.38582e-05 -0.0083815 0.000635 0.00993007 -0.00626531 -0.00718757 2650 
764 1 0.003851 0.00213652 -0.008091 0.000175 0 -0.01175 0 2650 
683 1 0.00768579 0.00294502 -0.00729253 0.000635 -0.000455509 -0.00557534 -0.0117387 2650 
1109 1 0.00939785 0.00525403 -0.00831305 0.000635 0.0118782 -0.0375784 -0.010604 2650 
1027 1 0.0105397 0.0073956 -0.00826722 0.000175 -0.00451025 -0.0239571 0.0476642 2650 
697 1 0.0142276 0.0109027 -0.00836554 0.000175 -0.00522498 0.012855 -0.00219757 2650 
645 1 0.00664969 0.0149692 -0.00838296 0.000635 -0.0236833 0.0402226 -0.0187387 2650 
141 1 0.00211455 0.0155475 -0.00815174 0.000635 -0.0281079 0.0127482 -0.0337744 2650 
124 1 0.00769026 0.0465951 -0.00738434 0.000175 -0.0582807 0.0671623 -0.00130713 2650 
19 1 0.00400757 0.0609586 -0.00773427 0.000175 0.0159017 0.101446 -0.0728525 2650 
670 1 0.0146276 0.0032413 -0.00610098 6.3e-05 0.0480864 -0.0035966 -0.0157973 2650 