ITEM: TIMESTEP
38888861
ITEM: NUMBER OF ATOMS
215
ITEM: BOX BOUNDS ff ff ff
-0.15 0.15
-0.15 0.15
-0.15 0.15
ITEM: ATOMS id type x y z radius vx vy vz density 
179 1 -0.0161297 -0.0553254 -0.0664491 0.000635 -57.7728 -0.333374 14.0179 2650 
1070 1 -0.0277952 -0.0288737 -0.0621712 0.000984 -98.5585 3.95431 43.9203 2650 
588 1 -0.0489211 -0.0466323 -0.047809 0.000635 -67.2264 -10.0171 68.7653 2650 
1149 1 -0.00908922 -0.0581352 -0.0280131 0.000635 0.284581 -0.0366834 -0.107663 2650 
1103 1 -0.0137381 -0.0538167 -0.0245658 0.000984 -3.69809 8.139e-07 2.05753 2650 
1230 1 -0.0650093 -0.0141285 -0.02294 6.3e-05 -0.124661 -0.343123 0.353252 2650 
877 1 -0.00295353 -0.000290339 -0.0157107 0.000635 -0.0494028 0.00253118 0.0135311 2650 
925 1 -0.0688284 -0.0429019 0.000183262 0.000175 0.0411491 3.61398 15.4524 2650 
270 1 -0.00401451 0.032594 -0.0157982 6.3e-05 0.00673049 0.0118197 0.00586485 2650 
900 1 -0.00231156 0.0388092 -0.0165447 6.3e-05 -0.0637864 0.0182312 0.0119269 2650 
489 1 -0.00716288 0.0268689 -0.0146352 0.000635 -0.197894 0.0272275 0.0813737 2650 
283 1 -0.0074677 0.0400754 -0.0144506 0.000635 -0.136436 -0.0191516 0.0576351 2650 
820 1 -0.00458132 0.0398913 -0.0151413 0.000175 -0.0135855 0.0143749 0.0113175 2650 
316 1 -0.0019897 0.000406775 -0.0132637 0.000635 0.0214569 -0.0143187 0.00611435 2650 
492 1 -0.00936487 0.0443027 -0.0137513 0.000175 -0.147533 0.00266541 0.109824 2650 
703 1 -0.0100835 0.0556429 -0.013354 6.3e-05 -0.0183549 0.0363886 0.013488 2650 
1168 1 -0.00650627 0.0329362 -0.0125365 0.000984 0.019802 0.00653814 -0.00673045 2650 
1284 1 -0.00747903 0.0435328 -0.0124734 0.000175 0.0186017 0.00992863 -0.0156609 2650 
76 1 -0.0117395 0.0330984 -0.0113375 0.000635 -0.0621873 -0.0129583 0.0714463 2650 
991 1 -0.00997787 0.0411569 -0.0108484 0.000175 0.0157586 -0.0488453 0.0175633 2650 
380 1 -0.0129704 0.0299056 -0.00976335 0.000635 -0.0372236 0.049697 0.0454987 2650 
16 1 -0.0124762 0.0454194 -0.0103218 0.000635 -0.084947 0.0403576 0.0976334 2650 
1141 1 -0.00384983 0.0088592 -0.00946268 0.000635 0.0117421 0.00417079 0.00477109 2650 
679 1 -0.010031 0.0262923 -0.00943105 0.000635 0.00663991 -0.0187791 0.0293972 2650 
804 1 -0.00752369 0.0320887 -0.0090303 0.000984 0.0186496 0.0082314 -0.0158914 2650 
747 1 -0.0142931 0.0154472 -0.00757562 0.000635 -0.0202164 -0.0111622 0.0384068 2650 
577 1 -0.0053672 0.0695112 -0.00807901 0.000635 0.0132191 0.0522713 -0.0149515 2650 
784 1 -0.0116724 0.0325792 -0.00686073 0.000635 0.0115754 0.0115261 -0.0215678 2650 
1126 1 -0.0135452 0.00979188 -0.00598115 0.000175 -0.0231422 0.000415678 -0.0149491 2650 
1003 1 -0.015001 0.0570171 -0.00541418 0.000984 -0.0343737 0.0128638 0.107984 2650 
64 1 -0.00253134 0.0284537 -0.00389473 0.000175 -0.0110923 0.0130595 -0.000765336 2650 
1129 1 -0.0131734 0.00229721 -0.00299595 0.000175 0.00571832 -0.00159507 -0.000133852 2650 
333 1 -0.00519832 0.00765948 -0.00306141 0.000175 -0.0408299 -0.0387643 0.00734352 2650 
948 1 -0.00525292 0.0143125 -0.00303718 0.000635 -0.0290668 0.0079985 0.0347723 2650 
457 1 -0.00113784 0.0213188 -0.0024794 0.000635 0.0172446 -0.0119197 0.00144908 2650 
449 1 -0.0158201 0.0326453 -0.00354655 0.000635 -0.0315288 -0.0133974 0.115523 2650 
1244 1 -0.00990995 0.0436177 -0.00269914 0.000635 0.00690809 0.0173541 0.0117305 2650 
311 1 -0.0160535 0.0445718 -0.002504 0.000635 -0.0550113 -0.00304438 0.209132 2650 
1097 1 -0.0155736 0.0547553 -0.00240005 0.000175 -0.0135114 0.0256055 0.00191624 2650 
495 1 -0.016033 0.0589852 -0.00279589 0.000175 0.00695204 0.0244254 -0.0162671 2650 
1326 1 -0.00385026 0.0613131 -0.00306913 0.000175 0.0107551 0.0384743 -0.0124423 2650 
1196 1 -0.0162993 0.0425246 -0.0020501 0.000175 -0.0381312 -0.00833486 0.189844 2650 
1315 1 -0.00196799 0.0105231 -0.000185197 0.000175 -0.0225364 0.0030124 0.00992727 2650 
1270 1 -0.0161842 0.0108077 -0.000453619 0.000635 -0.00366584 -0.0164118 0.0871739 2650 
272 1 -0.0142472 0.0110491 -0.00080239 6.3e-05 -0.000536309 0.00874001 -0.0031638 2650 
837 1 -0.0158336 0.023631 -0.000767844 0.000984 -0.00901429 -0.0156818 0.231312 2650 
704 1 -0.0167568 0.0353323 -0.000602009 6.3e-05 -0.00295114 0.015903 0.0731167 2650 
164 1 -0.0107328 0.0452378 -0.000796999 0.000175 0.00437004 0.0255422 0.00773665 2650 
21 1 -0.00799778 0.052818 -7.0169e-05 0.000175 -0.00045685 0.0138331 -0.0313151 2650 
793 1 -0.00959911 0.00132953 0.000918828 0.000175 -0.0130617 -0.00529368 0.00476366 2650 
791 1 -0.00230999 0.0147252 0.00100805 0.000175 0.0127266 -0.00765996 0.00593648 2650 
1132 1 -0.0146016 0.0162024 0.000273949 6.3e-05 -0.0174271 0.00458507 -0.0136239 2650 
149 1 -0.000271519 0.0218313 0.000878738 0.000635 -0.0150845 0.0140224 -0.00378237 2650 
797 1 -0.0166494 0.0462962 0.000542966 0.000175 0.00557294 0.0209743 0.0115166 2650 
670 1 -0.00699291 0.00184543 0.00200338 6.3e-05 -0.0225601 -0.00132465 0.00841275 2650 
642 1 -0.0161971 0.0503113 0.00122241 0.000635 0.0132227 -0.00298627 0.068865 2650 
141 1 -0.0133119 0.0251679 0.00352743 0.000635 -0.0114315 0.00848876 0.024311 2650 
1056 1 -0.0161066 0.021926 0.00449178 0.000175 0.0156723 -0.0101012 0.0889354 2650 
443 1 -0.000366417 0.0439647 0.00372517 0.000984 0.00382702 0.0221485 0.00856622 2650 
251 1 -0.0150555 0.000835394 0.00544189 0.000635 0.0799163 -0.0240627 0.148004 2650 
442 1 -0.0108219 0.000472508 0.00562287 0.000984 0.000419435 -0.0175878 0.012583 2650 
1055 1 -0.00256513 0.00166823 0.00555414 0.000175 -0.00626281 -0.00533006 0.00156387 2650 
1205 1 -0.0152406 0.0110138 0.00555552 0.000635 0.0265424 0.00337967 0.0621022 2650 
372 1 -0.0136704 0.0111481 0.00531485 6.3e-05 0.00247308 0.00146638 -0.00565257 2650 
49 1 -0.007373 0.0182533 0.00566174 0.000635 -0.0129164 0.00704509 0.0196665 2650 
937 1 -0.0142393 0.00342962 0.00691995 0.000984 0.0891538 -0.0210859 0.20482 2650 
508 1 -0.00235423 0.0399654 0.00627115 0.000984 -0.00740314 0.0181399 -0.0140114 2650 
975 1 -0.0126676 0.0532446 0.00614156 0.000635 -0.00698663 0.0250757 -0.0110497 2650 
174 1 -0.0111207 0.0574299 0.00650007 0.000984 -0.00736743 0.0477989 -0.0086906 2650 
78 1 -0.00946138 0.0131069 0.00742358 0.000635 -0.0118672 0.00495635 0.0116639 2650 
416 1 -0.0106799 0.0284504 0.00815184 0.000635 0.0218946 0.0218497 0.0208939 2650 
1137 1 -0.0126514 0.00213665 0.0100579 0.000635 0.0911413 0.0225789 0.123897 2650 
61 1 -0.00340553 0.0539223 0.0117198 0.000175 -0.00693225 0.0255002 -0.0106761 2650 
394 1 -0.0125026 0.0577832 0.0110918 0.000175 0.0371858 0.0371455 0.0514498 2650 
1146 1 -0.0085289 0.0415332 0.0127533 0.000635 0.00892798 0.0195826 0.0173631 2650 
539 1 -0.00921798 0.0497426 0.0120518 6.3e-05 -0.00668862 0.027453 0.0211597 2650 
336 1 -0.00431463 2.29921e-05 0.01333 0.000175 0.00272455 -0.00348944 -0.00820857 2650 
491 1 -0.00656684 0.00446501 0.0149415 0.000175 -0.00342356 -0.00119844 -0.0034993 2650 
364 1 -0.00620164 0.0151043 0.0155804 0.000175 0.0407048 0.00494073 0.0103425 2650 
405 1 -0.00829657 0.0358045 0.0147477 6.3e-05 -0.0348841 0.00336451 -0.01451 2650 
807 1 -0.00709558 0.050794 0.0145173 0.000635 -0.0318631 0.0195288 -0.014123 2650 
1075 1 -0.00635986 0.0537399 0.014924 0.000635 0.0565427 -0.00266688 0.0302482 2650 
943 1 -0.00157059 0.0179668 0.0159289 0.000635 0.0215349 0.00533661 0.00320496 2650 
886 1 -0.00201515 0.0312724 0.0165338 0.000175 0.0305768 0.0424917 0.00100151 2650 
1036 1 -0.0407216 0.0463329 0.054559 0.000984 67.6331 15.9126 50.4524 2650 
386 1 -0.00068124 0.101995 -0.0161729 0.000635 0.00123347 0.0576557 -0.0376504 2650 
1243 1 -0.00457975 0.0798549 -0.015097 0.000635 -0.0115813 0.0428107 -0.0264202 2650 
1101 1 -0.000446986 0.0987419 -0.0123167 0.000984 -0.0207754 0.0768827 -0.00872458 2650 
513 1 -0.00686552 0.139806 -0.0103287 0.000635 -0.0038699 0.0953889 0.00512063 2650 
113 1 -0.0139719 0.081456 -0.00362659 0.000635 -0.00208642 0.0457796 -0.0106723 2650 
947 1 -0.00352745 0.0809765 -0.00454219 0.000635 0.000534707 0.0402503 0.0108265 2650 
530 1 -0.0114781 0.13269 0.0678611 0.000175 -0.0838098 -0.0826195 -0.0139187 2650 
138 1 0.0462522 -0.00336708 -0.0499547 0.000984 -59.5333 2.31841 -55.0904 2650 
103 1 0.0145778 -0.0011482 0.00325378 0.000984 0.00594604 -0.00168679 -0.0220184 2650 
541 1 0.0142177 -0.00379285 0.00752471 0.000984 0.182728 -0.250907 -0.0180839 2650 
982 1 0.0265207 -0.0579269 0.0129556 0.000635 0.135283 -0.139848 0.597231 2650 
160 1 0.0657051 -0.039584 0.0205086 0.000175 30.1483 -12.7042 -96.5767 2650 
1074 1 0.00102411 -0.0599518 0.0293306 0.000635 -0.103533 -0.258126 0.0907487 2650 
811 1 0.0419553 -0.0588284 0.054015 0.000635 66.0762 1.66229 -51.3042 2650 
191 1 0.00883942 -0.0344606 0.0682615 0.000175 152.444 -4.47244 -19.7385 2650 
1088 1 0.0376725 0.0282804 -0.0559584 0.000175 -7.42932 -0.0467984 -3.21135 2650 
324 1 0.0012949 0.00166999 -0.0165899 0.000175 -0.202492 0.00101455 -0.00842999 2650 
337 1 0.0056456 0.0116658 -0.0156295 6.3e-05 -0.0233462 -4.58659e-05 -0.00162756 2650 
654 1 0.00214429 0.0198374 -0.0160834 0.000635 0.0468722 0.00382809 0.00822016 2650 
57 1 0.00781392 0.00249893 -0.0147546 0.000175 -0.0187711 0.00408996 -0.0150934 2650 
579 1 0.00724008 0.00986131 -0.014458 0.000635 -0.0549318 0.0074381 -0.0294041 2650 
557 1 0.00221099 0.0267342 -0.0151811 0.000175 -0.0078424 0.011694 -0.0107226 2650 
972 1 0.00481473 0.03466 -0.0154579 0.000635 -0.0194605 0.0162015 -0.00468239 2650 
469 1 0.00482339 0.0480421 -0.0145923 0.000175 -0.00688501 0.0293872 0.00166331 2650 
631 1 0.00783338 0.0538735 -0.014711 0.000175 0.0401444 0.00833781 0.0175224 2650 
1181 1 0.00759539 0.00494836 -0.0142408 0.000635 -0.0830744 -0.0708818 -0.043901 2650 
1197 1 0.00958114 0.00562832 -0.013836 6.3e-05 -0.0995136 0.025859 -0.0866419 2650 
199 1 0.00607379 0.0184162 -0.013327 0.000175 -0.00986538 0.0202877 -0.0134451 2650 
1015 1 0.00918881 0.0352787 -0.0132418 0.000635 -0.0293872 0.0173741 -0.00891558 2650 
1144 1 0.00545292 0.0129193 -0.0126055 0.000635 -0.0132202 0.00195103 -0.0180001 2650 
628 1 0.0100283 0.0161486 -0.0124714 0.000175 0.00779282 -0.0631995 -0.115111 2650 
384 1 0.0105652 0.0234408 -0.0122319 0.000635 -0.0545143 -0.00311838 -0.0622965 2650 
988 1 0.0102873 0.0246548 -0.0131627 0.000175 -0.012225 0.015398 -0.00175924 2650 
785 1 0.000108134 0.0301446 -0.0124558 0.000635 -0.000728947 0.018254 -0.0130875 2650 
924 1 0.0104725 0.0481339 -0.0126216 0.000175 -0.0893736 -0.00425037 -0.0715212 2650 
204 1 0.0119214 0.0588792 -0.012005 6.3e-05 -0.0612359 0.0897196 -0.0839149 2650 
949 1 0.0112835 0.0224668 -0.0117516 0.000635 -0.0654104 -0.00529754 -0.0563778 2650 
752 1 0.00527033 0.0418679 -0.0117277 0.000635 -0.0132588 0.0245577 -0.00716735 2650 
779 1 0.010968 0.0487752 -0.0118713 0.000635 -0.0820038 0.00713188 -0.0712449 2650 
605 1 0.0123946 0.0508362 -0.0111335 6.3e-05 -0.0514147 0.0265921 -0.0678867 2650 
697 1 0.00889809 0.0240148 -0.0106071 0.000175 -0.00522498 0.012855 -0.00219757 2650 
956 1 0.00897508 0.0427882 -0.0107728 0.000175 -0.0122329 0.023145 -0.0291857 2650 
1177 1 0.00903571 0.0600941 -0.0103815 0.000635 -0.0161877 0.0373623 -0.00273905 2650 
463 1 0.00389165 0.0165146 -0.00885924 0.000175 -0.0130232 -0.00148449 0.0151703 2650 
939 1 0.00463373 0.0380246 -0.00919235 0.000635 -0.00364665 0.0238701 0.00727697 2650 
1254 1 0.013993 0.0372623 -0.00926386 0.000175 0.00851219 0.0178439 0.0124277 2650 
1186 1 0.00229873 0.0243614 -0.00814458 0.000175 0.0202104 0.0145573 -0.00940905 2650 
1134 1 0.0137745 0.027926 -0.00814188 0.000984 -0.0979401 -0.0193641 -0.131902 2650 
512 1 0.0145194 0.0436989 -0.00721222 0.000635 -0.0331427 0.0403567 -0.0767767 2650 
683 1 0.00189703 0.00190273 -0.00701607 0.000635 -0.00678101 -7.07239e-05 0.00280501 2650 
767 1 0.0153616 0.0331024 -0.00657181 0.000175 -0.0707811 -0.0262246 -0.170751 2650 
700 1 0.0122866 0.0732915 -0.00715568 0.000175 0.0159228 0.0392687 -0.00583605 2650 
788 1 0.0155488 0.017769 -0.0058776 0.000175 -0.0610897 0.00352498 -0.123818 2650 
222 1 0.0686432 0.0423955 -0.00504694 0.000175 0.00267496 -0.39634 0.0363762 2650 
1051 1 0.00588618 0.0167942 -0.00361621 0.000175 0.0128773 0.00974979 0.0158678 2650 
592 1 0.00262806 0.0640023 -0.00475317 0.000175 -0.00129592 0.0446809 -0.0191729 2650 
132 1 0.0107013 0.0164138 -0.0034331 0.000175 -0.00938829 0.00836395 -0.0111321 2650 
855 1 0.0136068 0.0229398 -0.00354909 0.000175 0.00728108 0.00887921 -0.00383749 2650 
383 1 0.0157911 0.057579 -0.00351311 0.000635 -0.00746466 0.0297524 -0.0395435 2650 
34 1 0.00707788 0.00925202 -0.002352 6.3e-05 -0.00147874 0.00132131 0.0116478 2650 
427 1 0.0159159 0.0149267 -0.00146128 0.000175 0.00294248 -0.0263692 -0.0780862 2650 
689 1 0.0126825 0.0200399 -0.00175729 0.000175 -0.0162819 0.00203823 -0.00493989 2650 
646 1 0.0162374 0.0203741 -0.000973573 0.000635 -0.00474535 0.0203292 -0.0267341 2650 
90 1 0.0166572 0.025726 -0.00100498 0.000175 -0.0515112 0.0313865 -0.281768 2650 
483 1 0.0162409 0.0287206 -0.000208279 0.000635 0.0122781 0.107983 -0.298948 2650 
1118 1 0.0102027 0.032649 -0.0011399 0.000175 -0.00474753 0.0160659 -0.00449789 2650 
801 1 0.000668326 0.0127275 0.000117361 6.3e-05 -0.00507913 0.00520463 -0.0177694 2650 
615 1 0.0162098 0.0236109 8.14804e-06 0.000635 0.00200456 -0.00410439 -0.0514757 2650 
664 1 0.00484077 0.0385777 0.00088816 0.000175 -0.00945115 0.0117583 -0.0138625 2650 
1068 1 0.0157482 0.0209018 0.00235947 0.000984 0.00127606 -0.00517252 -0.0364917 2650 
1164 1 0.0167133 0.0220291 0.00171518 6.3e-05 0.00178774 -0.00176146 -0.0452323 2650 
1203 1 0.00999638 0.0332936 0.00142791 0.000635 -0.0140625 0.00713985 -0.0150975 2650 
262 1 0.0162256 0.0237596 0.00353272 0.000175 0.0159413 -0.00194514 -0.0651803 2650 
548 1 0.00939716 0.0294677 0.00242268 0.000635 3.37349e-05 0.0153573 0.0165929 2650 
1080 1 0.016027 0.0516092 0.00270259 0.000635 0.0210112 0.0229922 -0.0094622 2650 
1232 1 0.0134432 0.00831177 0.00479185 6.3e-05 -0.00962316 -0.0361181 -0.0300558 2650 
853 1 0.0132298 0.0164148 0.00455066 0.000175 -0.0128199 0.0107645 -0.00446831 2650 
58 1 0.00540224 0.0197122 0.00434023 0.000175 0.0123971 0.000412255 -0.0251507 2650 
331 1 0.0163863 0.0201873 0.00373644 0.000175 0.00987682 -0.00748086 -0.0310032 2650 
750 1 0.0155616 0.0347382 0.00447146 0.000635 0.00729144 0.0106296 -0.0292629 2650 
1267 1 0.00751239 0.0023345 0.00498749 0.000984 0.00104115 -0.000682756 -0.0040423 2650 
522 1 0.0151976 0.00863959 0.005564 0.000635 0.0644792 0.0214431 -0.155101 2650 
715 1 0.0063099 0.027845 0.00531343 0.000635 0.0371895 0.00390392 -0.0095508 2650 
1089 1 0.0100408 0.029783 0.00618367 0.000175 0.0145978 0.0153567 -0.0077566 2650 
487 1 0.0149637 0.0353704 0.00640703 0.000635 0.01941 0.0106182 -0.0368781 2650 
559 1 0.0152526 0.0349316 0.00719226 0.000175 0.0140922 -0.0117943 -0.067084 2650 
1008 1 0.0110624 0.0480096 0.00664478 0.000635 -0.00804794 0.021676 0.00890603 2650 
131 1 0.00715086 0.00535503 0.00816446 0.000175 -0.00572685 -0.00139109 -0.00023501 2650 
341 1 0.0133834 0.00647051 0.00772361 0.000984 0.00557912 -0.0233806 0.00967268 2650 
98 1 0.0150191 0.0353593 0.00724745 0.000175 0.0329539 -0.00565664 -0.0678743 2650 
945 1 0.0145173 0.0363885 0.00730146 0.000635 0.0257269 0.00718676 -0.0492048 2650 
217 1 0.0143552 0.0549111 0.00741036 0.000635 0.0213696 0.00419588 -0.0401665 2650 
1100 1 0.00636093 0.00502558 0.00919497 6.3e-05 5.79101e-05 0.000784927 -0.000316634 2650 
1091 1 0.0115389 0.00626403 0.00852121 0.000175 -0.0189017 0.0081141 0.00611355 2650 
445 1 0.0110406 0.00982026 0.00847683 0.000635 -0.011507 0.00119491 0.0136845 2650 
267 1 0.00917119 0.0135123 0.00921304 0.000175 0.014904 0.00469267 -5.3787e-06 2650 
258 1 0.00994498 0.0220046 0.00870121 0.000175 0.0479947 -0.110335 -0.0372199 2650 
1095 1 0.013768 0.0235458 0.00931811 0.000175 -0.00608552 0.00200262 0.00928832 2650 
591 1 0.004257 0.00143539 0.0104233 0.000175 -0.00594837 0.000914032 -0.00825897 2650 
158 1 0.0064496 0.00720658 0.00981408 0.000175 0.0163133 0.00255781 0.00345346 2650 
1169 1 0.0109529 0.0138858 0.00971323 0.000984 -0.0200419 0.00221117 0.0188011 2650 
1005 1 0.00635182 0.0331208 0.0103688 0.000635 0.0114662 0.0157394 0.0147236 2650 
612 1 0.00924515 0.0409447 0.0096902 0.000635 0.0137474 0.0194466 -0.011154 2650 
329 1 0.0132986 0.0410862 0.0101956 0.000175 0.00856286 0.0179996 -0.0276274 2650 
984 1 0.0101423 0.0499172 0.0106951 0.000635 -0.0194144 0.018584 0.021416 2650 
587 1 0.0128963 0.0561484 0.00987771 0.000635 0.0298259 0.0170378 -0.0339689 2650 
760 1 0.00647099 0.00582769 0.0119359 0.000175 0.0113899 0.00168292 -0.0094549 2650 
55 1 0.0108331 0.00497107 0.0126169 0.000175 0.0842902 -0.0107824 -0.0628817 2650 
1279 1 0.00700727 0.0251759 0.0122062 0.000635 -0.0148631 0.00763481 0.00684029 2650 
128 1 0.0110759 0.043869 0.0124746 0.000175 0.0934257 0.0290406 -0.070014 2650 
571 1 0.00416041 0.0657226 0.0129294 6.3e-05 0.0043524 0.0330287 -0.0112997 2650 
562 1 0.00712021 0.00341154 0.0139581 0.000175 0.0153986 -0.00245418 -0.00795762 2650 
1094 1 0.00917093 0.0237682 0.0138842 0.000175 0.0251215 0.00162763 -0.0104896 2650 
1069 1 0.00307365 0.030784 0.0134743 0.000984 0.0156403 0.0144434 -0.000519678 2650 
789 1 0.00989537 0.046937 0.0132733 0.000175 0.0136008 0.0260954 -0.010456 2650 
770 1 0.00789437 0.0102202 0.0145875 6.3e-05 0.0123657 0.00676479 -0.00867315 2650 
414 1 0.00733075 0.025284 0.0146626 0.000635 -0.0145602 0.00751469 -0.00112083 2650 
940 1 0.00233154 0.0226816 0.0158792 0.000635 0.0451126 0.0157047 -0.0112182 2650 
220 1 0.00192672 0.027252 0.0161069 0.000635 0.0403904 0.000482262 -0.0070189 2650 
849 1 0.00158907 0.0302545 0.0161647 0.000635 0.0377357 0.00204182 -0.00662707 2650 
102 1 0.0020673 0.0301348 0.0166929 6.3e-05 0.0406366 0.00295533 -0.006499 2650 
1317 1 0.000343339 0.0496141 0.016554 0.000175 0.00855073 0.0284981 -0.00850431 2650 
721 1 0.0174677 0.061828 0.0636178 0.000635 -0.489882 -0.0260789 -2.31265 2650 
1190 1 0.00668193 0.104872 -0.0128229 0.000175 -0.00271898 0.0654384 -0.00815662 2650 
1304 1 0.00450985 0.0900178 -0.010783 0.000635 0.0172622 0.0645817 0.00310839 2650 
303 1 0.0120962 0.119373 -0.00618393 6.3e-05 0.0208333 0.0806111 -0.00333994 2650 
259 1 0.000178735 0.094952 -0.00288686 0.000175 -0.0229857 0.0471442 -0.00585357 2650 
1292 1 0.00410367 0.0856377 0.0043375 0.000175 0.0185555 0.0580333 0.00474034 2650 
412 1 0.0590702 0.0763658 0.0345233 0.000635 60.7525 4.19309 -103.914 2650 
599 1 0.0298792 0.127497 0.0620116 0.000175 169.879 0.00127266 -81.7842 2650 
