LIGGGHTS (Version LIGGGHTS-PUBLIC 3.8.0, compiled 2022-11-07-16:55:38 by serperd1, git commit 86544c3f1215bc9744d7929e3eacf53ba086af9e)
Created orthogonal box = (-0.15 -0.15 -0.15) to (0.15 0.15 0.15)
  2 by 4 by 5 MPI processor grid

Reading STL file 'cone.stl' (mesh processing step 1/3) 

Reading STL file 'in_cyl.stl' (mesh processing step 1/3) 

Reading STL file 'top_cyl.stl' (mesh processing step 1/3) 

Reading STL file 'bot_cyl.stl' (mesh processing step 1/3) 

Reading STL file 'bottom_disk.stl' (mesh processing step 1/3) 

Reading STL file 'top_disk.stl' (mesh processing step 1/3) 
Fix particledistribution/discrete (id prob_par): distribution based on mass%:
    r_0to10p: d=1.260000e-04 (max. bounding sphere) mass%=10.000000%
    r_10to50p: d=3.492000e-04 (max. bounding sphere) mass%=40.000000%
    r_50to90p: d=1.269900e-03 (max. bounding sphere) mass%=40.000000%
    r_90to100p: d=1.968300e-03 (max. bounding sphere) mass%=10.000000%
Fix particledistribution/discrete (id prob_par): distribution based on number%:
    r_0to10p: d=1.260000e-04 (max. bounding sphere) number%=83.887052%
    r_10to50p: d=3.492000e-04 (max. bounding sphere) number%=15.763181%
    r_50to90p: d=1.269900e-03 (max. bounding sphere) number%=0.327762%
    r_90to100p: d=1.968300e-03 (max. bounding sphere) number%=0.022006%
Setting up run at Sun Nov 27 15:42:37 2022

Import and parallelization of mesh cone_mesh containing 868 triangle(s) successful
Import and parallelization of mesh inlet_cyl_wall_mesh containing 1064 triangle(s) successful
Import and parallelization of mesh top_cyl_wall_mesh containing 682 triangle(s) successful
Import and parallelization of mesh bot_cyl_wall_mesh containing 1280 triangle(s) successful
Import and parallelization of mesh bot_disk_wall_mesh containing 1682 triangle(s) successful
Import and parallelization of mesh top_disk_wall_mesh containing 1144 triangle(s) successful
Memory usage per processor = 955.842 Mbytes
    Step    Atoms         KinEng            CPU 
       0        0              0              0 
Loop time of 5.05091e-05 on 40 procs for 0 steps with 0 atoms, finish time Sun Nov 27 15:42:37 2022


Pair  time (%) = 0 (0)
Neigh time (%) = 0 (0)
Comm  time (%) = 0 (0)
Outpt time (%) = 0 (0)
Other time (%) = 5.05091e-05 (100)

Nlocal:    0 ave 0 max 0 min
Histogram: 40 0 0 0 0 0 0 0 0 0
Nghost:    0 ave 0 max 0 min
Histogram: 40 0 0 0 0 0 0 0 0 0
Neighs:    0 ave 0 max 0 min
Histogram: 40 0 0 0 0 0 0 0 0 0

Total # of neighbors = 0
Neighbor list builds = 0
Dangerous builds = 0
Setting up run at Sun Nov 27 15:42:37 2022

Memory usage per processor = 955.842 Mbytes
    Step    Atoms         KinEng            CPU 
       0        0              0              0 
       1        0              0    0.009694959 
Loop time of 0.00971845 on 40 procs for 1 steps with 0 atoms, finish time Sun Nov 27 15:42:37 2022


Pair  time (%) = 2.54538e-06 (0.0261912)
Neigh time (%) = 0 (0)
Comm  time (%) = 0.000228381 (2.34997)
Outpt time (%) = 0.000105813 (1.08879)
Other time (%) = 0.00938171 (96.535)

Nlocal:    0 ave 0 max 0 min
Histogram: 40 0 0 0 0 0 0 0 0 0
Nghost:    0 ave 0 max 0 min
Histogram: 40 0 0 0 0 0 0 0 0 0
Neighs:    0 ave 0 max 0 min
Histogram: 40 0 0 0 0 0 0 0 0 0

Total # of neighbors = 0
Neighbor list builds = 0
Dangerous builds = 0
Scanning dump file ...
Reading snapshot from dump file ...
  orthogonal box = (-0.15 -0.15 -0.15) to (0.15 0.15 0.15)
  0 atoms before read
  1331 atoms in snapshot
  0 atoms purged
  0 atoms replaced
  0 atoms trimmed
  1331 atoms added
  1331 atoms after read
Setting atom values ...
  1331 settings made for type
  1331 settings made for density
  1331 settings made for vy
Setting up run at Sun Nov 27 15:42:38 2022

Memory usage per processor = 960.195 Mbytes
    Step    Atoms         KinEng            CPU 
       1     1331    2.04396e-07              0 
       2     1331  2.5455856e-07    0.009153412 
Loop time of 0.00916233 on 40 procs for 1 steps with 1331 atoms, finish time Sun Nov 27 15:42:38 2022


Pair  time (%) = 2.53953e-06 (0.027717)
Neigh time (%) = 0 (0)
Comm  time (%) = 6.02053e-06 (0.0657095)
Outpt time (%) = 0.00012911 (1.40914)
Other time (%) = 0.00902466 (98.4974)

Nlocal:    33.275 ave 555 max 0 min
Histogram: 36 0 2 0 0 0 0 0 0 2
Nghost:    13.575 ave 173 max 0 min
Histogram: 36 0 0 0 0 1 1 0 0 2
Neighs:    10.175 ave 168 max 0 min
Histogram: 36 0 2 0 0 0 0 0 0 2

Total # of neighbors = 407
Ave neighs/atom = 0.305785
Neighbor list builds = 0
Dangerous builds = 0
Setting up run at Sun Nov 27 15:42:38 2022

Memory usage per processor = 960.195 Mbytes
    Step    Atoms         KinEng            CPU 
       2     1331  2.5455856e-07              0 
  205763     1331  6.9273694e-05      2014.8491 
Loop time of 2014.85 on 40 procs for 205761 steps with 1331 atoms, finish time Sun Nov 27 16:16:13 2022


Pair  time (%) = 0.519084 (0.0257629)
Neigh time (%) = 0.423094 (0.0209988)
Comm  time (%) = 1.17993 (0.0585615)
Outpt time (%) = 0.000226266 (1.12299e-05)
Other time (%) = 2012.73 (99.8947)

Nlocal:    33.275 ave 551 max 0 min
Histogram: 36 0 2 0 0 0 0 0 0 2
Nghost:    13.8 ave 171 max 0 min
Histogram: 36 0 0 0 0 1 1 0 0 2
Neighs:    11.175 ave 191 max 0 min
Histogram: 36 1 1 0 0 0 0 0 1 1

Total # of neighbors = 447
Ave neighs/atom = 0.335838
Neighbor list builds = 550
Dangerous builds = 0
Setting up run at Sun Nov 27 16:16:13 2022

Memory usage per processor = 960.195 Mbytes
    Step    Atoms         KinEng            CPU 
  205763     1331  6.9273694e-05              0 
  411524     1331  0.00040217614      2017.1512 
Loop time of 2017.15 on 40 procs for 205761 steps with 1331 atoms, finish time Sun Nov 27 16:49:50 2022


Pair  time (%) = 0.519015 (0.0257301)
Neigh time (%) = 0.42182 (0.0209117)
Comm  time (%) = 1.24461 (0.0617012)
Outpt time (%) = 0.00049695 (2.46362e-05)
Other time (%) = 2014.97 (99.8916)

Nlocal:    33.275 ave 538 max 0 min
Histogram: 36 0 2 0 0 0 0 0 0 2
Nghost:    13.625 ave 169 max 0 min
Histogram: 36 0 0 0 0 1 1 0 0 2
Neighs:    11.725 ave 197 max 0 min
Histogram: 36 1 1 0 0 0 0 0 0 2

Total # of neighbors = 469
Ave neighs/atom = 0.352367
Neighbor list builds = 550
Dangerous builds = 0
Setting up run at Sun Nov 27 16:49:50 2022

Memory usage per processor = 960.195 Mbytes
    Step    Atoms         KinEng            CPU 
  411524     1331  0.00040217614              0 
  617285     1331  0.00067128357      2016.6748 
Loop time of 2016.67 on 40 procs for 205761 steps with 1331 atoms, finish time Sun Nov 27 17:23:27 2022


Pair  time (%) = 0.519627 (0.0257665)
Neigh time (%) = 0.422652 (0.0209579)
Comm  time (%) = 1.35527 (0.0672034)
Outpt time (%) = 0.000567914 (2.81609e-05)
Other time (%) = 2014.38 (99.886)

Nlocal:    33.275 ave 522 max 0 min
Histogram: 36 0 2 0 0 0 0 0 0 2
Nghost:    13.05 ave 158 max 0 min
Histogram: 36 0 0 0 0 0 1 1 0 2
Neighs:    11.9 ave 190 max 0 min
Histogram: 36 0 2 0 0 0 0 0 0 2

Total # of neighbors = 476
Ave neighs/atom = 0.357626
Neighbor list builds = 550
Dangerous builds = 0
Setting up run at Sun Nov 27 17:23:27 2022

Memory usage per processor = 960.195 Mbytes
    Step    Atoms         KinEng            CPU 
  617285     1331  0.00067128357              0 
  823046     1331    0.078125317      2036.0214 
Loop time of 2036.02 on 40 procs for 205761 steps with 1331 atoms, finish time Sun Nov 27 17:57:23 2022


Pair  time (%) = 0.527768 (0.0259215)
Neigh time (%) = 3.10594 (0.152549)
Comm  time (%) = 3.43811 (0.168864)
Outpt time (%) = 0.000239412 (1.17588e-05)
Other time (%) = 2028.95 (99.6527)

Nlocal:    33.275 ave 512 max 0 min
Histogram: 36 0 1 1 0 0 0 0 0 2
Nghost:    12.925 ave 161 max 0 min
Histogram: 36 0 0 0 0 1 1 0 0 2
Neighs:    12.575 ave 203 max 0 min
Histogram: 36 0 2 0 0 0 0 0 0 2

Total # of neighbors = 503
Ave neighs/atom = 0.377911
Neighbor list builds = 3833
Dangerous builds = 0
Setting up run at Sun Nov 27 17:57:23 2022

Memory usage per processor = 960.195 Mbytes
    Step    Atoms         KinEng            CPU 
  823046     1331    0.078125317              0 
 1028807     1331    0.061363951        2049.96 
Loop time of 2049.96 on 40 procs for 205761 steps with 1331 atoms, finish time Sun Nov 27 18:31:33 2022


Pair  time (%) = 0.533341 (0.0260172)
Neigh time (%) = 4.594 (0.224102)
Comm  time (%) = 4.24704 (0.207177)
Outpt time (%) = 0.000552986 (2.69754e-05)
Other time (%) = 2040.59 (99.5427)

Nlocal:    33.275 ave 498 max 0 min
Histogram: 36 0 1 1 0 0 0 0 0 2
Nghost:    12.25 ave 159 max 0 min
Histogram: 36 0 0 0 0 1 1 0 0 2
Neighs:    12.65 ave 194 max 0 min
Histogram: 36 0 1 1 0 0 0 0 0 2

Total # of neighbors = 506
Ave neighs/atom = 0.380165
Neighbor list builds = 5641
Dangerous builds = 0
Setting up run at Sun Nov 27 18:31:33 2022

Memory usage per processor = 960.195 Mbytes
    Step    Atoms         KinEng            CPU 
 1028807     1331    0.061363951              0 
 1234568     1329    0.052970766      2053.2533 
Loop time of 2053.25 on 40 procs for 205761 steps with 1329 atoms, finish time Sun Nov 27 19:05:46 2022


Pair  time (%) = 0.533529 (0.0259846)
Neigh time (%) = 4.31055 (0.209937)
Comm  time (%) = 3.9271 (0.191262)
Outpt time (%) = 0.000267169 (1.3012e-05)
Other time (%) = 2044.48 (99.5728)

Nlocal:    33.225 ave 496 max 0 min
Histogram: 36 0 1 1 0 0 0 0 0 2
Nghost:    11.675 ave 155 max 0 min
Histogram: 36 0 0 0 0 2 0 0 1 1
Neighs:    11.9 ave 183 max 0 min
Histogram: 36 0 1 1 0 0 0 0 0 2

Total # of neighbors = 476
Ave neighs/atom = 0.358164
Neighbor list builds = 5285
Dangerous builds = 90
Setting up run at Sun Nov 27 19:05:46 2022

Memory usage per processor = 960.195 Mbytes
    Step    Atoms         KinEng            CPU 
 1234568     1329    0.052970766              0 
 1440329     1327     0.15203603      2038.2598 
Loop time of 2038.26 on 40 procs for 205761 steps with 1327 atoms, finish time Sun Nov 27 19:39:45 2022


Pair  time (%) = 0.527582 (0.025884)
Neigh time (%) = 4.92075 (0.241419)
Comm  time (%) = 4.57254 (0.224335)
Outpt time (%) = 0.000522505 (2.56348e-05)
Other time (%) = 2028.24 (99.5083)

Nlocal:    33.175 ave 490 max 0 min
Histogram: 36 0 1 1 0 0 0 0 0 2
Nghost:    11 ave 140 max 0 min
Histogram: 36 0 0 0 0 1 1 0 0 2
Neighs:    11.925 ave 180 max 0 min
Histogram: 36 0 0 1 1 0 0 0 0 2

Total # of neighbors = 477
Ave neighs/atom = 0.359457
Neighbor list builds = 6022
Dangerous builds = 388
Setting up run at Sun Nov 27 19:39:45 2022

Memory usage per processor = 960.195 Mbytes
    Step    Atoms         KinEng            CPU 
 1440329     1327     0.15203603              0 
 1646090     1326     0.11030911      2131.8016 
Loop time of 2131.8 on 40 procs for 205761 steps with 1326 atoms, finish time Sun Nov 27 20:15:16 2022


Pair  time (%) = 0.520654 (0.0244232)
Neigh time (%) = 4.60179 (0.215864)
Comm  time (%) = 3.75635 (0.176205)
Outpt time (%) = 0.000237701 (1.11502e-05)
Other time (%) = 2122.92 (99.5835)

Nlocal:    33.15 ave 487 max 0 min
Histogram: 36 0 0 2 0 0 0 0 0 2
Nghost:    10.65 ave 135 max 0 min
Histogram: 36 0 0 0 0 0 2 0 0 2
Neighs:    11.725 ave 178 max 0 min
Histogram: 36 0 0 2 0 0 0 0 0 2

Total # of neighbors = 469
Ave neighs/atom = 0.353695
Neighbor list builds = 5614
Dangerous builds = 350
Setting up run at Sun Nov 27 20:15:17 2022

Memory usage per processor = 960.195 Mbytes
    Step    Atoms         KinEng            CPU 
 1646090     1326     0.11030911              0 
 1851851     1322    0.044397004      2038.8098 
Loop time of 2038.83 on 40 procs for 205761 steps with 1322 atoms, finish time Sun Nov 27 20:49:15 2022


Pair  time (%) = 0.523677 (0.0256852)
Neigh time (%) = 4.83436 (0.237115)
Comm  time (%) = 4.39186 (0.215411)
Outpt time (%) = 0.0259791 (0.00127422)
Other time (%) = 2029.05 (99.5205)

Nlocal:    33.05 ave 485 max 0 min
Histogram: 36 0 1 1 0 0 0 0 0 2
Nghost:    10.4 ave 139 max 0 min
Histogram: 36 0 0 0 0 2 0 0 1 1
Neighs:    11.7 ave 178 max 0 min
Histogram: 36 0 0 2 0 0 0 0 0 2

Total # of neighbors = 468
Ave neighs/atom = 0.354009
Neighbor list builds = 5896
Dangerous builds = 288
Setting up run at Sun Nov 27 20:49:16 2022

Memory usage per processor = 960.195 Mbytes
    Step    Atoms         KinEng            CPU 
 1851851     1322    0.044397004              0 
 2057612     1317    0.081629183      2054.6629 
Loop time of 2054.66 on 40 procs for 205761 steps with 1317 atoms, finish time Sun Nov 27 21:23:30 2022


Pair  time (%) = 0.522926 (0.0254507)
Neigh time (%) = 5.2266 (0.254377)
Comm  time (%) = 7.53817 (0.366881)
Outpt time (%) = 0.000288344 (1.40336e-05)
Other time (%) = 2041.38 (99.3533)

Nlocal:    32.925 ave 480 max 0 min
Histogram: 36 0 1 1 0 0 0 0 0 2
Nghost:    10.2 ave 135 max 0 min
Histogram: 36 0 0 0 0 1 1 0 1 1
Neighs:    11.225 ave 176 max 0 min
Histogram: 36 0 0 2 0 0 0 0 0 2

Total # of neighbors = 449
Ave neighs/atom = 0.340926
Neighbor list builds = 6388
Dangerous builds = 256
Setting up run at Sun Nov 27 21:23:30 2022

Memory usage per processor = 960.195 Mbytes
    Step    Atoms         KinEng            CPU 
 2057612     1317    0.081629183              0 
 2263373     1307     0.17709328       2055.282 
Loop time of 2055.28 on 40 procs for 205761 steps with 1307 atoms, finish time Sun Nov 27 21:57:46 2022


Pair  time (%) = 0.522317 (0.0254134)
Neigh time (%) = 6.37037 (0.309951)
Comm  time (%) = 7.05605 (0.343313)
Outpt time (%) = 0.00049382 (2.40268e-05)
Other time (%) = 2041.33 (99.3213)

Nlocal:    32.675 ave 477 max 0 min
Histogram: 36 0 1 1 0 0 0 0 0 2
Nghost:    10.125 ave 125 max 0 min
Histogram: 36 0 0 0 0 0 2 0 0 2
Neighs:    10.65 ave 170 max 0 min
Histogram: 36 0 1 1 0 0 0 0 0 2

Total # of neighbors = 426
Ave neighs/atom = 0.325937
Neighbor list builds = 7747
Dangerous builds = 506
Setting up run at Sun Nov 27 21:57:46 2022

Memory usage per processor = 960.195 Mbytes
    Step    Atoms         KinEng            CPU 
 2263373     1307     0.17709328              0 
 2469134     1297     0.21570817      2072.2279 
Loop time of 2072.23 on 40 procs for 205761 steps with 1297 atoms, finish time Sun Nov 27 22:32:18 2022


Pair  time (%) = 0.521168 (0.0251501)
Neigh time (%) = 8.03382 (0.38769)
Comm  time (%) = 10.0278 (0.483914)
Outpt time (%) = 0.000230069 (1.11025e-05)
Other time (%) = 2053.65 (99.1032)

Nlocal:    32.425 ave 479 max 0 min
Histogram: 36 0 2 0 0 0 0 0 0 2
Nghost:    9.475 ave 123 max 0 min
Histogram: 36 0 0 0 0 1 1 0 1 1
Neighs:    10.8 ave 177 max 0 min
Histogram: 36 1 1 0 0 0 0 0 0 2

Total # of neighbors = 432
Ave neighs/atom = 0.333076
Neighbor list builds = 9783
Dangerous builds = 131
Setting up run at Sun Nov 27 22:32:18 2022

Memory usage per processor = 960.195 Mbytes
    Step    Atoms         KinEng            CPU 
 2469134     1297     0.21570817              0 
 2674895     1285     0.28565663      2131.4134 
Loop time of 2131.41 on 40 procs for 205761 steps with 1285 atoms, finish time Sun Nov 27 23:07:50 2022


Pair  time (%) = 0.540379 (0.0253531)
Neigh time (%) = 13.6306 (0.639509)
Comm  time (%) = 14.3882 (0.675053)
Outpt time (%) = 0.000514233 (2.41264e-05)
Other time (%) = 2102.85 (98.6601)

Nlocal:    32.125 ave 478 max 0 min
Histogram: 36 0 2 0 0 0 0 0 0 2
Nghost:    9.425 ave 116 max 0 min
Histogram: 36 0 0 0 0 0 2 0 1 1
Neighs:    10.575 ave 178 max 0 min
Histogram: 36 1 1 0 0 0 0 0 1 1

Total # of neighbors = 423
Ave neighs/atom = 0.329183
Neighbor list builds = 16554
Dangerous builds = 1087
Setting up run at Sun Nov 27 23:07:50 2022

Memory usage per processor = 960.195 Mbytes
    Step    Atoms         KinEng            CPU 
 2674895     1285     0.28565663              0 
 2880656     1280     0.28443125      2095.7451 
Loop time of 2095.75 on 40 procs for 205761 steps with 1280 atoms, finish time Sun Nov 27 23:42:45 2022


Pair  time (%) = 0.522924 (0.0249517)
Neigh time (%) = 10.3318 (0.492987)
Comm  time (%) = 11.6396 (0.555393)
Outpt time (%) = 0.00400129 (0.000190924)
Other time (%) = 2073.25 (98.9265)

Nlocal:    32 ave 481 max 0 min
Histogram: 36 0 2 0 0 0 0 0 0 2
Nghost:    9.575 ave 118 max 0 min
Histogram: 36 0 0 0 0 0 1 1 1 1
Neighs:    10.075 ave 165 max 0 min
Histogram: 36 1 1 0 0 0 0 0 0 2

Total # of neighbors = 403
Ave neighs/atom = 0.314844
Neighbor list builds = 12502
Dangerous builds = 162
Setting up run at Sun Nov 27 23:42:45 2022

Memory usage per processor = 960.195 Mbytes
    Step    Atoms         KinEng            CPU 
 2880656     1280     0.28443125              0 
 3086417     1273     0.23518854      2096.2202 
Loop time of 2096.22 on 40 procs for 205761 steps with 1273 atoms, finish time Mon Nov 28 00:17:42 2022


Pair  time (%) = 0.516285 (0.0246293)
Neigh time (%) = 9.8234 (0.468624)
Comm  time (%) = 12.0215 (0.573483)
Outpt time (%) = 0.000515983 (2.46149e-05)
Other time (%) = 2073.86 (98.9332)

Nlocal:    31.825 ave 481 max 0 min
Histogram: 36 0 2 0 0 0 0 0 0 2
Nghost:    9.425 ave 123 max 0 min
Histogram: 36 0 0 0 0 1 1 1 0 1
Neighs:    9.425 ave 164 max 0 min
Histogram: 36 1 1 0 0 0 0 0 0 2

Total # of neighbors = 377
Ave neighs/atom = 0.296151
Neighbor list builds = 11874
Dangerous builds = 464
Setting up run at Mon Nov 28 00:17:42 2022

Memory usage per processor = 960.195 Mbytes
    Step    Atoms         KinEng            CPU 
 3086417     1273     0.23518854              0 
 3292178     1257      0.1941399      2111.9661 
Loop time of 2111.97 on 40 procs for 205761 steps with 1257 atoms, finish time Mon Nov 28 00:52:54 2022


Pair  time (%) = 0.523809 (0.0248019)
Neigh time (%) = 11.8745 (0.562247)
Comm  time (%) = 15.0631 (0.713226)
Outpt time (%) = 0.000299533 (1.41827e-05)
Other time (%) = 2084.5 (98.6997)

Nlocal:    31.425 ave 478 max 0 min
Histogram: 36 0 2 0 0 0 0 0 0 2
Nghost:    8.975 ave 118 max 0 min
Histogram: 36 0 0 0 0 0 2 1 0 1
Neighs:    9.725 ave 168 max 0 min
Histogram: 37 0 1 0 0 0 0 0 0 2

Total # of neighbors = 389
Ave neighs/atom = 0.309467
Neighbor list builds = 14382
Dangerous builds = 137
Setting up run at Mon Nov 28 00:52:54 2022

Memory usage per processor = 960.195 Mbytes
    Step    Atoms         KinEng            CPU 
 3292178     1257      0.1941399              0 
 3497939     1248     0.23974142      2192.7177 
Loop time of 2192.72 on 40 procs for 205761 steps with 1248 atoms, finish time Mon Nov 28 01:29:27 2022


Pair  time (%) = 0.533325 (0.0243225)
Neigh time (%) = 18.9253 (0.863098)
Comm  time (%) = 23.5914 (1.0759)
Outpt time (%) = 0.000556836 (2.53948e-05)
Other time (%) = 2149.67 (98.0367)

Nlocal:    31.2 ave 469 max 0 min
Histogram: 36 0 2 0 0 0 0 0 0 2
Nghost:    8.65 ave 113 max 0 min
Histogram: 36 0 0 0 0 0 2 1 0 1
Neighs:    8.975 ave 164 max 0 min
Histogram: 37 1 0 0 0 0 0 0 0 2

Total # of neighbors = 359
Ave neighs/atom = 0.28766
Neighbor list builds = 22853
Dangerous builds = 80
Setting up run at Mon Nov 28 01:29:27 2022

Memory usage per processor = 960.195 Mbytes
    Step    Atoms         KinEng            CPU 
 3497939     1248     0.23974142              0 
 3703700     1235      0.3751576      2170.4213 
Loop time of 2170.42 on 40 procs for 205761 steps with 1235 atoms, finish time Mon Nov 28 02:05:37 2022


Pair  time (%) = 0.527991 (0.0243267)
Neigh time (%) = 18.0323 (0.83082)
Comm  time (%) = 23.4174 (1.07893)
Outpt time (%) = 0.000787299 (3.6274e-05)
Other time (%) = 2128.44 (98.0659)

Nlocal:    30.875 ave 465 max 0 min
Histogram: 36 0 2 0 0 0 0 0 0 2
Nghost:    8.25 ave 110 max 0 min
Histogram: 36 0 0 0 0 1 1 1 0 1
Neighs:    9.1 ave 157 max 0 min
Histogram: 36 2 0 0 0 0 0 0 0 2

Total # of neighbors = 364
Ave neighs/atom = 0.294737
Neighbor list builds = 21804
Dangerous builds = 366
Setting up run at Mon Nov 28 02:05:37 2022

Memory usage per processor = 960.195 Mbytes
    Step    Atoms         KinEng            CPU 
 3703700     1235      0.3751576              0 
 3909461     1219     0.48762124      2178.8986 
Loop time of 2178.9 on 40 procs for 205761 steps with 1219 atoms, finish time Mon Nov 28 02:41:56 2022


Pair  time (%) = 0.524913 (0.0240908)
Neigh time (%) = 18.248 (0.837487)
Comm  time (%) = 23.0474 (1.05776)
Outpt time (%) = 0.000206976 (9.49913e-06)
Other time (%) = 2137.08 (98.0807)

Nlocal:    30.475 ave 464 max 0 min
Histogram: 36 1 1 0 0 0 0 0 0 2
Nghost:    8.2 ave 109 max 0 min
Histogram: 36 0 0 0 0 1 1 1 0 1
Neighs:    8.825 ave 155 max 0 min
Histogram: 36 2 0 0 0 0 0 0 0 2

Total # of neighbors = 353
Ave neighs/atom = 0.289582
Neighbor list builds = 22109
Dangerous builds = 1291
Setting up run at Mon Nov 28 02:41:56 2022

Memory usage per processor = 960.195 Mbytes
    Step    Atoms         KinEng            CPU 
 3909461     1219     0.48762124              0 
 4115222     1209     0.29816355      2155.0806 
Loop time of 2155.08 on 40 procs for 205761 steps with 1209 atoms, finish time Mon Nov 28 03:17:51 2022


Pair  time (%) = 0.513489 (0.0238269)
Neigh time (%) = 15.8281 (0.734453)
Comm  time (%) = 20.3779 (0.945577)
Outpt time (%) = 0.000596135 (2.76619e-05)
Other time (%) = 2118.36 (98.2961)

Nlocal:    30.225 ave 466 max 0 min
Histogram: 36 1 1 0 0 0 0 0 0 2
Nghost:    8.225 ave 112 max 0 min
Histogram: 36 0 0 0 0 1 2 0 0 1
Neighs:    8.2 ave 152 max 0 min
Histogram: 36 2 0 0 0 0 0 0 0 2

Total # of neighbors = 328
Ave neighs/atom = 0.271299
Neighbor list builds = 19163
Dangerous builds = 877
Setting up run at Mon Nov 28 03:17:51 2022

Memory usage per processor = 960.195 Mbytes
    Step    Atoms         KinEng            CPU 
 4115222     1209     0.29816355              0 
 4320983     1203     0.31394331      2132.8439 
Loop time of 2132.84 on 40 procs for 205761 steps with 1203 atoms, finish time Mon Nov 28 03:53:24 2022


Pair  time (%) = 0.511509 (0.0239825)
Neigh time (%) = 13.8093 (0.647457)
Comm  time (%) = 15.5379 (0.728507)
Outpt time (%) = 0.000246348 (1.15502e-05)
Other time (%) = 2102.99 (98.6)

Nlocal:    30.075 ave 468 max 0 min
Histogram: 36 0 2 0 0 0 0 0 0 2
Nghost:    7.85 ave 101 max 0 min
Histogram: 36 0 0 0 0 1 1 1 0 1
Neighs:    8.025 ave 159 max 0 min
Histogram: 36 2 0 0 0 0 0 1 0 1

Total # of neighbors = 321
Ave neighs/atom = 0.266833
Neighbor list builds = 16680
Dangerous builds = 1
Setting up run at Mon Nov 28 03:53:24 2022

Memory usage per processor = 960.195 Mbytes
    Step    Atoms         KinEng            CPU 
 4320983     1203     0.31394331              0 
 4526744     1192     0.24825734       2127.387 
Loop time of 2127.39 on 40 procs for 205761 steps with 1192 atoms, finish time Mon Nov 28 04:28:52 2022


Pair  time (%) = 0.502107 (0.0236021)
Neigh time (%) = 13.8577 (0.651394)
Comm  time (%) = 20.5739 (0.967098)
Outpt time (%) = 0.000522523 (2.45617e-05)
Other time (%) = 2092.45 (98.3579)

Nlocal:    29.8 ave 466 max 0 min
Histogram: 36 1 1 0 0 0 0 0 0 2
Nghost:    7.975 ave 97 max 0 min
Histogram: 36 0 0 0 0 1 0 1 1 1
Neighs:    8.475 ave 169 max 0 min
Histogram: 37 1 0 0 0 0 0 0 1 1

Total # of neighbors = 339
Ave neighs/atom = 0.284396
Neighbor list builds = 16779
Dangerous builds = 380
Setting up run at Mon Nov 28 04:28:52 2022

Memory usage per processor = 960.195 Mbytes
    Step    Atoms         KinEng            CPU 
 4526744     1192     0.24825734              0 
 4732505     1183     0.24007545        2131.32 
Loop time of 2131.32 on 40 procs for 205761 steps with 1183 atoms, finish time Mon Nov 28 05:04:23 2022


Pair  time (%) = 0.506406 (0.0237602)
Neigh time (%) = 13.4871 (0.632806)
Comm  time (%) = 15.4752 (0.726085)
Outpt time (%) = 0.000260168 (1.22069e-05)
Other time (%) = 2101.85 (98.6173)

Nlocal:    29.575 ave 466 max 0 min
Histogram: 36 1 1 0 0 0 0 0 0 2
Nghost:    7.8 ave 94 max 0 min
Histogram: 36 0 0 0 0 0 2 0 0 2
Neighs:    7.925 ave 163 max 0 min
Histogram: 38 0 0 0 0 0 0 1 0 1

Total # of neighbors = 317
Ave neighs/atom = 0.267963
Neighbor list builds = 16322
Dangerous builds = 585
Setting up run at Mon Nov 28 05:04:23 2022

Memory usage per processor = 960.195 Mbytes
    Step    Atoms         KinEng            CPU 
 4732505     1183     0.24007545              0 
 4938266     1173     0.36794067       2129.435 
Loop time of 2129.44 on 40 procs for 205761 steps with 1173 atoms, finish time Mon Nov 28 05:39:52 2022


Pair  time (%) = 0.505316 (0.02373)
Neigh time (%) = 14.0917 (0.661759)
Comm  time (%) = 14.7093 (0.690761)
Outpt time (%) = 0.000549134 (2.57878e-05)
Other time (%) = 2100.13 (98.6237)

Nlocal:    29.325 ave 466 max 0 min
Histogram: 36 1 1 0 0 0 0 0 0 2
Nghost:    7.775 ave 89 max 0 min
Histogram: 36 0 0 0 0 0 0 2 0 2
Neighs:    7.75 ave 159 max 0 min
Histogram: 37 1 0 0 0 0 0 1 0 1

Total # of neighbors = 310
Ave neighs/atom = 0.26428
Neighbor list builds = 17038
Dangerous builds = 473
Setting up run at Mon Nov 28 05:39:53 2022

Memory usage per processor = 960.195 Mbytes
    Step    Atoms         KinEng            CPU 
 4938266     1173     0.36794067              0 
 5144027     1163     0.26510074      2116.4549 
Loop time of 2116.46 on 40 procs for 205761 steps with 1163 atoms, finish time Mon Nov 28 06:15:09 2022


Pair  time (%) = 0.496377 (0.0234532)
Neigh time (%) = 12.2566 (0.579111)
Comm  time (%) = 14.0366 (0.663211)
Outpt time (%) = 0.000318746 (1.50604e-05)
Other time (%) = 2089.67 (98.7342)

Nlocal:    29.075 ave 458 max 0 min
Histogram: 36 1 1 0 0 0 0 0 0 2
Nghost:    7.525 ave 86 max 0 min
Histogram: 36 0 0 0 0 0 1 0 1 2
Neighs:    7.575 ave 150 max 0 min
Histogram: 37 1 0 0 0 0 0 0 1 1

Total # of neighbors = 303
Ave neighs/atom = 0.260533
Neighbor list builds = 14831
Dangerous builds = 83
Setting up run at Mon Nov 28 06:16:18 2022

Memory usage per processor = 960.195 Mbytes
    Step    Atoms         KinEng            CPU 
 5144027     1163     0.26510074              0 
 5349788     1145     0.38439414      2152.0203 
Loop time of 2152.02 on 40 procs for 205761 steps with 1145 atoms, finish time Mon Nov 28 06:52:10 2022


Pair  time (%) = 0.498579 (0.0231679)
Neigh time (%) = 13.8414 (0.64318)
Comm  time (%) = 18.043 (0.83842)
Outpt time (%) = 0.000545013 (2.53256e-05)
Other time (%) = 2119.64 (98.4952)

Nlocal:    28.625 ave 455 max 0 min
Histogram: 36 1 1 0 0 0 0 0 0 2
Nghost:    7.375 ave 82 max 0 min
Histogram: 36 0 0 0 0 0 0 1 1 2
Neighs:    7.375 ave 156 max 0 min
Histogram: 37 1 0 0 0 0 1 0 0 1

Total # of neighbors = 295
Ave neighs/atom = 0.257642
Neighbor list builds = 16812
Dangerous builds = 854
Setting up run at Mon Nov 28 06:52:10 2022

Memory usage per processor = 960.195 Mbytes
    Step    Atoms         KinEng            CPU 
 5349788     1145     0.38439414              0 
 5555549     1139     0.42412389      2109.3269 
Loop time of 2109.33 on 40 procs for 205761 steps with 1139 atoms, finish time Mon Nov 28 07:27:20 2022


Pair  time (%) = 0.492352 (0.0233417)
Neigh time (%) = 11.513 (0.545813)
Comm  time (%) = 14.7042 (0.697105)
Outpt time (%) = 0.000575564 (2.72866e-05)
Other time (%) = 2082.62 (98.7337)

Nlocal:    28.475 ave 449 max 0 min
Histogram: 36 0 2 0 0 0 0 0 0 2
Nghost:    7.35 ave 88 max 0 min
Histogram: 36 0 0 0 0 0 1 1 1 1
Neighs:    7.45 ave 166 max 0 min
Histogram: 37 1 0 0 0 1 0 0 0 1

Total # of neighbors = 298
Ave neighs/atom = 0.261633
Neighbor list builds = 13942
Dangerous builds = 181
Setting up run at Mon Nov 28 07:27:20 2022

Memory usage per processor = 960.195 Mbytes
    Step    Atoms         KinEng            CPU 
 5555549     1139     0.42412389              0 
 5761310     1129     0.36233922      2111.9264 
Loop time of 2111.94 on 40 procs for 205761 steps with 1129 atoms, finish time Mon Nov 28 08:02:32 2022


Pair  time (%) = 0.494502 (0.0234146)
Neigh time (%) = 13.2184 (0.62589)
Comm  time (%) = 17.5337 (0.830217)
Outpt time (%) = 0.000287035 (1.3591e-05)
Other time (%) = 2080.69 (98.5205)

Nlocal:    28.225 ave 437 max 0 min
Histogram: 36 1 1 0 0 0 0 0 0 2
Nghost:    7.15 ave 84 max 0 min
Histogram: 36 0 0 0 0 0 2 0 0 2
Neighs:    7.225 ave 157 max 0 min
Histogram: 37 1 0 0 0 0 1 0 0 1

Total # of neighbors = 289
Ave neighs/atom = 0.255979
Neighbor list builds = 16026
Dangerous builds = 469
Setting up run at Mon Nov 28 08:02:32 2022

Memory usage per processor = 960.195 Mbytes
    Step    Atoms         KinEng            CPU 
 5761310     1129     0.36233922              0 
 5967071     1117     0.33883856       2131.084 
Loop time of 2131.08 on 40 procs for 205761 steps with 1117 atoms, finish time Mon Nov 28 08:38:03 2022


Pair  time (%) = 0.49138 (0.0230577)
Neigh time (%) = 13.5838 (0.637411)
Comm  time (%) = 19.204 (0.901136)
Outpt time (%) = 0.000557885 (2.61785e-05)
Other time (%) = 2097.8 (98.4384)

Nlocal:    27.925 ave 427 max 0 min
Histogram: 36 0 2 0 0 0 0 0 0 2
Nghost:    7.2 ave 92 max 0 min
Histogram: 36 0 0 0 0 1 1 0 1 1
Neighs:    6.45 ave 129 max 0 min
Histogram: 36 2 0 0 0 0 0 1 0 1

Total # of neighbors = 258
Ave neighs/atom = 0.230976
Neighbor list builds = 16496
Dangerous builds = 1371
Setting up run at Mon Nov 28 08:38:03 2022

Memory usage per processor = 960.195 Mbytes
    Step    Atoms         KinEng            CPU 
 5967071     1117     0.33883856              0 
 6172832     1103     0.39480575      2099.9695 
Loop time of 2099.98 on 40 procs for 205761 steps with 1103 atoms, finish time Mon Nov 28 09:13:03 2022


Pair  time (%) = 0.486275 (0.0231562)
Neigh time (%) = 11.2991 (0.538059)
Comm  time (%) = 11.7363 (0.558876)
Outpt time (%) = 0.0129379 (0.000616097)
Other time (%) = 2076.45 (98.8793)

Nlocal:    27.575 ave 425 max 0 min
Histogram: 36 0 2 0 0 0 0 0 0 2
Nghost:    6.95 ave 80 max 0 min
Histogram: 36 0 0 0 0 0 1 0 1 2
Neighs:    6.375 ave 128 max 0 min
Histogram: 37 1 0 0 0 0 0 1 0 1

Total # of neighbors = 255
Ave neighs/atom = 0.231188
Neighbor list builds = 13697
Dangerous builds = 1154
Setting up run at Mon Nov 28 09:13:03 2022

Memory usage per processor = 960.195 Mbytes
    Step    Atoms         KinEng            CPU 
 6172832     1103     0.39480575              0 
 6378593     1094     0.41201864      2110.4102 
Loop time of 2110.41 on 40 procs for 205761 steps with 1094 atoms, finish time Mon Nov 28 09:48:14 2022


Pair  time (%) = 0.48594 (0.0230258)
Neigh time (%) = 11.3513 (0.537874)
Comm  time (%) = 13.0666 (0.619149)
Outpt time (%) = 0.00050626 (2.39887e-05)
Other time (%) = 2085.51 (98.8199)

Nlocal:    27.35 ave 422 max 0 min
Histogram: 36 0 2 0 0 0 0 0 0 2
Nghost:    7.125 ave 84 max 0 min
Histogram: 36 0 0 0 0 0 1 1 0 2
Neighs:    6.225 ave 123 max 0 min
Histogram: 36 2 0 0 0 0 0 1 0 1

Total # of neighbors = 249
Ave neighs/atom = 0.227605
Neighbor list builds = 13798
Dangerous builds = 2151
Setting up run at Mon Nov 28 09:48:14 2022

Memory usage per processor = 960.195 Mbytes
    Step    Atoms         KinEng            CPU 
 6378593     1094     0.41201864              0 
 6584354     1084      0.4401401      2077.8668 
Loop time of 2077.87 on 40 procs for 205761 steps with 1084 atoms, finish time Mon Nov 28 10:22:51 2022


Pair  time (%) = 0.476352 (0.022925)
Neigh time (%) = 9.64206 (0.464036)
Comm  time (%) = 11.9959 (0.577317)
Outpt time (%) = 0.000231259 (1.11296e-05)
Other time (%) = 2055.75 (98.9357)

Nlocal:    27.1 ave 416 max 0 min
Histogram: 36 0 2 0 0 0 0 0 0 2
Nghost:    6.85 ave 83 max 0 min
Histogram: 36 0 0 0 0 0 1 1 0 2
Neighs:    5.775 ave 100 max 0 min
Histogram: 36 1 1 0 0 0 0 0 0 2

Total # of neighbors = 231
Ave neighs/atom = 0.2131
Neighbor list builds = 11687
Dangerous builds = 355
Setting up run at Mon Nov 28 10:22:52 2022

Memory usage per processor = 960.195 Mbytes
    Step    Atoms         KinEng            CPU 
 6584354     1084      0.4401401              0 
 6790115     1065      0.3691495      2100.7485 
Loop time of 2100.78 on 40 procs for 205761 steps with 1065 atoms, finish time Mon Nov 28 10:57:52 2022


Pair  time (%) = 0.48496 (0.0230848)
Neigh time (%) = 11.2078 (0.533507)
Comm  time (%) = 11.6212 (0.553188)
Outpt time (%) = 0.000522316 (2.4863e-05)
Other time (%) = 2077.46 (98.8902)

Nlocal:    26.625 ave 411 max 0 min
Histogram: 36 1 1 0 0 0 0 0 0 2
Nghost:    6.875 ave 81 max 0 min
Histogram: 36 0 0 0 0 0 1 1 0 2
Neighs:    6.075 ave 109 max 0 min
Histogram: 36 2 0 0 0 0 0 0 0 2

Total # of neighbors = 243
Ave neighs/atom = 0.228169
Neighbor list builds = 13628
Dangerous builds = 1514
Setting up run at Mon Nov 28 10:57:52 2022

Memory usage per processor = 960.195 Mbytes
    Step    Atoms         KinEng            CPU 
 6790115     1065      0.3691495              0 
 6995876     1055     0.30530062       2078.736 
Loop time of 2078.74 on 40 procs for 205761 steps with 1055 atoms, finish time Mon Nov 28 11:32:31 2022


Pair  time (%) = 0.47049 (0.0226335)
Neigh time (%) = 8.77709 (0.422232)
Comm  time (%) = 12.6124 (0.606734)
Outpt time (%) = 0.00023139 (1.11313e-05)
Other time (%) = 2056.88 (98.9484)

Nlocal:    26.375 ave 410 max 0 min
Histogram: 36 0 2 0 0 0 0 0 0 2
Nghost:    6.775 ave 79 max 0 min
Histogram: 36 0 0 0 0 0 1 1 0 2
Neighs:    5.65 ave 103 max 0 min
Histogram: 36 2 0 0 0 0 0 0 1 1

Total # of neighbors = 226
Ave neighs/atom = 0.214218
Neighbor list builds = 10662
Dangerous builds = 527
Setting up run at Mon Nov 28 11:32:31 2022

Memory usage per processor = 960.195 Mbytes
    Step    Atoms         KinEng            CPU 
 6995876     1055     0.30530062              0 
 7201637     1047     0.32182833      2094.5685 
Loop time of 2094.57 on 40 procs for 205761 steps with 1047 atoms, finish time Mon Nov 28 12:07:26 2022


Pair  time (%) = 0.47129 (0.0225006)
Neigh time (%) = 8.07919 (0.385721)
Comm  time (%) = 10.8452 (0.517778)
Outpt time (%) = 0.000533249 (2.54587e-05)
Other time (%) = 2075.17 (99.074)

Nlocal:    26.175 ave 408 max 0 min
Histogram: 36 0 2 0 0 0 0 0 0 2
Nghost:    6.85 ave 85 max 0 min
Histogram: 36 0 0 0 0 0 2 0 1 1
Neighs:    5.575 ave 101 max 0 min
Histogram: 36 2 0 0 0 0 0 0 0 2

Total # of neighbors = 223
Ave neighs/atom = 0.212989
Neighbor list builds = 9807
Dangerous builds = 521
Setting up run at Mon Nov 28 12:07:26 2022

Memory usage per processor = 960.195 Mbytes
    Step    Atoms         KinEng            CPU 
 7201637     1047     0.32182833              0 
 7407398     1038     0.27478663       2133.455 
Loop time of 2133.46 on 40 procs for 205761 steps with 1038 atoms, finish time Mon Nov 28 12:42:59 2022


Pair  time (%) = 0.473588 (0.0221982)
Neigh time (%) = 11.4705 (0.537649)
Comm  time (%) = 14.8859 (0.697738)
Outpt time (%) = 0.000267962 (1.256e-05)
Other time (%) = 2106.63 (98.7424)

Nlocal:    25.95 ave 408 max 0 min
Histogram: 36 0 2 0 0 0 0 0 1 1
Nghost:    6.875 ave 90 max 0 min
Histogram: 36 0 0 0 1 1 0 0 1 1
Neighs:    5.175 ave 93 max 0 min
Histogram: 36 2 0 0 0 0 0 0 0 2

Total # of neighbors = 207
Ave neighs/atom = 0.199422
Neighbor list builds = 13932
Dangerous builds = 835
Setting up run at Mon Nov 28 12:43:00 2022

Memory usage per processor = 960.195 Mbytes
    Step    Atoms         KinEng            CPU 
 7407398     1038     0.27478663              0 
 7613159     1033     0.50291522      2083.9446 
Loop time of 2083.94 on 40 procs for 205761 steps with 1033 atoms, finish time Mon Nov 28 13:17:43 2022


Pair  time (%) = 0.462965 (0.0222158)
Neigh time (%) = 8.72404 (0.418631)
Comm  time (%) = 13.9756 (0.67063)
Outpt time (%) = 0.000457166 (2.19375e-05)
Other time (%) = 2060.78 (98.8885)

Nlocal:    25.825 ave 414 max 0 min
Histogram: 36 1 1 0 0 0 0 0 1 1
Nghost:    7.075 ave 96 max 0 min
Histogram: 36 0 0 0 0 2 0 1 0 1
Neighs:    4.825 ave 98 max 0 min
Histogram: 36 2 0 0 0 0 0 1 0 1

Total # of neighbors = 193
Ave neighs/atom = 0.186834
Neighbor list builds = 10589
Dangerous builds = 323
Setting up run at Mon Nov 28 13:17:44 2022

Memory usage per processor = 960.195 Mbytes
    Step    Atoms         KinEng            CPU 
 7613159     1033     0.50291522              0 
 7818920     1026     0.34530116      2224.1512 
Loop time of 2224.15 on 40 procs for 205761 steps with 1026 atoms, finish time Mon Nov 28 13:54:48 2022


Pair  time (%) = 0.464471 (0.0208831)
Neigh time (%) = 9.34152 (0.420004)
Comm  time (%) = 15.2831 (0.687143)
Outpt time (%) = 0.000497031 (2.2347e-05)
Other time (%) = 2199.06 (98.8719)

Nlocal:    25.65 ave 407 max 0 min
Histogram: 36 1 1 0 0 0 0 0 1 1
Nghost:    6.6 ave 88 max 0 min
Histogram: 36 0 0 0 0 2 0 0 1 1
Neighs:    4.625 ave 92 max 0 min
Histogram: 36 2 0 0 0 0 0 1 0 1

Total # of neighbors = 185
Ave neighs/atom = 0.180312
Neighbor list builds = 11353
Dangerous builds = 436
Setting up run at Mon Nov 28 13:54:48 2022

Memory usage per processor = 960.195 Mbytes
    Step    Atoms         KinEng            CPU 
 7818920     1026     0.34530116              0 
 8024681     1015     0.35238061       2163.187 
Loop time of 2163.19 on 40 procs for 205761 steps with 1015 atoms, finish time Mon Nov 28 14:30:51 2022


Pair  time (%) = 0.4602 (0.0212741)
Neigh time (%) = 9.69449 (0.448158)
Comm  time (%) = 15.9142 (0.735683)
Outpt time (%) = 0.000245887 (1.13669e-05)
Other time (%) = 2137.12 (98.7949)

Nlocal:    25.375 ave 403 max 0 min
Histogram: 36 0 2 0 0 0 0 0 1 1
Nghost:    6.65 ave 90 max 0 min
Histogram: 36 0 0 0 0 2 0 1 0 1
Neighs:    4.075 ave 78 max 0 min
Histogram: 36 2 0 0 0 0 0 0 1 1

Total # of neighbors = 163
Ave neighs/atom = 0.160591
Neighbor list builds = 11793
Dangerous builds = 757
Setting up run at Mon Nov 28 14:30:51 2022

Memory usage per processor = 960.195 Mbytes
    Step    Atoms         KinEng            CPU 
 8024681     1015     0.35238061              0 
 8230442     1010     0.32073161      2110.5731 
Loop time of 2110.57 on 40 procs for 205761 steps with 1010 atoms, finish time Mon Nov 28 15:06:02 2022


Pair  time (%) = 0.457541 (0.0216785)
Neigh time (%) = 10.4911 (0.497074)
Comm  time (%) = 17.7987 (0.843309)
Outpt time (%) = 0.000491585 (2.32915e-05)
Other time (%) = 2081.83 (98.6379)

Nlocal:    25.25 ave 400 max 0 min
Histogram: 36 1 1 0 0 0 0 0 1 1
Nghost:    6.3 ave 89 max 0 min
Histogram: 36 0 0 0 2 0 0 1 0 1
Neighs:    4.125 ave 74 max 0 min
Histogram: 36 1 1 0 0 0 0 1 0 1

Total # of neighbors = 165
Ave neighs/atom = 0.163366
Neighbor list builds = 12670
Dangerous builds = 203
Setting up run at Mon Nov 28 15:06:02 2022

Memory usage per processor = 960.195 Mbytes
    Step    Atoms         KinEng            CPU 
 8230442     1010     0.32073161              0 
 8436203      989     0.34271805      2113.1195 
Loop time of 2113.12 on 40 procs for 205761 steps with 989 atoms, finish time Mon Nov 28 15:41:15 2022


Pair  time (%) = 0.458736 (0.0217089)
Neigh time (%) = 10.7989 (0.51104)
Comm  time (%) = 17.7162 (0.838392)
Outpt time (%) = 0.000229603 (1.08656e-05)
Other time (%) = 2084.15 (98.6288)

Nlocal:    24.725 ave 390 max 0 min
Histogram: 36 0 2 0 0 0 0 0 1 1
Nghost:    6 ave 78 max 0 min
Histogram: 36 0 0 0 0 2 0 0 1 1
Neighs:    3.95 ave 74 max 0 min
Histogram: 36 2 0 0 0 0 0 0 1 1

Total # of neighbors = 158
Ave neighs/atom = 0.159757
Neighbor list builds = 13063
Dangerous builds = 569
Setting up run at Mon Nov 28 15:41:15 2022

Memory usage per processor = 960.195 Mbytes
    Step    Atoms         KinEng            CPU 
 8436203      989     0.34271805              0 
 8641964      980     0.30301884      2229.6429 
Loop time of 2229.64 on 40 procs for 205761 steps with 980 atoms, finish time Mon Nov 28 16:18:25 2022


Pair  time (%) = 0.459761 (0.0206204)
Neigh time (%) = 11.2231 (0.503358)
Comm  time (%) = 16.3941 (0.735278)
Outpt time (%) = 0.000513423 (2.30271e-05)
Other time (%) = 2201.57 (98.7407)

Nlocal:    24.5 ave 383 max 0 min
Histogram: 36 1 1 0 0 0 0 0 1 1
Nghost:    6.05 ave 69 max 0 min
Histogram: 36 0 0 0 0 0 2 0 0 2
Neighs:    3.8 ave 77 max 0 min
Histogram: 36 2 0 0 0 0 0 1 0 1

Total # of neighbors = 152
Ave neighs/atom = 0.155102
Neighbor list builds = 13560
Dangerous builds = 8
Setting up run at Mon Nov 28 16:18:25 2022

Memory usage per processor = 960.195 Mbytes
    Step    Atoms         KinEng            CPU 
 8641964      980     0.30301884              0 
 8847725      965     0.37989501      2101.6854 
Loop time of 2101.7 on 40 procs for 205761 steps with 965 atoms, finish time Mon Nov 28 16:53:26 2022


Pair  time (%) = 0.453066 (0.0215571)
Neigh time (%) = 9.97544 (0.474636)
Comm  time (%) = 17.8086 (0.84734)
Outpt time (%) = 4.58899e-05 (2.18346e-06)
Other time (%) = 2073.47 (98.6565)

Nlocal:    24.125 ave 383 max 0 min
Histogram: 36 1 1 0 0 0 0 0 1 1
Nghost:    5.925 ave 70 max 0 min
Histogram: 36 0 0 0 0 1 1 0 1 1
Neighs:    3.55 ave 79 max 0 min
Histogram: 37 1 0 0 0 0 1 0 0 1

Total # of neighbors = 142
Ave neighs/atom = 0.14715
Neighbor list builds = 12083
Dangerous builds = 910
Setting up run at Mon Nov 28 16:53:27 2022

Memory usage per processor = 960.195 Mbytes
    Step    Atoms         KinEng            CPU 
 8847725      965     0.37989501              0 
 9053486      952     0.45519269      2209.2084 
Loop time of 2209.21 on 40 procs for 205761 steps with 952 atoms, finish time Mon Nov 28 17:30:16 2022


Pair  time (%) = 0.456953 (0.020684)
Neigh time (%) = 14.152 (0.640593)
Comm  time (%) = 26.6203 (1.20497)
Outpt time (%) = 0.000530741 (2.4024e-05)
Other time (%) = 2167.98 (98.1337)

Nlocal:    23.8 ave 379 max 0 min
Histogram: 36 1 1 0 0 0 0 0 1 1
Nghost:    5.825 ave 76 max 0 min
Histogram: 36 0 0 0 0 2 0 0 1 1
Neighs:    3.525 ave 84 max 0 min
Histogram: 37 1 0 0 1 0 0 0 0 1

Total # of neighbors = 141
Ave neighs/atom = 0.148109
Neighbor list builds = 17220
Dangerous builds = 3412
Setting up run at Mon Nov 28 17:30:16 2022

Memory usage per processor = 960.195 Mbytes
    Step    Atoms         KinEng            CPU 
 9053486      952     0.45519269              0 
 9259247      942     0.32517781      2145.9216 
Loop time of 2145.92 on 40 procs for 205761 steps with 942 atoms, finish time Mon Nov 28 18:06:02 2022


Pair  time (%) = 0.458041 (0.0213447)
Neigh time (%) = 14.2437 (0.663757)
Comm  time (%) = 22.6109 (1.05367)
Outpt time (%) = 0.000299098 (1.3938e-05)
Other time (%) = 2108.61 (98.2612)

Nlocal:    23.55 ave 381 max 0 min
Histogram: 36 1 1 0 0 0 0 1 0 1
Nghost:    5.5 ave 76 max 0 min
Histogram: 36 0 0 0 1 1 0 1 0 1
Neighs:    3.625 ave 96 max 0 min
Histogram: 38 0 0 1 0 0 0 0 0 1

Total # of neighbors = 145
Ave neighs/atom = 0.153928
Neighbor list builds = 17219
Dangerous builds = 550
Setting up run at Mon Nov 28 18:06:02 2022

Memory usage per processor = 960.195 Mbytes
    Step    Atoms         KinEng            CPU 
 9259247      942     0.32517781              0 
 9465008      927      2.1502998      2154.2628 
Loop time of 2154.26 on 40 procs for 205761 steps with 927 atoms, finish time Mon Nov 28 18:41:56 2022


Pair  time (%) = 0.451134 (0.0209415)
Neigh time (%) = 14.1854 (0.658478)
Comm  time (%) = 25.2698 (1.17302)
Outpt time (%) = 0.000474646 (2.20329e-05)
Other time (%) = 2114.36 (98.1475)

Nlocal:    23.175 ave 383 max 0 min
Histogram: 36 2 0 0 0 0 0 1 0 1
Nghost:    5.325 ave 71 max 0 min
Histogram: 36 0 0 0 2 0 0 1 0 1
Neighs:    3.65 ave 91 max 0 min
Histogram: 37 1 0 1 0 0 0 0 0 1

Total # of neighbors = 146
Ave neighs/atom = 0.157497
Neighbor list builds = 17138
Dangerous builds = 489
Setting up run at Mon Nov 28 18:41:56 2022

Memory usage per processor = 960.195 Mbytes
    Step    Atoms         KinEng            CPU 
 9465008      927      2.1502998              0 
 9670769      911     0.47038319      2155.5397 
Loop time of 2155.54 on 40 procs for 205761 steps with 911 atoms, finish time Mon Nov 28 19:17:52 2022


Pair  time (%) = 0.455296 (0.0211221)
Neigh time (%) = 13.9243 (0.645976)
Comm  time (%) = 22.4661 (1.04225)
Outpt time (%) = 0.000280178 (1.29981e-05)
Other time (%) = 2118.69 (98.2906)

Nlocal:    22.775 ave 378 max 0 min
Histogram: 36 1 1 0 0 0 0 1 0 1
Nghost:    5.075 ave 66 max 0 min
Histogram: 36 0 0 0 2 0 0 0 1 1
Neighs:    3.5 ave 90 max 0 min
Histogram: 37 1 0 1 0 0 0 0 0 1

Total # of neighbors = 140
Ave neighs/atom = 0.153677
Neighbor list builds = 16860
Dangerous builds = 302
Setting up run at Mon Nov 28 19:17:52 2022

Memory usage per processor = 960.195 Mbytes
    Step    Atoms         KinEng            CPU 
 9670769      911     0.47038319              0 
 9876530      899     0.45570754      2138.9225 
Loop time of 2138.92 on 40 procs for 205761 steps with 899 atoms, finish time Mon Nov 28 19:53:31 2022


Pair  time (%) = 0.459704 (0.0214923)
Neigh time (%) = 14.6305 (0.684013)
Comm  time (%) = 16.7407 (0.782668)
Outpt time (%) = 0.000512956 (2.3982e-05)
Other time (%) = 2107.09 (98.5118)

Nlocal:    22.475 ave 384 max 0 min
Histogram: 36 2 0 0 0 0 1 0 0 1
Nghost:    4.825 ave 66 max 0 min
Histogram: 36 0 0 0 2 0 0 0 1 1
Neighs:    3.675 ave 102 max 0 min
Histogram: 37 1 1 0 0 0 0 0 0 1

Total # of neighbors = 147
Ave neighs/atom = 0.163515
Neighbor list builds = 17679
Dangerous builds = 898
Setting up run at Mon Nov 28 19:53:31 2022

Memory usage per processor = 960.195 Mbytes
    Step    Atoms         KinEng            CPU 
 9876530      899     0.45570754              0 
10082291      887     0.34854018       2119.441 
Loop time of 2119.44 on 40 procs for 205761 steps with 887 atoms, finish time Mon Nov 28 20:28:50 2022


Pair  time (%) = 0.453615 (0.0214026)
Neigh time (%) = 13.2605 (0.625661)
Comm  time (%) = 16.6936 (0.787643)
Outpt time (%) = 0.000516276 (2.43591e-05)
Other time (%) = 2089.03 (98.5653)

Nlocal:    22.175 ave 383 max 0 min
Histogram: 36 2 0 0 0 0 1 0 0 1
Nghost:    4.625 ave 65 max 0 min
Histogram: 36 0 0 0 2 0 0 0 1 1
Neighs:    3.25 ave 86 max 0 min
Histogram: 37 1 1 0 0 0 0 0 0 1

Total # of neighbors = 130
Ave neighs/atom = 0.146561
Neighbor list builds = 16028
Dangerous builds = 840
Setting up run at Mon Nov 28 20:28:50 2022

Memory usage per processor = 960.195 Mbytes
    Step    Atoms         KinEng            CPU 
10082291      887     0.34854018              0 
10288052      876     0.36846796      2114.1248 
Loop time of 2114.13 on 40 procs for 205761 steps with 876 atoms, finish time Mon Nov 28 21:04:05 2022


Pair  time (%) = 0.44559 (0.0210767)
Neigh time (%) = 12.1201 (0.573291)
Comm  time (%) = 14.9813 (0.708625)
Outpt time (%) = 0.000240383 (1.13703e-05)
Other time (%) = 2086.59 (98.697)

Nlocal:    21.9 ave 376 max 0 min
Histogram: 36 2 0 0 0 0 1 0 0 1
Nghost:    4.475 ave 61 max 0 min
Histogram: 36 0 0 0 2 0 0 0 1 1
Neighs:    3.025 ave 78 max 0 min
Histogram: 37 0 2 0 0 0 0 0 0 1

Total # of neighbors = 121
Ave neighs/atom = 0.138128
Neighbor list builds = 14614
Dangerous builds = 31
Setting up run at Mon Nov 28 21:04:05 2022

Memory usage per processor = 960.195 Mbytes
    Step    Atoms         KinEng            CPU 
10288052      876     0.36846796              0 
10493813      855     0.39088982      2111.8563 
Loop time of 2111.86 on 40 procs for 205761 steps with 855 atoms, finish time Mon Nov 28 21:39:17 2022


Pair  time (%) = 0.443941 (0.0210214)
Neigh time (%) = 12.3261 (0.583663)
Comm  time (%) = 17.7998 (0.842852)
Outpt time (%) = 0.000582784 (2.75958e-05)
Other time (%) = 2081.29 (98.5524)

Nlocal:    21.375 ave 376 max 0 min
Histogram: 36 2 0 0 0 0 1 0 0 1
Nghost:    4.625 ave 58 max 0 min
Histogram: 36 0 0 0 0 2 0 0 0 2
Neighs:    3.15 ave 89 max 0 min
Histogram: 37 1 1 0 0 0 0 0 0 1

Total # of neighbors = 126
Ave neighs/atom = 0.147368
Neighbor list builds = 14913
Dangerous builds = 1256
Setting up run at Mon Nov 28 21:39:17 2022

Memory usage per processor = 960.195 Mbytes
    Step    Atoms         KinEng            CPU 
10493813      855     0.39088982              0 
10699574      835     0.32690027      2111.1714 
Loop time of 2111.17 on 40 procs for 205761 steps with 835 atoms, finish time Mon Nov 28 22:14:28 2022


Pair  time (%) = 0.434882 (0.0205991)
Neigh time (%) = 11.9786 (0.567389)
Comm  time (%) = 16.1671 (0.765786)
Outpt time (%) = 0.000248211 (1.1757e-05)
Other time (%) = 2082.59 (98.6462)

Nlocal:    20.875 ave 376 max 0 min
Histogram: 36 2 0 0 0 0 1 0 0 1
Nghost:    4.6 ave 59 max 0 min
Histogram: 36 0 0 0 1 1 0 0 0 2
Neighs:    2.5 ave 75 max 0 min
Histogram: 37 2 0 0 0 0 0 0 0 1

Total # of neighbors = 100
Ave neighs/atom = 0.11976
Neighbor list builds = 14476
Dangerous builds = 698
Setting up run at Mon Nov 28 22:14:28 2022

Memory usage per processor = 960.195 Mbytes
    Step    Atoms         KinEng            CPU 
10699574      835     0.32690027              0 
10905335      822     0.45719988      2099.4593 
Loop time of 2099.46 on 40 procs for 205761 steps with 822 atoms, finish time Mon Nov 28 22:49:27 2022


Pair  time (%) = 0.431526 (0.0205542)
Neigh time (%) = 10.8809 (0.518274)
Comm  time (%) = 15.0331 (0.716045)
Outpt time (%) = 0.000521195 (2.48252e-05)
Other time (%) = 2073.11 (98.7451)

Nlocal:    20.55 ave 376 max 0 min
Histogram: 36 2 0 0 0 0 1 0 0 1
Nghost:    4.55 ave 61 max 0 min
Histogram: 36 0 0 0 1 1 0 0 1 1
Neighs:    2.575 ave 72 max 0 min
Histogram: 37 1 1 0 0 0 0 0 0 1

Total # of neighbors = 103
Ave neighs/atom = 0.125304
Neighbor list builds = 13149
Dangerous builds = 268
Setting up run at Mon Nov 28 22:49:28 2022

Memory usage per processor = 960.195 Mbytes
    Step    Atoms         KinEng            CPU 
10905335      822     0.45719988              0 
11111096      817     0.41527667      2087.0934 
Loop time of 2087.09 on 40 procs for 205761 steps with 817 atoms, finish time Mon Nov 28 23:24:15 2022


Pair  time (%) = 0.426762 (0.0204477)
Neigh time (%) = 8.90703 (0.426767)
Comm  time (%) = 11.3139 (0.54209)
Outpt time (%) = 0.000222903 (1.068e-05)
Other time (%) = 2066.45 (99.0107)

Nlocal:    20.425 ave 369 max 0 min
Histogram: 36 2 0 0 0 0 1 0 0 1
Nghost:    4.725 ave 59 max 0 min
Histogram: 36 0 0 0 1 1 0 0 0 2
Neighs:    2.325 ave 67 max 0 min
Histogram: 37 1 1 0 0 0 0 0 0 1

Total # of neighbors = 93
Ave neighs/atom = 0.113831
Neighbor list builds = 10766
Dangerous builds = 395
Setting up run at Mon Nov 28 23:24:15 2022

Memory usage per processor = 960.195 Mbytes
    Step    Atoms         KinEng            CPU 
11111096      817     0.41527667              0 
11316857      809     0.44332667      2078.7379 
Loop time of 2078.74 on 40 procs for 205761 steps with 809 atoms, finish time Mon Nov 28 23:58:53 2022


Pair  time (%) = 0.424937 (0.0204421)
Neigh time (%) = 9.45493 (0.45484)
Comm  time (%) = 14.831 (0.713461)
Outpt time (%) = 0.000523399 (2.51787e-05)
Other time (%) = 2054.03 (98.8112)

Nlocal:    20.225 ave 356 max 0 min
Histogram: 36 2 0 0 0 0 1 0 0 1
Nghost:    4.65 ave 62 max 0 min
Histogram: 36 0 0 0 1 1 0 0 1 1
Neighs:    2.125 ave 57 max 0 min
Histogram: 37 1 1 0 0 0 0 0 0 1

Total # of neighbors = 85
Ave neighs/atom = 0.105068
Neighbor list builds = 11465
Dangerous builds = 484
Setting up run at Mon Nov 28 23:58:53 2022

Memory usage per processor = 960.195 Mbytes
    Step    Atoms         KinEng            CPU 
11316857      809     0.44332667              0 
11522618      793     0.50036718      2116.6742 
Loop time of 2116.67 on 40 procs for 205761 steps with 793 atoms, finish time Tue Nov 29 00:34:10 2022


Pair  time (%) = 0.430664 (0.0203462)
Neigh time (%) = 12.8005 (0.604747)
Comm  time (%) = 18.6597 (0.881556)
Outpt time (%) = 0.000262842 (1.24177e-05)
Other time (%) = 2084.78 (98.4933)

Nlocal:    19.825 ave 349 max 0 min
Histogram: 36 2 0 0 0 0 1 0 0 1
Nghost:    4.8 ave 60 max 0 min
Histogram: 36 0 0 0 1 1 0 0 0 2
Neighs:    1.95 ave 54 max 0 min
Histogram: 37 1 1 0 0 0 0 0 0 1

Total # of neighbors = 78
Ave neighs/atom = 0.0983607
Neighbor list builds = 15511
Dangerous builds = 867
Setting up run at Tue Nov 29 00:34:10 2022

Memory usage per processor = 960.195 Mbytes
    Step    Atoms         KinEng            CPU 
11522618      793     0.50036718              0 
11728379      784     0.58379173      2084.7393 
Loop time of 2084.74 on 40 procs for 205761 steps with 784 atoms, finish time Tue Nov 29 01:08:55 2022


Pair  time (%) = 0.424574 (0.0203658)
Neigh time (%) = 9.4601 (0.453778)
Comm  time (%) = 14.0597 (0.674408)
Outpt time (%) = 0.0041362 (0.000198404)
Other time (%) = 2060.79 (98.8512)

Nlocal:    19.6 ave 337 max 0 min
Histogram: 36 2 0 0 0 0 1 0 0 1
Nghost:    4.65 ave 58 max 0 min
Histogram: 36 0 0 0 0 2 0 0 0 2
Neighs:    1.85 ave 52 max 0 min
Histogram: 37 2 0 0 0 0 0 0 0 1

Total # of neighbors = 74
Ave neighs/atom = 0.0943878
Neighbor list builds = 11461
Dangerous builds = 150
Setting up run at Tue Nov 29 01:08:55 2022

Memory usage per processor = 960.195 Mbytes
    Step    Atoms         KinEng            CPU 
11728379      784     0.58379173              0 
11934140      769     0.61041478      2098.9288 
Loop time of 2098.93 on 40 procs for 205761 steps with 769 atoms, finish time Tue Nov 29 01:43:54 2022


Pair  time (%) = 0.422372 (0.0201232)
Neigh time (%) = 10.2336 (0.487562)
Comm  time (%) = 16.9766 (0.808822)
Outpt time (%) = 0.00406477 (0.000193659)
Other time (%) = 2071.29 (98.6833)

Nlocal:    19.225 ave 320 max 0 min
Histogram: 36 1 1 0 0 0 0 1 0 1
Nghost:    4.6 ave 63 max 0 min
Histogram: 36 0 0 0 2 0 0 1 0 1
Neighs:    1.9 ave 51 max 0 min
Histogram: 37 1 1 0 0 0 0 0 0 1

Total # of neighbors = 76
Ave neighs/atom = 0.0988296
Neighbor list builds = 12366
Dangerous builds = 42
Setting up run at Tue Nov 29 01:43:54 2022

Memory usage per processor = 960.195 Mbytes
    Step    Atoms         KinEng            CPU 
11934140      769     0.61041478              0 
12139901      754     0.29886445      2095.3302 
Loop time of 2095.33 on 40 procs for 205761 steps with 754 atoms, finish time Tue Nov 29 02:18:49 2022


Pair  time (%) = 0.425916 (0.0203269)
Neigh time (%) = 10.6065 (0.506195)
Comm  time (%) = 15.2293 (0.72682)
Outpt time (%) = 0.000549703 (2.62347e-05)
Other time (%) = 2069.07 (98.7466)

Nlocal:    18.85 ave 315 max 0 min
Histogram: 36 1 1 0 0 0 0 1 0 1
Nghost:    4.425 ave 57 max 0 min
Histogram: 36 0 0 0 0 2 0 1 0 1
Neighs:    1.7 ave 50 max 0 min
Histogram: 37 1 1 0 0 0 0 0 0 1

Total # of neighbors = 68
Ave neighs/atom = 0.0901857
Neighbor list builds = 12835
Dangerous builds = 139
Setting up run at Tue Nov 29 02:18:50 2022

Memory usage per processor = 960.195 Mbytes
    Step    Atoms         KinEng            CPU 
12139901      754     0.29886445              0 
12345662      739     0.88837506      2128.3873 
Loop time of 2128.39 on 40 procs for 205761 steps with 739 atoms, finish time Tue Nov 29 02:54:18 2022


Pair  time (%) = 0.428378 (0.0201269)
Neigh time (%) = 14.2234 (0.668273)
Comm  time (%) = 20.3173 (0.954586)
Outpt time (%) = 0.000249237 (1.17101e-05)
Other time (%) = 2093.42 (98.357)

Nlocal:    18.475 ave 318 max 0 min
Histogram: 36 2 0 0 0 0 1 0 0 1
Nghost:    4.35 ave 48 max 0 min
Histogram: 35 1 0 0 0 0 2 0 0 2
Neighs:    1.725 ave 48 max 0 min
Histogram: 37 1 1 0 0 0 0 0 0 1

Total # of neighbors = 69
Ave neighs/atom = 0.0933694
Neighbor list builds = 17273
Dangerous builds = 1973
Setting up run at Tue Nov 29 02:54:18 2022

Memory usage per processor = 960.195 Mbytes
    Step    Atoms         KinEng            CPU 
12345662      739     0.88837506              0 
12551423      725     0.52329626      2091.7391 
Loop time of 2091.74 on 40 procs for 205761 steps with 725 atoms, finish time Tue Nov 29 03:29:10 2022


Pair  time (%) = 0.419572 (0.0200585)
Neigh time (%) = 10.1669 (0.486052)
Comm  time (%) = 15.976 (0.763767)
Outpt time (%) = 0.0142693 (0.000682173)
Other time (%) = 2065.16 (98.7294)

Nlocal:    18.125 ave 300 max 0 min
Histogram: 36 2 0 0 0 0 0 1 0 1
Nghost:    4.125 ave 48 max 0 min
Histogram: 36 0 0 0 0 0 1 1 1 1
Neighs:    1.275 ave 34 max 0 min
Histogram: 38 0 1 0 0 0 0 0 0 1

Total # of neighbors = 51
Ave neighs/atom = 0.0703448
Neighbor list builds = 12300
Dangerous builds = 188
Setting up run at Tue Nov 29 03:29:10 2022

Memory usage per processor = 960.195 Mbytes
    Step    Atoms         KinEng            CPU 
12551423      725     0.52329626              0 
12757184      710     0.41543141      2105.3517 
Loop time of 2105.35 on 40 procs for 205761 steps with 710 atoms, finish time Tue Nov 29 04:04:15 2022


Pair  time (%) = 0.419599 (0.0199301)
Neigh time (%) = 11.1292 (0.528613)
Comm  time (%) = 19.5694 (0.929509)
Outpt time (%) = 0.000538331 (2.55697e-05)
Other time (%) = 2074.23 (98.5219)

Nlocal:    17.75 ave 296 max 0 min
Histogram: 36 2 0 0 0 0 0 1 0 1
Nghost:    3.875 ave 48 max 0 min
Histogram: 36 0 0 0 0 1 1 0 1 1
Neighs:    1.325 ave 42 max 0 min
Histogram: 38 1 0 0 0 0 0 0 0 1

Total # of neighbors = 53
Ave neighs/atom = 0.0746479
Neighbor list builds = 13450
Dangerous builds = 9
Setting up run at Tue Nov 29 04:04:15 2022

Memory usage per processor = 960.195 Mbytes
    Step    Atoms         KinEng            CPU 
12757184      710     0.41543141              0 
12962945      699     0.33887743      2079.4693 
Loop time of 2079.47 on 40 procs for 205761 steps with 699 atoms, finish time Tue Nov 29 04:38:55 2022


Pair  time (%) = 0.414733 (0.0199442)
Neigh time (%) = 9.03811 (0.434635)
Comm  time (%) = 13.4365 (0.646149)
Outpt time (%) = 0.000320263 (1.54012e-05)
Other time (%) = 2056.58 (98.8993)

Nlocal:    17.475 ave 298 max 0 min
Histogram: 36 2 0 0 0 0 0 1 0 1
Nghost:    3.625 ave 44 max 0 min
Histogram: 36 0 0 0 0 1 1 1 0 1
Neighs:    1.475 ave 47 max 0 min
Histogram: 38 1 0 0 0 0 0 0 0 1

Total # of neighbors = 59
Ave neighs/atom = 0.0844063
Neighbor list builds = 10916
Dangerous builds = 153
Setting up run at Tue Nov 29 04:38:55 2022

Memory usage per processor = 960.195 Mbytes
    Step    Atoms         KinEng            CPU 
12962945      699     0.33887743              0 
13168706      689     0.39686521      2070.7227 
Loop time of 2070.72 on 40 procs for 205761 steps with 689 atoms, finish time Tue Nov 29 05:13:26 2022


Pair  time (%) = 0.413291 (0.0199588)
Neigh time (%) = 8.04733 (0.388624)
Comm  time (%) = 11.685 (0.564296)
Outpt time (%) = 0.000472415 (2.2814e-05)
Other time (%) = 2050.58 (99.0271)

Nlocal:    17.225 ave 283 max 0 min
Histogram: 36 2 0 0 0 0 0 1 0 1
Nghost:    3.675 ave 41 max 0 min
Histogram: 35 1 0 0 0 0 2 0 0 2
Neighs:    1.15 ave 40 max 0 min
Histogram: 38 1 0 0 0 0 0 0 0 1

Total # of neighbors = 46
Ave neighs/atom = 0.0667634
Neighbor list builds = 9732
Dangerous builds = 7
Setting up run at Tue Nov 29 05:13:26 2022

Memory usage per processor = 960.195 Mbytes
    Step    Atoms         KinEng            CPU 
13168706      689     0.39686521              0 
13374467      679     0.37676358      2090.3431 
Loop time of 2090.34 on 40 procs for 205761 steps with 679 atoms, finish time Tue Nov 29 05:48:16 2022


Pair  time (%) = 0.413192 (0.0197667)
Neigh time (%) = 10.164 (0.486237)
Comm  time (%) = 15.9302 (0.762085)
Outpt time (%) = 0.000196733 (9.41153e-06)
Other time (%) = 2063.84 (98.7319)

Nlocal:    16.975 ave 269 max 0 min
Histogram: 36 2 0 0 0 0 0 0 1 1
Nghost:    3.6 ave 47 max 0 min
Histogram: 36 0 0 0 1 1 0 1 0 1
Neighs:    1.275 ave 30 max 0 min
Histogram: 36 2 0 0 0 1 0 0 0 1

Total # of neighbors = 51
Ave neighs/atom = 0.0751105
Neighbor list builds = 12294
Dangerous builds = 526
Setting up run at Tue Nov 29 05:48:16 2022

Memory usage per processor = 960.195 Mbytes
    Step    Atoms         KinEng            CPU 
13374467      679     0.37676358              0 
13580228      669     0.50632471      2105.8389 
Loop time of 2105.84 on 40 procs for 205761 steps with 669 atoms, finish time Tue Nov 29 06:23:22 2022


Pair  time (%) = 0.413503 (0.019636)
Neigh time (%) = 11.0367 (0.5241)
Comm  time (%) = 18.7669 (0.891186)
Outpt time (%) = 0.000515584 (2.44835e-05)
Other time (%) = 2075.62 (98.5651)

Nlocal:    16.725 ave 261 max 0 min
Histogram: 36 2 0 0 0 0 0 0 1 1
Nghost:    3.525 ave 45 max 0 min
Histogram: 36 0 0 0 0 1 1 0 1 1
Neighs:    1.1 ave 27 max 0 min
Histogram: 38 0 0 0 1 0 0 0 0 1

Total # of neighbors = 44
Ave neighs/atom = 0.0657698
Neighbor list builds = 13328
Dangerous builds = 35
Setting up run at Tue Nov 29 06:23:22 2022

Memory usage per processor = 960.195 Mbytes
    Step    Atoms         KinEng            CPU 
13580228      669     0.50632471              0 
13785989      659      0.8839681      2120.6793 
Loop time of 2120.7 on 40 procs for 205761 steps with 659 atoms, finish time Tue Nov 29 06:58:43 2022


Pair  time (%) = 0.425852 (0.0200807)
Neigh time (%) = 12.8362 (0.605279)
Comm  time (%) = 14.3565 (0.676969)
Outpt time (%) = 0.000249795 (1.17789e-05)
Other time (%) = 2093.08 (98.6977)

Nlocal:    16.475 ave 257 max 0 min
Histogram: 36 2 0 0 0 0 0 0 1 1
Nghost:    3.75 ave 49 max 0 min
Histogram: 36 0 0 0 1 0 1 1 0 1
Neighs:    0.8 ave 20 max 0 min
Histogram: 36 1 2 0 0 0 0 0 0 1

Total # of neighbors = 32
Ave neighs/atom = 0.0485584
Neighbor list builds = 15516
Dangerous builds = 381
Setting up run at Tue Nov 29 06:58:43 2022

Memory usage per processor = 960.195 Mbytes
    Step    Atoms         KinEng            CPU 
13785989      659      0.8839681              0 
13991750      651     0.61921941      2083.0515 
Loop time of 2083.05 on 40 procs for 205761 steps with 651 atoms, finish time Tue Nov 29 07:33:26 2022


Pair  time (%) = 0.413522 (0.0198517)
Neigh time (%) = 9.32399 (0.447612)
Comm  time (%) = 12.075 (0.579677)
Outpt time (%) = 0.000727226 (3.49116e-05)
Other time (%) = 2061.24 (98.9528)

Nlocal:    16.275 ave 249 max 0 min
Histogram: 36 2 0 0 0 0 0 0 1 1
Nghost:    3.625 ave 44 max 0 min
Histogram: 36 0 0 0 0 1 1 0 0 2
Neighs:    1.05 ave 20 max 0 min
Histogram: 36 1 1 0 0 0 0 1 0 1

Total # of neighbors = 42
Ave neighs/atom = 0.0645161
Neighbor list builds = 11278
Dangerous builds = 465
Setting up run at Tue Nov 29 07:33:26 2022

Memory usage per processor = 960.195 Mbytes
    Step    Atoms         KinEng            CPU 
13991750      651     0.61921941              0 
14197511      638     0.48551763      2093.6391 
Loop time of 2093.64 on 40 procs for 205761 steps with 638 atoms, finish time Tue Nov 29 08:08:20 2022


Pair  time (%) = 0.417827 (0.019957)
Neigh time (%) = 10.4677 (0.499978)
Comm  time (%) = 11.1714 (0.533589)
Outpt time (%) = 0.00389509 (0.000186044)
Other time (%) = 2071.58 (98.9463)

Nlocal:    15.95 ave 251 max 0 min
Histogram: 36 2 0 0 0 0 0 0 1 1
Nghost:    3.8 ave 45 max 0 min
Histogram: 36 0 0 0 0 1 1 0 1 1
Neighs:    0.825 ave 14 max 0 min
Histogram: 36 1 0 1 0 0 0 0 1 1

Total # of neighbors = 33
Ave neighs/atom = 0.0517241
Neighbor list builds = 12679
Dangerous builds = 503
Setting up run at Tue Nov 29 08:08:20 2022

Memory usage per processor = 960.195 Mbytes
    Step    Atoms         KinEng            CPU 
14197511      638     0.48551763              0 
14403272      627     0.41876518      2085.1605 
Loop time of 2085.16 on 40 procs for 205761 steps with 627 atoms, finish time Tue Nov 29 08:43:05 2022


Pair  time (%) = 0.410431 (0.0196834)
Neigh time (%) = 9.39831 (0.450724)
Comm  time (%) = 11.742 (0.563123)
Outpt time (%) = 0.000497214 (2.38454e-05)
Other time (%) = 2063.61 (98.9664)

Nlocal:    15.675 ave 248 max 0 min
Histogram: 36 2 0 0 0 0 0 0 1 1
Nghost:    3.775 ave 44 max 0 min
Histogram: 36 0 0 0 0 1 1 0 0 2
Neighs:    0.875 ave 20 max 0 min
Histogram: 36 2 0 0 0 1 0 0 0 1

Total # of neighbors = 35
Ave neighs/atom = 0.0558214
Neighbor list builds = 11365
Dangerous builds = 107
Setting up run at Tue Nov 29 08:43:05 2022

Memory usage per processor = 960.195 Mbytes
    Step    Atoms         KinEng            CPU 
14403272      627     0.41876518              0 
14609033      618      0.4373232      2098.5789 
Loop time of 2098.58 on 40 procs for 205761 steps with 618 atoms, finish time Tue Nov 29 09:18:04 2022


Pair  time (%) = 0.410164 (0.0195448)
Neigh time (%) = 10.6064 (0.505408)
Comm  time (%) = 14.4453 (0.688339)
Outpt time (%) = 0.000176951 (8.43193e-06)
Other time (%) = 2073.12 (98.7867)

Nlocal:    15.45 ave 245 max 0 min
Histogram: 36 2 0 0 0 0 0 0 1 1
Nghost:    3.575 ave 48 max 0 min
Histogram: 36 0 0 0 1 1 0 0 1 1
Neighs:    0.65 ave 14 max 0 min
Histogram: 38 0 0 0 0 0 0 1 0 1

Total # of neighbors = 26
Ave neighs/atom = 0.0420712
Neighbor list builds = 12801
Dangerous builds = 94
Setting up run at Tue Nov 29 09:18:04 2022

Memory usage per processor = 960.195 Mbytes
    Step    Atoms         KinEng            CPU 
14609033      618      0.4373232              0 
14814794      607     0.40066349      2110.8942 
Loop time of 2110.89 on 40 procs for 205761 steps with 607 atoms, finish time Tue Nov 29 09:53:15 2022


Pair  time (%) = 0.413755 (0.0196009)
Neigh time (%) = 11.5956 (0.54932)
Comm  time (%) = 15.2139 (0.720732)
Outpt time (%) = 0.00403853 (0.000191319)
Other time (%) = 2083.67 (98.7102)

Nlocal:    15.175 ave 237 max 0 min
Histogram: 36 2 0 0 0 0 0 0 1 1
Nghost:    3.4 ave 44 max 0 min
Histogram: 36 0 0 0 2 0 0 0 1 1
Neighs:    0.675 ave 14 max 0 min
Histogram: 37 0 1 0 0 1 0 0 0 1

Total # of neighbors = 27
Ave neighs/atom = 0.0444811
Neighbor list builds = 13987
Dangerous builds = 6
Setting up run at Tue Nov 29 09:53:15 2022

Memory usage per processor = 960.195 Mbytes
    Step    Atoms         KinEng            CPU 
14814794      607     0.40066349              0 
15020555      600     0.56460966      2101.8213 
Loop time of 2101.92 on 40 procs for 205761 steps with 600 atoms, finish time Tue Nov 29 10:28:17 2022


Pair  time (%) = 0.413563 (0.0196755)
Neigh time (%) = 10.4743 (0.498321)
Comm  time (%) = 12.3906 (0.589489)
Outpt time (%) = 0.0002796 (1.33021e-05)
Other time (%) = 2078.64 (98.8925)

Nlocal:    15 ave 234 max 0 min
Histogram: 36 2 0 0 0 0 0 0 1 1
Nghost:    3.35 ave 44 max 0 min
Histogram: 36 0 0 0 2 0 0 0 0 2
Neighs:    0.9 ave 19 max 0 min
Histogram: 37 1 0 0 0 0 1 0 0 1

Total # of neighbors = 36
Ave neighs/atom = 0.06
Neighbor list builds = 12648
Dangerous builds = 510
Setting up run at Tue Nov 29 10:28:17 2022

Memory usage per processor = 960.195 Mbytes
    Step    Atoms         KinEng            CPU 
15020555      600     0.56460966              0 
15226316      586     0.48186968       2088.769 
Loop time of 2088.77 on 40 procs for 205761 steps with 586 atoms, finish time Tue Nov 29 11:03:06 2022


Pair  time (%) = 0.410424 (0.0196491)
Neigh time (%) = 8.89703 (0.425946)
Comm  time (%) = 9.71856 (0.465277)
Outpt time (%) = 0.000507258 (2.4285e-05)
Other time (%) = 2069.74 (99.0891)

Nlocal:    14.65 ave 237 max 0 min
Histogram: 36 2 0 0 0 0 0 0 1 1
Nghost:    3.1 ave 40 max 0 min
Histogram: 36 0 0 0 1 1 0 0 0 2
Neighs:    0.95 ave 20 max 0 min
Histogram: 36 2 0 0 0 0 1 0 0 1

Total # of neighbors = 38
Ave neighs/atom = 0.0648464
Neighbor list builds = 10774
Dangerous builds = 727
Setting up run at Tue Nov 29 11:03:06 2022

Memory usage per processor = 960.195 Mbytes
    Step    Atoms         KinEng            CPU 
15226316      586     0.48186968              0 
15432077      578     0.35312576      2076.5633 
Loop time of 2076.56 on 40 procs for 205761 steps with 578 atoms, finish time Tue Nov 29 11:37:42 2022


Pair  time (%) = 0.406532 (0.0195771)
Neigh time (%) = 8.13724 (0.391861)
Comm  time (%) = 11.3069 (0.544503)
Outpt time (%) = 0.000508242 (2.44752e-05)
Other time (%) = 2056.71 (99.044)

Nlocal:    14.45 ave 237 max 0 min
Histogram: 36 2 0 0 0 0 0 0 1 1
Nghost:    3.4 ave 41 max 0 min
Histogram: 36 0 0 0 1 1 0 0 0 2
Neighs:    0.825 ave 15 max 0 min
Histogram: 36 0 1 1 0 0 1 0 0 1

Total # of neighbors = 33
Ave neighs/atom = 0.0570934
Neighbor list builds = 9825
Dangerous builds = 4
Setting up run at Tue Nov 29 11:37:42 2022

Memory usage per processor = 960.195 Mbytes
    Step    Atoms         KinEng            CPU 
15432077      578     0.35312576              0 
15637838      573     0.50362388      2101.3605 
Loop time of 2101.36 on 40 procs for 205761 steps with 573 atoms, finish time Tue Nov 29 12:12:44 2022


Pair  time (%) = 0.40736 (0.0193855)
Neigh time (%) = 11.1976 (0.532872)
Comm  time (%) = 16.8832 (0.80344)
Outpt time (%) = 0.000286484 (1.36332e-05)
Other time (%) = 2072.87 (98.6443)

Nlocal:    14.325 ave 237 max 0 min
Histogram: 36 2 0 0 0 0 0 1 0 1
Nghost:    3.1 ave 40 max 0 min
Histogram: 36 0 0 0 1 1 0 0 1 1
Neighs:    0.85 ave 17 max 0 min
Histogram: 36 1 1 0 0 0 1 0 0 1

Total # of neighbors = 34
Ave neighs/atom = 0.0593368
Neighbor list builds = 13525
Dangerous builds = 25
Setting up run at Tue Nov 29 12:12:44 2022

Memory usage per processor = 960.195 Mbytes
    Step    Atoms         KinEng            CPU 
15637838      573     0.50362388              0 
15843599      568     0.39633568       2127.274 
Loop time of 2127.27 on 40 procs for 205761 steps with 568 atoms, finish time Tue Nov 29 12:48:11 2022


Pair  time (%) = 0.411893 (0.0193625)
Neigh time (%) = 12.3092 (0.578637)
Comm  time (%) = 16.7266 (0.786291)
Outpt time (%) = 0.000526904 (2.4769e-05)
Other time (%) = 2097.83 (98.6157)

Nlocal:    14.2 ave 232 max 0 min
Histogram: 36 2 0 0 0 0 0 1 0 1
Nghost:    3.2 ave 39 max 0 min
Histogram: 35 1 0 0 1 1 0 0 1 1
Neighs:    0.8 ave 18 max 0 min
Histogram: 37 1 0 0 0 1 0 0 0 1

Total # of neighbors = 32
Ave neighs/atom = 0.056338
Neighbor list builds = 14876
Dangerous builds = 785
Setting up run at Tue Nov 29 12:48:11 2022

Memory usage per processor = 960.195 Mbytes
    Step    Atoms         KinEng            CPU 
15843599      568     0.39633568              0 
16049360      561     0.28068012      2120.5013 
Loop time of 2120.51 on 40 procs for 205761 steps with 561 atoms, finish time Tue Nov 29 13:23:32 2022


Pair  time (%) = 0.410157 (0.0193424)
Neigh time (%) = 12.1469 (0.572827)
Comm  time (%) = 17.9956 (0.848645)
Outpt time (%) = 0.000257487 (1.21427e-05)
Other time (%) = 2089.96 (98.5592)

Nlocal:    14.025 ave 227 max 0 min
Histogram: 36 2 0 0 0 0 0 0 1 1
Nghost:    3.05 ave 34 max 0 min
Histogram: 35 1 0 0 0 0 1 1 0 2
Neighs:    0.675 ave 13 max 0 min
Histogram: 36 1 1 0 0 0 1 0 0 1

Total # of neighbors = 27
Ave neighs/atom = 0.0481283
Neighbor list builds = 14677
Dangerous builds = 108
Setting up run at Tue Nov 29 13:23:32 2022

Memory usage per processor = 960.195 Mbytes
    Step    Atoms         KinEng            CPU 
16049360      561     0.28068012              0 
16255121      555     0.24310647      2091.8662 
Loop time of 2091.87 on 40 procs for 205761 steps with 555 atoms, finish time Tue Nov 29 13:58:24 2022


Pair  time (%) = 0.41055 (0.019626)
Neigh time (%) = 10.5109 (0.502467)
Comm  time (%) = 14.5417 (0.695153)
Outpt time (%) = 0.000524225 (2.50602e-05)
Other time (%) = 2066.4 (98.7827)

Nlocal:    13.875 ave 223 max 0 min
Histogram: 36 2 0 0 0 0 0 0 1 1
Nghost:    3.325 ave 40 max 0 min
Histogram: 36 0 0 0 0 1 1 0 0 2
Neighs:    0.55 ave 11 max 0 min
Histogram: 37 1 0 0 0 0 1 0 0 1

Total # of neighbors = 22
Ave neighs/atom = 0.0396396
Neighbor list builds = 12679
Dangerous builds = 35
Setting up run at Tue Nov 29 13:58:24 2022

Memory usage per processor = 960.195 Mbytes
    Step    Atoms         KinEng            CPU 
16255121      555     0.24310647              0 
16460882      546     0.19825283      2096.3084 
Loop time of 2096.32 on 40 procs for 205761 steps with 546 atoms, finish time Tue Nov 29 14:33:20 2022


Pair  time (%) = 0.403057 (0.0192269)
Neigh time (%) = 10.5012 (0.500933)
Comm  time (%) = 17.7565 (0.847034)
Outpt time (%) = 0.00022251 (1.06143e-05)
Other time (%) = 2067.66 (98.6328)

Nlocal:    13.65 ave 219 max 0 min
Histogram: 36 2 0 0 0 0 0 0 1 1
Nghost:    3.275 ave 42 max 0 min
Histogram: 36 0 0 0 1 1 0 0 0 2
Neighs:    0.5 ave 10 max 0 min
Histogram: 36 2 0 0 0 0 0 0 1 1

Total # of neighbors = 20
Ave neighs/atom = 0.03663
Neighbor list builds = 12699
Dangerous builds = 8
Setting up run at Tue Nov 29 14:33:20 2022

Memory usage per processor = 960.195 Mbytes
    Step    Atoms         KinEng            CPU 
16460882      546     0.19825283              0 
16666643      543     0.26247924       2071.855 
Loop time of 2071.86 on 40 procs for 205761 steps with 543 atoms, finish time Tue Nov 29 15:07:52 2022


Pair  time (%) = 0.403669 (0.0194835)
Neigh time (%) = 8.46852 (0.408741)
Comm  time (%) = 10.8224 (0.522355)
Outpt time (%) = 0.000591863 (2.85668e-05)
Other time (%) = 2052.16 (99.0494)

Nlocal:    13.575 ave 222 max 0 min
Histogram: 36 2 0 0 0 0 0 1 0 1
Nghost:    3.65 ave 47 max 0 min
Histogram: 36 0 0 0 0 2 0 0 1 1
Neighs:    0.5 ave 11 max 0 min
Histogram: 38 0 0 0 0 1 0 0 0 1

Total # of neighbors = 20
Ave neighs/atom = 0.0368324
Neighbor list builds = 10240
Dangerous builds = 1
Setting up run at Tue Nov 29 15:07:52 2022

Memory usage per processor = 960.195 Mbytes
    Step    Atoms         KinEng            CPU 
16666643      543     0.26247924              0 
16872404      540     0.30870494      2076.3782 
Loop time of 2076.38 on 40 procs for 205761 steps with 540 atoms, finish time Tue Nov 29 15:42:28 2022


Pair  time (%) = 0.399358 (0.0192334)
Neigh time (%) = 7.89225 (0.380097)
Comm  time (%) = 11.6133 (0.559308)
Outpt time (%) = 0.000185165 (8.91769e-06)
Other time (%) = 2056.47 (99.0414)

Nlocal:    13.5 ave 216 max 0 min
Histogram: 35 3 0 0 0 0 0 0 1 1
Nghost:    3.05 ave 39 max 0 min
Histogram: 36 0 0 0 2 0 0 0 1 1
Neighs:    0.625 ave 14 max 0 min
Histogram: 38 0 0 0 0 1 0 0 0 1

Total # of neighbors = 25
Ave neighs/atom = 0.0462963
Neighbor list builds = 9545
Dangerous builds = 1
Setting up run at Tue Nov 29 15:42:28 2022

Memory usage per processor = 960.195 Mbytes
    Step    Atoms         KinEng            CPU 
16872404      540     0.30870494              0 
17078165      531     0.28281506      2075.5205 
Loop time of 2075.52 on 40 procs for 205761 steps with 531 atoms, finish time Tue Nov 29 16:17:04 2022


Pair  time (%) = 0.402478 (0.0193917)
Neigh time (%) = 8.60472 (0.414581)
Comm  time (%) = 14.9494 (0.720273)
Outpt time (%) = 0.000530909 (2.55796e-05)
Other time (%) = 2051.56 (98.8457)

Nlocal:    13.275 ave 213 max 0 min
Histogram: 36 2 0 0 0 0 0 0 1 1
Nghost:    3.15 ave 42 max 0 min
Histogram: 36 0 0 0 0 2 0 1 0 1
Neighs:    0.475 ave 9 max 0 min
Histogram: 36 1 1 0 0 0 0 1 0 1

Total # of neighbors = 19
Ave neighs/atom = 0.0357815
Neighbor list builds = 10413
Dangerous builds = 255
Setting up run at Tue Nov 29 16:17:04 2022

Memory usage per processor = 960.195 Mbytes
    Step    Atoms         KinEng            CPU 
17078165      531     0.28281506              0 
17283926      526     0.24029314      2094.5494 
Loop time of 2094.55 on 40 procs for 205761 steps with 526 atoms, finish time Tue Nov 29 16:51:59 2022


Pair  time (%) = 0.404862 (0.0193293)
Neigh time (%) = 10.6585 (0.50887)
Comm  time (%) = 15.8297 (0.755755)
Outpt time (%) = 0.00398545 (0.000190277)
Other time (%) = 2067.65 (98.7159)

Nlocal:    13.15 ave 215 max 0 min
Histogram: 36 2 0 0 0 0 0 1 0 1
Nghost:    3.225 ave 45 max 0 min
Histogram: 36 0 0 0 2 0 0 1 0 1
Neighs:    0.725 ave 16 max 0 min
Histogram: 37 1 0 0 0 1 0 0 0 1

Total # of neighbors = 29
Ave neighs/atom = 0.0551331
Neighbor list builds = 12866
Dangerous builds = 2
Setting up run at Tue Nov 29 16:51:59 2022

Memory usage per processor = 960.195 Mbytes
    Step    Atoms         KinEng            CPU 
17283926      526     0.24029314              0 
17489687      518     0.59686344      2060.3819 
Loop time of 2060.38 on 40 procs for 205761 steps with 518 atoms, finish time Tue Nov 29 17:26:19 2022


Pair  time (%) = 0.394325 (0.0191384)
Neigh time (%) = 6.53862 (0.31735)
Comm  time (%) = 10.3187 (0.500815)
Outpt time (%) = 0.000491616 (2.38604e-05)
Other time (%) = 2043.13 (99.1627)

Nlocal:    12.95 ave 205 max 0 min
Histogram: 36 2 0 0 0 0 0 0 1 1
Nghost:    2.85 ave 37 max 0 min
Histogram: 36 0 0 0 2 0 0 0 0 2
Neighs:    0.45 ave 12 max 0 min
Histogram: 38 0 0 1 0 0 0 0 0 1

Total # of neighbors = 18
Ave neighs/atom = 0.034749
Neighbor list builds = 7902
Dangerous builds = 57
Setting up run at Tue Nov 29 17:26:19 2022

Memory usage per processor = 960.195 Mbytes
    Step    Atoms         KinEng            CPU 
17489687      518     0.59686344              0 
17695448      514     0.38787257      2068.6174 
Loop time of 2068.62 on 40 procs for 205761 steps with 514 atoms, finish time Tue Nov 29 18:00:48 2022


Pair  time (%) = 0.396258 (0.0191557)
Neigh time (%) = 7.61449 (0.368096)
Comm  time (%) = 9.9146 (0.479286)
Outpt time (%) = 0.000288149 (1.39296e-05)
Other time (%) = 2050.69 (99.1334)

Nlocal:    12.85 ave 201 max 0 min
Histogram: 36 2 0 0 0 0 0 0 1 1
Nghost:    2.625 ave 32 max 0 min
Histogram: 36 0 0 0 0 2 0 0 0 2
Neighs:    0.425 ave 12 max 0 min
Histogram: 38 0 0 1 0 0 0 0 0 1

Total # of neighbors = 17
Ave neighs/atom = 0.0330739
Neighbor list builds = 9189
Dangerous builds = 309
Setting up run at Tue Nov 29 18:00:48 2022

Memory usage per processor = 960.195 Mbytes
    Step    Atoms         KinEng            CPU 
17695448      514     0.38787257              0 
17901209      505     0.37093538      2067.7682 
Loop time of 2067.77 on 40 procs for 205761 steps with 505 atoms, finish time Tue Nov 29 18:35:16 2022


Pair  time (%) = 0.401214 (0.0194032)
Neigh time (%) = 7.75632 (0.375106)
Comm  time (%) = 8.68113 (0.419831)
Outpt time (%) = 0.000468698 (2.26669e-05)
Other time (%) = 2050.93 (99.1856)

Nlocal:    12.625 ave 192 max 0 min
Histogram: 36 2 0 0 0 0 0 0 0 2
Nghost:    2.575 ave 32 max 0 min
Histogram: 36 0 0 0 1 1 0 0 0 2
Neighs:    0.4 ave 11 max 0 min
Histogram: 38 0 1 0 0 0 0 0 0 1

Total # of neighbors = 16
Ave neighs/atom = 0.0316832
Neighbor list builds = 9355
Dangerous builds = 236
Setting up run at Tue Nov 29 18:35:16 2022

Memory usage per processor = 960.195 Mbytes
    Step    Atoms         KinEng            CPU 
17901209      505     0.37093538              0 
18106970      496     0.45333866      2104.1643 
Loop time of 2104.18 on 40 procs for 205761 steps with 496 atoms, finish time Tue Nov 29 19:10:20 2022


Pair  time (%) = 0.407491 (0.0193658)
Neigh time (%) = 11.3546 (0.539622)
Comm  time (%) = 11.9753 (0.569119)
Outpt time (%) = 0.000253267 (1.20364e-05)
Other time (%) = 2080.44 (98.8719)

Nlocal:    12.4 ave 189 max 0 min
Histogram: 36 2 0 0 0 0 0 0 0 2
Nghost:    2.6 ave 31 max 0 min
Histogram: 36 0 0 0 0 1 1 0 0 2
Neighs:    0.35 ave 8 max 0 min
Histogram: 34 4 1 0 0 0 0 0 0 1

Total # of neighbors = 14
Ave neighs/atom = 0.0282258
Neighbor list builds = 13753
Dangerous builds = 1171
Setting up run at Tue Nov 29 19:10:20 2022

Memory usage per processor = 960.195 Mbytes
    Step    Atoms         KinEng            CPU 
18106970      496     0.45333866              0 
18312731      485     0.38451192      2071.1591 
Loop time of 2071.16 on 40 procs for 205761 steps with 485 atoms, finish time Tue Nov 29 19:44:51 2022


Pair  time (%) = 0.400252 (0.019325)
Neigh time (%) = 7.84039 (0.378551)
Comm  time (%) = 7.14431 (0.344943)
Outpt time (%) = 0.000551931 (2.66484e-05)
Other time (%) = 2055.77 (99.2572)

Nlocal:    12.125 ave 185 max 0 min
Histogram: 36 2 0 0 0 0 0 0 0 2
Nghost:    2.675 ave 33 max 0 min
Histogram: 36 0 0 0 0 2 0 0 0 2
Neighs:    0.275 ave 7 max 0 min
Histogram: 37 1 0 0 1 0 0 0 0 1

Total # of neighbors = 11
Ave neighs/atom = 0.0226804
Neighbor list builds = 9453
Dangerous builds = 121
Setting up run at Tue Nov 29 19:44:51 2022

Memory usage per processor = 960.195 Mbytes
    Step    Atoms         KinEng            CPU 
18312731      485     0.38451192              0 
18518492      483     0.39471834      2106.2091 
Loop time of 2106.21 on 40 procs for 205761 steps with 483 atoms, finish time Tue Nov 29 20:19:58 2022


Pair  time (%) = 0.4041 (0.0191861)
Neigh time (%) = 11.1366 (0.528752)
Comm  time (%) = 12.666 (0.601366)
Outpt time (%) = 0.000559737 (2.65756e-05)
Other time (%) = 2082 (98.8507)

Nlocal:    12.075 ave 184 max 0 min
Histogram: 36 1 1 0 0 0 0 0 0 2
Nghost:    2.575 ave 32 max 0 min
Histogram: 36 0 0 0 0 2 0 0 0 2
Neighs:    0.325 ave 6 max 0 min
Histogram: 36 2 0 0 0 0 0 0 1 1

Total # of neighbors = 13
Ave neighs/atom = 0.0269151
Neighbor list builds = 13438
Dangerous builds = 392
Setting up run at Tue Nov 29 20:19:58 2022

Memory usage per processor = 960.195 Mbytes
    Step    Atoms         KinEng            CPU 
18518492      483     0.39471834              0 
18724253      477     0.54845404      2081.4615 
Loop time of 2081.46 on 40 procs for 205761 steps with 477 atoms, finish time Tue Nov 29 20:54:39 2022


Pair  time (%) = 0.40121 (0.0192754)
Neigh time (%) = 9.09365 (0.436888)
Comm  time (%) = 12.8139 (0.61562)
[...]
Neighs:    0.2 ave 5 max 0 min
Histogram: 38 0 0 0 0 0 1 0 0 1

Total # of neighbors = 8
Ave neighs/atom = 0.0344828
Neighbor list builds = 8819
Dangerous builds = 0
Setting up run at Thu Dec  1 23:14:30 2022

Memory usage per processor = 960.195 Mbytes
    Step    Atoms         KinEng            CPU 
36419729      232     0.14200232              0 
36625490      232     0.13846079      2060.5729 
Loop time of 2060.57 on 40 procs for 205761 steps with 232 atoms, finish time Thu Dec  1 23:48:51 2022


Pair  time (%) = 0.37511 (0.0182042)
Neigh time (%) = 6.8662 (0.333218)
Comm  time (%) = 8.57059 (0.415932)
Outpt time (%) = 0.000240846 (1.16883e-05)
Other time (%) = 2044.76 (99.2326)

Nlocal:    5.8 ave 107 max 0 min
Histogram: 38 0 0 0 0 0 0 1 0 1
Nghost:    0.875 ave 12 max 0 min
Histogram: 35 1 2 0 0 0 0 0 0 2
Neighs:    0.25 ave 7 max 0 min
Histogram: 38 0 0 0 1 0 0 0 0 1

Total # of neighbors = 10
Ave neighs/atom = 0.0431034
Neighbor list builds = 8261
Dangerous builds = 0
Setting up run at Thu Dec  1 23:48:51 2022

Memory usage per processor = 960.195 Mbytes
    Step    Atoms         KinEng            CPU 
36625490      232     0.13846079              0 
36831251      231     0.14576067      2047.3677 
Loop time of 2047.37 on 40 procs for 205761 steps with 231 atoms, finish time Fri Dec  2 00:22:59 2022


Pair  time (%) = 0.378146 (0.0184698)
Neigh time (%) = 6.82945 (0.333572)
Comm  time (%) = 6.84959 (0.334556)
Outpt time (%) = 0.000491664 (2.40145e-05)
Other time (%) = 2033.31 (99.3134)

Nlocal:    5.775 ave 106 max 0 min
Histogram: 38 0 0 0 0 0 0 1 0 1
Nghost:    0.925 ave 13 max 0 min
Histogram: 36 0 1 1 0 0 0 0 1 1
Neighs:    0.175 ave 5 max 0 min
Histogram: 38 0 0 0 1 0 0 0 0 1

Total # of neighbors = 7
Ave neighs/atom = 0.030303
Neighbor list builds = 8216
Dangerous builds = 1
Setting up run at Fri Dec  2 00:22:59 2022

Memory usage per processor = 960.195 Mbytes
    Step    Atoms         KinEng            CPU 
36831251      231     0.14576067              0 
37037012      231     0.14534741      2057.1361 
Loop time of 2057.14 on 40 procs for 205761 steps with 231 atoms, finish time Fri Dec  2 00:57:16 2022


Pair  time (%) = 0.379055 (0.0184264)
Neigh time (%) = 7.13138 (0.346666)
Comm  time (%) = 4.12721 (0.200629)
Outpt time (%) = 0.000248675 (1.20884e-05)
Other time (%) = 2045.5 (99.4343)

Nlocal:    5.775 ave 107 max 0 min
Histogram: 38 0 0 0 0 0 0 1 0 1
Nghost:    0.85 ave 13 max 0 min
Histogram: 36 0 1 1 0 0 0 1 0 1
Neighs:    0.275 ave 8 max 0 min
Histogram: 38 0 0 1 0 0 0 0 0 1

Total # of neighbors = 11
Ave neighs/atom = 0.047619
Neighbor list builds = 8572
Dangerous builds = 0
Setting up run at Fri Dec  2 00:57:16 2022

Memory usage per processor = 960.195 Mbytes
    Step    Atoms         KinEng            CPU 
37037012      231     0.14534741              0 
37242773      230     0.21504124      2064.1107 
Loop time of 2064.11 on 40 procs for 205761 steps with 230 atoms, finish time Fri Dec  2 01:31:40 2022


Pair  time (%) = 0.380219 (0.0184205)
Neigh time (%) = 7.76428 (0.376156)
Comm  time (%) = 5.49085 (0.266015)
Outpt time (%) = 0.000465361 (2.25454e-05)
Other time (%) = 2050.48 (99.3394)

Nlocal:    5.75 ave 107 max 0 min
Histogram: 38 0 0 0 0 0 0 1 0 1
Nghost:    0.85 ave 11 max 0 min
Histogram: 36 0 0 0 1 1 0 1 0 1
Neighs:    0.275 ave 10 max 0 min
Histogram: 38 1 0 0 0 0 0 0 0 1

Total # of neighbors = 11
Ave neighs/atom = 0.0478261
Neighbor list builds = 9340
Dangerous builds = 1
Setting up run at Fri Dec  2 01:31:40 2022

Memory usage per processor = 960.195 Mbytes
    Step    Atoms         KinEng            CPU 
37242773      230     0.21504124              0 
37448534      228     0.20466456      2063.6761 
Loop time of 2063.68 on 40 procs for 205761 steps with 228 atoms, finish time Fri Dec  2 02:06:04 2022


Pair  time (%) = 0.381838 (0.0185028)
Neigh time (%) = 7.85072 (0.380424)
Comm  time (%) = 5.91364 (0.286559)
Outpt time (%) = 0.000177125 (8.58298e-06)
Other time (%) = 2049.53 (99.3145)

Nlocal:    5.7 ave 107 max 0 min
Histogram: 38 0 0 0 0 0 0 1 0 1
Nghost:    0.775 ave 11 max 0 min
Histogram: 36 0 1 0 1 0 0 0 1 1
Neighs:    0.225 ave 8 max 0 min
Histogram: 38 1 0 0 0 0 0 0 0 1

Total # of neighbors = 9
Ave neighs/atom = 0.0394737
Neighbor list builds = 9442
Dangerous builds = 133
Setting up run at Fri Dec  2 02:06:04 2022

Memory usage per processor = 960.195 Mbytes
    Step    Atoms         KinEng            CPU 
37448534      228     0.20466456              0 
37654295      228     0.28186363      2095.6367 
Loop time of 2095.64 on 40 procs for 205761 steps with 228 atoms, finish time Fri Dec  2 02:40:59 2022


Pair  time (%) = 0.388013 (0.0185153)
Neigh time (%) = 10.4422 (0.498281)
Comm  time (%) = 6.58878 (0.314405)
Outpt time (%) = 0.000512643 (2.44624e-05)
Other time (%) = 2078.22 (99.1688)

Nlocal:    5.7 ave 107 max 0 min
Histogram: 38 0 0 0 0 0 0 1 0 1
Nghost:    0.9 ave 12 max 0 min
Histogram: 35 2 0 0 0 1 0 0 0 2
Neighs:    0.225 ave 7 max 0 min
Histogram: 38 0 1 0 0 0 0 0 0 1

Total # of neighbors = 9
Ave neighs/atom = 0.0394737
Neighbor list builds = 12564
Dangerous builds = 0
Setting up run at Fri Dec  2 02:40:59 2022

Memory usage per processor = 960.195 Mbytes
    Step    Atoms         KinEng            CPU 
37654295      228     0.28186363              0 
37860056      227     0.22560401      2068.2475 
Loop time of 2068.25 on 40 procs for 205761 steps with 227 atoms, finish time Fri Dec  2 03:15:28 2022


Pair  time (%) = 0.381819 (0.018461)
Neigh time (%) = 8.78198 (0.42461)
Comm  time (%) = 6.06445 (0.293217)
Outpt time (%) = 0.000245934 (1.1891e-05)
Other time (%) = 2053.02 (99.2637)

Nlocal:    5.675 ave 107 max 0 min
Histogram: 38 0 0 0 0 0 0 1 0 1
Nghost:    0.875 ave 12 max 0 min
Histogram: 35 1 1 1 0 0 0 0 1 1
Neighs:    0.225 ave 6 max 0 min
Histogram: 38 0 0 0 0 1 0 0 0 1

Total # of neighbors = 9
Ave neighs/atom = 0.0396476
Neighbor list builds = 10562
Dangerous builds = 1
Setting up run at Fri Dec  2 03:15:28 2022

Memory usage per processor = 960.195 Mbytes
    Step    Atoms         KinEng            CPU 
37860056      227     0.22560401              0 
38065817      225     0.21907927      2067.7737 
Loop time of 2067.77 on 40 procs for 205761 steps with 225 atoms, finish time Fri Dec  2 03:49:56 2022


Pair  time (%) = 0.379408 (0.0183486)
Neigh time (%) = 7.92582 (0.383302)
Comm  time (%) = 6.17229 (0.298499)
Outpt time (%) = 0.000518651 (2.50826e-05)
Other time (%) = 2053.3 (99.2998)

Nlocal:    5.625 ave 110 max 0 min
Histogram: 38 0 0 0 0 0 1 0 0 1
Nghost:    0.85 ave 13 max 0 min
Histogram: 35 1 1 0 1 1 0 0 0 1
Neighs:    0.125 ave 5 max 0 min
Histogram: 39 0 0 0 0 0 0 0 0 1

Total # of neighbors = 5
Ave neighs/atom = 0.0222222
Neighbor list builds = 9536
Dangerous builds = 0
Setting up run at Fri Dec  2 03:49:56 2022

Memory usage per processor = 960.195 Mbytes
    Step    Atoms         KinEng            CPU 
38065817      225     0.21907927              0 
38271578      222     0.17276445      2064.2945 
Loop time of 2064.29 on 40 procs for 205761 steps with 222 atoms, finish time Fri Dec  2 04:24:20 2022


Pair  time (%) = 0.38015 (0.0184155)
Neigh time (%) = 7.61079 (0.368687)
Comm  time (%) = 5.49576 (0.266229)
Outpt time (%) = 0.000218224 (1.05713e-05)
Other time (%) = 2050.81 (99.3467)

Nlocal:    5.55 ave 108 max 0 min
Histogram: 38 0 0 0 0 0 0 1 0 1
Nghost:    0.875 ave 10 max 0 min
Histogram: 31 4 1 0 1 0 0 1 1 1
Neighs:    0.2 ave 8 max 0 min
Histogram: 39 0 0 0 0 0 0 0 0 1

Total # of neighbors = 8
Ave neighs/atom = 0.036036
Neighbor list builds = 9157
Dangerous builds = 0
Setting up run at Fri Dec  2 04:24:20 2022

Memory usage per processor = 960.195 Mbytes
    Step    Atoms         KinEng            CPU 
38271578      222     0.17276445              0 
38477339      221     0.18606907      2067.3544 
Loop time of 2067.35 on 40 procs for 205761 steps with 221 atoms, finish time Fri Dec  2 04:58:47 2022


Pair  time (%) = 0.378709 (0.0183185)
Neigh time (%) = 7.95364 (0.384726)
Comm  time (%) = 6.12319 (0.296185)
Outpt time (%) = 0.000545209 (2.63723e-05)
Other time (%) = 2052.9 (99.3007)

Nlocal:    5.525 ave 108 max 0 min
Histogram: 37 1 0 0 0 0 0 1 0 1
Nghost:    0.85 ave 10 max 0 min
Histogram: 32 3 1 0 1 0 0 1 1 1
Neighs:    0.2 ave 7 max 0 min
Histogram: 38 1 0 0 0 0 0 0 0 1

Total # of neighbors = 8
Ave neighs/atom = 0.0361991
Neighbor list builds = 9572
Dangerous builds = 1
Setting up run at Fri Dec  2 04:58:47 2022

Memory usage per processor = 960.195 Mbytes
    Step    Atoms         KinEng            CPU 
38477339      221     0.18606907              0 
38683100      217     0.14111641      2076.0097 
Loop time of 2076.01 on 40 procs for 205761 steps with 217 atoms, finish time Fri Dec  2 05:33:23 2022


Pair  time (%) = 0.378297 (0.0182223)
Neigh time (%) = 8.19374 (0.394687)
Comm  time (%) = 7.10741 (0.342359)
Outpt time (%) = 9.78767e-05 (4.71466e-06)
Other time (%) = 2060.33 (99.2447)

Nlocal:    5.425 ave 108 max 0 min
Histogram: 38 0 0 0 0 0 0 1 0 1
Nghost:    0.75 ave 9 max 0 min
Histogram: 32 3 1 1 0 0 1 1 0 1
Neighs:    0.2 ave 8 max 0 min
Histogram: 39 0 0 0 0 0 0 0 0 1

Total # of neighbors = 8
Ave neighs/atom = 0.0368664
Neighbor list builds = 9884
Dangerous builds = 492
Setting up run at Fri Dec  2 05:33:23 2022

Memory usage per processor = 960.195 Mbytes
    Step    Atoms         KinEng            CPU 
38683100      217     0.14111641              0 
38888861      215     0.18651326      2065.2617 
Loop time of 2065.26 on 40 procs for 205761 steps with 215 atoms, finish time Fri Dec  2 06:07:49 2022


Pair  time (%) = 0.376514 (0.0182308)
Neigh time (%) = 7.7379 (0.374669)
Comm  time (%) = 7.11688 (0.3446)
Outpt time (%) = 0.0210916 (0.00102125)
Other time (%) = 2050.01 (99.2615)

Nlocal:    5.375 ave 106 max 0 min
Histogram: 38 0 0 0 0 0 0 1 0 1
Nghost:    0.825 ave 8 max 0 min
Histogram: 30 5 1 0 0 1 0 0 2 1
Neighs:    0.2 ave 8 max 0 min
Histogram: 39 0 0 0 0 0 0 0 0 1

Total # of neighbors = 8
Ave neighs/atom = 0.0372093
Neighbor list builds = 9316
Dangerous builds = 1
Setting up run at Fri Dec  2 06:07:49 2022

Memory usage per processor = 960.195 Mbytes
    Step    Atoms         KinEng            CPU 
38888861      215     0.18651326              0 
39094622      213     0.15837769      2065.0079 
Loop time of 2065.01 on 40 procs for 205761 steps with 213 atoms, finish time Fri Dec  2 06:42:14 2022


Pair  time (%) = 0.377743 (0.0182926)
Neigh time (%) = 8.48853 (0.411065)
Comm  time (%) = 10.5078 (0.508848)
Outpt time (%) = 0.000220713 (1.06882e-05)
Other time (%) = 2045.63 (99.0618)

Nlocal:    5.325 ave 105 max 0 min
Histogram: 38 0 0 0 0 0 0 1 0 1
Nghost:    0.775 ave 7 max 0 min
Histogram: 32 3 0 0 0 2 0 0 1 2
Neighs:    0.15 ave 6 max 0 min
Histogram: 39 0 0 0 0 0 0 0 0 1

Total # of neighbors = 6
Ave neighs/atom = 0.028169
Neighbor list builds = 10229
Dangerous builds = 1
Setting up run at Fri Dec  2 06:42:14 2022

Memory usage per processor = 960.195 Mbytes
    Step    Atoms         KinEng            CPU 
39094622      213     0.15837769              0 
39300383      213     0.15127456       2062.099 
Loop time of 2062.11 on 40 procs for 205761 steps with 213 atoms, finish time Fri Dec  2 07:16:36 2022


Pair  time (%) = 0.374499 (0.018161)
Neigh time (%) = 7.69238 (0.373035)
Comm  time (%) = 9.75991 (0.473298)
Outpt time (%) = 0.000549811 (2.66626e-05)
Other time (%) = 2044.28 (99.1355)

Nlocal:    5.325 ave 104 max 0 min
Histogram: 38 0 0 0 0 0 0 1 0 1
Nghost:    0.85 ave 8 max 0 min
Histogram: 31 3 0 1 0 2 0 2 0 1
Neighs:    0.15 ave 6 max 0 min
Histogram: 39 0 0 0 0 0 0 0 0 1

Total # of neighbors = 6
Ave neighs/atom = 0.028169
Neighbor list builds = 9263
Dangerous builds = 0
Setting up run at Fri Dec  2 07:16:36 2022

Memory usage per processor = 960.195 Mbytes
    Step    Atoms         KinEng            CPU 
39300383      213     0.15127456              0 
39506144      212     0.17496877       2070.549 
Loop time of 2070.55 on 40 procs for 205761 steps with 212 atoms, finish time Fri Dec  2 07:51:07 2022


Pair  time (%) = 0.376283 (0.0181731)
Neigh time (%) = 7.80662 (0.377031)
Comm  time (%) = 10.1475 (0.490089)
Outpt time (%) = 0.000279174 (1.34831e-05)
Other time (%) = 2052.22 (99.1147)

Nlocal:    5.3 ave 104 max 0 min
Histogram: 38 0 0 0 0 0 0 1 0 1
Nghost:    0.8 ave 8 max 0 min
Histogram: 31 3 1 1 0 1 1 0 1 1
Neighs:    0.2 ave 6 max 0 min
Histogram: 38 0 0 1 0 0 0 0 0 1

Total # of neighbors = 8
Ave neighs/atom = 0.0377358
Neighbor list builds = 9395
Dangerous builds = 1
Setting up run at Fri Dec  2 07:51:07 2022

Memory usage per processor = 960.195 Mbytes
    Step    Atoms         KinEng            CPU 
39506144      212     0.17496877              0 
39711905      210     0.16870799       2053.038 
Loop time of 2053.04 on 40 procs for 205761 steps with 210 atoms, finish time Fri Dec  2 08:25:20 2022


Pair  time (%) = 0.372831 (0.01816)
Neigh time (%) = 6.79811 (0.331125)
Comm  time (%) = 9.75866 (0.475328)
Outpt time (%) = 0.000526829 (2.5661e-05)
Other time (%) = 2036.11 (99.1754)

Nlocal:    5.25 ave 103 max 0 min
Histogram: 38 0 0 0 0 0 1 0 0 1
Nghost:    0.85 ave 10 max 0 min
Histogram: 31 3 1 1 1 1 0 1 0 1
Neighs:    0.2 ave 6 max 0 min
Histogram: 38 0 0 1 0 0 0 0 0 1

Total # of neighbors = 8
Ave neighs/atom = 0.0380952
Neighbor list builds = 8186
Dangerous builds = 0
Setting up run at Fri Dec  2 08:25:20 2022

Memory usage per processor = 960.195 Mbytes
    Step    Atoms         KinEng            CPU 
39711905      210     0.16870799              0 
39917666      209     0.13609893      2061.5807 
Loop time of 2061.58 on 40 procs for 205761 steps with 209 atoms, finish time Fri Dec  2 08:59:42 2022


Pair  time (%) = 0.376458 (0.0182606)
Neigh time (%) = 6.80273 (0.329977)
Comm  time (%) = 8.18279 (0.396918)
Outpt time (%) = 0.000501333 (2.43179e-05)
Other time (%) = 2046.22 (99.2548)

Nlocal:    5.225 ave 102 max 0 min
Histogram: 38 0 0 0 0 0 0 1 0 1
Nghost:    0.825 ave 9 max 0 min
Histogram: 31 4 1 0 1 0 1 0 1 1
Neighs:    0.225 ave 7 max 0 min
Histogram: 38 0 1 0 0 0 0 0 0 1

Total # of neighbors = 9
Ave neighs/atom = 0.0430622
Neighbor list builds = 8204
Dangerous builds = 294
Setting up run at Fri Dec  2 08:59:42 2022

Memory usage per processor = 960.195 Mbytes
    Step    Atoms         KinEng            CPU 
39917666      209     0.13609893              0 
40123427      207     0.10444981      2152.3775 
Loop time of 2152.38 on 40 procs for 205761 steps with 207 atoms, finish time Fri Dec  2 09:35:34 2022


Pair  time (%) = 0.377099 (0.0175201)
Neigh time (%) = 7.97154 (0.37036)
Comm  time (%) = 8.73235 (0.405707)
Outpt time (%) = 0.00994648 (0.000462116)
Other time (%) = 2135.29 (99.206)

Nlocal:    5.175 ave 102 max 0 min
Histogram: 38 0 0 0 0 0 0 1 0 1
Nghost:    0.875 ave 9 max 0 min
Histogram: 30 5 1 0 0 2 0 0 0 2
Neighs:    0.2 ave 6 max 0 min
Histogram: 38 0 0 1 0 0 0 0 0 1

Total # of neighbors = 8
Ave neighs/atom = 0.0386473
Neighbor list builds = 9600
Dangerous builds = 0
Setting up run at Fri Dec  2 09:35:34 2022

Memory usage per processor = 960.195 Mbytes
    Step    Atoms         KinEng            CPU 
40123427      207     0.10444981              0 
40329188      206     0.10933147      2086.9444 
Loop time of 2086.94 on 40 procs for 205761 steps with 206 atoms, finish time Fri Dec  2 10:10:21 2022


Pair  time (%) = 0.373699 (0.0179065)
Neigh time (%) = 7.1453 (0.342381)
Comm  time (%) = 8.52796 (0.408634)
Outpt time (%) = 0.000524578 (2.51362e-05)
Other time (%) = 2070.9 (99.2311)

Nlocal:    5.15 ave 104 max 0 min
Histogram: 38 0 0 0 0 0 1 0 0 1
Nghost:    0.95 ave 13 max 0 min
Histogram: 35 1 0 1 1 0 1 0 0 1
Neighs:    0.2 ave 6 max 0 min
Histogram: 38 0 0 1 0 0 0 0 0 1

Total # of neighbors = 8
Ave neighs/atom = 0.038835
Neighbor list builds = 8607
Dangerous builds = 0
Setting up run at Fri Dec  2 10:10:21 2022

Memory usage per processor = 960.195 Mbytes
    Step    Atoms         KinEng            CPU 
40329188      206     0.10933147              0 
40534949      206     0.15597807      2171.7781 
Loop time of 2171.78 on 40 procs for 205761 steps with 206 atoms, finish time Fri Dec  2 10:46:33 2022


Pair  time (%) = 0.373702 (0.0172072)
Neigh time (%) = 7.77736 (0.35811)
Comm  time (%) = 9.81353 (0.451866)
Outpt time (%) = 0.000238213 (1.09686e-05)
Other time (%) = 2153.81 (99.1728)

Nlocal:    5.15 ave 104 max 0 min
Histogram: 38 0 0 0 0 0 1 0 0 1
Nghost:    1 ave 15 max 0 min
Histogram: 36 0 0 1 1 0 1 0 0 1
Neighs:    0.2 ave 6 max 0 min
Histogram: 38 0 0 1 0 0 0 0 0 1

Total # of neighbors = 8
Ave neighs/atom = 0.038835
Neighbor list builds = 9372
Dangerous builds = 0
Setting up run at Fri Dec  2 10:46:33 2022

Memory usage per processor = 960.195 Mbytes
    Step    Atoms         KinEng            CPU 
40534949      206     0.15597807              0 
40740710      205      0.1344323      2059.2101 
Loop time of 2059.21 on 40 procs for 205761 steps with 205 atoms, finish time Fri Dec  2 11:20:52 2022


Pair  time (%) = 0.376114 (0.0182649)
Neigh time (%) = 7.41806 (0.360238)
Comm  time (%) = 9.24315 (0.448868)
Outpt time (%) = 0.000478026 (2.3214e-05)
Other time (%) = 2042.17 (99.1726)

Nlocal:    5.125 ave 104 max 0 min
Histogram: 38 0 0 0 0 0 1 0 0 1
Nghost:    1 ave 18 max 0 min
Histogram: 36 0 1 1 1 0 0 0 0 1
Neighs:    0.25 ave 7 max 0 min
Histogram: 38 0 0 0 1 0 0 0 0 1

Total # of neighbors = 10
Ave neighs/atom = 0.0487805
Neighbor list builds = 8937
Dangerous builds = 0
Setting up run at Fri Dec  2 11:20:52 2022

Memory usage per processor = 960.195 Mbytes
    Step    Atoms         KinEng            CPU 
40740710      205      0.1344323              0 
40946471      203     0.13196644      2074.5484 
Loop time of 2074.55 on 40 procs for 205761 steps with 203 atoms, finish time Fri Dec  2 11:55:27 2022


Pair  time (%) = 0.374616 (0.0180577)
Neigh time (%) = 7.72953 (0.372589)
Comm  time (%) = 7.95713 (0.38356)
Outpt time (%) = 0.000240141 (1.15756e-05)
Other time (%) = 2058.49 (99.2258)

Nlocal:    5.075 ave 105 max 0 min
Histogram: 38 0 0 0 0 0 1 0 0 1
Nghost:    0.95 ave 19 max 0 min
Histogram: 36 0 2 1 0 0 0 0 0 1
Neighs:    0.175 ave 6 max 0 min
Histogram: 38 1 0 0 0 0 0 0 0 1

Total # of neighbors = 7
Ave neighs/atom = 0.0344828
Neighbor list builds = 9314
Dangerous builds = 42
Setting up run at Fri Dec  2 11:55:27 2022

Memory usage per processor = 960.195 Mbytes
    Step    Atoms         KinEng            CPU 
40946471      203     0.13196644              0 
41152232      200     0.20164968      2071.1665 
Loop time of 2071.17 on 40 procs for 205761 steps with 200 atoms, finish time Fri Dec  2 12:29:58 2022


Pair  time (%) = 0.374297 (0.0180718)
Neigh time (%) = 7.8053 (0.376855)
Comm  time (%) = 6.42428 (0.310177)
Outpt time (%) = 0.000485538 (2.34427e-05)
Other time (%) = 2056.56 (99.2949)

Nlocal:    5 ave 102 max 0 min
Histogram: 38 0 0 0 0 0 1 0 0 1
Nghost:    0.925 ave 18 max 0 min
Histogram: 36 0 2 0 1 0 0 0 0 1
Neighs:    0.175 ave 7 max 0 min
Histogram: 39 0 0 0 0 0 0 0 0 1

Total # of neighbors = 7
Ave neighs/atom = 0.035
Neighbor list builds = 9410
Dangerous builds = 0
Setting up run at Fri Dec  2 12:29:58 2022

Memory usage per processor = 960.195 Mbytes
    Step    Atoms         KinEng            CPU 
41152232      200     0.20164968              0 
41152262      200      0.2016443     0.31967205 
Loop time of 0.319686 on 40 procs for 30 steps with 200 atoms, finish time Fri Dec  2 12:29:59 2022


Pair  time (%) = 5.25248e-05 (0.0164301)
Neigh time (%) = 0.000817264 (0.255646)
Comm  time (%) = 0.000574338 (0.179657)
Outpt time (%) = 0.000186995 (0.0584934)
Other time (%) = 0.318054 (99.4898)

Nlocal:    5 ave 102 max 0 min
Histogram: 38 0 0 0 0 0 1 0 0 1
Nghost:    0.925 ave 18 max 0 min
Histogram: 36 0 2 0 1 0 0 0 0 1
Neighs:    0.175 ave 7 max 0 min
Histogram: 39 0 0 0 0 0 0 0 0 1

Total # of neighbors = 7
Ave neighs/atom = 0.035
Neighbor list builds = 1
Dangerous builds = 0
