ITEM: TIMESTEP
27988563
ITEM: NUMBER OF ATOMS
1184
ITEM: BOX BOUNDS ff ff ff
-0.15 0.15
-0.15 0.15
-0.15 0.15
ITEM: ATOMS id type x y z radius vx vy vz density 
966 1 -0.00654982 -0.0410289 -0.0686025 6.3e-05 -10.6518 -0.194997 1.02383 2650 
989 1 -0.00669019 -0.0320859 -0.0684988 0.000175 -10.5725 0.308279 1.02905 2650 
601 1 -0.00274646 -0.0298475 -0.0687703 0.000175 -10.7919 0.12341 0.430929 2650 
1027 1 -0.00172507 -0.0265913 -0.0688022 0.000175 -10.8672 0.223763 0.271818 2650 
1286 1 -0.00673585 -0.0253334 -0.0684946 0.000175 -10.4337 -0.235039 1.02691 2650 
604 1 -0.00300386 -6.29979e-05 -0.0688708 6.3e-05 -9.21143 -0.000291755 0.404819 2650 
1213 1 -0.00629526 -0.0456003 -0.0680563 0.000635 -11.0111 0.129581 1.01098 2650 
959 1 -0.0105078 -0.0439039 -0.0680076 0.000175 -11.3241 0.594413 1.73734 2650 
178 1 -0.0099492 -0.0404878 -0.0676337 0.000635 -10.7041 -0.0521737 1.5728 2650 
514 1 -0.00766692 -0.0402047 -0.067921 0.000635 -10.5892 -0.284004 1.1931 2650 
983 1 -0.00125093 -0.0350921 -0.0683487 0.000635 -10.6072 -0.0709962 0.1941 2650 
781 1 -0.00619737 -0.0343206 -0.0680846 0.000635 -10.6749 -0.0353547 0.971883 2650 
643 1 -0.00362206 -0.0328204 -0.0682688 0.000635 -10.8115 -0.0157674 0.57337 2650 
684 1 -0.0021847 -0.0330818 -0.0683325 0.000635 -10.7478 -0.0421659 0.343611 2650 
622 1 -0.00285358 -0.0317923 -0.0683082 0.000635 -10.808 -0.0275097 0.451458 2650 
881 1 -0.00108637 -0.0315755 -0.0683586 0.000635 -10.723 -0.0316137 0.170395 2650 
585 1 -0.00200561 -0.0306738 -0.068338 0.000635 -10.7236 -0.0305031 0.314754 2650 
617 1 -0.000781739 -0.0301539 -0.0683634 0.000635 -10.7583 -0.0191383 0.122671 2650 
1041 1 -0.000979148 -0.027605 -0.0683605 0.000635 -10.8117 -0.0588801 0.155025 2650 
599 1 -0.0113836 -0.0235197 -0.0678781 0.000175 -9.28484 -0.559411 1.5526 2650 
317 1 -0.0092968 -0.0235801 -0.0677324 0.000635 -9.14287 0.0543087 1.25443 2650 
1228 1 -0.00917625 -0.0172871 -0.0682134 0.000175 -9.30801 -0.0121367 1.24793 2650 
1131 1 -0.014066 -6.29986e-05 -0.0674858 6.3e-05 -9.19089 -3.12941e-06 1.91518 2650 
839 1 -0.0152271 -0.047223 -0.0663005 0.000984 -10.4155 0.0180027 2.39213 2650 
647 1 -0.0150481 -0.0426812 -0.0666911 0.000635 -10.623 0.0557409 2.39644 2650 
990 1 -0.019305 -0.0242395 -0.0660627 0.000175 -9.71161 -0.296591 2.83608 2650 
531 1 -0.0170972 -0.0186122 -0.0666718 0.000175 -9.23903 -0.0520887 2.37106 2650 
1017 1 -0.0156453 -0.00304654 -0.0665523 0.000635 -9.16237 0.00452008 2.12601 2650 
247 1 -0.0205755 -0.0458876 -0.0652022 0.000635 -10.2163 -0.0568766 3.22398 2650 
1036 1 -0.0171168 -0.0433904 -0.0658368 0.000984 -10.5421 -0.166528 2.74112 2650 
254 1 -0.0212005 -0.0422633 -0.0650011 0.000635 -10.3269 -0.0113956 3.3715 2650 
757 1 -0.0220554 -0.00250952 -0.0651941 0.000175 -8.99781 0.0380315 3.0443 2650 
269 1 -0.0210389 -0.00184138 -0.065647 6.3e-05 -8.69311 0.0564604 2.78255 2650 
1024 1 -0.0250087 -0.0374338 -0.0641209 0.000175 -9.9564 0.0144791 3.88378 2650 
338 1 -0.0245627 -6.30403e-05 -0.0644126 6.3e-05 -8.6295 -0.000359495 3.2903 2650 
502 1 -0.0242363 -0.000175 -0.064416 0.000175 -8.62187 6.22599e-05 3.24542 2650 
536 1 -0.0264983 -0.0337626 -0.0635188 0.000175 -9.47971 0.135687 3.95418 2650 
465 1 -0.0290475 -0.0295888 -0.0623945 0.000175 -9.15034 -0.00443914 4.25733 2650 
503 1 -0.0274824 -0.0188874 -0.0631015 0.000175 -8.3706 0.352116 3.64473 2650 
865 1 -0.0269696 -0.0120276 -0.0633226 0.000175 -8.77007 0.0784766 3.72847 2650 
646 1 -0.027439 -0.00624522 -0.0626194 0.000635 -8.8843 -0.0381498 3.92277 2650 
1117 1 -0.0270549 -0.000174982 -0.063284 0.000175 -8.42564 0.00214439 3.60409 2650 
249 1 -0.0304994 -0.0193285 -0.0611872 0.000635 -8.4984 -0.77152 4.22713 2650 
368 1 -0.0299614 -0.00581678 -0.0619611 0.000175 -6.90844 0.187759 3.34425 2650 
374 1 -0.0316902 -6.29983e-05 -0.0612204 6.3e-05 -8.16415 -1.40348e-08 4.22278 2650 
709 1 -0.0310241 -0.0124371 -0.0609224 0.000635 -8.32759 0.0150325 4.24991 2650 
843 1 -0.0341738 -0.0310787 -0.059314 0.000635 -9.31702 4.64711e-06 5.368 2650 
273 1 -0.0361716 -0.030654 -0.0576059 0.000984 -9.11266 0.00817683 5.72008 2650 
1076 1 -0.0355935 -0.0276706 -0.0583589 0.000635 -8.90193 -0.556584 5.43025 2650 
128 1 -0.0359645 -0.0206417 -0.0586107 0.000175 -8.39892 -0.00476675 5.12417 2650 
272 1 -0.0219088 -0.00861689 -0.0583369 6.3e-05 -6.11513 -1.31527 3.77748 2650 
18 1 -0.0361347 -0.000373918 -0.0585751 0.000175 -7.56311 -0.0359368 4.65366 2650 
22 1 -0.0383317 -0.0328274 -0.0571588 0.000175 -8.99839 0.158384 6.03507 2650 
409 1 -0.0378093 -0.0312986 -0.056544 0.000984 -8.87183 0.00882641 5.93236 2650 
1154 1 -0.0392435 -0.029845 -0.0565403 0.000175 -9.00546 -0.175923 6.24917 2650 
202 1 -0.0384056 -0.0232881 -0.0571857 6.3e-05 -8.65905 -0.174109 5.82042 2650 
1077 1 -0.0398102 -0.0407656 -0.0555726 0.000635 -8.63957 -0.0546969 6.18658 2650 
82 1 -0.0396541 -0.039511 -0.0556922 0.000635 -8.74463 -0.0377896 6.22633 2650 
1206 1 -0.039525 -0.030096 -0.0557836 0.000635 -8.75898 -0.0105847 6.20614 2650 
628 1 -0.0407976 -0.0293362 -0.055428 0.000175 -8.72753 0.0569207 6.42451 2650 
1053 1 -0.0405693 -0.0281408 -0.0555929 0.000175 -8.90535 -0.501039 6.49675 2650 
1130 1 -0.0409468 -0.00591648 -0.0553082 0.000175 -7.2536 0.0494431 5.36296 2650 
627 1 -0.0421872 -0.0382915 -0.0543776 0.000175 -8.51168 -0.00978436 6.60451 2650 
813 1 -0.0418101 -0.0375529 -0.0540933 0.000635 -8.5014 -0.000324035 6.56095 2650 
176 1 -0.0410981 -0.033364 -0.0546322 0.000635 -8.56945 0.0327011 6.44647 2650 
681 1 -0.040889 -0.0312574 -0.0547934 0.000635 -8.55916 -0.0403735 6.38752 2650 
267 1 -0.0422964 -0.0293589 -0.0542906 0.000175 -8.14964 0.0838448 6.34858 2650 
567 1 -0.0420548 -0.000174995 -0.0544819 0.000175 -7.1235 -0.000348245 5.4957 2650 
199 1 -0.0415545 -0.000174979 -0.0548644 0.000175 -7.16792 0.000179015 5.43005 2650 
3 1 -0.0419419 -0.0390727 -0.0535505 0.000984 -8.41314 0.000878063 6.58935 2650 
870 1 -0.0429551 -0.0372876 -0.0527407 0.000984 -8.29976 -0.0111338 6.75956 2650 
1084 1 -0.0427763 -0.00411625 -0.0539132 0.000175 -7.02253 0.0930451 5.58999 2650 
1197 1 -0.043033 -6.29981e-05 -0.0538549 6.3e-05 -7.04766 -1.74807e-05 5.63026 2650 
401 1 -0.0428213 -0.00017499 -0.0538813 0.000175 -7.05268 -1.45175e-05 5.59771 2650 
956 1 -0.043487 -0.000174989 -0.0533451 0.000175 -6.98976 -1.38541e-05 5.69419 2650 
486 1 -0.0442326 -0.0454296 -0.0521241 0.000635 -8.03039 -0.0669233 6.81789 2650 
7 1 -0.0448427 -0.0377661 -0.051606 0.000635 -8.03856 0.00548812 6.98478 2650 
1202 1 -0.0430354 -0.0311658 -0.0526785 0.000984 -8.26069 -0.0179672 6.74868 2650 
13 1 -0.045196 -0.0454357 -0.0512966 0.000635 -7.90541 0.0850417 6.96453 2650 
422 1 -0.045664 -0.0415548 -0.0508811 0.000635 -7.95467 -0.000127814 7.13832 2650 
817 1 -0.0451964 -0.0404506 -0.0512992 0.000635 -8.06779 0.0361488 7.10755 2650 
584 1 -0.0463537 -0.0402253 -0.0502541 0.000635 -7.86393 0.0187581 7.25302 2650 
636 1 -0.0475863 -0.0273051 -0.0498757 6.3e-05 -7.91417 -0.115832 7.55062 2650 
1329 1 -0.0482863 -6.29971e-05 -0.0492001 6.3e-05 -6.46708 0.000119791 6.35401 2650 
833 1 -0.0498501 -0.0169555 -0.0474605 0.000175 -6.75225 0.248739 7.09436 2650 
53 1 -0.0510806 -0.0401557 -0.0461289 0.000175 -7.04485 -0.210252 7.80005 2650 
1185 1 -0.0508904 -0.0299924 -0.0463347 0.000175 -6.55884 0.0825965 7.2012 2650 
539 1 -0.0521215 -0.00204198 -0.0451163 6.3e-05 -6.08103 -0.30469 7.02932 2650 
244 1 -0.0539094 -0.0621051 -0.0420467 0.000635 -6.60316 0.000679694 8.46608 2650 
375 1 -0.0530188 -0.0564923 -0.0426148 0.000984 -6.69364 0.00141093 8.3278 2650 
541 1 -0.053461 -0.041251 -0.0420594 0.000984 -6.5899 0.0371955 8.37631 2650 
917 1 -0.0535068 -0.0180408 -0.0425624 0.000635 -6.30106 0.102279 7.91798 2650 
188 1 -0.0543153 -0.0163837 -0.042275 0.000175 -6.23072 0.0652777 8.00025 2650 
573 1 -0.0541122 -0.0474267 -0.0412214 0.000984 -6.47209 -0.0404497 8.49598 2650 
228 1 -0.0546574 -0.0302318 -0.0418256 0.000175 -6.73349 -0.177658 8.80139 2650 
1099 1 -0.0548171 -0.0152496 -0.041806 6.3e-05 -5.62747 -0.205465 7.38498 2650 
1295 1 -0.0547619 -0.00799915 -0.0416905 0.000175 -5.65751 0.365874 7.44614 2650 
690 1 -0.0547416 -0.000175033 -0.0417164 0.000175 -5.52162 -0.00400027 7.26071 2650 
933 1 -0.0549402 -6.29982e-05 -0.0416396 6.3e-05 -5.52327 8.42971e-08 7.27579 2650 
11 1 -0.0556679 -0.044672 -0.0396909 0.000635 -6.1778 0.0772323 8.66457 2650 
466 1 -0.0563015 -0.017644 -0.0395869 0.000175 -5.82034 0.078289 8.27434 2650 
99 1 -0.0566702 -0.0411171 -0.0390568 0.000175 -6.13866 -0.205309 8.90659 2650 
970 1 -0.0572713 -0.0614009 -0.0367012 0.000984 -5.76499 -2.87561e-05 8.99612 2650 
381 1 -0.0587288 -0.0460119 -0.0349991 0.000635 -5.4851 -0.0893336 9.20357 2650 
629 1 -0.0591904 -0.0102872 -0.0351183 0.000175 -4.64266 0.0839295 7.82279 2650 
635 1 -0.0597842 -0.00451667 -0.0340956 0.000175 -4.62415 -0.28846 8.0676 2650 
76 1 -0.0602055 -0.0295222 -0.0323942 0.000635 -4.97807 0.126997 9.24971 2650 
324 1 -0.0602497 -0.00144329 -0.0332527 0.000175 -2.59633 0.00458398 4.69083 2650 
168 1 -0.0617405 -0.00119647 -0.0306594 6.3e-05 -3.94366 -0.068952 7.92138 2650 
1016 1 -0.0624684 -0.0271208 -0.0277692 0.000635 -3.99042 0.261175 8.96948 2650 
74 1 -0.0626484 -0.0463396 -0.0273791 0.000635 -4.36935 0.0329959 9.99746 2650 
1326 1 -0.0634114 -0.0179214 -0.0267374 0.000175 -3.55223 1.11186 8.55224 2650 
386 1 -0.0628908 -0.0030618 -0.0268094 0.000635 -2.51261 0.220479 5.8611 2650 
863 1 -0.0637935 -0.00780379 -0.0257869 0.000175 -2.51144 -0.620373 6.36213 2650 
201 1 -0.0640379 -6.30918e-05 -0.025523 6.3e-05 -3.28983 -0.000620154 8.2765 2650 
1264 1 -0.0638934 -6.29981e-05 -0.025881 6.3e-05 -3.34404 -2.99443e-06 8.24837 2650 
344 1 -0.0641049 -0.049889 -0.0227615 0.000984 -3.57483 -0.0150488 10.0687 2650 
23 1 -0.0645919 -0.000174989 -0.0237638 0.000175 -3.09646 1.52982e-05 8.4063 2650 
1096 1 -0.0647099 -0.00052568 -0.0234393 0.000175 -3.05501 -0.00132986 8.42009 2650 
301 1 -0.0651563 -0.00947965 -0.02217 0.000175 -2.34461 -0.2263 6.83344 2650 
169 1 -0.0657463 -0.027221 -0.020725 6.3e-05 -3.23824 -0.40266 10.2723 2650 
219 1 -0.0649905 -0.00958183 -0.0212235 0.000635 -2.20827 -0.326225 6.83704 2650 
535 1 -0.0657156 -0.00442268 -0.0204525 0.000175 -2.68308 0.253101 8.57665 2650 
563 1 -0.0661585 -0.0406454 -0.018981 0.000175 -2.92616 -0.105604 10.1952 2650 
372 1 -0.0669013 -0.000772516 -0.0166244 6.3e-05 -2.17321 -0.00406576 8.76399 2650 
1325 1 -0.0668677 -0.000175017 -0.0162955 0.000175 -2.13972 0.00271236 8.79983 2650 
498 1 -0.00240622 -0.000925653 -0.0160103 0.000175 -0.00923069 -0.00363591 0.000161975 2650 
1225 1 -0.002276 -0.000857412 -0.016476 0.000175 0.00883966 -0.00158442 0.00136519 2650 
1195 1 -0.0671072 -0.000175002 -0.015281 0.000175 -2.02361 0.000887579 8.86985 2650 
562 1 -0.00847877 -0.00151657 -0.0141008 0.000175 0.006251 -0.00716164 -0.0146951 2650 
250 1 -0.0671335 -0.0100204 -0.0129451 0.000635 -1.87804 0.0855701 9.72349 2650 
1223 1 -0.0675946 -0.00666456 -0.0129573 0.000175 -1.68455 -0.0300307 8.83855 2650 
820 1 -0.0677473 -0.000209683 -0.0121298 0.000175 -1.5509 -0.0311334 8.64248 2650 
1314 1 -0.0674726 -0.0543446 -0.0110341 0.000635 -1.72367 -0.0596846 10.5404 2650 
57 1 -0.0125573 -0.00282498 -0.0109635 0.000175 2.21404e-05 -0.0114416 0.000120693 2650 
405 1 -0.009473 -0.00174663 -0.011251 6.3e-05 0 -0.011752 0 2650 
548 1 -0.00353299 -0.00110636 -0.0108601 0.000635 -0.0002146 -0.00863946 0.00288669 2650 
161 1 -0.0681515 -0.0232041 -0.00961105 0.000175 -1.34202 -0.0163071 9.5784 2650 
571 1 -0.008585 -0.00314263 -0.010244 6.3e-05 0 -0.011752 0 2650 
591 1 -0.0681834 -0.0142858 -0.00939313 0.000175 -1.09702 0.211715 7.99576 2650 
665 1 -0.00969153 -0.0025164 -0.00860998 0.000175 0.00291829 -0.0112557 -0.00851253 2650 
1255 1 -0.0682619 -0.000175063 -0.00878563 0.000175 -1.14671 -0.00107496 9.00859 2650 
657 1 -0.0683751 -0.0304798 -0.0078574 0.000175 -1.12688 0.0530428 9.84713 2650 
715 1 -0.0163663 -0.00810668 -0.0080428 0.000635 -1.17406 -1.39307 -0.433364 2650 
522 1 -0.0147208 -0.00136514 -0.00667854 0.000635 0.00294289 -0.00715025 -0.00673272 2650 
549 1 -0.00519347 -0.00136425 -0.00484343 0.000635 0.00567019 -0.00263088 -0.00491334 2650 
122 1 -0.0686894 -0.00176605 -0.00431706 0.000175 -0.570048 -0.0293092 9.04415 2650 
102 1 -0.014214 -0.00302763 -0.002419 6.3e-05 0 -0.011752 0 2650 
144 1 -0.00246055 -0.00187448 -0.00140836 0.000635 -0.00892569 -0.00236936 0.00669488 2650 
190 1 -0.0684118 -0.0125348 -0.000916527 0.000175 -3.17727 -0.45453 2.88675 2650 
589 1 -0.0124255 -0.00260165 -0.00110715 0.000635 -0.00948959 -0.00935008 -0.011649 2650 
307 1 -0.0680166 -0.061816 0.000858473 0.000984 0.134847 -6.90123e-08 10.684 2650 
953 1 -0.0688165 -0.0183865 0.0010548 0.000175 0.147077 -0.0446741 9.74122 2650 
822 1 -0.00132805 -0.0016705 0.000946058 0.000175 0.0123628 -0.0050197 -0.00717869 2650 
995 1 -0.0687936 -0.0143157 0.00206187 0.000175 0.303875 0.199937 10.2115 2650 
1038 1 -0.00734615 -0.003045 0.00172401 0.000635 0.00487535 -0.0132337 0.00736209 2650 
578 1 -0.0682875 -0.062112 0.00330815 0.000635 0.51963 -9.69608e-05 10.7262 2650 
529 1 -0.0687574 -0.00971547 0.00304441 0.000175 0.43482 0.0892859 9.77337 2650 
651 1 -0.0682119 -0.0621089 0.00461278 0.000635 0.724697 -0.00092575 10.7161 2650 
854 1 -0.0687239 -0.0185476 0.00372076 0.000175 0.515698 0.0277327 9.48108 2650 
1161 1 -0.013857 -0.00251663 0.004447 0.000175 0 -0.011752 0 2650 
1256 1 -0.0114855 -0.000585113 0.00377827 0.000175 0.00279388 -0.00848082 -0.000934277 2650 
93 1 -0.0191391 -0.00604454 0.00517354 0.000175 -1.65126 -0.586613 0.38731 2650 
630 1 -0.014072 -0.00259363 0.005701 0.000175 0 -0.011752 0 2650 
246 1 -0.0680886 -0.0620445 0.00616565 0.000635 0.967951 -0.0446766 10.6815 2650 
864 1 -0.0684868 -0.0493068 0.00682674 0.000175 1.03069 -0.0469694 10.3376 2650 
973 1 -0.0680912 -0.00906947 0.00613129 0.000635 0.739826 0.0111547 8.41379 2650 
825 1 -0.0683704 -0.0548927 0.00790369 0.000175 1.24088 0.130426 10.7356 2650 
811 1 -0.0180915 -0.0090744 0.00828762 0.000635 -1.76611 -0.949284 0.662527 2650 
120 1 -0.00692041 -0.00318668 0.00768113 0.000175 0.00294589 -0.0127501 -0.00552691 2650 
857 1 -0.06837 -0.00195703 0.00789253 0.000175 1.03759 0.0251686 8.94912 2650 
287 1 -0.0676059 -0.0610784 0.0101763 0.000635 1.60207 -0.0628149 10.6441 2650 
302 1 -0.0679945 -0.00552575 0.0106587 0.000175 1.31162 0.453326 8.42425 2650 
672 1 -0.0670439 -0.0467502 0.0115057 0.000984 1.81712 0.0499501 10.5799 2650 
1057 1 -0.0677834 -0.0270019 0.0119248 0.000175 1.69886 -0.0708768 9.6371 2650 
1120 1 -0.0678452 -0.0243731 0.0115752 0.000175 1.65685 0.142418 9.66348 2650 
1217 1 -0.00619388 -0.00327265 0.0115967 0.000175 0.000126105 -0.0130711 0.0122609 2650 
1193 1 -0.000135 -0.00236963 0.010956 0.000175 0 -0.011752 0 2650 
550 1 -0.00927699 -0.000695234 0.0114671 0.000635 0.00213202 -0.00930832 -0.000921249 2650 
256 1 -0.00806533 -0.00116078 0.0108214 0.000175 0.00154603 -0.00491104 -0.00859353 2650 
44 1 -0.0670699 -0.040873 0.0132713 0.000635 2.10157 -0.0477674 10.6223 2650 
94 1 -0.0676381 -0.012317 0.012746 0.000175 1.78078 -0.0227424 9.43128 2650 
923 1 -0.067405 -0.000174994 0.0139072 0.000175 1.71069 -0.000630483 8.31822 2650 
134 1 -0.0672488 -0.0395616 0.0151681 6.3e-05 2.43658 -0.318326 10.8045 2650 
1060 1 -0.0672327 -0.0142381 0.0147411 0.000175 1.88038 -1.18229 8.48734 2650 
237 1 -0.0672615 -0.000796277 0.0151012 6.3e-05 1.89762 -0.0494058 8.45705 2650 
1141 1 -0.00482447 -0.000364488 0.0151814 0.000635 0.00295853 -0.00642555 -0.00573322 2650 
382 1 -0.0663274 -0.0434582 0.0165939 0.000635 2.62724 0.0573199 10.5011 2650 
40 1 -0.0659538 -0.0420079 0.018019 0.000635 2.86299 -0.00797924 10.4747 2650 
1022 1 -0.0665571 -0.0289303 0.0175161 0.000175 2.60661 0.483372 9.90509 2650 
939 1 -0.0661421 -0.0101312 0.01731 0.000635 2.18719 -0.0322122 8.4746 2650 
766 1 -0.0656805 -0.0389225 0.0205674 0.000175 3.156 -0.521938 10.0781 2650 
968 1 -0.0653382 -0.0203242 0.0219845 6.3e-05 3.06621 -0.46935 9.12077 2650 
729 1 -0.0650155 -0.0160329 0.022585 0.000175 3.00002 0.610301 8.62678 2650 
1160 1 -0.0650476 -0.00924991 0.0224861 0.000175 3.03793 0.123747 8.79652 2650 
9 1 -0.0641509 -0.0548964 0.0236407 0.000635 3.69692 0.055066 10.0304 2650 
919 1 -0.0646149 -0.0174587 0.0237078 0.000175 3.30552 0.297884 8.9815 2650 
558 1 -0.064335 -0.0237156 0.0244334 0.000175 1.24556 -0.836824 3.36162 2650 
1211 1 -0.0638221 -0.0200904 0.0245114 0.000635 3.51599 0.118257 9.17801 2650 
1081 1 -0.0632791 -0.0619693 0.0258791 0.000635 4.03643 -0.0316194 9.8708 2650 
1079 1 -0.0617917 -0.0480104 0.0292543 0.000635 4.57253 -0.174471 9.65894 2650 
1166 1 -0.0623567 -0.000103181 0.0293929 6.3e-05 3.80262 0.00620311 8.06806 2650 
821 1 -0.0597732 -0.0382878 0.0341184 0.000175 5.3158 0.23256 9.31358 2650 
1294 1 -0.0598888 -0.0298212 0.0339098 0.000175 5.1645 -0.235113 9.11107 2650 
1200 1 -0.0581529 -0.0373175 0.0352861 0.000984 5.54259 -0.00332902 9.13431 2650 
1066 1 -0.0588833 -0.0175811 0.0358462 6.3e-05 5.16987 1.18047 8.48864 2650 
399 1 -0.0581099 -0.032061 0.0368795 0.000175 5.78895 0.403692 9.12296 2650 
1216 1 -0.0571491 -0.0308727 0.0383516 0.000175 5.68067 0.2354 8.46089 2650 
895 1 -0.057675 -0.00768353 0.0375556 0.000175 4.53676 -0.0857282 6.97692 2650 
795 1 -0.0564446 -0.0258178 0.0393801 0.000175 5.8379 0.0439561 8.37248 2650 
358 1 -0.0569919 -0.0195178 0.0385855 0.000175 6.16071 0.860829 9.10245 2650 
271 1 -0.0571064 -6.29986e-05 0.0386148 6.3e-05 5.13169 5.31418e-08 7.59944 2650 
949 1 -0.0543965 -0.0162921 0.0414181 0.000635 5.8651 0.0688114 7.69986 2650 
62 1 -0.0542102 -0.0317548 0.042404 0.000175 6.71563 0.361145 8.58476 2650 
476 1 -0.0533866 -0.0123159 0.0421581 0.000984 5.9712 -0.013302 7.60402 2650 
420 1 -0.052903 -0.0455867 0.0433124 0.000635 6.88453 -0.0091392 8.40916 2650 
295 1 -0.0533064 -0.0417006 0.0435387 0.000175 6.97028 -0.255284 8.53426 2650 
1262 1 -0.0527736 -0.0138249 0.0441855 0.000175 6.22341 -0.0211608 7.44162 2650 
653 1 -0.0516919 -0.0537575 0.0447477 0.000635 7.1023 -0.0505679 8.20488 2650 
83 1 -0.0514659 -0.0451475 0.045011 0.000635 7.06187 -0.0607233 8.07471 2650 
265 1 -0.0518684 -0.00491781 0.0452387 0.000175 5.92831 0.0737573 6.80561 2650 
127 1 -0.0503986 -0.0401593 0.0468735 0.000175 7.23085 -0.0442086 7.77579 2650 
717 1 -0.0492218 -0.0427343 0.047453 0.000635 7.4799 0.00779554 7.75882 2650 
828 1 -0.0498576 -0.00702181 0.0474476 0.000175 6.34774 -0.266618 6.67448 2650 
66 1 -0.0505268 -0.000598349 0.0468957 6.3e-05 5.85424 0.0652328 6.30345 2650 
1241 1 -0.0477275 -0.0497053 0.0489576 0.000635 7.6441 0.0130751 7.45233 2650 
318 1 -0.047603 -0.0420752 0.049077 0.000635 7.70726 0.0743152 7.47587 2650 
982 1 -0.0466191 -0.0286513 0.0500046 0.000635 6.79534 -0.0305932 6.33662 2650 
493 1 -0.0480358 -0.0126432 0.0492929 0.000175 6.46574 -0.276589 6.31977 2650 
621 1 -0.0451889 -0.0498845 0.0513095 0.000635 8.04097 0.0069477 7.08169 2650 
800 1 -0.0431098 -0.0435945 0.053655 0.000175 7.43468 -0.0994064 5.96058 2650 
723 1 -0.0427964 -0.0394131 0.0539027 0.000175 8.46955 -0.030949 6.72452 2650 
724 1 -0.0428705 -0.0279737 0.0538394 0.000175 7.93032 -0.224763 6.31846 2650 
1218 1 -0.0434571 -0.0265195 0.0533621 0.000175 8.2533 -0.321344 6.72312 2650 
1187 1 -0.0431211 -0.0237378 0.0536266 0.000175 8.01102 0.538211 6.43584 2650 
505 1 -0.0438711 -0.0080554 0.0531718 6.3e-05 6.58519 -0.12386 5.41961 2650 
1086 1 -0.0437015 -0.000222493 0.0531694 0.000175 6.72425 -0.035007 5.52618 2650 
963 1 -0.0418251 -0.0343945 0.0546574 0.000175 8.24651 -0.0268979 6.30883 2650 
560 1 -0.041468 -0.0306249 0.0549294 0.000175 8.7177 0.221118 6.5812 2650 
592 1 -0.0423567 -0.0292973 0.0542454 0.000175 8.36228 0.108348 6.53019 2650 
1273 1 -0.0413398 -0.0269809 0.0544465 0.000635 8.22309 -0.179751 6.24546 2650 
1285 1 -0.0396785 -0.0111739 0.0561969 0.000175 7.57629 0.289449 5.42061 2650 
1019 1 -0.0383194 -0.0333861 0.0571703 0.000175 8.03974 -0.183053 5.39157 2650 
366 1 -0.038334 -0.021812 0.057057 0.000175 7.9566 0.227875 5.34447 2650 
693 1 -0.0387694 -0.0167901 0.056819 0.000175 7.13615 -1.45968 4.93721 2650 
714 1 -0.035739 -0.043519 0.0582818 0.000635 9.16295 -0.0186417 5.61814 2650 
336 1 -0.0371564 -0.00224955 0.0579303 0.000175 8.10914 -0.126564 5.18991 2650 
985 1 -0.0362483 -0.00205601 0.0584947 0.000175 7.07098 -0.0392458 4.40235 2650 
413 1 -0.0343083 -0.0310851 0.0592354 0.000635 9.30467 2.15465e-06 5.38913 2650 
725 1 -0.0338138 -0.0213653 0.0599445 0.000175 8.79892 0.0399911 4.96255 2650 
397 1 -0.0337194 -0.0201367 0.0599984 0.000175 8.31946 0.246594 4.67088 2650 
360 1 -0.0325926 -0.00535338 0.0606179 0.000175 8.63793 -0.256372 4.64151 2650 
708 1 -0.029993 -0.0449776 0.0614363 0.000635 9.66433 -0.00135265 4.71786 2650 
1045 1 -0.0300231 -0.0437005 0.0614223 0.000635 9.64702 0.00595822 4.71544 2650 
1309 1 -0.0301529 -0.0424247 0.0613564 0.000635 9.58254 -0.0134578 4.70705 2650 
70 1 -0.0275044 -0.0421075 0.0622099 0.000984 9.76234 -0.0187118 4.3162 2650 
1179 1 -0.0296581 -0.0401504 0.0615903 0.000635 9.65037 -0.0407551 4.64747 2650 
205 1 -0.0274936 -0.0401396 0.0622165 0.000984 9.75095 -0.0186454 4.30901 2650 
361 1 -0.0310011 -0.0362373 0.0614401 0.000175 9.4316 -0.0702169 4.75406 2650 
45 1 -0.0281373 -0.0340362 0.0623043 0.000635 9.21085 0.486108 4.16548 2650 
744 1 -0.0302632 -0.0202205 0.0613054 0.000635 9.24573 -0.229037 4.5656 2650 
921 1 -0.031109 -0.0118693 0.0613922 0.000175 8.78102 -0.564157 4.44639 2650 
559 1 -0.0308234 -0.0110253 0.0615362 0.000175 8.0448 -0.218708 4.02672 2650 
260 1 -0.0306985 -0.00162818 0.0615979 0.000175 7.54331 0.00754322 3.75503 2650 
350 1 -0.0263123 -0.045436 0.0631005 0.000635 9.76421 -0.155897 4.07267 2650 
454 1 -0.0274494 -0.038571 0.0626148 0.000635 9.80591 -0.0175873 4.29875 2650 
411 1 -0.0267409 -0.032477 0.0625447 0.000984 9.75588 -0.0825824 4.16899 2650 
1274 1 -0.0238951 -0.0466936 0.0640603 0.000635 10.0356 -0.0997655 3.74356 2650 
1303 1 -0.0230826 -0.0387442 0.0643534 0.000635 10.1185 -0.145517 3.63169 2650 
902 1 -0.0252021 -0.0181869 0.064168 6.3e-05 7.94766 0.307638 3.11764 2650 
702 1 -0.0217063 -0.0432215 0.065432 6.3e-05 10.32 0.0225854 3.42393 2650 
841 1 -0.0210003 -0.0395274 0.0650634 0.000635 10.1757 -0.0765714 3.28375 2650 
929 1 -0.0196563 -0.0381822 0.0659584 0.000175 10.4156 -0.0309641 3.10411 2650 
108 1 -0.0189198 -0.0392449 0.0656989 0.000635 10.396 -0.0717273 2.9939 2650 
212 1 -0.0214094 -0.037642 0.0649289 0.000635 10.1723 -0.0514595 3.35385 2650 
597 1 -0.0208084 -0.0345675 0.0656028 0.000175 10.4436 0.151686 3.31372 2650 
232 1 -0.0223422 -0.000174991 0.065097 0.000175 8.85469 4.18614e-05 3.04191 2650 
669 1 -0.0217409 -6.29984e-05 0.0654184 6.3e-05 8.89681 5.93167e-08 2.96141 2650 
467 1 -0.0215121 -0.000174991 0.0653761 0.000175 8.90169 5.22317e-05 2.92921 2650 
1112 1 -0.0137657 -0.0465032 0.0669722 0.000635 10.5474 0.0227656 2.16805 2650 
357 1 -0.0149898 -0.0434408 0.0667088 0.000635 10.6442 0.108615 2.39249 2650 
687 1 -0.0164299 -0.0379928 0.0663637 0.000635 10.3294 -0.0437043 2.55567 2650 
545 1 -0.0147315 -0.0329882 0.066761 0.000635 10.5791 -0.0377244 2.33471 2650 
404 1 -0.0167129 -0.00984025 0.0667675 0.000175 9.80041 -0.275765 2.45396 2650 
95 1 -0.0151223 -0.00936946 0.0671456 0.000175 9.39613 -0.223736 2.11705 2650 
1298 1 -0.0172222 -0.00649204 0.0667509 6.3e-05 9.4585 -0.335556 2.44163 2650 
826 1 -0.0186248 -0.000174991 0.0662565 0.000175 8.99642 -0.000115443 2.52906 2650 
731 1 -0.0168121 -0.000174977 0.0667399 0.000175 9.07343 0.000322503 2.28513 2650 
1331 1 -0.0169467 -0.00110459 0.0668204 6.3e-05 9.08288 -0.042173 2.30728 2650 
1133 1 -0.0166639 -6.29984e-05 0.066892 6.3e-05 9.09343 5.67233e-08 2.26979 2650 
116 1 -0.00870145 -0.0469181 0.0678144 0.000635 10.6393 -0.0379049 1.36517 2650 
1301 1 -0.0065423 -0.0472486 0.0677082 0.000984 10.6281 -0.00168333 1.02679 2650 
1029 1 -0.0134615 -0.0453857 0.0674995 0.000175 10.5927 -0.0555123 2.11247 2650 
748 1 -0.0122739 -0.0417356 0.0672602 0.000635 10.7263 -0.0481211 1.93913 2650 
369 1 -0.0106022 -0.03521 0.0680032 0.000175 10.7677 -0.028573 1.67838 2650 
609 1 -0.0102379 -0.0327376 0.0675964 0.000635 10.321 0.0253802 1.56363 2650 
688 1 -0.00995432 -0.0251094 0.0676393 0.000635 10.1395 -0.0585553 1.49142 2650 
1315 1 -0.0106291 -0.0171105 0.0680028 0.000175 9.68147 0.0710975 1.51072 2650 
1178 1 -0.00462164 -0.0150793 0.068211 0.000635 9.78564 0.0543006 0.641993 2650 
927 1 -0.0120633 -0.0133448 0.0677635 0.000175 8.03925 -0.106151 1.42427 2650 
957 1 -0.00831192 -0.00713506 0.0683213 0.000175 6.50518 -0.485356 0.796966 2650 
831 1 -0.0118068 -0.00433791 0.0678042 0.000175 8.7012 -0.0140941 1.51041 2650 
955 1 -0.0117215 -0.00017499 0.0678195 0.000175 9.17984 0.000395402 1.58828 2650 
20 1 -0.00185267 -0.0488453 0.0687993 0.000175 10.8508 0.0455187 0.292065 2650 
658 1 -0.00350224 -0.0360363 0.0687349 0.000175 11.1317 -0.0519553 0.565766 2650 
1151 1 -0.00236278 -0.029348 0.0687845 0.000175 10.4684 0.11293 0.358706 2650 
699 1 -0.00405699 -0.0252667 0.0687049 0.000175 10.353 -0.419326 0.608347 2650 
1032 1 -0.00245028 -0.0186436 0.0688929 6.3e-05 11.0192 0.75251 0.391447 2650 
994 1 -0.00450062 -0.0168411 0.0686776 0.000175 9.56082 -0.739899 0.628655 2650 
1320 1 -0.00371992 -0.0117171 0.0687244 0.000175 9.21113 -0.301528 0.499596 2650 
19 1 -0.00276925 -0.0077003 0.0687683 0.000175 7.55709 0.334739 0.313755 2650 
1052 1 -0.00366756 -0.00499996 0.0687267 0.000175 8.80924 0.240047 0.474274 2650 
528 1 -0.000635644 -0.00263042 0.0688217 0.000175 8.43713 0.176258 0.0747804 2650 
1316 1 -0.000157294 -0.000174986 0.0688251 0.000175 9.34315 -0.00105067 0.0199447 2650 
339 1 -0.000530706 -6.30243e-05 0.0689345 6.3e-05 9.45836 0.00221295 0.0679665 2650 
33 1 2.05834e-05 -6.30545e-05 0.068937 6.3e-05 9.35827 -1.17143e-05 -0.00406207 2650 
928 1 -0.000727403 -0.000174993 0.0688206 0.000175 9.44544 0.000168198 0.0987984 2650 
519 1 -0.00250766 0.0313362 -0.0159402 0.000635 -0.00384148 0.0131442 0.000918231 2650 
743 1 -0.00239838 0.033485 -0.015746 0.000635 -0.00936829 0.016256 0.000393301 2650 
614 1 -0.00387958 0.0445982 -0.015687 0.000635 0.023835 0.0260565 -0.00629553 2650 
177 1 -0.00322924 0.0467565 -0.015986 0.000635 0.008228 0.0283487 0.000416579 2650 
85 1 -0.00228046 0.000550597 -0.0153656 0.000635 0.0102374 -0.00472031 -0.00283261 2650 
162 1 -0.00439217 0.00330618 -0.0146212 0.000175 -0.0144099 -0.00195896 0.00101447 2650 
650 1 -0.00396485 0.00531569 -0.0154488 0.000635 0.0012256 0.00182191 0.00322611 2650 
117 1 -0.00519896 0.0178749 -0.0152711 0.000635 -0.000238038 0.0107297 0.000388504 2650 
742 1 -0.00695075 0.0197527 -0.0146219 0.000635 0.0188227 0.0311205 -0.0101802 2650 
1280 1 -0.00557398 0.0192068 -0.0151171 0.000635 -0.0142853 0.0127038 0.00673623 2650 
489 1 -0.00130293 0.0319258 -0.0155259 0.000635 -0.0148336 0.0174228 -0.0028944 2650 
874 1 -0.00488797 0.0333262 -0.0154707 0.000635 0.0157415 0.0244583 -0.000754065 2650 
1050 1 -0.00340564 0.0352048 -0.014412 0.000635 -0.0029937 0.0239446 0.00421205 2650 
1142 1 -0.00533269 0.0434848 -0.0152631 0.000635 0.0236007 0.024864 -0.00459717 2650 
1128 1 -0.00627871 0.00545381 -0.0141345 0.000175 0.0169967 0.00158806 -0.00867776 2650 
916 1 -0.00439441 0.0088471 -0.014012 0.000635 0.013265 0.0116668 -0.0319575 2650 
713 1 -0.00333773 0.0251392 -0.0138051 0.000635 0.0075191 0.0291214 -0.0259067 2650 
872 1 -0.00813516 0.0339203 -0.0137648 0.000984 -0.00106814 0.0192561 0.000761858 2650 
79 1 -0.00709929 0.039605 -0.0142903 0.000635 0.00977272 0.0263355 -0.00393134 2650 
880 1 -0.00808973 0.0411813 -0.0140999 0.000635 0.000158069 0.0173287 0.00157881 2650 
313 1 -0.000780206 0.0587827 -0.0134468 0.000635 0.00162733 0.049032 0.00487317 2650 
1201 1 -0.00618689 0.060626 -0.0132336 0.000984 -0.01318 0.0390894 0.0145289 2650 
379 1 -0.010111 0.0618778 -0.0132034 0.000635 -0.0192584 0.0394346 0.00827126 2650 
1101 1 -0.00869746 0.00817897 -0.013015 0.000984 0.0106325 0.00875738 -0.00977665 2650 
692 1 -0.00444087 0.0116122 -0.0127581 0.000175 0.000871279 -0.00836456 0.00481226 2650 
1035 1 -0.01009 0.0145459 -0.0121399 0.000984 -0.015303 0.00819758 0.00490507 2650 
1071 1 -0.00210206 0.0147177 -0.0129784 0.000635 -0.00987327 0.00612624 0.00149307 2650 
1189 1 -0.00296663 0.0202418 -0.0129901 0.000175 0.00774618 0.00643291 0.000792505 2650 
1139 1 -0.0102628 0.023267 -0.0128177 0.000635 -0.0110388 0.0147827 0.00740388 2650 
278 1 -0.00138078 0.0251618 -0.0126952 0.000635 0.0178665 0.0225506 -0.00967582 2650 
1212 1 -0.00550948 0.0297902 -0.0120752 0.000635 -0.0112611 0.0143124 0.00525792 2650 
1292 1 -0.00739617 0.0329104 -0.0126284 0.000175 0.0133291 0.0213213 -0.0117562 2650 
408 1 -0.00498935 0.0348821 -0.0129349 0.000984 0.000102222 0.0211467 0.00179721 2650 
691 1 -0.0040579 0.0359824 -0.0124423 0.000175 -0.00229697 0.0240085 0.00491048 2650 
1129 1 -0.002732 0.0362615 -0.0122601 0.000175 -0.00555093 0.0259824 -0.013644 2650 
373 1 -0.0095405 0.0535147 -0.0130039 6.3e-05 -0.00267287 0.0367315 0.00271403 2650 
167 1 -0.00246283 0.00669237 -0.0110477 6.3e-05 -0.0106845 -0.000899513 0.00319856 2650 
233 1 -0.00642112 0.00720058 -0.0113391 0.000175 -0.00999261 0.00211097 0.00356067 2650 
804 1 -0.00648792 0.0089418 -0.010823 0.000984 0.0120184 0.0081957 -0.00324229 2650 
847 1 -0.00521674 0.0107311 -0.0115282 0.000635 0.0120476 0.0112009 -0.00284491 2650 
868 1 -0.0118228 0.0134124 -0.0118556 6.3e-05 -0.0013345 0.00182716 0.00742042 2650 
791 1 -0.0113538 0.0137683 -0.0119538 0.000175 0.0206124 -0.00278476 -0.0238669 2650 
73 1 -0.00840233 0.0146961 -0.0119132 0.000635 -0.00151378 0.014106 -0.036357 2650 
656 1 -0.0069287 0.0164142 -0.0108927 0.000175 0.0125744 0.0160107 -0.00041893 2650 
797 1 -0.00907816 0.0184232 -0.0119917 0.000175 -0.0022716 0.0153737 -0.0149182 2650 
348 1 -0.0107186 0.0192108 -0.0118114 0.000635 -0.0140272 0.0133648 0.00291468 2650 
191 1 -0.0127362 0.033189 -0.0108721 0.000175 0.0139014 0.0131611 -0.0185416 2650 
172 1 -2.668e-05 0.0374498 -0.0118455 0.000984 -0.00385211 0.0199287 0.00795725 2650 