ITEM: TIMESTEP
1440588
ITEM: NUMBER OF ATOMS
1330
ITEM: BOX BOUNDS ff ff ff
-0.15 0.15
-0.15 0.15
-0.15 0.15
ITEM: ATOMS id type x y z radius vx vy vz density 
611 1 -0.00684052 -0.0164313 -0.0680243 0.000635 -3.19424 -0.713299 0.329927 2650 
621 1 -0.000638256 -0.0100442 -0.0683639 0.000635 -3.50021 -0.1428 0.0414337 2650 
164 1 -0.0153992 -0.0122107 -0.0670841 0.000175 -3.29622 -0.226732 0.72063 2650 
1253 1 -0.0293259 -0.0143742 -0.0622472 0.000175 -3.03522 -0.393274 1.19328 2650 
617 1 -0.029334 -0.0104033 -0.0616986 0.000635 -3.32884 -0.267499 1.36134 2650 
1136 1 -0.0304048 -0.02973 -0.0608442 0.000984 -3.49945 -0.627668 1.75287 2650 
9 1 -0.0408903 -0.0271092 -0.0547894 0.000635 -2.8515 -0.909539 2.11393 2650 
188 1 -0.0425139 -0.000294874 -0.0541239 0.000175 -2.9217 -0.0473231 2.31664 2650 
1321 1 -0.0438232 -0.00441787 -0.0492599 0.000175 -2.02319 0.0646821 2.67731 2650 
1162 1 -0.0516818 -0.0149343 -0.0454566 0.000175 -2.08945 -0.321764 2.17327 2650 
893 1 -0.0525154 -0.0115429 -0.0444705 0.000175 -2.454 -0.182016 2.91807 2650 
210 1 -0.0516536 -0.0118937 -0.0447821 0.000635 -2.52158 -0.253303 2.77622 2650 
74 1 -0.0539881 -0.00901873 -0.0419048 0.000635 -3.20186 -0.22106 4.04602 2650 
37 1 -0.057014 -0.0249363 -0.0370518 0.000984 -2.32902 -0.446451 3.47141 2650 
6 1 -0.0594086 -0.0128831 -0.0338294 0.000635 -2.32982 -0.273344 4.0243 2650 
870 1 -0.0588301 -0.00892082 -0.0341439 0.000984 -1.81403 -0.156405 3.08166 2650 
914 1 -0.0137522 -0.00589876 -0.0290687 0.000635 -1.81752 -0.306876 -3.94415 2650 
712 1 -0.0627016 -0.0329839 -0.0272426 0.000635 -1.51027 -0.347527 3.73794 2650 
856 1 -0.0202256 -0.00591425 -0.0254961 0.000175 -3.1368 -0.217162 -3.94763 2650 
657 1 -0.0386098 -0.00502568 -0.0239151 0.000175 -5.86154 -0.175052 -3.65028 2650 
1274 1 -0.0273827 -0.00633783 -0.0220701 0.000635 -4.28671 -0.215668 -3.45749 2650 
531 1 -0.00478675 -0.00599439 -0.019232 0.000175 -0.609137 -0.333072 -2.65635 2650 
238 1 -0.00276378 -0.00295846 -0.0162039 6.3e-05 -0.0216853 -0.101534 0.0289958 2650 
1320 1 -0.000194717 -0.00145084 -0.0156188 0.000175 0.105949 0.0472562 0.0341047 2650 
918 1 -0.00422057 -0.00335848 -0.015448 0.000635 -0.17713 -0.0394484 -0.63153 2650 
1226 1 -0.000503407 -0.00173932 -0.0155941 0.000175 0.0824338 -0.0355461 0.135306 2650 
437 1 -0.007215 -0.00106863 -0.015053 0.000175 0 -0.011752 0 2650 
935 1 -0.00550756 -0.00118138 -0.0153673 6.3e-05 -0.0247408 -0.0358938 0.050943 2650 
389 1 -0.00339854 -0.00111723 -0.0154856 0.000635 0.00678652 -0.0391052 -0.0388061 2650 
314 1 -0.000865085 -0.00412763 -0.0133488 0.000635 -0.122522 -0.233719 -1.10193 2650 
940 1 -0.00618298 -0.00307973 -0.0141364 0.000635 0.000167427 -0.0407184 0.00219204 2650 
842 1 -0.00016299 -0.00300223 -0.0136334 0.000635 0.069625 0.088588 -0.361822 2650 
229 1 -0.007508 -0.00149963 -0.014288 0.000175 0 -0.011752 0 2650 
426 1 -0.006838 -0.000215635 -0.013303 0.000175 0 -0.011752 0 2650 
667 1 -0.0675723 -0.0105418 -0.0130868 0.000175 -0.605681 -0.203708 3.30899 2650 
732 1 -0.00839424 -0.00311362 -0.0127733 0.000175 -0.0346067 -0.0265459 -0.0113392 2650 
264 1 -0.00567394 -0.00338869 -0.0126105 0.000175 -0.476488 -0.0349508 -1.05901 2650 
936 1 -0.00414472 -0.00327783 -0.0130455 0.000984 0.017395 -0.0988063 0.022658 2650 
714 1 -0.00302203 -0.00265663 -0.012041 0.000635 0.0112918 -0.00282681 -0.0108316 2650 
909 1 -0.0101916 -0.00163188 -0.0122651 0.000635 -0.11337 -0.0422038 -0.121621 2650 
106 1 -0.0091297 -0.000516548 -0.0130046 0.000984 0.00710799 -0.000668983 -0.012388 2650 
533 1 -0.00665035 -0.000692075 -0.0126839 0.000175 0.00351385 0.122125 -0.158185 2650 
1037 1 -0.00741535 -0.00310082 -0.0119723 0.000984 -0.0220819 -0.0211855 -0.0561487 2650 
246 1 -0.00190146 -0.00323496 -0.011824 0.000635 -0.0105108 -0.0728449 -0.0288514 2650 
1318 1 -0.005879 -0.00151563 -0.011525 0.000175 0 -0.011752 0 2650 
570 1 -0.007466 -0.000135635 -0.01121 6.3e-05 0 -0.011752 0 2650 
387 1 -0.00385568 -3.62654e-05 -0.0110937 0.000635 -0.0208661 -0.0531802 -0.00975035 2650 
653 1 -0.0158025 -0.00512301 -0.00989682 0.000635 -1.57098 -0.993675 -1.02254 2650 
13 1 -0.012617 -0.00409243 -0.00970379 0.000635 -0.274042 -0.331859 0.023266 2650 
228 1 -0.0112419 -0.0039995 -0.0105872 0.000175 -1.18444 -0.152233 -1.14083 2650 
16 1 -0.010052 -0.00264463 -0.009678 0.000635 0 -0.011752 0 2650 
1125 1 -0.009349 -0.00321663 -0.010555 0.000175 0 -0.011752 0 2650 
1178 1 -0.00673103 -0.00298955 -0.0101719 0.000635 -0.0106117 -0.0199071 -0.0204057 2650 
243 1 -0.00331481 -0.00179133 -0.0106167 0.000635 -0.0321358 -0.0183652 -0.0629887 2650 
1243 1 -0.0112127 -0.000838635 -0.0101961 0.000635 -0.0537643 -0.0108705 -0.0717172 2650 
47 1 -0.00593 -0.000710635 -0.010717 0.000635 0 -0.011752 0 2650 
1001 1 -0.002903 -0.000275635 -0.010283 6.3e-05 0 -0.011752 0 2650 
800 1 -0.0113672 -0.00355261 -0.00939107 0.000175 -1.46484 -0.0567804 -1.21018 2650 
152 1 -0.0122563 -0.00217104 -0.00852008 0.000635 -0.00850255 -0.009986 -0.00789657 2650 
1233 1 -0.0104489 -0.00124218 -0.00878823 0.000984 -0.0345066 -0.00413439 -0.0697797 2650 
1 1 -0.00166121 -0.00181446 -0.00943117 0.000984 0.0129012 -0.00592774 -0.0786172 2650 
573 1 -0.00811549 -0.000837217 -0.00925696 0.000984 -0.0347701 -0.0434855 -0.034042 2650 
1313 1 -0.00355111 -0.00106929 -0.0095967 0.000635 0.00276742 -0.0389664 -0.0324239 2650 
83 1 -0.00150838 -0.000259071 -0.00882216 0.000635 -0.0333614 0.00907496 -0.0577565 2650 
163 1 -0.0683265 -0.0165729 -0.0082904 0.000175 -0.459872 -0.197849 3.55965 2650 
221 1 -0.00831136 -0.00284681 -0.00831247 0.000635 -0.00733232 -0.0754958 -0.137222 2650 
1027 1 -0.0113435 -0.0016635 -0.00804396 0.000175 0.141434 0.270119 -0.0346036 2650 
63 1 -0.0110798 -0.000886613 -0.00749388 0.000175 -0.0428152 0.018291 -0.148322 2650 
613 1 -0.00994742 -0.00012576 -0.00733449 0.000635 -0.047089 -0.00451376 -0.0502197 2650 
368 1 -0.004505 -4.16349e-05 -0.007819 0.000175 0 -0.011752 0 2650 
929 1 -0.00214 -0.000602635 -0.008269 0.000175 0 -0.011752 0 2650 
146 1 -0.0130325 -0.00255641 -0.00661159 0.000635 -0.0871465 -0.0975071 -0.100292 2650 
580 1 -0.00439715 -0.00325937 -0.0062829 0.000635 -0.0426371 -0.0800796 -0.053699 2650 
36 1 -0.0117107 -0.00144546 -0.00637187 0.000984 -0.184595 0.0295512 -0.192614 2650 
444 1 -0.000135844 -0.0019621 -0.00626417 0.000984 -0.00253879 -0.010316 -0.0358105 2650 
988 1 -0.01321 -0.000685635 -0.006532 0.000175 0 -0.011752 0 2650 
765 1 -0.0131786 -0.000468347 -0.00621204 0.000175 -0.152343 0.0952622 -0.0199841 2650 
955 1 -0.012235 -0.000323635 -0.006568 0.000175 0 -0.011752 0 2650 
671 1 -0.00593 -0.00114063 -0.006945 6.3e-05 0 -0.011752 0 2650 
509 1 -0.00273501 -0.00109534 -0.00661389 0.000984 -0.0217685 -0.052967 -0.0333409 2650 
455 1 -0.0681702 -0.0275475 -0.00517047 0.000635 -0.32512 -0.286691 4.18494 2650 
185 1 -0.0681797 -0.00618073 -0.00504704 0.000635 -0.252655 0.301978 3.67548 2650 
382 1 -0.0100902 -0.00421438 -0.0058153 0.000635 -1.16536 -0.188085 -0.643067 2650 
1241 1 -0.0116827 -0.00256232 -0.00517836 0.000635 -0.266183 0.0310102 -0.172326 2650 
10 1 -0.00255094 -0.00268966 -0.00588248 0.000635 -0.0150849 -0.0775729 -0.055508 2650 
838 1 -0.0143411 -0.00167047 -0.00572742 0.000984 -0.0480943 0.00378141 0.0117472 2650 
230 1 -0.0131313 -0.00166358 -0.00591234 0.000175 -0.0209383 -0.0102854 -0.0587157 2650 
1309 1 -0.00813123 -0.00209572 -0.00493032 0.000635 -0.0599704 0.00367641 -0.0735995 2650 
1087 1 -0.00672854 -0.0015425 -0.00555675 0.000175 0.0349031 -0.0105353 -0.0639552 2650 
851 1 -0.006175 -0.000890635 -0.005044 0.000635 0 -0.011752 0 2650 
105 1 -0.0143308 -0.00450629 -0.00476187 0.000984 -1.66933 -0.313976 -0.599068 2650 
907 1 -0.00158929 -0.00284678 -0.00365849 0.000635 -0.0336083 -0.0278705 -0.0140993 2650 
1040 1 -0.0156096 -0.0016002 -0.00417089 0.000635 -0.00727204 -0.0109144 -0.00682519 2650 
312 1 -0.01257 -0.000601635 -0.004746 0.000635 0 -0.011752 0 2650 
339 1 -0.000842 -0.00105463 -0.003927 6.3e-05 0 -0.011752 0 2650 
627 1 -0.068766 -0.0139053 -0.00282285 0.000175 -0.145439 -0.300826 3.32175 2650 
1246 1 -0.0149771 -0.00268476 -0.00357338 0.000635 -0.917677 0.353837 0.0735439 2650 
251 1 -0.012994 -0.00274663 -0.002454 0.000635 0 -0.011752 0 2650 
194 1 -0.010249 -0.00250263 -0.003133 0.000175 0 -0.011752 0 2650 
736 1 -0.0125277 -0.0014077 -0.00355117 6.3e-05 -0.570774 0.35211 -0.0984916 2650 
1216 1 -0.014747 -0.000246635 -0.003125 0.000175 0 -0.011752 0 2650 
597 1 -0.003613 -0.00220663 -0.002306 0.000175 0 -0.011752 0 2650 
436 1 -0.00981096 -0.000801359 -0.00216201 0.000175 0.011141 -0.0257744 -0.00759278 2650 
961 1 -0.0688217 -0.0298149 -0.000582717 0.000175 -0.0129904 -0.412806 3.55544 2650 
1000 1 -0.0689305 -0.0156953 -0.000911215 6.3e-05 -0.0693923 -0.287224 3.42588 2650 
477 1 -0.00948725 -0.00313172 -0.000801374 0.000984 -0.0429512 -0.0114602 0.022487 2650 
690 1 -0.004185 -0.00308963 -0.00095 0.000175 0 -0.011752 0 2650 
183 1 -0.003358 -0.00276863 -0.000139 0.000635 0 -0.011752 0 2650 
366 1 -0.00979628 -0.00182804 -6.73193e-05 0.000175 -0.0367378 -0.011687 -0.0200767 2650 
1146 1 -0.015656 -0.000736635 -0.000893 0.000635 0 -0.011752 0 2650 
977 1 -0.068361 -0.0127535 0.000843998 0.000635 0.0159511 -0.309917 3.56547 2650 
180 1 -0.00764428 -0.00354282 0.000530572 0.000635 -0.546904 -0.0976869 0.0473406 2650 
709 1 -0.01578 -0.00210263 0.000382 0.000635 0 -0.011752 0 2650 
103 1 -0.0089466 -0.00134135 0.000815356 0.000984 -0.0524104 0.033823 0.0115282 2650 
502 1 -0.014515 -0.000702635 0.000417 0.000175 0 -0.011752 0 2650 
1227 1 -0.010103 -0.00118763 0.000503 0.000175 0 -0.011752 0 2650 
112 1 -0.00495992 -0.000547074 0.00114639 0.000635 0.037282 -0.00635693 -0.0203447 2650 
239 1 -0.00522023 -0.00295316 0.00185669 0.000984 0.00199412 -0.0179642 -0.0303755 2650 
254 1 -0.013943 -0.00204063 0.001371 0.000635 0 -0.011752 0 2650 
1301 1 -0.0679447 -0.0349441 0.00317299 0.000984 0.181938 -0.227586 4.22724 2650 
895 1 -0.013686 -0.00251363 0.002677 0.000175 0 -0.011752 0 2650 
1191 1 -0.00661 -0.00264663 0.002959 0.000175 0 -0.011752 0 2650 
717 1 -0.000762 -0.00307963 0.002768 0.000635 0 -0.011752 0 2650 
381 1 -0.0130029 -0.00151722 0.00267842 0.000635 -0.00103476 -0.0109002 -0.000352375 2650 
291 1 -0.01018 -0.00228063 0.003577 0.000175 0 -0.011752 0 2650 
529 1 -0.003958 -0.00184163 0.002533 0.000175 0 -0.011752 0 2650 
551 1 -0.0112967 -0.000365816 0.00351026 0.000635 -0.00449959 -0.0145643 -0.000715007 2650 
514 1 -0.00648179 -0.000234557 0.00316249 0.000635 -0.24382 -0.0726917 0.0687481 2650 
4 1 -0.0051017 -0.0025643 0.00407613 0.000984 0.00503349 -0.0165623 -0.0224388 2650 
843 1 -0.015716 -0.00184163 0.003666 0.000635 0 -0.011752 0 2650 
658 1 -0.011923 -0.00228563 0.004539 0.000175 0 -0.011752 0 2650 
796 1 -0.012562 -0.00164463 0.004598 0.000175 0 -0.011752 0 2650 
96 1 -0.016404 -0.00115763 0.003666 0.000175 0 -0.011752 0 2650 
430 1 -0.003544 -0.000229635 0.0041 0.000175 0 -0.011752 0 2650 
604 1 -0.01474 -0.00261363 0.005932 6.3e-05 0 -0.011752 0 2650 
1117 1 -0.009728 -0.00263963 0.005343 0.000175 0 -0.011752 0 2650 
578 1 -0.003565 -0.00315363 0.005882 0.000635 0 -0.011752 0 2650 
790 1 -0.015014 -0.00229363 0.005392 0.000175 0 -0.011752 0 2650 
636 1 -0.014585 -0.000903635 0.004888 6.3e-05 0 -0.011752 0 2650 
1245 1 -0.014357 -3.96349e-05 0.005271 0.000635 0 -0.011752 0 2650 
820 1 -0.00471 -0.000633635 0.005392 0.000175 0 -0.011752 0 2650 
724 1 -0.00263928 -0.00348511 0.00674316 0.000175 -0.308093 -0.0489841 0.787155 2650 
344 1 -0.01175 -0.00228563 0.006592 0.000984 0 -0.011752 0 2650 
1184 1 -0.009719 -0.00182363 0.007126 0.000175 0 -0.011752 0 2650 
913 1 -0.013782 -0.00115963 0.006268 0.000635 0 -0.011752 0 2650 
1259 1 -0.011546 -0.000568635 0.006273 0.000175 0 -0.011752 0 2650 
802 1 -0.014838 -0.00134663 0.007965 6.3e-05 0 -0.011752 0 2650 
1311 1 -0.013361 -0.00178263 0.007781 0.000635 0 -0.011752 0 2650 
441 1 -0.010473 -0.000909014 0.00743358 0.000984 -0.0186071 -0.0194258 0.00331485 2650 
435 1 -0.005343 -0.000725635 0.007666 0.000175 0 -0.011752 0 2650 
1085 1 -0.011737 -0.00113363 0.009033 0.000175 0 -0.011752 0 2650 
161 1 -0.0680597 -0.00637378 0.0102331 0.000175 0.466371 -0.154292 3.20158 2650 
993 1 -0.002592 -0.00307363 0.009715 0.000175 0 -0.011752 0 2650 
1171 1 -0.012599 -0.00207363 0.010137 0.000635 0 -0.011752 0 2650 
223 1 -0.011395 -0.00164063 0.010062 0.000175 0 -0.011752 0 2650 
1081 1 -0.010483 -0.00258563 0.010994 0.000635 0 -0.011752 0 2650 
1042 1 -0.000631782 -0.0034736 0.0108275 0.000635 -0.125468 -0.20458 0.595319 2650 
73 1 -0.011446 -0.00148363 0.011414 0.000635 0 -0.011752 0 2650 
643 1 -0.006282 -0.00154063 0.011309 0.000635 0 -0.011752 0 2650 
668 1 -0.006396 -0.00296563 0.012208 0.000175 0 -0.011752 0 2650 
99 1 -0.006875 -0.00269063 0.012284 0.000175 0 -0.011752 0 2650 
748 1 -0.00165724 -0.00250787 0.0126407 0.000635 0.0044108 -0.0114578 0.00075065 2650 
209 1 -0.000455064 -0.00303405 0.0120169 0.000635 0.0568153 0.147482 0.599002 2650 
81 1 -0.006012 -0.00179763 0.01255 0.000635 0 -0.011752 0 2650 
429 1 -0.004277 -0.00200763 0.012175 0.000175 0 -0.011752 0 2650 
989 1 -0.005011 -0.00315063 0.013629 0.000175 0 -0.011752 0 2650 
1005 1 -0.00107759 -0.00319003 0.0136087 0.000635 0.00216665 -0.0133087 0.00257234 2650 
693 1 -0.00872 -0.00173663 0.014089 0.000175 0 -0.011752 0 2650 
1174 1 -0.00572 -0.000354635 0.01399 0.000635 0 -0.011752 0 2650 
825 1 -0.001412 -0.000922635 0.014398 0.000175 0 -0.011752 0 2650 
306 1 -0.002003 -0.000437635 0.015202 6.3e-05 0 -0.011752 0 2650 
369 1 -0.003287 -0.00242263 0.016406 0.000175 0 -0.011752 0 2650 
372 1 -0.00297401 -0.00126361 0.0163469 6.3e-05 0.0083903 -0.155822 -0.00841689 2650 
996 1 -0.00225 -0.00113663 0.016025 0.000175 0 -0.011752 0 2650 
1084 1 -0.0624428 -0.00507358 0.0215863 0.000175 2.05002 -0.0354787 2.42966 2650 
340 1 -0.0631779 -0.0355532 0.027582 6.3e-05 1.56532 -0.0334316 3.59246 2650 
898 1 -0.0553711 -0.00821921 0.0297683 0.000175 -8.37232 -0.399813 4.53559 2650 
22 1 -0.00639676 -0.00496644 0.030159 0.000175 -0.967879 -0.187379 4.46696 2650 
1127 1 -0.0608737 -0.0184494 0.031988 0.000175 1.65763 -0.321201 3.04722 2650 
157 1 -0.059123 -0.0128032 0.0352288 0.000175 1.70439 -0.287633 2.87744 2650 
647 1 -0.0553483 -0.0183221 0.0401334 0.000635 2.18891 -0.803003 2.94974 2650 
375 1 -0.0492561 -0.0382035 0.0469085 0.000984 2.99719 -1.15246 3.17428 2650 
934 1 -0.048385 -0.0208359 0.0491066 6.3e-05 2.41842 -0.390333 2.35966 2650 
1083 1 -0.0454691 -0.0220554 0.0510574 0.000635 3.70161 -0.306836 3.26889 2650 
130 1 -0.0465777 -0.0209578 0.050673 0.000175 2.80995 0.0985007 2.60948 2650 
371 1 -0.040116 -0.0235174 0.0560629 6.3e-05 2.70433 -0.549696 1.96879 2650 
1057 1 -0.0268029 -0.0289983 0.0633868 0.000175 3.37749 -0.441527 1.37653 2650 
351 1 -0.0265604 -0.0118497 0.0629709 0.000635 3.43318 -0.224372 1.44057 2650 
821 1 -0.00439984 -0.0147585 0.0686842 0.000175 3.40645 -0.277347 0.235385 2650 
953 1 -0.003071 0.000299365 -0.015998 0.000175 0 -0.011752 0 2650 
293 1 -7.36368e-05 0.000818317 -0.016466 0.000175 -0.0117034 -0.00694637 -0.00874513 2650 
290 1 -0.003992 0.00217437 -0.015983 0.000175 0 -0.011752 0 2650 
607 1 -0.00209798 0.00673664 -0.0156603 0.000984 0.00600795 -0.00740343 0.00619536 2650 
628 1 -0.000440977 0.0059967 -0.0159226 0.000175 -0.0715787 -0.0423337 -0.270691 2650 
217 1 -0.00368027 0.00737042 -0.0156876 0.000635 0.0040611 0.0267167 0.022363 2650 
359 1 -0.00546204 0.00978236 -0.0156182 0.000175 0.0166436 0.0468792 0.0309615 2650 
1264 1 -0.001323 0.000485365 -0.014658 6.3e-05 0 -0.011752 0 2650 
751 1 -0.00285343 0.0032822 -0.0147766 0.000635 0.00577595 -0.0798241 0.125926 2650 
1187 1 -0.000612 0.00302137 -0.014577 0.000175 0 -0.011752 0 2650 
675 1 -0.00673872 0.00542505 -0.0147262 0.000635 0.0168283 -0.0100522 0.0118645 2650 
1278 1 -0.00487774 0.00597905 -0.0154487 0.000635 -0.00424038 -0.0157877 -0.00166769 2650 
555 1 -0.00028021 0.00682806 -0.0154745 0.000635 -0.0441468 -0.0273786 -0.0351607 2650 
888 1 -0.00386525 0.00749205 -0.0148678 0.000175 -0.0350305 -0.0188155 0.0404576 2650 
408 1 -0.00543767 0.00871539 -0.0148516 0.000984 -0.00109296 0.0354732 0.0239991 2650 
518 1 -0.00317574 0.0085035 -0.0152525 0.000635 0.0220983 0.0103034 0.0193322 2650 
844 1 -0.00153173 0.00940782 -0.0151035 0.000635 -0.0237203 0.0222834 -0.024592 2650 
373 1 -0.000471457 0.00919732 -0.0153794 6.3e-05 -0.0368098 0.0171056 -0.0229183 2650 
396 1 -0.00404639 0.00991997 -0.0146268 0.000175 -0.0107309 0.0628918 -0.0171945 2650 
1204 1 -0.003116 0.0111274 -0.014622 0.000635 0 -0.011752 0 2650 
204 1 -0.001409 0.0111894 -0.014841 6.3e-05 0 -0.011752 0 2650 
192 1 -0.00583119 0.0132339 -0.0146837 0.000175 -0.0462991 0.0792923 -0.0959924 2650 
173 1 -0.00387649 0.020742 -0.0149738 0.000984 0.0119623 0.118865 0.0763975 2650 
753 1 -0.00515293 0.000269035 -0.0142512 0.000635 0.05183 -0.122698 -0.0811229 2650 
137 1 -0.00739231 0.00204007 -0.0136846 0.000984 -0.0466782 -0.00359581 -0.138434 2650 
526 1 -0.00299005 0.00131075 -0.0138496 0.000175 -0.0231561 -0.101282 -0.290645 2650 
465 1 -0.00198844 0.00234995 -0.0132275 0.000175 -0.0827734 -0.0657559 -0.186912 2650 
78 1 -0.005388 0.00336837 -0.014019 0.000635 0 -0.011752 0 2650 
691 1 -0.004594 0.00434337 -0.013738 0.000175 0 -0.011752 0 2650 
650 1 -0.00217328 0.00597791 -0.0135694 0.000635 0.0805742 0.0163982 0.0193766 2650 
905 1 -0.00257285 0.00768236 -0.0137394 0.000984 -0.0205308 0.0232374 0.00303336 2650 
43 1 -0.00754049 0.00869985 -0.0143897 0.000635 -0.0403663 0.0151123 -0.0150147 2650 
880 1 -0.00390282 0.00915643 -0.0143904 0.000635 0.0148711 0.0601865 -0.00570788 2650 
1068 1 -0.00223263 0.00976424 -0.013591 0.000984 0.00745569 0.0324478 0.00287085 2650 
428 1 -0.009245 0.0108334 -0.013699 0.000175 0 -0.011752 0 2650 
872 1 -0.006043 0.0112634 -0.014299 0.000984 0 -0.011752 0 2650 
5 1 -0.00330463 0.01154 -0.0134043 0.000635 -0.0115018 0.0960296 -0.074435 2650 
623 1 -0.001088 0.0113114 -0.013684 0.000175 0 -0.011752 0 2650 
297 1 -0.0023851 0.0127113 -0.0143536 0.000175 -0.0318381 0.0247088 -0.0877412 2650 
773 1 -0.00186335 0.0167786 -0.0139363 0.000984 -0.0267595 0.0983657 -0.119848 2650 
345 1 -0.00631179 0.0259815 -0.0140541 0.000635 -0.146272 0.288552 -0.151294 2650 
942 1 -0.00303481 0.00135598 -0.0128726 0.000635 0.00831716 -0.0256347 -0.221188 2650 
333 1 -0.00412092 0.00460935 -0.0120334 0.000175 0.0719145 0.0479667 -0.212668 2650 
1025 1 -0.00646615 0.00930252 -0.0126833 0.000175 -0.0291616 -0.00359526 -0.0119935 2650 
443 1 -0.0052613 0.00928045 -0.0124334 0.000984 -0.0158328 0.0162547 -0.0251687 2650 
1124 1 -0.00706869 0.00975005 -0.0120922 0.000175 0.06538 0.0114199 -0.0129586 2650 
832 1 -0.000975 0.00953437 -0.013077 0.000175 0 -0.011752 0 2650 
481 1 -0.00546945 0.0117929 -0.0122474 0.000635 0.0037118 -0.0146458 -0.00737196 2650 
315 1 -0.00403168 0.0137852 -0.0120949 0.000635 -0.0168578 0.0910276 -0.0646908 2650 
348 1 -0.00938924 0.000628485 -0.0115453 0.000635 -0.00374862 -0.0910481 -0.0536952 2650 
928 1 -0.009554 0.00211737 -0.011544 0.000175 0 -0.011752 0 2650 
826 1 -0.001496 0.00205937 -0.01086 0.000175 0 -0.011752 0 2650 
768 1 -0.00855164 0.00297769 -0.0110438 6.3e-05 -0.020092 -0.0848678 -0.139278 2650 
694 1 -0.000593 0.00424937 -0.011275 0.000175 0 -0.011752 0 2650 
474 1 -0.00698509 0.0051189 -0.010947 0.000984 0.0193402 -0.0092893 -0.00971943 2650 
213 1 -0.00164768 0.00577143 -0.0118256 0.000635 -0.0376893 0.00816512 0.116771 2650 
686 1 -0.00691875 0.00720167 -0.0112302 0.000635 -0.0490763 0.0375815 -0.0140345 2650 
492 1 -0.00751124 0.00835949 -0.0115887 0.000175 0.0314314 -0.0302357 0.00701727 2650 
727 1 -0.011638 0.00974437 -0.011173 0.000175 0 -0.011752 0 2650 
642 1 -0.010609 0.00993037 -0.011832 0.000635 0 -0.011752 0 2650 
740 1 -0.00815652 0.00965081 -0.0113154 0.000984 0.0645704 0.0412302 0.0572902 2650 
565 1 -0.0069 0.0103554 -0.010979 0.000175 0 -0.011752 0 2650 
1165 1 -0.00498905 0.0103143 -0.0119013 6.3e-05 6.36838e-05 0.0159872 0.00158631 2650 
57 1 -0.012547 0.0120984 -0.01103 0.000175 0 -0.011752 0 2650 
1047 1 -0.0110389 0.0125187 -0.0111171 0.000635 0.0464239 0.0753315 0.0137488 2650 
1050 1 -0.002301 0.0124284 -0.011722 0.000635 0 -0.011752 0 2650 
405 1 -0.009473 0.0134134 -0.011251 6.3e-05 0 -0.011752 0 2650 
409 1 -0.0122995 0.000621259 -0.0100825 0.000984 0.00091044 0.00354532 0.0257363 2650 
352 1 -0.0101571 9.6231e-05 -0.0103072 0.000635 0.00357142 -0.0583288 -0.0149477 2650 
1039 1 -0.00562651 0.000715577 -0.0104952 0.000635 -0.102115 -0.0524962 -0.0364475 2650 
786 1 -0.00452742 0.00175314 -0.00982244 0.000635 -0.0220219 0.0255046 -0.0961723 2650 
1114 1 -0.001914 0.00347237 -0.010341 0.000635 0 -0.011752 0 2650 
1101 1 -0.0117044 0.00437439 -0.0100472 0.000984 -0.00719324 -0.0319591 0.0491555 2650 
715 1 -0.0130842 0.00705488 -0.0096768 0.000635 0.0358598 -0.0110814 0.0210395 2650 
195 1 -0.0122955 0.00765643 -0.010572 0.000175 0.0897043 0.0223821 0.0948511 2650 
904 1 -0.0106745 0.00787599 -0.0104938 0.000984 0.0415328 0.025321 0.0507663 2650 
1067 1 -0.0123236 0.00938074 -0.00966513 6.3e-05 -0.0448277 0.0193149 -0.164297 2650 
505 1 -0.002044 0.00864237 -0.010315 6.3e-05 0 -0.011752 0 2650 
488 1 -0.007083 0.00958737 -0.009679 0.000635 0 -0.011752 0 2650 
123 1 -0.006406 0.0104384 -0.010143 0.000175 0 -0.011752 0 2650 
571 1 -0.008585 0.0120174 -0.010244 6.3e-05 0 -0.011752 0 2650 
971 1 -0.0059897 0.0120331 -0.0104349 0.000984 -0.0806822 0.0642687 -0.0565579 2650 
1128 1 -0.01255 0.0132264 -0.009723 0.000175 0 -0.011752 0 2650 
424 1 -0.00596362 0.0140022 -0.00995973 0.000635 -0.0454406 0.0673932 -0.00533758 2650 
920 1 -0.0109563 0.0209064 -0.0106194 0.000175 0.140134 0.125325 0.129289 2650 
666 1 -0.00827416 0.0203654 -0.0101018 0.000175 0.0691804 0.200035 0.133782 2650 
1019 1 -0.012198 0.000328365 -0.008782 0.000175 0 -0.011752 0 2650 
949 1 -0.00945543 0.000262378 -0.00926194 0.000635 -0.030545 -0.0177053 -0.000371239 2650 
1214 1 -0.00658906 0.000892943 -0.00945513 0.000635 -0.00725045 0.0289327 -0.112805 2650 
1024 1 -0.00169194 0.000962866 -0.00902614 0.000175 0.0424232 -0.0349362 0.0452757 2650 
861 1 -0.000803 0.000319365 -0.009051 0.000175 0 -0.011752 0 2650 
695 1 -0.002069 0.00167837 -0.009441 0.000175 0 -0.011752 0 2650 
1059 1 -0.0115852 0.00322974 -0.00884074 0.000175 -0.00647247 -0.00725608 -0.00205523 2650 
548 1 -0.0107068 0.00328448 -0.00877238 0.000635 -0.020515 -0.00280925 -0.00369352 2650 
761 1 -0.0065049 0.00252464 -0.00893755 0.000175 -0.0469621 0.0491802 -0.112966 2650 
903 1 -0.00725172 0.00381353 -0.00926722 0.000984 -0.00215207 -0.0411831 -0.00856983 2650 
100 1 -0.0130692 0.00500822 -0.00957423 6.3e-05 -0.0867356 -0.188753 -0.0801698 2650 
944 1 -0.00503449 0.00586821 -0.00847944 0.000635 -0.00349628 -0.0120875 -0.00441956 2650 
992 1 -0.003399 0.00512337 -0.009024 0.000175 0 -0.011752 0 2650 
1065 1 -0.005552 0.00625437 -0.008858 6.3e-05 0 -0.011752 0 2650 
711 1 -0.00106582 0.00648969 -0.00877316 0.000635 0.0139565 0.0954341 0.183241 2650 
859 1 -0.013502 0.00829937 -0.009599 0.000175 0 -0.011752 0 2650 
248 1 -0.005727 0.00742337 -0.008839 0.000635 0 -0.011752 0 2650 
803 1 -0.000513 0.00730137 -0.009445 6.3e-05 0 -0.011752 0 2650 
177 1 -0.011529 0.008477 -0.00860562 0.000635 0.0207179 0.0309819 -0.0158657 2650 
890 1 -0.008469 0.00853037 -0.008886 0.000175 0 -0.011752 0 2650 
868 1 -0.005513 0.0101754 -0.008425 6.3e-05 0 -0.011752 0 2650 
1210 1 -0.00247692 0.0104216 -0.00862395 0.000635 -0.150031 0.0636248 -0.091984 2650 
1033 1 -0.0134532 0.0114698 -0.00949253 6.3e-05 -0.00923575 0.0157905 -0.0112323 2650 
1011 1 -0.0129196 0.0111037 -0.00885853 0.000635 0.0560955 0.0480386 0.0310816 2650 
472 1 -0.00993 0.0115804 -0.009493 6.3e-05 0 -0.011752 0 2650 
590 1 -0.009212 0.0113464 -0.008517 0.000175 0 -0.011752 0 2650 
1169 1 -0.00390715 0.0136056 -0.00945478 0.000984 -0.0291425 0.0305905 -0.0119138 2650 
15 1 -0.0101484 0.0152663 -0.00895349 0.000635 -0.10533 0.141423 -0.102198 2650 
978 1 -0.00342302 0.0156336 -0.00905311 0.000635 0.104855 0.0410331 0.114062 2650 
107 1 -0.00839872 0.0183392 -0.00878159 0.000635 0.0276959 0.101187 0.12241 2650 
111 1 -0.000711952 0.0261853 -0.00893836 0.000635 0.150399 0.230668 0.153542 2650 
641 1 -0.00930098 0.0317357 -0.00861178 0.000984 -0.190111 0.352411 -0.209063 2650 
561 1 -0.00920026 0.000737943 -0.00827813 0.000175 -0.00168989 -0.0110655 0.0104629 2650 
1069 1 -0.00589415 0.000454051 -0.00779154 0.000984 -0.0234596 -0.00792749 -0.0890268 2650 
824 1 -0.00292009 0.000425043 -0.00823833 0.000175 -0.0134578 0.0446044 -0.0267691 2650 
995 1 -0.002163 0.000644365 -0.007759 0.000175 0 -0.011752 0 2650 
245 1 -0.0081581 0.0015768 -0.00835994 0.000635 -0.0684802 0.0173562 -0.102901 2650 
547 1 -0.0119412 0.00265108 -0.00839478 0.000635 -0.000132623 -0.0119243 0.000135122 2650 
484 1 -0.010119 0.00244373 -0.00800971 0.000635 -0.0207652 -0.038872 -0.0308433 2650 
438 1 -0.00884737 0.00342478 -0.0077988 6.3e-05 -0.033357 0.0456558 -0.108413 2650 
618 1 -0.00905665 0.00258315 -0.00732199 0.000635 -0.0198207 0.031659 -0.0390096 2650 
915 1 -0.000845263 0.00261811 -0.00810889 0.000635 -0.00872097 0.029887 -0.0882727 2650 
462 1 -0.000145525 0.0031131 -0.00819997 0.000175 0.0381519 0.0250872 -0.0232051 2650 
285 1 -0.0104252 0.00381021 -0.00727695 0.000635 -0.0431806 0.0184148 -0.0513586 2650 
660 1 -0.006384 0.00480837 -0.007769 0.000175 0 -0.011752 0 2650 
289 1 -0.00432959 0.0058796 -0.00741151 0.000635 -0.0060874 -0.0139377 -0.000806168 2650 
1240 1 -0.000289586 0.0048089 -0.00732364 0.000635 -0.0489649 -0.0230198 -0.120424 2650 
612 1 -0.0132862 0.0064856 -0.00810681 0.000635 -0.141305 -0.0515081 0.00117373 2650 
804 1 -0.0131097 0.00876513 -0.0079675 0.000984 -0.00540609 -0.0176085 -0.0072956 2650 
1003 1 -0.0105805 0.00920822 -0.00750624 0.000984 0.0118374 0.0415564 -0.0102951 2650 
383 1 -0.00767753 0.00963068 -0.00733973 0.000635 0.00323622 -0.0133594 -0.0208722 2650 
277 1 -0.0137465 0.0116788 -0.00802298 0.000635 0.0645396 0.0982606 0.029504 2650 
101 1 -0.0142383 0.0119735 -0.00753551 6.3e-05 -0.0125237 0.0383014 0.0374527 2650 
780 1 -0.00272078 0.0143095 -0.00738074 0.000635 0.0232586 0.0368637 0.00641686 2650 
30 1 -0.014592 0.0173489 -0.00819358 0.000175 0.0695555 0.112191 0.064087 2650 
754 1 -0.00117744 0.0219835 -0.00818158 0.000635 -0.0428555 0.169865 -0.0876621 2650 
319 1 -0.012451 0.000762365 -0.006973 0.000635 0 -0.011752 0 2650 
323 1 -0.0103712 0.00109323 -0.00633106 0.000635 -0.0699748 -0.00879802 -0.0350233 2650 
76 1 -0.0109849 0.00213479 -0.00680624 0.000635 -0.08961 -0.0093745 -0.0389985 2650 
601 1 -0.00940747 0.00207544 -0.00678487 0.000175 -0.122991 0.0563481 -0.0542823 2650 
579 1 -0.00860099 0.00124546 -0.00702999 0.000635 -0.069114 0.00045648 -0.0946478 2650 
1283 1 -0.01362 0.00294937 -0.006565 0.000175 0 -0.011752 0 2650 
750 1 -0.0116378 0.00335112 -0.00708347 0.000635 -0.0405558 -0.0223624 -0.0012636 2650 
404 1 -0.010429 0.00331937 -0.006279 0.000175 0 -0.011752 0 2650 
55 1 -0.00364906 0.00346749 -0.00670658 0.000175 0.220261 -0.0878018 -0.00784956 2650 
1303 1 -0.0144715 0.00439451 -0.00611998 0.000635 -0.0178892 -0.0604408 0.0881631 2650 
816 1 -0.00608516 0.0041676 -0.00710297 0.000635 0.0450956 0.0407739 -0.111493 2650 
189 1 -0.00157042 0.00712781 -0.00710718 0.000175 -0.0131928 -0.0758041 -0.1357 2650 
1254 1 -0.009161 0.00747037 -0.006799 0.000175 0 -0.011752 0 2650 
544 1 -0.008005 0.00829437 -0.007118 0.000635 0 -0.011752 0 2650 
1310 1 -0.00765872 0.010042 -0.00607618 0.000635 0.0308238 0.0309776 -0.0185792 2650 
664 1 -0.001508 0.00965737 -0.006884 0.000175 0 -0.011752 0 2650 
478 1 -0.0115486 0.0109702 -0.00659542 0.000635 -0.0246956 0.00724031 -0.0182173 2650 
1180 1 -0.0028789 0.0115981 -0.00602414 0.000635 0.00743873 -0.0126759 0.0119155 2650 
848 1 -0.014956 0.0125844 -0.0062 0.000635 0 -0.011752 0 2650 
414 1 -0.001188 0.0127404 -0.006406 0.000635 0 -0.011752 0 2650 
261 1 -0.000427 0.0124674 -0.006302 0.000175 0 -0.011752 0 2650 
321 1 -0.0146716 0.0175405 -0.0062085 0.000635 -0.18105 0.171008 -0.0385356 2650 
1048 1 -0.00792916 0.0179294 -0.0061954 0.000635 0.184557 0.137294 0.174808 2650 
1273 1 -0.014995 0.00206737 -0.005766 0.000635 0 -0.011752 0 2650 
1172 1 -0.00913127 0.0019676 -0.00596798 0.000635 -0.056461 0.0177924 -0.0855066 2650 
85 1 -0.0130017 0.00469201 -0.00535165 0.000635 -0.00404381 -0.0143413 -0.00809525 2650 
924 1 -0.0101427 0.00405732 -0.00547144 0.000175 -0.0164001 0.00131479 -0.0629656 2650 
434 1 -0.00902307 0.00462313 -0.00512516 0.000175 -0.0190396 0.0095533 0.016866 2650 
23 1 -0.003386 0.00380537 -0.005619 0.000175 0 -0.011752 0 2650 
948 1 -0.0143925 0.00525595 -0.005105 0.000635 -0.00296693 0.0193224 0.0604324 2650 
564 1 -0.0139853 0.00604936 -0.00552254 0.000175 -0.0226248 0.0275898 -0.0444282 2650 
831 1 -0.0104191 0.00636343 -0.00531475 0.000175 0.0132498 -0.0866504 0.00949507 2650 
1122 1 -0.00292912 0.00642709 -0.005422 0.000175 0.00174374 0.179418 0.199483 2650 
742 1 -0.015197 0.00829937 -0.005059 0.000635 0 -0.011752 0 2650 
873 1 -0.0018988 0.00783653 -0.00596075 0.000635 -0.0302953 -0.060921 -0.118467 2650 
56 1 -0.010979 0.00898337 -0.004916 0.000175 0 -0.011752 0 2650 
1279 1 -0.00901137 0.00901041 -0.00501448 0.000635 -0.00245563 0.00564789 -0.00909513 2650 
574 1 -0.0104762 0.0101737 -0.00566181 0.000984 -0.018698 0.011891 -0.0105943 2650 
49 1 -0.002902 0.00968937 -0.005193 0.000635 0 -0.011752 0 2650 
1073 1 -0.006126 0.0127674 -0.005935 0.000635 0 -0.011752 0 2650 
680 1 -0.0026404 0.014674 -0.00556167 0.000635 -0.0175037 0.0362058 -0.114679 2650 
262 1 -0.010012 0.00115637 -0.004412 0.000175 0 -0.011752 0 2650 
923 1 -0.001619 0.00194937 -0.004172 0.000175 0 -0.011752 0 2650 
1205 1 -0.00320409 0.0041259 -0.0046763 0.000635 0.0513314 0.0123413 -0.106127 2650 
899 1 -0.008738 0.00556137 -0.003735 0.000175 0 -0.011752 0 2650 
459 1 -0.00614434 0.0051058 -0.00478676 0.000175 -0.107572 0.0743955 -0.0595035 2650 