LIGGGHTS (Version LIGGGHTS-PUBLIC 3.8.0, compiled 2022-11-07-16:55:38 by serperd1, git commit 86544c3f1215bc9744d7929e3eacf53ba086af9e)
units si #
dimension 3 #
newton off #
boundary f f f #
atom_style sphere #
pair_style gran model hertz tangential history #
communicate single vel yes #
region outer_basket cylinder y 0 0 0.15 -0.15 0.15 #
create_box 3 outer_basket #
Created orthogonal box = (-0.15 -0.15 -0.15) to (0.15 0.15 0.15)
  2 by 4 by 5 MPI processor grid
variable my_omega equal 157.0796 #
fix cone_mesh all mesh/surface file cone.stl type 3 scale 1 #
fix rotating_wall_1 all move/mesh mesh cone_mesh rotate/variable origin 0 0 0 axis 0 1 0 omega v_my_omega #
fix filter_mesh_walls all mesh/surface file dem_walls_45X_14micronpore_mod_mesh.stl type 2 scale 1e-3 curvature 1e-5 #
fix rotating_wall_2 all move/mesh mesh filter_mesh_walls rotate/variable origin 0 0 0 axis 0 1 0 omega v_my_omega #
fix inlet_cyl_wall_mesh all mesh/surface file in_cyl.stl type 3 scale 1 #
fix top_cyl_wall_mesh all mesh/surface file top_cyl.stl type 3 scale 1 #
fix rotating_wall_4 all move/mesh mesh top_cyl_wall_mesh rotate/variable origin 0 0 0 axis 0 1 0 omega v_my_omega #
fix bot_cyl_wall_mesh all mesh/surface file bot_cyl.stl type 3 scale 1 #
fix rotating_wall_5 all move/mesh mesh bot_cyl_wall_mesh rotate/variable origin 0 0 0 axis 0 1 0 omega v_my_omega #
fix bot_disk_wall_mesh all mesh/surface file bottom_disk.stl type 3 scale 1 #
fix rotating_wall_6 all move/mesh mesh bot_disk_wall_mesh rotate/variable origin 0 0 0 axis 0 1 0 omega v_my_omega #
fix top_disk_wall_mesh all mesh/surface file top_disk.stl type 3 scale 1 #
fix rotating_wall_7 all move/mesh mesh top_disk_wall_mesh rotate/variable origin 0 0 0 axis 0 1 0 omega v_my_omega #
fix GMSH_mesh_walls all wall/gran model hertz tangential history mesh n_meshes 7 meshes cone_mesh filter_mesh_walls top_cyl_wall_mesh bot_cyl_wall_mesh bot_disk_wall_mesh inlet_cyl_wall_mesh top_disk_wall_mesh #
fix Young_mod all property/global youngsModulus peratomtype 375000000 46000000 1000000000 #
fix Poisson_rat all property/global poissonsRatio peratomtype 0.32 0.42 0.29 #
fix Coeff_rest all property/global coefficientRestitution peratomtypepair 3 0.15 0.32 0.475 0.32 0.49 0.645 0.475 0.645 0.8 #
fix Coeff_fric all property/global coefficientFriction peratomtypepair 3 0.04 0.145 0.12 0.145 0.25 0.225 0.12 0.225 0.2 #

neighbor 0.00039366 bin #
neigh_modify delay 0 one 100000 page 5000000 #
fix r_0to10p all particletemplate/sphere 12345787 atom_type 1 density constant 2650 radius constant 6.3e-05 #
fix r_10to50p all particletemplate/sphere 15485863 atom_type 1 density constant 2650 radius constant 0.0001746 #
fix r_50to90p all particletemplate/sphere 15485867 atom_type 1 density constant 2650 radius constant 0.00063495 #
fix r_90to100p all particletemplate/sphere 32452843 atom_type 1 density constant 2650 radius constant 0.00098415 #
fix prob_par all particledistribution/discrete 32452867 4 r_0to10p 0.1 r_10to50p 0.4 r_50to90p 0.4 r_90to100p 0.1 #
pair_coeff * * #
timestep 4.8591e-08 #

fix nve_group all nve/sphere #
fix grav_fix all gravity 6.1081 vector 0.017 -0.0033 0 -1 0 #
fix cent_fix all centrifugal 157.0796 0.017 -0.0033 0.069 #

variable step equal step #
variable mycount equal count(all) #
fix print_amount_of_atoms all print 25 "${step} ${mycount}" file numatoms.txt screen no #
run 0 #
Setting up run at Wed Nov 23 14:54:44 2022

Memory usage per processor = 1079.82 Mbytes
    Step    Atoms         KinEng            CPU 
       0        0              0              0 
Loop time of 6.56308e-05 on 40 procs for 0 steps with 0 atoms, finish time Wed Nov 23 14:54:45 2022


Pair  time (%) = 0 (0)
Neigh time (%) = 0 (0)
Comm  time (%) = 0 (0)
Outpt time (%) = 0 (0)
Other time (%) = 6.56308e-05 (100)

Nlocal:    0 ave 0 max 0 min
Histogram: 40 0 0 0 0 0 0 0 0 0
Nghost:    0 ave 0 max 0 min
Histogram: 40 0 0 0 0 0 0 0 0 0
Neighs:    0 ave 0 max 0 min
Histogram: 40 0 0 0 0 0 0 0 0 0

Total # of neighbors = 0
Neighbor list builds = 0
Dangerous builds = 0
run 1 #
Setting up run at Wed Nov 23 14:54:45 2022

Memory usage per processor = 1079.82 Mbytes
    Step    Atoms         KinEng            CPU 
       0        0              0              0 
       1        0              0    0.013881299 
Loop time of 0.0139012 on 40 procs for 1 steps with 0 atoms, finish time Wed Nov 23 14:54:45 2022


Pair  time (%) = 2.85233e-06 (0.0205186)
Neigh time (%) = 0 (0)
Comm  time (%) = 0.00018003 (1.29507)
Outpt time (%) = 0.000332008 (2.38835)
Other time (%) = 0.0133863 (96.2961)

Nlocal:    0 ave 0 max 0 min
Histogram: 40 0 0 0 0 0 0 0 0 0
Nghost:    0 ave 0 max 0 min
Histogram: 40 0 0 0 0 0 0 0 0 0
Neighs:    0 ave 0 max 0 min
Histogram: 40 0 0 0 0 0 0 0 0 0

Total # of neighbors = 0
Neighbor list builds = 0
Dangerous builds = 0
read_dump dump.atom_info_1 1 x y z radius vx vy vz box no add yes replace no #
  orthogonal box = (-0.15 -0.15 -0.15) to (0.15 0.15 0.15)
  0 atoms before read
  1331 atoms in snapshot
  0 atoms purged
  0 atoms replaced
  0 atoms trimmed
  1331 atoms added
  1331 atoms after read
set atom * type 1 density 2650 vy -0.011752 #
  1331 settings made for type
  1331 settings made for density
  1331 settings made for vy
write_dump all mesh/stl filter_mesh_scaled*.stl filter_mesh_walls #
run 1 #
Setting up run at Wed Nov 23 14:54:46 2022

Memory usage per processor = 1084.21 Mbytes
    Step    Atoms         KinEng            CPU 
       1     1331  2.0446559e-07              0 
       2     1331  2.5460957e-07    0.013456633 
Loop time of 0.0134713 on 40 procs for 1 steps with 1331 atoms, finish time Wed Nov 23 14:54:46 2022


Pair  time (%) = 3.0954e-06 (0.0229777)
Neigh time (%) = 0 (0)
Comm  time (%) = 7.36555e-06 (0.0546757)
Outpt time (%) = 0.000361368 (2.6825)
Other time (%) = 0.0130995 (97.2399)

Nlocal:    33.275 ave 555 max 0 min
Histogram: 36 0 2 0 0 0 0 0 0 2
Nghost:    13.575 ave 173 max 0 min
Histogram: 36 0 0 0 0 1 1 0 0 2
Neighs:    10.175 ave 168 max 0 min
Histogram: 36 0 2 0 0 0 0 0 0 2

Total # of neighbors = 407
Ave neighs/atom = 0.305785
Neighbor list builds = 0
Dangerous builds = 0
write_dump all custom dump.atom_info_ac_* id type x y z radius vx vy vz density #
run 205798
Setting up run at Wed Nov 23 14:54:46 2022

Memory usage per processor = 1084.21 Mbytes
    Step    Atoms         KinEng            CPU 
       2     1331  2.5460957e-07              0 
  205800     1331  6.9323269e-05      3068.2164 
Loop time of 3068.22 on 40 procs for 205798 steps with 1331 atoms, finish time Wed Nov 23 15:45:54 2022


Pair  time (%) = 0.594464 (0.0193749)
Neigh time (%) = 0.408145 (0.0133024)
Comm  time (%) = 1.70889 (0.0556967)
Outpt time (%) = 3.21437e-05 (1.04763e-06)
Other time (%) = 3065.5 (99.9116)

Nlocal:    33.275 ave 551 max 0 min
Histogram: 36 0 2 0 0 0 0 0 0 2
Nghost:    13.85 ave 173 max 0 min
Histogram: 36 0 0 0 0 1 1 0 0 2
Neighs:    11.2 ave 192 max 0 min
Histogram: 36 1 1 0 0 0 0 0 1 1

Total # of neighbors = 448
Ave neighs/atom = 0.336589
Neighbor list builds = 550
Dangerous builds = 0
write_dump all custom dump.atom_info_ac_* id type x y z radius vx vy vz density #
run 205798
Setting up run at Wed Nov 23 15:45:54 2022

Memory usage per processor = 1084.21 Mbytes
    Step    Atoms         KinEng            CPU 
  205800     1331  6.9323269e-05              0 
  411598     1331  0.00040113192       3037.966 
Loop time of 3037.97 on 40 procs for 205798 steps with 1331 atoms, finish time Wed Nov 23 16:36:32 2022


Pair  time (%) = 0.600125 (0.0197542)
Neigh time (%) = 0.406644 (0.0133854)
Comm  time (%) = 1.74916 (0.0575768)
Outpt time (%) = 0.000843526 (2.77661e-05)
Other time (%) = 3035.21 (99.9093)

Nlocal:    33.275 ave 539 max 0 min
Histogram: 36 0 2 0 0 0 0 0 0 2
Nghost:    13.625 ave 168 max 0 min
Histogram: 36 0 0 0 0 1 1 0 0 2
Neighs:    11.6 ave 194 max 0 min
Histogram: 36 1 1 0 0 0 0 0 0 2

Total # of neighbors = 464
Ave neighs/atom = 0.34861
Neighbor list builds = 550
Dangerous builds = 0
write_dump all custom dump.atom_info_ac_* id type x y z radius vx vy vz density #
run 205798
Setting up run at Wed Nov 23 16:36:32 2022

Memory usage per processor = 1084.21 Mbytes
    Step    Atoms         KinEng            CPU 
  411598     1331  0.00040113192              0 
  617396     1331  0.00080880771      3216.4773 
Loop time of 3216.48 on 40 procs for 205798 steps with 1331 atoms, finish time Wed Nov 23 17:30:09 2022


Pair  time (%) = 0.60896 (0.0189325)
Neigh time (%) = 0.408803 (0.0127096)
Comm  time (%) = 1.84234 (0.0572781)
Outpt time (%) = 0.000904726 (2.81278e-05)
Other time (%) = 3213.62 (99.9111)

Nlocal:    33.275 ave 520 max 0 min
Histogram: 36 0 2 0 0 0 0 0 0 2
Nghost:    13.175 ave 162 max 0 min
Histogram: 36 0 0 0 0 1 1 0 0 2
Neighs:    11.9 ave 192 max 0 min
Histogram: 36 0 2 0 0 0 0 0 0 2

Total # of neighbors = 476
Ave neighs/atom = 0.357626
Neighbor list builds = 550
Dangerous builds = 0
write_dump all custom dump.atom_info_ac_* id type x y z radius vx vy vz density #
run 205798
Setting up run at Wed Nov 23 17:30:09 2022

Memory usage per processor = 1084.21 Mbytes
    Step    Atoms         KinEng            CPU 
  617396     1331  0.00080880771              0 
  823194     1331   0.0013877873      3076.2879 
Loop time of 3076.29 on 40 procs for 205798 steps with 1331 atoms, finish time Wed Nov 23 18:21:25 2022


Pair  time (%) = 0.609842 (0.019824)
Neigh time (%) = 0.411694 (0.0133828)
Comm  time (%) = 1.95501 (0.063551)
Outpt time (%) = 0.00088765 (2.88546e-05)
Other time (%) = 3073.31 (99.9032)

Nlocal:    33.275 ave 512 max 0 min
Histogram: 36 0 2 0 0 0 0 0 0 2
Nghost:    12.575 ave 154 max 0 min
Histogram: 36 0 0 0 0 1 0 1 0 2
Neighs:    12 ave 193 max 0 min
Histogram: 36 0 2 0 0 0 0 0 0 2

Total # of neighbors = 480
Ave neighs/atom = 0.360631
Neighbor list builds = 550
Dangerous builds = 0
write_dump all custom dump.atom_info_ac_* id type x y z radius vx vy vz density #
run 205798
Setting up run at Wed Nov 23 18:21:25 2022

Memory usage per processor = 1084.21 Mbytes
    Step    Atoms         KinEng            CPU 
  823194     1331   0.0013877873              0 
 1028992     1331   0.0013371598      3049.8728 
Loop time of 3049.87 on 40 procs for 205798 steps with 1331 atoms, finish time Wed Nov 23 19:12:15 2022


Pair  time (%) = 0.612665 (0.0200882)
Neigh time (%) = 0.412199 (0.0135153)
Comm  time (%) = 1.93634 (0.0634893)
Outpt time (%) = 0.000660523 (2.16574e-05)
Other time (%) = 3046.91 (99.9029)

Nlocal:    33.275 ave 499 max 0 min
Histogram: 36 0 1 1 0 0 0 0 0 2
Nghost:    11.925 ave 157 max 0 min
Histogram: 36 0 0 0 1 0 1 0 1 1
Neighs:    12.55 ave 200 max 0 min
Histogram: 36 0 2 0 0 0 0 0 0 2

Total # of neighbors = 502
Ave neighs/atom = 0.37716
Neighbor list builds = 550
Dangerous builds = 0
write_dump all custom dump.atom_info_ac_* id type x y z radius vx vy vz density #
run 205798
Setting up run at Wed Nov 23 19:12:15 2022

Memory usage per processor = 1084.21 Mbytes
    Step    Atoms         KinEng            CPU 
 1028992     1331   0.0013371598              0 
 1234790     1331   0.0016604193        3054.41 
Loop time of 3054.41 on 40 procs for 205798 steps with 1331 atoms, finish time Wed Nov 23 20:03:10 2022


Pair  time (%) = 0.613139 (0.0200739)
Neigh time (%) = 0.415282 (0.0135961)
Comm  time (%) = 2.04414 (0.0669244)
Outpt time (%) = 0.00104432 (3.41904e-05)
Other time (%) = 3051.34 (99.8994)

Nlocal:    33.275 ave 496 max 0 min
Histogram: 36 0 0 2 0 0 0 0 0 2
Nghost:    11.275 ave 150 max 0 min
Histogram: 36 0 0 0 0 2 0 0 0 2
Neighs:    12.25 ave 192 max 0 min
Histogram: 36 0 1 1 0 0 0 0 0 2

Total # of neighbors = 490
Ave neighs/atom = 0.368144
Neighbor list builds = 550
Dangerous builds = 0
write_dump all custom dump.atom_info_ac_* id type x y z radius vx vy vz density #
run 205798
Setting up run at Wed Nov 23 20:03:10 2022

Memory usage per processor = 1084.21 Mbytes
    Step    Atoms         KinEng            CPU 
 1234790     1331   0.0016604193              0 
 1440588     1330   0.0015806195      3100.9331 
Loop time of 3100.93 on 40 procs for 205798 steps with 1330 atoms, finish time Wed Nov 23 20:54:51 2022


Pair  time (%) = 0.609157 (0.0196443)
Neigh time (%) = 0.415354 (0.0133945)
Comm  time (%) = 2.21733 (0.0715052)
Outpt time (%) = 0.00105979 (3.41764e-05)
Other time (%) = 3097.69 (99.8954)

Nlocal:    33.25 ave 493 max 0 min
Histogram: 36 0 0 2 0 0 0 0 0 2
Nghost:    10.975 ave 143 max 0 min
Histogram: 36 0 0 0 0 1 1 0 0 2
Neighs:    11.95 ave 187 max 0 min
Histogram: 36 0 1 1 0 0 0 0 0 2

Total # of neighbors = 478
Ave neighs/atom = 0.359398
Neighbor list builds = 550
Dangerous builds = 0
write_dump all custom dump.atom_info_ac_* id type x y z radius vx vy vz density #
run 205798
Setting up run at Wed Nov 23 20:54:51 2022

Memory usage per processor = 1084.21 Mbytes
    Step    Atoms         KinEng            CPU 
 1440588     1330   0.0015806195              0 
 1646386     1330   0.0030612735      3111.9128 
Loop time of 3111.91 on 40 procs for 205798 steps with 1330 atoms, finish time Wed Nov 23 21:46:43 2022


Pair  time (%) = 0.609311 (0.0195799)
Neigh time (%) = 0.415412 (0.0133491)
Comm  time (%) = 2.49204 (0.0800808)
Outpt time (%) = 0.00105053 (3.37583e-05)
Other time (%) = 3108.4 (99.887)

Nlocal:    33.25 ave 498 max 0 min
Histogram: 36 0 1 1 0 0 0 0 0 2
Nghost:    10.85 ave 145 max 0 min
Histogram: 36 0 0 0 0 2 0 0 1 1
Neighs:    12.025 ave 189 max 0 min
Histogram: 36 0 1 1 0 0 0 0 0 2

Total # of neighbors = 481
Ave neighs/atom = 0.361654
Neighbor list builds = 550
Dangerous builds = 0
write_dump all custom dump.atom_info_ac_* id type x y z radius vx vy vz density #
run 205798
Setting up run at Wed Nov 23 21:46:43 2022

Memory usage per processor = 1084.21 Mbytes
    Step    Atoms         KinEng            CPU 
 1646386     1330   0.0030612735              0 
 1852184     1330   0.0027021449      3073.8362 
Loop time of 3073.84 on 40 procs for 205798 steps with 1330 atoms, finish time Wed Nov 23 22:37:57 2022


Pair  time (%) = 0.603799 (0.0196432)
Neigh time (%) = 0.417718 (0.0135895)
Comm  time (%) = 2.10158 (0.06837)
Outpt time (%) = 0.000753348 (2.45084e-05)
Other time (%) = 3070.71 (99.8984)

Nlocal:    33.25 ave 494 max 0 min
Histogram: 36 0 1 1 0 0 0 0 0 2
Nghost:    10.55 ave 147 max 0 min
Histogram: 36 0 0 0 1 1 0 0 1 1
Neighs:    11.425 ave 186 max 0 min
Histogram: 36 0 1 1 0 0 0 0 1 1

Total # of neighbors = 457
Ave neighs/atom = 0.343609
Neighbor list builds = 550
Dangerous builds = 0
write_dump all custom dump.atom_info_ac_* id type x y z radius vx vy vz density #
run 205798
Setting up run at Wed Nov 23 22:37:57 2022

Memory usage per processor = 1084.21 Mbytes
    Step    Atoms         KinEng            CPU 
 1852184     1330   0.0027021449              0 
 2057982     1330   0.0028426378      3088.9823 
Loop time of 3088.98 on 40 procs for 205798 steps with 1330 atoms, finish time Wed Nov 23 23:29:26 2022


Pair  time (%) = 0.598238 (0.0193668)
Neigh time (%) = 0.421627 (0.0136494)
Comm  time (%) = 2.25146 (0.0728869)
Outpt time (%) = 0.00131172 (4.24643e-05)
Other time (%) = 3085.71 (99.8941)

Nlocal:    33.25 ave 487 max 0 min
Histogram: 36 0 1 1 0 0 0 0 0 2
Nghost:    10.1 ave 141 max 0 min
Histogram: 36 0 0 0 1 1 0 0 1 1
Neighs:    10.925 ave 176 max 0 min
Histogram: 36 0 1 1 0 0 0 0 1 1

Total # of neighbors = 437
Ave neighs/atom = 0.328571
Neighbor list builds = 550
Dangerous builds = 0
write_dump all custom dump.atom_info_ac_* id type x y z radius vx vy vz density #
run 205798
Setting up run at Wed Nov 23 23:29:26 2022

Memory usage per processor = 1084.21 Mbytes
    Step    Atoms         KinEng            CPU 
 2057982     1330   0.0028426378              0 
 2263780     1329   0.0035953481      3125.0442 
Loop time of 3125.04 on 40 procs for 205798 steps with 1329 atoms, finish time Thu Nov 24 00:21:32 2022


Pair  time (%) = 0.596979 (0.0191031)
Neigh time (%) = 0.422341 (0.0135147)
Comm  time (%) = 3.00489 (0.0961552)
Outpt time (%) = 0.0012293 (3.9337e-05)
Other time (%) = 3121.02 (99.8712)

Nlocal:    33.225 ave 488 max 0 min
Histogram: 36 0 1 1 0 0 0 0 0 2
Nghost:    9.775 ave 132 max 0 min
Histogram: 36 0 0 0 0 2 0 0 1 1
Neighs:    10.325 ave 162 max 0 min
Histogram: 36 0 1 1 0 0 0 0 0 2

Total # of neighbors = 413
Ave neighs/atom = 0.31076
Neighbor list builds = 550
Dangerous builds = 0
write_dump all custom dump.atom_info_ac_* id type x y z radius vx vy vz density #
run 205798
Setting up run at Thu Nov 24 00:21:32 2022

Memory usage per processor = 1084.21 Mbytes
    Step    Atoms         KinEng            CPU 
 2263780     1329   0.0035953481              0 
 2469578     1329   0.0039341061      3135.2527 
Loop time of 3135.25 on 40 procs for 205798 steps with 1329 atoms, finish time Thu Nov 24 01:13:47 2022


Pair  time (%) = 0.595756 (0.0190019)
Neigh time (%) = 0.422277 (0.0134687)
Comm  time (%) = 2.66853 (0.0851138)
Outpt time (%) = 0.00114046 (3.63755e-05)
Other time (%) = 3131.57 (99.8824)

Nlocal:    33.225 ave 485 max 0 min
Histogram: 36 0 1 1 0 0 0 0 0 2
Nghost:    9.5 ave 124 max 0 min
Histogram: 36 0 0 0 0 1 1 1 0 1
Neighs:    10.125 ave 163 max 0 min
Histogram: 36 0 1 1 0 0 0 0 1 1

Total # of neighbors = 405
Ave neighs/atom = 0.30474
Neighbor list builds = 550
Dangerous builds = 0
write_dump all custom dump.atom_info_ac_* id type x y z radius vx vy vz density #
run 205798
Setting up run at Thu Nov 24 01:13:47 2022

Memory usage per processor = 1084.21 Mbytes
    Step    Atoms         KinEng            CPU 
 2469578     1329   0.0039341061              0 
 2675376     1329   0.0044594888      3088.2111 
Loop time of 3088.21 on 40 procs for 205798 steps with 1329 atoms, finish time Thu Nov 24 02:05:15 2022


Pair  time (%) = 0.602208 (0.0195002)
Neigh time (%) = 0.424863 (0.0137576)
Comm  time (%) = 3.12653 (0.101241)
Outpt time (%) = 0.00110379 (3.57421e-05)
Other time (%) = 3084.06 (99.8655)

Nlocal:    33.225 ave 484 max 0 min
Histogram: 36 0 1 1 0 0 0 0 0 2
Nghost:    9.325 ave 123 max 0 min
Histogram: 36 0 0 0 0 1 1 1 0 1
Neighs:    10.1 ave 163 max 0 min
Histogram: 36 0 2 0 0 0 0 0 1 1

Total # of neighbors = 404
Ave neighs/atom = 0.303988
Neighbor list builds = 550
Dangerous builds = 0
write_dump all custom dump.atom_info_ac_* id type x y z radius vx vy vz density #
run 205798
Setting up run at Thu Nov 24 02:05:15 2022

Memory usage per processor = 1084.21 Mbytes
    Step    Atoms         KinEng            CPU 
 2675376     1329   0.0044594888              0 
 2881174     1329    0.005109352      3095.1756 
Loop time of 3095.18 on 40 procs for 205798 steps with 1329 atoms, finish time Thu Nov 24 02:56:51 2022


Pair  time (%) = 0.595878 (0.0192518)
Neigh time (%) = 0.423654 (0.0136875)
Comm  time (%) = 3.16483 (0.10225)
Outpt time (%) = 0.000839753 (2.7131e-05)
Other time (%) = 3090.99 (99.8648)

Nlocal:    33.225 ave 490 max 0 min
Histogram: 36 0 1 1 0 0 0 0 0 2
Nghost:    9.6 ave 128 max 0 min
Histogram: 36 0 0 0 0 1 1 1 0 1
Neighs:    10.8 ave 181 max 0 min
Histogram: 36 0 2 0 0 0 0 0 1 1

Total # of neighbors = 432
Ave neighs/atom = 0.325056
Neighbor list builds = 550
Dangerous builds = 0
write_dump all custom dump.atom_info_ac_* id type x y z radius vx vy vz density #
run 205798
Setting up run at Thu Nov 24 02:56:51 2022

Memory usage per processor = 1084.21 Mbytes
    Step    Atoms         KinEng            CPU 
 2881174     1329    0.005109352              0 
 3086972     1328     0.00557851      3119.8492 
Loop time of 3119.85 on 40 procs for 205798 steps with 1328 atoms, finish time Thu Nov 24 03:48:51 2022


Pair  time (%) = 0.593483 (0.0190228)
Neigh time (%) = 0.422823 (0.0135527)
Comm  time (%) = 3.22492 (0.103368)
Outpt time (%) = 0.00128396 (4.11546e-05)
Other time (%) = 3115.61 (99.864)

Nlocal:    33.2 ave 485 max 0 min
Histogram: 36 0 1 1 0 0 0 0 0 2
Nghost:    9.675 ave 133 max 0 min
Histogram: 36 0 0 0 0 2 0 1 0 1
Neighs:    9.725 ave 181 max 0 min
Histogram: 36 1 1 0 0 0 0 1 0 1

Total # of neighbors = 389
Ave neighs/atom = 0.292922
Neighbor list builds = 550
Dangerous builds = 0
write_dump all custom dump.atom_info_ac_* id type x y z radius vx vy vz density #
run 205798
Setting up run at Thu Nov 24 03:48:51 2022

Memory usage per processor = 1084.21 Mbytes
    Step    Atoms         KinEng            CPU 
 3086972     1328     0.00557851              0 
 3292770     1328   0.0062191814      3129.3111 
Loop time of 3129.31 on 40 procs for 205798 steps with 1328 atoms, finish time Thu Nov 24 04:41:00 2022


Pair  time (%) = 0.589976 (0.0188532)
Neigh time (%) = 0.423798 (0.0135429)
Comm  time (%) = 3.23606 (0.103411)
Outpt time (%) = 0.00124346 (3.97359e-05)
Other time (%) = 3125.06 (99.8642)

Nlocal:    33.2 ave 484 max 0 min
Histogram: 36 0 2 0 0 0 0 0 0 2
Nghost:    9.7 ave 133 max 0 min
Histogram: 36 0 0 0 0 2 1 0 0 1
Neighs:    9.75 ave 174 max 0 min
Histogram: 36 1 1 0 0 0 0 0 1 1

Total # of neighbors = 390
Ave neighs/atom = 0.293675
Neighbor list builds = 550
Dangerous builds = 0
write_dump all custom dump.atom_info_ac_* id type x y z radius vx vy vz density #
run 205798
Setting up run at Thu Nov 24 04:41:00 2022

Memory usage per processor = 1084.21 Mbytes
    Step    Atoms         KinEng            CPU 
 3292770     1328   0.0062191814              0 
 3498568     1328    0.006732524      3094.2574 
Loop time of 3094.26 on 40 procs for 205798 steps with 1328 atoms, finish time Thu Nov 24 05:32:34 2022


Pair  time (%) = 0.587076 (0.0189731)
Neigh time (%) = 0.421204 (0.0136124)
Comm  time (%) = 2.96231 (0.0957356)
Outpt time (%) = 0.00118729 (3.83708e-05)
Other time (%) = 3090.29 (99.8716)

Nlocal:    33.2 ave 479 max 0 min
Histogram: 35 1 2 0 0 0 0 0 0 2
Nghost:    9.075 ave 130 max 0 min
Histogram: 36 0 0 0 0 2 0 1 0 1
Neighs:    9.5 ave 164 max 0 min
Histogram: 36 1 1 0 0 0 0 0 0 2

Total # of neighbors = 380
Ave neighs/atom = 0.286145
Neighbor list builds = 550
Dangerous builds = 0
write_dump all custom dump.atom_info_ac_* id type x y z radius vx vy vz density #
run 205798
Setting up run at Thu Nov 24 05:32:34 2022

Memory usage per processor = 1084.21 Mbytes
    Step    Atoms         KinEng            CPU 
 3498568     1328    0.006732524              0 
 3704366     1328   0.0072203867      3114.0783 
Loop time of 3114.08 on 40 procs for 205798 steps with 1328 atoms, finish time Thu Nov 24 06:24:29 2022


Pair  time (%) = 0.586567 (0.018836)
Neigh time (%) = 0.421474 (0.0135345)
Comm  time (%) = 2.86112 (0.0918769)
Outpt time (%) = 0.00136435 (4.38124e-05)
Other time (%) = 3110.21 (99.8757)

Nlocal:    33.2 ave 472 max 0 min
Histogram: 35 1 2 0 0 0 0 0 0 2
Nghost:    8.9 ave 120 max 0 min
Histogram: 36 0 0 0 0 2 0 0 1 1
Neighs:    9.375 ave 163 max 0 min
Histogram: 36 1 1 0 0 0 0 0 0 2

Total # of neighbors = 375
Ave neighs/atom = 0.28238
Neighbor list builds = 550
Dangerous builds = 0
write_dump all custom dump.atom_info_ac_* id type x y z radius vx vy vz density #
run 205798
Setting up run at Thu Nov 24 06:24:29 2022

Memory usage per processor = 1084.21 Mbytes
    Step    Atoms         KinEng            CPU 
 3704366     1328   0.0072203867              0 
 3910164     1328   0.0080481919      3175.2485 
Loop time of 3175.25 on 40 procs for 205798 steps with 1328 atoms, finish time Thu Nov 24 07:17:24 2022


Pair  time (%) = 0.586387 (0.0184674)
Neigh time (%) = 0.421771 (0.0132831)
Comm  time (%) = 3.8006 (0.119694)
Outpt time (%) = 0.00140334 (4.41963e-05)
Other time (%) = 3170.44 (99.8485)

Nlocal:    33.2 ave 465 max 0 min
Histogram: 36 0 2 0 0 0 0 0 0 2
Nghost:    9.1 ave 114 max 0 min
Histogram: 36 0 0 0 0 0 2 0 1 1
Neighs:    8.75 ave 159 max 0 min
Histogram: 36 1 1 0 0 0 0 1 0 1

Total # of neighbors = 350
Ave neighs/atom = 0.263554
Neighbor list builds = 550
Dangerous builds = 0
write_dump all custom dump.atom_info_ac_* id type x y z radius vx vy vz density #
run 205798
Setting up run at Thu Nov 24 07:17:24 2022

Memory usage per processor = 1084.21 Mbytes
    Step    Atoms         KinEng            CPU 
 3910164     1328   0.0080481919              0 
 4115962     1328   0.0084110674       3138.762 
Loop time of 3138.76 on 40 procs for 205798 steps with 1328 atoms, finish time Thu Nov 24 08:09:43 2022


Pair  time (%) = 0.580919 (0.0185079)
Neigh time (%) = 0.422072 (0.0134471)
Comm  time (%) = 3.41678 (0.108858)
Outpt time (%) = 0.00128475 (4.09318e-05)
Other time (%) = 3134.34 (99.8591)

Nlocal:    33.2 ave 464 max 0 min
Histogram: 35 1 2 0 0 0 0 0 0 2
Nghost:    9.175 ave 112 max 0 min
Histogram: 36 0 0 0 0 0 2 0 1 1
Neighs:    8.725 ave 164 max 0 min
Histogram: 36 1 1 0 0 0 0 1 0 1

Total # of neighbors = 349
Ave neighs/atom = 0.262801
Neighbor list builds = 550
Dangerous builds = 0
write_dump all custom dump.atom_info_ac_* id type x y z radius vx vy vz density #
run 205798
Setting up run at Thu Nov 24 08:09:43 2022

Memory usage per processor = 1084.21 Mbytes
    Step    Atoms         KinEng            CPU 
 4115962     1328   0.0084110674              0 
 4321760     1328   0.0091501236      3116.5136 
Loop time of 3116.51 on 40 procs for 205798 steps with 1328 atoms, finish time Thu Nov 24 09:01:39 2022


Pair  time (%) = 0.5836 (0.0187261)
Neigh time (%) = 0.422551 (0.0135585)
Comm  time (%) = 3.04594 (0.0977355)
Outpt time (%) = 0.00127891 (4.10367e-05)
Other time (%) = 3112.46 (99.8699)

Nlocal:    33.2 ave 463 max 0 min
Histogram: 35 1 2 0 0 0 0 0 0 2
Nghost:    9 ave 115 max 0 min
Histogram: 36 0 0 0 0 1 1 0 1 1
Neighs:    8.4 ave 167 max 0 min
Histogram: 37 1 0 0 0 0 1 0 0 1

Total # of neighbors = 336
Ave neighs/atom = 0.253012
Neighbor list builds = 550
Dangerous builds = 0
write_dump all custom dump.atom_info_ac_* id type x y z radius vx vy vz density #
run 205798
Setting up run at Thu Nov 24 09:01:40 2022

Memory usage per processor = 1084.21 Mbytes
    Step    Atoms         KinEng            CPU 
 4321760     1328   0.0091501236              0 
 4527558     1328   0.0097771185      3105.2418 
Loop time of 3105.24 on 40 procs for 205798 steps with 1328 atoms, finish time Thu Nov 24 09:53:25 2022


Pair  time (%) = 0.588653 (0.0189568)
Neigh time (%) = 0.421229 (0.0135651)
Comm  time (%) = 3.98157 (0.128221)
Outpt time (%) = 0.00123734 (3.98469e-05)
Other time (%) = 3100.25 (99.8392)

Nlocal:    33.2 ave 461 max 0 min
Histogram: 34 2 2 0 0 0 0 0 0 2
Nghost:    8.9 ave 118 max 0 min
Histogram: 36 0 0 0 0 1 1 1 0 1
Neighs:    8.525 ave 152 max 0 min
Histogram: 36 2 0 0 0 0 0 0 1 1

Total # of neighbors = 341
Ave neighs/atom = 0.256777
Neighbor list builds = 550
Dangerous builds = 0
write_dump all custom dump.atom_info_ac_* id type x y z radius vx vy vz density #
run 205798
Setting up run at Thu Nov 24 09:53:25 2022

Memory usage per processor = 1084.21 Mbytes
    Step    Atoms         KinEng            CPU 
 4527558     1328   0.0097771185              0 
 4733356     1328    0.010649905      3122.2252 
Loop time of 3122.23 on 40 procs for 205798 steps with 1328 atoms, finish time Thu Nov 24 10:45:27 2022


Pair  time (%) = 0.583629 (0.0186927)
Neigh time (%) = 0.422343 (0.013527)
Comm  time (%) = 3.72899 (0.119434)
Outpt time (%) = 0.0012069 (3.86553e-05)
Other time (%) = 3117.49 (99.8483)

Nlocal:    33.2 ave 453 max 0 min
Histogram: 34 2 1 1 0 0 0 0 0 2
Nghost:    8.825 ave 116 max 0 min
Histogram: 36 0 0 0 0 2 0 1 0 1
Neighs:    8.325 ave 138 max 0 min
Histogram: 36 1 1 0 0 0 0 0 0 2

Total # of neighbors = 333
Ave neighs/atom = 0.250753
Neighbor list builds = 550
Dangerous builds = 0
write_dump all custom dump.atom_info_ac_* id type x y z radius vx vy vz density #
run 205798
Setting up run at Thu Nov 24 10:45:27 2022

Memory usage per processor = 1084.21 Mbytes
    Step    Atoms         KinEng            CPU 
 4733356     1328    0.010649905              0 
 4939154     1327     0.01132819      3124.1576 
Loop time of 3124.18 on 40 procs for 205798 steps with 1327 atoms, finish time Thu Nov 24 11:37:31 2022


Pair  time (%) = 0.581971 (0.018628)
Neigh time (%) = 0.422453 (0.0135221)
Comm  time (%) = 3.65439 (0.116971)
Outpt time (%) = 0.012021 (0.000384773)
Other time (%) = 3119.51 (99.8505)

Nlocal:    33.175 ave 453 max 0 min
Histogram: 33 3 2 0 0 0 0 0 0 2
Nghost:    8.8 ave 106 max 0 min
Histogram: 36 0 0 0 0 0 2 0 0 2
Neighs:    8.5 ave 147 max 0 min
Histogram: 37 1 0 0 0 0 0 0 0 2

Total # of neighbors = 340
Ave neighs/atom = 0.256217
Neighbor list builds = 550
Dangerous builds = 0
write_dump all custom dump.atom_info_ac_* id type x y z radius vx vy vz density #
run 205798
Setting up run at Thu Nov 24 11:37:32 2022

Memory usage per processor = 1084.21 Mbytes
    Step    Atoms         KinEng            CPU 
 4939154     1327     0.01132819              0 
 5144952     1327    0.011824197      3108.4831 
Loop time of 3108.48 on 40 procs for 205798 steps with 1327 atoms, finish time Thu Nov 24 12:29:20 2022


Pair  time (%) = 0.585673 (0.0188411)
Neigh time (%) = 0.496017 (0.0159569)
Comm  time (%) = 4.35223 (0.140011)
Outpt time (%) = 0.00123857 (3.98449e-05)
Other time (%) = 3103.05 (99.8252)

Nlocal:    33.175 ave 450 max 0 min
Histogram: 33 3 2 0 0 0 0 0 0 2
Nghost:    8.65 ave 100 max 0 min
Histogram: 36 0 0 0 0 0 2 0 0 2
Neighs:    8.9 ave 157 max 0 min
Histogram: 36 2 0 0 0 0 0 0 1 1

Total # of neighbors = 356
Ave neighs/atom = 0.268274
Neighbor list builds = 639
Dangerous builds = 0
write_dump all custom dump.atom_info_ac_* id type x y z radius vx vy vz density #
run 205798
Setting up run at Thu Nov 24 12:29:20 2022

Memory usage per processor = 1084.21 Mbytes
    Step    Atoms         KinEng            CPU 
 5144952     1327    0.011824197              0 
 5350750     1327    0.012629149      3126.0006 
Loop time of 3126 on 40 procs for 205798 steps with 1327 atoms, finish time Thu Nov 24 13:21:26 2022


Pair  time (%) = 0.584718 (0.018705)
Neigh time (%) = 0.528685 (0.0169125)
Comm  time (%) = 4.52973 (0.144905)
Outpt time (%) = 0.000697419 (2.23103e-05)
Other time (%) = 3120.36 (99.8195)

Nlocal:    33.175 ave 444 max 0 min
Histogram: 35 1 2 0 0 0 0 0 0 2
Nghost:    8.625 ave 106 max 0 min
Histogram: 36 0 0 0 0 1 1 0 0 2
Neighs:    8.05 ave 154 max 0 min
Histogram: 36 2 0 0 0 0 0 1 0 1

Total # of neighbors = 322
Ave neighs/atom = 0.242653
Neighbor list builds = 679
Dangerous builds = 0
write_dump all custom dump.atom_info_ac_* id type x y z radius vx vy vz density #
run 205798
Setting up run at Thu Nov 24 13:21:27 2022

Memory usage per processor = 1084.21 Mbytes
    Step    Atoms         KinEng            CPU 
 5350750     1327    0.012629149              0 
 5556548     1326    0.013829547      3148.9254 
Loop time of 3148.93 on 40 procs for 205798 steps with 1326 atoms, finish time Thu Nov 24 14:13:56 2022


Pair  time (%) = 0.578211 (0.0183622)
Neigh time (%) = 0.522847 (0.016604)
Comm  time (%) = 4.02103 (0.127695)
Outpt time (%) = 0.00124271 (3.94647e-05)
Other time (%) = 3143.8 (99.8373)

Nlocal:    33.15 ave 437 max 0 min
Histogram: 33 3 2 0 0 0 0 0 0 2
Nghost:    8.6 ave 110 max 0 min
Histogram: 36 0 0 0 0 2 0 0 0 2
Neighs:    8.15 ave 148 max 0 min
Histogram: 36 2 0 0 0 0 0 0 1 1

Total # of neighbors = 326
Ave neighs/atom = 0.245852
Neighbor list builds = 669
Dangerous builds = 0
write_dump all custom dump.atom_info_ac_* id type x y z radius vx vy vz density #
run 205798
Setting up run at Thu Nov 24 14:13:56 2022

Memory usage per processor = 1084.21 Mbytes
    Step    Atoms         KinEng            CPU 
 5556548     1326    0.013829547              0 
 5762346     1325    0.014119597      3168.1961 
Loop time of 3168.2 on 40 procs for 205798 steps with 1325 atoms, finish time Thu Nov 24 15:06:44 2022


Pair  time (%) = 0.570709 (0.0180137)
Neigh time (%) = 0.526788 (0.0166274)
Comm  time (%) = 4.78988 (0.151186)
Outpt time (%) = 0.00139142 (4.39183e-05)
Other time (%) = 3162.31 (99.8141)

Nlocal:    33.125 ave 435 max 0 min
Histogram: 32 4 2 0 0 0 0 0 0 2
Nghost:    8.65 ave 109 max 0 min
Histogram: 36 0 0 0 0 2 0 0 1 1
Neighs:    7.75 ave 148 max 0 min
Histogram: 36 1 1 0 0 0 0 1 0 1

Total # of neighbors = 310
Ave neighs/atom = 0.233962
Neighbor list builds = 672
Dangerous builds = 0
write_dump all custom dump.atom_info_ac_* id type x y z radius vx vy vz density #
run 205798
Setting up run at Thu Nov 24 15:06:44 2022

Memory usage per processor = 1084.21 Mbytes
    Step    Atoms         KinEng            CPU 
 5762346     1325    0.014119597              0 
 5968144     1324    0.014923927      3261.3291 
Loop time of 3261.33 on 40 procs for 205798 steps with 1324 atoms, finish time Thu Nov 24 16:01:05 2022


Pair  time (%) = 0.568971 (0.017446)
Neigh time (%) = 0.522454 (0.0160197)
Comm  time (%) = 3.94186 (0.120867)
Outpt time (%) = 0.000982889 (3.01377e-05)
Other time (%) = 3256.3 (99.8456)

Nlocal:    33.1 ave 432 max 0 min
Histogram: 32 4 2 0 0 0 0 0 0 2
Nghost:    8.825 ave 112 max 0 min
Histogram: 36 0 0 0 0 2 0 0 1 1
Neighs:    7.9 ave 142 max 0 min
Histogram: 36 2 0 0 0 0 0 0 1 1

Total # of neighbors = 316
Ave neighs/atom = 0.238671
Neighbor list builds = 665
Dangerous builds = 0
write_dump all custom dump.atom_info_ac_* id type x y z radius vx vy vz density #
run 205798
Setting up run at Thu Nov 24 16:01:05 2022

Memory usage per processor = 1084.21 Mbytes
    Step    Atoms         KinEng            CPU 
 5968144     1324    0.014923927              0 
 6173942     1323    0.015426608      3147.9167 
Loop time of 3147.92 on 40 procs for 205798 steps with 1323 atoms, finish time Thu Nov 24 16:53:33 2022


Pair  time (%) = 0.569819 (0.0181015)
Neigh time (%) = 0.521932 (0.0165802)
Comm  time (%) = 4.2188 (0.134019)
Outpt time (%) = 0.00129425 (4.11144e-05)
Other time (%) = 3142.61 (99.8313)

Nlocal:    33.075 ave 431 max 0 min
Histogram: 32 4 1 1 0 0 0 0 0 2
Nghost:    8.575 ave 103 max 0 min
Histogram: 36 0 0 0 0 1 1 0 0 2
Neighs:    7.575 ave 131 max 0 min
Histogram: 36 2 0 0 0 0 0 0 0 2

Total # of neighbors = 303
Ave neighs/atom = 0.229025
Neighbor list builds = 663
Dangerous builds = 0
write_dump all custom dump.atom_info_ac_* id type x y z radius vx vy vz density #
run 205798
Setting up run at Thu Nov 24 16:53:33 2022

Memory usage per processor = 1084.21 Mbytes
    Step    Atoms         KinEng            CPU 
 6173942     1323    0.015426608              0 
 6379740     1321    0.016255332      3150.5428 
Loop time of 3150.54 on 40 procs for 205798 steps with 1321 atoms, finish time Thu Nov 24 17:46:04 2022


Pair  time (%) = 0.570903 (0.0181208)
Neigh time (%) = 0.525572 (0.016682)
Comm  time (%) = 4.65451 (0.147737)
Outpt time (%) = 0.00127744 (4.05468e-05)
Other time (%) = 3144.79 (99.8174)

Nlocal:    33.025 ave 427 max 0 min
Histogram: 33 3 2 0 0 0 0 0 0 2
Nghost:    8.25 ave 105 max 0 min
Histogram: 36 0 0 0 0 2 0 0 0 2
Neighs:    7.55 ave 124 max 0 min
Histogram: 36 1 1 0 0 0 0 0 0 2

Total # of neighbors = 302
Ave neighs/atom = 0.228615
Neighbor list builds = 669
Dangerous builds = 0
write_dump all custom dump.atom_info_ac_* id type x y z radius vx vy vz density #
run 205798
Setting up run at Thu Nov 24 17:46:04 2022

Memory usage per processor = 1084.21 Mbytes
    Step    Atoms         KinEng            CPU 
 6379740     1321    0.016255332              0 
 6585538     1320    0.016976398      3169.2662 
Loop time of 3169.27 on 40 procs for 205798 steps with 1320 atoms, finish time Thu Nov 24 18:38:53 2022


Pair  time (%) = 0.569411 (0.0179666)
Neigh time (%) = 0.522903 (0.0164992)
Comm  time (%) = 4.08813 (0.128993)
Outpt time (%) = 0.0130747 (0.000412548)
Other time (%) = 3164.07 (99.8361)

Nlocal:    33 ave 425 max 0 min
Histogram: 32 4 2 0 0 0 0 0 0 2
Nghost:    8.125 ave 100 max 0 min
Histogram: 36 0 0 0 0 1 1 0 0 2
Neighs:    7.025 ave 119 max 0 min
Histogram: 36 2 0 0 0 0 0 0 1 1

Total # of neighbors = 281
Ave neighs/atom = 0.212879
Neighbor list builds = 664
Dangerous builds = 0
write_dump all custom dump.atom_info_ac_* id type x y z radius vx vy vz density #
run 205798
Setting up run at Thu Nov 24 18:38:54 2022

Memory usage per processor = 1084.21 Mbytes
    Step    Atoms         KinEng            CPU 
 6585538     1320    0.016976398              0 
 6791336     1320    0.018280039      3110.3326 
Loop time of 3110.33 on 40 procs for 205798 steps with 1320 atoms, finish time Thu Nov 24 19:30:44 2022


Pair  time (%) = 0.570194 (0.0183323)
Neigh time (%) = 0.519914 (0.0167157)
Comm  time (%) = 4.00851 (0.128877)
Outpt time (%) = 0.00129679 (4.16928e-05)
Other time (%) = 3105.23 (99.836)

Nlocal:    33 ave 424 max 0 min
Histogram: 32 4 1 1 0 0 0 0 0 2
Nghost:    8.25 ave 97 max 0 min
Histogram: 36 0 0 0 0 1 1 0 0 2
Neighs:    7.3 ave 117 max 0 min
Histogram: 36 1 1 0 0 0 0 0 0 2

Total # of neighbors = 292
Ave neighs/atom = 0.221212
Neighbor list builds = 661
Dangerous builds = 0
write_dump all custom dump.atom_info_ac_* id type x y z radius vx vy vz density #
run 205798
Setting up run at Thu Nov 24 19:30:44 2022

Memory usage per processor = 1084.21 Mbytes
    Step    Atoms         KinEng            CPU 
 6791336     1320    0.018280039              0 
 6997134     1316    0.018314575      3180.8986 
Loop time of 3180.9 on 40 procs for 205798 steps with 1316 atoms, finish time Thu Nov 24 20:23:45 2022


Pair  time (%) = 0.568483 (0.0178718)
Neigh time (%) = 0.526802 (0.0165614)
Comm  time (%) = 4.7149 (0.148226)
Outpt time (%) = 0.00126052 (3.96279e-05)
Other time (%) = 3175.09 (99.8173)

Nlocal:    32.9 ave 422 max 0 min
Histogram: 32 4 1 1 0 0 0 0 0 2
Nghost:    8.125 ave 93 max 0 min
Histogram: 36 0 0 0 0 0 1 1 0 2
Neighs:    7.2 ave 122 max 0 min
Histogram: 36 2 0 0 0 0 0 0 1 1

Total # of neighbors = 288
Ave neighs/atom = 0.218845
Neighbor list builds = 668
Dangerous builds = 0
write_dump all custom dump.atom_info_ac_* id type x y z radius vx vy vz density #
run 205798
Setting up run at Thu Nov 24 20:23:45 2022

Memory usage per processor = 1084.21 Mbytes
    Step    Atoms         KinEng            CPU 
 6997134     1316    0.018314575              0 
 7202932     1316    0.019147689      3233.5961 
Loop time of 3233.6 on 40 procs for 205798 steps with 1316 atoms, finish time Thu Nov 24 21:17:39 2022


Pair  time (%) = 0.566953 (0.0175332)
Neigh time (%) = 0.519739 (0.0160731)
Comm  time (%) = 4.62759 (0.14311)
Outpt time (%) = 0.000987218 (3.053e-05)
Other time (%) = 3227.88 (99.8233)

Nlocal:    32.9 ave 419 max 0 min
Histogram: 32 4 2 0 0 0 0 0 0 2
Nghost:    8.1 ave 94 max 0 min
Histogram: 36 0 0 0 0 1 1 0 0 2
Neighs:    7.5 ave 122 max 0 min
Histogram: 36 2 0 0 0 0 0 0 0 2

Total # of neighbors = 300
Ave neighs/atom = 0.227964
Neighbor list builds = 659
Dangerous builds = 0
write_dump all custom dump.atom_info_ac_* id type x y z radius vx vy vz density #
run 205798
Setting up run at Thu Nov 24 21:17:39 2022

Memory usage per processor = 1084.21 Mbytes
    Step    Atoms         KinEng            CPU 
 7202932     1316    0.019147689              0 
 7408730     1313    0.020002017      3210.1677 
Loop time of 3210.17 on 40 procs for 205798 steps with 1313 atoms, finish time Thu Nov 24 22:11:09 2022


Pair  time (%) = 0.565175 (0.0176058)
Neigh time (%) = 0.479662 (0.0149419)
Comm  time (%) = 4.37625 (0.136325)
Outpt time (%) = 0.00129279 (4.02718e-05)
Other time (%) = 3204.75 (99.8311)

Nlocal:    32.825 ave 414 max 0 min
Histogram: 32 4 2 0 0 0 0 0 0 2
Nghost:    8.075 ave 97 max 0 min
Histogram: 36 0 0 0 0 0 2 0 1 1
Neighs:    7.2 ave 119 max 0 min
Histogram: 36 1 1 0 0 0 0 0 0 2

Total # of neighbors = 288
Ave neighs/atom = 0.219345
Neighbor list builds = 612
Dangerous builds = 0
write_dump all custom dump.atom_info_ac_* id type x y z radius vx vy vz density #
run 205798
Setting up run at Thu Nov 24 22:11:09 2022

Memory usage per processor = 1084.21 Mbytes
    Step    Atoms         KinEng            CPU 
 7408730     1313    0.020002017              0 
 7614528     1312    0.020471886      3125.1716 
Loop time of 3125.17 on 40 procs for 205798 steps with 1312 atoms, finish time Thu Nov 24 23:03:15 2022


Pair  time (%) = 0.560159 (0.0179241)
Neigh time (%) = 0.438238 (0.0140229)
Comm  time (%) = 3.78882 (0.121236)
Outpt time (%) = 0.00128001 (4.09581e-05)
Other time (%) = 3120.38 (99.8468)

Nlocal:    32.8 ave 418 max 0 min
Histogram: 32 4 1 1 0 0 0 0 0 2
Nghost:    8.35 ave 98 max 0 min
Histogram: 36 0 0 0 0 0 2 0 0 2
Neighs:    7.025 ave 116 max 0 min
Histogram: 36 1 1 0 0 0 0 0 1 1

Total # of neighbors = 281
Ave neighs/atom = 0.214177
Neighbor list builds = 562
Dangerous builds = 0
write_dump all custom dump.atom_info_ac_* id type x y z radius vx vy vz density #
run 205798
Setting up run at Thu Nov 24 23:03:15 2022

Memory usage per processor = 1084.21 Mbytes
    Step    Atoms         KinEng            CPU 
 7614528     1312    0.020471886              0 
 7820326     1312    0.021457457      3118.7123 
Loop time of 3118.71 on 40 procs for 205798 steps with 1312 atoms, finish time Thu Nov 24 23:55:13 2022


Pair  time (%) = 0.559996 (0.017956)
Neigh time (%) = 0.428154 (0.0137286)
Comm  time (%) = 4.86134 (0.155877)
Outpt time (%) = 0.00135015 (4.32918e-05)
Other time (%) = 3112.86 (99.8124)

Nlocal:    32.8 ave 416 max 0 min
Histogram: 32 4 1 1 0 0 0 0 0 2
Nghost:    8.125 ave 98 max 0 min
Histogram: 36 0 0 0 0 1 1 0 1 1
Neighs:    6.925 ave 111 max 0 min
Histogram: 36 2 0 0 0 0 0 0 0 2

Total # of neighbors = 277
Ave neighs/atom = 0.211128
Neighbor list builds = 551
Dangerous builds = 0
write_dump all custom dump.atom_info_ac_* id type x y z radius vx vy vz density #
run 205798
Setting up run at Thu Nov 24 23:55:13 2022

Memory usage per processor = 1084.21 Mbytes
    Step    Atoms         KinEng            CPU 
 7820326     1312    0.021457457              0 
 8026124     1312    0.021991828      3147.2505 
Loop time of 3147.25 on 40 procs for 205798 steps with 1312 atoms, finish time Fri Nov 25 00:47:41 2022


Pair  time (%) = 0.563624 (0.0179084)
Neigh time (%) = 0.427554 (0.013585)
Comm  time (%) = 4.65024 (0.147756)
Outpt time (%) = 0.00126953 (4.03376e-05)
Other time (%) = 3141.61 (99.8207)

Nlocal:    32.8 ave 415 max 0 min
Histogram: 32 4 1 1 0 0 0 0 0 2
Nghost:    8.25 ave 97 max 0 min
Histogram: 36 0 0 0 0 2 0 0 0 2
Neighs:    6.85 ave 106 max 0 min
Histogram: 35 1 2 0 0 0 0 0 0 2

Total # of neighbors = 274
Ave neighs/atom = 0.208841
Neighbor list builds = 550
Dangerous builds = 0
write_dump all custom dump.atom_info_ac_* id type x y z radius vx vy vz density #
run 205798
Setting up run at Fri Nov 25 00:47:41 2022

Memory usage per processor = 1084.21 Mbytes
    Step    Atoms         KinEng            CPU 
 8026124     1312    0.021991828              0 
 8231922     1312    0.022877305      3152.2122 
Loop time of 3152.21 on 40 procs for 205798 steps with 1312 atoms, finish time Fri Nov 25 01:40:13 2022


Pair  time (%) = 0.565254 (0.017932)
Neigh time (%) = 0.428165 (0.013583)
Comm  time (%) = 4.46845 (0.141756)
Outpt time (%) = 0.00102165 (3.24105e-05)
Other time (%) = 3146.75 (99.8267)

Nlocal:    32.8 ave 410 max 0 min
Histogram: 32 3 3 0 0 0 0 0 0 2
Nghost:    8.2 ave 98 max 0 min
Histogram: 36 0 0 0 0 2 0 0 0 2
Neighs:    6.3 ave 96 max 0 min
Histogram: 36 0 2 0 0 0 0 0 0 2

Total # of neighbors = 252
Ave neighs/atom = 0.192073
Neighbor list builds = 550
Dangerous builds = 0
write_dump all custom dump.atom_info_ac_* id type x y z radius vx vy vz density #
run 205798
Setting up run at Fri Nov 25 01:40:13 2022

Memory usage per processor = 1084.21 Mbytes
    Step    Atoms         KinEng            CPU 
 8231922     1312    0.022877305              0 
 8437720     1312    0.024088523      3112.0061 
Loop time of 3112.01 on 40 procs for 205798 steps with 1312 atoms, finish time Fri Nov 25 02:32:05 2022


Pair  time (%) = 0.569947 (0.0183145)
Neigh time (%) = 0.43602 (0.0140109)
Comm  time (%) = 4.93813 (0.15868)
Outpt time (%) = 0.00128998 (4.14516e-05)
Other time (%) = 3106.06 (99.809)

Nlocal:    32.8 ave 410 max 0 min
Histogram: 32 3 3 0 0 0 0 0 0 2
Nghost:    8.1 ave 98 max 0 min
Histogram: 36 0 0 0 0 2 0 0 0 2
Neighs:    6.075 ave 102 max 0 min
Histogram: 36 2 0 0 0 0 0 0 1 1

Total # of neighbors = 243
Ave neighs/atom = 0.185213
Neighbor list builds = 560
Dangerous builds = 0
write_dump all custom dump.atom_info_ac_* id type x y z radius vx vy vz density #
run 205798
Setting up run at Fri Nov 25 02:32:05 2022

Memory usage per processor = 1084.21 Mbytes
    Step    Atoms         KinEng            CPU 
 8437720     1312    0.024088523              0 
 8643518     1311    0.024278096      3124.1639 
Loop time of 3124.16 on 40 procs for 205798 steps with 1311 atoms, finish time Fri Nov 25 03:24:10 2022


Pair  time (%) = 0.562295 (0.0179982)
Neigh time (%) = 0.431718 (0.0138187)
Comm  time (%) = 4.42927 (0.141774)
Outpt time (%) = 0.00128269 (4.1057e-05)
Other time (%) = 3118.74 (99.8264)

Nlocal:    32.775 ave 410 max 0 min
Histogram: 32 4 1 1 0 0 0 0 0 2
Nghost:    8 ave 95 max 0 min
Histogram: 36 0 0 0 0 1 1 0 0 2
Neighs:    6.4 ave 99 max 0 min
Histogram: 36 1 0 1 0 0 0 0 0 2

Total # of neighbors = 256
Ave neighs/atom = 0.195271
Neighbor list builds = 555
Dangerous builds = 0
write_dump all custom dump.atom_info_ac_* id type x y z radius vx vy vz density #
run 205798
Setting up run at Fri Nov 25 03:24:10 2022

Memory usage per processor = 1084.21 Mbytes
    Step    Atoms         KinEng            CPU 
 8643518     1311    0.024278096              0 
 8849316     1311    0.025181502      3152.8109 
Loop time of 3152.81 on 40 procs for 205798 steps with 1311 atoms, finish time Fri Nov 25 04:16:43 2022


Pair  time (%) = 0.56168 (0.0178152)
Neigh time (%) = 0.433631 (0.0137538)
Comm  time (%) = 4.44111 (0.140862)
Outpt time (%) = 0.00142702 (4.52619e-05)
Other time (%) = 3147.37 (99.8275)

Nlocal:    32.775 ave 407 max 0 min
Histogram: 32 3 3 0 0 0 0 0 0 2
Nghost:    7.95 ave 93 max 0 min
Histogram: 36 0 0 0 0 1 1 0 0 2
Neighs:    6.15 ave 91 max 0 min
Histogram: 35 2 1 0 0 0 0 0 0 2

Total # of neighbors = 246
Ave neighs/atom = 0.187643
Neighbor list builds = 557
Dangerous builds = 0
write_dump all custom dump.atom_info_ac_* id type x y z radius vx vy vz density #
run 205798
Setting up run at Fri Nov 25 04:16:43 2022

Memory usage per processor = 1084.21 Mbytes
    Step    Atoms         KinEng            CPU 
 8849316     1311    0.025181502              0 
 9055114     1311    0.025871949      3148.8016 
Loop time of 3148.8 on 40 procs for 205798 steps with 1311 atoms, finish time Fri Nov 25 05:09:12 2022


Pair  time (%) = 0.561822 (0.0178424)
Neigh time (%) = 0.431239 (0.0136953)
Comm  time (%) = 4.92471 (0.156399)
Outpt time (%) = 0.0230543 (0.000732162)
Other time (%) = 3142.86 (99.8113)

Nlocal:    32.775 ave 405 max 0 min
Histogram: 32 3 2 1 0 0 0 0 0 2
Nghost:    8.05 ave 94 max 0 min
Histogram: 36 0 0 0 0 0 2 0 0 2
Neighs:    6.15 ave 91 max 0 min
Histogram: 35 2 1 0 0 0 0 0 0 2

Total # of neighbors = 246
Ave neighs/atom = 0.187643
Neighbor list builds = 554
Dangerous builds = 0
write_dump all custom dump.atom_info_ac_* id type x y z radius vx vy vz density #
run 205798
Setting up run at Fri Nov 25 05:09:12 2022

Memory usage per processor = 1084.21 Mbytes
    Step    Atoms         KinEng            CPU 
 9055114     1311    0.025871949              0 
 9260912     1310    0.026298063      3102.1568 
Loop time of 3102.16 on 40 procs for 205798 steps with 1310 atoms, finish time Fri Nov 25 06:00:54 2022


Pair  time (%) = 0.564356 (0.0181924)
Neigh time (%) = 0.436408 (0.0140679)
Comm  time (%) = 4.79617 (0.154608)
Outpt time (%) = 0.000950298 (3.06335e-05)
Other time (%) = 3096.36 (99.8131)

Nlocal:    32.75 ave 404 max 0 min
Histogram: 32 3 2 1 0 0 0 0 0 2
Nghost:    7.825 ave 96 max 0 min
Histogram: 36 0 0 0 0 2 0 0 1 1
Neighs:    5.675 ave 86 max 0 min
Histogram: 35 1 2 0 0 0 0 0 0 2

Total # of neighbors = 227
Ave neighs/atom = 0.173282
Neighbor list builds = 560
Dangerous builds = 0
write_dump all custom dump.atom_info_ac_* id type x y z radius vx vy vz density #
run 205798
Setting up run at Fri Nov 25 06:00:54 2022

Memory usage per processor = 1084.21 Mbytes
    Step    Atoms         KinEng            CPU 
 9260912     1310    0.026298063              0 
 9466710     1310    0.027126838      3118.7408 
Loop time of 3118.74 on 40 procs for 205798 steps with 1310 atoms, finish time Fri Nov 25 06:52:53 2022


Pair  time (%) = 0.559805 (0.0179497)
Neigh time (%) = 0.437955 (0.0140427)
Comm  time (%) = 4.49521 (0.144135)
Outpt time (%) = 0.00148687 (4.76752e-05)
Other time (%) = 3113.25 (99.8238)

Nlocal:    32.75 ave 409 max 0 min
Histogram: 32 2 4 0 0 0 0 0 0 2
Nghost:    7.725 ave 91 max 0 min
Histogram: 36 0 0 0 0 2 0 0 0 2
Neighs:    6.025 ave 89 max 0 min
Histogram: 34 3 1 0 0 0 0 0 1 1

Total # of neighbors = 241
Ave neighs/atom = 0.183969
Neighbor list builds = 561
Dangerous builds = 0
write_dump all custom dump.atom_info_ac_* id type x y z radius vx vy vz density #
run 205798
Setting up run at Fri Nov 25 06:52:53 2022

Memory usage per processor = 1084.21 Mbytes
    Step    Atoms         KinEng            CPU 
 9466710     1310    0.027126838              0 
 9672508     1310    0.028193025      3174.5868 
Loop time of 3174.59 on 40 procs for 205798 steps with 1310 atoms, finish time Fri Nov 25 07:45:48 2022


Pair  time (%) = 0.560113 (0.0176436)
Neigh time (%) = 0.436244 (0.0137418)
Comm  time (%) = 4.75132 (0.149667)
Outpt time (%) = 0.00146642 (4.61925e-05)
Other time (%) = 3168.84 (99.8189)

Nlocal:    32.75 ave 406 max 0 min
Histogram: 32 4 1 1 0 0 0 0 0 2
Nghost:    7.225 ave 83 max 0 min
Histogram: 36 0 0 0 0 1 1 0 0 2
Neighs:    5.675 ave 96 max 0 min
Histogram: 36 1 0 1 0 0 0 1 0 1

Total # of neighbors = 227
Ave neighs/atom = 0.173282
Neighbor list builds = 560
Dangerous builds = 0
write_dump all custom dump.atom_info_ac_* id type x y z radius vx vy vz density #
run 205798
Setting up run at Fri Nov 25 07:45:48 2022

Memory usage per processor = 1084.21 Mbytes
    Step    Atoms         KinEng            CPU 
 9672508     1310    0.028193025              0 
 9878306     1307    0.028767272      3187.0972 
Loop time of 3187.1 on 40 procs for 205798 steps with 1307 atoms, finish time Fri Nov 25 08:38:55 2022


Pair  time (%) = 0.56024 (0.0175784)
Neigh time (%) = 0.429649 (0.0134809)
Comm  time (%) = 4.40753 (0.138293)
Outpt time (%) = 0.00155668 (4.88433e-05)
Other time (%) = 3181.7 (99.8306)

Nlocal:    32.675 ave 402 max 0 min
Histogram: 32 3 2 1 0 0 0 0 0 2
Nghost:    7.225 ave 84 max 0 min
Histogram: 36 0 0 0 0 1 1 0 0 2
Neighs:    5.95 ave 93 max 0 min
Histogram: 35 2 1 0 0 0 0 0 1 1

Total # of neighbors = 238
Ave neighs/atom = 0.182096
Neighbor list builds = 553
Dangerous builds = 0
write_dump all custom dump.atom_info_ac_* id type x y z radius vx vy vz density #
run 205798
Setting up run at Fri Nov 25 08:38:55 2022

Memory usage per processor = 1084.21 Mbytes
    Step    Atoms         KinEng            CPU 
 9878306     1307    0.028767272              0 
10084104     1305    0.029241973      3139.2371 
Loop time of 3139.24 on 40 procs for 205798 steps with 1305 atoms, finish time Fri Nov 25 09:31:14 2022


Pair  time (%) = 0.556723 (0.0177343)
Neigh time (%) = 0.429253 (0.0136738)
Comm  time (%) = 4.04472 (0.128844)
Outpt time (%) = 0.00121946 (3.88457e-05)
Other time (%) = 3134.21 (99.8397)

Nlocal:    32.625 ave 402 max 0 min
Histogram: 32 3 3 0 0 0 0 0 0 2
Nghost:    7.025 ave 85 max 0 min
Histogram: 36 0 0 0 0 2 0 0 1 1
Neighs:    6.05 ave 92 max 0 min
Histogram: 35 2 1 0 0 0 0 0 0 2

Total # of neighbors = 242
Ave neighs/atom = 0.185441
Neighbor list builds = 550
Dangerous builds = 0
write_dump all custom dump.atom_info_ac_* id type x y z radius vx vy vz density #
run 205798
Setting up run at Fri Nov 25 09:31:14 2022

Memory usage per processor = 1084.21 Mbytes
    Step    Atoms         KinEng            CPU 
10084104     1305    0.029241973              0 
10289902     1305     0.03043663      3188.1301 
Loop time of 3188.13 on 40 procs for 205798 steps with 1305 atoms, finish time Fri Nov 25 10:24:23 2022


Pair  time (%) = 0.559035 (0.0175349)
Neigh time (%) = 0.430293 (0.0134967)
Comm  time (%) = 4.30331 (0.134979)
Outpt time (%) = 0.00103595 (3.24939e-05)
Other time (%) = 3182.84 (99.834)

Nlocal:    32.625 ave 402 max 0 min
Histogram: 32 3 1 2 0 0 0 0 0 2
Nghost:    7 ave 83 max 0 min
Histogram: 36 0 0 0 0 1 1 0 0 2
Neighs:    5.725 ave 94 max 0 min
Histogram: 36 1 0 1 0 0 0 0 1 1

Total # of neighbors = 229
Ave neighs/atom = 0.175479
Neighbor list builds = 550
Dangerous builds = 0
write_dump all custom dump.atom_info_ac_* id type x y z radius vx vy vz density #
run 205798
Setting up run at Fri Nov 25 10:24:23 2022

Memory usage per processor = 1084.21 Mbytes
    Step    Atoms         KinEng            CPU 
10289902     1305     0.03043663              0 
10495700     1303    0.030637227      3143.4961 
Loop time of 3143.5 on 40 procs for 205798 steps with 1303 atoms, finish time Fri Nov 25 11:16:47 2022


Pair  time (%) = 0.562206 (0.0178847)
Neigh time (%) = 0.430303 (0.0136887)
Comm  time (%) = 5.11417 (0.16269)
Outpt time (%) = 0.000777287 (2.47268e-05)
Other time (%) = 3137.39 (99.8057)

Nlocal:    32.575 ave 398 max 0 min
Histogram: 32 3 2 1 0 0 0 0 0 2
Nghost:    6.975 ave 79 max 0 min
Histogram: 36 0 0 0 0 2 0 0 1 1
Neighs:    6.125 ave 84 max 0 min
Histogram: 33 3 1 1 0 0 0 0 0 2

Total # of neighbors = 245
Ave neighs/atom = 0.188028
Neighbor list builds = 550
Dangerous builds = 0
write_dump all custom dump.atom_info_ac_* id type x y z radius vx vy vz density #
run 205798
Setting up run at Fri Nov 25 11:16:47 2022

Memory usage per processor = 1084.21 Mbytes
    Step    Atoms         KinEng            CPU 
10495700     1303    0.030637227              0 
10701498     1302    0.031269171      3175.8546 
Loop time of 3175.86 on 40 procs for 205798 steps with 1302 atoms, finish time Fri Nov 25 12:09:43 2022


Pair  time (%) = 0.558636 (0.0175901)
Neigh time (%) = 0.491226 (0.0154675)
Comm  time (%) = 4.71386 (0.148428)
Outpt time (%) = 0.00142896 (4.49946e-05)
Other time (%) = 3170.09 (99.8185)

Nlocal:    32.55 ave 395 max 0 min
Histogram: 32 2 3 1 0 0 0 0 0 2
Nghost:    6.4 ave 81 max 0 min
Histogram: 36 0 0 0 0 2 0 0 1 1
Neighs:    6.05 ave 88 max 0 min
Histogram: 35 2 0 1 0 0 0 0 0 2

Total # of neighbors = 242
Ave neighs/atom = 0.185868
Neighbor list builds = 625
Dangerous builds = 0
write_dump all custom dump.atom_info_ac_* id type x y z radius vx vy vz density #
run 205798
Setting up run at Fri Nov 25 12:09:43 2022

Memory usage per processor = 1084.21 Mbytes
    Step    Atoms         KinEng            CPU 
10701498     1302    0.031269171              0 
10907296     1302    0.031874639      3139.6411 
Loop time of 3139.64 on 40 procs for 205798 steps with 1302 atoms, finish time Fri Nov 25 13:02:03 2022


Pair  time (%) = 0.561271 (0.0178769)
Neigh time (%) = 0.517502 (0.0164828)
Comm  time (%) = 5.30737 (0.169044)
Outpt time (%) = 0.0246219 (0.000784225)
Other time (%) = 3133.23 (99.7958)

Nlocal:    32.55 ave 395 max 0 min
Histogram: 32 2 3 1 0 0 0 0 0 2
Nghost:    6.525 ave 75 max 0 min
Histogram: 36 0 0 0 0 2 0 0 0 2
Neighs:    5.925 ave 87 max 0 min
Histogram: 35 2 0 1 0 0 0 0 0 2

Total # of neighbors = 237
Ave neighs/atom = 0.182028
Neighbor list builds = 656
Dangerous builds = 0
write_dump all custom dump.atom_info_ac_* id type x y z radius vx vy vz density #
run 205798
Setting up run at Fri Nov 25 13:02:03 2022

Memory usage per processor = 1084.21 Mbytes
    Step    Atoms         KinEng            CPU 
10907296     1302    0.031874639              0 
11113094     1298    0.032517737      3157.3136 
Loop time of 3157.31 on 40 procs for 205798 steps with 1298 atoms, finish time Fri Nov 25 13:54:40 2022


Pair  time (%) = 0.562425 (0.0178134)
Neigh time (%) = 0.441436 (0.0139814)
Comm  time (%) = 5.0867 (0.161108)
Outpt time (%) = 0.00132317 (4.19081e-05)
Other time (%) = 3151.22 (99.8071)

Nlocal:    32.45 ave 396 max 0 min
Histogram: 32 3 2 1 0 0 0 0 1 1
Nghost:    6.2 ave 69 max 0 min
Histogram: 35 1 0 0 0 2 0 0 0 2
Neighs:    6.15 ave 85 max 0 min
Histogram: 34 2 1 1 0 0 0 0 0 2

Total # of neighbors = 246
Ave neighs/atom = 0.189522
Neighbor list builds = 563
Dangerous builds = 0
write_dump all custom dump.atom_info_ac_* id type x y z radius vx vy vz density #
run 205798
Setting up run at Fri Nov 25 13:54:40 2022

Memory usage per processor = 1084.21 Mbytes
    Step    Atoms         KinEng            CPU 
11113094     1298    0.032517737              0 
11318892     1297    0.033163169      3160.5758 
Loop time of 3160.58 on 40 procs for 205798 steps with 1297 atoms, finish time Fri Nov 25 14:47:21 2022


Pair  time (%) = 0.559636 (0.0177068)
Neigh time (%) = 0.432646 (0.0136888)
Comm  time (%) = 4.87999 (0.154402)
Outpt time (%) = 0.0011155 (3.52942e-05)
Other time (%) = 3154.7 (99.8142)

Nlocal:    32.425 ave 390 max 0 min
Histogram: 32 3 1 2 0 0 0 0 0 2
Nghost:    6.65 ave 74 max 0 min
Histogram: 34 2 0 0 0 2 0 0 0 2
Neighs:    5.7 ave 82 max 0 min
Histogram: 36 0 1 0 1 0 0 0 0 2

Total # of neighbors = 228
Ave neighs/atom = 0.17579
Neighbor list builds = 552
Dangerous builds = 0
write_dump all custom dump.atom_info_ac_* id type x y z radius vx vy vz density #
run 205798
Setting up run at Fri Nov 25 14:47:21 2022

Memory usage per processor = 1084.21 Mbytes
    Step    Atoms         KinEng            CPU 
11318892     1297    0.033163169              0 
11524690     1296    0.034101815      3166.7091 
Loop time of 3166.71 on 40 procs for 205798 steps with 1296 atoms, finish time Fri Nov 25 15:40:08 2022


Pair  time (%) = 0.562218 (0.017754)
Neigh time (%) = 0.444331 (0.0140313)
Comm  time (%) = 4.59186 (0.145004)
Outpt time (%) = 0.00147985 (4.67315e-05)
Other time (%) = 3161.11 (99.8232)

Nlocal:    32.4 ave 387 max 0 min
Histogram: 32 1 4 1 0 0 0 0 0 2
Nghost:    6.475 ave 83 max 0 min
Histogram: 36 0 0 0 1 1 0 0 1 1
Neighs:    5.975 ave 86 max 0 min
Histogram: 35 1 1 1 0 0 0 0 0 2

Total # of neighbors = 239
Ave neighs/atom = 0.184414
Neighbor list builds = 565
Dangerous builds = 0
write_dump all custom dump.atom_info_ac_* id type x y z radius vx vy vz density #
run 205798
Setting up run at Fri Nov 25 15:40:08 2022

Memory usage per processor = 1084.21 Mbytes
    Step    Atoms         KinEng            CPU 
11524690     1296    0.034101815              0 
11730488     1294    0.034320076      3120.9572 
Loop time of 3120.96 on 40 procs for 205798 steps with 1294 atoms, finish time Fri Nov 25 16:32:09 2022


Pair  time (%) = 0.568648 (0.0182203)
Neigh time (%) = 0.437985 (0.0140337)
Comm  time (%) = 4.08099 (0.130761)
Outpt time (%) = 0.00132156 (4.23448e-05)
Other time (%) = 3115.87 (99.8369)

Nlocal:    32.35 ave 386 max 0 min
Histogram: 32 2 3 1 0 0 0 0 0 2
Nghost:    6.7 ave 76 max 0 min
Histogram: 34 2 0 0 0 2 0 0 1 1
Neighs:    5.7 ave 81 max 0 min
Histogram: 35 1 1 1 0 0 0 0 0 2

Total # of neighbors = 228
Ave neighs/atom = 0.176198
Neighbor list builds = 559
Dangerous builds = 0
write_dump all custom dump.atom_info_ac_* id type x y z radius vx vy vz density #
run 205798
Setting up run at Fri Nov 25 16:32:09 2022

Memory usage per processor = 1084.21 Mbytes
    Step    Atoms         KinEng            CPU 
11730488     1294    0.034320076              0 
11936286     1292    0.034989106      3189.1989 
Loop time of 3189.2 on 40 procs for 205798 steps with 1292 atoms, finish time Fri Nov 25 17:25:18 2022


Pair  time (%) = 0.559692 (0.0175496)
Neigh time (%) = 0.43352 (0.0135934)
Comm  time (%) = 4.1656 (0.130616)
Outpt time (%) = 0.00131381 (4.11956e-05)
Other time (%) = 3184.04 (99.8382)

Nlocal:    32.3 ave 387 max 0 min
Histogram: 32 3 1 2 0 0 0 0 1 1
Nghost:    6.875 ave 73 max 0 min
Histogram: 33 3 0 0 0 1 1 0 0 2
Neighs:    5.475 ave 77 max 0 min
Histogram: 35 1 2 0 0 0 0 0 0 2

Total # of neighbors = 219
Ave neighs/atom = 0.169505
Neighbor list builds = 554
Dangerous builds = 0
write_dump all custom dump.atom_info_ac_* id type x y z radius vx vy vz density #
run 205798
Setting up run at Fri Nov 25 17:25:18 2022

Memory usage per processor = 1084.21 Mbytes
    Step    Atoms         KinEng            CPU 
11936286     1292    0.034989106              0 
12142084     1291    0.035662511      3304.4106 
Loop time of 3304.41 on 40 procs for 205798 steps with 1291 atoms, finish time Fri Nov 25 18:20:23 2022


Pair  time (%) = 0.561634 (0.0169965)
Neigh time (%) = 0.436137 (0.0131986)
Comm  time (%) = 4.93269 (0.149276)
Outpt time (%) = 0.00132162 (3.99957e-05)
Other time (%) = 3298.48 (99.8205)

Nlocal:    32.275 ave 385 max 0 min
Histogram: 32 4 1 0 1 0 0 0 1 1
Nghost:    6.65 ave 74 max 0 min
Histogram: 35 1 0 0 0 2 0 0 0 2
Neighs:    5.475 ave 73 max 0 min
Histogram: 35 1 0 2 0 0 0 0 0 2

Total # of neighbors = 219
Ave neighs/atom = 0.169636
Neighbor list builds = 556
Dangerous builds = 0
write_dump all custom dump.atom_info_ac_* id type x y z radius vx vy vz density #
run 205798
Setting up run at Fri Nov 25 18:20:23 2022

Memory usage per processor = 1084.21 Mbytes
    Step    Atoms         KinEng            CPU 
12142084     1291    0.035662511              0 
12347882     1288    0.036096626      3242.8326 
Loop time of 3242.83 on 40 procs for 205798 steps with 1288 atoms, finish time Fri Nov 25 19:14:26 2022


Pair  time (%) = 0.562033 (0.0173316)
Neigh time (%) = 0.448098 (0.0138181)
Comm  time (%) = 5.16471 (0.159265)
Outpt time (%) = 0.00134452 (4.14614e-05)
Other time (%) = 3236.66 (99.8095)

Nlocal:    32.2 ave 382 max 0 min
Histogram: 32 2 3 1 0 0 0 0 1 1
Nghost:    6.975 ave 76 max 0 min
Histogram: 35 1 0 0 0 1 1 0 0 2
Neighs:    5.35 ave 75 max 0 min
Histogram: 35 0 3 0 0 0 0 0 0 2

Total # of neighbors = 214
Ave neighs/atom = 0.166149
Neighbor list builds = 571
Dangerous builds = 0
write_dump all custom dump.atom_info_ac_* id type x y z radius vx vy vz density #
run 205798
Setting up run at Fri Nov 25 19:14:26 2022

Memory usage per processor = 1084.21 Mbytes
    Step    Atoms         KinEng            CPU 
12347882     1288    0.036096626              0 
12553680     1284    0.036581297      3264.6096 
Loop time of 3264.61 on 40 procs for 205798 steps with 1284 atoms, finish time Fri Nov 25 20:08:51 2022


Pair  time (%) = 0.562465 (0.0172292)
Neigh time (%) = 0.452809 (0.0138702)
Comm  time (%) = 5.07849 (0.155562)
Outpt time (%) = 0.00111219 (3.4068e-05)
Other time (%) = 3258.52 (99.8133)

Nlocal:    32.1 ave 380 max 0 min
Histogram: 32 2 3 1 0 0 0 0 1 1
Nghost:    6.95 ave 73 max 0 min
Histogram: 35 1 0 0 0 1 0 1 0 2
Neighs:    5.525 ave 72 max 0 min
Histogram: 34 3 0 0 0 1 0 0 0 2

Total # of neighbors = 221
Ave neighs/atom = 0.172118
Neighbor list builds = 578
Dangerous builds = 0
write_dump all custom dump.atom_info_ac_* id type x y z radius vx vy vz density #
run 205798
Setting up run at Fri Nov 25 20:09:29 2022

Memory usage per processor = 1084.21 Mbytes
    Step    Atoms         KinEng            CPU 
12553680     1284    0.036581297              0 
12759478     1283    0.037151158      3127.5656 
Loop time of 3127.57 on 40 procs for 205798 steps with 1283 atoms, finish time Fri Nov 25 21:01:38 2022


Pair  time (%) = 0.556557 (0.0177952)
Neigh time (%) = 0.452782 (0.0144771)
Comm  time (%) = 4.84055 (0.154771)
Outpt time (%) = 0.0015276 (4.88431e-05)
Other time (%) = 3121.71 (99.8129)

Nlocal:    32.075 ave 380 max 0 min
Histogram: 32 2 3 1 0 0 0 0 1 1
Nghost:    6.95 ave 84 max 0 min
Histogram: 36 0 0 0 0 2 0 0 1 1
Neighs:    5.3 ave 69 max 0 min
Histogram: 34 2 1 0 1 0 0 0 0 2

Total # of neighbors = 212
Ave neighs/atom = 0.165238
Neighbor list builds = 578
Dangerous builds = 0
write_dump all custom dump.atom_info_ac_* id type x y z radius vx vy vz density #
run 205798
Setting up run at Fri Nov 25 21:01:38 2022

Memory usage per processor = 1084.21 Mbytes
    Step    Atoms         KinEng            CPU 
12759478     1283    0.037151158              0 
12965276     1282    0.037700261      3161.6442 
Loop time of 3161.64 on 40 procs for 205798 steps with 1282 atoms, finish time Fri Nov 25 21:54:19 2022


Pair  time (%) = 0.560471 (0.0177272)
Neigh time (%) = 0.461243 (0.0145887)
Comm  time (%) = 4.19284 (0.132616)
Outpt time (%) = 0.00144616 (4.57408e-05)
Other time (%) = 3156.43 (99.835)

Nlocal:    32.05 ave 378 max 0 min
Histogram: 32 2 2 2 0 0 0 0 1 1
Nghost:    6.95 ave 72 max 0 min
Histogram: 35 0 1 0 0 0 1 1 0 2
Neighs:    5.125 ave 68 max 0 min
Histogram: 33 3 1 1 0 0 0 0 0 2

Total # of neighbors = 205
Ave neighs/atom = 0.159906
Neighbor list builds = 587
Dangerous builds = 0
write_dump all custom dump.atom_info_ac_* id type x y z radius vx vy vz density #
run 205798
Setting up run at Fri Nov 25 21:54:19 2022

Memory usage per processor = 1084.21 Mbytes
    Step    Atoms         KinEng            CPU 
12965276     1282    0.037700261              0 
13171074     1280    0.038330417       3150.468 
Loop time of 3150.47 on 40 procs for 205798 steps with 1280 atoms, finish time Fri Nov 25 22:46:50 2022


Pair  time (%) = 0.557237 (0.0176874)
Neigh time (%) = 0.46305 (0.0146978)
Comm  time (%) = 4.60542 (0.146182)
Outpt time (%) = 0.00126511 (4.01561e-05)
Other time (%) = 3144.84 (99.8214)

Nlocal:    32 ave 380 max 0 min
Histogram: 32 2 2 2 0 0 0 0 1 1
Nghost:    6.925 ave 71 max 0 min
Histogram: 35 0 1 0 0 0 1 1 0 2
Neighs:    5.2 ave 70 max 0 min
Histogram: 34 1 2 1 0 0 0 0 0 2

Total # of neighbors = 208
Ave neighs/atom = 0.1625
Neighbor list builds = 590
Dangerous builds = 0
write_dump all custom dump.atom_info_ac_* id type x y z radius vx vy vz density #
run 205798
Setting up run at Fri Nov 25 22:46:50 2022

Memory usage per processor = 1084.21 Mbytes
    Step    Atoms         KinEng            CPU 
13171074     1280    0.038330417              0 
13376872     1280    0.038868503      3123.5594 
Loop time of 3123.61 on 40 procs for 205798 steps with 1280 atoms, finish time Fri Nov 25 23:38:54 2022


Pair  time (%) = 0.562889 (0.0180205)
Neigh time (%) = 0.462037 (0.0147918)
Comm  time (%) = 5.19766 (0.166399)
Outpt time (%) = 0.00131342 (4.20482e-05)
Other time (%) = 3117.39 (99.8007)

Nlocal:    32 ave 379 max 0 min
Histogram: 32 2 2 2 0 0 0 0 1 1
Nghost:    7.05 ave 75 max 0 min
Histogram: 35 1 0 0 0 0 2 0 0 2
Neighs:    5.45 ave 70 max 0 min
Histogram: 34 1 1 1 1 0 0 0 0 2

Total # of neighbors = 218
Ave neighs/atom = 0.170313
Neighbor list builds = 588
Dangerous builds = 0
write_dump all custom dump.atom_info_ac_* id type x y z radius vx vy vz density #
run 205798
Setting up run at Fri Nov 25 23:38:54 2022

Memory usage per processor = 1084.21 Mbytes
    Step    Atoms         KinEng            CPU 
13376872     1280    0.038868503              0 
13582670     1280    0.039726862      3129.7794 
Loop time of 3129.78 on 40 procs for 205798 steps with 1280 atoms, finish time Sat Nov 26 00:31:04 2022


Pair  time (%) = 0.564139 (0.0180249)
Neigh time (%) = 0.461922 (0.0147589)
Comm  time (%) = 5.19475 (0.165978)
Outpt time (%) = 0.00105354 (3.36617e-05)
Other time (%) = 3123.56 (99.8012)

Nlocal:    32 ave 374 max 0 min
Histogram: 32 1 3 2 0 0 0 0 1 1
Nghost:    7.375 ave 79 max 0 min
Histogram: 35 1 0 0 0 0 1 1 1 1
Neighs:    5.75 ave 70 max 0 min
Histogram: 33 3 0 2 0 0 0 0 0 2

Total # of neighbors = 230
Ave neighs/atom = 0.179688
Neighbor list builds = 589
Dangerous builds = 0
write_dump all custom dump.atom_info_ac_* id type x y z radius vx vy vz density #
run 205798
Setting up run at Sat Nov 26 00:31:04 2022

Memory usage per processor = 1084.21 Mbytes
    Step    Atoms         KinEng            CPU 
13582670     1280    0.039726862              0 
13788468     1279    0.040672422       3145.728 
Loop time of 3145.73 on 40 procs for 205798 steps with 1279 atoms, finish time Sat Nov 26 01:23:29 2022


Pair  time (%) = 0.567873 (0.0180522)
Neigh time (%) = 0.463637 (0.0147386)
Comm  time (%) = 5.10654 (0.162333)
Outpt time (%) = 0.00145693 (4.63145e-05)
Other time (%) = 3139.59 (99.8048)

Nlocal:    31.975 ave 377 max 0 min
Histogram: 32 0 6 0 0 0 0 0 1 1
Nghost:    7.4 ave 69 max 0 min
Histogram: 35 0 1 0 0 0 0 1 1 2
Neighs:    5.6 ave 69 max 0 min
Histogram: 32 3 2 1 0 0 0 0 0 2

Total # of neighbors = 224
Ave neighs/atom = 0.175137
Neighbor list builds = 591
Dangerous builds = 0
write_dump all custom dump.atom_info_ac_* id type x y z radius vx vy vz density #
run 205798
Setting up run at Sat Nov 26 01:23:30 2022

Memory usage per processor = 1084.21 Mbytes
    Step    Atoms         KinEng            CPU 
13788468     1279    0.040672422              0 
13994266     1276    0.040478893      3160.1355 
Loop time of 3160.14 on 40 procs for 205798 steps with 1276 atoms, finish time Sat Nov 26 02:16:10 2022


Pair  time (%) = 0.567144 (0.0179468)
Neigh time (%) = 0.461737 (0.0146113)
Comm  time (%) = 5.46423 (0.172911)
Outpt time (%) = 0.00135444 (4.28603e-05)
Other time (%) = 3153.64 (99.7945)

Nlocal:    31.9 ave 380 max 0 min
Histogram: 32 3 1 2 0 0 0 0 1 1
Nghost:    7.1 ave 77 max 0 min
Histogram: 36 0 0 0 0 0 1 1 0 2
Neighs:    5.25 ave 66 max 0 min
Histogram: 33 2 2 0 1 0 0 0 1 1

Total # of neighbors = 210
Ave neighs/atom = 0.164577
Neighbor list builds = 589
Dangerous builds = 0
write_dump all custom dump.atom_info_ac_* id type x y z radius vx vy vz density #
run 205798
Setting up run at Sat Nov 26 02:16:10 2022

Memory usage per processor = 1084.21 Mbytes
    Step    Atoms         KinEng            CPU 
13994266     1276    0.040478893              0 
14200064     1273    0.040767174      3114.1296 
Loop time of 3114.13 on 40 procs for 205798 steps with 1273 atoms, finish time Sat Nov 26 03:08:04 2022


Pair  time (%) = 0.567868 (0.0182352)
Neigh time (%) = 0.482026 (0.0154787)
Comm  time (%) = 5.41623 (0.173924)
Outpt time (%) = 0.00136612 (4.38685e-05)
Other time (%) = 3107.66 (99.7923)

Nlocal:    31.825 ave 378 max 0 min
Histogram: 32 2 3 1 0 0 0 0 1 1
Nghost:    7.2 ave 71 max 0 min
Histogram: 34 1 1 0 0 0 0 2 1 1
Neighs:    5.175 ave 64 max 0 min
Histogram: 34 1 1 1 1 0 0 0 0 2

Total # of neighbors = 207
Ave neighs/atom = 0.162608
Neighbor list builds = 614
Dangerous builds = 0
write_dump all custom dump.atom_info_ac_* id type x y z radius vx vy vz density #
run 205798
Setting up run at Sat Nov 26 03:08:04 2022

Memory usage per processor = 1084.21 Mbytes
    Step    Atoms         KinEng            CPU 
14200064     1273    0.040767174              0 
14405862     1273    0.041334755      3125.8372 
Loop time of 3125.84 on 40 procs for 205798 steps with 1273 atoms, finish time Sat Nov 26 04:00:10 2022


Pair  time (%) = 0.570817 (0.0182613)
Neigh time (%) = 0.497397 (0.0159124)
Comm  time (%) = 5.60111 (0.179187)
Outpt time (%) = 0.00140228 (4.48609e-05)
Other time (%) = 3119.17 (99.7866)

Nlocal:    31.825 ave 377 max 0 min
Histogram: 32 1 4 1 0 0 0 0 1 1
Nghost:    7.35 ave 70 max 0 min
Histogram: 32 3 1 0 0 0 0 1 2 1
Neighs:    5.7 ave 65 max 0 min
Histogram: 33 3 1 0 0 0 0 1 0 2

Total # of neighbors = 228
Ave neighs/atom = 0.179104
Neighbor list builds = 633
Dangerous builds = 0
write_dump all custom dump.atom_info_ac_* id type x y z radius vx vy vz density #
run 205798
Setting up run at Sat Nov 26 04:00:11 2022

Memory usage per processor = 1084.21 Mbytes
    Step    Atoms         KinEng            CPU 
14405862     1273    0.041334755              0 
14611660     1268     0.04200338      3150.4799 
Loop time of 3150.48 on 40 procs for 205798 steps with 1268 atoms, finish time Sat Nov 26 04:52:41 2022


Pair  time (%) = 0.569136 (0.0180651)
Neigh time (%) = 0.498115 (0.0158108)
Comm  time (%) = 5.57663 (0.177009)
Outpt time (%) = 0.00101091 (3.20876e-05)
Other time (%) = 3143.84 (99.7891)

Nlocal:    31.7 ave 376 max 0 min
Histogram: 32 2 3 1 0 0 0 0 1 1
Nghost:    7.45 ave 74 max 0 min
Histogram: 35 0 1 0 0 0 0 2 1 1
Neighs:    5.125 ave 63 max 0 min
Histogram: 33 2 1 1 1 0 0 0 0 2

Total # of neighbors = 205
Ave neighs/atom = 0.161672
Neighbor list builds = 632
Dangerous builds = 0
write_dump all custom dump.atom_info_ac_* id type x y z radius vx vy vz density #
run 205798
Setting up run at Sat Nov 26 04:52:41 2022

Memory usage per processor = 1084.21 Mbytes
    Step    Atoms         KinEng            CPU 
14611660     1268     0.04200338              0 
14817458     1267    0.042295863      3157.7726 
Loop time of 3157.77 on 40 procs for 205798 steps with 1267 atoms, finish time Sat Nov 26 05:45:19 2022


Pair  time (%) = 0.564647 (0.0178812)
Neigh time (%) = 0.498105 (0.0157739)
Comm  time (%) = 4.64361 (0.147053)
Outpt time (%) = 0.00141218 (4.47206e-05)
Other time (%) = 3152.07 (99.8192)

Nlocal:    31.675 ave 378 max 0 min
Histogram: 32 1 4 1 0 0 0 0 1 1
Nghost:    7.325 ave 76 max 0 min
Histogram: 35 0 1 0 0 0 0 3 0 1
Neighs:    5.4 ave 60 max 0 min
Histogram: 33 2 2 0 0 0 0 1 0 2

Total # of neighbors = 216
Ave neighs/atom = 0.170481
Neighbor list builds = 632
Dangerous builds = 0
write_dump all custom dump.atom_info_ac_* id type x y z radius vx vy vz density #
run 205798
Setting up run at Sat Nov 26 05:45:19 2022

Memory usage per processor = 1084.21 Mbytes
    Step    Atoms         KinEng            CPU 
14817458     1267    0.042295863              0 
15023256     1266    0.042641788       3127.938 
Loop time of 3127.94 on 40 procs for 205798 steps with 1266 atoms, finish time Sat Nov 26 06:37:27 2022


Pair  time (%) = 0.558115 (0.0178429)
Neigh time (%) = 0.498104 (0.0159243)
Comm  time (%) = 5.16474 (0.165117)
Outpt time (%) = 0.00139356 (4.4552e-05)
Other time (%) = 3121.72 (99.8011)

Nlocal:    31.65 ave 372 max 0 min
Histogram: 32 1 4 1 0 0 0 0 1 1
Nghost:    7.35 ave 72 max 0 min
Histogram: 36 0 0 0 0 0 0 1 1 2
Neighs:    4.95 ave 59 max 0 min
Histogram: 33 4 0 0 0 0 0 1 0 2

Total # of neighbors = 198
Ave neighs/atom = 0.156398
Neighbor list builds = 633
Dangerous builds = 0
write_dump all custom dump.atom_info_ac_* id type x y z radius vx vy vz density #
run 205798
Setting up run at Sat Nov 26 06:37:27 2022

Memory usage per processor = 1084.21 Mbytes
    Step    Atoms         KinEng            CPU 
15023256     1266    0.042641788              0 
15229054     1264    0.043168577      3135.4007 
Loop time of 3135.4 on 40 procs for 205798 steps with 1264 atoms, finish time Sat Nov 26 07:29:43 2022


Pair  time (%) = 0.561201 (0.0178989)
Neigh time (%) = 0.497053 (0.0158529)
Comm  time (%) = 5.71734 (0.182348)
Outpt time (%) = 0.00139044 (4.43464e-05)
Other time (%) = 3128.62 (99.7839)

Nlocal:    31.6 ave 371 max 0 min
Histogram: 32 0 5 1 0 0 0 0 1 1
Nghost:    7.25 ave 78 max 0 min
Histogram: 35 1 0 0 0 0 1 2 0 1
Neighs:    5.375 ave 58 max 0 min
Histogram: 33 2 1 0 1 0 0 1 1 1

Total # of neighbors = 215
Ave neighs/atom = 0.170095
Neighbor list builds = 632
Dangerous builds = 0
write_dump all custom dump.atom_info_ac_* id type x y z radius vx vy vz density #
run 205798
Setting up run at Sat Nov 26 07:29:43 2022

Memory usage per processor = 1084.21 Mbytes
    Step    Atoms         KinEng            CPU 
15229054     1264    0.043168577              0 
15434852     1262    0.043834471       3155.766 
Loop time of 3155.77 on 40 procs for 205798 steps with 1262 atoms, finish time Sat Nov 26 08:22:19 2022


Pair  time (%) = 0.564347 (0.017883)
Neigh time (%) = 0.472709 (0.0149792)
Comm  time (%) = 5.40414 (0.171246)
Outpt time (%) = 0.00141536 (4.48501e-05)
Other time (%) = 3149.32 (99.7958)

Nlocal:    31.55 ave 367 max 0 min
Histogram: 32 1 3 2 0 0 0 0 1 1
Nghost:    7.75 ave 83 max 0 min
Histogram: 34 2 0 0 0 0 2 1 0 1
Neighs:    5.2 ave 70 max 0 min
Histogram: 34 1 2 0 1 0 0 1 0 1

Total # of neighbors = 208
Ave neighs/atom = 0.164818
Neighbor list builds = 603
Dangerous builds = 0
write_dump all custom dump.atom_info_ac_* id type x y z radius vx vy vz density #
run 205798
Setting up run at Sat Nov 26 08:22:19 2022

Memory usage per processor = 1084.21 Mbytes
    Step    Atoms         KinEng            CPU 
15434852     1262    0.043834471              0 
15640650     1260    0.044048168      3158.1056 
Loop time of 3158.11 on 40 procs for 205798 steps with 1260 atoms, finish time Sat Nov 26 09:14:57 2022


Pair  time (%) = 0.56961 (0.0180364)
Neigh time (%) = 0.443132 (0.0140316)
Comm  time (%) = 5.47188 (0.173265)
Outpt time (%) = 0.000725799 (2.29821e-05)
Other time (%) = 3151.62 (99.7946)

Nlocal:    31.5 ave 362 max 0 min
Histogram: 32 1 4 0 1 0 0 0 1 1
Nghost:    7.9 ave 93 max 0 min
Histogram: 36 0 0 0 0 1 1 1 0 1
Neighs:    5.525 ave 70 max 0 min
Histogram: 34 1 2 0 1 0 0 0 0 2

Total # of neighbors = 221
Ave neighs/atom = 0.175397
Neighbor list builds = 566
Dangerous builds = 0
write_dump all custom dump.atom_info_ac_* id type x y z radius vx vy vz density #
run 205798
Setting up run at Sat Nov 26 09:14:57 2022

Memory usage per processor = 1084.21 Mbytes
    Step    Atoms         KinEng            CPU 
15640650     1260    0.044048168              0 
15846448     1259    0.044465596      3130.8355 
Loop time of 3130.84 on 40 procs for 205798 steps with 1259 atoms, finish time Sat Nov 26 10:07:08 2022


Pair  time (%) = 0.565535 (0.0180634)
Neigh time (%) = 0.452326 (0.0144475)
Comm  time (%) = 5.19963 (0.166078)
Outpt time (%) = 0.00114031 (3.64219e-05)
Other time (%) = 3124.62 (99.8014)

Nlocal:    31.475 ave 361 max 0 min
Histogram: 32 1 4 1 0 0 0 0 1 1
Nghost:    8.075 ave 84 max 0 min
Histogram: 35 0 1 0 0 0 1 1 1 1
Neighs:    5.4 ave 69 max 0 min
Histogram: 33 2 0 3 0 0 0 0 1 1

Total # of neighbors = 216
Ave neighs/atom = 0.171565
Neighbor list builds = 578
Dangerous builds = 0
write_dump all custom dump.atom_info_ac_* id type x y z radius vx vy vz density #
run 205798
Setting up run at Sat Nov 26 10:07:08 2022

Memory usage per processor = 1084.21 Mbytes
    Step    Atoms         KinEng            CPU 
15846448     1259    0.044465596              0 
16052246     1257    0.045271646      3138.7447 
Loop time of 3138.74 on 40 procs for 205798 steps with 1257 atoms, finish time Sat Nov 26 10:59:27 2022


Pair  time (%) = 0.569718 (0.0181511)
Neigh time (%) = 0.46368 (0.0147728)
Comm  time (%) = 5.51907 (0.175837)
Outpt time (%) = 0.00146981 (4.68279e-05)
Other time (%) = 3132.19 (99.7912)

Nlocal:    31.425 ave 357 max 0 min
Histogram: 32 1 3 2 0 0 0 0 1 1
Nghost:    8 ave 81 max 0 min
Histogram: 35 1 0 0 0 0 1 1 0 2
Neighs:    5.3 ave 64 max 0 min
Histogram: 32 3 2 0 1 0 0 0 0 2

Total # of neighbors = 212
Ave neighs/atom = 0.168656
Neighbor list builds = 592
Dangerous builds = 0
write_dump all custom dump.atom_info_ac_* id type x y z radius vx vy vz density #
run 205798
Setting up run at Sat Nov 26 10:59:27 2022

Memory usage per processor = 1084.21 Mbytes
    Step    Atoms         KinEng            CPU 
16052246     1257    0.045271646              0 
16258044     1254    0.045663526      3168.5309 
Loop time of 3168.53 on 40 procs for 205798 steps with 1254 atoms, finish time Sat Nov 26 11:52:16 2022


Pair  time (%) = 0.574536 (0.0181326)
Neigh time (%) = 0.472505 (0.0149124)
Comm  time (%) = 5.62508 (0.177529)
Outpt time (%) = 0.00152968 (4.82772e-05)
Other time (%) = 3161.86 (99.7894)

Nlocal:    31.35 ave 355 max 0 min
Histogram: 32 2 2 2 0 0 0 0 1 1
Nghost:    8.075 ave 86 max 0 min
Histogram: 35 0 1 0 0 0 2 0 1 1
Neighs:    5.6 ave 63 max 0 min
Histogram: 33 1 2 1 0 0 1 0 1 1

Total # of neighbors = 224
Ave neighs/atom = 0.178628
Neighbor list builds = 605
Dangerous builds = 0
write_dump all custom dump.atom_info_ac_* id type x y z radius vx vy vz density #
run 205798
Setting up run at Sat Nov 26 11:52:16 2022

Memory usage per processor = 1084.21 Mbytes
    Step    Atoms         KinEng            CPU 
16258044     1254    0.045663526              0 
16463842     1252    0.046146773      3296.1267 
Loop time of 3296.24 on 40 procs for 205798 steps with 1252 atoms, finish time Sat Nov 26 12:47:12 2022


Pair  time (%) = 0.582885 (0.0176833)
Neigh time (%) = 0.471991 (0.0143191)
Comm  time (%) = 5.48118 (0.166286)
Outpt time (%) = 0.00132886 (4.03142e-05)
Other time (%) = 3289.71 (99.8017)

Nlocal:    31.3 ave 350 max 0 min
Histogram: 32 1 3 1 1 0 0 0 1 1
Nghost:    8.525 ave 82 max 0 min
Histogram: 34 1 1 0 0 0 2 0 0 2
Neighs:    5.3 ave 60 max 0 min
Histogram: 33 3 0 0 1 0 1 0 1 1

[...]


Pair  time (%) = 0.674607 (0.0209991)
Neigh time (%) = 0.489427 (0.0152348)
Comm  time (%) = 5.30827 (0.165235)
Outpt time (%) = 0.000743009 (2.31283e-05)
Other time (%) = 3206.08 (99.7985)

Nlocal:    28.05 ave 229 max 0 min
Histogram: 32 0 0 2 1 3 0 0 0 2
Nghost:    5.9 ave 67 max 0 min
Histogram: 32 4 1 1 0 0 0 0 0 2
Neighs:    4.75 ave 44 max 0 min
Histogram: 32 1 1 2 0 0 2 0 1 1

Total # of neighbors = 190
Ave neighs/atom = 0.16934
Neighbor list builds = 622
Dangerous builds = 0
write_dump all custom dump.atom_info_ac_* id type x y z radius vx vy vz density #
run 205798
Setting up run at Wed Nov 30 05:01:01 2022

Memory usage per processor = 1084.21 Mbytes
    Step    Atoms         KinEng            CPU 
37043675     1122    0.066523798              0 
37249473     1121    0.066673317      3150.8546 
Loop time of 3150.86 on 40 procs for 205798 steps with 1121 atoms, finish time Wed Nov 30 05:53:32 2022


Pair  time (%) = 0.666371 (0.0211489)
Neigh time (%) = 0.478579 (0.0151889)
Comm  time (%) = 5.32124 (0.168882)
Outpt time (%) = 0.00123105 (3.90704e-05)
Other time (%) = 3144.39 (99.7947)

Nlocal:    28.025 ave 226 max 0 min
Histogram: 32 0 0 2 2 1 1 0 0 2
Nghost:    6.125 ave 60 max 0 min
Histogram: 33 1 1 1 1 1 0 1 0 1
Neighs:    4.85 ave 57 max 0 min
Histogram: 32 2 2 2 0 0 0 0 1 1

Total # of neighbors = 194
Ave neighs/atom = 0.17306
Neighbor list builds = 607
Dangerous builds = 0
write_dump all custom dump.atom_info_ac_* id type x y z radius vx vy vz density #
run 205798
Setting up run at Wed Nov 30 05:53:32 2022

Memory usage per processor = 1084.21 Mbytes
    Step    Atoms         KinEng            CPU 
37249473     1121    0.066673317              0 
37455271     1119    0.066363631      3158.8407 
Loop time of 3158.84 on 40 procs for 205798 steps with 1119 atoms, finish time Wed Nov 30 06:46:11 2022


Pair  time (%) = 0.667773 (0.0211398)
Neigh time (%) = 0.455499 (0.0144198)
Comm  time (%) = 5.31221 (0.168169)
Outpt time (%) = 0.00152738 (4.83524e-05)
Other time (%) = 3152.4 (99.7962)

Nlocal:    27.975 ave 223 max 0 min
Histogram: 32 0 1 1 0 3 1 0 0 2
Nghost:    6.15 ave 63 max 0 min
Histogram: 32 2 1 2 0 1 0 0 1 1
Neighs:    4.95 ave 61 max 0 min
Histogram: 33 3 0 1 1 0 0 1 0 1

Total # of neighbors = 198
Ave neighs/atom = 0.176944
Neighbor list builds = 579
Dangerous builds = 0
write_dump all custom dump.atom_info_ac_* id type x y z radius vx vy vz density #
run 205798
Setting up run at Wed Nov 30 06:46:11 2022

Memory usage per processor = 1084.21 Mbytes
    Step    Atoms         KinEng            CPU 
37455271     1119    0.066363631              0 
37661069     1119    0.066551654      3200.9657 
Loop time of 3200.97 on 40 procs for 205798 steps with 1119 atoms, finish time Wed Nov 30 07:39:32 2022


Pair  time (%) = 0.673072 (0.0210271)
Neigh time (%) = 0.454939 (0.0142126)
Comm  time (%) = 5.45291 (0.170352)
Outpt time (%) = 0.00174282 (5.44467e-05)
Other time (%) = 3194.38 (99.7944)

Nlocal:    27.975 ave 223 max 0 min
Histogram: 32 0 0 0 4 1 0 1 0 2
Nghost:    5.8 ave 54 max 0 min
Histogram: 30 3 2 1 1 1 0 0 1 1
Neighs:    5.05 ave 60 max 0 min
Histogram: 32 2 2 1 1 0 0 1 0 1

Total # of neighbors = 202
Ave neighs/atom = 0.180518
Neighbor list builds = 581
Dangerous builds = 0
write_dump all custom dump.atom_info_ac_* id type x y z radius vx vy vz density #
run 205798
Setting up run at Wed Nov 30 07:39:32 2022

Memory usage per processor = 1084.21 Mbytes
    Step    Atoms         KinEng            CPU 
37661069     1119    0.066551654              0 
37866867     1117    0.066434005      3200.2382 
Loop time of 3200.24 on 40 procs for 205798 steps with 1117 atoms, finish time Wed Nov 30 08:32:52 2022


Pair  time (%) = 0.674532 (0.0210775)
Neigh time (%) = 0.463296 (0.0144769)
Comm  time (%) = 5.42105 (0.169395)
Outpt time (%) = 0.00166019 (5.18772e-05)
Other time (%) = 3193.68 (99.795)

Nlocal:    27.925 ave 223 max 0 min
Histogram: 32 0 1 1 0 3 1 0 0 2
Nghost:    5.6 ave 56 max 0 min
Histogram: 31 3 1 2 0 0 1 1 0 1
Neighs:    5.125 ave 69 max 0 min
Histogram: 32 3 1 1 1 0 1 0 0 1

Total # of neighbors = 205
Ave neighs/atom = 0.183527
Neighbor list builds = 589
Dangerous builds = 0
write_dump all custom dump.atom_info_ac_* id type x y z radius vx vy vz density #
run 205798
Setting up run at Wed Nov 30 08:32:53 2022

Memory usage per processor = 1084.21 Mbytes
    Step    Atoms         KinEng            CPU 
37866867     1117    0.066434005              0 
38072665     1117    0.066479215      3158.6713 
Loop time of 3158.67 on 40 procs for 205798 steps with 1117 atoms, finish time Wed Nov 30 09:25:31 2022


Pair  time (%) = 0.675518 (0.0213861)
Neigh time (%) = 0.464108 (0.0146931)
Comm  time (%) = 5.24532 (0.166061)
Outpt time (%) = 0.00140408 (4.44516e-05)
Other time (%) = 3152.29 (99.7978)

Nlocal:    27.925 ave 222 max 0 min
Histogram: 32 0 0 1 4 0 0 1 0 2
Nghost:    5.625 ave 56 max 0 min
Histogram: 32 1 2 2 1 0 0 0 1 1
Neighs:    4.975 ave 63 max 0 min
Histogram: 32 4 0 1 1 0 1 0 0 1

Total # of neighbors = 199
Ave neighs/atom = 0.178156
Neighbor list builds = 589
Dangerous builds = 0
write_dump all custom dump.atom_info_ac_* id type x y z radius vx vy vz density #
run 205798
Setting up run at Wed Nov 30 09:25:31 2022

Memory usage per processor = 1084.21 Mbytes
    Step    Atoms         KinEng            CPU 
38072665     1117    0.066479215              0 
38278463     1116    0.066565815      3162.8363 
Loop time of 3162.84 on 40 procs for 205798 steps with 1116 atoms, finish time Wed Nov 30 10:18:14 2022


Pair  time (%) = 0.669114 (0.0211555)
Neigh time (%) = 0.465731 (0.0147251)
Comm  time (%) = 5.44008 (0.172)
Outpt time (%) = 0.00127563 (4.03319e-05)
Other time (%) = 3156.26 (99.7921)

Nlocal:    27.9 ave 222 max 0 min
Histogram: 32 0 0 2 1 2 1 0 0 2
Nghost:    5.175 ave 52 max 0 min
Histogram: 31 3 1 2 0 1 0 1 0 1
Neighs:    4.875 ave 53 max 0 min
Histogram: 32 2 1 3 0 0 0 0 0 2

Total # of neighbors = 195
Ave neighs/atom = 0.174731
Neighbor list builds = 591
Dangerous builds = 0
write_dump all custom dump.atom_info_ac_* id type x y z radius vx vy vz density #
run 205798
Setting up run at Wed Nov 30 10:18:14 2022

Memory usage per processor = 1084.21 Mbytes
    Step    Atoms         KinEng            CPU 
38278463     1116    0.066565815              0 
38484261     1116    0.066891499       3246.117 
Loop time of 3246.12 on 40 procs for 205798 steps with 1116 atoms, finish time Wed Nov 30 11:12:21 2022


Pair  time (%) = 0.674337 (0.0207736)
Neigh time (%) = 0.466212 (0.0143621)
Comm  time (%) = 5.4841 (0.168943)
Outpt time (%) = 0.00179408 (5.52684e-05)
Other time (%) = 3239.49 (99.7959)

Nlocal:    27.9 ave 222 max 0 min
Histogram: 32 0 0 3 1 1 0 1 0 2
Nghost:    5.725 ave 73 max 0 min
Histogram: 33 1 3 1 0 1 0 0 0 1
Neighs:    5.2 ave 73 max 0 min
Histogram: 32 5 0 1 0 0 1 0 0 1

Total # of neighbors = 208
Ave neighs/atom = 0.18638
Neighbor list builds = 594
Dangerous builds = 0
write_dump all custom dump.atom_info_ac_* id type x y z radius vx vy vz density #
run 205798
Setting up run at Wed Nov 30 11:12:21 2022

Memory usage per processor = 1084.21 Mbytes
    Step    Atoms         KinEng            CPU 
38484261     1116    0.066891499              0 
38690059     1114    0.066579949      3197.7176 
Loop time of 3197.72 on 40 procs for 205798 steps with 1114 atoms, finish time Wed Nov 30 12:05:39 2022


Pair  time (%) = 0.675506 (0.0211246)
Neigh time (%) = 0.464216 (0.0145171)
Comm  time (%) = 5.4554 (0.170603)
Outpt time (%) = 0.0147147 (0.000460161)
Other time (%) = 3191.11 (99.7933)

Nlocal:    27.85 ave 222 max 0 min
Histogram: 32 0 0 2 1 1 2 0 0 2
Nghost:    5.45 ave 49 max 0 min
Histogram: 30 2 1 4 1 0 0 0 1 1
Neighs:    5.15 ave 61 max 0 min
Histogram: 32 2 2 2 0 0 0 0 1 1

Total # of neighbors = 206
Ave neighs/atom = 0.184919
Neighbor list builds = 591
Dangerous builds = 0
write_dump all custom dump.atom_info_ac_* id type x y z radius vx vy vz density #
run 205798
Setting up run at Wed Nov 30 12:05:39 2022

Memory usage per processor = 1084.21 Mbytes
    Step    Atoms         KinEng            CPU 
38690059     1114    0.066579949              0 
38895857     1114    0.066639265      3151.4614 
Loop time of 3151.46 on 40 procs for 205798 steps with 1114 atoms, finish time Wed Nov 30 12:58:10 2022


Pair  time (%) = 0.671499 (0.0213075)
Neigh time (%) = 0.466917 (0.0148159)
Comm  time (%) = 5.24927 (0.166566)
Outpt time (%) = 0.00136598 (4.33444e-05)
Other time (%) = 3145.07 (99.7973)

Nlocal:    27.85 ave 222 max 0 min
Histogram: 32 0 0 1 2 2 1 0 0 2
Nghost:    5.8 ave 64 max 0 min
Histogram: 32 4 0 2 0 0 0 0 0 2
Neighs:    5.175 ave 56 max 0 min
Histogram: 32 2 1 1 1 1 0 1 0 1

Total # of neighbors = 207
Ave neighs/atom = 0.185817
Neighbor list builds = 592
Dangerous builds = 0
write_dump all custom dump.atom_info_ac_* id type x y z radius vx vy vz density #
run 205798
Setting up run at Wed Nov 30 12:58:10 2022

Memory usage per processor = 1084.21 Mbytes
    Step    Atoms         KinEng            CPU 
38895857     1114    0.066639265              0 
39101655     1113    0.066655607      3155.5112 
Loop time of 3155.51 on 40 procs for 205798 steps with 1113 atoms, finish time Wed Nov 30 13:50:46 2022


Pair  time (%) = 0.894307 (0.0283411)
Neigh time (%) = 0.588503 (0.01865)
Comm  time (%) = 5.66211 (0.179436)
Outpt time (%) = 0.0714672 (0.00226484)
Other time (%) = 3148.3 (99.7713)

Nlocal:    27.825 ave 217 max 0 min
Histogram: 32 0 0 1 2 2 1 0 0 2
Nghost:    6.05 ave 59 max 0 min
Histogram: 28 5 2 2 0 1 0 1 0 1
Neighs:    5.075 ave 55 max 0 min
Histogram: 32 2 0 1 2 1 1 0 0 1

Total # of neighbors = 203
Ave neighs/atom = 0.18239
Neighbor list builds = 589
Dangerous builds = 0
write_dump all custom dump.atom_info_ac_* id type x y z radius vx vy vz density #
run 205798
Setting up run at Wed Nov 30 13:50:47 2022

Memory usage per processor = 1084.21 Mbytes
    Step    Atoms         KinEng            CPU 
39101655     1113    0.066655607              0 
39307453     1113    0.066707632      3200.5053 
Loop time of 3200.51 on 40 procs for 205798 steps with 1113 atoms, finish time Wed Nov 30 14:44:07 2022


Pair  time (%) = 0.683736 (0.0213634)
Neigh time (%) = 0.461698 (0.0144258)
Comm  time (%) = 5.43415 (0.16979)
Outpt time (%) = 0.00146103 (4.56499e-05)
Other time (%) = 3193.92 (99.7944)

Nlocal:    27.825 ave 216 max 0 min
Histogram: 32 0 0 1 2 2 1 0 0 2
Nghost:    5.8 ave 65 max 0 min
Histogram: 32 3 2 1 0 0 0 0 1 1
Neighs:    5.05 ave 56 max 0 min
Histogram: 32 2 2 0 1 1 0 0 1 1

Total # of neighbors = 202
Ave neighs/atom = 0.181491
Neighbor list builds = 587
Dangerous builds = 0
write_dump all custom dump.atom_info_ac_* id type x y z radius vx vy vz density #
run 205798
Setting up run at Wed Nov 30 14:44:08 2022

Memory usage per processor = 1084.21 Mbytes
    Step    Atoms         KinEng            CPU 
39307453     1113    0.066707632              0 
39513251     1112    0.066758726      3201.7139 
Loop time of 3201.71 on 40 procs for 205798 steps with 1112 atoms, finish time Wed Nov 30 15:37:29 2022


Pair  time (%) = 0.679266 (0.0212157)
Neigh time (%) = 0.461979 (0.0144291)
Comm  time (%) = 5.39522 (0.16851)
Outpt time (%) = 0.00165653 (5.17387e-05)
Other time (%) = 3195.18 (99.7958)

Nlocal:    27.8 ave 214 max 0 min
Histogram: 32 0 1 0 2 2 0 1 0 2
Nghost:    5.625 ave 49 max 0 min
Histogram: 31 1 2 2 1 1 0 0 0 2
Neighs:    5.2 ave 46 max 0 min
Histogram: 32 3 0 0 1 0 0 1 0 3

Total # of neighbors = 208
Ave neighs/atom = 0.18705
Neighbor list builds = 589
Dangerous builds = 0
write_dump all custom dump.atom_info_ac_* id type x y z radius vx vy vz density #
run 205798
Setting up run at Wed Nov 30 15:37:29 2022

Memory usage per processor = 1084.21 Mbytes
    Step    Atoms         KinEng            CPU 
39513251     1112    0.066758726              0 
39719049     1112    0.067338052        3149.02 
Loop time of 3149.02 on 40 procs for 205798 steps with 1112 atoms, finish time Wed Nov 30 16:29:59 2022


Pair  time (%) = 0.677816 (0.0215247)
Neigh time (%) = 0.468823 (0.0148879)
Comm  time (%) = 5.21877 (0.165727)
Outpt time (%) = 0.00138275 (4.39105e-05)
Other time (%) = 3142.65 (99.7978)

Nlocal:    27.8 ave 213 max 0 min
Histogram: 32 0 0 0 4 1 1 0 0 2
Nghost:    6.1 ave 55 max 0 min
Histogram: 30 2 1 3 1 1 0 1 0 1
Neighs:    5.15 ave 59 max 0 min
Histogram: 32 3 0 1 1 1 0 1 0 1

Total # of neighbors = 206
Ave neighs/atom = 0.185252
Neighbor list builds = 595
Dangerous builds = 0
write_dump all custom dump.atom_info_ac_* id type x y z radius vx vy vz density #
run 205798
Setting up run at Wed Nov 30 16:29:59 2022

Memory usage per processor = 1084.21 Mbytes
    Step    Atoms         KinEng            CPU 
39719049     1112    0.067338052              0 
39924847     1111    0.066790526      3149.5442 
Loop time of 3149.54 on 40 procs for 205798 steps with 1111 atoms, finish time Wed Nov 30 17:22:28 2022


Pair  time (%) = 0.681289 (0.0216313)
Neigh time (%) = 0.472899 (0.0150148)
Comm  time (%) = 5.35365 (0.169982)
Outpt time (%) = 0.00157345 (4.9958e-05)
Other time (%) = 3143.03 (99.7933)

Nlocal:    27.775 ave 211 max 0 min
Histogram: 32 0 0 1 2 2 1 0 0 2
Nghost:    5.45 ave 52 max 0 min
Histogram: 31 1 3 2 1 0 0 0 1 1
Neighs:    5.575 ave 56 max 0 min
Histogram: 32 3 0 1 0 1 0 0 2 1

Total # of neighbors = 223
Ave neighs/atom = 0.20072
Neighbor list builds = 601
Dangerous builds = 0
write_dump all custom dump.atom_info_ac_* id type x y z radius vx vy vz density #
run 205798
Setting up run at Wed Nov 30 17:22:28 2022

Memory usage per processor = 1084.21 Mbytes
    Step    Atoms         KinEng            CPU 
39924847     1111    0.066790526              0 
40130645     1111    0.066821475      3192.4439 
Loop time of 3192.44 on 40 procs for 205798 steps with 1111 atoms, finish time Wed Nov 30 18:15:41 2022


Pair  time (%) = 0.682578 (0.0213811)
Neigh time (%) = 0.474457 (0.0148619)
Comm  time (%) = 5.46842 (0.171293)
Outpt time (%) = 0.00167105 (5.23438e-05)
Other time (%) = 3185.82 (99.7924)

Nlocal:    27.775 ave 211 max 0 min
Histogram: 32 0 0 1 3 1 0 1 0 2
Nghost:    6.025 ave 48 max 0 min
Histogram: 28 3 3 1 1 2 0 0 1 1
Neighs:    5.3 ave 62 max 0 min
Histogram: 32 3 0 0 3 0 1 0 0 1

Total # of neighbors = 212
Ave neighs/atom = 0.190819
Neighbor list builds = 603
Dangerous builds = 0
write_dump all custom dump.atom_info_ac_* id type x y z radius vx vy vz density #
run 205798
Setting up run at Wed Nov 30 18:15:41 2022

Memory usage per processor = 1084.21 Mbytes
    Step    Atoms         KinEng            CPU 
40130645     1111    0.066821475              0 
40336443     1111     0.06698532      3194.6166 
Loop time of 3194.62 on 40 procs for 205798 steps with 1111 atoms, finish time Wed Nov 30 19:08:56 2022


Pair  time (%) = 0.681317 (0.021327)
Neigh time (%) = 0.474699 (0.0148593)
Comm  time (%) = 5.51174 (0.172532)
Outpt time (%) = 0.00158046 (4.94726e-05)
Other time (%) = 3187.95 (99.7912)

Nlocal:    27.775 ave 210 max 0 min
Histogram: 32 0 0 0 2 4 0 0 0 2
Nghost:    5.75 ave 59 max 0 min
Histogram: 31 2 3 2 0 0 0 0 0 2
Neighs:    5.5 ave 54 max 0 min
Histogram: 32 1 1 1 0 3 0 0 1 1

Total # of neighbors = 220
Ave neighs/atom = 0.19802
Neighbor list builds = 603
Dangerous builds = 0
write_dump all custom dump.atom_info_ac_* id type x y z radius vx vy vz density #
run 205798
Setting up run at Wed Nov 30 19:08:56 2022

Memory usage per processor = 1084.21 Mbytes
    Step    Atoms         KinEng            CPU 
40336443     1111     0.06698532              0 
40542241     1110    0.066872049      3145.3534 
Loop time of 3145.35 on 40 procs for 205798 steps with 1110 atoms, finish time Wed Nov 30 20:01:21 2022


Pair  time (%) = 0.684845 (0.0217732)
Neigh time (%) = 0.475183 (0.0151075)
Comm  time (%) = 5.17612 (0.164564)
Outpt time (%) = 0.00116336 (3.69867e-05)
Other time (%) = 3139.02 (99.7985)

Nlocal:    27.75 ave 209 max 0 min
Histogram: 31 1 0 0 4 1 0 1 0 2
Nghost:    5.625 ave 54 max 0 min
Histogram: 30 3 1 3 1 0 0 1 0 1
Neighs:    5.4 ave 68 max 0 min
Histogram: 32 3 0 2 1 1 0 0 0 1

Total # of neighbors = 216
Ave neighs/atom = 0.194595
Neighbor list builds = 602
Dangerous builds = 0
write_dump all custom dump.atom_info_ac_* id type x y z radius vx vy vz density #
run 205798
Setting up run at Wed Nov 30 20:01:21 2022

Memory usage per processor = 1084.21 Mbytes
    Step    Atoms         KinEng            CPU 
40542241     1110    0.066872049              0 
40748039     1110    0.066958114       3159.502 
Loop time of 3159.5 on 40 procs for 205798 steps with 1110 atoms, finish time Wed Nov 30 20:54:01 2022


Pair  time (%) = 0.686648 (0.0217328)
Neigh time (%) = 0.475509 (0.0150501)
Comm  time (%) = 4.92834 (0.155985)
Outpt time (%) = 0.00158414 (5.01389e-05)
Other time (%) = 3153.41 (99.8072)

Nlocal:    27.75 ave 209 max 0 min
Histogram: 31 1 0 1 1 2 2 0 0 2
Nghost:    5.45 ave 60 max 0 min
Histogram: 31 2 5 0 0 0 0 0 0 2
Neighs:    5.225 ave 50 max 0 min
Histogram: 32 2 0 1 1 2 0 0 0 2

Total # of neighbors = 209
Ave neighs/atom = 0.188288
Neighbor list builds = 603
Dangerous builds = 0
write_dump all custom dump.atom_info_ac_* id type x y z radius vx vy vz density #
run 205798
Setting up run at Wed Nov 30 20:54:01 2022

Memory usage per processor = 1084.21 Mbytes
    Step    Atoms         KinEng            CPU 
40748039     1110    0.066958114              0 
40953837     1110    0.067020773      3200.8537 
Loop time of 3200.85 on 40 procs for 205798 steps with 1110 atoms, finish time Wed Nov 30 21:47:22 2022


Pair  time (%) = 0.689561 (0.021543)
Neigh time (%) = 0.473371 (0.0147889)
Comm  time (%) = 4.71508 (0.147307)
Outpt time (%) = 0.00175823 (5.49301e-05)
Other time (%) = 3194.97 (99.8163)

Nlocal:    27.75 ave 207 max 0 min
Histogram: 30 2 0 0 3 2 0 0 1 2
Nghost:    5.575 ave 57 max 0 min
Histogram: 29 4 1 3 1 0 0 1 0 1
Neighs:    5.475 ave 66 max 0 min
Histogram: 32 2 2 1 0 1 1 0 0 1

Total # of neighbors = 219
Ave neighs/atom = 0.197297
Neighbor list builds = 603
Dangerous builds = 0
write_dump all custom dump.atom_info_ac_* id type x y z radius vx vy vz density #
run 205798
Setting up run at Wed Nov 30 21:47:22 2022

Memory usage per processor = 1084.21 Mbytes
    Step    Atoms         KinEng            CPU 
40953837     1110    0.067020773              0 
41159635     1108    0.067048306      3192.9484 
Loop time of 3192.95 on 40 procs for 205798 steps with 1108 atoms, finish time Wed Nov 30 22:40:35 2022


Pair  time (%) = 0.689638 (0.0215988)
Neigh time (%) = 0.472809 (0.0148079)
Comm  time (%) = 4.92892 (0.154369)
Outpt time (%) = 0.00160027 (5.0119e-05)
Other time (%) = 3186.86 (99.8092)

Nlocal:    27.7 ave 207 max 0 min
Histogram: 30 2 0 1 1 2 2 0 0 2
Nghost:    5.05 ave 63 max 0 min
Histogram: 31 5 2 0 0 0 0 0 1 1
Neighs:    5.775 ave 65 max 0 min
Histogram: 32 2 0 2 1 2 0 0 0 1

Total # of neighbors = 231
Ave neighs/atom = 0.208484
Neighbor list builds = 601
Dangerous builds = 0
write_dump all custom dump.atom_info_ac_* id type x y z radius vx vy vz density #
run 33
Setting up run at Wed Nov 30 22:40:35 2022

Memory usage per processor = 1084.21 Mbytes
    Step    Atoms         KinEng            CPU 
41159635     1108    0.067048306              0 
41159668     1108    0.066952924     0.48530644 
Loop time of 0.48532 on 40 procs for 33 steps with 1108 atoms, finish time Wed Nov 30 22:40:36 2022


Pair  time (%) = 0.000114701 (0.0236341)
Neigh time (%) = 0 (0)
Comm  time (%) = 0.000166018 (0.0342079)
Outpt time (%) = 0.001248 (0.25715)
Other time (%) = 0.483792 (99.685)

Nlocal:    27.7 ave 207 max 0 min
Histogram: 30 2 0 1 1 2 2 0 0 2
Nghost:    5.05 ave 63 max 0 min
Histogram: 31 5 2 0 0 0 0 0 1 1
Neighs:    5.75 ave 65 max 0 min
Histogram: 32 2 0 2 1 2 0 0 0 1

Total # of neighbors = 230
Ave neighs/atom = 0.207581
Neighbor list builds = 0
Dangerous builds = 0
write_dump all custom dump.atom_info_ac_* id type x y z radius vx vy vz density #
