ITEM: TIMESTEP
14814794
ITEM: NUMBER OF ATOMS
808
ITEM: BOX BOUNDS ff ff ff
-0.15 0.15
-0.15 0.15
-0.15 0.15
ITEM: ATOMS id type x y z radius vx vy vz density 
159 1 -0.0023147 -0.0446144 -0.0687861 0.000175 -17.5023 -6.20364 0.588966 2650 
1031 1 -0.00685622 -0.00306767 -0.0684827 0.000175 -38.329 6.6754 3.83733 2650 
151 1 -0.00957445 -0.0576757 -0.0676942 0.000635 -35.1752 -1.32666 4.97428 2650 
422 1 -0.00901402 -0.046537 -0.0677722 0.000635 -38.3221 10.1427 5.09425 2650 
46 1 -0.0014682 -0.0394696 -0.0683498 0.000635 -26.2991 4.78267 0.564842 2650 
959 1 -0.0155507 -0.0201628 -0.0670453 0.000175 -47.3775 2.47464 10.9886 2650 
1179 1 -0.0111776 -0.0120969 -0.0674451 0.000635 -17.1523 1.47165 2.84262 2650 
1138 1 -0.00934194 -0.0103695 -0.0677243 0.000635 -26.2695 -1.07367 3.62314 2650 
546 1 -0.00545763 -0.0027363 -0.0681473 0.000635 -25.7501 -1.09728 2.06199 2650 
579 1 -0.0188773 -0.0568082 -0.0657113 0.000635 -35.1644 -2.57996 10.0978 2650 
1120 1 -0.0163342 -0.0379298 -0.0668586 0.000175 -25.9208 1.16937 6.33272 2650 
103 1 -0.0149471 -0.00480364 -0.0663605 0.000984 -29.7057 -0.752094 6.68672 2650 
254 1 -0.0195043 -0.034047 -0.0655248 0.000635 -25.674 1.20777 7.64051 2650 
654 1 -0.0236887 -0.0498234 -0.0641352 0.000635 -28.8607 8.01693 10.8185 2650 
1182 1 -0.0251837 -0.0285919 -0.0635581 0.000635 -20.6448 0.607584 8.17797 2650 
25 1 -0.0316611 -0.0608584 -0.0611103 0.000175 -29.6138 1.4656 15.3426 2650 
250 1 -0.029406 -0.0533975 -0.0617213 0.000635 -27.5624 0.264082 13.126 2650 
1206 1 -0.0297457 -0.0501011 -0.0615581 0.000635 -26.8052 -0.125714 12.9471 2650 
186 1 -0.0296352 -0.00127669 -0.0616099 0.000635 -23.216 -0.990083 11.1632 2650 
1198 1 -0.0331221 -0.0483623 -0.0604585 6.3e-05 -15.5683 -4.03367 8.52862 2650 
970 1 -0.0326444 -0.0469803 -0.059649 0.000984 -23.2452 -13.6019 13.3111 2650 
1070 1 -0.0310827 -0.00465273 -0.0605083 0.000984 -25.0079 -1.90909 12.8372 2650 
1224 1 -0.0350857 -0.0238694 -0.0592105 0.000175 -27.5299 4.62554 16.3127 2650 
611 1 -0.0377531 -0.0156529 -0.0570032 0.000635 -28.1365 -0.641456 18.6255 2650 
1050 1 -0.0392279 -0.0429791 -0.0560006 0.000635 -30.37 -1.31453 21.2636 2650 
1211 1 -0.0381816 -0.0120808 -0.0567158 0.000635 -25.3234 -1.17413 17.0394 2650 
44 1 -0.04028 -0.0499645 -0.0552424 0.000635 -18.0869 -1.78388 13.1811 2650 
1046 1 -0.0424786 -0.00251341 -0.053575 0.000635 -24.2284 -1.20997 19.2003 2650 
1141 1 -0.0433544 -0.00311757 -0.0528686 0.000635 -23.0532 1.99625 18.8946 2650 
527 1 -0.0492626 -0.057809 -0.0480667 0.000175 -41.284 -7.26878 42.3049 2650 
1060 1 -0.0477362 -0.0516319 -0.0495803 0.000175 -14.974 -1.37915 14.4141 2650 
309 1 -0.0473382 -0.0268231 -0.0488639 0.000984 -21.881 0.283838 21.1817 2650 
314 1 -0.0481484 -0.0398528 -0.0485415 0.000635 -14.9902 3.07189 14.86 2650 
194 1 -0.0427913 -0.030825 -0.0468388 0.000175 -35.9755 3.75908 59.0998 2650 
501 1 -0.0513498 -0.048571 -0.0458285 0.000175 -18.8442 4.40265 21.1106 2650 
512 1 -0.0509134 -0.0182402 -0.0456425 0.000635 -24.6999 -1.77914 27.5387 2650 
178 1 -0.0520354 -0.0186014 -0.0443601 0.000635 -24.5343 -3.53638 28.765 2650 
180 1 -0.051956 -0.0110293 -0.0444536 0.000635 -25.1412 -4.16968 29.3715 2650 
1303 1 -0.0528376 -0.0218113 -0.043396 0.000635 -16.5133 -2.2522 20.095 2650 
750 1 -0.0532392 -0.00737809 -0.0429142 0.000635 -29.5333 1.68759 36.6191 2650 
1294 1 -0.0581186 -0.0613324 -0.0368751 0.000175 -43.0411 3.13346 68.1953 2650 
1038 1 -0.0567 -0.057935 -0.0382232 0.000635 -22.7752 -0.388968 33.7683 2650 
938 1 -0.0590046 -0.018219 -0.0338802 0.000984 -14.4955 -3.43912 25.2256 2650 
887 1 -0.0594978 -0.00834484 -0.0346015 0.000175 -18.6401 8.90906 32.0467 2650 
1041 1 -0.0600065 -0.0358834 -0.0328001 0.000635 -24.6141 -6.40899 45.0103 2650 
273 1 -0.0590825 -0.0323181 -0.0337478 0.000984 -15.7433 -2.22501 27.5413 2650 
106 1 -0.0507568 -0.0442359 -0.0326978 0.000984 -16.2438 -10.6434 3.84935 2650 
430 1 -0.0603423 -0.0279541 -0.0329411 0.000175 -6.55898 -1.74638 13.1815 2650 
951 1 -0.0607625 -0.0226624 -0.0313631 0.000635 -14.4953 -2.55268 28.0686 2650 
873 1 -0.0176746 -0.00551986 -0.0331525 0.000635 -2.73377 -0.195617 -5.08636 2650 
718 1 -0.0610005 -0.0297533 -0.030883 0.000635 -11.6456 -3.15948 22.6652 2650 
775 1 -0.0621386 -0.0512877 -0.0285345 0.000635 -8.71588 -0.218027 18.9696 2650 
906 1 -0.0624877 -0.002771 -0.0277683 0.000635 -12.4605 -0.0263373 28.0258 2650 
1086 1 -0.0629688 -0.0537883 -0.0277886 0.000175 -10.0007 -1.83434 22.6579 2650 
311 1 -0.0627775 -0.0145105 -0.0271018 0.000635 -9.11559 -0.129678 21.1132 2650 
253 1 -0.0625445 -0.0130323 -0.0276364 0.000635 -9.98048 2.64384 22.563 2650 
1077 1 -0.0628253 -0.0089799 -0.0269955 0.000635 -11.6497 0.206718 27.0978 2650 
747 1 -0.0631607 -0.00389588 -0.0262154 0.000635 -17.5521 7.54576 42.2687 2650 
672 1 -0.0636152 -0.00329092 -0.0241484 0.000984 -11.1251 0.888257 29.2857 2650 
903 1 -0.0592393 -0.0494875 -0.0222246 0.000984 -18.8876 9.84792 18.8029 2650 
1274 1 -0.06456 -0.000709035 -0.0225395 0.000635 -10.8708 1.42779 31.1217 2650 
279 1 -0.0652433 -0.0318906 -0.0204809 0.000635 -10.5064 0.700964 33.4113 2650 
343 1 -0.064707 -0.0304811 -0.0210662 0.000984 -11.4485 1.4012 35.1743 2650 
607 1 -0.0644809 -0.0266223 -0.0217131 0.000984 -6.26987 -0.6725 18.6043 2650 
859 1 -0.0665766 -0.0445731 -0.0174614 0.000175 -5.28795 -4.14474 20.1586 2650 
197 1 -0.0664324 -0.0108581 -0.018002 0.000175 -5.11501 -0.642305 18.8728 2650 
278 1 -0.0664329 -0.0408738 -0.0162097 0.000635 -7.46425 1.80421 30.5757 2650 
1208 1 -0.0669062 -0.0185257 -0.0141569 0.000635 -9.9464 4.70326 46.9859 2650 
1069 1 -0.0668535 -0.0597345 -0.0128109 0.000984 -11.6109 -7.00788 60.5538 2650 
429 1 -0.067465 -0.0509744 -0.0136339 0.000175 -7.24439 6.77193 35.8422 2650 
551 1 -0.067065 -0.0173275 -0.0133849 0.000635 -9.39579 5.15392 47.0563 2650 
332 1 -0.00222863 -0.00109501 -0.0151866 0.000175 0.205477 -0.147436 -0.0274315 2650 
1251 1 -0.055838 -0.0304905 -0.00161732 0.000175 -51.264 0.899437 152.338 2650 
1165 1 -0.00291039 -0.00161464 -0.00799884 6.3e-05 -0.00108737 -0.02237 0.00988041 2650 
401 1 -0.00116548 -0.00202187 -0.00774366 0.000175 -0.0308475 -0.00302738 -0.00784268 2650 
549 1 -0.00680859 -0.000494851 -0.00722804 0.000635 0.0273969 -0.0287318 -0.0208236 2650 
1300 1 -0.0678743 -0.0183327 -0.00482168 0.000984 -1.96076 -1.41549 27.5802 2650 
366 1 -0.0120455 -0.00315471 -0.0037534 0.000175 0.0123126 -0.000924957 -0.00290459 2650 
243 1 -0.0020471 -0.00309669 -0.00390353 0.000635 -0.00290392 -0.0115092 0.0192446 2650 
156 1 -0.01202 -0.00125299 -0.004783 0.000175 0 -0.01175 0 2650 
110 1 -1.07907e-05 -0.000808161 -0.00375579 0.000635 0.00784478 -0.0203643 0.027239 2650 
540 1 -0.0680095 -0.0471869 -0.00210704 0.000984 -0.661275 0.90073 21.3264 2650 
739 1 -0.068036 -0.0419749 -0.00110893 0.000984 -0.436919 7.55216 26.7861 2650 
886 1 -0.008763 -0.00242899 -0.001992 0.000175 0 -0.01175 0 2650 
788 1 -0.00734336 -0.00172435 -0.00152528 0.000175 0.0207901 -0.0256021 -0.0429457 2650 
1295 1 -0.002608 -0.000176988 -0.002004 0.000175 0 -0.01175 0 2650 
528 1 -0.0688183 -0.060992 0.00120503 0.000175 0.475759 2.03968 27.1662 2650 
317 1 -0.00184194 -0.00165354 0.00100029 0.000635 0.00694486 -0.00289332 0.0153698 2650 
144 1 -0.00100028 -0.000620293 0.00100626 0.000635 0.00370651 0.00597337 0.0140765 2650 
446 1 -0.00231763 -0.00323467 0.00156777 0.000635 0.0297048 -0.0306008 0.0523292 2650 
219 1 -0.0043612 -0.00319279 0.00345151 0.000635 0.0129986 -0.0369695 0.00105322 2650 
298 1 -0.0686168 -0.0625081 0.005401 0.000175 3.02976 -7.55989 38.4859 2650 
85 1 -0.0676462 -0.00674128 0.00511192 0.000635 -3.67522 -7.38634 13.1895 2650 
916 1 -0.00379127 -0.00151775 0.00477498 0.000635 0.031306 -0.0172115 0.00302627 2650 
330 1 -0.0682988 -0.0242246 0.00853828 0.000175 9.42101 1.10357 75.3501 2650 
1071 1 -0.0681018 -0.0196819 0.00620513 0.000635 3.21096 -0.0497481 35.2149 2650 
1152 1 -0.004408 -0.000729988 0.005639 0.000175 0 -0.01175 0 2650 
358 1 -0.001101 -0.000259988 0.005262 0.000175 0 -0.01175 0 2650 
345 1 -0.067859 -0.0617464 0.00848854 0.000635 5.8858 -7.25952 47.0317 2650 
808 1 -0.0370479 -0.0585425 0.00700296 0.000635 -19.0529 1.38776 -1.75107 2650 
444 1 -0.0675425 -0.0374857 0.00829181 0.000984 4.24798 4.58289 34.5786 2650 
905 1 -0.0675047 -0.0269992 0.00862553 0.000984 5.14651 -4.65804 40.2504 2650 
1166 1 -0.002781 -0.00256099 0.007491 6.3e-05 0 -0.01175 0 2650 
984 1 -0.00736599 -0.00487923 0.00952649 0.000635 -1.10748 -0.158906 1.45051 2650 
322 1 -0.000589462 -0.000892315 0.00879898 0.000635 0.0156567 0.000557388 -0.0438726 2650 
1223 1 -0.00519403 -0.00150507 0.0100162 0.000175 0.0105454 -0.0285419 0.00463055 2650 
1215 1 -0.0672035 -0.0412924 0.0126323 0.000635 4.43787 -1.16311 23.5972 2650 
249 1 -0.00208925 -0.00325924 0.0116183 0.000635 0.0476714 -0.03035 0.00520017 2650 
76 1 -0.0038347 -0.00209275 0.0111454 0.000635 0.0274629 -0.0320607 0.006734 2650 
770 1 -0.0109674 -0.000248241 0.01136 6.3e-05 0.0177318 -0.00820571 0.0081784 2650 
815 1 -0.000188618 -0.000681538 0.0114051 0.000635 0.01328 -0.0106001 -0.0162021 2650 
722 1 -0.0673789 -0.0523961 0.0140515 0.000175 4.74636 -2.05336 22.7558 2650 
418 1 -0.0195169 -0.045804 0.013819 0.000635 6.90115 -1.98596 6.28664 2650 
1023 1 -0.041397 -0.00694366 0.0138955 0.000175 -6.01608 -0.357237 2.01464 2650 
1002 1 -0.00459034 -0.00326844 0.0132211 0.000984 0.00940644 -0.0135556 0.0112109 2650 
1115 1 -0.00205202 -0.00193584 0.0143123 0.000635 -0.0254095 -0.0241514 0.00695708 2650 
1175 1 -0.000435743 -0.000383817 0.0132055 0.000635 0.0265432 -0.00103817 0.00465181 2650 
384 1 -0.0650033 -0.0611914 0.0212217 0.000635 8.00026 -7.39409 24.4925 2650 
679 1 -0.0651654 -0.056343 0.0207976 0.000635 9.04087 -8.30909 19.9654 2650 
1035 1 -0.0643497 -0.055548 0.02201 0.000984 7.45051 0.777634 20.3423 2650 
519 1 -0.0638154 -0.00919567 0.0245808 0.000635 16.7641 1.09969 43.5023 2650 
1186 1 -0.0645242 -0.0048003 0.0239562 0.000175 -0.0510588 -0.101562 -0.140641 2650 
569 1 -0.0637496 -0.0431543 0.0259477 0.000175 9.83154 4.45805 24.1507 2650 
86 1 -0.063809 -0.013687 0.0258017 0.000175 12.0495 9.06627 29.7944 2650 
1277 1 -0.0628695 -0.0453745 0.026902 0.000635 16.1664 4.65983 37.7628 2650 
720 1 -0.0143979 -0.0183424 0.0275517 0.000635 -2.20927 17.9437 9.70506 2650 
584 1 -0.061488 -0.030536 -0.0299212 0.000635 -10.6575 -8.5652 22.4504 2650 
1016 1 -0.0463662 -0.00475169 0.0323462 0.000635 -0.58411 -12.6371 50.3393 2650 
867 1 -0.0508856 -0.031658 0.041203 6.3e-05 64.8773 0.753356 48.2983 2650 
1225 1 -0.0555044 -0.0469702 0.0406991 0.000175 18.8631 2.62217 25.7207 2650 
349 1 -0.0549027 -0.0339595 0.0407547 0.000635 16.8714 5.07009 22.717 2650 
55 1 -0.0553486 -0.027936 0.040885 0.000175 18.1092 13.9201 23.0948 2650 
629 1 -0.0267231 -0.0050088 0.0451974 0.000175 -4.12398 -0.16236 6.9201 2650 
875 1 -0.0497897 -0.0352892 0.0468658 0.000635 25.8039 0.783648 27.4018 2650 
13 1 -0.0489792 -0.0262163 0.0477182 0.000635 34.2447 9.75063 35.1336 2650 
828 1 -0.05017 -0.0125147 0.0471167 0.000175 14.6427 -5.25065 15.5886 2650 
1167 1 -0.0473603 -0.0332312 0.0488507 0.000984 26.3959 2.31911 25.5263 2650 
457 1 -0.0487156 -0.0316836 0.0479768 0.000635 18.2807 2.15 18.5838 2650 
780 1 -0.0431712 -0.0485729 0.053039 0.000635 25.2418 7.13534 23.3431 2650 
89 1 -0.0426279 -0.0182086 0.0540351 0.000175 23.5213 -1.50268 18.5532 2650 
612 1 -0.0407032 -0.0249846 0.0549344 0.000635 22.9366 1.64313 16.9854 2650 
1078 1 -0.0362065 -0.0164626 0.0579979 0.000635 29.1895 1.06687 18.2132 2650 
643 1 -0.0359896 -0.0127666 0.0581518 0.000635 23.3178 -0.552086 14.4777 2650 
38 1 -0.0362251 -0.0112816 0.0575606 0.000984 13.2219 -2.83383 7.96795 2650 
73 1 -0.0333117 -0.0137767 0.0597032 0.000635 22.6319 3.3253 12.6229 2650 
357 1 -0.0319519 -0.0131445 0.0604422 0.000635 24.648 1.80872 13.0249 2650 
719 1 -0.0306245 -0.0093913 0.0611242 0.000635 22.6022 0.89991 11.3198 2650 
1019 1 -0.0306659 -0.0551351 0.0616156 0.000175 12.5791 -2.45233 6.26058 2650 
199 1 -0.0300862 -0.0282377 0.0619008 0.000175 33.7649 0.158216 16.4107 2650 
5 1 -0.0285507 -0.00387872 0.0621185 0.000635 18.688 2.41267 8.58783 2650 
287 1 -0.0245541 -0.0514512 0.0638186 0.000635 54.0933 6.50576 20.8036 2650 
1302 1 -0.0264939 -0.0342672 0.0630285 0.000635 34.2468 8.90112 14.3891 2650 
850 1 -0.0264694 -0.00776604 0.0630338 0.000635 21.3605 1.41582 8.96786 2650 
1273 1 -0.0236665 -0.0120678 0.0641393 0.000635 24.9541 2.03144 9.20514 2650 
266 1 -0.0242196 -0.00287483 0.0644228 0.000175 32.0639 -1.48816 12.0543 2650 
416 1 -0.0189657 -0.0162084 0.0656835 0.000635 28.683 4.97565 8.27954 2650 
944 1 -0.0113056 -0.0176559 0.0674267 0.000635 34.6922 2.70777 5.81489 2650 
1214 1 -0.00678825 -0.0435204 0.0680358 0.000635 49.0035 6.6173 4.894 2650 
96 1 -0.00854306 -0.0423992 0.0682418 0.000175 38.7661 9.36144 6.61093 2650 
940 1 -0.00206029 -0.0307235 0.0683375 0.000635 37.6575 -5.16635 1.13493 2650 
888 1 -0.0115142 -0.0145909 0.067855 0.000175 37.7584 4.21259 6.4072 2650 
77 1 -0.0186057 0.0636265 -0.0657845 0.000635 -2.13952 -1.92478 0.605115 2650 
847 1 -0.0475391 0.0379352 -0.0491762 0.000635 -49.3495 19.7218 0.0416777 2650 
1066 1 -0.00224188 0.00911664 -0.0162682 6.3e-05 -0.0367507 0.00507242 0.0142332 2650 
114 1 -0.00251348 0.0210027 -0.0160483 0.000635 -0.324739 -0.0542605 0.0556535 2650 
108 1 -0.00319188 0.0269474 -0.0157368 0.000635 -0.0402796 0.0376745 -0.00736505 2650 
60 1 -0.00844133 0.0270906 -0.0145219 0.000175 -0.0327013 0.0368541 0.0244783 2650 
1280 1 -0.00504523 0.0275679 -0.0154407 0.000635 -0.0309644 0.0300774 -0.004876 2650 
981 1 -0.00179503 0.0342055 -0.0146125 0.000635 -0.0176921 0.0366995 0.0053596 2650 
1188 1 -0.00889771 0.0400016 -0.0141329 0.000175 -0.491133 0.0272777 0.367026 2650 
153 1 -0.00846246 0.0481925 -0.0134152 0.000635 -0.0189449 0.0528589 -0.0196293 2650 
1310 1 -0.00976499 0.00101502 -0.0127448 0.000635 -0.00343823 -0.0359032 0.0387111 2650 
57 1 -0.0108843 0.00230575 -0.0120902 0.000175 0.00417702 -0.0170393 -0.00250338 2650 
232 1 -0.00535259 0.00295001 -0.0131707 0.000175 0.0784934 -0.0202609 0.00892038 2650 
58 1 -0.0105034 0.0168269 -0.0121712 0.000175 -0.0095569 0.0175092 -0.027906 2650 
218 1 -0.0677235 0.032067 -0.00963263 0.000635 -12.4191 -9.04483 87.2811 2650 
75 1 -0.00209012 0.0332605 -0.0127942 0.000635 -0.0562969 0.0751217 -0.0255666 2650 
164 1 -0.00627415 0.036497 -0.0123963 0.000175 0.0200574 0.0901609 0.0230931 2650 
450 1 -0.010258 0.0507085 -0.0124931 0.000635 -0.58042 -0.152247 0.430289 2650 
263 1 -0.00824835 0.0550013 -0.0123683 0.000175 0.208052 0.270396 -0.13899 2650 
1265 1 -0.0105146 0.0614047 -0.012148 6.3e-05 -0.0237117 0.0585808 -0.0669344 2650 
140 1 -0.0106512 0.0245205 -0.0117825 0.000984 -0.0344145 0.0293743 -0.00762637 2650 
975 1 -0.0119884 0.031119 -0.011022 0.000635 -0.109776 0.00405927 0.145308 2650 
848 1 -0.000257052 0.0553225 -0.0117045 0.000635 0.0182844 0.0726118 0.00445669 2650 
956 1 -0.00714015 0.000996679 -0.0103921 0.000175 0.00205378 -0.00888039 -0.0299469 2650 
571 1 -0.008585 0.00438001 -0.010244 6.3e-05 0 -0.01175 0 2650 
1010 1 -0.0121994 0.00745435 -0.0100521 0.000635 -0.00894252 -0.00464143 -0.0238981 2650 
1033 1 -0.0135395 0.0103397 -0.00984228 6.3e-05 0.000458634 0.0107806 -0.00144215 2650 
67 1 -0.00716104 0.00998556 -0.0100721 6.3e-05 -0.0419985 0.00937559 -0.0409127 2650 
544 1 -0.00933359 0.0184752 -0.010692 0.000635 -0.00225997 0.0193602 -0.00958512 2650 
1094 1 -0.00444338 0.0249983 -0.0102007 0.000175 0.00407957 0.0151024 0.0177536 2650 
824 1 -0.00571319 0.0253188 -0.0105811 0.000175 0.0019145 0.0360025 0.0134415 2650 
390 1 -0.0100257 0.0303223 -0.0101025 0.000635 -0.0323384 0.0402068 0.00544617 2650 
433 1 -0.00932317 0.0324444 -0.00967653 0.000175 0.00088447 0.0547409 -0.0210433 2650 
937 1 -0.0121583 0.0372086 -0.0102665 0.000984 -0.348593 -0.0362073 0.399723 2650 
890 1 -0.008469 0.000893012 -0.008886 0.000175 0 -0.01175 0 2650 
868 1 -0.005513 0.00253801 -0.008425 6.3e-05 0 -0.01175 0 2650 
453 1 -0.00494766 0.00359438 -0.00931246 0.000635 0.00200198 0.0135122 -0.0835822 2650 
572 1 -0.00271875 0.0663006 -0.00888299 6.3e-05 0.00506827 0.0682336 0.0295527 2650 
768 1 -0.00418294 0.0053083 -0.00809286 6.3e-05 0.0225666 0.0485592 -0.0343974 2650 
764 1 -0.00316641 0.00482599 -0.00815932 0.000175 -0.0236076 -0.00863151 -0.000229828 2650 
16 1 -0.0139938 0.0119879 -0.00758364 0.000635 -0.00318294 0.0183152 0.00572307 2650 
1150 1 -0.0132068 0.0124493 -0.00834355 0.000175 -0.0425076 0.0151674 -0.00519332 2650 
319 1 -0.00570856 0.0127147 -0.00801668 0.000635 0.0124192 0.0151002 0.00485699 2650 
817 1 -0.00339001 0.0159842 -0.0074089 0.000635 -0.128775 0.0516703 -0.00340659 2650 
1154 1 -0.000104452 0.0171938 -0.00795285 0.000175 0.03641 0.0396631 -0.0280173 2650 
52 1 -0.0129102 0.0283663 -0.00751239 0.000175 -0.00310665 0.0258562 0.0246542 2650 
402 1 -0.00698621 0.0452331 -0.00777525 0.000175 0.259935 0.265357 -0.0374729 2650 
191 1 -0.0149258 0.0147573 -0.00659959 0.000175 0.0102592 0.00326646 -0.0355023 2650 
1155 1 -0.0122132 0.0499163 -0.00710495 0.000175 0.0394362 0.0494461 -0.0526637 2650 
786 1 -0.0101226 0.0551454 -0.00657838 0.000635 0.0358466 0.0786705 0.18855 2650 
804 1 -0.0138389 0.00712734 -0.00528767 0.000984 -0.000493017 -0.00294152 0.00413147 2650 
608 1 -0.00581828 0.0103498 -0.0056335 0.000984 -0.0375577 0.0122403 -0.0274099 2650 
224 1 -0.00825624 0.013934 -0.00564243 0.000175 0.0165055 0.0103061 -0.0137836 2650 
809 1 -0.0116313 0.015808 -0.00531966 0.000635 0.0124385 0.00560447 0.00812582 2650 
797 1 -0.0127126 0.0202997 -0.00504191 0.000175 -0.00863712 0.0237636 -0.0110266 2650 
879 1 -0.00872953 0.0281541 -0.00545565 0.000635 0.0114085 0.0790519 -0.00538714 2650 
1075 1 -0.00623787 0.0279354 -0.00490764 0.000635 -0.0872909 0.0589962 -0.0251283 2650 
963 1 -0.0155729 0.000174157 -0.00415488 0.000175 0.00645246 -0.00889357 -0.000622593 2650 
31 1 -0.003356 0.000729012 -0.004078 0.000175 0 -0.01175 0 2650 
1022 1 -0.002244 0.000689012 -0.00401 0.000175 0 -0.01175 0 2650 
1235 1 -0.0151412 0.00217649 -0.00461171 0.000984 -0.0708091 -0.115823 0.252585 2650 
1276 1 -0.00352015 0.00358575 -0.00385359 0.000635 -0.0143405 -0.0157683 -0.01197 2650 
694 1 -0.00665327 0.00509835 -0.00479591 0.000175 -0.0476267 -0.0118073 -0.0215962 2650 
1283 1 -0.0147019 0.00782261 -0.00443781 0.000175 0.00614045 0.0165163 -0.00298846 2650 
1278 1 -0.0153466 0.0112366 -0.00410724 0.000635 -0.00459748 0.0254817 0.0230035 2650 
968 1 -0.00630447 0.000822721 -0.00330363 6.3e-05 0.0397455 -0.00374618 -0.028539 2650 
406 1 -0.003114 0.000701012 -0.002553 6.3e-05 0 -0.01175 0 2650 
251 1 -0.00478955 0.00306972 -0.00316395 0.000635 -0.0174844 -0.0134517 -2.60628e-06 2650 
445 1 -0.00924367 0.00465088 -0.00315102 0.000635 -0.0229261 -0.017773 0.000219983 2650 
19 1 -0.0159125 0.0145335 -0.00311245 0.000175 -0.227558 0.0320969 0.144791 2650 
405 1 -0.0164927 0.0155625 -0.00312023 6.3e-05 -0.159937 -0.0418514 0.628056 2650 
1109 1 -0.00151037 0.0161736 -0.00335698 0.000635 0.00199804 0.0188995 0.0149697 2650 
526 1 -0.0158133 0.0210613 -0.00293626 0.000175 -0.0414617 -0.0291484 0.142964 2650 
1068 1 -0.0143689 0.0228407 -0.00301495 0.000984 -0.0126273 0.0898995 -0.0656906 2650 
1281 1 -0.00594654 0.0230352 -0.00264525 0.000635 0.0487667 0.0302962 0.0353579 2650 
234 1 -0.0172865 0.0590317 -0.00238429 0.000175 -0.734599 0.621319 0.441417 2650 
673 1 -0.0143639 0.00614049 -0.00207761 0.000984 0.0506155 -0.0307347 0.00141858 2650 
35 1 -0.00713741 0.0076617 -0.0013468 0.000984 -0.0152336 -0.00685328 0.0010469 2650 
1180 1 -0.00781695 0.0102344 -0.00131305 0.000635 -0.0399643 0.0121098 -0.000406633 2650 
176 1 -0.0115779 0.0141711 -0.00156243 0.000635 -0.0270118 0.020789 0.0195166 2650 
801 1 -0.00064658 0.0145051 -0.00185752 6.3e-05 -0.00251979 0.0105448 0.0081294 2650 
1315 1 -0.008679 4.90125e-05 -0.000613 0.000175 0 -0.01175 0 2650 
562 1 -0.014138 0.00133201 -0.000311 0.000175 0 -0.01175 0 2650 
507 1 -0.00749359 0.00293689 -0.000834503 0.000984 0.0244314 -0.0129169 0.00110565 2650 
1270 1 -0.0148915 0.0131933 -0.000870716 0.000635 0.0132038 0.000476439 0.0141907 2650 
1330 1 -0.00598335 0.0132825 -0.000547328 6.3e-05 -0.0340296 0.0261692 0.00567437 2650 
1292 1 -0.0154676 0.0164307 -0.0003799 0.000175 0.134189 -0.267774 0.374914 2650 
442 1 -0.00704997 0.0192062 -0.000432937 0.000984 -0.0111617 0.0141303 -0.00946777 2650 
344 1 -0.00374765 0.0241015 -3.65838e-05 0.000984 0.0396716 0.038904 -0.0025056 2650 
209 1 -0.0120672 0.0335145 -0.000209619 0.000635 0.00132809 0.0403406 0.0569105 2650 
832 1 -0.00823355 0.069591 -0.000160917 0.000175 0.0193937 0.114389 0.0387308 2650 
686 1 -0.00189061 0.00903262 0.000293089 0.000635 -0.00237014 0.0158377 0.0243518 2650 
438 1 -0.00512761 0.0188822 0.000357887 6.3e-05 -0.0356185 0.0701935 0.0689506 2650 
721 1 -0.0152559 0.0420428 0.000541569 0.000635 0.0267912 0.126714 0.2387 2650 
1290 1 -0.010208 0.00274001 0.001685 0.000175 0 -0.01175 0 2650 
90 1 -0.0132922 0.0128091 0.0017407 0.000175 0.00933581 0.0198248 -0.0109412 2650 
270 1 -0.00525213 0.0153671 0.00234621 6.3e-05 0.000631057 0.0149424 -0.0171158 2650 
665 1 -0.00125527 0.0163185 0.00126111 0.000175 0.0222844 0.0263336 0.0159099 2650 
1124 1 -0.016482 0.0206168 0.00239157 0.000175 0.121942 -0.0270199 0.681045 2650 
635 1 -0.0165289 0.0272482 0.00184623 0.000175 -0.000486614 -0.0346845 -0.274178 2650 
364 1 -0.0163003 0.0295007 0.00213601 0.000175 -0.0289881 0.0655918 0.00355803 2650 
1026 1 -0.0157115 0.0360806 0.00165338 0.000175 0.312387 0.0662862 0.124464 2650 
542 1 -0.015255 0.00542831 0.00314403 0.000984 0.00353323 -0.00502472 0.0168529 2650 
443 1 -0.0102395 0.00654801 0.00291014 0.000984 -0.0308974 -0.00372667 0.0198285 2650 
115 1 -0.00657501 0.00791505 0.00246588 0.000635 0.0486936 0.0654743 -0.0236915 2650 
1256 1 -0.0132537 0.0112577 0.00283193 0.000175 0.00809504 0.00235426 -0.0024867 2650 
61 1 -0.00335476 0.0154546 0.00280223 0.000175 -0.0389515 0.015901 0.0183545 2650 
452 1 -0.0159589 0.0190924 0.00262665 0.000635 0.141125 -0.00289532 0.783622 2650 
487 1 -0.000120739 0.023289 0.00264571 0.000635 0.0262819 0.0403926 0.0176111 2650 
1080 1 -0.00616907 0.0246878 0.0034546 0.000635 -0.00211451 0.0224639 -0.00186769 2650 
987 1 -0.000127245 0.0502428 0.0032787 0.000175 -0.0264761 0.0565284 -0.00520713 2650 
1203 1 -0.00706898 0.0609367 0.00342198 0.000635 -0.0494655 0.159901 0.0381352 2650 
751 1 -0.00116257 0.00304978 0.00472652 0.000635 0.0276305 0.00264379 0.0522733 2650 
128 1 -0.0143409 0.00450353 0.00382898 0.000175 -0.0124766 -0.0544226 0.0748381 2650 
66 1 -0.00489946 0.00651218 0.00373457 6.3e-05 0.025289 0.00595111 -0.0193862 2650 
878 1 -0.0156181 0.00736775 0.00365932 0.000635 0.00194161 -5.19992e-05 0.0126364 2650 
1202 1 -0.00962259 0.00852906 0.00427239 0.000984 0.0552065 0.00811313 0.0830449 2650 
1317 1 -0.00701462 0.0160709 0.00387614 0.000175 0.0159143 0.0353109 0.0284514 2650 
1128 1 -0.00872822 0.0172135 0.00383499 0.000175 0.0315977 0.0130359 -0.00492581 2650 
517 1 -0.0114061 0.0200489 0.00471806 0.000635 0.0169927 0.0358476 -0.000524821 2650 
485 1 -0.00906126 0.0191238 0.00422837 0.000635 -0.00222684 0.0201803 -0.00630183 2650 
466 1 -0.0160258 0.0219553 0.00441838 0.000175 -0.00922888 0.0443544 -0.038216 2650 
195 1 -0.0133215 0.0260717 0.0046791 0.000175 -0.00225994 0.0287728 0.0133597 2650 
165 1 -0.0101196 0.039784 0.00479492 0.000175 -0.00634257 0.0588998 0.00980155 2650 
735 1 -0.010003 0.00282001 0.004837 6.3e-05 0 -0.01175 0 2650 
372 1 -0.00750818 0.00801619 0.00566731 6.3e-05 -0.0106514 0.00351897 0.00342164 2650 
1113 1 -0.00354138 0.00780382 0.00575016 0.000635 0.0246175 0.0131149 0.000596817 2650 
523 1 -0.00118185 0.0128315 0.00579007 0.000635 0.0448003 0.0522896 -0.0711565 2650 
1061 1 -0.0152949 0.0142513 0.00485771 0.000175 0.0117983 0.00812504 0.0536385 2650 
414 1 -0.00338172 0.0132154 0.00522192 0.000635 0.0105987 0.0419925 -0.0788149 2650 
408 1 -0.0077795 0.0149785 0.00556387 0.000984 -0.0311685 0.0375429 0.00212341 2650 
428 1 -0.0155102 0.0401032 0.00539707 0.000175 0.28052 -0.228502 1.08477 2650 
109 1 -0.00255448 0.0519277 0.0051779 0.000635 0.000498826 0.0507076 0.0410947 2650 
1021 1 -0.004268 0.00408801 0.006589 0.000175 0 -0.01175 0 2650 
1279 1 -0.000694334 0.00959508 0.00678953 0.000635 0.0441277 0.00388576 0.0262411 2650 
481 1 -0.0114457 0.0136088 0.00706766 0.000635 -0.022255 0.0174734 0.0432403 2650 
929 1 -0.015612 0.0211764 0.00615767 0.000175 0.0421108 0.0827831 0.196948 2650 
396 1 -0.0141867 0.0217214 0.00642224 0.000175 0.0866876 0.0976625 0.197417 2650 
860 1 -0.00429683 0.069395 0.00680299 0.000175 -0.0406262 0.183477 0.0474912 2650 
494 1 -0.001243 0.00324101 0.007677 0.000175 0 -0.01175 0 2650 
120 1 -0.0118788 0.00920729 0.00796618 0.000175 -0.00620908 -0.00336394 -0.00838937 2650 
235 1 -0.00837704 0.0115118 0.00834503 6.3e-05 0.0603832 0.010622 -0.034397 2650 
261 1 -0.00911229 0.0158473 0.00744259 0.000175 -0.0482083 0.0313282 0.0240084 2650 
1289 1 -0.0142585 0.0223886 0.00781571 0.000175 0.00261575 0.0264745 0.00351882 2650 
1229 1 -0.00280943 0.0330249 0.00770493 0.000175 -0.0168426 0.0405983 -0.0253622 2650 
51 1 -0.00533273 0.0348709 0.00798424 0.000635 0.0150462 0.0408486 0.0450948 2650 
744 1 -0.00123186 0.00265596 0.00843596 0.000635 -0.000471745 -0.0113215 -0.0153303 2650 
267 1 -0.00826647 0.00802185 0.00921933 0.000175 0.014904 0.00469267 -5.3787e-06 2650 
625 1 -0.000159133 0.00814887 0.00867067 0.000175 0.0323769 0.0106227 0.02229 2650 
769 1 -0.00678914 0.0122247 0.00888919 6.3e-05 -0.0127636 0.0271472 0.024475 2650 
1181 1 -0.00779029 0.0135531 0.00843644 0.000635 -0.0437771 0.0312793 0.043673 2650 
440 1 -0.00616579 0.014166 0.00950069 6.3e-05 -0.0115646 0.0178358 -0.0101824 2650 
83 1 -0.0108674 0.0171843 0.00917131 0.000635 0.0319945 0.031878 0.00445238 2650 
979 1 -0.00600986 0.0216329 0.00876122 0.000635 0.00214733 0.0365394 0.0428601 2650 
772 1 -0.00915982 0.00103337 0.0105876 0.000984 0.0183912 -0.0226715 0.0289372 2650 
637 1 -0.00254555 0.000776964 0.0102717 6.3e-05 -0.0011785 -0.011356 -0.000649709 2650 
785 1 -0.001964 0.000912306 0.0107868 0.000635 -0.00123639 -0.00820286 0.00120478 2650 
1217 1 -0.00211165 0.00458357 0.00968001 0.000175 0.00897486 -0.00429675 0.0177703 2650 
119 1 -0.00685072 0.0113404 0.0104199 0.000635 0.0172329 0.0395267 -0.0103726 2650 
1003 1 -0.00933466 0.0169844 0.0100804 0.000984 0.0275457 0.0233555 0.0515848 2650 
711 1 -0.0108508 0.0323502 0.0101464 0.000635 -0.0502664 0.0458791 -0.0134028 2650 
787 1 -0.0131728 0.0531645 0.0103214 0.000175 -0.117032 0.108112 -0.0710645 2650 
488 1 -0.00885103 0.00469317 0.0118254 0.000635 0.0247422 -0.000933169 -0.0132824 2650 
412 1 -0.00603266 0.00754437 0.0109727 0.000635 0.00767412 0.00281393 0.0151159 2650 
1272 1 -0.00525013 0.00912483 0.0116502 0.000635 -0.00572358 -0.00432544 -0.00920483 2650 
550 1 -0.0100017 0.0147568 0.011379 0.000635 0.148477 0.105703 0.235737 2650 
814 1 -0.00634181 0.0166929 0.0117439 0.000635 0.0106513 0.0144021 0.0176641 2650 
64 1 -0.00690608 0.0189301 0.0119788 0.000175 0.0460937 -0.0421742 0.0481405 2650 
973 1 -0.00289178 0.0206338 0.0113298 0.000635 -0.0180962 0.139686 -0.0286311 2650 
846 1 -0.00968179 0.0222143 0.0109382 0.000635 0.0474826 0.132416 0.0538816 2650 
1296 1 -0.0111212 0.0280621 0.0116707 6.3e-05 0.0129042 0.0393147 0.0494218 2650 
1234 1 -0.00889421 0.0293913 0.011716 0.000984 0.012803 0.0168737 -0.0142559 2650 
1189 1 -0.0125354 0.0400435 0.0110349 0.000175 0.900458 -0.325073 1.21212 2650 
524 1 -0.0676491 0.0417854 0.0126909 0.000175 8.78571 10.1424 46.8255 2650 
320 1 -0.00202077 0.000919471 0.0127027 0.000635 -0.00172019 -0.0116291 0.000386 2650 
479 1 -0.000755509 0.000987246 0.0125306 0.000635 -0.000459747 -0.00553786 0.00467509 2650 
777 1 -0.00652074 0.00547239 0.0131626 0.000635 0.00676707 -0.0268354 0.0139808 2650 
138 1 -0.00549734 0.00696615 0.0131843 0.000984 0.015049 0.00817145 -0.0490185 2650 
403 1 -0.00553199 0.0081523 0.0126245 0.000175 0.0196794 0.0441398 -0.0238631 2650 
660 1 -0.00531193 0.00850792 0.0122607 0.000175 -0.00855311 -0.00542031 0.0146554 2650 
383 1 -0.00117089 0.0100774 0.0131309 0.000635 0.0437004 -0.0101733 -0.00831562 2650 
1222 1 -0.000689682 0.0103231 0.0124655 0.000175 0.0518311 0.0161219 -0.00838973 2650 
1149 1 -0.0100983 0.013363 0.0127424 0.000635 0.273119 0.0753798 0.24001 2650 
1205 1 -0.00978474 0.0213248 0.0129759 0.000635 3.09629e-05 0.0288734 0.0359184 2650 
246 1 -0.00768351 0.0363279 0.0120647 0.000635 0.305956 0.0880034 -0.139545 2650 
586 1 -0.00640777 0.0428893 0.0125387 0.000635 0.0324276 0.079885 -0.0132033 2650 
773 1 -0.0029161 0.0617521 0.012095 0.000984 0.0334357 0.0594127 -0.0110591 2650 
132 1 -0.00562909 0.00169838 0.0133958 0.000175 -0.00114113 0.00100196 -0.00878588 2650 
448 1 -0.00291797 0.0044729 0.0143308 0.000635 0.0201915 -0.111078 -0.0305798 2650 
662 1 -0.00397989 0.00527442 0.0132869 0.000175 0.00142251 -0.00347373 -0.00171211 2650 
902 1 -0.00877617 0.00727081 0.0142965 6.3e-05 -0.0770492 -0.019803 -0.0577334 2650 
94 1 -0.0085275 0.0096283 0.014086 0.000175 0.137369 -0.114333 0.0615547 2650 
741 1 -0.00313969 0.0197389 0.0137662 0.000635 -0.0350722 0.0428901 0.0449186 2650 
616 1 -0.00122259 0.0233795 0.0134846 0.000635 0.0779005 0.0764075 -0.0108567 2650 
1116 1 -0.00703556 0.0399699 0.0143371 0.000635 0.630642 -0.00656678 0.283806 2650 
589 1 -0.00506345 0.00409082 0.0153126 0.000635 0.0809053 -0.0150573 -0.0041606 2650 
385 1 -0.00107074 0.00624209 0.014873 0.000635 0.0825578 -0.0797264 -0.0411277 2650 
229 1 -0.00706211 0.0082544 0.0147178 0.000175 0.0741194 0.0026796 0.0329644 2650 
285 1 -0.00500981 0.0142093 0.0153627 0.000635 -0.00598843 0.0438626 0.0397541 2650 
843 1 -0.00645942 0.0343569 0.0149497 0.000635 0.699317 -0.0263197 0.369772 2650 
1245 1 -0.0070946 0.03593 0.0147775 0.000635 0.838816 -0.0176042 0.510548 2650 
942 1 -0.00616508 0.0391817 0.0151021 0.000635 0.569884 -0.0127157 0.142738 2650 