ITEM: TIMESTEP
27572006
ITEM: NUMBER OF ATOMS
320
ITEM: BOX BOUNDS ff ff ff
-0.15 0.15
-0.15 0.15
-0.15 0.15
ITEM: ATOMS id type x y z radius vx vy vz density 
60 1 -0.00330389 -0.012373 -0.0687457 0.000175 -35.9008 7.47835 1.72537 2650 
573 1 -0.0109137 -0.0227406 -0.067147 0.000984 -36.9103 -1.29936 5.99529 2650 
360 1 -0.0111525 -0.00807618 -0.0679154 0.000175 -42.0347 12.068 6.90255 2650 
284 1 -0.0108903 -0.00148358 -0.0674899 0.000635 -19.2918 2.41171 3.13434 2650 
646 1 -0.0159084 -0.0157334 -0.0664915 0.000635 -33.8472 -1.11642 8.09509 2650 
904 1 -0.0126826 -0.00966887 -0.0668351 0.000984 -36.1398 -0.678741 6.85339 2650 
104 1 -0.016229 -0.00552207 -0.0660649 0.000984 -36.537 -1.60964 8.96946 2650 
683 1 -0.0159358 -0.00151798 -0.066482 0.000635 -20.6688 1.94614 5.00749 2650 
1233 1 -0.0210304 -0.0165227 -0.0647029 0.000984 -41.3481 0.444783 13.4305 2650 
1052 1 -0.0238268 -0.0142563 -0.0645691 0.000175 -31.9563 0.405463 11.7922 2650 
309 1 -0.0238796 -0.00722939 -0.0636994 0.000984 -32.7706 -2.48844 12.2767 2650 
391 1 -0.0315673 -0.00503556 -0.060648 0.000635 -33.5011 -4.06279 17.4292 2650 
384 1 -0.0372917 -0.0598052 -0.0573018 0.000635 -20.1203 -8.26178 13.0882 2650 
2 1 -0.0363436 -0.0103872 -0.0575182 0.000984 -35.8089 1.45862 22.6109 2650 
673 1 -0.0381942 -0.0286258 -0.0562796 0.000984 -1.96338 2.85617 1.33156 2650 
519 1 -0.0405001 -0.0156176 -0.055089 0.000635 -31.551 -2.10948 23.1844 2650 
1215 1 -0.0460656 -0.0591865 -0.0505309 0.000635 -30.6282 -1.48505 27.9083 2650 
719 1 -0.0470994 -0.0061133 -0.0495697 0.000635 -30.6613 -0.0779812 29.1194 2650 
523 1 -0.0487336 -0.042291 -0.0479654 0.000635 -30.6244 -0.121682 31.1002 2650 
1206 1 -0.0496336 -0.0593361 -0.0470297 0.000635 -24.5945 -9.80108 25.9432 2650 
750 1 -0.0491646 -0.0439382 -0.0475212 0.000635 -27.1637 4.61455 28.0894 2650 
1189 1 -0.0495243 -0.039835 -0.0477954 0.000175 -24.2277 -0.60504 25.0997 2650 
812 1 -0.0489131 -0.0356111 -0.0477799 0.000635 -27.222 0.588534 27.8539 2650 
114 1 -0.0490335 -0.00081747 -0.0476565 0.000635 -27.3127 -0.19991 28.088 2650 
815 1 -0.0506701 -0.0469901 -0.0459067 0.000635 -17.3078 6.88438 19.093 2650 
674 1 -0.0140868 -0.054212 -0.0435176 0.000984 -18.4508 -15.938 -2.7736 2650 
672 1 -0.0539629 -0.0460905 -0.0414584 0.000984 -28.5743 -0.836947 37.168 2650 
1273 1 -0.053846 -0.0428822 -0.0421483 0.000635 -26.6189 0.584407 33.9904 2650 
611 1 -0.0546754 -0.0489916 -0.0410683 0.000635 -26.8772 -4.79327 35.7668 2650 
386 1 -0.0565986 -0.0445453 -0.0383775 0.000635 -26.6136 -3.15753 39.2313 2650 
528 1 -0.0570858 -0.0514528 -0.0379303 0.000175 -10.6924 -1.75132 15.5767 2650 
744 1 -0.0576347 -0.0025784 -0.0367957 0.000635 -18.8084 3.68253 29.4456 2650 
1278 1 -0.0589433 -0.000852534 -0.0352168 0.000635 -10.3155 22.9497 62.3024 2650 
709 1 -0.0597623 -0.0191313 -0.0332269 0.000635 -14.0449 1.12513 25.2482 2650 
576 1 -0.063086 -0.0361017 -0.0263819 0.000635 -11.9208 0.781009 28.4913 2650 
332 1 -0.0633739 -0.00442672 -0.0268527 0.000175 -14.2039 -3.27375 33.5169 2650 
1177 1 -0.0634768 -0.0511817 -0.0254228 0.000635 -8.94546 -4.40298 22.3233 2650 
1235 1 -0.0648512 -0.0239388 -0.0206453 0.000984 -14.9307 -3.22552 46.87 2650 
516 1 -0.0657842 -0.00836487 -0.0186708 0.000635 -9.41757 -4.01169 33.1653 2650 
445 1 -0.0666628 -0.00125664 -0.0152899 0.000635 -14.3589 8.1081 62.5777 2650 
620 1 -0.0666421 -0.0301544 -0.0153556 0.000635 -11.2965 -6.48647 49.0117 2650 
184 1 -0.0670129 -0.0226358 -0.0136628 0.000635 -11.6687 3.93657 57.1947 2650 
1051 1 -0.0675596 -0.0437636 -0.0131578 0.000175 -7.78934 3.10733 39.9888 2650 
401 1 -0.0680786 -0.0168446 -0.0101467 0.000175 -11.6373 -16.1421 78.0694 2650 
956 1 -0.0008422 -0.00325265 -0.0111126 0.000175 0.0130844 -0.00612194 0.00923226 2650 
571 1 -0.008585 -0.00290499 -0.010244 6.3e-05 0 -0.01175 0 2650 
331 1 -0.0685059 -0.0274717 -0.00666093 0.000175 -3.58645 -10.5653 36.8802 2650 
764 1 -0.0141203 -7.87949e-05 -0.00643446 0.000175 0.00292601 -0.00541277 0.0132237 2650 
276 1 -0.0679906 -0.0126398 -0.00288567 0.000984 -1.60506 2.56198 37.7897 2650 
131 1 -0.0110177 -0.00278971 0.000789541 0.000175 0.00502442 -0.0112971 -0.047121 2650 
225 1 -0.0686154 -0.0231068 0.00542763 0.000175 4.62853 4.51608 58.5052 2650 
609 1 -0.0676457 -0.0280645 0.0101609 0.000635 12.9044 -3.18443 85.8557 2650 
937 1 -0.0151032 -0.00344763 0.00504122 0.000984 -0.00930822 -0.111766 0.0247484 2650 
775 1 -0.0679469 -0.00852596 0.00769616 0.000635 3.28587 -3.68438 28.3996 2650 
746 1 -0.0675629 -0.0468431 0.0105699 0.000635 5.94955 -1.05912 38.0116 2650 
447 1 -0.0676546 -0.0205368 0.00995273 0.000635 4.6523 0.375251 31.609 2650 
308 1 -0.00360652 -0.000989206 0.00902405 0.000984 0.00315123 -0.00438485 -0.0324762 2650 
918 1 -0.0649187 -0.0376143 0.0214884 0.000635 11.3137 -4.58918 34.1633 2650 
314 1 -0.064536 -0.0155599 0.0226067 0.000635 10.2903 0.538007 29.3612 2650 
156 1 -0.0644319 -0.020115 0.0242047 0.000175 11.6943 -0.0410253 31.1249 2650 
1303 1 -0.0232105 -0.0275486 0.027185 0.000635 14.2879 -15.2832 4.66728 2650 
607 1 -0.0564619 -0.0156535 0.0379795 0.000984 22.8431 -0.848617 33.9361 2650 
530 1 -0.0549845 -0.0221921 0.041399 0.000175 22.3911 5.89308 29.7341 2650 
1135 1 -0.052475 -0.0106908 0.0433121 0.000984 22.8856 1.00927 27.7071 2650 
584 1 -0.0531523 -0.00248651 0.0430133 0.000635 19.9759 -0.283282 24.6718 2650 
1274 1 -0.052934 -0.0473797 0.0432797 0.000635 17.8834 3.9641 21.8609 2650 
811 1 -0.0521928 -0.00262459 0.044172 0.000635 20.5261 -0.355466 24.2406 2650 
301 1 -0.0482175 -0.0215193 0.0491138 0.000175 30.1001 9.83826 29.5461 2650 
1089 1 -0.0480216 -0.0615487 0.0493049 0.000175 26.186 -1.25496 25.5 2650 
866 1 -0.0477931 -0.0240205 0.0495267 0.000175 29.3324 -10.3808 28.301 2650 
254 1 -0.0454723 -0.0438578 0.0510636 0.000635 28.1918 0.102606 25.0925 2650 
366 1 -0.0294302 -0.00816713 0.0513369 0.000175 33.4211 -19.4918 22.5259 2650 
906 1 -0.0441883 -0.052088 0.05218 0.000635 31.619 -4.45254 26.7635 2650 
589 1 -0.0439662 -0.0403274 0.0523612 0.000635 22.3487 8.833 18.7556 2650 
951 1 -0.0426345 -0.0257208 0.0534536 0.000635 27.9244 -1.35778 22.2613 2650 
128 1 -0.0401966 -0.0561515 0.0558672 0.000175 25.2215 3.9843 18.1452 2650 
549 1 -0.0349998 -0.0470828 0.0587367 0.000635 35.2916 -5.57787 21.0195 2650 
1002 1 -0.0335749 -0.029328 0.0591766 0.000984 36.9757 -0.353708 20.9645 2650 
612 1 -0.0246988 -0.0387139 0.0637544 0.000635 37.502 0.288451 14.522 2650 
588 1 -0.0234451 -0.00758132 0.0642193 0.000635 17.5835 -1.71742 6.41903 2650 
844 1 -0.0228987 -0.0007409 0.0644217 0.000635 36.1769 0.83542 12.8534 2650 
1276 1 -0.0081237 -0.0241094 0.067886 0.000635 41.6526 -2.83592 4.9824 2650 
349 1 -0.00593509 -0.00964116 0.0681128 0.000635 43.146 -2.71878 3.75803 2650 
1266 1 -0.0603757 -0.0206679 0.0313924 0.000984 18.9194 -1.62588 36.3621 2650 
874 1 -0.06738 0.0368312 -0.0119637 0.000635 -24.8504 4.68686 139.913 2650 
136 1 -0.00588434 0.0101447 -0.0157229 6.3e-05 -0.0387489 0.00959668 0.0165181 2650 
677 1 -2.64002e-05 0.0245107 -0.0161074 0.000635 -0.191069 -0.00784391 -0.0323578 2650 
1114 1 -0.00296783 0.0297307 -0.0159725 0.000635 -0.204816 0.0238149 -0.025956 2650 
409 1 -0.00145469 0.0302859 -0.015826 0.000984 -0.187772 0.0149681 0.0380081 2650 
1279 1 -0.00167356 0.0606997 -0.0162481 0.000635 -0.101273 0.114486 -0.00407884 2650 
994 1 -0.0075616 0.00945937 -0.014885 0.000175 -0.14609 -0.0726171 0.0620621 2650 
474 1 -0.00425056 0.0293003 -0.0150547 0.000984 -0.131451 0.00836046 0.0143098 2650 
1124 1 -0.00911249 0.0219994 -0.0140415 0.000175 -0.300237 0.0160558 0.223034 2650 
801 1 -0.000875353 0.0322971 -0.0136777 6.3e-05 0.00439394 0.0261748 0.0208077 2650 
58 1 -0.0011015 0.0254526 -0.0122915 0.000175 0.0163643 0.0137378 0.00115129 2650 
871 1 -0.00847982 0.0360218 -0.0127711 0.000984 0.0431073 0.00667462 0.0271095 2650 
466 1 -0.0110804 0.0410087 -0.0124047 0.000175 -0.0392366 0.129132 0.042338 2650 
64 1 -0.0121383 0.0164672 -0.0113882 0.000175 -0.132339 -0.159208 0.156776 2650 
323 1 -0.0117351 0.0172816 -0.0111685 0.000635 -0.0953654 -0.130849 0.116553 2650 
124 1 -0.00816998 0.000719042 -0.0105359 0.000175 -0.0180307 -0.00122716 0.00788026 2650 
840 1 -0.00204275 0.00523472 -0.00971415 0.000635 -0.000880466 -0.0151329 0.0198019 2650 
777 1 -0.0122752 0.039021 -0.0107177 0.000635 -0.0945554 0.0666788 0.106394 2650 
742 1 -0.00664995 0.0578906 -0.0106077 0.000635 0.0518325 0.120534 -0.0287811 2650 
633 1 -0.0121182 0.0724915 -0.0103668 0.000175 -0.0201665 0.0688397 -0.0147461 2650 
1036 1 -0.0117594 0.0429379 -0.00906327 0.000984 0.00314014 0.0811146 0.0530597 2650 
703 1 -0.00292734 0.066727 -0.00955511 6.3e-05 -0.0361602 0.117061 -0.00578395 2650 
270 1 -0.00486088 0.0246314 -0.00826562 6.3e-05 0.000631057 0.0149424 -0.0171158 2650 
1317 1 -0.0114653 0.055248 -0.00805593 0.000175 -0.0448445 0.0658133 0.0454986 2650 
1229 1 -0.0132519 0.0581959 -0.00801966 0.000175 -0.0168426 0.0405983 -0.0253622 2650 
461 1 -0.0152653 0.00453363 -0.00657833 0.000175 0.0853651 -0.00683843 -0.196147 2650 
479 1 -0.00946576 0.00579456 -0.00618349 0.000635 -0.00347002 0.0107448 -0.0387094 2650 
1244 1 -0.00241157 0.0134345 -0.00626899 0.000635 -0.0163564 0.00216482 -0.0153651 2650 
1283 1 -0.0108948 0.0180627 -0.00629066 0.000175 0.00614045 0.0165163 -0.00298846 2650 
1118 1 -0.0115123 0.0195002 -0.00681298 0.000175 -0.0321677 0.020309 -0.00601849 2650 
71 1 -0.0147266 0.0223008 -0.00616685 0.000984 -0.100719 0.0193432 0.191054 2650 
968 1 -0.0105013 0.0623113 -0.00666526 6.3e-05 -0.0502992 1.97448 0.537476 2650 
256 1 -0.0156633 0.00137042 -0.00572417 0.000175 -0.0253997 -0.00930648 0.0935495 2650 
415 1 -0.0128098 0.0223895 -0.00599661 0.000635 -0.0229007 0.00707465 0.0110494 2650 
774 1 -0.0136098 0.042128 -0.00260492 0.000635 0.0202731 0.0490577 0.0140599 2650 
1217 1 -0.00444552 0.0184915 -0.00183247 0.000175 -0.00365658 0.0235342 -0.037701 2650 
544 1 -0.00919833 0.0272469 -0.00194181 0.000635 0.00089173 0.0114789 0.0270802 2650 
1190 1 -0.0165583 0.0365621 -0.00220141 0.000175 -0.0171898 0.020543 0.0694137 2650 
45 1 -0.00694398 0.048534 -0.00184399 0.000635 -0.0237188 0.0620878 0.0391677 2650 
824 1 -0.0045262 0.0476403 -0.00224735 0.000175 0.0019145 0.0360025 0.0134415 2650 
716 1 -0.00495145 0.0110333 -0.000444405 0.000635 -0.0107726 0.0027635 0.00315379 2650 
809 1 -0.00391942 0.0192827 -0.00028165 0.000635 0.0124385 0.00560447 0.00812582 2650 
1272 1 -0.0132432 0.030313 -0.00082657 0.000635 -0.0116214 0.040403 -0.0328466 2650 
595 1 -0.0166757 0.0394343 -0.000346156 0.000175 -0.00336036 0.0281827 0.0785841 2650 
364 1 -0.00829553 0.0668374 -0.000140418 0.000175 0.0136113 0.0601306 -0.00379252 2650 
485 1 -0.011075 0.0680803 -0.000496288 0.000635 0.0303075 0.154531 -0.0138297 2650 
1094 1 -0.00191404 0.0343619 0.000806586 0.000175 0.00407957 0.0151024 0.0177536 2650 
140 1 -0.0113561 0.0397484 0.000842582 0.000984 -0.000836339 0.0245176 0.020616 2650 
494 1 -0.000986322 0.00102573 0.00208348 0.000175 0.000422591 -0.00340331 -0.00920906 2650 
1256 1 -0.00823478 0.0127174 0.00129017 0.000175 0.00809504 0.00235426 -0.0024867 2650 
942 1 -0.0161315 0.0230201 0.0017184 0.000635 0.0405945 -0.00247264 0.2304 2650 
1187 1 -0.0165921 0.0458169 0.00169656 0.000175 0.137242 -0.0774864 0.732367 2650 
120 1 -0.0157285 0.00712165 0.00276477 0.000175 -0.00620908 -0.00336394 -0.00838937 2650 
67 1 -0.00844659 0.0143138 0.0026484 6.3e-05 0.00376329 0.00663103 0.0294975 2650 
440 1 -0.0133359 0.0252242 0.00318759 6.3e-05 -0.0115646 0.0178358 -0.0101824 2650 
115 1 -0.0126415 0.0616034 0.00269103 0.000635 0.00244334 0.0911825 -0.103811 2650 
198 1 -0.00189757 0.0218756 0.00435391 0.000175 -0.0321441 0.0519984 -0.0618094 2650 
61 1 -0.00950814 0.0254366 0.00401976 0.000175 0.0158961 0.0162768 -0.0126168 2650 
1109 1 -0.000271579 0.0278913 0.00592422 0.000635 0.00199804 0.0188995 0.0149697 2650 
154 1 -0.0101553 0.0590496 0.00514847 0.000175 -0.0132199 0.0329351 -0.0263641 2650 
53 1 -0.000155778 0.00655149 0.00720012 0.000175 -0.019605 0.00305305 0.0124762 2650 
1010 1 -0.00951023 0.0137458 0.00640569 0.000635 0.0158138 0.00316003 0.00835809 2650 
707 1 -0.0116132 0.0335546 0.00664211 0.000984 -0.0494744 0.0108553 -0.00619104 2650 
1132 1 -0.015631 0.0618405 0.0062087 6.3e-05 -0.0392853 0.139124 -0.0728957 2650 
1304 1 -0.00459381 0.0731215 0.00618463 0.000635 0.0110207 0.0949498 0.0471212 2650 
102 1 -0.0137504 0.00953233 0.00953371 6.3e-05 0.176054 -0.0254282 0.235436 2650 
471 1 -0.0035124 0.014019 0.00999102 6.3e-05 -0.0123765 0.0123995 0.00753561 2650 
769 1 -0.00590016 0.0268094 0.0100433 6.3e-05 0.00869105 0.0216716 -0.00969765 2650 
1168 1 -0.00233372 0.0270796 0.00979644 0.000984 -0.0393037 0.108463 -0.01792 2650 
450 1 -0.0127773 0.0440948 0.00987422 0.000635 0.214386 0.0322677 0.285375 2650 
697 1 -0.0116489 0.0481028 0.0115874 0.000175 0.425133 0.232919 0.31325 2650 
403 1 -0.00261352 0.0199977 0.0135892 0.000175 0.00463421 0.0189833 0.0016799 2650 
686 1 -0.00338227 0.018829 0.0153714 0.000635 -0.00243338 0.0157721 0.0242954 2650 
16 1 -0.00556661 0.0444129 0.0151769 0.000635 -0.0868788 0.0420982 -0.0211372 2650 
35 1 -0.000265316 0.0118912 0.0158375 0.000984 0.140193 0.0420359 0.00575644 2650 
561 1 -0.00183345 0.014753 0.0165149 0.000175 0.0918108 0.00734279 0.00290199 2650 
1232 1 -0.00184986 0.0364504 0.0160593 6.3e-05 -0.0202216 0.026041 -0.00721959 2650 
405 1 -0.00152951 0.0374498 0.0166976 6.3e-05 0.174415 -0.0707626 0.00722305 2650 
379 1 -0.0654569 0.143638 -0.019767 0.000635 -0.0430074 -0.115572 0.142332 2650 
1079 1 -0.0663175 0.0803257 -0.0166854 0.000635 -9.60881 -3.14769 38.1726 2650 
393 1 -0.00557057 0.0932938 -0.0181107 0.000175 -3.70793 10.9927 -2.17912 2650 
973 1 -0.0140603 0.106736 -0.0064476 0.000635 -0.0179093 0.137847 -0.0287263 2650 
1319 1 -0.00650778 0.0881885 0.00197988 0.000175 -0.0264793 0.105287 -0.0103786 2650 
987 1 -0.0687117 0.0998999 0.00400698 0.000175 -0.0014801 -0.152042 -0.0253767 2650 
503 1 -0.00605915 0.102808 0.00692093 0.000175 -0.0241032 0.111279 0.041924 2650 
969 1 -0.0235107 0.0937891 0.0233335 0.000984 19.8997 -15.7002 18.2701 2650 
583 1 0.00945986 -0.0548271 -0.0677125 0.000635 -40.6062 5.25705 -5.67065 2650 
1179 1 0.00934096 -0.044302 -0.0677266 0.000635 -34.4538 2.91244 -4.75033 2650 
218 1 0.00291147 -0.0150045 -0.0683063 0.000635 -37.085 -1.2124 -1.58016 2650 
179 1 0.014668 -0.0540373 -0.0667781 0.000635 -39.1976 3.8742 -8.60628 2650 
712 1 0.0313831 -0.0117673 -0.0607476 0.000635 -41.0422 13.9988 -21.1934 2650 
44 1 0.0293482 -0.00733663 -0.0584916 0.000635 -19.7579 -7.11621 -16.4786 2650 
83 1 0.0376666 -0.0355415 -0.0570673 0.000635 -39.6027 4.92364 -26.1273 2650 
357 1 0.0387746 -0.00895531 -0.0563207 0.000635 -39.2257 2.60569 -26.993 2650 
25 1 0.0416618 -0.00738705 -0.0545614 0.000175 23.5081 9.61966 0.223479 2650 
1007 1 0.0553728 -0.0473491 -0.0401206 0.000635 -23.3423 -1.43003 -32.2005 2650 
608 1 0.0582891 -0.0576422 -0.0350764 0.000984 -3.91153 0.228391 -6.67187 2650 
1263 1 0.0464526 -0.00562533 -0.0292995 6.3e-05 7.29237 -0.168916 -4.59913 2650 
905 1 0.0135202 -0.0537906 -0.0246845 0.000984 -2.11084 -0.0732195 -1.06641 2650 
1281 1 0.0640181 -0.0254372 -0.0240457 0.000635 -15.5085 10.1117 -41.27 2650 
776 1 0.0638829 -0.00995641 -0.0243941 0.000635 -12.5609 -2.92139 -32.8782 2650 
1153 1 0.065172 -0.0541789 -0.0221355 0.000175 -11.9461 4.51288 -35.1664 2650 
500 1 0.0654617 -0.024248 -0.0212632 0.000175 -10.0183 0.870068 -30.8379 2650 
546 1 0.0658878 -0.00237996 -0.0182977 0.000635 -8.02213 -0.946039 -28.8724 2650 
481 1 0.0661326 -0.0154115 -0.0173996 0.000635 -9.17165 1.68951 -34.8429 2650 
1060 1 0.0667516 -0.0481839 -0.0144859 0.000175 -4.66556 -14.6127 -28.8375 2650 
655 1 0.0673317 -0.0202465 -0.0119488 0.000635 -6.23375 0.364753 -35.1105 2650 
243 1 0.0675718 -0.0200213 -0.0105183 0.000635 -6.35039 -8.76916 -40.7775 2650 
37 1 0.0676941 -0.0357088 -0.00697529 0.000984 -3.99518 1.77714 -38.7465 2650 
421 1 0.0682928 -0.0396074 -0.00354531 0.000635 -1.96176 -0.927818 -37.7719 2650 
1142 1 0.0683828 -0.0583911 0.000189497 0.000635 0.0887479 5.11557 -31.9059 2650 
1095 1 0.007483 -0.00296399 0.007178 0.000175 0 -0.01175 0 2650 
1296 1 0.0683405 -0.0381326 0.00595394 6.3e-05 5.34829 -6.75167 -40.9673 2650 
568 1 0.00780497 -0.00334989 0.00919791 0.000175 0.466833 -0.0273418 0.550148 2650 
299 1 0.009815 -0.00229199 0.009334 0.000175 0 -0.01175 0 2650 
387 1 0.068044 -0.0251367 0.00704205 0.000635 9.46547 18.1568 -91.6416 2650 
807 1 0.0671112 -0.0587426 0.013125 0.000635 6.23083 -0.35541 -31.8438 2650 
132 1 0.00671849 -0.00208285 0.0151955 0.000175 0.0817866 -0.0153704 -0.0357367 2650 
418 1 0.00327506 -0.0541611 0.028513 0.000635 2.16795 -0.0298049 -0.235602 2650 
926 1 0.0625557 -0.0297484 0.0287071 0.000175 15.2943 -9.67411 -33.3225 2650 
231 1 0.00185374 -0.00536475 0.0687999 0.000175 0.0633285 -0.129896 0.133906 2650 
1310 1 0.0574064 -0.0531714 0.0371509 0.000635 19.1349 0.152061 -29.5528 2650 
615 1 0.0558211 -0.0481654 0.0394915 0.000635 20.0563 4.38744 -28.3351 2650 
14 1 0.0553676 -0.0251383 0.0401208 0.000635 16.4411 -1.98052 -22.6777 2650 
213 1 0.0541943 -0.0237723 0.0416901 0.000635 15.7952 -1.83364 -20.5218 2650 
289 1 0.0537093 -0.0248456 0.042313 0.000635 16.4248 -1.6751 -20.8366 2650 
1239 1 0.0521622 -0.0444707 0.044216 0.000635 29.8535 0.409739 -35.2021 2650 
659 1 0.0469823 -0.0201101 0.0502967 0.000175 33.6372 3.23521 -31.4157 2650 
1017 1 0.0441949 -0.0591326 0.052178 0.000635 37.1937 -1.99828 -31.4888 2650 
865 1 0.0398871 -0.0324119 0.0560891 0.000175 35.2956 12.6031 -25.0965 2650 
1020 1 0.0365322 -0.0366465 0.0583293 0.000175 30.915 1.49521 -19.361 2650 
788 1 0.0201661 -0.00030163 0.0658044 0.000175 36.6498 -0.773048 -11.2314 2650 
1147 1 0.00248425 -0.00786983 0.0683235 0.000635 35.7966 18.8268 -1.27335 2650 
50 1 0.00481497 -0.00708329 0.0682012 0.000635 43.4858 1.27185 -3.06881 2650 
159 1 0.00545589 -0.0583527 0.0686084 0.000175 15.3368 -5.97068 -1.21961 2650 
1056 1 0.00219923 -0.0364243 0.0687899 0.000175 26.6479 1.64688 -0.851938 2650 
817 1 0.0133635 0.0237262 -0.0670854 0.000635 -105.266 8.75087 -20.9617 2650 
735 1 0.0525119 0.064928 -0.0446638 6.3e-05 0.147038 -0.0602797 0.172861 2650 
972 1 0.0509767 0.0205259 -0.0456054 0.000635 -58.213 -0.600314 -65.0442 2650 
449 1 0.00191544 0.0163689 -0.0160258 0.000635 -0.353587 0.182026 -0.0844222 2650 
1242 1 0.00452453 0.0333498 -0.0156433 0.000635 -0.0623799 0.0112438 -0.0170799 2650 
797 1 0.00478581 0.0422187 -0.0159536 0.000175 -0.183924 0.0216718 -0.0485737 2650 
1180 1 0.00548126 0.0275539 -0.0153161 0.000635 -0.187474 0.00383414 -0.0462297 2650 
1315 1 0.00757927 0.0354255 -0.0149228 0.000175 -0.0781853 -0.0855758 -0.0413253 2650 
1105 1 0.00729309 0.0374579 -0.0146849 0.000635 -0.0475532 0.0304048 -0.032493 2650 
19 1 0.0073551 0.0396323 -0.0149485 0.000175 -0.0700334 0.0861955 -0.0364557 2650 
773 1 0.0654364 0.0552081 -0.0188103 0.000984 -22.0812 -10.2856 -76.7734 2650 
411 1 0.00694025 0.0105748 -0.0139992 0.000984 -0.0255625 -0.0510731 0.000600452 2650 
224 1 0.00197716 0.0203238 -0.0141883 0.000175 0.0165055 0.0103061 -0.0137836 2650 
1280 1 0.00827382 0.0234509 -0.0140098 0.000635 -0.14615 0.0120559 -0.0768163 2650 
577 1 0.00244134 0.0276087 -0.0134988 0.000635 -0.0355003 0.0326538 -0.0203458 2650 
203 1 0.00997251 0.0346778 -0.0136606 6.3e-05 -0.242484 0.0322477 -0.210814 2650 
459 1 0.00314335 0.0372574 -0.0124732 0.000175 -0.0301438 0.03249 -0.00836501 2650 
902 1 0.0120559 0.000736929 -0.011606 6.3e-05 0.0572971 0.00379117 0.0661555 2650 
852 1 0.000267842 0.0140567 -0.0116152 0.000635 -0.0070181 0.00899945 0.025204 2650 
766 1 0.0123059 0.0188795 -0.0113793 0.000175 -0.0447023 -0.0602525 -0.039256 2650 
262 1 0.0112375 0.020481 -0.0109608 0.000175 0.011616 0.0238828 -0.0257939 2650 
492 1 0.0130636 0.000257946 -0.0103549 0.000175 0.0029786 -0.00422428 0.0101938 2650 
1106 1 0.012665 0.0103911 -0.0100454 0.000635 -0.098788 -0.142499 -0.129185 2650 
383 1 0.0090191 0.0119679 -0.0103987 0.000635 0.0154051 0.0172941 0.0403664 2650 
759 1 0.011965 0.0370717 -0.00976731 0.000175 -0.0258988 0.050256 -0.0346112 2650 
1091 1 0.013789 0.00039876 -0.00926246 0.000175 -0.103671 -0.0270996 -0.14054 2650 
1126 1 0.00569916 0.00272832 -0.00944481 0.000175 0.00584489 -0.00547495 -0.0047286 2650 
526 1 0.0138217 0.00839535 -0.00924274 0.000175 -0.055438 0.000528727 -0.0742351 2650 
1115 1 0.000695861 0.0218287 -0.00925761 0.000635 0.0424241 0.0353636 0.0141369 2650 
820 1 0.00444399 0.0300926 -0.00844757 0.000175 -0.0172006 0.0187795 -0.0187481 2650 
1075 1 0.0133106 0.044537 -0.00914995 0.000635 -0.0537607 0.0156404 -0.105208 2650 
66 1 0.0107798 0.0102019 -0.00828486 6.3e-05 0.025289 0.00595111 -0.0193862 2650 
347 1 0.00830905 0.01338 -0.00780136 0.000635 0.0536302 -0.0056805 -0.0214407 2650 
785 1 0.00278087 0.0309486 -0.00813647 0.000635 -0.0274203 0.048236 0.0262017 2650 
303 1 0.0153372 0.0157485 -0.00690053 6.3e-05 0.0861701 2.52427e-05 0.162162 2650 
1129 1 0.0157587 0.0155753 -0.00512842 0.000175 0.0207033 -0.00876718 0.114033 2650 
319 1 0.00199134 0.0220768 -0.00500534 0.000635 0.0124192 0.0151002 0.00485699 2650 
160 1 0.0137826 0.0324272 -0.00542601 0.000175 -0.0190808 0.020475 -0.0243088 2650 
1055 1 0.0100173 0.0107227 -0.00438934 0.000175 -0.00181167 0.00259726 -0.00177836 2650 
767 1 0.00554907 0.0246232 -0.00375429 0.000175 -0.0183032 0.017172 -0.0102546 2650 
1003 1 0.0136143 0.0324372 -0.00411109 0.000984 -0.0270172 0.017042 -0.0264796 2650 
141 1 0.0105069 0.0412945 -0.00373595 0.000635 -0.00216775 0.0320298 -0.0139017 2650 
670 1 0.00541516 0.00257399 -0.00262363 6.3e-05 -0.0225601 -0.00132465 0.00841275 2650 
1030 1 0.00582112 0.00453363 -0.00242662 0.000175 0.0191697 -0.0217066 -0.100905 2650 
885 1 0.00619003 0.024605 -0.00308221 0.000635 0.00284127 0.0296538 -0.0129885 2650 
1158 1 0.0031395 0.0272496 -0.00283038 0.000175 0.0147242 0.0383321 -0.0286824 2650 
1330 1 0.0162003 0.0106948 -0.00169984 6.3e-05 0.00880563 -0.00294949 0.0726672 2650 
452 1 0.0160969 0.043299 -0.00181154 0.000635 -0.0335582 -0.0117792 -0.178838 2650 
538 1 0.000701217 0.00216165 -0.00105872 6.3e-05 -0.0046276 -0.00768452 -0.00689592 2650 
453 1 0.0139394 0.0070396 -0.000627908 0.000635 0.0343515 0.00447005 0.0273405 2650 
1143 1 0.011966 0.0341457 -0.000988793 0.000635 -0.00972227 0.0219943 0.0147796 2650 
1128 1 0.0108624 0.0252957 0.000780988 0.000175 0.0315977 0.0130359 -0.00492581 2650 
1255 1 0.0128374 0.0140279 0.00231959 0.000175 -0.00982536 -0.00773545 0.0206808 2650 
487 1 0.00908428 0.0562453 0.00128544 0.000635 0.0142632 0.0617695 -0.0301836 2650 
634 1 0.0162792 0.00929086 0.00314634 0.000175 0.0222494 -0.1529 -0.0887025 2650 
851 1 0.0160438 0.0486325 0.00261096 0.000635 0.254461 -0.014098 -0.936867 2650 
1202 1 0.0138138 0.0224427 0.00487133 0.000984 0.0332021 0.0241115 -0.027156 2650 
784 1 0.0123738 0.038222 0.00569541 0.000635 0.00297508 0.0120362 -0.0426803 2650 
472 1 0.00670666 0.0541531 0.00529796 6.3e-05 -0.00743943 0.0298903 -0.0179315 2650 
90 1 0.0134457 0.0597558 0.00531653 0.000175 -0.0130613 0.0692997 -0.027419 2650 
768 1 0.0116291 0.0102668 0.00646669 6.3e-05 0.0319411 -0.0398954 0.0776484 2650 
1113 1 0.0117215 0.0159351 0.00612019 0.000635 0.0246175 0.0131149 0.000596817 2650 
1027 1 0.0082969 0.031732 0.00710964 0.000175 0.00369436 0.021216 -0.0202613 2650 
779 1 0.00906918 0.0552386 0.00689254 0.000635 -0.00171361 0.0428643 0.0252758 2650 
625 1 0.00778407 0.0137611 0.00767624 0.000175 -0.00158097 0.00789664 -0.0191807 2650 
1254 1 0.0139321 0.0238113 0.00761377 0.000175 -0.0044007 0.0126298 0.0288989 2650 
144 1 0.0117699 0.062728 0.00738125 0.000635 0.0615477 0.156469 -0.017923 2650 
1331 1 0.0123239 0.00075385 0.00866442 6.3e-05 -0.0109441 -0.00344411 0.0198818 2650 
267 1 0.00097401 0.0109313 0.00921599 0.000175 0.014904 0.00469267 -5.3787e-06 2650 
143 1 0.00763334 0.017916 0.00909958 0.000635 -0.00399968 0.0140365 0.0147805 2650 
979 1 0.00150114 0.0418741 0.00919767 0.000635 0.0150395 0.0321455 -0.0124313 2650 
757 1 0.00706598 0.0535979 0.00882905 0.000175 0.0874935 0.131015 0.0566935 2650 
438 1 0.0072548 0.055645 0.00899249 6.3e-05 0.0421182 0.0549528 -0.00799419 2650 
829 1 0.0129678 0.013991 0.010533 0.000175 0.0752695 0.0111848 -0.0861929 2650 
835 1 0.00655546 0.0168939 0.0102085 6.3e-05 0.02083 0.016291 -0.0373151 2650 
355 1 0.012257 0.0308856 0.0107952 0.000635 -0.0236182 0.0622618 0.0190939 2650 
665 1 0.0125611 0.0326453 0.0111252 0.000175 0.0222844 0.0263336 0.0159099 2650 
1205 1 0.00498545 0.0396327 0.01113 0.000635 0.0245642 0.0283205 -0.00435711 2650 
489 1 0.00973311 0.0529646 0.0117599 0.000635 0.0496317 0.0861645 0.030172 2650 
42 1 0.00806814 0.00405066 0.0122943 0.000635 0.00388864 0.00232482 0.0164042 2650 
545 1 0.00839391 0.0170192 0.0135462 0.000635 0.0260109 0.02214 -0.0316466 2650 
495 1 0.00115635 0.0743587 0.0141611 0.000175 -0.0183047 0.0511353 -0.00207621 2650 
543 1 0.00527482 0.0415932 0.0150015 0.000635 -0.0400924 0.034766 0.00777506 2650 
205 1 5.67489e-05 0.00158498 0.0159042 0.000984 0.186339 -0.016161 0.0088208 2650 
830 1 0.00253222 0.00879617 0.0165209 0.000175 -0.0847728 -0.0660446 0.0115971 2650 
1157 1 0.00460972 0.00945185 0.0159784 0.000175 -0.0711713 -0.00756562 0.0185709 2650 
133 1 0.000669936 0.0233551 0.0165157 6.3e-05 -0.0332614 0.00723982 0.00355361 2650 
1026 1 0.000265452 0.0417152 0.0165652 0.000175 0.170202 -0.0210454 0.00485424 2650 
868 1 0.0225362 0.0684924 0.0651515 6.3e-05 221.247 -46.3884 -76.5271 2650 
740 1 0.0182124 0.0867217 -0.0655478 0.000984 -37.7702 -0.128505 -10.4873 2650 
215 1 0.0070386 0.0979277 -0.0406892 0.000635 0.993145 0.0472501 -5.82739 2650 
943 1 0.0640653 0.0943401 -0.0241226 0.000635 -64.061 -0.0529362 -170.311 2650 
848 1 0.0110793 0.100342 -0.00894131 0.000635 0.0182844 0.0726118 0.00445669 2650 
567 1 0.00562859 0.0823328 -0.00692697 0.000175 -0.00106972 0.0676857 -0.00282603 2650 
520 1 0.0051606 0.123231 -0.00348208 0.000635 0.000460027 0.0921002 0.00829425 2650 
164 1 0.00616145 0.0923968 0.0019214 0.000175 0.0200574 0.0901609 0.0230931 2650 
572 1 0.000423581 0.108605 0.00943968 6.3e-05 0.00506827 0.0682336 0.0295527 2650 
1137 1 0.000352909 0.0947896 0.0103004 0.000635 -0.000766888 0.072783 0.0177927 2650 
1023 1 0.0429104 0.112284 0.0538208 0.000175 122.502 12.2676 -97.6586 2650 
822 1 0.00274988 0.124985 0.0687703 0.000175 57.9628 1.53471 -2.31761 2650 
