LIGGGHTS (Version LIGGGHTS-PUBLIC 3.8.0, compiled 2022-11-07-16:55:38 by serperd1, git commit 86544c3f1215bc9744d7929e3eacf53ba086af9e)
Created orthogonal box = (-0.15 -0.15 -0.15) to (0.15 0.15 0.15)
  2 by 4 by 5 MPI processor grid

Reading STL file 'cone.stl' (mesh processing step 1/3) 

Reading STL file 'in_cyl.stl' (mesh processing step 1/3) 

Reading STL file 'top_cyl.stl' (mesh processing step 1/3) 

Reading STL file 'bot_cyl.stl' (mesh processing step 1/3) 

Reading STL file 'bottom_disk.stl' (mesh processing step 1/3) 

Reading STL file 'top_disk.stl' (mesh processing step 1/3) 
Fix particledistribution/discrete (id prob_par): distribution based on mass%:
    r_0to10p: d=1.260000e-04 (max. bounding sphere) mass%=10.000000%
    r_10to50p: d=3.492000e-04 (max. bounding sphere) mass%=40.000000%
    r_50to90p: d=1.269900e-03 (max. bounding sphere) mass%=40.000000%
    r_90to100p: d=1.968300e-03 (max. bounding sphere) mass%=10.000000%
Fix particledistribution/discrete (id prob_par): distribution based on number%:
    r_0to10p: d=1.260000e-04 (max. bounding sphere) number%=83.887052%
    r_10to50p: d=3.492000e-04 (max. bounding sphere) number%=15.763181%
    r_50to90p: d=1.269900e-03 (max. bounding sphere) number%=0.327762%
    r_90to100p: d=1.968300e-03 (max. bounding sphere) number%=0.022006%
Setting up run at Sat Dec 24 20:33:29 2022

Import and parallelization of mesh cone_mesh containing 868 triangle(s) successful
Import and parallelization of mesh inlet_cyl_wall_mesh containing 1064 triangle(s) successful
Import and parallelization of mesh top_cyl_wall_mesh containing 682 triangle(s) successful
Import and parallelization of mesh bot_cyl_wall_mesh containing 1280 triangle(s) successful
Import and parallelization of mesh bot_disk_wall_mesh containing 1682 triangle(s) successful
Import and parallelization of mesh top_disk_wall_mesh containing 1144 triangle(s) successful
Memory usage per processor = 955.842 Mbytes
    Step    Atoms         KinEng            CPU 
       0        0              0              0 
Loop time of 0.00141693 on 40 procs for 0 steps with 0 atoms, finish time Sat Dec 24 20:33:29 2022


Pair  time (%) = 0 (0)
Neigh time (%) = 0 (0)
Comm  time (%) = 0 (0)
Outpt time (%) = 0 (0)
Other time (%) = 0.00141693 (100)

Nlocal:    0 ave 0 max 0 min
Histogram: 40 0 0 0 0 0 0 0 0 0
Nghost:    0 ave 0 max 0 min
Histogram: 40 0 0 0 0 0 0 0 0 0
Neighs:    0 ave 0 max 0 min
Histogram: 40 0 0 0 0 0 0 0 0 0

Total # of neighbors = 0
Neighbor list builds = 0
Dangerous builds = 0
Setting up run at Sat Dec 24 20:33:29 2022

Memory usage per processor = 955.842 Mbytes
    Step    Atoms         KinEng            CPU 
       0        0              0              0 
       1        0              0    0.009813965 
Loop time of 0.0098314 on 40 procs for 1 steps with 0 atoms, finish time Sat Dec 24 20:33:29 2022


Pair  time (%) = 2.11565e-06 (0.0215193)
Neigh time (%) = 0 (0)
Comm  time (%) = 0.000239144 (2.43245)
Outpt time (%) = 0.000161773 (1.64547)
Other time (%) = 0.00942837 (95.9006)

Nlocal:    0 ave 0 max 0 min
Histogram: 40 0 0 0 0 0 0 0 0 0
Nghost:    0 ave 0 max 0 min
Histogram: 40 0 0 0 0 0 0 0 0 0
Neighs:    0 ave 0 max 0 min
Histogram: 40 0 0 0 0 0 0 0 0 0

Total # of neighbors = 0
Neighbor list builds = 0
Dangerous builds = 0
Scanning dump file ...
Reading snapshot from dump file ...
  orthogonal box = (-0.15 -0.15 -0.15) to (0.15 0.15 0.15)
  0 atoms before read
  1331 atoms in snapshot
  0 atoms purged
  0 atoms replaced
  0 atoms trimmed
  1331 atoms added
  1331 atoms after read
Setting atom values ...
  1331 settings made for type
  1331 settings made for density
  1331 settings made for vy
Setting up run at Sat Dec 24 20:33:29 2022

Memory usage per processor = 960.195 Mbytes
    Step    Atoms         KinEng            CPU 
       1     1331    2.04396e-07              0 
       2     1331  2.5455856e-07    0.009158015 
Loop time of 0.00916795 on 40 procs for 1 steps with 1331 atoms, finish time Sat Dec 24 20:33:29 2022


Pair  time (%) = 2.80868e-06 (0.0306358)
Neigh time (%) = 0 (0)
Comm  time (%) = 5.79988e-06 (0.0632625)
Outpt time (%) = 0.000175377 (1.91293)
Other time (%) = 0.00898397 (97.9932)

Nlocal:    33.275 ave 555 max 0 min
Histogram: 36 0 2 0 0 0 0 0 0 2
Nghost:    13.575 ave 173 max 0 min
Histogram: 36 0 0 0 0 1 1 0 0 2
Neighs:    10.175 ave 168 max 0 min
Histogram: 36 0 2 0 0 0 0 0 0 2

Total # of neighbors = 407
Ave neighs/atom = 0.305785
Neighbor list builds = 0
Dangerous builds = 0
Setting up run at Sat Dec 24 20:33:29 2022

Memory usage per processor = 960.195 Mbytes
    Step    Atoms         KinEng            CPU 
       2     1331  2.5455856e-07              0 
  205763     1331  6.9273694e-05      1990.8665 
Loop time of 1990.87 on 40 procs for 205761 steps with 1331 atoms, finish time Sat Dec 24 21:06:40 2022


Pair  time (%) = 0.478513 (0.0240354)
Neigh time (%) = 0.415367 (0.0208636)
Comm  time (%) = 1.16631 (0.0585829)
Outpt time (%) = 0.000198672 (9.97918e-06)
Other time (%) = 1988.81 (99.8965)

Nlocal:    33.275 ave 551 max 0 min
Histogram: 36 0 2 0 0 0 0 0 0 2
Nghost:    13.8 ave 171 max 0 min
Histogram: 36 0 0 0 0 1 1 0 0 2
Neighs:    11.175 ave 191 max 0 min
Histogram: 36 1 1 0 0 0 0 0 1 1

Total # of neighbors = 447
Ave neighs/atom = 0.335838
Neighbor list builds = 550
Dangerous builds = 0
Setting up run at Sat Dec 24 21:06:40 2022

Memory usage per processor = 960.195 Mbytes
    Step    Atoms         KinEng            CPU 
  205763     1331  6.9273694e-05              0 
  411524     1331  0.00040217614      2008.9335 
Loop time of 2008.93 on 40 procs for 205761 steps with 1331 atoms, finish time Sat Dec 24 21:40:09 2022


Pair  time (%) = 0.482091 (0.0239974)
Neigh time (%) = 0.413381 (0.0205771)
Comm  time (%) = 1.20996 (0.0602289)
Outpt time (%) = 0.000508468 (2.53104e-05)
Other time (%) = 2006.83 (99.8952)

Nlocal:    33.275 ave 538 max 0 min
Histogram: 36 0 2 0 0 0 0 0 0 2
Nghost:    13.625 ave 169 max 0 min
Histogram: 36 0 0 0 0 1 1 0 0 2
Neighs:    11.725 ave 197 max 0 min
Histogram: 36 1 1 0 0 0 0 0 0 2

Total # of neighbors = 469
Ave neighs/atom = 0.352367
Neighbor list builds = 550
Dangerous builds = 0
Setting up run at Sat Dec 24 21:40:09 2022

Memory usage per processor = 960.195 Mbytes
    Step    Atoms         KinEng            CPU 
  411524     1331  0.00040217614              0 
  617285     1331  0.00067128357      1995.6987 
Loop time of 1995.7 on 40 procs for 205761 steps with 1331 atoms, finish time Sat Dec 24 22:13:25 2022


Pair  time (%) = 0.474345 (0.0237684)
Neigh time (%) = 0.415446 (0.0208171)
Comm  time (%) = 1.21156 (0.0607085)
Outpt time (%) = 0.000614624 (3.07974e-05)
Other time (%) = 1993.6 (99.8947)

Nlocal:    33.275 ave 522 max 0 min
Histogram: 36 0 2 0 0 0 0 0 0 2
Nghost:    13.05 ave 158 max 0 min
Histogram: 36 0 0 0 0 0 1 1 0 2
Neighs:    11.9 ave 190 max 0 min
Histogram: 36 0 2 0 0 0 0 0 0 2

Total # of neighbors = 476
Ave neighs/atom = 0.357626
Neighbor list builds = 550
Dangerous builds = 0
Setting up run at Sat Dec 24 22:13:25 2022

Memory usage per processor = 960.195 Mbytes
    Step    Atoms         KinEng            CPU 
  617285     1331  0.00067128357              0 
  823046     1331    0.035912214      2011.1093 
Loop time of 2011.12 on 40 procs for 205761 steps with 1331 atoms, finish time Sat Dec 24 22:46:56 2022


Pair  time (%) = 0.486012 (0.0241662)
Neigh time (%) = 2.17959 (0.108376)
Comm  time (%) = 2.75507 (0.136991)
Outpt time (%) = 0.000226389 (1.12569e-05)
Other time (%) = 2005.7 (99.7305)

Nlocal:    33.275 ave 512 max 0 min
Histogram: 36 0 1 1 0 0 0 0 0 2
Nghost:    12.925 ave 161 max 0 min
Histogram: 36 0 0 0 0 1 1 0 0 2
Neighs:    12.575 ave 203 max 0 min
Histogram: 36 0 2 0 0 0 0 0 0 2

Total # of neighbors = 503
Ave neighs/atom = 0.377911
Neighbor list builds = 2719
Dangerous builds = 0
Setting up run at Sat Dec 24 22:46:56 2022

Memory usage per processor = 960.195 Mbytes
    Step    Atoms         KinEng            CPU 
  823046     1331    0.035912214              0 
 1028807     1331    0.014438004      1983.0586 
Loop time of 1983.06 on 40 procs for 205761 steps with 1331 atoms, finish time Sat Dec 24 23:19:59 2022


Pair  time (%) = 0.489374 (0.0246777)
Neigh time (%) = 3.38994 (0.170945)
Comm  time (%) = 3.42534 (0.17273)
Outpt time (%) = 0.000492082 (2.48143e-05)
Other time (%) = 1975.75 (99.6316)

Nlocal:    33.275 ave 498 max 0 min
Histogram: 36 0 1 1 0 0 0 0 0 2
Nghost:    12.25 ave 159 max 0 min
Histogram: 36 0 0 0 0 1 1 0 0 2
Neighs:    12.7 ave 194 max 0 min
Histogram: 36 0 1 1 0 0 0 0 0 2

Total # of neighbors = 508
Ave neighs/atom = 0.381668
Neighbor list builds = 4213
Dangerous builds = 0
Setting up run at Sat Dec 24 23:20:00 2022

Memory usage per processor = 960.195 Mbytes
    Step    Atoms         KinEng            CPU 
 1028807     1331    0.014438004              0 
 1234568     1328    0.014727776      2007.0631 
Loop time of 2007.06 on 40 procs for 205761 steps with 1328 atoms, finish time Sat Dec 24 23:53:27 2022


Pair  time (%) = 0.496403 (0.0247328)
Neigh time (%) = 5.14748 (0.256468)
Comm  time (%) = 4.72689 (0.235513)
Outpt time (%) = 0.00023728 (1.18222e-05)
Other time (%) = 1996.69 (99.4833)

Nlocal:    33.2 ave 496 max 0 min
Histogram: 36 0 1 1 0 0 0 0 0 2
Nghost:    11.675 ave 155 max 0 min
Histogram: 36 0 0 0 0 2 0 0 1 1
Neighs:    11.9 ave 183 max 0 min
Histogram: 36 0 1 1 0 0 0 0 0 2

Total # of neighbors = 476
Ave neighs/atom = 0.358434
Neighbor list builds = 6376
Dangerous builds = 413
Setting up run at Sat Dec 24 23:53:27 2022

Memory usage per processor = 960.195 Mbytes
    Step    Atoms         KinEng            CPU 
 1234568     1328    0.014727776              0 
 1440329     1326     0.12427517      2018.7183 
Loop time of 2018.72 on 40 procs for 205761 steps with 1326 atoms, finish time Sun Dec 25 00:27:05 2022


Pair  time (%) = 0.499471 (0.024742)
Neigh time (%) = 7.06664 (0.350056)
Comm  time (%) = 6.33128 (0.313629)
Outpt time (%) = 0.000485922 (2.40708e-05)
Other time (%) = 2004.82 (99.3115)

Nlocal:    33.15 ave 490 max 0 min
Histogram: 36 0 1 1 0 0 0 0 0 2
Nghost:    11 ave 140 max 0 min
Histogram: 36 0 0 0 0 1 1 0 0 2
Neighs:    11.925 ave 180 max 0 min
Histogram: 36 0 0 1 1 0 0 0 0 2

Total # of neighbors = 477
Ave neighs/atom = 0.359729
Neighbor list builds = 8719
Dangerous builds = 197
Setting up run at Sun Dec 25 00:27:05 2022

Memory usage per processor = 960.195 Mbytes
    Step    Atoms         KinEng            CPU 
 1440329     1326     0.12427517              0 
 1646090     1325     0.08464328      2012.9872 
Loop time of 2012.99 on 40 procs for 205761 steps with 1325 atoms, finish time Sun Dec 25 01:00:38 2022


Pair  time (%) = 0.495684 (0.0246243)
Neigh time (%) = 6.42266 (0.319061)
Comm  time (%) = 5.74373 (0.285334)
Outpt time (%) = 0.000280405 (1.39298e-05)
Other time (%) = 2000.33 (99.371)

Nlocal:    33.125 ave 487 max 0 min
Histogram: 36 0 1 1 0 0 0 0 0 2
Nghost:    10.65 ave 135 max 0 min
Histogram: 36 0 0 0 0 2 0 0 0 2
Neighs:    11.7 ave 178 max 0 min
Histogram: 36 0 0 2 0 0 0 0 0 2

Total # of neighbors = 468
Ave neighs/atom = 0.353208
Neighbor list builds = 7899
Dangerous builds = 152
Setting up run at Sun Dec 25 01:00:38 2022

Memory usage per processor = 960.195 Mbytes
    Step    Atoms         KinEng            CPU 
 1646090     1325     0.08464328              0 
 1851851     1323    0.059538595      1998.3603 
Loop time of 1998.36 on 40 procs for 205761 steps with 1323 atoms, finish time Sun Dec 25 01:33:57 2022


Pair  time (%) = 0.489685 (0.0245043)
Neigh time (%) = 4.91099 (0.245751)
Comm  time (%) = 4.97718 (0.249063)
Outpt time (%) = 0.00052747 (2.63952e-05)
Other time (%) = 1987.98 (99.4807)

Nlocal:    33.075 ave 485 max 0 min
Histogram: 36 0 1 1 0 0 0 0 0 2
Nghost:    10.45 ave 140 max 0 min
Histogram: 36 0 0 0 0 2 0 0 1 1
Neighs:    11.65 ave 178 max 0 min
Histogram: 36 0 0 2 0 0 0 0 0 2

Total # of neighbors = 466
Ave neighs/atom = 0.35223
Neighbor list builds = 6049
Dangerous builds = 10
Setting up run at Sun Dec 25 01:33:57 2022

Memory usage per processor = 960.195 Mbytes
    Step    Atoms         KinEng            CPU 
 1851851     1323    0.059538595              0 
 2057612     1321       0.401913      2020.3642 
Loop time of 2020.36 on 40 procs for 205761 steps with 1321 atoms, finish time Sun Dec 25 02:07:37 2022


Pair  time (%) = 0.491364 (0.0243206)
Neigh time (%) = 6.59749 (0.326549)
Comm  time (%) = 7.88829 (0.390439)
Outpt time (%) = 0.000259566 (1.28475e-05)
Other time (%) = 2005.39 (99.2587)

Nlocal:    33.025 ave 480 max 0 min
Histogram: 36 0 2 0 0 0 0 0 0 2
Nghost:    10.35 ave 135 max 0 min
Histogram: 36 0 0 0 0 1 1 0 1 1
Neighs:    11.275 ave 176 max 0 min
Histogram: 36 0 0 2 0 0 0 0 0 2

Total # of neighbors = 451
Ave neighs/atom = 0.341408
Neighbor list builds = 8147
Dangerous builds = 1
Setting up run at Sun Dec 25 02:07:37 2022

Memory usage per processor = 960.195 Mbytes
    Step    Atoms         KinEng            CPU 
 2057612     1321       0.401913              0 
 2263373     1318    0.097329533      1989.1632 
Loop time of 1989.16 on 40 procs for 205761 steps with 1318 atoms, finish time Sun Dec 25 02:40:47 2022


Pair  time (%) = 0.484745 (0.0243693)
Neigh time (%) = 3.98303 (0.200237)
Comm  time (%) = 5.49321 (0.276157)
Outpt time (%) = 0.000509384 (2.5608e-05)
Other time (%) = 1979.2 (99.4992)

Nlocal:    32.95 ave 477 max 0 min
Histogram: 36 0 2 0 0 0 0 0 0 2
Nghost:    10.125 ave 127 max 0 min
Histogram: 36 0 0 0 0 1 1 0 0 2
Neighs:    10.675 ave 170 max 0 min
Histogram: 36 0 1 1 0 0 0 0 0 2

Total # of neighbors = 427
Ave neighs/atom = 0.323976
Neighbor list builds = 4950
Dangerous builds = 705
Setting up run at Sun Dec 25 02:40:47 2022

Memory usage per processor = 960.195 Mbytes
    Step    Atoms         KinEng            CPU 
 2263373     1318    0.097329533              0 
 2469134     1314    0.074964495       2042.875 
Loop time of 2042.88 on 40 procs for 205761 steps with 1314 atoms, finish time Sun Dec 25 03:14:50 2022


Pair  time (%) = 0.479326 (0.0234633)
Neigh time (%) = 4.9025 (0.239981)
Comm  time (%) = 7.47068 (0.365694)
Outpt time (%) = 0.000251547 (1.23134e-05)
Other time (%) = 2030.02 (99.3708)

Nlocal:    32.85 ave 480 max 0 min
Histogram: 36 0 2 0 0 0 0 0 0 2
Nghost:    9.45 ave 123 max 0 min
Histogram: 36 0 0 0 0 1 1 0 1 1
Neighs:    10.875 ave 174 max 0 min
Histogram: 36 0 2 0 0 0 0 0 0 2

Total # of neighbors = 435
Ave neighs/atom = 0.33105
Neighbor list builds = 6071
Dangerous builds = 201
Setting up run at Sun Dec 25 03:14:50 2022

Memory usage per processor = 960.195 Mbytes
    Step    Atoms         KinEng            CPU 
 2469134     1314    0.074964495              0 
 2674895     1306      1.4816186      2029.6386 
Loop time of 2029.64 on 40 procs for 205761 steps with 1306 atoms, finish time Sun Dec 25 03:48:39 2022


Pair  time (%) = 0.485305 (0.0239109)
Neigh time (%) = 8.5213 (0.419843)
Comm  time (%) = 11.2677 (0.555156)
Outpt time (%) = 0.000573575 (2.82599e-05)
Other time (%) = 2009.36 (99.0011)

Nlocal:    32.65 ave 478 max 0 min
Histogram: 36 0 1 1 0 0 0 0 0 2
Nghost:    9.6 ave 119 max 0 min
Histogram: 36 0 0 0 0 0 2 0 1 1
Neighs:    10.475 ave 176 max 0 min
Histogram: 36 1 1 0 0 0 0 0 0 2

Total # of neighbors = 419
Ave neighs/atom = 0.320827
Neighbor list builds = 10524
Dangerous builds = 1091
Setting up run at Sun Dec 25 03:48:39 2022

Memory usage per processor = 960.195 Mbytes
    Step    Atoms         KinEng            CPU 
 2674895     1306      1.4816186              0 
 2880656     1298    0.099313701      2027.1379 
Loop time of 2027.14 on 40 procs for 205761 steps with 1298 atoms, finish time Sun Dec 25 04:22:26 2022


Pair  time (%) = 0.489584 (0.0241515)
Neigh time (%) = 7.89019 (0.389228)
Comm  time (%) = 10.4586 (0.515927)
Outpt time (%) = 0.000266821 (1.31624e-05)
Other time (%) = 2008.3 (99.0707)

Nlocal:    32.45 ave 473 max 0 min
Histogram: 36 0 2 0 0 0 0 0 0 2
Nghost:    9.525 ave 115 max 0 min
Histogram: 36 0 0 0 0 0 1 1 1 1
Neighs:    10.25 ave 162 max 0 min
Histogram: 36 1 1 0 0 0 0 0 0 2

Total # of neighbors = 410
Ave neighs/atom = 0.315871
Neighbor list builds = 9715
Dangerous builds = 484
Setting up run at Sun Dec 25 04:22:27 2022

Memory usage per processor = 960.195 Mbytes
    Step    Atoms         KinEng            CPU 
 2880656     1298    0.099313701              0 
 3086417     1292    0.084505289        2022.69 
Loop time of 2022.69 on 40 procs for 205761 steps with 1292 atoms, finish time Sun Dec 25 04:56:09 2022


Pair  time (%) = 0.482718 (0.0238652)
Neigh time (%) = 7.62272 (0.37686)
Comm  time (%) = 11.7784 (0.582315)
Outpt time (%) = 0.00900655 (0.000445276)
Other time (%) = 2002.8 (99.0165)

Nlocal:    32.3 ave 472 max 0 min
Histogram: 36 0 2 0 0 0 0 0 0 2
Nghost:    9.75 ave 119 max 0 min
Histogram: 36 0 0 0 0 0 2 0 1 1
Neighs:    9.8 ave 166 max 0 min
Histogram: 36 1 1 0 0 0 0 0 0 2

Total # of neighbors = 392
Ave neighs/atom = 0.303406
Neighbor list builds = 9402
Dangerous builds = 651
Setting up run at Sun Dec 25 04:56:09 2022

Memory usage per processor = 960.195 Mbytes
    Step    Atoms         KinEng            CPU 
 3086417     1292    0.084505289              0 
 3292178     1286    0.087628475      2022.7764 
Loop time of 2022.79 on 40 procs for 205761 steps with 1286 atoms, finish time Sun Dec 25 05:29:52 2022


Pair  time (%) = 0.478656 (0.0236631)
Neigh time (%) = 7.68539 (0.37994)
Comm  time (%) = 13.2173 (0.653418)
Outpt time (%) = 0.000360804 (1.7837e-05)
Other time (%) = 2001.41 (98.943)

Nlocal:    32.15 ave 471 max 0 min
Histogram: 36 0 2 0 0 0 0 0 0 2
Nghost:    9.275 ave 115 max 0 min
Histogram: 36 0 0 0 0 0 2 1 0 1
Neighs:    9.925 ave 174 max 0 min
Histogram: 37 0 1 0 0 0 0 0 0 2

Total # of neighbors = 397
Ave neighs/atom = 0.308709
Neighbor list builds = 9486
Dangerous builds = 1424
Setting up run at Sun Dec 25 05:29:52 2022

Memory usage per processor = 960.195 Mbytes
    Step    Atoms         KinEng            CPU 
 3292178     1286    0.087628475              0 
 3497939     1281     0.22283215       2029.128 
Loop time of 2029.13 on 40 procs for 205761 steps with 1281 atoms, finish time Sun Dec 25 06:03:41 2022


Pair  time (%) = 0.478064 (0.0235601)
Neigh time (%) = 9.0648 (0.446734)
Comm  time (%) = 14.1947 (0.699547)
Outpt time (%) = 0.000486814 (2.39913e-05)
Other time (%) = 2005.39 (98.8301)

Nlocal:    32.025 ave 468 max 0 min
Histogram: 36 0 2 0 0 0 0 0 0 2
Nghost:    9.05 ave 109 max 0 min
Histogram: 36 0 0 0 0 0 2 0 1 1
Neighs:    9.325 ave 175 max 0 min
Histogram: 37 1 0 0 0 0 0 0 1 1

Total # of neighbors = 373
Ave neighs/atom = 0.291179
Neighbor list builds = 11125
Dangerous builds = 3
Setting up run at Sun Dec 25 06:03:42 2022

Memory usage per processor = 960.195 Mbytes
    Step    Atoms         KinEng            CPU 
 3497939     1281     0.22283215              0 
 3703700     1272     0.14699455      2253.9357 
Loop time of 2253.94 on 40 procs for 205761 steps with 1272 atoms, finish time Sun Dec 25 06:41:16 2022


Pair  time (%) = 0.477562 (0.0211879)
Neigh time (%) = 8.75039 (0.388227)
Comm  time (%) = 12.9358 (0.573919)
Outpt time (%) = 8.46017e-05 (3.75351e-06)
Other time (%) = 2231.77 (99.0167)

Nlocal:    31.8 ave 462 max 0 min
Histogram: 36 0 2 0 0 0 0 0 0 2
Nghost:    8.4 ave 111 max 0 min
Histogram: 36 0 0 0 0 1 1 1 0 1
Neighs:    9.675 ave 174 max 0 min
Histogram: 36 1 1 0 0 0 0 0 1 1

Total # of neighbors = 387
Ave neighs/atom = 0.304245
Neighbor list builds = 10758
Dangerous builds = 687
Setting up run at Sun Dec 25 06:41:16 2022

Memory usage per processor = 960.195 Mbytes
    Step    Atoms         KinEng            CPU 
 3703700     1272     0.14699455              0 
 3909461     1263      2.4831717       2036.066 
Loop time of 2036.07 on 40 procs for 205761 steps with 1263 atoms, finish time Sun Dec 25 07:15:12 2022


Pair  time (%) = 0.472142 (0.0231889)
Neigh time (%) = 9.66557 (0.474718)
Comm  time (%) = 15.0877 (0.741023)
Outpt time (%) = 0.000535271 (2.62895e-05)
Other time (%) = 2010.84 (98.761)

Nlocal:    31.575 ave 461 max 0 min
Histogram: 36 0 2 0 0 0 0 0 0 2
Nghost:    8.475 ave 105 max 0 min
Histogram: 36 0 0 0 0 0 2 1 0 1
Neighs:    9.425 ave 162 max 0 min
Histogram: 36 2 0 0 0 0 0 0 0 2

Total # of neighbors = 377
Ave neighs/atom = 0.298496
Neighbor list builds = 11820
Dangerous builds = 53
Setting up run at Sun Dec 25 07:15:12 2022

Memory usage per processor = 960.195 Mbytes
    Step    Atoms         KinEng            CPU 
 3909461     1263      2.4831717              0 
 4115222     1259     0.27249646      2023.9836 
Loop time of 2023.98 on 40 procs for 205761 steps with 1259 atoms, finish time Sun Dec 25 07:48:56 2022


Pair  time (%) = 0.473892 (0.0234138)
Neigh time (%) = 8.39546 (0.414799)
Comm  time (%) = 11.9958 (0.592683)
Outpt time (%) = 0.000303277 (1.49842e-05)
Other time (%) = 2003.12 (98.9691)

Nlocal:    31.475 ave 456 max 0 min
Histogram: 36 0 2 0 0 0 0 0 0 2
Nghost:    8.65 ave 106 max 0 min
Histogram: 36 0 0 0 0 0 1 2 0 1
Neighs:    8.7 ave 163 max 0 min
Histogram: 36 2 0 0 0 0 0 0 1 1

Total # of neighbors = 348
Ave neighs/atom = 0.27641
Neighbor list builds = 10271
Dangerous builds = 7
Setting up run at Sun Dec 25 07:48:56 2022

Memory usage per processor = 960.195 Mbytes
    Step    Atoms         KinEng            CPU 
 4115222     1259     0.27249646              0 
 4320983     1250      0.2207014       2016.561 
Loop time of 2016.56 on 40 procs for 205761 steps with 1250 atoms, finish time Sun Dec 25 08:22:32 2022


Pair  time (%) = 0.467514 (0.0231837)
Neigh time (%) = 7.70775 (0.382222)
Comm  time (%) = 11.3368 (0.562185)
Outpt time (%) = 0.000571172 (2.83241e-05)
Other time (%) = 1997.05 (99.0324)

Nlocal:    31.25 ave 451 max 0 min
Histogram: 36 0 2 0 0 0 0 0 0 2
Nghost:    8.3 ave 99 max 0 min
Histogram: 36 0 0 0 0 0 1 1 1 1
Neighs:    8.2 ave 149 max 0 min
Histogram: 36 2 0 0 0 0 0 0 0 2

Total # of neighbors = 328
Ave neighs/atom = 0.2624
Neighbor list builds = 9451
Dangerous builds = 563
Setting up run at Sun Dec 25 08:22:32 2022

Memory usage per processor = 960.195 Mbytes
    Step    Atoms         KinEng            CPU 
 4320983     1250      0.2207014              0 
 4526744     1246     0.60417496      2019.5402 
Loop time of 2019.54 on 40 procs for 205761 steps with 1246 atoms, finish time Sun Dec 25 08:56:12 2022


Pair  time (%) = 0.46019 (0.0227869)
Neigh time (%) = 7.47116 (0.369943)
Comm  time (%) = 13.986 (0.692536)
Outpt time (%) = 0.000263438 (1.30444e-05)
Other time (%) = 1997.62 (98.9147)

Nlocal:    31.15 ave 447 max 0 min
Histogram: 36 0 2 0 0 0 0 0 0 2
Nghost:    8.325 ave 98 max 0 min
Histogram: 36 0 0 0 0 0 1 1 1 1
Neighs:    7.825 ave 139 max 0 min
Histogram: 36 2 0 0 0 0 0 0 0 2

Total # of neighbors = 313
Ave neighs/atom = 0.251204
Neighbor list builds = 9153
Dangerous builds = 660
Setting up run at Sun Dec 25 08:56:12 2022

Memory usage per processor = 960.195 Mbytes
    Step    Atoms         KinEng            CPU 
 4526744     1246     0.60417496              0 
 4732505     1239     0.27288275       2057.319 
Loop time of 2057.32 on 40 procs for 205761 steps with 1239 atoms, finish time Sun Dec 25 09:30:29 2022


Pair  time (%) = 0.465323 (0.0226179)
Neigh time (%) = 11.904 (0.578619)
Comm  time (%) = 18.3481 (0.891845)
Outpt time (%) = 0.000533121 (2.59134e-05)
Other time (%) = 2026.6 (98.5069)

Nlocal:    30.975 ave 447 max 0 min
Histogram: 36 0 2 0 0 0 0 0 0 2
Nghost:    8.05 ave 97 max 0 min
Histogram: 36 0 0 0 0 0 1 1 1 1
Neighs:    7.025 ave 124 max 0 min
Histogram: 37 1 0 0 0 0 0 0 0 2

Total # of neighbors = 281
Ave neighs/atom = 0.226796
Neighbor list builds = 14610
Dangerous builds = 146
Setting up run at Sun Dec 25 09:30:29 2022

Memory usage per processor = 960.195 Mbytes
    Step    Atoms         KinEng            CPU 
 4732505     1239     0.27288275              0 
 4938266     1229     0.46916048      2043.8027 
Loop time of 2043.82 on 40 procs for 205761 steps with 1229 atoms, finish time Sun Dec 25 10:04:33 2022


Pair  time (%) = 0.463879 (0.0226967)
Neigh time (%) = 9.97302 (0.48796)
Comm  time (%) = 13.5993 (0.665387)
Outpt time (%) = 0.00391077 (0.000191346)
Other time (%) = 2019.78 (98.8238)

Nlocal:    30.725 ave 441 max 0 min
Histogram: 36 0 2 0 0 0 0 0 0 2
Nghost:    8 ave 97 max 0 min
Histogram: 36 0 0 0 0 0 1 1 1 1
Neighs:    6.775 ave 124 max 0 min
Histogram: 37 1 0 0 0 0 0 0 0 2

Total # of neighbors = 271
Ave neighs/atom = 0.220504
Neighbor list builds = 12219
Dangerous builds = 149
Setting up run at Sun Dec 25 10:04:33 2022

Memory usage per processor = 960.195 Mbytes
    Step    Atoms         KinEng            CPU 
 4938266     1229     0.46916048              0 
 5144027     1223     0.38018601       2072.696 
Loop time of 2072.7 on 40 procs for 205761 steps with 1223 atoms, finish time Sun Dec 25 10:39:06 2022


Pair  time (%) = 0.472099 (0.0227771)
Neigh time (%) = 13.0042 (0.627407)
Comm  time (%) = 17.497 (0.844165)
Outpt time (%) = 0.000483708 (2.33372e-05)
Other time (%) = 2041.72 (98.5056)

Nlocal:    30.575 ave 440 max 0 min
Histogram: 36 0 2 0 0 0 0 0 0 2
Nghost:    7.85 ave 92 max 0 min
Histogram: 36 0 0 0 0 0 1 1 0 2
Neighs:    6.7 ave 132 max 0 min
Histogram: 37 1 0 0 0 0 0 0 1 1

Total # of neighbors = 268
Ave neighs/atom = 0.219133
Neighbor list builds = 15923
Dangerous builds = 581
Setting up run at Sun Dec 25 10:39:06 2022

Memory usage per processor = 960.195 Mbytes
    Step    Atoms         KinEng            CPU 
 5144027     1223     0.38018601              0 
 5349788     1217     0.39566106      2031.1195 
Loop time of 2031.12 on 40 procs for 205761 steps with 1217 atoms, finish time Sun Dec 25 11:12:57 2022


Pair  time (%) = 0.457049 (0.0225023)
Neigh time (%) = 9.16444 (0.451201)
Comm  time (%) = 15.5361 (0.764903)
Outpt time (%) = 0.000510673 (2.51424e-05)
Other time (%) = 2005.96 (98.7614)

Nlocal:    30.425 ave 438 max 0 min
Histogram: 36 0 2 0 0 0 0 0 0 2
Nghost:    7.825 ave 88 max 0 min
Histogram: 36 0 0 0 0 0 1 1 0 2
Neighs:    6.075 ave 125 max 0 min
Histogram: 37 1 0 0 0 0 0 1 0 1

Total # of neighbors = 243
Ave neighs/atom = 0.199671
Neighbor list builds = 11216
Dangerous builds = 157
Setting up run at Sun Dec 25 11:12:57 2022

Memory usage per processor = 960.195 Mbytes
    Step    Atoms         KinEng            CPU 
 5349788     1217     0.39566106              0 
 5555549     1213     0.57683113      2031.5274 
Loop time of 2031.53 on 40 procs for 205761 steps with 1213 atoms, finish time Sun Dec 25 11:46:49 2022


Pair  time (%) = 0.456168 (0.0224544)
Neigh time (%) = 9.57703 (0.47142)
Comm  time (%) = 15.4497 (0.760499)
Outpt time (%) = 0.000226203 (1.11346e-05)
Other time (%) = 2006.04 (98.7456)

Nlocal:    30.325 ave 429 max 0 min
Histogram: 35 1 2 0 0 0 0 0 0 2
Nghost:    7.975 ave 93 max 0 min
Histogram: 36 0 0 0 0 0 1 1 0 2
Neighs:    6.4 ave 118 max 0 min
Histogram: 36 2 0 0 0 0 0 0 1 1

Total # of neighbors = 256
Ave neighs/atom = 0.211047
Neighbor list builds = 11702
Dangerous builds = 336
Setting up run at Sun Dec 25 11:46:49 2022

Memory usage per processor = 960.195 Mbytes
    Step    Atoms         KinEng            CPU 
 5555549     1213     0.57683113              0 
 5761310     1205     0.40567365      2063.8135 
Loop time of 2063.81 on 40 procs for 205761 steps with 1205 atoms, finish time Sun Dec 25 12:21:13 2022


Pair  time (%) = 0.469466 (0.0227475)
Neigh time (%) = 12.5581 (0.608491)
Comm  time (%) = 17.4426 (0.845162)
Outpt time (%) = 0.00050329 (2.43864e-05)
Other time (%) = 2033.34 (98.5236)

Nlocal:    30.125 ave 437 max 0 min
Histogram: 36 0 2 0 0 0 0 0 0 2
Nghost:    7.4 ave 87 max 0 min
Histogram: 36 0 0 0 0 0 2 0 0 2
Neighs:    6.525 ave 122 max 0 min
Histogram: 36 2 0 0 0 0 0 1 0 1

Total # of neighbors = 261
Ave neighs/atom = 0.216598
Neighbor list builds = 15446
Dangerous builds = 2560
Setting up run at Sun Dec 25 12:21:13 2022

Memory usage per processor = 960.195 Mbytes
    Step    Atoms         KinEng            CPU 
 5761310     1205     0.40567365              0 
 5967071     1199     0.36208709      2034.0102 
Loop time of 2034.01 on 40 procs for 205761 steps with 1199 atoms, finish time Sun Dec 25 12:55:07 2022


Pair  time (%) = 0.459023 (0.0225674)
Neigh time (%) = 9.96981 (0.490155)
Comm  time (%) = 13.8449 (0.68067)
Outpt time (%) = 0.000213674 (1.05051e-05)
Other time (%) = 2009.74 (98.8066)

Nlocal:    29.975 ave 432 max 0 min
Histogram: 36 0 2 0 0 0 0 0 0 2
Nghost:    7.55 ave 94 max 0 min
Histogram: 36 0 0 0 0 1 1 0 0 2
Neighs:    6.725 ave 127 max 0 min
Histogram: 36 2 0 0 0 0 0 1 0 1

Total # of neighbors = 269
Ave neighs/atom = 0.224354
Neighbor list builds = 12178
Dangerous builds = 843
Setting up run at Sun Dec 25 12:55:07 2022

Memory usage per processor = 960.195 Mbytes
    Step    Atoms         KinEng            CPU 
 5967071     1199     0.36208709              0 
 6172832     1186     0.37734482      2056.3015 
Loop time of 2056.3 on 40 procs for 205761 steps with 1186 atoms, finish time Sun Dec 25 13:29:23 2022


Pair  time (%) = 0.462775 (0.0225052)
Neigh time (%) = 11.4835 (0.558456)
Comm  time (%) = 15.9801 (0.777127)
Outpt time (%) = 0.000556195 (2.70483e-05)
Other time (%) = 2028.37 (98.6419)

Nlocal:    29.65 ave 430 max 0 min
Histogram: 36 0 2 0 0 0 0 0 0 2
Nghost:    7.575 ave 89 max 0 min
Histogram: 36 0 0 0 0 0 2 0 0 2
Neighs:    6.9 ave 128 max 0 min
Histogram: 36 2 0 0 0 0 0 1 0 1

Total # of neighbors = 276
Ave neighs/atom = 0.232715
Neighbor list builds = 14068
Dangerous builds = 1078
Setting up run at Sun Dec 25 13:29:23 2022

Memory usage per processor = 960.195 Mbytes
    Step    Atoms         KinEng            CPU 
 6172832     1186     0.37734482              0 
 6378593     1176     0.39622396      2050.0329 
Loop time of 2050.03 on 40 procs for 205761 steps with 1176 atoms, finish time Sun Dec 25 14:03:33 2022


Pair  time (%) = 0.459053 (0.0223925)
Neigh time (%) = 11.3743 (0.554834)
Comm  time (%) = 17.5434 (0.855762)
Outpt time (%) = 0.000277956 (1.35586e-05)
Other time (%) = 2020.66 (98.567)

Nlocal:    29.4 ave 430 max 0 min
Histogram: 35 1 2 0 0 0 0 0 0 2
Nghost:    7.875 ave 91 max 0 min
Histogram: 36 0 0 0 0 0 2 0 0 2
Neighs:    6.7 ave 122 max 0 min
Histogram: 36 1 1 0 0 0 0 1 0 1

Total # of neighbors = 268
Ave neighs/atom = 0.227891
Neighbor list builds = 13932
Dangerous builds = 577
Setting up run at Sun Dec 25 14:03:34 2022

Memory usage per processor = 960.195 Mbytes
    Step    Atoms         KinEng            CPU 
 6378593     1176     0.39622396              0 
 6584354     1171     0.38939188       2014.772 
Loop time of 2014.77 on 40 procs for 205761 steps with 1171 atoms, finish time Sun Dec 25 14:37:08 2022


Pair  time (%) = 0.44726 (0.022199)
Neigh time (%) = 7.19017 (0.356873)
Comm  time (%) = 11.2055 (0.556168)
Outpt time (%) = 0.000491586 (2.43991e-05)
Other time (%) = 1995.93 (99.0647)

Nlocal:    29.275 ave 432 max 0 min
Histogram: 36 0 2 0 0 0 0 0 0 2
Nghost:    7.6 ave 96 max 0 min
Histogram: 36 0 0 0 0 1 1 0 1 1
Neighs:    6.3 ave 114 max 0 min
Histogram: 36 2 0 0 0 0 0 0 1 1

Total # of neighbors = 252
Ave neighs/atom = 0.215201
Neighbor list builds = 8818
Dangerous builds = 1143
Setting up run at Sun Dec 25 14:37:08 2022

Memory usage per processor = 960.195 Mbytes
    Step    Atoms         KinEng            CPU 
 6584354     1171     0.38939188              0 
 6790115     1163     0.36244065      2014.4605 
Loop time of 2014.46 on 40 procs for 205761 steps with 1163 atoms, finish time Sun Dec 25 15:10:43 2022


Pair  time (%) = 0.446384 (0.022159)
Neigh time (%) = 7.14956 (0.354912)
Comm  time (%) = 12.6012 (0.625535)
Outpt time (%) = 0.004021 (0.000199607)
Other time (%) = 1994.26 (98.9972)

Nlocal:    29.075 ave 432 max 0 min
Histogram: 35 1 2 0 0 0 0 0 1 1
Nghost:    7.575 ave 94 max 0 min
Histogram: 36 0 0 0 0 1 0 2 0 1
Neighs:    6.625 ave 118 max 0 min
Histogram: 36 1 1 0 0 0 0 0 1 1

Total # of neighbors = 265
Ave neighs/atom = 0.227859
Neighbor list builds = 8766
Dangerous builds = 702
Setting up run at Sun Dec 25 15:10:43 2022

Memory usage per processor = 960.195 Mbytes
    Step    Atoms         KinEng            CPU 
 6790115     1163     0.36244065              0 
 6995876     1157     0.50675421      2153.5027 
Loop time of 2153.5 on 40 procs for 205761 steps with 1157 atoms, finish time Sun Dec 25 15:46:36 2022


Pair  time (%) = 0.456694 (0.021207)
Neigh time (%) = 11.7678 (0.546449)
Comm  time (%) = 22.6046 (1.04967)
Outpt time (%) = 0.000509811 (2.36736e-05)
Other time (%) = 2118.67 (98.3827)

Nlocal:    28.925 ave 426 max 0 min
Histogram: 35 1 2 0 0 0 0 0 0 2
Nghost:    7.275 ave 85 max 0 min
Histogram: 36 0 0 0 0 1 0 1 1 1
Neighs:    6.7 ave 123 max 0 min
Histogram: 36 1 1 0 0 0 0 1 0 1

Total # of neighbors = 268
Ave neighs/atom = 0.231634
Neighbor list builds = 14381
Dangerous builds = 378
Setting up run at Sun Dec 25 15:46:37 2022

Memory usage per processor = 960.195 Mbytes
    Step    Atoms         KinEng            CPU 
 6995876     1157     0.50675421              0 
 7201637     1151     0.51641021      2057.0269 
Loop time of 2057.03 on 40 procs for 205761 steps with 1151 atoms, finish time Sun Dec 25 16:20:54 2022


Pair  time (%) = 0.455327 (0.0221352)
Neigh time (%) = 11.4204 (0.555188)
Comm  time (%) = 19.0497 (0.926077)
Outpt time (%) = 0.00407546 (0.000198124)
Other time (%) = 2026.1 (98.4964)

Nlocal:    28.775 ave 417 max 0 min
Histogram: 35 1 2 0 0 0 0 0 1 1
Nghost:    7.125 ave 89 max 0 min
Histogram: 36 0 0 0 0 1 1 0 1 1
Neighs:    6.65 ave 117 max 0 min
Histogram: 36 1 1 0 0 0 0 0 1 1

Total # of neighbors = 266
Ave neighs/atom = 0.231103
Neighbor list builds = 13951
Dangerous builds = 296
Setting up run at Sun Dec 25 16:20:54 2022

Memory usage per processor = 960.195 Mbytes
    Step    Atoms         KinEng            CPU 
 7201637     1151     0.51641021              0 
 7407398     1145     0.45262249      2092.9184 
Loop time of 2092.92 on 40 procs for 205761 steps with 1145 atoms, finish time Sun Dec 25 16:55:47 2022


Pair  time (%) = 0.456071 (0.0217912)
Neigh time (%) = 13.7508 (0.657017)
Comm  time (%) = 28.1167 (1.34342)
Outpt time (%) = 0.000513938 (2.4556e-05)
Other time (%) = 2050.59 (97.9777)

Nlocal:    28.625 ave 419 max 0 min
Histogram: 35 1 2 0 0 0 0 0 1 1
Nghost:    7.225 ave 91 max 0 min
Histogram: 36 0 0 0 1 0 1 0 1 1
Neighs:    6.2 ave 111 max 0 min
Histogram: 36 1 1 0 0 0 0 0 1 1

Total # of neighbors = 248
Ave neighs/atom = 0.216594
Neighbor list builds = 16999
Dangerous builds = 2465
Setting up run at Sun Dec 25 16:55:47 2022

Memory usage per processor = 960.195 Mbytes
    Step    Atoms         KinEng            CPU 
 7407398     1145     0.45262249              0 
 7613159     1137     0.49360401      2058.4499 
Loop time of 2058.45 on 40 procs for 205761 steps with 1137 atoms, finish time Sun Dec 25 17:30:05 2022


Pair  time (%) = 0.448701 (0.021798)
Neigh time (%) = 10.6775 (0.518717)
Comm  time (%) = 20.191 (0.980882)
Outpt time (%) = 0.000293624 (1.42643e-05)
Other time (%) = 2027.13 (98.4786)

Nlocal:    28.425 ave 418 max 0 min
Histogram: 36 0 1 1 0 0 0 0 1 1
Nghost:    7.15 ave 89 max 0 min
Histogram: 36 0 0 0 0 2 0 0 1 1
Neighs:    5.875 ave 110 max 0 min
Histogram: 36 1 1 0 0 0 0 1 0 1

Total # of neighbors = 235
Ave neighs/atom = 0.206684
Neighbor list builds = 13050
Dangerous builds = 192
Setting up run at Sun Dec 25 17:30:05 2022

Memory usage per processor = 960.195 Mbytes
    Step    Atoms         KinEng            CPU 
 7613159     1137     0.49360401              0 
 7818920     1129     0.66686008      2119.0908 
Loop time of 2119.09 on 40 procs for 205761 steps with 1129 atoms, finish time Sun Dec 25 18:05:24 2022


Pair  time (%) = 0.448841 (0.0211808)
Neigh time (%) = 9.99673 (0.471746)
Comm  time (%) = 16.5301 (0.780057)
Outpt time (%) = 0.000511999 (2.41613e-05)
Other time (%) = 2092.11 (98.727)

Nlocal:    28.225 ave 415 max 0 min
Histogram: 35 1 2 0 0 0 0 0 1 1
Nghost:    6.875 ave 84 max 0 min
Histogram: 36 0 0 0 0 2 0 0 0 2
Neighs:    5.9 ave 118 max 0 min
Histogram: 36 1 1 0 0 0 1 0 0 1

Total # of neighbors = 236
Ave neighs/atom = 0.209035
Neighbor list builds = 12230
Dangerous builds = 749
Setting up run at Sun Dec 25 18:05:24 2022

Memory usage per processor = 960.195 Mbytes
    Step    Atoms         KinEng            CPU 
 7818920     1129     0.66686008              0 
 8024681     1124     0.69406299      2216.7711 
Loop time of 2216.77 on 40 procs for 205761 steps with 1124 atoms, finish time Sun Dec 25 18:42:21 2022


Pair  time (%) = 0.447855 (0.020203)
Neigh time (%) = 11.9009 (0.53686)
Comm  time (%) = 18.1086 (0.816892)
Outpt time (%) = 0.00025758 (1.16196e-05)
Other time (%) = 2186.31 (98.626)

Nlocal:    28.1 ave 411 max 0 min
Histogram: 36 0 1 1 0 0 0 0 1 1
Nghost:    6.825 ave 86 max 0 min
Histogram: 36 0 0 0 0 2 0 0 0 2
Neighs:    5.775 ave 107 max 0 min
Histogram: 36 1 1 0 0 0 0 1 0 1

Total # of neighbors = 231
Ave neighs/atom = 0.205516
Neighbor list builds = 14547
Dangerous builds = 3
Setting up run at Sun Dec 25 18:42:21 2022

Memory usage per processor = 960.195 Mbytes
    Step    Atoms         KinEng            CPU 
 8024681     1124     0.69406299              0 
 8230442     1116     0.84437708      2067.5149 
Loop time of 2067.51 on 40 procs for 205761 steps with 1116 atoms, finish time Sun Dec 25 19:16:49 2022


Pair  time (%) = 0.445172 (0.0215317)
Neigh time (%) = 10.3261 (0.499443)
Comm  time (%) = 16.4021 (0.793326)
Outpt time (%) = 0.00056785 (2.74653e-05)
Other time (%) = 2040.34 (98.6857)

Nlocal:    27.9 ave 414 max 0 min
Histogram: 35 2 1 0 0 0 0 0 1 1
Nghost:    6.875 ave 87 max 0 min
Histogram: 36 0 0 0 0 2 0 0 1 1
Neighs:    5.525 ave 100 max 0 min
Histogram: 36 0 2 0 0 0 0 1 0 1

Total # of neighbors = 221
Ave neighs/atom = 0.198029
Neighbor list builds = 12664
Dangerous builds = 1093
Setting up run at Sun Dec 25 19:16:49 2022

Memory usage per processor = 960.195 Mbytes
    Step    Atoms         KinEng            CPU 
 8230442     1116     0.84437708              0 
 8436203     1109     0.76588038       2276.099 
Loop time of 2276.1 on 40 procs for 205761 steps with 1109 atoms, finish time Sun Dec 25 19:54:45 2022


Pair  time (%) = 0.442594 (0.0194453)
Neigh time (%) = 10.4618 (0.459637)
Comm  time (%) = 18.0901 (0.794784)
Outpt time (%) = 0.000478877 (2.10394e-05)
Other time (%) = 2247.1 (98.7261)

Nlocal:    27.725 ave 413 max 0 min
Histogram: 35 2 1 0 0 0 0 0 1 1
Nghost:    6.825 ave 83 max 0 min
Histogram: 36 0 0 0 0 1 1 0 1 1
Neighs:    5.35 ave 99 max 0 min
Histogram: 36 1 1 0 0 0 0 1 0 1

Total # of neighbors = 214
Ave neighs/atom = 0.192967
Neighbor list builds = 12800
Dangerous builds = 575
Setting up run at Sun Dec 25 19:54:45 2022

Memory usage per processor = 960.195 Mbytes
    Step    Atoms         KinEng            CPU 
 8436203     1109     0.76588038              0 
 8641964     1103     0.72157739      2211.5999 
Loop time of 2211.6 on 40 procs for 205761 steps with 1103 atoms, finish time Sun Dec 25 20:31:37 2022


Pair  time (%) = 0.447757 (0.0202458)
Neigh time (%) = 13.9541 (0.630951)
Comm  time (%) = 22.4403 (1.01467)
Outpt time (%) = 0.00026399 (1.19366e-05)
Other time (%) = 2174.76 (98.3341)

Nlocal:    27.575 ave 408 max 0 min
Histogram: 35 2 1 0 0 0 0 0 1 1
Nghost:    6.625 ave 83 max 0 min
Histogram: 36 0 0 0 0 1 1 0 1 1
Neighs:    4.475 ave 85 max 0 min
Histogram: 36 1 1 0 0 0 1 0 0 1

Total # of neighbors = 179
Ave neighs/atom = 0.162285
Neighbor list builds = 17125
Dangerous builds = 2
Setting up run at Sun Dec 25 20:31:37 2022

Memory usage per processor = 960.195 Mbytes
    Step    Atoms         KinEng            CPU 
 8641964     1103     0.72157739              0 
 8847725     1091     0.69602262      2064.7537 
Loop time of 2064.75 on 40 procs for 205761 steps with 1091 atoms, finish time Sun Dec 25 21:06:02 2022


Pair  time (%) = 0.44545 (0.021574)
Neigh time (%) = 13.2126 (0.63991)
Comm  time (%) = 24.8558 (1.20381)
Outpt time (%) = 0.000662863 (3.21038e-05)
Other time (%) = 2026.24 (98.1347)

Nlocal:    27.275 ave 393 max 0 min
Histogram: 35 1 2 0 0 0 0 0 1 1
Nghost:    6.3 ave 81 max 0 min
Histogram: 36 0 0 0 0 2 0 0 1 1
Neighs:    4.175 ave 78 max 0 min
Histogram: 36 1 1 0 0 0 1 0 0 1

Total # of neighbors = 167
Ave neighs/atom = 0.153071
Neighbor list builds = 16255
Dangerous builds = 3103
Setting up run at Sun Dec 25 21:06:02 2022

Memory usage per processor = 960.195 Mbytes
    Step    Atoms         KinEng            CPU 
 8847725     1091     0.69602262              0 
 9053486     1078     0.72527423      2052.8018 
Loop time of 2052.8 on 40 procs for 205761 steps with 1078 atoms, finish time Sun Dec 25 21:40:14 2022


Pair  time (%) = 0.443209 (0.0215904)
Neigh time (%) = 11.6017 (0.565164)
Comm  time (%) = 16.4164 (0.799706)
Outpt time (%) = 0.000268254 (1.30677e-05)
Other time (%) = 2024.34 (98.6135)

Nlocal:    26.95 ave 384 max 0 min
Histogram: 35 1 2 0 0 0 0 0 1 1
Nghost:    6.675 ave 79 max 0 min
Histogram: 36 0 0 0 0 1 1 0 1 1
Neighs:    4.325 ave 81 max 0 min
Histogram: 36 1 1 0 0 0 1 0 0 1

Total # of neighbors = 173
Ave neighs/atom = 0.160482
Neighbor list builds = 14123
Dangerous builds = 32
Setting up run at Sun Dec 25 21:40:15 2022

Memory usage per processor = 960.195 Mbytes
    Step    Atoms         KinEng            CPU 
 9053486     1078     0.72527423              0 
 9259247     1068     0.67959485      2037.4771 
Loop time of 2037.48 on 40 procs for 205761 steps with 1068 atoms, finish time Sun Dec 25 22:14:12 2022


Pair  time (%) = 0.439002 (0.0215463)
Neigh time (%) = 10.4475 (0.512765)
Comm  time (%) = 17.1838 (0.843386)
Outpt time (%) = 0.000469864 (2.30611e-05)
Other time (%) = 2009.41 (98.6223)

Nlocal:    26.7 ave 378 max 0 min
Histogram: 33 3 2 0 0 0 0 0 1 1
Nghost:    6.175 ave 74 max 0 min
Histogram: 36 0 0 0 0 1 1 0 1 1
Neighs:    4.325 ave 81 max 0 min
Histogram: 36 1 0 1 0 0 1 0 0 1

Total # of neighbors = 173
Ave neighs/atom = 0.161985
Neighbor list builds = 12761
Dangerous builds = 1249
Setting up run at Sun Dec 25 22:14:12 2022

Memory usage per processor = 960.195 Mbytes
    Step    Atoms         KinEng            CPU 
 9259247     1068     0.67959485              0 
 9465008     1056     0.73993051      2066.2274 
Loop time of 2066.23 on 40 procs for 205761 steps with 1056 atoms, finish time Sun Dec 25 22:48:38 2022


Pair  time (%) = 0.439511 (0.0212712)
Neigh time (%) = 11.9555 (0.578617)
Comm  time (%) = 18.9097 (0.91518)
Outpt time (%) = 0.000288111 (1.39438e-05)
Other time (%) = 2034.92 (98.4849)

Nlocal:    26.4 ave 373 max 0 min
Histogram: 34 2 2 0 0 0 0 0 1 1
Nghost:    6.05 ave 71 max 0 min
Histogram: 36 0 0 0 0 1 0 1 0 2
Neighs:    4.05 ave 69 max 0 min
Histogram: 36 1 0 0 1 0 0 1 0 1

Total # of neighbors = 162
Ave neighs/atom = 0.153409
Neighbor list builds = 14560
Dangerous builds = 555
Setting up run at Sun Dec 25 22:48:38 2022

Memory usage per processor = 960.195 Mbytes
    Step    Atoms         KinEng            CPU 
 9465008     1056     0.73993051              0 
 9670769     1049     0.66817954      2071.6662 
Loop time of 2071.67 on 40 procs for 205761 steps with 1049 atoms, finish time Sun Dec 25 23:23:10 2022


Pair  time (%) = 0.441975 (0.0213343)
Neigh time (%) = 13.9723 (0.674449)
Comm  time (%) = 20.7017 (0.999276)
Outpt time (%) = 0.000507755 (2.45095e-05)
Other time (%) = 2036.55 (98.3049)

Nlocal:    26.225 ave 374 max 0 min
Histogram: 33 3 2 0 0 0 0 0 1 1
Nghost:    5.95 ave 85 max 0 min
Histogram: 36 0 0 0 2 0 0 1 0 1
Neighs:    4.375 ave 72 max 0 min
Histogram: 36 1 0 0 1 0 0 1 0 1

Total # of neighbors = 175
Ave neighs/atom = 0.166826
Neighbor list builds = 17003
Dangerous builds = 491
Setting up run at Sun Dec 25 23:23:10 2022

Memory usage per processor = 960.195 Mbytes
    Step    Atoms         KinEng            CPU 
 9670769     1049     0.66817954              0 
 9876530     1041     0.61760734      2075.6116 
Loop time of 2075.61 on 40 procs for 205761 steps with 1041 atoms, finish time Sun Dec 25 23:57:46 2022


Pair  time (%) = 0.438636 (0.0211329)
Neigh time (%) = 13.7227 (0.661138)
Comm  time (%) = 23.2667 (1.12096)
Outpt time (%) = 0.000263754 (1.27073e-05)
Other time (%) = 2038.18 (98.1968)

Nlocal:    26.025 ave 365 max 0 min
Histogram: 33 3 2 0 0 0 0 0 1 1
Nghost:    5.775 ave 74 max 0 min
Histogram: 36 0 0 0 0 2 0 0 1 1
Neighs:    4.05 ave 63 max 0 min
Histogram: 36 0 1 1 0 0 0 0 1 1

Total # of neighbors = 162
Ave neighs/atom = 0.15562
Neighbor list builds = 16677
Dangerous builds = 354
Setting up run at Sun Dec 25 23:57:46 2022

Memory usage per processor = 960.195 Mbytes
    Step    Atoms         KinEng            CPU 
 9876530     1041     0.61760734              0 
10082291     1033     0.62760704      2155.2352 
Loop time of 2155.24 on 40 procs for 205761 steps with 1033 atoms, finish time Mon Dec 26 00:33:41 2022


Pair  time (%) = 0.453786 (0.0210551)
Neigh time (%) = 22.3515 (1.03708)
Comm  time (%) = 38.0355 (1.7648)
Outpt time (%) = 0.00052666 (2.44363e-05)
Other time (%) = 2094.39 (97.177)

Nlocal:    25.825 ave 364 max 0 min
Histogram: 34 2 2 0 0 0 0 0 1 1
Nghost:    5.85 ave 73 max 0 min
Histogram: 36 0 0 0 0 2 0 0 1 1
Neighs:    3.875 ave 71 max 0 min
Histogram: 36 1 1 0 0 0 1 0 0 1

Total # of neighbors = 155
Ave neighs/atom = 0.150048
Neighbor list builds = 27272
Dangerous builds = 2548
Setting up run at Mon Dec 26 00:33:41 2022

Memory usage per processor = 960.195 Mbytes
    Step    Atoms         KinEng            CPU 
10082291     1033     0.62760704              0 
10288052     1026     0.67147533      2140.4749 
Loop time of 2140.48 on 40 procs for 205761 steps with 1026 atoms, finish time Mon Dec 26 01:09:22 2022


Pair  time (%) = 0.446341 (0.0208524)
Neigh time (%) = 19.4328 (0.907873)
Comm  time (%) = 35.401 (1.65389)
Outpt time (%) = 0.000294871 (1.37759e-05)
Other time (%) = 2085.19 (97.4174)

Nlocal:    25.65 ave 352 max 0 min
Histogram: 34 2 2 0 0 0 0 0 1 1
Nghost:    5.9 ave 69 max 0 min
Histogram: 36 0 0 0 0 2 0 0 0 2
Neighs:    4.025 ave 77 max 0 min
Histogram: 36 1 1 0 0 0 1 0 0 1

Total # of neighbors = 161
Ave neighs/atom = 0.15692
Neighbor list builds = 23595
Dangerous builds = 3
Setting up run at Mon Dec 26 01:09:22 2022

Memory usage per processor = 960.195 Mbytes
    Step    Atoms         KinEng            CPU 
10288052     1026     0.67147533              0 
10493813     1021     0.65757773      2139.9524 
Loop time of 2139.95 on 40 procs for 205761 steps with 1021 atoms, finish time Mon Dec 26 01:45:02 2022


Pair  time (%) = 0.447326 (0.0209036)
Neigh time (%) = 20.6367 (0.964351)
Comm  time (%) = 38.7239 (1.80957)
Outpt time (%) = 0.000554172 (2.58965e-05)
Other time (%) = 2080.14 (97.2051)

Nlocal:    25.525 ave 343 max 0 min
Histogram: 34 2 2 0 0 0 0 0 0 2
Nghost:    5.725 ave 68 max 0 min
Histogram: 35 1 0 0 0 2 0 0 0 2
Neighs:    3.6 ave 72 max 0 min
Histogram: 37 0 1 0 0 1 0 0 0 1

Total # of neighbors = 144
Ave neighs/atom = 0.141038
Neighbor list builds = 25080
Dangerous builds = 764
Setting up run at Mon Dec 26 01:45:02 2022

Memory usage per processor = 960.195 Mbytes
    Step    Atoms         KinEng            CPU 
10493813     1021     0.65757773              0 
10699574     1013     0.66415162      2155.3033 
Loop time of 2155.3 on 40 procs for 205761 steps with 1013 atoms, finish time Mon Dec 26 02:20:57 2022


Pair  time (%) = 0.460002 (0.0213428)
Neigh time (%) = 22.6451 (1.05067)
Comm  time (%) = 32.1078 (1.48971)
Outpt time (%) = 0.00390533 (0.000181196)
Other time (%) = 2100.09 (97.4381)

Nlocal:    25.325 ave 338 max 0 min
Histogram: 33 3 2 0 0 0 0 0 0 2
Nghost:    5.775 ave 77 max 0 min
Histogram: 36 0 0 0 1 1 0 0 1 1
Neighs:    3.55 ave 66 max 0 min
Histogram: 36 1 1 0 0 0 0 1 0 1

Total # of neighbors = 142
Ave neighs/atom = 0.140178
Neighbor list builds = 27557
Dangerous builds = 1383
Setting up run at Mon Dec 26 02:20:57 2022

Memory usage per processor = 960.195 Mbytes
    Step    Atoms         KinEng            CPU 
10699574     1013     0.66415162              0 
10905335     1007      4.3136142      2119.8931 
Loop time of 2119.89 on 40 procs for 205761 steps with 1007 atoms, finish time Mon Dec 26 02:56:17 2022


Pair  time (%) = 0.447536 (0.0211113)
Neigh time (%) = 18.113 (0.854429)
Comm  time (%) = 28.0147 (1.32151)
Outpt time (%) = 0.000512449 (2.41733e-05)
Other time (%) = 2073.32 (97.8029)

Nlocal:    25.175 ave 334 max 0 min
Histogram: 33 3 2 0 0 0 0 0 0 2
Nghost:    5.525 ave 76 max 0 min
Histogram: 36 0 0 1 1 0 0 0 0 2
Neighs:    3.35 ave 59 max 0 min
Histogram: 36 1 1 0 0 0 0 1 0 1

Total # of neighbors = 134
Ave neighs/atom = 0.133069
Neighbor list builds = 21975
Dangerous builds = 271
Setting up run at Mon Dec 26 02:56:17 2022

Memory usage per processor = 960.195 Mbytes
    Step    Atoms         KinEng            CPU 
10905335     1007      4.3136142              0 
11111096      996     0.49210155      2100.7753 
Loop time of 2100.78 on 40 procs for 205761 steps with 996 atoms, finish time Mon Dec 26 03:31:18 2022


Pair  time (%) = 0.436501 (0.0207781)
Neigh time (%) = 16.0619 (0.764571)
Comm  time (%) = 30.002 (1.42814)
Outpt time (%) = 0.000446414 (2.12499e-05)
Other time (%) = 2054.27 (97.7865)

Nlocal:    24.9 ave 329 max 0 min
Histogram: 32 4 2 0 0 0 0 0 0 2
Nghost:    5.75 ave 73 max 0 min
Histogram: 36 0 0 0 2 0 0 0 0 2
Neighs:    2.975 ave 52 max 0 min
Histogram: 36 2 0 0 0 0 0 0 1 1

Total # of neighbors = 119
Ave neighs/atom = 0.119478
Neighbor list builds = 19471
Dangerous builds = 589
Setting up run at Mon Dec 26 03:31:18 2022

Memory usage per processor = 960.195 Mbytes
    Step    Atoms         KinEng            CPU 
11111096      996     0.49210155              0 
11316857      982     0.44364063      2076.9303 
Loop time of 2076.93 on 40 procs for 205761 steps with 982 atoms, finish time Mon Dec 26 04:05:55 2022


Pair  time (%) = 0.423742 (0.0204023)
Neigh time (%) = 14.2194 (0.684634)
Comm  time (%) = 26.0439 (1.25396)
Outpt time (%) = 0.000291419 (1.40313e-05)
Other time (%) = 2036.24 (98.041)

Nlocal:    24.55 ave 315 max 0 min
Histogram: 32 4 2 0 0 0 0 0 0 2
Nghost:    5.6 ave 72 max 0 min
Histogram: 36 0 0 0 2 0 0 0 0 2
Neighs:    3 ave 51 max 0 min
Histogram: 36 1 1 0 0 0 0 0 0 2

Total # of neighbors = 120
Ave neighs/atom = 0.1222
Neighbor list builds = 17279
Dangerous builds = 86
Setting up run at Mon Dec 26 04:05:55 2022

Memory usage per processor = 960.195 Mbytes
    Step    Atoms         KinEng            CPU 
11316857      982     0.44364063              0 
11522618      976     0.43967711      2062.7013 
Loop time of 2062.7 on 40 procs for 205761 steps with 976 atoms, finish time Mon Dec 26 04:40:18 2022


Pair  time (%) = 0.42419 (0.0205648)
Neigh time (%) = 12.4435 (0.603263)
Comm  time (%) = 22.1025 (1.07153)
Outpt time (%) = 0.000547892 (2.65619e-05)
Other time (%) = 2027.73 (98.3046)

Nlocal:    24.4 ave 304 max 0 min
Histogram: 32 4 1 1 0 0 0 0 0 2
Nghost:    5.575 ave 71 max 0 min
Histogram: 36 0 0 1 0 1 0 0 0 2
Neighs:    3.125 ave 52 max 0 min
Histogram: 36 0 2 0 0 0 0 0 1 1

Total # of neighbors = 125
Ave neighs/atom = 0.128074
Neighbor list builds = 15094
Dangerous builds = 520
Setting up run at Mon Dec 26 04:40:18 2022

Memory usage per processor = 960.195 Mbytes
    Step    Atoms         KinEng            CPU 
11522618      976     0.43967711              0 
11728379      958      0.7958974      2062.6427 
Loop time of 2062.64 on 40 procs for 205761 steps with 958 atoms, finish time Mon Dec 26 05:14:40 2022


Pair  time (%) = 0.424048 (0.0205585)
Neigh time (%) = 13.3538 (0.64741)
Comm  time (%) = 22.8583 (1.1082)
Outpt time (%) = 0.000176989 (8.5807e-06)
Other time (%) = 2026.01 (98.2238)

Nlocal:    23.95 ave 305 max 0 min
Histogram: 33 3 1 1 0 0 0 0 0 2
Nghost:    5.575 ave 65 max 0 min
Histogram: 36 0 0 0 0 1 1 0 0 2
Neighs:    2.825 ave 47 max 0 min
Histogram: 36 0 2 0 0 0 0 0 1 1

Total # of neighbors = 113
Ave neighs/atom = 0.117954
Neighbor list builds = 16278
Dangerous builds = 786
Setting up run at Mon Dec 26 05:14:40 2022

Memory usage per processor = 960.195 Mbytes
    Step    Atoms         KinEng            CPU 
11728379      958      0.7958974              0 
11934140      941       0.565773      2060.6871 
Loop time of 2060.69 on 40 procs for 205761 steps with 941 atoms, finish time Mon Dec 26 05:49:01 2022


Pair  time (%) = 0.417346 (0.0202527)
Neigh time (%) = 12.971 (0.629447)
Comm  time (%) = 27.4364 (1.33142)
Outpt time (%) = 0.000511361 (2.4815e-05)
Other time (%) = 2019.87 (98.0189)

Nlocal:    23.525 ave 292 max 0 min
Histogram: 32 4 2 0 0 0 0 0 0 2
Nghost:    5.25 ave 64 max 0 min
Histogram: 36 0 0 0 0 1 1 0 1 1
Neighs:    2.6 ave 42 max 0 min
Histogram: 36 1 1 0 0 0 0 0 0 2

Total # of neighbors = 104
Ave neighs/atom = 0.110521
Neighbor list builds = 15816
Dangerous builds = 1651
Setting up run at Mon Dec 26 05:49:01 2022

Memory usage per processor = 960.195 Mbytes
    Step    Atoms         KinEng            CPU 
11934140      941       0.565773              0 
12139901      929     0.53413389      2029.5709 
Loop time of 2029.58 on 40 procs for 205761 steps with 929 atoms, finish time Mon Dec 26 06:22:51 2022


Pair  time (%) = 0.409618 (0.0201824)
Neigh time (%) = 9.04874 (0.445843)
Comm  time (%) = 17.0591 (0.840526)
Outpt time (%) = 0.0126388 (0.000622728)
Other time (%) = 2003.05 (98.6928)

Nlocal:    23.225 ave 289 max 0 min
Histogram: 32 3 2 1 0 0 0 0 0 2
Nghost:    5.65 ave 63 max 0 min
Histogram: 36 0 0 0 0 0 1 1 1 1
Neighs:    2.225 ave 37 max 0 min
Histogram: 36 1 1 0 0 0 0 0 1 1

Total # of neighbors = 89
Ave neighs/atom = 0.0958019
Neighbor list builds = 10979
Dangerous builds = 613
Setting up run at Mon Dec 26 06:22:51 2022

Memory usage per processor = 960.195 Mbytes
    Step    Atoms         KinEng            CPU 
12139901      929     0.53413389              0 
12345662      915     0.39112968       2046.383 
Loop time of 2046.38 on 40 procs for 205761 steps with 915 atoms, finish time Mon Dec 26 06:56:57 2022


Pair  time (%) = 0.414495 (0.020255)
Neigh time (%) = 11.8568 (0.579405)
Comm  time (%) = 24.2284 (1.18396)
Outpt time (%) = 0.000513948 (2.5115e-05)
Other time (%) = 2009.88 (98.2164)

Nlocal:    22.875 ave 282 max 0 min
Histogram: 33 3 1 1 0 0 0 0 0 2
Nghost:    5.675 ave 64 max 0 min
Histogram: 36 0 0 0 0 0 1 1 0 2
Neighs:    2.85 ave 45 max 0 min
Histogram: 36 1 1 0 0 0 0 0 0 2

Total # of neighbors = 114
Ave neighs/atom = 0.12459
Neighbor list builds = 14421
Dangerous builds = 511
Setting up run at Mon Dec 26 06:56:57 2022

Memory usage per processor = 960.195 Mbytes
    Step    Atoms         KinEng            CPU 
12345662      915     0.39112968              0 
12551423      903      0.3347739      2061.8781 
Loop time of 2061.88 on 40 procs for 205761 steps with 903 atoms, finish time Mon Dec 26 07:31:19 2022


Pair  time (%) = 0.416089 (0.0201801)
Neigh time (%) = 12.4228 (0.602499)
Comm  time (%) = 22.1832 (1.07587)
Outpt time (%) = 0.000257422 (1.24848e-05)
Other time (%) = 2026.86 (98.3014)

Nlocal:    22.575 ave 287 max 0 min
Histogram: 32 4 1 1 0 0 0 0 0 2
Nghost:    5.375 ave 59 max 0 min
Histogram: 36 0 0 0 0 0 1 1 0 2
Neighs:    2.575 ave 39 max 0 min
Histogram: 36 0 1 1 0 0 0 0 0 2

Total # of neighbors = 103
Ave neighs/atom = 0.114064
Neighbor list builds = 15139
Dangerous builds = 1126
Setting up run at Mon Dec 26 07:31:19 2022

Memory usage per processor = 960.195 Mbytes
    Step    Atoms         KinEng            CPU 
12551423      903      0.3347739              0 
12757184      896     0.38989948      2038.0525 
Loop time of 2038.05 on 40 procs for 205761 steps with 896 atoms, finish time Mon Dec 26 08:05:17 2022


Pair  time (%) = 0.413847 (0.020306)
Neigh time (%) = 10.5832 (0.519279)
Comm  time (%) = 17.9897 (0.882689)
Outpt time (%) = 0.000450646 (2.21116e-05)
Other time (%) = 2009.07 (98.5777)

Nlocal:    22.4 ave 279 max 0 min
Histogram: 32 4 1 1 0 0 0 0 0 2
Nghost:    5.75 ave 65 max 0 min
Histogram: 36 0 0 0 0 0 1 1 0 2
Neighs:    2.5 ave 38 max 0 min
Histogram: 36 0 1 1 0 0 0 0 0 2

Total # of neighbors = 100
Ave neighs/atom = 0.111607
Neighbor list builds = 12870
Dangerous builds = 816
Setting up run at Mon Dec 26 08:05:17 2022

Memory usage per processor = 960.195 Mbytes
    Step    Atoms         KinEng            CPU 
12757184      896     0.38989948              0 
12962945      882     0.41237247      2047.7935 
Loop time of 2047.81 on 40 procs for 205761 steps with 882 atoms, finish time Mon Dec 26 08:39:25 2022


Pair  time (%) = 0.415906 (0.0203098)
Neigh time (%) = 11.5186 (0.562487)
Comm  time (%) = 18.3617 (0.896653)
Outpt time (%) = 0.000191163 (9.335e-06)
Other time (%) = 2017.51 (98.5205)

Nlocal:    22.05 ave 278 max 0 min
Histogram: 32 4 2 0 0 0 0 0 0 2
Nghost:    5.625 ave 64 max 0 min
Histogram: 36 0 0 0 0 0 1 1 1 1
Neighs:    2.575 ave 39 max 0 min
Histogram: 36 0 1 1 0 0 0 1 0 1

Total # of neighbors = 103
Ave neighs/atom = 0.11678
Neighbor list builds = 14079
Dangerous builds = 2556
Setting up run at Mon Dec 26 08:39:25 2022

Memory usage per processor = 960.195 Mbytes
    Step    Atoms         KinEng            CPU 
12962945      882     0.41237247              0 
13168706      870      1.2542283      2056.7898 
Loop time of 2056.79 on 40 procs for 205761 steps with 870 atoms, finish time Mon Dec 26 09:13:42 2022


Pair  time (%) = 0.411124 (0.0199886)
Neigh time (%) = 12.5062 (0.608045)
Comm  time (%) = 25.6696 (1.24804)
Outpt time (%) = 0.00436236 (0.000212095)
Other time (%) = 2018.2 (98.1237)

Nlocal:    21.75 ave 279 max 0 min
Histogram: 32 4 2 0 0 0 0 0 1 1
Nghost:    5.425 ave 61 max 0 min
Histogram: 36 0 0 0 0 1 1 0 1 1
Neighs:    2.425 ave 33 max 0 min
Histogram: 35 1 0 2 0 0 0 0 1 1

Total # of neighbors = 97
Ave neighs/atom = 0.111494
Neighbor list builds = 15195
Dangerous builds = 845
Setting up run at Mon Dec 26 09:13:42 2022

Memory usage per processor = 960.195 Mbytes
    Step    Atoms         KinEng            CPU 
13168706      870      1.2542283              0 
13374467      858     0.62447607      2046.2097 
Loop time of 2046.22 on 40 procs for 205761 steps with 858 atoms, finish time Mon Dec 26 09:47:48 2022


Pair  time (%) = 0.4079 (0.0199343)
Neigh time (%) = 10.9037 (0.53287)
Comm  time (%) = 22.7515 (1.11188)
Outpt time (%) = 0.000369793 (1.8072e-05)
Other time (%) = 2012.16 (98.3353)

Nlocal:    21.45 ave 281 max 0 min
Histogram: 33 2 2 1 0 0 0 0 1 1
Nghost:    5.125 ave 66 max 0 min
Histogram: 36 0 0 0 0 1 2 0 0 1
Neighs:    2.025 ave 29 max 0 min
Histogram: 35 1 0 0 2 1 0 0 0 1

Total # of neighbors = 81
Ave neighs/atom = 0.0944056
Neighbor list builds = 13253
Dangerous builds = 968
Setting up run at Mon Dec 26 09:47:49 2022

Memory usage per processor = 960.195 Mbytes
    Step    Atoms         KinEng            CPU 
13374467      858     0.62447607              0 
13580228      846     0.68267775      2037.5386 
Loop time of 2037.54 on 40 procs for 205761 steps with 846 atoms, finish time Mon Dec 26 10:21:46 2022


Pair  time (%) = 0.40745 (0.0199972)
Neigh time (%) = 10.368 (0.508848)
Comm  time (%) = 21.4723 (1.05383)
Outpt time (%) = 0.000511933 (2.51251e-05)
Other time (%) = 2005.29 (98.4173)

Nlocal:    21.15 ave 286 max 0 min
Histogram: 33 3 2 0 0 0 0 1 0 1
Nghost:    5.1 ave 60 max 0 min
Histogram: 36 0 0 0 0 0 1 2 0 1
Neighs:    1.9 ave 28 max 0 min
Histogram: 35 1 0 1 1 0 0 1 0 1

Total # of neighbors = 76
Ave neighs/atom = 0.0898345
Neighbor list builds = 12628
Dangerous builds = 1925
Setting up run at Mon Dec 26 10:21:46 2022

Memory usage per processor = 960.195 Mbytes
    Step    Atoms         KinEng            CPU 
13580228      846     0.68267775              0 
13785989      838     0.54095084      2033.3504 
Loop time of 2033.35 on 40 procs for 205761 steps with 838 atoms, finish time Mon Dec 26 10:55:40 2022


Pair  time (%) = 0.40861 (0.0200954)
Neigh time (%) = 10.0325 (0.493397)
Comm  time (%) = 14.8758 (0.731588)
Outpt time (%) = 0.000221021 (1.08698e-05)
Other time (%) = 2008.03 (98.7549)

Nlocal:    20.95 ave 280 max 0 min
Histogram: 33 3 1 1 0 0 0 1 0 1
Nghost:    4.975 ave 59 max 0 min
Histogram: 35 1 0 0 0 1 1 1 0 1
Neighs:    2.1 ave 35 max 0 min
Histogram: 36 0 0 0 2 1 0 0 0 1

Total # of neighbors = 84
Ave neighs/atom = 0.100239
Neighbor list builds = 12147
Dangerous builds = 644
Setting up run at Mon Dec 26 10:55:40 2022

Memory usage per processor = 960.195 Mbytes
    Step    Atoms         KinEng            CPU 
13785989      838     0.54095084              0 
13991750      837     0.60540052      2028.8931 
Loop time of 2028.9 on 40 procs for 205761 steps with 837 atoms, finish time Mon Dec 26 11:29:28 2022


Pair  time (%) = 0.402703 (0.0198484)
Neigh time (%) = 9.47935 (0.467217)
Comm  time (%) = 19.294 (0.950959)
Outpt time (%) = 0.000740219 (3.64838e-05)
Other time (%) = 1999.72 (98.5619)

Nlocal:    20.925 ave 278 max 0 min
Histogram: 32 4 2 0 0 0 0 1 0 1
Nghost:    4.425 ave 51 max 0 min
Histogram: 36 0 0 0 0 1 0 2 0 1
Neighs:    1.95 ave 36 max 0 min
Histogram: 35 1 0 3 0 0 0 0 0 1

Total # of neighbors = 78
Ave neighs/atom = 0.09319
Neighbor list builds = 11440
Dangerous builds = 2
Setting up run at Mon Dec 26 11:29:29 2022

Memory usage per processor = 960.195 Mbytes
    Step    Atoms         KinEng            CPU 
13991750      837     0.60540052              0 
14197511      832     0.60683836      2042.8252 
Loop time of 2042.83 on 40 procs for 205761 steps with 832 atoms, finish time Mon Dec 26 12:03:31 2022


Pair  time (%) = 0.405399 (0.019845)
Neigh time (%) = 10.3657 (0.507419)
Comm  time (%) = 21.7084 (1.06267)
Outpt time (%) = 0.00026396 (1.29213e-05)
Other time (%) = 2010.35 (98.4101)

Nlocal:    20.8 ave 268 max 0 min
Histogram: 32 4 1 1 0 0 0 1 0 1
Nghost:    4.6 ave 49 max 0 min
Histogram: 33 3 0 0 0 1 0 0 2 1
Neighs:    2.25 ave 47 max 0 min
Histogram: 36 1 1 1 0 0 0 0 0 1

Total # of neighbors = 90
Ave neighs/atom = 0.108173
Neighbor list builds = 12528
Dangerous builds = 203
Setting up run at Mon Dec 26 12:03:31 2022

Memory usage per processor = 960.195 Mbytes
    Step    Atoms         KinEng            CPU 
14197511      832     0.60683836              0 
14403272      826     0.54119773      2040.0834 
Loop time of 2040.1 on 40 procs for 205761 steps with 826 atoms, finish time Mon Dec 26 12:37:32 2022


Pair  time (%) = 0.405794 (0.0198909)
Neigh time (%) = 10.0999 (0.495071)
Comm  time (%) = 21.2871 (1.04343)
Outpt time (%) = 0.000467933 (2.29368e-05)
Other time (%) = 2008.3 (98.4416)

Nlocal:    20.65 ave 264 max 0 min
Histogram: 32 3 2 1 0 0 0 0 1 1
Nghost:    4.275 ave 51 max 0 min
Histogram: 36 0 0 0 0 1 1 1 0 1
Neighs:    1.95 ave 43 max 0 min
Histogram: 36 2 0 1 0 0 0 0 0 1

Total # of neighbors = 78
Ave neighs/atom = 0.094431
Neighbor list builds = 12211
Dangerous builds = 672
Setting up run at Mon Dec 26 12:37:32 2022

Memory usage per processor = 960.195 Mbytes
    Step    Atoms         KinEng            CPU 
14403272      826     0.54119773              0 
14609033      816     0.53748887      2023.8232 
Loop time of 2023.82 on 40 procs for 205761 steps with 816 atoms, finish time Mon Dec 26 13:11:16 2022


Pair  time (%) = 0.403938 (0.0199591)
Neigh time (%) = 9.15374 (0.452299)
Comm  time (%) = 15.9549 (0.788354)
Outpt time (%) = 0.000182917 (9.03818e-06)
Other time (%) = 1998.31 (98.7394)

Nlocal:    20.4 ave 264 max 0 min
Histogram: 32 4 1 1 0 0 0 0 1 1
Nghost:    4.425 ave 55 max 0 min
Histogram: 36 0 0 0 1 0 0 2 0 1
Neighs:    1.575 ave 32 max 0 min
Histogram: 36 0 2 0 0 1 0 0 0 1

Total # of neighbors = 63
Ave neighs/atom = 0.0772059
Neighbor list builds = 11085
Dangerous builds = 1054
Setting up run at Mon Dec 26 13:11:16 2022

Memory usage per processor = 960.195 Mbytes
    Step    Atoms         KinEng            CPU 
14609033      816     0.53748887              0 
14814794      808     0.50451709      2041.1843 
Loop time of 2041.18 on 40 procs for 205761 steps with 808 atoms, finish time Mon Dec 26 13:45:17 2022


Pair  time (%) = 0.406027 (0.0198917)
Neigh time (%) = 11.1891 (0.548168)
Comm  time (%) = 20.3361 (0.996292)
Outpt time (%) = 0.000459703 (2.25214e-05)
Other time (%) = 2009.25 (98.4356)

Nlocal:    20.2 ave 266 max 0 min
Histogram: 32 4 2 0 0 0 0 1 0 1
Nghost:    3.975 ave 49 max 0 min
Histogram: 36 0 0 0 1 0 0 2 0 1
Neighs:    1.85 ave 38 max 0 min
Histogram: 36 1 1 1 0 0 0 0 0 1

Total # of neighbors = 74
Ave neighs/atom = 0.0915842
Neighbor list builds = 13573
Dangerous builds = 1407
Setting up run at Mon Dec 26 13:45:17 2022

Memory usage per processor = 960.195 Mbytes
    Step    Atoms         KinEng            CPU 
14814794      808     0.50451709              0 
15020555      792     0.50608921      2075.6644 
Loop time of 2075.67 on 40 procs for 205761 steps with 792 atoms, finish time Mon Dec 26 14:19:53 2022


Pair  time (%) = 0.41144 (0.019822)
Neigh time (%) = 13.8833 (0.668858)
Comm  time (%) = 25.4141 (1.22438)
Outpt time (%) = 0.000290859 (1.40128e-05)
Other time (%) = 2035.96 (98.0869)

Nlocal:    19.8 ave 264 max 0 min
Histogram: 33 3 1 1 0 0 0 1 0 1
Nghost:    3.975 ave 46 max 0 min
Histogram: 35 1 0 0 1 0 0 1 1 1
Neighs:    1.775 ave 42 max 0 min
Histogram: 37 1 0 1 0 0 0 0 0 1

Total # of neighbors = 71
Ave neighs/atom = 0.0896465
Neighbor list builds = 16828
Dangerous builds = 1046
Setting up run at Mon Dec 26 14:19:53 2022

Memory usage per processor = 960.195 Mbytes
    Step    Atoms         KinEng            CPU 
15020555      792     0.50608921              0 
15226316      785     0.53268753      2042.3283 
Loop time of 2042.33 on 40 procs for 205761 steps with 785 atoms, finish time Mon Dec 26 14:53:55 2022


Pair  time (%) = 0.408757 (0.0200143)
Neigh time (%) = 11.5693 (0.566476)
Comm  time (%) = 21.75 (1.06496)
Outpt time (%) = 0.000496427 (2.43069e-05)
Other time (%) = 2008.6 (98.3485)

Nlocal:    19.625 ave 258 max 0 min
Histogram: 33 2 2 1 0 0 0 1 0 1
Nghost:    3.575 ave 52 max 0 min
Histogram: 36 0 0 1 1 0 0 1 0 1
Neighs:    1.825 ave 42 max 0 min
Histogram: 37 0 1 1 0 0 0 0 0 1

Total # of neighbors = 73
Ave neighs/atom = 0.0929936
Neighbor list builds = 14003
Dangerous builds = 200
Setting up run at Mon Dec 26 14:53:55 2022

Memory usage per processor = 960.195 Mbytes
    Step    Atoms         KinEng            CPU 
15226316      785     0.53268753              0 
15432077      772     0.67294186      2046.9753 
Loop time of 2046.98 on 40 procs for 205761 steps with 772 atoms, finish time Mon Dec 26 15:28:02 2022


Pair  time (%) = 0.401098 (0.0195946)
Neigh time (%) = 10.9512 (0.534994)
Comm  time (%) = 20.3299 (0.993169)
Outpt time (%) = 0.000454284 (2.21929e-05)
Other time (%) = 2015.29 (98.4522)

Nlocal:    19.3 ave 252 max 0 min
Histogram: 33 2 2 1 0 0 0 1 0 1
Nghost:    4 ave 45 max 0 min
Histogram: 36 0 0 0 1 1 0 0 0 2
Neighs:    1.85 ave 40 max 0 min
Histogram: 36 2 0 0 1 0 0 0 0 1

Total # of neighbors = 74
Ave neighs/atom = 0.0958549
Neighbor list builds = 13229
Dangerous builds = 278
Setting up run at Mon Dec 26 15:28:02 2022

Memory usage per processor = 960.195 Mbytes
    Step    Atoms         KinEng            CPU 
15432077      772     0.67294186              0 
15637838      754     0.60789145      2088.8373 
Loop time of 2088.84 on 40 procs for 205761 steps with 754 atoms, finish time Mon Dec 26 16:02:51 2022


Pair  time (%) = 0.418488 (0.0200345)
Neigh time (%) = 15.3879 (0.736671)
Comm  time (%) = 25.3593 (1.21404)
Outpt time (%) = 0.000257423 (1.23238e-05)
Other time (%) = 2047.67 (98.0292)

Nlocal:    18.85 ave 248 max 0 min
Histogram: 32 3 3 0 0 0 0 1 0 1
Nghost:    3.575 ave 45 max 0 min
Histogram: 35 1 0 1 0 1 0 1 0 1
Neighs:    1.75 ave 38 max 0 min
Histogram: 35 3 0 1 0 0 0 0 0 1

Total # of neighbors = 70
Ave neighs/atom = 0.0928382
Neighbor list builds = 18881
Dangerous builds = 6279
Setting up run at Mon Dec 26 16:02:51 2022

Memory usage per processor = 960.195 Mbytes
    Step    Atoms         KinEng            CPU 
15637838      754     0.60789145              0 
15843599      735     0.51758918      2055.9735 
Loop time of 2055.97 on 40 procs for 205761 steps with 735 atoms, finish time Mon Dec 26 16:37:07 2022


Pair  time (%) = 0.406357 (0.0197647)
Neigh time (%) = 12.2568 (0.596155)
Comm  time (%) = 21.0583 (1.02425)
Outpt time (%) = 0.000515807 (2.50882e-05)
Other time (%) = 2022.25 (98.3598)

Nlocal:    18.375 ave 241 max 0 min
Histogram: 33 2 3 0 0 0 0 1 0 1
Nghost:    3.4 ave 39 max 0 min
Histogram: 33 3 0 0 1 0 1 0 0 2
Neighs:    1.325 ave 33 max 0 min
Histogram: 37 1 0 1 0 0 0 0 0 1

Total # of neighbors = 53
Ave neighs/atom = 0.0721088
Neighbor list builds = 14839
Dangerous builds = 1801
Setting up run at Mon Dec 26 16:37:07 2022

Memory usage per processor = 960.195 Mbytes
    Step    Atoms         KinEng            CPU 
15843599      735     0.51758918              0 
16049360      724     0.79881438      2058.6733 
Loop time of 2058.68 on 40 procs for 205761 steps with 724 atoms, finish time Mon Dec 26 17:11:26 2022


Pair  time (%) = 0.408087 (0.0198227)
Neigh time (%) = 11.7002 (0.568334)
Comm  time (%) = 18.2876 (0.888314)
Outpt time (%) = 0.000335585 (1.6301e-05)
Other time (%) = 2028.29 (98.5235)

Nlocal:    18.1 ave 229 max 0 min
Histogram: 33 2 2 1 0 0 0 1 0 1
Nghost:    3.675 ave 44 max 0 min
Histogram: 35 1 0 0 1 1 0 1 0 1
Neighs:    1.375 ave 21 max 0 min
Histogram: 35 1 1 0 1 0 1 0 0 1

Total # of neighbors = 55
Ave neighs/atom = 0.0759669
Neighbor list builds = 14091
Dangerous builds = 29
Setting up run at Mon Dec 26 17:11:26 2022

Memory usage per processor = 960.195 Mbytes
    Step    Atoms         KinEng            CPU 
16049360      724     0.79881438              0 
16255121      714     0.64935888      2034.4151 
Loop time of 2034.42 on 40 procs for 205761 steps with 714 atoms, finish time Mon Dec 26 17:45:20 2022


Pair  time (%) = 0.404744 (0.0198949)
Neigh time (%) = 10.2764 (0.505128)
Comm  time (%) = 15.2792 (0.751039)
Outpt time (%) = 0.00421672 (0.000207269)
Other time (%) = 2008.45 (98.7237)

Nlocal:    17.85 ave 226 max 0 min
Histogram: 32 2 4 0 0 0 0 1 0 1
Nghost:    3.45 ave 38 max 0 min
Histogram: 33 3 0 0 1 0 1 0 0 2
Neighs:    1.4 ave 28 max 0 min
Histogram: 35 2 1 0 1 0 0 0 0 1

Total # of neighbors = 56
Ave neighs/atom = 0.0784314
Neighbor list builds = 12428
Dangerous builds = 1514
Setting up run at Mon Dec 26 17:45:20 2022

Memory usage per processor = 960.195 Mbytes
    Step    Atoms         KinEng            CPU 
16255121      714     0.64935888              0 
16460882      706      0.6339334      2032.5492 
Loop time of 2032.56 on 40 procs for 205761 steps with 706 atoms, finish time Mon Dec 26 18:19:13 2022


Pair  time (%) = 0.399764 (0.019668)
Neigh time (%) = 9.40783 (0.462855)
Comm  time (%) = 16.5442 (0.813959)
Outpt time (%) = 0.000247531 (1.21783e-05)
Other time (%) = 2006.21 (98.7035)

Nlocal:    17.65 ave 209 max 0 min
Histogram: 32 2 3 1 0 0 0 0 1 1
Nghost:    3 ave 39 max 0 min
Histogram: 36 0 0 0 1 0 1 1 0 1
Neighs:    1.175 ave 18 max 0 min
Histogram: 33 3 1 1 0 1 0 0 0 1

Total # of neighbors = 47
Ave neighs/atom = 0.0665722
Neighbor list builds = 11386
Dangerous builds = 1173
Setting up run at Mon Dec 26 18:19:13 2022

Memory usage per processor = 960.195 Mbytes
    Step    Atoms         KinEng            CPU 
16460882      706      0.6339334              0 
16666643      693     0.69005261      2061.5227 
Loop time of 2061.52 on 40 procs for 205761 steps with 693 atoms, finish time Mon Dec 26 18:53:35 2022


Pair  time (%) = 0.400914 (0.0194475)
Neigh time (%) = 12.3768 (0.600369)
Comm  time (%) = 26.1578 (1.26886)
Outpt time (%) = 0.000508312 (2.46571e-05)
Other time (%) = 2022.59 (98.1113)

Nlocal:    17.325 ave 207 max 0 min
Histogram: 32 3 2 1 0 0 0 0 1 1
Nghost:    3.4 ave 37 max 0 min
Histogram: 33 3 0 0 0 2 0 0 0 2
Neighs:    1.15 ave 14 max 0 min
Histogram: 33 1 2 0 1 1 0 1 0 1

Total # of neighbors = 46
Ave neighs/atom = 0.0663781
Neighbor list builds = 15043
Dangerous builds = 2003
Setting up run at Mon Dec 26 18:53:35 2022

Memory usage per processor = 960.195 Mbytes
    Step    Atoms         KinEng            CPU 
16666643      693     0.69005261              0 
16872404      677     0.62307274      2070.1957 
Loop time of 2070.2 on 40 procs for 205761 steps with 677 atoms, finish time Mon Dec 26 19:28:05 2022


Pair  time (%) = 0.404146 (0.0195221)
Neigh time (%) = 13.5705 (0.655516)
Comm  time (%) = 23.5014 (1.13522)
Outpt time (%) = 0.000287996 (1.39115e-05)
Other time (%) = 2032.72 (98.1897)

Nlocal:    16.925 ave 198 max 0 min
Histogram: 32 3 2 1 0 0 0 0 1 1
Nghost:    3.4 ave 41 max 0 min
Histogram: 36 0 0 0 1 1 0 0 1 1
Neighs:    0.95 ave 13 max 0 min
Histogram: 34 2 0 1 0 1 1 0 0 1

Total # of neighbors = 38
Ave neighs/atom = 0.05613
Neighbor list builds = 16441
Dangerous builds = 1294
Setting up run at Mon Dec 26 19:28:05 2022

Memory usage per processor = 960.195 Mbytes
    Step    Atoms         KinEng            CPU 
16872404      677     0.62307274              0 
17078165      665     0.67633046      2050.6967 
Loop time of 2050.7 on 40 procs for 205761 steps with 665 atoms, finish time Mon Dec 26 20:02:16 2022


Pair  time (%) = 0.397294 (0.0193736)
Neigh time (%) = 10.7263 (0.523056)
Comm  time (%) = 18.7211 (0.912914)
Outpt time (%) = 0.000577891 (2.81802e-05)
Other time (%) = 2020.85 (98.5446)

Nlocal:    16.625 ave 191 max 0 min
Histogram: 32 2 3 1 0 0 0 0 1 1
Nghost:    3.225 ave 37 max 0 min
Histogram: 35 1 0 0 2 0 0 0 0 2
Neighs:    0.6 ave 9 max 0 min
Histogram: 33 4 0 0 0 1 1 0 0 1

Total # of neighbors = 24
Ave neighs/atom = 0.0360902
Neighbor list builds = 12925
Dangerous builds = 3
Setting up run at Mon Dec 26 20:02:16 2022

Memory usage per processor = 960.195 Mbytes
    Step    Atoms         KinEng            CPU 
17078165      665     0.67633046              0 
17283926      658     0.52562337      2043.4393 
Loop time of 2043.44 on 40 procs for 205761 steps with 658 atoms, finish time Mon Dec 26 20:36:19 2022


Pair  time (%) = 0.394047 (0.0192835)
Neigh time (%) = 10.2381 (0.501023)
Comm  time (%) = 20.4302 (0.999794)
Outpt time (%) = 0.00023003 (1.1257e-05)
Other time (%) = 2012.38 (98.4799)

Nlocal:    16.45 ave 195 max 0 min
Histogram: 32 3 1 2 0 0 0 1 0 1
Nghost:    3.025 ave 39 max 0 min
Histogram: 36 0 0 0 2 0 0 1 0 1
Neighs:    0.575 ave 8 max 0 min
Histogram: 35 0 2 0 0 1 0 0 1 1

Total # of neighbors = 23
Ave neighs/atom = 0.0349544
Neighbor list builds = 12359
Dangerous builds = 94
Setting up run at Mon Dec 26 20:36:19 2022

Memory usage per processor = 960.195 Mbytes
    Step    Atoms         KinEng            CPU 
17283926      658     0.52562337              0 
17489687      651     0.57548373      2047.1024 
Loop time of 2047.1 on 40 procs for 205761 steps with 651 atoms, finish time Mon Dec 26 21:10:26 2022


Pair  time (%) = 0.394271 (0.01926)
Neigh time (%) = 10.0497 (0.490921)
Comm  time (%) = 19.5098 (0.953044)
Outpt time (%) = 0.000495916 (2.42253e-05)
Other time (%) = 2017.15 (98.5368)

Nlocal:    16.275 ave 190 max 0 min
Histogram: 31 2 4 1 0 0 0 1 0 1
Nghost:    2.825 ave 31 max 0 min
Histogram: 34 2 0 0 0 2 0 0 0 2
Neighs:    0.7 ave 15 max 0 min
Histogram: 36 2 0 0 1 0 0 0 0 1

Total # of neighbors = 28
Ave neighs/atom = 0.0430108
Neighbor list builds = 12084
Dangerous builds = 94
Setting up run at Mon Dec 26 21:10:26 2022

Memory usage per processor = 960.195 Mbytes
    Step    Atoms         KinEng            CPU 
17489687      651     0.57548373              0 
17695448      640     0.56579939       2077.248 
Loop time of 2077.25 on 40 procs for 205761 steps with 640 atoms, finish time Mon Dec 26 21:45:04 2022


Pair  time (%) = 0.402389 (0.0193713)
Neigh time (%) = 13.6481 (0.657028)
Comm  time (%) = 23.0117 (1.1078)
Outpt time (%) = 0.000294148 (1.41605e-05)
Other time (%) = 2040.19 (98.2158)

Nlocal:    16 ave 184 max 0 min
Histogram: 32 1 4 1 0 0 0 1 0 1
Nghost:    3.075 ave 31 max 0 min
Histogram: 34 1 1 0 0 1 1 0 0 2
Neighs:    0.825 ave 14 max 0 min
Histogram: 34 2 1 1 1 0 0 0 0 1

Total # of neighbors = 33
Ave neighs/atom = 0.0515625
Neighbor list builds = 16513
Dangerous builds = 824
Setting up run at Mon Dec 26 21:45:04 2022

Memory usage per processor = 960.195 Mbytes
    Step    Atoms         KinEng            CPU 
17695448      640     0.56579939              0 
17901209      632     0.56146936      2038.2498 
Loop time of 2038.25 on 40 procs for 205761 steps with 632 atoms, finish time Mon Dec 26 22:19:02 2022


Pair  time (%) = 0.394434 (0.0193516)
Neigh time (%) = 9.83884 (0.48271)
Comm  time (%) = 15.3865 (0.754888)
Outpt time (%) = 0.000571585 (2.80429e-05)
Other time (%) = 2012.63 (98.743)

Nlocal:    15.8 ave 180 max 0 min
Histogram: 31 3 2 2 0 0 0 0 1 1
Nghost:    2.625 ave 28 max 0 min
Histogram: 35 1 0 0 0 1 1 0 0 2
Neighs:    0.675 ave 12 max 0 min
Histogram: 36 1 1 0 0 0 0 1 0 1

Total # of neighbors = 27
Ave neighs/atom = 0.0427215
Neighbor list builds = 11880
Dangerous builds = 1222
Setting up run at Mon Dec 26 22:19:02 2022

Memory usage per processor = 960.195 Mbytes
    Step    Atoms         KinEng            CPU 
17901209      632     0.56146936              0 
18106970      622     0.75163056      2058.3985 
Loop time of 2058.41 on 40 procs for 205761 steps with 622 atoms, finish time Mon Dec 26 22:53:21 2022


Pair  time (%) = 0.396136 (0.0192448)
Neigh time (%) = 11.2932 (0.548639)
Comm  time (%) = 21.0285 (1.02159)
Outpt time (%) = 0.000268137 (1.30264e-05)
Other time (%) = 2025.69 (98.4105)

Nlocal:    15.55 ave 173 max 0 min
Histogram: 32 1 4 1 0 0 0 0 1 1
Nghost:    2.775 ave 35 max 0 min
Histogram: 35 1 0 0 1 1 0 1 0 1
Neighs:    0.5 ave 8 max 0 min
Histogram: 34 3 0 1 0 0 0 1 0 1

Total # of neighbors = 20
Ave neighs/atom = 0.0321543
Neighbor list builds = 13613
Dangerous builds = 103
Setting up run at Mon Dec 26 22:53:21 2022

Memory usage per processor = 960.195 Mbytes
    Step    Atoms         KinEng            CPU 
18106970      622     0.75163056              0 
18312731      616     0.64874807      2056.0573 
Loop time of 2056.06 on 40 procs for 205761 steps with 616 atoms, finish time Mon Dec 26 23:27:37 2022


Pair  time (%) = 0.395965 (0.0192585)
Neigh time (%) = 11.9624 (0.581815)
Comm  time (%) = 20.5503 (0.999501)
Outpt time (%) = 0.000549686 (2.6735e-05)
Other time (%) = 2023.15 (98.3994)

Nlocal:    15.4 ave 161 max 0 min
Histogram: 32 0 4 2 0 0 0 0 0 2
Nghost:    2.775 ave 41 max 0 min
Histogram: 36 0 0 2 0 1 0 0 0 1
Neighs:    0.7 ave 10 max 0 min
Histogram: 32 2 3 0 1 0 1 0 0 1

Total # of neighbors = 28
Ave neighs/atom = 0.0454545
Neighbor list builds = 14437
Dangerous builds = 0
Setting up run at Mon Dec 26 23:27:37 2022

Memory usage per processor = 960.195 Mbytes
    Step    Atoms         KinEng            CPU 
18312731      616     0.64874807              0 
18518492      612     0.52706307      2033.9986 
Loop time of 2034 on 40 procs for 205761 steps with 612 atoms, finish time Tue Dec 27 00:01:31 2022


Pair  time (%) = 0.388528 (0.0191017)
Neigh time (%) = 8.71185 (0.428312)
Comm  time (%) = 16.7631 (0.824144)
Outpt time (%) = 0.000168487 (8.28355e-06)
Other time (%) = 2008.14 (98.7284)

Nlocal:    15.3 ave 159 max 0 min
Histogram: 31 2 3 1 1 0 0 0 0 2
Nghost:    2.85 ave 39 max 0 min
Histogram: 36 0 0 0 2 0 1 0 0 1
Neighs:    0.625 ave 12 max 0 min
Histogram: 36 0 2 0 1 0 0 0 0 1

Total # of neighbors = 25
Ave neighs/atom = 0.0408497
Neighbor list builds = 10493
Dangerous builds = 2
Setting up run at Tue Dec 27 00:01:31 2022

Memory usage per processor = 960.195 Mbytes
    Step    Atoms         KinEng            CPU 
18518492      612     0.52706307              0 
18724253      606     0.61937755      2064.9759 
Loop time of 2064.98 on 40 procs for 205761 steps with 606 atoms, finish time Tue Dec 27 00:35:56 2022


Pair  time (%) = 0.395206 (0.0191385)
Neigh time (%) = 12.6683 (0.613486)
Comm  time (%) = 23.1162 (1.11944)
Outpt time (%) = 0.00221997 (0.000107506)
[...]
Neighbor list builds = 13314
Dangerous builds = 610
Setting up run at Wed Dec 28 08:05:26 2022

Memory usage per processor = 960.195 Mbytes
    Step    Atoms         KinEng            CPU 
30041138      269     0.29761031              0 
30246899      267     0.32211346      2037.2669 
Loop time of 2037.27 on 40 procs for 205761 steps with 267 atoms, finish time Wed Dec 28 08:39:24 2022


Pair  time (%) = 0.359385 (0.0176405)
Neigh time (%) = 9.6912 (0.475696)
Comm  time (%) = 16.1317 (0.791828)
Outpt time (%) = 0.000505218 (2.47988e-05)
Other time (%) = 2011.08 (98.7148)

Nlocal:    6.675 ave 75 max 0 min
Histogram: 33 1 2 2 0 0 0 0 0 2
Nghost:    1.275 ave 12 max 0 min
Histogram: 31 2 3 0 1 0 1 0 0 2
Neighs:    0.225 ave 3 max 0 min
Histogram: 35 0 0 2 0 0 2 0 0 1

Total # of neighbors = 9
Ave neighs/atom = 0.0337079
Neighbor list builds = 11688
Dangerous builds = 3
Setting up run at Wed Dec 28 08:39:24 2022

Memory usage per processor = 960.195 Mbytes
    Step    Atoms         KinEng            CPU 
30246899      267     0.32211346              0 
30452660      267      0.3004561      2024.3041 
Loop time of 2024.3 on 40 procs for 205761 steps with 267 atoms, finish time Wed Dec 28 09:13:08 2022


Pair  time (%) = 0.360541 (0.0178106)
Neigh time (%) = 9.16481 (0.452739)
Comm  time (%) = 13.7016 (0.676856)
Outpt time (%) = 0.000225594 (1.11443e-05)
Other time (%) = 2001.08 (98.8526)

Nlocal:    6.675 ave 73 max 0 min
Histogram: 31 3 2 2 0 0 0 0 0 2
Nghost:    1.05 ave 14 max 0 min
Histogram: 33 2 3 0 0 0 1 0 0 1
Neighs:    0.225 ave 3 max 0 min
Histogram: 35 0 0 3 0 0 0 0 0 2

Total # of neighbors = 9
Ave neighs/atom = 0.0337079
Neighbor list builds = 11031
Dangerous builds = 0
Setting up run at Wed Dec 28 09:13:08 2022

Memory usage per processor = 960.195 Mbytes
    Step    Atoms         KinEng            CPU 
30452660      267      0.3004561              0 
30658421      266     0.42201993      2034.5182 
Loop time of 2034.52 on 40 procs for 205761 steps with 266 atoms, finish time Wed Dec 28 09:47:03 2022


Pair  time (%) = 0.366009 (0.01799)
Neigh time (%) = 10.0399 (0.493477)
Comm  time (%) = 12.7798 (0.628149)
Outpt time (%) = 0.000534629 (2.62779e-05)
Other time (%) = 2011.33 (98.8604)

Nlocal:    6.65 ave 70 max 0 min
Histogram: 30 3 4 1 0 0 0 0 0 2
Nghost:    1.1 ave 14 max 0 min
Histogram: 34 1 1 1 1 0 0 0 1 1
Neighs:    0.175 ave 2 max 0 min
Histogram: 35 0 0 0 0 3 0 0 0 2

Total # of neighbors = 7
Ave neighs/atom = 0.0263158
Neighbor list builds = 12078
Dangerous builds = 0
Setting up run at Wed Dec 28 09:47:03 2022

Memory usage per processor = 960.195 Mbytes
    Step    Atoms         KinEng            CPU 
30658421      266     0.42201993              0 
30864182      266     0.37363008      2029.4743 
Loop time of 2029.49 on 40 procs for 205761 steps with 266 atoms, finish time Wed Dec 28 10:20:52 2022


Pair  time (%) = 0.365968 (0.0180325)
Neigh time (%) = 9.40213 (0.463276)
Comm  time (%) = 10.6724 (0.525865)
Outpt time (%) = 0.000398891 (1.96548e-05)
Other time (%) = 2009.05 (98.9928)

Nlocal:    6.65 ave 71 max 0 min
Histogram: 31 3 3 1 0 0 0 0 0 2
Nghost:    0.825 ave 9 max 0 min
Histogram: 31 2 2 1 2 0 0 1 0 1
Neighs:    0.15 ave 2 max 0 min
Histogram: 36 0 0 0 0 2 0 0 0 2

Total # of neighbors = 6
Ave neighs/atom = 0.0225564
Neighbor list builds = 11295
Dangerous builds = 0
Setting up run at Wed Dec 28 10:20:52 2022

Memory usage per processor = 960.195 Mbytes
    Step    Atoms         KinEng            CPU 
30864182      266     0.37363008              0 
31069943      262     0.37857354      2031.5072 
Loop time of 2031.51 on 40 procs for 205761 steps with 262 atoms, finish time Wed Dec 28 10:54:44 2022


Pair  time (%) = 0.36821 (0.0181249)
Neigh time (%) = 9.85095 (0.484909)
Comm  time (%) = 9.35718 (0.460603)
Outpt time (%) = 0.00052111 (2.56514e-05)
Other time (%) = 2011.93 (99.0363)

Nlocal:    6.55 ave 70 max 0 min
Histogram: 30 2 6 0 0 0 0 0 0 2
Nghost:    0.825 ave 10 max 0 min
Histogram: 28 7 1 0 1 2 0 0 0 1
Neighs:    0.05 ave 1 max 0 min
Histogram: 38 0 0 0 0 0 0 0 0 2

Total # of neighbors = 2
Ave neighs/atom = 0.00763359
Neighbor list builds = 11862
Dangerous builds = 33
Setting up run at Wed Dec 28 10:54:44 2022

Memory usage per processor = 960.195 Mbytes
    Step    Atoms         KinEng            CPU 
31069943      262     0.37857354              0 
31275704      258      0.3973009      2010.7772 
Loop time of 2010.78 on 40 procs for 205761 steps with 258 atoms, finish time Wed Dec 28 11:28:15 2022


Pair  time (%) = 0.35788 (0.0177981)
Neigh time (%) = 7.49957 (0.372969)
Comm  time (%) = 7.76585 (0.386211)
Outpt time (%) = 0.000211873 (1.05369e-05)
Other time (%) = 1995.15 (99.223)

Nlocal:    6.45 ave 71 max 0 min
Histogram: 31 2 4 1 0 0 0 0 0 2
Nghost:    0.975 ave 9 max 0 min
Histogram: 30 3 2 1 0 1 0 1 1 1
Neighs:    0.05 ave 1 max 0 min
Histogram: 38 0 0 0 0 0 0 0 0 2

Total # of neighbors = 2
Ave neighs/atom = 0.00775194
Neighbor list builds = 9024
Dangerous builds = 0
Setting up run at Wed Dec 28 11:28:15 2022

Memory usage per processor = 960.195 Mbytes
    Step    Atoms         KinEng            CPU 
31275704      258      0.3973009              0 
31481465      256     0.44853226       2017.272 
Loop time of 2017.27 on 40 procs for 205761 steps with 256 atoms, finish time Wed Dec 28 12:01:52 2022


Pair  time (%) = 0.358394 (0.0177663)
Neigh time (%) = 7.75239 (0.384301)
Comm  time (%) = 8.48704 (0.420719)
Outpt time (%) = 0.000496945 (2.46345e-05)
Other time (%) = 2000.67 (99.1772)

Nlocal:    6.4 ave 70 max 0 min
Histogram: 30 5 1 2 0 0 0 0 0 2
Nghost:    0.9 ave 10 max 0 min
Histogram: 30 5 1 0 0 1 1 0 1 1
Neighs:    0.075 ave 2 max 0 min
Histogram: 38 0 0 0 0 1 0 0 0 1

Total # of neighbors = 3
Ave neighs/atom = 0.0117188
Neighbor list builds = 9347
Dangerous builds = 493
Setting up run at Wed Dec 28 12:01:52 2022

Memory usage per processor = 960.195 Mbytes
    Step    Atoms         KinEng            CPU 
31481465      256     0.44853226              0 
31687226      252     0.36172987      2022.2362 
Loop time of 2022.24 on 40 procs for 205761 steps with 252 atoms, finish time Wed Dec 28 12:35:34 2022


Pair  time (%) = 0.367239 (0.01816)
Neigh time (%) = 8.92116 (0.441153)
Comm  time (%) = 8.604 (0.425469)
Outpt time (%) = 0.000199453 (9.86297e-06)
Other time (%) = 2004.34 (99.1152)

Nlocal:    6.3 ave 68 max 0 min
Histogram: 30 5 2 1 0 0 0 0 0 2
Nghost:    0.825 ave 9 max 0 min
Histogram: 31 2 2 1 0 3 0 0 0 1
Neighs:    0.125 ave 2 max 0 min
Histogram: 36 0 0 0 0 3 0 0 0 1

Total # of neighbors = 5
Ave neighs/atom = 0.0198413
Neighbor list builds = 10750
Dangerous builds = 278
Setting up run at Wed Dec 28 12:35:34 2022

Memory usage per processor = 960.195 Mbytes
    Step    Atoms         KinEng            CPU 
31687226      252     0.36172987              0 
31892987      249     0.33623657      2019.6514 
Loop time of 2019.65 on 40 procs for 205761 steps with 249 atoms, finish time Wed Dec 28 13:09:14 2022


Pair  time (%) = 0.358038 (0.0177277)
Neigh time (%) = 7.50955 (0.371824)
Comm  time (%) = 10.2277 (0.506409)
Outpt time (%) = 0.00049387 (2.44532e-05)
Other time (%) = 2001.56 (99.104)

Nlocal:    6.225 ave 67 max 0 min
Histogram: 30 4 4 0 0 0 0 0 0 2
Nghost:    0.925 ave 11 max 0 min
Histogram: 34 1 0 2 0 1 1 0 0 1
Neighs:    0.125 ave 2 max 0 min
Histogram: 36 0 0 0 0 3 0 0 0 1

Total # of neighbors = 5
Ave neighs/atom = 0.0200803
Neighbor list builds = 9028
Dangerous builds = 0
Setting up run at Wed Dec 28 13:09:14 2022

Memory usage per processor = 960.195 Mbytes
    Step    Atoms         KinEng            CPU 
31892987      249     0.33623657              0 
32098748      245     0.31746293       2159.213 
Loop time of 2159.21 on 40 procs for 205761 steps with 245 atoms, finish time Wed Dec 28 13:45:13 2022


Pair  time (%) = 0.36193 (0.0167621)
Neigh time (%) = 9.73566 (0.450889)
Comm  time (%) = 13.4168 (0.621372)
Outpt time (%) = 0.000293801 (1.36069e-05)
Other time (%) = 2135.7 (98.911)

Nlocal:    6.125 ave 66 max 0 min
Histogram: 30 4 2 2 0 0 0 0 0 2
Nghost:    0.975 ave 11 max 0 min
Histogram: 35 1 0 0 0 1 2 0 0 1
Neighs:    0.125 ave 2 max 0 min
Histogram: 36 0 0 0 0 3 0 0 0 1

Total # of neighbors = 5
Ave neighs/atom = 0.0204082
Neighbor list builds = 11747
Dangerous builds = 235
Setting up run at Wed Dec 28 13:45:14 2022

Memory usage per processor = 960.195 Mbytes
    Step    Atoms         KinEng            CPU 
32098748      245     0.31746293              0 
32304509      241     0.33558209      2042.8849 
Loop time of 2042.88 on 40 procs for 205761 steps with 241 atoms, finish time Wed Dec 28 14:19:16 2022


Pair  time (%) = 0.363862 (0.0178112)
Neigh time (%) = 8.44095 (0.413188)
Comm  time (%) = 8.76996 (0.429293)
Outpt time (%) = 0.000457521 (2.23958e-05)
Other time (%) = 2025.31 (99.1397)

Nlocal:    6.025 ave 65 max 0 min
Histogram: 31 2 4 1 0 0 0 0 0 2
Nghost:    1.05 ave 13 max 0 min
Histogram: 34 2 0 1 0 1 1 0 0 1
Neighs:    0.125 ave 3 max 0 min
Histogram: 37 0 0 2 0 0 0 0 0 1

Total # of neighbors = 5
Ave neighs/atom = 0.0207469
Neighbor list builds = 10180
Dangerous builds = 4
Setting up run at Wed Dec 28 14:19:17 2022

Memory usage per processor = 960.195 Mbytes
    Step    Atoms         KinEng            CPU 
32304509      241     0.33558209              0 
32510270      240      0.3280974      2012.3482 
Loop time of 2012.35 on 40 procs for 205761 steps with 240 atoms, finish time Wed Dec 28 14:52:49 2022


Pair  time (%) = 0.358282 (0.0178042)
Neigh time (%) = 7.41741 (0.368595)
Comm  time (%) = 10.7562 (0.534508)
Outpt time (%) = 0.000275419 (1.36864e-05)
Other time (%) = 1993.82 (99.0791)

Nlocal:    6 ave 66 max 0 min
Histogram: 32 1 5 0 0 0 0 0 0 2
Nghost:    0.9 ave 11 max 0 min
Histogram: 36 0 0 0 2 0 0 0 0 2
Neighs:    0.125 ave 2 max 0 min
Histogram: 36 0 0 0 0 3 0 0 0 1

Total # of neighbors = 5
Ave neighs/atom = 0.0208333
Neighbor list builds = 8940
Dangerous builds = 187
Setting up run at Wed Dec 28 14:52:49 2022

Memory usage per processor = 960.195 Mbytes
    Step    Atoms         KinEng            CPU 
32510270      240      0.3280974              0 
32716031      237      0.3175804      2037.4258 
Loop time of 2037.43 on 40 procs for 205761 steps with 237 atoms, finish time Wed Dec 28 15:26:46 2022


Pair  time (%) = 0.36383 (0.0178574)
Neigh time (%) = 9.14165 (0.448686)
Comm  time (%) = 11.9166 (0.584884)
Outpt time (%) = 0.000571484 (2.80493e-05)
Other time (%) = 2016 (98.9485)

Nlocal:    5.925 ave 64 max 0 min
Histogram: 31 3 2 2 0 0 0 0 0 2
Nghost:    1.1 ave 12 max 0 min
Histogram: 33 1 2 1 0 1 0 1 0 1
Neighs:    0.075 ave 2 max 0 min
Histogram: 38 0 0 0 0 1 0 0 0 1

Total # of neighbors = 3
Ave neighs/atom = 0.0126582
Neighbor list builds = 11022
Dangerous builds = 0
Setting up run at Wed Dec 28 15:26:46 2022

Memory usage per processor = 960.195 Mbytes
    Step    Atoms         KinEng            CPU 
32716031      237      0.3175804              0 
32921792      234     0.30221344      2012.9651 
Loop time of 2012.97 on 40 procs for 205761 steps with 234 atoms, finish time Wed Dec 28 16:00:19 2022


Pair  time (%) = 0.360512 (0.0179095)
Neigh time (%) = 7.54123 (0.374633)
Comm  time (%) = 6.84439 (0.340015)
Outpt time (%) = 0.000281803 (1.39994e-05)
Other time (%) = 1998.22 (99.2674)

Nlocal:    5.85 ave 64 max 0 min
Histogram: 31 3 4 0 0 0 0 0 0 2
Nghost:    0.925 ave 12 max 0 min
Histogram: 35 1 0 0 1 2 0 0 0 1
Neighs:    0.1 ave 2 max 0 min
Histogram: 37 0 0 0 0 2 0 0 0 1

Total # of neighbors = 4
Ave neighs/atom = 0.017094
Neighbor list builds = 9105
Dangerous builds = 318
Setting up run at Wed Dec 28 16:00:20 2022

Memory usage per processor = 960.195 Mbytes
    Step    Atoms         KinEng            CPU 
32921792      234     0.30221344              0 
33127553      232     0.33140876      2016.5368 
Loop time of 2016.56 on 40 procs for 205761 steps with 232 atoms, finish time Wed Dec 28 16:33:56 2022


Pair  time (%) = 0.361939 (0.0179483)
Neigh time (%) = 7.86704 (0.390121)
Comm  time (%) = 8.03223 (0.398313)
Outpt time (%) = 0.00054965 (2.72568e-05)
Other time (%) = 2000.3 (99.1936)

Nlocal:    5.8 ave 65 max 0 min
Histogram: 31 4 2 1 0 0 0 0 1 1
Nghost:    0.95 ave 11 max 0 min
Histogram: 36 0 0 0 0 0 2 1 0 1
Neighs:    0.025 ave 1 max 0 min
Histogram: 39 0 0 0 0 0 0 0 0 1

Total # of neighbors = 1
Ave neighs/atom = 0.00431034
Neighbor list builds = 9477
Dangerous builds = 0
Setting up run at Wed Dec 28 16:33:56 2022

Memory usage per processor = 960.195 Mbytes
    Step    Atoms         KinEng            CPU 
33127553      232     0.33140876              0 
33333314      229     0.34540692      2032.1991 
Loop time of 2032.2 on 40 procs for 205761 steps with 229 atoms, finish time Wed Dec 28 17:07:48 2022


Pair  time (%) = 0.36275 (0.0178501)
Neigh time (%) = 10.204 (0.502114)
Comm  time (%) = 12.9891 (0.639165)
Outpt time (%) = 0.00370794 (0.00018246)
Other time (%) = 2008.64 (98.8407)

Nlocal:    5.725 ave 65 max 0 min
Histogram: 31 3 4 0 0 0 0 0 1 1
Nghost:    0.85 ave 11 max 0 min
Histogram: 36 0 0 0 1 1 1 0 0 1
Neighs:    0.025 ave 1 max 0 min
Histogram: 39 0 0 0 0 0 0 0 0 1

Total # of neighbors = 1
Ave neighs/atom = 0.00436681
Neighbor list builds = 12277
Dangerous builds = 102
Setting up run at Wed Dec 28 17:07:49 2022

Memory usage per processor = 960.195 Mbytes
    Step    Atoms         KinEng            CPU 
33333314      229     0.34540692              0 
33539075      227     0.31390459      2045.3377 
Loop time of 2045.34 on 40 procs for 205761 steps with 227 atoms, finish time Wed Dec 28 17:41:54 2022


Pair  time (%) = 0.36204 (0.0177008)
Neigh time (%) = 10.2625 (0.501749)
Comm  time (%) = 15.398 (0.752834)
Outpt time (%) = 0.000742047 (3.62799e-05)
Other time (%) = 2019.31 (98.7277)

Nlocal:    5.675 ave 62 max 0 min
Histogram: 31 2 4 1 0 0 0 0 0 2
Nghost:    0.925 ave 9 max 0 min
Histogram: 31 4 0 1 1 0 0 0 1 2
Neighs:    0.025 ave 1 max 0 min
Histogram: 39 0 0 0 0 0 0 0 0 1

Total # of neighbors = 1
Ave neighs/atom = 0.00440529
Neighbor list builds = 12336
Dangerous builds = 0
Setting up run at Wed Dec 28 17:41:54 2022

Memory usage per processor = 960.195 Mbytes
    Step    Atoms         KinEng            CPU 
33539075      227     0.31390459              0 
33744836      223     0.31802689      2048.7838 
slurmstepd: error: *** JOB 14676776 ON r03c23 CANCELLED AT 2022-12-28T20:33:46 DUE TO TIME LIMIT ***
srun: Job step aborted: Waiting up to 62 seconds for job step to finish.
slurmstepd: error: *** STEP 14676776.0 ON r03c23 CANCELLED AT 2022-12-28T20:33:46 DUE TO TIME LIMIT ***

SIGINT/SIGTERM caught - Writing restart on next occasion and quitting after that.

SIGINT/SIGTERM caught - Writing restart on next occasion and quitting after that.

SIGINT/SIGTERM caught - Writing restart on next occasion and quitting after that.
Loop time of 2048.78 on 40 procs for 205761 steps with 223 atoms, finish time Wed Dec
SIGINT/SIGTERM caught - Writing restart on next occasion and quitting after that.

SIGINT/SIGTERM caught - Writing restart on next occasion and quitting after that.

SIGINT/SIGTERM caught - Writing restart on next occasion and quitting after that.

SIGINT/SIGTERM caught - Writing restart on next occasion and quitting after that.

SIGINT/SIGTERM caught - Writing restart on next occasion and quitting after that.

SIGINT/SIGTERM caught - Writing restart on next occasion and quitting after that.

SIGINT/SIGTERM caught - Writing restart on next occasion and quitting after that.

SIGINT/SIGTERM caught - Writing restart on next occasion and quitting after that.

SIGINT/SIGTERM caught - Writing restart on next occasion and quitting after that.

SIGINT/SIGTERM caught - Writing restart on next occasion and quitting after that.

SIGINT/SIGTERM caught - Writing restart on next occasion and quitting after that.

SIGINT/SIGTERM caught - Writing restart on next occasion and quitting after that.

SIGINT/SIGTERM caught - Writing restart on next occasion and quitting after that.

SIGINT/SIGTERM caught - Writing restart on next occasion and quitting after that.

SIGINT/SIGTERM caught - Writing restart on next occasion and quitting after that.

SIGINT/SIGTERM caught - Writing restart on next occasion and quitting after that.

SIGINT/SIGTERM caught - Writing restart on next occasion and quitting after that.

SIGINT/SIGTERM caught - Writing restart on next occasion and quitting after that.

SIGINT/SIGTERM caught - Writing restart on next occasion and quitting after that.

SIGINT/SIGTERM caught - Writing restart on next occasion and quitting after that.

SIGINT/SIGTERM caught - Writing restart on next occasion and quitting after that.

SIGINT/SIGTERM caught - Writing restart on next occasion and quitting after that.

SIGINT/SIGTERM caught - Writing restart on next occasion and quitting after that.

SIGINT/SIGTERM caught - Writing restart on next occasion and quitting after that.

SIGINT/SIGTERM caught - Writing restart on next occasion and quitting after that.

SIGINT/SIGTERM caught - Writing restart on next occasion and quitting after that.

SIGINT/SIGTERM caught - Writing restart on next occasion and quitting after that.

SIGINT/SIGTERM caught - Writing restart on next occasion and quitting after that.

SIGINT/SIGTERM caught - Writing restart on next occasion and quitting after that.

SIGINT/SIGTERM caught - Writing restart on next occasion and quitting after that.

SIGINT/SIGTERM caught - Writing restart on next occasion and quitting after that.

SIGINT/SIGTERM caught - Writing restart on next occasion and quitting after that.

SIGINT/SIGTERM caught - Writing restart on next occasion and quitting after that.

SIGINT/SIGTERM caught - Writing restart on next occasion and quitting after that.

SIGINT/SIGTERM caught - Writing restart on next occasion and quitting after that.

SIGINT/SIGTERM caught - Writing restart on next occasion and quitting after that.

SIGINT/SIGTERM caught - Writing restart on next occasion and quitting after that.


Second SIGINT/SIGTERM caught - Force quitting.


Second SIGINT/SIGTERM caught - Force quitting.


Second SIGINT/SIGTERM caught - Force quitting.


Second SIGINT/SIGTERM caught - Force quitting.


Second SIGINT/SIGTERM caught - Force quitting.


Second SIGINT/SIGTERM caught - Force quitting.


Second SIGINT/SIGTERM caught - Force quitting.


Second SIGINT/SIGTERM caught - Force quitting.


Second SIGINT/SIGTERM caught - Force quitting.


Second SIGINT/SIGTERM caught - Force quitting.


Second SIGINT/SIGTERM caught - Force quitting.


Second SIGINT/SIGTERM caught - Force quitting.


Second SIGINT/SIGTERM caught - Force quitting.


Second SIGINT/SIGTERM caught - Force quitting.


Second SIGINT/SIGTERM caught - Force quitting.


Second SIGINT/SIGTERM caught - Force quitting.


Second SIGINT/SIGTERM caught - Force quitting.


Second SIGINT/SIGTERM caught - Force quitting.


Second SIGINT/SIGTERM caught - Force quitting.


Second SIGINT/SIGTERM caught - Force quitting.


Second SIGINT/SIGTERM caught - Force quitting.


Second SIGINT/SIGTERM caught - Force quitting.


Second SIGINT/SIGTERM caught - Force quitting.


Second SIGINT/SIGTERM caught - Force quitting.


Second SIGINT/SIGTERM caught - Force quitting.


Second SIGINT/SIGTERM caught - Force quitting.


Second SIGINT/SIGTERM caught - Force quitting.


Second SIGINT/SIGTERM caught - Force quitting.


Second SIGINT/SIGTERM caught - Force quitting.


Second SIGINT/SIGTERM caught - Force quitting.


Second SIGINT/SIGTERM caught - Force quitting.


Second SIGINT/SIGTERM caught - Force quitting.


Second SIGINT/SIGTERM caught - Force quitting.


Second SIGINT/SIGTERM caught - Force quitting.


Second SIGINT/SIGTERM caught - Force quitting.


Second SIGINT/SIGTERM caught - Force quitting.


Second SIGINT/SIGTERM caught - Force quitting.


Second SIGINT/SIGTERM caught - Force quitting.


Second SIGINT/SIGTERM caught - Force quitting.


Second SIGINT/SIGTERM caught - Force quitting.
