ITEM: TIMESTEP
1
ITEM: NUMBER OF ATOMS
305
ITEM: BOX BOUNDS ff ff ff
-0.150000 0.150000 
-0.150000 0.019332 
-0.150000 0.150000 
ITEM: ATOMS id type x y z radius vx vy vz
1 1 0.002172 0.003489 0.010007 0.001640 0.000000 -0.000588 0.000000 
2 1 0.012984 0.012537 0.000468 0.001640 0.000000 -0.000588 0.000000 
3 1 -0.004286 0.004558 -0.014320 0.001640 0.000000 -0.000588 0.000000 
4 1 -0.000172 0.006718 -0.003266 0.001640 0.000000 -0.000588 0.000000 
5 1 -0.003866 0.011717 -0.012959 0.001640 0.000000 -0.000588 0.000000 
6 1 -0.004963 0.007927 -0.008080 0.001640 0.000000 -0.000588 0.000000 
7 1 -0.007469 0.002359 0.004859 0.001640 0.000000 -0.000588 0.000000 
8 1 -0.003435 0.010897 -0.005090 0.001640 0.000000 -0.000588 0.000000 
9 1 -0.007668 0.010380 -0.002912 0.001640 0.000000 -0.000588 0.000000 
10 1 -0.002493 0.004830 0.000854 0.001640 0.000000 -0.000588 0.000000 
11 1 0.007451 0.006317 0.000078 0.001640 0.000000 -0.000588 0.000000 
12 1 -0.001078 -0.001205 0.003454 0.001640 0.000000 -0.000588 0.000000 
13 1 -0.008835 0.001721 0.012395 0.001640 0.000000 -0.000588 0.000000 
14 1 0.003632 0.011952 -0.010703 0.001640 0.000000 -0.000588 0.000000 
15 1 0.010337 0.007824 -0.001708 0.001640 0.000000 -0.000588 0.000000 
16 1 0.013566 -0.000157 0.003132 0.001640 0.000000 -0.000588 0.000000 
17 1 -0.008713 0.012274 0.001908 0.001640 0.000000 -0.000588 0.000000 
18 1 -0.001323 0.001392 -0.006126 0.001640 0.000000 -0.000588 0.000000 
19 1 0.003739 0.011945 0.008626 0.001640 0.000000 -0.000588 0.000000 
20 1 -0.001707 0.011520 0.009196 0.001640 0.000000 -0.000588 0.000000 
21 1 0.013129 0.004390 -0.005759 0.001640 0.000000 -0.000588 0.000000 
22 1 -0.008334 -0.001522 0.001150 0.001640 0.000000 -0.000588 0.000000 
23 1 0.007332 0.004690 -0.003583 0.001640 0.000000 -0.000588 0.000000 
24 1 0.007006 0.000018 -0.006884 0.001640 0.000000 -0.000588 0.000000 
25 1 0.007013 0.003215 0.009836 0.001640 0.000000 -0.000588 0.000000 
26 1 0.008831 0.006788 -0.010349 0.001640 0.000000 -0.000588 0.000000 
27 1 0.009461 0.006849 0.007837 0.001058 0.000000 -0.000588 0.000000 
28 1 -0.002320 -0.002170 -0.009680 0.001058 0.000000 -0.000588 0.000000 
29 1 0.009219 0.012860 0.006833 0.001058 0.000000 -0.000588 0.000000 
30 1 -0.004626 -0.001029 0.002362 0.001058 0.000000 -0.000588 0.000000 
31 1 0.006689 -0.000256 0.009585 0.001058 0.000000 -0.000588 0.000000 
32 1 0.010840 0.000985 0.008454 0.001058 0.000000 -0.000588 0.000000 
33 1 -0.013194 0.004995 -0.006197 0.001058 0.000000 -0.000588 0.000000 
34 1 -0.009847 -0.000765 0.008559 0.001058 0.000000 -0.000588 0.000000 
35 1 0.003305 0.002530 0.003449 0.001058 0.000000 -0.000588 0.000000 
36 1 0.001328 0.011424 -0.006360 0.001058 0.000000 -0.000588 0.000000 
37 1 0.000074 0.012111 -0.004448 0.001058 0.000000 -0.000588 0.000000 
38 1 -0.004765 0.005376 0.007325 0.001058 0.000000 -0.000588 0.000000 
39 1 0.002958 -0.000175 -0.012416 0.001058 0.000000 -0.000588 0.000000 
40 1 -0.010562 0.011707 0.010709 0.001058 0.000000 -0.000588 0.000000 
41 1 -0.013701 -0.000685 0.005224 0.001058 0.000000 -0.000588 0.000000 
42 1 -0.012845 0.011370 -0.000712 0.001058 0.000000 -0.000588 0.000000 
43 1 -0.005138 0.006230 0.002120 0.001058 0.000000 -0.000588 0.000000 
44 1 -0.001687 0.001982 -0.013653 0.001058 0.000000 -0.000588 0.000000 
45 1 0.010082 0.000245 0.004091 0.001058 0.000000 -0.000588 0.000000 
46 1 -0.008546 0.000569 0.006756 0.001058 0.000000 -0.000588 0.000000 
47 1 0.006699 0.004734 0.005883 0.001058 0.000000 -0.000588 0.000000 
48 1 -0.009725 0.006190 0.005089 0.001058 0.000000 -0.000588 0.000000 
49 1 0.001767 0.010873 0.011670 0.001058 0.000000 -0.000588 0.000000 
50 1 -0.012237 0.011284 -0.004721 0.001058 0.000000 -0.000588 0.000000 
51 1 0.000755 0.006160 0.014898 0.001058 0.000000 -0.000588 0.000000 
52 1 -0.011411 0.005398 -0.004952 0.001058 0.000000 -0.000588 0.000000 
53 1 -0.001703 0.007174 0.006160 0.001058 0.000000 -0.000588 0.000000 
54 1 -0.009716 0.001692 0.002779 0.001058 0.000000 -0.000588 0.000000 
55 1 -0.012867 0.008282 -0.002401 0.001058 0.000000 -0.000588 0.000000 
56 1 -0.001782 0.002090 0.000344 0.001058 0.000000 -0.000588 0.000000 
57 1 0.000014 0.007363 -0.015674 0.001058 0.000000 -0.000588 0.000000 
58 1 0.004584 0.006590 0.005554 0.001058 0.000000 -0.000588 0.000000 
59 1 -0.004942 0.001579 0.005528 0.001058 0.000000 -0.000588 0.000000 
60 1 -0.004844 0.001377 0.011798 0.001058 0.000000 -0.000588 0.000000 
61 1 0.010619 0.000331 -0.009864 0.001058 0.000000 -0.000588 0.000000 
62 1 -0.011490 0.008708 0.005193 0.001058 0.000000 -0.000588 0.000000 
63 1 0.003641 0.003779 -0.005569 0.001058 0.000000 -0.000588 0.000000 
64 1 -0.006177 0.011927 0.006545 0.001058 0.000000 -0.000588 0.000000 
65 1 0.007709 0.010992 0.009989 0.001058 0.000000 -0.000588 0.000000 
66 1 -0.004505 0.004430 0.010341 0.001058 0.000000 -0.000588 0.000000 
67 1 -0.010932 0.009150 0.001176 0.001058 0.000000 -0.000588 0.000000 
68 1 0.003332 0.010616 -0.004889 0.001058 0.000000 -0.000588 0.000000 
69 1 -0.007868 0.006781 -0.001863 0.001058 0.000000 -0.000588 0.000000 
70 1 -0.003926 0.000026 0.009687 0.001058 0.000000 -0.000588 0.000000 
71 1 0.005321 0.003972 -0.012467 0.001058 0.000000 -0.000588 0.000000 
72 1 0.014869 0.011074 0.004210 0.001058 0.000000 -0.000588 0.000000 
73 1 -0.001189 0.011708 0.006515 0.001058 0.000000 -0.000588 0.000000 
74 1 0.009255 0.008282 0.010506 0.001058 0.000000 -0.000588 0.000000 
75 1 -0.000465 0.010238 0.015551 0.001058 0.000000 -0.000588 0.000000 
76 1 -0.001203 0.002096 0.002609 0.001058 0.000000 -0.000588 0.000000 
77 1 0.011818 0.008654 -0.005560 0.001058 0.000000 -0.000588 0.000000 
78 1 0.015584 0.013205 0.000132 0.001058 0.000000 -0.000588 0.000000 
79 1 -0.009422 0.001889 -0.006923 0.001058 0.000000 -0.000588 0.000000 
80 1 -0.008361 0.008095 0.012594 0.001058 0.000000 -0.000588 0.000000 
81 1 0.001912 0.003576 0.013741 0.001058 0.000000 -0.000588 0.000000 
82 1 0.014717 0.001670 0.006036 0.001058 0.000000 -0.000588 0.000000 
83 1 0.013799 0.011183 -0.005439 0.001058 0.000000 -0.000588 0.000000 
84 1 0.008184 0.009321 -0.013668 0.001058 0.000000 -0.000588 0.000000 
85 1 -0.002198 0.008071 0.010984 0.001058 0.000000 -0.000588 0.000000 
86 1 -0.009394 0.004572 -0.004615 0.001058 0.000000 -0.000588 0.000000 
87 1 0.009662 0.011661 0.004577 0.001058 0.000000 -0.000588 0.000000 
88 1 -0.006843 -0.000534 -0.004603 0.001058 0.000000 -0.000588 0.000000 
89 1 0.008980 0.004660 -0.006049 0.001058 0.000000 -0.000588 0.000000 
90 1 -0.008381 0.001364 0.001024 0.001058 0.000000 -0.000588 0.000000 
91 1 0.007342 0.000637 -0.011981 0.001058 0.000000 -0.000588 0.000000 
92 1 0.009135 0.005761 0.012962 0.001058 0.000000 -0.000588 0.000000 
93 1 -0.011672 0.001274 0.000098 0.001058 0.000000 -0.000588 0.000000 
94 1 -0.003706 -0.000669 -0.003027 0.001058 0.000000 -0.000588 0.000000 
95 1 -0.009032 0.008701 -0.012506 0.001058 0.000000 -0.000588 0.000000 
96 1 -0.014683 0.003156 -0.000117 0.001058 0.000000 -0.000588 0.000000 
97 1 -0.011237 0.005653 -0.001440 0.001058 0.000000 -0.000588 0.000000 
98 1 -0.002128 0.012222 -0.007544 0.001058 0.000000 -0.000588 0.000000 
99 1 -0.000208 -0.000132 0.014718 0.001058 0.000000 -0.000588 0.000000 
100 1 0.005921 0.001505 -0.014270 0.001058 0.000000 -0.000588 0.000000 
101 1 -0.005911 0.001824 -0.010628 0.001058 0.000000 -0.000588 0.000000 
102 1 0.000459 0.003114 -0.002783 0.001058 0.000000 -0.000588 0.000000 
103 1 0.002629 -0.001084 0.002938 0.001058 0.000000 -0.000588 0.000000 
104 1 -0.008823 0.013013 -0.005124 0.001058 0.000000 -0.000588 0.000000 
105 1 -0.002540 0.008396 -0.002055 0.001058 0.000000 -0.000588 0.000000 
106 1 -0.007542 0.004073 -0.005618 0.001058 0.000000 -0.000588 0.000000 
107 1 0.010971 0.005647 0.002357 0.001058 0.000000 -0.000588 0.000000 
108 1 -0.006441 0.007490 0.010175 0.001058 0.000000 -0.000588 0.000000 
109 1 -0.005732 0.009721 0.011304 0.001058 0.000000 -0.000588 0.000000 
110 1 0.006459 0.010213 0.007445 0.001058 0.000000 -0.000588 0.000000 
111 1 -0.009207 0.009461 0.004742 0.001058 0.000000 -0.000588 0.000000 
112 1 -0.004183 0.012656 -0.000955 0.001058 0.000000 -0.000588 0.000000 
113 1 0.002450 0.011669 -0.013360 0.001058 0.000000 -0.000588 0.000000 
114 1 0.006357 0.003226 -0.009380 0.001058 0.000000 -0.000588 0.000000 
115 1 -0.012878 0.002975 0.007692 0.001058 0.000000 -0.000588 0.000000 
116 1 -0.001190 0.008057 -0.010246 0.001058 0.000000 -0.000588 0.000000 
117 1 -0.002975 0.004331 -0.011733 0.001058 0.000000 -0.000588 0.000000 
118 1 0.006558 0.006577 0.013233 0.001058 0.000000 -0.000588 0.000000 
119 1 0.006997 0.010506 0.003581 0.001058 0.000000 -0.000588 0.000000 
120 1 -0.000145 0.011956 0.003394 0.001058 0.000000 -0.000588 0.000000 
121 1 -0.013492 0.013145 0.008313 0.001058 0.000000 -0.000588 0.000000 
122 1 0.000520 0.011319 0.000361 0.001058 0.000000 -0.000588 0.000000 
123 1 0.013152 -0.000573 -0.002682 0.001058 0.000000 -0.000588 0.000000 
124 1 -0.013611 0.008573 0.005538 0.001058 0.000000 -0.000588 0.000000 
125 1 -0.012004 -0.001202 0.009853 0.001058 0.000000 -0.000588 0.000000 
126 1 -0.007195 0.004064 0.008791 0.001058 0.000000 -0.000588 0.000000 
127 1 0.001275 0.009019 0.003855 0.001058 0.000000 -0.000588 0.000000 
128 1 0.007579 0.009600 -0.006312 0.001058 0.000000 -0.000588 0.000000 
129 1 -0.004897 0.012212 0.010965 0.001058 0.000000 -0.000588 0.000000 
130 1 -0.003173 0.004400 -0.005708 0.001058 0.000000 -0.000588 0.000000 
131 1 -0.000959 -0.001541 0.012417 0.001058 0.000000 -0.000588 0.000000 
132 1 0.010471 0.002164 -0.004542 0.001058 0.000000 -0.000588 0.000000 
133 1 -0.001096 0.009034 0.012810 0.001058 0.000000 -0.000588 0.000000 
134 1 -0.007031 0.004058 -0.009032 0.001058 0.000000 -0.000588 0.000000 
135 1 -0.013496 0.002412 -0.003353 0.001058 0.000000 -0.000588 0.000000 
136 1 -0.014115 0.004729 0.003875 0.001058 0.000000 -0.000588 0.000000 
137 1 -0.014810 0.002092 0.003327 0.001058 0.000000 -0.000588 0.000000 
138 1 -0.008912 0.004278 -0.000862 0.001058 0.000000 -0.000588 0.000000 
139 1 0.008597 0.001187 0.005290 0.001058 0.000000 -0.000588 0.000000 
140 1 -0.001251 0.012645 0.013740 0.001058 0.000000 -0.000588 0.000000 
141 1 -0.003894 0.009611 0.005467 0.001058 0.000000 -0.000588 0.000000 
142 1 0.001341 -0.001622 -0.014713 0.001058 0.000000 -0.000588 0.000000 
143 1 -0.015098 0.001661 -0.001623 0.001058 0.000000 -0.000588 0.000000 
144 1 0.003247 -0.001221 -0.009042 0.001058 0.000000 -0.000588 0.000000 
145 1 0.002599 0.005265 -0.011929 0.001058 0.000000 -0.000588 0.000000 
146 1 -0.001560 0.000383 0.010678 0.001058 0.000000 -0.000588 0.000000 
147 1 -0.013621 0.005626 -0.002856 0.001058 0.000000 -0.000588 0.000000 
148 1 -0.005846 0.002903 -0.007271 0.001058 0.000000 -0.000588 0.000000 
149 1 0.001446 0.003384 0.002203 0.001058 0.000000 -0.000588 0.000000 
150 1 0.003256 0.005485 0.007333 0.001058 0.000000 -0.000588 0.000000 
151 1 0.008697 -0.000786 -0.000945 0.001058 0.000000 -0.000588 0.000000 
152 1 0.001376 0.006198 -0.005453 0.001058 0.000000 -0.000588 0.000000 
153 1 0.014729 0.008369 -0.002617 0.000291 0.000000 -0.000588 0.000000 
154 1 0.010685 0.004307 -0.004932 0.000291 0.000000 -0.000588 0.000000 
155 1 0.007574 0.002751 0.005778 0.000291 0.000000 -0.000588 0.000000 
156 1 -0.016349 0.007751 -0.002509 0.000291 0.000000 -0.000588 0.000000 
157 1 0.006175 -0.001887 0.011215 0.000291 0.000000 -0.000588 0.000000 
158 1 0.006653 -0.000779 0.001326 0.000291 0.000000 -0.000588 0.000000 
159 1 -0.006507 0.003369 -0.012640 0.000291 0.000000 -0.000588 0.000000 
160 1 -0.008928 0.004923 0.003809 0.000291 0.000000 -0.000588 0.000000 
161 1 -0.003677 0.010562 -0.003142 0.000291 0.000000 -0.000588 0.000000 
162 1 -0.014201 0.009986 -0.003882 0.000291 0.000000 -0.000588 0.000000 
163 1 0.010034 -0.002380 0.002765 0.000291 0.000000 -0.000588 0.000000 
164 1 -0.005200 0.009385 0.014245 0.000291 0.000000 -0.000588 0.000000 
165 1 0.006156 0.013298 -0.015157 0.000291 0.000000 -0.000588 0.000000 
166 1 0.010575 0.009520 -0.007722 0.000291 0.000000 -0.000588 0.000000 
167 1 -0.000389 0.007313 0.004762 0.000291 0.000000 -0.000588 0.000000 
168 1 -0.016439 0.013598 -0.001038 0.000291 0.000000 -0.000588 0.000000 
169 1 -0.001355 -0.002906 0.016552 0.000291 0.000000 -0.000588 0.000000 
170 1 -0.002930 0.009233 0.003860 0.000291 0.000000 -0.000588 0.000000 
171 1 -0.003548 0.006852 -0.015444 0.000291 0.000000 -0.000588 0.000000 
172 1 -0.009903 -0.000110 -0.011082 0.000291 0.000000 -0.000588 0.000000 
173 1 0.004812 0.011222 0.002517 0.000291 0.000000 -0.000588 0.000000 
174 1 0.008900 -0.001405 -0.006999 0.000291 0.000000 -0.000588 0.000000 
175 1 0.004754 0.006959 -0.007063 0.000291 0.000000 -0.000588 0.000000 
176 1 0.009308 -0.003007 -0.000416 0.000291 0.000000 -0.000588 0.000000 
177 1 0.005559 -0.002765 -0.003229 0.000291 0.000000 -0.000588 0.000000 
178 1 0.004693 0.001460 -0.010381 0.000291 0.000000 -0.000588 0.000000 
179 1 -0.004792 0.001189 0.002724 0.000291 0.000000 -0.000588 0.000000 
180 1 -0.011403 -0.000735 0.006122 0.000291 0.000000 -0.000588 0.000000 
181 1 0.001742 -0.002261 -0.011536 0.000291 0.000000 -0.000588 0.000000 
182 1 0.002644 0.001620 -0.002982 0.000291 0.000000 -0.000588 0.000000 
183 1 0.012465 -0.000644 0.010211 0.000291 0.000000 -0.000588 0.000000 
184 1 -0.004115 0.003047 -0.012970 0.000291 0.000000 -0.000588 0.000000 
185 1 0.007512 0.002113 -0.004043 0.000291 0.000000 -0.000588 0.000000 
186 1 0.005264 0.005193 -0.002386 0.000291 0.000000 -0.000588 0.000000 
187 1 0.001087 0.011016 0.005915 0.000291 0.000000 -0.000588 0.000000 
188 1 -0.000437 -0.002796 -0.006263 0.000291 0.000000 -0.000588 0.000000 
189 1 -0.009224 0.005582 0.012787 0.000291 0.000000 -0.000588 0.000000 
190 1 -0.001796 0.004610 0.010436 0.000291 0.000000 -0.000588 0.000000 
191 1 -0.010392 0.009944 -0.005262 0.000291 0.000000 -0.000588 0.000000 
192 1 0.001401 0.000417 0.005706 0.000291 0.000000 -0.000588 0.000000 
193 1 -0.006211 0.004848 0.006905 0.000291 0.000000 -0.000588 0.000000 
194 1 0.011218 0.006493 0.000328 0.000291 0.000000 -0.000588 0.000000 
195 1 -0.011054 0.012460 0.000789 0.000291 0.000000 -0.000588 0.000000 
196 1 0.012705 0.011031 -0.010476 0.000291 0.000000 -0.000588 0.000000 
197 1 -0.001816 0.000272 -0.002164 0.000291 0.000000 -0.000588 0.000000 
198 1 0.001465 0.007959 -0.012477 0.000291 0.000000 -0.000588 0.000000 
199 1 -0.005879 0.005171 0.000521 0.000291 0.000000 -0.000588 0.000000 
200 1 0.001598 0.005272 -0.015917 0.000291 0.000000 -0.000588 0.000000 
201 1 0.004141 0.002546 -0.001643 0.000291 0.000000 -0.000588 0.000000 
202 1 -0.006378 0.004693 0.001478 0.000291 0.000000 -0.000588 0.000000 
203 1 0.004059 -0.002875 0.013525 0.000291 0.000000 -0.000588 0.000000 
204 1 0.005625 0.001975 -0.006040 0.000291 0.000000 -0.000588 0.000000 
205 1 -0.000348 0.001685 0.010029 0.000291 0.000000 -0.000588 0.000000 
206 1 0.007499 0.004709 -0.014091 0.000291 0.000000 -0.000588 0.000000 
207 1 0.004344 0.008967 0.003581 0.000291 0.000000 -0.000588 0.000000 
208 1 0.005002 -0.000598 -0.004312 0.000291 0.000000 -0.000588 0.000000 
209 1 -0.002345 0.008654 -0.015511 0.000291 0.000000 -0.000588 0.000000 
210 1 0.001258 0.013284 -0.012517 0.000291 0.000000 -0.000588 0.000000 
211 1 -0.013851 -0.002525 -0.006364 0.000291 0.000000 -0.000588 0.000000 
212 1 -0.011581 0.013779 -0.011880 0.000291 0.000000 -0.000588 0.000000 
213 1 0.003423 0.006697 -0.006065 0.000291 0.000000 -0.000588 0.000000 
214 1 0.010451 0.013575 -0.010748 0.000291 0.000000 -0.000588 0.000000 
215 1 0.001179 0.002916 0.007467 0.000291 0.000000 -0.000588 0.000000 
216 1 0.001803 0.013637 0.010410 0.000291 0.000000 -0.000588 0.000000 
217 1 0.011983 0.006711 -0.006239 0.000291 0.000000 -0.000588 0.000000 
218 1 0.002378 0.008374 -0.013184 0.000291 0.000000 -0.000588 0.000000 
219 1 0.010064 0.004835 0.004311 0.000291 0.000000 -0.000588 0.000000 
220 1 -0.007297 0.001235 0.003049 0.000291 0.000000 -0.000588 0.000000 
221 1 -0.005567 0.001319 -0.009051 0.000291 0.000000 -0.000588 0.000000 
222 1 0.002361 0.004487 0.006466 0.000291 0.000000 -0.000588 0.000000 
223 1 -0.007428 0.004509 0.005665 0.000291 0.000000 -0.000588 0.000000 
224 1 0.005899 0.012900 -0.000534 0.000291 0.000000 -0.000588 0.000000 
225 1 -0.010060 0.007998 -0.011926 0.000291 0.000000 -0.000588 0.000000 
226 1 -0.013164 0.003658 0.001584 0.000291 0.000000 -0.000588 0.000000 
227 1 0.001757 0.002297 -0.008127 0.000291 0.000000 -0.000588 0.000000 
228 1 -0.007471 0.013725 -0.009174 0.000291 0.000000 -0.000588 0.000000 
229 1 0.009440 0.010198 -0.002109 0.000291 0.000000 -0.000588 0.000000 
230 1 -0.003052 0.008095 -0.010232 0.000291 0.000000 -0.000588 0.000000 
231 1 -0.008593 -0.000024 -0.012306 0.000291 0.000000 -0.000588 0.000000 
232 1 0.008036 0.000265 -0.000368 0.000291 0.000000 -0.000588 0.000000 
233 1 0.005303 0.000568 0.000727 0.000291 0.000000 -0.000588 0.000000 
234 1 -0.001193 0.011819 0.000108 0.000291 0.000000 -0.000588 0.000000 
235 1 0.002277 0.007536 -0.015181 0.000291 0.000000 -0.000588 0.000000 
236 1 -0.013674 0.010886 -0.004231 0.000291 0.000000 -0.000588 0.000000 
237 1 -0.004418 0.007837 -0.001848 0.000291 0.000000 -0.000588 0.000000 
238 1 0.000922 -0.001225 0.016619 0.000291 0.000000 -0.000588 0.000000 
239 1 0.008771 -0.002538 -0.012385 0.000291 0.000000 -0.000588 0.000000 
240 1 -0.012709 0.013266 0.009818 0.000291 0.000000 -0.000588 0.000000 
241 1 -0.008475 0.013607 -0.002976 0.000291 0.000000 -0.000588 0.000000 
242 1 0.012888 -0.001384 0.009988 0.000291 0.000000 -0.000588 0.000000 
243 1 -0.005085 -0.000990 -0.002724 0.000291 0.000000 -0.000588 0.000000 
244 1 0.006221 0.006062 0.002762 0.000291 0.000000 -0.000588 0.000000 
245 1 0.011011 0.000358 -0.005294 0.000291 0.000000 -0.000588 0.000000 
246 1 -0.011528 0.009302 -0.010748 0.000291 0.000000 -0.000588 0.000000 
247 1 -0.011710 0.013734 0.010340 0.000291 0.000000 -0.000588 0.000000 
248 1 -0.010157 -0.000676 0.004282 0.000291 0.000000 -0.000588 0.000000 
249 1 0.000014 0.012630 0.007319 0.000291 0.000000 -0.000588 0.000000 
250 1 0.014214 0.013501 0.005058 0.000291 0.000000 -0.000588 0.000000 
251 1 0.010454 -0.000604 -0.001717 0.000291 0.000000 -0.000588 0.000000 
252 1 0.006942 0.008638 0.013027 0.000291 0.000000 -0.000588 0.000000 
253 1 0.005979 0.007191 0.011270 0.000291 0.000000 -0.000588 0.000000 
254 1 -0.009474 0.001922 0.008964 0.000291 0.000000 -0.000588 0.000000 
255 1 -0.002296 -0.002744 0.011353 0.000291 0.000000 -0.000588 0.000000 
256 1 -0.006868 -0.000487 0.003500 0.000291 0.000000 -0.000588 0.000000 
257 1 -0.004812 0.001339 -0.000294 0.000291 0.000000 -0.000588 0.000000 
258 1 0.013105 0.003654 0.003332 0.000291 0.000000 -0.000588 0.000000 
259 1 -0.005422 -0.002527 -0.014895 0.000291 0.000000 -0.000588 0.000000 
260 1 -0.012707 0.013880 -0.005880 0.000291 0.000000 -0.000588 0.000000 
261 1 -0.007283 -0.001884 -0.005140 0.000291 0.000000 -0.000588 0.000000 
262 1 -0.013247 0.009342 -0.008751 0.000291 0.000000 -0.000588 0.000000 
263 1 0.014810 0.003187 0.000242 0.000291 0.000000 -0.000588 0.000000 
264 1 -0.010800 0.006025 0.001549 0.000291 0.000000 -0.000588 0.000000 
265 1 0.014464 0.010011 -0.004562 0.000291 0.000000 -0.000588 0.000000 
266 1 0.000324 0.006173 0.006532 0.000291 0.000000 -0.000588 0.000000 
267 1 -0.008446 0.002312 -0.004092 0.000291 0.000000 -0.000588 0.000000 
268 1 0.006551 -0.001445 -0.004504 0.000291 0.000000 -0.000588 0.000000 
269 1 0.010294 0.003996 0.010090 0.000291 0.000000 -0.000588 0.000000 
270 1 -0.001066 0.001852 0.007831 0.000291 0.000000 -0.000588 0.000000 
271 1 -0.003848 0.009872 0.003544 0.000291 0.000000 -0.000588 0.000000 
272 1 -0.007109 0.009394 0.012591 0.000291 0.000000 -0.000588 0.000000 
273 1 -0.010193 0.011987 -0.003721 0.000291 0.000000 -0.000588 0.000000 
274 1 0.006877 0.006792 -0.012319 0.000291 0.000000 -0.000588 0.000000 
275 1 -0.006476 0.003827 -0.003483 0.000291 0.000000 -0.000588 0.000000 
276 1 0.015014 0.003565 0.001212 0.000291 0.000000 -0.000588 0.000000 
277 1 0.014191 0.012891 -0.005949 0.000291 0.000000 -0.000588 0.000000 
278 1 -0.008194 0.013985 0.004767 0.000291 0.000000 -0.000588 0.000000 
279 1 0.003487 0.011923 0.011695 0.000105 0.000000 -0.000588 0.000000 
280 1 0.007934 0.003493 0.005234 0.000105 0.000000 -0.000588 0.000000 
281 1 0.000989 0.000396 -0.003690 0.000105 0.000000 -0.000588 0.000000 
282 1 0.006364 0.000671 -0.005251 0.000105 0.000000 -0.000588 0.000000 
283 1 0.005464 0.010588 0.005551 0.000105 0.000000 -0.000588 0.000000 
284 1 -0.005217 0.011029 -0.009972 0.000105 0.000000 -0.000588 0.000000 
285 1 0.002884 0.000543 -0.006462 0.000105 0.000000 -0.000588 0.000000 
286 1 0.009671 0.010792 0.000233 0.000105 0.000000 -0.000588 0.000000 
287 1 0.004590 0.001325 0.000864 0.000105 0.000000 -0.000588 0.000000 
288 1 -0.001837 0.002277 0.007035 0.000105 0.000000 -0.000588 0.000000 
289 1 0.013289 0.001300 -0.000624 0.000105 0.000000 -0.000588 0.000000 
290 1 -0.014935 0.011936 0.000390 0.000105 0.000000 -0.000588 0.000000 
291 1 0.002864 0.004824 -0.002457 0.000105 0.000000 -0.000588 0.000000 
292 1 0.009869 0.004954 0.000788 0.000105 0.000000 -0.000588 0.000000 
293 1 -0.014089 0.010668 -0.003012 0.000105 0.000000 -0.000588 0.000000 
294 1 0.013668 0.013824 0.007002 0.000105 0.000000 -0.000588 0.000000 
295 1 -0.016055 0.009238 0.000189 0.000105 0.000000 -0.000588 0.000000 
296 1 0.003610 0.012499 0.000511 0.000105 0.000000 -0.000588 0.000000 
297 1 0.002479 0.007583 0.002558 0.000105 0.000000 -0.000588 0.000000 
298 1 -0.011054 0.013900 -0.008779 0.000105 0.000000 -0.000588 0.000000 
299 1 0.010888 0.001581 0.004350 0.000105 0.000000 -0.000588 0.000000 
300 1 0.004468 0.006395 -0.014641 0.000105 0.000000 -0.000588 0.000000 
301 1 -0.007536 0.007036 0.001389 0.000105 0.000000 -0.000588 0.000000 
302 1 -0.003983 0.010575 0.002552 0.000105 0.000000 -0.000588 0.000000 
303 1 0.009563 0.001793 0.012192 0.000105 0.000000 -0.000588 0.000000 
304 1 0.012227 -0.001828 0.006398 0.000105 0.000000 -0.000588 0.000000 
305 1 -0.012172 0.002602 -0.006974 0.000105 0.000000 -0.000588 0.000000 
