LIGGGHTS (Version LIGGGHTS-PUBLIC 3.8.0, compiled 2022-11-07-16:55:38 by serperd1, git commit 86544c3f1215bc9744d7929e3eacf53ba086af9e)
units si #
dimension 3 #
newton off #
boundary f f f #
atom_style sphere #
pair_style gran model hertz tangential history #
communicate single vel yes #
region outer_basket cylinder y 0 0 0.15 -0.15 0.15 #
create_box 3 outer_basket #
Created orthogonal box = (-0.15 -0.15 -0.15) to (0.15 0.15 0.15)
  2 by 4 by 5 MPI processor grid
variable my_omega equal 157.0796 #
fix cone_mesh all mesh/surface file cone.stl type 3 scale 1 #
fix rotating_wall_1 all move/mesh mesh cone_mesh rotate/variable origin 0 0 0 axis 0 1 0 omega v_my_omega #
fix filter_mesh_walls all wall/gran model hertz tangential history primitive type 2 ycylinder_filtermesh 0.069 0 0 3 18 -0.0628 0 0.016051 0.01395 0.11605 0.11395 shear x 10.8385 #

fix inlet_cyl_wall_mesh all mesh/surface file in_cyl.stl type 3 scale 1 #
fix top_cyl_wall_mesh all mesh/surface file top_cyl.stl type 3 scale 1 #
fix rotating_wall_4 all move/mesh mesh top_cyl_wall_mesh rotate/variable origin 0 0 0 axis 0 1 0 omega v_my_omega #
fix bot_cyl_wall_mesh all mesh/surface file bot_cyl.stl type 3 scale 1 #
fix rotating_wall_5 all move/mesh mesh bot_cyl_wall_mesh rotate/variable origin 0 0 0 axis 0 1 0 omega v_my_omega #
fix bot_disk_wall_mesh all mesh/surface file bottom_disk.stl type 3 scale 1 #
fix rotating_wall_6 all move/mesh mesh bot_disk_wall_mesh rotate/variable origin 0 0 0 axis 0 1 0 omega v_my_omega #
fix top_disk_wall_mesh all mesh/surface file top_disk.stl type 3 scale 1 #
fix rotating_wall_7 all move/mesh mesh top_disk_wall_mesh rotate/variable origin 0 0 0 axis 0 1 0 omega v_my_omega #
fix GMSH_mesh_walls all wall/gran model hertz tangential history mesh n_meshes 6 meshes cone_mesh top_cyl_wall_mesh bot_cyl_wall_mesh bot_disk_wall_mesh inlet_cyl_wall_mesh top_disk_wall_mesh #
fix Young_mod all property/global youngsModulus peratomtype 375000000 46000000 1000000000 #
fix Poisson_rat all property/global poissonsRatio peratomtype 0.32 0.42 0.29 #
fix Coeff_rest all property/global coefficientRestitution peratomtypepair 3 0.15 0.32 0.475 0.32 0.49 0.645 0.475 0.645 0.8 #
fix Coeff_fric all property/global coefficientFriction peratomtypepair 3 0.04 0.145 0.12 0.145 0.25 0.225 0.12 0.225 0.2 #

neighbor 0.00026244 bin #
neigh_modify delay 0 one 100000 page 5000000 #
fix r_0to10p all particletemplate/sphere 12345787 atom_type 1 density constant 2650 radius constant 4.2e-05 #
fix r_10to50p all particletemplate/sphere 15485863 atom_type 1 density constant 2650 radius constant 0.0001164 #
fix r_50to90p all particletemplate/sphere 15485867 atom_type 1 density constant 2650 radius constant 0.0004233 #
fix r_90to100p all particletemplate/sphere 32452843 atom_type 1 density constant 2650 radius constant 0.0006561 #
fix prob_par all particledistribution/discrete 32452867 4 r_0to10p 0.1 r_10to50p 0.4 r_50to90p 0.4 r_90to100p 0.1 #
pair_coeff * * #
timestep 3.24e-08 #

fix nve_group all nve/sphere #
fix grav_fix all gravity 6.1081 vector 0.017 -0.0033 0 -1 0 #
fix cent_fix all centrifugal 157.0796 0.017 -0.0033 0.069 #

variable step equal step #
variable mycount equal count(all) #
fix print_amount_of_atoms all print 25 "${step} ${mycount}" file numatoms.txt screen no #
run 0 #
Setting up run at Fri Dec 23 23:10:26 2022

Memory usage per processor = 960.256 Mbytes
    Step    Atoms         KinEng            CPU 
       0        0              0              0 
Loop time of 4.75504e-05 on 40 procs for 0 steps with 0 atoms, finish time Fri Dec 23 23:10:26 2022


Pair  time (%) = 0 (0)
Neigh time (%) = 0 (0)
Comm  time (%) = 0 (0)
Outpt time (%) = 0 (0)
Other time (%) = 4.75504e-05 (100)

Nlocal:    0 ave 0 max 0 min
Histogram: 40 0 0 0 0 0 0 0 0 0
Nghost:    0 ave 0 max 0 min
Histogram: 40 0 0 0 0 0 0 0 0 0
Neighs:    0 ave 0 max 0 min
Histogram: 40 0 0 0 0 0 0 0 0 0

Total # of neighbors = 0
Neighbor list builds = 0
Dangerous builds = 0
run 1 #
Setting up run at Fri Dec 23 23:10:26 2022

Memory usage per processor = 960.256 Mbytes
    Step    Atoms         KinEng            CPU 
       0        0              0              0 
       1        0              0    0.009673896 
Loop time of 0.00970361 on 40 procs for 1 steps with 0 atoms, finish time Fri Dec 23 23:10:26 2022


Pair  time (%) = 2.5303e-06 (0.0260759)
Neigh time (%) = 0 (0)
Comm  time (%) = 0.000181466 (1.87009)
Outpt time (%) = 8.15614e-05 (0.840527)
Other time (%) = 0.00943805 (97.2633)

Nlocal:    0 ave 0 max 0 min
Histogram: 40 0 0 0 0 0 0 0 0 0
Nghost:    0 ave 0 max 0 min
Histogram: 40 0 0 0 0 0 0 0 0 0
Neighs:    0 ave 0 max 0 min
Histogram: 40 0 0 0 0 0 0 0 0 0

Total # of neighbors = 0
Neighbor list builds = 0
Dangerous builds = 0
read_dump dump.atom_info_1 1 x y z radius vx vy vz box no add yes replace no #
  orthogonal box = (-0.15 -0.15 -0.15) to (0.15 0.15 0.15)
  0 atoms before read
  4382 atoms in snapshot
  0 atoms purged
  0 atoms replaced
  0 atoms trimmed
  4382 atoms added
  4382 atoms after read
set atom * type 1 density 2650 vy -0.01175 #
  4382 settings made for type
  4382 settings made for density
  4382 settings made for vy
run 1 #
Setting up run at Fri Dec 23 23:10:26 2022

Memory usage per processor = 964.609 Mbytes
    Step    Atoms         KinEng            CPU 
       1     4382  2.0405663e-07              0 
       2     4382  2.5286639e-06    0.009378485 
Loop time of 0.00939362 on 40 procs for 1 steps with 4382 atoms, finish time Fri Dec 23 23:10:26 2022


Pair  time (%) = 4.43027e-06 (0.0471626)
Neigh time (%) = 0 (0)
Comm  time (%) = 8.87855e-06 (0.0945168)
Outpt time (%) = 0.000261189 (2.7805)
Other time (%) = 0.00911912 (97.0778)

Nlocal:    109.55 ave 1816 max 0 min
Histogram: 36 0 2 0 0 0 0 0 0 2
Nghost:    27.3 ave 345 max 0 min
Histogram: 36 0 0 0 0 1 1 0 0 2
Neighs:    35.525 ave 600 max 0 min
Histogram: 36 0 2 0 0 0 0 0 0 2

Total # of neighbors = 1421
Ave neighs/atom = 0.324281
Neighbor list builds = 0
Dangerous builds = 0
write_dump all custom dump.atom_info_ac_* id type x y z radius vx vy vz density #
run 308641
Setting up run at Fri Dec 23 23:10:26 2022

Memory usage per processor = 964.609 Mbytes
    Step    Atoms         KinEng            CPU 
       2     4382  2.5286639e-06              0 
  308643     4382  0.00030849076      3070.0133 
Loop time of 3070.01 on 40 procs for 308641 steps with 4382 atoms, finish time Sat Dec 24 00:01:36 2022


Pair  time (%) = 1.27519 (0.0415368)
Neigh time (%) = 4.17034 (0.135841)
Comm  time (%) = 3.98027 (0.12965)
Outpt time (%) = 0.000329109 (1.07201e-05)
Other time (%) = 3060.59 (99.693)

Nlocal:    109.55 ave 1780 max 0 min
Histogram: 36 0 2 0 0 0 0 0 0 2
Nghost:    28.15 ave 360 max 0 min
Histogram: 36 0 0 0 0 1 1 0 0 2
Neighs:    39.35 ave 668 max 0 min
Histogram: 36 0 2 0 0 0 0 0 0 2

Total # of neighbors = 1574
Ave neighs/atom = 0.359197
Neighbor list builds = 1630
Dangerous builds = 0
write_dump all custom dump.atom_info_ac_* id type x y z radius vx vy vz density #
run 308641
Setting up run at Sat Dec 24 00:01:36 2022

Memory usage per processor = 964.609 Mbytes
    Step    Atoms         KinEng            CPU 
  308643     4382  0.00030849076              0 
  617284     4379  0.00035863772      3061.1086 
Loop time of 3061.11 on 40 procs for 308641 steps with 4379 atoms, finish time Sat Dec 24 00:52:37 2022


Pair  time (%) = 1.30013 (0.0424726)
Neigh time (%) = 3.27048 (0.10684)
Comm  time (%) = 4.20727 (0.137443)
Outpt time (%) = 0.000700056 (2.28693e-05)
Other time (%) = 3052.33 (99.7132)

Nlocal:    109.475 ave 1746 max 0 min
Histogram: 36 0 2 0 0 0 0 0 0 2
Nghost:    26.625 ave 327 max 0 min
Histogram: 36 0 0 0 0 0 2 0 0 2
Neighs:    41.175 ave 673 max 0 min
Histogram: 36 0 2 0 0 0 0 0 0 2

Total # of neighbors = 1647
Ave neighs/atom = 0.376113
Neighbor list builds = 1281
Dangerous builds = 1
write_dump all custom dump.atom_info_ac_* id type x y z radius vx vy vz density #
run 308641
Setting up run at Sat Dec 24 00:52:38 2022

Memory usage per processor = 964.609 Mbytes
    Step    Atoms         KinEng            CPU 
  617284     4379  0.00035863772              0 
  925925     4368     0.01540124       3140.749 
Loop time of 3140.75 on 40 procs for 308641 steps with 4368 atoms, finish time Sat Dec 24 01:44:58 2022


Pair  time (%) = 1.31546 (0.0418837)
Neigh time (%) = 20.31 (0.646661)
Comm  time (%) = 10.8445 (0.345284)
Outpt time (%) = 0.000825177 (2.62733e-05)
Other time (%) = 3108.28 (98.9661)

Nlocal:    109.2 ave 1729 max 0 min
Histogram: 36 0 2 0 0 0 0 0 0 2
Nghost:    24.525 ave 304 max 0 min
Histogram: 36 0 0 0 0 1 1 0 0 2
Neighs:    40.525 ave 658 max 0 min
Histogram: 36 0 2 0 0 0 0 0 0 2

Total # of neighbors = 1621
Ave neighs/atom = 0.371108
Neighbor list builds = 7657
Dangerous builds = 248
write_dump all custom dump.atom_info_ac_* id type x y z radius vx vy vz density #
run 308641
Setting up run at Sat Dec 24 01:44:58 2022

Memory usage per processor = 964.609 Mbytes
    Step    Atoms         KinEng            CPU 
  925925     4368     0.01540124              0 
 1234566     4360     0.11168296      3195.0475 
Loop time of 3195.05 on 40 procs for 308641 steps with 4360 atoms, finish time Sat Dec 24 02:38:13 2022


Pair  time (%) = 1.31238 (0.0410754)
Neigh time (%) = 29.1486 (0.912305)
Comm  time (%) = 14.7502 (0.461657)
Outpt time (%) = 0.000684447 (2.14221e-05)
Other time (%) = 3149.84 (98.5849)

Nlocal:    109 ave 1704 max 0 min
Histogram: 36 0 2 0 0 0 0 0 0 2
Nghost:    23.65 ave 293 max 0 min
Histogram: 36 0 0 0 0 1 1 0 0 2
Neighs:    37.925 ave 630 max 0 min
Histogram: 36 1 1 0 0 0 0 0 0 2

Total # of neighbors = 1517
Ave neighs/atom = 0.347936
Neighbor list builds = 10940
Dangerous builds = 35
write_dump all custom dump.atom_info_ac_* id type x y z radius vx vy vz density #
run 308641
Setting up run at Sat Dec 24 02:38:13 2022

Memory usage per processor = 964.609 Mbytes
    Step    Atoms         KinEng            CPU 
 1234566     4360     0.11168296              0 
 1543207     4344    0.031075992      3215.4057 
Loop time of 3215.41 on 40 procs for 308641 steps with 4344 atoms, finish time Sat Dec 24 03:31:49 2022


Pair  time (%) = 1.30083 (0.0404561)
Neigh time (%) = 35.5382 (1.10525)
Comm  time (%) = 18.2225 (0.566726)
Outpt time (%) = 0.000652586 (2.02956e-05)
Other time (%) = 3160.34 (98.2875)

Nlocal:    108.6 ave 1666 max 0 min
Histogram: 36 0 2 0 0 0 0 0 0 2
Nghost:    23.15 ave 299 max 0 min
Histogram: 36 0 0 0 0 2 0 0 0 2
Neighs:    38.675 ave 638 max 0 min
Histogram: 36 0 2 0 0 0 0 0 0 2

Total # of neighbors = 1547
Ave neighs/atom = 0.356123
Neighbor list builds = 13336
Dangerous builds = 513
write_dump all custom dump.atom_info_ac_* id type x y z radius vx vy vz density #
run 308641
Setting up run at Sat Dec 24 03:31:49 2022

Memory usage per processor = 964.609 Mbytes
    Step    Atoms         KinEng            CPU 
 1543207     4344    0.031075992              0 
 1851848     4317    0.049054979      3282.3842 
Loop time of 3282.38 on 40 procs for 308641 steps with 4317 atoms, finish time Sat Dec 24 04:26:31 2022


Pair  time (%) = 1.31371 (0.0400231)
Neigh time (%) = 48.5696 (1.47971)
Comm  time (%) = 28.1202 (0.856701)
Outpt time (%) = 0.000678632 (2.0675e-05)
Other time (%) = 3204.38 (97.6236)

Nlocal:    107.925 ave 1652 max 0 min
Histogram: 36 0 2 0 0 0 0 0 0 2
Nghost:    22.75 ave 292 max 0 min
Histogram: 36 0 0 0 0 2 0 0 0 2
Neighs:    38.6 ave 630 max 0 min
Histogram: 36 1 1 0 0 0 0 0 0 2

Total # of neighbors = 1544
Ave neighs/atom = 0.357656
Neighbor list builds = 18218
Dangerous builds = 2970
write_dump all custom dump.atom_info_ac_* id type x y z radius vx vy vz density #
run 308641
Setting up run at Sat Dec 24 04:26:31 2022

Memory usage per processor = 964.609 Mbytes
    Step    Atoms         KinEng            CPU 
 1851848     4317    0.049054979              0 
 2160489     4290    0.054977099       3363.502 
Loop time of 3363.5 on 40 procs for 308641 steps with 4290 atoms, finish time Sat Dec 24 05:22:35 2022


Pair  time (%) = 1.31757 (0.0391724)
Neigh time (%) = 65.1014 (1.93552)
Comm  time (%) = 38.2948 (1.13854)
Outpt time (%) = 0.000364681 (1.08423e-05)
Other time (%) = 3258.79 (96.8868)

Nlocal:    107.25 ave 1649 max 0 min
Histogram: 36 0 2 0 0 0 0 0 0 2
Nghost:    21.925 ave 271 max 0 min
Histogram: 36 0 0 0 0 1 1 0 0 2
Neighs:    36.425 ave 621 max 0 min
Histogram: 36 1 1 0 0 0 0 0 0 2

Total # of neighbors = 1457
Ave neighs/atom = 0.339627
Neighbor list builds = 24351
Dangerous builds = 2226
write_dump all custom dump.atom_info_ac_* id type x y z radius vx vy vz density #
run 308641
Setting up run at Sat Dec 24 05:22:35 2022

Memory usage per processor = 964.609 Mbytes
    Step    Atoms         KinEng            CPU 
 2160489     4290    0.054977099              0 
 2469130     4259     0.17588745      3349.8883 
Loop time of 3349.89 on 40 procs for 308641 steps with 4259 atoms, finish time Sat Dec 24 06:18:25 2022


Pair  time (%) = 1.30275 (0.0388894)
Neigh time (%) = 62.8955 (1.87754)
Comm  time (%) = 39.292 (1.17293)
Outpt time (%) = 0.000695838 (2.0772e-05)
Other time (%) = 3246.4 (96.9106)

Nlocal:    106.475 ave 1632 max 0 min
Histogram: 36 0 2 0 0 0 0 0 0 2
Nghost:    22.125 ave 277 max 0 min
Histogram: 36 0 0 0 0 2 0 0 0 2
Neighs:    36.825 ave 628 max 0 min
Histogram: 36 1 1 0 0 0 0 0 0 2

Total # of neighbors = 1473
Ave neighs/atom = 0.345856
Neighbor list builds = 23523
Dangerous builds = 1480
write_dump all custom dump.atom_info_ac_* id type x y z radius vx vy vz density #
run 308641
Setting up run at Sat Dec 24 06:18:25 2022

Memory usage per processor = 964.609 Mbytes
    Step    Atoms         KinEng            CPU 
 2469130     4259     0.17588745              0 
 2777771     4217     0.58245026      3486.2729 
Loop time of 3486.27 on 40 procs for 308641 steps with 4217 atoms, finish time Sat Dec 24 07:16:31 2022


Pair  time (%) = 1.32896 (0.0381199)
Neigh time (%) = 89.7935 (2.57563)
Comm  time (%) = 65.0258 (1.86519)
Outpt time (%) = 0.000734292 (2.10624e-05)
Other time (%) = 3330.12 (95.521)

Nlocal:    105.425 ave 1641 max 0 min
Histogram: 36 0 2 0 0 0 0 0 0 2
Nghost:    20.725 ave 254 max 0 min
Histogram: 36 0 0 0 0 0 2 0 0 2
Neighs:    37.525 ave 663 max 0 min
Histogram: 36 2 0 0 0 0 0 0 0 2

Total # of neighbors = 1501
Ave neighs/atom = 0.35594
Neighbor list builds = 33566
Dangerous builds = 3974
write_dump all custom dump.atom_info_ac_* id type x y z radius vx vy vz density #
run 308641
Setting up run at Sat Dec 24 07:16:31 2022

Memory usage per processor = 964.609 Mbytes
    Step    Atoms         KinEng            CPU 
 2777771     4217     0.58245026              0 
 3086412     4151     0.32805588      3513.6259 
Loop time of 3513.63 on 40 procs for 308641 steps with 4151 atoms, finish time Sat Dec 24 08:15:05 2022


Pair  time (%) = 1.32985 (0.0378484)
Neigh time (%) = 94.8754 (2.70021)
Comm  time (%) = 65.5107 (1.86447)
Outpt time (%) = 0.00074339 (2.11573e-05)
Other time (%) = 3351.91 (95.3974)

Nlocal:    103.775 ave 1639 max 0 min
Histogram: 36 0 2 0 0 0 0 0 0 2
Nghost:    20.875 ave 257 max 0 min
Histogram: 36 0 0 0 0 1 1 0 0 2
Neighs:    36.925 ave 658 max 0 min
Histogram: 36 2 0 0 0 0 0 0 1 1

Total # of neighbors = 1477
Ave neighs/atom = 0.355818
Neighbor list builds = 35461
Dangerous builds = 3903
write_dump all custom dump.atom_info_ac_* id type x y z radius vx vy vz density #
run 308641
Setting up run at Sat Dec 24 08:15:05 2022

Memory usage per processor = 964.609 Mbytes
    Step    Atoms         KinEng            CPU 
 3086412     4151     0.32805588              0 
 3395053     4081      0.3886813      3561.7155 
Loop time of 3561.72 on 40 procs for 308641 steps with 4081 atoms, finish time Sat Dec 24 09:14:27 2022


Pair  time (%) = 1.30263 (0.0365731)
Neigh time (%) = 105.463 (2.96102)
Comm  time (%) = 82.659 (2.32076)
Outpt time (%) = 0.000712245 (1.99972e-05)
Other time (%) = 3372.29 (94.6816)

Nlocal:    102.025 ave 1632 max 0 min
Histogram: 36 0 2 0 0 0 0 0 0 2
Nghost:    19.15 ave 235 max 0 min
Histogram: 36 0 0 0 0 1 1 0 0 2
Neighs:    36.025 ave 649 max 0 min
Histogram: 36 2 0 0 0 0 0 0 1 1

Total # of neighbors = 1441
Ave neighs/atom = 0.3531
Neighbor list builds = 39427
Dangerous builds = 4863
write_dump all custom dump.atom_info_ac_* id type x y z radius vx vy vz density #
run 308641
Setting up run at Sat Dec 24 09:14:27 2022

Memory usage per processor = 964.609 Mbytes
    Step    Atoms         KinEng            CPU 
 3395053     4081      0.3886813              0 
 3703694     4024     0.42122422      3471.5926 
Loop time of 3471.59 on 40 procs for 308641 steps with 4024 atoms, finish time Sat Dec 24 10:12:18 2022


Pair  time (%) = 1.26165 (0.0363422)
Neigh time (%) = 88.2322 (2.54155)
Comm  time (%) = 69.7527 (2.00924)
Outpt time (%) = 0.000715566 (2.0612e-05)
Other time (%) = 3312.35 (95.4128)

Nlocal:    100.6 ave 1617 max 0 min
Histogram: 36 1 1 0 0 0 0 0 0 2
Nghost:    18.475 ave 237 max 0 min
Histogram: 36 0 0 0 0 2 0 0 0 2
Neighs:    34.375 ave 651 max 0 min
Histogram: 36 2 0 0 0 0 0 0 1 1

Total # of neighbors = 1375
Ave neighs/atom = 0.3417
Neighbor list builds = 32972
Dangerous builds = 2555
write_dump all custom dump.atom_info_ac_* id type x y z radius vx vy vz density #
run 308641
Setting up run at Sat Dec 24 10:12:19 2022

Memory usage per processor = 964.609 Mbytes
    Step    Atoms         KinEng            CPU 
 3703694     4024     0.42122422              0 
 4012335     3954      0.3207863      3512.0847 
Loop time of 3512.09 on 40 procs for 308641 steps with 3954 atoms, finish time Sat Dec 24 11:10:51 2022


Pair  time (%) = 1.26183 (0.0359283)
Neigh time (%) = 96.9314 (2.75994)
Comm  time (%) = 70.0807 (1.99542)
Outpt time (%) = 0.00063996 (1.82216e-05)
Other time (%) = 3343.81 (95.2087)

Nlocal:    98.85 ave 1611 max 0 min
Histogram: 36 1 1 0 0 0 0 0 0 2
Nghost:    16.925 ave 206 max 0 min
Histogram: 36 0 0 0 0 1 1 0 0 2
Neighs:    34.4 ave 654 max 0 min
Histogram: 36 2 0 0 0 0 0 0 1 1

Total # of neighbors = 1376
Ave neighs/atom = 0.348002
Neighbor list builds = 36219
Dangerous builds = 4909
write_dump all custom dump.atom_info_ac_* id type x y z radius vx vy vz density #
run 308641
Setting up run at Sat Dec 24 11:10:51 2022

Memory usage per processor = 964.609 Mbytes
    Step    Atoms         KinEng            CPU 
 4012335     3954      0.3207863              0 
 4320976     3880      0.2301192      3557.9061 
Loop time of 3557.91 on 40 procs for 308641 steps with 3880 atoms, finish time Sat Dec 24 12:10:09 2022


Pair  time (%) = 1.25106 (0.0351627)
Neigh time (%) = 105.171 (2.95598)
Comm  time (%) = 84.2382 (2.36763)
Outpt time (%) = 0.00610505 (0.000171591)
Other time (%) = 3367.24 (94.6411)

Nlocal:    97 ave 1599 max 0 min
Histogram: 36 1 1 0 0 0 0 0 1 1
Nghost:    16.5 ave 197 max 0 min
Histogram: 36 0 0 0 0 0 2 0 0 2
Neighs:    29.125 ave 588 max 0 min
Histogram: 36 2 0 0 0 0 0 1 0 1

Total # of neighbors = 1165
Ave neighs/atom = 0.300258
Neighbor list builds = 39296
Dangerous builds = 4620
write_dump all custom dump.atom_info_ac_* id type x y z radius vx vy vz density #
run 308641
Setting up run at Sat Dec 24 12:10:09 2022

Memory usage per processor = 964.609 Mbytes
    Step    Atoms         KinEng            CPU 
 4320976     3880      0.2301192              0 
 4629617     3809      1.5466604      3529.5321 
Loop time of 3529.53 on 40 procs for 308641 steps with 3809 atoms, finish time Sat Dec 24 13:08:58 2022


Pair  time (%) = 1.19884 (0.0339658)
Neigh time (%) = 98.6733 (2.79565)
Comm  time (%) = 76.4846 (2.16699)
Outpt time (%) = 0.00618734 (0.000175302)
Other time (%) = 3353.17 (95.0032)

Nlocal:    95.225 ave 1583 max 0 min
Histogram: 36 1 1 0 0 0 0 0 1 1
Nghost:    16 ave 189 max 0 min
Histogram: 36 0 0 0 0 0 2 0 0 2
Neighs:    27.225 ave 607 max 0 min
Histogram: 36 2 0 0 0 1 0 0 0 1

Total # of neighbors = 1089
Ave neighs/atom = 0.285902
Neighbor list builds = 36839
Dangerous builds = 4061
write_dump all custom dump.atom_info_ac_* id type x y z radius vx vy vz density #
run 308641
Setting up run at Sat Dec 24 13:08:58 2022

Memory usage per processor = 964.609 Mbytes
    Step    Atoms         KinEng            CPU 
 4629617     3809      1.5466604              0 
 4938258     3724     0.43344868      3504.4335 
Loop time of 3504.43 on 40 procs for 308641 steps with 3724 atoms, finish time Sat Dec 24 14:07:23 2022


Pair  time (%) = 1.16338 (0.0331973)
Neigh time (%) = 95.477 (2.72446)
Comm  time (%) = 85.5491 (2.44117)
Outpt time (%) = 0.000410922 (1.17258e-05)
Other time (%) = 3322.24 (94.8012)

Nlocal:    93.1 ave 1496 max 0 min
Histogram: 36 0 2 0 0 0 0 0 1 1
Nghost:    16.075 ave 184 max 0 min
Histogram: 36 0 0 0 0 0 1 1 0 2
Neighs:    22.95 ave 474 max 0 min
Histogram: 36 2 0 0 0 0 1 0 0 1

Total # of neighbors = 918
Ave neighs/atom = 0.246509
Neighbor list builds = 35670
Dangerous builds = 4813
write_dump all custom dump.atom_info_ac_* id type x y z radius vx vy vz density #
run 308641
Setting up run at Sat Dec 24 14:07:23 2022

Memory usage per processor = 964.609 Mbytes
    Step    Atoms         KinEng            CPU 
 4938258     3724     0.43344868              0 
 5246899     3652     0.50357627       3506.858 
Loop time of 3506.86 on 40 procs for 308641 steps with 3652 atoms, finish time Sat Dec 24 15:05:50 2022


Pair  time (%) = 1.13152 (0.0322658)
Neigh time (%) = 97.9719 (2.79372)
Comm  time (%) = 94.356 (2.69061)
Outpt time (%) = 0.000634639 (1.80971e-05)
Other time (%) = 3313.4 (94.4834)

Nlocal:    91.3 ave 1437 max 0 min
Histogram: 36 0 2 0 0 0 0 0 1 1
Nghost:    15.9 ave 185 max 0 min
Histogram: 36 0 0 0 0 0 1 1 0 2
Neighs:    19.875 ave 429 max 0 min
Histogram: 36 2 0 0 0 1 0 0 0 1

Total # of neighbors = 795
Ave neighs/atom = 0.217689
Neighbor list builds = 36643
Dangerous builds = 3174
write_dump all custom dump.atom_info_ac_* id type x y z radius vx vy vz density #
run 308641
Setting up run at Sat Dec 24 15:05:50 2022

Memory usage per processor = 964.609 Mbytes
    Step    Atoms         KinEng            CPU 
 5246899     3652     0.50357627              0 
 5555540     3562     0.38899065      3619.9259 
Loop time of 3619.93 on 40 procs for 308641 steps with 3562 atoms, finish time Sat Dec 24 16:06:10 2022


Pair  time (%) = 1.09888 (0.0303565)
Neigh time (%) = 99.9262 (2.76045)
Comm  time (%) = 94.5377 (2.61159)
Outpt time (%) = 0.000691807 (1.91111e-05)
Other time (%) = 3424.36 (94.5976)

Nlocal:    89.05 ave 1387 max 0 min
Histogram: 36 0 2 0 0 0 0 0 1 1
Nghost:    14.6 ave 171 max 0 min
Histogram: 36 0 0 0 0 0 1 1 0 2
Neighs:    16.95 ave 353 max 0 min
Histogram: 36 2 0 0 0 1 0 0 0 1

Total # of neighbors = 678
Ave neighs/atom = 0.190343
Neighbor list builds = 37320
Dangerous builds = 2893
write_dump all custom dump.atom_info_ac_* id type x y z radius vx vy vz density #
run 308641
Setting up run at Sat Dec 24 16:06:10 2022

Memory usage per processor = 964.609 Mbytes
    Step    Atoms         KinEng            CPU 
 5555540     3562     0.38899065              0 
 5864181     3429     0.80948137      4330.3608 
Loop time of 4330.36 on 40 procs for 308641 steps with 3429 atoms, finish time Sat Dec 24 17:18:20 2022


Pair  time (%) = 1.08212 (0.0249891)
Neigh time (%) = 137.431 (3.17365)
Comm  time (%) = 131.716 (3.04169)
Outpt time (%) = 0.000674536 (1.55769e-05)
Other time (%) = 4060.13 (93.7597)

Nlocal:    85.725 ave 1310 max 0 min
Histogram: 36 0 2 0 0 0 0 0 1 1
Nghost:    13.575 ave 157 max 0 min
Histogram: 36 0 0 0 0 0 2 0 0 2
Neighs:    13.7 ave 287 max 0 min
Histogram: 36 2 0 0 0 1 0 0 0 1

Total # of neighbors = 548
Ave neighs/atom = 0.159813
Neighbor list builds = 51281
Dangerous builds = 8237
write_dump all custom dump.atom_info_ac_* id type x y z radius vx vy vz density #
run 308641
Setting up run at Sat Dec 24 17:18:20 2022

Memory usage per processor = 964.609 Mbytes
    Step    Atoms         KinEng            CPU 
 5864181     3429     0.80948137              0 
 6172822     3317     0.93521579       3828.692 
Loop time of 3828.69 on 40 procs for 308641 steps with 3317 atoms, finish time Sat Dec 24 18:22:09 2022


Pair  time (%) = 1.0249 (0.026769)
Neigh time (%) = 113.279 (2.95868)
Comm  time (%) = 116.976 (3.05526)
Outpt time (%) = 0.000680368 (1.77702e-05)
Other time (%) = 3597.41 (93.9593)

Nlocal:    82.925 ave 1172 max 0 min
Histogram: 36 0 2 0 0 0 0 0 1 1
Nghost:    14.325 ave 164 max 0 min
Histogram: 36 0 0 0 0 0 2 0 0 2
Neighs:    10.075 ave 164 max 0 min
Histogram: 36 0 1 1 0 0 0 0 1 1

Total # of neighbors = 403
Ave neighs/atom = 0.121495
Neighbor list builds = 42315
Dangerous builds = 9096
write_dump all custom dump.atom_info_ac_* id type x y z radius vx vy vz density #
run 308641
Setting up run at Sat Dec 24 18:22:09 2022

Memory usage per processor = 964.609 Mbytes
    Step    Atoms         KinEng            CPU 
 6172822     3317     0.93521579              0 
 6481463     3181     0.54248188      3890.4765 
Loop time of 3890.48 on 40 procs for 308641 steps with 3181 atoms, finish time Sat Dec 24 19:27:00 2022


Pair  time (%) = 0.994743 (0.0255687)
Neigh time (%) = 144.573 (3.71607)
Comm  time (%) = 158.515 (4.07445)
Outpt time (%) = 0.00614181 (0.000157868)
Other time (%) = 3586.39 (92.1838)

Nlocal:    79.525 ave 1056 max 0 min
Histogram: 36 0 0 2 0 0 0 0 0 2
Nghost:    12.55 ave 145 max 0 min
Histogram: 36 0 0 0 0 0 2 0 0 2
Neighs:    7.2 ave 111 max 0 min
Histogram: 36 0 1 0 1 0 0 0 1 1

Total # of neighbors = 288
Ave neighs/atom = 0.0905376
Neighbor list builds = 54030
Dangerous builds = 7709
write_dump all custom dump.atom_info_ac_* id type x y z radius vx vy vz density #
run 308641
Setting up run at Sat Dec 24 19:27:00 2022

Memory usage per processor = 964.609 Mbytes
    Step    Atoms         KinEng            CPU 
 6481463     3181     0.54248188              0 
 6790104     3057       1.607128      3697.8033 
Loop time of 3697.8 on 40 procs for 308641 steps with 3057 atoms, finish time Sat Dec 24 20:28:38 2022


Pair  time (%) = 0.945901 (0.0255801)
Neigh time (%) = 123.915 (3.35105)
Comm  time (%) = 143.371 (3.8772)
Outpt time (%) = 0.000527852 (1.42747e-05)
Other time (%) = 3429.57 (92.7462)

Nlocal:    76.425 ave 939 max 0 min
Histogram: 34 2 0 2 0 0 0 0 0 2
Nghost:    11.55 ave 154 max 0 min
Histogram: 36 0 0 0 1 1 0 0 1 1
Neighs:    5 ave 69 max 0 min
Histogram: 36 0 0 1 0 1 0 0 1 1

Total # of neighbors = 200
Ave neighs/atom = 0.0654236
Neighbor list builds = 46230
Dangerous builds = 4440
write_dump all custom dump.atom_info_ac_* id type x y z radius vx vy vz density #
run 308641
Setting up run at Sat Dec 24 20:28:38 2022

Memory usage per processor = 964.609 Mbytes
    Step    Atoms         KinEng            CPU 
 6790104     3057       1.607128              0 
 7098745     2921     0.66146271      3951.0436 
Loop time of 3951.04 on 40 procs for 308641 steps with 2921 atoms, finish time Sat Dec 24 21:34:29 2022


Pair  time (%) = 0.916634 (0.0231998)
Neigh time (%) = 125.77 (3.18321)
Comm  time (%) = 146.448 (3.70657)
Outpt time (%) = 0.000614727 (1.55586e-05)
Other time (%) = 3677.91 (93.087)

Nlocal:    73.025 ave 901 max 0 min
Histogram: 33 3 1 1 0 0 0 0 0 2
Nghost:    11.025 ave 151 max 0 min
Histogram: 36 0 0 0 2 0 0 1 0 1
Neighs:    4.3 ave 69 max 0 min
Histogram: 36 1 0 0 1 0 0 0 1 1

Total # of neighbors = 172
Ave neighs/atom = 0.0588839
Neighbor list builds = 46884
Dangerous builds = 8544
write_dump all custom dump.atom_info_ac_* id type x y z radius vx vy vz density #
run 308641
Setting up run at Sat Dec 24 21:34:29 2022

Memory usage per processor = 964.609 Mbytes
    Step    Atoms         KinEng            CPU 
 7098745     2921     0.66146271              0 
 7407386     2765     0.70877981      3903.2528 
Loop time of 3903.25 on 40 procs for 308641 steps with 2765 atoms, finish time Sat Dec 24 22:39:32 2022


Pair  time (%) = 0.897765 (0.0230004)
Neigh time (%) = 148.038 (3.79269)
Comm  time (%) = 174.809 (4.47854)
Outpt time (%) = 0.000594414 (1.52287e-05)
Other time (%) = 3579.51 (91.7058)

Nlocal:    69.125 ave 905 max 0 min
Histogram: 33 3 1 1 0 0 0 0 1 1
Nghost:    10.2 ave 131 max 0 min
Histogram: 36 0 0 0 2 0 0 0 1 1
Neighs:    3.675 ave 77 max 0 min
Histogram: 37 0 1 0 0 1 0 0 0 1

Total # of neighbors = 147
Ave neighs/atom = 0.0531646
Neighbor list builds = 55178
Dangerous builds = 9415
write_dump all custom dump.atom_info_ac_* id type x y z radius vx vy vz density #
run 308641
Setting up run at Sat Dec 24 22:39:32 2022

Memory usage per processor = 964.609 Mbytes
    Step    Atoms         KinEng            CPU 
 7407386     2765     0.70877981              0 
 7716027     2582      1.2003585       3712.128 
Loop time of 3712.13 on 40 procs for 308641 steps with 2582 atoms, finish time Sat Dec 24 23:41:24 2022


Pair  time (%) = 0.875285 (0.0235791)
Neigh time (%) = 156.946 (4.22793)
Comm  time (%) = 186.329 (5.01947)
Outpt time (%) = 0.000550825 (1.48385e-05)
Other time (%) = 3367.98 (90.729)

Nlocal:    64.55 ave 835 max 0 min
Histogram: 33 3 1 1 0 0 0 0 1 1
Nghost:    9.25 ave 114 max 0 min
Histogram: 36 0 0 1 1 0 0 0 0 2
Neighs:    2.325 ave 45 max 0 min
Histogram: 36 1 0 1 0 1 0 0 0 1

Total # of neighbors = 93
Ave neighs/atom = 0.0360186
Neighbor list builds = 58491
Dangerous builds = 10087
write_dump all custom dump.atom_info_ac_* id type x y z radius vx vy vz density #
run 308641
Setting up run at Sat Dec 24 23:41:24 2022

Memory usage per processor = 964.609 Mbytes
    Step    Atoms         KinEng            CPU 
 7716027     2582      1.2003585              0 
 8024668     2408     0.99249034      3682.9563 
Loop time of 3682.97 on 40 procs for 308641 steps with 2408 atoms, finish time Sun Dec 25 00:42:47 2022


Pair  time (%) = 0.848114 (0.023028)
Neigh time (%) = 148.49 (4.0318)
Comm  time (%) = 170.171 (4.62049)
Outpt time (%) = 0.019338 (0.000525067)
Other time (%) = 3363.44 (91.3242)

Nlocal:    60.2 ave 730 max 0 min
Histogram: 32 4 1 1 0 0 0 0 0 2
Nghost:    8.725 ave 108 max 0 min
Histogram: 36 0 0 0 2 0 0 1 0 1
Neighs:    2.275 ave 37 max 0 min
Histogram: 36 0 2 0 0 0 0 1 0 1

Total # of neighbors = 91
Ave neighs/atom = 0.0377907
Neighbor list builds = 55327
Dangerous builds = 6537
write_dump all custom dump.atom_info_ac_* id type x y z radius vx vy vz density #
run 308641
Setting up run at Sun Dec 25 00:42:48 2022

Memory usage per processor = 964.609 Mbytes
    Step    Atoms         KinEng            CPU 
 8024668     2408     0.99249034              0 
 8333309     2264      1.1391471      3612.1415 
Loop time of 3612.14 on 40 procs for 308641 steps with 2264 atoms, finish time Sun Dec 25 01:43:00 2022


Pair  time (%) = 0.819722 (0.0226935)
Neigh time (%) = 137.126 (3.79626)
Comm  time (%) = 159.96 (4.42839)
Outpt time (%) = 0.000496717 (1.37513e-05)
Other time (%) = 3314.24 (91.7526)

Nlocal:    56.6 ave 651 max 0 min
Histogram: 32 4 1 1 0 0 0 0 0 2
Nghost:    7.525 ave 98 max 0 min
Histogram: 36 0 0 1 1 0 0 0 1 1
Neighs:    1.925 ave 26 max 0 min
Histogram: 36 0 0 0 2 0 0 0 0 2

Total # of neighbors = 77
Ave neighs/atom = 0.0340106
Neighbor list builds = 51070
Dangerous builds = 7192
write_dump all custom dump.atom_info_ac_* id type x y z radius vx vy vz density #
run 308641
Setting up run at Sun Dec 25 01:43:00 2022

Memory usage per processor = 964.609 Mbytes
    Step    Atoms         KinEng            CPU 
 8333309     2264      1.1391471              0 
 8641950     2105      1.0576647      3516.5767 
Loop time of 3516.58 on 40 procs for 308641 steps with 2105 atoms, finish time Sun Dec 25 02:41:36 2022


Pair  time (%) = 0.788086 (0.0224106)
Neigh time (%) = 117.663 (3.34596)
Comm  time (%) = 133.12 (3.7855)
Outpt time (%) = 0.000726159 (2.06496e-05)
Other time (%) = 3265 (92.8461)

Nlocal:    52.625 ave 592 max 0 min
Histogram: 31 5 0 2 0 0 0 0 0 2
Nghost:    7.05 ave 84 max 0 min
Histogram: 36 0 0 0 1 1 0 0 0 2
Neighs:    1.85 ave 32 max 0 min
Histogram: 36 0 0 2 0 1 0 0 0 1

Total # of neighbors = 74
Ave neighs/atom = 0.0351544
Neighbor list builds = 43767
Dangerous builds = 6555
write_dump all custom dump.atom_info_ac_* id type x y z radius vx vy vz density #
run 308641
Setting up run at Sun Dec 25 02:41:37 2022

Memory usage per processor = 964.609 Mbytes
    Step    Atoms         KinEng            CPU 
 8641950     2105      1.0576647              0 
 8950591     1945     0.97336311      3647.5336 
Loop time of 3647.53 on 40 procs for 308641 steps with 1945 atoms, finish time Sun Dec 25 03:42:24 2022


Pair  time (%) = 0.784533 (0.0215086)
Neigh time (%) = 147.351 (4.03973)
Comm  time (%) = 168.735 (4.62601)
Outpt time (%) = 0.000571986 (1.56815e-05)
Other time (%) = 3330.66 (91.3127)

Nlocal:    48.625 ave 569 max 0 min
Histogram: 31 5 2 0 0 0 0 0 0 2
Nghost:    6.3 ave 78 max 0 min
Histogram: 35 1 0 1 0 1 0 0 1 1
Neighs:    1.4 ave 28 max 0 min
Histogram: 36 0 2 0 1 0 0 0 0 1

Total # of neighbors = 56
Ave neighs/atom = 0.0287918
Neighbor list builds = 54850
Dangerous builds = 8841
write_dump all custom dump.atom_info_ac_* id type x y z radius vx vy vz density #
run 308641
Setting up run at Sun Dec 25 03:42:24 2022

Memory usage per processor = 964.609 Mbytes
    Step    Atoms         KinEng            CPU 
 8950591     1945     0.97336311              0 
 9259232     1776     0.95423283      3659.1077 
Loop time of 3659.11 on 40 procs for 308641 steps with 1776 atoms, finish time Sun Dec 25 04:43:23 2022


Pair  time (%) = 0.762917 (0.0208498)
Neigh time (%) = 150.641 (4.11687)
Comm  time (%) = 168.835 (4.6141)
Outpt time (%) = 0.000582105 (1.59084e-05)
Other time (%) = 3338.87 (91.2482)

Nlocal:    44.4 ave 519 max 0 min
Histogram: 31 5 1 1 0 0 0 0 0 2
Nghost:    5.825 ave 73 max 0 min
Histogram: 36 0 0 1 1 0 0 0 1 1
Neighs:    0.9 ave 11 max 0 min
Histogram: 36 0 0 1 0 0 0 0 1 2

Total # of neighbors = 36
Ave neighs/atom = 0.0202703
Neighbor list builds = 56134
Dangerous builds = 6065
write_dump all custom dump.atom_info_ac_* id type x y z radius vx vy vz density #
run 308641
Setting up run at Sun Dec 25 04:43:23 2022

Memory usage per processor = 964.609 Mbytes
    Step    Atoms         KinEng            CPU 
 9259232     1776     0.95423283              0 
 9567873     1661     0.91009553       3541.103 
Loop time of 3541.1 on 40 procs for 308641 steps with 1661 atoms, finish time Sun Dec 25 05:42:25 2022


Pair  time (%) = 0.732789 (0.0206938)
Neigh time (%) = 119.495 (3.37451)
Comm  time (%) = 117.241 (3.31086)
Outpt time (%) = 0.000473175 (1.33623e-05)
Other time (%) = 3303.63 (93.2939)

Nlocal:    41.525 ave 492 max 0 min
Histogram: 32 4 2 0 0 0 0 0 0 2
Nghost:    5.675 ave 66 max 0 min
Histogram: 35 1 0 1 0 1 0 0 0 2
Neighs:    1.1 ave 21 max 0 min
Histogram: 37 1 0 0 0 0 0 1 0 1

Total # of neighbors = 44
Ave neighs/atom = 0.0264901
Neighbor list builds = 44532
Dangerous builds = 4035
write_dump all custom dump.atom_info_ac_* id type x y z radius vx vy vz density #
run 308641
Setting up run at Sun Dec 25 05:42:25 2022

Memory usage per processor = 964.609 Mbytes
    Step    Atoms         KinEng            CPU 
 9567873     1661     0.91009553              0 
 9876514     1560     0.88153629      3461.4989 
Loop time of 3461.5 on 40 procs for 308641 steps with 1560 atoms, finish time Sun Dec 25 06:40:06 2022


Pair  time (%) = 0.711324 (0.0205496)
Neigh time (%) = 107.684 (3.11091)
Comm  time (%) = 114.666 (3.31262)
Outpt time (%) = 0.00554978 (0.000160329)
Other time (%) = 3238.43 (93.5558)

Nlocal:    39 ave 461 max 0 min
Histogram: 32 4 2 0 0 0 0 0 0 2
Nghost:    4.45 ave 47 max 0 min
Histogram: 34 2 0 1 0 1 0 0 0 2
Neighs:    0.7 ave 13 max 0 min
Histogram: 37 1 0 0 0 0 0 0 1 1

Total # of neighbors = 28
Ave neighs/atom = 0.0179487
Neighbor list builds = 40124
Dangerous builds = 4056
write_dump all custom dump.atom_info_ac_* id type x y z radius vx vy vz density #
run 308641
Setting up run at Sun Dec 25 06:40:06 2022

Memory usage per processor = 964.609 Mbytes
    Step    Atoms         KinEng            CPU 
 9876514     1560     0.88153629              0 
10185155     1464     0.74149481      3526.1001 
Loop time of 3526.1 on 40 procs for 308641 steps with 1464 atoms, finish time Sun Dec 25 07:38:52 2022


Pair  time (%) = 0.709865 (0.0201317)
Neigh time (%) = 119.037 (3.37588)
Comm  time (%) = 123.862 (3.51271)
Outpt time (%) = 0.000580652 (1.64673e-05)
Other time (%) = 3282.49 (93.0913)

Nlocal:    36.6 ave 439 max 0 min
Histogram: 33 3 2 0 0 0 0 0 0 2
Nghost:    4.125 ave 49 max 0 min
Histogram: 34 2 0 0 0 2 0 0 1 1
Neighs:    0.525 ave 6 max 0 min
Histogram: 34 1 0 2 0 0 1 0 0 2

Total # of neighbors = 21
Ave neighs/atom = 0.0143443
Neighbor list builds = 44382
Dangerous builds = 5558
write_dump all custom dump.atom_info_ac_* id type x y z radius vx vy vz density #
run 308641
Setting up run at Sun Dec 25 07:38:52 2022

Memory usage per processor = 964.609 Mbytes
    Step    Atoms         KinEng            CPU 
10185155     1464     0.74149481              0 
10493796     1354     0.85623353      3494.6168 
Loop time of 3494.62 on 40 procs for 308641 steps with 1354 atoms, finish time Sun Dec 25 08:37:07 2022


Pair  time (%) = 0.696774 (0.0199385)
Neigh time (%) = 115.345 (3.30065)
Comm  time (%) = 112.576 (3.22142)
Outpt time (%) = 0.00059399 (1.69973e-05)
Other time (%) = 3266 (93.458)

Nlocal:    33.85 ave 426 max 0 min
Histogram: 33 3 2 0 0 0 0 0 0 2
Nghost:    3.925 ave 49 max 0 min
Histogram: 35 1 0 1 0 1 0 0 0 2
Neighs:    0.6 ave 9 max 0 min
Histogram: 33 2 3 0 0 0 0 1 0 1

Total # of neighbors = 24
Ave neighs/atom = 0.0177253
Neighbor list builds = 43010
Dangerous builds = 2454
write_dump all custom dump.atom_info_ac_* id type x y z radius vx vy vz density #
run 308641
Setting up run at Sun Dec 25 08:37:07 2022

Memory usage per processor = 964.609 Mbytes
    Step    Atoms         KinEng            CPU 
10493796     1354     0.85623353              0 
10802437     1256     0.62438732       3531.707 
Loop time of 3531.71 on 40 procs for 308641 steps with 1256 atoms, finish time Sun Dec 25 09:35:59 2022


Pair  time (%) = 0.695697 (0.0196986)
Neigh time (%) = 124.365 (3.52139)
Comm  time (%) = 109.762 (3.10789)
Outpt time (%) = 0.000345869 (9.79325e-06)
Other time (%) = 3296.88 (93.351)

Nlocal:    31.4 ave 407 max 0 min
Histogram: 32 5 1 0 0 0 0 0 0 2
Nghost:    3.75 ave 48 max 0 min
Histogram: 36 0 1 0 0 1 0 0 0 2
Neighs:    0.275 ave 5 max 0 min
Histogram: 36 0 2 0 0 0 0 0 1 1

Total # of neighbors = 11
Ave neighs/atom = 0.00875796
Neighbor list builds = 46446
Dangerous builds = 4643
write_dump all custom dump.atom_info_ac_* id type x y z radius vx vy vz density #
run 308641
Setting up run at Sun Dec 25 09:35:59 2022

Memory usage per processor = 964.609 Mbytes
    Step    Atoms         KinEng            CPU 
10802437     1256     0.62438732              0 
11111078     1181     0.51719507      3490.1156 
Loop time of 3490.12 on 40 procs for 308641 steps with 1181 atoms, finish time Sun Dec 25 10:34:09 2022


Pair  time (%) = 0.683297 (0.0195781)
Neigh time (%) = 98.6696 (2.82712)
Comm  time (%) = 78.4721 (2.24841)
Outpt time (%) = 0.000594231 (1.70261e-05)
Other time (%) = 3312.29 (94.9049)

Nlocal:    29.525 ave 399 max 0 min
Histogram: 35 1 2 0 0 0 0 0 0 2
Nghost:    3.85 ave 49 max 0 min
Histogram: 35 1 1 0 1 0 0 0 0 2
Neighs:    0.55 ave 14 max 0 min
Histogram: 38 0 0 0 0 1 0 0 0 1

Total # of neighbors = 22
Ave neighs/atom = 0.0186283
Neighbor list builds = 36899
Dangerous builds = 4450
write_dump all custom dump.atom_info_ac_* id type x y z radius vx vy vz density #
run 308641
Setting up run at Sun Dec 25 10:34:09 2022

Memory usage per processor = 964.609 Mbytes
    Step    Atoms         KinEng            CPU 
11111078     1181     0.51719507              0 
11419719     1117     0.64092354      3392.3682 
Loop time of 3392.37 on 40 procs for 308641 steps with 1117 atoms, finish time Sun Dec 25 11:30:41 2022


Pair  time (%) = 0.676044 (0.0199284)
Neigh time (%) = 94.1669 (2.77584)
Comm  time (%) = 77.6822 (2.28991)
Outpt time (%) = 0.000586056 (1.72757e-05)
Other time (%) = 3219.84 (94.9143)

Nlocal:    27.925 ave 374 max 0 min
Histogram: 35 2 1 0 0 0 0 0 0 2
Nghost:    3.225 ave 38 max 0 min
Histogram: 34 2 0 1 0 0 1 0 1 1
Neighs:    0.475 ave 9 max 0 min
Histogram: 36 2 0 0 0 0 0 0 1 1

Total # of neighbors = 19
Ave neighs/atom = 0.0170098
Neighbor list builds = 35201
Dangerous builds = 3852
write_dump all custom dump.atom_info_ac_* id type x y z radius vx vy vz density #
run 308641
Setting up run at Sun Dec 25 11:30:42 2022

Memory usage per processor = 964.609 Mbytes
    Step    Atoms         KinEng            CPU 
11419719     1117     0.64092354              0 
11728360     1060     0.59118246       3407.838 
Loop time of 3407.84 on 40 procs for 308641 steps with 1060 atoms, finish time Sun Dec 25 12:27:29 2022


Pair  time (%) = 0.675814 (0.0198312)
Neigh time (%) = 97.4855 (2.86062)
Comm  time (%) = 65.517 (1.92254)
Outpt time (%) = 0.00607956 (0.000178399)
Other time (%) = 3244.15 (95.1968)

Nlocal:    26.5 ave 363 max 0 min
Histogram: 34 4 0 0 0 0 0 0 0 2
Nghost:    3.125 ave 37 max 0 min
Histogram: 35 1 0 0 1 1 0 0 1 1
Neighs:    0.325 ave 5 max 0 min
Histogram: 34 0 4 0 0 0 0 0 1 1

Total # of neighbors = 13
Ave neighs/atom = 0.0122642
Neighbor list builds = 36418
Dangerous builds = 3546
write_dump all custom dump.atom_info_ac_* id type x y z radius vx vy vz density #
run 308641
Setting up run at Sun Dec 25 12:27:29 2022

Memory usage per processor = 964.609 Mbytes
    Step    Atoms         KinEng            CPU 
11728360     1060     0.59118246              0 
12037001     1003      0.5108192       3400.719 
Loop time of 3400.72 on 40 procs for 308641 steps with 1003 atoms, finish time Sun Dec 25 13:24:10 2022


Pair  time (%) = 0.666276 (0.0195922)
Neigh time (%) = 98.0476 (2.88314)
Comm  time (%) = 73.5702 (2.16337)
Outpt time (%) = 0.000450278 (1.32407e-05)
Other time (%) = 3228.43 (94.9339)

Nlocal:    25.075 ave 337 max 0 min
Histogram: 34 4 0 0 0 0 0 0 0 2
Nghost:    2.875 ave 34 max 0 min
Histogram: 35 1 0 1 0 1 0 0 0 2
Neighs:    0.225 ave 4 max 0 min
Histogram: 36 0 1 0 0 2 0 0 0 1

Total # of neighbors = 9
Ave neighs/atom = 0.00897308
Neighbor list builds = 36670
Dangerous builds = 2518
write_dump all custom dump.atom_info_ac_* id type x y z radius vx vy vz density #
run 308641
Setting up run at Sun Dec 25 13:24:10 2022

Memory usage per processor = 964.609 Mbytes
    Step    Atoms         KinEng            CPU 
12037001     1003      0.5108192              0 
12345642      953     0.56145761      3388.7659 
Loop time of 3388.77 on 40 procs for 308641 steps with 953 atoms, finish time Sun Dec 25 14:20:39 2022


Pair  time (%) = 0.666643 (0.0196721)
Neigh time (%) = 90.3461 (2.66605)
Comm  time (%) = 72.0605 (2.12645)
Outpt time (%) = 0.000629519 (1.85766e-05)
Other time (%) = 3225.69 (95.1878)

Nlocal:    23.825 ave 323 max 0 min
Histogram: 36 1 1 0 0 0 0 0 0 2
Nghost:    2.95 ave 38 max 0 min
Histogram: 34 2 0 1 1 0 0 0 1 1
Neighs:    0.225 ave 5 max 0 min
Histogram: 38 0 0 0 0 0 0 0 1 1

Total # of neighbors = 9
Ave neighs/atom = 0.00944386
Neighbor list builds = 33806
Dangerous builds = 5361
write_dump all custom dump.atom_info_ac_* id type x y z radius vx vy vz density #
run 308641
Setting up run at Sun Dec 25 14:20:39 2022

Memory usage per processor = 964.609 Mbytes
    Step    Atoms         KinEng            CPU 
12345642      953     0.56145761              0 
12654283      900     0.42396892      3821.9328 
Loop time of 3821.93 on 40 procs for 308641 steps with 900 atoms, finish time Sun Dec 25 15:24:21 2022


Pair  time (%) = 0.679098 (0.0177685)
Neigh time (%) = 121.189 (3.17087)
Comm  time (%) = 81.7427 (2.13878)
Outpt time (%) = 0.000498135 (1.30336e-05)
Other time (%) = 3618.32 (94.6726)

Nlocal:    22.5 ave 315 max 0 min
Histogram: 35 3 0 0 0 0 0 0 0 2
Nghost:    3.05 ave 37 max 0 min
Histogram: 34 2 0 1 1 0 0 0 0 2
Neighs:    0.25 ave 5 max 0 min
Histogram: 38 0 0 0 0 0 0 0 0 2

Total # of neighbors = 10
Ave neighs/atom = 0.0111111
Neighbor list builds = 45394
Dangerous builds = 5599
write_dump all custom dump.atom_info_ac_* id type x y z radius vx vy vz density #
run 308641
Setting up run at Sun Dec 25 15:24:21 2022

Memory usage per processor = 964.609 Mbytes
    Step    Atoms         KinEng            CPU 
12654283      900     0.42396892              0 
12962924      854     0.37449754      3426.5961 
Loop time of 3426.6 on 40 procs for 308641 steps with 854 atoms, finish time Sun Dec 25 16:21:28 2022


Pair  time (%) = 0.656003 (0.0191444)
Neigh time (%) = 84.9173 (2.47818)
Comm  time (%) = 61.7588 (1.80234)
Outpt time (%) = 0.00056042 (1.6355e-05)
Other time (%) = 3279.26 (95.7003)

Nlocal:    21.35 ave 303 max 0 min
Histogram: 35 3 0 0 0 0 0 0 0 2
Nghost:    2.55 ave 33 max 0 min
Histogram: 35 1 0 2 0 0 0 0 0 2
Neighs:    0.3 ave 5 max 0 min
Histogram: 36 0 2 0 0 0 0 0 0 2

Total # of neighbors = 12
Ave neighs/atom = 0.0140515
Neighbor list builds = 31828
Dangerous builds = 1809
write_dump all custom dump.atom_info_ac_* id type x y z radius vx vy vz density #
run 308641
Setting up run at Sun Dec 25 16:24:08 2022

Memory usage per processor = 964.609 Mbytes
    Step    Atoms         KinEng            CPU 
12962924      854     0.37449754              0 
13271565      822     0.37007952      3465.0172 
Loop time of 3465.02 on 40 procs for 308641 steps with 822 atoms, finish time Sun Dec 25 17:21:53 2022


Pair  time (%) = 0.646564 (0.0186597)
Neigh time (%) = 75.601 (2.18184)
Comm  time (%) = 50.5547 (1.459)
Outpt time (%) = 0.000604293 (1.74398e-05)
Other time (%) = 3338.21 (96.3405)

Nlocal:    20.55 ave 298 max 0 min
Histogram: 35 3 0 0 0 0 0 0 0 2
Nghost:    2.425 ave 36 max 0 min
Histogram: 36 0 1 1 0 0 0 0 1 1
Neighs:    0.175 ave 6 max 0 min
Histogram: 38 1 0 0 0 0 0 0 0 1

Total # of neighbors = 7
Ave neighs/atom = 0.00851582
Neighbor list builds = 28349
Dangerous builds = 777
write_dump all custom dump.atom_info_ac_* id type x y z radius vx vy vz density #
run 308641
Setting up run at Sun Dec 25 17:21:53 2022

Memory usage per processor = 964.609 Mbytes
    Step    Atoms         KinEng            CPU 
13271565      822     0.37007952              0 
13580206      792     0.35593442      3325.8331 
Loop time of 3325.83 on 40 procs for 308641 steps with 792 atoms, finish time Sun Dec 25 18:17:19 2022


Pair  time (%) = 0.648416 (0.0194963)
Neigh time (%) = 74.2592 (2.2328)
Comm  time (%) = 39.9434 (1.201)
Outpt time (%) = 0.00031334 (9.42139e-06)
Other time (%) = 3210.98 (96.5467)

Nlocal:    19.8 ave 284 max 0 min
Histogram: 36 2 0 0 0 0 0 0 0 2
Nghost:    2.4 ave 32 max 0 min
Histogram: 36 0 1 0 1 0 0 0 0 2
Neighs:    0.225 ave 3 max 0 min
Histogram: 35 0 0 3 0 0 0 0 0 2

Total # of neighbors = 9
Ave neighs/atom = 0.0113636
Neighbor list builds = 27850
Dangerous builds = 2186
write_dump all custom dump.atom_info_ac_* id type x y z radius vx vy vz density #
run 308641
Setting up run at Sun Dec 25 18:17:19 2022

Memory usage per processor = 964.609 Mbytes
    Step    Atoms         KinEng            CPU 
13580206      792     0.35593442              0 
13888847      761     0.38831019      3466.8583 
Loop time of 3466.86 on 40 procs for 308641 steps with 761 atoms, finish time Sun Dec 25 19:15:06 2022


Pair  time (%) = 0.661543 (0.0190819)
Neigh time (%) = 94.581 (2.72815)
Comm  time (%) = 51.9031 (1.49712)
Outpt time (%) = 0.00603216 (0.000173995)
Other time (%) = 3319.71 (95.7555)

Nlocal:    19.025 ave 268 max 0 min
Histogram: 35 3 0 0 0 0 0 0 0 2
Nghost:    2.525 ave 32 max 0 min
Histogram: 35 1 0 1 1 0 0 0 0 2
Neighs:    0.2 ave 4 max 0 min
Histogram: 36 0 2 0 0 1 0 0 0 1

Total # of neighbors = 8
Ave neighs/atom = 0.0105125
Neighbor list builds = 35482
Dangerous builds = 1211
write_dump all custom dump.atom_info_ac_* id type x y z radius vx vy vz density #
run 308641
Setting up run at Sun Dec 25 19:15:06 2022

Memory usage per processor = 964.609 Mbytes
    Step    Atoms         KinEng            CPU 
13888847      761     0.38831019              0 
14197488      732     0.33093168      3440.4611 
Loop time of 3440.46 on 40 procs for 308641 steps with 732 atoms, finish time Sun Dec 25 20:12:26 2022


Pair  time (%) = 0.647477 (0.0188195)
Neigh time (%) = 79.8855 (2.32194)
Comm  time (%) = 49.0568 (1.42588)
Outpt time (%) = 0.000727807 (2.11543e-05)
Other time (%) = 3310.87 (96.2333)

Nlocal:    18.3 ave 262 max 0 min
Histogram: 35 3 0 0 0 0 0 0 0 2
Nghost:    2.2 ave 34 max 0 min
Histogram: 35 1 1 0 1 1 0 0 0 1
Neighs:    0.2 ave 4 max 0 min
Histogram: 38 0 0 0 0 0 0 0 0 2

Total # of neighbors = 8
Ave neighs/atom = 0.010929
Neighbor list builds = 29985
Dangerous builds = 232
write_dump all custom dump.atom_info_ac_* id type x y z radius vx vy vz density #
run 308641
Setting up run at Sun Dec 25 20:12:26 2022

Memory usage per processor = 964.609 Mbytes
    Step    Atoms         KinEng            CPU 
14197488      732     0.33093168              0 
14506129      710     0.22128668      3306.6547 
Loop time of 3306.66 on 40 procs for 308641 steps with 710 atoms, finish time Sun Dec 25 21:07:33 2022


Pair  time (%) = 0.643111 (0.019449)
Neigh time (%) = 75.0231 (2.26885)
Comm  time (%) = 43.3848 (1.31205)
Outpt time (%) = 0.00607381 (0.000183684)
Other time (%) = 3187.6 (96.3995)

Nlocal:    17.75 ave 259 max 0 min
Histogram: 35 3 0 0 0 0 0 0 0 2
Nghost:    2.075 ave 28 max 0 min
Histogram: 35 1 0 1 0 1 0 1 0 1
Neighs:    0.275 ave 6 max 0 min
Histogram: 38 0 0 0 0 0 0 0 1 1

Total # of neighbors = 11
Ave neighs/atom = 0.015493
Neighbor list builds = 28147
Dangerous builds = 557
write_dump all custom dump.atom_info_ac_* id type x y z radius vx vy vz density #
run 308641
Setting up run at Sun Dec 25 21:07:33 2022

Memory usage per processor = 964.609 Mbytes
    Step    Atoms         KinEng            CPU 
14506129      710     0.22128668              0 
14814770      690     0.17365331      3255.5208 
Loop time of 3255.52 on 40 procs for 308641 steps with 690 atoms, finish time Sun Dec 25 22:01:48 2022


Pair  time (%) = 0.633903 (0.0194716)
Neigh time (%) = 65.3953 (2.00875)
Comm  time (%) = 38.0943 (1.17014)
Outpt time (%) = 0.000570959 (1.75382e-05)
Other time (%) = 3151.4 (96.8016)

Nlocal:    17.25 ave 257 max 0 min
Histogram: 35 3 0 0 0 0 0 0 0 2
Nghost:    1.825 ave 21 max 0 min
Histogram: 35 1 0 0 1 0 1 0 0 2
Neighs:    0.15 ave 4 max 0 min
Histogram: 37 0 2 0 0 0 0 0 0 1

Total # of neighbors = 6
Ave neighs/atom = 0.00869565
Neighbor list builds = 24536
Dangerous builds = 373
write_dump all custom dump.atom_info_ac_* id type x y z radius vx vy vz density #
run 308641
Setting up run at Sun Dec 25 22:01:48 2022

Memory usage per processor = 964.609 Mbytes
    Step    Atoms         KinEng            CPU 
14814770      690     0.17365331              0 
15123411      669      0.2405011      3250.3539 
Loop time of 3250.35 on 40 procs for 308641 steps with 669 atoms, finish time Sun Dec 25 22:55:59 2022


Pair  time (%) = 0.620762 (0.0190983)
Neigh time (%) = 68.2741 (2.10051)
Comm  time (%) = 36.3433 (1.11814)
Outpt time (%) = 0.00054889 (1.68871e-05)
Other time (%) = 3145.12 (96.7622)

Nlocal:    16.725 ave 250 max 0 min
Histogram: 36 2 0 0 0 0 0 0 0 2
Nghost:    1.925 ave 24 max 0 min
Histogram: 34 2 0 0 1 1 0 1 0 1
Neighs:    0.2 ave 4 max 0 min
Histogram: 37 0 1 0 0 0 0 1 0 1

Total # of neighbors = 8
Ave neighs/atom = 0.0119581
Neighbor list builds = 25617
Dangerous builds = 947
write_dump all custom dump.atom_info_ac_* id type x y z radius vx vy vz density #
run 308641
Setting up run at Sun Dec 25 22:55:59 2022

Memory usage per processor = 964.609 Mbytes
    Step    Atoms         KinEng            CPU 
15123411      669      0.2405011              0 
15432052      646     0.25175156      3255.7775 
Loop time of 3255.78 on 40 procs for 308641 steps with 646 atoms, finish time Sun Dec 25 23:50:15 2022


Pair  time (%) = 0.632013 (0.019412)
Neigh time (%) = 67.7109 (2.07971)
Comm  time (%) = 35.9679 (1.10474)
Outpt time (%) = 0.00046598 (1.43124e-05)
Other time (%) = 3151.47 (96.7961)

Nlocal:    16.15 ave 242 max 0 min
Histogram: 36 2 0 0 0 0 0 0 0 2
Nghost:    2.2 ave 26 max 0 min
Histogram: 34 2 0 0 0 2 0 0 0 2
Neighs:    0.1 ave 2 max 0 min
Histogram: 38 0 0 0 0 0 0 0 0 2

Total # of neighbors = 4
Ave neighs/atom = 0.00619195
Neighbor list builds = 25415
Dangerous builds = 957
write_dump all custom dump.atom_info_ac_* id type x y z radius vx vy vz density #
run 308641
Setting up run at Sun Dec 25 23:50:15 2022

Memory usage per processor = 964.609 Mbytes
    Step    Atoms         KinEng            CPU 
15432052      646     0.25175156              0 
15740693      629     0.23121059      3274.9746 
Loop time of 3274.98 on 40 procs for 308641 steps with 629 atoms, finish time Mon Dec 26 00:44:50 2022


Pair  time (%) = 0.632266 (0.019306)
Neigh time (%) = 72.412 (2.21107)
Comm  time (%) = 36.8718 (1.12586)
Outpt time (%) = 0.000273424 (8.34888e-06)
Other time (%) = 3165.06 (96.6438)

Nlocal:    15.725 ave 239 max 0 min
Histogram: 36 2 0 0 0 0 0 0 0 2
Nghost:    2.05 ave 24 max 0 min
Histogram: 35 1 0 0 0 2 0 0 0 2
Neighs:    0.225 ave 6 max 0 min
Histogram: 37 1 0 1 0 0 0 0 0 1

Total # of neighbors = 9
Ave neighs/atom = 0.0143084
Neighbor list builds = 27189
Dangerous builds = 288
write_dump all custom dump.atom_info_ac_* id type x y z radius vx vy vz density #
run 308641
Setting up run at Mon Dec 26 00:44:50 2022

Memory usage per processor = 964.609 Mbytes
    Step    Atoms         KinEng            CPU 
15740693      629     0.23121059              0 
16049334      614     0.22931668       3238.527 
Loop time of 3238.53 on 40 procs for 308641 steps with 614 atoms, finish time Mon Dec 26 01:38:48 2022


Pair  time (%) = 0.631424 (0.0194972)
Neigh time (%) = 65.5319 (2.02351)
Comm  time (%) = 29.8174 (0.920708)
Outpt time (%) = 0.000503322 (1.55417e-05)
Other time (%) = 3142.55 (97.0363)

Nlocal:    15.35 ave 240 max 0 min
Histogram: 36 2 0 0 0 0 0 0 1 1
Nghost:    2.025 ave 33 max 0 min
Histogram: 36 0 0 2 0 1 0 0 0 1
Neighs:    0.35 ave 9 max 0 min
Histogram: 37 0 1 1 0 0 0 0 0 1

Total # of neighbors = 14
Ave neighs/atom = 0.0228013
Neighbor list builds = 24625
Dangerous builds = 872
write_dump all custom dump.atom_info_ac_* id type x y z radius vx vy vz density #
run 308641
Setting up run at Mon Dec 26 01:38:48 2022

Memory usage per processor = 964.609 Mbytes
    Step    Atoms         KinEng            CPU 
16049334      614     0.22931668              0 
16357975      593     0.18080611      3292.0805 
Loop time of 3292.08 on 40 procs for 308641 steps with 593 atoms, finish time Mon Dec 26 02:33:41 2022


Pair  time (%) = 0.636695 (0.0193402)
Neigh time (%) = 76.5785 (2.32614)
Comm  time (%) = 34.263 (1.04077)
Outpt time (%) = 0.000829384 (2.51933e-05)
Other time (%) = 3180.6 (96.6137)

Nlocal:    14.825 ave 224 max 0 min
Histogram: 36 2 0 0 0 0 0 0 0 2
Nghost:    2.225 ave 30 max 0 min
Histogram: 34 2 1 0 1 0 0 0 1 1
Neighs:    0.275 ave 6 max 0 min
Histogram: 36 2 0 0 0 1 0 0 0 1

Total # of neighbors = 11
Ave neighs/atom = 0.0185497
Neighbor list builds = 28758
Dangerous builds = 2074
write_dump all custom dump.atom_info_ac_* id type x y z radius vx vy vz density #
run 308641
Setting up run at Mon Dec 26 02:33:41 2022

Memory usage per processor = 964.609 Mbytes
    Step    Atoms         KinEng            CPU 
16357975      593     0.18080611              0 
16666616      577     0.27544907      3250.6941 
Loop time of 3250.69 on 40 procs for 308641 steps with 577 atoms, finish time Mon Dec 26 03:27:51 2022


Pair  time (%) = 0.62674 (0.0192802)
Neigh time (%) = 66.489 (2.04538)
Comm  time (%) = 30.8451 (0.948877)
Outpt time (%) = 0.000577617 (1.7769e-05)
Other time (%) = 3152.73 (96.9864)

Nlocal:    14.425 ave 220 max 0 min
Histogram: 36 2 0 0 0 0 0 0 0 2
Nghost:    1.7 ave 25 max 0 min
Histogram: 35 1 1 1 0 0 0 0 0 2
Neighs:    0.275 ave 5 max 0 min
Histogram: 37 0 0 0 1 0 0 0 1 1

Total # of neighbors = 11
Ave neighs/atom = 0.0190641
Neighbor list builds = 24983
Dangerous builds = 208
write_dump all custom dump.atom_info_ac_* id type x y z radius vx vy vz density #
run 308641
Setting up run at Mon Dec 26 03:27:51 2022

Memory usage per processor = 964.609 Mbytes
    Step    Atoms         KinEng            CPU 
16666616      577     0.27544907              0 
16975257      558     0.17670419      3290.1588 
Loop time of 3290.16 on 40 procs for 308641 steps with 558 atoms, finish time Mon Dec 26 04:22:42 2022


Pair  time (%) = 0.62607 (0.0190286)
Neigh time (%) = 74.5831 (2.26685)
Comm  time (%) = 35.9113 (1.09148)
Outpt time (%) = 0.00057888 (1.75943e-05)
Other time (%) = 3179.04 (96.6226)

Nlocal:    13.95 ave 226 max 0 min
Histogram: 36 2 0 0 0 0 0 0 1 1
Nghost:    1.675 ave 22 max 0 min
Histogram: 36 0 0 1 0 1 0 0 1 1
Neighs:    0.15 ave 2 max 0 min
Histogram: 36 0 0 0 0 2 0 0 0 2

Total # of neighbors = 6
Ave neighs/atom = 0.0107527
Neighbor list builds = 28007
Dangerous builds = 1234
write_dump all custom dump.atom_info_ac_* id type x y z radius vx vy vz density #
run 308641
Setting up run at Mon Dec 26 04:22:42 2022

Memory usage per processor = 964.609 Mbytes
    Step    Atoms         KinEng            CPU 
16975257      558     0.17670419              0 
17283898      545     0.17301731      3254.9117 
Loop time of 3254.91 on 40 procs for 308641 steps with 545 atoms, finish time Mon Dec 26 05:16:57 2022


Pair  time (%) = 0.626131 (0.0192365)
Neigh time (%) = 69.579 (2.13766)
Comm  time (%) = 22.2986 (0.685075)
Outpt time (%) = 0.000477429 (1.4668e-05)
Other time (%) = 3162.41 (97.158)

Nlocal:    13.625 ave 224 max 0 min
Histogram: 37 1 0 0 0 0 0 0 1 1
Nghost:    1.8 ave 23 max 0 min
Histogram: 36 0 0 1 0 0 1 1 0 1
Neighs:    0.15 ave 3 max 0 min
Histogram: 37 0 0 1 0 0 1 0 0 1

Total # of neighbors = 6
Ave neighs/atom = 0.0110092
Neighbor list builds = 26138
Dangerous builds = 1345
write_dump all custom dump.atom_info_ac_* id type x y z radius vx vy vz density #
run 308641
Setting up run at Mon Dec 26 05:16:57 2022

Memory usage per processor = 964.609 Mbytes
    Step    Atoms         KinEng            CPU 
17283898      545     0.17301731              0 
17592539      525     0.20814992      3231.9383 
Loop time of 3231.94 on 40 procs for 308641 steps with 525 atoms, finish time Mon Dec 26 06:10:49 2022


Pair  time (%) = 0.614452 (0.0190119)
Neigh time (%) = 62.6502 (1.93847)
Comm  time (%) = 32.5865 (1.00827)
Outpt time (%) = 0.000245453 (7.59459e-06)
Other time (%) = 3136.09 (97.0342)

Nlocal:    13.125 ave 217 max 0 min
Histogram: 36 2 0 0 0 0 0 0 1 1
Nghost:    1.575 ave 22 max 0 min
Histogram: 36 0 0 2 0 0 0 0 0 2
Neighs:    0.175 ave 4 max 0 min
Histogram: 37 0 1 0 0 1 0 0 0 1

Total # of neighbors = 7
Ave neighs/atom = 0.0133333
Neighbor list builds = 23540
Dangerous builds = 546
write_dump all custom dump.atom_info_ac_* id type x y z radius vx vy vz density #
run 308641
Setting up run at Mon Dec 26 06:10:49 2022

Memory usage per processor = 964.609 Mbytes
    Step    Atoms         KinEng            CPU 
17592539      525     0.20814992              0 
17901180      518     0.18734704      3222.9495 
Loop time of 3222.95 on 40 procs for 308641 steps with 518 atoms, finish time Mon Dec 26 07:04:32 2022


Pair  time (%) = 0.619593 (0.0192244)
Neigh time (%) = 59.5658 (1.84818)
Comm  time (%) = 23.2156 (0.72032)
Outpt time (%) = 0.000460497 (1.42881e-05)
Other time (%) = 3139.55 (97.4123)

Nlocal:    12.95 ave 218 max 0 min
Histogram: 37 1 0 0 0 0 0 0 1 1
Nghost:    1.45 ave 19 max 0 min
Histogram: 35 1 0 1 0 1 0 0 1 1
Neighs:    0.15 ave 3 max 0 min
Histogram: 37 0 0 1 0 0 1 0 0 1

Total # of neighbors = 6
Ave neighs/atom = 0.011583
Neighbor list builds = 22393
Dangerous builds = 88
write_dump all custom dump.atom_info_ac_* id type x y z radius vx vy vz density #
run 308641
Setting up run at Mon Dec 26 07:04:32 2022

Memory usage per processor = 964.609 Mbytes
    Step    Atoms         KinEng            CPU 
17901180      518     0.18734704              0 
18209821      508     0.15399773      3220.0517 
Loop time of 3220.05 on 40 procs for 308641 steps with 508 atoms, finish time Mon Dec 26 07:58:12 2022


Pair  time (%) = 0.611609 (0.0189938)
Neigh time (%) = 62.1297 (1.92946)
Comm  time (%) = 29.694 (0.922158)
Outpt time (%) = 0.000570252 (1.77094e-05)
Other time (%) = 3127.62 (97.1294)

Nlocal:    12.7 ave 218 max 0 min
Histogram: 37 1 0 0 0 0 0 0 1 1
Nghost:    1.475 ave 22 max 0 min
Histogram: 36 1 0 0 1 0 0 1 0 1
Neighs:    0.15 ave 3 max 0 min
Histogram: 37 0 0 1 0 0 1 0 0 1

Total # of neighbors = 6
Ave neighs/atom = 0.011811
Neighbor list builds = 23365
Dangerous builds = 34
write_dump all custom dump.atom_info_ac_* id type x y z radius vx vy vz density #
run 308641
Setting up run at Mon Dec 26 07:58:12 2022

Memory usage per processor = 964.609 Mbytes
    Step    Atoms         KinEng            CPU 
18209821      508     0.15399773              0 
18518462      503     0.12340231      3227.4501 
Loop time of 3227.45 on 40 procs for 308641 steps with 503 atoms, finish time Mon Dec 26 08:51:59 2022


Pair  time (%) = 0.615009 (0.0190556)
Neigh time (%) = 60.038 (1.86023)
Comm  time (%) = 23.5227 (0.728833)
Outpt time (%) = 0.00607702 (0.000188292)
Other time (%) = 3143.27 (97.3917)

Nlocal:    12.575 ave 209 max 0 min
Histogram: 36 2 0 0 0 0 0 0 1 1
Nghost:    1.7 ave 27 max 0 min
Histogram: 35 2 0 1 0 0 0 0 1 1
Neighs:    0.175 ave 4 max 0 min
Histogram: 38 0 0 0 0 0 0 1 0 1

Total # of neighbors = 7
Ave neighs/atom = 0.0139165
Neighbor list builds = 22573
Dangerous builds = 3
write_dump all custom dump.atom_info_ac_* id type x y z radius vx vy vz density #
run 308641
Setting up run at Mon Dec 26 08:51:59 2022

Memory usage per processor = 964.609 Mbytes
    Step    Atoms         KinEng            CPU 
18518462      503     0.12340231              0 
18827103      498     0.10373346      3230.5676 
Loop time of 3230.57 on 40 procs for 308641 steps with 498 atoms, finish time Mon Dec 26 09:45:50 2022


Pair  time (%) = 0.615898 (0.0190647)
Neigh time (%) = 60.9149 (1.88558)
Comm  time (%) = 24.3524 (0.753812)
Outpt time (%) = 0.000512524 (1.58648e-05)
Other time (%) = 3144.68 (97.3415)

Nlocal:    12.45 ave 204 max 0 min
Histogram: 37 1 0 0 0 0 0 0 1 1
Nghost:    1.675 ave 26 max 0 min
Histogram: 35 2 0 0 1 0 0 1 0 1
Neighs:    0.075 ave 2 max 0 min
Histogram: 38 0 0 0 0 1 0 0 0 1

Total # of neighbors = 3
Ave neighs/atom = 0.0060241
Neighbor list builds = 22906
Dangerous builds = 5
write_dump all custom dump.atom_info_ac_* id type x y z radius vx vy vz density #
run 308641
Setting up run at Mon Dec 26 09:45:50 2022

Memory usage per processor = 964.609 Mbytes
    Step    Atoms         KinEng            CPU 
18827103      498     0.10373346              0 
19135744      492     0.10941622      3224.4693 
Loop time of 3224.47 on 40 procs for 308641 steps with 492 atoms, finish time Mon Dec 26 10:39:35 2022


Pair  time (%) = 0.618845 (0.0191922)
Neigh time (%) = 62.318 (1.93266)
Comm  time (%) = 19.2232 (0.596166)
Outpt time (%) = 0.00051631 (1.60122e-05)
Other time (%) = 3142.31 (97.452)

Nlocal:    12.3 ave 188 max 0 min
Histogram: 36 2 0 0 0 0 0 0 0 2
Nghost:    1.4 ave 20 max 0 min
Histogram: 35 1 0 2 0 0 0 0 0 2
Neighs:    0.125 ave 4 max 0 min
Histogram: 38 0 1 0 0 0 0 0 0 1

Total # of neighbors = 5
Ave neighs/atom = 0.0101626
Neighbor list builds = 23434
Dangerous builds = 42
write_dump all custom dump.atom_info_ac_* id type x y z radius vx vy vz density #
run 308641
Setting up run at Mon Dec 26 10:39:35 2022

Memory usage per processor = 964.609 Mbytes
    Step    Atoms         KinEng            CPU 
19135744      492     0.10941622              0 
19444385      482     0.12064369      3241.2471 
Loop time of 3241.25 on 40 procs for 308641 steps with 482 atoms, finish time Mon Dec 26 11:33:36 2022


Pair  time (%) = 0.623557 (0.0192382)
Neigh time (%) = 65.2764 (2.01393)
Comm  time (%) = 17.7564 (0.547826)
Outpt time (%) = 0.000323924 (9.99382e-06)
Other time (%) = 3157.59 (97.419)

Nlocal:    12.05 ave 187 max 0 min
Histogram: 36 2 0 0 0 0 0 0 0 2
Nghost:    1.425 ave 25 max 0 min
Histogram: 36 0 2 0 0 0 1 0 0 1
Neighs:    0.2 ave 7 max 0 min
Histogram: 38 1 0 0 0 0 0 0 0 1

Total # of neighbors = 8
Ave neighs/atom = 0.0165975
Neighbor list builds = 24543
Dangerous builds = 490
write_dump all custom dump.atom_info_ac_* id type x y z radius vx vy vz density #
run 308641
Setting up run at Mon Dec 26 11:33:36 2022

Memory usage per processor = 964.609 Mbytes
    Step    Atoms         KinEng            CPU 
19444385      482     0.12064369              0 
19753026      474    0.067379709       3223.658 
Loop time of 3223.66 on 40 procs for 308641 steps with 474 atoms, finish time Mon Dec 26 12:27:20 2022


Pair  time (%) = 0.610823 (0.0189481)
Neigh time (%) = 61.9116 (1.92054)
Comm  time (%) = 22.4496 (0.696401)
Outpt time (%) = 0.000510876 (1.58477e-05)
Other time (%) = 3138.69 (97.3641)

Nlocal:    11.85 ave 188 max 0 min
Histogram: 36 2 0 0 0 0 0 0 0 2
Nghost:    1.575 ave 24 max 0 min
Histogram: 35 1 2 0 0 0 0 1 0 1
Neighs:    0.125 ave 4 max 0 min
Histogram: 38 0 1 0 0 0 0 0 0 1

Total # of neighbors = 5
Ave neighs/atom = 0.0105485
Neighbor list builds = 23281
Dangerous builds = 409
write_dump all custom dump.atom_info_ac_* id type x y z radius vx vy vz density #
run 308641
Setting up run at Mon Dec 26 12:27:20 2022

Memory usage per processor = 964.609 Mbytes
    Step    Atoms         KinEng            CPU 
19753026      474    0.067379709              0 
20061667      469     0.10565438      3254.2505 
Loop time of 3254.25 on 40 procs for 308641 steps with 469 atoms, finish time Mon Dec 26 13:21:34 2022


Pair  time (%) = 0.614177 (0.0188731)
Neigh time (%) = 65.5239 (2.01349)
Comm  time (%) = 34.656 (1.06494)
Outpt time (%) = 0.000633803 (1.94761e-05)
Other time (%) = 3153.46 (96.9027)

Nlocal:    11.725 ave 186 max 0 min
Histogram: 36 2 0 0 0 0 0 0 0 2
Nghost:    1.55 ave 22 max 0 min
Histogram: 35 1 1 0 1 0 1 0 0 1
Neighs:    0.125 ave 3 max 0 min
Histogram: 38 0 0 0 0 0 1 0 0 1

Total # of neighbors = 5
Ave neighs/atom = 0.010661
Neighbor list builds = 24640
Dangerous builds = 6
write_dump all custom dump.atom_info_ac_* id type x y z radius vx vy vz density #
run 308641
Setting up run at Mon Dec 26 13:21:34 2022

Memory usage per processor = 964.609 Mbytes
    Step    Atoms         KinEng            CPU 
20061667      469     0.10565438              0 
20370308      459    0.071919279      3200.3994 
Loop time of 3200.4 on 40 procs for 308641 steps with 459 atoms, finish time Mon Dec 26 14:14:54 2022


Pair  time (%) = 0.607679 (0.0189876)
Neigh time (%) = 58.7275 (1.83501)
Comm  time (%) = 24.0574 (0.751699)
Outpt time (%) = 0.00603238 (0.000188488)
Other time (%) = 3117 (97.3941)

Nlocal:    11.475 ave 180 max 0 min
Histogram: 36 2 0 0 0 0 0 0 0 2
Nghost:    1.5 ave 23 max 0 min
Histogram: 36 0 1 1 0 0 0 0 1 1
Neighs:    0.15 ave 4 max 0 min
Histogram: 38 0 0 0 0 1 0 0 0 1

Total # of neighbors = 6
Ave neighs/atom = 0.0130719
Neighbor list builds = 22090
Dangerous builds = 43
write_dump all custom dump.atom_info_ac_* id type x y z radius vx vy vz density #
run 308641
Setting up run at Mon Dec 26 14:14:55 2022

Memory usage per processor = 964.609 Mbytes
    Step    Atoms         KinEng            CPU 
20370308      459    0.071919279              0 
20678949      452    0.081609318      3216.4099 
Loop time of 3216.41 on 40 procs for 308641 steps with 452 atoms, finish time Mon Dec 26 15:08:31 2022


Pair  time (%) = 0.612286 (0.0190363)
Neigh time (%) = 61.5614 (1.91398)
Comm  time (%) = 25.1028 (0.780459)
Outpt time (%) = 0.000484019 (1.50484e-05)
Other time (%) = 3129.13 (97.2865)

Nlocal:    11.3 ave 175 max 0 min
Histogram: 36 2 0 0 0 0 0 0 0 2
Nghost:    1.25 ave 23 max 0 min
Histogram: 36 1 1 0 0 0 0 1 0 1
Neighs:    0.15 ave 4 max 0 min
Histogram: 38 0 0 0 0 1 0 0 0 1

Total # of neighbors = 6
Ave neighs/atom = 0.0132743
Neighbor list builds = 23156
Dangerous builds = 70
write_dump all custom dump.atom_info_ac_* id type x y z radius vx vy vz density #
run 308641
Setting up run at Mon Dec 26 15:08:31 2022

Memory usage per processor = 964.609 Mbytes
    Step    Atoms         KinEng            CPU 
20678949      452    0.081609318              0 
20987590      449    0.097306037      3218.1014 
Loop time of 3218.1 on 40 procs for 308641 steps with 449 atoms, finish time Mon Dec 26 16:02:09 2022


Pair  time (%) = 0.613365 (0.0190598)
Neigh time (%) = 61.5108 (1.9114)
Comm  time (%) = 23.7012 (0.736497)
Outpt time (%) = 0.00599746 (0.000186367)
Other time (%) = 3132.27 (97.3329)

Nlocal:    11.225 ave 172 max 0 min
Histogram: 36 2 0 0 0 0 0 0 0 2
Nghost:    1.4 ave 23 max 0 min
Histogram: 36 1 1 0 0 0 0 1 0 1
Neighs:    0.05 ave 2 max 0 min
Histogram: 39 0 0 0 0 0 0 0 0 1

Total # of neighbors = 2
Ave neighs/atom = 0.00445434
Neighbor list builds = 23136
Dangerous builds = 2
write_dump all custom dump.atom_info_ac_* id type x y z radius vx vy vz density #
run 308641
Setting up run at Mon Dec 26 16:02:09 2022

Memory usage per processor = 964.609 Mbytes
    Step    Atoms         KinEng            CPU 
20987590      449    0.097306037              0 
21296231      444    0.093942634      3211.9626 
Loop time of 3211.96 on 40 procs for 308641 steps with 444 atoms, finish time Mon Dec 26 16:55:41 2022


Pair  time (%) = 0.61005 (0.018993)
Neigh time (%) = 58.7628 (1.8295)
Comm  time (%) = 23.1733 (0.721468)
Outpt time (%) = 0.000250466 (7.79791e-06)
Other time (%) = 3129.42 (97.43)

Nlocal:    11.1 ave 173 max 0 min
Histogram: 36 2 0 0 0 0 0 0 0 2
Nghost:    1.475 ave 22 max 0 min
Histogram: 36 1 0 0 1 0 1 0 0 1
Neighs:    0.1 ave 3 max 0 min
Histogram: 38 0 0 1 0 0 0 0 0 1

Total # of neighbors = 4
Ave neighs/atom = 0.00900901
Neighbor list builds = 22106
Dangerous builds = 3
write_dump all custom dump.atom_info_ac_* id type x y z radius vx vy vz density #
run 308641
Setting up run at Mon Dec 26 16:55:41 2022

Memory usage per processor = 964.609 Mbytes
    Step    Atoms         KinEng            CPU 
21296231      444    0.093942634              0 
21604872      434    0.097790814      3228.6701 
Loop time of 3228.67 on 40 procs for 308641 steps with 434 atoms, finish time Mon Dec 26 17:49:30 2022


Pair  time (%) = 0.609068 (0.0188643)
Neigh time (%) = 64.1701 (1.98751)
Comm  time (%) = 27.362 (0.847469)
Outpt time (%) = 0.000523157 (1.62035e-05)
Other time (%) = 3136.53 (97.1461)

Nlocal:    10.85 ave 178 max 0 min
Histogram: 36 2 0 0 0 0 0 0 1 1
Nghost:    1.4 ave 21 max 0 min
Histogram: 36 0 1 1 0 0 0 0 1 1
Neighs:    0.15 ave 3 max 0 min
Histogram: 38 0 0 0 0 0 0 0 0 2

Total # of neighbors = 6
Ave neighs/atom = 0.0138249
Neighbor list builds = 24138
Dangerous builds = 740
write_dump all custom dump.atom_info_ac_* id type x y z radius vx vy vz density #
run 308641
Setting up run at Mon Dec 26 17:49:30 2022

Memory usage per processor = 964.609 Mbytes
    Step    Atoms         KinEng            CPU 
21604872      434    0.097790814              0 
21913513      429     0.08672974      3220.7744 
Loop time of 3220.77 on 40 procs for 308641 steps with 429 atoms, finish time Mon Dec 26 18:43:11 2022


Pair  time (%) = 0.599011 (0.0185983)
Neigh time (%) = 62.1885 (1.93085)
Comm  time (%) = 31.1515 (0.967205)
Outpt time (%) = 0.000488747 (1.51748e-05)
Other time (%) = 3126.84 (97.0833)

Nlocal:    10.725 ave 176 max 0 min
Histogram: 36 2 0 0 0 0 0 0 1 1
Nghost:    1.525 ave 21 max 0 min
Histogram: 35 2 0 0 0 1 0 1 0 1
Neighs:    0.1 ave 3 max 0 min
Histogram: 38 0 0 1 0 0 0 0 0 1

Total # of neighbors = 4
Ave neighs/atom = 0.00932401
Neighbor list builds = 23400
Dangerous builds = 32
write_dump all custom dump.atom_info_ac_* id type x y z radius vx vy vz density #
run 308641
Setting up run at Mon Dec 26 18:43:11 2022

Memory usage per processor = 964.609 Mbytes
    Step    Atoms         KinEng            CPU 
21913513      429     0.08672974              0 
22222154      421     0.14916699      3240.0305 
Loop time of 3240.03 on 40 procs for 308641 steps with 421 atoms, finish time Mon Dec 26 19:37:11 2022


Pair  time (%) = 0.605117 (0.0186763)
Neigh time (%) = 67.2735 (2.07632)
Comm  time (%) = 22.049 (0.68052)
Outpt time (%) = 0.000546103 (1.68549e-05)
Other time (%) = 3150.1 (97.2245)

Nlocal:    10.525 ave 174 max 0 min
Histogram: 36 2 0 0 0 0 0 0 1 1
Nghost:    1.125 ave 18 max 0 min
Histogram: 35 2 0 1 0 0 0 1 0 1
Neighs:    0.125 ave 4 max 0 min
Histogram: 38 0 1 0 0 0 0 0 0 1

Total # of neighbors = 5
Ave neighs/atom = 0.0118765
Neighbor list builds = 25302
Dangerous builds = 628
write_dump all custom dump.atom_info_ac_* id type x y z radius vx vy vz density #
run 308641
Setting up run at Mon Dec 26 19:37:11 2022

Memory usage per processor = 964.609 Mbytes
    Step    Atoms         KinEng            CPU 
22222154      421     0.14916699              0 
22530795      416     0.13058477      3212.1587 
Loop time of 3212.16 on 40 procs for 308641 steps with 416 atoms, finish time Mon Dec 26 20:30:43 2022


Pair  time (%) = 0.603263 (0.0187806)
Neigh time (%) = 59.2429 (1.84433)
Comm  time (%) = 25.6395 (0.798202)
Outpt time (%) = 0.00058979 (1.83612e-05)
Other time (%) = 3126.67 (97.3387)

Nlocal:    10.4 ave 167 max 0 min
Histogram: 36 2 0 0 0 0 0 0 0 2
Nghost:    1.275 ave 20 max 0 min
Histogram: 35 2 1 0 0 0 0 0 0 2
Neighs:    0.05 ave 2 max 0 min
Histogram: 39 0 0 0 0 0 0 0 0 1

Total # of neighbors = 2
Ave neighs/atom = 0.00480769
Neighbor list builds = 22282
Dangerous builds = 9
write_dump all custom dump.atom_info_ac_* id type x y z radius vx vy vz density #
run 308641
Setting up run at Mon Dec 26 20:30:43 2022

Memory usage per processor = 964.609 Mbytes
    Step    Atoms         KinEng            CPU 
22530795      416     0.13058477              0 
22839436      410      0.1148368      3217.9969 
Loop time of 3218 on 40 procs for 308641 steps with 410 atoms, finish time Mon Dec 26 21:24:21 2022


Pair  time (%) = 0.60027 (0.0186535)
Neigh time (%) = 61.029 (1.89649)
Comm  time (%) = 27.774 (0.863082)
Outpt time (%) = 0.00568749 (0.00017674)
Other time (%) = 3128.59 (97.2216)

Nlocal:    10.25 ave 172 max 0 min
Histogram: 37 1 0 0 0 0 0 0 1 1
Nghost:    1.1 ave 17 max 0 min
Histogram: 36 1 1 0 0 0 0 0 0 2
Neighs:    0.075 ave 2 max 0 min
Histogram: 38 0 0 0 0 1 0 0 0 1

Total # of neighbors = 3
Ave neighs/atom = 0.00731707
Neighbor list builds = 22961
Dangerous builds = 74
write_dump all custom dump.atom_info_ac_* id type x y z radius vx vy vz density #
run 308641
Setting up run at Mon Dec 26 21:24:21 2022

Memory usage per processor = 964.609 Mbytes
    Step    Atoms         KinEng            CPU 
22839436      410      0.1148368              0 
23148077      405     0.10115157      3206.4036 
Loop time of 3206.4 on 40 procs for 308641 steps with 405 atoms, finish time Mon Dec 26 22:17:48 2022


Pair  time (%) = 0.605921 (0.0188972)
Neigh time (%) = 59.1856 (1.84585)
Comm  time (%) = 14.4082 (0.449357)
Outpt time (%) = 0.000617737 (1.92657e-05)
Other time (%) = 3132.2 (97.6859)

Nlocal:    10.125 ave 175 max 0 min
Histogram: 37 1 0 0 0 0 0 0 1 1
Nghost:    1.025 ave 15 max 0 min
Histogram: 36 1 0 1 0 0 0 0 0 2
Neighs:    0.125 ave 4 max 0 min
Histogram: 38 0 1 0 0 0 0 0 0 1

Total # of neighbors = 5
Ave neighs/atom = 0.0123457
Neighbor list builds = 22266
Dangerous builds = 6
write_dump all custom dump.atom_info_ac_* id type x y z radius vx vy vz density #
run 308641
Setting up run at Mon Dec 26 22:17:48 2022

Memory usage per processor = 964.609 Mbytes
    Step    Atoms         KinEng            CPU 
23148077      405     0.10115157              0 
23456718      400     0.16577501      3221.8647 
Loop time of 3221.87 on 40 procs for 308641 steps with 400 atoms, finish time Mon Dec 26 23:11:30 2022


Pair  time (%) = 0.610793 (0.0189577)
Neigh time (%) = 59.7454 (1.85437)
Comm  time (%) = 15.3183 (0.475448)
Outpt time (%) = 0.000567499 (1.7614e-05)
Other time (%) = 3146.19 (97.6512)

Nlocal:    10 ave 170 max 0 min
Histogram: 36 2 0 0 0 0 0 0 1 1
Nghost:    1.05 ave 18 max 0 min
Histogram: 36 1 1 0 0 0 0 0 1 1
Neighs:    0.15 ave 3 max 0 min
Histogram: 38 0 0 0 0 0 0 0 0 2

Total # of neighbors = 6
Ave neighs/atom = 0.015
Neighbor list builds = 22472
Dangerous builds = 11
write_dump all custom dump.atom_info_ac_* id type x y z radius vx vy vz density #
run 308641
Setting up run at Mon Dec 26 23:11:30 2022

Memory usage per processor = 964.609 Mbytes
    Step    Atoms         KinEng            CPU 
23456718      400     0.16577501              0 
23765359      393     0.17291006      3203.7101 
Loop time of 3203.71 on 40 procs for 308641 steps with 393 atoms, finish time Tue Dec 27 00:04:54 2022


Pair  time (%) = 0.604883 (0.0188807)
Neigh time (%) = 58.7946 (1.8352)
Comm  time (%) = 20.1723 (0.629653)
Outpt time (%) = 0.000542097 (1.69209e-05)
Other time (%) = 3124.14 (97.5162)

Nlocal:    9.825 ave 169 max 0 min
Histogram: 37 1 0 0 0 0 0 0 1 1
Nghost:    1.075 ave 19 max 0 min
Histogram: 36 1 0 1 0 0 1 0 0 1
Neighs:    0.1 ave 2 max 0 min
Histogram: 38 0 0 0 0 0 0 0 0 2

Total # of neighbors = 4
Ave neighs/atom = 0.0101781
Neighbor list builds = 22122
Dangerous builds = 80
write_dump all custom dump.atom_info_ac_* id type x y z radius vx vy vz density #
run 308641
Setting up run at Tue Dec 27 00:04:54 2022

Memory usage per processor = 964.609 Mbytes
    Step    Atoms         KinEng            CPU 
23765359      393     0.17291006              0 
24074000      389     0.19879305      3225.3971 
Loop time of 3225.4 on 40 procs for 308641 steps with 389 atoms, finish time Tue Dec 27 00:58:39 2022


Pair  time (%) = 0.608724 (0.0188728)
Neigh time (%) = 63.0195 (1.95385)
Comm  time (%) = 25.374 (0.786695)
Outpt time (%) = 0.000736537 (2.28356e-05)
Other time (%) = 3136.39 (97.2406)

Nlocal:    9.725 ave 171 max 0 min
Histogram: 37 1 0 0 0 0 0 0 1 1
Nghost:    1.175 ave 22 max 0 min
Histogram: 37 0 1 0 0 0 1 0 0 1
Neighs:    0.075 ave 3 max 0 min
Histogram: 39 0 0 0 0 0 0 0 0 1

Total # of neighbors = 3
Ave neighs/atom = 0.00771208
Neighbor list builds = 23720
Dangerous builds = 42
write_dump all custom dump.atom_info_ac_* id type x y z radius vx vy vz density #
run 308641
Setting up run at Tue Dec 27 00:58:39 2022

Memory usage per processor = 964.609 Mbytes
    Step    Atoms         KinEng            CPU 
24074000      389     0.19879305              0 
24382641      382     0.22760302      3230.5338 
Loop time of 3230.53 on 40 procs for 308641 steps with 382 atoms, finish time Tue Dec 27 01:52:30 2022


Pair  time (%) = 0.603631 (0.0186852)
Neigh time (%) = 61.87 (1.91516)
Comm  time (%) = 22.7419 (0.703968)
Outpt time (%) = 0.000511963 (1.58476e-05)
Other time (%) = 3145.32 (97.3622)

Nlocal:    9.55 ave 173 max 0 min
Histogram: 37 1 0 0 0 0 0 1 0 1
Nghost:    1.075 ave 18 max 0 min
Histogram: 36 1 0 1 0 0 0 1 0 1
Neighs:    0.05 ave 2 max 0 min
Histogram: 39 0 0 0 0 0 0 0 0 1

Total # of neighbors = 2
Ave neighs/atom = 0.0052356
Neighbor list builds = 23277
Dangerous builds = 197
write_dump all custom dump.atom_info_ac_* id type x y z radius vx vy vz density #
run 308641
Setting up run at Tue Dec 27 01:52:30 2022

Memory usage per processor = 964.609 Mbytes
    Step    Atoms         KinEng            CPU 
24382641      382     0.22760302              0 
24691282      382     0.16480827      3210.8179 
Loop time of 3210.82 on 40 procs for 308641 steps with 382 atoms, finish time Tue Dec 27 02:46:01 2022


Pair  time (%) = 0.600938 (0.0187161)
Neigh time (%) = 60.0368 (1.86983)
Comm  time (%) = 17.945 (0.558893)
Outpt time (%) = 0.000278956 (8.68801e-06)
Other time (%) = 3132.24 (97.5526)

Nlocal:    9.55 ave 171 max 0 min
Histogram: 37 1 0 0 0 0 0 0 1 1
Nghost:    1.1 ave 16 max 0 min
Histogram: 35 2 0 0 1 0 0 0 1 1
Neighs:    0.1 ave 3 max 0 min
Histogram: 38 0 0 1 0 0 0 0 0 1

Total # of neighbors = 4
Ave neighs/atom = 0.0104712
Neighbor list builds = 22599
Dangerous builds = 0
[...]
Loop time of 2949.25 on 40 procs for 308641 steps with 237 atoms, finish time Thu Dec 29 06:35:18 2022


Pair  time (%) = 0.531313 (0.0180152)
Neigh time (%) = 2.12145 (0.0719317)
Comm  time (%) = 2.55706 (0.0867022)
Outpt time (%) = 0.000467944 (1.58665e-05)
Other time (%) = 2944.04 (99.8233)

Nlocal:    5.925 ave 105 max 0 min
Histogram: 37 1 0 0 0 0 0 0 0 2
Nghost:    0.7 ave 10 max 0 min
Histogram: 35 1 0 1 0 0 1 0 1 1
Neighs:    0.1 ave 3 max 0 min
Histogram: 38 0 0 1 0 0 0 0 0 1

Total # of neighbors = 4
Ave neighs/atom = 0.0168776
Neighbor list builds = 825
Dangerous builds = 0
write_dump all custom dump.atom_info_ac_* id type x y z radius vx vy vz density #
run 308641
Setting up run at Thu Dec 29 06:35:18 2022

Memory usage per processor = 964.609 Mbytes
    Step    Atoms         KinEng            CPU 
43518479      237  5.8288855e-05              0 
43827120      237  7.7957273e-05      2963.1679 
Loop time of 2963.17 on 40 procs for 308641 steps with 237 atoms, finish time Thu Dec 29 07:24:41 2022


Pair  time (%) = 0.53238 (0.0179666)
Neigh time (%) = 7.23422 (0.244138)
Comm  time (%) = 3.60994 (0.121827)
Outpt time (%) = 0.000540123 (1.82279e-05)
Other time (%) = 2951.79 (99.6161)

Nlocal:    5.925 ave 106 max 0 min
Histogram: 37 1 0 0 0 0 0 0 0 2
Nghost:    0.725 ave 13 max 0 min
Histogram: 36 0 1 0 1 1 0 0 0 1
Neighs:    0.1 ave 3 max 0 min
Histogram: 38 0 0 1 0 0 0 0 0 1

Total # of neighbors = 4
Ave neighs/atom = 0.0168776
Neighbor list builds = 2749
Dangerous builds = 0
write_dump all custom dump.atom_info_ac_* id type x y z radius vx vy vz density #
run 308641
Setting up run at Thu Dec 29 07:24:41 2022

Memory usage per processor = 964.609 Mbytes
    Step    Atoms         KinEng            CPU 
43827120      237  7.7957273e-05              0 
44135761      236  6.6456172e-05      2952.3384 
Loop time of 2952.34 on 40 procs for 308641 steps with 236 atoms, finish time Thu Dec 29 08:13:54 2022


Pair  time (%) = 0.531028 (0.0179867)
Neigh time (%) = 5.81977 (0.197124)
Comm  time (%) = 3.25272 (0.110174)
Outpt time (%) = 0.000449022 (1.5209e-05)
Other time (%) = 2942.73 (99.6747)

Nlocal:    5.9 ave 105 max 0 min
Histogram: 37 1 0 0 0 0 0 0 0 2
Nghost:    0.65 ave 8 max 0 min
Histogram: 35 1 0 1 0 0 0 1 0 2
Neighs:    0.1 ave 3 max 0 min
Histogram: 38 0 0 1 0 0 0 0 0 1

Total # of neighbors = 4
Ave neighs/atom = 0.0169492
Neighbor list builds = 2223
Dangerous builds = 1
write_dump all custom dump.atom_info_ac_* id type x y z radius vx vy vz density #
run 308641
Setting up run at Thu Dec 29 08:13:54 2022

Memory usage per processor = 964.609 Mbytes
    Step    Atoms         KinEng            CPU 
44135761      236  6.6456172e-05              0 
44444402      234  7.9448502e-05      2970.1366 
Loop time of 2970.14 on 40 procs for 308641 steps with 234 atoms, finish time Thu Dec 29 09:03:24 2022


Pair  time (%) = 0.537002 (0.01808)
Neigh time (%) = 5.0626 (0.17045)
Comm  time (%) = 3.3292 (0.112089)
Outpt time (%) = 0.000524547 (1.76607e-05)
Other time (%) = 2961.21 (99.6994)

Nlocal:    5.85 ave 104 max 0 min
Histogram: 37 1 0 0 0 0 0 0 0 2
Nghost:    0.575 ave 8 max 0 min
Histogram: 35 1 1 0 0 0 0 2 0 1
Neighs:    0.175 ave 5 max 0 min
Histogram: 38 0 0 0 1 0 0 0 0 1

Total # of neighbors = 7
Ave neighs/atom = 0.0299145
Neighbor list builds = 1931
Dangerous builds = 2
write_dump all custom dump.atom_info_ac_* id type x y z radius vx vy vz density #
run 308641
Setting up run at Thu Dec 29 09:03:24 2022

Memory usage per processor = 964.609 Mbytes
    Step    Atoms         KinEng            CPU 
44444402      234  7.9448502e-05              0 
44753043      234  5.6457537e-05      2948.4456 
Loop time of 2948.45 on 40 procs for 308641 steps with 234 atoms, finish time Thu Dec 29 09:52:33 2022


Pair  time (%) = 0.522042 (0.0177057)
Neigh time (%) = 2.11183 (0.071625)
Comm  time (%) = 2.90634 (0.0985719)
Outpt time (%) = 0.000526123 (1.78441e-05)
Other time (%) = 2942.91 (99.8121)

Nlocal:    5.85 ave 106 max 0 min
Histogram: 37 1 0 0 0 0 0 0 0 2
Nghost:    0.75 ave 12 max 0 min
Histogram: 35 2 0 1 0 0 1 0 0 1
Neighs:    0.075 ave 2 max 0 min
Histogram: 38 0 0 0 0 1 0 0 0 1

Total # of neighbors = 3
Ave neighs/atom = 0.0128205
Neighbor list builds = 825
Dangerous builds = 0
write_dump all custom dump.atom_info_ac_* id type x y z radius vx vy vz density #
run 308641
Setting up run at Thu Dec 29 09:52:33 2022

Memory usage per processor = 964.609 Mbytes
    Step    Atoms         KinEng            CPU 
44753043      234  5.6457537e-05              0 
45061684      234   0.0012904678      2952.4792 
Loop time of 2952.48 on 40 procs for 308641 steps with 234 atoms, finish time Thu Dec 29 10:41:45 2022


Pair  time (%) = 0.528981 (0.0179165)
Neigh time (%) = 5.0208 (0.170054)
Comm  time (%) = 3.69881 (0.125278)
Outpt time (%) = 0.000538535 (1.82401e-05)
Other time (%) = 2943.23 (99.6867)

Nlocal:    5.85 ave 104 max 0 min
Histogram: 38 0 0 0 0 0 0 0 0 2
Nghost:    0.65 ave 9 max 0 min
Histogram: 34 1 2 0 1 0 0 0 1 1
Neighs:    0.1 ave 3 max 0 min
Histogram: 38 0 0 1 0 0 0 0 0 1

Total # of neighbors = 4
Ave neighs/atom = 0.017094
Neighbor list builds = 1928
Dangerous builds = 0
write_dump all custom dump.atom_info_ac_* id type x y z radius vx vy vz density #
run 308641
Setting up run at Thu Dec 29 10:41:45 2022

Memory usage per processor = 964.609 Mbytes
    Step    Atoms         KinEng            CPU 
45061684      234   0.0012904678              0 
45370325      233  0.00015093269      2971.5785 
Loop time of 2971.58 on 40 procs for 308641 steps with 233 atoms, finish time Thu Dec 29 11:31:17 2022


Pair  time (%) = 0.534335 (0.0179815)
Neigh time (%) = 7.48324 (0.251827)
Comm  time (%) = 4.86898 (0.163852)
Outpt time (%) = 0.000667425 (2.24603e-05)
Other time (%) = 2958.69 (99.5663)

Nlocal:    5.825 ave 108 max 0 min
Histogram: 38 0 0 0 0 0 0 0 1 1
Nghost:    0.775 ave 12 max 0 min
Histogram: 35 2 0 1 0 0 0 0 1 1
Neighs:    0.05 ave 2 max 0 min
Histogram: 39 0 0 0 0 0 0 0 0 1

Total # of neighbors = 2
Ave neighs/atom = 0.00858369
Neighbor list builds = 2856
Dangerous builds = 1
write_dump all custom dump.atom_info_ac_* id type x y z radius vx vy vz density #
run 308641
Setting up run at Thu Dec 29 11:31:17 2022

Memory usage per processor = 964.609 Mbytes
    Step    Atoms         KinEng            CPU 
45370325      233  0.00015093269              0 
45678966      232   0.0034155539      2958.2913 
Loop time of 2958.29 on 40 procs for 308641 steps with 232 atoms, finish time Thu Dec 29 12:20:35 2022


Pair  time (%) = 0.525589 (0.0177666)
Neigh time (%) = 4.85348 (0.164063)
Comm  time (%) = 3.19329 (0.107944)
Outpt time (%) = 0.000531814 (1.79771e-05)
Other time (%) = 2949.72 (99.7102)

Nlocal:    5.8 ave 107 max 0 min
Histogram: 38 0 0 0 0 0 0 0 1 1
Nghost:    0.775 ave 12 max 0 min
Histogram: 36 0 1 1 0 0 0 1 0 1
Neighs:    0.025 ave 1 max 0 min
Histogram: 39 0 0 0 0 0 0 0 0 1

Total # of neighbors = 1
Ave neighs/atom = 0.00431034
Neighbor list builds = 1861
Dangerous builds = 31
write_dump all custom dump.atom_info_ac_* id type x y z radius vx vy vz density #
run 308641
Setting up run at Thu Dec 29 12:20:35 2022

Memory usage per processor = 964.609 Mbytes
    Step    Atoms         KinEng            CPU 
45678966      232   0.0034155539              0 
45987607      231  0.00038045228      2972.1562 
Loop time of 2972.16 on 40 procs for 308641 steps with 231 atoms, finish time Thu Dec 29 13:10:07 2022


Pair  time (%) = 0.532674 (0.0179221)
Neigh time (%) = 6.49552 (0.218546)
Comm  time (%) = 3.74871 (0.126127)
Outpt time (%) = 0.0005241 (1.76337e-05)
Other time (%) = 2961.38 (99.6374)

Nlocal:    5.775 ave 108 max 0 min
Histogram: 38 0 0 0 0 0 0 0 1 1
Nghost:    0.75 ave 11 max 0 min
Histogram: 36 1 0 1 0 0 0 0 0 2
Neighs:    0.025 ave 1 max 0 min
Histogram: 39 0 0 0 0 0 0 0 0 1

Total # of neighbors = 1
Ave neighs/atom = 0.004329
Neighbor list builds = 2473
Dangerous builds = 1
write_dump all custom dump.atom_info_ac_* id type x y z radius vx vy vz density #
run 308641
Setting up run at Thu Dec 29 13:10:08 2022

Memory usage per processor = 964.609 Mbytes
    Step    Atoms         KinEng            CPU 
45987607      231  0.00038045228              0 
46296248      229  0.00025857049      3009.4332 
Loop time of 3009.44 on 40 procs for 308641 steps with 229 atoms, finish time Thu Dec 29 14:00:17 2022


Pair  time (%) = 0.529667 (0.0176002)
Neigh time (%) = 8.08872 (0.268778)
Comm  time (%) = 3.77279 (0.125365)
Outpt time (%) = 0.000488793 (1.6242e-05)
Other time (%) = 2997.05 (99.5882)

Nlocal:    5.725 ave 105 max 0 min
Histogram: 37 1 0 0 0 0 0 0 1 1
Nghost:    0.825 ave 14 max 0 min
Histogram: 36 1 1 0 0 0 1 0 0 1
Neighs:    0.075 ave 2 max 0 min
Histogram: 38 0 0 0 0 1 0 0 0 1

Total # of neighbors = 3
Ave neighs/atom = 0.0131004
Neighbor list builds = 3076
Dangerous builds = 2
write_dump all custom dump.atom_info_ac_* id type x y z radius vx vy vz density #
run 308641
Setting up run at Thu Dec 29 14:00:17 2022

Memory usage per processor = 964.609 Mbytes
    Step    Atoms         KinEng            CPU 
46296248      229  0.00025857049              0 
46604889      228  0.00024248717      2937.2655 
Loop time of 2937.27 on 40 procs for 308641 steps with 228 atoms, finish time Thu Dec 29 14:49:14 2022


Pair  time (%) = 0.520152 (0.0177087)
Neigh time (%) = 2.13472 (0.0726771)
Comm  time (%) = 2.39293 (0.0814679)
Outpt time (%) = 0.000599664 (2.04157e-05)
Other time (%) = 2932.22 (99.8281)

Nlocal:    5.7 ave 108 max 0 min
Histogram: 37 1 0 0 0 0 0 0 1 1
Nghost:    0.725 ave 11 max 0 min
Histogram: 36 1 1 0 0 0 0 0 0 2
Neighs:    0.05 ave 1 max 0 min
Histogram: 38 0 0 0 0 0 0 0 0 2

Total # of neighbors = 2
Ave neighs/atom = 0.00877193
Neighbor list builds = 831
Dangerous builds = 1
write_dump all custom dump.atom_info_ac_* id type x y z radius vx vy vz density #
run 308641
Setting up run at Thu Dec 29 14:49:14 2022

Memory usage per processor = 964.609 Mbytes
    Step    Atoms         KinEng            CPU 
46604889      228  0.00024248717              0 
46913530      226  0.00023855915      2965.9927 
Loop time of 2965.99 on 40 procs for 308641 steps with 226 atoms, finish time Thu Dec 29 15:38:41 2022


Pair  time (%) = 0.525031 (0.0177017)
Neigh time (%) = 9.79999 (0.330412)
Comm  time (%) = 5.23057 (0.176351)
Outpt time (%) = 0.000497615 (1.67773e-05)
Other time (%) = 2950.44 (99.4755)

Nlocal:    5.65 ave 108 max 0 min
Histogram: 37 1 0 0 0 0 0 0 1 1
Nghost:    0.525 ave 11 max 0 min
Histogram: 37 1 0 0 0 1 0 0 0 1
Neighs:    0.125 ave 4 max 0 min
Histogram: 38 0 1 0 0 0 0 0 0 1

Total # of neighbors = 5
Ave neighs/atom = 0.0221239
Neighbor list builds = 3715
Dangerous builds = 2
write_dump all custom dump.atom_info_ac_* id type x y z radius vx vy vz density #
run 308641
Setting up run at Thu Dec 29 15:38:41 2022

Memory usage per processor = 964.609 Mbytes
    Step    Atoms         KinEng            CPU 
46913530      226  0.00023855915              0 
47222171      225  0.00024480763      3014.8849 
Loop time of 3014.89 on 40 procs for 308641 steps with 225 atoms, finish time Thu Dec 29 16:28:55 2022


Pair  time (%) = 0.519449 (0.0172295)
Neigh time (%) = 4.16531 (0.138158)
Comm  time (%) = 2.80734 (0.093116)
Outpt time (%) = 0.000503458 (1.66991e-05)
Other time (%) = 3007.39 (99.7515)

Nlocal:    5.625 ave 108 max 0 min
Histogram: 38 0 0 0 0 0 0 0 1 1
Nghost:    0.5 ave 8 max 0 min
Histogram: 34 3 1 0 0 0 0 0 1 1
Neighs:    0.15 ave 5 max 0 min
Histogram: 38 0 1 0 0 0 0 0 0 1

Total # of neighbors = 6
Ave neighs/atom = 0.0266667
Neighbor list builds = 1597
Dangerous builds = 1
write_dump all custom dump.atom_info_ac_* id type x y z radius vx vy vz density #
run 308641
Setting up run at Thu Dec 29 16:28:56 2022

Memory usage per processor = 964.609 Mbytes
    Step    Atoms         KinEng            CPU 
47222171      225  0.00024480763              0 
47530812      222   0.0002345576      2975.6547 
Loop time of 2975.66 on 40 procs for 308641 steps with 222 atoms, finish time Thu Dec 29 17:18:31 2022


Pair  time (%) = 0.528046 (0.0177456)
Neigh time (%) = 9.36749 (0.314804)
Comm  time (%) = 3.87813 (0.130329)
Outpt time (%) = 0.000587726 (1.97512e-05)
Other time (%) = 2961.88 (99.5371)

Nlocal:    5.55 ave 109 max 0 min
Histogram: 38 0 0 0 0 0 0 0 1 1
Nghost:    0.475 ave 10 max 0 min
Histogram: 36 1 0 1 0 1 0 0 0 1
Neighs:    0.075 ave 2 max 0 min
Histogram: 38 0 0 0 0 1 0 0 0 1

Total # of neighbors = 3
Ave neighs/atom = 0.0135135
Neighbor list builds = 3553
Dangerous builds = 3
write_dump all custom dump.atom_info_ac_* id type x y z radius vx vy vz density #
run 308641
Setting up run at Thu Dec 29 17:18:31 2022

Memory usage per processor = 964.609 Mbytes
    Step    Atoms         KinEng            CPU 
47530812      222   0.0002345576              0 
47839453      221  0.00024957168      2990.1619 
Loop time of 2990.16 on 40 procs for 308641 steps with 221 atoms, finish time Thu Dec 29 18:08:21 2022


Pair  time (%) = 0.527395 (0.0176377)
Neigh time (%) = 12.4739 (0.417164)
Comm  time (%) = 5.32228 (0.177993)
Outpt time (%) = 0.000506102 (1.69256e-05)
Other time (%) = 2971.84 (99.3872)

Nlocal:    5.525 ave 107 max 0 min
Histogram: 38 0 0 0 0 0 0 0 1 1
Nghost:    0.525 ave 11 max 0 min
Histogram: 37 0 1 1 0 0 0 0 0 1
Neighs:    0.05 ave 1 max 0 min
Histogram: 38 0 0 0 0 0 0 0 0 2

Total # of neighbors = 2
Ave neighs/atom = 0.00904977
Neighbor list builds = 4727
Dangerous builds = 538
write_dump all custom dump.atom_info_ac_* id type x y z radius vx vy vz density #
run 308641
Setting up run at Thu Dec 29 18:08:22 2022

Memory usage per processor = 964.609 Mbytes
    Step    Atoms         KinEng            CPU 
47839453      221  0.00024957168              0 
48148094      220  0.00023245075      2942.5404 
Loop time of 2942.54 on 40 procs for 308641 steps with 220 atoms, finish time Thu Dec 29 18:57:24 2022


Pair  time (%) = 0.513669 (0.0174567)
Neigh time (%) = 2.6752 (0.0909147)
Comm  time (%) = 2.60136 (0.0884053)
Outpt time (%) = 0.000459134 (1.56033e-05)
Other time (%) = 2936.75 (99.8032)

Nlocal:    5.5 ave 103 max 0 min
Histogram: 38 0 0 0 0 0 0 0 0 2
Nghost:    0.525 ave 8 max 0 min
Histogram: 35 2 0 0 0 1 0 0 1 1
Neighs:    0.1 ave 3 max 0 min
Histogram: 38 0 0 1 0 0 0 0 0 1

Total # of neighbors = 4
Ave neighs/atom = 0.0181818
Neighbor list builds = 1035
Dangerous builds = 1
write_dump all custom dump.atom_info_ac_* id type x y z radius vx vy vz density #
run 308641
Setting up run at Thu Dec 29 18:57:24 2022

Memory usage per processor = 964.609 Mbytes
    Step    Atoms         KinEng            CPU 
48148094      220  0.00023245075              0 
48456735      219  0.00024573773      2950.3508 
Loop time of 2950.35 on 40 procs for 308641 steps with 219 atoms, finish time Thu Dec 29 19:46:35 2022


Pair  time (%) = 0.516972 (0.0175224)
Neigh time (%) = 2.12698 (0.0720924)
Comm  time (%) = 2.83663 (0.0961456)
Outpt time (%) = 0.000518464 (1.7573e-05)
Other time (%) = 2944.87 (99.8142)

Nlocal:    5.475 ave 104 max 0 min
Histogram: 38 0 0 0 0 0 0 0 1 1
Nghost:    0.65 ave 10 max 0 min
Histogram: 33 4 0 1 0 0 0 0 0 2
Neighs:    0.075 ave 2 max 0 min
Histogram: 38 0 0 0 0 1 0 0 0 1

Total # of neighbors = 3
Ave neighs/atom = 0.0136986
Neighbor list builds = 831
Dangerous builds = 1
write_dump all custom dump.atom_info_ac_* id type x y z radius vx vy vz density #
run 308641
Setting up run at Thu Dec 29 19:46:35 2022

Memory usage per processor = 964.609 Mbytes
    Step    Atoms         KinEng            CPU 
48456735      219  0.00024573773              0 
48765376      219  0.00023545034      2943.6105 
Loop time of 2943.61 on 40 procs for 308641 steps with 219 atoms, finish time Thu Dec 29 20:35:38 2022


Pair  time (%) = 0.519345 (0.0176431)
Neigh time (%) = 2.11979 (0.0720131)
Comm  time (%) = 2.66126 (0.0904081)
Outpt time (%) = 0.000501135 (1.70245e-05)
Other time (%) = 2938.31 (99.8199)

Nlocal:    5.475 ave 104 max 0 min
Histogram: 38 0 0 0 0 0 0 0 1 1
Nghost:    0.525 ave 8 max 0 min
Histogram: 33 4 0 1 0 0 0 1 0 1
Neighs:    0.15 ave 3 max 0 min
Histogram: 38 0 0 0 0 0 0 0 0 2

Total # of neighbors = 6
Ave neighs/atom = 0.0273973
Neighbor list builds = 825
Dangerous builds = 0
write_dump all custom dump.atom_info_ac_* id type x y z radius vx vy vz density #
run 308641
Setting up run at Thu Dec 29 20:35:38 2022

Memory usage per processor = 964.609 Mbytes
    Step    Atoms         KinEng            CPU 
48765376      219  0.00023545034              0 
49074017      219  0.00024252193      2957.3931 
Loop time of 2957.39 on 40 procs for 308641 steps with 219 atoms, finish time Thu Dec 29 21:24:56 2022


Pair  time (%) = 0.50992 (0.0172422)
Neigh time (%) = 2.51186 (0.084935)
Comm  time (%) = 2.83983 (0.0960248)
Outpt time (%) = 0.000508134 (1.71818e-05)
Other time (%) = 2951.53 (99.8018)

Nlocal:    5.475 ave 101 max 0 min
Histogram: 38 0 0 0 0 0 0 0 0 2
Nghost:    0.525 ave 11 max 0 min
Histogram: 37 0 1 0 1 0 0 0 0 1
Neighs:    0.15 ave 4 max 0 min
Histogram: 38 0 0 0 0 1 0 0 0 1

Total # of neighbors = 6
Ave neighs/atom = 0.0273973
Neighbor list builds = 973
Dangerous builds = 0
write_dump all custom dump.atom_info_ac_* id type x y z radius vx vy vz density #
run 308641
Setting up run at Thu Dec 29 21:24:56 2022

Memory usage per processor = 964.609 Mbytes
    Step    Atoms         KinEng            CPU 
49074017      219  0.00024252193              0 
49382658      218  0.00024999232      2975.5713 
Loop time of 2975.57 on 40 procs for 308641 steps with 218 atoms, finish time Thu Dec 29 22:14:31 2022


Pair  time (%) = 0.521292 (0.017519)
Neigh time (%) = 7.31204 (0.245736)
Comm  time (%) = 3.59043 (0.120663)
Outpt time (%) = 0.000538633 (1.81018e-05)
Other time (%) = 2964.15 (99.6161)

Nlocal:    5.45 ave 105 max 0 min
Histogram: 38 0 0 0 0 0 0 0 1 1
Nghost:    0.475 ave 9 max 0 min
Histogram: 36 1 0 1 0 0 1 0 0 1
Neighs:    0.125 ave 3 max 0 min
Histogram: 38 0 0 0 0 0 1 0 0 1

Total # of neighbors = 5
Ave neighs/atom = 0.0229358
Neighbor list builds = 2780
Dangerous builds = 1
write_dump all custom dump.atom_info_ac_* id type x y z radius vx vy vz density #
run 308641
Setting up run at Thu Dec 29 22:14:31 2022

Memory usage per processor = 964.609 Mbytes
    Step    Atoms         KinEng            CPU 
49382658      218  0.00024999232              0 
49691299      217  0.00024195125      2994.6017 
Loop time of 2994.6 on 40 procs for 308641 steps with 217 atoms, finish time Thu Dec 29 23:04:26 2022


Pair  time (%) = 0.528104 (0.0176352)
Neigh time (%) = 6.9643 (0.232562)
Comm  time (%) = 4.13218 (0.137988)
Outpt time (%) = 0.000499678 (1.6686e-05)
Other time (%) = 2982.98 (99.6118)

Nlocal:    5.425 ave 102 max 0 min
Histogram: 38 0 0 0 0 0 0 0 0 2
Nghost:    0.375 ave 7 max 0 min
Histogram: 36 1 0 0 1 1 0 0 0 1
Neighs:    0.075 ave 2 max 0 min
Histogram: 38 0 0 0 0 1 0 0 0 1

Total # of neighbors = 3
Ave neighs/atom = 0.0138249
Neighbor list builds = 2649
Dangerous builds = 1
write_dump all custom dump.atom_info_ac_* id type x y z radius vx vy vz density #
run 308641
Setting up run at Thu Dec 29 23:04:26 2022

Memory usage per processor = 964.609 Mbytes
    Step    Atoms         KinEng            CPU 
49691299      217  0.00024195125              0 
WARNING: Forced restart written (../output.cpp:427)
49729547      217  0.00023833173      369.60891 
Loop time of 369.609 on 40 procs for 308641 steps with 217 atoms, finish time Thu Dec 29 23:10:36 2022


Pair  time (%) = 0.0659394 (0.0178403)
Neigh time (%) = 0.264302 (0.0715085)
Comm  time (%) = 0.284972 (0.077101)
Outpt time (%) = 0.0760928 (0.0205874)
Other time (%) = 368.918 (99.813)

Nlocal:    5.425 ave 102 max 0 min
Histogram: 38 0 0 0 0 0 0 0 0 2
Nghost:    0.4 ave 7 max 0 min
Histogram: 36 1 0 0 1 0 0 1 0 1
Neighs:    0.075 ave 2 max 0 min
Histogram: 38 0 0 0 0 1 0 0 0 1

Total # of neighbors = 3
Ave neighs/atom = 0.0138249
Neighbor list builds = 103
Dangerous builds = 0
