ITEM: TIMESTEP
19139227
ITEM: NUMBER OF ATOMS
480
ITEM: BOX BOUNDS ff ff ff
-0.15 0.15
-0.15 0.15
-0.15 0.15
ITEM: ATOMS id type x y z radius vx vy vz density 
424 1 -0.0019597 -0.0513834 -0.0681393 0.000847 -10.6757 -0.0720196 0.306932 2650 
233 1 -0.00609985 -0.0244169 -0.068497 0.000233 -9.96541 -0.950748 0.886615 2650 
256 1 -0.000953732 -0.0142702 -0.0681657 0.000847 -7.88494 -0.0824699 0.128687 2650 
124 1 -0.010734 -0.0562745 -0.0673069 0.000847 -10.6044 -0.00439303 1.6912 2650 
401 1 -0.0122545 -0.0552552 -0.0676685 0.000233 -10.1434 0.254091 1.83927 2650 
340 1 -0.0140569 -0.0460411 -0.0674736 8.4e-05 -10.7763 -0.337347 2.24565 2650 
138 1 -0.00748911 -0.0450135 -0.0677563 0.000847 -10.5283 0.107509 1.16371 2650 
307 1 -0.0102408 -0.0185328 -0.0673931 0.000847 -9.22404 0.0402494 1.3967 2650 
426 1 -0.0184216 -0.0118826 -0.0662543 0.000233 -4.48183 -1.32892 1.27226 2650 
140 1 -0.0229878 -0.0374495 -0.0648113 0.000233 -8.53486 -0.41573 3.03003 2650 
116 1 -0.0234257 -0.0303068 -0.0646541 0.000233 -8.51967 0.248772 3.08234 2650 
433 1 -0.017261 -0.0275826 -0.0659341 0.000847 -9.15381 0.296093 2.44376 2650 
231 1 -0.0194404 -0.0220702 -0.0659608 0.000233 -9.00435 -0.44611 2.6518 2650 
258 1 -0.0206212 -0.0133518 -0.0656002 0.000233 -8.97536 0.131187 2.81855 2650 
174 1 -0.0208551 -0.00829736 -0.0648847 0.000847 -6.09755 0.0706519 1.96018 2650 
229 1 -0.0232566 -0.0171346 -0.064066 0.000847 -8.94562 0.0938668 3.24705 2650 
205 1 -0.0311172 -0.0217374 -0.0613042 0.000233 -8.43111 0.102239 4.29681 2650 
95 1 -0.0286653 -0.0193825 -0.061319 0.001312 -8.45661 0.118259 3.92124 2650 
243 1 -0.0298751 -0.0617755 -0.0612617 0.000847 -9.52819 0.0105728 4.62876 2650 
448 1 -0.0298263 -0.0175276 -0.0612579 0.000847 -8.51773 0.104239 4.14092 2650 
436 1 -0.0353897 -0.0616387 -0.0582491 0.000847 -9.03496 0.0180604 5.48878 2650 
434 1 -0.0354645 -0.0245334 -0.0582023 0.000847 -8.32365 0.00376461 5.0697 2650 
459 1 -0.033097 -0.0223118 -0.0595761 0.000847 -6.9192 0.312375 3.85262 2650 
152 1 -0.0393866 -0.031056 -0.0556237 0.000847 -6.83892 0.352055 4.88058 2650 
410 1 -0.0430166 -0.0618117 -0.0528664 0.000847 -8.24268 -0.00595992 6.70702 2650 
51 1 -0.0438796 -0.0105874 -0.0529605 0.000233 -5.00752 0.599148 4.15028 2650 
506 1 -0.0484013 -0.00945614 -0.0488595 0.000233 -5.80426 -0.0333683 5.75278 2650 
443 1 -0.0501137 -0.0227564 -0.0470959 0.000233 -6.46749 -0.221346 6.87694 2650 
312 1 -0.0502742 -0.0447189 -0.046935 0.000233 -5.1545 0.192608 5.54704 2650 
69 1 -0.053859 -0.00964496 -0.0410133 0.001312 -2.45253 -0.113045 3.0895 2650 
499 1 -0.055918 -0.0235 -0.0389668 0.000847 -5.15641 0.0845763 7.38373 2650 
327 1 -0.0569288 -0.0032159 -0.0388363 8.4e-05 -4.91483 0.0948696 7.20338 2650 
129 1 -0.0612408 -0.019924 -0.031278 0.000233 -3.56352 -0.412436 6.96346 2650 
358 1 -0.0632611 -0.0543595 -0.0253721 0.000847 -3.98737 -0.0172613 9.94245 2650 
303 1 -0.0633981 -0.0264968 -0.0250182 0.000847 -3.53957 0.0719359 9.05662 2650 
193 1 -0.0677739 -0.0273013 -0.011629 0.000233 -1.64658 0.123191 9.59395 2650 
209 1 -0.001802 -0.00274287 -0.011003 0.000233 0 -0.011754 0 2650 
60 1 -0.06768 -0.0360247 -0.00803417 0.000847 -1.16826 -0.151922 9.80533 2650 
521 1 -0.0684781 -0.0105413 -0.00784034 8.4e-05 -0.825044 -0.354254 7.31898 2650 
332 1 -0.0132697 -0.00142941 -0.00869146 0.000847 -2.59197e-05 -0.0117517 -8.4822e-06 2650 
133 1 -0.00333893 -0.000128844 -0.00652624 0.001312 -0.0021989 -0.00307358 0.00294343 2650 
469 1 -0.013713 -0.000217401 -0.00616402 0.000233 -0.00294498 -0.00215916 -0.0350837 2650 
245 1 -0.0162537 -0.00250161 -0.00358963 0.000233 0.00205715 -0.0106475 -0.00586065 2650 
384 1 -0.0154285 -0.000683531 -0.00424006 0.000847 0.00371215 -0.00343021 -0.035241 2650 
75 1 -0.004976 -0.00318487 -0.001105 0.000233 0 -0.011754 0 2650 
96 1 -0.0680703 -0.0315987 0.00343776 0.000847 0.478666 0.0069155 10.0561 2650 
32 1 -0.0679911 -0.0384365 0.00456438 0.000847 0.639667 -0.0516364 9.30918 2650 
296 1 -0.002285 -0.00200587 0.004233 0.000233 0 -0.011754 0 2650 
470 1 -0.008539 -0.000946868 0.004033 8.4e-05 0 -0.011754 0 2650 
374 1 -0.006913 -0.00103987 0.00361 0.000233 0 -0.011754 0 2650 
361 1 -0.012031 -0.00168787 0.0053 0.000233 0 -0.011754 0 2650 
90 1 -0.009269 -0.00306287 0.005356 0.000233 0 -0.011754 0 2650 
172 1 -0.000636055 -0.00305044 0.00503407 0.001312 0.000274478 -0.0120667 -0.00114405 2650 
462 1 -0.0150129 -0.00117339 0.00532081 0.000847 -0.0053093 -0.00468048 -0.0120478 2650 
244 1 -0.002251 -0.00148487 0.006118 0.000233 0 -0.011754 0 2650 
302 1 -0.0672503 -0.0304897 0.00773584 0.001312 1.15308 0.0271298 10.0376 2650 
277 1 -0.0143186 -0.00294184 0.00674981 0.000847 0.00338805 0.00569524 -0.0266496 2650 
369 1 -0.008047 -0.00314787 0.006729 0.000847 0 -0.011754 0 2650 
22 1 -0.002569 -0.00269887 0.009366 0.000233 0 -0.011754 0 2650 
93 1 -0.0682604 -8.39958e-05 0.00947967 8.4e-05 0.996197 0.00518741 7.3531 2650 
480 1 -0.0680513 -0.000233113 0.0098756 0.000233 1.06547 0.0017529 7.36079 2650 
45 1 -0.0103115 -0.00160687 0.0096444 0.000847 -0.0083566 0.00829924 -0.0706109 2650 
313 1 -0.004641 -0.00126687 0.011299 0.000233 0 -0.011754 0 2650 
446 1 -0.000353 -0.00191187 0.015695 0.000847 0 -0.011754 0 2650 
267 1 -0.0661136 -0.0425923 0.0165604 0.000847 2.49095 -0.182841 9.81202 2650 
59 1 -0.0639723 -0.0484507 0.0235374 0.000847 3.6942 0.0189894 10.0406 2650 
49 1 -0.0644416 -0.00541125 0.0240021 0.000233 2.49814 0.098573 6.69584 2650 
85 1 -0.0630806 -0.0418729 0.025833 0.000847 3.99901 0.00136954 9.76502 2650 
230 1 -0.0634091 -0.0389295 0.0250032 0.000847 3.86587 -0.0179819 9.80268 2650 
479 1 -0.0620869 -0.00735689 -0.029561 0.000233 -3.96465 -0.0996189 8.33739 2650 
393 1 -0.0597219 -0.0320653 0.0318746 0.001312 4.88727 -0.0017604 9.17301 2650 
250 1 -0.0546191 -0.0377736 0.0399994 0.001312 6.20401 -0.0633723 8.47142 2650 
271 1 -0.0563377 -0.0122918 0.0394541 0.000233 4.23969 0.454709 6.02565 2650 
423 1 -0.0548854 -0.032058 0.0404081 0.000847 6.2112 0.025943 8.43576 2650 
280 1 -0.0533779 -0.0385597 0.0423866 0.000847 6.65691 -0.0914046 8.38364 2650 
120 1 -0.0523836 -0.035589 0.0428746 0.001312 6.70026 0.0559777 8.19774 2650 
259 1 -0.0541375 -0.0344227 0.0423963 0.000233 6.2279 0.0658018 7.94535 2650 
201 1 -0.0519999 -0.0396946 0.0440671 0.000847 6.80816 0.075278 8.0328 2650 
82 1 -0.0510615 -0.0373132 0.0444495 0.001312 6.93101 -0.0812081 7.96496 2650 
432 1 -0.0490605 -0.0371292 0.0466456 0.001312 7.3303 -0.156668 7.70951 2650 
136 1 -0.0499428 -0.0275911 0.0463742 0.000847 6.71833 0.00958436 7.2463 2650 
442 1 -0.0481056 -0.038833 0.0491395 0.000233 6.54314 0.0314916 6.40042 2650 
203 1 -0.0480986 -0.0356997 0.0482882 0.000847 7.51178 -0.00812062 7.47901 2650 
338 1 -0.0405044 -0.0395637 0.0555202 0.000233 6.96363 -1.17664 5.01797 2650 
125 1 -0.0413473 -0.0356506 0.0541707 0.000847 7.43964 -0.114618 5.66739 2650 
519 1 -0.041577 -0.0341394 0.0547653 0.000233 8.5872 0.172093 6.51894 2650 
54 1 -0.0411431 -0.0312866 0.0552857 8.4e-05 6.8584 -0.776361 5.09344 2650 
182 1 -0.0410173 -0.0285541 0.0551932 0.000233 7.33556 0.111174 5.45471 2650 
344 1 -0.0372917 -0.0614364 0.0570491 0.000847 8.99473 -0.11932 5.87949 2650 
376 1 -0.0383285 -0.0275702 0.0570939 0.000233 2.61278 -0.907707 1.74131 2650 
236 1 -0.0362438 -0.0158286 0.0586235 8.4e-05 7.10305 0.0308129 4.39908 2650 
145 1 -0.0308767 -0.00949818 0.0616202 8.4e-05 7.95929 0.0677717 3.99195 2650 
84 1 -0.0276224 -0.0467542 0.0623252 0.000847 9.86945 -0.0722059 4.37659 2650 
364 1 -0.0289869 -0.0353989 0.0623569 0.000233 7.91574 -0.0217924 3.67311 2650 
463 1 -0.0208687 -0.050034 0.0648976 0.000847 10.2221 0.0453135 3.2871 2650 
249 1 -0.0249402 -0.00796945 0.0642499 8.4e-05 7.30619 0.273034 2.84328 2650 
189 1 -0.0169165 -0.0518168 0.0660342 0.000847 10.3114 -0.0358513 2.64159 2650 
241 1 -0.0181069 -0.0505516 0.0657204 0.000847 10.3114 0.0377798 2.84109 2650 
380 1 -0.0156139 -0.0498524 0.0658834 0.001312 10.4197 -0.0129043 2.46777 2650 
489 1 -0.0190943 -0.0482564 0.0654431 0.000847 10.2625 -0.0430194 2.99431 2650 
315 1 -0.0153963 -0.0456059 0.0659368 0.001312 10.3585 -0.00258005 2.41865 2650 
175 1 -0.0164772 -0.043749 0.0661484 0.000847 10.3817 -0.00816723 2.58608 2650 
102 1 -0.020739 -0.0389156 0.0655689 0.000233 10.2854 0.106102 3.25317 2650 
36 1 -0.0217806 -0.0115951 0.0652391 0.000233 4.84654 0.078283 1.63153 2650 
101 1 -0.0186406 -0.00978049 0.0662017 0.000233 8.70597 0.159995 2.45068 2650 
113 1 -0.0101246 -0.0497092 0.0674073 0.000847 10.6093 -0.0572113 1.59329 2650 
330 1 -0.0114125 -0.0446831 0.0672037 0.000847 10.6198 0.019805 1.80357 2650 
134 1 -0.00401938 -0.04485 0.0675773 0.001312 10.6148 -0.000314999 0.631343 2650 
486 1 -0.0132095 -0.040671 0.0668717 0.000847 10.462 -0.0472534 2.06674 2650 
4 1 -0.00677348 -0.0351993 0.0678182 0.000847 10.5624 0.0194989 1.05313 2650 
431 1 -0.0160306 -0.0199559 0.0670343 8.4e-05 7.51794 -0.630722 1.80498 2650 
417 1 -0.0150354 -0.0131691 0.067115 0.000233 8.99809 -0.541488 2.01529 2650 
320 1 -0.00502466 -0.047777 0.0679723 0.000847 10.6806 -0.0174846 0.789427 2650 
144 1 -0.00421494 -0.0382076 0.0686364 0.000233 10.7867 0.409236 0.660517 2650 
481 1 -0.00391321 -0.0357183 0.0686539 0.000233 11.1091 0.504213 0.634426 2650 
219 1 -0.0084406 -0.0299892 0.0682459 0.000233 10.5216 1.45835 1.29749 2650 
163 1 -0.000739209 0.00897599 -0.0159924 0.000847 0.0125635 0.0201779 0.000584732 2650 
501 1 -0.00652693 0.00768926 -0.0146506 0.000847 0.00271066 0.00783714 0.00249064 2650 
357 1 -0.0038368 0.00956169 -0.0152746 0.000847 -0.00356262 0.00740695 0.00116372 2650 
16 1 -0.00460654 0.0414481 -0.0143743 0.001312 -0.00372561 0.0412357 0.00325068 2650 
268 1 -0.00788864 0.0712688 -0.0148216 0.000847 -0.0299804 0.0810479 0.00539052 2650 
266 1 -0.00364048 0.00270072 -0.0126782 0.000847 -0.00164881 -0.00742592 -0.00189738 2650 
68 1 -0.00478625 0.004641 -0.0137129 0.001312 0.00656765 0.00723405 -0.0034973 2650 
212 1 -0.000579465 0.00339827 -0.0139412 0.001312 -0.000378321 -0.00288226 -0.00336117 2650 
444 1 -0.00796367 0.00645431 -0.0139084 8.4e-05 -0.00260039 0.00547496 0.00633282 2650 
282 1 -0.00941306 0.00706016 -0.0128343 0.000847 -0.0102628 0.0112017 0.0074648 2650 
76 1 -0.00622276 0.0126167 -0.0133613 0.000233 -0.00578221 0.011958 0.00483197 2650 
399 1 -0.00978032 0.0187096 -0.0128571 0.000847 0.0133429 0.0155859 -0.00895431 2650 
371 1 -0.00869364 0.0559138 -0.0134246 0.000847 -0.0255412 0.0511436 0.0118966 2650 
392 1 -0.00782443 0.000716599 -0.0111849 8.4e-05 -0.00068915 -0.00349539 -0.00139054 2650 
348 1 -0.00994705 0.0049057 -0.0114321 0.000233 -0.00855875 -0.000417391 0.0118261 2650 
2 1 -0.00588874 0.00648594 -0.0111589 0.001312 0.00464057 0.00626666 0.00147605 2650 
309 1 -0.00601505 0.0104742 -0.0122928 0.000233 -0.0123102 0.020136 -0.0038176 2650 
115 1 -0.0108202 0.0152469 -0.0124952 0.000233 0.00203478 0.00995688 0.00306778 2650 
377 1 -0.00209931 0.0325905 -0.011414 0.000233 -0.0299934 0.0763049 -0.0457452 2650 
386 1 -0.00461713 0.00855167 -0.010889 0.000847 -0.00920663 0.00493148 -0.00130998 2650 
37 1 -0.0132635 0.0167982 -0.00982359 0.000233 -0.0110769 0.0405379 0.0129588 2650 
91 1 -0.0108481 0.023495 -0.0105351 0.000233 -0.011194 0.0308527 0.0129891 2650 
273 1 -0.00212657 0.0233856 -0.0107669 0.000233 -0.00788291 0.0124072 0.00594868 2650 
15 1 -0.00748788 0.0292004 -0.010288 0.001312 -0.00235194 0.0225075 0.0056031 2650 
359 1 -0.000555003 0.0292602 -0.0100344 0.000847 -0.022094 0.0622015 -0.0426752 2650 
77 1 -0.0110095 0.0366702 -0.0098812 0.000233 0.00669575 0.0236814 0.0157679 2650 
94 1 -0.00844441 0.00812066 -0.00862719 0.001312 -0.0124084 0.00377188 0.00598516 2650 
225 1 -0.00419283 0.00863516 -0.00874234 0.001312 -0.00239701 0.00874648 -0.00124216 2650 
439 1 -0.00839888 0.0111064 -0.00925101 0.000233 0.00360649 -0.00462834 0.00809011 2650 
177 1 -0.0123749 0.0224385 -0.00832994 0.000847 -0.0114517 0.0203964 0.00745206 2650 
512 1 -0.0101869 0.00158226 -0.00724792 0.000847 -0.00620923 0.00136295 0.0121494 2650 
237 1 -0.0137454 0.00196195 -0.00665084 0.001312 0.00288601 -0.00241756 0.00912615 2650 
147 1 -0.00637469 0.00344169 -0.00715642 0.001312 -0.00155224 -0.00287693 0.000873515 2650 
502 1 -0.0145874 0.0219992 -0.00652427 0.000847 0.00118915 0.0160546 0.0150585 2650 
331 1 -0.0060078 0.0294144 -0.00768123 0.000847 0.00840645 0.0232594 0.00867855 2650 
66 1 -0.0120332 0.0534959 -0.00693234 0.000233 0.00347261 0.0341619 0.00411013 2650 
407 1 -0.00277781 0.00181336 -0.00474923 0.000847 -0.00271156 -0.00263393 0.00241233 2650 
158 1 -0.0111604 0.00429799 -0.00477644 8.4e-05 0.00188877 -0.00284778 0.00557992 2650 
204 1 -0.0151986 0.0213219 -0.00499795 0.000847 0.00121054 0.0124535 0.0137872 2650 
391 1 -0.0147369 0.023922 -0.00507331 0.000233 -0.0193096 0.0230901 0.00993448 2650 
31 1 -0.00923763 0.0439302 -0.00568656 0.000847 0.0128996 0.0556905 -0.00624527 2650 
202 1 -0.00127246 0.000468955 -0.00470734 0.000847 -0.000325259 -0.00498031 0.00775896 2650 
17 1 -0.0031224 0.00347361 -0.00392595 0.000847 -0.00529384 -0.000624951 0.00099193 2650 
198 1 -0.0140738 0.00642144 -0.00440462 0.001312 -0.00588684 -0.00188959 0.0126317 2650 
471 1 -0.00365655 0.00883325 -0.00418707 0.001312 -0.0318692 0.0139359 -0.0231651 2650 
149 1 -0.00700458 0.0103734 -0.00368711 0.000847 0.00533574 0.00120564 0.000572163 2650 
199 1 -0.0134171 0.023145 -0.00440015 0.001312 -0.0101738 0.0154503 -0.00123096 2650 
72 1 -0.0051885 0.0589913 -0.00379491 0.000847 0.00694298 0.0370303 0.0147661 2650 
206 1 -0.000602553 0.00156052 -0.00161739 0.000233 0.000200844 -0.0022057 -0.0101649 2650 
373 1 -0.0154313 0.00755666 -0.00253308 0.000847 0.000337109 0.0216316 -0.00631221 2650 
178 1 -0.00781053 0.019931 -0.00311248 0.000847 -0.00942264 0.0138974 -0.0144999 2650 
7 1 -0.0120906 0.0264885 -0.00186624 0.000847 0.00509742 0.0248497 0.013646 2650 
482 1 -0.0157834 0.0573651 -0.00168666 0.000233 -0.00272 0.0425188 0.0154078 2650 
355 1 -0.0145357 0.00695862 -0.000377435 0.000847 0.00437228 0.0104751 -0.0043935 2650 
217 1 -0.0152478 0.0322024 -0.000839383 0.000847 -0.0164792 0.0356281 0.00207149 2650 
345 1 -0.00233505 0.00548088 0.00141896 0.000847 0.0102698 0.00604929 0.00457735 2650 
515 1 -0.0133561 0.010682 0.0014857 0.000847 0.000192831 0.00432954 -0.00558707 2650 
121 1 -0.011582 0.0105618 0.000154314 0.001312 0.0113437 0.00558656 0.00250698 2650 
5 1 -0.00989658 0.0126592 0.000164857 0.000847 0.0159354 0.00855543 0.0196475 2650 
450 1 -0.0077154 0.00215926 0.00162125 0.000847 0.0141697 0.00366662 0.00769839 2650 
467 1 -0.0163189 0.00454105 0.00176933 0.000233 -0.0114317 0.00391679 0.0097834 2650 
186 1 -0.0106738 0.00455198 0.00273553 0.001312 0.0109248 -0.00095807 0.00524279 2650 
156 1 -0.0108415 0.0105622 0.00158503 0.000233 0.0117738 0.00676262 0.00472854 2650 
21 1 -0.00174868 0.0259144 0.00166295 0.000847 -0.0107612 0.0244459 0.0309069 2650 
213 1 -0.0153145 0.0358091 0.00290647 0.000847 0.00850695 0.00646293 0.0300841 2650 
137 1 -0.000895591 0.0481914 0.00180524 0.000847 0.0204383 0.0331061 0.00315705 2650 
440 1 -0.00934397 0.00120952 0.00345131 0.000233 0.00893327 0.00123303 0.0100401 2650 
301 1 -0.0047283 0.0041143 0.00366512 8.4e-05 -0.00542456 -0.000958437 0.00851575 2650 
226 1 -0.00430164 0.0230796 0.00461275 0.000847 0.00503538 0.0348535 0.0122627 2650 
168 1 -0.00946763 0.00453719 0.00518302 0.000233 0.010374 0.000533782 0.0120746 2650 
214 1 -0.010376 0.0225954 0.00577916 0.000847 0.0140272 0.0148951 0.00243728 2650 
153 1 -0.0154391 0.0261759 0.00579843 0.000233 0.00753817 0.0191391 0.0304205 2650 
503 1 -0.0128671 0.0294591 0.00567326 0.000233 -0.0202763 0.0321153 0.0393148 2650 
299 1 -0.00693222 0.0289955 0.00584408 0.000233 -0.0415925 0.0521106 0.00250536 2650 
222 1 -0.0106639 0.0306307 0.00627976 0.000233 -0.0191158 0.00902985 0.033076 2650 
511 1 -0.0142142 0.0426732 0.00587861 0.000847 0.00146079 0.0210985 -0.0127999 2650 
291 1 -0.00134299 0.00781437 0.0070011 0.000847 0.000368443 -0.000878557 -0.00367841 2650 
387 1 -0.0148065 0.00921936 0.0065116 0.000233 -0.118565 0.0878184 -0.00512403 2650 
451 1 -0.0105331 0.00800757 0.00704315 0.000847 0.0101382 0.00361366 0.00843172 2650 
457 1 -0.00434282 0.0220961 0.00765118 8.4e-05 0.00209197 0.0125772 -0.0227291 2650 
413 1 -0.0038798 0.0255732 0.00685378 0.000233 0.0212736 0.0189692 -0.00433326 2650 
262 1 -0.0150079 0.0516827 0.00657894 8.4e-05 -0.00568771 0.047836 0.0275692 2650 
29 1 -0.00347112 0.0167119 0.00835626 0.001312 0.00949452 0.0217713 0.0254281 2650 
80 1 -0.00446774 0.0301215 0.00872298 8.4e-05 -0.0125032 0.0188644 0.0118682 2650 
63 1 -0.00413325 0.0581407 0.00914445 0.000233 0.00544067 0.0487134 -0.0167697 2650 
518 1 -0.0133393 0.00371952 0.00956284 0.000233 -0.00455624 0.0103112 -0.00628034 2650 
164 1 -0.00714786 0.001847 0.0132947 0.000847 0.0199672 0.00075341 -0.00413055 2650 
390 1 -0.00165282 0.0132924 0.0133443 0.000233 -0.00350245 0.00582576 -0.00125219 2650 
112 1 -0.00695151 0.0145951 0.0129609 0.000847 0.0214954 0.016828 -0.00423595 2650 
79 1 -0.0076593 0.0285565 0.0140336 0.000233 0.024023 0.0379512 -0.00347318 2650 
135 1 -0.00564682 0.0218356 0.0144913 0.000847 0.0322851 0.0519221 0.0188134 2650 
464 1 -0.00241882 0.00904617 0.0161705 0.000233 0.0566479 0.0284979 0.044719 2650 
388 1 -0.00139619 0.023904 0.0165555 0.000233 0.0662595 -0.00320026 0.00255115 2650 
437 1 -0.00713962 0.0760098 0.00916674 0.000847 -0.00719255 0.0835002 -0.0252935 2650 
319 1 -0.00297193 0.0957991 0.0112814 0.000847 0.00321502 0.103152 0.00477754 2650 
323 1 0.00825114 -0.0589435 -0.0682681 0.000233 -10.264 0.521874 -1.2432 2650 
382 1 0.00142092 -0.0496315 -0.0681564 0.000847 -10.824 -0.0226394 -0.225642 2650 
460 1 0.00435485 -0.0488234 -0.0680327 0.000847 -10.7655 0.00136537 -0.688718 2650 
141 1 0.00540896 -0.039001 -0.0685567 0.000233 -8.78121 -0.940761 -0.694821 2650 
65 1 0.00333334 -0.0211087 -0.0686947 0.000233 -9.23919 0.00340182 -0.458646 2650 
184 1 0.0071371 -0.0186734 -0.0685553 8.4e-05 -8.74138 -1.3821 -0.911325 2650 
171 1 0.00536693 -0.0119769 -0.0687168 8.4e-05 -8.88479 0.76707 -0.68899 2650 
341 1 0.0115118 -0.0591002 -0.0667091 0.001312 -10.4865 -0.0521732 -1.80953 2650 
239 1 0.0136563 -0.0527306 -0.0667758 0.000847 -10.5051 -0.0466235 -2.14776 2650 
334 1 0.00901676 -0.0506751 -0.067567 0.000847 -10.6578 -0.0308926 -1.42188 2650 
162 1 0.0128381 -0.0510265 -0.0669406 0.000847 -10.4789 0.0429382 -2.01018 2650 
294 1 0.00977194 -0.0487107 -0.0674637 0.000847 -10.5067 -0.0409707 -1.52233 2650 
235 1 0.0204024 -0.0381781 -0.065644 0.000233 -6.48824 0.0581049 -1.99824 2650 
183 1 0.0197178 -0.0252337 -0.0658711 0.000233 -8.65768 -0.294738 -2.56608 2650 
454 1 0.020271 -0.0180944 -0.0656585 0.000233 -8.85948 0.043477 -2.72586 2650 
402 1 0.0212617 -0.0171932 -0.0653462 0.000233 -6.73757 0.326028 -2.22817 2650 
242 1 0.0193763 -0.0117604 -0.0652535 0.000847 -6.38599 -0.438671 -1.89759 2650 
220 1 0.024554 -0.0200637 -0.0642332 0.000233 -8.22298 -0.239157 -3.14822 2650 
274 1 0.0294662 -0.00238402 -0.0621335 0.000233 -7.36349 0.337678 -3.50676 2650 
167 1 0.0323648 -0.0429192 -0.0606796 0.000233 -9.68686 -0.0884802 -5.16691 2650 
161 1 0.0300103 -0.0208917 -0.0611937 0.000847 -7.85463 -0.228494 -3.8072 2650 
483 1 0.0325514 -0.00708034 -0.0607446 8.4e-05 -6.02762 -0.128373 -3.25995 2650 
81 1 0.0311217 -0.033826 -0.0601184 0.001312 -8.84535 -0.0652388 -4.56179 2650 
473 1 0.0347957 -0.0507118 -0.0586152 0.000847 -9.19759 0.0519283 -5.45989 2650 
466 1 0.0377961 -0.0148743 -0.0574633 0.000233 -6.03707 -0.242184 -3.96563 2650 
92 1 0.0380868 -0.0056555 -0.0572563 0.000233 -6.9395 0.135871 -4.6107 2650 
157 1 0.0381745 -0.0386097 -0.0572023 0.000233 -8.44516 0.891099 -5.62806 2650 
351 1 0.0396759 -0.00838919 -0.0561724 0.000233 -5.83659 -0.0763856 -4.11036 2650 
378 1 0.0420854 -0.041918 -0.054397 0.000233 -8.81198 0.263499 -6.81594 2650 
128 1 0.04263 -0.0390916 -0.0539649 0.000233 -4.82724 -0.140973 -3.80454 2650 
487 1 0.0401771 -0.034688 -0.055051 0.000847 -7.94857 0.00414594 -5.7973 2650 
522 1 0.0417973 -0.00131093 -0.0547895 8.4e-05 -6.08491 0.0305943 -4.6471 2650 
396 1 0.0427349 -0.0425086 -0.053111 0.000847 -8.52922 -0.0100835 -6.86274 2650 
131 1 0.0424896 -0.0281468 -0.0540664 0.000233 -8.4573 0.590126 -6.64564 2650 
110 1 0.0426367 -0.0256666 -0.053173 0.000847 -7.34457 0.00271626 -5.89729 2650 
397 1 0.0441678 -0.0268764 -0.0519059 0.000847 -7.1721 -0.0229633 -6.10371 2650 
447 1 0.0455713 -0.0154026 -0.050702 0.000847 -7.29289 0.414252 -6.55667 2650 
306 1 0.0477199 -0.0312118 -0.0486723 0.000847 -6.99353 -0.1788 -6.82501 2650 
311 1 0.0481822 -0.0158654 -0.0490857 0.000233 -6.59573 0.0730523 -6.45382 2650 
148 1 0.0489126 -0.0462891 -0.0474857 0.000847 -7.46807 0.0211199 -7.69241 2650 
264 1 0.0505864 -0.0553325 -0.0456794 0.000847 -7.16463 -0.0287098 -7.93429 2650 
18 1 0.0500296 -0.0310761 -0.0462865 0.000847 -6.9064 -0.0889572 -7.4798 2650 
289 1 0.050643 -0.0233494 -0.0449236 0.001312 -5.89035 -0.0886141 -6.67849 2650 
61 1 0.0503536 -0.0186767 -0.0459482 0.000847 -6.35463 0.0114019 -6.96299 2650 
492 1 0.0514004 -0.018459 -0.0456975 0.000233 -6.28016 -0.124644 -7.0639 2650 
498 1 0.0521662 -0.0394177 -0.043867 0.000847 -6.90807 0.0226378 -8.21431 2650 
283 1 0.053206 -0.0318663 -0.0435656 0.000233 -5.56995 0.0316032 -6.80317 2650 
70 1 0.0525034 -0.0271691 -0.043457 0.000847 -5.63967 -0.29389 -6.82548 2650 
290 1 0.0537852 -0.0443645 -0.0418706 0.000847 -6.60783 -0.0215199 -8.48802 2650 
47 1 0.0535847 -0.0425349 -0.0421245 0.000847 -6.65671 0.0066015 -8.46672 2650 
411 1 0.0538554 -0.0395561 -0.0417743 0.000847 -6.69531 0.040871 -8.62674 2650 
127 1 0.0548737 -0.0412815 -0.0414151 0.000233 -6.20697 -0.139178 -8.21335 2650 
360 1 0.0551929 -0.036405 -0.0399787 0.000847 -6.23914 0.0533187 -8.61454 2650 
50 1 0.0566388 -0.0361316 -0.0389683 0.000233 -6.16382 0.630865 -9.12515 2650 
488 1 0.0567044 -0.0371915 -0.0378089 0.000847 -5.88853 -0.0993374 -8.83357 2650 
375 1 0.0580423 -0.00932695 -0.0368754 0.000233 -4.03762 0.858219 -6.36751 2650 
298 1 0.0580913 -0.0364825 -0.0367759 0.000233 -5.78199 -0.0110687 -9.13316 2650 
53 1 0.0617436 -0.0122388 -0.0300948 0.000233 -3.71389 -0.0211171 -7.6623 2650 
166 1 0.0633128 -0.0477728 -0.0268492 0.000233 -4.10048 0.249925 -9.67009 2650 
350 1 0.0653996 -0.0506124 -0.0212835 0.000233 -3.42827 0.0792415 -10.5327 2650 
284 1 0.0651171 -0.0183516 -0.0221287 0.000233 -2.55294 -0.151634 -7.54318 2650 
114 1 0.0658545 -0.0238841 -0.0197988 0.000233 -2.71911 -0.579908 -9.06135 2650 
210 1 0.0030678 -0.0011501 -0.0164253 8.4e-05 -0.0101555 -0.00697022 -0.00276126 2650 
366 1 0.005681 -0.00273787 -0.015538 8.4e-05 0 -0.011754 0 2650 
395 1 0.00182247 -0.00136511 -0.0146873 0.000847 0.00509824 -0.00223179 0.00216209 2650 
269 1 0.0665392 -0.0419283 -0.0148119 0.000847 -2.25606 0.0245014 -10.1333 2650 
160 1 0.0660761 -0.0270987 -0.0147175 0.001312 -2.12891 -0.114404 -9.47701 2650 
339 1 0.067461 -0.00903907 -0.0133747 0.000233 -1.47161 0.005832 -7.38247 2650 
356 1 0.000817578 -6.90674e-05 -0.0141393 0.000847 -7.48654e-05 -0.00579622 -0.00143001 2650 
281 1 0.0671366 -0.0284158 -0.0117296 0.000847 -1.70595 0.0278601 -9.61851 2650 
224 1 0.00200579 -0.00195523 -0.0124614 0.001312 0.00440762 -0.00590734 0.000702176 2650 
12 1 0.0119879 -0.00250327 -0.0113942 0.000233 0.00873092 -0.0095669 0.00190822 2650 
44 1 0.0673705 -0.0415245 -0.0103842 0.000847 -1.59003 -0.0936777 -10.3165 2650 
123 1 0.0673327 -0.0272045 -0.0105468 0.000847 -1.49671 -0.0347293 -9.56191 2650 
336 1 0.00374414 -0.000119695 -0.00999567 0.000233 0.00789915 -0.00106843 0.00245482 2650 
154 1 0.012406 -0.00308687 -0.008801 0.000233 0 -0.011754 0 2650 
207 1 0.0134402 -0.00120449 -0.00930882 0.000233 0.0138254 -0.0101106 0.0220109 2650 
405 1 0.00270471 -0.00160798 -0.0067127 8.4e-05 0.0025106 -0.0076758 0.00495174 2650 
400 1 0.008609 -0.000705868 -0.006808 0.000233 0 -0.011754 0 2650 
449 1 0.0680401 -0.0506846 -0.00417204 0.000847 -0.655981 -0.271356 -10.7473 2650 
500 1 0.0679538 -0.0483406 -0.0054144 0.000847 -0.837724 0.0157611 -10.534 2650 
381 1 0.0680522 -0.030878 -0.00394031 0.000847 -0.599028 -0.228129 -10.471 2650 
353 1 0.00320609 -0.00316377 -0.00363551 8.4e-05 0.0015345 -0.00573097 -0.0125122 2650 
105 1 0.00021 -0.00120987 -0.003991 0.000233 0 -0.011754 0 2650 
292 1 0.007808 -0.00111087 -0.004111 0.000847 0 -0.011754 0 2650 
421 1 0.0681253 -0.0482194 -0.00244837 0.000847 -0.389274 -0.121728 -10.8254 2650 
100 1 0.0680871 -0.0463349 -0.00335192 0.000847 -0.52985 0.144524 -10.7361 2650 
8 1 0.00766617 -0.000356988 -0.00165579 0.000233 0.00301488 -0.00587201 -0.00977112 2650 
322 1 0.0687379 -0.0356618 -0.00196532 0.000233 -0.30673 0.155984 -10.7229 2650 
142 1 0.0687456 -0.0105001 -0.00200862 0.000233 -0.260517 -0.171223 -8.8293 2650 
265 1 0.00582674 -0.00132317 -0.00103908 0.000847 -0.00161831 -0.00717065 -0.0105314 2650 
122 1 0.068165 -0.0456916 -0.000482338 0.000847 -0.0729673 -0.0663363 -10.6367 2650 
253 1 0.0681545 -0.045668 0.00121137 0.000847 0.188713 -0.0479038 -10.6352 2650 
415 1 0.0687466 -0.0437135 0.00190396 0.000233 0.300601 -0.0205608 -10.8604 2650 
409 1 0.0681003 -0.0504432 0.00290438 0.000847 0.462832 0.0352538 -10.839 2650 
150 1 0.0681072 -0.0449597 0.00276498 0.000847 0.432957 0.0556979 -10.6678 2650 
35 1 0.007061 -0.000173045 0.00439567 0.000847 -0.0121953 -9.57773e-05 0.00420749 2650 
173 1 0.0675612 -0.0519796 0.00432866 0.001312 0.684634 0.0217814 -10.757 2650 
308 1 0.0680103 -0.0478094 0.0045209 0.000847 0.720643 -0.034818 -10.8386 2650 
261 1 0.000382 -0.00160987 0.006142 0.000233 0 -0.011754 0 2650 
305 1 0.0677162 -0.0450338 0.0077428 0.000847 1.2124 0.0273243 -10.6034 2650 
104 1 0.002239 -0.00231487 0.008255 0.000233 0 -0.011754 0 2650 
197 1 0.0679188 -0.039484 0.0116804 8.4e-05 1.81198 -0.022373 -10.5404 2650 
89 1 0.003537 -0.000679868 0.012461 0.000233 0 -0.011754 0 2650 
461 1 0.0671067 -0.045651 0.0119185 0.000847 1.85511 -0.0445263 -10.4451 2650 
176 1 0.00439699 -0.0019046 0.0135569 0.000847 0.00761816 -0.00329714 -0.00812013 2650 
468 1 0.0672945 -0.0247914 0.0140877 0.000233 1.87801 0.0535775 -9.04793 2650 
428 1 0.0670099 -0.00819993 0.0152284 0.000233 0.65017 -0.221094 -3.13707 2650 
11 1 0.00241268 -0.00311198 0.0164574 0.000233 -0.030041 -0.00463477 0.00801673 2650 
33 1 0.0653395 -0.0502939 0.0193015 0.000847 2.82376 -0.490816 -9.54685 2650 
151 1 0.0643504 -0.0258511 0.0224566 0.000847 3.38013 -0.234838 -9.58295 2650 
496 1 0.0644853 -0.000401515 0.0243085 8.4e-05 2.9369 0.00833259 -7.78469 2650 
346 1 0.0629025 -0.061822 0.0262406 0.000847 4.07736 -0.0386536 -9.7735 2650 
491 1 0.061037 -0.0300423 0.031674 0.000233 4.62605 -0.47134 -8.91914 2650 
56 1 0.0578725 -0.0355026 0.0351145 0.001312 4.53129 0.319199 -7.40214 2650 
509 1 0.0583293 -0.00562878 0.0367011 8.4e-05 4.22262 -0.079823 -6.71675 2650 
420 1 0.0564881 -0.0461818 0.0381649 0.000847 6.03021 -0.0330817 -8.92473 2650 
314 1 0.0575121 -0.034708 0.0379637 8.4e-05 5.59766 0.426159 -8.48102 2650 
9 1 0.057109 -0.0281279 0.0383008 0.000233 5.9509 -0.253043 -8.87363 2650 
78 1 0.0557144 -0.0381866 0.0403128 0.000233 6.32034 -0.010088 -8.735 2650 
247 1 0.0561594 -0.0327942 0.039681 0.000233 5.66641 1.52383 -8.02296 2650 
118 1 0.0563205 -0.0220684 0.039467 0.000233 5.83086 1.36774 -8.31397 2650 
111 1 0.0549847 -0.0034735 0.0402688 0.000847 4.95292 -0.295547 -6.77097 2650 
180 1 0.0541925 -0.0150516 0.042352 0.000233 5.07714 0.0145307 -6.50537 2650 
278 1 0.0511137 -0.0617464 0.0450869 0.000847 7.08218 -0.00334207 -8.02891 2650 
159 1 0.0515899 -0.0438408 0.0438422 0.001312 6.88725 0.00358627 -8.10454 2650 
490 1 0.0525974 -0.00757668 0.0443043 0.000233 5.30621 -0.446618 -6.27966 2650 
106 1 0.0518695 -0.00406708 0.0453735 8.4e-05 4.65122 0.249834 -5.30733 2650 
316 1 0.0498864 -0.0618872 0.0464402 0.000847 7.29392 0.0125103 -7.83491 2650 
497 1 0.0500947 -0.0458258 0.0455417 0.001312 7.11132 0.00827867 -7.81978 2650 
317 1 0.0483749 -0.0515067 0.0480152 0.000847 7.54643 -0.0612739 -7.60291 2650 
20 1 0.047991 -0.040725 0.0483982 0.000847 7.58156 -0.0579062 -7.51745 2650 
485 1 0.0485237 -0.0375102 0.0478625 0.000847 7.25556 -0.13315 -7.33933 2650 
24 1 0.0494774 -0.0343118 0.0477569 0.000233 7.21502 0.51059 -7.47324 2650 
23 1 0.0485628 -0.0624455 0.0486909 0.000233 7.64678 0.0012055 -7.62663 2650 
190 1 0.0463035 -0.0617994 0.0500146 0.000847 7.85253 0.00541905 -7.26978 2650 
19 1 0.0477288 -0.0617602 0.048656 0.000847 7.643 0.00318935 -7.49728 2650 
452 1 0.0481035 -0.0476084 0.0491435 0.000233 7.79703 -0.0567379 -7.63175 2650 
445 1 0.0463183 -0.0417692 0.0493663 0.001312 7.78314 -0.0653084 -7.30248 2650 
185 1 0.0456542 -0.039306 0.049985 0.001312 7.84335 -0.0792271 -7.16408 2650 
367 1 0.0449611 -0.0538777 0.0506085 0.001312 7.94668 0.0844864 -7.05599 2650 
46 1 0.0447069 -0.045826 0.0514433 0.000847 8.06565 -0.0230855 -7.01035 2650 
513 1 0.0459444 -0.0370926 0.0503412 0.000847 7.71899 0.00203646 -7.05543 2650 
458 1 0.0432477 -0.061488 0.0520828 0.001312 8.18115 -3.46437e-10 -6.79333 2650 
248 1 0.0433379 -0.0173138 0.0533906 0.000233 2.88887 -0.0609683 -2.30696 2650 
288 1 0.0384799 -0.0468655 0.0571589 8.4e-05 8.32447 -0.416237 -5.61837 2650 
347 1 0.0345636 -0.0376048 0.0587438 0.000847 8.57514 -0.196657 -5.01343 2650 
13 1 0.0357157 -0.0197448 0.0589442 8.4e-05 2.99605 -0.183694 -1.83846 2650 
429 1 0.0353262 -0.00562711 0.0590002 0.000233 6.07564 -0.178179 -3.65288 2650 
349 1 0.0333814 -0.042469 0.0601287 0.000233 8.61451 0.187214 -4.76571 2650 
318 1 0.029107 -0.0491241 0.0616422 0.000847 9.67435 -0.0165723 -4.56826 2650 
169 1 0.0285497 -0.0471591 0.0625768 0.000233 9.99589 0.155836 -4.57808 2650 
28 1 0.0309212 -0.00482357 0.0615886 8.4e-05 7.15481 -0.0806286 -3.60662 2650 
343 1 0.0276468 -0.00152282 0.0622937 0.000847 7.31232 0.689593 -3.24379 2650 
88 1 0.027076 -0.025997 0.0632106 0.000233 6.03577 -0.558376 -2.55853 2650 
270 1 0.0249586 -0.0221025 0.0640829 0.000233 8.98716 0.0745144 -3.50203 2650 