ITEM: TIMESTEP
10804362
ITEM: NUMBER OF ATOMS
513
ITEM: BOX BOUNDS ff ff ff
-0.15 0.15
-0.15 0.15
-0.15 0.15
ITEM: ATOMS id type x y z radius vx vy vz density 
101 1 -0.0105005 -0.0155268 -0.0679613 0.000233 -8.10823 -0.314706 1.29339 2650 
424 1 -0.0145516 -0.0474427 -0.0665979 0.000847 -9.09779 0.0424144 1.99812 2650 
239 1 -0.0150035 -0.0452369 -0.0664967 0.000847 -9.16768 0.0598387 2.09193 2650 
460 1 -0.0131982 -0.0429421 -0.0668764 0.000847 -9.16271 -0.0510645 1.8173 2650 
181 1 -0.017423 -0.0254817 -0.066523 0.000233 -8.71093 -0.0193807 2.29361 2650 
397 1 -0.00677725 -0.00832394 -0.0678085 0.000847 -3.9357 -0.0806407 0.310345 2650 
162 1 -0.0188876 -0.0461749 -0.065502 0.000847 -9.06475 0.116192 2.64044 2650 
243 1 -0.0217252 -0.0617729 -0.0646006 0.000847 -9.42841 0.0453727 3.19803 2650 
349 1 -0.02366 -0.00739843 -0.0645728 0.000233 -6.11536 -0.641019 2.26334 2650 
20 1 -0.0261684 -0.0360763 -0.0629287 0.000847 -8.56103 -0.07478 3.55464 2650 
337 1 -0.0316686 -0.0257089 -0.0610398 0.000233 -8.66545 -0.567134 4.49397 2650 
520 1 -0.0310529 -0.0240422 -0.0613577 0.000233 -8.63661 0.106589 4.37112 2650 
129 1 -0.0332744 -0.00474495 -0.06018 0.000233 -5.9544 -0.0378142 3.27649 2650 
28 1 -0.0369553 -0.000238582 -0.0581679 8.4e-05 -6.03469 -0.0689287 3.83007 2650 
491 1 -0.0409163 -0.0233728 -0.0552688 0.000233 -6.85711 -0.259771 5.07781 2650 
257 1 -0.0420082 -0.0579622 -0.0544292 0.000233 -8.16869 0.215829 6.29762 2650 
78 1 -0.0430073 -0.0292564 -0.0536585 0.000233 -7.54229 0.115713 6.04847 2650 
498 1 -0.0426328 -0.0314427 -0.0531755 0.000847 -7.82029 -0.254458 6.26943 2650 
454 1 -0.0447066 -0.0203442 -0.0522504 0.000233 -5.8032 -0.00793797 4.96171 2650 
453 1 -0.0441116 -0.0156903 -0.0527539 0.000233 -5.64359 0.00341486 4.71692 2650 
347 1 -0.0497158 -0.0297822 -0.0466215 0.000847 -5.60412 0.384315 5.98738 2650 
513 1 -0.0495981 -0.0248458 -0.0467465 0.000847 -6.52241 0.00507594 6.87831 2650 
47 1 -0.0522253 -0.0344012 -0.0437897 0.000847 -5.93546 -0.254694 7.05988 2650 
221 1 -0.0549509 -0.0134555 -0.0413637 0.000233 -4.22691 -0.262587 5.61686 2650 
488 1 -0.054908 -0.035895 -0.0403736 0.000847 -5.75786 0.0569568 7.83724 2650 
409 1 -0.0558824 -0.0500344 -0.03904 0.000847 -5.39998 0.0191672 7.73577 2650 
59 1 -0.0566211 -0.0403176 -0.0379505 0.000847 -5.20699 -0.0436991 7.76783 2650 
281 1 -0.0559564 -0.0305207 -0.0389106 0.000847 -5.60837 -0.0682094 8.07835 2650 
52 1 -0.0581955 -0.0282907 -0.0366287 0.000233 -4.1005 -0.164189 6.51167 2650 
315 1 -0.0578394 -0.0339685 -0.0351668 0.001312 -4.97581 -0.0122782 8.27709 2650 
339 1 -0.0622409 -0.00166568 -0.0292349 0.000233 -3.14535 -0.13793 6.65338 2650 
506 1 -0.0629044 -0.0157293 -0.0278149 0.000233 -2.81427 -0.0668301 6.34165 2650 
360 1 -0.0638141 -0.0334784 -0.0239338 0.000847 -3.33001 0.0612562 8.87206 2650 
318 1 -0.0645674 -0.0490677 -0.0218241 0.000847 -3.07678 -0.0630794 9.16984 2650 
496 1 -0.0656473 -0.013362 -0.0209121 8.4e-05 -1.01575 -0.2242 3.31388 2650 
449 1 -0.00328093 -0.00792241 -0.0182476 0.000847 -0.355516 -0.756716 -1.58425 2650 
395 1 -0.000930577 -0.000159946 -0.0158548 0.000847 0.00509824 -0.00223179 0.00216209 2650 
264 1 -0.0669286 -0.0543318 -0.0128476 0.000847 -1.69398 -0.23791 8.90204 2650 
358 1 -0.0668252 -0.0523591 -0.0132629 0.000847 -1.82576 0.203367 9.39564 2650 
344 1 -0.0667492 -0.0483272 -0.0135976 0.000847 -1.95422 -0.0431336 9.6715 2650 
205 1 -0.067652 -0.011564 -0.0123329 0.000233 -1.40954 0.140802 7.65344 2650 
483 1 -0.0678205 -0.00491898 -0.0122341 8.4e-05 -0.582449 -0.101138 3.11286 2650 
95 1 -0.00751894 -0.000886178 -0.0112326 0.001312 -0.00136075 -0.0120738 -0.000577361 2650 
266 1 -0.0112637 -0.00109557 -0.0095031 0.000847 0.0665465 0.0227936 -0.0166352 2650 
271 1 -0.005149 -0.00159472 -0.010304 0.000233 0 -0.011754 0 2650 
477 1 -0.0682932 -0.0104697 -0.00805247 0.000233 -0.412568 -0.203522 3.50633 2650 
160 1 -0.0106902 -0.00334026 -0.00867367 0.001312 -0.548066 -0.02566 -0.43551 2650 
455 1 -0.006244 -0.00169572 -0.008207 0.000233 0 -0.011754 0 2650 
307 1 -0.000781903 -0.0017551 -0.00930362 0.000847 0.0034335 -0.0226868 -0.0341239 2650 
138 1 -0.0678602 -0.0438217 -0.00634006 0.000847 -0.886816 -0.0340467 9.55099 2650 
320 1 -0.0678653 -0.0373741 -0.00629197 0.000847 -0.883148 0.0408226 9.58447 2650 
136 1 -0.003358 -0.00179172 -0.00699 0.000847 0 -0.011754 0 2650 
324 1 -0.004804 -0.000855717 -0.006739 0.000233 0 -0.011754 0 2650 
312 1 -0.0156882 -0.0018684 -0.00491943 0.000233 -0.0190454 -0.010019 -0.00691405 2650 
96 1 -0.0085414 -0.00256931 -0.00546253 0.000847 -0.0112152 -0.0118211 0.00254998 2650 
60 1 -0.00526409 -0.00230824 -0.00631234 0.000847 0.00106255 -0.0105919 0.00250215 2650 
289 1 -0.0142881 -0.000565988 -0.00587173 0.001312 -0.00245267 -0.00297437 0.0254109 2650 
305 1 -0.0680284 -0.044093 -0.00423811 0.000847 -0.567813 0.275529 9.23734 2650 
84 1 -0.00790764 -0.00351569 -0.00327357 0.000847 -0.972054 -0.0526602 -0.402406 2650 
229 1 -0.0155957 -0.00200094 -0.00374524 0.000847 -0.000334752 -0.0118752 0.000605801 2650 
466 1 -0.015616 -0.000233717 -0.003521 0.000233 0 -0.011754 0 2650 
249 1 -0.0688643 -0.00118188 -0.00259186 8.4e-05 -0.253348 0.0125573 6.84288 2650 
478 1 -0.0132607 -0.000213258 -0.0023037 0.000233 -0.00975827 -0.0129389 0.00383787 2650 
448 1 -0.0681661 -0.0144762 -0.000106423 0.000847 -0.0232627 -0.0201708 8.30442 2650 
201 1 -0.00899843 -0.00197186 -0.000163325 0.000847 -0.014615 -0.013276 0.00559986 2650 
267 1 -0.0047498 -0.002615 -0.000581636 0.000847 0.0102258 -0.0225398 -0.0274988 2650 
436 1 -0.0681564 -0.0562479 0.00045114 0.000847 0.0517479 0.751686 9.18665 2650 
445 1 -0.0676914 -0.0368106 0.000870838 0.001312 0.126636 -0.120233 9.84386 2650 
494 1 -0.00278264 -0.00279253 0.000875361 0.000233 -0.0155357 -0.0138125 0.0372916 2650 
373 1 -0.015091 -0.000605717 0.000947 0.000847 0 -0.011754 0 2650 
505 1 -0.0140078 -0.00122298 0.000756346 0.000233 -0.00423101 -0.00434391 0.00740396 2650 
118 1 -0.0687183 -0.00328931 0.00252352 0.000233 0.273914 -0.0707935 7.03383 2650 
402 1 -0.0162986 -0.00270799 0.00225657 0.000233 0.00813612 -0.00872053 0.0304283 2650 
364 1 -0.0139 -0.00239672 0.002152 0.000233 0 -0.011754 0 2650 
323 1 -0.008651 -0.00305872 0.002916 0.000233 0 -0.011754 0 2650 
135 1 -0.0114577 -0.00100877 0.00204446 0.000847 -0.0116394 -0.014915 -0.0125275 2650 
458 1 -0.067595 -0.0614869 0.00371058 0.001312 0.555054 0.0057323 10.1268 2650 
236 1 -0.0688252 -0.0153084 0.00376739 8.4e-05 0.407614 -0.0714417 7.37231 2650 
302 1 -0.01139 -0.00322572 0.00396 0.001312 0 -0.011754 0 2650 
441 1 -0.014312 -0.00292072 0.004679 0.000233 0 -0.011754 0 2650 
190 1 -0.067854 -0.0616841 0.00640401 0.000847 0.971497 -0.00316816 10.2938 2650 
195 1 -0.014509 -0.00193972 0.005621 0.000233 0 -0.011754 0 2650 
274 1 -0.005863 -0.00314572 0.005228 0.000233 0 -0.011754 0 2650 
396 1 -0.0677451 -0.0260529 0.00746251 0.000847 0.975363 0.0189283 8.92193 2650 
410 1 -0.0675086 -0.0543624 0.00940512 0.000847 1.38185 0.260285 9.923 2650 
507 1 -0.0678747 -0.0131227 0.0111322 0.000233 1.49192 0.0345107 9.07118 2650 
231 1 -0.0679116 -0.0074304 0.0108361 0.000233 1.08029 0.021992 6.73792 2650 
41 1 -0.008377 -0.00287172 0.009542 8.4e-05 0 -0.011754 0 2650 
259 1 -0.007193 -0.00283972 0.011052 0.000233 0 -0.011754 0 2650 
330 1 -0.0670616 -0.0345779 0.0121494 0.000847 1.69449 0.0386829 9.35564 2650 
140 1 -0.0677699 -0.0152971 0.0117595 0.000233 1.56923 -0.524443 9.07359 2650 
311 1 -0.00660396 -0.00249118 0.0141611 0.000233 -0.0280734 -0.0163524 -0.0234198 2650 
411 1 -0.0665797 -0.0264702 0.0145658 0.000847 1.98598 -0.0341055 9.10539 2650 
183 1 -0.0661907 -0.0254618 0.0186318 0.000233 2.46243 0.653058 8.75602 2650 
463 1 -0.0650973 -0.0401757 0.0202139 0.000847 2.80291 -0.00632076 9.07762 2650 
113 1 -0.0650296 -0.0384777 0.0204146 0.000847 2.85886 -0.00640813 9.11176 2650 
219 1 -0.0657506 -0.0166406 0.0201821 0.000233 2.25472 0.182221 7.3942 2650 
18 1 -0.0650142 -0.0149833 0.020493 0.000847 2.41129 0.203468 7.64318 2650 
19 1 -0.0633137 -0.0616865 0.0252328 0.000847 3.56695 0.0523654 8.90831 2650 
151 1 -0.0630936 -0.0200164 0.0257237 0.000847 3.08163 -0.31445 7.67894 2650 
173 1 -0.0615641 -0.0458 0.028155 0.001312 4.18833 -0.0330715 9.13208 2650 
134 1 -0.0602722 -0.0425761 0.0308196 0.001312 4.25915 0.00941713 8.47146 2650 
434 1 -0.0599633 -0.0244763 0.0323656 0.000847 4.29831 -0.232651 7.96045 2650 
161 1 -0.0596708 -0.0152711 0.0328764 0.000847 4.03658 0.0164196 7.19051 2650 
380 1 -0.0573592 -0.0402729 0.0358748 0.001312 5.09448 0.011509 8.17234 2650 
159 1 -0.05723 -0.0376611 0.0361251 0.001312 5.18002 -0.0107782 8.20568 2650 
81 1 -0.0577265 -0.0186124 0.0353579 0.001312 4.2811 0.0308303 7.08817 2650 
258 1 -0.0585494 -0.0136782 0.0360642 0.000233 4.41751 -0.921512 7.17701 2650 
180 1 -0.0592126 -0.0100231 0.0349669 0.000233 4.18144 0.119023 7.0851 2650 
218 1 -0.055821 -0.0243504 0.0401614 0.000233 5.44445 0.419258 7.5758 2650 
125 1 -0.0532562 -0.0170483 0.0425452 0.000847 5.08018 0.352821 6.34446 2650 
241 1 -0.0521383 -0.0411202 0.043895 0.000847 6.23153 0.0596893 7.37563 2650 
493 1 -0.0529906 -0.0367035 0.0438214 0.000233 6.51854 0.393818 7.88623 2650 
322 1 -0.0534503 -0.0317245 0.0432645 0.000233 5.83997 0.561371 7.21773 2650 
24 1 -0.0524508 -0.0293786 0.0444684 0.000233 5.54022 0.684941 6.54009 2650 
85 1 -0.0498441 -0.0320344 0.0464847 0.000847 6.50417 0.0383474 7.01426 2650 
171 1 -0.0506575 -0.0130761 0.0467406 8.4e-05 4.94868 -0.634785 5.37917 2650 
433 1 -0.0491335 -0.010913 0.0472519 0.000847 5.83865 -0.0753055 6.0648 2650 
314 1 -0.0488375 -0.0556082 0.0486254 8.4e-05 5.56897 0.0892526 5.60115 2650 
272 1 -0.0490189 -0.0322146 0.0482246 0.000233 6.92968 -0.125123 7.04397 2650 
286 1 -0.0491712 -0.012457 0.0480911 0.000233 2.38284 -0.367776 2.48528 2650 
270 1 -0.0462885 -0.0139161 0.0508766 0.000233 6.28574 0.265077 5.73049 2650 
110 1 -0.0439855 -0.00417498 0.0520562 0.000847 4.14287 -0.20007 3.51101 2650 
334 1 -0.0422846 -0.0419926 0.0534688 0.000847 7.49718 -0.0896988 5.90819 2650 
487 1 -0.0414176 -0.0343999 0.0541256 0.000847 7.91791 0.148874 6.06072 2650 
317 1 -0.0384735 -0.0498491 0.0562736 0.000847 7.92204 -0.017284 5.41868 2650 
53 1 -0.0380069 -0.0203924 0.0573196 0.000233 6.15388 -0.0472825 4.0652 2650 
382 1 -0.0159211 -0.0437331 0.0662362 0.000847 9.28229 -0.0405188 2.23599 2650 
294 1 -0.0116234 -0.0424342 0.067162 0.000847 8.47019 -0.0767219 1.45518 2650 
350 1 -0.0152375 -0.036922 0.0670526 0.000233 4.98986 0.436483 1.1847 2650 
120 1 -0.0123577 -0.0306232 0.0665581 0.001312 9.73066 -0.0611896 1.8419 2650 
468 1 -0.0179774 -0.00826125 0.0663519 0.000233 6.0659 -0.00565305 1.50342 2650 
4 1 -0.00425493 -0.0305136 0.068022 0.000847 9.04686 -0.013785 0.570498 2650 
76 1 -0.00310038 0.00615941 -0.0159706 0.000233 -0.00578221 0.011958 0.00483197 2650 
357 1 -0.00191298 0.00556194 -0.015903 0.000847 -0.00356262 0.00740695 0.00116372 2650 
49 1 -0.00630607 0.000970298 -0.0151314 0.000233 0.000106574 -0.0128613 -0.00409759 2650 
163 1 -0.00193068 0.0014419 -0.0152768 0.000847 -0.0552282 -0.0046996 0.00544439 2650 
37 1 -0.007724 0.00200928 -0.014299 0.000233 0 -0.011754 0 2650 
282 1 -0.00286606 0.00298436 -0.0156144 0.000847 -0.0130294 -0.00103822 0.00300307 2650 
309 1 -0.005736 0.00472828 -0.014845 0.000233 0 -0.011754 0 2650 
501 1 -0.0036948 0.0044574 -0.0151136 0.000847 -0.00781369 0.00426067 0.00525667 2650 
444 1 -0.00321521 0.00716466 -0.0148438 8.4e-05 -0.0133988 -0.00632289 -0.00239831 2650 
251 1 -0.000211887 0.00710922 -0.0152823 0.000847 0.00690552 0.0040251 -0.0010758 2650 
503 1 -0.00191791 0.0121169 -0.0155567 0.000233 -0.0202763 0.0321153 0.0393148 2650 
502 1 -0.00219375 0.0160813 -0.0155004 0.000847 -0.0304104 0.00896532 0.0113185 2650 
16 1 -0.00198855 0.0190337 -0.0147827 0.001312 -0.0061202 0.041817 -0.00207026 2650 
36 1 -0.008519 0.00127228 -0.013643 0.000233 0 -0.011754 0 2650 
68 1 -0.00634118 0.0013885 -0.0136067 0.001312 -0.000329879 -0.0126409 -0.00358343 2650 
91 1 -0.00301996 0.00626168 -0.0132639 0.000233 -0.0216494 0.0342111 -0.0121348 2650 
439 1 -0.00746594 0.0132524 -0.0138121 0.000233 -0.0217535 -0.00596066 -0.009471 2650 
15 1 -0.00555898 0.016639 -0.0135184 0.001312 -0.0121219 0.0265498 -0.0148609 2650 
192 1 -0.00900268 0.0314884 -0.0140727 0.000233 0.0790271 0.0702708 -0.0414172 2650 
51 1 -0.0110157 0.00112038 -0.0116748 0.000233 0.00595661 -0.00253113 0.00960645 2650 
248 1 -0.00849295 0.00142196 -0.0120398 0.000233 0.0179592 -0.00690905 -0.0129767 2650 
233 1 -0.006747 3.5283e-05 -0.01241 0.000233 0 -0.011754 0 2650 
435 1 -0.00555148 0.000184045 -0.0114856 0.000847 0.000158108 -0.0131921 -0.00302718 2650 
343 1 -0.00374977 6.06597e-05 -0.0126234 0.000847 -0.000529442 -0.0155455 -0.00596942 2650 
224 1 -0.000413014 0.000788549 -0.0126264 0.001312 0.00455813 -0.0042618 -9.0707e-06 2650 
512 1 -0.00752859 0.00248168 -0.0113259 0.000847 -0.00841742 -0.00856229 -0.00235468 2650 
198 1 -0.0107169 0.00745077 -0.0110912 0.001312 -0.0177825 -0.00248769 0.00364496 2650 
94 1 -0.00179824 0.00720452 -0.012306 0.001312 -0.0121115 -0.00234753 0.00842502 2650 
177 1 -0.00456409 0.0106719 -0.0117978 0.000847 -0.0158662 0.0224384 0.00594267 2650 
388 1 -0.0124122 0.0198249 -0.0110537 0.000233 -0.0458397 0.0180623 0.0541717 2650 
222 1 -0.000341402 0.0257546 -0.0115812 0.000233 -0.0191158 0.00902985 0.033076 2650 
213 1 -0.00393221 0.030084 -0.0121413 0.000847 -0.0276122 0.0115162 0.0273764 2650 
72 1 -0.00893771 0.038995 -0.0117686 0.000847 0.00694298 0.0370303 0.0147661 2650 
216 1 -0.0053334 0.0012471 -0.0101532 0.000847 -0.00541352 -0.0134579 -0.000619005 2650 
13 1 -0.012448 0.00218528 -0.010914 8.4e-05 0 -0.011754 0 2650 
69 1 -0.00965539 0.00260609 -0.0107926 0.001312 -0.000167792 -0.0116151 -0.00020156 2650 
392 1 -0.00599466 0.0038041 -0.0102527 8.4e-05 -0.00659757 -0.0083595 -0.00212575 2650 
209 1 -0.001802 0.00360428 -0.011003 0.000233 0 -0.011754 0 2650 
391 1 -0.00470743 0.011662 -0.0109562 0.000233 -0.0185168 0.0226742 0.0109675 2650 
153 1 -0.012304 0.0149003 -0.010822 0.000233 -0.0209882 0.0228479 0.0284019 2650 
133 1 -0.00288734 0.00108858 -0.00842427 0.001312 -5.35696e-05 -0.00178399 0.00384313 2650 
336 1 -0.000342643 0.000278268 -0.00927812 0.000233 0.00595475 0.000878542 -0.0197701 2650 
326 1 -0.0116452 0.00333798 -0.00853174 0.000233 0.0682124 0.00906617 -0.0364481 2650 
348 1 -0.011402 0.00372128 -0.008993 0.000233 0 -0.011754 0 2650 
332 1 -0.0132557 0.00491652 -0.00868688 0.000847 -2.59197e-05 -0.0117517 -8.4822e-06 2650 
2 1 -0.00953134 0.00614716 -0.00830348 0.001312 0.00799475 -0.00256919 -0.00928522 2650 
115 1 -0.0104678 0.0108228 -0.00837674 0.000233 0.00266554 0.00695627 -0.0116789 2650 
262 1 -0.0119365 0.0258514 -0.00830838 8.4e-05 -0.00568771 0.047836 0.0275692 2650 
66 1 -0.0139084 0.0350485 -0.00915181 0.000233 0.00347261 0.0341619 0.00411013 2650 
482 1 -0.0126196 0.0342455 -0.00862344 0.000233 -0.0162757 0.0437947 0.00434421 2650 
464 1 -0.00635434 0.000878255 -0.0078921 0.000233 -0.0152891 -0.01779 0.00692096 2650 
407 1 -0.00303715 0.00209796 -0.00648555 0.000847 0.00194491 0.000314244 0.00347809 2650 
158 1 -0.0121804 0.00583579 -0.0077896 8.4e-05 0.00188877 -0.00284778 0.00557992 2650 
147 1 -0.00547335 0.0051979 -0.00779348 0.001312 -0.00330264 -0.00849531 0.00545786 2650 
5 1 -0.00364525 0.00702442 -0.00731877 0.000847 -0.0499625 0.0130568 0.00578158 2650 
7 1 -0.00894308 0.0145998 -0.00710225 0.000847 -0.0308308 0.0234837 0.00263646 2650 
283 1 -0.00754332 0.00149742 -0.00577531 0.000233 -0.000941009 -0.0093883 -0.043378 2650 
237 1 -0.00586626 0.00283307 -0.00575428 0.001312 -0.0148784 0.00367678 -0.00708251 2650 
29 1 -0.00911507 0.00341077 -0.0061185 0.001312 0.0120971 0.0295482 0.029172 2650 
225 1 -0.00191171 0.00469886 -0.00604828 0.001312 -0.00827554 0.00361331 -0.0109409 2650 
79 1 -0.00931321 0.00504063 -0.00505499 0.000233 0.000840897 0.0441412 0.0394647 2650 
331 1 -0.0109395 0.0176048 -0.00627343 0.000847 0.0094052 0.0213481 -0.00684148 2650 
385 1 -0.0144048 0.0208046 -0.00595225 0.000847 0.0190074 0.0467605 -0.0488088 2650 
467 1 -0.0101458 0.00242598 -0.0035137 0.000233 -0.0114317 0.00391679 0.0097834 2650 
164 1 -0.00931863 0.00164941 -0.00360431 0.000847 0.00171122 0.000309802 0.036423 2650 
112 1 -0.00929066 0.00382096 -0.00385324 0.000847 0.00071367 0.0206107 0.0385939 2650 
399 1 -0.0139196 0.0105065 -0.00396825 0.000847 0.00722196 0.0151601 -0.0170469 2650 
149 1 -0.00988588 0.00972234 -0.00399607 0.000847 0.00533574 0.00120564 0.000572163 2650 
199 1 -0.00752065 0.0141302 -0.00393039 0.001312 -0.0103537 0.0171071 0.00139583 2650 
365 1 -0.0110882 0.0558787 -0.0032818 0.000233 0.0250435 0.0581581 -0.0310905 2650 
145 1 -0.00880306 0.00132317 -0.00232608 8.4e-05 -0.00610476 -0.0203259 0.00433871 2650 
245 1 -0.015895 0.00362828 -0.001607 0.000233 0 -0.011754 0 2650 
121 1 -0.013795 0.00728993 -0.00193163 0.001312 -0.0198026 0.00615088 -0.000463085 2650 
204 1 -0.00912323 0.0120068 -0.00287951 0.000847 -0.0114452 0.0176588 -0.00542553 2650 
31 1 -0.0152566 0.0137313 -0.00216383 0.000847 -0.0248114 0.0607096 -0.0122311 2650 
430 1 -0.016426 0.0308752 -0.0017612 0.000233 -0.000469769 0.0210454 -0.0654503 2650 
450 1 -0.0145952 0.00219967 -0.000109121 0.000847 0.00641623 -0.0164246 -0.0168861 2650 
345 1 -0.00788074 0.00221427 -0.0010528 0.000847 0.0102698 0.00604929 0.00457735 2650 
75 1 -0.004976 0.00316228 -0.001105 0.000233 0 -0.011754 0 2650 
301 1 -0.00179904 0.00463186 -0.000933381 8.4e-05 -0.00542456 -0.000958437 0.00851575 2650 
186 1 -0.0156556 0.00619403 -0.000182325 0.001312 -0.0172599 -0.00831042 0.00394118 2650 
217 1 -0.00608909 0.0129315 -0.00133132 0.000847 -0.0204195 0.0361096 -0.00742728 2650 
504 1 -0.0162497 0.0031589 0.000844448 0.000233 0.0193731 -0.0265713 -0.00649348 2650 
168 1 -0.0116925 0.00296127 5.75116e-05 0.000233 -0.00202632 0.00526207 0.00695314 2650 
226 1 -0.00509953 0.00999967 0.000754672 0.000847 -0.00463738 0.0059495 -0.00165193 2650 
137 1 -0.0119323 0.0303141 0.00010043 0.000847 0.0204383 0.0331061 0.00315705 2650 
440 1 -0.0136275 0.00011348 0.00162441 0.000233 0.00640272 0.00324748 -0.00679238 2650 
242 1 -0.010702 0.00224328 0.00289 0.000847 0 -0.011754 0 2650 
376 1 -0.005395 0.00265228 0.002758 0.000233 0 -0.011754 0 2650 
174 1 -0.001898 0.00217528 0.003155 0.000847 0 -0.011754 0 2650 
355 1 -0.0157479 0.00344644 0.00215843 0.000847 0.00229314 -0.0225645 -0.00704703 2650 
451 1 -0.0155606 0.00598894 0.00246121 0.000847 -0.0182894 0.00748401 0.0101786 2650 
285 1 -0.00279324 0.0114608 0.00193403 0.000233 0.00777784 0.0141206 0.0186362 2650 
214 1 -0.0110297 0.0137829 0.00210966 0.000847 -0.0228514 0.0189936 0.0149774 2650 
474 1 -0.000671784 0.0177037 0.0021478 0.000847 0.0162419 0.0201105 -0.0065344 2650 
131 1 -0.009967 0.00250228 0.004313 0.000233 0 -0.011754 0 2650 
206 1 -0.000711008 0.00275159 0.00387167 0.000233 0.000200844 -0.0022057 -0.0101649 2650 
296 1 -0.002285 0.00434128 0.004233 0.000233 0 -0.011754 0 2650 
470 1 -0.008539 0.00540028 0.004033 8.4e-05 0 -0.011754 0 2650 
374 1 -0.006913 0.00530728 0.00361 0.000233 0 -0.011754 0 2650 
156 1 -0.0152565 0.00716133 0.0035999 0.000233 0.00575648 0.00184986 -0.00522049 2650 
515 1 -0.0045127 0.00977772 0.00328844 0.000847 -0.0331335 0.000695793 0.00327395 2650 
178 1 -0.00272231 0.0124264 0.00471745 0.000847 -0.00942264 0.0138974 -0.0144999 2650 
475 1 -0.00166798 0.0194025 0.00371584 0.000847 0.0113347 0.0382603 -0.00647579 2650 
188 1 -0.00181926 0.0318674 0.00331405 0.000847 0.00721131 0.0301563 0.00476899 2650 
56 1 -0.011864 0.00115228 0.004858 0.001312 0 -0.011754 0 2650 
223 1 -0.014414 0.00179428 0.005039 8.4e-05 0 -0.011754 0 2650 
469 1 -0.012765 0.00304128 0.005129 0.000233 0 -0.011754 0 2650 
361 1 -0.012031 0.00465928 0.0053 0.000233 0 -0.011754 0 2650 
90 1 -0.009269 0.00328428 0.005356 0.000233 0 -0.011754 0 2650 
172 1 -0.000784273 0.00346558 0.00565186 0.001312 0.000274478 -0.0120667 -0.00114405 2650 
244 1 -0.002251 0.00486228 0.006118 0.000233 0 -0.011754 0 2650 
329 1 -0.000132572 0.00128523 0.00690411 0.000847 0.000391813 -0.0113991 0.000617172 2650 
152 1 -0.00307167 0.00298715 0.00759374 0.000847 -0.00549303 -0.0153889 -0.00137695 2650 
369 1 -0.008047 0.00319928 0.006729 0.000847 0 -0.011754 0 2650 
413 1 -0.0123747 0.0148741 0.0070416 0.000233 -0.0303845 0.0268351 0.0328144 2650 
511 1 -0.00623119 0.0297202 0.00718349 0.000847 -0.0191909 0.0247707 0.000400878 2650 
88 1 -0.010473 0.000692283 0.008034 0.000233 0 -0.011754 0 2650 
256 1 -0.00635923 0.00124648 0.00895487 0.000847 -0.00429144 -0.0114483 0.0061069 2650 
130 1 -0.004749 0.000893283 0.009456 0.000233 0 -0.011754 0 2650 
417 1 -0.001923 0.000959283 0.008831 0.000233 0 -0.011754 0 2650 
462 1 -0.013341 0.00317628 0.008656 0.000847 0 -0.011754 0 2650 
45 1 -0.001763 0.00201728 0.008462 0.000847 0 -0.011754 0 2650 
22 1 -0.002569 0.00364828 0.009366 0.000233 0 -0.011754 0 2650 
291 1 -0.00154195 0.00828879 0.00898744 0.000847 0.000368443 -0.000878557 -0.00367841 2650 
457 1 -0.00282374 0.0141562 0.00840638 8.4e-05 -0.0134899 0.019332 0.0450315 2650 
408 1 -0.0115376 0.0196634 0.00792521 0.000847 0.0243368 0.0195503 -0.0236234 2650 
319 1 -0.00470804 0.0400971 0.00870157 0.000847 0.00321502 0.103152 0.00477754 2650 
509 1 -0.001563 0.000548283 0.010036 8.4e-05 0 -0.011754 0 2650 
389 1 -0.00393268 0.012053 0.0108877 0.000233 -0.0682344 0.0278821 0.172162 2650 
379 1 -0.00207157 0.0188616 0.00990211 8.4e-05 0.0166555 0.0403106 -0.0184391 2650 
63 1 -0.0043795 0.0305426 0.0100365 0.000233 -0.0113708 0.0567883 0.0342171 2650 
176 1 -0.000916257 0.000445322 0.0124075 0.000847 0.0123829 -0.00555932 0.0138645 2650 
518 1 -0.011612 0.00201528 0.01181 0.000233 0 -0.011754 0 2650 
235 1 -0.00605 0.00161528 0.012276 0.000233 0 -0.011754 0 2650 
128 1 -0.003888 0.00243428 0.011415 0.000233 0 -0.011754 0 2650 
313 1 -0.004641 0.00508028 0.011299 0.000233 0 -0.011754 0 2650 
71 1 -0.00630063 0.0494499 0.0121132 0.000847 -0.0421392 0.0518641 -0.0225597 2650 
384 1 -0.00844829 0.000496785 0.0127614 0.000847 -0.0196921 -0.00159535 -0.0302785 2650 
277 1 -0.00711417 5.88927e-05 0.0140024 0.000847 -0.026159 -0.00298544 -0.00403233 2650 
443 1 -0.004264 0.00113328 0.013262 0.000233 0 -0.011754 0 2650 
196 1 -0.005873 0.00496966 0.0134946 0.000233 0.0197346 0.00431685 0.00197254 2650 
446 1 -0.000353 0.00443528 0.015695 0.000847 0 -0.011754 0 2650 
516 1 -0.00404148 0.0202777 0.0147676 0.000233 0.019998 0.0356215 0.00536279 2650 
38 1 -0.00689882 0.0846136 -0.0107556 0.000233 -0.0420549 0.149733 -0.0121777 2650 
500 1 0.00471166 -0.0441619 -0.0679939 0.000847 -9.154 0.00615302 -0.622241 2650 
461 1 0.00192314 -0.0366091 -0.0681284 0.000847 -9.4874 -0.0338702 -0.269767 2650 
269 1 0.00391871 -0.0358662 -0.0680433 0.000847 -9.44596 -0.0668801 -0.539796 2650 
519 1 0.00635478 -0.0115977 -0.0684739 0.000233 -8.54291 0.146274 -0.798684 2650 
415 1 0.00856182 -0.0108039 -0.0682342 0.000233 -6.33674 -0.02447 -0.799603 2650 
67 1 0.0103254 -0.0100019 -0.0681415 8.4e-05 -3.28813 -0.236016 -0.503836 2650 
290 1 0.00622606 -0.0398613 -0.0678713 0.000847 -9.36941 -0.115559 -0.843356 2650 
308 1 0.0120603 -0.0383671 -0.067081 0.000847 -9.22159 -0.156037 -1.63381 2650 
327 1 0.0185578 -0.00356953 -0.0663671 8.4e-05 -7.4604 0.582936 -2.0789 2650 
335 1 0.0181491 -0.032825 -0.0663261 0.000233 -8.31297 -0.520845 -2.26845 2650 
44 1 0.0235367 -0.0321619 -0.0639603 0.000847 -8.94388 0.105003 -3.28896 2650 
253 1 0.0229978 -0.02978 -0.0641571 0.000847 -8.71698 -0.0684837 -3.09335 2650 
288 1 0.0273453 -0.0127189 -0.0632728 8.4e-05 -6.20786 -0.865913 -2.67661 2650 
452 1 0.0320738 -0.0555898 -0.0608296 0.000233 -8.27742 -0.268316 -4.37114 2650 
421 1 0.0313536 -0.0397076 -0.060521 0.000847 -8.34716 0.172006 -4.34048 2650 
459 1 0.0351843 -0.0164464 -0.0583798 0.000847 -5.57785 0.0142352 -3.3709 2650 
208 1 0.0397903 -0.029613 -0.0560844 0.000233 -7.60089 0.21992 -5.37924 2650 
175 1 0.0405022 -0.0299877 -0.0548171 0.000847 -7.34486 0.101324 -5.4151 2650 
193 1 0.0425902 -0.0251845 -0.0539889 0.000233 -6.50082 0.338379 -5.12796 2650 
150 1 0.0453188 -0.0391768 -0.0509061 0.000847 -6.80559 0.103839 -6.06466 2650 
33 1 0.0454728 -0.0312861 -0.0507696 0.000847 -6.90048 0.0867897 -6.18632 2650 
169 1 0.0470612 -0.0368187 -0.0501391 0.000233 -6.59998 -0.00276395 -6.19408 2650 
197 1 0.0513384 -0.00313617 -0.0459664 8.4e-05 -6.3702 2.50167 -7.10854 2650 
124 1 0.0507034 -0.0554204 -0.0455465 0.000847 -6.473 -0.114249 -7.1833 2650 
148 1 0.0514993 -0.0377955 -0.0446461 0.000847 -6.30049 0.118545 -7.31882 2650 
490 1 0.051585 -0.00958482 -0.0454682 0.000233 -5.1616 -0.395085 -5.79712 2650 
194 1 0.0597314 -0.0233651 -0.0340807 0.000233 -3.9688 -0.190124 -6.97989 2650 
485 1 0.0587736 -0.0168207 -0.0345405 0.000847 -4.2205 -0.161621 -7.14291 2650 
170 1 0.0593411 -0.0136852 -0.0347769 0.000233 -4.15825 0.14774 -7.11452 2650 
346 1 0.0605962 -0.0578324 -0.0311958 0.000847 -4.23616 -0.0173356 -8.30108 2650 
420 1 0.0638191 -0.0472087 -0.0239548 0.000847 -3.10411 -0.290884 -8.17537 2650 
46 1 0.0639965 -0.0453685 -0.0234775 0.000847 -3.06344 -0.145603 -8.34661 2650 
230 1 0.0640831 -0.0240575 -0.0232124 0.000847 -3.14637 0.00729705 -8.70577 2650 
92 1 0.066246 -0.0333603 -0.0184445 0.000233 -1.83728 -0.334093 -6.62478 2650 
102 1 0.0665332 -0.0322412 -0.0173808 0.000233 -2.16552 1.17216 -8.27488 2650 
82 1 0.000957464 -0.00108837 -0.0150308 0.001312 0.0033878 -0.00822526 0.0054289 2650 
247 1 0.0675489 -0.0225456 -0.0128844 0.000233 -1.71143 -0.477835 -8.97379 2650 
297 1 0.0677014 -0.0239024 -0.0120564 0.000233 -1.54409 -0.124666 -8.63674 2650 
522 1 0.00679 -0.00254572 -0.01028 8.4e-05 0 -0.011754 0 2650 
157 1 0.006689 -0.00193872 -0.009595 0.000233 0 -0.011754 0 2650 
144 1 0.000616 -0.000898717 -0.009639 0.000233 0 -0.011754 0 2650 
106 1 0.0682427 -0.00603336 -0.00946609 8.4e-05 -0.746052 0.100309 -5.08743 2650 
93 1 0.00843419 -0.00311876 -0.00789547 8.4e-05 -0.0111448 -0.00926872 0.00559827 2650 
447 1 0.0105208 -0.00197692 -0.00928716 0.000847 0.0013484 -0.0105121 -0.00012176 2650 
10 1 0.0686452 -0.00766065 -0.003798 0.000233 -0.267237 0.0658176 -5.17157 2650 
166 1 0.0687261 -0.0578779 -0.00217409 0.000233 -0.231249 0.514984 -7.02078 2650 
142 1 0.000422 -0.00114072 -0.00166 0.000233 0 -0.011754 0 2650 
492 1 0.009114 -0.000649717 -0.002429 0.000233 0 -0.011754 0 2650 
341 1 0.0676935 -0.0507692 0.000990526 0.001312 0.145467 -0.0242882 -9.60884 2650 
220 1 0.004447 -0.00251872 0.000291 0.000233 0 -0.011754 0 2650 
122 1 0.009753 -0.00124472 0.000953 0.000847 0 -0.011754 0 2650 
353 1 0.00237746 -6.90515e-05 0.00312108 8.4e-05 0.0015345 -0.00573097 -0.0125122 2650 
35 1 0.0136465 -0.000121325 0.00212363 0.000847 -0.0121953 -9.57773e-05 0.00420749 2650 
442 1 0.0686239 -0.0247443 0.00442866 0.000233 0.541428 0.173687 -8.41787 2650 
70 1 0.0153931 -0.00336011 0.00430149 0.000847 0.0500039 -0.0433345 -0.0321502 2650 
497 1 0.00950686 -0.00258779 0.00392509 0.001312 -0.00110965 -0.00913587 0.00170319 2650 
123 1 0.0115662 -0.00307948 0.00321978 0.000847 -0.00297236 -0.0119633 0.00320526 2650 
328 1 0.0112294 -0.000160814 0.00399531 0.001312 -0.00329876 -0.00894083 0.00403165 2650 
298 1 0.0685741 -0.0218962 0.00521361 0.000233 0.665139 -0.22077 -8.5749 2650 
486 1 0.005507 -0.00326372 0.005173 0.000847 0 -0.011754 0 2650 
295 1 0.0148312 -0.00172728 0.00482899 0.000847 -9.52429e-06 -0.0115845 0.000104473 2650 
11 1 0.0155509 -5.1913e-05 0.00560342 0.000233 -0.0156146 -0.0066579 0.0320021 2650 
431 1 0.0685107 -0.0151722 0.00759348 8.4e-05 0.345821 -0.222987 -3.43621 2650 
432 1 0.0102386 -0.00299984 0.00653595 0.001312 8.08608e-05 -0.0113364 0.00195373 2650 
428 1 0.0133614 -0.00165999 0.0074323 0.000233 -0.0006844 -0.00321647 0.00718742 2650 
65 1 0.0064856 -0.00324426 0.00818715 0.000233 0.00315108 -0.0137461 0.00097252 2650 
203 1 0.005033 -0.00249672 0.009185 0.000847 0 -0.011754 0 2650 
338 1 0.008907 -0.00157572 0.008617 0.000233 0 -0.011754 0 2650 
381 1 0.00483771 -0.000476505 0.0104172 0.000847 -0.0055747 -0.0146903 -0.00920271 2650 
117 1 0.0678361 -0.00528851 0.0112689 0.000233 1.09144 0.0621073 -6.56105 2650 
263 1 0.00737334 -0.00119724 0.0136334 0.001312 0.013614 -0.0131203 -0.011804 2650 
479 1 0.00928758 -0.000485454 0.0130869 0.000233 0.0209859 -0.0100325 -0.00736585 2650 
182 1 0.0671748 -0.0355248 0.0147005 0.000233 1.67076 0.49787 -7.59973 2650 
141 1 0.0668418 -0.0289831 0.0161449 0.000233 2.12173 0.129198 -8.81501 2650 
9 1 0.00093864 -0.00330266 0.0159091 0.000233 0.0116838 -0.0133427 0.0847323 2650 
127 1 0.0662629 -0.0302346 0.0183865 0.000233 2.413 -0.341743 -8.66575 2650 
362 1 0.063624 -0.0073137 0.0260971 0.000233 2.76631 -0.300085 -6.79088 2650 
280 1 0.0585958 -0.028751 0.0348114 0.000847 4.432 0.256201 -7.49109 2650 
429 1 0.0589803 -0.0254318 0.035357 0.000233 4.64735 0.0582057 -7.74282 2650 
489 1 0.0574368 -0.0323416 0.0366774 0.000847 4.67756 -0.150414 -7.30656 2650 
278 1 0.0542632 -0.0586202 0.0412399 0.000847 5.75127 -0.0150982 -7.54466 2650 
189 1 0.051166 -0.0510345 0.0450378 0.000847 2.45542 -1.12436 -2.68704 2650 
401 1 0.0516042 -0.0313946 0.0454521 0.000233 6.10579 0.688695 -6.9424 2650 
473 1 0.0470541 -0.0492455 0.0493247 0.000847 6.9868 0.0274308 -6.65863 2650 
481 1 0.0483343 -0.0310783 0.0489215 0.000233 5.1188 -0.655677 -5.18981 2650 
423 1 0.0462843 -0.0302273 0.0500309 0.000847 6.45684 0.0531711 -5.98468 2650 
100 1 0.0468866 -0.0286905 0.049463 0.000847 6.49163 -0.00490381 -6.17002 2650 
508 1 0.0471806 -0.027613 0.0500248 0.000233 6.48651 0.0691621 -6.1235 2650 
378 1 0.0473349 -0.0204095 0.0498959 0.000233 6.08336 -0.0320959 -5.80485 2650 
61 1 0.0466178 -0.0189445 0.0497356 0.000847 6.30032 0.233258 -5.88056 2650 
306 1 0.0458527 -0.00956538 0.0504362 0.000847 4.04828 0.702561 -3.70163 2650 
316 1 0.0445934 -0.0532728 0.0515508 0.000847 6.69962 -0.171648 -5.7869 2650 
32 1 0.0453683 -0.0280278 0.0508585 0.000847 6.47235 -0.190629 -5.75958 2650 