ITEM: TIMESTEP
463046
ITEM: NUMBER OF ATOMS
522
ITEM: BOX BOUNDS ff ff ff
-0.15 0.15
-0.15 0.15
-0.15 0.15
ITEM: ATOMS id type x y z radius vx vy vz density 
508 1 -0.00100792 -0.00691552 -0.0493244 0.000233 -0.0587518 -0.313144 -7.65377 2650 
181 1 -0.005031 -0.00237162 -0.015718 0.000233 0 -0.011754 0 2650 
16 1 -0.000825 -0.000639617 -0.014225 0.001312 0 -0.011754 0 2650 
457 1 -0.007813 -0.00176162 -0.012561 8.4e-05 0 -0.011754 0 2650 
384 1 -0.002976 -0.00192762 -0.012309 0.000847 0 -0.011754 0 2650 
46 1 -0.009231 -0.000118617 -0.011381 0.000847 0 -0.011754 0 2650 
173 1 -0.007011 -0.00204562 -0.011028 0.001312 0 -0.011754 0 2650 
4 1 -0.001179 -0.00199562 -0.010288 0.000847 0 -0.011754 0 2650 
100 1 -0.005183 -0.000344617 -0.009911 0.000847 0 -0.011754 0 2650 
194 1 -0.01124 -0.00302462 -0.008486 0.000233 0 -0.011754 0 2650 
490 1 -0.003885 -0.00233262 -0.00896 0.000233 0 -0.011754 0 2650 
382 1 -0.010787 -0.00148462 -0.00923 0.000847 0 -0.011754 0 2650 
335 1 -0.007807 -2.86172e-05 -0.009311 0.000233 0 -0.011754 0 2650 
20 1 -0.00875812 -0.00139244 -0.00769484 0.000847 -0.00795942 -0.28382 -0.0915187 2650 
239 1 -0.067997 -0.0158298 -0.00465133 0.000847 -0.278351 -0.451547 3.72376 2650 
171 1 -0.007993 -0.00101362 -0.005801 8.4e-05 0 -0.011754 0 2650 
340 1 -0.009348 -0.00196662 -0.004188 8.4e-05 0 -0.011754 0 2650 
230 1 -0.001681 -0.00204362 -0.004229 0.000847 0 -0.011754 0 2650 
395 1 -0.01469 -0.00120362 -0.003697 0.000847 0 -0.011754 0 2650 
257 1 -0.010761 -0.000851617 -0.003937 0.000233 0 -0.011754 0 2650 
452 1 -0.00665 -0.000125617 -0.004116 0.000233 0 -0.011754 0 2650 
182 1 -0.005693 -0.00255762 -0.002264 0.000233 0 -0.011754 0 2650 
19 1 -0.004265 -0.00248862 -0.002914 0.000847 0 -0.011754 0 2650 
367 1 -0.012598 -0.00205862 -0.000686 0.001312 0 -0.011754 0 2650 
294 1 -0.00736782 -0.0022099 0.000918497 0.000847 0.000626506 -0.0131737 -0.00257299 2650 
243 1 -0.00863169 -0.0027372 0.00201915 0.000847 -0.00349776 -0.0153393 0.000210653 2650 
166 1 -0.005874 -0.00301262 0.002422 0.000233 0 -0.011754 0 2650 
251 1 -0.014721 -0.00133162 0.001687 0.000847 0 -0.011754 0 2650 
196 1 -0.00792782 -0.00146745 0.00210319 0.000233 -0.00398486 0.0299877 0.0186526 2650 
140 1 -0.008662 -0.00117462 0.002683 0.000233 0 -0.011754 0 2650 
241 1 -0.00525055 -0.00446543 0.00342188 0.000847 -0.566879 -0.201877 0.439137 2650 
318 1 -0.015211 -0.00234362 0.004509 0.000847 0 -0.011754 0 2650 
440 1 -0.01216 -0.00164562 0.004474 0.000233 0 -0.011754 0 2650 
308 1 -0.010594 -0.00272262 0.004293 0.000847 0 -0.011754 0 2650 
341 1 -0.010021 -0.000130617 0.003213 0.001312 0 -0.011754 0 2650 
288 1 -0.001987 -0.00325562 0.005845 8.4e-05 0 -0.011754 0 2650 
334 1 -0.010183 -0.00244462 0.006133 0.000847 0 -0.011754 0 2650 
64 1 -0.00132 -0.00186862 0.004914 0.000233 0 -0.011754 0 2650 
47 1 -0.00864171 -0.00118684 0.00673478 0.000847 -0.0834205 -0.0683868 0.0862737 2650 
488 1 -0.004478 -0.00190562 0.008761 0.000847 0 -0.011754 0 2650 
170 1 -0.01263 -0.00317862 0.010189 0.000233 0 -0.011754 0 2650 
498 1 -0.011021 -0.00164962 0.010853 0.000847 0 -0.011754 0 2650 
409 1 -0.006259 -0.00194562 0.010839 0.000847 0 -0.011754 0 2650 
162 1 -0.002748 -0.00200062 0.010676 0.000847 0 -0.011754 0 2650 
436 1 -0.000153 -0.00186062 0.009912 0.000847 0 -0.011754 0 2650 
421 1 -0.003637 -0.000566617 0.009938 0.000847 0 -0.011754 0 2650 
278 1 -0.001638 -0.000251617 0.010915 0.000847 0 -0.011754 0 2650 
272 1 -0.009203 -0.00203362 0.012025 0.000233 0 -0.011754 0 2650 
124 1 -0.0144046 -0.00846335 0.0131463 0.000847 -1.99306 -0.614369 1.9572 2650 
113 1 -0.00649 -0.00280062 0.013564 0.000847 0 -0.011754 0 2650 
57 1 -0.002674 -0.000685617 0.01416 0.000847 0 -0.011754 0 2650 
236 1 -0.0458838 -0.00457129 0.0477534 8.4e-05 1.20379 -0.130785 3.05805 2650 
143 1 -0.000198 0.00763238 -0.016003 0.000233 0 -0.011754 0 2650 
26 1 -0.001949 0.00250338 -0.014832 0.000233 0 -0.011754 0 2650 
49 1 -0.006313 0.00891738 -0.014865 0.000233 0 -0.011754 0 2650 
37 1 -0.007724 0.00988438 -0.014299 0.000233 0 -0.011754 0 2650 
309 1 -0.005736 0.0126034 -0.014845 0.000233 0 -0.011754 0 2650 
48 1 -0.0005 0.0118394 -0.014942 0.000847 0 -0.011754 0 2650 
224 1 -0.006986 0.00473438 -0.01312 0.001312 0 -0.011754 0 2650 
133 1 -0.001223 0.00319738 -0.012911 0.001312 0 -0.011754 0 2650 
234 1 -0.003242 0.00619938 -0.013015 0.000233 0 -0.011754 0 2650 
501 1 -0.005104 0.00694538 -0.014134 0.000847 0 -0.011754 0 2650 
36 1 -0.008519 0.00914738 -0.013643 0.000233 0 -0.011754 0 2650 
68 1 -0.006284 0.00940438 -0.013069 0.001312 0 -0.011754 0 2650 
422 1 -0.000333 0.00965738 -0.012757 0.000847 0 -0.011754 0 2650 
360 1 -0.008207 0.00103038 -0.012559 0.000847 0 -0.011754 0 2650 
86 1 -0.006253 0.00148938 -0.011069 0.000847 0 -0.011754 0 2650 
255 1 -0.000452 0.00143438 -0.011838 0.000847 0 -0.011754 0 2650 
233 1 -0.006747 0.00791038 -0.01241 0.000233 0 -0.011754 0 2650 
343 1 -0.003612 0.00892238 -0.01107 0.000847 0 -0.011754 0 2650 
76 1 -0.005578 0.0103104 -0.011829 0.000233 0 -0.011754 0 2650 
198 1 -0.004067 0.0118614 -0.012517 0.001312 0 -0.011754 0 2650 
29 1 -0.008334 0.00411938 -0.010637 0.001312 0 -0.011754 0 2650 
160 1 -0.003722 0.00383038 -0.010854 0.001312 0 -0.011754 0 2650 
449 1 -0.001174 0.00430238 -0.009486 0.000847 0 -0.011754 0 2650 
271 1 -0.005149 0.00628038 -0.010304 0.000233 0 -0.011754 0 2650 
95 1 -0.007267 0.00707538 -0.011007 0.001312 0 -0.011754 0 2650 
435 1 -0.005486 0.00835838 -0.011036 0.000847 0 -0.011754 0 2650 
13 1 -0.012448 0.0100604 -0.010914 8.4e-05 0 -0.011754 0 2650 
69 1 -0.00959 0.0104314 -0.010713 0.001312 0 -0.011754 0 2650 
392 1 -0.003997 0.0106514 -0.009609 8.4e-05 0 -0.011754 0 2650 
146 1 -0.000651 0.00982838 -0.010343 0.001312 0 -0.011754 0 2650 
147 1 -0.004382 0.0120124 -0.009794 0.001312 0 -0.011754 0 2650 
209 1 -0.001802 0.0114794 -0.011003 0.000233 0 -0.011754 0 2650 
487 1 -0.00547 0.00138638 -0.008469 0.000847 0 -0.011754 0 2650 
455 1 -0.006244 0.00617938 -0.008207 0.000233 0 -0.011754 0 2650 
289 1 -0.011692 0.00655638 -0.008759 0.001312 0 -0.011754 0 2650 
407 1 -0.002601 0.00659038 -0.009363 0.000847 0 -0.011754 0 2650 
336 1 -0.000699 0.00739738 -0.008095 0.000233 0 -0.011754 0 2650 
348 1 -0.011402 0.0115964 -0.008993 0.000233 0 -0.011754 0 2650 
332 1 -0.013253 0.0127914 -0.008686 0.000847 0 -0.011754 0 2650 
304 1 -0.012077 0.000359383 -0.006698 0.000847 0 -0.011754 0 2650 
402 1 -0.012528 0.00158838 -0.0071 0.000233 0 -0.011754 0 2650 
53 1 -0.011013 0.00155838 -0.007695 0.000233 0 -0.011754 0 2650 
161 1 -0.00036 0.000364383 -0.00692 0.000847 0 -0.011754 0 2650 
483 1 -0.010366 0.00429138 -0.006716 8.4e-05 0 -0.011754 0 2650 
266 1 -0.012074 0.00505938 -0.006827 0.000847 0 -0.011754 0 2650 
468 1 -0.010625 0.00625338 -0.00746 0.000233 0 -0.011754 0 2650 
60 1 -0.005537 0.00526838 -0.006955 0.000847 0 -0.011754 0 2650 
136 1 -0.003358 0.00608338 -0.00699 0.000847 0 -0.011754 0 2650 
31 1 -0.0132647 0.00671652 -0.00680223 0.000847 -0.00986934 -0.0278082 -0.00209205 2650 
347 1 -0.0110034 0.00678262 -0.00645184 0.000847 0.00652608 -0.0196688 -0.000255804 2650 
324 1 -0.004804 0.00701938 -0.006739 0.000233 0 -0.011754 0 2650 
164 1 -0.00817479 0.00863189 -0.00643192 0.000847 -0.0169262 -0.0280585 -0.0165157 2650 
158 1 -0.004052 0.00822338 -0.007417 8.4e-05 0 -0.011754 0 2650 
512 1 -0.00409 0.0100144 -0.007205 0.000847 0 -0.011754 0 2650 
391 1 -0.001389 0.0107444 -0.007809 0.000233 0 -0.011754 0 2650 
66 1 -0.007982 0.0116864 -0.006798 0.000233 0 -0.011754 0 2650 
464 1 -3.2e-05 0.0112514 -0.007535 0.000233 0 -0.011754 0 2650 
85 1 -0.01442 0.00167638 -0.005129 0.000847 0 -0.011754 0 2650 
125 1 -0.003357 0.00260938 -0.006037 0.000847 0 -0.011754 0 2650 
471 1 -0.000361909 0.00753035 -0.00489704 0.001312 0.0930095 0.0163754 -0.00251131 2650 
175 1 -0.00327003 0.00907537 -0.00501667 0.000847 0.125148 -0.0170201 -0.0994919 2650 
368 1 -0.00723953 0.00981401 -0.0056138 0.000847 -0.0275926 0.0273135 -0.056725 2650 
79 1 -0.009334 0.0115334 -0.006031 0.000233 0 -0.011754 0 2650 
3 1 -0.00494596 0.0112663 -0.00560428 0.000847 0.0051673 0.0487801 -0.0611996 2650 
345 1 -0.013234 0.000670383 -0.003502 0.000847 0 -0.011754 0 2650 
97 1 -0.009673 0.000989383 -0.003235 0.000847 0 -0.011754 0 2650 
286 1 -0.016281 0.00452338 -0.003576 0.000233 0 -0.011754 0 2650 
306 1 -0.011393 0.00389738 -0.004559 0.000847 0 -0.011754 0 2650 
229 1 -0.015511 0.00590138 -0.003754 0.000847 0 -0.011754 0 2650 
466 1 -0.015616 0.00764138 -0.003521 0.000233 0 -0.011754 0 2650 
2 1 -0.013793 0.00928638 -0.003576 0.001312 0 -0.011754 0 2650 
478 1 -0.010102 0.00804538 -0.003546 0.000233 0 -0.011754 0 2650 
467 1 -0.01128 0.0102354 -0.004037 0.000233 0 -0.011754 0 2650 
112 1 -0.009312 0.0108304 -0.004659 0.000847 0 -0.011754 0 2650 
145 1 -0.007489 0.0110434 -0.00326 8.4e-05 0 -0.011754 0 2650 
149 1 -0.012304 0.0119234 -0.004092 0.000847 0 -0.011754 0 2650 
199 1 -0.003328 0.0121394 -0.003915 0.001312 0 -0.011754 0 2650 
42 1 -0.00528187 0.0193014 -0.00333263 0.001312 0.210874 0.229566 0.107272 2650 
445 1 -0.006004 0.000406383 -0.002238 0.001312 0 -0.011754 0 2650 
378 1 -0.001584 0.00119938 -0.002895 0.000233 0 -0.011754 0 2650 
315 1 -0.003103 0.00126738 -0.002159 0.001312 0 -0.011754 0 2650 
61 1 -0.000548 0.00197638 -0.001635 0.000847 0 -0.011754 0 2650 
505 1 -0.012355 0.00375738 -0.002136 0.000233 0 -0.011754 0 2650 
84 1 -0.004923 0.00449638 -0.002038 0.000847 0 -0.011754 0 2650 
248 1 -0.014194 0.00617438 -0.003031 0.000233 0 -0.011754 0 2650 
168 1 -0.011097 0.00583538 -0.001986 0.000233 0 -0.011754 0 2650 
237 1 -0.001743 0.00495138 -0.003089 0.001312 0 -0.011754 0 2650 
51 1 -0.003974 0.00667438 -0.002955 0.000233 0 -0.011754 0 2650 
312 1 -0.006897 0.00955138 -0.002463 0.000233 0 -0.011754 0 2650 
285 1 -0.004117 0.0106264 -0.002186 0.000233 0 -0.011754 0 2650 
399 1 -0.00283 0.00967138 -0.001648 0.000847 0 -0.011754 0 2650 
301 1 -0.000431 0.00978438 -0.003081 8.4e-05 0 -0.011754 0 2650 
245 1 -0.015895 0.0115034 -0.001607 0.000233 0 -0.011754 0 2650 
204 1 -0.005796 0.0121094 -0.002651 0.000847 0 -0.011754 0 2650 
214 1 -0.001591 0.0126864 -0.002687 0.000847 0 -0.011754 0 2650 
63 1 -0.000147 0.0129044 -0.0027 0.000233 0 -0.011754 0 2650 
519 1 -0.014357 0.000877383 -0.000107 0.000233 0 -0.011754 0 2650 
118 1 -0.006006 0.00179438 -0.001449 0.000233 0 -0.011754 0 2650 
331 1 -0.015157 0.00629738 -0.001358 0.000847 0 -0.011754 0 2650 
201 1 -0.005857 0.00623038 -0.001367 0.000847 0 -0.011754 0 2650 
15 1 -0.003312 0.00549738 -0.000225 0.001312 0 -0.011754 0 2650 
300 1 -0.00208512 0.00504996 -0.00128298 0.000233 0.0841031 -0.0755697 0.0975132 2650 
474 1 -0.013434 0.00653438 -0.00063 0.000847 0 -0.011754 0 2650 
450 1 -0.015765 0.00863138 -0.000749 0.000847 0 -0.011754 0 2650 
517 1 -0.011514 0.00941438 -0.000191 0.000233 0 -0.011754 0 2650 
75 1 -0.004976 0.0110374 -0.001105 0.000233 0 -0.011754 0 2650 
40 1 -0.00870545 0.0119585 -0.000122633 0.000233 0.119462 0.144072 0.232954 2650 
279 1 -0.0150511 0.0150923 -0.00136825 0.000847 -0.0401839 0.105896 0.162347 2650 
373 1 -0.015091 0.00726938 0.000947 0.000847 0 -0.011754 0 2650 
137 1 -0.000641625 0.00940224 0.000574588 0.000847 -0.00128128 -0.00549404 -0.00400206 2650 
186 1 -0.015511 0.0121014 2.6e-05 0.001312 0 -0.011754 0 2650 
504 1 -0.012481 0.0122554 0.001551 0.000233 0 -0.011754 0 2650 
188 1 -0.00665079 0.0116629 0.000118854 0.000847 0.00721131 0.0301563 0.00476899 2650 
101 1 -0.007806 0.00127638 0.002945 0.000233 0 -0.011754 0 2650 
364 1 -0.0139 0.00547838 0.002152 0.000233 0 -0.011754 0 2650 
323 1 -0.008651 0.00481638 0.002916 0.000233 0 -0.011754 0 2650 
242 1 -0.010702 0.0101184 0.00289 0.000847 0 -0.011754 0 2650 
376 1 -0.005395 0.0105274 0.002758 0.000233 0 -0.011754 0 2650 
174 1 -0.001898 0.0100504 0.003155 0.000847 0 -0.011754 0 2650 
62 1 -0.012835 0.00110438 0.004641 0.000233 0 -0.011754 0 2650 
218 1 -0.012593 0.00219538 0.003611 0.000233 0 -0.011754 0 2650 
302 1 -0.01139 0.00464938 0.00396 0.001312 0 -0.011754 0 2650 
441 1 -0.014312 0.00495438 0.004679 0.000233 0 -0.011754 0 2650 
206 1 -0.002945 0.00562438 0.003686 0.000233 0 -0.011754 0 2650 
482 1 -0.00298153 0.00936589 0.00328744 0.000233 -0.0113288 0.0263648 -0.0535455 2650 
131 1 -0.009967 0.0103774 0.004313 0.000233 0 -0.011754 0 2650 
156 1 -0.015257 0.0116364 0.00371 0.000233 0 -0.011754 0 2650 
296 1 -0.002285 0.0122164 0.004233 0.000233 0 -0.011754 0 2650 
365 1 -0.000771647 0.0117815 0.00355634 0.000233 0.317404 0.081428 0.235184 2650 
470 1 -0.008539 0.0132754 0.004033 8.4e-05 0 -0.011754 0 2650 
374 1 -0.006913 0.0131824 0.00361 0.000233 0 -0.011754 0 2650 
222 1 -0.000313927 0.0138402 0.00317282 0.000233 0.0658555 0.018657 0.140398 2650 
319 1 -0.014687 0.00134138 0.006167 0.000847 0 -0.011754 0 2650 
429 1 -0.00692 0.000623383 0.005955 0.000233 0 -0.011754 0 2650 
117 1 -0.006406 0.00136638 0.006156 0.000233 0 -0.011754 0 2650 
264 1 -0.003065 0.00293438 0.00492 0.000847 0 -0.011754 0 2650 
274 1 -0.005863 0.00472938 0.005228 0.000233 0 -0.011754 0 2650 
189 1 -0.001267 0.00429538 0.004803 0.000847 0 -0.011754 0 2650 
195 1 -0.014509 0.00593538 0.005621 0.000233 0 -0.011754 0 2650 
135 1 -0.008556 0.00751038 0.005239 0.000847 0 -0.011754 0 2650 
431 1 -0.007173 0.00699838 0.006023 8.4e-05 0 -0.011754 0 2650 
56 1 -0.011864 0.00902738 0.004858 0.001312 0 -0.011754 0 2650 
256 1 -0.00348399 0.0089168 0.00486329 0.000847 -0.00429144 -0.0114483 0.0061069 2650 
223 1 -0.014414 0.00966938 0.005039 8.4e-05 0 -0.011754 0 2650 
469 1 -0.012765 0.0109164 0.005129 0.000233 0 -0.011754 0 2650 
90 1 -0.009269 0.0111594 0.005356 0.000233 0 -0.011754 0 2650 
361 1 -0.012031 0.0125344 0.0053 0.000233 0 -0.011754 0 2650 
152 1 -0.00503775 0.0125131 0.00519496 0.000847 0.0127074 -0.0132129 0.0110532 2650 
244 1 -0.002251 0.0127374 0.006118 0.000233 0 -0.011754 0 2650 
172 1 -0.000863 0.0114304 0.00598 0.001312 0 -0.011754 0 2650 
388 1 -0.009678 0.000507383 0.006446 0.000233 0 -0.011754 0 2650 
406 1 -0.00491 0.00320738 0.007611 0.001312 0 -0.011754 0 2650 
96 1 -7.1e-05 0.00618938 0.006733 0.000847 0 -0.011754 0 2650 
283 1 -0.00727 0.00868538 0.006824 0.000233 0 -0.011754 0 2650 
329 1 -0.000212 0.00908838 0.006779 0.000847 0 -0.011754 0 2650 
369 1 -0.008047 0.0110744 0.006729 0.000847 0 -0.011754 0 2650 
355 1 -0.012705 0.0121124 0.006672 0.000847 0 -0.011754 0 2650 
414 1 -0.0097099 0.0171357 0.00777276 0.000233 -0.237951 0.279584 0.222803 2650 
314 1 -0.012863 0.00152138 0.007925 8.4e-05 0 -0.011754 0 2650 
484 1 -0.0081725 0.000730216 0.00791922 0.001312 -0.000121512 0.00973487 0.0218205 2650 
320 1 -0.001647 0.00263938 0.009108 0.000847 0 -0.011754 0 2650 
88 1 -0.010473 0.00856738 0.008034 0.000233 0 -0.011754 0 2650 
130 1 -0.004749 0.00876838 0.009456 0.000233 0 -0.011754 0 2650 
417 1 -0.001923 0.00883438 0.008831 0.000233 0 -0.011754 0 2650 
462 1 -0.013341 0.0110514 0.008656 0.000847 0 -0.011754 0 2650 
45 1 -0.001763 0.00989238 0.008462 0.000847 0 -0.011754 0 2650 
22 1 -0.002569 0.0115234 0.009366 0.000233 0 -0.011754 0 2650 
92 1 -0.012301 0.000376383 0.010509 0.000233 0 -0.011754 0 2650 
420 1 -0.008015 0.000495383 0.010091 0.000847 0 -0.011754 0 2650 
448 1 -0.005395 0.000315383 0.009791 0.000847 0 -0.011754 0 2650 
359 1 -0.001339 0.00214538 0.01073 0.000847 0 -0.011754 0 2650 
372 1 -0.010707 0.00555938 0.010207 0.000847 0 -0.011754 0 2650 
41 1 -0.008377 0.00500338 0.009542 8.4e-05 0 -0.011754 0 2650 
259 1 -0.007193 0.00503538 0.011052 0.000233 0 -0.011754 0 2650 
176 1 -0.003497 0.00702938 0.009518 0.000847 0 -0.011754 0 2650 
321 1 -0.010881 0.00803938 0.010029 0.000847 0 -0.011754 0 2650 
267 1 -0.00832 0.00913738 0.009655 0.000847 0 -0.011754 0 2650 
509 1 -0.001563 0.00842338 0.010036 8.4e-05 0 -0.011754 0 2650 
475 1 -0.007166 0.0116344 0.009694 0.000847 0 -0.011754 0 2650 
178 1 -0.000894 0.0119874 0.009502 0.000847 0 -0.011754 0 2650 
25 1 -0.00368676 0.0331872 0.0108932 0.000233 -0.603031 0.365843 -0.874466 2650 
253 1 -0.005192 0.00110938 0.01204 0.000847 0 -0.011754 0 2650 
205 1 -0.004469 0.00215538 0.012048 0.000233 0 -0.011754 0 2650 
98 1 -0.003605 0.00286638 0.011197 0.000847 0 -0.011754 0 2650 
350 1 -0.001594 0.00316638 0.011915 0.000233 0 -0.011754 0 2650 
219 1 -0.008798 0.00358338 0.011826 0.000233 0 -0.011754 0 2650 
226 1 -0.005007 0.00862638 0.011519 0.000847 0 -0.011754 0 2650 
235 1 -0.00605 0.00949038 0.012276 0.000233 0 -0.011754 0 2650 
518 1 -0.011612 0.00989038 0.01181 0.000233 0 -0.011754 0 2650 
73 1 -0.010447 0.0102294 0.011428 0.000847 0 -0.011754 0 2650 
128 1 -0.003888 0.0103094 0.011415 0.000233 0 -0.011754 0 2650 
291 1 -0.002108 0.0101804 0.011455 0.000847 0 -0.011754 0 2650 
516 1 -0.010492 0.0117644 0.012435 0.000233 0 -0.011754 0 2650 
313 1 -0.004641 0.0129554 0.011299 0.000233 0 -0.011754 0 2650 
307 1 -0.001691 0.000899383 0.013444 0.000847 0 -0.011754 0 2650 
190 1 -0.0064841 0.00330432 0.013388 0.000847 0.0448334 -0.00770187 0.380867 2650 
9 1 -0.003631 0.00477938 0.014194 0.000233 0 -0.011754 0 2650 
55 1 -0.005069 0.00494638 0.013627 0.001312 0 -0.011754 0 2650 
180 1 -0.005697 0.00752938 0.013052 0.000233 0 -0.011754 0 2650 
379 1 -0.006906 0.00954038 0.013866 8.4e-05 0 -0.011754 0 2650 
443 1 -0.004264 0.00900838 0.013262 0.000233 0 -0.011754 0 2650 
192 1 -0.009107 0.0101734 0.013183 0.000233 0 -0.011754 0 2650 
114 1 -0.004861 0.000396383 0.015786 0.000233 0 -0.011754 0 2650 
151 1 -2.7e-05 0.000596383 0.014966 0.000847 0 -0.011754 0 2650 
129 1 -0.005849 0.00307438 0.015158 0.000233 0 -0.011754 0 2650 
451 1 -0.003394 0.00254838 0.014549 0.000847 0 -0.011754 0 2650 
311 1 -0.002572 0.00602838 0.015752 0.000233 0 -0.011754 0 2650 
446 1 -0.000353 0.0123104 0.015695 0.000847 0 -0.011754 0 2650 
327 1 -0.003487 0.00164738 0.015912 8.4e-05 0 -0.011754 0 2650 
461 1 0.00238243 -0.00698695 -0.0351067 0.000847 0.495409 -0.331481 -5.41336 2650 
275 1 0.001505 -0.00288662 -0.015392 8.4e-05 0 -0.011754 0 2650 
247 1 0.004561 -0.00322962 -0.01395 0.000233 0 -0.011754 0 2650 
148 1 0.00235 -0.00267862 -0.013422 0.000847 0 -0.011754 0 2650 
316 1 0.004115 -0.000628617 -0.012961 0.000847 0 -0.011754 0 2650 
169 1 0.005283 -0.00288362 -0.011149 0.000233 0 -0.011754 0 2650 
177 1 0.009488 -0.000599617 -0.012466 0.000847 0 -0.011754 0 2650 
521 1 0.005122 -0.00198762 -0.010965 8.4e-05 0 -0.011754 0 2650 
33 1 0.002964 -0.00132262 -0.010521 0.000847 0 -0.011754 0 2650 
221 1 0.007437 -0.00139962 -0.01046 0.000233 0 -0.011754 0 2650 
424 1 0.008555 -0.000815617 -0.009862 0.000847 0 -0.011754 0 2650 
258 1 4e-05 -0.00223762 -0.009118 0.000233 0 -0.011754 0 2650 
52 1 0.0011 -0.00171162 -0.008092 0.000233 0 -0.011754 0 2650 
344 1 0.005762 -0.00239962 -0.008952 0.000847 0 -0.011754 0 2650 
507 1 0.006098 -0.000736617 -0.008953 0.000233 0 -0.011754 0 2650 
153 1 0.006879 -0.000131617 -0.008106 0.000233 0 -0.011754 0 2650 
465 1 0.007526 -0.00168862 -0.007682 0.000233 0 -0.011754 0 2650 
155 1 0.011525 -0.000831617 -0.007485 0.000233 0 -0.011754 0 2650 
513 1 0.008089 -0.00197662 -0.005467 0.000847 0 -0.011754 0 2650 
121 1 0.012567 -0.00229462 -0.005084 0.001312 0 -0.011754 0 2650 
401 1 0.003573 -3.66172e-05 -0.006008 0.000233 0 -0.011754 0 2650 
197 1 0.009781 -3.06172e-05 -0.005697 8.4e-05 0 -0.011754 0 2650 
358 1 0.003127 -0.00223862 -0.003674 0.000847 0 -0.011754 0 2650 
500 1 0.009232 -0.00276662 -0.003171 0.000847 0 -0.011754 0 2650 
77 1 0.011246 -0.00127062 -0.003727 0.000233 0 -0.011754 0 2650 
408 1 0.006733 -0.00102162 -0.002233 0.000847 0 -0.011754 0 2650 
38 1 0.00778 -8.86172e-05 -0.002565 0.000233 0 -0.011754 0 2650 
346 1 0.008537 -0.00106962 -0.002504 0.000847 0 -0.011754 0 2650 
277 1 0.01119 -0.000843617 -0.002548 0.000847 0 -0.011754 0 2650 
44 1 0.003792 -0.00218862 -0.001327 0.000847 0 -0.011754 0 2650 
280 1 0.000739 -0.00100562 -0.000607 0.000847 0 -0.011754 0 2650 
34 1 0.003518 -0.000512617 -0.001306 0.000847 0 -0.011754 0 2650 
453 1 0.006767 -0.000423617 -0.000527 0.000233 0 -0.011754 0 2650 
120 1 0.000504 -2.06172e-05 0.001386 0.001312 0 -0.011754 0 2650 
317 1 0.007804 -0.00130362 0.000475 0.000847 0 -0.011754 0 2650 
503 1 0.008679 -0.00291362 0.003036 0.000233 0 -0.011754 0 2650 
59 1 0.007537 -0.000369617 0.002449 0.000847 0 -0.011754 0 2650 
322 1 0.012407 -0.000173617 0.002788 0.000233 0 -0.011754 0 2650 
185 1 0.015337 -0.00120262 0.002277 0.001312 0 -0.011754 0 2650 
463 1 0.00585032 -0.00211874 0.00335276 0.000847 0.0245483 -0.086236 -0.0324194 2650 
442 1 0.009405 -0.00325562 0.005014 0.000233 0 -0.011754 0 2650 
458 1 0.00401693 -0.00261945 0.00576463 0.001312 0.00627634 -0.0831058 0.0313618 2650 
473 1 0.007099 -0.00232262 0.006314 0.000847 0 -0.011754 0 2650 
380 1 0.00683377 -1.4544e-05 0.00481944 0.001312 0.226161 -0.0583708 0.0459385 2650 
159 1 0.011381 -0.000566617 0.005461 0.001312 0 -0.011754 0 2650 
415 1 0.00815 -0.00162262 0.007549 0.000233 0 -0.011754 0 2650 
23 1 0.005522 -0.000913617 0.007659 0.000233 0 -0.011754 0 2650 
411 1 0.012543 -0.00204762 0.008869 0.000847 0 -0.011754 0 2650 
138 1 0.010598 -0.000279617 0.009391 0.000847 0 -0.011754 0 2650 
127 1 0.000644 -0.00296662 0.010796 0.000233 0 -0.011754 0 2650 
491 1 0.013292 -0.00194062 0.009834 0.000233 0 -0.011754 0 2650 
21 1 0.002521 -0.000195617 0.011048 0.000847 0 -0.011754 0 2650 
269 1 0.004915 -0.000459617 0.010071 0.000847 0 -0.011754 0 2650 
460 1 0.008163 -0.000952617 0.013538 0.000847 0 -0.011754 0 2650 
102 1 0.005984 -0.000545617 0.015494 0.000233 0 -0.011754 0 2650 
141 1 0.002289 0.000785383 -0.014794 0.000233 0 -0.011754 0 2650 
494 1 0.000265 0.00215938 -0.015557 0.000233 0 -0.011754 0 2650 
357 1 0.002883 0.00393338 -0.015739 0.000847 0 -0.011754 0 2650 
246 1 0.002039 0.00637838 -0.01568 0.000233 0 -0.011754 0 2650 
356 1 0.002168 0.00775438 -0.015265 0.000847 0 -0.011754 0 2650 
94 1 0.002982 0.0125434 -0.014222 0.001312 0 -0.011754 0 2650 
366 1 0.005681 0.0114844 -0.015538 8.4e-05 0 -0.011754 0 2650 
459 1 0.006732 0.000204383 -0.013289 0.000847 0 -0.011754 0 2650 
325 1 0.003329 0.00300138 -0.013357 0.000233 0 -0.011754 0 2650 
28 1 0.007936 0.00209638 -0.012995 8.4e-05 0 -0.011754 0 2650 
228 1 0.006974 0.00327438 -0.013967 0.000847 0 -0.011754 0 2650 
386 1 0.005145 0.00590838 -0.013769 0.000847 0 -0.011754 0 2650 
232 1 0.005544 0.00753438 -0.012719 0.000233 0 -0.011754 0 2650 
342 1 0.00409 0.00991538 -0.013033 0.000847 0 -0.011754 0 2650 
12 1 0.00627 0.0102984 -0.013543 0.000233 0 -0.011754 0 2650 
412 1 0.008048 0.0100414 -0.013895 0.000847 0 -0.011754 0 2650 
207 1 0.007509 0.0127044 -0.013163 0.000233 0 -0.011754 0 2650 
444 1 0.000432 0.0135614 -0.014191 8.4e-05 0 -0.011754 0 2650 
520 1 0.00256 0.000593383 -0.012598 0.000233 0 -0.011754 0 2650 
282 1 0.004347 0.00203138 -0.012194 0.000847 0 -0.011754 0 2650 
362 1 0.011937 0.00202438 -0.011389 0.000233 0 -0.011754 0 2650 
397 1 0.008881 0.00423238 -0.01259 0.000847 0 -0.011754 0 2650 
404 1 0.009844 0.00684138 -0.011142 0.000233 0 -0.011754 0 2650 
109 1 0.005483 0.0103774 -0.011097 0.000847 0 -0.011754 0 2650 
126 1 0.006712 0.00963138 -0.011994 0.000847 0 -0.011754 0 2650 
212 1 0.003265 0.0114574 -0.011183 0.001312 0 -0.011754 0 2650 
273 1 0.000843 0.0132634 -0.012177 0.000233 0 -0.011754 0 2650 
290 1 0.005085 0.000579383 -0.010718 0.000847 0 -0.011754 0 2650 
110 1 0.009756 0.00336538 -0.0108 0.000847 0 -0.011754 0 2650 
522 1 0.00679 0.00532938 -0.01028 8.4e-05 0 -0.011754 0 2650 
157 1 0.006689 0.00593638 -0.009595 0.000233 0 -0.011754 0 2650 
144 1 0.000616 0.00697638 -0.009639 0.000233 0 -0.011754 0 2650 
91 1 0.000697 0.00662938 -0.0107 0.000233 0 -0.011754 0 2650 
287 1 0.001484 0.00662538 -0.009925 0.000233 0 -0.011754 0 2650 
139 1 0.002959 0.00664538 -0.010276 0.000847 0 -0.011754 0 2650 
276 1 0.007761 0.00750338 -0.010843 0.001312 0 -0.011754 0 2650 
210 1 0.011955 0.00818238 -0.010104 8.4e-05 0 -0.011754 0 2650 
405 1 0.001255 0.0102594 -0.009572 8.4e-05 0 -0.011754 0 2650 
305 1 0.00085 0.000988383 -0.00923 0.000847 0 -0.011754 0 2650 
330 1 0.001472 0.00262038 -0.007973 0.000847 0 -0.011754 0 2650 
134 1 0.007876 0.00315738 -0.008855 0.001312 0 -0.011754 0 2650 
437 1 0.003212 0.00423138 -0.009027 0.000847 0 -0.011754 0 2650 
389 1 0.011221 0.00337638 -0.009451 0.000233 0 -0.011754 0 2650 
447 1 0.010065 0.00547838 -0.009246 0.000847 0 -0.011754 0 2650 
371 1 0.013422 0.00535538 -0.007968 0.000847 0 -0.011754 0 2650 
215 1 0.002334 0.00656138 -0.008528 0.000847 0 -0.011754 0 2650 
493 1 0.001242 0.00800438 -0.008712 0.000233 0 -0.011754 0 2650 
163 1 0.01055 0.00845738 -0.008139 0.000847 0 -0.011754 0 2650 
337 1 0.011824 0.00811938 -0.009451 0.000233 0 -0.011754 0 2650 
5 1 0.005292 0.0104614 -0.008353 0.000847 0 -0.011754 0 2650 
154 1 0.012406 0.0111354 -0.008801 0.000233 0 -0.011754 0 2650 
502 1 0.012627 0.0125524 -0.008633 0.000847 0 -0.011754 0 2650 
326 1 0.013418 0.00204538 -0.00674 0.000233 0 -0.011754 0 2650 
202 1 0.008441 0.00410838 -0.006807 0.000847 0 -0.011754 0 2650 
93 1 0.010123 0.00382038 -0.007598 8.4e-05 0 -0.011754 0 2650 
217 1 0.004394 0.00633438 -0.007645 0.000847 0 -0.011754 0 2650 
67 1 0.006032 0.00577538 -0.007165 8.4e-05 0 -0.011754 0 2650 
394 1 0.006286 0.00494138 -0.006456 0.000847 0 -0.011754 0 2650 
14 1 0.006783 0.00775838 -0.007807 8.4e-05 0 -0.011754 0 2650 
416 1 0.010622 0.0109754 -0.006503 0.000233 0 -0.011754 0 2650 
510 1 0.013785 0.0100194 -0.007094 0.001312 0 -0.011754 0 2650 
400 1 0.008609 0.0135164 -0.006808 0.000233 0 -0.011754 0 2650 
339 1 0.001696 0.00275738 -0.005869 0.000233 0 -0.011754 0 2650 
489 1 0.00058 0.00400338 -0.006228 0.000847 0 -0.011754 0 2650 
495 1 0.0113707 0.0061417 -0.00473866 0.000233 -0.53609 0.0718484 0.417614 2650 
250 1 0.00222583 0.00686352 -0.00535652 0.001312 0.111791 -0.026892 -0.0197781 2650 
108 1 0.007094 0.00788138 -0.006113 0.001312 0 -0.011754 0 2650 
39 1 0.012691 0.00818738 -0.00605 0.000233 0 -0.011754 0 2650 
30 1 0.004818 0.0119794 -0.00592 0.001312 0 -0.011754 0 2650 
506 1 0.009593 0.0119684 -0.005756 0.000233 0 -0.011754 0 2650 
377 1 0.002656 0.0133624 -0.00627 0.000233 0 -0.011754 0 2650 
410 1 0.007024 0.000766383 -0.004117 0.000847 0 -0.011754 0 2650 
297 1 0.009274 0.00119538 -0.004716 0.000233 0 -0.011754 0 2650 
7 1 0.012664 0.000746383 -0.003664 0.000847 0 -0.011754 0 2650 
284 1 0.009022 0.00250838 -0.00365 0.000233 0 -0.011754 0 2650 
225 1 0.003648 0.00360438 -0.003983 0.001312 0 -0.011754 0 2650 
496 1 0.007831 0.00379338 -0.004076 8.4e-05 0 -0.011754 0 2650 
187 1 0.010192 0.00416438 -0.003969 0.000847 0 -0.011754 0 2650 
413 1 0.002052 0.00516638 -0.004189 0.000233 0 -0.011754 0 2650 
81 1 0.00616 0.00653138 -0.003369 0.001312 0 -0.011754 0 2650 
227 1 0.012657 0.00703038 -0.003684 0.000847 0 -0.011754 0 2650 
74 1 0.008324 0.00871738 -0.003253 0.000847 0 -0.011754 0 2650 
398 1 0.013722 0.00936538 -0.003791 0.000847 0 -0.011754 0 2650 
354 1 0.002983 0.0101064 -0.004225 0.001312 0 -0.011754 0 2650 
27 1 0.00966 0.0115324 -0.004536 8.4e-05 0 -0.011754 0 2650 
105 1 0.00021 0.0130124 -0.003991 0.000233 0 -0.011754 0 2650 
292 1 0.007808 0.0131114 -0.004111 0.000847 0 -0.011754 0 2650 
268 1 0.01133 0.00281738 -0.00248 0.000847 0 -0.011754 0 2650 
370 1 0.014246 0.00253638 -0.002322 0.000847 0 -0.011754 0 2650 
477 1 0.000187 0.00390438 -0.00227 0.000233 0 -0.011754 0 2650 
485 1 0.008368 0.00566238 -0.002132 0.000847 0 -0.011754 0 2650 
438 1 0.01318 0.00612638 -0.001645 0.000847 0 -0.011754 0 2650 
142 1 0.000422 0.00673438 -0.00166 0.000233 0 -0.011754 0 2650 
515 1 0.00215784 0.00780849 -0.00273495 0.000847 0.213873 0.00953739 0.0592124 2650 
183 1 0.00427331 0.00665295 -0.00214116 0.000233 0.163962 -0.0217896 -0.253022 2650 
492 1 0.009114 0.00722538 -0.002429 0.000233 0 -0.011754 0 2650 
11 1 0.015764 0.00688138 -0.002545 0.000233 0 -0.011754 0 2650 
270 1 0.004392 0.0105924 -0.003033 0.000233 0 -0.011754 0 2650 
80 1 0.000184 0.0129874 -0.002772 8.4e-05 0 -0.011754 0 2650 
363 1 0.013993 0.0130374 -0.001599 0.000233 0 -0.011754 0 2650 
454 1 0.009343 0.000275383 -0.001501 0.000233 0 -0.011754 0 2650 
208 1 0.00459548 0.00199404 -0.00124562 0.000233 0.384143 -0.296088 -0.0346504 2650 
35 1 0.01273 0.00407838 -0.000866 0.000847 0 -0.011754 0 2650 
71 1 0.000390713 0.00485408 -0.00155172 0.000847 0.173718 0.101561 -0.100389 2650 
393 1 0.00516398 0.00628688 -0.00078546 0.001312 0.00134044 -0.0120934 0.00104048 2650 
423 1 0.00114953 0.00773721 -0.000578738 0.000847 0.0308065 -0.0187423 -0.0404408 2650 
310 1 0.00501 0.00791438 -0.001334 0.000233 0 -0.011754 0 2650 
351 1 0.000422 0.00945238 -0.00156 0.000233 0 -0.011754 0 2650 
17 1 0.00408 0.0102204 -0.000778 0.000847 0 -0.011754 0 2650 
430 1 0.012051 0.0106704 -0.000431 0.000233 0 -0.011754 0 2650 
511 1 0.014639 0.0119504 -0.000933 0.000847 0 -0.011754 0 2650 
103 1 0.005836 0.0132854 -0.000854 0.000233 0 -0.011754 0 2650 
240 1 0.00372232 0.0210148 -0.000978507 0.000847 0.388778 0.549948 -0.0892929 2650 
434 1 0.002752 0.000430383 0.000852 0.000847 0 -0.011754 0 2650 
193 1 0.00139669 0.00231713 0.00139367 0.000233 0.0649732 -0.0302237 -0.0201647 2650 
396 1 0.005166 0.00237938 0.00144 0.000847 0 -0.011754 0 2650 
99 1 0.00754576 0.00202815 0.000866751 0.000847 0.0524835 0.0138684 -0.0591972 2650 
427 1 0.01258 0.00305438 0.000348 0.000233 0 -0.011754 0 2650 
123 1 0.013662 0.00232238 0.000693 0.000847 0 -0.011754 0 2650 
480 1 0.00564 0.00326138 0.00063 0.000233 0 -0.011754 0 2650 
165 1 0.01405 0.00407638 0.000678 0.000847 0 -0.011754 0 2650 
220 1 0.004447 0.00535638 0.000291 0.000233 0 -0.011754 0 2650 
58 1 0.00343339 0.00747257 0.00118569 0.000847 0.00903336 -0.00877678 -0.0400819 2650 
122 1 0.009753 0.00663038 0.000953 0.000847 0 -0.011754 0 2650 
403 1 0.007807 0.00846238 0.000492 0.000233 0 -0.011754 0 2650 
472 1 0.012143 0.00939738 0.001212 0.000847 0 -0.011754 0 2650 
8 1 0.006698 0.0119764 0.001482 0.000233 0 -0.011754 0 2650 
433 1 0.00652622 0.00134645 0.00229768 0.000847 0.0588206 -0.00608394 -0.0316698 2650 