ITEM: TIMESTEP
11730450
ITEM: NUMBER OF ATOMS
512
ITEM: BOX BOUNDS ff ff ff
-0.15 0.15
-0.15 0.15
-0.15 0.15
ITEM: ATOMS id type x y z radius vx vy vz density 
297 1 -0.000667213 -0.0279776 -0.0687601 0.000233 -8.85355 0.154858 0.0898641 2650 
349 1 -0.000494411 -0.0215511 -0.0687715 0.000233 -6.96071 0.914685 0.0514058 2650 
431 1 -0.0010032 -0.00451568 -0.0689064 8.4e-05 -10.3462 -0.544555 0.149505 2650 
197 1 -0.0121894 -0.0422013 -0.067835 8.4e-05 -7.27516 0.984328 1.29566 2650 
420 1 -0.0135422 -0.0375501 -0.0667971 0.000847 -7.99194 -0.568471 1.6864 2650 
486 1 -0.010475 -0.0322415 -0.0673446 0.000847 -7.48943 -0.0186674 1.17477 2650 
46 1 -0.00839069 -0.028794 -0.0676362 0.000847 -7.48805 0.0375985 0.923405 2650 
327 1 -0.0161265 -0.0262404 -0.0670004 8.4e-05 -7.62913 -0.0575285 1.83314 2650 
485 1 -0.00865821 -0.0246946 -0.0676051 0.000847 -8.00283 -0.445334 1.01642 2650 
129 1 -0.0176487 -0.00574466 -0.0664627 0.000233 -6.8066 0.0281989 1.79476 2650 
193 1 -0.0239955 -0.0223706 -0.0644423 0.000233 -8.31442 -0.263476 3.06588 2650 
247 1 -0.0236349 -0.0210893 -0.0645773 0.000233 -8.34437 0.192564 3.06114 2650 
230 1 -0.0287099 -0.0422455 -0.0618151 0.000847 -7.4417 -0.828425 3.44854 2650 
93 1 -0.0358257 -0.0115295 -0.0588789 8.4e-05 -3.29301 -0.203194 1.96499 2650 
28 1 -0.0361746 -0.00985394 -0.0586622 8.4e-05 -6.17166 0.0573909 3.81598 2650 
341 1 -0.0478594 -0.0544139 -0.0478822 0.001312 -6.97439 -0.0153907 6.96365 2650 
453 1 -0.0551853 -0.0478944 -0.0409936 0.000233 -4.52814 0.226614 6.10616 2650 
346 1 -0.0556913 -0.0574008 -0.039278 0.000847 -5.52335 -0.00209879 7.86101 2650 
506 1 -0.0573927 -0.00343652 -0.0378781 0.000233 -2.79923 0.38383 4.24344 2650 
70 1 -0.0574449 -0.00469339 -0.0366769 0.000847 -2.56256 -0.308438 4.10787 2650 
335 1 -0.0587809 -0.03025 -0.0356885 0.000233 -4.54301 0.31641 7.48458 2650 
219 1 -0.0617716 -0.00583334 -0.0302167 0.000233 -2.2627 -0.304282 4.56281 2650 
101 1 -0.061534 -0.00516799 -0.0306981 0.000233 -3.75002 -0.00893555 7.49374 2650 
519 1 -0.0639437 -0.0370161 -0.0252993 0.000233 -3.21562 0.746705 8.12174 2650 
454 1 -0.0634787 -0.015346 -0.0264542 0.000233 -3.00521 -0.155897 7.23743 2650 
236 1 -0.0638725 -0.000896637 -0.0258746 8.4e-05 -2.18489 -0.155877 5.4825 2650 
208 1 -0.0655881 -0.0294441 -0.0206593 0.000233 -2.8288 -0.238555 8.96698 2650 
249 1 -0.0657603 -0.0151495 -0.0206543 8.4e-05 -2.08079 -0.043501 6.65692 2650 
150 1 -0.0652333 -0.0387139 -0.0197608 0.000847 -2.78102 -0.0196521 9.16577 2650 
175 1 -0.065056 -0.0308163 -0.0203459 0.000847 -2.84942 0.163966 9.0517 2650 
221 1 -0.0669568 -0.0393498 -0.0156936 0.000233 -1.84761 0.314138 7.88892 2650 
33 1 -0.0665074 -0.0320525 -0.0148951 0.000847 -2.08452 0.0169744 9.44089 2650 
110 1 -0.0663642 -0.0117519 -0.015583 0.000847 -1.46871 0.0169011 6.14259 2650 
286 1 -0.0670187 -0.00508707 -0.0154005 0.000233 -1.88842 0.682188 8.22224 2650 
395 1 -0.000624686 -0.000293852 -0.0157251 0.000847 0.00509824 -0.00223179 0.00216209 2650 
148 1 -0.0667934 -0.0383447 -0.013573 0.000847 -1.91841 -0.073614 9.55355 2650 
339 1 -0.067388 -0.00541557 -0.0136963 0.000233 -1.50462 0.127334 7.42747 2650 
343 1 -0.00378154 -0.00087206 -0.0129815 0.000847 -0.000529442 -0.0155455 -0.00596942 2650 
95 1 -0.00739174 -0.00171221 -0.011427 0.001312 0.00626132 -0.0157819 -0.00640658 2650 
307 1 -0.000575895 -0.0031163 -0.011351 0.000847 0.0034335 -0.0226868 -0.0341239 2650 
233 1 -0.006747 -0.00066995 -0.01241 0.000233 0 -0.011754 0 2650 
435 1 -0.00554199 -0.000607476 -0.0116672 0.000847 0.000158108 -0.0131921 -0.00302718 2650 
271 1 -0.005149 -0.00229995 -0.010304 0.000233 0 -0.011754 0 2650 
452 1 -0.068255 -0.0424322 -0.00847036 0.000233 -1.17234 -0.317785 9.37522 2650 
455 1 -0.006244 -0.00240095 -0.008207 0.000233 0 -0.011754 0 2650 
169 1 -0.068372 -0.0371515 -0.00735858 0.000233 -1.05889 -0.00886232 9.81099 2650 
136 1 -0.003358 -0.00249695 -0.00699 0.000847 0 -0.011754 0 2650 
464 1 -0.00727167 -0.000189133 -0.00747684 0.000233 -0.0152891 -0.01779 0.00692096 2650 
324 1 -0.004804 -0.00156095 -0.006739 0.000233 0 -0.011754 0 2650 
181 1 -0.0685876 -0.0394734 -0.00501401 0.000233 -0.618877 0.517711 8.38274 2650 
96 1 -0.00921431 -0.00327857 -0.00530954 0.000847 -0.0112152 -0.0118211 0.00254998 2650 
312 1 -0.015447 -0.00226256 -0.00487141 0.000233 0.00927713 -0.0057832 0.00255888 2650 
60 1 -0.00520033 -0.00294375 -0.00616221 0.000847 0.00106255 -0.0105919 0.00250215 2650 
231 1 -0.0686585 -0.00936319 -0.00396131 0.000233 -0.395349 -0.0113313 7.06121 2650 
229 1 -0.0156158 -0.00271345 -0.00370889 0.000847 -0.000334752 -0.0118752 0.000605801 2650 
289 1 -0.0144348 -0.000744423 -0.00434751 0.001312 -0.00237187 -0.00296975 0.0253376 2650 
466 1 -0.0156971 -0.000943593 -0.00344747 0.000233 -0.0144261 -0.0125796 0.0130819 2650 
124 1 -0.0680939 -0.056571 -0.00290921 0.000847 -0.447215 -0.206843 9.91083 2650 
478 1 -0.0138462 -0.000989584 -0.00207343 0.000233 -0.00975827 -0.0129389 0.00383787 2650 
52 1 -0.0687656 -0.0318689 -0.000342759 0.000233 -0.0521038 0.158425 7.94701 2650 
267 1 -0.0681479 -0.026015 -0.000434205 0.000847 -0.0512151 -1.15136 3.43382 2650 
118 1 -0.0687636 -0.00422658 2.45343e-05 0.000233 -0.000401922 0.0419989 7.27163 2650 
505 1 -0.0140021 -0.00161169 0.00117586 0.000233 0.00285664 -0.0078408 0.00672909 2650 
135 1 -0.0121561 -0.00190366 0.00129281 0.000847 -0.0116394 -0.014915 -0.0125275 2650 
201 1 -0.00987532 -0.00276841 0.000172664 0.000847 -0.014615 -0.013276 0.00559986 2650 
373 1 -0.0150964 -0.00130828 0.000947515 0.000847 -0.000147543 -0.0116812 1.40487e-05 2650 
364 1 -0.0139 -0.00310195 0.002152 0.000233 0 -0.011754 0 2650 
402 1 -0.0158104 -0.00323121 0.00408225 0.000233 0.00813612 -0.00872053 0.0304283 2650 
421 1 -0.0678301 -0.0401162 0.00630345 0.000847 0.876423 0.0616935 9.70905 2650 
253 1 -0.0679369 -0.030383 0.00545914 0.000847 0.729994 -0.052624 9.51198 2650 
88 1 -0.010473 -1.29498e-05 0.008034 0.000233 0 -0.011754 0 2650 
491 1 -0.0680048 -0.0111016 0.00977431 0.000233 1.27663 -0.0375193 8.33024 2650 
509 1 -0.001563 -0.00015695 0.010036 8.4e-05 0 -0.011754 0 2650 
277 1 -0.00853166 -0.0001029 0.0134287 0.000847 -0.0196169 -0.00223957 -0.0183065 2650 
350 1 -0.0670034 -0.0562453 0.0154684 0.000233 1.50208 0.586381 6.41724 2650 
340 1 -0.066989 -0.0137477 0.0161771 8.4e-05 1.23844 0.0459435 5.15837 2650 
500 1 -0.0649455 -0.0473727 0.0206948 0.000847 2.87762 0.104327 9.08027 2650 
44 1 -0.0644201 -0.0351448 0.0222545 0.000847 3.22013 -0.0905833 9.28098 2650 
311 1 -0.0144862 -0.0064447 0.0228655 0.000233 -1.81477 -0.418077 2.84104 2650 
308 1 -0.0636888 -0.0371439 0.0242684 0.000847 3.4622 -0.0828936 9.02421 2650 
205 1 -0.0630389 -0.0251373 0.0274776 0.000233 3.17645 0.120333 7.31209 2650 
290 1 -0.0607325 -0.0374514 0.0309356 0.000847 4.40143 -0.0802755 8.64586 2650 
347 1 -0.060963 -0.0319592 0.0304721 0.000847 3.98766 -0.00194639 7.91069 2650 
269 1 -0.0580508 -0.0362367 0.0357107 0.000847 5.10833 -0.00703815 8.30111 2650 
461 1 -0.0554385 -0.0367467 0.0396482 0.000847 5.68117 -0.00142487 7.95145 2650 
494 1 -0.0514074 -0.0051863 0.0412959 0.000233 3.20438 -0.0786755 1.56769 2650 
424 1 -0.0509674 -0.048621 0.0452606 0.000847 6.39521 -0.0772571 7.20394 2650 
460 1 -0.0512736 -0.046537 0.044915 0.000847 6.34892 -0.00276978 7.2431 2650 
78 1 -0.0496018 -0.0461042 0.0476334 0.000233 6.12155 0.99248 6.38499 2650 
239 1 -0.0472518 -0.0477021 0.0491187 0.000847 6.99573 -0.0787317 6.72156 2650 
20 1 -0.0446455 -0.0331725 0.0514988 0.000847 7.25574 -0.066829 6.29458 2650 
162 1 -0.0425071 -0.0478765 0.0532302 0.000847 7.67182 -0.057488 6.14706 2650 
171 1 -0.0398258 -0.0159606 0.0562434 8.4e-05 6.1766 0.831014 4.37308 2650 
480 1 -0.0392139 -0.00422841 0.056489 0.000233 5.60052 -0.166062 3.89871 2650 
259 1 -0.0208118 -0.0182455 0.059572 0.000233 7.29094 -1.06464 2.71989 2650 
520 1 -0.0312115 -0.0334051 0.0612721 0.000233 8.7043 0.369707 4.43544 2650 
337 1 -0.0260306 -0.0221943 0.063656 0.000233 9.1176 0.307583 3.7313 2650 
448 1 -0.0221496 -0.0160472 0.0644733 0.000847 8.23323 0.00995519 2.85352 2650 
243 1 -0.0164897 -0.0618727 0.0661316 0.000847 9.85562 0.0374608 2.45621 2650 
47 1 -0.0205831 -0.0340826 0.0649702 0.000847 9.09899 -0.00610596 2.86578 2650 
18 1 -0.0158805 -0.0202277 0.0662898 0.000847 8.34347 0.0501227 2.00978 2650 
306 1 -0.0206627 -0.0149872 0.0649649 0.000847 6.10095 -0.512793 1.95734 2650 
53 1 -0.0229579 -0.00486692 0.0648206 0.000233 7.14815 -0.139724 2.53113 2650 
41 1 -0.0224063 -0.00491065 0.0651692 8.4e-05 3.08832 -0.0941333 1.0273 2650 
513 1 -0.0090038 -0.0256785 0.0675594 0.000847 9.63645 -0.0379367 1.27227 2650 
24 1 -0.0138254 -0.0170313 0.0673745 0.000233 7.34818 -0.688084 1.51991 2650 
409 1 -0.00249059 -0.0495092 0.068111 0.000847 9.70465 -0.0436348 0.34655 2650 
59 1 -0.00528539 -0.042889 0.0679528 0.000847 9.61291 -0.0536239 0.733966 2650 
507 1 -0.00827893 -0.0260631 0.0682646 0.000233 9.86039 -0.376595 1.08397 2650 
111 1 -0.00507464 -0.0199027 0.067967 0.000847 7.90983 -0.0485087 0.588256 2650 
151 1 -0.00126832 -0.0171698 0.0681446 0.000847 8.46507 -0.0713969 0.137335 2650 
180 1 -0.0049918 -0.0149145 0.0685857 0.000233 8.36408 -0.0964094 0.614428 2650 
161 1 -0.000982363 -0.0139576 0.0681489 0.000847 8.35677 0.077705 0.115762 2650 
114 1 -0.00812323 -0.00519725 0.0682847 0.000233 7.7523 -0.684345 0.911504 2650 
323 1 -0.00185977 -0.00196066 0.0687412 0.000233 3.81801 -0.00673113 0.0903497 2650 
106 1 -0.00132702 -0.000765093 0.0689026 8.4e-05 5.32417 0.0197072 0.0754489 2650 
357 1 -0.00212674 0.00600635 -0.0158332 0.000847 -0.00356262 0.00740695 0.00116372 2650 
192 1 -0.00414019 0.0356461 -0.0160593 0.000233 0.0840085 0.0678586 -0.0208861 2650 
37 1 -0.00774261 0.00131256 -0.0143055 0.000233 -0.00695053 -0.00857541 -0.00241893 2650 
49 1 -0.00629968 0.000198631 -0.0153772 0.000233 0.000106574 -0.0128613 -0.00409759 2650 
163 1 -0.00473942 0.0010104 -0.015132 0.000847 -0.0149605 -0.00356048 -0.0150295 2650 
282 1 -0.0037291 0.00313041 -0.0154891 0.000847 -0.014677 0.0031843 0.00188994 2650 
309 1 -0.005736 0.00402305 -0.014845 0.000233 0 -0.011754 0 2650 
501 1 -0.00416361 0.00471303 -0.0147982 0.000847 -0.00781369 0.00426067 0.00525667 2650 
76 1 -0.0034473 0.00687688 -0.0156807 0.000233 -0.00578221 0.011958 0.00483197 2650 
444 1 -0.00401913 0.00678529 -0.0149877 8.4e-05 -0.0133988 -0.00632289 -0.00239831 2650 
439 1 -0.00864271 0.01292 -0.0142112 0.000233 -0.00415024 -0.00250081 0.0137068 2650 
502 1 -0.00401836 0.0166192 -0.0148213 0.000847 -0.0304104 0.00896532 0.0113185 2650 
15 1 -0.00626956 0.0182257 -0.0143666 0.001312 -0.00262066 0.0230218 0.00977891 2650 
16 1 -0.00235575 0.0215427 -0.0149069 0.001312 -0.0061202 0.041817 -0.00207026 2650 
36 1 -0.008519 0.00056705 -0.013643 0.000233 0 -0.011754 0 2650 
68 1 -0.00647413 0.000614005 -0.0137587 0.001312 -0.010553 -0.0141317 0.00210865 2650 
248 1 -0.00754433 0.00103773 -0.0126889 0.000233 -0.00508287 -0.00149359 0.010173 2650 
91 1 -0.00431891 0.00831432 -0.0139919 0.000233 -0.0216494 0.0342111 -0.0121348 2650 
503 1 -0.00313448 0.0140438 -0.0131978 0.000233 -0.0202763 0.0321153 0.0393148 2650 
51 1 -0.010814 0.000808669 -0.0111851 0.000233 -0.00464275 -0.0134134 0.00370658 2650 
224 1 -0.000139529 0.000532843 -0.0126269 0.001312 0.00455813 -0.0042618 -9.0707e-06 2650 
512 1 -0.0076609 0.00194213 -0.0115351 0.000847 -0.00165233 -0.00903093 -0.00358704 2650 
94 1 -0.00252492 0.00706367 -0.0118005 0.001312 -0.0121115 -0.00234753 0.00842502 2650 
386 1 -0.000236237 0.00641411 -0.0123751 0.000847 -0.00923714 0.00439228 0.00327807 2650 
177 1 -0.00551605 0.0120182 -0.0114412 0.000847 -0.0158662 0.0224384 0.00594267 2650 
13 1 -0.012448 0.00148005 -0.010914 8.4e-05 0 -0.011754 0 2650 
266 1 -0.00804713 0.000649671 -0.00990756 0.000847 0.0382179 0.0365751 0.0050299 2650 
216 1 -0.00565821 0.000439636 -0.0101904 0.000847 -0.00541352 -0.0134579 -0.000619005 2650 
69 1 -0.00976487 0.00191703 -0.010786 0.001312 -0.00192864 -0.011428 0.000163063 2650 
326 1 -0.0076645 0.00298783 -0.00960694 0.000233 0.0662377 -0.00669336 -0.0168541 2650 
209 1 -0.001802 0.00289905 -0.011003 0.000233 0 -0.011754 0 2650 
348 1 -0.01129 0.00391016 -0.0101047 0.000233 0.00197476 0.00400553 -0.019594 2650 
392 1 -0.00639051 0.00330253 -0.0103802 8.4e-05 -0.00659757 -0.0083595 -0.00212575 2650 
198 1 -0.0112481 0.00732844 -0.0104679 0.001312 -0.00588684 -0.00188959 0.0126317 2650 
391 1 -0.00581843 0.0130225 -0.0102981 0.000233 -0.0185168 0.0226742 0.0109675 2650 
222 1 -0.00148834 0.0262964 -0.0095967 0.000233 -0.0191158 0.00902985 0.033076 2650 
213 1 -0.00558892 0.0307749 -0.0104987 0.000847 -0.0276122 0.0115162 0.0273764 2650 
72 1 -0.00852113 0.0412168 -0.0108826 0.000847 0.00694298 0.0370303 0.0147661 2650 
283 1 -0.00759978 0.000934123 -0.00837797 0.000233 -0.000941009 -0.0093883 -0.043378 2650 
133 1 -0.00289055 0.000981539 -0.00819369 0.001312 -5.35696e-05 -0.00178399 0.00384313 2650 
332 1 -0.0132573 0.00421142 -0.00868739 0.000847 -2.59197e-05 -0.0117517 -8.4822e-06 2650 
2 1 -0.00905166 0.00599301 -0.00886059 0.001312 0.00799475 -0.00256919 -0.00928522 2650 
115 1 -0.0103079 0.0112401 -0.00907747 0.000233 0.00266554 0.00695627 -0.0116789 2650 
153 1 -0.0135633 0.0162712 -0.00911791 0.000233 -0.0209882 0.0228479 0.0284019 2650 
385 1 -0.0132644 0.0236102 -0.00888075 0.000847 0.0190074 0.0467605 -0.0488088 2650 
482 1 -0.0135961 0.0368731 -0.00836279 0.000233 -0.0162757 0.0437947 0.00434421 2650 
66 1 -0.0137001 0.0370982 -0.0089052 0.000233 0.00347261 0.0341619 0.00411013 2650 
158 1 -0.012067 0.00566492 -0.0074548 8.4e-05 0.00188877 -0.00284778 0.00557992 2650 
147 1 -0.00562962 0.00482262 -0.0075757 0.001312 -0.00155224 -0.00287693 0.000873515 2650 
225 1 -0.00240823 0.00491565 -0.00670472 0.001312 -0.00827554 0.00361331 -0.0109409 2650 
5 1 -0.00664297 0.00780782 -0.00697188 0.000847 -0.0499625 0.0130568 0.00578158 2650 
7 1 -0.0107929 0.0160088 -0.00694407 0.000847 -0.0308308 0.0234837 0.00263646 2650 
331 1 -0.0103752 0.0188857 -0.00668392 0.000847 0.0094052 0.0213481 -0.00684148 2650 
388 1 -0.014866 0.020861 -0.00761647 0.000233 -0.0333452 0.016054 0.0620473 2650 
77 1 -0.000444464 0.0239154 -0.00669018 0.000233 -0.0320958 0.0275881 -0.0145233 2650 
262 1 -0.0122778 0.0287215 -0.00665425 8.4e-05 -0.00568771 0.047836 0.0275692 2650 
237 1 -0.00680085 0.00291924 -0.00606954 0.001312 -0.0166288 -0.00194159 -0.00249817 2650 
407 1 -0.00292046 0.00211682 -0.00627687 0.000847 0.00194491 0.000314244 0.00347809 2650 
399 1 -0.0134862 0.0114161 -0.00499106 0.000847 0.00722196 0.0151601 -0.0170469 2650 
430 1 -0.0156443 0.0320187 -0.00551574 0.000233 0.0250923 0.0172681 -0.0594412 2650 
365 1 -0.00958557 0.0593681 -0.00514721 0.000233 0.0250435 0.0581581 -0.0310905 2650 
29 1 -0.00838926 0.00518364 -0.0043682 0.001312 0.0120971 0.0295482 0.029172 2650 
149 1 -0.00956574 0.00979468 -0.00396175 0.000847 0.00533574 0.00120564 0.000572163 2650 
204 1 -0.00980993 0.0130664 -0.00320504 0.000847 -0.0114452 0.0176588 -0.00542553 2650 
199 1 -0.00814187 0.0151566 -0.00384664 0.001312 -0.0103537 0.0171071 0.00139583 2650 
145 1 -0.00916935 0.000103626 -0.00206576 8.4e-05 -0.00610476 -0.0203259 0.00433871 2650 
245 1 -0.015895 0.00292305 -0.001607 0.000233 0 -0.011754 0 2650 
467 1 -0.0108317 0.00266099 -0.0029267 0.000233 -0.0114317 0.00391679 0.0097834 2650 
17 1 -0.000313359 0.00556796 -0.00306901 0.000847 -0.00613659 -0.00626755 -0.00320005 2650 
121 1 -0.0149418 0.00769639 -0.00201075 0.001312 -0.0187052 0.00714266 -0.00182385 2650 
79 1 -0.00926276 0.00768907 -0.00268713 0.000233 0.000840897 0.0441412 0.0394647 2650 
217 1 -0.00731425 0.0150981 -0.00177695 0.000847 -0.0204195 0.0361096 -0.00742728 2650 
31 1 -0.0154294 0.0171987 -0.00268883 0.000847 0.0128996 0.0556905 -0.00624527 2650 
450 1 -0.0142102 0.0012142 -0.00112227 0.000847 0.00641623 -0.0164246 -0.0168861 2650 
164 1 -0.00921596 0.001668 -0.00141895 0.000847 0.00171122 0.000309802 0.036423 2650 
345 1 -0.00726456 0.00257722 -0.000778166 0.000847 0.0102698 0.00604929 0.00457735 2650 
75 1 -0.004976 0.00245705 -0.001105 0.000233 0 -0.011754 0 2650 
301 1 -0.00212451 0.00457435 -0.000422441 8.4e-05 -0.00542456 -0.000958437 0.00851575 2650 
112 1 -0.00924784 0.0050576 -0.00153763 0.000847 0.00071367 0.0206107 0.0385939 2650 
440 1 -0.0132433 0.000308327 0.00121687 0.000233 0.00640272 0.00324748 -0.00679238 2650 
168 1 -0.0118141 0.00327699 0.000474696 0.000233 -0.00202632 0.00526207 0.00695314 2650 
186 1 -0.0152543 0.00582061 0.000136623 0.001312 0.00638033 -0.00658085 0.0058231 2650 
226 1 -0.00537777 0.0103566 0.000655557 0.000847 -0.00463738 0.0059495 -0.00165193 2650 
137 1 -0.010706 0.0323005 0.000289851 0.000847 0.0204383 0.0331061 0.00315705 2650 
242 1 -0.010702 0.00153805 0.00289 0.000847 0 -0.011754 0 2650 
174 1 -0.001898 0.00147005 0.003155 0.000847 0 -0.011754 0 2650 
355 1 -0.0156103 0.00209258 0.00173561 0.000847 0.00229314 -0.0225645 -0.00704703 2650 
376 1 -0.005395 0.00194705 0.002758 0.000233 0 -0.011754 0 2650 
451 1 -0.0154 0.00627176 0.00299568 0.000847 0.0101904 0.00372082 0.00845253 2650 
285 1 -0.00232657 0.012308 0.0030522 0.000233 0.00777784 0.0141206 0.0186362 2650 
214 1 -0.0124008 0.0149225 0.00300829 0.000847 -0.0228514 0.0189936 0.0149774 2650 
131 1 -0.009967 0.00179705 0.004313 0.000233 0 -0.011754 0 2650 
206 1 -0.000698958 0.00261925 0.00326178 0.000233 0.000200844 -0.0022057 -0.0101649 2650 
470 1 -0.008539 0.00469505 0.004033 8.4e-05 0 -0.011754 0 2650 
374 1 -0.006913 0.00460205 0.00361 0.000233 0 -0.011754 0 2650 
296 1 -0.002285 0.00363605 0.004233 0.000233 0 -0.011754 0 2650 
156 1 -0.0149111 0.00727232 0.00328668 0.000233 0.00575648 0.00184986 -0.00522049 2650 
515 1 -0.00650069 0.00981947 0.00348487 0.000847 -0.0331335 0.000695793 0.00327395 2650 
178 1 -0.00328767 0.0132602 0.00384747 0.000847 -0.00942264 0.0138974 -0.0144999 2650 
475 1 -0.000987908 0.0216981 0.00332729 0.000847 0.0113347 0.0382603 -0.00647579 2650 
188 1 -0.00138659 0.0336767 0.00360018 0.000847 0.00721131 0.0301563 0.00476899 2650 
223 1 -0.014414 0.00108905 0.005039 8.4e-05 0 -0.011754 0 2650 
56 1 -0.011864 0.00044705 0.004858 0.001312 0 -0.011754 0 2650 
469 1 -0.012765 0.00233605 0.005129 0.000233 0 -0.011754 0 2650 
90 1 -0.009269 0.00257905 0.005356 0.000233 0 -0.011754 0 2650 
172 1 -0.000767805 0.00274159 0.00558322 0.001312 0.000274478 -0.0120667 -0.00114405 2650 
361 1 -0.012031 0.00395405 0.0053 0.000233 0 -0.011754 0 2650 
244 1 -0.002251 0.00415705 0.006118 0.000233 0 -0.011754 0 2650 
329 1 -0.000109063 0.000601294 0.00694114 0.000847 0.000391813 -0.0113991 0.000617172 2650 
369 1 -0.008047 0.00249405 0.006729 0.000847 0 -0.011754 0 2650 
152 1 -0.00340125 0.00206383 0.00751112 0.000847 -0.00549303 -0.0153889 -0.00137695 2650 
408 1 -0.0100774 0.0208364 0.00650782 0.000847 0.0243368 0.0195503 -0.0236234 2650 
511 1 -0.00738263 0.0312065 0.00720754 0.000847 -0.0191909 0.0247707 0.000400878 2650 
256 1 -0.00661671 0.00055959 0.00932128 0.000847 -0.00429144 -0.0114483 0.0061069 2650 
130 1 -0.004749 0.00018805 0.009456 0.000233 0 -0.011754 0 2650 
417 1 -0.001923 0.00025405 0.008831 0.000233 0 -0.011754 0 2650 
45 1 -0.001763 0.00131205 0.008462 0.000847 0 -0.011754 0 2650 
462 1 -0.013341 0.00247105 0.008656 0.000847 0 -0.011754 0 2650 
22 1 -0.002569 0.00294305 0.009366 0.000233 0 -0.011754 0 2650 
291 1 -0.00151984 0.00823607 0.00876673 0.000847 0.000368443 -0.000878557 -0.00367841 2650 
413 1 -0.0140911 0.016468 0.00893375 0.000233 0.0212736 0.0189692 -0.00433326 2650 
379 1 -0.00107225 0.0212802 0.00879578 8.4e-05 0.0166555 0.0403106 -0.0184391 2650 
319 1 -0.00451514 0.0462861 0.00898822 0.000847 0.00321502 0.103152 0.00477754 2650 
384 1 -0.00962981 0.000401065 0.0109447 0.000847 -0.0196921 -0.00159535 -0.0302785 2650 
504 1 -0.00142965 0.0340285 0.0107104 0.000233 0.309492 0.663036 0.211356 2650 
71 1 -0.00882896 0.0525617 0.0107596 0.000847 -0.0421392 0.0518641 -0.0225597 2650 
518 1 -0.011612 0.00131005 0.01181 0.000233 0 -0.011754 0 2650 
235 1 -0.00605 0.00091005 0.012276 0.000233 0 -0.011754 0 2650 
128 1 -0.003888 0.00172905 0.011415 0.000233 0 -0.011754 0 2650 
313 1 -0.004641 0.00437505 0.011299 0.000233 0 -0.011754 0 2650 
457 1 -0.00363313 0.0153161 0.0111082 8.4e-05 -0.0134899 0.019332 0.0450315 2650 
195 1 -0.00879767 0.0168463 0.0119086 0.000233 0.146287 0.379332 0.114938 2650 
63 1 -0.00506174 0.0339499 0.0120895 0.000233 -0.0113708 0.0567883 0.0342171 2650 
443 1 -0.004264 0.00042805 0.013262 0.000233 0 -0.011754 0 2650 
176 1 -0.00017329 0.000111766 0.0132394 0.000847 0.0123829 -0.00555932 0.0138645 2650 
196 1 -0.00468894 0.00522867 0.013613 0.000233 0.0197346 0.00431685 0.00197254 2650 
389 1 -0.00538545 0.0125741 0.012791 0.000233 0.0133597 -0.00770232 -0.0881448 2650 
446 1 -0.000353 0.00373005 0.015695 0.000847 0 -0.011754 0 2650 
516 1 -0.00284161 0.022415 0.0150893 0.000233 0.019998 0.0356215 0.00536279 2650 
441 1 -0.00967768 0.0609966 0.0193054 0.000233 -2.22055 0.72903 1.5253 2650 
38 1 -0.00942209 0.0935975 -0.0114862 0.000233 -0.0420549 0.149733 -0.0121777 2650 
278 1 0.00179083 -0.0591029 -0.0681309 0.000847 -9.78986 -0.0453819 -0.259086 2650 
473 1 0.00276202 -0.0508781 -0.068112 0.000847 -9.91754 -0.00247396 -0.403637 2650 
102 1 0.00840434 -0.0480053 -0.0682624 0.000233 -8.4578 -0.174513 -1.05309 2650 
194 1 0.00539396 -0.0345261 -0.0685524 0.000233 -8.59117 0.329295 -0.663836 2650 
182 1 0.00536947 -0.0310095 -0.0685641 0.000233 -9.22746 -0.672897 -0.676111 2650 
141 1 0.00902386 -0.0274588 -0.0681687 0.000233 -9.09654 -0.138609 -1.19471 2650 
123 1 0.00221928 -0.0124741 -0.068134 0.000847 -6.49385 0.831392 -0.236351 2650 
127 1 0.014516 -0.0307406 -0.0672181 0.000233 -8.93286 0.370339 -1.91118 2650 
304 1 0.010542 -0.030116 -0.0673363 0.000847 -9.87259 -0.0662655 -1.54922 2650 
496 1 0.0146124 -0.0246406 -0.0673405 8.4e-05 -8.58141 0.324816 -1.85785 2650 
170 1 0.0119682 -0.0194345 -0.0677232 0.000233 -8.11072 0.0503539 -1.45687 2650 
185 1 0.017959 -0.0303194 -0.0652682 0.001312 -9.50666 0.0847017 -2.60252 2650 
490 1 0.0291507 -0.0161618 -0.0622839 0.000233 -6.95819 0.595772 -3.26923 2650 
442 1 0.0315167 -0.0444141 -0.0611244 0.000233 -7.6586 0.346941 -3.93643 2650 
67 1 0.0336168 -0.0137415 -0.0601683 8.4e-05 -6.73326 0.822117 -3.76406 2650 
401 1 0.0346824 -0.0555235 -0.0593797 0.000233 -7.95783 0.310718 -4.64803 2650 
280 1 0.0347999 -0.0274467 -0.0585992 0.000847 -7.8246 -0.11126 -4.66047 2650 
65 1 0.0339676 -0.00547382 -0.0597913 0.000233 -3.08441 -0.107783 -1.77033 2650 
508 1 0.0425605 -0.0270412 -0.0540101 0.000233 -7.37228 -0.0643528 -5.81004 2650 
32 1 0.0404911 -0.0242094 -0.0548246 0.000847 -7.58421 -0.144162 -5.60379 2650 
288 1 0.0449261 -0.0531645 -0.0522677 8.4e-05 -5.32878 1.00485 -4.57462 2650 
393 1 0.0411845 -0.0259349 -0.0537256 0.001312 -7.42063 -0.153209 -5.74823 2650 
481 1 0.0460951 -0.0245195 -0.0510315 0.000233 -5.64821 -1.20942 -5.11464 2650 
459 1 0.0455329 -0.0187283 -0.0507326 0.000847 -5.49587 -0.0169951 -4.91884 2650 
100 1 0.0468387 -0.0252431 -0.0495107 0.000847 -6.5573 -0.00684747 -6.20105 2650 
423 1 0.0483457 -0.0263787 -0.0480396 0.000847 -6.33811 -0.0750459 -6.39383 2650 
415 1 0.0486299 -0.0131677 -0.0486394 0.000233 -4.05584 0.39327 -4.01362 2650 
166 1 0.0515268 -0.0595412 -0.0455359 0.000233 -6.48473 0.0783603 -7.34339 2650 
9 1 0.0518386 -0.019573 -0.0451954 0.000233 -3.09488 -0.693413 -3.53155 2650 
367 1 0.0534957 -0.051984 -0.0414858 0.001312 -5.84651 -0.0291071 -7.54905 2650 
120 1 0.0529106 -0.0303812 -0.0422309 0.001312 -5.9595 0.1121 -7.53549 2650 
250 1 0.0559534 -0.0420311 -0.0380677 0.001312 -5.1802 -0.0692148 -7.53899 2650 
155 1 0.0581179 -0.0323386 -0.0367583 0.000233 -5.33044 -0.188637 -8.41326 2650 
4 1 0.0580434 -0.0328698 -0.0357169 0.000847 -5.16359 -0.0988204 -8.34709 2650 
489 1 0.0614917 -0.0457871 -0.0293985 0.000847 -3.63764 0.2041 -7.65132 2650 
189 1 0.061616 -0.0440027 -0.0291337 0.000847 -3.62675 -0.148573 -7.74052 2650 
378 1 0.0646185 -0.0285005 -0.0235196 0.000233 -3.47079 0.104651 -9.54542 2650 
487 1 0.0648606 -0.0333213 -0.0209333 0.000847 -3.08758 -0.114991 -9.55992 2650 
382 1 0.0665765 -0.0438623 -0.0146543 0.000847 -2.04712 0.00338656 -9.31701 2650 
493 1 0.0671887 -0.03945 -0.01467 0.000233 -2.19062 -0.179046 -10.0269 2650 
82 1 0.00116073 -0.00158188 -0.014705 0.001312 0.0033878 -0.00822526 0.0054289 2650 
317 1 0.0674289 -0.0473906 -0.0100411 0.000847 -1.45814 -0.248959 -9.76368 2650 
522 1 0.00679 -0.00325095 -0.01028 8.4e-05 0 -0.011754 0 2650 
144 1 0.000616 -0.00160395 -0.009639 0.000233 0 -0.011754 0 2650 
157 1 0.006689 -0.00264395 -0.009595 0.000233 0 -0.011754 0 2650 
432 1 0.0670591 -0.0151301 -0.00935335 0.001312 -0.515185 -0.267817 -4.1459 2650 
447 1 0.0106017 -0.00260764 -0.00929446 0.000847 0.0013484 -0.0105121 -0.00012176 2650 
465 1 0.0684391 -0.0109526 -0.00681741 0.000233 -0.927287 0.411196 -9.32793 2650 
92 1 0.0683146 -0.00748512 -0.00790766 0.000233 -0.805004 0.191755 -7.11076 2650 
61 1 0.0679251 -0.00626449 -0.00563132 0.000847 -0.627506 -0.462627 -7.74209 2650 
298 1 0.0686916 -0.0440608 -0.00344616 0.000233 -0.413071 1.36425 -7.88896 2650 
477 1 0.0687369 -0.0199569 -0.00225367 0.000233 -0.117449 -0.0123915 -4.00911 2650 
142 1 0.000422 -0.00184595 -0.00166 0.000233 0 -0.011754 0 2650 
492 1 0.009114 -0.00135495 -0.002429 0.000233 0 -0.011754 0 2650 
173 1 0.0677024 -0.0487407 0.000496137 0.001312 0.0677678 0.0352313 -10.2545 2650 
272 1 0.0687653 -0.0292871 0.000155161 0.000233 0.023737 -0.152923 -9.93412 2650 
220 1 0.004447 -0.00322395 0.000291 0.000233 0 -0.011754 0 2650 
122 1 0.009753 -0.00194995 0.000953 0.000847 0 -0.011754 0 2650 
116 1 8e-05 -7.89498e-05 0.00308 0.000233 0 -0.011754 0 2650 
353 1 0.00246953 -0.000412906 0.00237036 8.4e-05 0.0015345 -0.00573097 -0.0125122 2650 
35 1 0.0129147 -0.000127072 0.00237608 0.000847 -0.0121953 -9.57773e-05 0.00420749 2650 
497 1 0.00944029 -0.00313594 0.00402728 0.001312 -0.00110965 -0.00913587 0.00170319 2650 
328 1 0.0110315 -0.000697258 0.00423721 0.001312 -0.00329876 -0.00894083 0.00403165 2650 
334 1 0.0678605 -0.0472894 0.00635394 0.000847 0.817724 -0.542421 -8.7093 2650 
294 1 0.0677221 -0.0435075 0.007685 0.000847 1.04707 -0.120247 -9.15176 2650 
84 1 0.0677902 -0.0405746 0.00705693 0.000847 0.993126 0.375567 -9.52766 2650 
85 1 0.0678743 -0.0308071 0.00620727 0.000847 0.881417 -0.0291992 -9.86163 2650 
428 1 0.0133204 -0.00185298 0.00786354 0.000233 -0.0006844 -0.00321647 0.00718742 2650 
167 1 0.009498 -0.00065395 0.007687 0.000233 0 -0.011754 0 2650 
11 1 0.014614 -0.000451383 0.00752353 0.000233 -0.0156146 -0.0066579 0.0320021 2650 
241 1 0.0675817 -0.0460457 0.00882642 0.000847 1.25389 -0.0354331 -9.81421 2650 
159 1 0.0670907 -0.0412879 0.00899769 0.001312 1.29136 0.0226273 -9.49903 2650 
23 1 0.0682323 -0.0167011 0.00853747 0.000233 1.07627 -0.217408 -8.53374 2650 
203 1 0.005033 -0.00320195 0.009185 0.000847 0 -0.011754 0 2650 
338 1 0.008907 -0.00228095 0.008617 0.000233 0 -0.011754 0 2650 
119 1 0.00722 -0.00040695 0.008414 8.4e-05 0 -0.011754 0 2650 
381 1 0.00450323 -0.00135791 0.00986501 0.000847 -0.0055747 -0.0146903 -0.00920271 2650 
316 1 0.0667543 -0.0618708 0.0137496 0.000847 2.05196 0.00431621 -9.96015 2650 
263 1 0.00819017 -0.00198446 0.0129252 0.001312 0.013614 -0.0131203 -0.011804 2650 
479 1 0.0105467 -0.0010874 0.012645 0.000233 0.0209859 -0.0100325 -0.00736585 2650 
19 1 0.0663844 -0.0616582 0.0154403 0.000847 2.32196 0.0140099 -9.87876 2650 
380 1 0.0660158 -0.0420372 0.0146204 0.001312 2.2099 0.0325464 -9.99792 2650 
190 1 0.0659742 -0.0618534 0.0171062 0.000847 2.55176 0.0668299 -9.84627 2650 
134 1 0.0654453 -0.0456451 0.0171338 0.001312 2.61514 -0.409125 -9.94327 2650 
410 1 0.0655657 -0.0588727 0.0186128 0.000847 2.83134 -0.194807 -10.0287 2650 
458 1 0.0649461 -0.0614845 0.0191037 0.001312 2.84541 0.0106997 -9.66771 2650 
362 1 0.0652126 -0.00419674 0.0217996 0.000233 2.19546 -0.27938 -6.53825 2650 
314 1 0.0650733 -0.0435167 0.0226921 8.4e-05 3.29904 0.518716 -9.3988 2650 
483 1 0.0630604 -0.0160065 0.0278301 8.4e-05 1.41532 -0.192952 -3.21248 2650 
449 1 0.0586592 -0.0547534 0.0347096 0.000847 3.18394 0.19092 -5.37779 2650 
463 1 0.0571306 -0.0490979 0.037192 0.000847 5.38263 0.1661 -8.27229 2650 
113 1 0.0577713 -0.0389773 0.0361728 0.000847 5.32778 -0.189929 -8.50604 2650 
445 1 0.0568019 -0.0367159 0.0368305 0.001312 5.48382 -0.049197 -8.41309 2650 
322 1 0.0565502 -0.0415287 0.0391433 0.000233 5.32859 -0.0405605 -7.68759 2650 
218 1 0.0555389 -0.0316625 0.0405482 0.000233 5.55986 0.00416995 -7.6068 2650 
397 1 0.0542736 -0.0228236 0.0412333 0.000847 3.07342 -0.208097 -3.95962 2650 
429 1 0.0542974 -0.0148959 0.0422187 0.000233 3.37184 -0.620087 -4.34854 2650 
117 1 0.0529168 -0.00750325 0.0439212 0.000233 4.07287 0.22667 -4.93452 2650 
160 1 0.0504972 -0.0155893 0.0450919 0.001312 3.91397 -0.0463653 -4.40164 2650 
330 1 0.0490788 -0.0361844 0.0472917 0.000847 6.77311 -0.0836103 -7.0239 2650 
411 1 0.0441778 -0.0296758 0.0518999 0.000847 7.32537 0.0572824 -6.24313 2650 
434 1 0.0444987 -0.0198466 0.0516255 0.000847 7.06884 -0.048048 -6.09296 2650 
521 1 0.0452731 -0.00156631 0.0519588 8.4e-05 4.78733 -0.583703 -4.17626 2650 
320 1 0.0406218 -0.0388506 0.0546803 0.000847 8.00782 0.0271408 -5.94674 2650 
344 1 0.0396562 -0.0487149 0.055404 0.000847 8.13119 -0.071911 -5.80451 2650 
427 1 0.0382706 -0.0197941 0.0571354 0.000233 6.56988 -1.12927 -4.40715 2650 
302 1 0.0350272 -0.0142687 0.0579405 0.001312 4.56582 -0.0734425 -2.58979 2650 
274 1 0.0380936 -0.00214571 0.0572492 0.000233 3.13229 0.231293 -2.05359 2650 
305 1 0.0340461 -0.0500467 0.0590502 0.000847 8.384 0.0360156 -4.82508 2650 
433 1 0.0333866 -0.0148178 0.0594089 0.000847 4.45409 -0.628313 -2.28489 2650 
138 1 0.0306439 -0.0386528 0.0608783 0.000847 8.62438 0.0478258 -4.32729 2650 
64 1 0.0331263 -0.0254236 0.0602611 0.000233 4.54336 -0.691585 -2.48936 2650 