ITEM: TIMESTEP
4939138
ITEM: NUMBER OF ATOMS
520
ITEM: BOX BOUNDS ff ff ff
-0.15 0.15
-0.15 0.15
-0.15 0.15
ITEM: ATOMS id type x y z radius vx vy vz density 
170 1 -0.00214032 -0.00446507 -0.0687319 0.000233 -5.66598 0.0317122 0.208516 2650 
473 1 -0.0199684 -0.0380744 -0.0651636 0.000847 -6.68673 -0.0799977 2.04968 2650 
124 1 -0.0326178 -0.0463219 -0.0598526 0.000847 -6.69222 -0.042406 3.64249 2650 
4 1 -0.033125 -0.021426 -0.0595569 0.000847 -5.86794 -0.0967717 3.25184 2650 
507 1 -0.0404362 -0.0151296 -0.0556409 0.000233 -3.46281 0.202084 2.55919 2650 
23 1 -0.0392792 -0.0145375 -0.0564621 0.000233 -4.57739 0.000387224 3.1593 2650 
290 1 -0.039512 -0.012821 -0.0555496 0.000847 -4.63073 -0.0396909 3.33242 2650 
182 1 -0.0425404 -0.0132452 -0.0540477 0.000233 -3.73331 -0.163523 2.91546 2650 
46 1 -0.0407112 -0.0088913 -0.0543728 0.000847 -1.54421 -0.493973 3.09973 2650 
33 1 -0.0459265 -0.0214438 -0.050368 0.000847 -4.36009 0.199046 3.96675 2650 
236 1 -0.04591 -0.00482953 -0.0513957 8.4e-05 -4.37279 0.262558 3.8661 2650 
452 1 -0.0525264 -0.0114834 -0.0426111 0.000233 -1.51582 -0.57301 3.05382 2650 
140 1 -0.055082 -0.0129213 -0.0411757 0.000233 -3.69559 0.65863 4.94011 2650 
409 1 -0.055535 -0.0251529 -0.0395087 0.000847 -3.69527 -0.239658 5.19592 2650 
318 1 -0.0570976 -0.0595639 -0.0372179 0.000847 -2.85812 -0.483431 4.36234 2650 
208 1 -0.0609467 -0.0162861 -0.0318463 0.000233 -2.40046 -0.312714 4.53902 2650 
166 1 -0.0616863 -0.0374321 -0.0303885 0.000233 -2.84074 -0.111555 5.82787 2650 
100 1 -0.0624775 -0.0231114 -0.0272411 0.000847 -1.24686 -0.606131 2.93281 2650 
20 1 -0.0641816 -0.0180296 -0.0229607 0.000847 -2.1275 0.101756 5.89274 2650 
335 1 -0.0168122 -0.0106798 -0.0212722 0.000233 -2.02621 -1.17044 -2.67041 2650 
183 1 -0.0653142 -0.0044882 -0.0215145 0.000233 -1.39676 0.0129504 4.15558 2650 
26 1 -0.001949 -0.000905242 -0.014832 0.000233 0 -0.011754 0 2650 
243 1 -0.067286 -0.0609639 -0.01083 0.000847 -1.12231 -0.591593 6.91811 2650 
360 1 -0.008207 -0.00237824 -0.012559 0.000847 0 -0.011754 0 2650 
86 1 -0.00627013 -0.00189952 -0.0110738 0.000847 -0.000103409 -0.0116349 -2.92058e-05 2650 
487 1 -0.00547 -0.00202224 -0.008469 0.000847 0 -0.011754 0 2650 
330 1 -0.000214485 -0.00145869 -0.00816111 0.000847 -0.023599 -0.0204272 -0.00202641 2650 
173 1 -0.0674255 -0.0404212 -0.00613045 0.001312 -0.639114 0.0531356 7.09067 2650 
304 1 -0.01228 -0.00290751 -0.00665073 0.000847 -0.0158408 -0.000694593 0.00368826 2650 
402 1 -0.012528 -0.00182024 -0.0071 0.000233 0 -0.011754 0 2650 
53 1 -0.011013 -0.00185024 -0.007695 0.000233 0 -0.011754 0 2650 
197 1 -6.03799e-05 -0.00197304 -0.00724901 8.4e-05 -0.0440055 -0.0254416 -0.0315804 2650 
31 1 -0.0141031 -0.000842696 -0.00634866 0.000847 0.00325038 -0.0202872 0.000225571 2650 
85 1 -0.0144525 -0.00189746 -0.00497748 0.000847 -0.00107577 -0.0172193 0.005012 2650 
125 1 -0.003357 -0.000799242 -0.006037 0.000847 0 -0.011754 0 2650 
97 1 -0.009673 -0.00241924 -0.003235 0.000847 0 -0.011754 0 2650 
445 1 -0.00605561 -0.00301028 -0.00225012 0.001312 -0.00249893 -0.012143 -0.00058692 2650 
378 1 -0.001584 -0.00220924 -0.002895 0.000233 0 -0.011754 0 2650 
345 1 -0.0117796 -0.000114939 -0.00280464 0.000847 0.0102276 0.00640351 0.0047221 2650 
61 1 -0.000548 -0.00143224 -0.001635 0.000847 0 -0.011754 0 2650 
519 1 -0.014357 -0.00253124 -0.000107 0.000233 0 -0.011754 0 2650 
118 1 -0.006006 -0.00161424 -0.001449 0.000233 0 -0.011754 0 2650 
315 1 -0.00360049 -0.00295192 -0.00122796 0.001312 -0.00471228 -0.0221169 0.0126549 2650 
101 1 -0.007806 -0.00213224 0.002945 0.000233 0 -0.011754 0 2650 
341 1 -0.0151102 -0.0053074 0.00427863 0.001312 -0.780729 -0.456781 0.0962492 2650 
440 1 -0.0160605 -0.00112055 0.00420548 0.000233 0.00640272 0.00324748 -0.00679238 2650 
218 1 -0.012593 -0.00121324 0.003611 0.000233 0 -0.011754 0 2650 
429 1 -0.00692 -0.00278524 0.005955 0.000233 0 -0.011754 0 2650 
117 1 -0.006406 -0.00204224 0.006156 0.000233 0 -0.011754 0 2650 
264 1 -0.003065 -0.000474242 0.00492 0.000847 0 -0.011754 0 2650 
319 1 -0.013972 -0.000716496 0.00725519 0.000847 0.20721 0.289473 0.225891 2650 
314 1 -0.012863 -0.00188724 0.007925 8.4e-05 0 -0.011754 0 2650 
52 1 -0.0678727 -0.040298 0.0110046 0.000233 1.09225 0.147559 5.5948 2650 
92 1 -0.012301 -0.00303224 0.010509 0.000233 0 -0.011754 0 2650 
253 1 -0.00937158 -0.00283429 0.0102929 0.000847 -0.0163752 -0.00678803 -0.00424149 2650 
350 1 -0.001594 -0.000242242 0.011915 0.000233 0 -0.011754 0 2650 
448 1 -0.008582 -0.00470707 0.0128595 0.000847 0.0274685 -0.753698 -0.135055 2650 
420 1 -0.00713153 -0.00302751 0.0140556 0.000847 0.0107401 -0.0102696 -0.000842587 2650 
185 1 -0.0658869 -0.0209999 0.0155265 0.001312 1.11554 -0.0183499 4.89069 2650 
114 1 -0.004861 -0.00301224 0.015786 0.000233 0 -0.011754 0 2650 
151 1 -2.7e-05 -0.00281224 0.014966 0.000847 0 -0.011754 0 2650 
415 1 -0.0666449 -0.0189174 0.0169539 0.000233 1.02215 0.231402 4.01021 2650 
327 1 -0.003487 -0.00176124 0.015912 8.4e-05 0 -0.011754 0 2650 
460 1 -0.0623075 -0.0325933 0.0276112 0.000847 2.30295 0.156786 5.33461 2650 
269 1 -0.0602362 -0.0451077 0.0319208 0.000847 2.83218 0.0450095 5.32099 2650 
113 1 -0.0606316 -0.0285442 0.0311251 0.000847 2.69223 -0.177446 5.22138 2650 
358 1 -0.0595144 -0.0475363 0.0332459 0.000847 3.62709 0.231961 6.46498 2650 
239 1 -0.0587775 -0.0319297 0.0345002 0.000847 3.11738 -0.371078 5.34957 2650 
442 1 -0.0574159 -0.0425638 0.0378659 0.000233 2.97415 0.228799 4.53285 2650 
382 1 -0.0532913 -0.0338736 0.0424832 0.000847 3.4483 0.334772 4.32922 2650 
278 1 -0.0468719 -0.0492275 0.0494779 0.000847 4.44205 -0.23851 4.1947 2650 
47 1 -0.0435243 -0.0252375 0.0524475 0.000847 5.46661 0.0235921 4.54203 2650 
161 1 -0.0388893 -0.011903 0.0559722 0.000847 4.04088 -0.115632 2.80045 2650 
308 1 -0.0320929 -0.0285553 0.0601252 0.000847 6.10931 -0.133463 3.27185 2650 
344 1 -0.0295938 -0.032931 0.0613927 0.000847 6.73512 0.365582 3.24609 2650 
424 1 -0.00969948 -0.0552535 0.0674625 0.000847 4.72387 0.0140966 0.694581 2650 
169 1 -0.0105476 -0.0604439 0.0679522 0.000233 4.68278 -0.220015 0.705101 2650 
143 1 -2.48076e-05 0.00494151 -0.0166812 0.000233 0.00287306 -0.000819399 0.00574052 2650 
501 1 -0.00486465 0.0039813 -0.0143603 0.000847 0.00709651 0.00142594 -0.00670783 2650 
49 1 -0.006313 0.00550876 -0.014865 0.000233 0 -0.011754 0 2650 
37 1 -0.007724 0.00647576 -0.014299 0.000233 0 -0.011754 0 2650 
309 1 -0.005736 0.00919476 -0.014845 0.000233 0 -0.011754 0 2650 
48 1 -0.000467368 0.00847902 -0.0149802 0.000847 0.0074473 -0.000736593 -0.00870989 2650 
395 1 -0.00716584 0.00126089 -0.0136683 0.000847 0.0236473 -0.00300438 -0.00517361 2650 
224 1 -0.00511228 0.00198928 -0.0131672 0.001312 0.0231444 -0.00517974 0.000423513 2650 
234 1 -0.003242 0.00279076 -0.013015 0.000233 0 -0.011754 0 2650 
36 1 -0.008519 0.00573876 -0.013643 0.000233 0 -0.011754 0 2650 
68 1 -0.006284 0.00599576 -0.013069 0.001312 0 -0.011754 0 2650 
16 1 -0.00173782 0.00723352 -0.0137176 0.001312 -0.0202298 0.0366542 0.013976 2650 
3 1 -0.000520312 0.0240206 -0.0132637 0.000847 0.0282866 0.0377877 0.0184803 2650 
133 1 -0.00222102 0.00162334 -0.0112661 0.001312 -0.00478745 0.000174018 0.00954726 2650 
233 1 -0.006747 0.00450176 -0.01241 0.000233 0 -0.011754 0 2650 
343 1 -0.003612 0.00551376 -0.01107 0.000847 0 -0.011754 0 2650 
76 1 -0.005578 0.00690176 -0.011829 0.000233 0 -0.011754 0 2650 
28 1 -0.00380068 0.00788846 -0.0110709 8.4e-05 0.0273567 -0.0592783 0.00580664 2650 
198 1 -0.00406712 0.00845295 -0.0125186 0.001312 -1.14133e-05 -0.0117348 -0.000169031 2650 
368 1 -0.00466434 0.0165955 -0.0113171 0.000847 0.0337396 0.0209771 0.00460793 2650 
29 1 -0.0083104 0.000664352 -0.0106766 0.001312 0.0010489 -0.0138166 -0.00176049 2650 
160 1 -0.0050852 0.000717851 -0.00978979 0.001312 -0.0111963 -0.009322 0.00874065 2650 
449 1 -0.00117282 0.000893051 -0.00947608 0.000847 9.54095e-06 -0.0117597 8.05247e-05 2650 
271 1 -0.005149 0.00287176 -0.010304 0.000233 0 -0.011754 0 2650 
95 1 -0.00727828 0.00365297 -0.01103 0.001312 -0.000248372 -0.0120576 -0.000506657 2650 
435 1 -0.005486 0.00494976 -0.011036 0.000847 0 -0.011754 0 2650 
13 1 -0.012448 0.00665176 -0.010914 8.4e-05 0 -0.011754 0 2650 
69 1 -0.00959154 0.00702391 -0.0107149 0.001312 -0.000168074 -0.011628 -0.000205239 2650 
392 1 -0.003997 0.00724276 -0.009609 8.4e-05 0 -0.011754 0 2650 
146 1 -0.000643295 0.00640449 -0.0102002 0.001312 0.0042264 -0.0133998 -0.00344983 2650 
147 1 -0.00438249 0.00860412 -0.0097923 0.001312 -5.06351e-05 -0.0117165 0.000175944 2650 
209 1 -0.001802 0.00807076 -0.011003 0.000233 0 -0.011754 0 2650 
262 1 -0.00183227 0.00849785 -0.0102302 8.4e-05 -0.0210894 -0.00214597 -0.102903 2650 
482 1 -0.00643489 0.0176037 -0.0102742 0.000233 -0.0162757 0.0437947 0.00434421 2650 
289 1 -0.0125591 0.00278978 -0.00911619 0.001312 0.00200879 -0.0124738 0.00211529 2650 
468 1 -0.0103187 0.00240639 -0.00854842 0.000233 0.00115239 -0.0134034 -0.00409537 2650 
164 1 -0.00926146 0.00211583 -0.00932584 0.000847 -0.000928237 -0.0130218 -0.00107494 2650 
455 1 -0.006244 0.00277076 -0.008207 0.000233 0 -0.011754 0 2650 
407 1 -0.002601 0.00318176 -0.009363 0.000847 0 -0.011754 0 2650 
336 1 -0.000699 0.00398876 -0.008095 0.000233 0 -0.011754 0 2650 
115 1 -0.00902803 0.00666259 -0.0091587 0.000233 -0.026131 0.018368 0.0433276 2650 
216 1 -0.00198502 0.00682618 -0.00847974 0.000847 -0.0183716 -0.00898281 -0.0109837 2650 
332 1 -0.013253 0.00938276 -0.008686 0.000847 0 -0.011754 0 2650 
348 1 -0.011402 0.00818776 -0.008993 0.000233 0 -0.011754 0 2650 
391 1 -0.00078107 0.0080147 -0.00920332 0.000233 0.0152389 0.00526511 -0.0349517 2650 
483 1 -0.010366 0.000882758 -0.006716 8.4e-05 0 -0.011754 0 2650 
347 1 -0.00911722 0.00108785 -0.00650337 0.000847 0.00650209 -0.0196345 -0.000170551 2650 
266 1 -0.012074 0.00165076 -0.006827 0.000847 0 -0.011754 0 2650 
60 1 -0.005537 0.00185976 -0.006955 0.000847 0 -0.011754 0 2650 
136 1 -0.003358 0.00267476 -0.00699 0.000847 0 -0.011754 0 2650 
248 1 -0.0147752 0.0033624 -0.00685961 0.000233 -0.00277703 -0.00662847 -0.0294155 2650 
324 1 -0.004804 0.00361076 -0.006739 0.000233 0 -0.011754 0 2650 
121 1 -0.000115713 0.00379111 -0.00643967 0.001312 -0.0468052 0.036118 0.0180646 2650 
251 1 -0.00947123 0.00559809 -0.00705426 0.000847 0.0352412 0.00403693 -0.0374152 2650 
158 1 -0.00556802 0.00627752 -0.00751119 8.4e-05 -0.0246844 -0.00052617 -0.00311611 2650 
512 1 -0.00416062 0.00660182 -0.00732651 0.000847 -0.00911119 -0.0123441 -0.0156273 2650 
464 1 -3.2e-05 0.00784276 -0.007535 0.000233 0 -0.011754 0 2650 
66 1 -0.0105458 0.0212534 -0.00783915 0.000233 -0.00951856 0.0364197 -0.00386543 2650 
489 1 -0.000746662 0.000159172 -0.00544226 0.000847 -0.0259232 -0.0202651 0.0153532 2650 
51 1 -0.00593603 0.00365082 -0.00622676 0.000233 -0.0138358 -0.00903861 -0.0230717 2650 
2 1 -0.0125762 0.00711641 -0.00477161 0.001312 0.00808616 -0.00247549 -0.00933228 2650 
15 1 -0.00292375 0.00704139 -0.0055668 0.001312 0.00381573 0.0153684 -0.0235884 2650 
79 1 -0.009334 0.00812476 -0.006031 0.000233 0 -0.011754 0 2650 
72 1 -0.00370572 0.0227364 -0.00524712 0.000847 -0.0198786 0.0444843 -0.026581 2650 
286 1 -0.016281 0.00111476 -0.003576 0.000233 0 -0.011754 0 2650 
306 1 -0.011393 0.000488758 -0.004559 0.000847 0 -0.011754 0 2650 
229 1 -0.0155285 0.00248717 -0.00375417 0.000847 -0.000169989 -0.0118082 -1.68751e-06 2650 
237 1 -0.00199298 0.00219484 -0.0034952 0.001312 -0.00761684 -0.000712423 -0.000817686 2650 
466 1 -0.015616 0.00423276 -0.003521 0.000233 0 -0.011754 0 2650 
478 1 -0.010102 0.00463676 -0.003546 0.000233 0 -0.011754 0 2650 
413 1 -0.00109966 0.00510813 -0.00462236 0.000233 -0.0184911 0.00790297 -0.00254256 2650 
467 1 -0.0112315 0.00682387 -0.00401986 0.000233 0.00319889 -0.0119441 0.00112982 2650 
112 1 -0.009312 0.00742176 -0.004659 0.000847 0 -0.011754 0 2650 
145 1 -0.007489 0.00763476 -0.00326 8.4e-05 0 -0.011754 0 2650 
331 1 -0.0145134 0.0094926 -0.0036737 0.000847 0.0094052 0.0213481 -0.00684148 2650 
149 1 -0.011939 0.00932189 -0.00411795 0.000847 0.00559547 0.000619828 -0.000397969 2650 
199 1 -0.00398817 0.00955936 -0.00414533 0.001312 -0.00589796 -0.00428884 -0.0021018 2650 
87 1 -0.0128419 0.0310708 -0.00421241 0.000847 -0.108522 0.0902812 -0.0426286 2650 
505 1 -0.0124001 0.000427692 -0.00205713 0.000233 -0.00423101 -0.00434391 0.00740396 2650 
84 1 -0.004923 0.00108776 -0.002038 0.000847 0 -0.011754 0 2650 
168 1 -0.011097 0.00242676 -0.001986 0.000233 0 -0.011754 0 2650 
312 1 -0.00829902 0.00540121 -0.00310768 0.000233 -0.0245499 -0.0247387 -0.0112885 2650 
301 1 -0.000431 0.00637576 -0.003081 8.4e-05 0 -0.011754 0 2650 
399 1 -0.00802319 0.0069171 -0.0022263 0.000847 -0.0343417 -0.00727197 -0.00368845 2650 
245 1 -0.015895 0.00809476 -0.001607 0.000233 0 -0.011754 0 2650 
204 1 -0.00582317 0.00871574 -0.00265046 0.000847 -0.000382133 -0.0115433 7.53889e-06 2650 
285 1 -0.00474184 0.00857257 -0.00308787 0.000233 -0.00281725 -0.00989628 -0.000983831 2650 
214 1 -0.001591 0.00927776 -0.002687 0.000847 0 -0.011754 0 2650 
63 1 -0.000147 0.00949576 -0.0027 0.000233 0 -0.011754 0 2650 
201 1 -0.005857 0.00282176 -0.001367 0.000847 0 -0.011754 0 2650 
75 1 -0.004976 0.00762876 -0.001105 0.000233 0 -0.011754 0 2650 
137 1 -0.00840866 0.0161422 -0.000212524 0.000847 -0.0435427 0.0421262 -0.00186797 2650 
418 1 -0.0131332 0.0186079 -0.00121978 8.4e-05 0.0565282 0.0445312 0.0141261 2650 
384 1 -0.00287119 0.000505292 0.000115693 0.000847 -0.00928216 0.00410536 0.0475918 2650 
310 1 -0.00500701 0.00305326 0.000784061 0.000233 -0.091255 -0.013942 -0.0341636 2650 
373 1 -0.015091 0.00386076 0.000947 0.000847 0 -0.011754 0 2650 
450 1 -0.0158622 0.00698239 0.00128841 0.000847 0.00333941 -0.00721395 0.0131887 2650 
186 1 -0.0154274 0.00900212 1.30144e-05 0.001312 0.00108872 -0.00772704 -0.000169001 2650 
504 1 -0.012481 0.00884676 0.001551 0.000233 0 -0.011754 0 2650 
474 1 -0.00912672 0.00886507 0.000444437 0.000847 0.0275537 0.0248876 0.00687161 2650 
517 1 -0.00880501 0.0107258 0.000507282 0.000233 0.0259823 0.0335168 0.00669738 2650 
188 1 -0.00455953 0.0204081 0.00150185 0.000847 0.00721131 0.0301563 0.00476899 2650 
323 1 -0.008651 0.00140776 0.002916 0.000233 0 -0.011754 0 2650 
364 1 -0.0139 0.00206976 0.002152 0.000233 0 -0.011754 0 2650 
242 1 -0.010702 0.00670976 0.00289 0.000847 0 -0.011754 0 2650 
376 1 -0.005395 0.00711876 0.002758 0.000233 0 -0.011754 0 2650 
174 1 -0.001898 0.00664176 0.003155 0.000847 0 -0.011754 0 2650 
441 1 -0.014312 0.00154576 0.004679 0.000233 0 -0.011754 0 2650 
302 1 -0.01139 0.00124076 0.00396 0.001312 0 -0.011754 0 2650 
206 1 -0.002945 0.00221576 0.003686 0.000233 0 -0.011754 0 2650 
131 1 -0.009967 0.00696876 0.004313 0.000233 0 -0.011754 0 2650 
156 1 -0.015257 0.00822776 0.00371 0.000233 0 -0.011754 0 2650 
296 1 -0.002285 0.00880776 0.004233 0.000233 0 -0.011754 0 2650 
470 1 -0.008539 0.00986676 0.004033 8.4e-05 0 -0.011754 0 2650 
374 1 -0.006913 0.00977376 0.00361 0.000233 0 -0.011754 0 2650 
274 1 -0.005863 0.00132076 0.005228 0.000233 0 -0.011754 0 2650 
189 1 -0.001267 0.000886758 0.004803 0.000847 0 -0.011754 0 2650 
195 1 -0.014509 0.00252676 0.005621 0.000233 0 -0.011754 0 2650 
135 1 -0.0085491 0.00416582 0.00521558 0.000847 7.01786e-05 -0.0111024 -0.000238173 2650 
431 1 -0.007173 0.00358976 0.006023 8.4e-05 0 -0.011754 0 2650 
223 1 -0.014414 0.00626076 0.005039 8.4e-05 0 -0.011754 0 2650 
56 1 -0.011864 0.00561876 0.004858 0.001312 0 -0.011754 0 2650 
469 1 -0.012765 0.00750776 0.005129 0.000233 0 -0.011754 0 2650 
90 1 -0.009269 0.00775076 0.005356 0.000233 0 -0.011754 0 2650 
361 1 -0.012031 0.00912576 0.0053 0.000233 0 -0.011754 0 2650 
244 1 -0.002251 0.00932876 0.006118 0.000233 0 -0.011754 0 2650 
172 1 -0.000863 0.00802176 0.00598 0.001312 0 -0.011754 0 2650 
62 1 -0.0150945 0.000738885 0.00671879 0.000233 -0.370746 0.487549 0.340921 2650 
96 1 -7.1e-05 0.00278076 0.006733 0.000847 0 -0.011754 0 2650 
283 1 -0.00727 0.00527676 0.006824 0.000233 0 -0.011754 0 2650 
256 1 -0.00472849 0.00559681 0.00663427 0.000847 -0.00429144 -0.0114483 0.0061069 2650 
329 1 -0.000212 0.00567976 0.006779 0.000847 0 -0.011754 0 2650 
369 1 -0.008047 0.00766576 0.006729 0.000847 0 -0.011754 0 2650 
355 1 -0.012705 0.00870376 0.006672 0.000847 0 -0.011754 0 2650 
196 1 -0.00941489 0.00415144 0.00863735 0.000233 -0.00735608 -0.00131167 0.0300939 2650 
88 1 -0.010473 0.00515876 0.008034 0.000233 0 -0.011754 0 2650 
130 1 -0.004749 0.00535976 0.009456 0.000233 0 -0.011754 0 2650 
417 1 -0.001923 0.00542576 0.008831 0.000233 0 -0.011754 0 2650 
462 1 -0.013341 0.00764276 0.008656 0.000847 0 -0.011754 0 2650 
45 1 -0.001763 0.00648376 0.008462 0.000847 0 -0.011754 0 2650 
152 1 -0.00166659 0.00870353 0.00803474 0.000847 0.00503329 -0.0126714 0.00211612 2650 
22 1 -0.002569 0.00811476 0.009366 0.000233 0 -0.011754 0 2650 
178 1 -0.000378379 0.00889149 0.00931481 0.000847 0.00916855 -0.00897693 0.00225135 2650 
495 1 -0.0112941 0.0151092 0.00841233 0.000233 0.033012 0.00318582 -0.0311893 2650 
365 1 -0.0057865 0.0323428 0.00841738 0.000233 -0.0631254 0.0667025 -0.0304057 2650 
41 1 -0.008377 0.00159476 0.009542 8.4e-05 0 -0.011754 0 2650 
372 1 -0.010707 0.00215076 0.010207 0.000847 0 -0.011754 0 2650 
259 1 -0.007193 0.00162676 0.011052 0.000233 0 -0.011754 0 2650 
321 1 -0.010881 0.00463076 0.010029 0.000847 0 -0.011754 0 2650 
219 1 -0.00824049 0.00359039 0.00997657 0.000233 0.0111426 0.00521502 -0.0209202 2650 
176 1 -0.003497 0.00362076 0.009518 0.000847 0 -0.011754 0 2650 
267 1 -0.00832 0.00572876 0.009655 0.000847 0 -0.011754 0 2650 
509 1 -0.001563 0.00501476 0.010036 8.4e-05 0 -0.011754 0 2650 
475 1 -0.007166 0.00822576 0.009694 0.000847 0 -0.011754 0 2650 
291 1 -0.00168196 0.00862263 0.0103852 0.000847 0.000368443 -0.000878557 -0.00367841 2650 
226 1 -0.005007 0.00521776 0.011519 0.000847 0 -0.011754 0 2650 
235 1 -0.00605 0.00608176 0.012276 0.000233 0 -0.011754 0 2650 
518 1 -0.011612 0.00648176 0.01181 0.000233 0 -0.011754 0 2650 
73 1 -0.010447 0.00682076 0.011428 0.000847 0 -0.011754 0 2650 
128 1 -0.003888 0.00690076 0.011415 0.000233 0 -0.011754 0 2650 
516 1 -0.010492 0.00835576 0.012435 0.000233 0 -0.011754 0 2650 
313 1 -0.004641 0.00954676 0.011299 0.000233 0 -0.011754 0 2650 
55 1 -0.000673351 0.00805041 0.0123942 0.001312 0.0129923 0.0123988 -0.00438465 2650 
180 1 -0.005697 0.00412076 0.013052 0.000233 0 -0.011754 0 2650 
379 1 -0.006906 0.00613176 0.013866 8.4e-05 0 -0.011754 0 2650 
443 1 -0.004264 0.00559976 0.013262 0.000233 0 -0.011754 0 2650 
192 1 -0.009107 0.00676476 0.013183 0.000233 0 -0.011754 0 2650 
9 1 -0.00166064 0.00128157 0.0149299 0.000233 0.00683895 -0.0120635 0.0025543 2650 
311 1 -0.002572 0.00261976 0.015752 0.000233 0 -0.011754 0 2650 
419 1 -0.000541056 0.0029712 0.0155491 0.001312 -0.00457888 -0.00621977 -0.00139028 2650 
484 1 -0.000432045 0.00619738 0.0146128 0.001312 0.0411284 0.0139459 0.00815566 2650 
446 1 -0.000353 0.00890176 0.015695 0.000847 0 -0.011754 0 2650 
430 1 -0.000796808 0.020419 0.0162957 0.000233 -0.0805808 0.0402882 0.061722 2650 
42 1 -0.00868554 0.0756283 0.00458188 0.001312 -0.116147 0.17766 -0.0102211 2650 
453 1 0.0067737 -0.00238734 -0.0684291 0.000233 -3.75236 -0.215288 -0.375898 2650 
436 1 0.0123895 -0.051376 -0.0670195 0.000847 -6.71082 0.10681 -1.25214 2650 
367 1 0.000366371 -0.0410921 -0.0677022 0.001312 -5.72786 0.169692 -0.0318681 2650 
272 1 0.0111812 -0.0337174 -0.0678474 0.000233 -4.59386 0.511013 -0.740817 2650 
102 1 0.0135499 -0.0147603 -0.0674191 0.000233 -4.46244 -0.205568 -0.941421 2650 
346 1 0.0185957 -0.0427583 -0.0655441 0.000847 -5.19207 0.212948 -1.27379 2650 
508 1 0.0209698 -0.0260137 -0.0654788 0.000233 -5.20557 0.0350926 -1.56553 2650 
129 1 0.0279478 -0.0125286 -0.0628319 0.000233 -3.78067 -0.37325 -1.68849 2650 
340 1 0.0319691 -0.0204934 -0.0610547 8.4e-05 -5.39199 -0.346041 -2.8207 2650 
221 1 0.0463643 -0.025676 -0.0507851 0.000233 -3.08667 0.212572 -2.7541 2650 
300 1 0.0454772 -0.0183834 -0.0515996 0.000233 -4.66309 -0.378436 -4.11661 2650 
513 1 0.0466601 -0.0180364 -0.0496992 0.000847 -4.57643 -0.0856365 -4.2364 2650 
288 1 0.0475361 -0.0167978 -0.0499175 8.4e-05 -4.30974 -0.24136 -4.13305 2650 
44 1 0.0462738 -0.0157078 -0.0500608 0.000847 -4.50609 -0.0729332 -4.20133 2650 
64 1 0.0481216 -0.00567142 -0.0491241 0.000233 -4.25857 0.452007 -4.18093 2650 
190 1 0.0491633 -0.0559644 -0.0472042 0.000847 -3.73368 -0.108709 -3.88675 2650 
463 1 0.0501821 -0.0433856 -0.0461345 0.000847 -4.12939 -0.390811 -4.44211 2650 
490 1 0.0499311 -0.011827 -0.0473002 0.000233 -3.37719 -0.135997 -3.57223 2650 
230 1 0.0507707 -0.0166332 -0.0454898 0.000847 -4.20896 -0.042421 -4.71529 2650 
127 1 0.0545834 -0.0444352 -0.0418095 0.000233 -3.0995 -0.156652 -3.93123 2650 
138 1 0.053808 -0.036538 -0.0418248 0.000847 -4.63018 -0.0388593 -5.99683 2650 
171 1 0.0562724 -0.0286756 -0.0397831 8.4e-05 -2.32086 -0.400131 -3.28947 2650 
317 1 0.0572414 -0.0414761 -0.0368988 0.000847 -3.15421 0.278578 -4.85912 2650 
411 1 0.0572969 -0.0290313 -0.0369093 0.000847 -3.87518 0.219287 -6.02064 2650 
181 1 0.0608854 -0.0139934 -0.031856 0.000233 -2.18481 -0.18195 -4.12363 2650 
498 1 0.060432 -0.0282504 -0.0315015 0.000847 -2.77807 -0.0309302 -5.6273 2650 
275 1 0.0625376 -0.0335383 -0.0289519 8.4e-05 -2.48943 -0.261727 -5.41425 2650 
18 1 0.0623223 -0.0341922 -0.0275849 0.000847 -2.1568 -0.271731 -4.88392 2650 
421 1 0.0644105 -0.0364093 -0.0222782 0.000847 -1.58398 -0.488081 -4.60801 2650 
401 1 0.0127008 -0.00391157 -0.0213565 0.000233 1.91447 -0.0872309 -3.21918 2650 
241 1 0.0656746 -0.0321599 -0.0182171 0.000847 -2.08771 -0.190796 -7.52995 2650 
349 1 0.067181 -0.0153941 -0.014755 0.000233 -0.885901 0.196073 -4.15935 2650 
141 1 0.002289 -0.00262324 -0.014794 0.000233 0 -0.011754 0 2650 
459 1 0.00724755 -0.00233519 -0.0140906 0.000847 -0.00311424 -0.00489007 0.00512044 2650 
465 1 0.0678059 -0.0158093 -0.0115531 0.000233 -0.936074 0.374614 -5.60083 2650 
520 1 0.00256 -0.00281524 -0.012598 0.000233 0 -0.011754 0 2650 
362 1 0.011937 -0.00138424 -0.011389 0.000233 0 -0.011754 0 2650 
134 1 0.00836923 -0.000932385 -0.0101641 0.001312 0.00252032 -0.0195034 -0.00723364 2650 
305 1 0.000856902 -0.00244589 -0.00925352 0.000847 0.00026799 -0.01275 -0.000913272 2650 
232 1 0.00459381 -0.00251226 -0.0089151 0.000233 -0.00936846 -0.0470955 0.0229902 2650 
337 1 0.0142857 -0.00313062 -0.00797827 0.000233 -0.00953981 -0.0672087 0.00741562 2650 
250 1 0.0117356 -0.00133566 -0.00813905 0.001312 -0.0171904 -0.0166685 0.00611425 2650 
389 1 0.011221 -3.22425e-05 -0.009451 0.000233 0 -0.011754 0 2650 
202 1 0.0140288 -0.00142833 -0.00664915 0.000847 -0.0084976 -0.00490325 0.0109606 2650 
316 1 0.00648667 -0.002493 -0.00512232 0.000847 0.0205692 -0.0260093 0.0561621 2650 
339 1 0.001696 -0.000651242 -0.005869 0.000233 0 -0.011754 0 2650 
268 1 0.0134363 -0.000547961 -0.00499474 0.000847 -0.0139345 -0.00911301 0.00473768 2650 
322 1 0.0686455 -0.0215117 -0.00418233 0.000233 -0.279396 -0.773043 -3.99172 2650 
297 1 0.009274 -0.00221324 -0.004716 0.000233 0 -0.011754 0 2650 
433 1 0.0143808 -0.00239804 -0.00172425 0.000847 -0.0162093 -0.0167517 0.00294017 2650 
393 1 0.00661755 -0.00120913 -0.00266606 0.001312 0.00509275 -0.0263925 -0.00621887 2650 
454 1 0.009343 -0.00313324 -0.001501 0.000233 0 -0.011754 0 2650 
34 1 0.00938043 -0.000637059 -0.000191366 0.000847 0.0440345 0.0139744 -0.0043686 2650 
434 1 0.002752 -0.00297824 0.000852 0.000847 0 -0.011754 0 2650 
396 1 0.005166 -0.00102924 0.00144 0.000847 0 -0.011754 0 2650 
480 1 0.00564 -0.000147242 0.00063 0.000233 0 -0.011754 0 2650 
485 1 0.0106172 -0.000456945 0.00128512 0.000847 0.0425908 -0.0166735 0.0197951 2650 
427 1 0.0125616 -0.00035096 0.000333111 0.000233 -0.000341839 -0.0116929 -0.000277084 2650 
19 1 0.0681417 -0.0572462 0.00131421 0.000847 0.18229 0.00188885 -7.12693 2650 
179 1 0.00788734 -0.0020471 0.00246839 0.000233 0.023119 -0.0137212 0.0469801 2650 
111 1 0.011904 -0.000326242 0.002793 0.000847 0 -0.011754 0 2650 
410 1 0.0680816 -0.0422121 0.00326682 0.000847 0.279006 -0.199189 -6.39538 2650 
120 1 0.00146225 -0.00379849 0.00402118 0.001312 0.215615 -0.0789162 0.59294 2650 
106 1 0.00181 -0.000431242 0.00562 8.4e-05 0 -0.011754 0 2650 
249 1 0.008036 -0.00136324 0.006254 8.4e-05 0 -0.011754 0 2650 
277 1 0.0119018 -0.00107878 0.00575694 0.000847 -0.0525552 0.00371334 0.0478449 2650 
320 1 0.00107815 -0.00159725 0.00770477 0.000847 0.0116108 -0.0151842 -0.0062654 2650 
193 1 0.0109613 -8.61152e-05 0.00672706 0.000233 -0.0291791 -0.0360762 0.0398798 2650 
439 1 0.002533 -0.00182324 0.008747 0.000233 0 -0.011754 0 2650 
10 1 0.00074 -0.000433242 0.009007 0.000233 0 -0.011754 0 2650 
481 1 0.000293 -0.00276624 0.009789 0.000233 0 -0.011754 0 2650 
385 1 0.00217185 -0.00257394 0.00952566 0.000847 0.00929607 -0.0170864 0.00372201 2650 
59 1 0.0425898 -0.0156587 0.0112795 0.000847 6.267 -0.998573 1.62896 2650 
21 1 0.0034943 -0.00321371 0.0120241 0.000847 0.00413412 -0.0100775 0.00481005 2650 
150 1 0.00525821 -0.00233875 0.0124499 0.000847 0.00821538 -0.0131908 -0.00614426 2650 
281 1 0.00909768 -0.000494522 0.0118903 0.000847 0.00284275 -0.0241211 0.00160549 2650 
32 1 0.00865429 -0.004285 0.01409 0.000847 0.255647 -0.470001 0.440516 2650 
451 1 0.00511859 -0.00158541 0.0139764 0.000847 0.0259585 -0.0088077 -0.0023762 2650 
231 1 0.00623 -0.00242624 0.014979 0.000233 0 -0.011754 0 2650 
78 1 0.00556699 -0.00537059 0.0184149 0.000233 0.419451 -0.438677 1.51018 2650 
194 1 0.0641683 -0.0385732 0.0247301 0.000233 2.54794 0.402236 -6.54422 2650 
334 1 0.0630156 -0.0322309 0.0259671 0.000847 2.75217 -0.042855 -6.63589 2650 
159 1 0.0627601 -0.0244129 0.025377 0.001312 2.69988 -0.0142414 -6.60888 2650 
247 1 0.0633139 -0.0233374 0.0268411 0.000233 2.14766 -0.0992939 -4.96598 2650 
491 1 0.0633766 -0.018217 0.0267151 0.000233 2.47377 -0.109478 -6.04131 2650 
458 1 0.0579004 -0.0606772 0.0350656 0.001312 4.57481 -0.0721243 -7.57759 2650 
500 1 0.0583695 -0.033381 0.0351845 0.000847 3.43634 -0.0846864 -5.70322 2650 
162 1 0.0567896 -0.0359918 0.0376789 0.000847 4.69778 -0.182193 -7.06151 2650 
380 1 0.0558512 -0.0327812 0.0382503 0.001312 4.86248 0.0246241 -7.04198 2650 
257 1 0.0554867 -0.0619861 0.0406225 0.000233 2.41605 0.0447932 -3.24577 2650 
461 1 0.051674 -0.0243376 0.0444406 0.000847 4.47478 -0.217115 -5.22111 2650 
488 1 0.0509931 -0.0229983 0.0452249 0.000847 4.71771 0.00155936 -5.32766 2650 
521 1 0.0505479 -0.0105708 0.0468475 8.4e-05 3.58924 -0.516098 -3.87767 2650 
294 1 0.047744 -0.0279832 0.0486376 0.000847 4.85122 -0.0852397 -4.78901 2650 
493 1 0.0479701 -0.0118742 0.0492728 0.000233 4.56963 0.00288482 -4.53157 2650 
205 1 0.0412856 -0.0217711 0.0549911 0.000233 4.04446 0.960814 -3.00207 2650 
258 1 0.0431649 -0.01037 0.0535308 0.000233 3.48864 -0.0314546 -2.84116 2650 
148 1 0.0365171 -0.0238163 0.0575489 0.000847 5.77355 -0.0268923 -3.67883 2650 
280 1 0.0162668 -0.00416142 0.0661847 0.000847 5.21366 0.054543 -1.28043 2650 
357 1 0.00269167 0.00298551 -0.0158146 0.000847 -0.0167271 0.0190644 0.000426107 2650 
153 1 0.000303542 0.00538503 -0.0165646 0.000233 -0.0399919 0.0268401 0.00224061 2650 
282 1 0.00400799 0.00197742 -0.0154608 0.000847 -0.025552 0.00578099 -0.00273425 2650 
356 1 0.00218519 0.00455623 -0.0152265 0.000847 0.000156151 -0.00988765 0.00033183 2650 
325 1 0.00270917 0.00576022 -0.0157542 0.000233 -0.0174712 0.030416 0.00592618 2650 
246 1 0.00409397 0.00548426 -0.0145604 0.000233 0.0138094 0.00560836 0.0193502 2650 
228 1 0.00532767 0.00750074 -0.0147206 0.000847 -0.034672 0.101881 -0.00517124 2650 
412 1 0.00724421 0.00681141 -0.0142747 0.000847 -0.00398943 -0.0108668 -0.00184589 2650 
94 1 0.002982 0.00913476 -0.014222 0.001312 0 -0.011754 0 2650 
366 1 0.005681 0.00807576 -0.015538 8.4e-05 0 -0.011754 0 2650 
82 1 0.00217935 0.00100552 -0.0139906 0.001312 -0.0124921 -0.00237755 -0.00339353 2650 
494 1 0.00292625 0.0024974 -0.0131445 0.000233 0.00774443 -0.0187431 0.0192459 2650 
177 1 0.0040704 0.00202634 -0.01374 0.000847 -0.0290921 0.0373484 0.00814618 2650 
386 1 0.00420253 0.00373128 -0.0136006 0.000847 -0.013092 0.0105003 0.00494827 2650 
342 1 0.00409 0.00650676 -0.013033 0.000847 0 -0.011754 0 2650 
12 1 0.00627 0.00688976 -0.013543 0.000233 0 -0.011754 0 2650 
207 1 0.007509 0.00929576 -0.013163 0.000233 0 -0.011754 0 2650 
444 1 0.000432 0.0101528 -0.014191 8.4e-05 0 -0.011754 0 2650 
397 1 0.00888364 0.0008242 -0.0125918 0.000847 2.47281e-05 -0.0117498 -1.66727e-05 2650 
110 1 0.0101956 4.94782e-05 -0.0112158 0.000847 0.00332668 -0.0110523 -0.00314649 2650 
287 1 0.000128303 0.00279614 -0.012491 0.000233 0.00707277 0.000687299 -0.00441923 2650 
67 1 0.00849955 0.00215726 -0.0118158 8.4e-05 0.0310471 0.0126302 0.0176102 2650 
91 1 8.06173e-05 0.00402697 -0.0113244 0.000233 -0.00292347 -0.00793016 -0.00296145 2650 
404 1 0.009844 0.00343276 -0.011142 0.000233 0 -0.011754 0 2650 
139 1 0.00369459 0.0050981 -0.0112353 0.000847 0.00619393 0.00838396 -0.00954173 2650 
210 1 0.0116612 0.00512728 -0.0116073 8.4e-05 -0.00850035 -0.00668207 -0.00752471 2650 
422 1 0.000286061 0.00780527 -0.0121674 0.000847 0.0138373 0.0211615 0.00769902 2650 
109 1 0.005483 0.00696876 -0.011097 0.000847 0 -0.011754 0 2650 
212 1 0.00326578 0.00804982 -0.0111836 0.001312 1.50924e-05 -0.0117336 -1.14626e-05 2650 
273 1 0.000843 0.00985476 -0.012177 0.000233 0 -0.011754 0 2650 
155 1 0.000736281 0.000665283 -0.0105947 0.000233 -0.0501494 -0.0200846 0.0160825 2650 
175 1 0.00333938 0.000820453 -0.010271 0.000847 -0.0219983 -0.0295742 0.0159874 2650 
93 1 0.0126692 0.000403313 -0.0100228 8.4e-05 -0.0111448 -0.00926872 0.00559827 2650 
522 1 0.00679 0.00192076 -0.01028 8.4e-05 0 -0.011754 0 2650 
157 1 0.006689 0.00252776 -0.009595 0.000233 0 -0.011754 0 2650 
144 1 0.000616 0.00356776 -0.009639 0.000233 0 -0.011754 0 2650 
217 1 0.00508918 0.00357052 -0.0105944 0.000847 -0.0333386 0.0154315 0.0376371 2650 