ITEM: TIMESTEP
21917491
ITEM: NUMBER OF ATOMS
473
ITEM: BOX BOUNDS ff ff ff
-0.15 0.15
-0.15 0.15
-0.15 0.15
ITEM: ATOMS id type x y z radius vx vy vz density 
11 1 -0.00177018 -0.0389861 -0.0687426 0.000233 -9.44738 0.156723 0.246276 2650 
397 1 -0.00369415 -0.0313649 -0.0680547 0.000847 -10.2512 -0.0580442 0.557122 2650 
110 1 -0.00340757 -0.0294678 -0.0680708 0.000847 -10.28 -0.0489182 0.51541 2650 
327 1 -0.0122399 -0.0473377 -0.0678299 8.4e-05 -10.8896 1.13975 1.96792 2650 
160 1 -0.00146241 -0.0304081 -0.0676805 0.001312 -10.1991 -0.0707547 0.215037 2650 
284 1 -0.0137712 -0.0191876 -0.0673824 0.000233 -7.84815 -0.0755106 1.59833 2650 
69 1 -0.00902887 -0.0195624 -0.0670876 0.001312 -8.95173 -0.0845161 1.25646 2650 
307 1 -0.0128097 -0.0188991 -0.066945 0.000847 -7.76956 -0.116543 1.50998 2650 
172 1 -0.00649198 -0.0187114 -0.0673652 0.001312 -9.01755 0.0651556 0.84018 2650 
95 1 -0.00292108 -0.0183711 -0.0675851 0.001312 -9.5377 0.0741709 0.414853 2650 
54 1 -0.0130925 -0.0172572 -0.0676658 8.4e-05 -8.45861 -1.34954 1.62881 2650 
145 1 -0.0133123 -0.00231013 -0.0676145 8.4e-05 -8.55374 0.0641033 1.68491 2650 
304 1 -0.0196823 -0.0397029 -0.0652598 0.000847 -10.3074 -0.101808 3.10821 2650 
169 1 -0.0213895 -0.0348875 -0.0653525 0.000233 -10.0459 0.286078 3.28795 2650 
270 1 -0.0212533 -0.00392912 -0.0653973 0.000233 -9.24058 -0.175261 2.98594 2650 
247 1 -0.0234236 -0.0341974 -0.0646509 0.000233 -10.268 -0.406226 3.72049 2650 
318 1 -0.0282729 -0.0492508 -0.0620317 0.000847 -9.7429 -0.0277837 4.44056 2650 
466 1 -0.0289842 -0.0128141 -0.0623745 0.000233 -6.84285 0.488117 3.18059 2650 
448 1 -0.0341637 -0.0305417 -0.0589736 0.000847 -8.49685 -0.279469 4.92777 2650 
431 1 -0.0345768 -0.00878427 -0.0596189 8.4e-05 -7.75506 -0.966486 4.48841 2650 
13 1 -0.0468566 -0.0317759 -0.0577325 8.4e-05 -10.6911 -0.534534 3.24013 2650 
434 1 -0.0378701 -0.0335181 -0.0566633 0.000847 -8.10035 -0.187583 5.37747 2650 
229 1 -0.0399367 -0.027763 -0.0552302 0.000847 -7.93098 0.21822 5.73823 2650 
339 1 -0.0391239 -0.0105403 -0.0565537 0.000233 -6.87443 0.0224369 4.74914 2650 
50 1 -0.041592 -0.0269692 -0.0547616 0.000233 -7.76379 0.50301 5.89581 2650 
458 1 -0.0432324 -0.061488 -0.0520955 0.001312 -8.18314 -3.46113e-10 6.79093 2650 
381 1 -0.0433845 -0.0340662 -0.0525654 0.000847 -7.79664 -0.0334039 6.40675 2650 
409 1 -0.0443219 -0.0533667 -0.0517763 0.000847 -8.33358 0.234496 7.08664 2650 
46 1 -0.0444909 -0.0473864 -0.0516328 0.000847 -8.12376 -0.0011934 7.00063 2650 
78 1 -0.0463972 -0.0381931 -0.0507551 0.000233 -7.96672 -0.00107511 7.28257 2650 
513 1 -0.0453697 -0.0374278 -0.0508618 0.000847 -7.98951 0.000203517 7.12679 2650 
190 1 -0.0462874 -0.0618117 -0.0500292 0.000847 -7.85854 0.000364637 7.27076 2650 
367 1 -0.0452828 -0.055559 -0.0503172 0.001312 -8.02949 -0.0782782 7.22928 2650 
317 1 -0.0471092 -0.0538728 -0.0492536 0.000847 -7.89312 -0.118128 7.54187 2650 
20 1 -0.0459678 -0.0484784 -0.0503214 0.000847 -7.90358 0.00931691 7.21978 2650 
445 1 -0.046419 -0.0417746 -0.049276 0.001312 -7.74022 6.86093e-05 7.29145 2650 
185 1 -0.0457841 -0.0392979 -0.0498659 0.001312 -7.83289 7.54437e-05 7.19173 2650 
306 1 -0.0462906 -0.0309931 -0.0500269 0.000847 -7.43745 0.0559296 6.87902 2650 
231 1 -0.0473293 -0.0298589 -0.0498872 0.000233 -7.09651 0.108395 6.72902 2650 
490 1 -0.0473833 -0.0111009 -0.0498354 0.000233 -6.13817 -0.104672 5.83306 2650 
23 1 -0.0485484 -0.0624452 -0.0487053 0.000233 -7.65058 1.74488e-05 7.62594 2650 
19 1 -0.0477145 -0.0617598 -0.04867 0.000847 -7.64522 0.000219699 7.49511 2650 
497 1 -0.0481755 -0.0465751 -0.0475645 0.001312 -7.44848 -0.024258 7.54487 2650 
33 1 -0.0486239 -0.0430495 -0.0477626 0.000847 -7.51995 0.0139849 7.65546 2650 
197 1 -0.0495011 -0.0413704 -0.04795 8.4e-05 -7.82087 0.0330666 8.07268 2650 
316 1 -0.0498838 -0.061873 -0.0464436 0.000847 -7.29566 0.00037864 7.83604 2650 
420 1 -0.0499688 -0.0476404 -0.0463596 0.000847 -7.28917 0.010781 7.85655 2650 
376 1 -0.0506673 -0.0260715 -0.046493 0.000233 -6.53096 -0.149068 7.1347 2650 
146 1 -0.0487685 -0.0246094 -0.0469519 0.001312 -6.52545 -0.0560045 6.77567 2650 
278 1 -0.0511038 -0.0617637 -0.0450978 0.000847 -7.08355 0.00260114 8.02687 2650 
159 1 -0.0511698 -0.0440003 -0.0443341 0.001312 -6.95879 -0.00174003 8.03198 2650 
433 1 -0.0514313 -0.0260884 -0.0447222 0.000847 -6.50013 0.0626638 7.47112 2650 
443 1 -0.0524129 -0.0254619 -0.0445168 0.000233 -6.47574 0.093016 7.61303 2650 
116 1 -0.0525759 -0.0155946 -0.0443391 0.000233 -6.6274 0.646281 7.85889 2650 
522 1 -0.0519111 -0.00710528 -0.0453303 8.4e-05 -5.21133 0.210859 5.96636 2650 
499 1 -0.0527711 -0.0262309 -0.0431335 0.000847 -6.27371 0.0471335 7.67157 2650 
485 1 -0.0533765 -0.0422278 -0.0423963 0.000847 -6.68421 -0.128977 8.41519 2650 
369 1 -0.0557306 -0.0545071 -0.0392441 0.000847 -5.93597 0.203688 8.42674 2650 
248 1 -0.0569198 -0.024163 -0.0385905 0.000233 -4.81211 0.113229 7.11291 2650 
235 1 -0.0593323 -0.0367331 -0.0347637 0.000233 -5.17325 0.363623 8.82403 2650 
18 1 -0.0591285 -0.0318376 -0.0338987 0.000847 -5.19198 -0.138549 9.05743 2650 
332 1 -0.0564453 -0.00879126 -0.0327714 0.000847 -1.13309 -0.354869 2.66852 2650 
171 1 -0.0619451 -0.0215896 -0.0302184 8.4e-05 -3.89399 -1.36309 7.98543 2650 
402 1 -0.0615809 -0.0180248 -0.0306342 0.000233 -3.6454 0.167055 7.33764 2650 
180 1 -0.0622729 -0.0160959 -0.0292044 0.000233 -3.6893 -0.0179887 7.8619 2650 
346 1 -0.062846 -0.0618625 -0.0263766 0.000847 -4.14184 -0.00669171 9.86851 2650 
452 1 -0.0639157 -0.0499149 -0.0253958 0.000233 -3.92149 0.100393 9.87303 2650 
245 1 -0.0640841 -0.00478527 -0.0249321 0.000233 -2.18 -0.32889 5.64811 2650 
88 1 -0.0660737 -0.0130867 -0.0189907 0.000233 -2.60094 0.0350218 8.82005 2650 
496 1 -0.0659101 -0.00423795 -0.0201031 8.4e-05 -2.50906 0.450939 8.18198 2650 
274 1 -0.0665578 -0.00792257 -0.0171735 0.000233 -2.0997 0.388083 7.88377 2650 
477 1 -0.0672136 -0.0108643 -0.0141978 0.000233 -1.81152 -0.0889739 8.8421 2650 
461 1 -0.0671743 -0.0455407 -0.0115274 0.000847 -1.79563 0.0283338 10.4631 2650 
128 1 -0.0679082 -0.0379137 -0.0108309 0.000233 -1.68547 0.661359 10.5575 2650 
384 1 -0.0125862 -0.00106583 -0.00998479 0.000847 0.0206715 -0.00151962 -0.0291694 2650 
469 1 -0.0118039 -0.000583009 -0.0106114 0.000233 0.0278279 0.00160796 -0.0228433 2650 
305 1 -0.0675791 -0.0461461 -0.0088428 0.000847 -1.38792 -0.0701369 10.6093 2650 
44 1 -0.0676662 -0.0437347 -0.0081639 0.000847 -1.27956 0.00542325 10.606 2650 
298 1 -0.0683502 -0.0367733 -0.00755112 0.000233 -1.15433 0.0341263 10.4465 2650 
131 1 -0.0683703 -0.0271506 -0.00736855 0.000233 -1.1439 -0.406628 10.6118 2650 
173 1 -0.0674937 -0.0535262 -0.00525783 0.001312 -0.842564 -0.00466498 10.8213 2650 
133 1 -0.00373473 -0.000682084 -0.00599643 0.001312 -0.0021989 -0.00307358 0.00294343 2650 
322 1 -0.0687039 -0.0433067 -0.00305229 0.000233 -0.48892 0.214105 10.9898 2650 
202 1 -0.00133101 -0.000427492 -0.00331075 0.000847 -0.000325259 -0.00498031 0.00775896 2650 
351 1 -0.0687416 -0.0121223 -0.00209066 0.000233 -0.269148 0.411133 8.43677 2650 
45 1 -0.0118156 -0.00011302 -0.00306542 0.000847 -0.0083566 0.00829924 -0.0706109 2650 
253 1 -0.0681642 -0.0481309 -0.000473355 0.000847 -0.0742938 0.0151972 10.6966 2650 
150 1 -0.0681572 -0.0472728 0.00122203 0.000847 0.192516 0.0525061 10.6955 2650 
100 1 -0.0681595 -0.0450123 0.00105529 0.000847 0.163267 -0.0898023 10.7599 2650 
122 1 -0.068133 -0.0494205 0.00218307 0.000847 0.34198 0.0224811 10.6886 2650 
462 1 -0.0157586 -0.00200984 0.00313457 0.000847 -0.000259904 -0.00453423 -0.0122608 2650 
277 1 -0.0137087 -0.0019167 0.00195293 0.000847 0.00338805 0.00569524 -0.0266496 2650 
421 1 -0.0680507 -0.0502038 0.00400405 0.000847 0.628951 -0.000100466 10.6893 2650 
308 1 -0.0680716 -0.0484911 0.00366499 0.000847 0.575686 -0.000104487 10.6924 2650 
470 1 -0.008539 -0.00306257 0.004033 8.4e-05 0 -0.011754 0 2650 
374 1 -0.006913 -0.00315557 0.00361 0.000233 0 -0.011754 0 2650 
166 1 -0.0685722 -0.0507575 0.00531629 0.000233 0.837479 -0.0079421 10.8029 2650 
500 1 -0.0679345 -0.0498667 0.00566005 0.000847 0.889065 -4.63274e-05 10.671 2650 
449 1 -0.0679624 -0.0482052 0.00533107 0.000847 0.837379 -6.47521e-05 10.6753 2650 
498 1 -0.0679576 -0.0394303 0.00527893 0.000847 0.807299 0.134124 10.3923 2650 
269 1 -0.0677138 -0.0465248 0.00789868 0.000847 1.24214 -0.097668 10.6476 2650 
415 1 -0.0674219 -0.0469726 0.0136114 0.000233 2.16728 -0.0785019 10.7355 2650 
487 1 -0.0667635 -0.0345835 0.0136986 0.000847 2.15623 0.0793106 10.5087 2650 
350 1 -0.0671644 -0.051901 0.0148024 0.000233 2.26771 -0.0634742 10.288 2650 
313 1 -0.00678816 -0.00534277 0.016228 0.000233 -0.389391 -1.11976 0.768161 2650 
101 1 -0.0661947 -0.0109251 0.0186602 0.000233 2.5257 -0.110652 8.9776 2650 
127 1 -0.0659283 -0.0437435 0.0195934 0.000233 3.22236 -0.109114 10.8391 2650 
488 1 -0.0650143 -0.0392689 0.0204704 0.000847 3.17153 0.0901598 10.0718 2650 
375 1 -0.0641731 -0.0222332 0.0247096 0.000233 3.16381 0.35044 8.16355 2650 
360 1 -0.056927 -0.0362815 0.0374756 0.000847 5.92375 -0.10562 8.99945 2650 
81 1 -0.0552778 -0.0356036 0.0390756 0.001312 6.14522 0.0255118 8.69486 2650 
142 1 -0.0571894 -0.0188748 0.0381859 0.000233 4.26069 0.321064 6.35615 2650 
290 1 -0.0540892 -0.0464363 0.0414691 0.000847 6.51481 0.00478309 8.49745 2650 
47 1 -0.0537509 -0.0448381 0.0419172 0.000847 6.59035 0.00197627 8.45043 2650 
157 1 -0.0540811 -0.0429807 0.0424796 0.000233 6.62929 0.066258 8.44084 2650 
264 1 -0.0508153 -0.0560349 0.0454241 0.000847 7.13745 -0.00109189 7.98452 2650 
521 1 -0.0525315 -0.00805864 0.0446124 8.4e-05 4.96564 0.143513 5.86253 2650 
148 1 -0.0489654 -0.0465082 0.0474311 0.000847 7.45105 0.00658569 7.69224 2650 
60 1 -0.0502936 -0.0378933 0.0459973 0.000847 6.70963 0.380501 7.3329 2650 
338 1 -0.049482 -0.0397569 0.0477605 0.000233 7.24328 0.131697 7.50353 2650 
167 1 -0.0477252 -0.0487599 0.0495283 0.000233 7.81501 -0.0475984 7.53042 2650 
32 1 -0.0472327 -0.0415569 0.0491506 0.000847 7.31449 -0.181212 7.02429 2650 
302 1 -0.0411217 -0.0386182 0.0537763 0.001312 7.91994 0.269034 6.08192 2650 
411 1 -0.0428782 -0.0371182 0.0529812 0.000847 8.40708 -0.207348 6.80512 2650 
104 1 -0.0432492 -0.0297457 0.0534583 0.000233 4.17604 0.691184 3.41502 2650 
303 1 -0.0416732 -0.0309606 0.0539485 0.000847 8.06645 -0.175563 6.22068 2650 
378 1 -0.0393967 -0.0325831 0.0563595 0.000233 8.71486 0.068232 6.09243 2650 
473 1 -0.0352335 -0.0506558 0.0583541 0.000847 9.1677 0.0235068 5.53522 2650 
396 1 -0.0337896 -0.0502675 0.0592005 0.000847 9.05228 0.0285594 5.16754 2650 
49 1 -0.0317101 -0.0146411 0.061025 0.000233 6.91982 0.0398725 3.5929 2650 
468 1 -0.0302359 -0.0248991 0.0617618 0.000233 8.04759 -0.193684 3.93109 2650 
93 1 -0.0286758 -8.39896e-05 0.0626667 8.4e-05 7.07003 0.00100464 3.24742 2650 
311 1 -0.0244502 -0.0291808 0.0642725 0.000233 8.18175 0.145935 3.11283 2650 
341 1 -0.0115875 -0.0592757 0.066696 0.001312 10.4729 0.00432551 1.81943 2650 
239 1 -0.0142226 -0.0560481 0.0666554 0.000847 10.4437 -0.0511353 2.22884 2650 
334 1 -0.00910661 -0.0541383 0.0675501 0.000847 10.5869 -0.0195114 1.42716 2650 
323 1 -0.0135173 -0.0517102 0.0674287 0.000233 10.4403 0.0199952 2.09514 2650 
294 1 -0.010888 -0.0524532 0.0672878 0.000847 10.5732 -0.0125792 1.71096 2650 
162 1 -0.0130352 -0.0508649 0.0669044 0.000847 10.5036 -0.0153119 2.0464 2650 
111 1 -0.0150745 -0.0126878 0.0664619 0.000847 9.38502 -0.305553 2.11071 2650 
92 1 -0.0126993 -0.0107822 0.0675852 0.000233 8.61711 0.156697 1.61785 2650 
429 1 -0.0135776 -0.00890715 0.0674085 0.000233 7.29067 -0.16225 1.51467 2650 
460 1 -0.00411515 -0.049629 0.0680446 0.000847 10.7435 -0.0174412 0.650936 2650 
138 1 -0.00107108 -0.0477345 0.0681637 0.000847 10.646 0.102278 0.165664 2650 
41 1 -0.00778918 -0.00615522 0.068475 8.4e-05 8.32809 0.0231432 0.929571 2650 
244 1 -0.00429939 -0.0047236 0.0686315 0.000233 3.22827 -0.0197251 0.121845 2650 
212 1 -0.000647562 0.00287947 -0.0145462 0.001312 -0.000378321 -0.00288226 -0.00336117 2650 
68 1 -0.00360408 0.00594312 -0.0143424 0.001312 0.00656765 0.00723405 -0.0034973 2650 
357 1 -0.00447806 0.0108949 -0.0150651 0.000847 -0.00356262 0.00740695 0.00116372 2650 
399 1 -0.00735824 0.0215157 -0.014423 0.000847 0.0136075 0.0155939 -0.00835845 2650 
359 1 -0.0040042 0.0400745 -0.0147366 0.000847 -0.0105408 0.0538414 0.0225509 2650 
266 1 -0.00393726 0.00136407 -0.0130197 0.000847 -0.00164881 -0.00742592 -0.00189738 2650 
444 1 -0.00843174 0.00743979 -0.0127685 8.4e-05 -0.00260039 0.00547496 0.00633282 2650 
501 1 -0.00603902 0.00909993 -0.0142023 0.000847 0.00271066 0.00783714 0.00249064 2650 
309 1 -0.00823086 0.0140986 -0.0129799 0.000233 -0.0123102 0.020136 -0.0038176 2650 
30 1 -0.00424612 0.029441 -0.0141183 0.001312 -0.0222447 0.0408615 0.0185442 2650 
377 1 -0.00529823 0.0454029 -0.0136257 0.000233 -0.00308755 0.0650231 0.0279133 2650 
16 1 -0.00527715 0.0488704 -0.0137892 0.001312 -0.00372561 0.0412357 0.00325068 2650 
392 1 -0.00794847 8.74362e-05 -0.0114352 8.4e-05 -0.00068915 -0.00349539 -0.00139054 2650 
282 1 -0.0112164 0.00906842 -0.0114491 0.000847 -0.00822499 0.0108293 0.0093945 2650 
76 1 -0.00726355 0.0147692 -0.0124916 0.000233 -0.00578221 0.011958 0.00483197 2650 
115 1 -0.0104539 0.0170391 -0.011943 0.000233 0.00203478 0.00995688 0.00306778 2650 
2 1 -0.00514359 0.00741522 -0.010918 0.001312 0.00400868 0.00487374 0.00130235 2650 
439 1 -0.00918981 0.0103976 -0.0106303 0.000233 -0.0191289 -0.00266548 -0.0366741 2650 
386 1 -0.00593927 0.0101779 -0.0110327 0.000847 -0.00685813 0.0101085 -0.000664392 2650 
273 1 -0.00354548 0.0256189 -0.00969612 0.000233 -0.00788291 0.0124072 0.00594868 2650 
371 1 -0.0128099 0.0650366 -0.0106517 0.000847 -0.022619 0.0506397 0.0157325 2650 
348 1 -0.0114876 0.00483057 -0.00930342 0.000233 -0.00855875 -0.000417391 0.0118261 2650 
225 1 -0.00462428 0.0102095 -0.00896593 0.001312 -0.00239701 0.00874648 -0.00124216 2650 
471 1 -0.00938489 0.011341 -0.00834087 0.001312 -0.0317419 0.0139249 -0.0229144 2650 
91 1 -0.012863 0.0290484 -0.00819711 0.000233 -0.011194 0.0308527 0.0129891 2650 
15 1 -0.00791123 0.0332517 -0.00927944 0.001312 -0.00235194 0.0225075 0.0056031 2650 
147 1 -0.00665409 0.00292385 -0.00699918 0.001312 -0.00155224 -0.00287693 0.000873515 2650 
22 1 -0.0118334 0.00645713 -0.00727072 0.000233 -0.0456577 -0.0598346 -0.031923 2650 
94 1 -0.0106724 0.00881498 -0.00756721 0.001312 -0.0121466 0.00450737 0.00515639 2650 
37 1 -0.0150853 0.0240721 -0.00739817 0.000233 -0.00813517 0.0401473 0.0145466 2650 
177 1 -0.0144362 0.0261098 -0.00698858 0.000847 -0.0114517 0.0203964 0.00745206 2650 
77 1 -0.00980431 0.0409328 -0.00704302 0.000233 0.00669575 0.0236814 0.0157679 2650 
31 1 -0.00691573 0.0539544 -0.0068107 0.000847 0.0128996 0.0556905 -0.00624527 2650 
237 1 -0.013279 0.00152344 -0.00500865 0.001312 0.000726467 -0.00255363 0.00910594 2650 
512 1 -0.0111072 0.00184002 -0.00505921 0.000847 0.00181701 0.00186869 0.0122245 2650 
502 1 -0.0150905 0.02365 -0.00564186 0.000847 -0.000230871 0.00792682 0.00455104 2650 
178 1 -0.00950659 0.0224325 -0.00572243 0.000847 -0.00942264 0.0138974 -0.0144999 2650 
331 1 -0.00449466 0.033601 -0.0061191 0.000847 0.00840645 0.0232594 0.00867855 2650 
66 1 -0.0114082 0.059645 -0.00619252 0.000233 0.00347261 0.0341619 0.00411013 2650 
407 1 -0.00326589 0.00133926 -0.00431501 0.000847 -0.00271156 -0.00263393 0.00241233 2650 
206 1 -0.000566401 0.0011635 -0.00344706 0.000233 0.000200844 -0.0022057 -0.0101649 2650 
158 1 -0.0108205 0.00378539 -0.00377207 8.4e-05 0.00188877 -0.00284778 0.00557992 2650 
17 1 -0.00407529 0.00336112 -0.0037474 0.000847 -0.00529384 -0.000624951 0.00099193 2650 
149 1 -0.00604416 0.0105904 -0.00358412 0.000847 0.00533574 0.00120564 0.000572163 2650 
373 1 -0.0153706 0.0114503 -0.00366926 0.000847 0.000337109 0.0216316 -0.00631221 2650 
199 1 -0.0150509 0.0262596 -0.00412761 0.001312 -0.00886015 0.0176686 0.00205545 2650 
198 1 -0.0151334 0.00608132 -0.00213093 0.001312 -0.00588684 -0.00188959 0.0126317 2650 
387 1 -0.00857635 0.02167 -0.00168186 0.000233 0.0389518 0.0686426 -0.046664 2650 
204 1 -0.0149807 0.0235635 -0.00251628 0.000847 0.00121054 0.0124535 0.0137872 2650 
391 1 -0.0159443 0.0277589 -0.00263708 0.000233 0.00226461 0.0200531 0.0160982 2650 
355 1 -0.0137487 0.00884411 -0.00116826 0.000847 0.00437228 0.0104751 -0.0043935 2650 
217 1 -0.0151038 0.038196 -0.000298229 0.000847 0.00743731 0.032403 0.00336557 2650 
211 1 -0.00576659 0.038084 -0.00139509 0.001312 -0.0377898 0.0415283 0.00180384 2650 
72 1 -0.00393878 0.0656567 -0.00113704 0.000847 0.00694298 0.0370303 0.0147661 2650 
515 1 -0.0133214 0.0114613 0.000480037 0.000847 0.000192831 0.00432954 -0.00558707 2650 
121 1 -0.0095401 0.0115673 0.000605566 0.001312 0.0113437 0.00558656 0.00250698 2650 
7 1 -0.0111731 0.0309614 0.000590012 0.000847 0.00509742 0.0248497 0.013646 2650 
482 1 -0.016273 0.0650184 0.00108671 0.000233 -0.00272 0.0425188 0.0154078 2650 
450 1 -0.00516488 0.00281925 0.00300695 0.000847 0.0141697 0.00366662 0.00769839 2650 
467 1 -0.0154713 0.00507237 0.00297113 0.000233 0.00666977 0.00283463 0.00629942 2650 
345 1 -0.000486509 0.00656974 0.00224288 0.000847 0.0102698 0.00604929 0.00457735 2650 
156 1 -0.00872228 0.0117795 0.00243616 0.000233 0.0117738 0.00676262 0.00472854 2650 
186 1 -0.00870106 0.00438247 0.00367953 0.001312 0.0110093 -0.000918863 0.00524694 2650 
5 1 -0.00702823 0.0141991 0.00370137 0.000847 0.0159354 0.00855543 0.0196475 2650 
457 1 -0.00396627 0.0243599 0.00355999 8.4e-05 0.00209197 0.0125772 -0.0227291 2650 
511 1 -0.0139513 0.0464709 0.00357466 0.000847 0.00146079 0.0210985 -0.0127999 2650 
440 1 -0.00773599 0.00143147 0.00525851 0.000233 0.00893327 0.00123303 0.0100401 2650 
301 1 -0.00570471 0.00394178 0.00519793 8.4e-05 -0.00542456 -0.000958437 0.00851575 2650 
214 1 -0.00785109 0.0252765 0.00621786 0.000847 0.0140272 0.0148951 0.00243728 2650 
413 1 -5.05898e-05 0.0289876 0.0060738 0.000233 0.0212736 0.0189692 -0.00433326 2650 
299 1 -0.0144188 0.0383753 0.00629504 0.000233 -0.0415925 0.0521106 0.00250536 2650 
63 1 -0.00315394 0.066909 0.00612593 0.000233 0.00544067 0.0487134 -0.0167697 2650 
168 1 -0.00760033 0.00463327 0.00735642 0.000233 0.010374 0.000533782 0.0120746 2650 
291 1 -0.00127667 0.00765623 0.00633899 0.000847 0.000368443 -0.000878557 -0.00367841 2650 
226 1 -0.00359147 0.028793 0.00698081 0.000847 0.00127411 0.0241147 0.0153454 2650 
21 1 -0.00348948 0.0308748 0.00706534 0.000847 -0.0069999 0.0351848 0.0278242 2650 
518 1 -0.0141594 0.00557552 0.00843239 0.000233 -0.00455624 0.0103112 -0.00628034 2650 
451 1 -0.0087082 0.00865802 0.00856084 0.000847 0.0101382 0.00361366 0.00843172 2650 
213 1 -0.0137832 0.0369724 0.00832156 0.000847 0.00850695 0.00646293 0.0300841 2650 
262 1 -0.0126371 0.0599364 0.00881879 8.4e-05 0.016947 0.0454576 0.00941551 2650 
153 1 -0.0126949 0.0293957 0.0103061 0.000233 0.0193183 0.0172264 0.0222012 2650 
222 1 -0.0121071 0.0319144 0.010354 0.000233 0.0205794 0.0022401 -0.00426972 2650 
503 1 -0.011486 0.0343795 0.00962074 0.000233 0.0275154 0.0239428 0.00958867 2650 
80 1 -0.00671828 0.0335171 0.0108592 8.4e-05 -0.0125032 0.0188644 0.0118682 2650 
164 1 -0.00355379 0.00198261 0.0125512 0.000847 0.0199672 0.00075341 -0.00413055 2650 
112 1 -0.00308237 0.0176242 0.0121984 0.000847 0.0214954 0.016828 -0.00423595 2650 
390 1 -0.00228326 0.014341 0.0131189 0.000233 -0.00350245 0.00582576 -0.00125219 2650 
29 1 -0.00176212 0.0206307 0.0129333 0.001312 0.00949452 0.0217713 0.0254281 2650 
79 1 -0.00333521 0.0353876 0.0134084 0.000233 0.024023 0.0379512 -0.00347318 2650 
472 1 -0.000400281 0.0196209 0.0146433 0.000847 -0.018563 0.0235647 -0.00739536 2650 
135 1 -0.000534771 0.0292033 0.0155362 0.000847 0.0134815 0.0106559 8.06604e-05 2650 
510 1 -0.00106328 0.0321418 0.0154974 0.001312 -0.0176331 0.0316852 -0.00746164 2650 
437 1 -0.00843427 0.0910397 0.00461395 0.000847 -0.00719255 0.0835002 -0.0252935 2650 
319 1 -0.00239324 0.114366 0.0121414 0.000847 0.00321502 0.103152 0.00477754 2650 
320 1 0.00498646 -0.0478538 -0.067975 0.000847 -10.6776 0.000500037 -0.783287 2650 
288 1 0.00819048 -0.0449 -0.0684314 8.4e-05 -10.3217 0.318427 -1.23729 2650 
208 1 0.00963868 -0.0399337 -0.0680892 0.000233 -10.3027 -0.0657754 -1.45876 2650 
36 1 0.00477035 -0.0303022 -0.068601 0.000233 -9.22688 1.30957 -0.647442 2650 
141 1 0.00555077 -0.0291623 -0.0685402 0.000233 -10.6046 0.0352447 -0.859283 2650 
446 1 0.00271771 -0.0256911 -0.068101 0.000847 -6.81198 -0.27401 -0.294054 2650 
242 1 0.00516502 -0.019089 -0.0679602 0.000847 -8.5998 -0.31884 -0.636705 2650 
366 1 0.0112939 -0.0138389 -0.0679923 8.4e-05 -10.2181 0.40483 -1.6996 2650 
53 1 0.00693586 -0.0123837 -0.0684186 0.000233 -8.5553 0.567628 -0.8738 2650 
67 1 0.00241398 -0.00678578 -0.0688719 8.4e-05 -8.48017 -0.271895 -0.284529 2650 
483 1 0.00940341 -0.00359298 -0.0682699 8.4e-05 -8.68989 -0.191639 -1.19981 2650 
113 1 0.0100424 -0.0505583 -0.0674182 0.000847 -10.604 -0.00811066 -1.57968 2650 
330 1 0.0124949 -0.0473141 -0.0670124 0.000847 -10.4744 -0.0402237 -1.95305 2650 
134 1 0.00405336 -0.0448675 -0.067575 0.001312 -10.6148 0.000265838 -0.636716 2650 
486 1 0.0122822 -0.0454727 -0.0670511 0.000847 -10.4927 -0.0730232 -1.92213 2650 
364 1 0.0108608 -0.0322116 -0.0679029 0.000233 -9.75138 0.054802 -1.55926 2650 
281 1 0.00820308 -0.0315206 -0.0676614 0.000847 -10.3349 -0.0570742 -1.25412 2650 
70 1 0.010661 -0.0311409 -0.0673226 0.000847 -10.251 0.100341 -1.62874 2650 
152 1 0.0116526 -0.0291609 -0.0671528 0.000847 -9.79949 -0.0679447 -1.72694 2650 
249 1 0.0124935 -0.0227117 -0.0677776 8.4e-05 -8.86506 -1.04275 -1.61996 2650 
219 1 0.0172482 -0.0221801 -0.0665743 0.000233 -8.06153 -0.592373 -2.08418 2650 
343 1 0.0153507 -0.00798262 -0.0664097 0.000847 -8.38675 -0.0824087 -1.95058 2650 
189 1 0.017109 -0.0523513 -0.0659836 0.000847 -10.3643 -0.00280923 -2.6874 2650 
380 1 0.0156711 -0.0496287 -0.0658711 0.001312 -10.3501 -0.00122139 -2.46241 2650 
241 1 0.0175392 -0.0507158 -0.0658723 0.000847 -10.3475 -0.00100309 -2.75513 2650 
489 1 0.0192362 -0.0486978 -0.0654014 0.000847 -10.273 0.00629437 -3.02156 2650 
315 1 0.0154136 -0.0456101 -0.0659327 0.001312 -10.3575 -0.00108902 -2.42131 2650 
175 1 0.0165121 -0.0437631 -0.0661395 0.000847 -10.3895 -0.00136798 -2.5938 2650 
519 1 0.0211692 -0.032769 -0.0654252 0.000233 -10.3332 -0.146135 -3.34305 2650 
494 1 0.0228383 -0.0306541 -0.0648668 0.000233 -9.54654 -0.0952885 -3.36733 2650 
289 1 0.0154487 -0.0283101 -0.0659053 0.001312 -9.91703 0.0219252 -2.31834 2650 
297 1 0.018889 -0.0273327 -0.0661195 0.000233 -9.83263 -0.056519 -2.8017 2650 
479 1 0.0204941 -0.00831462 -0.0656481 0.000233 -8.13107 -0.0882164 -2.54765 2650 
463 1 0.0215211 -0.0496534 -0.0646846 0.000847 -10.1637 -0.0214746 -3.38135 2650 
84 1 0.0222033 -0.0480345 -0.0644546 0.000847 -10.1192 0.0293287 -3.48502 2650 
154 1 0.0232447 -0.031456 -0.0647192 0.000233 -10.0704 -0.155292 -3.61633 2650 
144 1 0.0245615 -0.0311587 -0.0642407 0.000233 -9.69436 -0.128393 -3.70052 2650 
161 1 0.0246618 -0.0299485 -0.0635371 0.000847 -9.42323 -0.0714874 -3.65657 2650 
90 1 0.0300761 -0.0464799 -0.0618566 0.000233 -8.95014 -0.331186 -4.35363 2650 
4 1 0.0258184 -0.0421854 -0.0630906 0.000847 -9.73359 0.00591321 -3.98432 2650 
123 1 0.0279392 -0.0307004 -0.062172 0.000847 -9.21186 0.0912874 -4.13773 2650 
271 1 0.0271503 -0.0221505 -0.0631871 0.000233 -8.58572 0.251726 -3.67487 2650 
426 1 0.030829 -0.0349259 -0.0614649 0.000233 -9.50167 -0.66606 -4.76281 2650 
61 1 0.0314278 -0.0208367 -0.0604873 0.000847 -8.95247 -0.0864952 -4.65231 2650 
236 1 0.0318893 -0.0167812 -0.0611078 8.4e-05 -5.94796 -1.06192 -3.10812 2650 
130 1 0.0325039 -0.0146654 -0.0606134 0.000233 -5.07528 0.0759668 -2.73937 2650 
492 1 0.0338114 -0.0205751 -0.0598872 0.000233 -8.59537 0.090534 -4.85359 2650 
28 1 0.0354181 -0.00696589 -0.0591194 8.4e-05 -6.74425 0.0888807 -4.0456 2650 
344 1 0.0370476 -0.0618646 -0.0572091 0.000847 -8.98569 0.00019161 -5.81895 2650 
102 1 0.0373195 -0.046931 -0.0577523 0.000233 -8.85302 -0.00889386 -5.71584 2650 
182 1 0.0371467 -0.0284324 -0.057869 0.000233 -8.96788 0.392043 -5.7566 2650 
12 1 0.0369045 -0.00634193 -0.0580253 0.000233 -6.74039 0.00376132 -4.29784 2650 
119 1 0.0383961 -0.00301853 -0.0572273 8.4e-05 -6.51475 0.228597 -4.36045 2650 
151 1 0.0376268 -0.0244688 -0.0568296 0.000847 -8.29497 0.138876 -5.49084 2650 
183 1 0.0422285 -0.011061 -0.0542725 0.000233 -7.63915 -0.120704 -5.93722 2650 
51 1 0.0426631 -0.0050039 -0.0539302 0.000233 -3.34886 -0.0486266 -2.57851 2650 
140 1 0.043028 -0.0348826 -0.0536299 0.000233 -7.30531 -0.242626 -5.86057 2650 
314 1 0.0477527 -0.0406045 -0.0496875 8.4e-05 -7.64387 -0.453485 -7.34841 2650 
347 1 0.0478469 -0.033363 -0.0485378 0.000847 -7.46283 -0.0781585 -7.35734 2650 
82 1 0.0510306 -0.0380956 -0.0444861 0.001312 -6.98754 0.000539001 -8.01552 2650 
349 1 0.0533274 -0.0401604 -0.0434262 0.000233 -6.75717 0.0676764 -8.29854 2650 
201 1 0.05253 -0.0394209 -0.0434344 0.000847 -6.83011 -0.00357649 -8.26006 2650 
203 1 0.0519539 -0.0361795 -0.0441156 0.000847 -6.92907 0.000331511 -8.16016 2650 
258 1 0.0536709 -0.0149233 -0.0430047 0.000233 -5.62392 -0.0690708 -7.01679 2650 
324 1 0.0526138 -0.00488129 -0.0442706 0.000233 -5.30368 0.0754654 -6.28974 2650 
120 1 0.0532518 -0.040648 -0.0418078 0.001312 -6.56735 -0.0110097 -8.36471 2650 
312 1 0.0544024 -0.024951 -0.042062 0.000233 -5.95035 -0.0245562 -7.69161 2650 
432 1 0.0550972 -0.0450597 -0.0393597 0.001312 -6.20729 0.00898363 -8.68947 2650 
250 1 0.0549464 -0.042404 -0.0395598 0.001312 -6.19963 0.0623209 -8.61294 2650 
442 1 0.0567209 -0.0375646 -0.0388786 0.000233 -6.18077 0.0381638 -9.01665 2650 
454 1 0.0569848 -0.0176949 -0.038516 0.000233 -5.28802 0.0291442 -7.83883 2650 
280 1 0.0591311 -0.0431196 -0.033922 0.000847 -5.35009 0.0498825 -9.32623 2650 
193 1 0.0601692 -0.0289405 -0.0332881 0.000233 -4.37881 0.514144 -7.93079 2650 
129 1 0.0616482 -0.0177693 -0.0304994 0.000233 -4.23656 -0.202908 -8.5651 2650 
65 1 0.0615906 -0.0163641 -0.0306172 0.000233 -4.07782 0.0700104 -8.21183 2650 
459 1 0.061292 -0.0192296 -0.0298341 0.000847 -4.17105 -0.0137104 -8.60124 2650 
230 1 0.0623758 -0.0431399 -0.0274957 0.000847 -4.30451 0.00272031 -9.76596 2650 
267 1 0.0630272 -0.0436043 -0.0259682 0.000847 -4.10194 -0.0271004 -9.95273 2650 
59 1 0.0639758 -0.048279 -0.0235336 0.000847 -3.69682 0.011134 -10.0504 2650 
296 1 0.0651564 -0.0141947 -0.0220137 0.000233 -1.147 -0.205767 -3.409 2650 
85 1 0.0650799 -0.0444411 -0.0202638 0.000847 -3.18567 0.0156429 -10.2312 2650 
210 1 0.00124556 -0.00241237 -0.0167079 8.4e-05 -0.0100923 -0.00705442 -0.000399252 2650 
395 1 0.00274014 -0.00176683 -0.0142981 0.000847 0.00509824 -0.00223179 0.00216209 2650 
356 1 0.000804103 -0.00111238 -0.0143967 0.000847 -7.48654e-05 -0.00579622 -0.00143001 2650 
9 1 0.067512 -0.026818 -0.0130773 0.000233 -1.83997 -0.271716 -9.51872 2650 
361 1 0.0675937 -0.0239558 -0.0126421 0.000233 -1.7856 0.0782912 -9.55606 2650 
224 1 0.00279916 -0.00301854 -0.012335 0.001312 0.00440762 -0.00590734 0.000702176 2650 
438 1 0.00818606 -0.000430717 -0.0120802 0.000847 -0.00816544 -0.00306936 -0.0220968 2650 
336 1 0.00516597 -0.000312011 -0.0095538 0.000233 0.00789915 -0.00106843 0.00245482 2650 
393 1 0.0671278 -0.0303787 -0.008763 0.001312 -1.39325 -0.022166 -10.6719 2650 
205 1 0.0683954 -0.0225587 -0.0069202 0.000233 -0.94765 -0.167368 -9.62862 2650 
447 1 0.0676616 -0.0196962 -0.00781502 0.000847 -1.08785 0.113688 -9.54091 2650 
400 1 0.008609 -0.00282157 -0.006808 0.000233 0 -0.011754 0 2650 
24 1 0.0685827 -0.0263963 -0.0050004 0.000233 -0.716905 0.356775 -9.59283 2650 
405 1 0.00315661 -0.00298961 -0.0058214 8.4e-05 0.0025106 -0.0076758 0.00495174 2650 
207 1 0.0157218 -0.00301531 -0.00530431 0.000233 0.00547038 -0.0097445 0.0237301 2650 
105 1 0.000222377 -0.00334002 -0.00422623 0.000233 0.0114913 -0.0250401 -0.218389 2650 
292 1 0.007808 -0.00322657 -0.004111 0.000847 0 -0.011754 0 2650 
8 1 0.00820884 -0.00141394 -0.00341458 0.000233 0.00301488 -0.00587201 -0.00977112 2650 
265 1 0.00553545 -0.00261388 -0.00293472 0.000847 -0.00161831 -0.00717065 -0.0105314 2650 
39 1 0.00120596 -1.50668e-05 0.00104192 0.000233 -0.0126184 -0.00557583 0.0065332 2650 
118 1 0.0685976 -0.0262814 0.00480327 0.000233 0.646463 0.349436 -9.10745 2650 
35 1 0.00486586 -0.000190285 0.00515301 0.000847 -0.0121953 -9.57773e-05 0.00420749 2650 
114 1 0.0682729 -0.0118632 0.00833699 0.000233 1.15168 -0.779651 -9.42364 2650 
352 1 0.00441153 -0.00112439 0.00933499 0.000233 -0.00581366 -0.00941981 -0.000498216 2650 
86 1 0.0135784 -0.00012324 0.00837193 0.000847 -0.0118389 -0.00256384 0.0168813 2650 
209 1 0.0679859 -0.0225361 0.0103717 0.000233 1.13761 -0.522992 -7.33097 2650 
252 1 0.00723155 -0.000242773 0.0103995 0.000847 0.000408733 -0.00473082 -0.0109231 2650 
89 1 0.003537 -0.00279557 0.012461 0.000233 0 -0.011754 0 2650 
176 1 0.00576825 -0.00249808 0.0120953 0.000847 0.00761816 -0.00329714 -0.00812013 2650 
56 1 0.0662616 -0.0326402 0.0138316 0.001312 2.07319 -0.00591975 -9.86541 2650 
259 1 0.067187 -0.0277132 0.0146364 0.000233 2.26678 -0.275377 -10.4067 2650 
125 1 0.0662983 -0.0384833 0.01582 0.000847 2.41524 0.044768 -10.0774 2650 
509 1 0.0664459 -0.00457676 0.0182808 8.4e-05 1.53914 -0.283528 -5.52295 2650 
106 1 0.0663761 -0.00126037 0.0185247 8.4e-05 2.47656 -0.0914016 -8.85153 2650 
353 1 0.0656661 -0.020047 0.0209415 8.4e-05 2.13434 -0.267731 -6.63751 2650 
358 1 0.0632515 -0.0543665 0.0253963 0.000847 3.98906 0.00118218 -9.93502 2650 
174 1 0.0621141 -0.023169 0.0280557 0.000847 4.09844 0.0839976 -9.08414 2650 
423 1 0.0608931 -0.0316811 0.0306164 0.000847 4.45628 0.282657 -8.88601 2650 
74 1 0.0593427 -0.0317419 0.0335243 0.000847 5.0862 0.0679238 -8.95237 2650 
507 1 0.0578391 -0.0322856 0.0371821 0.000233 5.2806 -0.842631 -8.19721 2650 
220 1 0.0582034 -0.022224 0.0366204 0.000233 4.79763 -0.0735659 -7.61605 2650 