ITEM: TIMESTEP
26547931
ITEM: NUMBER OF ATOMS
456
ITEM: BOX BOUNDS ff ff ff
-0.15 0.15
-0.15 0.15
-0.15 0.15
ITEM: ATOMS id type x y z radius vx vy vz density 
138 1 -0.00509041 -0.051157 -0.0679776 0.000847 -10.6917 0.0158812 0.800473 2650 
424 1 -0.00199412 -0.0519641 -0.068138 0.000847 -10.7057 -0.000269278 0.313255 2650 
274 1 -0.00946495 -0.0472021 -0.0681234 0.000233 -6.14292 -1.52154 0.849457 2650 
468 1 -0.00178245 -0.0177865 -0.0687578 0.000233 -10.7399 0.595352 0.279361 2650 
124 1 -0.0110699 -0.056573 -0.0672528 0.000847 -10.564 -2.01856e-05 1.73885 2650 
382 1 -0.00676231 -0.050672 -0.0678321 0.000847 -10.6504 -0.0466154 1.06217 2650 
459 1 -0.00806776 -0.0291758 -0.0676767 0.000847 -10.8128 0.00840745 1.28865 2650 
261 1 -0.0165373 -0.0286433 -0.0667482 0.000233 -9.97381 -0.0475274 2.47147 2650 
95 1 -0.00499547 -0.0239855 -0.0675141 0.001312 -10.3988 -0.0965088 0.770766 2650 
22 1 -0.0133318 -0.000700551 -0.0674605 0.000233 -5.08735 -0.0487555 1.00456 2650 
352 1 -0.012473 -0.00155892 -0.0676246 0.000233 -4.78264 -0.168522 0.883581 2650 
125 1 -0.0241021 -0.0442691 -0.0637524 0.000847 -10.3459 0.037919 3.91219 2650 
374 1 -0.0256013 -0.0403792 -0.0638216 0.000233 -7.44064 -1.66096 2.97905 2650 
243 1 -0.0290837 -0.0617864 -0.0616407 0.000847 -9.68259 -0.000776936 4.56852 2650 
436 1 -0.0309626 -0.0618728 -0.0607184 0.000847 -9.53778 0.000198355 4.86367 2650 
364 1 -0.0328498 -0.0303791 -0.0604136 0.000233 -9.08846 0.0584922 4.94198 2650 
311 1 -0.0327586 -0.021525 -0.0604594 0.000233 -9.51172 -0.0854385 5.15415 2650 
219 1 -0.0325098 -0.0144476 -0.060584 0.000233 -9.16367 -0.630581 4.91337 2650 
297 1 -0.0366119 -0.0289279 -0.0582066 0.000233 -8.65251 0.0870773 5.4436 2650 
494 1 -0.0375465 -0.0250113 -0.0576121 0.000233 -8.59525 -0.073261 5.60843 2650 
410 1 -0.0392578 -0.061879 -0.0557151 0.000847 -8.75342 -0.00108673 6.16786 2650 
172 1 -0.0444128 -0.0219054 -0.0511007 0.001312 -8.14627 0.0538663 7.07822 2650 
65 1 -0.0467805 -0.00457137 -0.0503998 0.000233 -5.92554 -0.202949 5.51899 2650 
477 1 -0.049286 -0.025603 -0.0479554 0.000233 -7.74027 -0.103853 7.95609 2650 
49 1 -0.0542562 -0.0149489 -0.042261 0.000233 -5.31257 0.0360912 6.8021 2650 
207 1 -0.0548719 -0.000808556 -0.0414467 0.000233 -5.0905 -0.00313538 6.73844 2650 
483 1 -0.0560221 -0.0103503 -0.0401378 8.4e-05 -5.26426 -0.0348467 7.33793 2650 
313 1 -0.0602527 -0.0197178 -0.0331409 0.000233 -4.7375 0.0233804 8.61382 2650 
50 1 -0.0605879 -0.0271775 -0.0325253 0.000233 -4.90911 -0.273528 9.14164 2650 
53 1 -0.0611633 -0.0136479 -0.0314291 0.000233 -4.21752 -0.355111 8.19278 2650 
229 1 -0.0610715 -0.0297909 -0.0302583 0.000847 -4.61491 0.0472451 9.3149 2650 
220 1 -0.0621887 -0.0246027 -0.0293479 0.000233 -4.21476 0.124823 8.92399 2650 
358 1 -0.0632391 -0.0543665 -0.0254271 0.000847 -3.99405 -2.08026e-05 9.93351 2650 
209 1 -0.0637376 -0.0247893 -0.0258166 0.000233 -3.1685 -0.121396 7.89003 2650 
116 1 -0.0651951 -0.0365046 -0.0218726 0.000233 -2.56379 -0.213927 7.64351 2650 
443 1 -0.066376 -0.021776 -0.018002 0.000233 -2.7151 -0.2022 10.012 2650 
469 1 -0.00316801 -0.000148171 -0.0160509 0.000233 0.0314737 0.00100518 -0.00492305 2650 
384 1 -0.00365377 -0.000961721 -0.0154936 0.000847 0.0343759 0.00172751 -0.00917639 2650 
412 1 -0.000736063 -0.000570225 -0.0143533 0.000847 -0.00361608 -0.00480485 -0.000872785 2650 
205 1 -0.0676436 -0.0210421 -0.0124224 0.000233 -1.69341 0.12017 9.22484 2650 
266 1 -0.0044319 -0.000863687 -0.0135889 0.000847 -0.00164881 -0.00742592 -0.00189738 2650 
332 1 -0.0672134 -0.0166097 -0.0113886 0.000847 -1.48183 -0.0748407 8.72672 2650 
392 1 -0.00815522 -0.000961169 -0.0118524 8.4e-05 -0.00068915 -0.00349539 -0.00139054 2650 
271 1 -0.0683137 -0.0288167 -0.00785468 0.000233 -0.991067 -0.403101 8.53434 2650 
428 1 -0.0684694 -0.00622707 -0.00640328 0.000233 -0.783931 0.0452396 8.30062 2650 
133 1 -0.00439439 -0.00160415 -0.00511341 0.001312 -0.0021989 -0.00307358 0.00294343 2650 
277 1 -0.0126923 -0.000208151 -0.00604186 0.000847 0.00338805 0.00569524 -0.0266496 2650 
231 1 -0.0686777 -0.0269473 -0.00344356 0.000233 -0.518489 0.0452349 10.307 2650 
446 1 -0.068081 -0.0193159 -0.00343987 0.000847 -0.494195 -0.0085964 9.676 2650 
426 1 -0.0687445 -0.0292275 -0.00165831 0.000233 -0.25769 0.104605 10.687 2650 
258 1 -0.0687547 -0.0173723 -0.00156128 0.000233 -0.199145 0.0333566 8.70998 2650 
202 1 -0.00142858 -0.00192157 -0.000983083 0.000847 -0.000325259 -0.00498031 0.00775896 2650 
259 1 -0.0687481 -0.0310131 0.00188869 0.000233 0.302479 0.0193611 11.0151 2650 
462 1 -0.0363163 -0.00667072 0.00155646 0.000847 -5.09903 -0.353028 0.268042 2650 
433 1 -0.0681006 -0.0292408 0.00275602 0.000847 0.418615 0.068134 10.3453 2650 
39 1 -0.00257952 -0.0016878 0.00300186 0.000233 -0.0126184 -0.00557583 0.0065332 2650 
351 1 -0.0684972 -0.0172876 0.00606806 0.000233 0.853181 -0.251505 8.89294 2650 
361 1 -0.0678366 -0.0278045 0.0112631 0.000233 1.36937 -0.494868 7.97083 2650 
161 1 -0.0666749 -0.0334291 0.0141349 0.000847 2.18659 0.0630954 10.3162 2650 
448 1 -0.0668451 -0.0302974 0.0133096 0.000847 2.04318 -0.0391704 10.266 2650 
499 1 -0.0664197 -0.029795 0.015286 0.000847 2.34961 0.0600936 10.2222 2650 
85 1 -0.0649409 -0.0446251 0.0207086 0.000847 3.25247 0.00113835 10.1996 2650 
314 1 -0.0656455 -0.039176 0.0209837 8.4e-05 3.28174 -0.109358 10.2669 2650 
183 1 -0.065703 -0.0149867 0.020309 0.000233 2.76946 0.282112 8.95974 2650 
59 1 -0.0639867 -0.0482805 0.023504 0.000847 3.69195 5.98122e-05 10.0509 2650 
123 1 -0.0637867 -0.0382485 0.0240131 0.000847 3.76191 -0.0893497 9.99249 2650 
104 1 -0.0649237 -0.00914402 0.0226801 0.000233 3.23308 0.633225 9.24965 2650 
366 1 -0.064179 -0.00801582 0.0251203 8.4e-05 2.7163 -0.14819 6.84287 2650 
267 1 -0.0630611 -0.0436456 0.0258878 0.000847 4.06643 -0.000282641 9.90557 2650 
154 1 -0.0635751 -0.0270173 0.0262082 0.000233 3.98922 0.0868124 9.68122 2650 
230 1 -0.0623013 -0.0433573 0.0276675 0.000847 4.34524 0.00043982 9.78463 2650 
442 1 -0.0622001 -0.0394794 0.0293358 0.000233 4.59476 0.0144618 9.7419 2650 
9 1 -0.0621703 -0.0304163 0.0293899 0.000233 4.53767 -0.71015 9.6055 2650 
146 1 -0.0580969 -0.0303798 0.0347495 0.001312 5.45382 -0.032689 9.11989 2650 
280 1 -0.0578614 -0.0476673 0.0360491 0.000847 5.6613 0.00749477 9.08664 2650 
118 1 -0.0581228 -0.0241895 0.0367532 0.000233 5.21429 -0.0557329 8.23469 2650 
11 1 -0.0583319 -0.0119295 0.0364427 0.000233 4.80917 -0.117157 7.70199 2650 
203 1 -0.0566579 -0.0425958 0.0379067 0.000847 5.9552 -0.00941835 8.90098 2650 
432 1 -0.0549295 -0.0452814 0.0395916 0.001312 6.21904 -0.000164697 8.62832 2650 
250 1 -0.0549963 -0.0423387 0.0394932 0.001312 6.20357 -2.44183e-05 8.63879 2650 
120 1 -0.0532961 -0.0406185 0.0417531 0.001312 6.55889 0.000482894 8.37216 2650 
281 1 -0.053877 -0.0368866 0.041746 0.000847 6.59177 0.040881 8.50743 2650 
347 1 -0.0528808 -0.0378448 0.042999 0.000847 6.7673 0.0227571 8.32259 2650 
376 1 -0.0539346 -0.0308902 0.0426755 0.000233 6.70489 0.0420715 8.47375 2650 
201 1 -0.052538 -0.0394809 0.0434241 0.000847 6.82065 0.00219231 8.25223 2650 
82 1 -0.0510522 -0.0380962 0.0444612 0.001312 6.98432 0.0015023 8.01974 2650 
329 1 -0.0522524 -0.0304336 0.0437605 0.000847 6.91782 -0.0397903 8.26029 2650 
45 1 -0.0523667 -0.015674 0.0436351 0.000847 6.17383 0.380723 7.40174 2650 
180 1 -0.0495382 -0.0189031 0.0476697 0.000233 6.27981 0.00266607 6.64506 2650 
519 1 -0.0475216 -0.0283928 0.0496952 0.000233 7.32981 -0.461933 7.01902 2650 
405 1 -0.0469733 -0.00483835 0.0504143 8.4e-05 7.9412 0.0265214 7.39899 2650 
4 1 -0.0435155 -0.0471251 0.0524528 0.000847 7.76521 0.049993 6.47044 2650 
289 1 -0.0436587 -0.0309846 0.0518276 0.001312 8.14106 1.86544e-07 6.85789 2650 
160 1 -0.039103 -0.04651 0.0552264 0.001312 8.45607 0.273802 5.97569 2650 
397 1 -0.0400651 -0.0332857 0.0551367 0.000847 8.70645 -0.0586447 6.32507 2650 
344 1 -0.0370856 -0.0618749 0.0571843 0.000847 8.98244 -7.1856e-05 5.82536 2650 
70 1 -0.0351042 -0.0324599 0.0584211 0.000847 9.18476 -0.00526151 5.51863 2650 
152 1 -0.0366875 -0.0309794 0.0574466 0.000847 8.99466 -0.00786766 5.74485 2650 
208 1 -0.0346378 -0.0422029 0.0594082 0.000233 9.22078 -0.160529 5.37657 2650 
88 1 -0.0344518 -0.0347757 0.0595132 0.000233 9.243 -0.0276204 5.352 2650 
51 1 -0.0354738 -0.0310552 0.0589193 0.000233 9.28229 0.0584385 5.58969 2650 
434 1 -0.0342271 -0.0310301 0.0589486 0.000847 9.22384 -0.00282182 5.35562 2650 
110 1 -0.0326463 -0.0312929 0.0598323 0.000847 9.24329 -0.32587 5.01918 2650 
381 1 -0.0323705 -0.0296229 0.0599776 0.000847 8.95136 -0.249342 4.85397 2650 
235 1 -0.0289203 -0.0341198 0.0623863 0.000233 9.85396 0.415723 4.56706 2650 
463 1 -0.0215553 -0.0496527 0.0646733 0.000847 10.1589 -2.27298e-05 3.3859 2650 
84 1 -0.0222307 -0.0480513 0.0644456 0.000847 10.1235 0.000174978 3.49215 2650 
343 1 -0.0232038 -0.0114365 0.0640988 0.000847 8.74223 -0.0571842 3.18455 2650 
189 1 -0.0171041 -0.0521676 0.0659852 0.000847 10.3649 -1.10769e-05 2.68669 2650 
241 1 -0.0177422 -0.0506072 0.0658193 0.000847 10.3389 2.86643e-05 2.78694 2650 
380 1 -0.0157231 -0.0498438 0.0658584 0.001312 10.345 -1.24323e-05 2.46979 2650 
489 1 -0.0192683 -0.0487304 0.0653919 0.000847 10.2721 0.000467212 3.02676 2650 
315 1 -0.0154459 -0.04561 0.0659251 0.001312 10.3555 7.56994e-06 2.42624 2650 
175 1 -0.0165446 -0.043763 0.0661314 0.000847 10.3881 0.00011189 2.59887 2650 
265 1 -0.0185083 -0.0256254 0.0655943 0.000847 9.16778 -0.0411928 2.59939 2650 
111 1 -0.0161565 -0.0173513 0.0662276 0.000847 9.94162 -0.0611407 2.42696 2650 
129 1 -0.0213532 -0.014665 0.0653826 0.000233 9.31777 0.0636094 3.04294 2650 
113 1 -0.010056 -0.0505451 0.0674167 0.000847 10.5899 -1.54472e-05 1.57962 2650 
486 1 -0.0146436 -0.048118 0.0665776 0.000847 10.4579 6.67611e-05 2.30019 2650 
330 1 -0.0132594 -0.0490515 0.0668642 0.000847 10.5037 -5.81851e-05 2.08319 2650 
134 1 -0.00408331 -0.0448637 0.0675733 0.001312 10.614 -0.000367756 0.641377 2650 
102 1 -0.0152403 -0.0417389 0.067066 0.000233 10.6667 0.0774566 2.4231 2650 
169 1 -0.0115087 -0.0370243 0.0677973 0.000233 10.5462 0.292584 1.79054 2650 
142 1 -0.0137294 -0.0157457 0.0673934 0.000233 9.0113 0.0384233 1.84034 2650 
288 1 -0.00612719 -0.0464188 0.0686441 8.4e-05 10.6682 -0.0388849 0.952926 2650 
320 1 -0.00501972 -0.0478538 0.0679726 0.000847 10.6771 -0.000102006 0.78849 2650 
247 1 -0.00554465 -0.0430173 0.0685433 0.000233 10.6877 -0.699214 0.863399 2650 
248 1 -0.00128903 -0.0169947 0.068754 0.000233 9.36991 -0.219804 0.180328 2650 
245 1 -0.00857957 -0.00339891 0.0682284 0.000233 9.62276 -0.115581 1.2091 2650 
119 1 -0.00933177 -0.00043221 0.0682804 8.4e-05 8.61685 -0.00753399 1.18547 2650 
212 1 -0.000761057 0.0020148 -0.0155546 0.001312 -0.000378321 -0.00288226 -0.00336117 2650 
68 1 -0.00163381 0.00811331 -0.0153916 0.001312 0.00656765 0.00723405 -0.0034973 2650 
357 1 -0.00554684 0.013117 -0.014716 0.000847 -0.00356262 0.00740695 0.00116372 2650 
399 1 -0.0030095 0.0261533 -0.0154843 0.000847 0.0145811 0.0154461 -0.00307587 2650 
501 1 -0.00522583 0.011451 -0.0134551 0.000847 0.00271066 0.00783714 0.00249064 2650 
16 1 -0.00639482 0.061241 -0.012814 0.001312 -0.00372561 0.0412357 0.00325068 2650 
439 1 -0.00516025 0.0116322 -0.0122663 0.000233 0.0228492 0.00607655 0.00357595 2650 
386 1 -0.00799669 0.0132104 -0.011232 0.000847 -0.00685813 0.0101085 -0.000664392 2650 
309 1 -0.0107154 0.0198385 -0.0121854 0.000233 -0.00479857 0.018266 0.00823948 2650 
444 1 -0.00921185 0.00908226 -0.0108687 8.4e-05 -0.00260039 0.00547496 0.00633282 2650 
2 1 -0.003941 0.00887732 -0.0105273 0.001312 0.00400868 0.00487374 0.00130235 2650 
76 1 -0.0089982 0.0183565 -0.011042 0.000233 -0.00578221 0.011958 0.00483197 2650 
115 1 -0.00984349 0.0200261 -0.0110227 0.000233 0.00203478 0.00995688 0.00306778 2650 
178 1 -0.0123334 0.0266017 -0.0100724 0.000847 -0.00942264 0.0138974 -0.0144999 2650 
30 1 -0.0107881 0.0413468 -0.00976434 0.001312 -0.0211815 0.0380083 0.00875764 2650 
282 1 -0.0135584 0.0122978 -0.0085549 0.000847 -0.00590106 0.010471 0.0107991 2650 
225 1 -0.00534338 0.0128334 -0.00933857 0.001312 -0.00239701 0.00874648 -0.00124216 2650 
273 1 -0.00591033 0.029341 -0.00791153 0.000233 -0.00788291 0.0124072 0.00594868 2650 
83 1 -0.000545586 0.0291419 -0.0088357 0.000847 -0.011122 0.104926 0.00742126 2650 
359 1 -0.00716641 0.0562268 -0.0079714 0.000847 -0.0105408 0.0538414 0.0225509 2650 
31 1 -0.00304589 0.0706613 -0.00868426 0.000847 0.0128996 0.0556905 -0.00624527 2650 
206 1 -0.000506149 0.000501794 -0.00649651 0.000233 0.000200844 -0.0022057 -0.0101649 2650 
147 1 -0.00711976 0.00206078 -0.00673713 0.001312 -0.00155224 -0.00287693 0.000873515 2650 
109 1 -0.00080869 0.0043213 -0.00679142 0.000847 -0.00739102 -0.000240261 0.00788824 2650 
471 1 -0.00878343 0.0156424 -0.00763696 0.001312 0.0142077 0.0144874 0.0114805 2650 
15 1 -0.00874818 0.0403565 -0.00638925 0.001312 -0.00341521 0.0253607 0.0153897 2650 
348 1 -0.0140552 0.00470535 -0.00575562 0.000233 -0.00855875 -0.000417391 0.0118261 2650 
94 1 -0.0143163 0.0101672 -0.00602031 0.001312 -0.0121466 0.00450737 0.00515639 2650 
373 1 -0.0150517 0.0179708 -0.00547446 0.000847 0.00260085 0.0219543 -0.0053929 2650 
377 1 -0.00622449 0.0649096 -0.00525176 0.000233 -0.00308755 0.0650231 0.0279133 2650 
66 1 -0.0103664 0.0698934 -0.0049595 0.000233 0.00347261 0.0341619 0.00411013 2650 
407 1 -0.00407935 0.000549085 -0.00359132 0.000847 -0.00271156 -0.00263393 0.00241233 2650 
237 1 -0.014904 0.00273754 -0.00363453 0.001312 -0.00571909 0.0043721 0.00435753 2650 
17 1 -0.00566342 0.00317363 -0.00344983 0.000847 -0.00529384 -0.000624951 0.00099193 2650 
149 1 -0.00444346 0.0109521 -0.00341247 0.000847 0.00533574 0.00120564 0.000572163 2650 
502 1 -0.0151598 0.0260281 -0.00427656 0.000847 -0.000230871 0.00792682 0.00455104 2650 
457 1 -0.00333869 0.028133 -0.00325866 8.4e-05 0.00209197 0.0125772 -0.0227291 2650 
177 1 -0.0144352 0.0318904 -0.0045777 0.000847 0.00132565 0.0192779 0.00604683 2650 
91 1 -0.0161518 0.0382947 -0.00428167 0.000233 -0.00189936 0.0295908 0.0155029 2650 
331 1 -0.00197275 0.0405788 -0.00351556 0.000847 0.00840645 0.0232594 0.00867855 2650 
158 1 -0.0102013 0.00308371 -0.00213843 8.4e-05 0.00270084 -0.000488248 0.00495661 2650 
355 1 -0.012437 0.0119866 -0.00248629 0.000847 0.00437228 0.0104751 -0.0043935 2650 
199 1 -0.0145256 0.0310947 -0.00229533 0.001312 0.00194289 0.0160573 0.0068254 2650 
37 1 -0.0164576 0.0322399 -0.00242454 0.000233 -0.000311153 0.0235499 0.0169314 2650 
77 1 -0.0077956 0.0480372 -0.00231271 0.000233 0.00669575 0.0236814 0.0157679 2650 
512 1 -0.0105622 0.00240048 -0.00139186 0.000847 0.00181622 0.00186639 0.0122251 2650 
515 1 -0.0132636 0.0127601 -0.00119607 0.000847 0.000192831 0.00432954 -0.00558707 2650 
211 1 -0.0148899 0.0502233 -0.000613705 0.001312 0.0169704 0.0336354 0.0077469 2650 
511 1 -0.013513 0.0528004 -0.000265271 0.000847 0.00146079 0.0210985 -0.0127999 2650 
121 1 -0.00613702 0.0132433 0.00135765 0.001312 0.0113437 0.00558656 0.00250698 2650 
217 1 -0.0128726 0.0479168 0.000711432 0.000847 0.00743731 0.032403 0.00336557 2650 
198 1 -0.015376 0.00562062 0.00164082 0.001312 0.000689044 -0.0014313 0.0125552 2650 
389 1 -0.00184847 0.00989961 0.00245323 0.000233 -0.00715985 0.00216632 0.0289367 2650 
204 1 -0.0146176 0.0272996 0.00161983 0.000847 0.00121054 0.0124535 0.0137872 2650 
391 1 -0.0152649 0.0337748 0.00219232 0.000233 0.00226461 0.0200531 0.0160982 2650 
299 1 -0.0112401 0.0515999 0.00212829 0.000233 0.0153724 0.0433476 -0.0153898 2650 
156 1 -0.00519018 0.0138082 0.00385471 0.000233 0.0117738 0.00676262 0.00472854 2650 
7 1 -0.00964387 0.0384162 0.00468376 0.000847 0.00509742 0.0248497 0.013646 2650 
186 1 -0.00539832 0.00410681 0.0052536 0.001312 0.0110093 -0.000918863 0.00524694 2650 
450 1 -0.000914 0.00391922 0.00531644 0.000847 0.0141697 0.00366662 0.00769839 2650 
467 1 -0.0134704 0.00592275 0.00486094 0.000233 0.00666977 0.00283463 0.00629942 2650 
291 1 -0.00116614 0.00739266 0.00523548 0.000847 0.000368443 -0.000878557 -0.00367841 2650 
301 1 -0.00733206 0.00365426 0.00775263 8.4e-05 -0.00542456 -0.000958437 0.00851575 2650 
518 1 -0.0153115 0.00864316 0.00649167 0.000233 -0.0014198 0.00993602 -0.00710746 2650 
214 1 -0.00364297 0.029745 0.00694904 0.000847 0.0140272 0.0148951 0.00243728 2650 
440 1 -0.00505604 0.00180137 0.00827051 0.000233 0.00893327 0.00123303 0.0100401 2650 
395 1 -0.00619018 0.0188706 0.00897277 0.000847 -0.03813 0.0623589 0.0970061 2650 
222 1 -0.00593332 0.0325864 0.00907306 0.000233 0.0205794 0.0022401 -0.00426972 2650 
168 1 -0.00448817 0.0047934 0.0109788 0.000233 0.010374 0.000533782 0.0120746 2650 
5 1 -0.00224766 0.0167657 0.00959556 0.000847 0.0159354 0.00855543 0.0196475 2650 
451 1 -0.00566676 0.00974211 0.0110903 0.000847 0.0101382 0.00361366 0.00843172 2650 
226 1 -0.00320924 0.0360273 0.0115844 0.000847 0.00127411 0.0241147 0.0153454 2650 
21 1 -0.00660658 0.0405545 0.0117728 0.000847 -0.0156294 0.0277562 -0.00305439 2650 
503 1 -0.00323146 0.0415623 0.0124973 0.000233 0.0275154 0.0239428 0.00958867 2650 
363 1 -0.00204759 0.04164 0.0111297 0.000233 -0.0108121 0.0312503 -0.00018022 2650 
262 1 -0.00755299 0.0735736 0.0116434 8.4e-05 0.016947 0.0454576 0.00941551 2650 
390 1 -0.00333398 0.0160887 0.0127432 0.000233 -0.00350245 0.00582576 -0.00125219 2650 
213 1 -0.00724845 0.0381359 0.014131 0.000847 0.0260498 0.00276319 0.0133116 2650 
153 1 -0.00593221 0.0342808 0.0153122 0.000233 0.025776 0.015339 0.0111578 2650 
80 1 -0.00701449 0.0369467 0.0148858 8.4e-05 0.0269174 -0.00387207 0.00630255 2650 
510 1 -0.00607948 0.0418829 0.0142383 0.001312 -0.0153113 0.0336839 0.000846545 2650 
403 1 -0.00338572 0.0280975 0.0157934 0.000233 -0.0216925 0.0195608 -0.00722352 2650 
57 1 -0.000871034 0.0300424 0.0160126 0.000847 -0.0153315 0.0184234 -0.00270005 2650 
418 1 -0.00291174 0.0777543 -0.0153915 8.4e-05 -0.0209706 0.0409363 -0.0240492 2650 
437 1 -0.010592 0.11609 -0.00297402 0.000847 -0.00719255 0.0835002 -0.0252935 2650 
63 1 -0.00152175 0.0815229 0.00109506 0.000233 0.00544067 0.0487134 -0.0167697 2650 
72 1 -0.0018559 0.0767657 0.00329274 0.000847 0.00694298 0.0370303 0.0147661 2650 
319 1 -0.00142874 0.145312 0.0135746 0.000847 0.00321502 0.103152 0.00477754 2650 
401 1 0.00669966 -0.0486237 -0.0684517 0.000233 -10.9356 0.150403 -1.07053 2650 
244 1 0.0030709 -0.0428421 -0.0687082 0.000233 -7.18958 2.36899 -0.304409 2650 
105 1 0.00684149 -0.0249208 -0.0684234 0.000233 -10.801 -0.463432 -1.07921 2650 
270 1 0.00240016 -0.0198489 -0.0687356 0.000233 -10.0891 0.412039 -0.352011 2650 
456 1 0.00331214 -0.0095973 -0.0686956 0.000233 -8.14021 -0.158204 -0.402166 2650 
429 1 0.00257205 -0.00881437 -0.0687238 0.000233 -8.38257 -0.0635475 -0.313445 2650 
239 1 0.0143462 -0.0618874 -0.0666296 0.000847 -10.4754 0.0319639 -2.25602 2650 
341 1 0.0116243 -0.059286 -0.0666894 0.001312 -10.4755 -0.00012126 -1.82593 2650 
334 1 0.00909365 -0.0562702 -0.0675477 0.000847 -10.6167 -0.00416524 -1.42921 2650 
294 1 0.0109508 -0.052682 -0.0672772 0.000847 -10.569 0.00192486 -1.72036 2650 
323 1 0.0140157 -0.05245 -0.0673255 0.000233 -10.5547 -0.0260765 -2.19716 2650 
460 1 0.00570312 -0.0507115 -0.067929 0.000847 -10.6929 0.00781903 -0.898322 2650 
162 1 0.0130423 -0.0508314 -0.0669034 0.000847 -10.4659 0.0135335 -2.03947 2650 
36 1 0.0174269 -0.0141132 -0.0664984 0.000233 -9.92211 0.0723119 -2.58021 2650 
466 1 0.0147531 -0.0113019 -0.0671534 0.000233 -8.95019 0.125409 -1.96724 2650 
353 1 0.017048 -0.00820493 -0.0667714 8.4e-05 -7.91704 -0.180784 -2.06911 2650 
312 1 0.0201276 -0.0310647 -0.0657555 0.000233 -10.2514 0.156141 -3.1379 2650 
176 1 0.0196137 -0.0156648 -0.065222 0.000847 -4.25157 -0.189925 -1.28648 2650 
479 1 0.0206955 -0.0105625 -0.0654937 0.000233 -8.66469 0.0520195 -2.75534 2650 
75 1 0.0225754 -0.00555061 -0.064943 0.000233 -4.01053 -0.018059 -1.47658 2650 
174 1 0.0234797 -0.0309759 -0.0641023 0.000847 -10.0692 -1.78348e-06 -3.68818 2650 
130 1 0.0239198 -0.0160542 -0.0644727 0.000233 -9.37725 0.0777364 -3.48257 2650 
473 1 0.0346519 -0.0504181 -0.0587011 0.000847 -9.25198 0.010599 -5.46158 2650 
61 1 0.0357011 -0.0298966 -0.0580579 0.000847 -8.83214 -0.0565774 -5.43327 2650 
54 1 0.0393015 -0.0145333 -0.0566273 8.4e-05 -8.4867 0.216473 -5.8877 2650 
167 1 0.0417565 -0.0452896 -0.0546567 0.000233 -8.64436 0.17333 -6.604 2650 
396 1 0.0420933 -0.0500145 -0.053623 0.000847 -8.34075 -0.0174716 -6.5516 2650 
90 1 0.0443672 -0.0312247 -0.0525481 0.000233 -7.7003 -0.49599 -6.47427 2650 
307 1 0.0452164 -0.0187318 -0.0510141 0.000847 -7.65328 -0.00958648 -6.79249 2650 
210 1 0.0469187 -0.00248036 -0.0504731 8.4e-05 -4.01183 0.0574935 -3.73869 2650 
492 1 0.048945 -0.0268148 -0.0483001 0.000233 -7.16232 -0.0579776 -7.25828 2650 
148 1 0.0489872 -0.0465028 -0.0474088 0.000847 -7.44776 0.00421683 -7.69583 2650 
338 1 0.0495349 -0.045037 -0.047718 0.000233 -7.31685 -0.0742809 -7.59788 2650 
393 1 0.0489914 -0.0378054 -0.0467216 0.001312 -7.11862 0.00436555 -7.46442 2650 
521 1 0.050026 -0.00136026 -0.0473959 8.4e-05 -5.92814 0.210251 -6.26124 2650 
264 1 0.0508368 -0.0560334 -0.0454002 0.000847 -7.13139 -2.65698e-05 -7.98536 2650 
423 1 0.0527911 -0.0434379 -0.043116 0.000847 -6.83105 -0.00320687 -8.36269 2650 
74 1 0.0522366 -0.0372693 -0.0437753 0.000847 -6.60449 -0.0168376 -7.88091 2650 
47 1 0.0537796 -0.0448431 -0.0418786 0.000847 -6.5711 0.00683535 -8.44346 2650 
96 1 0.0537385 -0.0426697 -0.0419315 0.000847 -6.68812 0.177386 -8.55811 2650 
339 1 0.0540277 -0.00105979 -0.0425411 0.000233 -4.78686 0.000357758 -6.10871 2650 
290 1 0.0541062 -0.0464532 -0.0414472 0.000847 -6.51248 0.00958173 -8.50158 2650 
302 1 0.0556809 -0.0440997 -0.0384997 0.001312 -6.03319 0.0522741 -8.72549 2650 
236 1 0.0567437 -0.0173998 -0.0391098 8.4e-05 -6.13358 -0.832927 -8.90034 2650 
324 1 0.0598983 -0.00581465 -0.0337749 0.000233 -4.41834 -0.033354 -7.76544 2650 
378 1 0.0629487 -0.0396938 -0.0276851 0.000233 -4.40747 0.0239054 -10.0217 2650 
298 1 0.0630634 -0.039138 -0.0274211 0.000233 -4.31009 -0.0885236 -9.91286 2650 
60 1 0.0625874 -0.0404441 -0.0269883 0.000847 -4.27474 0.0468338 -9.91345 2650 
171 1 0.0637156 -0.0403283 -0.0262668 8.4e-05 -4.02113 0.0676824 -9.75535 2650 
470 1 0.0633953 -0.015935 -0.0269785 8.4e-05 -4.06502 -0.531319 -9.54751 2650 
340 1 0.0644132 -0.0457428 -0.0245224 8.4e-05 -3.82246 -0.32418 -10.0404 2650 
81 1 0.0641114 -0.0429475 -0.02177 0.001312 -3.43071 0.0951022 -9.94297 2650 
32 1 0.0657546 -0.0389483 -0.0179538 0.000847 -2.81135 -0.0852902 -10.2963 2650 
411 1 0.066186 -0.0400208 -0.0163009 0.000847 -2.53247 0.00508496 -10.2835 2650 
303 1 0.0663391 -0.0383885 -0.0156478 0.000847 -2.44196 0.0491773 -10.3526 2650 
356 1 0.000781643 -0.00285122 -0.0148257 0.000847 -7.48654e-05 -0.00579622 -0.00143001 2650 
438 1 0.00399337 -0.00124072 -0.0148273 0.000847 -0.0169209 -0.00251284 -0.0025984 2650 
350 1 0.067774 -0.0495673 -0.011724 0.000233 -1.83533 0.00435769 -10.6103 2650 
173 1 0.0668591 -0.0504424 -0.0107013 0.001312 -1.67744 -0.0045009 -10.4812 2650 
415 1 0.068007 -0.0475339 -0.010301 0.000233 -1.62139 0.0317557 -10.7035 2650 
269 1 0.0675301 -0.0472969 -0.00933509 0.000847 -1.46551 0.00345152 -10.6024 2650 
498 1 0.0675524 -0.0434876 -0.00915842 0.000847 -1.45634 0.018206 -10.7762 2650 
41 1 0.0682249 -0.00359402 -0.00971092 8.4e-05 -1.03674 -0.0805548 -7.33658 2650 
336 1 0.00753569 -0.000632537 -0.00881736 0.000233 0.00789915 -0.00106843 0.00245482 2650 
500 1 0.0678128 -0.0500368 -0.00696941 0.000847 -1.09317 0.00797275 -10.6396 2650 
488 1 0.0677846 -0.0469948 -0.00726543 0.000847 -1.14003 -0.0530879 -10.6367 2650 
56 1 0.0672826 -0.0371403 -0.00748609 0.001312 -1.18472 0.0364512 -10.6762 2650 
92 1 0.0683911 -0.0184275 -0.00729837 0.000233 -0.984984 -0.134914 -9.25215 2650 
8 1 0.0091133 -0.00317553 -0.00634588 0.000233 0.00301488 -0.00587201 -0.00977112 2650 
157 1 0.0685065 -0.0421623 -0.00609168 0.000233 -0.967039 -0.200309 -10.8782 2650 
216 1 0.0678199 -0.0346371 -0.00673813 0.000847 -1.02802 -0.0455268 -10.4074 2650 
431 1 0.0686177 -0.00853944 -0.00646338 8.4e-05 -0.895646 0.513365 -9.43746 2650 
522 1 0.0686936 -0.00626686 -0.00554176 8.4e-05 -0.661222 0.170313 -8.27862 2650 
166 1 0.0686272 -0.0517941 -0.00452786 0.000233 -0.710875 -0.0116197 -10.7746 2650 
421 1 0.0680525 -0.0502026 -0.00397385 0.000847 -0.624211 9.16508e-05 -10.6897 2650 
449 1 0.0679757 -0.0489893 -0.00515347 0.000847 -0.809525 -7.4098e-05 -10.6778 2650 
360 1 0.0679873 -0.0349974 -0.00477354 0.000847 -0.732985 0.0415762 -10.3671 2650 
308 1 0.0680717 -0.0481494 -0.00366358 0.000847 -0.575487 -0.00059275 -10.6927 2650 
122 1 0.0681339 -0.0494227 -0.00215219 0.000847 -0.338065 -0.000107235 -10.7024 2650 
100 1 0.0681444 -0.0463396 -0.00183734 0.000847 -0.288634 -0.00147431 -10.7042 2650 
150 1 0.0681627 -0.0478347 -0.000827049 0.000847 -0.129914 -0.000168835 -10.707 2650 
151 1 0.0681506 -0.035222 -0.000787213 0.000847 -0.121574 0.0326619 -10.4908 2650 
454 1 0.0687659 -0.0408043 0.000932629 0.000233 0.149647 0.580911 -10.9731 2650 
487 1 0.0681571 -0.0378938 -0.000324221 0.000847 -0.0446284 -0.023639 -10.4951 2650 
284 1 0.0687699 -0.0220167 0.00043746 0.000233 0.0649967 -0.0341029 -9.84738 2650 
253 1 0.0681577 -0.0484354 0.00103079 0.000847 0.16207 0.00653301 -10.7081 2650 
322 1 0.0687564 -0.0405147 0.0013935 0.000233 0.219537 0.0730861 -10.7997 2650 
12 1 0.0687244 -0.00605724 0.00243568 0.000233 0.305267 -0.0418466 -8.75949 2650 
132 1 0.0134048 -0.000411046 0.00287184 8.4e-05 -0.00428615 -0.00289113 -0.000365994 2650 
305 1 0.0681037 -0.0495303 0.00281577 0.000847 0.442372 -0.0115911 -10.7032 2650 
127 1 0.0687219 -0.0452236 0.00265874 0.000233 0.425757 0.102059 -11.0214 2650 
93 1 0.0687468 -8.43079e-05 0.00481934 8.4e-05 0.504099 -0.0072427 -7.52282 2650 
117 1 0.0685434 -0.000368287 0.00553924 0.000233 0.597754 -0.0132597 -7.61186 2650 
89 1 0.0685081 -0.0447853 0.00597739 0.000233 0.952261 0.0525038 -10.906 2650 
252 1 0.00735417 -0.00166201 0.00712258 0.000847 0.000408733 -0.00473082 -0.0109231 2650 
35 1 0.00120731 -0.000219017 0.00641525 0.000847 -0.0121953 -9.57773e-05 0.00420749 2650 
44 1 0.0676624 -0.0438709 0.00819484 0.000847 1.28736 0.0111801 -10.6278 2650 
402 1 0.0680337 -0.0125451 0.0100092 0.000233 1.46584 -0.281404 -9.93154 2650 
106 1 0.0681842 -8.40115e-05 0.0100077 8.4e-05 1.3054 -0.00130817 -8.92946 2650 
461 1 0.0671626 -0.0525139 0.0116054 0.000847 1.81895 -0.0844507 -10.5273 2650 
86 1 0.00935622 -0.000916818 0.0129314 0.000847 -0.0160568 -0.00271753 0.0137057 2650 
346 1 0.0626876 -0.061878 0.0267514 0.000847 4.20465 -0.00185272 -9.85322 2650 
317 1 0.0619914 -0.0526483 0.0283437 0.000847 4.43568 0.0543879 -9.69599 2650 
490 1 0.062499 -0.0210882 0.0287017 0.000233 4.04399 -0.718803 -8.79472 2650 
509 1 0.0626697 -0.00259777 0.0286596 8.4e-05 3.19866 0.179684 -7.00653 2650 
513 1 0.0604852 -0.0412467 0.0314358 0.000847 4.85353 -0.0156872 -9.34004 2650 
452 1 0.0604169 -0.047655 0.0328748 0.000233 5.17819 -0.17278 -9.51635 2650 
409 1 0.0572792 -0.052237 0.0369552 0.000847 5.82247 -0.00624067 -9.02459 2650 
485 1 0.0573084 -0.0471553 0.0369235 0.000847 5.85066 -0.0866084 -9.08178 2650 
242 1 0.0577836 -0.0254841 0.0361431 0.000847 5.38446 0.0545804 -8.61512 2650 
69 1 0.0562289 -0.0253985 0.0376965 0.001312 5.61087 0.0670924 -8.36838 2650 
224 1 0.0548444 -0.030942 0.0397026 0.001312 5.92041 -0.0977625 -8.24248 2650 
496 1 0.0557841 -0.0129758 0.040487 8.4e-05 5.33255 0.330491 -7.33994 2650 
159 1 0.0529866 -0.0492028 0.0421518 0.001312 6.61967 -0.0792597 -8.32095 2650 
249 1 0.05496 -0.00588207 0.0415798 8.4e-05 5.6811 0.0950972 -7.49752 2650 
369 1 0.0527731 -0.0464321 0.0431495 0.000847 6.7496 -0.0411659 -8.25476 2650 
197 1 0.0544606 -0.0426398 0.0422446 8.4e-05 6.69623 -0.32179 -8.63224 2650 
28 1 0.0533461 -0.0103484 0.0436403 8.4e-05 5.71112 0.129567 -6.98086 2650 
278 1 0.0510812 -0.0617613 0.0451234 0.000847 7.08811 -0.000104452 -8.02399 2650 
316 1 0.0498609 -0.0618731 0.0464682 0.000847 7.29919 4.83316e-05 -7.83211 2650 
420 1 0.0499842 -0.0476919 0.0463428 0.000847 7.27964 -8.59908e-05 -7.85164 2650 
367 1 0.0478494 -0.0569623 0.0478878 0.001312 7.51525 0.00929633 -7.50888 2650 
497 1 0.0482706 -0.0465533 0.0474682 0.001312 7.45642 -2.75905e-05 -7.58246 2650 
33 1 0.0488138 -0.0429934 0.0475699 0.000847 7.47229 -5.28255e-05 -7.66768 2650 
292 1 0.0485588 -0.0257052 0.0478213 0.000847 6.96683 -0.032365 -7.09667 2650 
23 1 0.0485246 -0.0624452 0.048729 0.000233 7.65433 -0.000174495 -7.62222 2650 
19 1 0.0476906 -0.0617599 0.0486934 0.000847 7.6489 1.2282e-05 -7.49138 2650 
190 1 0.0462628 -0.0618124 0.0500519 0.000847 7.86207 -2.61772e-05 -7.26689 2650 
445 1 0.0463954 -0.0417678 0.0492985 0.001312 7.74343 -0.00293615 -7.28752 2650 
185 1 0.0456811 -0.0391466 0.0499608 0.001312 7.8469 0.00185653 -7.17476 2650 
20 1 0.0461165 -0.0486748 0.0501851 0.000847 7.8828 -0.00106069 -7.24375 2650 
46 1 0.0444686 -0.0474787 0.0516519 0.000847 8.11361 -0.000207599 -6.98525 2650 
78 1 0.046368 -0.0380325 0.0507817 0.000233 7.97163 0.00153271 -7.27868 2650 
18 1 0.0452156 -0.0366351 0.050998 0.000847 8.03821 0.0160664 -7.12675 2650 
184 1 0.0462095 -0.00688205 0.0511248 8.4e-05 6.62453 -0.259205 -5.99018 2650 
458 1 0.0432069 -0.061488 0.0521167 0.001312 8.18646 -3.44641e-10 -6.78692 2650 
67 1 0.0401933 -0.000560424 0.0559805 8.4e-05 6.827 -0.10676 -4.89663 2650 
256 1 0.0377646 -0.0209008 0.05674 0.000847 8.57374 -0.0192618 -5.70511 2650 
318 1 0.0283007 -0.0493257 0.0620178 0.000847 9.74065 -0.000442374 -4.44499 2650 
136 1 0.0263994 -0.0345643 0.0628323 0.000847 9.38101 -0.0117763 -3.94169 2650 
306 1 0.0288606 -0.0298292 0.0617432 0.000847 9.60359 0.152045 -4.48944 2650 
375 1 0.0309478 -0.0164304 0.0614235 0.000233 8.21026 -0.315882 -4.1354 2650 
304 1 0.0165267 -0.0440791 0.0661361 0.000847 10.393 0.00622643 -2.59701 2650 
447 1 0.0178005 -0.0260695 0.0657902 0.000847 9.40583 0.015738 -2.57598 2650 