ITEM: TIMESTEP
16978355
ITEM: NUMBER OF ATOMS
490
ITEM: BOX BOUNDS ff ff ff
-0.15 0.15
-0.15 0.15
-0.15 0.15
ITEM: ATOMS id type x y z radius vx vy vz density 
184 1 -0.0113248 -0.0211055 -0.0679705 8.4e-05 -9.08429 -0.0833121 1.52033 2650 
454 1 -0.00350569 -0.0198436 -0.0686275 0.000233 -9.09082 -0.13849 0.475992 2650 
434 1 -0.00292282 -0.0178666 -0.068045 0.000847 -9.0516 0.0255889 0.388548 2650 
229 1 -0.00469984 -0.0172983 -0.0679684 0.000847 -9.11059 -0.0619183 0.670367 2650 
28 1 -0.00631766 -0.00762419 -0.0686251 8.4e-05 -7.77724 0.109645 0.772316 2650 
4 1 -0.00602108 -0.0350525 -0.0678897 0.000847 -10.5123 -0.065982 0.933763 2650 
231 1 -0.0137434 -0.0283697 -0.0673776 0.000233 -9.71215 -0.466439 1.97671 2650 
180 1 -0.0110973 -0.0143081 -0.0678669 0.000233 -7.86034 -0.0861945 1.3433 2650 
318 1 -0.0172027 -0.0524166 -0.0659592 0.000847 -10.5813 -0.0602923 2.7631 2650 
271 1 -0.01989 -0.025399 -0.0658263 0.000233 -6.5138 0.101869 1.96068 2650 
304 1 -0.0222174 -0.0340041 -0.0644315 0.000847 -10.1683 -0.199349 3.5066 2650 
478 1 -0.0290056 -0.0306856 -0.0623544 0.000233 -8.74122 -0.407027 4.04791 2650 
311 1 -0.0297801 -0.0201052 -0.061995 0.000233 -8.47036 -0.645716 4.06282 2650 
258 1 -0.0298016 -0.0177989 -0.0619882 0.000233 -8.35027 -0.0336332 4.01619 2650 
307 1 -0.0310759 -0.0152328 -0.0606724 0.000847 -7.60105 0.0921702 3.87399 2650 
203 1 -0.0329735 -0.0298258 -0.0596479 0.000847 -8.63534 0.0868781 4.78335 2650 
205 1 -0.0362089 -0.0182829 -0.0584673 0.000233 -8.09897 -0.0474762 5.01397 2650 
161 1 -0.0357108 -0.020002 -0.0580577 0.000847 -7.74859 -0.141944 4.78057 2650 
509 1 -0.037987 -0.0115165 -0.0575041 8.4e-05 -8.01837 0.700206 5.28932 2650 
297 1 -0.0408615 -0.0292272 -0.0553092 0.000233 -8.49459 -0.509954 6.27302 2650 
220 1 -0.0401364 -0.0145791 -0.0558398 0.000233 -9.1014 -0.867648 6.53939 2650 
65 1 -0.0418549 -0.00585101 -0.0545616 0.000233 -7.34368 -0.382441 5.63584 2650 
508 1 -0.0447446 -0.0228681 -0.0522175 0.000233 -7.12217 -0.101601 6.09682 2650 
458 1 -0.0432596 -0.061488 -0.0520729 0.001312 -8.17959 -3.19213e-10 6.7952 2650 
46 1 -0.0442278 -0.0436928 -0.0518583 0.000847 -8.09026 0.0225603 6.89945 2650 
302 1 -0.0446611 -0.0281087 -0.050877 0.001312 -7.35415 -0.0595711 6.44879 2650 
402 1 -0.045229 -0.0248401 -0.0517987 0.000233 -7.34363 -0.531351 6.41355 2650 
190 1 -0.0463681 -0.0616678 -0.0499542 0.000847 -7.84455 -0.0420364 7.28124 2650 
185 1 -0.046034 -0.0401039 -0.0496356 0.001312 -7.78794 -0.0744799 7.22302 2650 
347 1 -0.04668 -0.0310708 -0.0496622 0.000847 -7.79725 0.0147928 7.32955 2650 
183 1 -0.0469462 -0.0239397 -0.050247 0.000233 -6.68516 0.118209 6.25458 2650 
95 1 -0.04511 -0.0186897 -0.0504706 0.001312 -6.49714 -0.0188055 5.85542 2650 
140 1 -0.0478542 -0.013558 -0.049383 0.000233 -6.84184 0.395441 6.63101 2650 
23 1 -0.0485865 -0.0624137 -0.0486674 0.000233 -7.67249 0.0339718 7.6601 2650 
19 1 -0.0477396 -0.0617439 -0.0486457 0.000847 -7.64146 -7.92301e-05 7.49914 2650 
20 1 -0.0481513 -0.0377715 -0.0482346 0.000847 -7.47045 0.196422 7.46371 2650 
74 1 -0.0477131 -0.0244956 -0.0486675 0.000847 -4.87278 -0.0911651 4.78161 2650 
316 1 -0.0498845 -0.0618353 -0.0464414 0.000847 -7.23114 -0.00857997 7.76902 2650 
367 1 -0.0487353 -0.0568787 -0.0469879 0.001312 -7.31715 -0.0672898 7.58878 2650 
169 1 -0.049907 -0.0401913 -0.0473114 0.000233 -7.48566 0.386359 7.89577 2650 
88 1 -0.0505559 -0.00172908 -0.0466137 0.000233 -5.1082 -0.326698 5.51794 2650 
445 1 -0.0510692 -0.0396322 -0.0444443 0.001312 -6.94275 -0.0402236 7.97791 2650 
141 1 -0.0522831 -0.0325296 -0.0446682 0.000233 -5.97606 -0.0420939 6.99313 2650 
306 1 -0.0511154 -0.0278809 -0.0450817 0.000847 -5.20108 -0.0941844 5.86628 2650 
278 1 -0.0530012 -0.0618443 -0.042852 0.000847 -6.60997 -0.0189335 8.17787 2650 
82 1 -0.0521419 -0.0276032 -0.043167 0.001312 -4.99791 -0.166538 6.00987 2650 
452 1 -0.0540984 -0.0538042 -0.0424594 0.000233 -6.81102 0.0525734 8.67777 2650 
9 1 -0.0557771 -0.030134 -0.0402195 0.000233 -6.40574 -0.252566 8.88274 2650 
110 1 -0.0550607 -0.0190281 -0.0401884 0.000847 -3.99172 -0.0126593 5.46858 2650 
53 1 -0.0556214 -0.00472059 -0.0404357 0.000233 -5.02333 0.112628 6.88682 2650 
159 1 -0.0553371 -0.0423364 -0.0390143 0.001312 -6.1398 -0.055664 8.7122 2650 
274 1 -0.0564235 -0.00859034 -0.0393186 0.000233 -4.82939 0.140271 6.92764 2650 
317 1 -0.0566968 -0.0493766 -0.0378516 0.000847 -5.83482 -0.0528813 8.74072 2650 
314 1 -0.0594153 -0.0298057 -0.0349123 8.4e-05 -5.59089 0.472215 9.51465 2650 
448 1 -0.0577644 -0.013545 -0.0362016 0.000847 -4.49561 0.66359 7.13212 2650 
420 1 -0.0593975 -0.0420512 -0.0334471 0.000847 -5.13367 0.0745991 9.12322 2650 
193 1 -0.059627 -0.0211536 -0.0342738 0.000233 -4.62943 -0.0432497 8.04562 2650 
497 1 -0.0592474 -0.0440973 -0.0327752 0.001312 -4.9815 0.0498507 9.01457 2650 
338 1 -0.0622071 -0.0381337 -0.0293176 0.000233 -4.68443 0.263032 9.94226 2650 
349 1 -0.062093 -0.0309703 -0.0295538 0.000233 -4.55855 0.99599 9.5912 2650 
324 1 -0.0622101 -0.00450994 -0.0293007 0.000233 -2.50361 0.0561194 5.29579 2650 
433 1 -0.0631289 -0.0125164 -0.0257114 0.000847 -3.28882 0.232822 8.05412 2650 
78 1 -0.0653357 -0.0402744 -0.0214487 0.000233 -3.29305 -0.368005 10.0403 2650 
119 1 -0.067396 -0.019592 -0.0141768 8.4e-05 -0.638112 -0.0677293 3.538 2650 
481 1 -0.0676239 -0.0341384 -0.0124834 0.000233 -1.69971 -0.0462699 9.34179 2650 
219 1 -0.0676748 -0.0156501 -0.0122049 0.000233 -1.52434 -0.441315 8.41602 2650 
459 1 -0.0670999 -0.00963631 -0.0119532 0.000847 -1.58178 -0.0681542 8.83584 2650 
36 1 -0.0110419 -0.00329344 -0.0121258 0.000233 -0.00694015 -0.0110026 0.00740861 2650 
248 1 -0.010064 -0.00253655 -0.0122046 0.000233 -0.00637846 -0.0124761 -0.00236458 2650 
346 1 -0.0673372 -0.061742 -0.0105443 0.000847 -1.62514 -0.0314003 10.3761 2650 
350 1 -0.068047 -0.0505201 -0.00991458 0.000233 -1.52412 0.107724 10.456 2650 
421 1 -0.0674034 -0.044301 -0.0100967 0.000847 -1.57327 -0.0684606 10.5042 2650 
150 1 -0.0674337 -0.0414717 -0.00989155 0.000847 -1.53084 0.285867 10.3997 2650 
479 1 -0.068035 -0.00697249 -0.00999831 0.000233 -1.31074 0.0485651 8.89093 2650 
13 1 -0.012448 -0.00251632 -0.010914 8.4e-05 0 -0.011754 0 2650 
69 1 -0.0104213 -0.00196781 -0.010729 0.001312 -0.00193923 -0.0114169 0.000188368 2650 
209 1 -0.001802 -0.00109732 -0.011003 0.000233 0 -0.011754 0 2650 
308 1 -0.0675385 -0.0480046 -0.0091554 0.000847 -1.48128 -0.099959 10.9179 2650 
449 1 -0.067527 -0.0458807 -0.00924211 0.000847 -1.47237 -0.00752848 10.7588 2650 
197 1 -0.068266 -0.0434804 -0.00942981 8.4e-05 -1.43979 -0.0750289 10.431 2650 
305 1 -0.0675676 -0.0429334 -0.00893433 0.000847 -1.37023 0.212517 10.3647 2650 
253 1 -0.0677204 -0.0441192 -0.00769526 0.000847 -1.16633 0.0718611 10.265 2650 
466 1 -0.0683706 -0.00701543 -0.00736454 0.000233 -0.850088 0.35528 7.87134 2650 
500 1 -0.0679156 -0.045171 -0.00576257 0.000847 -0.934655 0.288199 10.9138 2650 
513 1 -0.0679828 -0.0350264 -0.00484597 0.000847 -0.744848 0.00334772 10.2001 2650 
166 1 -0.0686925 -0.0472811 -0.00328969 0.000233 -0.537596 0.0764809 11.2215 2650 
136 1 -0.0680485 -0.0267685 -0.00383246 0.000847 -0.522079 0.0489711 9.1738 2650 
485 1 -0.0680871 -0.0349401 -0.00308 0.000847 -0.464019 -0.042747 10.2111 2650 
245 1 -0.0162676 -0.00097684 -0.00272013 0.000233 -0.00221759 -0.0111797 -0.00662502 2650 
173 1 -0.0677022 -0.0496074 -0.000132802 0.001312 -0.0207546 -0.0142154 10.4836 2650 
33 1 -0.0681553 -0.0382745 -0.00072216 0.000847 -0.109801 0.0502901 10.4383 2650 
75 1 -0.004976 -0.00153932 -0.001105 0.000233 0 -0.011754 0 2650 
409 1 -0.0681594 -0.0527219 0.00069225 0.000847 0.107498 -0.244058 10.5603 2650 
461 1 -0.0681624 -0.0399025 5.05397e-05 0.000847 -0.00859616 0.124551 10.3269 2650 
384 1 -0.0159482 -0.000203307 0.000693634 0.000847 0.00371215 -0.00343021 -0.035241 2650 
283 1 -0.0687182 -0.00789007 0.00266655 0.000233 0.0995472 -0.216594 3.31289 2650 
242 1 -0.010702 -0.00245832 0.00289 0.000847 0 -0.011754 0 2650 
376 1 -0.005395 -0.00204932 0.002758 0.000233 0 -0.011754 0 2650 
174 1 -0.001898 -0.00252632 0.003155 0.000847 0 -0.011754 0 2650 
131 1 -0.009967 -0.00219932 0.004313 0.000233 0 -0.011754 0 2650 
296 1 -0.002285 -0.000360325 0.004233 0.000233 0 -0.011754 0 2650 
208 1 -0.0684989 -0.0216397 0.00613411 0.000233 0.854474 -0.297402 9.48456 2650 
361 1 -0.012031 -4.23248e-05 0.0053 0.000233 0 -0.011754 0 2650 
90 1 -0.009269 -0.00141732 0.005356 0.000233 0 -0.011754 0 2650 
172 1 -0.000674482 -0.00136112 0.00519424 0.001312 0.000274478 -0.0120667 -0.00114405 2650 
442 1 -0.068445 -0.0367438 0.00664377 0.000233 0.945468 0.363831 9.709 2650 
216 1 -0.067765 -0.0176395 0.00740212 0.000847 0.407119 -0.399193 3.57276 2650 
152 1 -0.00526889 -0.00316842 0.00704296 0.000847 -0.00549303 -0.0153889 -0.00137695 2650 
329 1 -0.000110152 -0.0030938 0.00715457 0.000847 -0.0015804 -0.00797368 0.0011102 2650 
462 1 -0.0142696 -0.000518128 0.00700748 0.000847 -0.0053093 -0.00468048 -0.0120478 2650 
369 1 -0.008047 -0.00150232 0.006729 0.000847 0 -0.011754 0 2650 
277 1 -0.0133533 -0.00197368 0.00836838 0.000847 -0.00744758 -0.00968058 -0.00966905 2650 
45 1 -0.001763 -0.00268432 0.008462 0.000847 0 -0.011754 0 2650 
22 1 -0.002569 -0.00105332 0.009366 0.000233 0 -0.011754 0 2650 
92 1 -0.0677731 -0.0246113 0.0116513 0.000233 1.26461 -0.262387 7.43958 2650 
51 1 -0.0677415 -0.0119098 0.0118965 0.000233 0.576394 -0.315506 3.30103 2650 
256 1 -0.00890995 -0.00335803 0.0125749 0.000847 -0.595416 -0.0289822 0.840374 2650 
235 1 -0.00605 -0.00308632 0.012276 0.000233 0 -0.011754 0 2650 
128 1 -0.003888 -0.00226732 0.011415 0.000233 0 -0.011754 0 2650 
446 1 -0.000353 -0.000266325 0.015695 0.000847 0 -0.011754 0 2650 
41 1 -0.0663585 -0.00792247 0.0186084 8.4e-05 2.08342 -0.0767467 7.44287 2650 
259 1 -0.0642485 -0.0535398 0.0245264 0.000233 3.27447 0.923519 8.61443 2650 
272 1 -0.0630085 -0.0392715 0.0275475 0.000233 3.53215 -0.598108 8.08655 2650 
56 1 -0.0599089 -0.0117846 0.0292543 0.001312 -9.12855 -0.624305 4.48821 2650 
312 1 -0.05966 -0.0316064 0.0342 0.000233 4.29418 -0.691358 7.48991 2650 
49 1 -0.0578453 -0.00866982 0.0371834 0.000233 2.65751 0.842007 4.17227 2650 
44 1 -0.0558202 -0.0391617 0.0391055 0.000847 6.04711 0.0307311 8.63067 2650 
269 1 -0.0554221 -0.0410632 0.0396416 0.000847 6.27766 0.0388508 8.77475 2650 
290 1 -0.0538538 -0.0439371 0.0417763 0.000847 6.4289 -0.101916 8.2775 2650 
122 1 -0.0526964 -0.0385317 0.0432189 0.000847 6.38529 0.0359197 7.77061 2650 
247 1 -0.0527535 -0.0305406 0.0441107 0.000233 6.21909 1.70719 7.4394 2650 
473 1 -0.051671 -0.0505965 0.0444544 0.000847 7.09318 0.048059 8.24754 2650 
396 1 -0.0512379 -0.0432394 0.0449549 0.000847 6.81825 -0.0592127 7.76075 2650 
494 1 -0.0522382 -0.0178996 0.0447351 0.000233 4.97121 -1.22887 5.80411 2650 
264 1 -0.0486935 -0.0552927 0.0476938 0.000847 7.39026 -0.133335 7.53892 2650 
148 1 -0.047864 -0.0452327 0.0485388 0.000847 7.64752 -0.115208 7.54016 2650 
100 1 -0.047915 -0.036456 0.0484704 0.000847 7.04114 -0.117645 6.95906 2650 
381 1 -0.0460553 -0.0310929 0.0502565 0.000847 7.24703 -0.1362 6.65649 2650 
47 1 -0.0441322 -0.0385895 0.0519445 0.000847 8.16127 -0.127229 6.93425 2650 
360 1 -0.0456954 -0.0370423 0.0505709 0.000847 7.46616 -0.302986 6.75018 2650 
167 1 -0.0437341 -0.0440445 0.053087 0.000233 7.83431 -0.0933788 6.44539 2650 
322 1 -0.0433639 -0.031716 0.0533698 0.000233 7.55483 -0.425262 6.13627 2650 
144 1 -0.0435686 -0.0140242 0.0532225 0.000233 4.98481 -0.470158 4.09088 2650 
125 1 -0.0410539 -0.0335049 0.0544007 0.000847 7.48745 -0.214287 5.65098 2650 
327 1 -0.0419245 -0.00493715 0.0546941 8.4e-05 6.61853 0.290198 5.07288 2650 
182 1 -0.0380551 -0.0264324 0.0572758 0.000233 7.59362 -0.148887 5.0425 2650 
106 1 -0.0378583 -0.0166708 0.0576008 8.4e-05 5.60553 0.205722 3.6707 2650 
288 1 -0.0363818 -0.054581 0.0585336 8.4e-05 8.25821 0.932106 5.13916 2650 
488 1 -0.0273798 -0.0334664 0.0624148 0.000847 8.96429 -0.172554 3.93555 2650 
339 1 -0.0305407 -0.00808318 0.0616138 0.000233 6.25905 0.00499591 3.11014 2650 
340 1 -0.0195983 -0.0496387 0.0659857 8.4e-05 10.828 -0.321869 3.21301 2650 
298 1 -0.0213633 -0.0382583 0.0653403 0.000233 9.19022 0.00414179 3.01715 2650 
411 1 -0.0158323 -0.0371982 0.066291 0.000847 9.71923 -0.0720339 2.2954 2650 
151 1 -0.0179352 -0.0208788 0.06575 0.000847 9.28257 -0.0794913 2.5436 2650 
341 1 -0.0122477 -0.0590181 0.066576 0.001312 10.5052 0.0524709 1.93279 2650 
239 1 -0.0127216 -0.0524653 0.0669521 0.000847 10.5586 0.0951761 2.00676 2650 
424 1 -0.00704398 -0.0513159 0.0677991 0.000847 10.9286 0.0209206 1.13616 2650 
162 1 -0.0131003 -0.0506317 0.0668907 0.000847 10.5025 0.0301894 2.05662 2650 
334 1 -0.0105696 -0.0501175 0.0673407 0.000847 10.6687 -0.132078 1.67616 2650 
460 1 -0.0120187 -0.0490824 0.0670949 0.000847 10.6457 0.0351314 1.90682 2650 
138 1 -0.0092429 -0.0423524 0.0675349 0.000847 10.9824 0.0749045 1.47592 2650 
507 1 -0.0165087 -0.0260012 0.0667531 0.000233 9.07205 0.284268 2.2282 2650 
522 1 -0.0171372 -0.0134853 0.0667306 8.4e-05 7.20594 0.270082 1.71367 2650 
323 1 -0.000746493 -0.0434784 0.0687767 0.000233 11.1629 0.632576 0.122304 2650 
498 1 -8.98123e-05 -0.0369973 0.0681569 0.000847 9.86576 -0.0193585 0.00995015 2650 
270 1 -0.0108917 -0.0160861 0.0679066 0.000233 9.33482 0.0930961 1.50745 2650 
443 1 -0.00566417 -0.0171866 0.0682744 0.000233 3.27451 -0.812538 0.5077 2650 
431 1 -0.000395674 -0.0136901 0.0689294 8.4e-05 9.93637 -0.263299 0.0555201 2650 
435 1 -0.00116376 0.00405822 -0.0160046 0.000847 0.00973258 0.0145382 -0.0211401 2650 
389 1 -0.000770868 0.00993412 -0.0164408 0.000233 0.025749 -0.0113205 0.0382716 2650 
444 1 -0.00759962 0.00568782 -0.014795 8.4e-05 -0.00260039 0.00547496 0.00633282 2650 
163 1 -0.00248156 0.00607803 -0.0154334 0.000847 0.0124042 0.0208825 -0.00559459 2650 
357 1 -0.00333803 0.00852473 -0.0154375 0.000847 -0.00356262 0.00740695 0.00116372 2650 
16 1 -0.00408496 0.0356751 -0.0148294 0.001312 -0.00372561 0.0412357 0.00325068 2650 
371 1 -0.00511791 0.0487537 -0.0150901 0.000847 -0.0255412 0.0511436 0.0118966 2650 
425 1 -6.65241e-05 0.0508189 -0.0148179 0.000847 0.000798131 0.0539086 0.00864932 2650 
268 1 -0.00369142 0.0599222 -0.0155763 0.000847 -0.0299804 0.0810479 0.00539052 2650 
68 1 -0.00579939 0.00367339 -0.0132688 0.001312 0.0078264 0.0066275 -0.00288547 2650 
212 1 -0.000523515 0.00377398 -0.0134111 0.001312 -0.000431411 -0.00238781 -0.00442068 2650 
348 1 -0.00874884 0.00496413 -0.0130877 0.000233 -0.00855875 -0.000417391 0.0118261 2650 
282 1 -0.00797629 0.00549194 -0.0138794 0.000847 -0.0102628 0.0112017 0.0074648 2650 
501 1 -0.00641558 0.00645029 -0.0138745 0.000847 -0.00139048 0.00902178 -0.00690783 2650 
76 1 -0.00541326 0.0109426 -0.0140378 0.000233 -0.00578221 0.011958 0.00483197 2650 
266 1 -0.00306147 0.00357256 -0.0122433 0.000847 -0.00632715 -0.00517157 -0.00417132 2650 
2 1 -0.00653841 0.00560862 -0.0113655 0.001312 0.00464057 0.00626666 0.00147605 2650 
309 1 -0.00436281 0.00763458 -0.011804 0.000233 0.0103453 0.0266865 0.0107191 2650 
386 1 -0.00337688 0.00790749 -0.0112606 0.000847 -0.00923714 0.00439228 0.00327807 2650 
37 1 -0.0117128 0.011123 -0.0116378 0.000233 -0.0110769 0.0405379 0.0129588 2650 
115 1 -0.0105516 0.0139207 -0.0122156 0.000233 -0.00509119 0.0090838 -0.00606222 2650 
91 1 -0.00928095 0.0191756 -0.0123536 0.000233 -0.011194 0.0308527 0.0129891 2650 
273 1 -0.00102298 0.0216486 -0.0115997 0.000233 -0.00788291 0.0124072 0.00594868 2650 
15 1 -0.00715862 0.0260494 -0.0110724 0.001312 -0.00235194 0.0225075 0.0056031 2650 
77 1 -0.0113571 0.0332954 -0.0116281 0.000233 -0.0320958 0.0275881 -0.0145233 2650 
392 1 -0.00772795 0.00120595 -0.0109902 8.4e-05 -0.00068915 -0.00349539 -0.00139054 2650 
439 1 -0.00890378 0.0117543 -0.0103836 0.000233 0.00360649 -0.00462834 0.00809011 2650 
399 1 -0.0110308 0.0165706 -0.010787 0.000847 0.00722196 0.0151601 -0.0170469 2650 
332 1 -0.0132661 0.000215817 -0.00869028 0.000847 -2.59197e-05 -0.0117517 -8.4822e-06 2650 
512 1 -0.00931765 0.00139145 -0.00894882 0.000847 -0.00620923 0.00136295 0.0121494 2650 
94 1 -0.00670725 0.00759261 -0.0094651 0.001312 -0.0124084 0.00377188 0.00598516 2650 
225 1 -0.00384375 0.00739834 -0.00841885 0.001312 -0.0025157 0.00885487 -0.00255804 2650 
502 1 -0.0125568 0.0200077 -0.00927289 0.000847 -0.0201091 0.0131014 0.0230655 2650 
177 1 -0.0107717 0.019583 -0.00937321 0.000847 -0.0114517 0.0203964 0.00745206 2650 
331 1 -0.00718469 0.0261581 -0.00889621 0.000847 0.00840645 0.0232594 0.00867855 2650 
133 1 -0.00303109 0.000301453 -0.00693832 0.001312 -0.0021989 -0.00307358 0.00294343 2650 
237 1 -0.0124547 0.00225909 -0.00691892 0.001312 -0.0166288 -0.00194159 -0.00249817 2650 
147 1 -0.00615738 0.00384446 -0.00727871 0.001312 -0.00155224 -0.00287693 0.000873515 2650 
391 1 -0.0121142 0.0207317 -0.00656917 0.000233 -0.0185168 0.0226742 0.0109675 2650 
66 1 -0.0125194 0.0487133 -0.00750775 0.000233 0.00347261 0.0341619 0.00411013 2650 
202 1 -0.00122692 0.00116619 -0.00579359 0.000847 -0.000325259 -0.00498031 0.00775896 2650 
407 1 -0.0023982 0.00218211 -0.00508695 0.000847 -0.00271156 -0.00263393 0.00241233 2650 
158 1 -0.0114249 0.00469667 -0.00555762 8.4e-05 0.00188877 -0.00284778 0.00557992 2650 
198 1 -0.0132497 0.00668598 -0.00617305 0.001312 -0.00588684 -0.00188959 0.0126317 2650 
204 1 -0.0137013 0.0190704 -0.00504972 0.000847 -0.0114452 0.0176588 -0.00542553 2650 
31 1 -0.0110436 0.0361336 -0.00481223 0.000847 0.0128996 0.0556905 -0.00624527 2650 
72 1 -0.00616051 0.0538071 -0.00586214 0.000847 0.00694298 0.0370303 0.0147661 2650 
17 1 -0.00238127 0.0035611 -0.00406482 0.000847 -0.00529384 -0.000624951 0.00099193 2650 
149 1 -0.00775158 0.0102046 -0.00376721 0.000847 0.00533574 0.00120564 0.000572163 2650 
199 1 -0.0119923 0.0209818 -0.00422723 0.001312 -0.0101783 0.0154526 -0.00123675 2650 
7 1 -0.0128042 0.0230096 -0.00377666 0.000847 0.00509742 0.0248497 0.013646 2650 
482 1 -0.0154026 0.0514126 -0.00384373 0.000233 -0.00272 0.0425188 0.0154078 2650 
373 1 -0.0154785 0.00452827 -0.00164938 0.000847 0.000337109 0.0216316 -0.00631221 2650 
5 1 -0.0121275 0.0114614 -0.00258576 0.000847 0.0159354 0.00855543 0.0196475 2650 
21 1 -0.000242127 0.022492 -0.00266398 0.000847 -0.0107612 0.0244459 0.0309069 2650 
469 1 -0.0133007 8.48786e-05 -0.00125235 0.000233 -0.00294498 -0.00215916 -0.0350837 2650 
223 1 -0.0138854 0.00212099 -0.00104186 8.4e-05 0.151501 0.253258 -0.363365 2650 
206 1 -0.00063067 0.00186931 -0.000194311 0.000233 0.000200844 -0.0022057 -0.0101649 2650 
121 1 -0.0128163 0.00974028 -0.000495481 0.001312 0.00840531 0.00591376 0.00499871 2650 
178 1 -0.00649137 0.0179853 -0.00108251 0.000847 -0.00942264 0.0138974 -0.0144999 2650 
217 1 -0.0129407 0.0272145 -0.00112939 0.000847 -0.0164792 0.0356281 0.00207149 2650 
408 1 -0.00180282 0.0274835 -0.00152416 0.000847 0.0243368 0.0195503 -0.0236234 2650 
213 1 -0.0149771 0.0346905 -0.00119069 0.000847 -0.0276122 0.0115162 0.0273764 2650 
450 1 -0.00969915 0.00164594 0.000543491 0.000847 0.0141697 0.00366662 0.00769839 2650 
467 1 -0.0147185 0.0039927 0.000399667 0.000233 -0.0114317 0.00391679 0.0097834 2650 
345 1 -0.00377281 0.00463399 0.00077814 0.000847 0.0102698 0.00604929 0.00457735 2650 
355 1 -0.0151478 0.00549212 0.000237649 0.000847 0.00437228 0.0104751 -0.0043935 2650 
153 1 -0.0164944 0.0234965 0.00153961 0.000233 0.00753817 0.0191391 0.0304205 2650 
503 1 -0.0100284 0.024963 0.000169249 0.000233 -0.0202763 0.0321153 0.0393148 2650 
137 1 -0.00375693 0.0435566 0.00136325 0.000847 0.0204383 0.0331061 0.00315705 2650 
440 1 -0.0105946 0.0010369 0.00204571 0.000233 0.00893327 0.00123303 0.0100401 2650 
186 1 -0.0122033 0.00468611 0.00200155 0.001312 0.0109248 -0.00095807 0.00524279 2650 
301 1 -0.00396887 0.00424848 0.00247292 8.4e-05 -0.00542456 -0.000958437 0.00851575 2650 
156 1 -0.0121303 0.0095914 0.00184002 0.000233 0.00826491 0.00699737 -0.00422055 2650 
226 1 -0.00500659 0.0182001 0.00289599 0.000847 0.00503538 0.0348535 0.0122627 2650 
222 1 -0.00798774 0.0293665 0.00164917 0.000233 -0.0191158 0.00902985 0.033076 2650 
262 1 -0.0142116 0.0449858 0.0027193 8.4e-05 -0.00568771 0.047836 0.0275692 2650 
470 1 -0.008539 0.000698675 0.004033 8.4e-05 0 -0.011754 0 2650 
374 1 -0.006913 0.000605675 0.00361 0.000233 0 -0.011754 0 2650 
168 1 -0.01092 0.00446246 0.0034926 0.000233 0.010374 0.000533782 0.0120746 2650 
515 1 -0.0147056 0.0102227 0.00335941 0.000847 0.0111869 0.00310859 -0.0146617 2650 
244 1 -0.002251 0.000160675 0.006118 0.000233 0 -0.011754 0 2650 
451 1 -0.0119524 0.00750166 0.00586272 0.000847 0.0101382 0.00361366 0.00843172 2650 
29 1 -0.00480034 0.013664 0.00479637 0.001312 0.00949452 0.0217713 0.0254281 2650 
214 1 -0.0123398 0.0205101 0.00543794 0.000847 0.0140272 0.0148951 0.00243728 2650 
299 1 -0.00110932 0.0217 0.00549333 0.000233 -0.0415925 0.0521106 0.00250536 2650 
291 1 -0.00139457 0.00793736 0.00751607 0.000847 0.000368443 -0.000878557 -0.00367841 2650 
413 1 -0.00685808 0.0229175 0.00746043 0.000233 0.0212736 0.0189692 -0.00433326 2650 
80 1 -0.00271731 0.0274806 0.00706144 8.4e-05 -0.0125032 0.0188644 0.0118682 2650 
511 1 -0.0139075 0.0396285 0.00734384 0.000847 -0.0191909 0.0247707 0.000400878 2650 
518 1 -0.0127014 0.00227597 0.0104421 0.000233 -0.00455624 0.0103112 -0.00628034 2650 
164 1 -0.00863415 0.00177333 0.0109649 0.000847 0.00171122 0.000309802 0.036423 2650 
464 1 -0.0103494 0.0050565 0.00990989 0.000233 0.0566479 0.0284979 0.044719 2650 
457 1 -0.00463569 0.0203353 0.0108332 8.4e-05 0.00209197 0.0125772 -0.0227291 2650 
79 1 -0.00897685 0.0226971 0.0107309 0.000233 0.000840897 0.0441412 0.0394647 2650 
313 1 -0.004641 0.000378675 0.011299 0.000233 0 -0.011754 0 2650 
112 1 -0.00900519 0.0120653 0.0115843 0.000847 0.00071367 0.0206107 0.0385939 2650 
135 1 -0.0101667 0.0145666 0.0118574 0.000847 0.0322851 0.0519221 0.0188134 2650 
63 1 -0.00489493 0.0513209 0.0114922 0.000233 0.00544067 0.0487134 -0.0167697 2650 
390 1 -0.00116249 0.0124768 0.0135196 0.000233 -0.00350245 0.00582576 -0.00125219 2650 
388 1 -0.0100552 0.023944 0.0134009 0.000233 0.0509223 0.00313471 0.0443058 2650 
437 1 -0.00613267 0.0643199 0.0127078 0.000847 -0.00719255 0.0835002 -0.0252935 2650 
365 1 -0.00107074 0.079142 -0.015718 0.000233 0.0250435 0.0581581 -0.0310905 2650 
319 1 -0.00342203 0.081358 0.0106126 0.000847 0.00321502 0.103152 0.00477754 2650 
519 1 0.00985824 -0.0360704 -0.0680555 0.000233 -10.4196 -0.0676963 -1.5094 2650 
429 1 0.00368614 -0.00788826 -0.0686665 0.000233 -8.42698 0.270407 -0.452445 2650 
189 1 0.0137066 -0.0506086 -0.0667746 0.000847 -10.3534 0.0339704 -2.12846 2650 
113 1 0.0123637 -0.0463678 -0.0670362 0.000847 -10.6642 -0.00051758 -1.9666 2650 
134 1 0.00402177 -0.0449216 -0.0675755 0.001312 -10.6186 0.064118 -0.633905 2650 
320 1 0.00608139 -0.043782 -0.0678868 0.000847 -10.6421 0.0265257 -0.953444 2650 
330 1 0.00915397 -0.0423637 -0.0675442 0.000847 -10.5261 0.0020718 -1.42438 2650 
486 1 0.00969989 -0.037245 -0.0674629 0.000847 -10.4968 0.0913814 -1.49178 2650 
60 1 0.0126041 -0.0327015 -0.0669803 0.000847 -10.2722 -0.0358914 -1.93208 2650 
496 1 0.0164311 -0.0214304 -0.0669348 8.4e-05 -8.81132 -0.45753 -2.17217 2650 
241 1 0.0212721 -0.0495122 -0.0647683 0.000847 -10.2639 -0.162396 -3.35639 2650 
380 1 0.0163075 -0.0483151 -0.0657138 0.001312 -10.3567 0.0714883 -2.57778 2650 
489 1 0.0197016 -0.0463438 -0.0652635 0.000847 -10.3607 -0.0241659 -3.12738 2650 
315 1 0.0156875 -0.0455703 -0.065865 0.001312 -10.3753 0.0831339 -2.47256 2650 
175 1 0.0207784 -0.0438792 -0.0649256 0.000847 -10.388 0.0313308 -3.32294 2650 
102 1 0.0199862 -0.0373695 -0.0657993 0.000233 -10.2773 0.0744247 -3.12112 2650 
432 1 0.0183699 -0.030743 -0.0651622 0.001312 -10.2352 -0.0427869 -2.88601 2650 
468 1 0.0229663 -0.0106149 -0.0648302 0.000233 -9.91706 0.479957 -3.51119 2650 
116 1 0.0187069 -0.00425147 -0.0661719 0.000233 -5.21577 0.192958 -1.4108 2650 
463 1 0.0252051 -0.048544 -0.063341 0.000847 -9.9524 -0.129247 -3.96063 2650 
171 1 0.0257765 -0.033934 -0.0639095 8.4e-05 -9.39632 0.345515 -3.78612 2650 
393 1 0.0213018 -0.0311134 -0.0642679 0.001312 -10.1197 -0.0924298 -3.352 2650 
249 1 0.0247405 -0.0146422 -0.0643362 8.4e-05 -7.10601 -0.0594665 -2.72436 2650 
142 1 0.0259384 -0.00844712 -0.0636938 0.000233 -7.89679 0.182414 -3.21442 2650 
84 1 0.0263404 -0.045418 -0.0628761 0.000847 -9.86348 -0.0557356 -4.13345 2650 
96 1 0.02873 -0.0311164 -0.0618149 0.000847 -9.52298 0.0350266 -4.43268 2650 
61 1 0.0281775 -0.0168838 -0.0620744 0.000847 -7.7218 -0.121251 -3.45723 2650 
267 1 0.0303655 -0.034526 -0.0610151 0.000847 -9.4287 -0.0109693 -4.69259 2650 
32 1 0.0342799 -0.0356544 -0.0589056 0.000847 -9.12137 -0.0293016 -5.30794 2650 
280 1 0.0339303 -0.0305648 -0.0591109 0.000847 -9.09645 0.145154 -5.21952 2650 
480 1 0.0338342 -0.000233179 -0.0598669 0.000233 -6.29658 0.000313688 -3.57359 2650 
423 1 0.0361156 -0.0365047 -0.0577975 0.000847 -8.95287 -0.0890813 -5.59556 2650 
120 1 0.0362487 -0.0310184 -0.0571786 0.001312 -8.762 -0.00626355 -5.55725 2650 
114 1 0.0370888 -0.0186021 -0.0579121 0.000233 -7.19028 0.0211752 -4.59032 2650 
344 1 0.0385194 -0.0570971 -0.0562271 0.000847 -8.82199 -0.123668 -6.08301 2650 
201 1 0.0383245 -0.0327753 -0.0563609 0.000847 -8.65493 -0.0436926 -5.87552 2650 
250 1 0.0388548 -0.0302424 -0.0554366 0.001312 -8.59521 0.00356759 -6.02403 2650 
93 1 0.0418698 -8.41324e-05 -0.0547373 8.4e-05 -5.61997 -0.000578696 -4.28095 2650 
521 1 0.0436647 -0.00509033 -0.053316 8.4e-05 -5.49464 0.157028 -4.49735 2650 
230 1 0.0447472 -0.0346495 -0.051411 0.000847 -7.81329 0.0466253 -6.80324 2650 
117 1 0.0512503 -0.00989029 -0.0458553 0.000233 -5.80689 -0.0466225 -6.42672 2650 
85 1 0.0507383 -0.0366619 -0.0455055 0.000847 -7.00661 -0.00309643 -7.80905 2650 
67 1 0.0527817 -0.000722911 -0.044309 8.4e-05 -5.20747 -0.163523 -6.19804 2650 
130 1 0.0532066 -0.0248251 -0.0435642 0.000233 -4.44537 -0.0902226 -5.46067 2650 
477 1 0.0593266 -0.0114335 -0.0347982 0.000233 -4.02912 -0.258837 -6.87097 2650 
59 1 0.0588741 -0.0485638 -0.0343696 0.000847 -5.26227 0.097896 -9.01277 2650 
335 1 0.0612758 -0.0366424 -0.0312111 0.000233 -4.65278 0.274903 -9.14207 2650 
364 1 0.0643534 -0.024124 -0.0242442 0.000233 -3.55148 0.0745933 -9.40542 2650 
101 1 0.065482 -0.0140564 -0.0210177 0.000233 -2.45727 -0.170159 -7.62645 2650 
284 1 0.00373125 -0.004301 -0.0191193 0.000233 0.343803 -0.268873 -1.52579 2650 
210 1 0.00448956 -0.000174283 -0.0160388 8.4e-05 -0.0101555 -0.00697022 -0.00276126 2650 
24 1 0.0670921 -0.0210808 -0.0150769 0.000233 -1.87302 0.142267 -8.2999 2650 
395 1 0.00110872 -0.00105266 -0.01499 0.000847 0.00509824 -0.00223179 0.00216209 2650 
366 1 0.005681 -0.00109232 -0.015538 8.4e-05 0 -0.011754 0 2650 
415 1 0.0674433 -0.0108317 -0.0134203 0.000233 -1.56838 -0.036109 -7.86376 2650 
139 1 0.00689801 -0.000910076 -0.0141386 0.000847 0.00115243 -0.00773472 0.00358594 2650 
129 1 0.0678528 -0.00401579 -0.0111501 0.000233 -1.26114 -0.211941 -7.41101 2650 
224 1 0.00138873 -0.00112821 -0.0125597 0.001312 0.00440762 -0.00590734 0.000702176 2650 
12 1 0.0107656 -0.00116392 -0.0116614 0.000233 0.00873092 -0.0095669 0.00190822 2650 
146 1 0.00377444 -0.0025374 -0.00873731 0.001312 0.00673703 -0.0102174 0.00415946 2650 
154 1 0.012406 -0.00144132 -0.008801 0.000233 0 -0.011754 0 2650 
343 1 0.0676922 -0.0134718 -0.00734635 0.000847 -0.880336 -0.0852528 -8.15667 2650 
405 1 0.00235323 -0.000533378 -0.00740594 8.4e-05 0.0025106 -0.0076758 0.00495174 2650 
353 1 0.00299126 -0.00236144 -0.00188382 8.4e-05 0.0015345 -0.00573097 -0.0125122 2650 
483 1 0.0688845 -0.00269931 -0.00190179 8.4e-05 -0.150252 -0.15961 -6.54336 2650 
351 1 0.000422 -0.00312432 -0.00156 0.000233 0 -0.011754 0 2650 
426 1 0.00585323 -0.00217404 -0.00109287 0.000233 -0.00184642 -0.0123346 -0.0119623 2650 
50 1 0.0107289 -0.0023408 0.0012812 0.000233 -0.00122274 -0.00865396 -0.00164665 2650 
265 1 0.0060533 -0.000319292 0.0004353 0.000847 -0.00161831 -0.00717065 -0.0105314 2650 
487 1 0.0680679 -0.0319845 0.00346229 0.000847 0.526905 -0.0776728 -10.3623 2650 
492 1 0.0686545 -0.0288788 0.00387377 0.000233 0.390312 0.262284 -6.98799 2650 
70 1 0.068028 -0.0201548 0.00431481 0.000847 0.582796 0.022567 -9.58831 2650 
236 1 0.06877 -0.00830637 0.00454515 8.4e-05 0.52992 -0.120608 -8.15064 2650 
499 1 0.00195553 -0.00338904 0.00428347 0.000847 0.156722 -0.0352026 0.352873 2650 
303 1 0.0145863 -0.0035051 0.00331869 0.000847 1.76392 -0.0514172 0.401331 2650 
456 1 0.009608 -0.00259932 0.003179 0.000233 0 -0.011754 0 2650 
35 1 0.00876832 -0.000159636 0.00380663 0.000847 -0.0121953 -9.57773e-05 0.00420749 2650 
387 1 0.00159661 -0.00300932 0.00534216 0.000233 -0.00271318 -0.0113279 0.00188639 2650 
54 1 0.014879 -0.00285232 0.006531 8.4e-05 0 -0.011754 0 2650 
252 1 0.00101981 -0.00238106 0.00824655 0.000847 0.000972653 -0.0104164 0.00130056 2650 
104 1 0.002239 -0.000669325 0.008255 0.000233 0 -0.011754 0 2650 
375 1 0.002381 -0.00283332 0.009939 0.000233 0 -0.011754 0 2650 
428 1 0.0130877 -0.00294658 0.0103073 0.000233 -0.0006844 -0.00321647 0.00718742 2650 
401 1 0.0674147 -0.0483185 0.0136433 0.000233 1.99714 0.502117 -9.86645 2650 
11 1 0.00661538 -0.00246194 0.0153221 0.000233 -0.0283571 -0.0052922 0.0152523 2650 
176 1 0.00333046 -0.00144301 0.0146937 0.000847 0.00761816 -0.00329714 -0.00812013 2650 
81 1 0.0658188 -0.0275041 0.0158261 0.001312 2.3365 -0.0338508 -9.70701 2650 
10 1 0.0666563 -0.00444838 0.0168991 0.000233 1.50133 0.00557914 -5.99487 2650 
358 1 0.0644004 -0.0524951 0.022333 0.000847 3.46358 0.0499936 -9.98816 2650 
378 1 0.0632009 -0.0398375 0.0271056 0.000233 4.11593 -0.909235 -9.5868 2650 
157 1 0.0588212 -0.0330172 0.0355955 0.000233 5.14267 -0.591939 -8.51295 2650 
257 1 0.0612312 -0.0625907 0.0364776 0.000233 7.4893 -0.325528 -7.14501 2650 
410 1 0.0574196 -0.0619465 0.0367155 0.000847 5.64447 0.00824376 -8.82661 2650 
436 1 0.0554061 -0.0619052 0.039691 0.000847 6.07793 0.00482896 -8.48598 2650 