ITEM: TIMESTEP
7254358
ITEM: NUMBER OF ATOMS
517
ITEM: BOX BOUNDS ff ff ff
-0.15 0.15
-0.15 0.15
-0.15 0.15
ITEM: ATOMS id type x y z radius vx vy vz density 
243 1 -0.00583605 -0.0563498 -0.0678997 0.000847 -8.65869 -0.0371086 0.724803 2650 
124 1 -0.000333051 -0.0489651 -0.0681578 0.000847 -8.91843 -0.0346773 0.024443 2650 
452 1 -0.0176824 -0.0600177 -0.0664536 0.000233 -8.96795 0.36861 2.38395 2650 
341 1 -0.0121067 -0.0550927 -0.066602 0.001312 -6.98352 1.23268 1.2679 2650 
148 1 -0.00889194 -0.0329029 -0.0675743 0.000847 -7.94682 0.0210826 1.03508 2650 
458 1 -0.014616 -0.0597186 -0.0660978 0.001312 -8.33464 0.332906 1.86804 2650 
239 1 -0.0255204 -0.0393665 -0.0632035 0.000847 -8.10255 0.0872297 3.27584 2650 
47 1 -0.0367717 -0.0325189 -0.0573821 0.000847 -7.44059 -0.119951 4.73336 2650 
170 1 -0.0444011 -0.0117038 -0.0525211 0.000233 -4.91937 -0.233024 4.17704 2650 
520 1 -0.0442994 -0.0100291 -0.0525906 0.000233 -4.55955 1.04975 3.78236 2650 
173 1 -0.0438374 -0.0468654 -0.0515973 0.001312 -6.86373 -0.0499278 5.84212 2650 
393 1 -0.0476463 -0.00441929 -0.0480825 0.001312 -5.1635 -0.454094 5.06704 2650 
421 1 -0.0505128 -0.0333696 -0.0457569 0.000847 -5.47054 0.0322987 6.03488 2650 
155 1 -0.0545764 -0.019704 -0.0418318 0.000233 -2.04367 -0.557346 2.63999 2650 
300 1 -0.0563924 -0.0624819 -0.0393566 0.000233 -4.46317 0.388203 6.37404 2650 
190 1 -0.0564977 -0.0613399 -0.0381224 0.000847 -4.26571 -0.0563817 6.30661 2650 
308 1 -0.0600667 -0.0329429 -0.0322021 0.000847 -3.98373 -0.0334436 7.34616 2650 
487 1 -0.05986 -0.0174758 -0.0326082 0.000847 -1.61889 -0.65815 3.02464 2650 
358 1 -0.0639098 -0.0498117 -0.0237207 0.000847 -3.04675 -0.000769421 8.25088 2650 
340 1 -0.0647029 -0.0325078 -0.0237162 8.4e-05 -2.49624 0.240609 6.82775 2650 
100 1 -0.0654833 -0.0205725 -0.0189305 0.000847 -1.98276 -0.259404 6.9169 2650 
102 1 -0.0663058 -0.0188555 -0.0182762 0.000233 -1.92128 -0.0267565 6.93984 2650 
175 1 -9.1727e-06 -0.00648564 -0.0169884 0.000847 -0.14909 -1.28656 -0.764324 2650 
179 1 -0.0672697 -0.00826716 -0.0142907 0.000233 -1.53212 0.106525 7.14082 2650 
86 1 -0.0012491 -0.00215079 -0.0157865 0.000847 0.0696064 0.0121513 0.0285637 2650 
4 1 -0.06706 -0.0258502 -0.0121666 0.000847 -1.17218 0.0102256 6.47736 2650 
230 1 -0.0672376 -0.0199455 -0.0111972 0.000847 -1.24403 0.107823 7.43315 2650 
346 1 -0.0674845 -0.0506539 -0.00957701 0.000847 -1.03316 -0.0520339 7.4538 2650 
29 1 -0.00813784 -0.001378 -0.0109848 0.001312 0.00123889 -0.0134407 -0.00231107 2650 
127 1 -0.0683263 -0.0310871 -0.00779845 0.000233 -1.12722 -0.126544 9.79635 2650 
160 1 -0.0067723 -0.000688829 -0.00849678 0.001312 -0.0114822 -0.00963467 0.00806743 2650 
449 1 -0.00124858 -0.000826744 -0.00939276 0.000847 -0.000606132 -0.0114076 0.000648749 2650 
347 1 -0.00814192 -0.00185729 -0.00652895 0.000847 0.00650209 -0.0196345 -0.000170551 2650 
53 1 -0.00376931 -0.00261351 -0.00723323 0.000233 0.0598151 -0.0188612 0.0285381 2650 
266 1 -0.012074 -0.000112325 -0.006827 0.000847 0 -0.011754 0 2650 
483 1 -0.010366 -0.000880325 -0.006716 8.4e-05 0 -0.011754 0 2650 
125 1 -0.003357 -0.00256232 -0.006037 0.000847 0 -0.011754 0 2650 
402 1 -0.01496 -0.000350878 -0.00553097 0.000233 -0.0173414 -0.0140467 0.0366211 2650 
286 1 -0.016281 -0.000648325 -0.003576 0.000233 0 -0.011754 0 2650 
306 1 -0.011393 -0.00127432 -0.004559 0.000847 0 -0.011754 0 2650 
208 1 -0.068733 -0.0379973 -0.00211279 0.000233 -0.214296 0.116152 6.44125 2650 
118 1 -0.00950837 -0.0035095 -0.00229398 0.000233 -1.15789 -0.0519364 -0.279351 2650 
61 1 -0.000548 -0.00319532 -0.001635 0.000847 0 -0.011754 0 2650 
489 1 -0.00463511 -0.00288056 -0.00313931 0.000847 -0.0259232 -0.0202651 0.0153532 2650 
84 1 -0.004923 -0.000675325 -0.002038 0.000847 0 -0.011754 0 2650 
304 1 -0.0681552 -0.0231343 -0.000206838 0.000847 -0.0179447 0.0232751 6.71764 2650 
505 1 -0.0130347 -0.000223887 -0.000946547 0.000233 -0.00423101 -0.00434391 0.00740396 2650 
323 1 -0.008651 -0.000355325 0.002916 0.000233 0 -0.011754 0 2650 
183 1 -0.0686378 -0.0323643 0.00420329 0.000233 0.500771 -0.259003 7.9742 2650 
461 1 -0.0680487 -0.0312919 0.00381995 0.000847 0.453816 -0.115504 8.06719 2650 
218 1 -0.012593 -0.00297632 0.003611 0.000233 0 -0.011754 0 2650 
440 1 -0.0151001 -0.000633433 0.00318664 0.000233 0.00640272 0.00324748 -0.00679238 2650 
441 1 -0.014312 -0.000217325 0.004679 0.000233 0 -0.011754 0 2650 
302 1 -0.01139 -0.000522325 0.00396 0.001312 0 -0.011754 0 2650 
297 1 -0.0684869 -0.0250925 0.00613464 0.000233 0.754264 0.527913 8.10262 2650 
264 1 -0.003065 -0.00223732 0.00492 0.000847 0 -0.011754 0 2650 
274 1 -0.005863 -0.000442325 0.005228 0.000233 0 -0.011754 0 2650 
189 1 -0.001267 -0.000876325 0.004803 0.000847 0 -0.011754 0 2650 
78 1 -0.0683996 -0.0336189 0.00709283 0.000233 0.824524 -0.450576 7.92708 2650 
180 1 -0.0134343 -0.000901377 0.00639035 0.000233 -0.0490387 -0.0389904 -0.0883693 2650 
294 1 -0.0676189 -0.0330937 0.00853549 0.000847 1.00105 0.11644 8.03755 2650 
41 1 -0.008377 -0.000168325 0.009542 8.4e-05 0 -0.011754 0 2650 
259 1 -0.007193 -0.000136325 0.011052 0.000233 0 -0.011754 0 2650 
272 1 -0.0678311 -0.035138 0.0112968 0.000233 1.02202 -0.179091 6.27341 2650 
350 1 -0.001594 -0.00200532 0.011915 0.000233 0 -0.011754 0 2650 
454 1 -0.0674211 -0.0169958 0.0135646 0.000233 1.34157 -0.312562 6.57733 2650 
23 1 -0.0669592 -0.0142818 0.0157129 0.000233 1.57638 -0.197081 6.69401 2650 
9 1 -0.000634809 -0.00052794 0.0153131 0.000233 0.00683895 -0.0120635 0.0025543 2650 
507 1 -0.066633 -0.0219426 0.0170226 0.000233 1.84159 0.356854 7.03882 2650 
232 1 -0.066474 -0.0385772 0.0176195 0.000233 1.54276 1.20974 5.88926 2650 
429 1 -0.0659168 -0.011208 0.0196314 0.000233 1.85205 -0.0235743 6.22737 2650 
258 1 -0.0649315 -0.01455 0.0226897 0.000233 1.69641 0.298745 4.95386 2650 
161 1 -0.0633868 -0.0117875 0.0250802 0.000847 2.3231 -0.162126 5.89585 2650 
410 1 -0.0631059 -0.0485636 0.025789 0.000847 3.06619 -0.0249636 7.50284 2650 
344 1 -0.0631062 -0.0435306 0.0257806 0.000847 3.33144 -0.0947867 8.08352 2650 
32 1 -0.0626432 -0.0245822 0.0268559 0.000847 2.93813 -0.446351 6.74808 2650 
46 1 -0.0631277 -0.0228917 0.0257042 0.000847 2.82926 0.00993971 6.94843 2650 
508 1 -0.0630774 -0.0127182 0.0274214 0.000233 3.16457 0.554014 7.28834 2650 
500 1 -0.0611015 -0.0444807 0.0302192 0.000847 3.26132 0.0784655 6.60192 2650 
169 1 -0.0609732 -0.0429176 0.0318172 0.000233 3.4206 0.20287 6.6315 2650 
322 1 -0.0577902 -0.0191826 0.0372782 0.000233 2.76907 -0.187381 4.27822 2650 
488 1 -0.0497842 -0.0281013 0.0465474 0.000847 5.73846 0.139202 6.09196 2650 
44 1 -0.0492477 -0.0199718 0.0471156 0.000847 5.46112 0.0232855 5.72938 2650 
140 1 -0.0488091 -0.00170603 0.04844 0.000233 4.34702 0.0559018 4.41348 2650 
236 1 -0.0472118 -0.0144479 0.0502077 8.4e-05 5.6169 -0.765935 5.26683 2650 
290 1 -0.0400843 -0.0323133 0.0551207 0.000847 6.25047 -0.416594 4.53182 2650 
481 1 -0.0410924 -0.0125119 0.0551526 0.000233 6.15856 0.532724 4.59777 2650 
166 1 -0.040146 -0.0380311 0.0558342 0.000233 5.22107 -0.18078 3.73315 2650 
401 1 -0.039871 -0.029199 0.0560247 0.000233 6.35247 -0.266027 4.52828 2650 
513 1 -0.0385811 -0.0210301 0.056195 0.000847 6.492 -0.0116697 4.4687 2650 
92 1 -0.0393463 -0.0109787 0.0564101 0.000233 3.87051 -0.343306 2.68802 2650 
150 1 -0.0353671 -0.0411175 0.0582726 0.000847 6.3608 0.472246 3.8606 2650 
378 1 -0.0361695 -0.0210592 0.0584967 0.000233 6.87831 0.0245955 4.2275 2650 
314 1 -0.029813 -0.0234955 0.0621359 8.4e-05 2.65107 -0.722239 1.21858 2650 
171 1 -0.0243502 -0.00320302 0.0644661 8.4e-05 7.06098 -0.27123 2.67291 2650 
318 1 -0.0206334 -0.0448033 0.0649423 0.000847 7.32469 0.165655 2.28767 2650 
409 1 -0.0127246 -0.046277 0.0669421 0.000847 7.66757 -0.00980217 1.35968 2650 
317 1 -0.00673479 -0.0441126 0.0678226 0.000847 8.47369 -0.0586055 0.865942 2650 
334 1 -0.00688807 -0.03786 0.0678045 0.000847 8.46737 -0.00879421 0.85772 2650 
463 1 -0.00944758 -0.0352241 0.0674959 0.000847 8.42073 0.138091 1.2082 2650 
442 1 -0.0152212 -0.0303782 0.0670484 0.000233 7.48131 0.907836 1.48835 2650 
194 1 -0.0153488 -0.0278133 0.0670244 0.000233 9.13416 0.169199 2.08343 2650 
159 1 -0.00119673 -0.0264651 0.0676852 0.001312 8.33799 -0.0527469 0.0973848 2650 
18 1 -0.00737949 -0.0232949 0.067755 0.000847 8.49632 0.217643 0.914698 2650 
337 1 -0.00652309 -0.0233184 0.0684561 0.000233 8.66643 0.477965 0.820644 2650 
327 1 -0.00665866 -0.00919866 0.0682031 8.4e-05 2.41037 -0.369189 3.26889 2650 
395 1 -0.00367871 0.000796373 -0.014473 0.000847 0.0149896 -0.00499144 -0.0093202 2650 
37 1 -0.007724 0.00471268 -0.014299 0.000233 0 -0.011754 0 2650 
49 1 -0.006313 0.00374568 -0.014865 0.000233 0 -0.011754 0 2650 
501 1 -0.00380019 0.00419519 -0.0153664 0.000847 0.00709651 0.00142594 -0.00670783 2650 
309 1 -0.005736 0.00743168 -0.014845 0.000233 0 -0.011754 0 2650 
153 1 -0.00539062 0.00931501 -0.0155058 0.000233 -0.0337232 0.0248645 0.0171171 2650 
444 1 -0.000133525 0.00861891 -0.0142922 8.4e-05 -0.0133988 -0.00632289 -0.00239831 2650 
224 1 -0.00189672 0.00125181 -0.013321 0.001312 0.00751532 -0.000701079 0.00471002 2650 
36 1 -0.008519 0.00397568 -0.013643 0.000233 0 -0.011754 0 2650 
68 1 -0.00628713 0.00422887 -0.0130739 0.001312 -7.21106e-05 -0.0118417 -0.000112412 2650 
76 1 -0.00418515 0.00519776 -0.0133959 0.000233 0.0303806 -0.00964547 -0.0319523 2650 
177 1 -0.0004314 0.00544524 -0.0128306 0.000847 -0.0282538 0.0231492 -0.0029373 2650 
16 1 -0.00212801 0.0113656 -0.0130019 0.001312 -0.00180582 0.0271355 0.0043534 2650 
262 1 -0.00811401 0.0147798 -0.0127185 8.4e-05 -0.0452057 0.0489263 -0.00277567 2650 
95 1 -0.00731554 0.00184435 -0.011106 0.001312 -0.000248372 -0.0120576 -0.000506657 2650 
233 1 -0.006747 0.00273868 -0.01241 0.000233 0 -0.011754 0 2650 
234 1 -4.28887e-05 0.00237312 -0.0125914 0.000233 0.0247737 -0.00133492 0.00328049 2650 
91 1 -0.000357899 0.00283746 -0.0117686 0.000233 -0.00292347 -0.00793016 -0.00296145 2650 
343 1 -0.003628 0.00363608 -0.0112504 0.000847 -0.000529442 -0.0155455 -0.00596942 2650 
251 1 -0.00420246 0.00621654 -0.0126157 0.000847 0.0348768 0.00431884 -0.0363323 2650 
198 1 -0.00662695 0.00802293 -0.0119296 0.001312 -0.0177825 -0.00248769 0.00364496 2650 
391 1 -0.000219944 0.00888749 -0.0125049 0.000233 -0.0199891 0.00696097 0.00469752 2650 
164 1 -0.00939619 0.0001613 -0.00949032 0.000847 -0.000866134 -0.0130395 -0.00111955 2650 
271 1 -0.005149 0.00110868 -0.010304 0.000233 0 -0.011754 0 2650 
133 1 -0.0026896 0.00134278 -0.00994511 0.001312 -0.00225635 -0.0022852 0.00970929 2650 
51 1 -0.00801138 0.00229504 -0.00968748 0.000233 -0.0138358 -0.00903861 -0.0230717 2650 
435 1 -0.005486 0.00318668 -0.011036 0.000847 0 -0.011754 0 2650 
512 1 -0.00552728 0.00475022 -0.00967058 0.000847 -0.00911119 -0.0123441 -0.0156273 2650 
216 1 -0.00383836 0.00458561 -0.00977656 0.000847 -0.00815227 -0.0162072 -0.00315241 2650 
146 1 -2.16826e-05 0.00439137 -0.010654 0.001312 0.00367562 -0.013541 -0.000609714 2650 
13 1 -0.012448 0.00488868 -0.010914 8.4e-05 0 -0.011754 0 2650 
69 1 -0.00961675 0.00527973 -0.0107457 0.001312 -0.000168074 -0.011628 -0.000205239 2650 
392 1 -0.00447724 0.00572676 -0.00976373 8.4e-05 -0.00659757 -0.0083595 -0.00212575 2650 
209 1 -0.001802 0.00630768 -0.011003 0.000233 0 -0.011754 0 2650 
15 1 -0.00284373 0.0104589 -0.00951388 0.001312 -0.00746762 0.0306443 -0.0319375 2650 
482 1 -0.00887621 0.0241728 -0.0096226 0.000233 -0.0162757 0.0437947 0.00434421 2650 
289 1 -0.012211 0.00097929 -0.0088106 0.001312 0.0025459 -0.0117786 0.00198096 2650 
468 1 -0.0103622 0.000457728 -0.00900731 0.000233 -0.00183091 -0.0125509 -0.00195235 2650 
455 1 -0.006244 0.00100768 -0.008207 0.000233 0 -0.011754 0 2650 
248 1 -0.0126321 0.0026184 -0.00916672 0.000233 0.0180097 -0.00459618 -0.0123198 2650 
407 1 -0.00296616 0.00248771 -0.0079734 0.000847 -0.00284006 -0.00343984 0.0108073 2650 
336 1 -0.000699 0.00222568 -0.008095 0.000233 0 -0.011754 0 2650 
158 1 -0.00927064 0.0061986 -0.0079786 8.4e-05 -0.0246844 -0.00052617 -0.00311611 2650 
464 1 -0.00184516 0.00536284 -0.00832286 0.000233 -0.0337432 -0.0250944 -0.0146621 2650 
332 1 -0.013253 0.00761968 -0.008686 0.000847 0 -0.011754 0 2650 
348 1 -0.011402 0.00642468 -0.008993 0.000233 0 -0.011754 0 2650 
147 1 -0.00471375 0.0071518 -0.00904877 0.001312 -0.00330264 -0.00849531 0.00545786 2650 
66 1 -0.0119736 0.0267163 -0.00841896 0.000233 -0.00951856 0.0364197 -0.00386543 2650 
72 1 -0.00668748 0.029409 -0.00923422 0.000847 -0.0198786 0.0444843 -0.026581 2650 
60 1 -0.00550847 0.000127876 -0.00688782 0.000847 0.00106255 -0.0105919 0.00250215 2650 
136 1 -0.003358 0.000911675 -0.00699 0.000847 0 -0.011754 0 2650 
324 1 -0.004804 0.00184768 -0.006739 0.000233 0 -0.011754 0 2650 
7 1 -0.00185207 0.00919862 -0.00770863 0.000847 -0.0308308 0.0234837 0.00263646 2650 
312 1 -0.0110671 0.00180146 -0.00516053 0.000233 -0.0147917 -0.0235538 -0.0151264 2650 
79 1 -0.009334 0.00636168 -0.006031 0.000233 0 -0.011754 0 2650 
2 1 -0.0113701 0.00673806 -0.0061679 0.001312 0.00799475 -0.00256919 -0.00928522 2650 
115 1 -0.0110809 0.00922285 -0.00569062 0.000233 0.00266554 0.00695627 -0.0116789 2650 
229 1 -0.015554 0.000715965 -0.00375443 0.000847 -0.000169989 -0.0118082 -1.68751e-06 2650 
466 1 -0.015616 0.00246968 -0.003521 0.000233 0 -0.011754 0 2650 
478 1 -0.0110163 0.00276266 -0.0031864 0.000233 -0.00975827 -0.0129389 0.00383787 2650 
237 1 -0.00313549 0.00208797 -0.00361785 0.001312 -0.00761684 -0.000712423 -0.000817686 2650 
225 1 -1.9105e-05 0.00402525 -0.00396844 0.001312 -0.00564648 0.0021204 0.00140277 2650 
467 1 -0.0107516 0.00503227 -0.00385039 0.000233 0.00319889 -0.0119441 0.00112982 2650 
112 1 -0.009312 0.00565868 -0.004659 0.000847 0 -0.011754 0 2650 
145 1 -0.007489 0.00587168 -0.00326 8.4e-05 0 -0.011754 0 2650 
121 1 -0.00631178 0.00676306 -0.00396164 0.001312 -0.0342207 0.00177843 0.0100552 2650 
149 1 -0.0111131 0.00944504 -0.00412767 0.000847 0.00533574 0.00120564 0.000572163 2650 
199 1 -0.00513932 0.0101956 -0.00425142 0.001312 -0.0103537 0.0171071 0.00139583 2650 
331 1 -0.0131026 0.0126948 -0.00469991 0.000847 0.0094052 0.0213481 -0.00684148 2650 
87 1 -0.00812589 0.0414843 -0.00413259 0.000847 0.0557949 0.0657949 0.00804232 2650 
345 1 -0.0102428 0.000822943 -0.00210558 0.000847 0.0102698 0.00604929 0.00457735 2650 
31 1 -0.0130122 0.00418976 -0.00263695 0.000847 0.0171316 0.0189336 0.0348256 2650 
245 1 -0.015895 0.00633168 -0.001607 0.000233 0 -0.011754 0 2650 
399 1 -0.0131727 0.0058914 -0.00277856 0.000847 -0.0335537 0.0239119 -0.00320281 2650 
301 1 -0.000551404 0.00485229 -0.00289198 8.4e-05 -0.00542456 -0.000958437 0.00851575 2650 
204 1 -0.00658005 0.00772075 -0.00170163 0.000847 -0.00522543 0.0333204 -0.000545529 2650 
285 1 -0.00458212 0.00821311 -0.00235226 0.000233 0.00777784 0.0141206 0.0186362 2650 
201 1 -0.005857 0.00105868 -0.001367 0.000847 0 -0.011754 0 2650 
96 1 -0.00374618 0.00125639 -0.00120912 0.000847 -0.0333937 -0.00958489 -0.0721639 2650 
168 1 -0.0112265 0.001751 -0.00154169 0.000233 -0.00202632 0.00526207 0.00695314 2650 
75 1 -0.004976 0.00586568 -0.001105 0.000233 0 -0.011754 0 2650 
186 1 -0.0152641 0.00784308 -1.23355e-05 0.001312 0.00108872 -0.00772704 -0.000169001 2650 
97 1 -0.00653068 0.00658414 -0.000223691 0.000847 0.0762912 0.0404804 0.0566184 2650 
413 1 -0.00538637 0.00870211 -0.000505628 0.000233 -0.0303845 0.0268351 0.0328144 2650 
214 1 -0.00568474 0.00963905 -0.00126513 0.000847 -0.0290712 0.00333205 0.0100974 2650 
137 1 -0.01494 0.0224611 -0.000492716 0.000847 -0.0435427 0.0421262 -0.00186797 2650 
373 1 -0.015091 0.00209768 0.000947 0.000847 0 -0.011754 0 2650 
307 1 -0.000583025 0.00244405 0.000417376 0.000847 -0.0141011 0.000378076 -0.0730913 2650 
504 1 -0.012481 0.00708368 0.001551 0.000233 0 -0.011754 0 2650 
474 1 -0.0049937 0.0125982 0.00147517 0.000847 0.0275537 0.0248876 0.00687161 2650 
394 1 -0.000647655 0.0125894 3.09628e-05 0.000847 -0.00391833 0.0291735 0.0221186 2650 
517 1 -0.0049077 0.0157533 0.00151188 0.000233 0.0259823 0.0335168 0.00669738 2650 
418 1 -0.00465407 0.0252875 0.000899123 8.4e-05 0.0565282 0.0445312 0.0141261 2650 
364 1 -0.0139 0.000306675 0.002152 0.000233 0 -0.011754 0 2650 
242 1 -0.010702 0.00494668 0.00289 0.000847 0 -0.011754 0 2650 
376 1 -0.005395 0.00535568 0.002758 0.000233 0 -0.011754 0 2650 
174 1 -0.001898 0.00487868 0.003155 0.000847 0 -0.011754 0 2650 
63 1 -0.00176425 0.0174814 0.00216667 0.000233 -0.0113708 0.0567883 0.0342171 2650 
188 1 -0.00347784 0.0249315 0.00221719 0.000847 0.00721131 0.0301563 0.00476899 2650 
283 1 -0.00732689 0.0036567 0.00420152 0.000233 -0.000941009 -0.0093883 -0.043378 2650 
450 1 -0.0153628 0.00589526 0.00325979 0.000847 0.00328605 -0.0073967 0.0129387 2650 
131 1 -0.009967 0.00520568 0.004313 0.000233 0 -0.011754 0 2650 
156 1 -0.0151862 0.00670705 0.00404157 0.000233 0.00256319 -0.00297473 0.0120104 2650 
296 1 -0.002285 0.00704468 0.004233 0.000233 0 -0.011754 0 2650 
470 1 -0.008539 0.00810368 0.004033 8.4e-05 0 -0.011754 0 2650 
374 1 -0.006913 0.00801068 0.00361 0.000233 0 -0.011754 0 2650 
408 1 -0.00257384 0.0130192 0.00431671 0.000847 -0.0637097 0.0325365 0.0310496 2650 
495 1 -0.00634239 0.015587 0.00373398 0.000233 0.033012 0.00318582 -0.0311893 2650 
365 1 -0.0152552 0.0423481 0.00385657 0.000233 -0.0631254 0.0667025 -0.0304057 2650 
195 1 -0.014509 0.000763675 0.005621 0.000233 0 -0.011754 0 2650 
219 1 -0.00779058 0.000819131 0.0054599 0.000233 -0.0024741 -0.0343988 -0.0362894 2650 
431 1 -0.00713711 0.00154192 0.00595387 8.4e-05 0.00226514 -0.0297238 -0.00436226 2650 
135 1 -0.00878069 0.00242165 0.00492576 0.000847 -0.0116394 -0.014915 -0.0125275 2650 
267 1 -0.00710172 0.0025691 0.00574303 0.000847 0.0102258 -0.0225398 -0.0274988 2650 
206 1 -0.00127061 0.00279383 0.00540088 0.000233 0.0190227 0.0148437 0.0194826 2650 
223 1 -0.014414 0.00449768 0.005039 8.4e-05 0 -0.011754 0 2650 
56 1 -0.011864 0.00385568 0.004858 0.001312 0 -0.011754 0 2650 
469 1 -0.012765 0.00574468 0.005129 0.000233 0 -0.011754 0 2650 
90 1 -0.009269 0.00598768 0.005356 0.000233 0 -0.011754 0 2650 
172 1 -0.000847402 0.00624091 0.00591499 0.001312 0.000274478 -0.0120667 -0.00114405 2650 
355 1 -0.0136773 0.0066387 0.00541968 0.000847 -0.0333437 -0.0221094 -0.0429472 2650 
361 1 -0.012031 0.00736268 0.0053 0.000233 0 -0.011754 0 2650 
244 1 -0.002251 0.00756568 0.006118 0.000233 0 -0.011754 0 2650 
310 1 -0.00697842 0.00809775 0.00484661 0.000233 0.0718112 0.0853698 0.093696 2650 
192 1 -0.0153122 0.0136074 0.00575017 0.000233 -0.0600427 0.0865349 -0.0954398 2650 
384 1 -0.00429836 0.00107235 0.00721869 0.000847 -0.00967815 0.00355168 0.0471862 2650 
256 1 -0.0053722 0.00387958 0.0075503 0.000847 -0.00429144 -0.0114483 0.0061069 2650 
329 1 -0.000212 0.00391668 0.006779 0.000847 0 -0.011754 0 2650 
369 1 -0.008047 0.00590268 0.006729 0.000847 0 -0.011754 0 2650 
226 1 -0.00552951 0.00730653 0.00650851 0.000847 0.00554512 0.0149632 -0.0382158 2650 
385 1 -0.0124262 0.00923549 0.00636335 0.000847 -0.0233515 0.0521919 -0.0560775 2650 
475 1 -0.00516861 0.0107681 0.00760182 0.000847 0.0172958 0.0371572 -0.0224615 2650 
451 1 -2.03561e-05 0.00140939 0.00884306 0.000847 -0.105635 0.0415762 -0.072434 2650 
88 1 -0.010473 0.00339568 0.008034 0.000233 0 -0.011754 0 2650 
130 1 -0.004749 0.00359668 0.009456 0.000233 0 -0.011754 0 2650 
417 1 -0.001923 0.00366268 0.008831 0.000233 0 -0.011754 0 2650 
45 1 -0.001763 0.00472068 0.008462 0.000847 0 -0.011754 0 2650 
462 1 -0.013341 0.00587968 0.008656 0.000847 0 -0.011754 0 2650 
22 1 -0.002569 0.00635168 0.009366 0.000233 0 -0.011754 0 2650 
152 1 -0.00180829 0.00652657 0.00791043 0.000847 -0.00549303 -0.0153889 -0.00137695 2650 
178 1 -0.000839352 0.00961098 0.00792871 0.000847 -0.0079929 0.0119809 -0.0138777 2650 
319 1 -0.00781535 0.0169968 0.00932392 0.000847 0.0260471 0.0971305 -0.0118188 2650 
176 1 -0.003497 0.00185768 0.009518 0.000847 0 -0.011754 0 2650 
509 1 -0.001563 0.00325168 0.010036 8.4e-05 0 -0.011754 0 2650 
291 1 -0.00162669 0.00849085 0.00983346 0.000847 0.000368443 -0.000878557 -0.00367841 2650 
321 1 -0.00519462 0.0153684 0.0104408 0.000847 0.0359152 0.0779062 0.00270154 2650 
430 1 -0.00989721 0.0250383 0.0109065 0.000233 -0.0599119 0.0304339 -0.0396458 2650 
518 1 -0.011612 0.00471868 0.01181 0.000233 0 -0.011754 0 2650 
235 1 -0.00605 0.00431868 0.012276 0.000233 0 -0.011754 0 2650 
128 1 -0.003888 0.00513768 0.011415 0.000233 0 -0.011754 0 2650 
313 1 -0.004641 0.00778368 0.011299 0.000233 0 -0.011754 0 2650 
196 1 -0.0104119 0.00397679 0.013041 0.000233 0.0197346 0.00431685 0.00197254 2650 
443 1 -0.004264 0.00383668 0.013262 0.000233 0 -0.011754 0 2650 
379 1 -0.00590231 0.00959022 0.0141431 8.4e-05 0.0166555 0.0403106 -0.0184391 2650 
516 1 -0.00864097 0.0120849 0.0135341 0.000233 0.019998 0.0356215 0.00536279 2650 
311 1 -0.002572 0.000856675 0.015752 0.000233 0 -0.011754 0 2650 
446 1 -0.000353 0.00713868 0.015695 0.000847 0 -0.011754 0 2650 
73 1 -0.00681997 0.0110717 0.0144035 0.000847 0.0339809 0.0363351 0.0206284 2650 
269 1 0.00288578 -0.0310167 -0.0681057 0.000847 -8.98425 0.0234188 -0.41811 2650 
231 1 0.000390333 -0.0220003 -0.0687692 0.000233 -3.61419 0.0325865 0.100055 2650 
134 1 0.00886353 -0.0160763 -0.0671274 0.001312 -4.68884 -0.66385 -0.621391 2650 
221 1 0.0175206 -0.0154033 -0.066513 0.000233 -8.06261 -0.0674667 -2.13568 2650 
250 1 0.0159074 -0.0091054 -0.065806 0.001312 -3.41013 -0.147623 -0.872133 2650 
491 1 0.0365327 -0.0312624 -0.0578872 0.000233 -4.60832 -0.233979 -2.4675 2650 
85 1 0.035764 -0.0249882 -0.058017 0.000847 -4.18342 -0.210511 -2.5548 2650 
415 1 0.0389415 -0.0163818 -0.0566791 0.000233 -4.21669 -0.097679 -2.90383 2650 
197 1 0.0442102 -0.0164938 -0.0528773 8.4e-05 -3.33446 0.0129154 -2.79551 2650 
278 1 0.0479679 -0.0543131 -0.0484193 0.000847 -5.65872 -0.0363258 -5.61797 2650 
316 1 0.0498909 -0.0443768 -0.0464562 0.000847 -3.40083 0.0723205 -3.70637 2650 
433 1 0.0621181 -0.0112562 -0.0278295 0.000847 -1.36869 -0.134226 -2.9481 2650 
521 1 0.0635072 -0.0250294 -0.0267289 8.4e-05 -2.56566 -0.33351 -5.99469 2650 
519 1 0.0643675 -0.041864 -0.024199 0.000233 -1.36437 -0.026676 -3.5962 2650 
26 1 0.000526921 -0.00223389 -0.015964 0.000233 0.104105 0.00651273 -0.0475977 2650 
64 1 0.0667467 -0.0015635 -0.016541 0.000233 -0.964776 -0.144729 -3.93315 2650 
253 1 0.0667378 -0.0255975 -0.0138244 0.000847 -0.809963 -0.181827 -4.0108 2650 
459 1 0.00678042 -0.0030687 -0.0133226 0.000847 -0.00311424 -0.00489007 0.00512044 2650 
110 1 0.0106946 -0.00160835 -0.0116877 0.000847 0.00332668 -0.0110523 -0.00314649 2650 
362 1 0.011937 -0.00314732 -0.011389 0.000233 0 -0.011754 0 2650 
397 1 0.00888734 -0.000938259 -0.0125943 0.000847 2.47281e-05 -0.0117498 -1.66727e-05 2650 
20 1 0.0672735 -0.0133577 -0.0109959 0.000847 -1.11918 0.0587589 -6.95954 2650 
28 1 0.000302776 -0.00100319 -0.0101999 8.4e-05 0.0273567 -0.0592783 0.00580664 2650 
382 1 0.0675819 -0.0392127 -0.00886673 0.000847 -1.00706 -0.171128 -7.7271 2650 
113 1 0.0675187 -0.0366398 -0.00929264 0.000847 -1.04612 -0.0857744 -7.69443 2650 
423 1 0.00996811 -0.00171196 -0.00914174 0.000847 0.00975102 -0.0189993 -0.00030009 2650 
389 1 0.011221 -0.00179532 -0.009451 0.000233 0 -0.011754 0 2650 
93 1 0.0109975 -0.00098698 -0.00918306 8.4e-05 -0.0111448 -0.00926872 0.00559827 2650 
434 1 0.06776 -0.0179176 -0.00744375 0.000847 -0.631056 -0.329902 -6.27835 2650 
490 1 0.068383 -0.000512716 -0.00724662 0.000233 -0.775641 -0.132162 -7.29664 2650 
339 1 0.001696 -0.00241432 -0.005869 0.000233 0 -0.011754 0 2650 
496 1 0.007831 -0.00137832 -0.004076 8.4e-05 0 -0.011754 0 2650 
81 1 0.0132838 -0.00220604 -0.00186653 0.001312 0.00760364 -0.0249793 0.0108991 2650 
477 1 0.000187 -0.00126732 -0.00227 0.000233 0 -0.011754 0 2650 
493 1 0.0687639 -0.0269729 -0.000153205 0.000233 -0.00423755 0.0025482 -7.30309 2650 
396 1 0.005166 -0.00279232 0.00144 0.000847 0 -0.011754 0 2650 
480 1 0.00564 -0.00191032 0.00063 0.000233 0 -0.011754 0 2650 
427 1 0.0125104 -0.00210488 0.000291549 0.000233 -0.000341839 -0.0116929 -0.000277084 2650 
506 1 0.0120382 -0.000476568 0.00117492 0.000233 -0.00550749 -0.0306155 -0.0053946 2650 
35 1 0.0151266 -2.43472e-05 0.000937695 0.000847 0.023523 -0.00211781 0.0100923 2650 
305 1 0.0681059 -0.0272055 0.0024922 0.000847 0.264319 -0.507945 -6.48243 2650 
281 1 0.068109 -0.025478 0.00248461 0.000847 0.218675 -0.382977 -5.65975 2650 
485 1 0.0149256 -0.00310523 0.00167393 0.000847 0.0280354 -0.0177041 0.00173885 2650 
123 1 0.0122499 -0.000327948 0.00248257 0.000847 -0.00297236 -0.0119633 0.00320526 2650 
280 1 0.0680668 -0.0223079 0.00355472 0.000847 0.313593 0.60553 -5.95833 2650 
129 1 0.0686808 -0.00220341 0.00336078 0.000233 0.23577 -0.00952294 -5.69315 2650 
193 1 0.0066783 -0.000787808 0.00418037 0.000233 -0.0530839 -0.186045 -0.280112 2650 
497 1 0.00974194 -0.000492464 0.00340908 0.001312 -0.000787747 -0.00904155 0.00368956 2650 
70 1 0.0149436 -0.000548389 0.00398512 0.000847 0.000371051 -0.0119487 0.00118778 2650 
106 1 0.00181 -0.00219432 0.00562 8.4e-05 0 -0.011754 0 2650 
249 1 0.008036 -0.00312632 0.006254 8.4e-05 0 -0.011754 0 2650 
111 1 0.0139844 -0.00194598 0.00537011 0.000847 0.0145696 -0.0109012 0.0179066 2650 
486 1 0.005507 -0.000560325 0.005173 0.000847 0 -0.011754 0 2650 
432 1 0.0102402 -0.000386598 0.00621088 0.001312 -0.000241041 -0.0114307 -3.26435e-05 2650 
428 1 0.0135188 -0.000920209 0.00577921 0.000233 -0.0006844 -0.00321647 0.00718742 2650 
24 1 0.004515 -0.00161432 0.007639 0.000233 0 -0.011754 0 2650 
10 1 0.00074 -0.00219632 0.009007 0.000233 0 -0.011754 0 2650 
65 1 0.00576086 -8.26983e-05 0.00796347 0.000233 0.00315108 -0.0137461 0.00097252 2650 
298 1 0.011042 -0.00157432 0.009111 0.000233 0 -0.011754 0 2650 
473 1 0.0673476 -0.0433715 0.0105255 0.000847 1.27661 -0.193386 -8.23274 2650 
439 1 0.000449817 -0.00119489 0.0112404 0.000233 -0.0732871 0.0419872 -0.253497 2650 
320 1 0.0669882 -0.0389014 0.0125408 0.000847 1.05307 -0.856728 -5.67421 2650 
460 1 0.0669812 -0.0333578 0.0125809 0.000847 1.10094 -0.290813 -5.8916 2650 
277 1 0.0040653 -0.00055881 0.0128529 0.000847 -0.0522071 0.00343729 0.0472431 2650 
247 1 0.0662206 -0.0249852 0.0185084 0.000233 1.67571 -0.0409992 -5.97853 2650 
185 1 0.0634094 -0.0216955 0.023696 0.001312 2.83839 -0.0370147 -7.65203 2650 
141 1 0.0634621 -0.024196 0.0264821 0.000233 1.64568 -0.018082 -4.07802 2650 
288 1 0.0629645 -0.000377157 0.0280132 8.4e-05 1.15669 -0.0635957 -2.58858 2650 
349 1 0.0622726 -0.0147297 0.0291751 0.000233 2.49718 0.19296 -5.37057 2650 
465 1 0.0616136 -0.0146183 0.0305484 0.000233 2.62279 0.205151 -5.28596 2650 
436 1 0.0592782 -0.0499237 0.0336504 0.000847 4.17396 0.000888619 -7.36433 2650 
420 1 0.0595547 -0.0228118 0.0331493 0.000847 3.12194 0.156782 -5.67273 2650 
360 1 0.0568125 -0.0285524 0.037644 0.000847 2.82499 -0.383267 -4.27765 2650 
257 1 0.0572989 -0.0498544 0.0380427 0.000233 5.58481 0.446341 -8.41261 2650 
335 1 0.0558707 -0.0329636 0.0400856 0.000233 4.89168 0.543251 -6.83336 2650 
453 1 0.052855 -0.0165908 0.0440138 0.000233 3.63472 0.084423 -4.367 2650 
59 1 0.0495838 -0.0456835 0.0467819 0.000847 4.13689 -0.206285 -4.41249 2650 
380 1 0.0446577 -0.0334443 0.0508697 0.001312 6.601 -0.0663846 -5.81036 2650 
151 1 0.0442361 -0.0121941 0.0518624 0.000847 4.69168 -0.15152 -4.03093 2650 
315 1 0.04285 -0.0263084 0.0524036 0.001312 4.57678 -0.0173223 -3.75283 2650 
241 1 0.0413507 -0.0520188 0.0541769 0.000847 6.62293 -0.182307 -5.11897 2650 
445 1 0.0403222 -0.0370172 0.0543617 0.001312 4.78346 0.0193815 -3.56588 2650 
181 1 0.0425083 -0.0167381 0.0540622 0.000233 4.3832 -0.164001 -3.44405 2650 
424 1 0.0394767 -0.0386758 0.0555504 0.000847 5.37199 -0.554809 -3.74531 2650 
120 1 0.0385522 -0.0299449 0.0556423 0.001312 7.03768 0.102883 -4.9208 2650 
138 1 0.0343578 -0.0393875 0.0588628 0.000847 7.10842 0.23789 -4.14954 2650 
367 1 0.0256897 -0.040757 0.062636 0.001312 7.58469 -0.00616895 -3.11185 2650 
101 1 0.0293757 -0.00864477 0.0621353 0.000233 3.32765 -0.170378 -1.37474 2650 
117 1 0.0304092 -0.00581931 0.0616601 0.000233 3.18551 -0.103921 -1.44465 2650 
330 1 0.0240324 -0.0487296 0.0637874 0.000847 7.44124 0.0301664 -2.85338 2650 
411 1 0.0221983 -0.0431356 0.0644489 0.000847 7.85902 0.00938528 -2.66764 2650 
498 1 0.0183929 -0.0273661 0.065625 0.000847 7.20815 -0.147992 -2.02347 2650 
33 1 0.0174906 -0.0250768 0.0658721 0.000847 7.29829 0.0927493 -1.97886 2650 
19 1 0.0130146 -0.0601518 0.0668973 0.000847 8.52094 -0.0455446 -1.65382 2650 
114 1 0.0169303 -0.0221937 0.0666552 0.000233 4.54791 0.346268 -1.19475 2650 
182 1 0.0127382 -0.0177237 0.067591 0.000233 7.65241 -0.732161 -1.43542 2650 
162 1 0.00281363 -0.0424994 0.0681081 0.000847 8.60446 -0.0840782 -0.335527 2650 
52 1 0.00898398 -0.0182374 0.0681915 0.000233 8.67382 0.466709 -1.14439 2650 
205 1 0.008035 -0.0115434 0.0683087 0.000233 5.90216 0.333999 -0.704561 2650 
448 1 0.00509732 -0.00509616 0.0679624 0.000847 5.27993 -0.173203 -0.455015 2650 
357 1 0.00025534 0.00398793 -0.0158551 0.000847 -0.0161217 0.00624536 4.32434e-05 2650 
143 1 0.000252447 0.00518895 -0.0158795 0.000233 -0.00298492 0.0132958 0.00347787 2650 
48 1 0.0005203 0.00838447 -0.0159808 0.000847 0.00310262 -0.000201808 0.0050032 2650 
82 1 0.000373883 0.000589113 -0.0145086 0.001312 0.00305579 -0.00667511 -0.00919786 2650 
282 1 0.00107644 0.00234073 -0.0156976 0.000847 -0.0184526 0.00340453 -0.00246773 2650 
356 1 0.00126986 0.00560513 -0.014529 0.000847 -0.00897725 0.00824838 0.00221893 2650 
412 1 0.00611735 0.00566574 -0.0143189 0.000847 -0.0110772 -0.00477243 0.00367521 2650 
366 1 0.005681 0.00631268 -0.015538 8.4e-05 0 -0.011754 0 2650 
325 1 0.00133281 0.00969028 -0.0155989 0.000233 0.00261303 0.02078 -0.0050374 2650 
388 1 0.00298885 0.0143987 -0.0157524 0.000233 -0.0748625 0.0261296 0.00379831 2650 
287 1 0.00118921 0.00289924 -0.0131539 0.000233 0.00707277 0.000687299 -0.00441923 2650 