ITEM: TIMESTEP
14817410
ITEM: NUMBER OF ATOMS
497
ITEM: BOX BOUNDS ff ff ff
-0.15 0.15
-0.15 0.15
-0.15 0.15
ITEM: ATOMS id type x y z radius vx vy vz density 
47 1 -0.00317397 -0.036598 -0.068083 0.000847 -9.98239 0.0545958 0.49106 2650 
424 1 -0.00905933 -0.0504725 -0.0675597 0.000847 -10.1044 -0.0492444 1.34249 2650 
460 1 -0.00672339 -0.048566 -0.067837 0.000847 -10.1749 -0.0761736 1.00629 2650 
396 1 -0.0105877 -0.0410473 -0.0673357 0.000847 -9.63939 0.517792 1.54845 2650 
9 1 -0.0145232 -0.0247599 -0.0672161 0.000233 -7.8689 0.352807 1.69777 2650 
197 1 -0.021738 -0.0462545 -0.0653956 8.4e-05 -8.15177 -1.21788 2.7171 2650 
485 1 -0.0168946 -0.0316487 -0.0660295 0.000847 -9.1706 -0.191504 2.31023 2650 
496 1 -0.022217 -0.0131602 -0.0652354 8.4e-05 -8.45984 0.594771 2.88298 2650 
239 1 -0.0244193 -0.0487529 -0.0636321 0.000847 -9.52258 -0.0275426 3.65297 2650 
302 1 -0.0241625 -0.0258143 -0.063229 0.001312 -8.08563 0.0316207 3.07571 2650 
468 1 -0.0271282 -0.0207182 -0.0631379 0.000233 -9.18075 -0.587547 3.95727 2650 
203 1 -0.026373 -0.0381529 -0.0628461 0.000847 -8.02319 -0.501377 3.36497 2650 
93 1 -0.0297818 -8.97324e-05 -0.0621469 8.4e-05 -4.17878 0.000551268 1.9917 2650 
454 1 -0.0337056 -0.0232889 -0.0599347 0.000233 -7.77964 0.282148 4.42044 2650 
162 1 -0.0342728 -0.0482821 -0.0589239 0.000847 -8.62498 -0.0426638 5.01713 2650 
297 1 -0.0347629 -0.0275735 -0.0593284 0.000233 -7.33623 -0.0655241 4.30024 2650 
334 1 -0.0357256 -0.0485886 -0.0580559 0.000847 -8.51279 0.0269854 5.23962 2650 
24 1 -0.036956 -0.0150136 -0.0580076 0.000233 -6.84768 -0.220345 4.35527 2650 
508 1 -0.044928 -0.0331845 -0.0520566 0.000233 -6.92488 -0.236095 5.97265 2650 
117 1 -0.0439304 -0.0181719 -0.0529229 0.000233 -6.40462 0.212188 5.32672 2650 
506 1 -0.0467593 -0.0136256 -0.0504426 0.000233 -5.29114 0.0868845 4.92344 2650 
236 1 -0.048906 -0.0101435 -0.0485674 8.4e-05 -5.62427 0.275719 5.66529 2650 
360 1 -0.0500224 -0.0363685 -0.0462851 0.000847 -6.60532 0.0480858 7.14023 2650 
481 1 -0.0537094 -0.0304848 -0.0429434 0.000233 -6.18591 0.685595 7.72764 2650 
205 1 -0.0536339 -0.0219167 -0.0430427 0.000233 -5.48279 -0.529247 6.8379 2650 
415 1 -0.0562433 -0.0130691 -0.0395684 0.000233 -4.83528 -0.579268 6.85942 2650 
183 1 -0.056472 -0.017737 -0.0392422 0.000233 -5.46808 -0.0553691 7.87836 2650 
323 1 -0.0585593 -0.0278302 -0.0360501 0.000233 -5.59592 -0.15416 9.09048 2650 
101 1 -0.0594251 -0.00952825 -0.034605 0.000233 -4.45876 -0.196333 7.64947 2650 
138 1 -0.059744 -0.0420065 -0.0328003 0.000847 -4.74208 -0.613086 8.65273 2650 
306 1 -0.0600025 -0.0188364 -0.0323233 0.000847 -4.20911 0.0387109 7.72866 2650 
465 1 -0.0614696 -0.0314831 -0.0308267 0.000233 -4.31107 0.301034 8.60611 2650 
193 1 -0.0637778 -0.0241957 -0.0257178 0.000233 -3.39503 -0.140963 8.40334 2650 
448 1 -0.0631313 -0.0189663 -0.0256984 0.000847 -3.26058 -0.157118 8.01525 2650 
378 1 -0.065088 -0.034778 -0.0221847 0.000233 -2.75521 0.568597 8.08831 2650 
141 1 -0.0658036 -0.0237453 -0.0199781 0.000233 -2.58475 0.264475 8.52632 2650 
434 1 -0.0651507 -0.0172177 -0.0200502 0.000847 -2.36602 0.000898609 7.62429 2650 
433 1 -0.0656569 -0.0242469 -0.0182955 0.000847 -2.32248 -0.0867993 8.47847 2650 
114 1 -0.0663874 -0.0167594 -0.0179888 0.000233 -2.07135 -0.00958338 7.60811 2650 
258 1 -0.0666061 -0.0209174 -0.0171385 0.000233 -2.21058 0.38267 8.6006 2650 
477 1 -0.0668648 -0.00823571 -0.0160871 0.000233 -1.85171 0.16232 7.62848 2650 
49 1 -0.00594189 -0.00222617 -0.0152002 0.000233 0.00191366 -0.0120695 0.00125432 2650 
229 1 -0.0667281 -0.0160253 -0.0139483 0.000847 -1.60166 0.289742 7.78629 2650 
312 1 -0.065278 -0.0104653 -0.0139238 0.000233 -1.66379 -0.273011 2.01466 2650 
36 1 -0.0100703 -0.00175305 -0.013163 0.000233 -0.00694015 -0.0110026 0.00740861 2650 
233 1 -0.00649739 -0.00263932 -0.0127877 0.000233 0.00130277 -0.00976332 -0.00197136 2650 
248 1 -0.00902512 -0.000943414 -0.0122222 0.000233 -0.00826879 -0.0104861 0.00215336 2650 
51 1 -0.0117425 -0.00187399 -0.0104438 0.000233 -0.00464275 -0.0134134 0.00370658 2650 
216 1 -0.00660726 -0.00207623 -0.0101041 0.000847 -0.00455694 -0.0123319 0.000727387 2650 
13 1 -0.012448 -0.000870726 -0.010914 8.4e-05 0 -0.011754 0 2650 
69 1 -0.0101506 -0.00036855 -0.0107534 0.001312 -0.00192864 -0.011428 0.000163063 2650 
294 1 -0.0675711 -0.0480492 -0.00903088 0.000847 -1.31952 0.0668779 9.84222 2650 
161 1 -0.0676597 -0.0137241 -0.00832056 0.000847 -0.936323 0.101545 8.07921 2650 
67 1 -0.0685696 -0.0131227 -0.00702415 8.4e-05 -0.851562 0.17145 8.17645 2650 
283 1 -0.00663969 -0.00183897 -0.00776313 0.000233 0.00508925 -0.0140907 0.00541011 2650 
382 1 -0.0679999 -0.0483143 -0.00482513 0.000847 -0.704374 -0.0292738 9.84383 2650 
208 1 -0.0686784 -0.0551182 -0.00351226 0.000233 -0.449572 -0.278281 8.49041 2650 
65 1 -0.0687002 -0.0170555 -0.00326279 0.000233 -0.387998 0.271845 8.23088 2650 
466 1 -0.0426207 -0.00544819 -0.00156166 0.000233 -6.16027 -0.232241 -0.206224 2650 
289 1 -0.0151131 -0.00239654 -0.000645736 0.001312 -0.00282004 -0.010858 0.0150113 2650 
242 1 -0.010702 -0.000812726 0.00289 0.000847 0 -0.011754 0 2650 
376 1 -0.005395 -0.000403726 0.002758 0.000233 0 -0.011754 0 2650 
174 1 -0.001898 -0.000880726 0.003155 0.000847 0 -0.011754 0 2650 
131 1 -0.009967 -0.000553726 0.004313 0.000233 0 -0.011754 0 2650 
243 1 -0.067949 -0.0618714 0.00531272 0.000847 0.801005 -0.0299689 10.3562 2650 
56 1 -0.011864 -0.00190373 0.004858 0.001312 0 -0.011754 0 2650 
223 1 -0.014414 -0.00126173 0.005039 8.4e-05 0 -0.011754 0 2650 
436 1 -0.0676773 -0.0618262 0.00806979 0.000847 1.23752 0.00829291 10.3724 2650 
339 1 -0.0683502 -0.00704058 0.00730979 0.000233 0.623566 0.0125392 6.3231 2650 
329 1 -3.56192e-05 -0.00168193 0.00705909 0.000847 0.000143082 -0.0115725 0.000339925 2650 
152 1 -0.00449985 -0.00101392 0.00723573 0.000847 -0.00549303 -0.0153889 -0.00137695 2650 
298 1 -0.0682341 -0.0347281 0.00849852 0.000233 1.28906 -0.140584 10.3307 2650 
88 1 -0.010473 -0.00236373 0.008034 0.000233 0 -0.011754 0 2650 
130 1 -0.004749 -0.00216273 0.009456 0.000233 0 -0.011754 0 2650 
417 1 -0.001923 -0.00209673 0.008831 0.000233 0 -0.011754 0 2650 
45 1 -0.001763 -0.00103873 0.008462 0.000847 0 -0.011754 0 2650 
358 1 -0.0674011 -0.0546603 0.010008 0.000847 1.54052 -0.100239 10.3548 2650 
498 1 -0.0672671 -0.0350017 0.0109502 0.000847 1.67495 -0.0272561 10.2674 2650 
256 1 -0.00747499 -0.00173006 0.0105426 0.000847 -0.00429144 -0.0114483 0.0061069 2650 
509 1 -0.001563 -0.00250773 0.010036 8.4e-05 0 -0.011754 0 2650 
277 1 -0.0123106 -0.00061837 0.00972208 0.000847 -0.00744758 -0.00968058 -0.00966905 2650 
381 1 -0.0669521 -0.0316837 0.0127589 0.000847 1.73836 0.556927 9.08368 2650 
235 1 -0.00605 -0.00144073 0.012276 0.000233 0 -0.011754 0 2650 
128 1 -0.003888 -0.000621726 0.011415 0.000233 0 -0.011754 0 2650 
443 1 -0.004264 -0.00192273 0.013262 0.000233 0 -0.011754 0 2650 
411 1 -0.0663061 -0.0359163 0.0157697 0.000847 2.13165 -0.169059 8.91334 2650 
288 1 -0.0671814 -0.0294662 0.0153595 8.4e-05 2.14131 0.210499 9.36706 2650 
281 1 -0.0662964 -0.00945015 0.0158158 0.000847 2.11745 -0.344724 8.92822 2650 
322 1 -0.0667501 -0.047249 0.0165325 0.000233 2.22666 0.0651044 8.98426 2650 
100 1 -0.0660665 -0.0459941 0.0167528 0.000847 2.2752 0.0367302 8.92255 2650 
488 1 -0.0651963 -0.0420957 0.0198794 0.000847 2.88723 -0.236626 9.47452 2650 
257 1 -0.0644974 -0.0570736 0.0238537 0.000233 3.60512 -0.0641857 9.71716 2650 
127 1 -0.0630439 -0.0374756 0.027468 0.000233 3.89836 1.15987 8.94328 2650 
429 1 -0.0628202 -0.010302 0.0279956 0.000233 3.27317 -0.300905 7.34732 2650 
340 1 -0.0558598 -0.0360658 0.04036 8.4e-05 6.00185 0.212302 8.30844 2650 
145 1 -0.0558066 -0.00713955 0.0404411 8.4e-05 1.93506 -0.188001 2.67001 2650 
410 1 -0.0541808 -0.0619308 0.0413458 0.000847 5.68717 -0.00944863 7.45583 2650 
59 1 -0.0533558 -0.0463532 0.0424284 0.000847 6.91345 0.0666508 8.69358 2650 
118 1 -0.0537027 -0.0102896 0.0429561 0.000233 4.29025 -0.100127 5.35531 2650 
343 1 -0.0514973 -0.00360624 0.0446438 0.000847 4.20156 0.34325 4.83474 2650 
487 1 -0.0491373 -0.0302545 0.0472308 0.000847 7.0838 -0.0600922 7.35507 2650 
442 1 -0.0484 -0.0246199 0.0488382 0.000233 4.88915 -0.923079 4.84824 2650 
61 1 -0.045806 -0.012779 0.0504039 0.000847 5.19495 0.0162902 4.68984 2650 
272 1 -0.0451637 -0.034368 0.0518563 0.000233 7.92489 0.568479 6.90346 2650 
129 1 -0.0456649 -0.00732483 0.0513909 0.000233 5.39191 -0.0383737 4.72508 2650 
10 1 -0.0456062 -0.0077913 0.0514411 0.000233 5.40247 -0.0457395 4.71725 2650 
344 1 -0.0392339 -0.0515509 0.05573 0.000847 8.86056 0.0421522 6.23345 2650 
324 1 -0.0394335 -0.000595997 0.0563369 0.000233 4.16301 0.120869 2.91105 2650 
84 1 -0.0353354 -0.0386255 0.0582763 0.000847 9.4109 -0.0044519 5.70632 2650 
431 1 -0.0377357 -0.0240696 0.0576667 8.4e-05 7.79748 0.490055 5.09073 2650 
144 1 -0.0365178 -0.00533607 0.05827 0.000233 4.89597 -0.60849 3.00934 2650 
380 1 -0.0330615 -0.0469 0.0590831 0.001312 8.96703 -0.0880811 4.97103 2650 
463 1 -0.0330657 -0.0428707 0.0596097 0.000847 9.66231 -0.733358 5.39448 2650 
136 1 -0.0331637 -0.0155417 0.0595565 0.000847 6.87578 -0.0383235 3.83589 2650 
315 1 -0.0298971 -0.0427906 0.060749 0.001312 9.79317 -0.0396003 4.82682 2650 
320 1 -0.0291798 -0.0398184 0.0616013 0.000847 9.85061 -0.0196601 4.66653 2650 
307 1 -0.0317773 -0.0148738 0.0603101 0.000847 6.94073 0.098422 3.65448 2650 
241 1 -0.0264069 -0.0487342 0.0628478 0.000847 9.48991 -0.0917105 3.98908 2650 
330 1 -0.0282696 -0.0411969 0.0620263 0.000847 10.0009 0.0187087 4.55751 2650 
155 1 -0.0294278 -0.0311642 0.0621598 0.000233 8.89599 0.163205 4.17454 2650 
160 1 -0.0264551 -0.0213761 0.0623217 0.001312 8.3858 -0.191054 3.56396 2650 
180 1 -0.0302671 -0.0169 0.0617631 0.000233 7.23581 0.0684021 3.53081 2650 
489 1 -0.0244262 -0.046635 0.0636454 0.000847 9.64453 0.0485945 3.69144 2650 
270 1 -0.025952 -0.0220173 0.0636886 0.000233 8.56042 -0.373381 3.48739 2650 
151 1 -0.0249646 -0.0196237 0.0634327 0.000847 8.16184 -0.0670191 3.20223 2650 
459 1 -0.0234228 -0.00119767 0.0640012 0.000847 7.44513 0.217541 2.74862 2650 
122 1 -0.0197588 -0.0565303 0.06523 0.000847 6.6149 0.110382 2.01505 2650 
318 1 -0.0188509 -0.0498459 0.0655122 0.000847 10.6704 0.0101842 3.07689 2650 
113 1 -0.0193528 -0.0437808 0.0653654 0.000847 9.97902 0.0708432 2.95454 2650 
175 1 -0.0106048 -0.0456518 0.0673347 0.000847 9.92907 -0.436311 1.56175 2650 
401 1 -0.0126939 -0.042503 0.0675933 0.000233 9.84922 -0.371234 1.84667 2650 
85 1 -0.0151719 -0.0338449 0.0664451 0.000847 10.0392 -0.0347813 2.29351 2650 
423 1 -0.00786528 -0.0328633 0.0677014 0.000847 10.2889 0.0143285 1.19673 2650 
250 1 -0.0084278 -0.0300225 0.0671704 0.001312 10.2105 0.0229028 1.28221 2650 
274 1 -0.0156454 -0.00405357 0.0669617 0.000233 7.79936 -0.115011 1.81661 2650 
157 1 -0.00871388 -0.0548213 0.0682136 0.000233 9.59322 -0.723887 1.22414 2650 
102 1 -0.00368939 -0.0357578 0.0686673 0.000233 10.4082 0.166915 0.55834 2650 
182 1 -0.00790044 -0.0253073 0.0683114 0.000233 9.61821 -0.140603 1.11628 2650 
491 1 -0.00323379 -0.0215841 0.0686891 0.000233 9.17775 -0.279489 0.422826 2650 
507 1 -0.000571581 -0.0216002 0.0687651 0.000233 8.64335 -0.480686 0.05042 2650 
18 1 -0.00546405 -0.0207084 0.067937 0.000847 9.38516 -0.190989 0.752405 2650 
397 1 -0.00128665 -0.0204194 0.068143 0.000847 8.90678 -0.13088 0.146495 2650 
125 1 -0.00320795 -0.0188894 0.06808 0.000847 9.42155 -0.12305 0.445323 2650 
271 1 -0.00923955 -0.0132346 0.0681486 0.000233 8.09582 -0.383926 1.1045 2650 
311 1 -0.0101365 -0.00959699 0.0680196 0.000233 6.25265 0.732019 0.907844 2650 
371 1 -0.00118524 0.041504 -0.0159855 0.000847 -0.0290809 0.0520315 0.00425567 2650 
425 1 -0.000178265 0.0432715 -0.0160289 0.000847 0.000798131 0.0539086 0.00864932 2650 
163 1 -0.00421819 0.00315441 -0.0146502 0.000847 0.0124042 0.0208825 -0.00559459 2650 
282 1 -0.00631723 0.00395839 -0.0147069 0.000847 -0.0143975 0.00845067 0.00337219 2650 
444 1 -0.006694 0.00552165 -0.0154575 8.4e-05 -0.00899951 -0.00548024 0.00657896 2650 
357 1 -0.00283926 0.00748773 -0.0156004 0.000847 -0.00356262 0.00740695 0.00116372 2650 
76 1 -0.00460373 0.00926847 -0.0147143 0.000233 -0.00578221 0.011958 0.00483197 2650 
16 1 -0.00356337 0.029902 -0.0152845 0.001312 -0.00372561 0.0412357 0.00325068 2650 
385 1 -0.0056904 0.032598 -0.0150534 0.000847 0.0479631 0.0423684 -0.0118515 2650 
430 1 -0.00750914 0.0348754 -0.0148661 0.000233 0.0557608 0.0108556 -0.0294983 2650 
68 1 -0.00670245 0.00186284 -0.0133985 0.001312 0.00534989 0.0179167 0.00291722 2650 
435 1 -0.00322437 0.00160095 -0.0139193 0.000847 0.0179288 0.0194919 -0.0108726 2650 
348 1 -0.0100036 0.00463433 -0.0128611 0.000233 0.0132423 0.00303312 -0.00490279 2650 
309 1 -0.00581119 0.00389838 -0.0133047 0.000233 0.0103453 0.0266865 0.0107191 2650 
37 1 -0.0100154 0.00542439 -0.0133235 0.000233 -0.0148559 0.0411341 0.00964254 2650 
501 1 -0.00572634 0.00556516 -0.0137468 0.000847 -0.00781369 0.00426067 0.00525667 2650 
91 1 -0.00771375 0.0148561 -0.0141721 0.000233 -0.011194 0.0308527 0.0129891 2650 
266 1 -0.00246779 0.0043012 -0.0114909 0.000847 0.0177885 -0.00555171 -0.0180737 2650 
212 1 -0.000196704 0.00422055 -0.0126022 0.001312 -0.00912526 -0.00361836 -0.00344267 2650 
386 1 -0.00208365 0.00729256 -0.0117195 0.000847 -0.00923714 0.00439228 0.00327807 2650 
115 1 -0.00983883 0.012649 -0.0113669 0.000233 -0.00509119 0.0090838 -0.00606222 2650 
439 1 -0.0094087 0.0124023 -0.0115163 0.000233 0.00360649 -0.00462834 0.00809011 2650 
502 1 -0.0101004 0.0184122 -0.0125577 0.000847 -0.0304104 0.00896532 0.0113185 2650 
15 1 -0.00679369 0.0228301 -0.0124109 0.001312 -0.00262066 0.0230218 0.00977891 2650 
365 1 -0.00457691 0.0709996 -0.0113652 0.000233 0.0250435 0.0581581 -0.0310905 2650 
512 1 -0.00844834 0.00120063 -0.0106498 0.000847 -0.00620923 0.00136295 0.0121494 2650 
209 1 -0.001802 0.000548274 -0.011003 0.000233 0 -0.011754 0 2650 
392 1 -0.00763147 0.00169531 -0.0107956 8.4e-05 -0.00068915 -0.00349539 -0.00139054 2650 
2 1 -0.00745273 0.00547917 -0.0107176 0.001312 0.00799475 -0.00256919 -0.00928522 2650 
94 1 -0.00497003 0.00706453 -0.010303 0.001312 -0.0124084 0.00377188 0.00598516 2650 
177 1 -0.00868926 0.0165058 -0.0102527 0.000847 -0.0158662 0.0224384 0.00594267 2650 
77 1 -0.00686357 0.029433 -0.0095948 0.000233 -0.0320958 0.0275881 -0.0145233 2650 
332 1 -0.0132624 0.0018611 -0.00868909 0.000847 -2.59197e-05 -0.0117517 -8.4822e-06 2650 
225 1 -0.00349155 0.00615863 -0.00806071 0.001312 -0.0025157 0.00885487 -0.00255804 2650 
198 1 -0.0124255 0.00695053 -0.00794153 0.001312 -0.00588684 -0.00188959 0.0126317 2650 
399 1 -0.0120419 0.0144481 -0.00840041 0.000847 0.00722196 0.0151601 -0.0170469 2650 
391 1 -0.00952176 0.0175573 -0.00810466 0.000233 -0.0185168 0.0226742 0.0109675 2650 
331 1 -0.00849413 0.0231553 -0.0080522 0.000847 0.0094052 0.0213481 -0.00684148 2650 
66 1 -0.0130056 0.0439305 -0.00808318 0.000233 0.00347261 0.0341619 0.00411013 2650 
72 1 -0.00713255 0.0486228 -0.00792944 0.000847 0.00694298 0.0370303 0.0147661 2650 
133 1 -0.00290126 0.000624746 -0.00742507 0.001312 -5.35696e-05 -0.00178399 0.00384313 2650 
237 1 -0.0101266 0.00253092 -0.00656917 0.001312 -0.0166288 -0.00194159 -0.00249817 2650 
202 1 -0.000106257 0.00196654 -0.00694049 0.000847 -0.0121124 -0.00707888 0.00754134 2650 
147 1 -0.00594006 0.00424724 -0.007401 0.001312 -0.00155224 -0.00287693 0.000873515 2650 
158 1 -0.0116893 0.00509537 -0.00633883 8.4e-05 0.00188877 -0.00284778 0.00557992 2650 
407 1 -0.00253148 0.00217967 -0.00558126 0.000847 0.00194491 0.000314244 0.00347809 2650 
5 1 -0.0143585 0.0102636 -0.00533648 0.000847 0.0159354 0.00855543 0.0196475 2650 
389 1 -0.00271353 0.0110336 -0.00483774 0.000233 0.0133597 -0.00770232 -0.0881448 2650 
7 1 -0.0140719 0.0203304 -0.00565269 0.000847 0.00968988 0.0182191 0.0133604 2650 
503 1 -0.00718969 0.0204668 -0.00533495 0.000233 -0.0202763 0.0321153 0.0393148 2650 
213 1 -0.0111113 0.0330782 -0.00502347 0.000847 -0.0276122 0.0115162 0.0273764 2650 
482 1 -0.0150218 0.0454598 -0.00600087 0.000233 -0.00272 0.0425188 0.0154078 2650 
17 1 -0.00154066 0.00431446 -0.00370901 0.000847 -0.00613659 -0.00626755 -0.00320005 2650 
149 1 -0.0084986 0.0100358 -0.00384731 0.000847 0.00533574 0.00120564 0.000572163 2650 
204 1 -0.012099 0.0165981 -0.00429013 0.000847 -0.0114452 0.0176588 -0.00542553 2650 
199 1 -0.0104183 0.0186032 -0.00406335 0.001312 -0.0114139 0.0172366 -0.00115991 2650 
31 1 -0.0128495 0.0283367 -0.00393787 0.000847 0.0128996 0.0556905 -0.00624527 2650 
245 1 -0.0159571 0.000588361 -0.00179261 0.000233 -0.00221759 -0.0111797 -0.00662502 2650 
153 1 -0.0160326 0.0206178 -0.00296677 0.000233 -0.00567127 0.0208727 0.0325745 2650 
222 1 -0.00531146 0.0281023 -0.00298157 0.000233 -0.0191158 0.00902985 0.033076 2650 
373 1 -0.0155257 0.00149977 -0.000765648 0.000847 0.000337109 0.0216316 -0.00631221 2650 
450 1 -0.011683 0.0011326 -0.000534308 0.000847 0.0141697 0.00366662 0.00769839 2650 
75 1 -0.004976 0.000106274 -0.001105 0.000233 0 -0.011754 0 2650 
467 1 -0.013118 0.00344434 -0.000970041 0.000233 -0.0114317 0.00391679 0.0097834 2650 
121 1 -0.013993 0.00891233 -0.00119532 0.001312 0.00840531 0.00591376 0.00499871 2650 
217 1 -0.0106336 0.0222265 -0.0014194 0.000847 -0.0164792 0.0356281 0.00207149 2650 
262 1 -0.0134153 0.0382886 -0.00114048 8.4e-05 -0.00568771 0.047836 0.0275692 2650 
464 1 -0.0132148 0.000644541 0.0011499 0.000233 -0.0516295 0.0375215 0.0981396 2650 
440 1 -0.0118453 0.000864271 0.00064006 0.000233 0.00893327 0.00123303 0.0100401 2650 
206 1 -0.000658789 0.00217812 0.00122881 0.000233 0.000200844 -0.0022057 -0.0101649 2650 
355 1 -0.0157599 0.00402558 0.000852754 0.000847 0.00437228 0.0104751 -0.0043935 2650 
345 1 -0.00521062 0.00378707 0.000137296 0.000847 0.0102698 0.00604929 0.00457735 2650 
301 1 -0.00320941 0.00438267 0.00128069 8.4e-05 -0.00542456 -0.000958437 0.00851575 2650 
186 1 -0.0137336 0.00482057 0.00126718 0.001312 0.0109942 -0.000984553 0.00527148 2650 
29 1 -0.0061296 0.0106159 0.00123635 0.001312 0.00949452 0.0217713 0.0254281 2650 
226 1 -0.00571156 0.0133205 0.00117917 0.000847 0.00503538 0.0348535 0.0122627 2650 
178 1 -0.00517217 0.0160397 0.000947519 0.000847 -0.00942264 0.0138974 -0.0144999 2650 
137 1 -0.00661836 0.0389216 0.000921255 0.000847 0.0204383 0.0331061 0.00315705 2650 
168 1 -0.0122194 0.00432939 0.00186531 0.000233 -0.00202632 0.00526207 0.00695314 2650 
156 1 -0.0132874 0.00861174 0.00243091 0.000233 0.00826491 0.00699737 -0.00422055 2650 
408 1 -0.00521005 0.0247464 0.00178319 0.000847 0.0243368 0.0195503 -0.0236234 2650 
469 1 -0.0128884 0.000387168 0.00365948 0.000233 -0.00294498 -0.00215916 -0.0350837 2650 
296 1 -0.002285 0.00128527 0.004233 0.000233 0 -0.011754 0 2650 
470 1 -0.008539 0.00234427 0.004033 8.4e-05 0 -0.011754 0 2650 
374 1 -0.006913 0.00225127 0.00361 0.000233 0 -0.011754 0 2650 
451 1 -0.0133718 0.00699574 0.00468225 0.000847 0.0101382 0.00361366 0.00843172 2650 
515 1 -0.0131273 0.00995863 0.00413965 0.000847 -0.0331335 0.000695793 0.00327395 2650 
384 1 -0.0135656 7.36333e-05 0.00491969 0.000847 -0.0196308 -0.00179508 -0.0295482 2650 
90 1 -0.009269 0.000228274 0.005356 0.000233 0 -0.011754 0 2650 
172 1 -0.00071291 0.000328264 0.00535441 0.001312 0.000274478 -0.0120667 -0.00114405 2650 
361 1 -0.012031 0.00160327 0.0053 0.000233 0 -0.011754 0 2650 
164 1 -0.00887372 0.00172996 0.00586558 0.000847 0.00171122 0.000309802 0.036423 2650 
244 1 -0.002251 0.00180627 0.006118 0.000233 0 -0.011754 0 2650 
112 1 -0.0091051 0.0091797 0.00618107 0.000847 0.00071367 0.0206107 0.0385939 2650 
79 1 -0.00909458 0.0165172 0.00520573 0.000233 0.000840897 0.0441412 0.0394647 2650 
214 1 -0.0143036 0.0184247 0.00509672 0.000847 0.0140272 0.0148951 0.00243728 2650 
388 1 -0.0156106 0.0232195 0.00585403 0.000233 0.0260948 0.00747792 0.0633199 2650 
80 1 -0.000966822 0.0248395 0.00539985 8.4e-05 -0.0125032 0.0188644 0.0118682 2650 
369 1 -0.008047 0.000143274 0.006729 0.000847 0 -0.011754 0 2650 
135 1 -0.012829 0.00694633 0.0072261 0.000847 0.0111024 0.0559245 0.0415886 2650 
285 1 -0.000771018 0.0151321 0.0067794 0.000233 0.00777784 0.0141206 0.0186362 2650 
511 1 -0.0112208 0.0361606 0.00728772 0.000847 -0.0191909 0.0247707 0.000400878 2650 
462 1 -0.0133752 0.000141987 0.00862596 0.000847 -0.0108573 -0.00485791 -0.00954109 2650 
22 1 -0.002569 0.000592274 0.009366 0.000233 0 -0.011754 0 2650 
291 1 -0.00144616 0.00806036 0.00803106 0.000847 0.000368443 -0.000878557 -0.00367841 2650 
413 1 -0.00983646 0.0202618 0.0080671 0.000233 0.0212736 0.0189692 -0.00433326 2650 
319 1 -0.00387214 0.0669164 0.00994372 0.000847 0.00321502 0.103152 0.00477754 2650 
518 1 -0.0120635 0.000832369 0.0113213 0.000233 -0.00455624 0.0103112 -0.00628034 2650 
313 1 -0.004641 0.00202427 0.011299 0.000233 0 -0.011754 0 2650 
196 1 -0.000742064 0.00609203 0.0140075 0.000233 0.0197346 0.00431685 0.00197254 2650 
390 1 -0.000672132 0.0116612 0.0136949 0.000233 -0.00350245 0.00582576 -0.00125219 2650 
457 1 -0.00492858 0.0185744 0.0140154 8.4e-05 0.00209197 0.0125772 -0.0227291 2650 
63 1 -0.00565665 0.0445008 0.01384 0.000233 0.00544067 0.0487134 -0.0167697 2650 
437 1 -0.0040109 0.0522077 0.0133839 0.000847 -0.0315708 0.0927249 0.0373591 2650 
446 1 -0.000353 0.00137927 0.015695 0.000847 0 -0.011754 0 2650 
124 1 0.00112649 -0.0546575 -0.0681516 0.000847 -10.3678 0.0362796 -0.173298 2650 
341 1 0.0125807 -0.0545037 -0.0665159 0.001312 -10.547 0.102404 -1.99407 2650 
290 1 0.0146044 -0.0416087 -0.066553 0.000847 -10.092 -0.0208912 -2.20784 2650 
140 1 0.0140172 -0.019119 -0.0673161 0.000233 -9.38903 -0.541927 -1.92119 2650 
264 1 0.0165221 -0.0614939 -0.0661236 0.000847 -10.0486 -0.0446024 -2.51107 2650 
409 1 0.0162931 -0.0516013 -0.0661763 0.000847 -9.42574 -0.27057 -2.33114 2650 
492 1 0.0259382 -0.00523068 -0.0636866 0.000233 -3.38787 -0.119599 -1.3553 2650 
269 1 0.0274735 -0.0379428 -0.0623729 0.000847 -9.24562 0.183403 -4.0787 2650 
253 1 0.0362749 -0.0307667 -0.0577035 0.000847 -8.74493 -0.0152218 -5.52563 2650 
461 1 0.0390975 -0.0384318 -0.0558315 0.000847 -8.21541 -0.0441448 -5.75042 2650 
33 1 0.0443172 -0.0352922 -0.0517789 0.000847 -7.68592 -0.0178049 -6.57872 2650 
513 1 0.0479434 -0.0344055 -0.0484378 0.000847 -7.1899 0.0274779 -7.1215 2650 
44 1 0.0500058 -0.0387502 -0.0463137 0.000847 -6.82376 -0.19144 -7.36062 2650 
305 1 0.0511663 -0.0474353 -0.0450409 0.000847 -6.51039 -0.327858 -7.4068 2650 
308 1 0.0510008 -0.0439266 -0.0452264 0.000847 -6.63679 -0.150766 -7.46296 2650 
449 1 0.0515994 -0.0420603 -0.0445385 0.000847 -6.51972 -0.109274 -7.59945 2650 
500 1 0.0529878 -0.050084 -0.0428669 0.000847 -6.18784 -0.199406 -7.61946 2650 
314 1 0.0531713 -0.0388526 -0.0438401 8.4e-05 -6.208 -0.14176 -7.50368 2650 
349 1 0.0532295 -0.0197422 -0.0435471 0.000233 -6.6088 -0.403393 -8.0805 2650 
473 1 0.0538291 -0.0533364 -0.0418114 0.000847 -6.48455 -0.0531065 -8.35166 2650 
421 1 0.0531726 -0.0420265 -0.0426357 0.000847 -6.25185 -0.138275 -7.80678 2650 
478 1 0.054191 -0.0307539 -0.0423401 0.000233 -6.19382 0.92374 -7.89651 2650 
148 1 0.0555207 -0.0419558 -0.0395046 0.000847 -5.9998 0.0684138 -8.44161 2650 
497 1 0.0555331 -0.0352075 -0.0387014 0.001312 -5.45819 0.10525 -7.88448 2650 
150 1 0.0570608 -0.0418129 -0.037187 0.000847 -5.66892 0.135455 -8.69205 2650 
231 1 0.0581477 -0.0308808 -0.0367111 0.000233 -5.21724 0.48286 -8.25087 2650 
41 1 0.0607372 -0.00217035 -0.0325276 8.4e-05 -3.54527 -0.164111 -6.63307 2650 
346 1 0.0618121 -0.0618823 -0.0287142 0.000847 -4.36569 0.033014 -9.40106 2650 
20 1 0.0643643 -0.0376582 -0.0224228 0.000847 -3.22477 -0.0216516 -9.22572 2650 
169 1 0.0666247 -0.0364006 -0.0170265 0.000233 -2.40359 0.073957 -9.40103 2650 
395 1 0.000394952 -0.000740205 -0.0152927 0.000847 0.00509824 -0.00223179 0.00216209 2650 
284 1 0.00230154 -0.000912605 -0.0153414 0.000233 0.00462599 -0.017804 -0.00562158 2650 
82 1 0.0020034 -0.00310832 -0.0138702 0.001312 0.00664456 -0.00588611 0.000478782 2650 
224 1 0.000770258 -0.000317676 -0.0126496 0.001312 0.00454724 -0.0042509 -0.000133553 2650 
350 1 0.0678827 -0.0507333 -0.011067 0.000233 -1.73212 -0.334641 -10.6155 2650 
146 1 0.00283123 -0.00110694 -0.00931965 0.001312 0.00673703 -0.0102174 0.00415946 2650 
173 1 0.0673174 -0.0494448 -0.00729033 0.001312 -1.12925 -0.00481915 -10.4311 2650 
74 1 0.008324 -0.00221373 -0.003253 0.000847 0 -0.011754 0 2650 
351 1 0.000422 -0.00147873 -0.00156 0.000233 0 -0.011754 0 2650 
353 1 0.00277643 -0.00155909 -0.000132064 8.4e-05 0.0015345 -0.00573097 -0.0125122 2650 
426 1 0.00611173 -0.000447159 0.000581888 0.000233 -0.00184642 -0.0123346 -0.0119623 2650 
50 1 0.0109001 -0.00112921 0.00151174 0.000233 -0.00122274 -0.00865396 -0.00164665 2650 
116 1 8e-05 -0.00242973 0.00308 0.000233 0 -0.011754 0 2650 
303 1 0.009309 -0.00173073 0.002118 0.000847 0 -0.011754 0 2650 
499 1 0.00260971 -0.00162295 0.00413982 0.000847 -0.00680562 -0.0123081 -0.00361546 2650 
184 1 0.0137652 -0.00273265 0.00384282 8.4e-05 0.0211159 -0.0212105 -0.027804 2650 
35 1 0.0104757 -0.000146227 0.00321757 0.000847 -0.0121953 -9.57773e-05 0.00420749 2650 
456 1 0.009608 -0.000953726 0.003179 0.000233 0 -0.011754 0 2650 
110 1 0.0679658 -0.015231 0.00511319 0.000847 0.640909 -0.0197224 -8.54531 2650 
387 1 0.00197647 -0.00142338 0.00507806 0.000233 -0.00271318 -0.0113279 0.00188639 2650 
327 1 0.0685374 -0.0244012 0.0072003 8.4e-05 0.858264 -0.0437481 -8.09208 2650 
167 1 0.009498 -0.00300473 0.007687 0.000233 0 -0.011754 0 2650 
54 1 0.014879 -0.00120673 0.006531 8.4e-05 0 -0.011754 0 2650 
119 1 0.00722 -0.00275773 0.008414 8.4e-05 0 -0.011754 0 2650 
428 1 0.0131835 -0.00249626 0.00930101 0.000233 -0.0006844 -0.00321647 0.00718742 2650 
252 1 0.00095761 -0.000846439 0.00815097 0.000847 0.000124528 -0.0112911 0.000308706 2650 
447 1 0.0674093 -0.0204425 0.0100603 0.000847 1.15766 -0.155595 -7.79418 2650 
479 1 0.0127787 -0.00296778 0.00965927 0.000233 0.00972273 -0.00930981 -0.0160347 2650 
375 1 0.002381 -0.00118773 0.009939 0.000233 0 -0.011754 0 2650 
278 1 0.0670355 -0.0618492 0.0123076 0.000847 1.87015 -0.0231543 -10.1969 2650 
11 1 0.0103841 -0.00168719 0.0127651 0.000233 -0.0253731 -0.00579349 0.0214993 2650 
176 1 0.00226389 -0.000981396 0.0158306 0.000847 0.00761816 -0.00329714 -0.00812013 2650 
70 1 0.0643446 -0.0202189 0.0224565 0.000847 2.95831 -0.0186866 -8.48193 2650 
166 1 0.0644771 -0.04213 0.0239118 0.000233 3.94382 0.187135 -10.6375 2650 
483 1 0.0644095 -0.000240985 0.0245072 8.4e-05 2.22019 -0.472002 -5.84652 2650 
452 1 0.0627854 -0.0562999 0.0280517 0.000233 3.99883 0.110675 -8.93881 2650 
23 1 0.0624861 -0.0624842 0.0287156 0.000233 4.2684 -0.0253886 -9.26261 2650 
95 1 0.0610324 -0.0147582 0.0293183 0.001312 2.28802 -0.273262 -4.88934 2650 
402 1 0.0596606 -0.0144186 0.034227 0.000233 2.38319 -0.193723 -4.11612 2650 
53 1 0.0590372 -0.00852437 0.0352745 0.000233 2.56975 0.211507 -4.27526 2650 
490 1 0.0591024 -0.00406854 0.0351471 0.000233 4.29721 0.350183 -7.22614 2650 
317 1 0.0574412 -0.0478838 0.0367154 0.000847 5.94455 0.103484 -9.29917 2650 
218 1 0.0565067 -0.0313595 0.039193 0.000233 4.90919 1.53084 -6.99376 2650 
259 1 0.0564706 -0.0103548 0.0392597 0.000233 4.17454 0.0931778 -6.03045 2650 
78 1 0.0558244 -0.042049 0.0401723 0.000233 6.44583 0.424142 -8.95855 2650 
480 1 0.0562806 -0.000289841 0.039512 0.000233 3.86236 0.00372254 -5.50366 2650 
159 1 0.0528649 -0.0422052 0.0423011 0.001312 6.75765 -0.107779 -8.4455 2650 
347 1 0.0534184 -0.025917 0.0423293 0.000847 6.14961 -0.410369 -7.75803 2650 
106 1 0.054363 -0.00411877 0.042353 8.4e-05 3.00134 0.0841845 -3.8455 2650 
521 1 0.0541513 -0.0133434 0.0426434 8.4e-05 4.20401 0.433937 -5.33786 2650 
316 1 0.0508178 -0.0615515 0.0454191 0.000847 7.13044 -0.0284379 -7.97804 2650 
185 1 0.0496869 -0.0386222 0.045982 0.001312 6.62429 -0.156665 -7.15202 2650 
338 1 0.0501049 -0.0331983 0.0470976 0.000233 7.49583 0.294794 -7.97541 2650 
522 1 0.0512124 -0.00402721 0.0461129 8.4e-05 6.12822 -0.240698 -6.79885 2650 
19 1 0.0477373 -0.0616712 0.0486477 0.000847 7.69591 -0.0198281 -7.55543 2650 
420 1 0.0484131 -0.0424237 0.0479765 0.000847 7.8539 0.253308 -7.92315 2650 
445 1 0.0477568 -0.0396014 0.0479821 0.001312 7.73629 0.0302405 -7.69929 2650 
92 1 0.0492412 -0.0143471 0.0480051 0.000233 5.96384 -0.0215283 -6.11655 2650 
367 1 0.0463922 -0.0556229 0.0493007 0.001312 7.95263 0.00687717 -7.47039 2650 
46 1 0.0461728 -0.0402844 0.0501329 0.000847 7.8729 0.222702 -7.24849 2650 
190 1 0.0458911 -0.0615994 0.0503926 0.000847 7.88173 0.0253378 -7.17756 2650 
171 1 0.0463859 -0.0450526 0.0509655 8.4e-05 7.50188 0.847609 -6.83115 2650 
458 1 0.0433019 -0.0614774 0.0520374 0.001312 8.17559 0.00537038 -6.80309 2650 
304 1 0.0438447 -0.0403248 0.0521827 0.000847 8.29972 0.140715 -6.97316 2650 
142 1 0.0380698 -0.0478461 0.0572434 0.000233 5.24464 0.53601 -3.51993 2650 
4 1 0.0361288 -0.0331893 0.0577904 0.000847 8.72981 0.201382 -5.46173 2650 
60 1 0.0329314 -0.0314677 0.059673 0.000847 8.98906 0.163237 -4.95904 2650 
519 1 0.0330063 -0.041848 0.0603341 0.000233 9.07921 0.128725 -4.96955 2650 
486 1 0.0319873 -0.0330318 0.0601811 0.000847 9.06103 0.110472 -4.81367 2650 
220 1 0.0247067 -0.0335729 0.0641713 0.000233 8.90824 -0.0316713 -3.43206 2650 
267 1 0.0231624 -0.0307724 0.0641085 0.000847 9.02743 -0.174811 -3.24999 2650 
170 1 0.0250862 -0.0299531 0.0640268 0.000233 9.05724 0.124059 -3.55742 2650 
432 1 0.0226569 -0.0285712 0.0637883 0.001312 9.1615 0.00695542 -3.30536 2650 
362 1 0.0233671 -0.0401247 0.0646824 0.000233 8.61539 -0.198068 -3.11601 2650 
230 1 0.0173478 -0.0360848 0.0659118 0.000847 9.68334 -0.27595 -2.54587 2650 
393 1 0.019177 -0.0293214 0.0649202 0.001312 9.74811 -0.11259 -2.85392 2650 
32 1 0.0213173 -0.0300537 0.0647361 0.000847 9.50984 -0.337338 -3.13123 2650 
96 1 0.0179952 -0.0274658 0.0657357 0.000847 9.52026 -0.315952 -2.62278 2650 
280 1 0.0204516 -0.0275644 0.0650118 0.000847 9.49758 0.113062 -3.00278 2650 