LIGGGHTS (Version LIGGGHTS-PUBLIC 3.8.0, compiled 2022-11-07-16:55:38 by serperd1, git commit 86544c3f1215bc9744d7929e3eacf53ba086af9e)
Created orthogonal box = (-0.15 -0.15 -0.15) to (0.15 0.15 0.15)
  2 by 4 by 5 MPI processor grid

Reading STL file 'cone.stl' (mesh processing step 1/3) 

Reading STL file 'dem_walls_60X_14micronpore_mod_mesh.stl' (mesh processing step 1/3) 
   successfully read a chunk of 100000 elements in STL file 'dem_walls_60X_14micronpore_mod_mesh.stl'
   successfully read a chunk of 100000 elements in STL file 'dem_walls_60X_14micronpore_mod_mesh.stl'
   successfully read a chunk of 100000 elements in STL file 'dem_walls_60X_14micronpore_mod_mesh.stl'
   successfully read a chunk of 100000 elements in STL file 'dem_walls_60X_14micronpore_mod_mesh.stl'

Reading STL file 'in_cyl.stl' (mesh processing step 1/3) 

Reading STL file 'top_cyl.stl' (mesh processing step 1/3) 

Reading STL file 'bot_cyl.stl' (mesh processing step 1/3) 

Reading STL file 'bottom_disk.stl' (mesh processing step 1/3) 

Reading STL file 'top_disk.stl' (mesh processing step 1/3) 
Fix particledistribution/discrete (id prob_par): distribution based on mass%:
    r_0to10p: d=1.680000e-04 (max. bounding sphere) mass%=10.000000%
    r_10to50p: d=4.656000e-04 (max. bounding sphere) mass%=40.000000%
    r_50to90p: d=1.693200e-03 (max. bounding sphere) mass%=40.000000%
    r_90to100p: d=2.624400e-03 (max. bounding sphere) mass%=10.000000%
Fix particledistribution/discrete (id prob_par): distribution based on number%:
    r_0to10p: d=1.680000e-04 (max. bounding sphere) number%=83.887052%
    r_10to50p: d=4.656000e-04 (max. bounding sphere) number%=15.763181%
    r_50to90p: d=1.693200e-03 (max. bounding sphere) number%=0.327762%
    r_90to100p: d=2.624400e-03 (max. bounding sphere) number%=0.022006%
Setting up run at Sat Nov 26 23:17:28 2022

Import and parallelization of mesh cone_mesh containing 868 triangle(s) successful
Import and parallelization of mesh filter_mesh_walls containing 61704 triangle(s) successful
Import and parallelization of mesh inlet_cyl_wall_mesh containing 1064 triangle(s) successful
Import and parallelization of mesh top_cyl_wall_mesh containing 682 triangle(s) successful
Import and parallelization of mesh bot_cyl_wall_mesh containing 1280 triangle(s) successful
Import and parallelization of mesh bot_disk_wall_mesh containing 1682 triangle(s) successful
Import and parallelization of mesh top_disk_wall_mesh containing 1144 triangle(s) successful
Memory usage per processor = 1078.61 Mbytes
    Step    Atoms         KinEng            CPU 
       0        0              0              0 
Loop time of 6.45603e-05 on 40 procs for 0 steps with 0 atoms, finish time Sat Nov 26 23:17:29 2022


Pair  time (%) = 0 (0)
Neigh time (%) = 0 (0)
Comm  time (%) = 0 (0)
Outpt time (%) = 0 (0)
Other time (%) = 6.45603e-05 (100)

Nlocal:    0 ave 0 max 0 min
Histogram: 40 0 0 0 0 0 0 0 0 0
Nghost:    0 ave 0 max 0 min
Histogram: 40 0 0 0 0 0 0 0 0 0
Neighs:    0 ave 0 max 0 min
Histogram: 40 0 0 0 0 0 0 0 0 0

Total # of neighbors = 0
Neighbor list builds = 0
Dangerous builds = 0
Setting up run at Sat Nov 26 23:17:29 2022

Memory usage per processor = 1078.61 Mbytes
    Step    Atoms         KinEng            CPU 
       0        0              0              0 
       1        0              0    0.012916845 
Loop time of 0.0129462 on 40 procs for 1 steps with 0 atoms, finish time Sat Nov 26 23:17:29 2022


Pair  time (%) = 2.857e-06 (0.0220682)
Neigh time (%) = 0 (0)
Comm  time (%) = 0.000179174 (1.38399)
Outpt time (%) = 0.000204818 (1.58207)
Other time (%) = 0.0125594 (97.0119)

Nlocal:    0 ave 0 max 0 min
Histogram: 40 0 0 0 0 0 0 0 0 0
Nghost:    0 ave 0 max 0 min
Histogram: 40 0 0 0 0 0 0 0 0 0
Neighs:    0 ave 0 max 0 min
Histogram: 40 0 0 0 0 0 0 0 0 0

Total # of neighbors = 0
Neighbor list builds = 0
Dangerous builds = 0
Scanning dump file ...
Reading snapshot from dump file ...
  orthogonal box = (-0.15 -0.15 -0.15) to (0.15 0.15 0.15)
  0 atoms before read
  522 atoms in snapshot
  0 atoms purged
  0 atoms replaced
  0 atoms trimmed
  522 atoms added
  522 atoms after read
Setting atom values ...
  522 settings made for type
  522 settings made for density
  522 settings made for vy
Setting up run at Sat Nov 26 23:17:30 2022

Memory usage per processor = 1083.01 Mbytes
    Step    Atoms         KinEng            CPU 
       1      522  2.0481176e-07              0 
       2      522  2.2334456e-07    0.012480951 
Loop time of 0.0124968 on 40 procs for 1 steps with 522 atoms, finish time Sat Nov 26 23:17:30 2022


Pair  time (%) = 2.41477e-06 (0.0193231)
Neigh time (%) = 0 (0)
Comm  time (%) = 6.24157e-06 (0.0499454)
Outpt time (%) = 0.000249336 (1.99519)
Other time (%) = 0.0122388 (97.9355)

Nlocal:    13.05 ave 230 max 0 min
Histogram: 36 2 0 0 0 0 0 0 1 1
Nghost:    6.9 ave 88 max 0 min
Histogram: 36 0 0 0 0 1 1 0 0 2
Neighs:    4.05 ave 71 max 0 min
Histogram: 36 2 0 0 0 0 0 0 0 2

Total # of neighbors = 162
Ave neighs/atom = 0.310345
Neighbor list builds = 0
Dangerous builds = 0
Setting up run at Sat Nov 26 23:17:30 2022

Memory usage per processor = 1083.01 Mbytes
    Step    Atoms         KinEng            CPU 
       2      522  2.2334456e-07              0 
  154350      522  2.5108355e-05      2035.5716 
Loop time of 2035.57 on 40 procs for 154348 steps with 522 atoms, finish time Sat Nov 26 23:51:25 2022


Pair  time (%) = 0.352583 (0.0173211)
Neigh time (%) = 0.13055 (0.00641345)
Comm  time (%) = 0.932546 (0.0458125)
Outpt time (%) = 3.33132e-05 (1.63656e-06)
Other time (%) = 2034.16 (99.9305)

Nlocal:    13.05 ave 225 max 0 min
Histogram: 36 0 2 0 0 0 0 0 0 2
Nghost:    6.975 ave 93 max 0 min
Histogram: 36 0 0 0 1 1 0 0 0 2
Neighs:    4.375 ave 81 max 0 min
Histogram: 36 2 0 0 0 0 0 0 1 1

Total # of neighbors = 175
Ave neighs/atom = 0.335249
Neighbor list builds = 412
Dangerous builds = 0
Setting up run at Sat Nov 26 23:51:25 2022

Memory usage per processor = 1083.01 Mbytes
    Step    Atoms         KinEng            CPU 
  154350      522  2.5108355e-05              0 
  308698      522  0.00014328243      2049.6894 
Loop time of 2049.69 on 40 procs for 154348 steps with 522 atoms, finish time Sun Nov 27 00:25:35 2022


Pair  time (%) = 0.353543 (0.0172486)
Neigh time (%) = 0.13148 (0.0064146)
Comm  time (%) = 0.970447 (0.047346)
Outpt time (%) = 0.000617101 (3.0107e-05)
Other time (%) = 2048.24 (99.929)

Nlocal:    13.05 ave 214 max 0 min
Histogram: 36 0 2 0 0 0 0 0 0 2
Nghost:    7.15 ave 94 max 0 min
Histogram: 36 0 0 0 0 2 0 0 0 2
Neighs:    4.475 ave 79 max 0 min
Histogram: 36 1 1 0 0 0 0 0 1 1

Total # of neighbors = 179
Ave neighs/atom = 0.342912
Neighbor list builds = 412
Dangerous builds = 0
Setting up run at Sun Nov 27 00:25:35 2022

Memory usage per processor = 1083.01 Mbytes
    Step    Atoms         KinEng            CPU 
  308698      522  0.00014328243              0 
  463046      522  0.00019149196      2036.0033 
Loop time of 2036 on 40 procs for 154348 steps with 522 atoms, finish time Sun Nov 27 00:59:31 2022


Pair  time (%) = 0.356556 (0.0175125)
Neigh time (%) = 0.130967 (0.00643258)
Comm  time (%) = 1.02896 (0.0505382)
Outpt time (%) = 0.000593967 (2.91732e-05)
Other time (%) = 2034.49 (99.9255)

Nlocal:    13.05 ave 209 max 0 min
Histogram: 36 0 2 0 0 0 0 0 0 2
Nghost:    7 ave 93 max 0 min
Histogram: 36 0 0 0 1 1 0 0 0 2
Neighs:    4.375 ave 75 max 0 min
Histogram: 36 0 2 0 0 0 0 0 1 1

Total # of neighbors = 175
Ave neighs/atom = 0.335249
Neighbor list builds = 412
Dangerous builds = 0
Setting up run at Sun Nov 27 00:59:31 2022

Memory usage per processor = 1083.01 Mbytes
    Step    Atoms         KinEng            CPU 
  463046      522  0.00019149196              0 
  617394      522  0.00022290148       2029.258 
Loop time of 2029.26 on 40 procs for 154348 steps with 522 atoms, finish time Sun Nov 27 01:33:21 2022


Pair  time (%) = 0.362126 (0.0178452)
Neigh time (%) = 0.132072 (0.0065084)
Comm  time (%) = 0.950184 (0.0468242)
Outpt time (%) = 0.000341783 (1.68428e-05)
Other time (%) = 2027.81 (99.9288)

Nlocal:    13.05 ave 206 max 0 min
Histogram: 36 0 2 0 0 0 0 0 0 2
Nghost:    7 ave 93 max 0 min
Histogram: 36 0 0 0 1 0 1 0 0 2
Neighs:    4.15 ave 74 max 0 min
Histogram: 36 1 1 0 0 0 0 0 1 1

Total # of neighbors = 166
Ave neighs/atom = 0.318008
Neighbor list builds = 412
Dangerous builds = 0
Setting up run at Sun Nov 27 01:33:21 2022

Memory usage per processor = 1083.01 Mbytes
    Step    Atoms         KinEng            CPU 
  617394      522  0.00022290148              0 
  771742      522  0.00050075973      2033.2663 
Loop time of 2033.27 on 40 procs for 154348 steps with 522 atoms, finish time Sun Nov 27 02:07:14 2022


Pair  time (%) = 0.359927 (0.0177019)
Neigh time (%) = 0.132152 (0.00649949)
Comm  time (%) = 0.979888 (0.0481928)
Outpt time (%) = 0.000588584 (2.89477e-05)
Other time (%) = 2031.79 (99.9276)

Nlocal:    13.05 ave 206 max 0 min
Histogram: 36 0 2 0 0 0 0 0 0 2
Nghost:    6.825 ave 91 max 0 min
Histogram: 36 0 0 0 0 1 1 0 1 1
Neighs:    4.125 ave 76 max 0 min
Histogram: 36 1 1 0 0 0 0 1 0 1

Total # of neighbors = 165
Ave neighs/atom = 0.316092
Neighbor list builds = 412
Dangerous builds = 0
Setting up run at Sun Nov 27 02:07:14 2022

Memory usage per processor = 1083.01 Mbytes
    Step    Atoms         KinEng            CPU 
  771742      522  0.00050075973              0 
  926090      522  0.00061754058      2029.9286 
Loop time of 2029.93 on 40 procs for 154348 steps with 522 atoms, finish time Sun Nov 27 02:41:04 2022


Pair  time (%) = 0.363089 (0.0178868)
Neigh time (%) = 0.131778 (0.00649176)
Comm  time (%) = 0.931585 (0.0458925)
Outpt time (%) = 0.000450698 (2.22026e-05)
Other time (%) = 2028.5 (99.9297)

Nlocal:    13.05 ave 205 max 0 min
Histogram: 36 0 2 0 0 0 0 0 0 2
Nghost:    6.825 ave 90 max 0 min
Histogram: 36 0 0 0 0 1 1 0 1 1
Neighs:    4.1 ave 75 max 0 min
Histogram: 36 1 1 0 0 0 0 1 0 1

Total # of neighbors = 164
Ave neighs/atom = 0.314176
Neighbor list builds = 412
Dangerous builds = 0
Setting up run at Sun Nov 27 02:41:04 2022

Memory usage per processor = 1083.01 Mbytes
    Step    Atoms         KinEng            CPU 
  926090      522  0.00061754058              0 
 1080438      522  0.00058783092      2056.7477 
Loop time of 2056.75 on 40 procs for 154348 steps with 522 atoms, finish time Sun Nov 27 03:15:21 2022


Pair  time (%) = 0.356811 (0.0173483)
Neigh time (%) = 0.132571 (0.00644567)
Comm  time (%) = 1.01816 (0.0495034)
Outpt time (%) = 0.000678439 (3.2986e-05)
Other time (%) = 2055.24 (99.9267)

Nlocal:    13.05 ave 205 max 0 min
Histogram: 36 0 1 1 0 0 0 0 0 2
Nghost:    6.925 ave 87 max 0 min
Histogram: 36 0 0 0 0 0 2 0 0 2
Neighs:    4 ave 72 max 0 min
Histogram: 36 0 2 0 0 0 0 1 0 1

Total # of neighbors = 160
Ave neighs/atom = 0.306513
Neighbor list builds = 412
Dangerous builds = 0
Setting up run at Sun Nov 27 03:15:21 2022

Memory usage per processor = 1083.01 Mbytes
    Step    Atoms         KinEng            CPU 
 1080438      522  0.00058783092              0 
 1234786      522  0.00087515348      2168.3277 
Loop time of 2168.33 on 40 procs for 154348 steps with 522 atoms, finish time Sun Nov 27 03:51:29 2022


Pair  time (%) = 0.35568 (0.0164034)
Neigh time (%) = 0.13302 (0.00613468)
Comm  time (%) = 1.29501 (0.0597239)
Outpt time (%) = 0.000360624 (1.66314e-05)
Other time (%) = 2166.54 (99.9177)

Nlocal:    13.05 ave 205 max 0 min
Histogram: 36 0 2 0 0 0 0 0 0 2
Nghost:    6.625 ave 87 max 0 min
Histogram: 36 0 0 0 0 2 0 0 1 1
Neighs:    4.375 ave 77 max 0 min
Histogram: 36 0 2 0 0 0 0 1 0 1

Total # of neighbors = 175
Ave neighs/atom = 0.335249
Neighbor list builds = 412
Dangerous builds = 0
Setting up run at Sun Nov 27 03:51:29 2022

Memory usage per processor = 1083.01 Mbytes
    Step    Atoms         KinEng            CPU 
 1234786      522  0.00087515348              0 
 1389134      522   0.0011591703      2037.7276 
Loop time of 2037.75 on 40 procs for 154348 steps with 522 atoms, finish time Sun Nov 27 04:25:27 2022


Pair  time (%) = 0.354875 (0.017415)
Neigh time (%) = 0.132575 (0.00650595)
Comm  time (%) = 1.02215 (0.0501604)
Outpt time (%) = 0.000776762 (3.81185e-05)
Other time (%) = 2036.24 (99.9259)

Nlocal:    13.05 ave 203 max 0 min
Histogram: 36 0 2 0 0 0 0 0 0 2
Nghost:    6.55 ave 86 max 0 min
Histogram: 36 0 0 0 0 1 1 0 1 1
Neighs:    4.375 ave 79 max 0 min
Histogram: 36 0 2 0 0 0 0 1 0 1

Total # of neighbors = 175
Ave neighs/atom = 0.335249
Neighbor list builds = 412
Dangerous builds = 0
Setting up run at Sun Nov 27 04:25:27 2022

Memory usage per processor = 1083.01 Mbytes
    Step    Atoms         KinEng            CPU 
 1389134      522   0.0011591703              0 
 1543482      522    0.001206386      2049.6873 
Loop time of 2049.69 on 40 procs for 154348 steps with 522 atoms, finish time Sun Nov 27 04:59:37 2022


Pair  time (%) = 0.354541 (0.0172973)
Neigh time (%) = 0.132715 (0.00647488)
Comm  time (%) = 0.931549 (0.0454483)
Outpt time (%) = 0.000433833 (2.11658e-05)
Other time (%) = 2048.27 (99.9308)

Nlocal:    13.05 ave 199 max 0 min
Histogram: 36 0 1 1 0 0 0 0 0 2
Nghost:    6.45 ave 87 max 0 min
Histogram: 36 0 0 0 0 2 0 0 1 1
Neighs:    4.375 ave 78 max 0 min
Histogram: 36 0 2 0 0 0 0 1 0 1

Total # of neighbors = 175
Ave neighs/atom = 0.335249
Neighbor list builds = 412
Dangerous builds = 0
Setting up run at Sun Nov 27 04:59:37 2022

Memory usage per processor = 1083.01 Mbytes
    Step    Atoms         KinEng            CPU 
 1543482      522    0.001206386              0 
 1697830      522   0.0012121386      2035.9578 
Loop time of 2035.96 on 40 procs for 154348 steps with 522 atoms, finish time Sun Nov 27 05:33:33 2022


Pair  time (%) = 0.354607 (0.0174172)
Neigh time (%) = 0.132136 (0.00649012)
Comm  time (%) = 0.939386 (0.0461397)
Outpt time (%) = 0.0108988 (0.000535317)
Other time (%) = 2034.52 (99.9294)

Nlocal:    13.05 ave 198 max 0 min
Histogram: 36 0 1 1 0 0 0 0 0 2
Nghost:    6.525 ave 89 max 0 min
Histogram: 36 0 0 0 0 2 0 0 1 1
Neighs:    4.325 ave 73 max 0 min
Histogram: 36 0 1 1 0 0 0 1 0 1

Total # of neighbors = 173
Ave neighs/atom = 0.331418
Neighbor list builds = 412
Dangerous builds = 0
Setting up run at Sun Nov 27 05:33:33 2022

Memory usage per processor = 1083.01 Mbytes
    Step    Atoms         KinEng            CPU 
 1697830      522   0.0012121386              0 
 1852178      522   0.0025925524       2045.283 
Loop time of 2045.28 on 40 procs for 154348 steps with 522 atoms, finish time Sun Nov 27 06:07:39 2022


Pair  time (%) = 0.353062 (0.0172622)
Neigh time (%) = 0.132714 (0.00648877)
Comm  time (%) = 1.09419 (0.0534983)
Outpt time (%) = 0.000358377 (1.75221e-05)
Other time (%) = 2043.7 (99.9227)

Nlocal:    13.05 ave 195 max 0 min
Histogram: 36 0 1 1 0 0 0 0 0 2
Nghost:    6.525 ave 91 max 0 min
Histogram: 36 0 0 0 1 1 0 0 1 1
Neighs:    4.175 ave 67 max 0 min
Histogram: 36 0 1 1 0 0 0 0 1 1

Total # of neighbors = 167
Ave neighs/atom = 0.319923
Neighbor list builds = 412
Dangerous builds = 0
Setting up run at Sun Nov 27 06:07:39 2022

Memory usage per processor = 1083.01 Mbytes
    Step    Atoms         KinEng            CPU 
 1852178      522   0.0025925524              0 
 2006526      522   0.0019760203      2033.9998 
Loop time of 2034 on 40 procs for 154348 steps with 522 atoms, finish time Sun Nov 27 06:41:33 2022


Pair  time (%) = 0.354277 (0.0174178)
Neigh time (%) = 0.132661 (0.00652218)
Comm  time (%) = 1.08072 (0.0531326)
Outpt time (%) = 0.000675128 (3.31922e-05)
Other time (%) = 2032.43 (99.9229)

Nlocal:    13.05 ave 196 max 0 min
Histogram: 36 0 1 1 0 0 0 0 0 2
Nghost:    6.6 ave 89 max 0 min
Histogram: 36 0 0 0 0 2 0 0 1 1
Neighs:    4.225 ave 68 max 0 min
Histogram: 36 0 1 1 0 0 0 0 1 1

Total # of neighbors = 169
Ave neighs/atom = 0.323755
Neighbor list builds = 412
Dangerous builds = 0
Setting up run at Sun Nov 27 06:41:33 2022

Memory usage per processor = 1083.01 Mbytes
    Step    Atoms         KinEng            CPU 
 2006526      522   0.0019760203              0 
 2160874      522   0.0021410101      2044.9971 
Loop time of 2045 on 40 procs for 154348 steps with 522 atoms, finish time Sun Nov 27 07:15:38 2022


Pair  time (%) = 0.353565 (0.0172893)
Neigh time (%) = 0.132494 (0.00647892)
Comm  time (%) = 1.21002 (0.0591695)
Outpt time (%) = 0.000451492 (2.20779e-05)
Other time (%) = 2043.3 (99.917)

Nlocal:    13.05 ave 194 max 0 min
Histogram: 36 0 1 1 0 0 0 0 0 2
Nghost:    6.45 ave 86 max 0 min
Histogram: 36 0 0 0 1 0 1 0 1 1
Neighs:    4.25 ave 71 max 0 min
Histogram: 36 0 1 1 0 0 0 1 0 1

Total # of neighbors = 170
Ave neighs/atom = 0.32567
Neighbor list builds = 412
Dangerous builds = 0
Setting up run at Sun Nov 27 07:15:38 2022

Memory usage per processor = 1083.01 Mbytes
    Step    Atoms         KinEng            CPU 
 2160874      522   0.0021410101              0 
 2315222      522   0.0025181732      2033.0935 
Loop time of 2033.09 on 40 procs for 154348 steps with 522 atoms, finish time Sun Nov 27 07:49:31 2022


Pair  time (%) = 0.351181 (0.0172733)
Neigh time (%) = 0.132331 (0.00650887)
Comm  time (%) = 1.17569 (0.0578278)
Outpt time (%) = 0.000709676 (3.49062e-05)
Other time (%) = 2031.43 (99.9184)

Nlocal:    13.05 ave 196 max 0 min
Histogram: 36 0 2 0 0 0 0 0 0 2
Nghost:    6.5 ave 81 max 0 min
Histogram: 36 0 0 0 1 0 0 1 0 2
Neighs:    4.1 ave 76 max 0 min
Histogram: 36 0 2 0 0 0 1 0 0 1

Total # of neighbors = 164
Ave neighs/atom = 0.314176
Neighbor list builds = 412
Dangerous builds = 0
Setting up run at Sun Nov 27 07:49:31 2022

Memory usage per processor = 1083.01 Mbytes
    Step    Atoms         KinEng            CPU 
 2315222      522   0.0025181732              0 
 2469570      522   0.0034085306      2048.3425 
Loop time of 2048.34 on 40 procs for 154348 steps with 522 atoms, finish time Sun Nov 27 08:23:40 2022


Pair  time (%) = 0.352494 (0.0172088)
Neigh time (%) = 0.132887 (0.00648755)
Comm  time (%) = 1.1182 (0.0545905)
Outpt time (%) = 0.000521155 (2.54427e-05)
Other time (%) = 2046.74 (99.9217)

Nlocal:    13.05 ave 195 max 0 min
Histogram: 36 0 2 0 0 0 0 0 0 2
Nghost:    6.6 ave 83 max 0 min
Histogram: 36 0 0 0 1 0 0 1 0 2
Neighs:    4.35 ave 82 max 0 min
Histogram: 36 0 2 0 0 0 1 0 0 1

Total # of neighbors = 174
Ave neighs/atom = 0.333333
Neighbor list builds = 412
Dangerous builds = 0
Setting up run at Sun Nov 27 08:23:40 2022

Memory usage per processor = 1083.01 Mbytes
    Step    Atoms         KinEng            CPU 
 2469570      522   0.0034085306              0 
 2623918      522   0.0037270816      2046.3352 
Loop time of 2046.34 on 40 procs for 154348 steps with 522 atoms, finish time Sun Nov 27 08:57:46 2022


Pair  time (%) = 0.3471 (0.016962)
Neigh time (%) = 0.132075 (0.00645423)
Comm  time (%) = 1.07211 (0.0523915)
Outpt time (%) = 0.000823403 (4.02379e-05)
Other time (%) = 2044.78 (99.9242)

Nlocal:    13.05 ave 194 max 0 min
Histogram: 36 0 2 0 0 0 0 0 0 2
Nghost:    6.875 ave 84 max 0 min
Histogram: 36 0 0 0 1 0 0 0 1 2
Neighs:    4.375 ave 77 max 0 min
Histogram: 36 0 2 0 0 0 0 1 0 1

Total # of neighbors = 175
Ave neighs/atom = 0.335249
Neighbor list builds = 412
Dangerous builds = 0
Setting up run at Sun Nov 27 08:57:46 2022

Memory usage per processor = 1083.01 Mbytes
    Step    Atoms         KinEng            CPU 
 2623918      522   0.0037270816              0 
 2778266      522    0.003935055      2056.8486 
Loop time of 2056.85 on 40 procs for 154348 steps with 522 atoms, finish time Sun Nov 27 09:32:03 2022


Pair  time (%) = 0.348065 (0.0169222)
Neigh time (%) = 0.131788 (0.0064073)
Comm  time (%) = 1.13077 (0.0549759)
Outpt time (%) = 0.000448034 (2.17826e-05)
Other time (%) = 2055.24 (99.9217)

Nlocal:    13.05 ave 197 max 0 min
Histogram: 36 0 2 0 0 0 0 0 1 1
Nghost:    6.825 ave 86 max 0 min
Histogram: 36 0 0 0 1 0 0 1 1 1
Neighs:    4.2 ave 73 max 0 min
Histogram: 36 1 1 0 0 0 0 0 1 1

Total # of neighbors = 168
Ave neighs/atom = 0.321839
Neighbor list builds = 412
Dangerous builds = 0
Setting up run at Sun Nov 27 09:32:03 2022

Memory usage per processor = 1083.01 Mbytes
    Step    Atoms         KinEng            CPU 
 2778266      522    0.003935055              0 
 2932614      522   0.0041213664      2044.1886 
Loop time of 2044.19 on 40 procs for 154348 steps with 522 atoms, finish time Sun Nov 27 10:06:07 2022


Pair  time (%) = 0.347454 (0.0169972)
Neigh time (%) = 0.131867 (0.00645082)
Comm  time (%) = 1.07633 (0.0526532)
Outpt time (%) = 0.000811262 (3.96863e-05)
Other time (%) = 2042.63 (99.9239)

Nlocal:    13.05 ave 197 max 0 min
Histogram: 36 0 2 0 0 0 0 0 1 1
Nghost:    6.875 ave 88 max 0 min
Histogram: 36 0 0 0 1 0 0 1 1 1
Neighs:    3.975 ave 67 max 0 min
Histogram: 36 0 1 1 0 0 0 0 1 1

Total # of neighbors = 159
Ave neighs/atom = 0.304598
Neighbor list builds = 412
Dangerous builds = 0
Setting up run at Sun Nov 27 10:06:07 2022

Memory usage per processor = 1083.01 Mbytes
    Step    Atoms         KinEng            CPU 
 2932614      522   0.0041213664              0 
 3086962      522   0.0045537409      2053.3563 
Loop time of 2053.36 on 40 procs for 154348 steps with 522 atoms, finish time Sun Nov 27 10:40:21 2022


Pair  time (%) = 0.346774 (0.0168882)
Neigh time (%) = 0.131579 (0.00640798)
Comm  time (%) = 1.03123 (0.0502215)
Outpt time (%) = 0.000553074 (2.69351e-05)
Other time (%) = 2051.85 (99.9265)

Nlocal:    13.05 ave 191 max 0 min
Histogram: 36 0 2 0 0 0 0 0 0 2
Nghost:    6.85 ave 84 max 0 min
Histogram: 36 0 0 0 1 0 0 0 1 2
Neighs:    4.05 ave 73 max 0 min
Histogram: 36 1 1 0 0 0 0 1 0 1

Total # of neighbors = 162
Ave neighs/atom = 0.310345
Neighbor list builds = 412
Dangerous builds = 0
Setting up run at Sun Nov 27 10:40:21 2022

Memory usage per processor = 1083.01 Mbytes
    Step    Atoms         KinEng            CPU 
 3086962      522   0.0045537409              0 
 3241310      522   0.0049653211      2058.6601 
Loop time of 2058.66 on 40 procs for 154348 steps with 522 atoms, finish time Sun Nov 27 11:14:39 2022


Pair  time (%) = 0.343888 (0.0167045)
Neigh time (%) = 0.131986 (0.00641126)
Comm  time (%) = 1.10388 (0.0536211)
Outpt time (%) = 0.000744109 (3.61453e-05)
Other time (%) = 2057.08 (99.9232)

Nlocal:    13.05 ave 186 max 0 min
Histogram: 36 0 1 1 0 0 0 0 0 2
Nghost:    6.775 ave 84 max 0 min
Histogram: 36 0 0 0 1 0 0 1 0 2
Neighs:    3.875 ave 69 max 0 min
Histogram: 36 1 1 0 0 0 0 0 1 1

Total # of neighbors = 155
Ave neighs/atom = 0.296935
Neighbor list builds = 412
Dangerous builds = 0
Setting up run at Sun Nov 27 11:14:40 2022

Memory usage per processor = 1083.01 Mbytes
    Step    Atoms         KinEng            CPU 
 3241310      522   0.0049653211              0 
 3395658      522   0.0054761045      2051.6051 
Loop time of 2051.61 on 40 procs for 154348 steps with 522 atoms, finish time Sun Nov 27 11:48:51 2022


Pair  time (%) = 0.347269 (0.0169267)
Neigh time (%) = 0.131673 (0.00641806)
Comm  time (%) = 1.05474 (0.0514107)
Outpt time (%) = 0.000807293 (3.93494e-05)
Other time (%) = 2050.07 (99.9252)

Nlocal:    13.05 ave 184 max 0 min
Histogram: 36 0 0 2 0 0 0 0 0 2
Nghost:    6.625 ave 86 max 0 min
Histogram: 36 0 0 0 1 0 0 1 0 2
Neighs:    4.075 ave 74 max 0 min
Histogram: 36 0 2 0 0 0 0 1 0 1

Total # of neighbors = 163
Ave neighs/atom = 0.312261
Neighbor list builds = 412
Dangerous builds = 0
Setting up run at Sun Nov 27 11:48:51 2022

Memory usage per processor = 1083.01 Mbytes
    Step    Atoms         KinEng            CPU 
 3395658      522   0.0054761045              0 
 3550006      522   0.0058550518      2052.2288 
Loop time of 2052.23 on 40 procs for 154348 steps with 522 atoms, finish time Sun Nov 27 12:23:04 2022


Pair  time (%) = 0.344527 (0.0167879)
Neigh time (%) = 0.132112 (0.00643747)
Comm  time (%) = 1.18235 (0.0576131)
Outpt time (%) = 0.000467304 (2.27705e-05)
Other time (%) = 2050.57 (99.9191)

Nlocal:    13.05 ave 185 max 0 min
Histogram: 36 0 2 0 0 0 0 0 0 2
Nghost:    6.425 ave 79 max 0 min
Histogram: 36 0 0 0 1 0 0 1 0 2
Neighs:    4.075 ave 74 max 0 min
Histogram: 36 1 1 0 0 0 0 1 0 1

Total # of neighbors = 163
Ave neighs/atom = 0.312261
Neighbor list builds = 412
Dangerous builds = 0
Setting up run at Sun Nov 27 12:23:04 2022

Memory usage per processor = 1083.01 Mbytes
    Step    Atoms         KinEng            CPU 
 3550006      522   0.0058550518              0 
 3704354      522   0.0067652056      2061.3337 
Loop time of 2061.33 on 40 procs for 154348 steps with 522 atoms, finish time Sun Nov 27 12:57:25 2022


Pair  time (%) = 0.347117 (0.0168394)
Neigh time (%) = 0.132652 (0.00643524)
Comm  time (%) = 1.13124 (0.0548791)
Outpt time (%) = 0.000881606 (4.27687e-05)
Other time (%) = 2059.72 (99.9218)

Nlocal:    13.05 ave 184 max 0 min
Histogram: 35 1 1 1 0 0 0 0 0 2
Nghost:    6.275 ave 78 max 0 min
Histogram: 36 0 0 0 0 1 0 1 0 2
Neighs:    3.975 ave 73 max 0 min
Histogram: 36 1 1 0 0 0 0 0 1 1

Total # of neighbors = 159
Ave neighs/atom = 0.304598
Neighbor list builds = 412
Dangerous builds = 0
Setting up run at Sun Nov 27 12:57:25 2022

Memory usage per processor = 1083.01 Mbytes
    Step    Atoms         KinEng            CPU 
 3704354      522   0.0067652056              0 
 3858702      521   0.0071897967      2058.8166 
Loop time of 2058.82 on 40 procs for 154348 steps with 521 atoms, finish time Sun Nov 27 13:31:44 2022


Pair  time (%) = 0.343219 (0.0166707)
Neigh time (%) = 0.132564 (0.00643885)
Comm  time (%) = 1.07199 (0.0520681)
Outpt time (%) = 0.000530811 (2.57823e-05)
Other time (%) = 2057.27 (99.9248)

Nlocal:    13.025 ave 182 max 0 min
Histogram: 36 0 1 1 0 0 0 0 0 2
Nghost:    6.275 ave 80 max 0 min
Histogram: 36 0 0 0 1 0 0 1 0 2
Neighs:    4.225 ave 77 max 0 min
Histogram: 36 2 0 0 0 0 0 0 1 1

Total # of neighbors = 169
Ave neighs/atom = 0.324376
Neighbor list builds = 412
Dangerous builds = 0
Setting up run at Sun Nov 27 13:31:44 2022

Memory usage per processor = 1083.01 Mbytes
    Step    Atoms         KinEng            CPU 
 3858702      521   0.0071897967              0 
 4013050      521   0.0072944224        2059.75 
Loop time of 2059.75 on 40 procs for 154348 steps with 521 atoms, finish time Sun Nov 27 14:06:04 2022


Pair  time (%) = 0.343774 (0.0166901)
Neigh time (%) = 0.132009 (0.00640896)
Comm  time (%) = 1.1339 (0.0550503)
Outpt time (%) = 0.000672695 (3.26591e-05)
Other time (%) = 2058.14 (99.9218)

Nlocal:    13.025 ave 185 max 0 min
Histogram: 36 0 1 1 0 0 0 0 0 2
Nghost:    6.525 ave 76 max 0 min
Histogram: 36 0 0 0 0 1 0 0 1 2
Neighs:    4.175 ave 78 max 0 min
Histogram: 36 2 0 0 0 0 0 0 1 1

Total # of neighbors = 167
Ave neighs/atom = 0.320537
Neighbor list builds = 412
Dangerous builds = 0
Setting up run at Sun Nov 27 14:06:04 2022

Memory usage per processor = 1083.01 Mbytes
    Step    Atoms         KinEng            CPU 
 4013050      521   0.0072944224              0 
 4167398      521   0.0080872253      2048.8698 
Loop time of 2048.87 on 40 procs for 154348 steps with 521 atoms, finish time Sun Nov 27 14:40:13 2022


Pair  time (%) = 0.341474 (0.0166665)
Neigh time (%) = 0.131884 (0.00643689)
Comm  time (%) = 1.16043 (0.0566376)
Outpt time (%) = 0.000604893 (2.95233e-05)
Other time (%) = 2047.24 (99.9202)

Nlocal:    13.025 ave 182 max 0 min
Histogram: 36 0 2 0 0 0 0 0 0 2
Nghost:    6.4 ave 75 max 0 min
Histogram: 36 0 0 0 0 1 0 0 1 2
Neighs:    4.4 ave 84 max 0 min
Histogram: 36 1 1 0 0 0 0 1 0 1

Total # of neighbors = 176
Ave neighs/atom = 0.337812
Neighbor list builds = 412
Dangerous builds = 0
Setting up run at Sun Nov 27 14:40:13 2022

Memory usage per processor = 1083.01 Mbytes
    Step    Atoms         KinEng            CPU 
 4167398      521   0.0080872253              0 
 4321746      521   0.0084565089       2063.068 
Loop time of 2063.07 on 40 procs for 154348 steps with 521 atoms, finish time Sun Nov 27 15:14:36 2022


Pair  time (%) = 0.346662 (0.0168032)
Neigh time (%) = 0.13226 (0.00641084)
Comm  time (%) = 1.16936 (0.0566805)
Outpt time (%) = 0.000872868 (4.23092e-05)
Other time (%) = 2061.42 (99.9201)

Nlocal:    13.025 ave 180 max 0 min
Histogram: 35 1 1 1 0 0 0 0 0 2
Nghost:    6.425 ave 75 max 0 min
Histogram: 36 0 0 0 0 0 1 0 1 2
Neighs:    4.375 ave 79 max 0 min
Histogram: 36 1 1 0 0 0 0 0 1 1

Total # of neighbors = 175
Ave neighs/atom = 0.335893
Neighbor list builds = 412
Dangerous builds = 0
Setting up run at Sun Nov 27 15:14:36 2022

Memory usage per processor = 1083.01 Mbytes
    Step    Atoms         KinEng            CPU 
 4321746      521   0.0084565089              0 
 4476094      520   0.0091272322      2054.5165 
Loop time of 2054.52 on 40 procs for 154348 steps with 520 atoms, finish time Sun Nov 27 15:48:51 2022


Pair  time (%) = 0.342403 (0.0166659)
Neigh time (%) = 0.132632 (0.00645562)
Comm  time (%) = 1.11516 (0.0542785)
Outpt time (%) = 0.000529694 (2.57819e-05)
Other time (%) = 2052.93 (99.9226)

Nlocal:    13 ave 178 max 0 min
Histogram: 35 1 0 2 0 0 0 0 0 2
Nghost:    6.45 ave 76 max 0 min
Histogram: 36 0 0 0 0 1 0 1 0 2
Neighs:    4.15 ave 80 max 0 min
Histogram: 36 1 1 0 0 0 0 1 0 1

Total # of neighbors = 166
Ave neighs/atom = 0.319231
Neighbor list builds = 412
Dangerous builds = 0
Setting up run at Sun Nov 27 15:48:51 2022

Memory usage per processor = 1083.01 Mbytes
    Step    Atoms         KinEng            CPU 
 4476094      520   0.0091272322              0 
 4630442      520    0.009557098      2061.3386 
Loop time of 2061.34 on 40 procs for 154348 steps with 520 atoms, finish time Sun Nov 27 16:23:12 2022


Pair  time (%) = 0.343678 (0.0166726)
Neigh time (%) = 0.132661 (0.00643569)
Comm  time (%) = 1.16829 (0.0566765)
Outpt time (%) = 0.000893375 (4.33395e-05)
Other time (%) = 2059.69 (99.9202)

Nlocal:    13 ave 173 max 0 min
Histogram: 35 1 1 1 0 0 0 0 0 2
Nghost:    6.375 ave 77 max 0 min
Histogram: 36 0 0 0 0 0 2 0 0 2
Neighs:    4.325 ave 79 max 0 min
Histogram: 36 1 1 0 0 0 0 1 0 1

Total # of neighbors = 173
Ave neighs/atom = 0.332692
Neighbor list builds = 412
Dangerous builds = 0
Setting up run at Sun Nov 27 16:23:12 2022

Memory usage per processor = 1083.01 Mbytes
    Step    Atoms         KinEng            CPU 
 4630442      520    0.009557098              0 
 4784790      520   0.0098568852      2052.8732 
Loop time of 2052.88 on 40 procs for 154348 steps with 520 atoms, finish time Sun Nov 27 16:57:25 2022


Pair  time (%) = 0.342323 (0.0166752)
Neigh time (%) = 0.132231 (0.00644121)
Comm  time (%) = 1.51176 (0.0736407)
Outpt time (%) = 0.000604312 (2.94372e-05)
Other time (%) = 2050.9 (99.9032)

Nlocal:    13 ave 174 max 0 min
Histogram: 36 0 1 1 0 0 0 0 0 2
Nghost:    6.15 ave 71 max 0 min
Histogram: 36 0 0 0 0 0 1 1 0 2
Neighs:    4.525 ave 83 max 0 min
Histogram: 37 0 1 0 0 0 0 0 1 1

Total # of neighbors = 181
Ave neighs/atom = 0.348077
Neighbor list builds = 412
Dangerous builds = 0
Setting up run at Sun Nov 27 16:57:25 2022

Memory usage per processor = 1083.01 Mbytes
    Step    Atoms         KinEng            CPU 
 4784790      520   0.0098568852              0 
 4939138      520    0.010541578      2065.3251 
Loop time of 2065.33 on 40 procs for 154348 steps with 520 atoms, finish time Sun Nov 27 17:31:50 2022


Pair  time (%) = 0.343269 (0.0166206)
Neigh time (%) = 0.13239 (0.00641012)
Comm  time (%) = 1.38213 (0.0669205)
Outpt time (%) = 0.000887983 (4.29948e-05)
Other time (%) = 2063.47 (99.91)

Nlocal:    13 ave 173 max 0 min
Histogram: 35 1 1 1 0 0 0 0 0 2
Nghost:    6.125 ave 73 max 0 min
Histogram: 36 0 0 0 0 0 1 1 0 2
Neighs:    4.575 ave 84 max 0 min
Histogram: 36 1 1 0 0 0 0 0 1 1

Total # of neighbors = 183
Ave neighs/atom = 0.351923
Neighbor list builds = 412
Dangerous builds = 0
Setting up run at Sun Nov 27 17:31:50 2022

Memory usage per processor = 1083.01 Mbytes
    Step    Atoms         KinEng            CPU 
 4939138      520    0.010541578              0 
 5093486      520    0.012011096      2068.9314 
Loop time of 2068.94 on 40 procs for 154348 steps with 520 atoms, finish time Sun Nov 27 18:06:19 2022


Pair  time (%) = 0.342288 (0.0165441)
Neigh time (%) = 0.133027 (0.00642972)
Comm  time (%) = 1.10079 (0.0532055)
Outpt time (%) = 0.0117052 (0.00056576)
Other time (%) = 2067.35 (99.9233)

Nlocal:    13 ave 174 max 0 min
Histogram: 34 2 0 2 0 0 0 0 0 2
Nghost:    5.9 ave 73 max 0 min
Histogram: 36 0 0 0 0 0 2 0 1 1
Neighs:    4.825 ave 83 max 0 min
Histogram: 36 1 1 0 0 0 0 0 1 1

Total # of neighbors = 193
Ave neighs/atom = 0.371154
Neighbor list builds = 412
Dangerous builds = 0
Setting up run at Sun Nov 27 18:06:20 2022

Memory usage per processor = 1083.01 Mbytes
    Step    Atoms         KinEng            CPU 
 5093486      520    0.012011096              0 
 5247834      520    0.011783775      2070.8245 
Loop time of 2070.82 on 40 procs for 154348 steps with 520 atoms, finish time Sun Nov 27 18:40:50 2022


Pair  time (%) = 0.345665 (0.0166921)
Neigh time (%) = 0.133107 (0.00642774)
Comm  time (%) = 1.29099 (0.0623417)
Outpt time (%) = 0.000913102 (4.40936e-05)
Other time (%) = 2069.05 (99.9145)

Nlocal:    13 ave 175 max 0 min
Histogram: 34 2 2 0 0 0 0 0 0 2
Nghost:    5.9 ave 70 max 0 min
Histogram: 36 0 0 0 0 0 1 1 1 1
Neighs:    4.9 ave 88 max 0 min
Histogram: 37 0 1 0 0 0 0 0 1 1

Total # of neighbors = 196
Ave neighs/atom = 0.376923
Neighbor list builds = 412
Dangerous builds = 0
Setting up run at Sun Nov 27 18:40:50 2022

Memory usage per processor = 1083.01 Mbytes
    Step    Atoms         KinEng            CPU 
 5247834      520    0.011783775              0 
 5402182      520    0.012393053      2056.5267 
Loop time of 2056.53 on 40 procs for 154348 steps with 520 atoms, finish time Sun Nov 27 19:15:07 2022


Pair  time (%) = 0.344379 (0.0167456)
Neigh time (%) = 0.133282 (0.00648094)
Comm  time (%) = 1.29316 (0.0628807)
Outpt time (%) = 0.000520794 (2.53239e-05)
Other time (%) = 2054.76 (99.9139)

Nlocal:    13 ave 175 max 0 min
Histogram: 35 1 1 1 0 0 0 0 0 2
Nghost:    5.875 ave 70 max 0 min
Histogram: 36 0 0 0 0 0 0 2 1 1
Neighs:    4.875 ave 89 max 0 min
Histogram: 37 0 1 0 0 0 0 0 1 1

Total # of neighbors = 195
Ave neighs/atom = 0.375
Neighbor list builds = 413
Dangerous builds = 0
Setting up run at Sun Nov 27 19:15:07 2022

Memory usage per processor = 1083.01 Mbytes
    Step    Atoms         KinEng            CPU 
 5402182      520    0.012393053              0 
 5556530      520    0.014281011      2102.7957 
Loop time of 2102.8 on 40 procs for 154348 steps with 520 atoms, finish time Sun Nov 27 19:50:10 2022


Pair  time (%) = 0.344445 (0.0163803)
Neigh time (%) = 0.133784 (0.00636218)
Comm  time (%) = 1.50433 (0.0715395)
Outpt time (%) = 0.000895061 (4.25653e-05)
Other time (%) = 2100.81 (99.9057)

Nlocal:    13 ave 175 max 0 min
Histogram: 33 3 2 0 0 0 0 0 0 2
Nghost:    5.75 ave 69 max 0 min
Histogram: 36 0 0 0 0 0 0 2 1 1
Neighs:    4.75 ave 83 max 0 min
Histogram: 36 1 1 0 0 0 0 0 0 2

Total # of neighbors = 190
Ave neighs/atom = 0.365385
Neighbor list builds = 413
Dangerous builds = 0
Setting up run at Sun Nov 27 19:50:10 2022

Memory usage per processor = 1083.01 Mbytes
    Step    Atoms         KinEng            CPU 
 5556530      520    0.014281011              0 
 5710878      520    0.014026608      2073.9937 
Loop time of 2073.99 on 40 procs for 154348 steps with 520 atoms, finish time Sun Nov 27 20:24:44 2022


Pair  time (%) = 0.341192 (0.016451)
Neigh time (%) = 0.133579 (0.00644068)
Comm  time (%) = 1.50419 (0.0725265)
Outpt time (%) = 0.000671606 (3.23822e-05)
Other time (%) = 2072.01 (99.9045)

Nlocal:    13 ave 172 max 0 min
Histogram: 34 2 1 1 0 0 0 0 0 2
Nghost:    5.825 ave 67 max 0 min
Histogram: 36 0 0 0 0 0 0 2 0 2
Neighs:    4.5 ave 81 max 0 min
Histogram: 36 1 1 0 0 0 0 0 1 1

Total # of neighbors = 180
Ave neighs/atom = 0.346154
Neighbor list builds = 412
Dangerous builds = 0
Setting up run at Sun Nov 27 20:24:44 2022

Memory usage per processor = 1083.01 Mbytes
    Step    Atoms         KinEng            CPU 
 5710878      520    0.014026608              0 
 5865226      520    0.014929803      2081.6105 
Loop time of 2081.61 on 40 procs for 154348 steps with 520 atoms, finish time Sun Nov 27 20:59:26 2022


Pair  time (%) = 0.340112 (0.0163389)
Neigh time (%) = 0.133248 (0.00640118)
Comm  time (%) = 1.59761 (0.0767485)
Outpt time (%) = 0.000894102 (4.29524e-05)
Other time (%) = 2079.54 (99.9005)

Nlocal:    13 ave 171 max 0 min
Histogram: 34 2 1 1 0 0 0 0 0 2
Nghost:    5.8 ave 67 max 0 min
Histogram: 36 0 0 0 0 0 1 1 0 2
Neighs:    4.175 ave 76 max 0 min
Histogram: 37 1 0 0 0 0 0 0 0 2

Total # of neighbors = 167
Ave neighs/atom = 0.321154
Neighbor list builds = 412
Dangerous builds = 0
Setting up run at Sun Nov 27 20:59:26 2022

Memory usage per processor = 1083.01 Mbytes
    Step    Atoms         KinEng            CPU 
 5865226      520    0.014929803              0 
 6019574      520    0.015187714      2073.5149 
Loop time of 2073.52 on 40 procs for 154348 steps with 520 atoms, finish time Sun Nov 27 21:33:59 2022


Pair  time (%) = 0.339395 (0.0163681)
Neigh time (%) = 0.133002 (0.00641433)
Comm  time (%) = 1.50086 (0.0723825)
Outpt time (%) = 0.000962968 (4.64413e-05)
Other time (%) = 2071.54 (99.9048)

Nlocal:    13 ave 171 max 0 min
Histogram: 34 2 1 1 0 0 0 0 0 2
Nghost:    5.9 ave 67 max 0 min
Histogram: 36 0 0 0 0 0 1 0 1 2
Neighs:    4.125 ave 74 max 0 min
Histogram: 37 1 0 0 0 0 0 0 0 2

Total # of neighbors = 165
Ave neighs/atom = 0.317308
Neighbor list builds = 412
Dangerous builds = 0
Setting up run at Sun Nov 27 21:33:59 2022

Memory usage per processor = 1083.01 Mbytes
    Step    Atoms         KinEng            CPU 
 6019574      520    0.015187714              0 
 6173922      520    0.017001906       2073.004 
Loop time of 2073 on 40 procs for 154348 steps with 520 atoms, finish time Sun Nov 27 22:08:32 2022


Pair  time (%) = 0.339452 (0.0163749)
Neigh time (%) = 0.133375 (0.00643389)
Comm  time (%) = 1.31549 (0.0634583)
Outpt time (%) = 0.000611982 (2.95215e-05)
Other time (%) = 2071.22 (99.9137)

Nlocal:    13 ave 167 max 0 min
Histogram: 34 2 0 2 0 0 0 0 0 2
Nghost:    5.725 ave 65 max 0 min
Histogram: 36 0 0 0 0 0 1 0 1 2
Neighs:    4.05 ave 72 max 0 min
Histogram: 36 2 0 0 0 0 0 0 0 2

Total # of neighbors = 162
Ave neighs/atom = 0.311538
Neighbor list builds = 412
Dangerous builds = 0
Setting up run at Sun Nov 27 22:08:33 2022

Memory usage per processor = 1083.01 Mbytes
    Step    Atoms         KinEng            CPU 
 6173922      520    0.017001906              0 
 6328270      519    0.017017335      2077.9485 
Loop time of 2077.95 on 40 procs for 154348 steps with 519 atoms, finish time Sun Nov 27 22:43:11 2022


Pair  time (%) = 0.338374 (0.0162841)
Neigh time (%) = 0.133161 (0.00640829)
Comm  time (%) = 1.29132 (0.062144)
Outpt time (%) = 0.000859621 (4.13687e-05)
Other time (%) = 2076.18 (99.9151)

Nlocal:    12.975 ave 167 max 0 min
Histogram: 34 2 0 2 0 0 0 0 0 2
Nghost:    5.775 ave 66 max 0 min
Histogram: 36 0 0 0 0 0 1 1 0 2
Neighs:    4.025 ave 72 max 0 min
Histogram: 36 2 0 0 0 0 0 0 0 2

Total # of neighbors = 161
Ave neighs/atom = 0.310212
Neighbor list builds = 412
Dangerous builds = 0
Setting up run at Sun Nov 27 22:43:11 2022

Memory usage per processor = 1083.01 Mbytes
    Step    Atoms         KinEng            CPU 
 6328270      519    0.017017335              0 
 6482618      518    0.017622194      2075.2281 
Loop time of 2075.23 on 40 procs for 154348 steps with 518 atoms, finish time Sun Nov 27 23:17:46 2022


Pair  time (%) = 0.341992 (0.0164797)
Neigh time (%) = 0.133545 (0.00643521)
Comm  time (%) = 1.42797 (0.0688103)
Outpt time (%) = 0.000744814 (3.58907e-05)
Other time (%) = 2073.32 (99.9082)

Nlocal:    12.95 ave 163 max 0 min
Histogram: 33 2 2 1 0 0 0 0 0 2
Nghost:    5.6 ave 66 max 0 min
Histogram: 36 0 0 0 0 0 1 1 0 2
Neighs:    3.975 ave 68 max 0 min
Histogram: 36 2 0 0 0 0 0 0 0 2

Total # of neighbors = 159
Ave neighs/atom = 0.30695
Neighbor list builds = 412
Dangerous builds = 0
Setting up run at Sun Nov 27 23:17:46 2022

Memory usage per processor = 1083.01 Mbytes
    Step    Atoms         KinEng            CPU 
 6482618      518    0.017622194              0 
 6636966      518    0.018125278      2083.6967 
Loop time of 2083.7 on 40 procs for 154348 steps with 518 atoms, finish time Sun Nov 27 23:52:30 2022


Pair  time (%) = 0.340116 (0.0163227)
Neigh time (%) = 0.134724 (0.00646563)
Comm  time (%) = 1.49404 (0.0717012)
Outpt time (%) = 0.00093899 (4.50637e-05)
Other time (%) = 2081.73 (99.9055)

Nlocal:    12.95 ave 163 max 0 min
Histogram: 34 2 1 0 1 0 0 0 0 2
Nghost:    5.575 ave 66 max 0 min
Histogram: 36 0 0 0 0 0 2 0 0 2
Neighs:    3.825 ave 63 max 0 min
Histogram: 36 1 1 0 0 0 0 0 0 2

Total # of neighbors = 153
Ave neighs/atom = 0.295367
Neighbor list builds = 416
Dangerous builds = 0
Setting up run at Sun Nov 27 23:52:30 2022

Memory usage per processor = 1083.01 Mbytes
    Step    Atoms         KinEng            CPU 
 6636966      518    0.018125278              0 
 6791314      518    0.018718385      2078.0346 
Loop time of 2078.04 on 40 procs for 154348 steps with 518 atoms, finish time Mon Nov 28 00:27:08 2022


Pair  time (%) = 0.340397 (0.0163807)
Neigh time (%) = 0.141285 (0.00679899)
Comm  time (%) = 1.45278 (0.0699112)
Outpt time (%) = 0.000695319 (3.34604e-05)
Other time (%) = 2076.1 (99.9069)

Nlocal:    12.95 ave 162 max 0 min
Histogram: 33 2 1 2 0 0 0 0 0 2
Nghost:    5.55 ave 65 max 0 min
Histogram: 36 0 0 0 0 0 2 0 0 2
Neighs:    3.65 ave 64 max 0 min
Histogram: 36 1 1 0 0 0 0 0 1 1

Total # of neighbors = 146
Ave neighs/atom = 0.281853
Neighbor list builds = 434
Dangerous builds = 0
Setting up run at Mon Nov 28 00:27:08 2022

Memory usage per processor = 1083.01 Mbytes
    Step    Atoms         KinEng            CPU 
 6791314      518    0.018718385              0 
 6945662      517    0.019767438      2074.6107 
Loop time of 2074.61 on 40 procs for 154348 steps with 517 atoms, finish time Mon Nov 28 01:01:43 2022


Pair  time (%) = 0.336387 (0.0162145)
Neigh time (%) = 0.134622 (0.00648901)
Comm  time (%) = 1.42105 (0.0684974)
Outpt time (%) = 0.0191414 (0.000922648)
Other time (%) = 2072.7 (99.9079)

Nlocal:    12.925 ave 160 max 0 min
Histogram: 32 3 2 1 0 0 0 0 0 2
Nghost:    5.625 ave 67 max 0 min
Histogram: 36 0 0 0 0 0 2 0 1 1
Neighs:    3.55 ave 61 max 0 min
Histogram: 36 2 0 0 0 0 0 0 0 2

Total # of neighbors = 142
Ave neighs/atom = 0.274662
Neighbor list builds = 414
Dangerous builds = 0
Setting up run at Mon Nov 28 01:01:43 2022

Memory usage per processor = 1083.01 Mbytes
    Step    Atoms         KinEng            CPU 
 6945662      517    0.019767438              0 
 7100010      517     0.02187483      2073.0059 
Loop time of 2073.01 on 40 procs for 154348 steps with 517 atoms, finish time Mon Nov 28 01:36:16 2022


Pair  time (%) = 0.336224 (0.0162191)
Neigh time (%) = 0.13368 (0.00644858)
Comm  time (%) = 1.40046 (0.0675571)
Outpt time (%) = 0.000609522 (2.94028e-05)
Other time (%) = 2071.14 (99.9097)

Nlocal:    12.925 ave 157 max 0 min
Histogram: 32 3 1 2 0 0 0 0 0 2
Nghost:    5.625 ave 69 max 0 min
Histogram: 36 0 0 0 0 1 1 0 1 1
Neighs:    3.325 ave 61 max 0 min
Histogram: 36 1 1 0 0 0 0 1 0 1

Total # of neighbors = 133
Ave neighs/atom = 0.257253
Neighbor list builds = 412
Dangerous builds = 0
Setting up run at Mon Nov 28 01:36:16 2022

Memory usage per processor = 1083.01 Mbytes
    Step    Atoms         KinEng            CPU 
 7100010      517     0.02187483              0 
 7254358      517    0.021375808      2067.7375 
Loop time of 2067.74 on 40 procs for 154348 steps with 517 atoms, finish time Mon Nov 28 02:10:44 2022


Pair  time (%) = 0.336937 (0.016295)
Neigh time (%) = 0.133057 (0.00643489)
Comm  time (%) = 1.55507 (0.0752063)
Outpt time (%) = 0.00115997 (5.60987e-05)
Other time (%) = 2065.71 (99.902)

Nlocal:    12.925 ave 158 max 0 min
Histogram: 33 3 0 2 0 0 0 0 0 2
Nghost:    5.775 ave 66 max 0 min
Histogram: 36 0 0 0 0 0 1 1 0 2
Neighs:    3.45 ave 62 max 0 min
Histogram: 36 1 1 0 0 0 0 1 0 1

Total # of neighbors = 138
Ave neighs/atom = 0.266925
Neighbor list builds = 412
Dangerous builds = 0
Setting up run at Mon Nov 28 02:10:44 2022

Memory usage per processor = 1083.01 Mbytes
    Step    Atoms         KinEng            CPU 
 7254358      517    0.021375808              0 
 7408706      517    0.022322972      2078.3976 
Loop time of 2078.41 on 40 procs for 154348 steps with 517 atoms, finish time Mon Nov 28 02:45:22 2022


Pair  time (%) = 0.335788 (0.016156)
Neigh time (%) = 0.133753 (0.00643536)
Comm  time (%) = 1.42383 (0.0685057)
Outpt time (%) = 0.0131502 (0.000632704)
Other time (%) = 2076.5 (99.9083)

Nlocal:    12.925 ave 158 max 0 min
Histogram: 33 2 2 0 1 0 0 0 0 2
Nghost:    5.675 ave 66 max 0 min
Histogram: 35 1 0 0 0 0 2 0 1 1
Neighs:    3.3 ave 61 max 0 min
Histogram: 36 2 0 0 0 0 0 1 0 1

Total # of neighbors = 132
Ave neighs/atom = 0.255319
Neighbor list builds = 412
Dangerous builds = 0
Setting up run at Mon Nov 28 02:45:22 2022

Memory usage per processor = 1083.01 Mbytes
    Step    Atoms         KinEng            CPU 
 7408706      517    0.022322972              0 
 7563054      517    0.022893965      2084.2532 
Loop time of 2084.25 on 40 procs for 154348 steps with 517 atoms, finish time Mon Nov 28 03:20:07 2022


Pair  time (%) = 0.33442 (0.0160451)
Neigh time (%) = 0.133853 (0.00642209)
Comm  time (%) = 1.20465 (0.0577978)
Outpt time (%) = 0.00102047 (4.89612e-05)
Other time (%) = 2082.58 (99.9197)

Nlocal:    12.925 ave 158 max 0 min
Histogram: 33 1 3 1 0 0 0 0 0 2
Nghost:    5.475 ave 66 max 0 min
Histogram: 36 0 0 0 0 0 2 0 0 2
Neighs:    3.725 ave 62 max 0 min
Histogram: 35 1 2 0 0 0 0 0 1 1

Total # of neighbors = 149
Ave neighs/atom = 0.288201
Neighbor list builds = 412
Dangerous builds = 0
Setting up run at Mon Nov 28 03:20:07 2022

Memory usage per processor = 1083.01 Mbytes
    Step    Atoms         KinEng            CPU 
 7563054      517    0.022893965              0 
 7717402      517    0.023782951      2105.7897 
Loop time of 2105.79 on 40 procs for 154348 steps with 517 atoms, finish time Mon Nov 28 03:55:12 2022


Pair  time (%) = 0.335541 (0.0159342)
Neigh time (%) = 0.141637 (0.00672607)
Comm  time (%) = 1.33202 (0.063255)
Outpt time (%) = 0.000637729 (3.02845e-05)
Other time (%) = 2103.98 (99.9141)

Nlocal:    12.925 ave 158 max 0 min
Histogram: 34 0 2 1 1 0 0 0 0 2
Nghost:    5.45 ave 66 max 0 min
Histogram: 36 0 0 0 0 1 0 1 0 2
Neighs:    3.675 ave 62 max 0 min
Histogram: 36 1 1 0 0 0 0 0 1 1

Total # of neighbors = 147
Ave neighs/atom = 0.284333
Neighbor list builds = 434
Dangerous builds = 0
Setting up run at Mon Nov 28 03:55:12 2022

Memory usage per processor = 1083.01 Mbytes
    Step    Atoms         KinEng            CPU 
 7717402      517    0.023782951              0 
 7871750      517    0.024640571      2127.4245 
Loop time of 2127.42 on 40 procs for 154348 steps with 517 atoms, finish time Mon Nov 28 04:30:40 2022


Pair  time (%) = 0.334893 (0.0157417)
Neigh time (%) = 0.142442 (0.00669551)
Comm  time (%) = 1.35657 (0.0637659)
Outpt time (%) = 0.000643509 (3.02483e-05)
Other time (%) = 2125.59 (99.9138)

Nlocal:    12.925 ave 158 max 0 min
Histogram: 33 1 3 1 0 0 0 0 0 2
Nghost:    5.2 ave 68 max 0 min
Histogram: 36 0 0 0 1 0 0 1 1 1
Neighs:    3.775 ave 62 max 0 min
Histogram: 36 1 1 0 0 0 0 0 0 2

Total # of neighbors = 151
Ave neighs/atom = 0.29207
Neighbor list builds = 438
Dangerous builds = 0
Setting up run at Mon Nov 28 04:30:40 2022

Memory usage per processor = 1083.01 Mbytes
    Step    Atoms         KinEng            CPU 
 7871750      517    0.024640571              0 
 8026098      517    0.025329524       2136.247 
Loop time of 2136.25 on 40 procs for 154348 steps with 517 atoms, finish time Mon Nov 28 05:06:16 2022


Pair  time (%) = 0.335077 (0.0156853)
Neigh time (%) = 0.143095 (0.00669841)
Comm  time (%) = 1.42286 (0.0666058)
Outpt time (%) = 0.000767085 (3.59081e-05)
Other time (%) = 2134.35 (99.911)

Nlocal:    12.925 ave 158 max 0 min
Histogram: 33 1 3 1 0 0 0 0 1 1
Nghost:    5.275 ave 64 max 0 min
Histogram: 36 0 0 0 1 0 0 1 0 2
Neighs:    3.35 ave 53 max 0 min
Histogram: 36 1 1 0 0 0 0 0 0 2

Total # of neighbors = 134
Ave neighs/atom = 0.259188
Neighbor list builds = 438
Dangerous builds = 0
Setting up run at Mon Nov 28 05:06:16 2022

Memory usage per processor = 1083.01 Mbytes
    Step    Atoms         KinEng            CPU 
 8026098      517    0.025329524              0 
 8180446      516     0.02664377      2124.8228 
Loop time of 2124.82 on 40 procs for 154348 steps with 516 atoms, finish time Mon Nov 28 05:41:41 2022


Pair  time (%) = 0.335103 (0.0157709)
Neigh time (%) = 0.142697 (0.00671569)
Comm  time (%) = 1.36651 (0.0643115)
Outpt time (%) = 0.00103295 (4.86136e-05)
Other time (%) = 2122.98 (99.9132)

Nlocal:    12.9 ave 157 max 0 min
Histogram: 34 1 1 1 1 0 0 0 1 1
Nghost:    5.175 ave 63 max 0 min
Histogram: 36 0 0 0 0 1 1 0 0 2
Neighs:    3.275 ave 52 max 0 min
Histogram: 36 0 2 0 0 0 0 0 0 2

Total # of neighbors = 131
Ave neighs/atom = 0.253876
Neighbor list builds = 436
Dangerous builds = 0
Setting up run at Mon Nov 28 05:41:41 2022

Memory usage per processor = 1083.01 Mbytes
    Step    Atoms         KinEng            CPU 
 8180446      516     0.02664377              0 
 8334794      516    0.027193097      2269.9893 
Loop time of 2269.99 on 40 procs for 154348 steps with 516 atoms, finish time Mon Nov 28 06:19:31 2022


Pair  time (%) = 0.334764 (0.0147474)
Neigh time (%) = 0.142157 (0.00626247)
Comm  time (%) = 1.29806 (0.0571833)
Outpt time (%) = 0.0010023 (4.41544e-05)
Other time (%) = 2268.21 (99.9218)

Nlocal:    12.9 ave 156 max 0 min
Histogram: 33 2 2 0 1 0 0 0 1 1
Nghost:    5.075 ave 64 max 0 min
Histogram: 36 0 0 0 0 2 0 0 0 2
Neighs:    3.4 ave 52 max 0 min
Histogram: 36 0 1 1 0 0 0 0 0 2

Total # of neighbors = 136
Ave neighs/atom = 0.263566
Neighbor list builds = 435
Dangerous builds = 0
Setting up run at Mon Nov 28 06:19:31 2022

Memory usage per processor = 1083.01 Mbytes
    Step    Atoms         KinEng            CPU 
 8334794      516    0.027193097              0 
 8489142      516    0.028064492      2088.4468 
Loop time of 2088.45 on 40 procs for 154348 steps with 516 atoms, finish time Mon Nov 28 06:54:20 2022


Pair  time (%) = 0.334176 (0.0160012)
Neigh time (%) = 0.14281 (0.0068381)
Comm  time (%) = 1.30562 (0.0625165)
Outpt time (%) = 0.00080697 (3.86397e-05)
Other time (%) = 2086.66 (99.9146)

Nlocal:    12.9 ave 153 max 0 min
Histogram: 33 2 0 3 0 0 0 0 0 2
Nghost:    5.025 ave 65 max 0 min
Histogram: 36 0 0 0 0 2 0 0 0 2
Neighs:    3.25 ave 50 max 0 min
Histogram: 36 0 1 1 0 0 0 0 0 2

Total # of neighbors = 130
Ave neighs/atom = 0.251938
Neighbor list builds = 436
Dangerous builds = 0
Setting up run at Mon Nov 28 06:54:20 2022

Memory usage per processor = 1083.01 Mbytes
    Step    Atoms         KinEng            CPU 
 8489142      516    0.028064492              0 
 8643490      516    0.028740196      2087.9155 
Loop time of 2087.92 on 40 procs for 154348 steps with 516 atoms, finish time Mon Nov 28 07:29:08 2022


Pair  time (%) = 0.333746 (0.0159847)
Neigh time (%) = 0.134394 (0.00643674)
Comm  time (%) = 1.36627 (0.0654368)
Outpt time (%) = 0.000963449 (4.6144e-05)
Other time (%) = 2086.08 (99.9121)

Nlocal:    12.9 ave 152 max 0 min
Histogram: 33 2 0 3 0 0 0 0 1 1
Nghost:    5.45 ave 67 max 0 min
Histogram: 35 1 0 0 1 1 0 0 0 2
Neighs:    3.325 ave 50 max 0 min
Histogram: 34 3 1 0 0 0 0 0 0 2

Total # of neighbors = 133
Ave neighs/atom = 0.257752
Neighbor list builds = 414
Dangerous builds = 0
Setting up run at Mon Nov 28 07:29:08 2022

Memory usage per processor = 1083.01 Mbytes
    Step    Atoms         KinEng            CPU 
 8643490      516    0.028740196              0 
 8797838      516    0.029721398      2064.9753 
Loop time of 2064.98 on 40 procs for 154348 steps with 516 atoms, finish time Mon Nov 28 08:03:33 2022


Pair  time (%) = 0.335939 (0.0162684)
Neigh time (%) = 0.134089 (0.00649347)
Comm  time (%) = 1.39748 (0.0676752)
Outpt time (%) = 0.000649322 (3.14445e-05)
Other time (%) = 2063.11 (99.9095)

Nlocal:    12.9 ave 151 max 0 min
Histogram: 32 4 1 0 0 1 0 0 1 1
Nghost:    5.15 ave 67 max 0 min
Histogram: 36 0 0 0 1 1 0 0 0 2
Neighs:    3.3 ave 53 max 0 min
Histogram: 36 1 1 0 0 0 0 0 0 2

Total # of neighbors = 132
Ave neighs/atom = 0.255814
Neighbor list builds = 412
Dangerous builds = 0
Setting up run at Mon Nov 28 08:03:33 2022

Memory usage per processor = 1083.01 Mbytes
    Step    Atoms         KinEng            CPU 
 8797838      516    0.029721398              0 
 8952186      516    0.030388937      2085.0563 
Loop time of 2085.06 on 40 procs for 154348 steps with 516 atoms, finish time Mon Nov 28 08:38:18 2022


Pair  time (%) = 0.336089 (0.0161189)
Neigh time (%) = 0.140965 (0.00676072)
Comm  time (%) = 1.51242 (0.0725362)
Outpt time (%) = 0.00103313 (4.95493e-05)
Other time (%) = 2083.07 (99.9045)

Nlocal:    12.9 ave 151 max 0 min
Histogram: 33 1 2 2 0 0 0 0 1 1
Nghost:    5.225 ave 65 max 0 min
Histogram: 36 0 0 0 0 2 0 0 0 2
Neighs:    3.35 ave 54 max 0 min
Histogram: 36 1 1 0 0 0 0 0 0 2

Total # of neighbors = 134
Ave neighs/atom = 0.25969
Neighbor list builds = 431
Dangerous builds = 0
Setting up run at Mon Nov 28 08:38:18 2022

Memory usage per processor = 1083.01 Mbytes
    Step    Atoms         KinEng            CPU 
 8952186      516    0.030388937              0 
 9106534      515    0.031019949      2088.9315 
Loop time of 2088.93 on 40 procs for 154348 steps with 515 atoms, finish time Mon Nov 28 09:13:07 2022


Pair  time (%) = 0.336098 (0.0160895)
Neigh time (%) = 0.140325 (0.00671756)
Comm  time (%) = 1.67495 (0.080182)
Outpt time (%) = 0.000792232 (3.79252e-05)
Other time (%) = 2086.78 (99.897)

Nlocal:    12.875 ave 150 max 0 min
Histogram: 32 1 3 2 0 0 0 0 0 2
Nghost:    5.25 ave 63 max 0 min
Histogram: 36 0 0 0 0 2 0 0 0 2
Neighs:    3.325 ave 52 max 0 min
Histogram: 36 1 1 0 0 0 0 0 0 2

Total # of neighbors = 133
Ave neighs/atom = 0.258252
Neighbor list builds = 429
Dangerous builds = 0
Setting up run at Mon Nov 28 09:13:07 2022

Memory usage per processor = 1083.01 Mbytes
    Step    Atoms         KinEng            CPU 
 9106534      515    0.031019949              0 
 9260882      514    0.031700763      2079.5639 
Loop time of 2079.56 on 40 procs for 154348 steps with 514 atoms, finish time Mon Nov 28 09:47:47 2022


Pair  time (%) = 0.334815 (0.0161002)
Neigh time (%) = 0.13516 (0.00649942)
Comm  time (%) = 1.58348 (0.0761447)
Outpt time (%) = 0.00094874 (4.56221e-05)
Other time (%) = 2077.51 (99.9012)

Nlocal:    12.85 ave 151 max 0 min
Histogram: 32 2 2 2 0 0 0 0 1 1
Nghost:    5.225 ave 64 max 0 min
Histogram: 36 0 0 0 0 0 2 0 1 1
Neighs:    3.075 ave 52 max 0 min
Histogram: 35 3 0 0 0 0 0 0 0 2

Total # of neighbors = 123
Ave neighs/atom = 0.2393
Neighbor list builds = 415
Dangerous builds = 0
Setting up run at Mon Nov 28 09:47:47 2022

Memory usage per processor = 1083.01 Mbytes
    Step    Atoms         KinEng            CPU 
 9260882      514    0.031700763              0 
 9415230      514    0.032416673      2070.5344 
Loop time of 2070.53 on 40 procs for 154348 steps with 514 atoms, finish time Mon Nov 28 10:22:18 2022


Pair  time (%) = 0.332726 (0.0160696)
Neigh time (%) = 0.13383 (0.00646353)
Comm  time (%) = 1.47795 (0.0713802)
Outpt time (%) = 0.000652649 (3.15208e-05)
Other time (%) = 2068.59 (99.9061)

Nlocal:    12.85 ave 151 max 0 min
Histogram: 32 4 0 0 2 0 0 0 1 1
Nghost:    5.05 ave 61 max 0 min
Histogram: 36 0 0 0 0 1 1 0 0 2
Neighs:    2.9 ave 49 max 0 min
Histogram: 35 3 0 0 0 0 0 0 0 2

Total # of neighbors = 116
Ave neighs/atom = 0.225681
Neighbor list builds = 412
Dangerous builds = 0
Setting up run at Mon Nov 28 10:22:18 2022

Memory usage per processor = 1083.01 Mbytes
    Step    Atoms         KinEng            CPU 
 9415230      514    0.032416673              0 
 9569578      514    0.033078751      2082.3462 
Loop time of 2082.35 on 40 procs for 154348 steps with 514 atoms, finish time Mon Nov 28 10:57:00 2022


Pair  time (%) = 0.332342 (0.01596)
Neigh time (%) = 0.134029 (0.00643646)
Comm  time (%) = 1.2508 (0.0600669)
Outpt time (%) = 0.000985183 (4.73112e-05)
Other time (%) = 2080.63 (99.9175)

Nlocal:    12.85 ave 149 max 0 min
Histogram: 32 1 3 2 0 0 0 0 1 1
Nghost:    5.025 ave 58 max 0 min
Histogram: 36 0 0 0 0 1 0 1 0 2
Neighs:    2.9 ave 48 max 0 min
Histogram: 36 2 0 0 0 0 0 0 0 2

Total # of neighbors = 116
Ave neighs/atom = 0.225681
Neighbor list builds = 412
Dangerous builds = 0
Setting up run at Mon Nov 28 10:57:00 2022

Memory usage per processor = 1083.01 Mbytes
    Step    Atoms         KinEng            CPU 
 9569578      514    0.033078751              0 
 9723926      514     0.03377235      2070.1932 
Loop time of 2070.19 on 40 procs for 154348 steps with 514 atoms, finish time Mon Nov 28 11:31:30 2022


Pair  time (%) = 0.330883 (0.0159832)
Neigh time (%) = 0.134131 (0.00647917)
Comm  time (%) = 1.6225 (0.0783741)
Outpt time (%) = 0.000799817 (3.86349e-05)
Other time (%) = 2068.11 (99.8991)

Nlocal:    12.85 ave 147 max 0 min
Histogram: 32 2 2 1 1 0 0 0 1 1
Nghost:    4.925 ave 59 max 0 min
Histogram: 36 0 0 0 0 1 1 0 0 2
Neighs:    2.825 ave 47 max 0 min
Histogram: 36 0 2 0 0 0 0 0 0 2

Total # of neighbors = 113
Ave neighs/atom = 0.219844
Neighbor list builds = 412
Dangerous builds = 0
Setting up run at Mon Nov 28 11:31:30 2022

Memory usage per processor = 1083.01 Mbytes
    Step    Atoms         KinEng            CPU 
 9723926      514     0.03377235              0 
 9878274      514    0.034454447      2085.2971 
Loop time of 2085.3 on 40 procs for 154348 steps with 514 atoms, finish time Mon Nov 28 12:06:16 2022


Pair  time (%) = 0.331453 (0.0158948)
Neigh time (%) = 0.133867 (0.00641955)
Comm  time (%) = 1.60322 (0.0768821)
Outpt time (%) = 0.00097994 (4.69928e-05)
Other time (%) = 2083.23 (99.9008)

Nlocal:    12.85 ave 144 max 0 min
Histogram: 32 2 2 1 1 0 0 0 0 2
Nghost:    5.15 ave 57 max 0 min
Histogram: 36 0 0 0 0 0 1 1 0 2
Neighs:    3.075 ave 49 max 0 min
Histogram: 36 0 1 1 0 0 0 0 0 2

Total # of neighbors = 123
Ave neighs/atom = 0.2393
Neighbor list builds = 412
Dangerous builds = 0
Setting up run at Mon Nov 28 12:06:16 2022

Memory usage per processor = 1083.01 Mbytes
    Step    Atoms         KinEng            CPU 
 9878274      514    0.034454447              0 
10032622      514    0.035286289      2071.5272 
Loop time of 2071.54 on 40 procs for 154348 steps with 514 atoms, finish time Mon Nov 28 12:40:47 2022


Pair  time (%) = 0.333758 (0.0161116)
Neigh time (%) = 0.133495 (0.00644423)
Comm  time (%) = 1.48418 (0.0716461)
Outpt time (%) = 0.000663516 (3.20301e-05)
Other time (%) = 2069.59 (99.9058)

Nlocal:    12.85 ave 145 max 0 min
Histogram: 32 3 1 1 0 1 0 0 0 2
Nghost:    5 ave 55 max 0 min
Histogram: 36 0 0 0 0 0 0 2 0 2
Neighs:    2.85 ave 45 max 0 min
Histogram: 36 1 1 0 0 0 0 0 0 2

Total # of neighbors = 114
Ave neighs/atom = 0.22179
Neighbor list builds = 412
Dangerous builds = 0
Setting up run at Mon Nov 28 12:40:48 2022

Memory usage per processor = 1083.01 Mbytes
    Step    Atoms         KinEng            CPU 
10032622      514    0.035286289              0 
10186970      514    0.035888025      2090.4247 
Loop time of 2090.42 on 40 procs for 154348 steps with 514 atoms, finish time Mon Nov 28 13:15:38 2022


Pair  time (%) = 0.332397 (0.0159009)
Neigh time (%) = 0.134201 (0.00641978)
Comm  time (%) = 1.46914 (0.0702793)
Outpt time (%) = 0.000996935 (4.76905e-05)
Other time (%) = 2088.49 (99.9074)

Nlocal:    12.85 ave 144 max 0 min
Histogram: 32 1 4 0 1 0 0 0 0 2
Nghost:    5.05 ave 57 max 0 min
Histogram: 36 0 0 0 0 0 0 1 2 1
Neighs:    2.75 ave 43 max 0 min
Histogram: 36 1 1 0 0 0 0 0 0 2

Total # of neighbors = 110
Ave neighs/atom = 0.214008
Neighbor list builds = 412
Dangerous builds = 0
Setting up run at Mon Nov 28 13:15:38 2022

Memory usage per processor = 1083.01 Mbytes
    Step    Atoms         KinEng            CPU 
10186970      514    0.035888025              0 
10341318      514    0.036388267      2318.8315 
Loop time of 2318.83 on 40 procs for 154348 steps with 514 atoms, finish time Mon Nov 28 13:54:17 2022


Pair  time (%) = 0.334483 (0.0144246)
Neigh time (%) = 0.134305 (0.00579191)
Comm  time (%) = 1.28798 (0.0555446)
Outpt time (%) = 0.00103594 (4.4675e-05)
Other time (%) = 2317.07 (99.9242)

Nlocal:    12.85 ave 145 max 0 min
Histogram: 32 1 3 1 1 0 0 0 0 2
Nghost:    5.125 ave 55 max 0 min
Histogram: 36 0 0 0 0 0 0 1 1 2
Neighs:    3 ave 48 max 0 min
Histogram: 34 2 2 0 0 0 0 1 0 1

Total # of neighbors = 120
Ave neighs/atom = 0.233463
Neighbor list builds = 412
Dangerous builds = 0
Setting up run at Mon Nov 28 13:54:17 2022

Memory usage per processor = 1083.01 Mbytes
    Step    Atoms         KinEng            CPU 
10341318      514    0.036388267              0 
10495666      514     0.03715606      2130.1744 
Loop time of 2130.19 on 40 procs for 154348 steps with 514 atoms, finish time Mon Nov 28 14:29:47 2022


Pair  time (%) = 0.334146 (0.0156862)
Neigh time (%) = 0.13559 (0.00636519)
Comm  time (%) = 1.43515 (0.0673718)
Outpt time (%) = 0.000661954 (3.10749e-05)
Other time (%) = 2128.28 (99.9105)

Nlocal:    12.85 ave 145 max 0 min
Histogram: 32 1 2 2 1 0 0 0 0 2
Nghost:    4.975 ave 53 max 0 min
Histogram: 36 0 0 0 0 0 0 1 0 3
Neighs:    2.6 ave 45 max 0 min
Histogram: 36 0 2 0 0 0 0 1 0 1

Total # of neighbors = 104
Ave neighs/atom = 0.202335
Neighbor list builds = 416
Dangerous builds = 0
Setting up run at Mon Nov 28 14:29:47 2022

Memory usage per processor = 1083.01 Mbytes
    Step    Atoms         KinEng            CPU 
10495666      514     0.03715606              0 
10650014      513    0.037697714      2103.0003 
Loop time of 2103 on 40 procs for 154348 steps with 513 atoms, finish time Mon Nov 28 15:04:50 2022


Pair  time (%) = 0.328818 (0.0156357)
Neigh time (%) = 0.138587 (0.00658997)
Comm  time (%) = 1.48503 (0.070615)
Outpt time (%) = 0.00104097 (4.94994e-05)
Other time (%) = 2101.05 (99.9071)

Nlocal:    12.825 ave 144 max 0 min
Histogram: 32 0 3 3 0 0 0 0 1 1
Nghost:    5.025 ave 54 max 0 min
Histogram: 36 0 0 0 0 0 0 1 0 3
Neighs:    2.45 ave 40 max 0 min
Histogram: 35 1 2 0 0 0 0 0 1 1

Total # of neighbors = 98
Ave neighs/atom = 0.191033
Neighbor list builds = 423
Dangerous builds = 0
Setting up run at Mon Nov 28 15:04:51 2022

Memory usage per processor = 1083.01 Mbytes
    Step    Atoms         KinEng            CPU 
10650014      513    0.037697714              0 
10804362      513    0.038487201      2099.5427 
Loop time of 2099.54 on 40 procs for 154348 steps with 513 atoms, finish time Mon Nov 28 15:39:50 2022


Pair  time (%) = 0.332405 (0.0158323)
Neigh time (%) = 0.134241 (0.00639381)
Comm  time (%) = 1.42227 (0.0677421)
Outpt time (%) = 0.000762449 (3.6315e-05)
Other time (%) = 2097.65 (99.91)

Nlocal:    12.825 ave 144 max 0 min
Histogram: 32 0 4 1 1 0 0 0 1 1
Nghost:    4.9 ave 52 max 0 min
Histogram: 36 0 0 0 0 0 0 1 0 3
Neighs:    2.5 ave 41 max 0 min
Histogram: 36 1 1 0 0 0 0 0 1 1

Total # of neighbors = 100
Ave neighs/atom = 0.194932
Neighbor list builds = 412
Dangerous builds = 0
Setting up run at Mon Nov 28 15:39:50 2022

Memory usage per processor = 1083.01 Mbytes
    Step    Atoms         KinEng            CPU 
10804362      513    0.038487201              0 
10958710      512    0.039009621      2207.6738 
Loop time of 2207.67 on 40 procs for 154348 steps with 512 atoms, finish time Mon Nov 28 16:16:38 2022


Pair  time (%) = 0.331347 (0.0150089)
Neigh time (%) = 0.13428 (0.0060824)
Comm  time (%) = 1.67107 (0.0756938)
Outpt time (%) = 0.0217073 (0.000983268)
Other time (%) = 2205.52 (99.9022)

Nlocal:    12.8 ave 143 max 0 min
Histogram: 32 1 3 1 1 0 0 0 1 1
Nghost:    5.2 ave 51 max 0 min
Histogram: 35 1 0 0 0 0 0 0 1 3
Neighs:    2.625 ave 41 max 0 min
Histogram: 36 0 2 0 0 0 0 0 1 1

Total # of neighbors = 105
Ave neighs/atom = 0.205078
Neighbor list builds = 413
Dangerous builds = 0
Setting up run at Mon Nov 28 16:16:38 2022

Memory usage per processor = 1083.01 Mbytes
    Step    Atoms         KinEng            CPU 
10958710      512    0.039009621              0 
11113058      512    0.039758597      2111.7757 
Loop time of 2111.79 on 40 procs for 154348 steps with 512 atoms, finish time Mon Nov 28 16:51:50 2022


Pair  time (%) = 0.331331 (0.0156896)
Neigh time (%) = 0.134032 (0.00634687)
Comm  time (%) = 1.39328 (0.0659761)
Outpt time (%) = 0.000804935 (3.81163e-05)
Other time (%) = 2109.93 (99.9119)

Nlocal:    12.8 ave 143 max 0 min
Histogram: 32 1 3 0 1 1 0 0 1 1
Nghost:    4.875 ave 49 max 0 min
Histogram: 35 1 0 0 0 0 0 1 0 3
Neighs:    2.4 ave 36 max 0 min
Histogram: 36 0 1 0 1 0 0 0 0 2

Total # of neighbors = 96
Ave neighs/atom = 0.1875
Neighbor list builds = 412
Dangerous builds = 0
Setting up run at Mon Nov 28 16:51:50 2022

Memory usage per processor = 1083.01 Mbytes
    Step    Atoms         KinEng            CPU 
11113058      512    0.039758597              0 
11267406      512    0.040339327      2170.3762 
Loop time of 2170.38 on 40 procs for 154348 steps with 512 atoms, finish time Mon Nov 28 17:28:00 2022


Pair  time (%) = 0.330814 (0.0152422)
Neigh time (%) = 0.134274 (0.00618668)
Comm  time (%) = 1.41678 (0.0652779)
Outpt time (%) = 0.00105735 (4.87176e-05)
Other time (%) = 2168.49 (99.9132)

Nlocal:    12.8 ave 142 max 0 min
Histogram: 32 2 1 2 1 0 0 0 1 1
Nghost:    4.8 ave 50 max 0 min
Histogram: 35 1 0 0 0 0 0 1 0 3
Neighs:    2.525 ave 35 max 0 min
Histogram: 36 0 1 0 0 0 1 0 0 2

Total # of neighbors = 101
Ave neighs/atom = 0.197266
Neighbor list builds = 412
Dangerous builds = 0
Setting up run at Mon Nov 28 17:28:00 2022

Memory usage per processor = 1083.01 Mbytes
    Step    Atoms         KinEng            CPU 
11267406      512    0.040339327              0 
11421754      512    0.040982428      2113.2608 
Loop time of 2113.26 on 40 procs for 154348 steps with 512 atoms, finish time Mon Nov 28 18:03:14 2022


Pair  time (%) = 0.331982 (0.0157094)
Neigh time (%) = 0.134331 (0.0063566)
Comm  time (%) = 1.62851 (0.0770616)
Outpt time (%) = 0.000674246 (3.19055e-05)
Other time (%) = 2111.17 (99.9008)

Nlocal:    12.8 ave 142 max 0 min
Histogram: 32 1 2 2 1 0 0 0 1 1
Nghost:    4.85 ave 54 max 0 min
Histogram: 36 0 0 0 0 0 0 1 2 1
Neighs:    2.6 ave 37 max 0 min
Histogram: 36 1 0 0 0 1 0 0 0 2

Total # of neighbors = 104
Ave neighs/atom = 0.203125
Neighbor list builds = 412
Dangerous builds = 0
Setting up run at Mon Nov 28 18:03:14 2022

Memory usage per processor = 1083.01 Mbytes
    Step    Atoms         KinEng            CPU 
11421754      512    0.040982428              0 
11576102      512    0.041805115      2103.6151 
Loop time of 2103.62 on 40 procs for 154348 steps with 512 atoms, finish time Mon Nov 28 18:38:18 2022


Pair  time (%) = 0.333943 (0.0158747)
Neigh time (%) = 0.134234 (0.0063811)
Comm  time (%) = 1.8212 (0.0865749)
Outpt time (%) = 0.00110115 (5.23455e-05)
Other time (%) = 2101.32 (99.8911)

Nlocal:    12.8 ave 141 max 0 min
Histogram: 32 1 3 1 1 0 0 0 1 1
Nghost:    4.925 ave 54 max 0 min
Histogram: 36 0 0 0 0 0 0 1 2 1
Neighs:    2.55 ave 35 max 0 min
Histogram: 36 1 0 0 0 1 0 0 0 2

Total # of neighbors = 102
Ave neighs/atom = 0.199219
Neighbor list builds = 412
Dangerous builds = 0
Setting up run at Mon Nov 28 18:38:18 2022

Memory usage per processor = 1083.01 Mbytes
    Step    Atoms         KinEng            CPU 
11576102      512    0.041805115              0 
11730450      512    0.042368873      2103.8027 
Loop time of 2103.8 on 40 procs for 154348 steps with 512 atoms, finish time Mon Nov 28 19:13:21 2022


Pair  time (%) = 0.333183 (0.0158372)
Neigh time (%) = 0.134654 (0.0064005)
Comm  time (%) = 1.74473 (0.082932)
Outpt time (%) = 0.00010948 (5.20389e-06)
Other time (%) = 2101.59 (99.8948)

Nlocal:    12.8 ave 140 max 0 min
Histogram: 32 1 2 2 1 0 0 0 1 1
Nghost:    5 ave 56 max 0 min
Histogram: 36 0 0 0 0 0 1 1 1 1
Neighs:    2.55 ave 34 max 0 min
Histogram: 35 1 0 1 1 0 0 0 0 2

Total # of neighbors = 102
Ave neighs/atom = 0.199219
Neighbor list builds = 412
Dangerous builds = 0
Setting up run at Mon Nov 28 19:13:21 2022

Memory usage per processor = 1083.01 Mbytes
    Step    Atoms         KinEng            CPU 
11730450      512    0.042368873              0 
11884798      512    0.042870043      2093.3726 
Loop time of 2093.37 on 40 procs for 154348 steps with 512 atoms, finish time Mon Nov 28 19:48:15 2022


Pair  time (%) = 0.335211 (0.016013)
Neigh time (%) = 0.134184 (0.00640994)
Comm  time (%) = 1.43767 (0.0686773)
Outpt time (%) = 0.00104533 (4.99354e-05)
Other time (%) = 2091.46 (99.9088)

Nlocal:    12.8 ave 138 max 0 min
Histogram: 32 0 4 1 1 0 0 0 1 1
Nghost:    4.75 ave 54 max 0 min
Histogram: 36 0 0 0 0 0 0 2 1 1
Neighs:    2.375 ave 37 max 0 min
Histogram: 36 0 1 0 1 0 0 1 0 1

Total # of neighbors = 95
Ave neighs/atom = 0.185547
Neighbor list builds = 412
Dangerous builds = 0
Setting up run at Mon Nov 28 19:48:15 2022

Memory usage per processor = 1083.01 Mbytes
    Step    Atoms         KinEng            CPU 
11884798      512    0.042870043              0 
12039146      512    0.043589651       2088.879 
Loop time of 2088.88 on 40 procs for 154348 steps with 512 atoms, finish time Mon Nov 28 20:23:04 2022


Pair  time (%) = 0.335602 (0.0160661)
Neigh time (%) = 0.137355 (0.00657555)
Comm  time (%) = 1.4649 (0.0701287)
Outpt time (%) = 0.000733634 (3.5121e-05)
Other time (%) = 2086.94 (99.9072)

Nlocal:    12.8 ave 135 max 0 min
Histogram: 32 0 3 2 1 0 0 0 0 2
Nghost:    4.75 ave 51 max 0 min
Histogram: 35 1 0 0 0 0 1 0 1 2
Neighs:    2.35 ave 33 max 0 min
Histogram: 36 1 0 0 0 0 1 1 0 1

Total # of neighbors = 94
Ave neighs/atom = 0.183594
Neighbor list builds = 419
Dangerous builds = 0
Setting up run at Mon Nov 28 20:23:04 2022

Memory usage per processor = 1083.01 Mbytes
    Step    Atoms         KinEng            CPU 
12039146      512    0.043589651              0 
12193494      508    0.044149507      2077.1687 
Loop time of 2077.17 on 40 procs for 154348 steps with 508 atoms, finish time Mon Nov 28 20:57:41 2022


Pair  time (%) = 0.332675 (0.0160158)
Neigh time (%) = 0.137931 (0.00664035)
Comm  time (%) = 1.72366 (0.0829813)
Outpt time (%) = 0.0130908 (0.000630226)
Other time (%) = 2074.96 (99.8937)

Nlocal:    12.7 ave 134 max 0 min
Histogram: 32 0 4 1 1 0 0 0 0 2
Nghost:    4.85 ave 52 max 0 min
Histogram: 36 0 0 0 0 0 0 1 1 2
Neighs:    2.375 ave 33 max 0 min
Histogram: 35 1 1 0 0 0 1 0 1 1

Total # of neighbors = 95
Ave neighs/atom = 0.187008
Neighbor list builds = 420
Dangerous builds = 0
Setting up run at Mon Nov 28 20:57:41 2022

Memory usage per processor = 1083.01 Mbytes
    Step    Atoms         KinEng            CPU 
12193494      508    0.044149507              0 
12347842      508     0.04541679      2085.7878 
Loop time of 2085.79 on 40 procs for 154348 steps with 508 atoms, finish time Mon Nov 28 21:32:27 2022


Pair  time (%) = 0.333278 (0.0159785)
Neigh time (%) = 0.134484 (0.00644763)
Comm  time (%) = 1.57268 (0.0753997)
Outpt time (%) = 0.00106094 (5.0865e-05)
Other time (%) = 2083.75 (99.9021)

Nlocal:    12.7 ave 130 max 0 min
Histogram: 32 0 3 1 2 0 0 0 0 2
Nghost:    4.8 ave 51 max 0 min
Histogram: 35 1 0 0 0 0 0 1 1 2
Neighs:    2.575 ave 31 max 0 min
Histogram: 35 0 0 2 0 0 1 0 0 2

Total # of neighbors = 103
Ave neighs/atom = 0.202756
Neighbor list builds = 412
Dangerous builds = 0
Setting up run at Mon Nov 28 21:32:27 2022

Memory usage per processor = 1083.01 Mbytes
    Step    Atoms         KinEng            CPU 
12347842      508     0.04541679              0 
12502190      508     0.04624167      2086.4211 
Loop time of 2086.42 on 40 procs for 154348 steps with 508 atoms, finish time Mon Nov 28 22:07:14 2022


Pair  time (%) = 0.33454 (0.0160342)
Neigh time (%) = 0.138607 (0.00664328)
Comm  time (%) = 1.66337 (0.0797234)
Outpt time (%) = 0.000826446 (3.96107e-05)
Other time (%) = 2084.28 (99.8976)

Nlocal:    12.7 ave 127 max 0 min
Histogram: 32 1 1 2 2 0 0 0 0 2
Nghost:    4.975 ave 54 max 0 min
Histogram: 36 0 0 0 0 0 0 2 1 1
Neighs:    2.525 ave 32 max 0 min
Histogram: 34 2 1 0 0 0 0 2 0 1

Total # of neighbors = 101
Ave neighs/atom = 0.198819
Neighbor list builds = 422
Dangerous builds = 0
Setting up run at Mon Nov 28 22:07:14 2022

Memory usage per processor = 1083.01 Mbytes
    Step    Atoms         KinEng            CPU 
12502190      508     0.04624167              0 
12656538      508    0.046869606       2092.187 
Loop time of 2092.19 on 40 procs for 154348 steps with 508 atoms, finish time Mon Nov 28 22:42:06 2022


Pair  time (%) = 0.335313 (0.0160269)
Neigh time (%) = 0.149241 (0.00713324)
Comm  time (%) = 1.99074 (0.095151)
Outpt time (%) = 0.00107114 (5.11972e-05)
Other time (%) = 2089.71 (99.8816)

Nlocal:    12.7 ave 127 max 0 min
Histogram: 32 1 2 2 0 1 0 0 0 2
Nghost:    4.75 ave 55 max 0 min
Histogram: 36 0 0 0 0 0 2 0 1 1
Neighs:    2.425 ave 30 max 0 min
Histogram: 34 3 0 0 0 0 0 0 1 2

Total # of neighbors = 97
Ave neighs/atom = 0.190945
Neighbor list builds = 455
Dangerous builds = 0
Setting up run at Mon Nov 28 22:42:06 2022

Memory usage per processor = 1083.01 Mbytes
    Step    Atoms         KinEng            CPU 
12656538      508    0.046869606              0 
12810886      507    0.047499855      2077.3937 
Loop time of 2077.39 on 40 procs for 154348 steps with 507 atoms, finish time Mon Nov 28 23:16:43 2022


Pair  time (%) = 0.334714 (0.0161122)
Neigh time (%) = 0.141566 (0.00681461)
Comm  time (%) = 1.85501 (0.0892951)
Outpt time (%) = 0.000723466 (3.48256e-05)
Other time (%) = 2075.06 (99.8877)

Nlocal:    12.675 ave 124 max 0 min
Histogram: 32 1 2 1 1 1 0 0 0 2
Nghost:    4.725 ave 61 max 0 min
Histogram: 36 0 0 0 0 1 1 1 0 1
Neighs:    2.4 ave 26 max 0 min
Histogram: 33 3 0 0 1 0 0 0 0 3

Total # of neighbors = 96
Ave neighs/atom = 0.189349
Neighbor list builds = 432
Dangerous builds = 0
Setting up run at Mon Nov 28 23:16:43 2022

Memory usage per processor = 1083.01 Mbytes
    Step    Atoms         KinEng            CPU 
12810886      507    0.047499855              0 
12965234      507    0.048103813      2094.8248 
Loop time of 2094.82 on 40 procs for 154348 steps with 507 atoms, finish time Mon Nov 28 23:51:38 2022


Pair  time (%) = 0.335514 (0.0160163)
Neigh time (%) = 0.13782 (0.00657906)
Comm  time (%) = 1.40147 (0.0669015)
Outpt time (%) = 0.00108703 (5.18913e-05)
Other time (%) = 2092.95 (99.9105)

Nlocal:    12.675 ave 124 max 0 min
Histogram: 32 1 0 3 2 0 0 0 0 2
Nghost:    4.6 ave 55 max 0 min
Histogram: 36 0 0 0 0 1 0 1 1 1
Neighs:    2.4 ave 24 max 0 min
Histogram: 34 0 1 1 1 0 0 0 0 3

Total # of neighbors = 96
Ave neighs/atom = 0.189349
Neighbor list builds = 419
Dangerous builds = 0
Setting up run at Mon Nov 28 23:51:38 2022

Memory usage per processor = 1083.01 Mbytes
    Step    Atoms         KinEng            CPU 
12965234      507    0.048103813              0 
13119582      506    0.048624476      2076.0671 
Loop time of 2076.07 on 40 procs for 154348 steps with 506 atoms, finish time Tue Nov 29 00:26:15 2022


Pair  time (%) = 0.334564 (0.0161153)
Neigh time (%) = 0.14301 (0.0068885)
Comm  time (%) = 1.63144 (0.078583)
Outpt time (%) = 0.000745008 (3.58855e-05)
Other time (%) = 2073.96 (99.8984)

Nlocal:    12.65 ave 123 max 0 min
Histogram: 32 0 1 3 2 0 0 0 0 2
Nghost:    4.75 ave 58 max 0 min
Histogram: 35 1 0 0 0 1 1 0 1 1
Neighs:    2.175 ave 26 max 0 min
Histogram: 34 2 0 0 0 1 1 0 1 1

Total # of neighbors = 87
Ave neighs/atom = 0.171937
Neighbor list builds = 436
Dangerous builds = 0
Setting up run at Tue Nov 29 00:26:15 2022

Memory usage per processor = 1083.01 Mbytes
    Step    Atoms         KinEng            CPU 
13119582      506    0.048624476              0 
13273930      506    0.049249027      2086.9164 
Loop time of 2086.92 on 40 procs for 154348 steps with 506 atoms, finish time Tue Nov 29 01:01:02 2022


Pair  time (%) = 0.338265 (0.0162088)
Neigh time (%) = 0.145059 (0.00695086)
Comm  time (%) = 1.71933 (0.0823863)
Outpt time (%) = 0.00104903 (5.0267e-05)
Other time (%) = 2084.71 (99.8944)

Nlocal:    12.65 ave 123 max 0 min
Histogram: 32 1 1 2 2 0 0 0 0 2
Nghost:    4.9 ave 55 max 0 min
Histogram: 36 0 0 0 0 1 0 1 0 2
Neighs:    2.275 ave 26 max 0 min
Histogram: 33 1 2 0 1 1 0 0 1 1

Total # of neighbors = 91
Ave neighs/atom = 0.179842
Neighbor list builds = 441
Dangerous builds = 0
Setting up run at Tue Nov 29 01:01:02 2022

Memory usage per processor = 1083.01 Mbytes
    Step    Atoms         KinEng            CPU 
13273930      506    0.049249027              0 
13428278      506    0.049919522      2077.7037 
Loop time of 2077.72 on 40 procs for 154348 steps with 506 atoms, finish time Tue Nov 29 01:35:39 2022


Pair  time (%) = 0.341174 (0.0164206)
Neigh time (%) = 0.143414 (0.00690249)
Comm  time (%) = 1.77839 (0.0855935)
Outpt time (%) = 0.000701776 (3.37763e-05)
Other time (%) = 2075.45 (99.891)

Nlocal:    12.65 ave 123 max 0 min
Histogram: 32 0 3 0 3 0 0 0 0 2
Nghost:    4.95 ave 54 max 0 min
Histogram: 36 0 0 0 0 0 1 1 0 2
Neighs:    2.175 ave 26 max 0 min
Histogram: 34 1 0 1 0 2 0 0 1 1

Total # of neighbors = 87
Ave neighs/atom = 0.171937
Neighbor list builds = 437
Dangerous builds = 0
Setting up run at Tue Nov 29 01:35:39 2022

Memory usage per processor = 1083.01 Mbytes
    Step    Atoms         KinEng            CPU 
13428278      506    0.049919522              0 
13582626      506    0.050557295      2100.6582 
Loop time of 2100.66 on 40 procs for 154348 steps with 506 atoms, finish time Tue Nov 29 02:10:40 2022


Pair  time (%) = 0.338634 (0.0161204)
Neigh time (%) = 0.141747 (0.00674776)
Comm  time (%) = 1.56187 (0.0743514)
Outpt time (%) = 0.00123969 (5.90145e-05)
Other time (%) = 2098.61 (99.9027)

Nlocal:    12.65 ave 121 max 0 min
Histogram: 32 0 1 3 2 0 0 0 0 2
Nghost:    4.725 ave 54 max 0 min
Histogram: 36 0 0 0 0 0 1 1 0 2
Neighs:    2.225 ave 23 max 0 min
Histogram: 33 1 2 0 0 1 0 1 0 2

Total # of neighbors = 89
Ave neighs/atom = 0.175889
Neighbor list builds = 432
Dangerous builds = 0
Setting up run at Tue Nov 29 02:10:40 2022

Memory usage per processor = 1083.01 Mbytes
    Step    Atoms         KinEng            CPU 
13582626      506    0.050557295              0 
13736974      504    0.051164491      2095.1776 
Loop time of 2095.18 on 40 procs for 154348 steps with 504 atoms, finish time Tue Nov 29 02:45:35 2022


Pair  time (%) = 0.341081 (0.0162793)
Neigh time (%) = 0.141886 (0.00677202)
Comm  time (%) = 1.36465 (0.065133)
Outpt time (%) = 0.000786323 (3.75301e-05)
Other time (%) = 2093.33 (99.9118)

Nlocal:    12.6 ave 119 max 0 min
Histogram: 32 1 1 1 1 2 0 0 0 2
Nghost:    4.65 ave 56 max 0 min
Histogram: 36 0 0 0 0 1 0 1 1 1
Neighs:    2.225 ave 24 max 0 min
Histogram: 34 1 0 1 0 1 0 1 1 1

Total # of neighbors = 89
Ave neighs/atom = 0.176587
Neighbor list builds = 432
Dangerous builds = 0
Setting up run at Tue Nov 29 02:45:36 2022

Memory usage per processor = 1083.01 Mbytes
    Step    Atoms         KinEng            CPU 
13736974      504    0.051164491              0 
13891322      503    0.051910382      2088.7148 
Loop time of 2088.71 on 40 procs for 154348 steps with 503 atoms, finish time Tue Nov 29 03:20:24 2022


Pair  time (%) = 0.336166 (0.0160944)
Neigh time (%) = 0.141354 (0.00676751)
Comm  time (%) = 1.49153 (0.0714088)
Outpt time (%) = 0.0010612 (5.08064e-05)
Other time (%) = 2086.74 (99.9057)

Nlocal:    12.575 ave 118 max 0 min
Histogram: 32 1 0 2 2 1 0 0 0 2
Nghost:    4.675 ave 58 max 0 min
Histogram: 36 0 0 0 0 1 0 2 0 1
Neighs:    1.975 ave 22 max 0 min
Histogram: 34 1 0 1 1 0 0 1 1 1

Total # of neighbors = 79
Ave neighs/atom = 0.157058
Neighbor list builds = 431
Dangerous builds = 0
Setting up run at Tue Nov 29 03:20:24 2022

Memory usage per processor = 1083.01 Mbytes
[...]

Total # of neighbors = 75
Ave neighs/atom = 0.165563
Neighbor list builds = 422
Dangerous builds = 0
Setting up run at Thu Dec  1 06:00:09 2022

Memory usage per processor = 1083.01 Mbytes
    Step    Atoms         KinEng            CPU 
27319671      453     0.08020469              0 
27474019      452    0.080682588      2092.2673 
Loop time of 2092.27 on 40 procs for 154348 steps with 452 atoms, finish time Thu Dec  1 06:35:01 2022


Pair  time (%) = 0.348768 (0.0166694)
Neigh time (%) = 0.139204 (0.00665327)
Comm  time (%) = 2.19541 (0.10493)
Outpt time (%) = 0.00582007 (0.00027817)
Other time (%) = 2089.58 (99.8715)

Nlocal:    11.3 ave 84 max 0 min
Histogram: 32 0 0 1 0 3 1 1 0 2
Nghost:    2.325 ave 29 max 0 min
Histogram: 33 3 0 1 0 1 1 0 0 1
Neighs:    1.725 ave 22 max 0 min
Histogram: 33 2 2 1 0 0 0 0 0 2

Total # of neighbors = 69
Ave neighs/atom = 0.152655
Neighbor list builds = 422
Dangerous builds = 0
Setting up run at Thu Dec  1 06:35:01 2022

Memory usage per processor = 1083.01 Mbytes
    Step    Atoms         KinEng            CPU 
27474019      452    0.080682588              0 
27628367      450    0.080392131      2083.3053 
Loop time of 2083.31 on 40 procs for 154348 steps with 450 atoms, finish time Thu Dec  1 07:09:44 2022


Pair  time (%) = 0.350011 (0.0168007)
Neigh time (%) = 0.140938 (0.0067651)
Comm  time (%) = 2.33132 (0.111905)
Outpt time (%) = 0.00109203 (5.24182e-05)
Other time (%) = 2080.48 (99.8645)

Nlocal:    11.25 ave 83 max 0 min
Histogram: 32 0 0 1 1 2 2 0 0 2
Nghost:    2.575 ave 23 max 0 min
Histogram: 29 5 1 1 0 1 1 0 1 1
Neighs:    1.75 ave 17 max 0 min
Histogram: 32 2 1 0 1 1 1 0 1 1

Total # of neighbors = 70
Ave neighs/atom = 0.155556
Neighbor list builds = 425
Dangerous builds = 0
Setting up run at Thu Dec  1 07:09:45 2022

Memory usage per processor = 1083.01 Mbytes
    Step    Atoms         KinEng            CPU 
27628367      450    0.080392131              0 
27782715      450    0.080537773      2103.8571 
Loop time of 2103.86 on 40 procs for 154348 steps with 450 atoms, finish time Thu Dec  1 07:44:48 2022


Pair  time (%) = 0.352043 (0.0167332)
Neigh time (%) = 0.139249 (0.00661875)
Comm  time (%) = 2.20083 (0.104609)
Outpt time (%) = 0.000858876 (4.08239e-05)
Other time (%) = 2101.16 (99.872)

Nlocal:    11.25 ave 83 max 0 min
Histogram: 32 0 0 0 3 1 2 0 0 2
Nghost:    2.6 ave 25 max 0 min
Histogram: 32 1 3 0 0 1 1 0 0 2
Neighs:    1.675 ave 20 max 0 min
Histogram: 33 1 2 0 2 0 0 0 1 1

Total # of neighbors = 67
Ave neighs/atom = 0.148889
Neighbor list builds = 421
Dangerous builds = 0
Setting up run at Thu Dec  1 07:44:48 2022

Memory usage per processor = 1083.01 Mbytes
    Step    Atoms         KinEng            CPU 
27782715      450    0.080537773              0 
27937063      450    0.080608522      2102.5999 
Loop time of 2102.6 on 40 procs for 154348 steps with 450 atoms, finish time Thu Dec  1 08:19:51 2022


Pair  time (%) = 0.35128 (0.016707)
Neigh time (%) = 0.142081 (0.0067574)
Comm  time (%) = 1.80271 (0.0857374)
Outpt time (%) = 0.00116618 (5.54638e-05)
Other time (%) = 2100.3 (99.8907)

Nlocal:    11.25 ave 83 max 0 min
Histogram: 32 0 0 0 2 2 2 0 0 2
Nghost:    2.75 ave 24 max 0 min
Histogram: 29 5 1 1 0 2 0 0 0 2
Neighs:    1.825 ave 19 max 0 min
Histogram: 32 1 0 3 1 1 1 0 0 1

Total # of neighbors = 73
Ave neighs/atom = 0.162222
Neighbor list builds = 429
Dangerous builds = 0
Setting up run at Thu Dec  1 08:19:51 2022

Memory usage per processor = 1083.01 Mbytes
    Step    Atoms         KinEng            CPU 
27937063      450    0.080608522              0 
28091411      450    0.080713341      2093.6319 
Loop time of 2093.63 on 40 procs for 154348 steps with 450 atoms, finish time Thu Dec  1 08:54:45 2022


Pair  time (%) = 0.348789 (0.0166595)
Neigh time (%) = 0.142046 (0.00678466)
Comm  time (%) = 2.33492 (0.111525)
Outpt time (%) = 0.000841914 (4.02131e-05)
Other time (%) = 2090.81 (99.865)

Nlocal:    11.25 ave 82 max 0 min
Histogram: 32 0 0 0 1 3 1 1 0 2
Nghost:    2.65 ave 27 max 0 min
Histogram: 31 4 1 0 0 2 0 1 0 1
Neighs:    1.8 ave 24 max 0 min
Histogram: 33 1 4 0 0 0 0 0 1 1

Total # of neighbors = 72
Ave neighs/atom = 0.16
Neighbor list builds = 429
Dangerous builds = 0
Setting up run at Thu Dec  1 08:54:45 2022

Memory usage per processor = 1083.01 Mbytes
    Step    Atoms         KinEng            CPU 
28091411      450    0.080713341              0 
28245759      450    0.081188993      2086.7264 
Loop time of 2086.73 on 40 procs for 154348 steps with 450 atoms, finish time Thu Dec  1 09:29:32 2022


Pair  time (%) = 0.353178 (0.016925)
Neigh time (%) = 0.142218 (0.00681537)
Comm  time (%) = 2.0649 (0.0989541)
Outpt time (%) = 0.00112622 (5.39706e-05)
Other time (%) = 2084.17 (99.8773)

Nlocal:    11.25 ave 82 max 0 min
Histogram: 32 0 0 0 1 3 2 0 0 2
Nghost:    2.5 ave 28 max 0 min
Histogram: 30 6 0 0 1 1 1 0 0 1
Neighs:    1.85 ave 18 max 0 min
Histogram: 32 0 2 3 0 0 1 0 1 1

Total # of neighbors = 74
Ave neighs/atom = 0.164444
Neighbor list builds = 429
Dangerous builds = 0
Setting up run at Thu Dec  1 09:29:32 2022

Memory usage per processor = 1083.01 Mbytes
    Step    Atoms         KinEng            CPU 
28245759      450    0.081188993              0 
28400107      449    0.080797661      2105.0567 
Loop time of 2105.06 on 40 procs for 154348 steps with 449 atoms, finish time Thu Dec  1 10:04:37 2022


Pair  time (%) = 0.352896 (0.0167642)
Neigh time (%) = 0.142187 (0.00675456)
Comm  time (%) = 2.24592 (0.106692)
Outpt time (%) = 0.000848486 (4.0307e-05)
Other time (%) = 2102.32 (99.8697)

Nlocal:    11.225 ave 82 max 0 min
Histogram: 32 0 0 1 2 1 1 1 0 2
Nghost:    2.275 ave 22 max 0 min
Histogram: 31 4 0 1 1 1 0 0 1 1
Neighs:    1.85 ave 24 max 0 min
Histogram: 33 2 3 0 0 0 0 0 0 2

Total # of neighbors = 74
Ave neighs/atom = 0.164811
Neighbor list builds = 429
Dangerous builds = 0
Setting up run at Thu Dec  1 10:04:37 2022

Memory usage per processor = 1083.01 Mbytes
    Step    Atoms         KinEng            CPU 
28400107      449    0.080797661              0 
28554455      449    0.080918647      2090.4752 
Loop time of 2090.48 on 40 procs for 154348 steps with 449 atoms, finish time Thu Dec  1 10:39:27 2022


Pair  time (%) = 0.352389 (0.0168569)
Neigh time (%) = 0.142302 (0.00680714)
Comm  time (%) = 2.11035 (0.100951)
Outpt time (%) = 0.00110953 (5.30755e-05)
Other time (%) = 2087.87 (99.8753)

Nlocal:    11.225 ave 82 max 0 min
Histogram: 32 0 0 1 1 2 1 0 1 2
Nghost:    2.6 ave 22 max 0 min
Histogram: 29 3 3 1 0 2 0 0 0 2
Neighs:    1.725 ave 21 max 0 min
Histogram: 33 1 2 1 0 1 1 0 0 1

Total # of neighbors = 69
Ave neighs/atom = 0.153675
Neighbor list builds = 429
Dangerous builds = 0
Setting up run at Thu Dec  1 10:39:27 2022

Memory usage per processor = 1083.01 Mbytes
    Step    Atoms         KinEng            CPU 
28554455      449    0.080918647              0 
28708803      449    0.080976358      2094.8963 
Loop time of 2094.9 on 40 procs for 154348 steps with 449 atoms, finish time Thu Dec  1 11:14:22 2022


Pair  time (%) = 0.35317 (0.0168586)
Neigh time (%) = 0.141906 (0.00677387)
Comm  time (%) = 2.19008 (0.104544)
Outpt time (%) = 0.000957719 (4.57168e-05)
Other time (%) = 2092.21 (99.8718)

Nlocal:    11.225 ave 83 max 0 min
Histogram: 32 0 0 2 1 1 0 1 1 2
Nghost:    2.625 ave 25 max 0 min
Histogram: 31 3 1 1 1 0 1 0 0 2
Neighs:    1.7 ave 22 max 0 min
Histogram: 33 1 4 0 0 0 0 0 0 2

Total # of neighbors = 68
Ave neighs/atom = 0.151448
Neighbor list builds = 429
Dangerous builds = 0
Setting up run at Thu Dec  1 11:14:22 2022

Memory usage per processor = 1083.01 Mbytes
    Step    Atoms         KinEng            CPU 
28708803      449    0.080976358              0 
28863151      448    0.081071202      2116.8535 
Loop time of 2116.85 on 40 procs for 154348 steps with 448 atoms, finish time Thu Dec  1 11:49:39 2022


Pair  time (%) = 0.353145 (0.0166825)
Neigh time (%) = 0.141943 (0.0067054)
Comm  time (%) = 2.39902 (0.11333)
Outpt time (%) = 0.00116433 (5.50026e-05)
Other time (%) = 2113.96 (99.8632)

Nlocal:    11.2 ave 82 max 0 min
Histogram: 32 0 0 1 2 1 1 0 1 2
Nghost:    2.65 ave 27 max 0 min
Histogram: 30 4 1 1 2 0 0 1 0 1
Neighs:    1.675 ave 20 max 0 min
Histogram: 33 1 0 2 1 1 1 0 0 1

Total # of neighbors = 67
Ave neighs/atom = 0.149554
Neighbor list builds = 429
Dangerous builds = 0
Setting up run at Thu Dec  1 11:49:39 2022

Memory usage per processor = 1083.01 Mbytes
    Step    Atoms         KinEng            CPU 
28863151      448    0.081071202              0 
29017499      448    0.080983788      2136.5655 
Loop time of 2136.57 on 40 procs for 154348 steps with 448 atoms, finish time Thu Dec  1 12:25:16 2022


Pair  time (%) = 0.355645 (0.0166456)
Neigh time (%) = 0.141456 (0.00662073)
Comm  time (%) = 2.03589 (0.0952879)
Outpt time (%) = 0.00078158 (3.65811e-05)
Other time (%) = 2134.03 (99.8814)

Nlocal:    11.2 ave 81 max 0 min
Histogram: 32 0 0 1 2 1 0 1 1 2
Nghost:    2.275 ave 30 max 0 min
Histogram: 33 3 0 0 2 0 1 0 0 1
Neighs:    1.725 ave 24 max 0 min
Histogram: 32 4 2 0 0 0 0 0 0 2

Total # of neighbors = 69
Ave neighs/atom = 0.154018
Neighbor list builds = 428
Dangerous builds = 0
Setting up run at Thu Dec  1 12:25:16 2022

Memory usage per processor = 1083.01 Mbytes
    Step    Atoms         KinEng            CPU 
29017499      448    0.080983788              0 
29171847      448    0.081131013      2097.4782 
Loop time of 2097.48 on 40 procs for 154348 steps with 448 atoms, finish time Thu Dec  1 13:00:14 2022


Pair  time (%) = 0.353285 (0.0168433)
Neigh time (%) = 0.141339 (0.0067385)
Comm  time (%) = 1.84764 (0.0880886)
Outpt time (%) = 0.00116359 (5.54754e-05)
Other time (%) = 2095.13 (99.8883)

Nlocal:    11.2 ave 81 max 0 min
Histogram: 32 0 0 1 2 0 2 1 0 2
Nghost:    2.425 ave 25 max 0 min
Histogram: 31 3 2 0 1 1 0 1 0 1
Neighs:    1.825 ave 21 max 0 min
Histogram: 33 1 2 0 1 1 0 0 1 1

Total # of neighbors = 73
Ave neighs/atom = 0.162946
Neighbor list builds = 427
Dangerous builds = 0
Setting up run at Thu Dec  1 13:00:14 2022

Memory usage per processor = 1083.01 Mbytes
    Step    Atoms         KinEng            CPU 
29171847      448    0.081131013              0 
29326195      448    0.081271008      2194.4675 
Loop time of 2194.47 on 40 procs for 154348 steps with 448 atoms, finish time Thu Dec  1 13:36:48 2022


Pair  time (%) = 0.354059 (0.0161342)
Neigh time (%) = 0.141735 (0.00645874)
Comm  time (%) = 1.89996 (0.0865797)
Outpt time (%) = 0.00125229 (5.70655e-05)
Other time (%) = 2192.07 (99.8908)

Nlocal:    11.2 ave 81 max 0 min
Histogram: 32 0 0 1 2 0 1 2 0 2
Nghost:    2.225 ave 25 max 0 min
Histogram: 32 3 1 1 0 1 0 0 1 1
Neighs:    1.875 ave 25 max 0 min
Histogram: 34 2 1 1 0 0 0 0 0 2

Total # of neighbors = 75
Ave neighs/atom = 0.167411
Neighbor list builds = 428
Dangerous builds = 0
Setting up run at Thu Dec  1 13:36:48 2022

Memory usage per processor = 1083.01 Mbytes
    Step    Atoms         KinEng            CPU 
29326195      448    0.081271008              0 
29480543      448    0.081230669      2102.5759 
Loop time of 2102.59 on 40 procs for 154348 steps with 448 atoms, finish time Thu Dec  1 14:11:51 2022


Pair  time (%) = 0.355659 (0.0169152)
Neigh time (%) = 0.141698 (0.00673919)
Comm  time (%) = 1.77574 (0.0844546)
Outpt time (%) = 0.000745298 (3.54466e-05)
Other time (%) = 2100.32 (99.8919)

Nlocal:    11.2 ave 81 max 0 min
Histogram: 32 0 0 1 0 2 2 1 0 2
Nghost:    2.35 ave 26 max 0 min
Histogram: 31 3 2 1 0 1 0 1 0 1
Neighs:    2 ave 25 max 0 min
Histogram: 33 2 1 0 2 0 0 1 0 1

Total # of neighbors = 80
Ave neighs/atom = 0.178571
Neighbor list builds = 428
Dangerous builds = 0
Setting up run at Thu Dec  1 14:11:51 2022

Memory usage per processor = 1083.01 Mbytes
    Step    Atoms         KinEng            CPU 
29480543      448    0.081230669              0 
29634891      448    0.081380405      2177.7814 
Loop time of 2177.78 on 40 procs for 154348 steps with 448 atoms, finish time Thu Dec  1 14:48:09 2022


Pair  time (%) = 0.352087 (0.0161672)
Neigh time (%) = 0.142441 (0.00654062)
Comm  time (%) = 1.98459 (0.0911289)
Outpt time (%) = 0.00123768 (5.68322e-05)
Other time (%) = 2175.3 (99.8861)

Nlocal:    11.2 ave 81 max 0 min
Histogram: 32 0 0 0 3 0 2 1 0 2
Nghost:    2.4 ave 26 max 0 min
Histogram: 31 4 0 1 1 2 0 0 0 1
Neighs:    1.775 ave 26 max 0 min
Histogram: 34 2 1 1 0 0 1 0 0 1

Total # of neighbors = 71
Ave neighs/atom = 0.158482
Neighbor list builds = 429
Dangerous builds = 0
Setting up run at Thu Dec  1 14:48:09 2022

Memory usage per processor = 1083.01 Mbytes
    Step    Atoms         KinEng            CPU 
29634891      448    0.081380405              0 
29789239      448    0.081521674      2137.5797 
Loop time of 2137.58 on 40 procs for 154348 steps with 448 atoms, finish time Thu Dec  1 15:23:46 2022


Pair  time (%) = 0.35014 (0.0163802)
Neigh time (%) = 0.141091 (0.00660049)
Comm  time (%) = 1.88973 (0.0884051)
Outpt time (%) = 0.000821339 (3.84238e-05)
Other time (%) = 2135.2 (99.8886)

Nlocal:    11.2 ave 79 max 0 min
Histogram: 31 1 0 0 1 1 4 0 0 2
Nghost:    2.475 ave 31 max 0 min
Histogram: 33 3 1 0 0 2 0 0 0 1
Neighs:    1.8 ave 21 max 0 min
Histogram: 34 2 0 0 1 1 0 0 0 2

Total # of neighbors = 72
Ave neighs/atom = 0.160714
Neighbor list builds = 427
Dangerous builds = 0
Setting up run at Thu Dec  1 15:23:46 2022

Memory usage per processor = 1083.01 Mbytes
    Step    Atoms         KinEng            CPU 
29789239      448    0.081521674              0 
29943587      448      0.0819002      2312.6602 
Loop time of 2312.67 on 40 procs for 154348 steps with 448 atoms, finish time Thu Dec  1 16:02:19 2022


Pair  time (%) = 0.352032 (0.0152219)
Neigh time (%) = 0.141005 (0.00609709)
Comm  time (%) = 1.99198 (0.0861337)
Outpt time (%) = 0.00117551 (5.08291e-05)
Other time (%) = 2310.18 (99.8925)

Nlocal:    11.2 ave 79 max 0 min
Histogram: 31 1 0 0 3 1 0 1 1 2
Nghost:    2.3 ave 24 max 0 min
Histogram: 30 3 3 1 0 1 0 1 0 1
Neighs:    1.875 ave 29 max 0 min
Histogram: 34 3 1 0 0 0 0 0 1 1

Total # of neighbors = 75
Ave neighs/atom = 0.167411
Neighbor list builds = 426
Dangerous builds = 0
Setting up run at Thu Dec  1 16:02:19 2022

Memory usage per processor = 1083.01 Mbytes
    Step    Atoms         KinEng            CPU 
29943587      448      0.0819002              0 
30097935      447     0.08143207      2276.3841 
Loop time of 2276.38 on 40 procs for 154348 steps with 447 atoms, finish time Thu Dec  1 16:40:16 2022


Pair  time (%) = 0.353361 (0.0155229)
Neigh time (%) = 0.142216 (0.00624744)
Comm  time (%) = 2.21697 (0.09739)
Outpt time (%) = 0.000783295 (3.44096e-05)
Other time (%) = 2273.67 (99.8808)

Nlocal:    11.175 ave 81 max 0 min
Histogram: 32 0 0 0 2 1 2 1 0 2
Nghost:    2.425 ave 23 max 0 min
Histogram: 32 2 1 1 1 0 1 0 0 2
Neighs:    1.925 ave 22 max 0 min
Histogram: 33 3 0 0 1 1 0 0 0 2

Total # of neighbors = 77
Ave neighs/atom = 0.17226
Neighbor list builds = 428
Dangerous builds = 0
Setting up run at Thu Dec  1 16:40:16 2022

Memory usage per processor = 1083.01 Mbytes
    Step    Atoms         KinEng            CPU 
30097935      447     0.08143207              0 
30252283      447    0.081596896      2106.5813 
Loop time of 2106.58 on 40 procs for 154348 steps with 447 atoms, finish time Thu Dec  1 17:15:22 2022


Pair  time (%) = 0.353873 (0.0167984)
Neigh time (%) = 0.142601 (0.00676932)
Comm  time (%) = 2.18854 (0.10389)
Outpt time (%) = 0.00125103 (5.93867e-05)
Other time (%) = 2103.9 (99.8725)

Nlocal:    11.175 ave 82 max 0 min
Histogram: 32 0 0 0 3 1 1 0 1 2
Nghost:    2.2 ave 23 max 0 min
Histogram: 32 3 2 0 0 1 0 0 0 2
Neighs:    1.925 ave 29 max 0 min
Histogram: 33 4 1 0 0 0 0 0 1 1

Total # of neighbors = 77
Ave neighs/atom = 0.17226
Neighbor list builds = 431
Dangerous builds = 0
Setting up run at Thu Dec  1 17:15:22 2022

Memory usage per processor = 1083.01 Mbytes
    Step    Atoms         KinEng            CPU 
30252283      447    0.081596896              0 
30406631      447    0.081565315      2241.0204 
Loop time of 2241.02 on 40 procs for 154348 steps with 447 atoms, finish time Thu Dec  1 17:52:43 2022


Pair  time (%) = 0.354557 (0.0158212)
Neigh time (%) = 0.144059 (0.00642827)
Comm  time (%) = 2.34179 (0.104496)
Outpt time (%) = 0.00113307 (5.05603e-05)
Other time (%) = 2238.18 (99.8732)

Nlocal:    11.175 ave 82 max 0 min
Histogram: 32 0 0 0 1 3 1 1 0 2
Nghost:    2.525 ave 22 max 0 min
Histogram: 31 3 2 1 0 0 0 1 0 2
Neighs:    1.975 ave 24 max 0 min
Histogram: 33 2 1 1 1 0 0 0 0 2

Total # of neighbors = 79
Ave neighs/atom = 0.176734
Neighbor list builds = 434
Dangerous builds = 0
Setting up run at Thu Dec  1 17:52:43 2022

Memory usage per processor = 1083.01 Mbytes
    Step    Atoms         KinEng            CPU 
30406631      447    0.081565315              0 
30560979      447    0.081689225       2170.264 
Loop time of 2170.26 on 40 procs for 154348 steps with 447 atoms, finish time Thu Dec  1 18:28:54 2022


Pair  time (%) = 0.357523 (0.0164737)
Neigh time (%) = 0.143861 (0.00662872)
Comm  time (%) = 2.45649 (0.113189)
Outpt time (%) = 0.000875821 (4.03555e-05)
Other time (%) = 2167.31 (99.8637)

Nlocal:    11.175 ave 83 max 0 min
Histogram: 32 0 0 0 4 0 1 1 1 1
Nghost:    2.275 ave 24 max 0 min
Histogram: 31 4 2 0 0 1 0 0 0 2
Neighs:    1.825 ave 27 max 0 min
Histogram: 33 4 1 0 0 0 0 0 1 1

Total # of neighbors = 73
Ave neighs/atom = 0.163311
Neighbor list builds = 434
Dangerous builds = 0
Setting up run at Thu Dec  1 18:28:54 2022

Memory usage per processor = 1083.01 Mbytes
    Step    Atoms         KinEng            CPU 
30560979      447    0.081689225              0 
30715327      447    0.081830911      3137.3779 
Loop time of 3137.38 on 40 procs for 154348 steps with 447 atoms, finish time Thu Dec  1 19:21:11 2022


Pair  time (%) = 0.354443 (0.0112974)
Neigh time (%) = 0.143952 (0.00458828)
Comm  time (%) = 2.42333 (0.0772405)
Outpt time (%) = 0.00107694 (3.4326e-05)
Other time (%) = 3134.46 (99.9068)

Nlocal:    11.175 ave 86 max 0 min
Histogram: 32 0 0 0 2 2 2 0 1 1
Nghost:    2.375 ave 24 max 0 min
Histogram: 30 4 2 1 0 1 0 1 0 1
Neighs:    1.95 ave 23 max 0 min
Histogram: 33 3 0 0 2 0 0 0 0 2

Total # of neighbors = 78
Ave neighs/atom = 0.174497
Neighbor list builds = 434
Dangerous builds = 0
Setting up run at Thu Dec  1 19:21:11 2022

Memory usage per processor = 1083.01 Mbytes
    Step    Atoms         KinEng            CPU 
30715327      447    0.081830911              0 
30869675      447    0.081905601      2102.0936 
Loop time of 2102.09 on 40 procs for 154348 steps with 447 atoms, finish time Thu Dec  1 19:56:13 2022


Pair  time (%) = 0.357706 (0.0170166)
Neigh time (%) = 0.14402 (0.00685128)
Comm  time (%) = 2.46363 (0.117199)
Outpt time (%) = 9.44602e-05 (4.49362e-06)
Other time (%) = 2099.13 (99.8589)

Nlocal:    11.175 ave 85 max 0 min
Histogram: 32 0 0 0 3 1 2 0 1 1
Nghost:    2.3 ave 28 max 0 min
Histogram: 32 3 2 0 1 0 1 0 0 1
Neighs:    1.925 ave 28 max 0 min
Histogram: 34 2 2 0 0 0 0 0 0 2

Total # of neighbors = 77
Ave neighs/atom = 0.17226
Neighbor list builds = 434
Dangerous builds = 0
Setting up run at Thu Dec  1 19:56:13 2022

Memory usage per processor = 1083.01 Mbytes
    Step    Atoms         KinEng            CPU 
30869675      447    0.081905601              0 
30869748      447    0.081807215     0.95853665 
Loop time of 0.958552 on 40 procs for 73 steps with 447 atoms, finish time Thu Dec  1 19:56:14 2022


Pair  time (%) = 0.000168931 (0.0176236)
Neigh time (%) = 0 (0)
Comm  time (%) = 0.000275334 (0.028724)
Outpt time (%) = 0.000843509 (0.0879983)
Other time (%) = 0.957264 (99.8657)

Nlocal:    11.175 ave 85 max 0 min
Histogram: 32 0 0 0 3 1 2 0 1 1
Nghost:    2.3 ave 28 max 0 min
Histogram: 32 3 2 0 1 0 1 0 0 1
Neighs:    1.925 ave 28 max 0 min
Histogram: 34 2 2 0 0 0 0 0 0 2

Total # of neighbors = 77
Ave neighs/atom = 0.17226
Neighbor list builds = 0
Dangerous builds = 0
