LIGGGHTS (Version LIGGGHTS-PUBLIC 3.8.0, compiled 2022-11-07-16:55:38 by serperd1, git commit 86544c3f1215bc9744d7929e3eacf53ba086af9e)
Created orthogonal box = (-0.15 -0.15 -0.15) to (0.15 0.15 0.15)
  2 by 4 by 5 MPI processor grid

Reading STL file 'cone.stl' (mesh processing step 1/3) 

Reading STL file 'in_cyl.stl' (mesh processing step 1/3) 

Reading STL file 'top_cyl.stl' (mesh processing step 1/3) 

Reading STL file 'bot_cyl.stl' (mesh processing step 1/3) 

Reading STL file 'bottom_disk.stl' (mesh processing step 1/3) 

Reading STL file 'top_disk.stl' (mesh processing step 1/3) 
Fix particledistribution/discrete (id prob_par): distribution based on mass%:
    r_0to10p: d=1.260000e-04 (max. bounding sphere) mass%=10.000000%
    r_10to50p: d=3.492000e-04 (max. bounding sphere) mass%=40.000000%
    r_50to90p: d=1.269900e-03 (max. bounding sphere) mass%=40.000000%
    r_90to100p: d=1.968300e-03 (max. bounding sphere) mass%=10.000000%
Fix particledistribution/discrete (id prob_par): distribution based on number%:
    r_0to10p: d=1.260000e-04 (max. bounding sphere) number%=83.887052%
    r_10to50p: d=3.492000e-04 (max. bounding sphere) number%=15.763181%
    r_50to90p: d=1.269900e-03 (max. bounding sphere) number%=0.327762%
    r_90to100p: d=1.968300e-03 (max. bounding sphere) number%=0.022006%
Setting up run at Thu Nov 24 02:09:33 2022

Import and parallelization of mesh cone_mesh containing 868 triangle(s) successful
Import and parallelization of mesh inlet_cyl_wall_mesh containing 1064 triangle(s) successful
Import and parallelization of mesh top_cyl_wall_mesh containing 682 triangle(s) successful
Import and parallelization of mesh bot_cyl_wall_mesh containing 1280 triangle(s) successful
Import and parallelization of mesh bot_disk_wall_mesh containing 1682 triangle(s) successful
Import and parallelization of mesh top_disk_wall_mesh containing 1144 triangle(s) successful
Memory usage per processor = 955.842 Mbytes
    Step    Atoms         KinEng            CPU 
       0        0              0              0 
Loop time of 6.84719e-05 on 40 procs for 0 steps with 0 atoms, finish time Thu Nov 24 02:09:33 2022


Pair  time (%) = 0 (0)
Neigh time (%) = 0 (0)
Comm  time (%) = 0 (0)
Outpt time (%) = 0 (0)
Other time (%) = 6.84719e-05 (100)

Nlocal:    0 ave 0 max 0 min
Histogram: 40 0 0 0 0 0 0 0 0 0
Nghost:    0 ave 0 max 0 min
Histogram: 40 0 0 0 0 0 0 0 0 0
Neighs:    0 ave 0 max 0 min
Histogram: 40 0 0 0 0 0 0 0 0 0

Total # of neighbors = 0
Neighbor list builds = 0
Dangerous builds = 0
Setting up run at Thu Nov 24 02:09:33 2022

Memory usage per processor = 955.842 Mbytes
    Step    Atoms         KinEng            CPU 
       0        0              0              0 
       1        0              0    0.009589404 
Loop time of 0.00962554 on 40 procs for 1 steps with 0 atoms, finish time Thu Nov 24 02:09:33 2022


Pair  time (%) = 2.6375e-06 (0.0274011)
Neigh time (%) = 0 (0)
Comm  time (%) = 0.000209044 (2.17177)
Outpt time (%) = 0.000106809 (1.10964)
Other time (%) = 0.00930705 (96.6912)

Nlocal:    0 ave 0 max 0 min
Histogram: 40 0 0 0 0 0 0 0 0 0
Nghost:    0 ave 0 max 0 min
Histogram: 40 0 0 0 0 0 0 0 0 0
Neighs:    0 ave 0 max 0 min
Histogram: 40 0 0 0 0 0 0 0 0 0

Total # of neighbors = 0
Neighbor list builds = 0
Dangerous builds = 0
Scanning dump file ...
Reading snapshot from dump file ...
  orthogonal box = (-0.15 -0.15 -0.15) to (0.15 0.15 0.15)
  0 atoms before read
  1331 atoms in snapshot
  0 atoms purged
  0 atoms replaced
  0 atoms trimmed
  1331 atoms added
  1331 atoms after read
Setting atom values ...
  1331 settings made for type
  1331 settings made for density
  1331 settings made for vy
Setting up run at Thu Nov 24 02:09:33 2022

Memory usage per processor = 960.195 Mbytes
    Step    Atoms         KinEng            CPU 
       1     1331    2.04396e-07              0 
       2     1331  2.5455856e-07    0.008946318 
Loop time of 0.00896086 on 40 procs for 1 steps with 1331 atoms, finish time Thu Nov 24 02:09:33 2022


Pair  time (%) = 2.49042e-06 (0.0277923)
Neigh time (%) = 0 (0)
Comm  time (%) = 5.57515e-06 (0.0622167)
Outpt time (%) = 9.52992e-05 (1.06351)
Other time (%) = 0.00885749 (98.8465)

Nlocal:    33.275 ave 555 max 0 min
Histogram: 36 0 2 0 0 0 0 0 0 2
Nghost:    13.575 ave 173 max 0 min
Histogram: 36 0 0 0 0 1 1 0 0 2
Neighs:    10.175 ave 168 max 0 min
Histogram: 36 0 2 0 0 0 0 0 0 2

Total # of neighbors = 407
Ave neighs/atom = 0.305785
Neighbor list builds = 0
Dangerous builds = 0
Setting up run at Thu Nov 24 02:09:33 2022

Memory usage per processor = 960.195 Mbytes
    Step    Atoms         KinEng            CPU 
       2     1331  2.5455856e-07              0 
  205763     1331  6.9273694e-05      2016.5457 
Loop time of 2016.55 on 40 procs for 205761 steps with 1331 atoms, finish time Thu Nov 24 02:43:10 2022


Pair  time (%) = 0.502541 (0.0249209)
Neigh time (%) = 0.412325 (0.0204471)
Comm  time (%) = 1.19613 (0.0593156)
Outpt time (%) = 0.000211443 (1.04854e-05)
Other time (%) = 2014.43 (99.8953)

Nlocal:    33.275 ave 551 max 0 min
Histogram: 36 0 2 0 0 0 0 0 0 2
Nghost:    13.8 ave 171 max 0 min
Histogram: 36 0 0 0 0 1 1 0 0 2
Neighs:    11.175 ave 191 max 0 min
Histogram: 36 1 1 0 0 0 0 0 1 1

Total # of neighbors = 447
Ave neighs/atom = 0.335838
Neighbor list builds = 550
Dangerous builds = 0
Setting up run at Thu Nov 24 02:43:10 2022

Memory usage per processor = 960.195 Mbytes
    Step    Atoms         KinEng            CPU 
  205763     1331  6.9273694e-05              0 
  411524     1331  0.00040217614      2012.0138 
Loop time of 2012.01 on 40 procs for 205761 steps with 1331 atoms, finish time Thu Nov 24 03:16:42 2022


Pair  time (%) = 0.507681 (0.0252325)
Neigh time (%) = 0.411555 (0.0204549)
Comm  time (%) = 1.21904 (0.0605881)
Outpt time (%) = 0.000505946 (2.51462e-05)
Other time (%) = 2009.88 (99.8937)

Nlocal:    33.275 ave 538 max 0 min
Histogram: 36 0 2 0 0 0 0 0 0 2
Nghost:    13.625 ave 169 max 0 min
Histogram: 36 0 0 0 0 1 1 0 0 2
Neighs:    11.725 ave 197 max 0 min
Histogram: 36 1 1 0 0 0 0 0 0 2

Total # of neighbors = 469
Ave neighs/atom = 0.352367
Neighbor list builds = 550
Dangerous builds = 0
Setting up run at Thu Nov 24 03:16:42 2022

Memory usage per processor = 960.195 Mbytes
    Step    Atoms         KinEng            CPU 
  411524     1331  0.00040217614              0 
  617285     1331  0.00067128357      2018.5499 
Loop time of 2018.55 on 40 procs for 205761 steps with 1331 atoms, finish time Thu Nov 24 03:50:20 2022


Pair  time (%) = 0.508224 (0.0251777)
Neigh time (%) = 0.413052 (0.0204628)
Comm  time (%) = 1.35219 (0.0669884)
Outpt time (%) = 0.000554459 (2.74682e-05)
Other time (%) = 2016.28 (99.8873)

Nlocal:    33.275 ave 522 max 0 min
Histogram: 36 0 2 0 0 0 0 0 0 2
Nghost:    13.05 ave 158 max 0 min
Histogram: 36 0 0 0 0 0 1 1 0 2
Neighs:    11.9 ave 190 max 0 min
Histogram: 36 0 2 0 0 0 0 0 0 2

Total # of neighbors = 476
Ave neighs/atom = 0.357626
Neighbor list builds = 550
Dangerous builds = 0
Setting up run at Thu Nov 24 03:50:20 2022

Memory usage per processor = 960.195 Mbytes
    Step    Atoms         KinEng            CPU 
  617285     1331  0.00067128357              0 
  823046     1331    0.078125317      2041.2283 
Loop time of 2041.23 on 40 procs for 205761 steps with 1331 atoms, finish time Thu Nov 24 04:24:22 2022


Pair  time (%) = 0.513391 (0.025151)
Neigh time (%) = 3.03806 (0.148835)
Comm  time (%) = 3.51585 (0.172242)
Outpt time (%) = 0.000300062 (1.47001e-05)
Other time (%) = 2034.16 (99.6538)

Nlocal:    33.275 ave 512 max 0 min
Histogram: 36 0 1 1 0 0 0 0 0 2
Nghost:    12.925 ave 161 max 0 min
Histogram: 36 0 0 0 0 1 1 0 0 2
Neighs:    12.575 ave 203 max 0 min
Histogram: 36 0 2 0 0 0 0 0 0 2

Total # of neighbors = 503
Ave neighs/atom = 0.377911
Neighbor list builds = 3833
Dangerous builds = 0
Setting up run at Thu Nov 24 04:24:22 2022

Memory usage per processor = 960.195 Mbytes
    Step    Atoms         KinEng            CPU 
  823046     1331    0.078125317              0 
 1028807     1331    0.061363951      2056.3351 
Loop time of 2056.34 on 40 procs for 205761 steps with 1331 atoms, finish time Thu Nov 24 04:58:38 2022


Pair  time (%) = 0.522311 (0.0254001)
Neigh time (%) = 4.48995 (0.218347)
Comm  time (%) = 4.46357 (0.217064)
Outpt time (%) = 0.000580358 (2.82229e-05)
Other time (%) = 2046.86 (99.5392)

Nlocal:    33.275 ave 498 max 0 min
Histogram: 36 0 1 1 0 0 0 0 0 2
Nghost:    12.25 ave 159 max 0 min
Histogram: 36 0 0 0 0 1 1 0 0 2
Neighs:    12.65 ave 194 max 0 min
Histogram: 36 0 1 1 0 0 0 0 0 2

Total # of neighbors = 506
Ave neighs/atom = 0.380165
Neighbor list builds = 5641
Dangerous builds = 0
Setting up run at Thu Nov 24 04:58:38 2022

Memory usage per processor = 960.195 Mbytes
    Step    Atoms         KinEng            CPU 
 1028807     1331    0.061363951              0 
 1234568     1329    0.052970766      2062.0954 
Loop time of 2062.1 on 40 procs for 205761 steps with 1329 atoms, finish time Thu Nov 24 05:33:00 2022


Pair  time (%) = 0.517902 (0.0251153)
Neigh time (%) = 4.22114 (0.204701)
Comm  time (%) = 3.8909 (0.188686)
Outpt time (%) = 0.000266242 (1.29112e-05)
Other time (%) = 2053.47 (99.5815)

Nlocal:    33.225 ave 496 max 0 min
Histogram: 36 0 1 1 0 0 0 0 0 2
Nghost:    11.675 ave 155 max 0 min
Histogram: 36 0 0 0 0 2 0 0 1 1
Neighs:    11.9 ave 183 max 0 min
Histogram: 36 0 1 1 0 0 0 0 0 2

Total # of neighbors = 476
Ave neighs/atom = 0.358164
Neighbor list builds = 5285
Dangerous builds = 90
Setting up run at Thu Nov 24 05:33:00 2022

Memory usage per processor = 960.195 Mbytes
    Step    Atoms         KinEng            CPU 
 1234568     1329    0.052970766              0 
 1440329     1327     0.15203603      2060.1055 
Loop time of 2060.11 on 40 procs for 205761 steps with 1327 atoms, finish time Thu Nov 24 06:07:21 2022


Pair  time (%) = 0.517871 (0.0251381)
Neigh time (%) = 4.80994 (0.23348)
Comm  time (%) = 4.5247 (0.219634)
Outpt time (%) = 0.000575325 (2.7927e-05)
Other time (%) = 2050.25 (99.5217)

Nlocal:    33.175 ave 490 max 0 min
Histogram: 36 0 1 1 0 0 0 0 0 2
Nghost:    11 ave 140 max 0 min
Histogram: 36 0 0 0 0 1 1 0 0 2
Neighs:    11.925 ave 180 max 0 min
Histogram: 36 0 0 1 1 0 0 0 0 2

Total # of neighbors = 477
Ave neighs/atom = 0.359457
Neighbor list builds = 6022
Dangerous builds = 388
Setting up run at Thu Nov 24 06:07:21 2022

Memory usage per processor = 960.195 Mbytes
    Step    Atoms         KinEng            CPU 
 1440329     1327     0.15203603              0 
 1646090     1326     0.11030911      2058.0899 
Loop time of 2058.09 on 40 procs for 205761 steps with 1326 atoms, finish time Thu Nov 24 06:41:39 2022


Pair  time (%) = 0.510983 (0.024828)
Neigh time (%) = 4.49702 (0.218505)
Comm  time (%) = 3.65275 (0.177483)
Outpt time (%) = 0.000323911 (1.57384e-05)
Other time (%) = 2049.43 (99.5792)

Nlocal:    33.15 ave 487 max 0 min
Histogram: 36 0 0 2 0 0 0 0 0 2
Nghost:    10.65 ave 135 max 0 min
Histogram: 36 0 0 0 0 0 2 0 0 2
Neighs:    11.725 ave 178 max 0 min
Histogram: 36 0 0 2 0 0 0 0 0 2

Total # of neighbors = 469
Ave neighs/atom = 0.353695
Neighbor list builds = 5614
Dangerous builds = 350
Setting up run at Thu Nov 24 06:41:39 2022

Memory usage per processor = 960.195 Mbytes
    Step    Atoms         KinEng            CPU 
 1646090     1326     0.11030911              0 
 1851851     1322    0.044397004      2066.4816 
Loop time of 2066.48 on 40 procs for 205761 steps with 1322 atoms, finish time Thu Nov 24 07:16:05 2022


Pair  time (%) = 0.516695 (0.0250036)
Neigh time (%) = 4.72167 (0.228489)
Comm  time (%) = 4.34954 (0.21048)
Outpt time (%) = 0.000566189 (2.73987e-05)
Other time (%) = 2056.89 (99.536)

Nlocal:    33.05 ave 485 max 0 min
Histogram: 36 0 1 1 0 0 0 0 0 2
Nghost:    10.4 ave 139 max 0 min
Histogram: 36 0 0 0 0 2 0 0 1 1
Neighs:    11.7 ave 178 max 0 min
Histogram: 36 0 0 2 0 0 0 0 0 2

Total # of neighbors = 468
Ave neighs/atom = 0.354009
Neighbor list builds = 5896
Dangerous builds = 288
Setting up run at Thu Nov 24 07:16:05 2022

Memory usage per processor = 960.195 Mbytes
    Step    Atoms         KinEng            CPU 
 1851851     1322    0.044397004              0 
 2057612     1317    0.081629183      2067.8332 
Loop time of 2067.83 on 40 procs for 205761 steps with 1317 atoms, finish time Thu Nov 24 07:50:33 2022


Pair  time (%) = 0.517157 (0.0250096)
Neigh time (%) = 5.09932 (0.246602)
Comm  time (%) = 7.50906 (0.363137)
Outpt time (%) = 0.000351178 (1.69829e-05)
Other time (%) = 2054.71 (99.3652)

Nlocal:    32.925 ave 480 max 0 min
Histogram: 36 0 1 1 0 0 0 0 0 2
Nghost:    10.2 ave 135 max 0 min
Histogram: 36 0 0 0 0 1 1 0 1 1
Neighs:    11.225 ave 176 max 0 min
Histogram: 36 0 0 2 0 0 0 0 0 2

Total # of neighbors = 449
Ave neighs/atom = 0.340926
Neighbor list builds = 6388
Dangerous builds = 256
Setting up run at Thu Nov 24 07:50:33 2022

Memory usage per processor = 960.195 Mbytes
    Step    Atoms         KinEng            CPU 
 2057612     1317    0.081629183              0 
 2263373     1307     0.17709328      2081.2697 
Loop time of 2081.27 on 40 procs for 205761 steps with 1307 atoms, finish time Thu Nov 24 08:25:15 2022


Pair  time (%) = 0.518617 (0.0249183)
Neigh time (%) = 6.21183 (0.298464)
Comm  time (%) = 7.1856 (0.345251)
Outpt time (%) = 0.000498628 (2.39579e-05)
Other time (%) = 2067.35 (99.3313)

Nlocal:    32.675 ave 477 max 0 min
Histogram: 36 0 1 1 0 0 0 0 0 2
Nghost:    10.125 ave 125 max 0 min
Histogram: 36 0 0 0 0 0 2 0 0 2
Neighs:    10.65 ave 170 max 0 min
Histogram: 36 0 1 1 0 0 0 0 0 2

Total # of neighbors = 426
Ave neighs/atom = 0.325937
Neighbor list builds = 7747
Dangerous builds = 506
Setting up run at Thu Nov 24 08:25:15 2022

Memory usage per processor = 960.195 Mbytes
    Step    Atoms         KinEng            CPU 
 2263373     1307     0.17709328              0 
 2469134     1297     0.21570817      2085.9284 
Loop time of 2085.93 on 40 procs for 205761 steps with 1297 atoms, finish time Thu Nov 24 09:00:01 2022


Pair  time (%) = 0.515883 (0.0247316)
Neigh time (%) = 7.8384 (0.375775)
Comm  time (%) = 10.0888 (0.483662)
Outpt time (%) = 0.000337354 (1.61729e-05)
Other time (%) = 2067.49 (99.1158)

Nlocal:    32.425 ave 479 max 0 min
Histogram: 36 0 2 0 0 0 0 0 0 2
Nghost:    9.475 ave 123 max 0 min
Histogram: 36 0 0 0 0 1 1 0 1 1
Neighs:    10.8 ave 177 max 0 min
Histogram: 36 1 1 0 0 0 0 0 0 2

Total # of neighbors = 432
Ave neighs/atom = 0.333076
Neighbor list builds = 9783
Dangerous builds = 131
Setting up run at Thu Nov 24 09:00:01 2022

Memory usage per processor = 960.195 Mbytes
    Step    Atoms         KinEng            CPU 
 2469134     1297     0.21570817              0 
 2674895     1285     0.28565663      2135.4246 
Loop time of 2135.42 on 40 procs for 205761 steps with 1285 atoms, finish time Thu Nov 24 09:35:36 2022


Pair  time (%) = 0.533346 (0.0249761)
Neigh time (%) = 13.2728 (0.621555)
Comm  time (%) = 14.4804 (0.678104)
Outpt time (%) = 0.00050481 (2.36398e-05)
Other time (%) = 2107.14 (98.6753)

Nlocal:    32.125 ave 478 max 0 min
Histogram: 36 0 2 0 0 0 0 0 0 2
Nghost:    9.425 ave 116 max 0 min
Histogram: 36 0 0 0 0 0 2 0 1 1
Neighs:    10.575 ave 178 max 0 min
Histogram: 36 1 1 0 0 0 0 0 1 1

Total # of neighbors = 423
Ave neighs/atom = 0.329183
Neighbor list builds = 16554
Dangerous builds = 1087
Setting up run at Thu Nov 24 09:35:36 2022

Memory usage per processor = 960.195 Mbytes
    Step    Atoms         KinEng            CPU 
 2674895     1285     0.28565663              0 
 2880656     1280     0.28443125      2111.6089 
Loop time of 2111.61 on 40 procs for 205761 steps with 1280 atoms, finish time Thu Nov 24 10:10:48 2022


Pair  time (%) = 0.518692 (0.0245638)
Neigh time (%) = 10.0616 (0.476488)
Comm  time (%) = 11.8718 (0.562214)
Outpt time (%) = 0.00413793 (0.000195961)
Other time (%) = 2089.15 (98.9365)

Nlocal:    32 ave 481 max 0 min
Histogram: 36 0 2 0 0 0 0 0 0 2
Nghost:    9.575 ave 118 max 0 min
Histogram: 36 0 0 0 0 0 1 1 1 1
Neighs:    10.075 ave 165 max 0 min
Histogram: 36 1 1 0 0 0 0 0 0 2

Total # of neighbors = 403
Ave neighs/atom = 0.314844
Neighbor list builds = 12502
Dangerous builds = 162
Setting up run at Thu Nov 24 10:10:48 2022

Memory usage per processor = 960.195 Mbytes
    Step    Atoms         KinEng            CPU 
 2880656     1280     0.28443125              0 
 3086417     1273     0.23518854      2098.6649 
Loop time of 2098.66 on 40 procs for 205761 steps with 1273 atoms, finish time Thu Nov 24 10:45:46 2022


Pair  time (%) = 0.509797 (0.0242915)
Neigh time (%) = 9.57025 (0.456016)
Comm  time (%) = 12.2497 (0.583689)
Outpt time (%) = 0.000550202 (2.62168e-05)
Other time (%) = 2076.33 (98.936)

Nlocal:    31.825 ave 481 max 0 min
Histogram: 36 0 2 0 0 0 0 0 0 2
Nghost:    9.425 ave 123 max 0 min
Histogram: 36 0 0 0 0 1 1 1 0 1
Neighs:    9.425 ave 164 max 0 min
Histogram: 36 1 1 0 0 0 0 0 0 2

Total # of neighbors = 377
Ave neighs/atom = 0.296151
Neighbor list builds = 11874
Dangerous builds = 464
Setting up run at Thu Nov 24 10:45:47 2022

Memory usage per processor = 960.195 Mbytes
    Step    Atoms         KinEng            CPU 
 3086417     1273     0.23518854              0 
 3292178     1257      0.1941399      2118.0875 
Loop time of 2118.09 on 40 procs for 205761 steps with 1257 atoms, finish time Thu Nov 24 11:21:05 2022


Pair  time (%) = 0.514253 (0.0242791)
Neigh time (%) = 11.5915 (0.547261)
Comm  time (%) = 15.2513 (0.72005)
Outpt time (%) = 0.000188907 (8.91873e-06)
Other time (%) = 2090.73 (98.7084)

Nlocal:    31.425 ave 478 max 0 min
Histogram: 36 0 2 0 0 0 0 0 0 2
Nghost:    8.975 ave 118 max 0 min
Histogram: 36 0 0 0 0 0 2 1 0 1
Neighs:    9.725 ave 168 max 0 min
Histogram: 37 0 1 0 0 0 0 0 0 2

Total # of neighbors = 389
Ave neighs/atom = 0.309467
Neighbor list builds = 14382
Dangerous builds = 137
Setting up run at Thu Nov 24 11:21:05 2022

Memory usage per processor = 960.195 Mbytes
    Step    Atoms         KinEng            CPU 
 3292178     1257      0.1941399              0 
 3497939     1248     0.23974142       2195.142 
Loop time of 2195.14 on 40 procs for 205761 steps with 1248 atoms, finish time Thu Nov 24 11:57:40 2022


Pair  time (%) = 0.520094 (0.023693)
Neigh time (%) = 18.4779 (0.841762)
Comm  time (%) = 23.6701 (1.0783)
Outpt time (%) = 0.000494254 (2.25158e-05)
Other time (%) = 2152.47 (98.0562)

Nlocal:    31.2 ave 469 max 0 min
Histogram: 36 0 2 0 0 0 0 0 0 2
Nghost:    8.65 ave 113 max 0 min
Histogram: 36 0 0 0 0 0 2 1 0 1
Neighs:    8.975 ave 164 max 0 min
Histogram: 37 1 0 0 0 0 0 0 0 2

Total # of neighbors = 359
Ave neighs/atom = 0.28766
Neighbor list builds = 22853
Dangerous builds = 80
Setting up run at Thu Nov 24 11:57:40 2022

Memory usage per processor = 960.195 Mbytes
    Step    Atoms         KinEng            CPU 
 3497939     1248     0.23974142              0 
 3703700     1235      0.3751576      2176.4098 
Loop time of 2176.41 on 40 procs for 205761 steps with 1235 atoms, finish time Thu Nov 24 12:33:56 2022


Pair  time (%) = 0.521017 (0.0239393)
Neigh time (%) = 17.6163 (0.80942)
Comm  time (%) = 23.62 (1.08527)
Outpt time (%) = 0.000754297 (3.46579e-05)
Other time (%) = 2134.65 (98.0813)

Nlocal:    30.875 ave 465 max 0 min
Histogram: 36 0 2 0 0 0 0 0 0 2
Nghost:    8.25 ave 110 max 0 min
Histogram: 36 0 0 0 0 1 1 1 0 1
Neighs:    9.1 ave 157 max 0 min
Histogram: 36 2 0 0 0 0 0 0 0 2

Total # of neighbors = 364
Ave neighs/atom = 0.294737
Neighbor list builds = 21804
Dangerous builds = 366
Setting up run at Thu Nov 24 12:33:57 2022

Memory usage per processor = 960.195 Mbytes
    Step    Atoms         KinEng            CPU 
 3703700     1235      0.3751576              0 
 3909461     1219     0.48762124      2183.4133 
Loop time of 2183.41 on 40 procs for 205761 steps with 1219 atoms, finish time Thu Nov 24 13:10:20 2022


Pair  time (%) = 0.520027 (0.0238171)
Neigh time (%) = 17.8178 (0.816054)
Comm  time (%) = 23.4541 (1.07419)
Outpt time (%) = 0.000239094 (1.09505e-05)
Other time (%) = 2141.62 (98.0859)

Nlocal:    30.475 ave 464 max 0 min
Histogram: 36 1 1 0 0 0 0 0 0 2
Nghost:    8.2 ave 109 max 0 min
Histogram: 36 0 0 0 0 1 1 1 0 1
Neighs:    8.825 ave 155 max 0 min
Histogram: 36 2 0 0 0 0 0 0 0 2

Total # of neighbors = 353
Ave neighs/atom = 0.289582
Neighbor list builds = 22109
Dangerous builds = 1291
Setting up run at Thu Nov 24 13:10:20 2022

Memory usage per processor = 960.195 Mbytes
    Step    Atoms         KinEng            CPU 
 3909461     1219     0.48762124              0 
 4115222     1209     0.29816355      2192.5973 
Loop time of 2192.6 on 40 procs for 205761 steps with 1209 atoms, finish time Thu Nov 24 13:46:53 2022


Pair  time (%) = 0.510205 (0.0232694)
Neigh time (%) = 15.4413 (0.704246)
Comm  time (%) = 20.799 (0.948602)
Outpt time (%) = 0.000447766 (2.04217e-05)
Other time (%) = 2155.85 (98.3239)

Nlocal:    30.225 ave 466 max 0 min
Histogram: 36 1 1 0 0 0 0 0 0 2
Nghost:    8.225 ave 112 max 0 min
Histogram: 36 0 0 0 0 1 2 0 0 1
Neighs:    8.2 ave 152 max 0 min
Histogram: 36 2 0 0 0 0 0 0 0 2

Total # of neighbors = 328
Ave neighs/atom = 0.271299
Neighbor list builds = 19163
Dangerous builds = 877
Setting up run at Thu Nov 24 13:46:53 2022

Memory usage per processor = 960.195 Mbytes
    Step    Atoms         KinEng            CPU 
 4115222     1209     0.29816355              0 
 4320983     1203     0.31394331      2134.0089 
Loop time of 2134.01 on 40 procs for 205761 steps with 1203 atoms, finish time Thu Nov 24 14:22:27 2022


Pair  time (%) = 0.506893 (0.0237531)
Neigh time (%) = 13.4621 (0.630835)
Comm  time (%) = 15.9816 (0.748901)
Outpt time (%) = 0.000285548 (1.33808e-05)
Other time (%) = 2104.06 (98.5965)

Nlocal:    30.075 ave 468 max 0 min
Histogram: 36 0 2 0 0 0 0 0 0 2
Nghost:    7.85 ave 101 max 0 min
Histogram: 36 0 0 0 0 1 1 1 0 1
Neighs:    8.025 ave 159 max 0 min
Histogram: 36 2 0 0 0 0 0 1 0 1

Total # of neighbors = 321
Ave neighs/atom = 0.266833
Neighbor list builds = 16680
Dangerous builds = 1
Setting up run at Thu Nov 24 14:22:27 2022

Memory usage per processor = 960.195 Mbytes
    Step    Atoms         KinEng            CPU 
 4320983     1203     0.31394331              0 
 4526744     1192     0.24825734      2141.5225 
Loop time of 2141.52 on 40 procs for 205761 steps with 1192 atoms, finish time Thu Nov 24 14:58:08 2022


Pair  time (%) = 0.498202 (0.0232639)
Neigh time (%) = 13.5132 (0.631009)
Comm  time (%) = 20.9656 (0.979006)
Outpt time (%) = 0.000531822 (2.48338e-05)
Other time (%) = 2106.54 (98.3667)

Nlocal:    29.8 ave 466 max 0 min
Histogram: 36 1 1 0 0 0 0 0 0 2
Nghost:    7.975 ave 97 max 0 min
Histogram: 36 0 0 0 0 1 0 1 1 1
Neighs:    8.475 ave 169 max 0 min
Histogram: 37 1 0 0 0 0 0 0 1 1

Total # of neighbors = 339
Ave neighs/atom = 0.284396
Neighbor list builds = 16779
Dangerous builds = 380
Setting up run at Thu Nov 24 14:58:08 2022

Memory usage per processor = 960.195 Mbytes
    Step    Atoms         KinEng            CPU 
 4526744     1192     0.24825734              0 
 4732505     1183     0.24007545      2188.7811 
Loop time of 2188.78 on 40 procs for 205761 steps with 1183 atoms, finish time Thu Nov 24 15:34:37 2022


Pair  time (%) = 0.503696 (0.0230126)
Neigh time (%) = 13.1489 (0.60074)
Comm  time (%) = 15.4969 (0.708016)
Outpt time (%) = 0.000288405 (1.31765e-05)
Other time (%) = 2159.63 (98.6682)

Nlocal:    29.575 ave 466 max 0 min
Histogram: 36 1 1 0 0 0 0 0 0 2
Nghost:    7.8 ave 94 max 0 min
Histogram: 36 0 0 0 0 0 2 0 0 2
Neighs:    7.925 ave 163 max 0 min
Histogram: 38 0 0 0 0 0 0 1 0 1

Total # of neighbors = 317
Ave neighs/atom = 0.267963
Neighbor list builds = 16322
Dangerous builds = 585
Setting up run at Thu Nov 24 15:34:37 2022

Memory usage per processor = 960.195 Mbytes
    Step    Atoms         KinEng            CPU 
 4732505     1183     0.24007545              0 
 4938266     1173     0.36794067      2181.7537 
Loop time of 2181.75 on 40 procs for 205761 steps with 1173 atoms, finish time Thu Nov 24 16:10:59 2022


Pair  time (%) = 0.503579 (0.0230814)
Neigh time (%) = 13.746 (0.630042)
Comm  time (%) = 14.99 (0.687061)
Outpt time (%) = 0.000504192 (2.31095e-05)
Other time (%) = 2152.51 (98.6598)

Nlocal:    29.325 ave 466 max 0 min
Histogram: 36 1 1 0 0 0 0 0 0 2
Nghost:    7.775 ave 89 max 0 min
Histogram: 36 0 0 0 0 0 0 2 0 2
Neighs:    7.75 ave 159 max 0 min
Histogram: 37 1 0 0 0 0 0 1 0 1

Total # of neighbors = 310
Ave neighs/atom = 0.26428
Neighbor list builds = 17038
Dangerous builds = 473
Setting up run at Thu Nov 24 16:10:59 2022

Memory usage per processor = 960.195 Mbytes
    Step    Atoms         KinEng            CPU 
 4938266     1173     0.36794067              0 
 5144027     1163     0.26510074      2168.9506 
Loop time of 2168.95 on 40 procs for 205761 steps with 1163 atoms, finish time Thu Nov 24 16:47:08 2022


Pair  time (%) = 0.495111 (0.0228272)
Neigh time (%) = 11.9715 (0.551949)
Comm  time (%) = 14.3404 (0.661166)
Outpt time (%) = 0.000242755 (1.11923e-05)
Other time (%) = 2142.14 (98.764)

Nlocal:    29.075 ave 458 max 0 min
Histogram: 36 1 1 0 0 0 0 0 0 2
Nghost:    7.525 ave 86 max 0 min
Histogram: 36 0 0 0 0 0 1 0 1 2
Neighs:    7.575 ave 150 max 0 min
Histogram: 37 1 0 0 0 0 0 0 1 1

Total # of neighbors = 303
Ave neighs/atom = 0.260533
Neighbor list builds = 14831
Dangerous builds = 83
Setting up run at Thu Nov 24 16:47:08 2022

Memory usage per processor = 960.195 Mbytes
    Step    Atoms         KinEng            CPU 
 5144027     1163     0.26510074              0 
 5349788     1145     0.38439414       2135.755 
Loop time of 2135.77 on 40 procs for 205761 steps with 1145 atoms, finish time Thu Nov 24 17:22:44 2022


Pair  time (%) = 0.493112 (0.0230883)
Neigh time (%) = 13.5059 (0.63237)
Comm  time (%) = 17.9651 (0.841153)
Outpt time (%) = 0.011078 (0.000518691)
Other time (%) = 2103.79 (98.5029)

Nlocal:    28.625 ave 455 max 0 min
Histogram: 36 1 1 0 0 0 0 0 0 2
Nghost:    7.375 ave 82 max 0 min
Histogram: 36 0 0 0 0 0 0 1 1 2
Neighs:    7.375 ave 156 max 0 min
Histogram: 37 1 0 0 0 0 1 0 0 1

Total # of neighbors = 295
Ave neighs/atom = 0.257642
Neighbor list builds = 16812
Dangerous builds = 854
Setting up run at Thu Nov 24 17:22:44 2022

Memory usage per processor = 960.195 Mbytes
    Step    Atoms         KinEng            CPU 
 5349788     1145     0.38439414              0 
 5555549     1139     0.42412389      2115.6833 
Loop time of 2115.68 on 40 procs for 205761 steps with 1139 atoms, finish time Thu Nov 24 17:58:00 2022


Pair  time (%) = 0.487591 (0.0230465)
Neigh time (%) = 11.2392 (0.531234)
Comm  time (%) = 14.6662 (0.693214)
Outpt time (%) = 0.000537864 (2.54227e-05)
Other time (%) = 2089.29 (98.7525)

Nlocal:    28.475 ave 449 max 0 min
Histogram: 36 0 2 0 0 0 0 0 0 2
Nghost:    7.35 ave 88 max 0 min
Histogram: 36 0 0 0 0 0 1 1 1 1
Neighs:    7.45 ave 166 max 0 min
Histogram: 37 1 0 0 0 1 0 0 0 1

Total # of neighbors = 298
Ave neighs/atom = 0.261633
Neighbor list builds = 13942
Dangerous builds = 181
Setting up run at Thu Nov 24 17:58:00 2022

Memory usage per processor = 960.195 Mbytes
    Step    Atoms         KinEng            CPU 
 5555549     1139     0.42412389              0 
 5761310     1129     0.36233922      2129.2595 
Loop time of 2129.26 on 40 procs for 205761 steps with 1129 atoms, finish time Thu Nov 24 18:33:29 2022


Pair  time (%) = 0.485735 (0.0228124)
Neigh time (%) = 12.8953 (0.605623)
Comm  time (%) = 17.6224 (0.827629)
Outpt time (%) = 0.000255684 (1.20081e-05)
Other time (%) = 2098.26 (98.5439)

Nlocal:    28.225 ave 437 max 0 min
Histogram: 36 1 1 0 0 0 0 0 0 2
Nghost:    7.15 ave 84 max 0 min
Histogram: 36 0 0 0 0 0 2 0 0 2
Neighs:    7.225 ave 157 max 0 min
Histogram: 37 1 0 0 0 0 1 0 0 1

Total # of neighbors = 289
Ave neighs/atom = 0.255979
Neighbor list builds = 16026
Dangerous builds = 469
Setting up run at Thu Nov 24 18:33:29 2022

Memory usage per processor = 960.195 Mbytes
    Step    Atoms         KinEng            CPU 
 5761310     1129     0.36233922              0 
 5967071     1117     0.33883856      2138.8939 
Loop time of 2138.89 on 40 procs for 205761 steps with 1117 atoms, finish time Thu Nov 24 19:09:08 2022


Pair  time (%) = 0.482201 (0.0225444)
Neigh time (%) = 13.2312 (0.618602)
Comm  time (%) = 19.2484 (0.899924)
Outpt time (%) = 0.000552226 (2.58183e-05)
Other time (%) = 2105.93 (98.4589)

Nlocal:    27.925 ave 427 max 0 min
Histogram: 36 0 2 0 0 0 0 0 0 2
Nghost:    7.2 ave 92 max 0 min
Histogram: 36 0 0 0 0 1 1 0 1 1
Neighs:    6.45 ave 129 max 0 min
Histogram: 36 2 0 0 0 0 0 1 0 1

Total # of neighbors = 258
Ave neighs/atom = 0.230976
Neighbor list builds = 16496
Dangerous builds = 1371
Setting up run at Thu Nov 24 19:09:08 2022

Memory usage per processor = 960.195 Mbytes
    Step    Atoms         KinEng            CPU 
 5967071     1117     0.33883856              0 
 6172832     1103     0.39480575      2113.3684 
Loop time of 2113.37 on 40 procs for 205761 steps with 1103 atoms, finish time Thu Nov 24 19:44:22 2022


Pair  time (%) = 0.480898 (0.0227551)
Neigh time (%) = 11.0155 (0.52123)
Comm  time (%) = 11.6953 (0.553394)
Outpt time (%) = 0.000285864 (1.35265e-05)
Other time (%) = 2090.18 (98.9026)

Nlocal:    27.575 ave 425 max 0 min
Histogram: 36 0 2 0 0 0 0 0 0 2
Nghost:    6.95 ave 80 max 0 min
Histogram: 36 0 0 0 0 0 1 0 1 2
Neighs:    6.375 ave 128 max 0 min
Histogram: 37 1 0 0 0 0 0 1 0 1

Total # of neighbors = 255
Ave neighs/atom = 0.231188
Neighbor list builds = 13697
Dangerous builds = 1154
Setting up run at Thu Nov 24 19:44:22 2022

Memory usage per processor = 960.195 Mbytes
    Step    Atoms         KinEng            CPU 
 6172832     1103     0.39480575              0 
 6378593     1094     0.41201864      2139.8042 
Loop time of 2139.8 on 40 procs for 205761 steps with 1094 atoms, finish time Thu Nov 24 20:20:02 2022


Pair  time (%) = 0.478665 (0.0223696)
Neigh time (%) = 11.0665 (0.517173)
Comm  time (%) = 12.7636 (0.596484)
Outpt time (%) = 0.000591718 (2.76529e-05)
Other time (%) = 2115.49 (98.8639)

Nlocal:    27.35 ave 422 max 0 min
Histogram: 36 0 2 0 0 0 0 0 0 2
Nghost:    7.125 ave 84 max 0 min
Histogram: 36 0 0 0 0 0 1 1 0 2
Neighs:    6.225 ave 123 max 0 min
Histogram: 36 2 0 0 0 0 0 1 0 1

Total # of neighbors = 249
Ave neighs/atom = 0.227605
Neighbor list builds = 13798
Dangerous builds = 2151
Setting up run at Thu Nov 24 20:20:02 2022

Memory usage per processor = 960.195 Mbytes
    Step    Atoms         KinEng            CPU 
 6378593     1094     0.41201864              0 
 6584354     1084      0.4401401      2222.9862 
Loop time of 2222.99 on 40 procs for 205761 steps with 1084 atoms, finish time Thu Nov 24 20:57:05 2022


Pair  time (%) = 0.472659 (0.0212624)
Neigh time (%) = 9.41765 (0.423649)
Comm  time (%) = 12.1123 (0.544864)
Outpt time (%) = 0.000154994 (6.97234e-06)
Other time (%) = 2200.98 (99.0102)

Nlocal:    27.1 ave 416 max 0 min
Histogram: 36 0 2 0 0 0 0 0 0 2
Nghost:    6.85 ave 83 max 0 min
Histogram: 36 0 0 0 0 0 1 1 0 2
Neighs:    5.775 ave 100 max 0 min
Histogram: 36 1 1 0 0 0 0 0 0 2

Total # of neighbors = 231
Ave neighs/atom = 0.2131
Neighbor list builds = 11687
Dangerous builds = 355
Setting up run at Thu Nov 24 20:57:05 2022

Memory usage per processor = 960.195 Mbytes
    Step    Atoms         KinEng            CPU 
 6584354     1084      0.4401401              0 
 6790115     1065      0.3691495      2162.4157 
Loop time of 2162.42 on 40 procs for 205761 steps with 1065 atoms, finish time Thu Nov 24 21:33:07 2022


Pair  time (%) = 0.475958 (0.0220105)
Neigh time (%) = 10.9329 (0.50559)
Comm  time (%) = 11.6102 (0.536909)
Outpt time (%) = 0.000538842 (2.49185e-05)
Other time (%) = 2139.4 (98.9355)

Nlocal:    26.625 ave 411 max 0 min
Histogram: 36 1 1 0 0 0 0 0 0 2
Nghost:    6.875 ave 81 max 0 min
Histogram: 36 0 0 0 0 0 1 1 0 2
Neighs:    6.075 ave 109 max 0 min
Histogram: 36 2 0 0 0 0 0 0 0 2

Total # of neighbors = 243
Ave neighs/atom = 0.228169
Neighbor list builds = 13628
Dangerous builds = 1514
Setting up run at Thu Nov 24 21:33:07 2022

Memory usage per processor = 960.195 Mbytes
    Step    Atoms         KinEng            CPU 
 6790115     1065      0.3691495              0 
 6995876     1055     0.30530062      2167.7314 
Loop time of 2167.73 on 40 procs for 205761 steps with 1055 atoms, finish time Thu Nov 24 22:09:15 2022


Pair  time (%) = 0.465114 (0.0214562)
Neigh time (%) = 8.56716 (0.395213)
Comm  time (%) = 12.2048 (0.563019)
Outpt time (%) = 0.000294519 (1.35865e-05)
Other time (%) = 2146.49 (99.0203)

Nlocal:    26.375 ave 410 max 0 min
Histogram: 36 0 2 0 0 0 0 0 0 2
Nghost:    6.775 ave 79 max 0 min
Histogram: 36 0 0 0 0 0 1 1 0 2
Neighs:    5.65 ave 103 max 0 min
Histogram: 36 2 0 0 0 0 0 0 1 1

Total # of neighbors = 226
Ave neighs/atom = 0.214218
Neighbor list builds = 10662
Dangerous builds = 527
Setting up run at Thu Nov 24 22:09:15 2022

Memory usage per processor = 960.195 Mbytes
    Step    Atoms         KinEng            CPU 
 6995876     1055     0.30530062              0 
 7201637     1047     0.32182833      2086.2799 
Loop time of 2086.28 on 40 procs for 205761 steps with 1047 atoms, finish time Thu Nov 24 22:44:01 2022


Pair  time (%) = 0.465244 (0.0223002)
Neigh time (%) = 7.8916 (0.378262)
Comm  time (%) = 10.8467 (0.519905)
Outpt time (%) = 0.000543391 (2.60459e-05)
Other time (%) = 2067.08 (99.0795)

Nlocal:    26.175 ave 408 max 0 min
Histogram: 36 0 2 0 0 0 0 0 0 2
Nghost:    6.85 ave 85 max 0 min
Histogram: 36 0 0 0 0 0 2 0 1 1
Neighs:    5.575 ave 101 max 0 min
Histogram: 36 2 0 0 0 0 0 0 0 2

Total # of neighbors = 223
Ave neighs/atom = 0.212989
Neighbor list builds = 9807
Dangerous builds = 521
Setting up run at Thu Nov 24 22:44:02 2022

Memory usage per processor = 960.195 Mbytes
    Step    Atoms         KinEng            CPU 
 7201637     1047     0.32182833              0 
 7407398     1038     0.27478663      2120.3279 
Loop time of 2120.33 on 40 procs for 205761 steps with 1038 atoms, finish time Thu Nov 24 23:19:22 2022


Pair  time (%) = 0.465266 (0.0219431)
Neigh time (%) = 11.2118 (0.528777)
Comm  time (%) = 14.9772 (0.706362)
Outpt time (%) = 0.000278971 (1.3157e-05)
Other time (%) = 2093.67 (98.7429)

Nlocal:    25.95 ave 408 max 0 min
Histogram: 36 0 2 0 0 0 0 0 1 1
Nghost:    6.875 ave 90 max 0 min
Histogram: 36 0 0 0 1 1 0 0 1 1
Neighs:    5.175 ave 93 max 0 min
Histogram: 36 2 0 0 0 0 0 0 0 2

Total # of neighbors = 207
Ave neighs/atom = 0.199422
Neighbor list builds = 13932
Dangerous builds = 835
Setting up run at Thu Nov 24 23:19:22 2022

Memory usage per processor = 960.195 Mbytes
    Step    Atoms         KinEng            CPU 
 7407398     1038     0.27478663              0 
 7613159     1033     0.50291522      2090.3371 
Loop time of 2090.34 on 40 procs for 205761 steps with 1033 atoms, finish time Thu Nov 24 23:54:12 2022


Pair  time (%) = 0.458251 (0.0219223)
Neigh time (%) = 8.51434 (0.407319)
Comm  time (%) = 13.7997 (0.660165)
Outpt time (%) = 0.000600265 (2.87162e-05)
Other time (%) = 2067.56 (98.9106)

Nlocal:    25.825 ave 414 max 0 min
Histogram: 36 1 1 0 0 0 0 0 1 1
Nghost:    7.075 ave 96 max 0 min
Histogram: 36 0 0 0 0 2 0 1 0 1
Neighs:    4.825 ave 98 max 0 min
Histogram: 36 2 0 0 0 0 0 1 0 1

Total # of neighbors = 193
Ave neighs/atom = 0.186834
Neighbor list builds = 10589
Dangerous builds = 323
Setting up run at Thu Nov 24 23:54:12 2022

Memory usage per processor = 960.195 Mbytes
    Step    Atoms         KinEng            CPU 
 7613159     1033     0.50291522              0 
 7818920     1026     0.34530116      2096.4811 
Loop time of 2096.48 on 40 procs for 205761 steps with 1026 atoms, finish time Fri Nov 25 00:29:09 2022


Pair  time (%) = 0.462076 (0.0220405)
Neigh time (%) = 9.11791 (0.434915)
Comm  time (%) = 15.0276 (0.716802)
Outpt time (%) = 0.000223044 (1.0639e-05)
Other time (%) = 2071.87 (98.8262)

Nlocal:    25.65 ave 407 max 0 min
Histogram: 36 1 1 0 0 0 0 0 1 1
Nghost:    6.6 ave 88 max 0 min
Histogram: 36 0 0 0 0 2 0 0 1 1
Neighs:    4.625 ave 92 max 0 min
Histogram: 36 2 0 0 0 0 0 1 0 1

Total # of neighbors = 185
Ave neighs/atom = 0.180312
Neighbor list builds = 11353
Dangerous builds = 436
Setting up run at Fri Nov 25 00:29:09 2022

Memory usage per processor = 960.195 Mbytes
    Step    Atoms         KinEng            CPU 
 7818920     1026     0.34530116              0 
 8024681     1015     0.35238061      2103.9833 
Loop time of 2103.98 on 40 procs for 205761 steps with 1015 atoms, finish time Fri Nov 25 01:04:13 2022


Pair  time (%) = 0.456427 (0.0216934)
Neigh time (%) = 9.48602 (0.45086)
Comm  time (%) = 15.7511 (0.748633)
Outpt time (%) = 0.000578925 (2.75157e-05)
Other time (%) = 2078.29 (98.7788)

Nlocal:    25.375 ave 403 max 0 min
Histogram: 36 0 2 0 0 0 0 0 1 1
Nghost:    6.65 ave 90 max 0 min
Histogram: 36 0 0 0 0 2 0 1 0 1
Neighs:    4.075 ave 78 max 0 min
Histogram: 36 2 0 0 0 0 0 0 1 1

Total # of neighbors = 163
Ave neighs/atom = 0.160591
Neighbor list builds = 11793
Dangerous builds = 757
Setting up run at Fri Nov 25 01:04:13 2022

Memory usage per processor = 960.195 Mbytes
    Step    Atoms         KinEng            CPU 
 8024681     1015     0.35238061              0 
 8230442     1010     0.32073161      2108.5715 
Loop time of 2108.57 on 40 procs for 205761 steps with 1010 atoms, finish time Fri Nov 25 01:39:22 2022


Pair  time (%) = 0.453231 (0.0214947)
Neigh time (%) = 10.267 (0.486919)
Comm  time (%) = 17.8847 (0.848193)
Outpt time (%) = 0.000239086 (1.13388e-05)
Other time (%) = 2079.97 (98.6434)

Nlocal:    25.25 ave 400 max 0 min
Histogram: 36 1 1 0 0 0 0 0 1 1
Nghost:    6.3 ave 89 max 0 min
Histogram: 36 0 0 0 2 0 0 1 0 1
Neighs:    4.125 ave 74 max 0 min
Histogram: 36 1 1 0 0 0 0 1 0 1

Total # of neighbors = 165
Ave neighs/atom = 0.163366
Neighbor list builds = 12670
Dangerous builds = 203
Setting up run at Fri Nov 25 01:39:22 2022

Memory usage per processor = 960.195 Mbytes
    Step    Atoms         KinEng            CPU 
 8230442     1010     0.32073161              0 
 8436203      989     0.34271805      2112.3309 
Loop time of 2112.34 on 40 procs for 205761 steps with 989 atoms, finish time Fri Nov 25 02:14:34 2022


Pair  time (%) = 0.45302 (0.0214463)
Neigh time (%) = 10.6178 (0.502655)
Comm  time (%) = 17.8969 (0.847254)
Outpt time (%) = 0.0253717 (0.00120112)
Other time (%) = 2083.35 (98.6274)

Nlocal:    24.725 ave 390 max 0 min
Histogram: 36 0 2 0 0 0 0 0 1 1
Nghost:    6 ave 78 max 0 min
Histogram: 36 0 0 0 0 2 0 0 1 1
Neighs:    3.95 ave 74 max 0 min
Histogram: 36 2 0 0 0 0 0 0 1 1

Total # of neighbors = 158
Ave neighs/atom = 0.159757
Neighbor list builds = 13063
Dangerous builds = 569
Setting up run at Fri Nov 25 02:14:34 2022

Memory usage per processor = 960.195 Mbytes
    Step    Atoms         KinEng            CPU 
 8436203      989     0.34271805              0 
 8641964      980     0.30301884      2123.3698 
Loop time of 2123.37 on 40 procs for 205761 steps with 980 atoms, finish time Fri Nov 25 02:49:58 2022


Pair  time (%) = 0.454827 (0.02142)
Neigh time (%) = 11.0386 (0.519864)
Comm  time (%) = 16.4705 (0.775676)
Outpt time (%) = 0.000756492 (3.56269e-05)
Other time (%) = 2095.41 (98.683)

Nlocal:    24.5 ave 383 max 0 min
Histogram: 36 1 1 0 0 0 0 0 1 1
Nghost:    6.05 ave 69 max 0 min
Histogram: 36 0 0 0 0 0 2 0 0 2
Neighs:    3.8 ave 77 max 0 min
Histogram: 36 2 0 0 0 0 0 1 0 1

Total # of neighbors = 152
Ave neighs/atom = 0.155102
Neighbor list builds = 13560
Dangerous builds = 8
Setting up run at Fri Nov 25 02:49:58 2022

Memory usage per processor = 960.195 Mbytes
    Step    Atoms         KinEng            CPU 
 8641964      980     0.30301884              0 
 8847725      965     0.37989501      2110.0356 
Loop time of 2110.04 on 40 procs for 205761 steps with 965 atoms, finish time Fri Nov 25 03:25:08 2022


Pair  time (%) = 0.44845 (0.0212532)
Neigh time (%) = 9.81529 (0.465171)
Comm  time (%) = 17.8324 (0.845123)
Outpt time (%) = 0.000717532 (3.40057e-05)
Other time (%) = 2081.94 (98.6684)

Nlocal:    24.125 ave 383 max 0 min
Histogram: 36 1 1 0 0 0 0 0 1 1
Nghost:    5.925 ave 70 max 0 min
Histogram: 36 0 0 0 0 1 1 0 1 1
Neighs:    3.55 ave 79 max 0 min
Histogram: 37 1 0 0 0 0 1 0 0 1

Total # of neighbors = 142
Ave neighs/atom = 0.14715
Neighbor list builds = 12083
Dangerous builds = 910
Setting up run at Fri Nov 25 03:25:08 2022

Memory usage per processor = 960.195 Mbytes
    Step    Atoms         KinEng            CPU 
 8847725      965     0.37989501              0 
 9053486      952     0.45519269      2157.3933 
Loop time of 2157.41 on 40 procs for 205761 steps with 952 atoms, finish time Fri Nov 25 04:01:05 2022


Pair  time (%) = 0.452096 (0.0209555)
Neigh time (%) = 13.9297 (0.645667)
Comm  time (%) = 26.3048 (1.21928)
Outpt time (%) = 0.000318501 (1.47631e-05)
Other time (%) = 2116.72 (98.1141)

Nlocal:    23.8 ave 379 max 0 min
Histogram: 36 1 1 0 0 0 0 0 1 1
Nghost:    5.825 ave 76 max 0 min
Histogram: 36 0 0 0 0 2 0 0 1 1
Neighs:    3.525 ave 84 max 0 min
Histogram: 37 1 0 0 1 0 0 0 0 1

Total # of neighbors = 141
Ave neighs/atom = 0.148109
Neighbor list builds = 17220
Dangerous builds = 3412
Setting up run at Fri Nov 25 04:01:05 2022

Memory usage per processor = 960.195 Mbytes
    Step    Atoms         KinEng            CPU 
 9053486      952     0.45519269              0 
 9259247      942     0.32517781      2147.5905 
Loop time of 2147.59 on 40 procs for 205761 steps with 942 atoms, finish time Fri Nov 25 04:36:53 2022


Pair  time (%) = 0.452796 (0.0210839)
Neigh time (%) = 14.0489 (0.654168)
Comm  time (%) = 22.9496 (1.06862)
Outpt time (%) = 0.000576185 (2.68294e-05)
Other time (%) = 2110.14 (98.2561)

Nlocal:    23.55 ave 381 max 0 min
Histogram: 36 1 1 0 0 0 0 1 0 1
Nghost:    5.5 ave 76 max 0 min
Histogram: 36 0 0 0 1 1 0 1 0 1
Neighs:    3.625 ave 96 max 0 min
Histogram: 38 0 0 1 0 0 0 0 0 1

Total # of neighbors = 145
Ave neighs/atom = 0.153928
Neighbor list builds = 17219
Dangerous builds = 550
Setting up run at Fri Nov 25 04:36:53 2022

Memory usage per processor = 960.195 Mbytes
    Step    Atoms         KinEng            CPU 
 9259247      942     0.32517781              0 
 9465008      927      2.1502998      2137.0492 
Loop time of 2137.05 on 40 procs for 205761 steps with 927 atoms, finish time Fri Nov 25 05:12:30 2022


Pair  time (%) = 0.443164 (0.0207372)
Neigh time (%) = 13.9478 (0.652665)
Comm  time (%) = 25.5776 (1.19686)
Outpt time (%) = 0.00025603 (1.19806e-05)
Other time (%) = 2097.08 (98.1297)

Nlocal:    23.175 ave 383 max 0 min
Histogram: 36 2 0 0 0 0 0 1 0 1
Nghost:    5.325 ave 71 max 0 min
Histogram: 36 0 0 0 2 0 0 1 0 1
Neighs:    3.65 ave 91 max 0 min
Histogram: 37 1 0 1 0 0 0 0 0 1

Total # of neighbors = 146
Ave neighs/atom = 0.157497
Neighbor list builds = 17138
Dangerous builds = 489
Setting up run at Fri Nov 25 05:12:30 2022

Memory usage per processor = 960.195 Mbytes
    Step    Atoms         KinEng            CPU 
 9465008      927      2.1502998              0 
 9670769      911     0.47038319      2142.5331 
Loop time of 2142.53 on 40 procs for 205761 steps with 911 atoms, finish time Fri Nov 25 05:48:13 2022


Pair  time (%) = 0.446429 (0.0208365)
Neigh time (%) = 13.6449 (0.636858)
Comm  time (%) = 22.7414 (1.06143)
Outpt time (%) = 0.000500079 (2.33405e-05)
Other time (%) = 2105.7 (98.2809)

Nlocal:    22.775 ave 378 max 0 min
Histogram: 36 1 1 0 0 0 0 1 0 1
Nghost:    5.075 ave 66 max 0 min
Histogram: 36 0 0 0 2 0 0 0 1 1
Neighs:    3.5 ave 90 max 0 min
Histogram: 37 1 0 1 0 0 0 0 0 1

Total # of neighbors = 140
Ave neighs/atom = 0.153677
Neighbor list builds = 16860
Dangerous builds = 302
Setting up run at Fri Nov 25 05:48:13 2022

Memory usage per processor = 960.195 Mbytes
    Step    Atoms         KinEng            CPU 
 9670769      911     0.47038319              0 
 9876530      899     0.45570754      2143.7333 
Loop time of 2143.73 on 40 procs for 205761 steps with 899 atoms, finish time Fri Nov 25 06:23:56 2022


Pair  time (%) = 0.449806 (0.0209824)
Neigh time (%) = 14.3871 (0.671126)
Comm  time (%) = 17.0095 (0.793452)
Outpt time (%) = 0.000682182 (3.18222e-05)
Other time (%) = 2111.89 (98.5144)

Nlocal:    22.475 ave 384 max 0 min
Histogram: 36 2 0 0 0 0 1 0 0 1
Nghost:    4.825 ave 66 max 0 min
Histogram: 36 0 0 0 2 0 0 0 1 1
Neighs:    3.675 ave 102 max 0 min
Histogram: 37 1 1 0 0 0 0 0 0 1

Total # of neighbors = 147
Ave neighs/atom = 0.163515
Neighbor list builds = 17679
Dangerous builds = 898
Setting up run at Fri Nov 25 06:23:57 2022

Memory usage per processor = 960.195 Mbytes
    Step    Atoms         KinEng            CPU 
 9876530      899     0.45570754              0 
10082291      887     0.34854018      2138.4979 
Loop time of 2138.5 on 40 procs for 205761 steps with 887 atoms, finish time Fri Nov 25 06:59:35 2022


Pair  time (%) = 0.443373 (0.0207329)
Neigh time (%) = 13.0461 (0.610061)
Comm  time (%) = 17.0403 (0.796835)
Outpt time (%) = 0.000223308 (1.04423e-05)
Other time (%) = 2107.97 (98.5724)

Nlocal:    22.175 ave 383 max 0 min
Histogram: 36 2 0 0 0 0 1 0 0 1
Nghost:    4.625 ave 65 max 0 min
Histogram: 36 0 0 0 2 0 0 0 1 1
Neighs:    3.25 ave 86 max 0 min
Histogram: 37 1 1 0 0 0 0 0 0 1

Total # of neighbors = 130
Ave neighs/atom = 0.146561
Neighbor list builds = 16028
Dangerous builds = 840
Setting up run at Fri Nov 25 06:59:35 2022

Memory usage per processor = 960.195 Mbytes
    Step    Atoms         KinEng            CPU 
10082291      887     0.34854018              0 
10288052      876     0.36846796       2126.286 
Loop time of 2126.29 on 40 procs for 205761 steps with 876 atoms, finish time Fri Nov 25 07:35:02 2022


Pair  time (%) = 0.438425 (0.0206193)
Neigh time (%) = 11.9177 (0.560494)
Comm  time (%) = 14.8337 (0.697634)
Outpt time (%) = 0.000585025 (2.75139e-05)
Other time (%) = 2099.1 (98.7212)

Nlocal:    21.9 ave 376 max 0 min
Histogram: 36 2 0 0 0 0 1 0 0 1
Nghost:    4.475 ave 61 max 0 min
Histogram: 36 0 0 0 2 0 0 0 1 1
Neighs:    3.025 ave 78 max 0 min
Histogram: 37 0 2 0 0 0 0 0 0 1

Total # of neighbors = 121
Ave neighs/atom = 0.138128
Neighbor list builds = 14614
Dangerous builds = 31
Setting up run at Fri Nov 25 07:35:02 2022

Memory usage per processor = 960.195 Mbytes
    Step    Atoms         KinEng            CPU 
10288052      876     0.36846796              0 
10493813      855     0.39088982      2120.1812 
Loop time of 2120.18 on 40 procs for 205761 steps with 855 atoms, finish time Fri Nov 25 08:10:22 2022


Pair  time (%) = 0.434666 (0.0205014)
Neigh time (%) = 12.0922 (0.57034)
Comm  time (%) = 18.1858 (0.857749)
Outpt time (%) = 0.000321884 (1.51819e-05)
Other time (%) = 2089.47 (98.5514)

Nlocal:    21.375 ave 376 max 0 min
Histogram: 36 2 0 0 0 0 1 0 0 1
Nghost:    4.625 ave 58 max 0 min
Histogram: 36 0 0 0 0 2 0 0 0 2
Neighs:    3.15 ave 89 max 0 min
Histogram: 37 1 1 0 0 0 0 0 0 1

Total # of neighbors = 126
Ave neighs/atom = 0.147368
Neighbor list builds = 14913
Dangerous builds = 1256
Setting up run at Fri Nov 25 08:10:22 2022

Memory usage per processor = 960.195 Mbytes
    Step    Atoms         KinEng            CPU 
10493813      855     0.39088982              0 
10699574      835     0.32690027      2120.4975 
Loop time of 2120.51 on 40 procs for 205761 steps with 835 atoms, finish time Fri Nov 25 08:45:42 2022


Pair  time (%) = 0.4284 (0.0202027)
Neigh time (%) = 11.7658 (0.554858)
Comm  time (%) = 16.3848 (0.772682)
Outpt time (%) = 0.000925853 (4.36618e-05)
Other time (%) = 2091.93 (98.6522)

Nlocal:    20.875 ave 376 max 0 min
Histogram: 36 2 0 0 0 0 1 0 0 1
Nghost:    4.6 ave 59 max 0 min
Histogram: 36 0 0 0 1 1 0 0 0 2
Neighs:    2.5 ave 75 max 0 min
Histogram: 37 2 0 0 0 0 0 0 0 1

Total # of neighbors = 100
Ave neighs/atom = 0.11976
Neighbor list builds = 14476
Dangerous builds = 698
Setting up run at Fri Nov 25 08:45:43 2022

Memory usage per processor = 960.195 Mbytes
    Step    Atoms         KinEng            CPU 
10699574      835     0.32690027              0 
10905335      822     0.45719988      2111.6048 
Loop time of 2111.6 on 40 procs for 205761 steps with 822 atoms, finish time Fri Nov 25 09:20:54 2022


Pair  time (%) = 0.424125 (0.0200854)
Neigh time (%) = 10.6917 (0.506331)
Comm  time (%) = 15.158 (0.717844)
Outpt time (%) = 0.000355618 (1.68411e-05)
Other time (%) = 2085.33 (98.7557)

Nlocal:    20.55 ave 376 max 0 min
Histogram: 36 2 0 0 0 0 1 0 0 1
Nghost:    4.55 ave 61 max 0 min
Histogram: 36 0 0 0 1 1 0 0 1 1
Neighs:    2.575 ave 72 max 0 min
Histogram: 37 1 1 0 0 0 0 0 0 1

Total # of neighbors = 103
Ave neighs/atom = 0.125304
Neighbor list builds = 13149
Dangerous builds = 268
Setting up run at Fri Nov 25 09:20:54 2022

Memory usage per processor = 960.195 Mbytes
    Step    Atoms         KinEng            CPU 
10905335      822     0.45719988              0 
11111096      817     0.41527667      2088.0938 
Loop time of 2088.09 on 40 procs for 205761 steps with 817 atoms, finish time Fri Nov 25 09:55:43 2022


Pair  time (%) = 0.42366 (0.0202893)
Neigh time (%) = 8.75473 (0.419269)
Comm  time (%) = 11.3289 (0.542547)
Outpt time (%) = 0.000523459 (2.50687e-05)
Other time (%) = 2067.59 (99.0179)

Nlocal:    20.425 ave 369 max 0 min
Histogram: 36 2 0 0 0 0 1 0 0 1
Nghost:    4.725 ave 59 max 0 min
Histogram: 36 0 0 0 1 1 0 0 0 2
Neighs:    2.325 ave 67 max 0 min
Histogram: 37 1 1 0 0 0 0 0 0 1

Total # of neighbors = 93
Ave neighs/atom = 0.113831
Neighbor list builds = 10766
Dangerous builds = 395
Setting up run at Fri Nov 25 09:55:43 2022

Memory usage per processor = 960.195 Mbytes
    Step    Atoms         KinEng            CPU 
11111096      817     0.41527667              0 
11316857      809     0.44332667      2107.2966 
Loop time of 2107.3 on 40 procs for 205761 steps with 809 atoms, finish time Fri Nov 25 10:30:50 2022


Pair  time (%) = 0.420522 (0.0199555)
Neigh time (%) = 9.27917 (0.440335)
Comm  time (%) = 15.0189 (0.712711)
Outpt time (%) = 0.000318315 (1.51054e-05)
Other time (%) = 2082.58 (98.827)

Nlocal:    20.225 ave 356 max 0 min
Histogram: 36 2 0 0 0 0 1 0 0 1
Nghost:    4.65 ave 62 max 0 min
Histogram: 36 0 0 0 1 1 0 0 1 1
Neighs:    2.125 ave 57 max 0 min
Histogram: 37 1 1 0 0 0 0 0 0 1

Total # of neighbors = 85
Ave neighs/atom = 0.105068
Neighbor list builds = 11465
Dangerous builds = 484
Setting up run at Fri Nov 25 10:30:50 2022

Memory usage per processor = 960.195 Mbytes
    Step    Atoms         KinEng            CPU 
11316857      809     0.44332667              0 
11522618      793     0.50036718      2126.8535 
Loop time of 2126.85 on 40 procs for 205761 steps with 793 atoms, finish time Fri Nov 25 11:06:17 2022


Pair  time (%) = 0.422553 (0.0198675)
Neigh time (%) = 12.5585 (0.590474)
Comm  time (%) = 18.9841 (0.89259)
Outpt time (%) = 0.000524017 (2.46381e-05)
Other time (%) = 2094.89 (98.497)

Nlocal:    19.825 ave 349 max 0 min
Histogram: 36 2 0 0 0 0 1 0 0 1
Nghost:    4.8 ave 60 max 0 min
Histogram: 36 0 0 0 1 1 0 0 0 2
Neighs:    1.95 ave 54 max 0 min
Histogram: 37 1 1 0 0 0 0 0 0 1

Total # of neighbors = 78
Ave neighs/atom = 0.0983607
Neighbor list builds = 15511
Dangerous builds = 867
Setting up run at Fri Nov 25 11:06:17 2022

Memory usage per processor = 960.195 Mbytes
    Step    Atoms         KinEng            CPU 
11522618      793     0.50036718              0 
11728379      784     0.58379173      2094.6462 
Loop time of 2094.65 on 40 procs for 205761 steps with 784 atoms, finish time Fri Nov 25 11:41:12 2022


Pair  time (%) = 0.41923 (0.0200143)
Neigh time (%) = 9.28261 (0.443159)
Comm  time (%) = 13.9818 (0.667503)
Outpt time (%) = 0.00392117 (0.0001872)
Other time (%) = 2070.96 (98.8691)

Nlocal:    19.6 ave 337 max 0 min
Histogram: 36 2 0 0 0 0 1 0 0 1
Nghost:    4.65 ave 58 max 0 min
Histogram: 36 0 0 0 0 2 0 0 0 2
Neighs:    1.85 ave 52 max 0 min
Histogram: 37 2 0 0 0 0 0 0 0 1

Total # of neighbors = 74
Ave neighs/atom = 0.0943878
Neighbor list builds = 11461
Dangerous builds = 150
Setting up run at Fri Nov 25 11:41:12 2022

Memory usage per processor = 960.195 Mbytes
    Step    Atoms         KinEng            CPU 
11728379      784     0.58379173              0 
11934140      769     0.61041478       2108.251 
Loop time of 2108.25 on 40 procs for 205761 steps with 769 atoms, finish time Fri Nov 25 12:16:20 2022


Pair  time (%) = 0.416793 (0.0197696)
Neigh time (%) = 10.0627 (0.477303)
Comm  time (%) = 17.2015 (0.815913)
Outpt time (%) = 0.00434403 (0.000206049)
Other time (%) = 2080.57 (98.6868)

Nlocal:    19.225 ave 320 max 0 min
Histogram: 36 1 1 0 0 0 0 1 0 1
Nghost:    4.6 ave 63 max 0 min
Histogram: 36 0 0 0 2 0 0 1 0 1
Neighs:    1.9 ave 51 max 0 min
Histogram: 37 1 1 0 0 0 0 0 0 1

Total # of neighbors = 76
Ave neighs/atom = 0.0988296
Neighbor list builds = 12366
Dangerous builds = 42
Setting up run at Fri Nov 25 12:16:20 2022

Memory usage per processor = 960.195 Mbytes
    Step    Atoms         KinEng            CPU 
11934140      769     0.61041478              0 
12139901      754     0.29886445      2104.8393 
Loop time of 2104.84 on 40 procs for 205761 steps with 754 atoms, finish time Fri Nov 25 12:51:25 2022


Pair  time (%) = 0.415672 (0.0197484)
Neigh time (%) = 10.4275 (0.495405)
Comm  time (%) = 15.2468 (0.724371)
Outpt time (%) = 0.000548168 (2.60432e-05)
Other time (%) = 2078.75 (98.7604)

Nlocal:    18.85 ave 315 max 0 min
Histogram: 36 1 1 0 0 0 0 1 0 1
Nghost:    4.425 ave 57 max 0 min
Histogram: 36 0 0 0 0 2 0 1 0 1
Neighs:    1.7 ave 50 max 0 min
Histogram: 37 1 1 0 0 0 0 0 0 1

Total # of neighbors = 68
Ave neighs/atom = 0.0901857
Neighbor list builds = 12835
Dangerous builds = 139
Setting up run at Fri Nov 25 12:51:25 2022

Memory usage per processor = 960.195 Mbytes
    Step    Atoms         KinEng            CPU 
12139901      754     0.29886445              0 
12345662      739     0.88837506      2260.2413 
Loop time of 2260.25 on 40 procs for 205761 steps with 739 atoms, finish time Fri Nov 25 13:29:05 2022


Pair  time (%) = 0.421482 (0.0186476)
Neigh time (%) = 13.9627 (0.61775)
Comm  time (%) = 20.5136 (0.907579)
Outpt time (%) = 0.0224945 (0.000995222)
Other time (%) = 2225.33 (98.455)

Nlocal:    18.475 ave 318 max 0 min
Histogram: 36 2 0 0 0 0 1 0 0 1
Nghost:    4.35 ave 48 max 0 min
Histogram: 35 1 0 0 0 0 2 0 0 2
Neighs:    1.725 ave 48 max 0 min
Histogram: 37 1 1 0 0 0 0 0 0 1

Total # of neighbors = 69
Ave neighs/atom = 0.0933694
Neighbor list builds = 17273
Dangerous builds = 1973
Setting up run at Fri Nov 25 13:29:06 2022

Memory usage per processor = 960.195 Mbytes
    Step    Atoms         KinEng            CPU 
12345662      739     0.88837506              0 
12551423      725     0.52329626      2102.4388 
Loop time of 2102.44 on 40 procs for 205761 steps with 725 atoms, finish time Fri Nov 25 14:04:08 2022


Pair  time (%) = 0.413622 (0.0196734)
Neigh time (%) = 10.004 (0.475829)
Comm  time (%) = 15.6301 (0.743426)
Outpt time (%) = 0.000616425 (2.93195e-05)
Other time (%) = 2076.39 (98.761)

Nlocal:    18.125 ave 300 max 0 min
Histogram: 36 2 0 0 0 0 0 1 0 1
Nghost:    4.125 ave 48 max 0 min
Histogram: 36 0 0 0 0 0 1 1 1 1
Neighs:    1.275 ave 34 max 0 min
Histogram: 38 0 1 0 0 0 0 0 0 1

Total # of neighbors = 51
Ave neighs/atom = 0.0703448
Neighbor list builds = 12300
Dangerous builds = 188
Setting up run at Fri Nov 25 14:05:06 2022

Memory usage per processor = 960.195 Mbytes
    Step    Atoms         KinEng            CPU 
12551423      725     0.52329626              0 
12757184      710     0.41543141      2124.7068 
Loop time of 2124.71 on 40 procs for 205761 steps with 710 atoms, finish time Fri Nov 25 14:40:30 2022


Pair  time (%) = 0.411949 (0.0193885)
Neigh time (%) = 10.9344 (0.51463)
Comm  time (%) = 19.6835 (0.926412)
Outpt time (%) = 0.000275888 (1.29847e-05)
Other time (%) = 2093.68 (98.5396)

Nlocal:    17.75 ave 296 max 0 min
Histogram: 36 2 0 0 0 0 0 1 0 1
Nghost:    3.875 ave 48 max 0 min
Histogram: 36 0 0 0 0 1 1 0 1 1
Neighs:    1.325 ave 42 max 0 min
Histogram: 38 1 0 0 0 0 0 0 0 1

Total # of neighbors = 53
Ave neighs/atom = 0.0746479
Neighbor list builds = 13450
Dangerous builds = 9
Setting up run at Fri Nov 25 14:40:30 2022

Memory usage per processor = 960.195 Mbytes
    Step    Atoms         KinEng            CPU 
12757184      710     0.41543141              0 
12962945      699     0.33887743      2093.4923 
Loop time of 2093.49 on 40 procs for 205761 steps with 699 atoms, finish time Fri Nov 25 15:15:24 2022


Pair  time (%) = 0.410863 (0.0196257)
Neigh time (%) = 8.87444 (0.423906)
Comm  time (%) = 13.1256 (0.626974)
Outpt time (%) = 0.000566941 (2.70811e-05)
Other time (%) = 2071.08 (98.9295)

Nlocal:    17.475 ave 298 max 0 min
Histogram: 36 2 0 0 0 0 0 1 0 1
Nghost:    3.625 ave 44 max 0 min
Histogram: 36 0 0 0 0 1 1 1 0 1
Neighs:    1.475 ave 47 max 0 min
Histogram: 38 1 0 0 0 0 0 0 0 1

Total # of neighbors = 59
Ave neighs/atom = 0.0844063
Neighbor list builds = 10916
Dangerous builds = 153
Setting up run at Fri Nov 25 15:15:24 2022

Memory usage per processor = 960.195 Mbytes
    Step    Atoms         KinEng            CPU 
12962945      699     0.33887743              0 
13168706      689     0.39686521      2078.2957 
Loop time of 2078.3 on 40 procs for 205761 steps with 689 atoms, finish time Fri Nov 25 15:50:02 2022


Pair  time (%) = 0.408298 (0.0196458)
Neigh time (%) = 7.8945 (0.379854)
Comm  time (%) = 11.6063 (0.558452)
Outpt time (%) = 0.00029926 (1.43993e-05)
Other time (%) = 2058.39 (99.042)

Nlocal:    17.225 ave 283 max 0 min
Histogram: 36 2 0 0 0 0 0 1 0 1
Nghost:    3.675 ave 41 max 0 min
Histogram: 35 1 0 0 0 0 2 0 0 2
Neighs:    1.15 ave 40 max 0 min
Histogram: 38 1 0 0 0 0 0 0 0 1

Total # of neighbors = 46
Ave neighs/atom = 0.0667634
Neighbor list builds = 9732
Dangerous builds = 7
Setting up run at Fri Nov 25 15:50:02 2022

Memory usage per processor = 960.195 Mbytes
    Step    Atoms         KinEng            CPU 
13168706      689     0.39686521              0 
13374467      679     0.37676358      2103.4251 
Loop time of 2103.47 on 40 procs for 205761 steps with 679 atoms, finish time Fri Nov 25 16:25:06 2022


Pair  time (%) = 0.410497 (0.0195152)
Neigh time (%) = 9.986 (0.47474)
Comm  time (%) = 16.018 (0.761501)
Outpt time (%) = 0.000528623 (2.5131e-05)
Other time (%) = 2077.06 (98.7442)

Nlocal:    16.975 ave 269 max 0 min
Histogram: 36 2 0 0 0 0 0 0 1 1
Nghost:    3.6 ave 47 max 0 min
Histogram: 36 0 0 0 1 1 0 1 0 1
Neighs:    1.275 ave 30 max 0 min
Histogram: 36 2 0 0 0 1 0 0 0 1

Total # of neighbors = 51
Ave neighs/atom = 0.0751105
Neighbor list builds = 12294
Dangerous builds = 526
Setting up run at Fri Nov 25 16:25:06 2022

Memory usage per processor = 960.195 Mbytes
    Step    Atoms         KinEng            CPU 
13374467      679     0.37676358              0 
13580228      669     0.50632471      2105.7338 
Loop time of 2105.73 on 40 procs for 205761 steps with 669 atoms, finish time Fri Nov 25 17:00:12 2022


Pair  time (%) = 0.41081 (0.0195091)
Neigh time (%) = 10.8392 (0.514745)
Comm  time (%) = 18.5759 (0.882157)
Outpt time (%) = 0.000300858 (1.42876e-05)
Other time (%) = 2075.91 (98.5836)

Nlocal:    16.725 ave 261 max 0 min
Histogram: 36 2 0 0 0 0 0 0 1 1
Nghost:    3.525 ave 45 max 0 min
Histogram: 36 0 0 0 0 1 1 0 1 1
Neighs:    1.1 ave 27 max 0 min
Histogram: 38 0 0 0 1 0 0 0 0 1

Total # of neighbors = 44
Ave neighs/atom = 0.0657698
Neighbor list builds = 13328
Dangerous builds = 35
Setting up run at Fri Nov 25 17:00:12 2022

Memory usage per processor = 960.195 Mbytes
    Step    Atoms         KinEng            CPU 
13580228      669     0.50632471              0 
13785989      659      0.8839681      2121.6133 
Loop time of 2121.61 on 40 procs for 205761 steps with 659 atoms, finish time Fri Nov 25 17:35:34 2022


Pair  time (%) = 0.415344 (0.0195768)
Neigh time (%) = 12.6026 (0.594008)
Comm  time (%) = 14.3419 (0.675991)
Outpt time (%) = 0.000628614 (2.9629e-05)
Other time (%) = 2094.25 (98.7104)

Nlocal:    16.475 ave 257 max 0 min
Histogram: 36 2 0 0 0 0 0 0 1 1
Nghost:    3.75 ave 49 max 0 min
Histogram: 36 0 0 0 1 0 1 1 0 1
Neighs:    0.8 ave 20 max 0 min
Histogram: 36 1 2 0 0 0 0 0 0 1

Total # of neighbors = 32
Ave neighs/atom = 0.0485584
Neighbor list builds = 15516
Dangerous builds = 381
Setting up run at Fri Nov 25 17:35:34 2022

Memory usage per processor = 960.195 Mbytes
    Step    Atoms         KinEng            CPU 
13785989      659      0.8839681              0 
13991750      651     0.61921941      2091.7526 
Loop time of 2091.75 on 40 procs for 205761 steps with 651 atoms, finish time Fri Nov 25 18:10:25 2022


Pair  time (%) = 0.409841 (0.0195932)
Neigh time (%) = 9.16789 (0.438288)
Comm  time (%) = 12.0617 (0.576633)
Outpt time (%) = 4.59709e-05 (2.19772e-06)
Other time (%) = 2070.11 (98.9655)

Nlocal:    16.275 ave 249 max 0 min
Histogram: 36 2 0 0 0 0 0 0 1 1
Nghost:    3.625 ave 44 max 0 min
Histogram: 36 0 0 0 0 1 1 0 0 2
Neighs:    1.05 ave 20 max 0 min
Histogram: 36 1 1 0 0 0 0 1 0 1

Total # of neighbors = 42
Ave neighs/atom = 0.0645161
Neighbor list builds = 11278
Dangerous builds = 465
Setting up run at Fri Nov 25 18:10:25 2022

Memory usage per processor = 960.195 Mbytes
    Step    Atoms         KinEng            CPU 
13991750      651     0.61921941              0 
14197511      638     0.48551763       2129.267 
Loop time of 2129.27 on 40 procs for 205761 steps with 638 atoms, finish time Fri Nov 25 18:45:55 2022


Pair  time (%) = 0.411644 (0.0193327)
Neigh time (%) = 10.2756 (0.482587)
Comm  time (%) = 11.4487 (0.537684)
Outpt time (%) = 0.00418088 (0.000196353)
Other time (%) = 2107.13 (98.9602)

Nlocal:    15.95 ave 251 max 0 min
Histogram: 36 2 0 0 0 0 0 0 1 1
Nghost:    3.8 ave 45 max 0 min
Histogram: 36 0 0 0 0 1 1 0 1 1
Neighs:    0.825 ave 14 max 0 min
Histogram: 36 1 0 1 0 0 0 0 1 1

Total # of neighbors = 33
Ave neighs/atom = 0.0517241
Neighbor list builds = 12679
Dangerous builds = 503
Setting up run at Fri Nov 25 18:45:55 2022

Memory usage per processor = 960.195 Mbytes
    Step    Atoms         KinEng            CPU 
14197511      638     0.48551763              0 
14403272      627     0.41876518      2160.3155 
Loop time of 2160.32 on 40 procs for 205761 steps with 627 atoms, finish time Fri Nov 25 19:21:55 2022


Pair  time (%) = 0.407048 (0.018842)
Neigh time (%) = 9.2264 (0.427086)
Comm  time (%) = 11.865 (0.549227)
Outpt time (%) = 0.000572647 (2.65076e-05)
Other time (%) = 2138.82 (99.0048)

Nlocal:    15.675 ave 248 max 0 min
Histogram: 36 2 0 0 0 0 0 0 1 1
Nghost:    3.775 ave 44 max 0 min
Histogram: 36 0 0 0 0 1 1 0 0 2
Neighs:    0.875 ave 20 max 0 min
Histogram: 36 2 0 0 0 1 0 0 0 1

Total # of neighbors = 35
Ave neighs/atom = 0.0558214
Neighbor list builds = 11365
Dangerous builds = 107
Setting up run at Fri Nov 25 19:21:55 2022

Memory usage per processor = 960.195 Mbytes
    Step    Atoms         KinEng            CPU 
14403272      627     0.41876518              0 
14609033      618      0.4373232      2277.4404 
Loop time of 2277.44 on 40 procs for 205761 steps with 618 atoms, finish time Fri Nov 25 19:59:53 2022


Pair  time (%) = 0.404587 (0.017765)
Neigh time (%) = 10.4174 (0.457415)
Comm  time (%) = 14.5896 (0.640613)
Outpt time (%) = 0.000281354 (1.2354e-05)
Other time (%) = 2252.03 (98.8842)

Nlocal:    15.45 ave 245 max 0 min
Histogram: 36 2 0 0 0 0 0 0 1 1
Nghost:    3.575 ave 48 max 0 min
Histogram: 36 0 0 0 1 1 0 0 1 1
Neighs:    0.65 ave 14 max 0 min
Histogram: 38 0 0 0 0 0 0 1 0 1

Total # of neighbors = 26
Ave neighs/atom = 0.0420712
Neighbor list builds = 12801
Dangerous builds = 94
Setting up run at Fri Nov 25 19:59:53 2022

Memory usage per processor = 960.195 Mbytes
    Step    Atoms         KinEng            CPU 
14609033      618      0.4373232              0 
14814794      607     0.40066349      2155.6847 
Loop time of 2155.69 on 40 procs for 205761 steps with 607 atoms, finish time Fri Nov 25 20:35:48 2022


Pair  time (%) = 0.408557 (0.0189525)
Neigh time (%) = 11.3709 (0.527485)
Comm  time (%) = 15.3219 (0.710769)
Outpt time (%) = 0.00403248 (0.000187063)
Other time (%) = 2128.58 (98.7426)

Nlocal:    15.175 ave 237 max 0 min
Histogram: 36 2 0 0 0 0 0 0 1 1
Nghost:    3.4 ave 44 max 0 min
Histogram: 36 0 0 0 2 0 0 0 1 1
Neighs:    0.675 ave 14 max 0 min
Histogram: 37 0 1 0 0 1 0 0 0 1

Total # of neighbors = 27
Ave neighs/atom = 0.0444811
Neighbor list builds = 13987
Dangerous builds = 6
Setting up run at Fri Nov 25 20:35:49 2022

Memory usage per processor = 960.195 Mbytes
    Step    Atoms         KinEng            CPU 
14814794      607     0.40066349              0 
15020555      600     0.56460966      2099.5934 
Loop time of 2099.59 on 40 procs for 205761 steps with 600 atoms, finish time Fri Nov 25 21:10:48 2022


Pair  time (%) = 0.40705 (0.0193871)
Neigh time (%) = 10.2768 (0.489468)
Comm  time (%) = 12.4538 (0.593152)
Outpt time (%) = 0.000305207 (1.45365e-05)
Other time (%) = 2076.46 (98.898)

Nlocal:    15 ave 234 max 0 min
Histogram: 36 2 0 0 0 0 0 0 1 1
Nghost:    3.35 ave 44 max 0 min
Histogram: 36 0 0 0 2 0 0 0 0 2
Neighs:    0.9 ave 19 max 0 min
Histogram: 37 1 0 0 0 0 1 0 0 1

Total # of neighbors = 36
Ave neighs/atom = 0.06
Neighbor list builds = 12648
Dangerous builds = 510
Setting up run at Fri Nov 25 21:10:48 2022

Memory usage per processor = 960.195 Mbytes
    Step    Atoms         KinEng            CPU 
15020555      600     0.56460966              0 
15226316      586     0.48186968      2091.6819 
Loop time of 2091.68 on 40 procs for 205761 steps with 586 atoms, finish time Fri Nov 25 21:45:40 2022


Pair  time (%) = 0.40513 (0.0193686)
Neigh time (%) = 8.74758 (0.418208)
Comm  time (%) = 9.9158 (0.474059)
Outpt time (%) = 0.000563271 (2.69291e-05)
Other time (%) = 2072.61 (99.0883)

Nlocal:    14.65 ave 237 max 0 min
Histogram: 36 2 0 0 0 0 0 0 1 1
Nghost:    3.1 ave 40 max 0 min
Histogram: 36 0 0 0 1 1 0 0 0 2
Neighs:    0.95 ave 20 max 0 min
Histogram: 36 2 0 0 0 0 1 0 0 1

Total # of neighbors = 38
Ave neighs/atom = 0.0648464
Neighbor list builds = 10774
Dangerous builds = 727
Setting up run at Fri Nov 25 21:45:40 2022

Memory usage per processor = 960.195 Mbytes
    Step    Atoms         KinEng            CPU 
15226316      586     0.48186968              0 
15432077      578     0.35312576      2078.8999 
Loop time of 2078.9 on 40 procs for 205761 steps with 578 atoms, finish time Fri Nov 25 22:20:19 2022


Pair  time (%) = 0.400652 (0.0192723)
Neigh time (%) = 7.98424 (0.384061)
Comm  time (%) = 11.2871 (0.542939)
Outpt time (%) = 0.000291313 (1.40128e-05)
Other time (%) = 2059.23 (99.0537)

Nlocal:    14.45 ave 237 max 0 min
Histogram: 36 2 0 0 0 0 0 0 1 1
Nghost:    3.4 ave 41 max 0 min
Histogram: 36 0 0 0 1 1 0 0 0 2
Neighs:    0.825 ave 15 max 0 min
Histogram: 36 0 1 1 0 0 1 0 0 1

Total # of neighbors = 33
Ave neighs/atom = 0.0570934
Neighbor list builds = 9825
Dangerous builds = 4
Setting up run at Fri Nov 25 22:20:20 2022

Memory usage per processor = 960.195 Mbytes
    Step    Atoms         KinEng            CPU 
15432077      578     0.35312576              0 
15637838      573     0.50362388      2107.9655 
Loop time of 2107.97 on 40 procs for 205761 steps with 573 atoms, finish time Fri Nov 25 22:55:28 2022


Pair  time (%) = 0.404628 (0.0191952)
Neigh time (%) = 11.0212 (0.522836)
Comm  time (%) = 17.1138 (0.811865)
Outpt time (%) = 0.000542996 (2.57592e-05)
Other time (%) = 2079.43 (98.6461)

Nlocal:    14.325 ave 237 max 0 min
Histogram: 36 2 0 0 0 0 0 1 0 1
Nghost:    3.1 ave 40 max 0 min
Histogram: 36 0 0 0 1 1 0 0 1 1
Neighs:    0.85 ave 17 max 0 min
Histogram: 36 1 1 0 0 0 1 0 0 1

Total # of neighbors = 34
Ave neighs/atom = 0.0593368
Neighbor list builds = 13525
Dangerous builds = 25
Setting up run at Fri Nov 25 22:55:28 2022

Memory usage per processor = 960.195 Mbytes
    Step    Atoms         KinEng            CPU 
15637838      573     0.50362388              0 
15843599      568     0.39633568       2123.741 
Loop time of 2123.74 on 40 procs for 205761 steps with 568 atoms, finish time Fri Nov 25 23:30:51 2022


Pair  time (%) = 0.405572 (0.019097)
Neigh time (%) = 12.1205 (0.570716)
Comm  time (%) = 17.1035 (0.805347)
Outpt time (%) = 0.000299271 (1.40917e-05)
Other time (%) = 2094.11 (98.6048)

Nlocal:    14.2 ave 232 max 0 min
Histogram: 36 2 0 0 0 0 0 1 0 1
Nghost:    3.2 ave 39 max 0 min
Histogram: 35 1 0 0 1 1 0 0 1 1
Neighs:    0.8 ave 18 max 0 min
Histogram: 37 1 0 0 0 1 0 0 0 1

Total # of neighbors = 32
Ave neighs/atom = 0.056338
Neighbor list builds = 14876
Dangerous builds = 785
Setting up run at Fri Nov 25 23:30:52 2022

Memory usage per processor = 960.195 Mbytes
    Step    Atoms         KinEng            CPU 
15843599      568     0.39633568              0 
16049360      561     0.28068012      2118.3992 
Loop time of 2118.4 on 40 procs for 205761 steps with 561 atoms, finish time Sat Nov 26 00:06:10 2022


Pair  time (%) = 0.403883 (0.0190655)
Neigh time (%) = 11.9561 (0.564393)
Comm  time (%) = 18.3233 (0.864962)
Outpt time (%) = 0.000617156 (2.91331e-05)
Other time (%) = 2087.72 (98.5516)

Nlocal:    14.025 ave 227 max 0 min
Histogram: 36 2 0 0 0 0 0 0 1 1
Nghost:    3.05 ave 34 max 0 min
Histogram: 35 1 0 0 0 0 1 1 0 2
Neighs:    0.675 ave 13 max 0 min
Histogram: 36 1 1 0 0 0 1 0 0 1

Total # of neighbors = 27
Ave neighs/atom = 0.0481283
Neighbor list builds = 14677
Dangerous builds = 108
Setting up run at Sat Nov 26 00:06:10 2022

Memory usage per processor = 960.195 Mbytes
    Step    Atoms         KinEng            CPU 
16049360      561     0.28068012              0 
16255121      555     0.24310647       2104.014 
Loop time of 2104.01 on 40 procs for 205761 steps with 555 atoms, finish time Sat Nov 26 00:41:14 2022


Pair  time (%) = 0.401205 (0.0190686)
Neigh time (%) = 10.3235 (0.490657)
Comm  time (%) = 14.5941 (0.69363)
Outpt time (%) = 0.00019825 (9.42245e-06)
Other time (%) = 2078.69 (98.7966)

Nlocal:    13.875 ave 223 max 0 min
Histogram: 36 2 0 0 0 0 0 0 1 1
Nghost:    3.325 ave 40 max 0 min
Histogram: 36 0 0 0 0 1 1 0 0 2
Neighs:    0.55 ave 11 max 0 min
Histogram: 37 1 0 0 0 0 1 0 0 1

Total # of neighbors = 22
Ave neighs/atom = 0.0396396
Neighbor list builds = 12679
Dangerous builds = 35
Setting up run at Sat Nov 26 00:41:14 2022

Memory usage per processor = 960.195 Mbytes
    Step    Atoms         KinEng            CPU 
16255121      555     0.24310647              0 
16460882      546     0.19825283      2108.7494 
Loop time of 2108.75 on 40 procs for 205761 steps with 546 atoms, finish time Sat Nov 26 01:16:23 2022


Pair  time (%) = 0.396916 (0.0188223)
Neigh time (%) = 10.3062 (0.488733)
Comm  time (%) = 18.0292 (0.85497)
Outpt time (%) = 0.000587838 (2.78762e-05)
Other time (%) = 2080.02 (98.6374)

Nlocal:    13.65 ave 219 max 0 min
Histogram: 36 2 0 0 0 0 0 0 1 1
Nghost:    3.275 ave 42 max 0 min
Histogram: 36 0 0 0 1 1 0 0 0 2
Neighs:    0.5 ave 10 max 0 min
Histogram: 36 2 0 0 0 0 0 0 1 1

Total # of neighbors = 20
Ave neighs/atom = 0.03663
Neighbor list builds = 12699
Dangerous builds = 8
Setting up run at Sat Nov 26 01:16:23 2022

Memory usage per processor = 960.195 Mbytes
    Step    Atoms         KinEng            CPU 
16460882      546     0.19825283              0 
16666643      543     0.26247924      2085.0323 
Loop time of 2085.03 on 40 procs for 205761 steps with 543 atoms, finish time Sat Nov 26 01:51:08 2022


Pair  time (%) = 0.395331 (0.0189604)
Neigh time (%) = 8.3127 (0.398684)
Comm  time (%) = 10.8122 (0.518563)
Outpt time (%) = 0.000372934 (1.78863e-05)
Other time (%) = 2065.51 (99.0638)

Nlocal:    13.575 ave 222 max 0 min
Histogram: 36 2 0 0 0 0 0 1 0 1
Nghost:    3.65 ave 47 max 0 min
Histogram: 36 0 0 0 0 2 0 0 1 1
Neighs:    0.5 ave 11 max 0 min
Histogram: 38 0 0 0 0 1 0 0 0 1

Total # of neighbors = 20
Ave neighs/atom = 0.0368324
Neighbor list builds = 10240
Dangerous builds = 1
Setting up run at Sat Nov 26 01:51:08 2022

Memory usage per processor = 960.195 Mbytes
    Step    Atoms         KinEng            CPU 
16666643      543     0.26247924              0 
16872404      540     0.30870494      2079.2867 
Loop time of 2079.29 on 40 procs for 205761 steps with 540 atoms, finish time Sat Nov 26 02:25:47 2022


Pair  time (%) = 0.394239 (0.0189603)
Neigh time (%) = 7.75709 (0.373065)
Comm  time (%) = 11.6967 (0.562536)
Outpt time (%) = 0.0005543 (2.66582e-05)
Other time (%) = 2059.44 (99.0454)

Nlocal:    13.5 ave 216 max 0 min
Histogram: 35 3 0 0 0 0 0 0 1 1
Nghost:    3.05 ave 39 max 0 min
Histogram: 36 0 0 0 2 0 0 0 1 1
Neighs:    0.625 ave 14 max 0 min
Histogram: 38 0 0 0 0 1 0 0 0 1

Total # of neighbors = 25
Ave neighs/atom = 0.0462963
Neighbor list builds = 9545
Dangerous builds = 1
Setting up run at Sat Nov 26 02:25:48 2022

Memory usage per processor = 960.195 Mbytes
    Step    Atoms         KinEng            CPU 
16872404      540     0.30870494              0 
17078165      531     0.28281506      2088.8248 
Loop time of 2088.83 on 40 procs for 205761 steps with 531 atoms, finish time Sat Nov 26 03:00:37 2022


Pair  time (%) = 0.396086 (0.0189621)
Neigh time (%) = 8.44754 (0.404416)
Comm  time (%) = 14.9226 (0.714401)
Outpt time (%) = 0.000492203 (2.35637e-05)
Other time (%) = 2065.06 (98.8622)

Nlocal:    13.275 ave 213 max 0 min
Histogram: 36 2 0 0 0 0 0 0 1 1
Nghost:    3.15 ave 42 max 0 min
Histogram: 36 0 0 0 0 2 0 1 0 1
Neighs:    0.475 ave 9 max 0 min
Histogram: 36 1 1 0 0 0 0 1 0 1

Total # of neighbors = 19
Ave neighs/atom = 0.0357815
Neighbor list builds = 10413
Dangerous builds = 255
Setting up run at Sat Nov 26 03:00:37 2022

Memory usage per processor = 960.195 Mbytes
    Step    Atoms         KinEng            CPU 
17078165      531     0.28281506              0 
17283926      526     0.24029314      2101.5579 
Loop time of 2101.56 on 40 procs for 205761 steps with 526 atoms, finish time Sat Nov 26 03:35:38 2022


Pair  time (%) = 0.398704 (0.0189718)
Neigh time (%) = 10.4539 (0.497436)
Comm  time (%) = 15.7496 (0.749427)
Outpt time (%) = 0.00394123 (0.000187539)
Other time (%) = 2074.95 (98.734)

Nlocal:    13.15 ave 215 max 0 min
Histogram: 36 2 0 0 0 0 0 1 0 1
Nghost:    3.225 ave 45 max 0 min
Histogram: 36 0 0 0 2 0 0 1 0 1
Neighs:    0.725 ave 16 max 0 min
Histogram: 37 1 0 0 0 1 0 0 0 1

Total # of neighbors = 29
Ave neighs/atom = 0.0551331
Neighbor list builds = 12866
Dangerous builds = 2
Setting up run at Sat Nov 26 03:35:38 2022

Memory usage per processor = 960.195 Mbytes
    Step    Atoms         KinEng            CPU 
17283926      526     0.24029314              0 
17489687      518     0.59686344       2065.462 
Loop time of 2065.46 on 40 procs for 205761 steps with 518 atoms, finish time Sat Nov 26 04:10:04 2022


Pair  time (%) = 0.392433 (0.0189998)
Neigh time (%) = 6.41936 (0.310795)
Comm  time (%) = 10.2652 (0.496994)
Outpt time (%) = 0.000603745 (2.92305e-05)
Other time (%) = 2048.38 (99.1732)

Nlocal:    12.95 ave 205 max 0 min
Histogram: 36 2 0 0 0 0 0 0 1 1
Nghost:    2.85 ave 37 max 0 min
Histogram: 36 0 0 0 2 0 0 0 0 2
Neighs:    0.45 ave 12 max 0 min
Histogram: 38 0 0 1 0 0 0 0 0 1

Total # of neighbors = 18
Ave neighs/atom = 0.034749
Neighbor list builds = 7902
Dangerous builds = 57
Setting up run at Sat Nov 26 04:10:04 2022

Memory usage per processor = 960.195 Mbytes
    Step    Atoms         KinEng            CPU 
17489687      518     0.59686344              0 
17695448      514     0.38787257      2080.3013 
Loop time of 2080.3 on 40 procs for 205761 steps with 514 atoms, finish time Sat Nov 26 04:44:44 2022


Pair  time (%) = 0.392293 (0.0188575)
Neigh time (%) = 7.47803 (0.359469)
Comm  time (%) = 9.99984 (0.480692)
Outpt time (%) = 0.000294605 (1.41617e-05)
Other time (%) = 2062.43 (99.141)

Nlocal:    12.85 ave 201 max 0 min
Histogram: 36 2 0 0 0 0 0 0 1 1
Nghost:    2.625 ave 32 max 0 min
Histogram: 36 0 0 0 0 2 0 0 0 2
Neighs:    0.425 ave 12 max 0 min
Histogram: 38 0 0 1 0 0 0 0 0 1

Total # of neighbors = 17
Ave neighs/atom = 0.0330739
Neighbor list builds = 9189
Dangerous builds = 309
Setting up run at Sat Nov 26 04:44:44 2022

Memory usage per processor = 960.195 Mbytes
    Step    Atoms         KinEng            CPU 
17695448      514     0.38787257              0 
17901209      505     0.37093538      2078.7414 
Loop time of 2078.74 on 40 procs for 205761 steps with 505 atoms, finish time Sat Nov 26 05:19:23 2022


Pair  time (%) = 0.39301 (0.0189061)
Neigh time (%) = 7.62375 (0.366748)
Comm  time (%) = 8.79605 (0.423143)
Outpt time (%) = 0.000598612 (2.87968e-05)
Other time (%) = 2061.93 (99.1912)

Nlocal:    12.625 ave 192 max 0 min
Histogram: 36 2 0 0 0 0 0 0 0 2
Nghost:    2.575 ave 32 max 0 min
Histogram: 36 0 0 0 1 1 0 0 0 2
Neighs:    0.4 ave 11 max 0 min
Histogram: 38 0 1 0 0 0 0 0 0 1

Total # of neighbors = 16
Ave neighs/atom = 0.0316832
Neighbor list builds = 9355
Dangerous builds = 236
Setting up run at Sat Nov 26 05:19:23 2022

Memory usage per processor = 960.195 Mbytes
    Step    Atoms         KinEng            CPU 
17901209      505     0.37093538              0 
18106970      496     0.45333866      2108.2444 
Loop time of 2108.24 on 40 procs for 205761 steps with 496 atoms, finish time Sat Nov 26 05:54:31 2022


Pair  time (%) = 0.403489 (0.0191386)
Neigh time (%) = 11.1566 (0.529187)
Comm  time (%) = 11.9659 (0.567575)
Outpt time (%) = 0.00169756 (8.05202e-05)
Other time (%) = 2084.72 (98.884)

Nlocal:    12.4 ave 189 max 0 min
Histogram: 36 2 0 0 0 0 0 0 0 2
Nghost:    2.6 ave 31 max 0 min
Histogram: 36 0 0 0 0 1 1 0 0 2
Neighs:    0.35 ave 8 max 0 min
Histogram: 34 4 1 0 0 0 0 0 0 1

Total # of neighbors = 14
Ave neighs/atom = 0.0282258
Neighbor list builds = 13753
Dangerous builds = 1171
Setting up run at Sat Nov 26 05:54:32 2022

Memory usage per processor = 960.195 Mbytes
    Step    Atoms         KinEng            CPU 
18106970      496     0.45333866              0 
18312731      485     0.38451192      2084.4699 
Loop time of 2084.47 on 40 procs for 205761 steps with 485 atoms, finish time Sat Nov 26 06:29:16 2022


Pair  time (%) = 0.39547 (0.0189722)
Neigh time (%) = 7.70512 (0.369644)
Comm  time (%) = 7.07483 (0.339406)
Outpt time (%) = 0.000566405 (2.71726e-05)
Other time (%) = 2069.29 (99.272)

Nlocal:    12.125 ave 185 max 0 min
Histogram: 36 2 0 0 0 0 0 0 0 2
Nghost:    2.675 ave 33 max 0 min
Histogram: 36 0 0 0 0 2 0 0 0 2
Neighs:    0.275 ave 7 max 0 min
Histogram: 37 1 0 0 1 0 0 0 0 1

Total # of neighbors = 11
Ave neighs/atom = 0.0226804
Neighbor list builds = 9453
Dangerous builds = 121
Setting up run at Sat Nov 26 06:29:16 2022

Memory usage per processor = 960.195 Mbytes
    Step    Atoms         KinEng            CPU 
18312731      485     0.38451192              0 
18518492      483     0.39471834      2105.8125 
Loop time of 2105.81 on 40 procs for 205761 steps with 483 atoms, finish time Sat Nov 26 07:04:22 2022


Pair  time (%) = 0.396616 (0.0188344)
Neigh time (%) = 10.9498 (0.519978)
Comm  time (%) = 12.6026 (0.598465)
Outpt time (%) = 0.000278285 (1.32151e-05)
Other time (%) = 2081.86 (98.8627)

Nlocal:    12.075 ave 184 max 0 min
Histogram: 36 1 1 0 0 0 0 0 0 2
Nghost:    2.575 ave 32 max 0 min
Histogram: 36 0 0 0 0 2 0 0 0 2
Neighs:    0.325 ave 6 max 0 min
Histogram: 36 2 0 0 0 0 0 0 1 1

Total # of neighbors = 13
Ave neighs/atom = 0.0269151
Neighbor list builds = 13438
Dangerous builds = 392
Setting up run at Sat Nov 26 07:04:22 2022

Memory usage per processor = 960.195 Mbytes
    Step    Atoms         KinEng            CPU 
18518492      483     0.39471834              0 
18724253      477     0.54845404      2091.3478 
Loop time of 2091.35 on 40 procs for 205761 steps with 477 atoms, finish time Sat Nov 26 07:39:13 2022


Pair  time (%) = 0.392199 (0.0187534)
Neigh time (%) = 8.94993 (0.42795)
Comm  time (%) = 12.7845 (0.611304)
[...]
Neighs:    0.2 ave 5 max 0 min
Histogram: 38 0 0 0 0 0 1 0 0 1

Total # of neighbors = 8
Ave neighs/atom = 0.0344828
Neighbor list builds = 8819
Dangerous builds = 0
Setting up run at Mon Nov 28 09:33:53 2022

Memory usage per processor = 960.195 Mbytes
    Step    Atoms         KinEng            CPU 
36419729      232     0.14200232              0 
36625490      232     0.13846079      2068.7707 
Loop time of 2068.77 on 40 procs for 205761 steps with 232 atoms, finish time Mon Nov 28 10:08:21 2022


Pair  time (%) = 0.374922 (0.0181229)
Neigh time (%) = 6.75209 (0.326382)
Comm  time (%) = 8.38416 (0.405273)
Outpt time (%) = 0.00032433 (1.56774e-05)
Other time (%) = 2053.26 (99.2502)

Nlocal:    5.8 ave 107 max 0 min
Histogram: 38 0 0 0 0 0 0 1 0 1
Nghost:    0.875 ave 12 max 0 min
Histogram: 35 1 2 0 0 0 0 0 0 2
Neighs:    0.25 ave 7 max 0 min
Histogram: 38 0 0 0 1 0 0 0 0 1

Total # of neighbors = 10
Ave neighs/atom = 0.0431034
Neighbor list builds = 8261
Dangerous builds = 0
Setting up run at Mon Nov 28 10:08:21 2022

Memory usage per processor = 960.195 Mbytes
    Step    Atoms         KinEng            CPU 
36625490      232     0.13846079              0 
36831251      231     0.14576067      2063.8749 
Loop time of 2063.9 on 40 procs for 205761 steps with 231 atoms, finish time Mon Nov 28 10:42:45 2022


Pair  time (%) = 0.377288 (0.0182803)
Neigh time (%) = 6.72106 (0.325648)
Comm  time (%) = 6.71006 (0.325116)
Outpt time (%) = 0.00702141 (0.000340201)
Other time (%) = 2050.08 (99.3306)

Nlocal:    5.775 ave 106 max 0 min
Histogram: 38 0 0 0 0 0 0 1 0 1
Nghost:    0.925 ave 13 max 0 min
Histogram: 36 0 1 1 0 0 0 0 1 1
Neighs:    0.175 ave 5 max 0 min
Histogram: 38 0 0 0 1 0 0 0 0 1

Total # of neighbors = 7
Ave neighs/atom = 0.030303
Neighbor list builds = 8216
Dangerous builds = 1
Setting up run at Mon Nov 28 10:42:46 2022

Memory usage per processor = 960.195 Mbytes
    Step    Atoms         KinEng            CPU 
36831251      231     0.14576067              0 
37037012      231     0.14534741      2066.4868 
Loop time of 2066.49 on 40 procs for 205761 steps with 231 atoms, finish time Mon Nov 28 11:17:12 2022


Pair  time (%) = 0.38052 (0.0184139)
Neigh time (%) = 7.00774 (0.339114)
Comm  time (%) = 3.97177 (0.192199)
Outpt time (%) = 0.000288105 (1.39418e-05)
Other time (%) = 2055.13 (99.4503)

Nlocal:    5.775 ave 107 max 0 min
Histogram: 38 0 0 0 0 0 0 1 0 1
Nghost:    0.85 ave 13 max 0 min
Histogram: 36 0 1 1 0 0 0 1 0 1
Neighs:    0.275 ave 8 max 0 min
Histogram: 38 0 0 1 0 0 0 0 0 1

Total # of neighbors = 11
Ave neighs/atom = 0.047619
Neighbor list builds = 8572
Dangerous builds = 0
Setting up run at Mon Nov 28 11:17:12 2022

Memory usage per processor = 960.195 Mbytes
    Step    Atoms         KinEng            CPU 
37037012      231     0.14534741              0 
37242773      230     0.21504124      2093.2642 
Loop time of 2093.26 on 40 procs for 205761 steps with 230 atoms, finish time Mon Nov 28 11:52:05 2022


Pair  time (%) = 0.382061 (0.0182519)
Neigh time (%) = 7.64039 (0.364999)
Comm  time (%) = 5.44821 (0.260274)
Outpt time (%) = 0.000600707 (2.86971e-05)
Other time (%) = 2079.79 (99.3564)

Nlocal:    5.75 ave 107 max 0 min
Histogram: 38 0 0 0 0 0 0 1 0 1
Nghost:    0.85 ave 11 max 0 min
Histogram: 36 0 0 0 1 1 0 1 0 1
Neighs:    0.275 ave 10 max 0 min
Histogram: 38 1 0 0 0 0 0 0 0 1

Total # of neighbors = 11
Ave neighs/atom = 0.0478261
Neighbor list builds = 9340
Dangerous builds = 1
Setting up run at Mon Nov 28 11:52:05 2022

Memory usage per processor = 960.195 Mbytes
    Step    Atoms         KinEng            CPU 
37242773      230     0.21504124              0 
37448534      228     0.20466456      2118.4255 
Loop time of 2118.43 on 40 procs for 205761 steps with 228 atoms, finish time Mon Nov 28 12:27:24 2022


Pair  time (%) = 0.382638 (0.0180624)
Neigh time (%) = 7.72218 (0.364524)
Comm  time (%) = 5.87323 (0.277245)
Outpt time (%) = 0.000284999 (1.34533e-05)
Other time (%) = 2104.45 (99.3402)

Nlocal:    5.7 ave 107 max 0 min
Histogram: 38 0 0 0 0 0 0 1 0 1
Nghost:    0.775 ave 11 max 0 min
Histogram: 36 0 1 0 1 0 0 0 1 1
Neighs:    0.225 ave 8 max 0 min
Histogram: 38 1 0 0 0 0 0 0 0 1

Total # of neighbors = 9
Ave neighs/atom = 0.0394737
Neighbor list builds = 9442
Dangerous builds = 133
Setting up run at Mon Nov 28 12:27:24 2022

Memory usage per processor = 960.195 Mbytes
    Step    Atoms         KinEng            CPU 
37448534      228     0.20466456              0 
37654295      228     0.28186363      2113.2144 
Loop time of 2113.21 on 40 procs for 205761 steps with 228 atoms, finish time Mon Nov 28 13:02:37 2022


Pair  time (%) = 0.386779 (0.0183029)
Neigh time (%) = 10.2607 (0.48555)
Comm  time (%) = 6.60343 (0.312483)
Outpt time (%) = 0.000532595 (2.52031e-05)
Other time (%) = 2095.96 (99.1836)

Nlocal:    5.7 ave 107 max 0 min
Histogram: 38 0 0 0 0 0 0 1 0 1
Nghost:    0.9 ave 12 max 0 min
Histogram: 35 2 0 0 0 1 0 0 0 2
Neighs:    0.225 ave 7 max 0 min
Histogram: 38 0 1 0 0 0 0 0 0 1

Total # of neighbors = 9
Ave neighs/atom = 0.0394737
Neighbor list builds = 12564
Dangerous builds = 0
Setting up run at Mon Nov 28 13:02:37 2022

Memory usage per processor = 960.195 Mbytes
    Step    Atoms         KinEng            CPU 
37654295      228     0.28186363              0 
37860056      227     0.22560401      2113.4106 
Loop time of 2113.41 on 40 procs for 205761 steps with 227 atoms, finish time Mon Nov 28 13:37:51 2022


Pair  time (%) = 0.386099 (0.018269)
Neigh time (%) = 8.63997 (0.408816)
Comm  time (%) = 5.95144 (0.281604)
Outpt time (%) = 0.000294116 (1.39167e-05)
Other time (%) = 2098.43 (99.2913)

Nlocal:    5.675 ave 107 max 0 min
Histogram: 38 0 0 0 0 0 0 1 0 1
Nghost:    0.875 ave 12 max 0 min
Histogram: 35 1 1 1 0 0 0 0 1 1
Neighs:    0.225 ave 6 max 0 min
Histogram: 38 0 0 0 0 1 0 0 0 1

Total # of neighbors = 9
Ave neighs/atom = 0.0396476
Neighbor list builds = 10562
Dangerous builds = 1
Setting up run at Mon Nov 28 13:37:51 2022

Memory usage per processor = 960.195 Mbytes
    Step    Atoms         KinEng            CPU 
37860056      227     0.22560401              0 
38065817      225     0.21907927      2085.1461 
Loop time of 2085.15 on 40 procs for 205761 steps with 225 atoms, finish time Mon Nov 28 14:12:36 2022


Pair  time (%) = 0.383271 (0.018381)
Neigh time (%) = 7.80085 (0.374115)
Comm  time (%) = 5.98519 (0.287039)
Outpt time (%) = 0.000555243 (2.66285e-05)
Other time (%) = 2070.98 (99.3204)

Nlocal:    5.625 ave 110 max 0 min
Histogram: 38 0 0 0 0 0 1 0 0 1
Nghost:    0.85 ave 13 max 0 min
Histogram: 35 1 1 0 1 1 0 0 0 1
Neighs:    0.125 ave 5 max 0 min
Histogram: 39 0 0 0 0 0 0 0 0 1

Total # of neighbors = 5
Ave neighs/atom = 0.0222222
Neighbor list builds = 9536
Dangerous builds = 0
Setting up run at Mon Nov 28 14:12:36 2022

Memory usage per processor = 960.195 Mbytes
    Step    Atoms         KinEng            CPU 
38065817      225     0.21907927              0 
38271578      222     0.17276445      2112.0402 
Loop time of 2112.04 on 40 procs for 205761 steps with 222 atoms, finish time Mon Nov 28 14:47:48 2022


Pair  time (%) = 0.378126 (0.0179033)
Neigh time (%) = 7.4873 (0.354505)
Comm  time (%) = 5.4818 (0.25955)
Outpt time (%) = 0.000146647 (6.9434e-06)
Other time (%) = 2098.69 (99.368)

Nlocal:    5.55 ave 108 max 0 min
Histogram: 38 0 0 0 0 0 0 1 0 1
Nghost:    0.875 ave 10 max 0 min
Histogram: 31 4 1 0 1 0 0 1 1 1
Neighs:    0.2 ave 8 max 0 min
Histogram: 39 0 0 0 0 0 0 0 0 1

Total # of neighbors = 8
Ave neighs/atom = 0.036036
Neighbor list builds = 9157
Dangerous builds = 0
Setting up run at Mon Nov 28 14:47:48 2022

Memory usage per processor = 960.195 Mbytes
    Step    Atoms         KinEng            CPU 
38271578      222     0.17276445              0 
38477339      221     0.18606907      2099.1317 
Loop time of 2099.13 on 40 procs for 205761 steps with 221 atoms, finish time Mon Nov 28 15:22:47 2022


Pair  time (%) = 0.378313 (0.0180224)
Neigh time (%) = 7.82459 (0.372754)
Comm  time (%) = 6.03146 (0.287331)
Outpt time (%) = 0.00051389 (2.44811e-05)
Other time (%) = 2084.9 (99.3219)

Nlocal:    5.525 ave 108 max 0 min
Histogram: 37 1 0 0 0 0 0 1 0 1
Nghost:    0.85 ave 10 max 0 min
Histogram: 32 3 1 0 1 0 0 1 1 1
Neighs:    0.2 ave 7 max 0 min
Histogram: 38 1 0 0 0 0 0 0 0 1

Total # of neighbors = 8
Ave neighs/atom = 0.0361991
Neighbor list builds = 9572
Dangerous builds = 1
Setting up run at Mon Nov 28 15:22:48 2022

Memory usage per processor = 960.195 Mbytes
    Step    Atoms         KinEng            CPU 
38477339      221     0.18606907              0 
38683100      217     0.14111641      2093.9459 
Loop time of 2093.95 on 40 procs for 205761 steps with 217 atoms, finish time Mon Nov 28 15:57:42 2022


Pair  time (%) = 0.381113 (0.0182007)
Neigh time (%) = 8.06069 (0.384952)
Comm  time (%) = 6.96988 (0.332859)
Outpt time (%) = 0.000106259 (5.07456e-06)
Other time (%) = 2078.53 (99.264)

Nlocal:    5.425 ave 108 max 0 min
Histogram: 38 0 0 0 0 0 0 1 0 1
Nghost:    0.75 ave 9 max 0 min
Histogram: 32 3 1 1 0 0 1 1 0 1
Neighs:    0.2 ave 8 max 0 min
Histogram: 39 0 0 0 0 0 0 0 0 1

Total # of neighbors = 8
Ave neighs/atom = 0.0368664
Neighbor list builds = 9884
Dangerous builds = 492
Setting up run at Mon Nov 28 15:57:42 2022

Memory usage per processor = 960.195 Mbytes
    Step    Atoms         KinEng            CPU 
38683100      217     0.14111641              0 
38888861      215     0.18651326      2090.9182 
Loop time of 2090.92 on 40 procs for 205761 steps with 215 atoms, finish time Mon Nov 28 16:32:32 2022


Pair  time (%) = 0.378018 (0.018079)
Neigh time (%) = 7.61085 (0.363995)
Comm  time (%) = 7.19985 (0.344339)
Outpt time (%) = 0.000577026 (2.75968e-05)
Other time (%) = 2075.73 (99.2736)

Nlocal:    5.375 ave 106 max 0 min
Histogram: 38 0 0 0 0 0 0 1 0 1
Nghost:    0.825 ave 8 max 0 min
Histogram: 30 5 1 0 0 1 0 0 2 1
Neighs:    0.2 ave 8 max 0 min
Histogram: 39 0 0 0 0 0 0 0 0 1

Total # of neighbors = 8
Ave neighs/atom = 0.0372093
Neighbor list builds = 9316
Dangerous builds = 1
Setting up run at Mon Nov 28 16:32:33 2022

Memory usage per processor = 960.195 Mbytes
    Step    Atoms         KinEng            CPU 
38888861      215     0.18651326              0 
39094622      213     0.15837769      2089.5075 
Loop time of 2089.51 on 40 procs for 205761 steps with 213 atoms, finish time Mon Nov 28 17:07:22 2022


Pair  time (%) = 0.37525 (0.0179588)
Neigh time (%) = 8.3483 (0.399534)
Comm  time (%) = 10.521 (0.503516)
Outpt time (%) = 0.000341858 (1.63607e-05)
Other time (%) = 2070.26 (99.079)

Nlocal:    5.325 ave 105 max 0 min
Histogram: 38 0 0 0 0 0 0 1 0 1
Nghost:    0.775 ave 7 max 0 min
Histogram: 32 3 0 0 0 2 0 0 1 2
Neighs:    0.15 ave 6 max 0 min
Histogram: 39 0 0 0 0 0 0 0 0 1

Total # of neighbors = 6
Ave neighs/atom = 0.028169
Neighbor list builds = 10229
Dangerous builds = 1
Setting up run at Mon Nov 28 17:07:22 2022

Memory usage per processor = 960.195 Mbytes
    Step    Atoms         KinEng            CPU 
39094622      213     0.15837769              0 
39300383      213     0.15127456      2078.4992 
Loop time of 2078.51 on 40 procs for 205761 steps with 213 atoms, finish time Mon Nov 28 17:42:01 2022


Pair  time (%) = 0.375233 (0.018053)
Neigh time (%) = 7.57149 (0.364275)
Comm  time (%) = 9.88078 (0.475378)
Outpt time (%) = 0.000580392 (2.79235e-05)
Other time (%) = 2060.68 (99.1423)

Nlocal:    5.325 ave 104 max 0 min
Histogram: 38 0 0 0 0 0 0 1 0 1
Nghost:    0.85 ave 8 max 0 min
Histogram: 31 3 0 1 0 2 0 2 0 1
Neighs:    0.15 ave 6 max 0 min
Histogram: 39 0 0 0 0 0 0 0 0 1

Total # of neighbors = 6
Ave neighs/atom = 0.028169
Neighbor list builds = 9263
Dangerous builds = 0
Setting up run at Mon Nov 28 17:42:01 2022

Memory usage per processor = 960.195 Mbytes
    Step    Atoms         KinEng            CPU 
39300383      213     0.15127456              0 
39506144      212     0.17496877      2108.1594 
Loop time of 2108.16 on 40 procs for 205761 steps with 212 atoms, finish time Mon Nov 28 18:17:09 2022


Pair  time (%) = 0.376406 (0.0178547)
Neigh time (%) = 7.67458 (0.364042)
Comm  time (%) = 10.2637 (0.486856)
Outpt time (%) = 0.000295861 (1.40341e-05)
Other time (%) = 2089.84 (99.1312)

Nlocal:    5.3 ave 104 max 0 min
Histogram: 38 0 0 0 0 0 0 1 0 1
Nghost:    0.8 ave 8 max 0 min
Histogram: 31 3 1 1 0 1 1 0 1 1
Neighs:    0.2 ave 6 max 0 min
Histogram: 38 0 0 1 0 0 0 0 0 1

Total # of neighbors = 8
Ave neighs/atom = 0.0377358
Neighbor list builds = 9395
Dangerous builds = 1
Setting up run at Mon Nov 28 18:17:09 2022

Memory usage per processor = 960.195 Mbytes
    Step    Atoms         KinEng            CPU 
39506144      212     0.17496877              0 
39711905      210     0.16870799      2092.8985 
Loop time of 2092.9 on 40 procs for 205761 steps with 210 atoms, finish time Mon Nov 28 18:52:02 2022


Pair  time (%) = 0.373311 (0.017837)
Neigh time (%) = 6.68622 (0.319472)
Comm  time (%) = 9.78056 (0.467321)
Outpt time (%) = 0.000525852 (2.51255e-05)
Other time (%) = 2076.06 (99.1953)

Nlocal:    5.25 ave 103 max 0 min
Histogram: 38 0 0 0 0 0 1 0 0 1
Nghost:    0.85 ave 10 max 0 min
Histogram: 31 3 1 1 1 1 0 1 0 1
Neighs:    0.2 ave 6 max 0 min
Histogram: 38 0 0 1 0 0 0 0 0 1

Total # of neighbors = 8
Ave neighs/atom = 0.0380952
Neighbor list builds = 8186
Dangerous builds = 0
Setting up run at Mon Nov 28 18:52:02 2022

Memory usage per processor = 960.195 Mbytes
    Step    Atoms         KinEng            CPU 
39711905      210     0.16870799              0 
39917666      209     0.13609893      2127.7636 
Loop time of 2127.76 on 40 procs for 205761 steps with 209 atoms, finish time Mon Nov 28 19:27:30 2022


Pair  time (%) = 0.373939 (0.0175743)
Neigh time (%) = 6.68934 (0.314383)
Comm  time (%) = 8.20619 (0.385672)
Outpt time (%) = 0.000267924 (1.25918e-05)
Other time (%) = 2112.49 (99.2824)

Nlocal:    5.225 ave 102 max 0 min
Histogram: 38 0 0 0 0 0 0 1 0 1
Nghost:    0.825 ave 9 max 0 min
Histogram: 31 4 1 0 1 0 1 0 1 1
Neighs:    0.225 ave 7 max 0 min
Histogram: 38 0 1 0 0 0 0 0 0 1

Total # of neighbors = 9
Ave neighs/atom = 0.0430622
Neighbor list builds = 8204
Dangerous builds = 294
Setting up run at Mon Nov 28 19:27:30 2022

Memory usage per processor = 960.195 Mbytes
    Step    Atoms         KinEng            CPU 
39917666      209     0.13609893              0 
40123427      207     0.10444981      2081.4087 
Loop time of 2081.41 on 40 procs for 205761 steps with 207 atoms, finish time Mon Nov 28 20:02:11 2022


Pair  time (%) = 0.376543 (0.0180908)
Neigh time (%) = 7.8424 (0.376783)
Comm  time (%) = 8.76521 (0.421119)
Outpt time (%) = 0.000507815 (2.43976e-05)
Other time (%) = 2064.42 (99.184)

Nlocal:    5.175 ave 102 max 0 min
Histogram: 38 0 0 0 0 0 0 1 0 1
Nghost:    0.875 ave 9 max 0 min
Histogram: 30 5 1 0 0 2 0 0 0 2
Neighs:    0.2 ave 6 max 0 min
Histogram: 38 0 0 1 0 0 0 0 0 1

Total # of neighbors = 8
Ave neighs/atom = 0.0386473
Neighbor list builds = 9600
Dangerous builds = 0
Setting up run at Mon Nov 28 20:02:12 2022

Memory usage per processor = 960.195 Mbytes
    Step    Atoms         KinEng            CPU 
40123427      207     0.10444981              0 
40329188      206     0.10933147      2060.2049 
Loop time of 2060.21 on 40 procs for 205761 steps with 206 atoms, finish time Mon Nov 28 20:36:32 2022


Pair  time (%) = 0.375779 (0.0182399)
Neigh time (%) = 7.02188 (0.340834)
Comm  time (%) = 8.58173 (0.416547)
Outpt time (%) = 0.000294808 (1.43097e-05)
Other time (%) = 2044.23 (99.2244)

Nlocal:    5.15 ave 104 max 0 min
Histogram: 38 0 0 0 0 0 1 0 0 1
Nghost:    0.95 ave 13 max 0 min
Histogram: 35 1 0 1 1 0 1 0 0 1
Neighs:    0.2 ave 6 max 0 min
Histogram: 38 0 0 1 0 0 0 0 0 1

Total # of neighbors = 8
Ave neighs/atom = 0.038835
Neighbor list builds = 8607
Dangerous builds = 0
Setting up run at Mon Nov 28 20:36:32 2022

Memory usage per processor = 960.195 Mbytes
    Step    Atoms         KinEng            CPU 
40329188      206     0.10933147              0 
40534949      206     0.15597807      2078.9356 
Loop time of 2078.94 on 40 procs for 205761 steps with 206 atoms, finish time Mon Nov 28 21:11:11 2022


Pair  time (%) = 0.375899 (0.0180813)
Neigh time (%) = 7.64943 (0.367949)
Comm  time (%) = 9.83004 (0.47284)
Outpt time (%) = 0.000594118 (2.8578e-05)
Other time (%) = 2061.08 (99.1411)

Nlocal:    5.15 ave 104 max 0 min
Histogram: 38 0 0 0 0 0 1 0 0 1
Nghost:    1 ave 15 max 0 min
Histogram: 36 0 0 1 1 0 1 0 0 1
Neighs:    0.2 ave 6 max 0 min
Histogram: 38 0 0 1 0 0 0 0 0 1

Total # of neighbors = 8
Ave neighs/atom = 0.038835
Neighbor list builds = 9372
Dangerous builds = 0
Setting up run at Mon Nov 28 21:11:11 2022

Memory usage per processor = 960.195 Mbytes
    Step    Atoms         KinEng            CPU 
40534949      206     0.15597807              0 
40740710      205      0.1344323      2067.1019 
Loop time of 2067.1 on 40 procs for 205761 steps with 205 atoms, finish time Mon Nov 28 21:45:38 2022


Pair  time (%) = 0.373462 (0.0180669)
Neigh time (%) = 7.29148 (0.352739)
Comm  time (%) = 9.27845 (0.448863)
Outpt time (%) = 0.000276584 (1.33803e-05)
Other time (%) = 2050.16 (99.1803)

Nlocal:    5.125 ave 104 max 0 min
Histogram: 38 0 0 0 0 0 1 0 0 1
Nghost:    1 ave 18 max 0 min
Histogram: 36 0 1 1 1 0 0 0 0 1
Neighs:    0.25 ave 7 max 0 min
Histogram: 38 0 0 0 1 0 0 0 0 1

Total # of neighbors = 10
Ave neighs/atom = 0.0487805
Neighbor list builds = 8937
Dangerous builds = 0
Setting up run at Mon Nov 28 21:45:38 2022

Memory usage per processor = 960.195 Mbytes
    Step    Atoms         KinEng            CPU 
40740710      205      0.1344323              0 
40946471      203     0.13196644      2081.4394 
Loop time of 2081.44 on 40 procs for 205761 steps with 203 atoms, finish time Mon Nov 28 22:20:20 2022


Pair  time (%) = 0.374852 (0.0180093)
Neigh time (%) = 7.59918 (0.365092)
Comm  time (%) = 7.95772 (0.382318)
Outpt time (%) = 0.000686141 (3.29647e-05)
Other time (%) = 2065.51 (99.2345)

Nlocal:    5.075 ave 105 max 0 min
Histogram: 38 0 0 0 0 0 1 0 0 1
Nghost:    0.95 ave 19 max 0 min
Histogram: 36 0 2 1 0 0 0 0 0 1
Neighs:    0.175 ave 6 max 0 min
Histogram: 38 1 0 0 0 0 0 0 0 1

Total # of neighbors = 7
Ave neighs/atom = 0.0344828
Neighbor list builds = 9314
Dangerous builds = 42
Setting up run at Mon Nov 28 22:20:20 2022

Memory usage per processor = 960.195 Mbytes
    Step    Atoms         KinEng            CPU 
40946471      203     0.13196644              0 
41152232      200     0.20164968      2078.3243 
Loop time of 2078.34 on 40 procs for 205761 steps with 200 atoms, finish time Mon Nov 28 22:54:58 2022


Pair  time (%) = 0.377385 (0.018158)
Neigh time (%) = 7.68058 (0.369553)
Comm  time (%) = 6.35205 (0.305631)
Outpt time (%) = 0.000566367 (2.72509e-05)
Other time (%) = 2063.93 (99.3066)

Nlocal:    5 ave 102 max 0 min
Histogram: 38 0 0 0 0 0 1 0 0 1
Nghost:    0.925 ave 18 max 0 min
Histogram: 36 0 2 0 1 0 0 0 0 1
Neighs:    0.175 ave 7 max 0 min
Histogram: 39 0 0 0 0 0 0 0 0 1

Total # of neighbors = 7
Ave neighs/atom = 0.035
Neighbor list builds = 9410
Dangerous builds = 0
Setting up run at Mon Nov 28 22:54:58 2022

Memory usage per processor = 960.195 Mbytes
    Step    Atoms         KinEng            CPU 
41152232      200     0.20164968              0 
41152262      200      0.2016443     0.27350522 
Loop time of 0.273518 on 40 procs for 30 steps with 200 atoms, finish time Mon Nov 28 22:54:58 2022


Pair  time (%) = 5.24989e-05 (0.019194)
Neigh time (%) = 0.000802758 (0.293494)
Comm  time (%) = 0.000549167 (0.200779)
Outpt time (%) = 0.000162479 (0.0594034)
Other time (%) = 0.271951 (99.4271)

Nlocal:    5 ave 102 max 0 min
Histogram: 38 0 0 0 0 0 1 0 0 1
Nghost:    0.925 ave 18 max 0 min
Histogram: 36 0 2 0 1 0 0 0 0 1
Neighs:    0.175 ave 7 max 0 min
Histogram: 39 0 0 0 0 0 0 0 0 1

Total # of neighbors = 7
Ave neighs/atom = 0.035
Neighbor list builds = 1
Dangerous builds = 0
