ITEM: TIMESTEP
29634891
ITEM: NUMBER OF ATOMS
448
ITEM: BOX BOUNDS ff ff ff
-0.15 0.15
-0.15 0.15
-0.15 0.15
ITEM: ATOMS id type x y z radius vx vy vz density 
138 1 -0.00505652 -0.051171 -0.06798 0.000847 -10.6783 8.59477e-05 0.794276 2650 
424 1 -0.00197411 -0.0519681 -0.0681386 0.000847 -10.7031 -9.81042e-05 0.310094 2650 
401 1 -0.0031213 -0.0491934 -0.0687098 0.000233 -10.6369 0.107318 0.482953 2650 
459 1 -0.00195897 -0.0274147 -0.0681259 0.000847 -10.3335 0.215871 0.299189 2650 
105 1 -0.0105455 -0.0210838 -0.0679599 0.000233 -10.8283 0.278187 1.67881 2650 
343 1 -0.00512152 -0.0101932 -0.0679737 0.000847 -10.1436 -0.354993 0.762466 2650 
65 1 -0.00156279 -0.00246666 -0.0687453 0.000233 -8.66135 -0.0519788 0.201291 2650 
521 1 -0.0121811 -0.000280136 -0.0678302 8.4e-05 -9.9096 -0.137214 1.78318 2650 
124 1 -0.0110479 -0.056573 -0.0672564 0.000847 -10.5646 -2.10547e-05 1.7354 2650 
382 1 -0.00670299 -0.050799 -0.0678376 0.000847 -10.6558 0.000560342 1.05289 2650 
468 1 -0.0131663 -0.0270101 -0.0674929 0.000233 -10.7109 0.122176 2.07942 2650 
443 1 -0.0122619 -0.0252852 -0.067665 0.000233 -10.3054 0.259521 1.86597 2650 
129 1 -0.0175537 -0.0168904 -0.0664898 0.000233 -9.66951 0.0813774 2.55006 2650 
243 1 -0.0290636 -0.0617864 -0.0616502 0.000847 -9.68416 2.80804e-05 4.56538 2650 
436 1 -0.0309422 -0.0618733 -0.0607287 0.000847 -9.53919 2.79807e-05 4.86037 2650 
375 1 -0.0335628 -0.0258096 -0.0600195 0.000233 -9.32363 0.539265 5.21177 2650 
114 1 -0.0348408 -0.0199334 -0.0592925 0.000233 -8.63422 -0.311073 5.07352 2650 
477 1 -0.0346194 -0.0125561 -0.0594197 0.000233 -9.33646 -0.461602 5.43836 2650 
410 1 -0.0392371 -0.0618772 -0.0557298 0.000847 -8.75414 5.11807e-05 6.16343 2650 
125 1 -0.0381931 -0.048091 -0.0564674 0.000847 -8.77852 -0.118926 5.93824 2650 
426 1 -0.0428121 -0.0318518 -0.0538137 0.000233 -8.26775 0.0551499 6.57615 2650 
172 1 -0.0429193 -0.0209465 -0.052365 0.001312 -8.11013 0.0519571 6.64698 2650 
271 1 -0.046691 -0.0104418 -0.050499 0.000233 -8.15951 -0.368658 7.54367 2650 
313 1 -0.0485834 -0.0203277 -0.0486808 0.000233 -7.79216 -0.0432221 7.77808 2650 
446 1 -0.0462092 -0.0204975 -0.0501147 0.000847 -7.88312 0.011093 7.2687 2650 
229 1 -0.05154 -0.0328464 -0.0445901 0.000847 -6.968 -0.0422997 8.05383 2650 
433 1 -0.0522498 -0.0309506 -0.0437752 0.000847 -6.74615 0.0248498 8.04567 2650 
374 1 -0.0533406 -0.0309529 -0.043411 0.000233 -6.90896 0.851988 8.49317 2650 
45 1 -0.0537186 -0.0309842 -0.0419481 0.000847 -6.56109 0.0781632 8.40364 2650 
311 1 -0.0573327 -0.0237065 -0.03797 0.000233 -6.06452 -0.0778909 9.15658 2650 
265 1 -0.0572436 -0.0295293 -0.0369915 0.000847 -5.66028 0.0390663 8.75043 2650 
462 1 -0.0571749 -0.0154292 -0.0370985 0.000847 -5.37981 -0.149626 8.36597 2650 
490 1 -0.0608347 -0.0195328 -0.0320602 0.000233 -4.48879 0.114238 8.50907 2650 
207 1 -0.0607282 -0.00174963 -0.032263 0.000233 -4.1861 -0.0285318 7.87626 2650 
358 1 -0.0632308 -0.0543665 -0.0254478 0.000847 -3.9973 -2.96158e-05 9.9322 2650 
499 1 -0.0631406 -0.0293136 -0.0256604 0.000847 -3.96174 -0.0527622 9.73895 2650 
154 1 -0.0642655 -0.034587 -0.0244667 0.000233 -3.92683 0.212517 10.3118 2650 
361 1 -0.0657856 -0.0118248 -0.0200657 0.000233 -3.14156 0.117016 10.3006 2650 
479 1 -0.0653716 -0.0105168 -0.0213691 0.000233 -2.90509 0.0998095 8.86134 2650 
428 1 -0.0668616 -0.00810013 -0.0160981 0.000233 -2.07302 0.00344414 8.57414 2650 
266 1 -0.00476166 -0.00234885 -0.0139684 0.000847 -0.00164881 -0.00742592 -0.00189738 2650 
412 1 -0.000790147 -0.00148083 -0.0133584 0.000847 0.00106775 -0.00445237 0.0073129 2650 
9 1 -0.0677852 -0.0329825 -0.0115656 0.000233 -1.83126 0.35193 10.7336 2650 
392 1 -0.00829305 -0.00166024 -0.0121305 8.4e-05 -0.00068915 -0.00349539 -0.00139054 2650 
259 1 -0.0684165 -0.0343611 -0.0069101 0.000233 -1.07093 0.116163 10.6092 2650 
49 1 -0.0686122 -0.0149653 -0.0048058 0.000233 -0.635123 -0.0839029 9.00053 2650 
133 1 -0.00483417 -0.00221886 -0.00452473 0.001312 -0.0021989 -0.00307358 0.00294343 2650 
161 1 -0.0681286 -0.0362093 -0.0018563 0.000847 -0.289841 0.0655716 10.6376 2650 
202 1 -0.00149363 -0.00291762 0.000568693 0.000847 -0.000325259 -0.00498031 0.00775896 2650 
39 1 -0.00510316 -0.00280295 0.00430849 0.000233 -0.0126184 -0.00557583 0.0065332 2650 
209 1 -0.0684295 -0.0183901 0.00663018 0.000233 0.855254 -0.462773 9.2796 2650 
35 1 -0.00123173 -0.000238173 0.00725674 0.000847 -0.0121953 -9.57773e-05 0.00420749 2650 
41 1 -0.0683901 -0.0023557 0.0084327 8.4e-05 0.970269 0.0271942 7.67 2650 
288 1 -0.0680051 -0.0552659 0.0111449 8.4e-05 1.78661 -0.302307 10.9217 2650 
466 1 -0.0678219 -0.0136455 0.0113636 0.000233 1.59075 -0.17771 9.33027 2650 
509 1 -0.0681268 -0.00615161 0.0103335 8.4e-05 1.1908 -0.0331679 7.81984 2650 
448 1 -0.0672571 -0.03098 0.0116951 0.000847 1.83707 -2.66927e-08 10.5647 2650 
116 1 -0.0668685 -0.0311237 0.0160486 0.000233 2.38418 0.736225 9.92598 2650 
4 1 -0.0652101 -0.0515595 0.0198314 0.000847 3.10633 -0.0498675 10.2142 2650 
85 1 -0.0649479 -0.0446244 0.0206869 0.000847 3.24944 -1.30185e-05 10.2019 2650 
314 1 -0.0657814 -0.0319251 0.0205437 8.4e-05 3.17053 0.1147 10.1515 2650 
59 1 -0.0639958 -0.048232 0.0234798 0.000847 3.69299 0.00890437 10.0657 2650 
123 1 -0.0637281 -0.0433816 0.0241919 0.000847 3.80253 0.0101287 10.0179 2650 
280 1 -0.0633688 -0.0502563 0.0251226 0.000847 3.95071 -0.0205813 9.96533 2650 
447 1 -0.0632987 -0.0290183 0.0252643 0.000847 3.88156 -0.106059 9.72331 2650 
69 1 -0.0627782 -0.026755 0.0253209 0.001312 3.8584 -0.032662 9.55708 2650 
267 1 -0.0630654 -0.0436167 0.0258775 0.000847 4.06608 -0.0077907 9.90901 2650 
230 1 -0.0623096 -0.0433576 0.0276487 0.000847 4.34321 -4.21971e-05 9.78791 2650 
8 1 -0.0608676 -0.0396466 0.0320121 0.000233 4.97531 -0.124342 9.46013 2650 
130 1 -0.0610264 -0.0267903 0.031691 0.000233 4.90423 -0.0968847 9.44492 2650 
281 1 -0.059842 -0.0432592 0.0326512 0.000847 5.05083 -0.0115894 9.25817 2650 
519 1 -0.0593937 -0.0382526 0.0346622 0.000233 5.33815 0.148073 9.14606 2650 
146 1 -0.0582722 -0.0310727 0.0344742 0.001312 5.36469 -0.10061 9.06019 2650 
442 1 -0.0576361 -0.0429385 0.0375327 0.000233 5.89066 0.0251748 9.04581 2650 
203 1 -0.0566691 -0.0426111 0.0378897 0.000847 5.95226 -0.00322143 8.90228 2650 
92 1 -0.0572529 -0.0204504 0.0381078 0.000233 5.55466 -0.321194 8.34547 2650 
432 1 -0.0549424 -0.0452804 0.0395737 0.001312 6.21623 5.15205e-05 8.63035 2650 
250 1 -0.0550081 -0.0423423 0.0394767 0.001312 6.20108 -0.000226055 8.64076 2650 
169 1 -0.0557958 -0.03999 0.0402042 0.000233 6.36369 0.0440061 8.83165 2650 
120 1 -0.0533684 -0.0405664 0.0416601 0.001312 6.54945 -0.0036978 8.39028 2650 
376 1 -0.0540107 -0.0309507 0.0425828 0.000233 6.71191 0.0306139 8.51161 2650 
201 1 -0.0524017 -0.0405354 0.0435901 0.000847 6.85273 0.00472307 8.23815 2650 
347 1 -0.052712 -0.0389136 0.0432121 0.000847 6.78607 0.00123415 8.27795 2650 
82 1 -0.0510653 -0.0381106 0.0444457 0.001312 6.97816 0.0251557 8.01835 2650 
483 1 -0.0528527 -0.00671191 0.0442259 8.4e-05 5.90104 0.272075 7.04524 2650 
397 1 -0.0513198 -0.0402291 0.044857 0.000847 7.05269 0.000204488 8.06846 2650 
88 1 -0.0511531 -0.0318536 0.0459582 0.000233 7.17026 0.208915 7.98175 2650 
136 1 -0.0500118 -0.0376818 0.0463049 0.000847 7.29413 0.0465046 7.87779 2650 
329 1 -0.0496996 -0.0308772 0.0466442 0.000847 7.34166 0.0344395 7.82322 2650 
258 1 -0.0481319 -0.0164217 0.0490403 0.000233 6.54297 0.0473715 6.44877 2650 
292 1 -0.0467324 -0.0294762 0.049613 0.000847 7.58006 -0.0821178 7.14225 2650 
22 1 -0.0475961 -0.00993531 0.0495772 0.000233 5.82311 0.295066 5.6604 2650 
289 1 -0.0436756 -0.0309846 0.0518134 0.001312 8.13882 1.86303e-07 6.86055 2650 
244 1 -0.0411985 -0.0348387 0.0550512 0.000233 8.6118 -0.0779491 6.44489 2650 
402 1 -0.0402394 -0.0251475 0.0557632 0.000233 8.19917 0.278985 5.91538 2650 
344 1 -0.0371039 -0.0618747 0.0571724 0.000847 8.98064 -2.69727e-05 5.82828 2650 
152 1 -0.0368018 -0.0310631 0.0573728 0.000847 8.99076 0.0185994 5.76676 2650 
51 1 -0.0362762 -0.0309747 0.058429 0.000233 9.14463 -0.011402 5.67765 2650 
434 1 -0.0350686 -0.0309619 0.058452 0.000847 9.201 -0.00108674 5.51776 2650 
381 1 -0.0350838 -0.0292572 0.0584327 0.000847 9.15927 0.0131034 5.49945 2650 
110 1 -0.0342852 -0.0334463 0.0589045 0.000847 9.19169 -0.014256 5.34948 2650 
256 1 -0.032957 -0.0287325 0.0596574 0.000847 9.49968 -0.0524827 5.24815 2650 
70 1 -0.0295365 -0.0308586 0.0614293 0.000847 9.73027 -0.067316 4.67587 2650 
102 1 -0.0300289 -0.0439198 0.0618772 0.000233 9.64667 0.0649884 4.68118 2650 
78 1 -0.0292464 -0.0370242 0.0622373 0.000233 10.0864 0.0524882 4.73901 2650 
507 1 -0.0285423 -0.030824 0.0625726 0.000233 9.6783 0.0683744 4.40907 2650 
463 1 -0.0212587 -0.0512922 0.064769 0.000847 10.2222 -0.0152823 3.35504 2650 
84 1 -0.0221907 -0.0496638 0.0644578 0.000847 10.1042 -0.00830796 3.47811 2650 
111 1 -0.0235021 -0.0202308 0.0639887 0.000847 10.3042 0.110361 3.7859 2650 
189 1 -0.0170145 -0.0541227 0.0660041 0.000847 10.3012 0.0321103 2.65512 2650 
241 1 -0.0171536 -0.0522746 0.065972 0.000847 10.3645 -0.0191002 2.69502 2650 
489 1 -0.0177546 -0.0506103 0.065816 0.000847 10.3364 0.0016518 2.78838 2650 
380 1 -0.0157424 -0.0498289 0.0658538 0.001312 10.3419 0.002974 2.47218 2650 
160 1 -0.0190917 -0.0485524 0.0649646 0.001312 10.1871 -0.0117746 2.99325 2650 
315 1 -0.0154682 -0.0456083 0.0659199 0.001312 10.3544 -0.000261685 2.42968 2650 
175 1 -0.0165659 -0.0437607 0.0661261 0.000847 10.3877 0.000223363 2.60234 2650 
235 1 -0.0180683 -0.0360599 0.0663493 0.000233 10.4775 -0.147299 2.85323 2650 
50 1 -0.0220484 -0.0292617 0.0651336 0.000233 10.5712 -0.579011 3.57753 2650 
113 1 -0.0100774 -0.050545 0.0674135 0.000847 10.5893 -3.12541e-05 1.58296 2650 
330 1 -0.0132704 -0.0490786 0.0668625 0.000847 10.4991 0.000833858 2.09949 2650 
486 1 -0.0143146 -0.0477619 0.0666491 0.000847 10.469 0.000225788 2.24849 2650 
134 1 -0.00410519 -0.0448635 0.0675719 0.001312 10.6141 -8.19654e-05 0.644833 2650 
247 1 -0.0157476 -0.044352 0.0669523 0.000233 10.6579 0.0827899 2.50703 2650 
431 1 -0.0181537 -0.0221241 0.0664871 8.4e-05 10.8473 0.383821 2.96277 2650 
183 1 -0.013866 -0.0123207 0.0673625 0.000233 7.80726 0.0716045 1.60296 2650 
117 1 -0.01768 -0.00175991 0.066453 0.000233 8.10908 0.0284223 2.14078 2650 
320 1 -0.00504189 -0.0478538 0.067971 0.000847 10.6768 -4.27085e-05 0.791975 2650 
208 1 -0.00723804 -0.0371966 0.0683841 0.000233 10.8829 -0.210264 1.15144 2650 
470 1 -0.0049879 -0.036308 0.0687332 8.4e-05 10.1171 0.159606 0.735758 2650 
400 1 -0.0616547 -0.0354105 0.0304529 0.000233 4.33824 -0.244724 8.77876 2650 
399 1 -9.33156e-05 0.0292425 -0.0160994 0.000847 0.0145811 0.0154461 -0.00307587 2650 
212 1 -0.000836951 0.00151966 -0.0152789 0.001312 -0.000379555 -0.00245154 0.00166027 2650 
68 1 -0.000324956 0.00950894 -0.0154311 0.001312 0.00653884 0.00691813 0.000576517 2650 
357 1 -0.00625935 0.0145984 -0.0144832 0.000847 -0.00356262 0.00740695 0.00116372 2650 
501 1 -0.0046837 0.0130185 -0.012957 0.000847 0.00271066 0.00783714 0.00249064 2650 
439 1 -0.000590455 0.0128475 -0.0115511 0.000233 0.0228492 0.00607655 0.00357595 2650 
386 1 -0.0093683 0.015232 -0.0113649 0.000847 -0.00685813 0.0101085 -0.000664392 2650 
16 1 -0.00713993 0.0694881 -0.0121639 0.001312 -0.00372561 0.0412357 0.00325068 2650 
277 1 -0.0114795 0.000884915 -0.0108289 0.000847 0.0204304 0.0042328 -0.00936553 2650 
444 1 -0.00973192 0.0101772 -0.00960212 8.4e-05 -0.00260039 0.00547496 0.00633282 2650 
2 1 -0.00313927 0.00985206 -0.0102668 0.001312 0.00400868 0.00487374 0.00130235 2650 
225 1 -0.00582278 0.0145827 -0.009587 0.001312 -0.00239701 0.00874648 -0.00124216 2650 
76 1 -0.0101546 0.0207481 -0.0100756 0.000233 -0.00578221 0.011958 0.00483197 2650 
115 1 -0.00943654 0.0220175 -0.0104091 0.000233 0.00203478 0.00995688 0.00306778 2650 
309 1 -0.0116751 0.0234916 -0.0105375 0.000233 -0.00479857 0.018266 0.00823948 2650 
178 1 -0.01111 0.0287439 -0.00969712 0.000847 0.00775667 0.0103751 0.00360415 2650 
206 1 -0.00046598 6.06592e-05 -0.00852948 0.000233 0.000200844 -0.0022057 -0.0101649 2650 
419 1 -0.000824937 0.024566 -0.00820227 0.001312 -0.0150871 0.00921576 0.00532489 2650 
147 1 -0.0074302 0.0014854 -0.00656243 0.001312 -0.00155224 -0.00287693 0.000873515 2650 
282 1 -0.0147386 0.014392 -0.0063951 0.000847 -0.00590106 0.010471 0.0107991 2650 
373 1 -0.0145315 0.0223616 -0.00655302 0.000847 0.00260085 0.0219543 -0.0053929 2650 
273 1 -0.0074869 0.0318225 -0.00672181 0.000233 -0.00788291 0.0124072 0.00594868 2650 
457 1 -0.0029203 0.0306485 -0.00780442 8.4e-05 0.00209197 0.0125772 -0.0227291 2650 
30 1 -0.0132267 0.048641 -0.00694145 0.001312 -0.00416174 0.0350983 0.0189013 2650 
83 1 -0.00276995 0.0501268 -0.00735146 0.000847 -0.011122 0.104926 0.00742126 2650 
109 1 -0.00228688 0.00427324 -0.00521378 0.000847 -0.00739102 -0.000240261 0.00788824 2650 
471 1 -0.00594192 0.0185398 -0.00534088 0.001312 0.0142077 0.0144874 0.0114805 2650 
17 1 -0.00672218 0.00304864 -0.00325144 0.000847 -0.00529384 -0.000624951 0.00099193 2650 
348 1 -0.0157684 0.00462484 -0.00339207 0.000233 -0.00917967 0.000807613 0.0111436 2650 
94 1 -0.0140201 0.0109938 -0.00445922 0.001312 0.00216405 0.00411442 0.00793824 2650 
149 1 -0.00337632 0.0111932 -0.00329804 0.000847 0.00533574 0.00120564 0.000572163 2650 
355 1 -0.0115071 0.0140322 -0.0034596 0.000847 0.00467399 0.0102065 -0.00490803 2650 
502 1 -0.015206 0.0276134 -0.00336636 0.000847 -0.000230871 0.00792682 0.00455104 2650 
177 1 -0.0141701 0.035746 -0.00336834 0.000847 0.00132565 0.0192779 0.00604683 2650 
15 1 -0.00943122 0.0454286 -0.00331135 0.001312 -0.00341521 0.0253607 0.0153897 2650 
511 1 -0.0127617 0.0581843 -0.00317984 0.000847 0.00450456 0.0288162 -0.0151506 2650 
359 1 -0.00927455 0.066995 -0.00346126 0.000847 -0.0105408 0.0538414 0.0225509 2650 
407 1 -0.00462166 2.23031e-05 -0.00310886 0.000847 -0.00271156 -0.00263393 0.00241233 2650 
237 1 -0.0150515 0.00346859 -0.00265827 0.001312 0.00189423 0.00327034 0.00516146 2650 
515 1 -0.0132805 0.0136754 -0.00221885 0.000847 -0.00010888 0.00459815 -0.00507254 2650 
331 1 -0.000291471 0.0452306 -0.00177987 0.000847 0.00840645 0.0232594 0.00867855 2650 
158 1 -0.00966113 0.00298607 -0.00114712 8.4e-05 0.00270084 -0.000488248 0.00495661 2650 
199 1 -0.014137 0.0343062 -0.00093026 0.001312 0.00194289 0.0160573 0.0068254 2650 
91 1 -0.0165317 0.0442128 -0.00118111 0.000233 -0.00189936 0.0295908 0.0155029 2650 
299 1 -0.00816564 0.0602693 -0.000949638 0.000233 0.0153724 0.0433476 -0.0153898 2650 
512 1 -0.0101989 0.00277375 0.00105313 0.000847 0.00181622 0.00186639 0.0122251 2650 
37 1 -0.0165198 0.0369498 0.000961711 0.000233 -0.000311153 0.0235499 0.0169314 2650 
77 1 -0.00645647 0.0527734 0.000840833 0.000233 0.00669575 0.0236814 0.0157679 2650 
217 1 -0.0113852 0.0543974 0.00138454 0.000847 0.00743731 0.032403 0.00336557 2650 
211 1 -0.0116194 0.0566371 0.00103107 0.001312 0.0161514 0.0315589 0.00837938 2650 
121 1 -0.0038683 0.0143606 0.00185904 0.001312 0.0113437 0.00558656 0.00250698 2650 
198 1 -0.0149982 0.00535897 0.00403649 0.001312 0.00540002 -0.000948108 0.0102903 2650 
291 1 -0.00181915 0.00749132 0.00414319 0.000847 -0.00595941 0.00151052 -0.00678371 2650 
204 1 -0.0143755 0.0297902 0.00437724 0.000847 0.00121054 0.0124535 0.0137872 2650 
186 1 -0.00319649 0.00392304 0.00630298 0.001312 0.0110093 -0.000918863 0.00524694 2650 
467 1 -0.0121364 0.00648967 0.00612081 0.000233 0.00666977 0.00283463 0.00629942 2650 
187 1 -0.000664148 0.00746982 0.00616921 0.000847 -0.00784336 0.00629953 0.00377522 2650 
518 1 -0.0155954 0.0106303 0.0050702 0.000233 -0.0014198 0.00993602 -0.00710746 2650 
156 1 -0.00283545 0.0151607 0.0048004 0.000233 0.0117738 0.00676262 0.00472854 2650 
391 1 -0.014812 0.0377853 0.00541192 0.000233 0.00226461 0.0200531 0.0160982 2650 
214 1 -0.000837549 0.032724 0.00743649 0.000847 0.0140272 0.0148951 0.00243728 2650 
7 1 -0.00862439 0.0433861 0.00741293 0.000847 0.00509742 0.0248497 0.013646 2650 
301 1 -0.00841696 0.00346257 0.00945576 8.4e-05 -0.00542456 -0.000958437 0.00851575 2650 
389 1 -0.00328043 0.0103329 0.0082405 0.000233 -0.00715985 0.00216632 0.0289367 2650 
395 1 -0.00253055 0.0282938 0.00897801 0.000847 0.0377877 0.0418518 -0.0334692 2650 
222 1 -0.00181748 0.0330344 0.00821912 0.000233 0.0205794 0.0022401 -0.00426972 2650 
440 1 -0.0032694 0.00204797 0.0102785 0.000233 0.00893327 0.00123303 0.0100401 2650 
390 1 -0.00403446 0.0172539 0.0124928 0.000233 -0.00350245 0.00582576 -0.00125219 2650 
21 1 -0.00973243 0.0461057 0.011162 0.000847 -0.0156294 0.0277562 -0.00305439 2650 
363 1 -0.00420998 0.04789 0.0110936 0.000233 -0.0108121 0.0312503 -0.00018022 2650 
168 1 -0.00241339 0.00490015 0.0133936 0.000233 0.010374 0.000533782 0.0120746 2650 
451 1 -0.00363914 0.0104648 0.0127767 0.000847 0.0101382 0.00361366 0.00843172 2650 
510 1 -0.00866902 0.04839 0.0129254 0.001312 -0.0122814 0.0322771 -0.00818896 2650 
34 1 -0.00285307 0.00395915 0.0154757 0.000847 -0.022437 0.00322566 -0.00102608 2650 
403 1 -0.00772418 0.0320096 0.0143487 0.000233 -0.0216925 0.0195608 -0.00722352 2650 
57 1 -0.00393731 0.0337271 0.0154726 0.000847 -0.0153315 0.0184234 -0.00270005 2650 
226 1 -0.00295442 0.0408502 0.0146534 0.000847 0.00127411 0.0241147 0.0153454 2650 
285 1 -0.000540715 0.0255143 0.0166462 0.000233 -0.00863358 0.00692315 0.000562803 2650 
80 1 -0.00163107 0.0361723 0.0161463 8.4e-05 0.0269174 -0.00387207 0.00630255 2650 
153 1 -0.000614958 0.0372464 0.0162832 0.000233 0.0273534 0.0143445 -0.00110862 2650 
213 1 -0.00178588 0.0385457 0.0158731 0.000847 0.0287465 0.000898963 0.00108133 2650 
31 1 -0.000465995 0.0817993 -0.0099333 0.000847 0.0128996 0.0556905 -0.00624527 2650 
437 1 -0.0120305 0.132789 -0.00803268 0.000847 -0.00719255 0.0835002 -0.0252935 2650 
66 1 -0.00967189 0.0767257 -0.00413748 0.000233 0.00347261 0.0341619 0.00411013 2650 
63 1 -0.000433631 0.0912654 -0.00225885 0.000233 0.00544067 0.0487134 -0.0167697 2650 
377 1 -0.00684199 0.0779141 0.000330844 0.000233 -0.00308755 0.0650231 0.0279133 2650 
72 1 -0.000467323 0.0841717 0.00624592 0.000847 0.00694298 0.0370303 0.0147661 2650 
262 1 -0.00416362 0.082665 0.0135265 8.4e-05 0.016947 0.0454576 0.00941551 2650 
312 1 0.00468329 -0.0297475 -0.0686051 0.000233 -10.7866 -0.166821 -0.736952 2650 
429 1 0.00391777 -0.00988489 -0.068664 0.000233 -8.83629 0.0513613 -0.495621 2650 
239 1 0.0143442 -0.061874 -0.0666305 0.000847 -10.4645 -0.00113407 -2.25276 2650 
341 1 0.0116462 -0.0592863 -0.0666856 0.001312 -10.475 7.58524e-05 -1.82939 2650 
334 1 0.00896044 -0.0559752 -0.0675667 0.000847 -10.6137 -0.00422361 -1.40763 2650 
323 1 0.01458 -0.0545942 -0.067205 0.000233 -10.5451 -0.0628728 -2.28774 2650 
294 1 0.0109985 -0.0527507 -0.0672688 0.000847 -10.542 -0.0195208 -1.72341 2650 
460 1 0.00567124 -0.0508255 -0.0679321 0.000847 -10.6708 -0.00161275 -0.890806 2650 
162 1 0.0130346 -0.0504487 -0.0669065 0.000847 -10.53 -0.0278858 -2.05152 2650 
95 1 0.000265071 -0.0267051 -0.0676948 0.001312 -10.6389 -0.0145028 -0.0413703 2650 
245 1 0.0137967 -0.0146018 -0.0673706 0.000233 -9.53743 0.0239179 -1.96285 2650 
364 1 0.0224544 -0.0312881 -0.0649979 0.000233 -10.2428 0.114457 -3.53924 2650 
118 1 0.0225734 -0.0273057 -0.0649437 0.000233 -9.90616 -0.571725 -3.44701 2650 
54 1 0.0218159 -0.0230025 -0.0653465 8.4e-05 -10.4575 0.43189 -3.48476 2650 
205 1 0.0219658 -0.019118 -0.0651229 0.000233 -9.72409 0.188536 -3.29047 2650 
174 1 0.0235006 -0.0309759 -0.0640946 0.000847 -10.068 1.77346e-07 -3.69147 2650 
423 1 0.0279631 -0.0452025 -0.062156 0.000847 -9.85365 0.0031432 -4.43462 2650 
297 1 0.0300544 -0.029679 -0.0618513 0.000233 -9.70603 0.108702 -4.71613 2650 
210 1 0.0318973 -0.0278608 -0.0610884 8.4e-05 -7.58806 0.13718 -3.93755 2650 
338 1 0.03459 -0.0416933 -0.0594413 0.000233 -9.43055 0.0471676 -5.48835 2650 
473 1 0.0350327 -0.0499894 -0.0584751 0.000847 -9.18454 -0.000113736 -5.50249 2650 
167 1 0.039502 -0.0461495 -0.0563068 0.000233 -8.8518 0.136581 -6.20971 2650 
12 1 0.0419447 -0.00550225 -0.0544928 0.000233 -7.25023 0.0346045 -5.58146 2650 
396 1 0.0430754 -0.0510258 -0.0528351 0.000847 -8.29575 -0.0117123 -6.76336 2650 
90 1 0.0438804 -0.0332074 -0.0529431 0.000233 -8.40689 -0.139356 -6.96743 2650 
456 1 0.0428112 -0.0104456 -0.0538279 0.000233 -6.77687 -0.0718971 -5.39924 2650 
61 1 0.0469949 -0.0309422 -0.0493816 0.000847 -7.65268 0.14727 -7.27431 2650 
67 1 0.0488754 -0.015381 -0.0486054 8.4e-05 -7.25025 -0.378732 -7.29126 2650 
405 1 0.0482574 -0.0011092 -0.0491959 8.4e-05 -4.87751 0.156052 -4.80983 2650 
148 1 0.0490017 -0.0464976 -0.0473938 0.000847 -7.44486 0.000766609 -7.69746 2650 
264 1 0.0508516 -0.0560333 -0.0453836 0.000847 -7.12878 -2.64391e-05 -7.98769 2650 
47 1 0.0505011 -0.0445861 -0.0457876 0.000847 -7.40101 -0.123927 -8.1655 2650 
236 1 0.0523756 -0.0173699 -0.0448044 8.4e-05 -6.96165 0.762864 -8.14012 2650 
248 1 0.0532561 -0.0106031 -0.0435152 0.000233 -5.92339 0.446791 -7.25292 2650 
290 1 0.0538613 -0.0540022 -0.0417673 0.000847 -6.56084 -0.0408616 -8.46052 2650 
101 1 0.0565779 -0.016478 -0.0390892 0.000233 -5.40338 0.0710593 -7.82048 2650 
28 1 0.0570485 -0.00529977 -0.0386611 8.4e-05 -5.14205 0.0874736 -7.58804 2650 
261 1 0.0598562 -0.011787 -0.0338532 0.000233 -5.10676 -0.186088 -8.99228 2650 
220 1 0.061432 -0.024161 -0.0308609 0.000233 -4.6282 -0.470144 -9.23215 2650 
454 1 0.0639584 -0.0198516 -0.0252489 0.000233 -4.01647 -0.300284 -10.1662 2650 
393 1 0.0634026 -0.0405124 -0.0237437 0.001312 -3.72175 0.0435189 -9.93821 2650 
302 1 0.0644949 -0.046734 -0.0206159 0.001312 -3.24155 -0.0729663 -10.146 2650 
411 1 0.0650351 -0.0428641 -0.0204223 0.000847 -3.19902 0.116488 -10.1868 2650 
81 1 0.0651873 -0.0455058 -0.0183186 0.001312 -2.89276 -0.074891 -10.2951 2650 
340 1 0.0663823 -0.0438235 -0.0185605 8.4e-05 -2.90464 0.115653 -10.3879 2650 
74 1 0.065571 -0.0410083 -0.018626 0.000847 -2.91692 -0.00922943 -10.2684 2650 
298 1 0.0661954 -0.0384784 -0.0186367 0.000233 -2.90799 -0.0964955 -10.3299 2650 
60 1 0.0660049 -0.0485967 -0.0170454 0.000847 -2.61066 -0.0291617 -10.1178 2650 
89 1 0.0665298 -0.0441323 -0.0174487 0.000233 -2.72334 0.0561163 -10.3837 2650 
303 1 0.0660297 -0.0401108 -0.0169234 0.000847 -2.6688 0.0161587 -10.4122 2650 
366 1 0.0667424 -0.00714239 -0.0171787 8.4e-05 -1.93594 -0.137412 -7.44723 2650 
184 1 0.0666176 -0.00599467 -0.0176435 8.4e-05 -2.34467 0.0383038 -8.81178 2650 
157 1 0.0670747 -0.045077 -0.0152268 0.000233 -2.38591 -0.026071 -10.5099 2650 
75 1 0.0670029 -0.0214905 -0.0154994 0.000233 -1.62807 -0.0242363 -7.09942 2650 
438 1 0.0014059 -0.00234752 -0.0147917 0.000847 -0.00535217 -0.0112869 0.00546556 2650 
350 1 0.0679778 -0.0515124 -0.01046 0.000233 -1.64466 -0.0179859 -10.6879 2650 
173 1 0.066863 -0.0504624 -0.010679 0.001312 -1.67731 -0.00644384 -10.5022 2650 
498 1 0.0672277 -0.0484178 -0.0113073 0.000847 -1.78265 -0.00801857 -10.5979 2650 
415 1 0.0679869 -0.0494331 -0.0104247 0.000233 -1.63742 -0.00469151 -10.679 2650 
32 1 0.0671786 -0.0444806 -0.0115955 0.000847 -1.82134 -0.0492441 -10.5526 2650 
269 1 0.0675637 -0.0477993 -0.00909344 0.000847 -1.43137 0.0139563 -10.6352 2650 
56 1 0.0671267 -0.0450203 -0.00888645 0.001312 -1.37594 0.0474024 -10.3982 2650 
336 1 0.00911551 -0.000846221 -0.00832641 0.000233 0.00789915 -0.00106843 0.00245482 2650 
500 1 0.0678154 -0.0500386 -0.0069448 0.000847 -1.09089 -0.000114019 -10.6525 2650 
488 1 0.0678012 -0.047365 -0.00709227 0.000847 -1.11346 0.0565616 -10.643 2650 
166 1 0.0686292 -0.0519105 -0.00449318 0.000233 -0.705881 4.07268e-05 -10.7817 2650 
421 1 0.0680544 -0.0502135 -0.00393356 0.000847 -0.617684 -0.00222145 -10.6844 2650 
449 1 0.0679776 -0.0490143 -0.00512744 0.000847 -0.805624 -0.0093489 -10.6795 2650 
127 1 0.0686133 -0.0446131 -0.00477352 0.000233 -0.756428 -0.0334577 -10.8737 2650 
322 1 0.0686163 -0.040715 -0.00466272 0.000233 -0.739781 0.0714232 -10.8903 2650 
308 1 0.0680729 -0.0481499 -0.00364112 0.000847 -0.571937 -0.000284341 -10.6926 2650 
122 1 0.0681346 -0.0494227 -0.00212991 0.000847 -0.334563 -3.37335e-05 -10.7025 2650 
100 1 0.0681449 -0.046348 -0.00181424 0.000847 -0.284991 -0.000443858 -10.7043 2650 
150 1 0.068163 -0.0478312 -0.000806768 0.000847 -0.126725 0.000251324 -10.7072 2650 
378 1 0.0687679 -0.0381277 -0.000394993 0.000233 -0.0612605 0.0955688 -10.6718 2650 
171 1 0.0689104 -0.0346086 -0.000600547 8.4e-05 -0.0963176 -0.306613 -11.1299 2650 
253 1 0.0681574 -0.0484372 0.00104961 0.000847 0.164869 -0.000177482 -10.7061 2650 
132 1 0.0125476 -0.000989267 0.00279864 8.4e-05 -0.00428615 -0.00289113 -0.000365994 2650 
305 1 0.0681022 -0.0495315 0.00286925 0.000847 0.450717 0.00249864 -10.697 2650 
252 1 0.00743591 -0.00260816 0.00493798 0.000847 0.000408733 -0.00473082 -0.0109231 2650 
44 1 0.0677366 -0.045036 0.00755579 0.000847 1.19345 0.0260338 -10.701 2650 
461 1 0.0671869 -0.0535261 0.0114619 0.000847 1.80332 -0.218202 -10.5711 2650 
151 1 0.067339 -0.0404828 0.0105197 0.000847 1.65 -0.0501579 -10.5709 2650 
487 1 0.0669335 -0.043092 0.0127861 0.000847 2.00225 -0.133299 -10.4862 2650 
216 1 0.0670524 -0.0405707 0.0122232 0.000847 1.93949 0.0438326 -10.6415 2650 
96 1 0.0666772 -0.0511501 0.0139235 0.000847 2.13602 0.0589552 -10.247 2650 
360 1 0.0664497 -0.0332089 0.0151517 0.000847 2.38 0.0279512 -10.4376 2650 
86 1 0.00560442 -0.00149133 0.0149851 0.000847 -0.0212779 -0.00308095 0.00572943 2650 
346 1 0.0626772 -0.0618751 0.0267761 0.000847 4.20597 -4.69859e-05 -9.84528 2650 
307 1 0.0623101 -0.0276293 0.0276113 0.000847 4.04119 -0.170441 -9.11572 2650 
324 1 0.0629345 -0.00139923 0.0277096 0.000233 3.44169 0.00933998 -7.82166 2650 
317 1 0.0608548 -0.0535897 0.0307074 0.000847 4.88102 0.0135207 -9.67254 2650 
197 1 0.0617959 -0.0378772 0.0305096 8.4e-05 4.75557 -0.222087 -9.63186 2650 
93 1 0.0601834 -8.4114e-05 0.0335732 8.4e-05 4.21864 0.00615375 -7.5735 2650 
106 1 0.0599654 -8.39965e-05 0.0339615 8.4e-05 4.27836 -2.81619e-06 -7.53699 2650 
485 1 0.0581538 -0.0493121 0.0355737 0.000847 5.58364 0.0118229 -9.12774 2650 
452 1 0.0592967 -0.0479346 0.0348532 0.000233 5.42859 -0.0308355 -9.2364 2650 
513 1 0.0581961 -0.0455527 0.0355081 0.000847 5.58574 -0.0329046 -9.15485 2650 
180 1 0.0591349 -0.0178048 0.0351284 0.000233 4.69755 0.0122985 -7.9068 2650 
351 1 0.0588924 -0.0155656 0.0355357 0.000233 4.68315 0.24742 -7.75765 2650 
409 1 0.0572088 -0.0518506 0.0370669 0.000847 5.82053 -0.0103013 -8.98343 2650 
142 1 0.0585252 -0.0207459 0.0361238 0.000233 4.55225 0.209589 -7.37616 2650 
159 1 0.0530233 -0.0492843 0.0421057 0.001312 6.61224 -0.000137152 -8.32666 2650 
356 1 0.0544959 -0.0257698 0.0409319 0.000847 5.60879 -0.704637 -7.46297 2650 
369 1 0.0527664 -0.0466513 0.0431576 0.000847 6.77863 -0.00547669 -8.288 2650 
278 1 0.0510665 -0.0617615 0.04514 0.000847 7.09065 0.000258395 -8.02159 2650 
316 1 0.0498457 -0.0618731 0.0464845 0.000847 7.30174 4.41504e-05 -7.82972 2650 
420 1 0.0499697 -0.0476922 0.0463584 0.000847 7.282 -3.38084e-05 -7.84926 2650 
367 1 0.0478299 -0.0569367 0.047908 0.001312 7.52529 0.00150937 -7.51298 2650 
497 1 0.0482549 -0.0465531 0.0474842 0.001312 7.45881 7.30803e-05 -7.57988 2650 
33 1 0.0487988 -0.0429937 0.0475853 0.000847 7.47468 -3.65627e-05 -7.66529 2650 
274 1 0.0501728 -0.0358401 0.0470246 0.000233 6.7884 0.349746 -7.2184 2650 
11 1 0.0497521 -0.012893 0.0474769 0.000233 6.50252 -0.0143623 -6.80353 2650 
23 1 0.0485087 -0.0624452 0.0487448 0.000233 7.65682 -0.000174194 -7.61972 2650 
19 1 0.0476747 -0.0617599 0.0487089 0.000847 7.65134 1.25961e-05 -7.48889 2650 
190 1 0.0462465 -0.0618124 0.050067 0.000847 7.86444 -2.58356e-05 -7.26433 2650 
445 1 0.046379 -0.0417698 0.0493138 0.001312 7.74617 -8.06562e-05 -7.28518 2650 
185 1 0.0456646 -0.0391435 0.0499758 0.001312 7.85023 -0.000154239 -7.17303 2650 
20 1 0.0461005 -0.0486734 0.0501999 0.000847 7.88534 7.37514e-05 -7.24141 2650 
46 1 0.0444521 -0.0474799 0.051666 0.000847 8.11576 3.42528e-05 -6.9826 2650 
492 1 0.0463209 -0.0269619 0.0508247 0.000233 7.59516 -0.165118 -6.92001 2650 
458 1 0.0431899 -0.061488 0.0521308 0.001312 8.18868 -3.46743e-10 -6.78425 2650 
18 1 0.043411 -0.0412689 0.0525439 0.000847 8.24155 -0.0738558 -6.80953 2650 
339 1 0.038298 -0.0026145 0.0571139 0.000233 6.90353 -0.0300598 -4.63252 2650 
176 1 0.0350042 -0.017747 0.0584894 0.000847 8.30357 0.128908 -4.93537 2650 
522 1 0.0355351 -0.000715631 0.0590468 8.4e-05 6.68477 -0.118232 -4.03264 2650 
224 1 0.030317 -0.0304677 0.0605262 0.001312 9.61351 0.000413354 -4.81518 2650 
231 1 0.0319754 -0.0267871 0.0608783 0.000233 8.61048 -0.0322386 -4.51832 2650 
318 1 0.0282794 -0.0493264 0.0620274 0.000847 9.74328 0.000311631 -4.44213 2650 
332 1 0.0291822 -0.0179913 0.0616059 0.000847 8.64103 0.114594 -4.11396 2650 
219 1 0.0264672 -0.0268032 0.0634666 0.000233 8.84543 0.214437 -3.68815 2650 
304 1 0.0165277 -0.0440636 0.0661359 0.000847 10.3881 6.32766e-06 -2.59601 2650 
242 1 0.0190586 -0.0261684 0.0654357 0.000847 10.1459 -0.0606053 -2.95523 2650 
36 1 0.02268 -0.0115541 0.0649322 0.000233 8.8634 -0.101 -3.09764 2650 
104 1 0.0187184 -0.0108997 0.0661806 0.000233 8.5873 -0.575511 -2.42952 2650 
352 1 0.0224131 -0.00866576 0.0650184 0.000233 5.76017 -0.0323629 -1.96883 2650 
306 1 0.00679992 -0.0336313 0.0678147 0.000847 10.6203 -0.0429484 -1.06597 2650 
506 1 0.0146087 -0.000232977 0.0671961 0.000233 8.58481 -0.000387751 -1.86363 2650 
10 1 0.0151265 -0.00023301 0.0670823 0.000233 8.56971 0.00409568 -1.93272 2650 
145 1 0.0153972 -8.39967e-05 0.067173 8.4e-05 8.5784 5.04502e-09 -1.95672 2650 
53 1 0.00411766 -0.016374 0.0686056 0.000233 9.54953 0.169777 -0.595545 2650 
284 1 0.0100958 -0.0172742 0.0680207 0.000233 10.7637 0.102171 -1.59883 2650 
119 1 0.00107521 -8.46584e-05 0.0689058 8.4e-05 8.64655 0.0063811 -0.144887 2650 
353 1 0.00376581 -0.000919788 0.0688126 8.4e-05 8.55328 0.129569 -0.464701 2650 
480 1 0.00975986 -0.000232981 0.0680698 0.000233 8.65582 -5.21618e-05 -1.24114 2650 
496 1 0.000278256 -0.00531007 0.0689151 8.4e-05 8.69226 0.261664 0.000771738 2650 