ITEM: TIMESTEP
7100010
ITEM: NUMBER OF ATOMS
517
ITEM: BOX BOUNDS ff ff ff
-0.15 0.15
-0.15 0.15
-0.15 0.15
ITEM: ATOMS id type x y z radius vx vy vz density 
340 1 -0.0114041 -0.0324874 -0.0679633 8.4e-05 -7.14679 -0.243572 1.21016 2650 
127 1 -0.00312481 -0.0315293 -0.0686953 0.000233 -8.94855 0.521768 0.412113 2650 
102 1 -0.0174398 -0.0178714 -0.0665311 0.000233 -6.92702 -0.167213 1.82309 2650 
230 1 -0.0206166 -0.021024 -0.0649705 0.000847 -7.08815 0.0933821 2.23164 2650 
100 1 -0.0163721 -0.017913 -0.0661745 0.000847 -6.87068 -0.257456 1.71617 2650 
179 1 -0.0204523 -0.012326 -0.0656684 0.000233 -6.92764 0.680719 2.16336 2650 
346 1 -0.0225732 -0.0503424 -0.0643218 0.000847 -6.95791 -0.0197932 2.42866 2650 
4 1 -0.0287314 -0.0259045 -0.0618026 0.000847 -5.85292 -0.00010332 2.70145 2650 
155 1 -0.0291788 -0.0141016 -0.0622756 0.000233 -3.03461 -0.552934 1.19251 2650 
461 1 -0.0298502 -0.031116 -0.0612779 0.000847 -7.14629 0.140329 3.27068 2650 
297 1 -0.0316819 -0.0302162 -0.061033 0.000233 -7.19765 0.465024 3.73291 2650 
294 1 -0.0336244 -0.0345733 -0.0592804 0.000847 -6.93796 0.160694 3.97928 2650 
183 1 -0.0362226 -0.0322733 -0.0584521 0.000233 -6.1377 -0.0973111 3.78244 2650 
78 1 -0.0341042 -0.0287437 -0.0597117 0.000233 -6.87007 -0.481238 3.92971 2650 
304 1 -0.0379071 -0.0237871 -0.0566426 0.000847 -5.47792 0.0814915 3.65794 2650 
208 1 -0.0391897 -0.0373953 -0.0564946 0.000233 -5.25434 -0.236716 3.65607 2650 
344 1 -0.0425354 -0.0421936 -0.0531942 0.000847 -6.80752 -0.182629 5.53423 2650 
410 1 -0.047509 -0.0483575 -0.0488703 0.000847 -5.77943 -0.0174161 5.61756 2650 
507 1 -0.0476648 -0.0244772 -0.0495671 0.000233 -5.20112 0.136607 5.03112 2650 
272 1 -0.0500162 -0.0323241 -0.0471929 0.000233 -4.34478 -0.378842 4.57872 2650 
454 1 -0.0491743 -0.013723 -0.0480742 0.000233 -4.64475 -0.324133 4.78211 2650 
23 1 -0.0495429 -0.0124957 -0.047695 0.000233 -4.73346 -0.153984 4.93172 2650 
46 1 -0.0495981 -0.0226992 -0.0467501 0.000847 -5.40727 0.00840665 5.73191 2650 
508 1 -0.0506115 -0.0197626 -0.0465591 0.000233 -5.35358 0.809454 5.83467 2650 
487 1 -0.033449 -0.0108577 -0.0454269 0.000847 -5.07738 -0.544462 -6.86012 2650 
429 1 -0.0546669 -0.0116443 -0.0417354 0.000233 -3.9282 0.104272 5.11615 2650 
232 1 -0.0561526 -0.0470298 -0.0397207 0.000233 -3.45041 0.485898 4.85733 2650 
500 1 -0.0556002 -0.0444618 -0.0394421 0.000847 -4.17556 -0.0993832 5.94467 2650 
169 1 -0.0565947 -0.0441325 -0.0390521 0.000233 -4.41241 0.0923162 6.24912 2650 
32 1 -0.0561197 -0.0202655 -0.0386939 0.000847 -3.75434 -0.435236 5.45107 2650 
161 1 -0.0584464 -0.0100705 -0.035078 0.000847 -3.16999 -0.184965 5.28702 2650 
488 1 -0.060785 -0.0298394 -0.0308264 0.000847 -3.74322 0.199204 7.38175 2650 
258 1 -0.0627593 -0.0178057 -0.0281421 0.000233 -2.11384 0.338768 4.73131 2650 
44 1 -0.0631118 -0.0200586 -0.0257531 0.000847 -2.92472 -0.0259212 7.21447 2650 
236 1 -0.0658401 -0.00709498 -0.0203062 8.4e-05 -2.28643 -0.662171 7.3424 2650 
86 1 -0.00195569 -0.00229262 -0.0156265 0.000847 0.0722791 0.0173148 -0.0847362 2650 
26 1 -0.000514117 -0.00229902 -0.015488 0.000233 0.104105 0.00651273 -0.0475977 2650 
401 1 -0.0676549 -0.0246043 -0.0123171 0.000233 -1.40607 -0.619137 7.64158 2650 
513 1 -0.0670414 -0.0207995 -0.0122779 0.000847 -1.37392 -0.00763367 7.67875 2650 
481 1 -0.0675747 -0.0180037 -0.0126944 0.000233 -1.30884 0.518358 7.56055 2650 
290 1 -0.067083 -0.0279244 -0.0120449 0.000847 -1.33952 -0.399365 7.4418 2650 
378 1 -0.0679158 -0.0207528 -0.0107821 0.000233 -1.32006 -0.0543592 8.21745 2650 
322 1 -0.0678437 -0.0182454 -0.0112241 0.000233 -0.829249 0.00332466 4.96195 2650 
29 1 -0.00815023 -0.0012436 -0.0109617 0.001312 0.00123889 -0.0134407 -0.00231107 2650 
140 1 -0.0683058 -0.00404907 -0.00793931 0.000233 -0.690323 0.408917 6.10604 2650 
160 1 -0.00665748 -0.000592484 -0.00857745 0.001312 -0.0114822 -0.00963467 0.00806743 2650 
449 1 -0.00124252 -0.00071267 -0.00939925 0.000847 -0.000606132 -0.0114076 0.000648749 2650 
347 1 -0.00820694 -0.00166095 -0.00652725 0.000847 0.00650209 -0.0196345 -0.000170551 2650 
53 1 -0.00436745 -0.0024249 -0.0075186 0.000233 0.0598151 -0.0188612 0.0285381 2650 
483 1 -0.010366 -0.000762786 -0.006716 8.4e-05 0 -0.011754 0 2650 
125 1 -0.003357 -0.00244479 -0.006037 0.000847 0 -0.011754 0 2650 
402 1 -0.0147866 -0.000210412 -0.00589718 0.000233 -0.0173414 -0.0140467 0.0366211 2650 
150 1 -0.0680334 -0.0442919 -0.00415863 0.000847 -0.363883 0.122366 7.34961 2650 
489 1 -0.00437588 -0.00267791 -0.00329284 0.000847 -0.0259232 -0.0202651 0.0153532 2650 
286 1 -0.016281 -0.000530786 -0.003576 0.000233 0 -0.011754 0 2650 
306 1 -0.011393 -0.00115679 -0.004559 0.000847 0 -0.011754 0 2650 
194 1 -0.0687585 -0.0296953 -0.00099269 0.000233 -0.141105 0.189176 9.34212 2650 
61 1 -0.000548 -0.00307779 -0.001635 0.000847 0 -0.011754 0 2650 
84 1 -0.004923 -0.000557786 -0.002038 0.000847 0 -0.011754 0 2650 
118 1 -0.006006 -0.00325979 -0.001449 0.000233 0 -0.011754 0 2650 
505 1 -0.0129924 -0.000180449 -0.00102059 0.000233 -0.00423101 -0.00434391 0.00740396 2650 
166 1 -0.0687559 -0.0353621 0.00118332 0.000233 0.127506 -0.352401 6.37269 2650 
323 1 -0.008651 -0.000237786 0.002916 0.000233 0 -0.011754 0 2650 
218 1 -0.012593 -0.00285879 0.003611 0.000233 0 -0.011754 0 2650 
440 1 -0.0151641 -0.000665908 0.00325456 0.000233 0.00640272 0.00324748 -0.00679238 2650 
441 1 -0.014312 -9.97857e-05 0.004679 0.000233 0 -0.011754 0 2650 
302 1 -0.01139 -0.000404786 0.00396 0.001312 0 -0.011754 0 2650 
264 1 -0.003065 -0.00211979 0.00492 0.000847 0 -0.011754 0 2650 
274 1 -0.005863 -0.000324786 0.005228 0.000233 0 -0.011754 0 2650 
189 1 -0.001267 -0.000758786 0.004803 0.000847 0 -0.011754 0 2650 
171 1 -0.0684544 -0.00252088 0.00793278 8.4e-05 0.870593 0.135532 7.48319 2650 
180 1 -0.0129439 -0.000511476 0.00727403 0.000233 -0.0490387 -0.0389904 -0.0883693 2650 
318 1 -0.0674634 -0.0470445 0.0098013 0.000847 1.07387 0.235305 7.47392 2650 
41 1 -0.008377 -5.07857e-05 0.009542 8.4e-05 0 -0.011754 0 2650 
259 1 -0.007193 -1.87857e-05 0.011052 0.000233 0 -0.011754 0 2650 
463 1 -0.0669242 -0.0368315 0.0128986 0.000847 1.58451 0.162635 8.2644 2650 
350 1 -0.001594 -0.00188779 0.011915 0.000233 0 -0.011754 0 2650 
18 1 -0.0665802 -0.0252588 0.014569 0.000847 1.79753 0.160021 8.25935 2650 
317 1 -0.0663465 -0.0435359 0.0156505 0.000847 1.9072 -0.0540078 8.17673 2650 
334 1 -0.0663883 -0.0376691 0.0154272 0.000847 1.90202 -0.0298623 8.18798 2650 
9 1 -0.000703197 -0.000407306 0.0152875 0.000233 0.00683895 -0.0120635 0.0025543 2650 
409 1 -0.0659897 -0.046209 0.0171016 0.000847 1.90081 0.00481031 7.38558 2650 
337 1 -0.0665963 -0.029939 0.0171353 0.000233 2.0856 0.755565 8.12335 2650 
92 1 -0.0660805 -0.00753443 0.0190468 0.000233 1.37408 -0.332427 4.45102 2650 
159 1 -0.0640156 -0.0259643 0.021996 0.001312 2.66558 -0.0464929 7.77713 2650 
162 1 -0.0639054 -0.0415362 0.0237093 0.000847 2.96451 -0.107108 7.98661 2650 
442 1 -0.0648322 -0.0360005 0.0229271 0.000233 2.19301 0.160579 6.15052 2650 
327 1 -0.00654594 -0.00563176 0.0267364 8.4e-05 -0.857223 -0.336083 3.31034 2650 
52 1 -0.0624912 -0.0225919 0.0286681 0.000233 3.65332 0.385654 7.95872 2650 
19 1 -0.0599371 -0.0597679 0.0324476 0.000847 4.08376 -0.0485689 7.54582 2650 
182 1 -0.0557804 -0.0107024 0.0402194 0.000233 4.54049 -0.614732 6.29727 2650 
411 1 -0.0525802 -0.0395294 0.043363 0.000847 5.25067 -0.712586 6.34446 2650 
33 1 -0.0514543 -0.0258308 0.0446956 0.000847 5.12669 -0.0103621 5.84157 2650 
314 1 -0.0524981 -0.0163026 0.044616 8.4e-05 1.20653 -0.713236 2.75754 2650 
330 1 -0.0490767 -0.0456922 0.047313 0.000847 5.45094 -0.641559 5.7016 2650 
367 1 -0.0492247 -0.0407881 0.0464798 0.001312 5.54985 -0.00904309 5.8948 2650 
498 1 -0.0491489 -0.0267875 0.0472169 0.000847 4.90046 0.10501 5.05133 2650 
205 1 -0.0465832 -0.015633 0.0506059 0.000233 4.32823 0.462336 3.99454 2650 
138 1 -0.0426398 -0.0412172 0.0531819 0.000847 6.38409 0.147562 5.06327 2650 
120 1 -0.0409384 -0.0316292 0.0539155 0.001312 6.67193 0.199221 5.12449 2650 
448 1 -0.0434648 -0.00353461 0.0524927 0.000847 3.9599 -0.138805 3.27354 2650 
380 1 -0.0364825 -0.0331268 0.0570228 0.001312 7.28249 -0.0335284 4.6962 2650 
241 1 -0.0367445 -0.0475558 0.0574183 0.000847 6.97088 -0.689936 4.45423 2650 
257 1 -0.0319992 -0.055607 0.0608693 0.000233 8.94165 0.647477 4.70103 2650 
424 1 -0.0286448 -0.0381642 0.0618433 0.000847 6.46182 -0.0361815 3.03009 2650 
114 1 -0.0286562 -0.0250182 0.0625113 0.000233 4.19994 0.212199 1.95748 2650 
335 1 -0.018432 -0.0379681 0.0662432 0.000233 8.05867 0.415376 2.28772 2650 
445 1 -0.0133902 -0.0349598 0.0663535 0.001312 5.41878 -0.292987 1.16544 2650 
436 1 -0.0124719 -0.049908 0.0670101 0.000847 8.24511 -0.0142276 1.55817 2650 
315 1 -0.0115206 -0.0257567 0.0667026 0.001312 5.60371 -0.0793122 1.00867 2650 
151 1 -0.0127919 -0.0109045 0.0669472 0.000847 5.91587 -0.116577 1.16706 2650 
59 1 -0.00422008 -0.0420956 0.0680372 0.000847 5.89383 -0.51698 0.32902 2650 
181 1 -0.00961637 -0.0152588 0.0681018 0.000233 5.47212 -0.123389 0.667463 2650 
101 1 -0.00514738 -0.00698217 0.068574 0.000233 3.49786 -0.155388 0.274226 2650 
117 1 -0.00306135 -0.00500825 0.0686947 0.000233 3.41983 -0.0549344 0.12009 2650 
395 1 -0.0038571 0.000839823 -0.0143934 0.000847 0.0226536 -0.00325302 -0.00564644 2650 
49 1 -0.006313 0.00386321 -0.014865 0.000233 0 -0.011754 0 2650 
501 1 -0.00387115 0.00418093 -0.0152993 0.000847 0.00709651 0.00142594 -0.00670783 2650 
37 1 -0.007724 0.00483021 -0.014299 0.000233 0 -0.011754 0 2650 
309 1 -0.005736 0.00754921 -0.014845 0.000233 0 -0.011754 0 2650 
153 1 -0.00505339 0.00906637 -0.015677 0.000233 -0.0337232 0.0248645 0.0171171 2650 
224 1 -0.00202174 0.0012741 -0.013342 0.001312 0.0215061 -0.00494898 -0.00253747 2650 
36 1 -0.008519 0.00409321 -0.013643 0.000233 0 -0.011754 0 2650 
68 1 -0.00628641 0.00434729 -0.0130728 0.001312 -7.21106e-05 -0.0118417 -0.000112412 2650 
76 1 -0.00448896 0.00529421 -0.0130764 0.000233 0.0303806 -0.00964547 -0.0319523 2650 
177 1 -0.000148865 0.00521375 -0.0128012 0.000847 -0.0282538 0.0231492 -0.0029373 2650 
16 1 -0.00210995 0.0110943 -0.0130455 0.001312 -0.00180582 0.0271355 0.0043534 2650 
262 1 -0.00766196 0.0142906 -0.0126908 8.4e-05 -0.0452057 0.0489263 -0.00277567 2650 
95 1 -0.00731305 0.00196493 -0.0111009 0.001312 -0.000248372 -0.0120576 -0.000506657 2650 
233 1 -0.006747 0.00285621 -0.01241 0.000233 0 -0.011754 0 2650 
234 1 -0.000290623 0.00238647 -0.0126242 0.000233 0.0247737 -0.00133492 0.00328049 2650 
91 1 -0.000328664 0.00291676 -0.011739 0.000233 -0.00292347 -0.00793016 -0.00296145 2650 
343 1 -0.0036227 0.00379154 -0.0111907 0.000847 -0.000529442 -0.0155455 -0.00596942 2650 
251 1 -0.00455123 0.00617335 -0.0122524 0.000847 0.0348768 0.00431884 -0.0363323 2650 
198 1 -0.00644913 0.00804781 -0.011966 0.001312 -0.0177825 -0.00248769 0.00364496 2650 
391 1 -2.00556e-05 0.00881788 -0.0125519 0.000233 -0.0199891 0.00696097 0.00469752 2650 
164 1 -0.00938753 0.000291694 -0.00947912 0.000847 -0.000866134 -0.0130395 -0.00111955 2650 
271 1 -0.005149 0.00122621 -0.010304 0.000233 0 -0.011754 0 2650 
133 1 -0.00266703 0.00136564 -0.0100422 0.001312 -0.00225635 -0.0022852 0.00970929 2650 
435 1 -0.005486 0.00330421 -0.011036 0.000847 0 -0.011754 0 2650 
216 1 -0.00375684 0.00474768 -0.00974504 0.000847 -0.00815227 -0.0162072 -0.00315241 2650 
146 1 -5.84385e-05 0.00452678 -0.0106479 0.001312 0.00367562 -0.013541 -0.000609714 2650 
13 1 -0.012448 0.00500621 -0.010914 8.4e-05 0 -0.011754 0 2650 
69 1 -0.00961507 0.005396 -0.0107436 0.001312 -0.000168074 -0.011628 -0.000205239 2650 
512 1 -0.00543617 0.00487366 -0.00951431 0.000847 -0.00911119 -0.0123441 -0.0156273 2650 
392 1 -0.00441126 0.00581036 -0.00974248 8.4e-05 -0.00659757 -0.0083595 -0.00212575 2650 
209 1 -0.001802 0.00642521 -0.011003 0.000233 0 -0.011754 0 2650 
482 1 -0.00871346 0.0237349 -0.00966604 0.000233 -0.0162757 0.0437947 0.00434421 2650 
289 1 -0.0122364 0.00109707 -0.00883041 0.001312 0.0025459 -0.0117786 0.00198096 2650 
468 1 -0.0103439 0.000583235 -0.00898779 0.000233 -0.00183091 -0.0125509 -0.00195235 2650 
455 1 -0.006244 0.00112521 -0.008207 0.000233 0 -0.011754 0 2650 
248 1 -0.0128122 0.00266436 -0.00904352 0.000233 0.0180097 -0.00459618 -0.0123198 2650 
51 1 -0.00787303 0.00238543 -0.00945677 0.000233 -0.0138358 -0.00903861 -0.0230717 2650 
407 1 -0.00293776 0.0025221 -0.00808147 0.000847 -0.00284006 -0.00343984 0.0108073 2650 
336 1 -0.000699 0.00234321 -0.008095 0.000233 0 -0.011754 0 2650 
158 1 -0.0090238 0.00620386 -0.00794744 8.4e-05 -0.0246844 -0.00052617 -0.00311611 2650 
464 1 -0.00150773 0.00561378 -0.00817624 0.000233 -0.0337432 -0.0250944 -0.0146621 2650 
332 1 -0.013253 0.00773721 -0.008686 0.000847 0 -0.011754 0 2650 
348 1 -0.011402 0.00654221 -0.008993 0.000233 0 -0.011754 0 2650 
147 1 -0.00468073 0.00723675 -0.00910335 0.001312 -0.00330264 -0.00849531 0.00545786 2650 
15 1 -0.00276905 0.0101525 -0.00919451 0.001312 -0.00746762 0.0306443 -0.0319375 2650 
66 1 -0.0118784 0.0263521 -0.0083803 0.000233 -0.00951856 0.0364197 -0.00386543 2650 
72 1 -0.0064887 0.0289641 -0.00896842 0.000847 -0.0198786 0.0444843 -0.026581 2650 
266 1 -0.012074 5.21427e-06 -0.006827 0.000847 0 -0.011754 0 2650 
60 1 -0.0055191 0.000233794 -0.00691284 0.000847 0.00106255 -0.0105919 0.00250215 2650 
136 1 -0.003358 0.00102921 -0.00699 0.000847 0 -0.011754 0 2650 
324 1 -0.004804 0.00196521 -0.006739 0.000233 0 -0.011754 0 2650 
7 1 -0.00154376 0.00896378 -0.007735 0.000847 -0.0308308 0.0234837 0.00263646 2650 
312 1 -0.0109192 0.002037 -0.00500927 0.000233 -0.0147917 -0.0235538 -0.0151264 2650 
2 1 -0.0114501 0.00676376 -0.00607505 0.001312 0.00799475 -0.00256919 -0.00928522 2650 
79 1 -0.009334 0.00647921 -0.006031 0.000233 0 -0.011754 0 2650 
115 1 -0.0111075 0.00915329 -0.00557383 0.000233 0.00266554 0.00695627 -0.0116789 2650 
229 1 -0.0155523 0.000834045 -0.00375441 0.000847 -0.000169989 -0.0118082 -1.68751e-06 2650 
466 1 -0.015616 0.00258721 -0.003521 0.000233 0 -0.011754 0 2650 
478 1 -0.0109187 0.00289204 -0.00322478 0.000233 -0.00975827 -0.0129389 0.00383787 2650 
237 1 -0.00305933 0.0020951 -0.00360967 0.001312 -0.00761684 -0.000712423 -0.000817686 2650 
467 1 -0.0107836 0.00515171 -0.00386169 0.000233 0.00319889 -0.0119441 0.00112982 2650 
112 1 -0.009312 0.00577621 -0.004659 0.000847 0 -0.011754 0 2650 
145 1 -0.007489 0.00598921 -0.00326 8.4e-05 0 -0.011754 0 2650 
121 1 -0.00596958 0.00674527 -0.00406219 0.001312 -0.0342207 0.00177843 0.0100552 2650 
149 1 -0.0111664 0.00943299 -0.00413339 0.000847 0.00533574 0.00120564 0.000572163 2650 
199 1 -0.00503578 0.0100246 -0.00426538 0.001312 -0.0103537 0.0171071 0.00139583 2650 
331 1 -0.0131967 0.0124813 -0.00463149 0.000847 0.0094052 0.0213481 -0.00684148 2650 
87 1 -0.00868383 0.0408264 -0.00421301 0.000847 0.0557949 0.0657949 0.00804232 2650 
345 1 -0.0103455 0.000762451 -0.00215136 0.000847 0.0102698 0.00604929 0.00457735 2650 
168 1 -0.0112062 0.00169838 -0.00161122 0.000233 -0.00202632 0.00526207 0.00695314 2650 
31 1 -0.0131897 0.00375368 -0.00298905 0.000847 0.0179196 0.0501175 0.0353113 2650 
399 1 -0.012831 0.00589904 -0.00274268 0.000847 -0.0343417 -0.00727197 -0.00368845 2650 
301 1 -0.000497159 0.00486188 -0.00297714 8.4e-05 -0.00542456 -0.000958437 0.00851575 2650 
245 1 -0.015895 0.00644921 -0.001607 0.000233 0 -0.011754 0 2650 
204 1 -0.0064758 0.00751099 -0.00179885 0.000847 -0.0187711 0.00115769 0.0262128 2650 
285 1 -0.0046599 0.00807191 -0.00253862 0.000233 0.00777784 0.0141206 0.0186362 2650 
201 1 -0.005857 0.00117621 -0.001367 0.000847 0 -0.011754 0 2650 
96 1 -0.00341225 0.00135224 -0.00048749 0.000847 -0.0333937 -0.00958489 -0.0721639 2650 
97 1 -0.00734557 0.00605591 -0.000687193 0.000847 0.0898369 0.0726431 0.0298601 2650 
75 1 -0.004976 0.00598321 -0.001105 0.000233 0 -0.011754 0 2650 
186 1 -0.0152749 0.00792035 -1.06455e-05 0.001312 0.00108872 -0.00772704 -0.000169001 2650 
413 1 -0.00508253 0.00843376 -0.000833768 0.000233 -0.0303845 0.0268351 0.0328144 2650 
214 1 -0.00539403 0.00960573 -0.0013661 0.000847 -0.0290712 0.00333205 0.0100974 2650 
394 1 -0.000608472 0.0122977 -0.000190221 0.000847 -0.00391833 0.0291735 0.0221186 2650 
137 1 -0.0145046 0.0220398 -0.000474037 0.000847 -0.0435427 0.0421262 -0.00186797 2650 
373 1 -0.015091 0.00221521 0.000947 0.000847 0 -0.011754 0 2650 
307 1 -0.000442015 0.00244027 0.00114828 0.000847 -0.0141011 0.000378076 -0.0730913 2650 
504 1 -0.012481 0.00720121 0.001551 0.000233 0 -0.011754 0 2650 
474 1 -0.00526924 0.0123493 0.00140645 0.000847 0.0275537 0.0248876 0.00687161 2650 
517 1 -0.00516752 0.0154181 0.00144491 0.000233 0.0259823 0.0335168 0.00669738 2650 
418 1 -0.00521935 0.0248422 0.000757863 8.4e-05 0.0565282 0.0445312 0.0141261 2650 
364 1 -0.0139 0.000424214 0.002152 0.000233 0 -0.011754 0 2650 
450 1 -0.0153957 0.00596923 0.0031304 0.000847 0.00328605 -0.0073967 0.0129387 2650 
242 1 -0.010702 0.00506421 0.00289 0.000847 0 -0.011754 0 2650 
376 1 -0.005395 0.00547321 0.002758 0.000233 0 -0.011754 0 2650 
174 1 -0.001898 0.00499621 0.003155 0.000847 0 -0.011754 0 2650 
63 1 -0.00165054 0.0169135 0.0018245 0.000233 -0.0113708 0.0567883 0.0342171 2650 
188 1 -0.00354996 0.02463 0.0021695 0.000847 0.00721131 0.0301563 0.00476899 2650 
283 1 -0.00731748 0.00375059 0.00463529 0.000233 -0.000941009 -0.0093883 -0.043378 2650 
131 1 -0.009967 0.00532321 0.004313 0.000233 0 -0.011754 0 2650 
156 1 -0.0152119 0.0067368 0.00392147 0.000233 0.00256319 -0.00297473 0.0120104 2650 
310 1 -0.00769653 0.00724406 0.00390966 0.000233 0.0718112 0.0853698 0.093696 2650 
296 1 -0.002285 0.00716221 0.004233 0.000233 0 -0.011754 0 2650 
470 1 -0.008539 0.00822121 0.004033 8.4e-05 0 -0.011754 0 2650 
374 1 -0.006913 0.00812821 0.00361 0.000233 0 -0.011754 0 2650 
408 1 -0.00193674 0.0126939 0.00400621 0.000847 -0.0637097 0.0325365 0.0310496 2650 
495 1 -0.0066725 0.0155552 0.00404587 0.000233 0.033012 0.00318582 -0.0311893 2650 
365 1 -0.014624 0.0416811 0.00416063 0.000233 -0.0631254 0.0667025 -0.0304057 2650 
195 1 -0.014509 0.000881214 0.005621 0.000233 0 -0.011754 0 2650 
219 1 -0.00776584 0.00116312 0.00582279 0.000233 -0.0024741 -0.0343988 -0.0362894 2650 
135 1 -0.0086643 0.0025708 0.00505104 0.000847 -0.0116394 -0.014915 -0.0125275 2650 
431 1 -0.00715976 0.00183915 0.0059975 8.4e-05 0.00226514 -0.0297238 -0.00436226 2650 
267 1 -0.00720398 0.0027945 0.00601801 0.000847 0.0102258 -0.0225398 -0.0274988 2650 
206 1 -0.00146083 0.00264539 0.00520606 0.000233 0.0190227 0.0148437 0.0194826 2650 
223 1 -0.014414 0.00461521 0.005039 8.4e-05 0 -0.011754 0 2650 
56 1 -0.011864 0.00397321 0.004858 0.001312 0 -0.011754 0 2650 
469 1 -0.012765 0.00586221 0.005129 0.000233 0 -0.011754 0 2650 
90 1 -0.009269 0.00610521 0.005356 0.000233 0 -0.011754 0 2650 
172 1 -0.000850147 0.00636157 0.00592643 0.001312 0.000274478 -0.0120667 -0.00114405 2650 
355 1 -0.0133438 0.00685979 0.00584914 0.000847 -0.0333437 -0.0221094 -0.0429472 2650 
361 1 -0.012031 0.00748021 0.0053 0.000233 0 -0.011754 0 2650 
244 1 -0.002251 0.00768321 0.006118 0.000233 0 -0.011754 0 2650 
384 1 -0.00420158 0.00103684 0.00674683 0.000847 -0.00967815 0.00355168 0.0471862 2650 
256 1 -0.00532929 0.00399406 0.00748923 0.000847 -0.00429144 -0.0114483 0.0061069 2650 
329 1 -0.000212 0.00403421 0.006779 0.000847 0 -0.011754 0 2650 
369 1 -0.008047 0.00602021 0.006729 0.000847 0 -0.011754 0 2650 
226 1 -0.00558496 0.0071569 0.00689066 0.000847 0.00554512 0.0149632 -0.0382158 2650 
385 1 -0.0121927 0.00871358 0.00692412 0.000847 -0.0233515 0.0521919 -0.0560775 2650 
475 1 -0.00534157 0.0103965 0.00782643 0.000847 0.0172958 0.0371572 -0.0224615 2650 
192 1 -0.0147118 0.012742 0.00670456 0.000233 -0.0600427 0.0865349 -0.0954398 2650 
88 1 -0.010473 0.00351321 0.008034 0.000233 0 -0.011754 0 2650 
130 1 -0.004749 0.00371421 0.009456 0.000233 0 -0.011754 0 2650 
417 1 -0.001923 0.00378021 0.008831 0.000233 0 -0.011754 0 2650 
462 1 -0.013341 0.00599721 0.008656 0.000847 0 -0.011754 0 2650 
45 1 -0.001763 0.00483821 0.008462 0.000847 0 -0.011754 0 2650 
22 1 -0.002569 0.00646921 0.009366 0.000233 0 -0.011754 0 2650 
152 1 -0.00175336 0.00668046 0.0079242 0.000847 -0.00549303 -0.0153889 -0.00137695 2650 
178 1 -0.000759424 0.00949117 0.00806748 0.000847 -0.0079929 0.0119809 -0.0138777 2650 
319 1 -0.00807582 0.0160255 0.00944211 0.000847 0.0260471 0.0971305 -0.0118188 2650 
176 1 -0.003497 0.00197521 0.009518 0.000847 0 -0.011754 0 2650 
509 1 -0.001563 0.00336921 0.010036 8.4e-05 0 -0.011754 0 2650 
419 1 -7.79406e-06 0.00612516 0.0108959 0.001312 0.011148 0.0302495 -0.0454134 2650 
291 1 -0.00163037 0.00849964 0.00987024 0.000847 0.000368443 -0.000878557 -0.00367841 2650 
321 1 -0.00555377 0.0145893 0.0104138 0.000847 0.0359152 0.0779062 0.00270154 2650 
235 1 -0.00605 0.00443621 0.012276 0.000233 0 -0.011754 0 2650 
518 1 -0.011612 0.00483621 0.01181 0.000233 0 -0.011754 0 2650 
128 1 -0.003888 0.00525521 0.011415 0.000233 0 -0.011754 0 2650 
313 1 -0.004641 0.00790121 0.011299 0.000233 0 -0.011754 0 2650 
430 1 -0.00929809 0.0247339 0.0113029 0.000233 -0.0599119 0.0304339 -0.0396458 2650 
196 1 -0.0104447 0.00396781 0.0128505 0.000233 -0.00735608 -0.00131167 0.0300939 2650 
443 1 -0.004264 0.00395421 0.013262 0.000233 0 -0.011754 0 2650 
73 1 -0.00715978 0.0107084 0.0141972 0.000847 0.0339809 0.0363351 0.0206284 2650 
516 1 -0.00884095 0.0117286 0.0134805 0.000233 0.019998 0.0356215 0.00536279 2650 
311 1 -0.002572 0.000974214 0.015752 0.000233 0 -0.011754 0 2650 
446 1 -0.000353 0.00725621 0.015695 0.000847 0 -0.011754 0 2650 
379 1 -0.00606887 0.00918712 0.0143275 8.4e-05 0.0166555 0.0403106 -0.0184391 2650 
358 1 0.00466547 -0.049639 -0.0679958 0.000847 -8.69395 -0.0577676 -0.646295 2650 
190 1 0.00852123 -0.0608941 -0.0676202 0.000847 -7.3831 -0.0372714 -0.934753 2650 
308 1 0.0095072 -0.0326696 -0.0674894 0.000847 -8.17121 -0.0163976 -1.16024 2650 
520 1 0.0107212 -0.0220696 -0.067929 0.000233 -5.78488 1.30562 -0.943524 2650 
170 1 0.0158934 -0.00989748 -0.0669131 0.000233 -6.23076 -0.112911 -1.46776 2650 
300 1 0.0224186 -0.0488796 -0.0650249 0.000233 -8.63584 -1.60344 -2.97166 2650 
393 1 0.0182296 -0.00267421 -0.0651906 0.001312 -6.59102 1.54672 -1.77967 2650 
421 1 0.0235705 -0.033426 -0.0639483 0.000847 -7.55209 -0.0101761 -2.77856 2650 
231 1 0.0343504 -0.0218807 -0.0595782 0.000233 -3.08049 -0.0628764 -1.69085 2650 
452 1 0.0410503 -0.0531574 -0.0551112 0.000233 -3.89404 -2.59176 -2.91273 2650 
173 1 0.0395435 -0.0458593 -0.0548868 0.001312 -7.31558 -0.0904428 -5.2511 2650 
341 1 0.0413432 -0.0520243 -0.0535364 0.001312 -3.50533 -2.60005 -2.70847 2650 
47 1 0.0448422 -0.031163 -0.0513371 0.000847 -6.53088 -0.139344 -5.77292 2650 
250 1 0.0453043 -0.00814482 -0.0498646 0.001312 -1.65936 -0.06388 -3.19701 2650 
239 1 0.0530466 -0.0403061 -0.0428041 0.000847 -5.42371 0.0999342 -6.73649 2650 
134 1 0.0352442 -0.00949181 -0.040716 0.001312 5.3015 -0.505861 -6.10085 2650 
148 1 0.0586773 -0.0328134 -0.0346655 0.000847 -3.99311 -0.0381662 -6.82082 2650 
458 1 0.0624345 -0.0614881 -0.0261682 0.001312 -3.90359 0.00120869 -9.31317 2650 
243 1 0.0631248 -0.0563383 -0.0257043 0.000847 -3.24379 0.0221196 -7.97409 2650 
491 1 0.0654407 -0.0282943 -0.0211201 0.000233 -1.46736 -0.394541 -4.50041 2650 
85 1 0.0648488 -0.0226003 -0.0209822 0.000847 -1.47114 -0.253065 -4.49315 2650 
124 1 0.0657479 -0.0488077 -0.017962 0.000847 -2.3119 -0.00486984 -8.56942 2650 
197 1 0.0668521 -0.0163378 -0.0167365 8.4e-05 -1.05164 -0.0435103 -4.18126 2650 
269 1 0.0665181 -0.0310884 -0.0148564 0.000847 -1.92483 -0.081952 -8.57231 2650 
415 1 0.0669804 -0.014915 -0.0155671 0.000233 -1.15587 -0.185478 -4.9295 2650 
459 1 0.00681156 -0.0030198 -0.0133738 0.000847 -0.00311424 -0.00489007 0.00512044 2650 
362 1 0.011937 -0.00302979 -0.011389 0.000233 0 -0.011754 0 2650 
397 1 0.0088871 -0.000820761 -0.0125941 0.000847 2.47281e-05 -0.0117498 -1.66727e-05 2650 
110 1 0.0106613 -0.00149783 -0.0116563 0.000847 0.00332668 -0.0110523 -0.00314649 2650 
28 1 2.92119e-05 -0.000410413 -0.010258 8.4e-05 0.0273567 -0.0592783 0.00580664 2650 
175 1 0.00026115 -0.00332127 -0.00807769 0.000847 -0.0175586 -0.0336821 -0.117647 2650 
389 1 0.011221 -0.00167779 -0.009451 0.000233 0 -0.011754 0 2650 
423 1 0.0098706 -0.00152196 -0.00913874 0.000847 0.00975102 -0.0189993 -0.00030009 2650 
93 1 0.0111089 -0.000894294 -0.00923904 8.4e-05 -0.0111448 -0.00926872 0.00559827 2650 
221 1 0.0683899 -0.0167582 -0.00697523 0.000233 -0.778482 0.315581 -8.31059 2650 
339 1 0.001696 -0.00229679 -0.005869 0.000233 0 -0.011754 0 2650 
496 1 0.007831 -0.00126079 -0.004076 8.4e-05 0 -0.011754 0 2650 
81 1 0.0132078 -0.00195625 -0.00197552 0.001312 0.00760364 -0.0249793 0.0108991 2650 
477 1 0.000187 -0.00114979 -0.00227 0.000233 0 -0.011754 0 2650 
316 1 0.0681289 -0.0457477 -0.00152681 0.000847 -0.071594 0.194829 -4.87994 2650 
433 1 0.064159 -0.0101242 0.00127264 0.000847 9.75774 -0.562969 0.225184 2650 
396 1 0.005166 -0.00267479 0.00144 0.000847 0 -0.011754 0 2650 
480 1 0.00564 -0.00179279 0.00063 0.000233 0 -0.011754 0 2650 
427 1 0.0125138 -0.00198795 0.00029432 0.000233 -0.000341839 -0.0116929 -0.000277084 2650 
506 1 0.0120933 -0.000170416 0.00122887 0.000233 -0.00550749 -0.0306155 -0.0053946 2650 
35 1 0.0148914 -3.16933e-06 0.000836773 0.000847 0.023523 -0.00211781 0.0100923 2650 
485 1 0.0146453 -0.0029282 0.00165654 0.000847 0.0280354 -0.0177041 0.00173885 2650 
123 1 0.0122796 -0.000208316 0.00245052 0.000847 -0.00297236 -0.0119633 0.00320526 2650 
497 1 0.00974982 -0.000402049 0.00337219 0.001312 -0.000787747 -0.00904155 0.00368956 2650 
70 1 0.0149399 -0.000428903 0.00397324 0.000847 0.000371051 -0.0119487 0.00118778 2650 
106 1 0.00181 -0.00207679 0.00562 8.4e-05 0 -0.011754 0 2650 
249 1 0.008036 -0.00300879 0.006254 8.4e-05 0 -0.011754 0 2650 
111 1 0.0138387 -0.00183697 0.00519105 0.000847 0.0145696 -0.0109012 0.0179066 2650 
486 1 0.005507 -0.000442786 0.005173 0.000847 0 -0.011754 0 2650 
432 1 0.0102426 -0.000272292 0.00621121 0.001312 -0.000241041 -0.0114307 -3.26435e-05 2650 
428 1 0.0135257 -0.000888045 0.00570733 0.000233 -0.0006844 -0.00321647 0.00718742 2650 
24 1 0.004515 -0.00149679 0.007639 0.000233 0 -0.011754 0 2650 
10 1 0.00074 -0.00207879 0.009007 0.000233 0 -0.011754 0 2650 
298 1 0.011042 -0.00145679 0.009111 0.000233 0 -0.011754 0 2650 
277 1 0.00458736 -0.000593182 0.0123805 0.000847 -0.0522071 0.00343729 0.0472431 2650 
519 1 0.0674806 -0.0407949 0.0132737 0.000233 0.728009 -0.188417 -3.69473 2650 
439 1 0.00118268 -0.00161476 0.0137754 0.000233 -0.0732871 0.0419872 -0.253497 2650 
64 1 0.0648006 -0.000499608 0.0230152 0.000233 1.36083 -0.0675339 -3.7449 2650 
278 1 0.0633916 -0.0539644 0.0250443 0.000847 2.89402 -0.0288678 -7.35468 2650 
253 1 0.0632122 -0.0232909 0.0254934 0.000847 1.47932 -0.271239 -3.61635 2650 
521 1 0.0589144 -0.0203767 0.0357527 8.4e-05 3.3575 -0.586842 -5.56085 2650 
281 1 0.0556956 -0.0154969 0.0392845 0.000847 1.98878 -1.16791 -2.76301 2650 
434 1 0.0489368 -0.0155879 0.0474597 0.000847 3.68237 0.089239 -3.78596 2650 
288 1 0.0467194 -0.000705884 0.05066 8.4e-05 2.0605 0.235762 -1.84577 2650 
493 1 0.044902 -0.0259199 0.0520796 0.000233 3.76551 -0.183935 -3.27137 2650 
20 1 0.0426276 -0.014312 0.0531987 0.000847 6.0179 -0.037925 -4.82298 2650 
129 1 0.0441633 -0.00210025 0.0527071 0.000233 4.31406 -0.0115138 -3.6375 2650 
490 1 0.0400258 -0.00597338 0.0559186 0.000233 5.86962 0.897199 -4.19538 2650 
382 1 0.0366351 -0.0370904 0.0574734 0.000847 6.44516 -0.242808 -4.13875 2650 
113 1 0.0372115 -0.0353483 0.0570984 0.000847 6.40584 -0.174357 -4.15537 2650 
320 1 0.0375868 -0.0281815 0.0568507 0.000847 3.22532 -1.54156 -2.11024 2650 
305 1 0.0332836 -0.0289835 0.0594739 0.000847 6.13748 0.35935 -3.46338 2650 
280 1 0.0344648 -0.0257408 0.0587959 0.000847 5.97634 0.213338 -3.55803 2650 
141 1 0.0354556 -0.0236732 0.0589244 0.000233 3.67512 -0.083864 -2.27506 2650 
460 1 0.0323757 -0.0306893 0.0599791 0.000847 6.35311 0.0486106 -3.43679 2650 
247 1 0.0267035 -0.0244212 0.0633534 0.000233 5.66322 -0.0662862 -2.43888 2650 
360 1 0.0165496 -0.0238681 0.0661155 0.000847 4.81014 -0.541376 -1.20979 2650 
349 1 0.0187479 -0.0167447 0.0661626 0.000233 5.64057 0.198768 -1.59492 2650 
473 1 0.0136201 -0.0419404 0.0667858 0.000847 8.05896 -0.0926411 -1.64825 2650 
420 1 0.00825647 -0.0243858 0.0676555 0.000847 6.30363 0.152203 -0.767037 2650 
185 1 0.000888189 -0.0215254 0.0676957 0.001312 8.06092 -0.0125479 -0.120102 2650 
465 1 0.0175013 -0.0167228 0.0665044 0.000233 5.65117 0.205509 -1.46101 2650 
453 1 0.00370112 -0.0180326 0.0686805 0.000233 5.61545 0.197414 -0.341386 2650 
357 1 0.000416555 0.00392548 -0.0158556 0.000847 -0.0161217 0.00624536 4.32434e-05 2650 
143 1 0.000282296 0.005056 -0.0159143 0.000233 -0.00298492 0.0132958 0.00347787 2650 
48 1 0.000489274 0.00838648 -0.0160308 0.000847 0.00310262 -0.000201808 0.0050032 2650 
388 1 0.00373747 0.0141374 -0.0157904 0.000233 -0.0748625 0.0261296 0.00379831 2650 
82 1 0.000400864 0.000642319 -0.014439 0.001312 -0.012997 -0.00289495 -0.00293882 2650 
282 1 0.00126096 0.00230668 -0.015673 0.000847 -0.0184526 0.00340453 -0.00246773 2650 
356 1 0.00135963 0.00552265 -0.0145512 0.000847 -0.00897725 0.00824838 0.00221893 2650 
412 1 0.00622812 0.00571346 -0.0143557 0.000847 -0.0110772 -0.00477243 0.00367521 2650 
366 1 0.005681 0.00643021 -0.015538 8.4e-05 0 -0.011754 0 2650 
325 1 0.00130668 0.00948248 -0.0155485 0.000233 0.00261303 0.02078 -0.0050374 2650 
444 1 4.61061e-07 0.00868214 -0.0142682 8.4e-05 -0.0133988 -0.00632289 -0.00239831 2650 
287 1 0.00111848 0.00289236 -0.0131097 0.000233 0.00707277 0.000687299 -0.00441923 2650 
210 1 0.0104712 0.0041918 -0.0126608 8.4e-05 -0.00850035 -0.00668207 -0.00752471 2650 
386 1 0.00253488 0.00509644 -0.0133586 0.000847 -0.00923714 0.00439228 0.00327807 2650 
12 1 0.00610902 0.00519957 -0.013248 0.000233 -0.00370381 -0.0127811 0.00678734 2650 