ITEM: TIMESTEP
27010975
ITEM: NUMBER OF ATOMS
456
ITEM: BOX BOUNDS ff ff ff
-0.15 0.15
-0.15 0.15
-0.15 0.15
ITEM: ATOMS id type x y z radius vx vy vz density 
24 1 -0.0935795 -0.0263211 -0.110187 0.000233 -9.56513 0.377612 -3.73595 2650 
259 1 -0.0065596 -0.0312401 -0.0684539 0.000233 -10.8922 -0.0581873 1.04377 2650 
118 1 -0.00788903 -0.0221274 -0.0682701 0.000233 -9.81248 0.0264813 1.128 2650 
180 1 -0.00297419 -0.0168934 -0.0686922 0.000233 -9.17554 0.100123 0.36617 2650 
161 1 -0.011627 -0.033551 -0.067158 0.000847 -10.723 -0.0619154 1.85665 2650 
154 1 -0.0167085 -0.0313035 -0.0667056 0.000233 -9.8596 -0.908366 2.47603 2650 
448 1 -0.0117138 -0.03098 -0.0672538 0.000847 -10.5642 -1.57137e-07 1.84 2650 
499 1 -0.0101843 -0.0286772 -0.067383 0.000847 -10.5481 -0.0419624 1.59428 2650 
85 1 -0.020705 -0.0446247 -0.0649421 0.000847 -10.2001 0.000843869 3.25201 2650 
9 1 -0.0226088 -0.0351592 -0.0649433 0.000233 -9.96329 0.508625 3.46839 2650 
314 1 -0.0217854 -0.035415 -0.0653804 8.4e-05 -10.3254 0.205414 3.44024 2650 
45 1 -0.0167632 -0.0303966 -0.0660638 0.000847 -9.47543 -0.791185 2.3874 2650 
59 1 -0.0235008 -0.0482804 -0.0639878 0.000847 -10.0511 4.46825e-05 3.69146 2650 
267 1 -0.0258845 -0.0436446 -0.0630625 0.000847 -9.90579 -0.00038342 4.06591 2650 
123 1 -0.0236263 -0.0391882 -0.0639348 0.000847 -10.079 -0.0664451 3.72722 2650 
230 1 -0.0276657 -0.0433576 -0.0623021 0.000847 -9.78493 0.000400756 4.34503 2650 
442 1 -0.0305833 -0.0411119 -0.0616015 0.000233 -9.73054 -0.10066 4.83056 2650 
119 1 -0.0339557 -0.000138294 -0.0599697 8.4e-05 -7.59368 -0.0109147 4.30108 2650 
146 1 -0.034715 -0.0304155 -0.0581177 0.001312 -9.14071 0.00648641 5.45965 2650 
280 1 -0.0360486 -0.047683 -0.0578617 0.000847 -9.09556 0.00466821 5.66644 2650 
203 1 -0.0379061 -0.0426218 -0.0566578 0.000847 -8.89886 0.0134875 5.95336 2650 
4 1 -0.039645 -0.0478754 -0.0554578 0.000847 -8.23375 -0.0747718 5.89521 2650 
432 1 -0.039589 -0.0452799 -0.0549314 0.001312 -8.62859 -0.000358481 6.21862 2650 
250 1 -0.0394914 -0.0423408 -0.0549976 0.001312 -8.63847 0.00129532 6.20287 2650 
120 1 -0.041751 -0.040617 -0.0532977 0.001312 -8.36922 -0.0168688 6.55657 2650 
347 1 -0.042381 -0.0385545 -0.0533801 0.000847 -8.36611 0.00603853 6.64606 2650 
281 1 -0.0417233 -0.0365718 -0.0538926 0.000847 -8.46345 -0.0632993 6.55191 2650 
376 1 -0.0426228 -0.0309432 -0.0539785 0.000233 -8.52431 0.0673686 6.73301 2650 
343 1 -0.0414233 -0.00671792 -0.0541248 0.000847 -7.51588 0.231832 5.75172 2650 
201 1 -0.043464 -0.0395206 -0.052504 0.000847 -8.25209 0.0062066 6.83114 2650 
142 1 -0.0436645 -0.0164735 -0.0531246 0.000233 -7.15489 -0.00194564 5.87785 2650 
519 1 -0.0468838 -0.0402572 -0.0503098 0.000233 -8.06236 0.0380616 7.5136 2650 
82 1 -0.0444576 -0.0380959 -0.0510554 0.001312 -8.01997 0.000284469 6.98356 2650 
329 1 -0.0459456 -0.0303795 -0.050342 0.000847 -7.99341 -0.0087995 7.29546 2650 
405 1 -0.0478888 -0.000907313 -0.0495578 8.4e-05 -7.66908 0.0916015 7.41183 2650 
265 1 -0.0492337 -0.0255857 -0.0471292 0.000847 -6.70082 -0.0462484 6.94523 2650 
480 1 -0.049626 -0.000233047 -0.0476042 0.000233 -6.25636 0.00207704 6.52759 2650 
129 1 -0.050931 -0.0173164 -0.0461354 0.000233 -6.70085 -0.143864 7.40734 2650 
289 1 -0.0518255 -0.0309846 -0.0436612 0.001312 -6.85829 1.8659e-07 8.14073 2650 
160 1 -0.0547611 -0.0491145 -0.039759 0.001312 -6.44499 -0.0368392 8.86831 2650 
397 1 -0.0548116 -0.036301 -0.0405083 0.000847 -6.34926 -0.132574 8.59095 2650 
88 1 -0.0564901 -0.0348422 -0.0392066 0.000233 -6.01376 0.13766 8.6679 2650 
245 1 -0.0569779 -0.019171 -0.0385071 0.000233 -5.46386 -0.416868 8.09966 2650 
101 1 -0.0572113 -0.0160429 -0.0381609 0.000233 -5.13477 0.0293707 7.69799 2650 
344 1 -0.0571827 -0.0618746 -0.0370879 0.000847 -5.82563 -0.00018185 8.98205 2650 
152 1 -0.0574429 -0.0310019 -0.0366936 0.000847 -5.78696 0.0123022 9.06045 2650 
51 1 -0.0582216 -0.025547 -0.0365939 0.000233 -5.74888 -0.161086 9.1466 2650 
110 1 -0.0583444 -0.0354237 -0.0352291 0.000847 -5.5638 0.144535 9.21751 2650 
70 1 -0.0582614 -0.0332723 -0.035367 0.000847 -5.60192 0.0839387 9.22772 2650 
434 1 -0.0584846 -0.0310522 -0.0350101 0.000847 -5.5366 0.000677444 9.25019 2650 
381 1 -0.0586515 -0.0291597 -0.0347151 0.000847 -5.42928 -0.0479106 9.17281 2650 
506 1 -0.0590977 -0.000232994 -0.0351615 0.000233 -4.68434 -0.00122825 7.89252 2650 
145 1 -0.0595823 -8.39972e-05 -0.0346285 8.4e-05 -4.62185 -1.03603e-07 7.95187 2650 
10 1 -0.0593343 -0.000232984 -0.03476 0.000233 -4.64505 -2.4467e-06 7.91732 2650 
208 1 -0.059993 -0.0364632 -0.0336093 0.000233 -5.36339 0.251954 9.57851 2650 
248 1 -0.0610756 -0.0112865 -0.0316223 0.000233 -4.65571 0.33657 8.9889 2650 
111 1 -0.0618952 -0.0197046 -0.0285633 0.000847 -4.31969 -0.0101503 9.35707 2650 
67 1 -0.0627541 -0.0110406 -0.0285107 8.4e-05 -3.48931 -0.391758 7.6692 2650 
235 1 -0.063405 -0.0291431 -0.0266152 0.000233 -4.21779 -0.304448 10.0462 2650 
114 1 -0.0629133 -0.0169934 -0.0277954 0.000233 -3.95904 -0.422889 8.959 2650 
463 1 -0.0646723 -0.0496527 -0.0215583 0.000847 -3.38634 7.36271e-06 10.1586 2650 
84 1 -0.0644437 -0.0480518 -0.022236 0.000847 -3.49326 0.000345821 10.124 2650 
489 1 -0.0653907 -0.0487324 -0.0192724 0.000847 -3.02745 0.000837872 10.272 2650 
189 1 -0.0659844 -0.0521677 -0.0171073 0.000847 -2.68719 -2.64077e-05 10.3647 2650 
241 1 -0.0658184 -0.0506072 -0.0177454 0.000847 -2.78745 2.1186e-05 10.3388 2650 
380 1 -0.0658576 -0.0498438 -0.0157263 0.001312 -2.4703 2.57815e-07 10.3449 2650 
315 1 -0.0659243 -0.0456094 -0.0154495 0.001312 -2.42681 -4.03111e-05 10.3554 2650 
175 1 -0.0661306 -0.0437622 -0.0165479 0.000847 -2.59939 2.1659e-05 10.3879 2650 
469 1 -0.00217708 -3.80783e-05 -0.0162601 0.000233 0.0333347 0.00418871 -0.00737151 2650 
486 1 -0.0665768 -0.0481179 -0.014647 0.000847 -2.30074 0.000103057 10.4578 2650 
169 1 -0.0671153 -0.0417584 -0.0150174 0.000233 -2.33571 -0.418648 10.4374 2650 
375 1 -0.067134 -0.0242576 -0.0149 0.000233 -2.00885 -0.0298345 9.03861 2650 
509 1 -0.0674245 -0.0024379 -0.0142466 8.4e-05 -1.60099 -0.169559 7.57839 2650 
384 1 -0.00262348 -0.00091156 -0.0157676 0.000847 0.0343371 0.00166123 -0.00912542 2650 
412 1 -0.000844545 -0.000714369 -0.0143795 0.000847 -0.00361608 -0.00480485 -0.000872785 2650 
330 1 -0.0668635 -0.0490513 -0.0132627 0.000847 -2.08939 -7.51209e-05 10.5022 2650 
102 1 -0.0676816 -0.0416017 -0.0122055 0.000233 -1.93357 -0.0666487 10.7221 2650 
266 1 -0.00448137 -0.00108646 -0.0136458 0.000847 -0.00164881 -0.00742592 -0.00189738 2650 
392 1 -0.00817589 -0.00106603 -0.0118941 8.4e-05 -0.00068915 -0.00349539 -0.00139054 2650 
113 1 -0.0674163 -0.050545 -0.0100587 0.000847 -1.58009 2.76152e-05 10.5901 2650 
288 1 -0.0681968 -0.0443991 -0.00996596 8.4e-05 -1.54462 0.096271 10.5682 2650 
507 1 -0.0681636 -0.0310737 -0.00912502 0.000233 -1.34079 0.107894 9.99651 2650 
447 1 -0.0675312 -0.0262284 -0.00921112 0.000847 -1.33162 -0.0198742 9.75595 2650 
247 1 -0.0682198 -0.0448884 -0.00869392 0.000233 -1.34535 0.628395 10.5584 2650 
277 1 -0.0125907 -3.72952e-05 -0.00684134 0.000847 0.00338805 0.00569524 -0.0266496 2650 
320 1 -0.0679724 -0.0478538 -0.00502304 0.000847 -0.789013 -7.1086e-05 10.677 2650 
134 1 -0.067573 -0.044864 -0.00408691 0.001312 -0.641953 -0.000208366 10.6141 2650 
184 1 -0.0686742 -0.00608846 -0.00575856 8.4e-05 -0.740183 0.344768 8.93211 2650 
133 1 -0.00446036 -0.00169636 -0.00502511 0.001312 -0.0021989 -0.00307358 0.00294343 2650 
202 1 -0.00143834 -0.00207098 -0.000750316 0.000847 -0.000325259 -0.00498031 0.00775896 2650 
39 1 -0.00295806 -0.00185507 0.00319786 0.000233 -0.0126184 -0.00557583 0.0065332 2650 
210 1 -0.0686428 -0.00328693 0.00605986 8.4e-05 0.505278 -0.113787 5.55484 2650 
28 1 -0.0685166 -0.00408219 0.0073347 8.4e-05 0.953459 0.119955 9.00387 2650 
117 1 -0.0681668 -0.00050785 0.00906489 0.000233 1.01243 0.0120891 7.67488 2650 
136 1 -0.0671308 -0.033955 0.011774 0.000847 1.76556 -0.0156946 10.0759 2650 
496 1 -0.0676957 -0.00699492 0.0129167 8.4e-05 1.72156 -0.102529 8.93884 2650 
41 1 -0.0670023 -0.00449972 0.0161178 8.4e-05 1.74893 0.0200203 7.25113 2650 
304 1 -0.0661342 -0.0440678 0.0165348 0.000847 2.59811 -5.89425e-05 10.3916 2650 
249 1 -0.0656907 -0.0251359 0.0208306 8.4e-05 2.84738 -0.770297 8.96721 2650 
176 1 -0.0651291 -0.0156344 0.0201351 0.000847 1.85598 1.04189 5.9878 2650 
400 1 -0.0653933 -0.0329211 0.021266 0.000233 3.38488 -0.614145 10.4077 2650 
75 1 -0.0650271 -0.016569 0.0224157 0.000233 1.8116 0.0785774 5.3322 2650 
306 1 -0.0632148 -0.0322221 0.0254702 0.000847 3.93647 -0.06198 9.76721 2650 
256 1 -0.0633562 -0.0218145 0.0251464 0.000847 3.44878 -0.932222 8.65643 2650 
106 1 -0.0640922 -8.39989e-05 0.0253253 8.4e-05 3.07882 -0.000340689 7.79079 2650 
93 1 -0.0640305 -8.39798e-05 0.0254816 8.4e-05 3.10411 -0.000174763 7.78142 2650 
318 1 -0.0620199 -0.0493269 0.0282959 0.000847 4.44508 0.000837011 9.74293 2650 
292 1 -0.0603729 -0.0257959 0.0316317 0.000847 4.66752 0.0356483 8.89459 2650 
522 1 -0.058292 -0.00417245 0.03676 8.4e-05 4.44034 -0.0690401 7.06048 2650 
78 1 -0.0556106 -0.0385273 0.0404023 0.000233 5.32457 -0.147189 7.35914 2650 
130 1 -0.0539837 -0.0403839 0.042535 0.000233 5.9557 -0.568324 7.48836 2650 
490 1 -0.0544188 -0.02643 0.0420399 0.000233 5.93565 0.465352 7.68744 2650 
12 1 -0.0542877 -0.00486967 0.0422094 0.000233 5.42293 0.0525364 6.96782 2650 
458 1 -0.0521188 -0.061488 0.0432044 0.001312 6.78652 -3.46032e-10 8.1868 2650 
46 1 -0.0516537 -0.0474797 0.0444664 0.000847 6.98504 -0.000600669 8.11405 2650 
190 1 -0.0500542 -0.0618124 0.0462604 0.000847 7.26651 -2.09368e-05 7.86243 2650 
20 1 -0.050187 -0.0486731 0.0461145 0.000847 7.24384 0.000964281 7.8836 2650 
185 1 -0.0499619 -0.0391706 0.0456799 0.001312 7.17579 -0.00350306 7.84844 2650 
18 1 -0.0513445 -0.036779 0.0448231 0.000847 6.98802 -0.0007283 8.0046 2650 
224 1 -0.0498617 -0.0309026 0.0457912 0.001312 6.89891 0.020081 7.49791 2650 
19 1 -0.0486957 -0.0617599 0.0476882 0.000847 7.49101 1.27203e-05 7.64926 2650 
445 1 -0.0493011 -0.0417716 0.0463925 0.001312 7.28718 -0.00174332 7.74399 2650 
69 1 -0.0482799 -0.0212242 0.0474537 0.001312 7.19866 0.0131322 7.33336 2650 
23 1 -0.0487314 -0.0624452 0.0485222 0.000233 7.62184 -0.000174062 7.6547 2650 
367 1 -0.0478962 -0.0569199 0.0478421 0.001312 7.51559 -0.00686108 7.52396 2650 
497 1 -0.047471 -0.046553 0.048268 0.001312 7.58198 2.83563e-05 7.45679 2650 
92 1 -0.0487289 -0.0416651 0.048523 0.000233 5.65362 -1.40472 5.64767 2650 
33 1 -0.0475715 -0.0429938 0.0488122 0.000847 7.66751 -9.11998e-05 7.47262 2650 
242 1 -0.0476587 -0.02289 0.0487222 0.000847 7.37183 -0.0403969 7.20851 2650 
352 1 -0.0492226 -0.00639804 0.0480181 0.000233 3.52042 -0.136719 3.61135 2650 
316 1 -0.0464707 -0.0618731 0.0498586 0.000847 7.83174 4.10676e-05 7.29956 2650 
420 1 -0.046345 -0.047692 0.0499821 0.000847 7.85103 5.91997e-05 7.27973 2650 
278 1 -0.0451259 -0.0617612 0.051079 0.000847 8.02361 6.88389e-07 7.08848 2650 
159 1 -0.0422081 -0.0491321 0.0529413 0.001312 8.32879 0.0173268 6.64025 2650 
369 1 -0.0431783 -0.0463988 0.0527495 0.000847 8.26363 -0.0176162 6.76433 2650 
22 1 -0.0413208 -0.00565287 0.0549681 0.000233 4.28289 -0.263944 3.22891 2650 
339 1 -0.0408577 -0.00151459 0.0553111 0.000233 6.31426 -0.0297306 4.68477 2650 
409 1 -0.0367824 -0.0522362 0.0573896 0.000847 9.01189 0.020776 5.77572 2650 
485 1 -0.0355793 -0.0478175 0.0581502 0.000847 9.11865 -0.0769028 5.58195 2650 
513 1 -0.0347802 -0.0445775 0.0586332 0.000847 9.16454 -0.10787 5.43636 2650 
197 1 -0.0383617 -0.0410869 0.0572612 8.4e-05 9.14195 0.331329 6.12313 2650 
324 1 -0.0369016 -0.00113444 0.0580239 0.000233 6.81502 -0.0589518 4.33194 2650 
317 1 -0.0287512 -0.0521061 0.0618065 0.000847 9.6724 -0.0242541 4.4993 2650 
452 1 -0.0320387 -0.0507955 0.0608603 0.000233 9.52965 0.0705682 5.01682 2650 
402 1 -0.0304356 -0.0282172 0.061661 0.000233 9.00414 -0.20856 4.4431 2650 
431 1 -0.0324455 -0.0151677 0.0608155 8.4e-05 8.34372 -0.72564 4.45459 2650 
346 1 -0.0267562 -0.061877 0.0626856 0.000847 9.85034 -0.00280896 4.20434 2650 
284 1 -0.026938 -0.0216546 0.063274 0.000233 9.08028 0.0257242 3.87061 2650 
461 1 -0.0113424 -0.0520044 0.0672067 0.000847 10.5179 0.0580156 1.77522 2650 
44 1 -0.00819909 -0.0438685 0.0676619 0.000847 10.6287 -0.00777974 1.28783 2650 
151 1 -0.00576363 -0.0360412 0.0679117 0.000847 10.4425 -0.0263509 0.886773 2650 
462 1 -0.0146129 -0.0191092 0.0665199 0.000847 3.64347 -0.399731 0.726309 2650 
521 1 -0.0132442 -0.01579 0.0676068 8.4e-05 8.53601 -0.848706 1.61283 2650 
305 1 -0.00286637 -0.0495164 0.0681024 0.000847 10.6992 -0.00727155 0.450254 2650 
253 1 -0.00103065 -0.0484343 0.0681577 0.000847 10.7048 1.74059e-05 0.161892 2650 
89 1 -0.000347519 -0.0449839 0.0687742 0.000233 11.027 -0.0552302 0.0561019 2650 
322 1 -0.00182352 -0.0408375 0.0687468 0.000233 10.8095 -0.00140594 0.286741 2650 
487 1 -0.00377967 -0.0395675 0.0680536 0.000847 10.5706 0.0283421 0.586965 2650 
216 1 -0.00139341 -0.0370018 0.0681435 0.000847 10.4181 0.0451195 0.212413 2650 
360 1 -0.00422169 -0.0353131 0.0680255 0.000847 10.4116 -0.0474321 0.645617 2650 
454 1 -0.00837011 -0.0259546 0.0682545 0.000233 10.449 0.845232 1.27542 2650 
353 1 -0.00688114 -0.000627572 0.0685705 8.4e-05 7.02813 -0.0796919 0.715359 2650 
212 1 -0.000772428 0.00193642 -0.0155611 0.001312 -0.000379555 -0.00245154 0.00166027 2650 
68 1 -0.00143678 0.00833033 -0.0154965 0.001312 0.00656765 0.00723405 -0.0034973 2650 
357 1 -0.00565371 0.0133392 -0.0146811 0.000847 -0.00356262 0.00740695 0.00116372 2650 
399 1 -0.00257207 0.0266167 -0.0155765 0.000847 0.0145811 0.0154461 -0.00307587 2650 
501 1 -0.00514451 0.0116862 -0.0133804 0.000847 0.00271066 0.00783714 0.00249064 2650 
16 1 -0.00650658 0.0624781 -0.0127165 0.001312 -0.00372561 0.0412357 0.00325068 2650 
439 1 -0.00447478 0.0118145 -0.012159 0.000233 0.0228492 0.00607655 0.00357595 2650 
386 1 -0.00820243 0.0135136 -0.0112519 0.000847 -0.00685813 0.0101085 -0.000664392 2650 
309 1 -0.0108593 0.0203865 -0.0119382 0.000233 -0.00479857 0.018266 0.00823948 2650 
444 1 -0.00928986 0.00924651 -0.0106787 8.4e-05 -0.00260039 0.00547496 0.00633282 2650 
2 1 -0.00382074 0.00902354 -0.0104882 0.001312 0.00400868 0.00487374 0.00130235 2650 
76 1 -0.00917166 0.0187153 -0.010897 0.000233 -0.00578221 0.011958 0.00483197 2650 
115 1 -0.00978245 0.0203248 -0.0109306 0.000233 0.00203478 0.00995688 0.00306778 2650 
178 1 -0.0124286 0.0269802 -0.0103098 0.000847 0.00775667 0.0103751 0.00360415 2650 
30 1 -0.0114235 0.042487 -0.00950161 0.001312 -0.0211815 0.0380083 0.00875764 2650 
282 1 -0.0137354 0.012612 -0.00823093 0.000847 -0.00590106 0.010471 0.0107991 2650 
225 1 -0.00541529 0.0130958 -0.00937583 0.001312 -0.00239701 0.00874648 -0.00124216 2650 
83 1 -0.000879241 0.0322897 -0.00861306 0.000847 -0.011122 0.104926 0.00742126 2650 
31 1 -0.0026589 0.072332 -0.00887161 0.000847 0.0128996 0.0556905 -0.00624527 2650 
206 1 -0.000500123 0.000435624 -0.00680146 0.000233 0.000200844 -0.0022057 -0.0101649 2650 
147 1 -0.00716633 0.00197447 -0.00671093 0.001312 -0.00155224 -0.00287693 0.000873515 2650 
109 1 -0.00103042 0.00431409 -0.00655477 0.000847 -0.00739102 -0.000240261 0.00788824 2650 
471 1 -0.0083572 0.016077 -0.00729255 0.001312 0.0142077 0.0144874 0.0114805 2650 
273 1 -0.00614682 0.0297133 -0.00773307 0.000233 -0.00788291 0.0124072 0.00594868 2650 
359 1 -0.00748263 0.057842 -0.00729488 0.000847 -0.0105408 0.0538414 0.0225509 2650 
348 1 -0.014312 0.00469283 -0.00540084 0.000233 -0.00855875 -0.000417391 0.0118261 2650 
94 1 -0.014388 0.0102944 -0.0058087 0.001312 0.00216405 0.00411442 0.00793824 2650 
373 1 -0.0149736 0.0186294 -0.00563624 0.000847 0.00260085 0.0219543 -0.0053929 2650 
15 1 -0.00885064 0.0411173 -0.00592757 0.001312 -0.00341521 0.0253607 0.0153897 2650 
66 1 -0.0102622 0.0709183 -0.0048362 0.000233 0.00347261 0.0341619 0.00411013 2650 
407 1 -0.0041607 0.000470067 -0.00351895 0.000847 -0.00271156 -0.00263393 0.00241233 2650 
237 1 -0.0150756 0.0028687 -0.0035038 0.001312 -0.00571909 0.0043721 0.00435753 2650 
17 1 -0.00582224 0.00315489 -0.00342007 0.000847 -0.00529384 -0.000624951 0.00099193 2650 
149 1 -0.00428339 0.0109883 -0.00339531 0.000847 0.00533574 0.00120564 0.000572163 2650 
502 1 -0.0151667 0.0262659 -0.00414003 0.000847 -0.000230871 0.00792682 0.00455104 2650 
457 1 -0.00327593 0.0285104 -0.00394052 8.4e-05 0.00209197 0.0125772 -0.0227291 2650 
177 1 -0.0143954 0.0324688 -0.0043963 0.000847 0.00132565 0.0192779 0.00604683 2650 
91 1 -0.0162088 0.0391824 -0.00381659 0.000233 -0.00189936 0.0295908 0.0155029 2650 
331 1 -0.00172055 0.0412765 -0.00325521 0.000847 0.00840645 0.0232594 0.00867855 2650 
377 1 -0.00631711 0.0668603 -0.00441437 0.000233 -0.00308755 0.0650231 0.0279133 2650 
158 1 -0.0101203 0.00306907 -0.00198974 8.4e-05 0.00270084 -0.000488248 0.00495661 2650 
355 1 -0.0123016 0.0122971 -0.00262525 0.000847 0.00467399 0.0102065 -0.00490803 2650 
199 1 -0.0144673 0.0315765 -0.00209057 0.001312 0.00194289 0.0160573 0.0068254 2650 
37 1 -0.0164669 0.0329464 -0.0019166 0.000233 -0.000311153 0.0235499 0.0169314 2650 
77 1 -0.00759473 0.0487476 -0.00183968 0.000233 0.00669575 0.0236814 0.0157679 2650 
512 1 -0.0105077 0.00245647 -0.00102512 0.000847 0.00181622 0.00186639 0.0122251 2650 
515 1 -0.013262 0.0128937 -0.00135653 0.000847 -0.00010888 0.00459815 -0.00507254 2650 
211 1 -0.0143808 0.0512324 -0.0003813 0.001312 0.0169704 0.0336354 0.0077469 2650 
511 1 -0.0134692 0.0534333 -0.000649264 0.000847 0.00146079 0.0210985 -0.0127999 2650 
121 1 -0.00579671 0.0134109 0.00143286 0.001312 0.0113437 0.00558656 0.00250698 2650 
217 1 -0.0126495 0.0488889 0.000812398 0.000847 0.00743731 0.032403 0.00336557 2650 
198 1 -0.0153553 0.00557768 0.00201748 0.001312 0.000689044 -0.0014313 0.0125552 2650 
204 1 -0.0145813 0.0276732 0.00203344 0.000847 0.00121054 0.0124535 0.0137872 2650 
391 1 -0.015197 0.0343763 0.00267526 0.000233 0.00226461 0.0200531 0.0160982 2650 
299 1 -0.0107789 0.0529003 0.0016666 0.000233 0.0153724 0.0433476 -0.0153898 2650 
389 1 -0.00206326 0.0099646 0.00332132 0.000233 -0.00715985 0.00216632 0.0289367 2650 
156 1 -0.00483697 0.0140111 0.00399656 0.000233 0.0117738 0.00676262 0.00472854 2650 
186 1 -0.00506804 0.00407925 0.00541101 0.001312 0.0110093 -0.000918863 0.00524694 2650 
450 1 -0.000488913 0.00402922 0.00554739 0.000847 0.0141697 0.00366662 0.00769839 2650 
467 1 -0.0132703 0.00600779 0.00504992 0.000233 0.00666977 0.00283463 0.00629942 2650 
291 1 -0.00115509 0.00736631 0.00512513 0.000847 0.000368443 -0.000878557 -0.00367841 2650 
518 1 -0.0153541 0.00894124 0.00627845 0.000233 -0.0014198 0.00993602 -0.00710746 2650 
7 1 -0.00949095 0.0391617 0.00509314 0.000847 0.00509742 0.0248497 0.013646 2650 
214 1 -0.00322215 0.0301918 0.00702216 0.000847 0.0140272 0.0148951 0.00243728 2650 
440 1 -0.00478804 0.00183836 0.00857171 0.000233 0.00893327 0.00123303 0.0100401 2650 
301 1 -0.0074948 0.0036255 0.0080081 8.4e-05 -0.00542456 -0.000958437 0.00851575 2650 
222 1 -0.00531594 0.0326536 0.00894497 0.000233 0.0205794 0.0022401 -0.00426972 2650 
5 1 -0.0017696 0.0170224 0.010185 0.000847 0.0159354 0.00855543 0.0196475 2650 
168 1 -0.00417695 0.00480941 0.011341 0.000233 0.010374 0.000533782 0.0120746 2650 
451 1 -0.00536262 0.00985052 0.0113433 0.000847 0.0101382 0.00361366 0.00843172 2650 
395 1 -0.00733407 0.0207413 0.0118829 0.000847 -0.03813 0.0623589 0.0970061 2650 
226 1 -0.00317102 0.0367508 0.0120447 0.000847 0.00127411 0.0241147 0.0153454 2650 
21 1 -0.00707546 0.0413872 0.0116812 0.000847 -0.0156294 0.0277562 -0.00305439 2650 
363 1 -0.00237195 0.0425775 0.0111243 0.000233 -0.0108121 0.0312503 -0.00018022 2650 
262 1 -0.00704459 0.0749373 0.0119259 8.4e-05 0.016947 0.0454576 0.00941551 2650 
390 1 -0.00343905 0.0162635 0.0127057 0.000233 -0.00350245 0.00582576 -0.00125219 2650 
503 1 -0.002406 0.0422806 0.012785 0.000233 0.0275154 0.0239428 0.00958867 2650 
403 1 -0.00403649 0.0286843 0.0155766 0.000233 -0.0216925 0.0195608 -0.00722352 2650 
153 1 -0.00515894 0.034741 0.015647 0.000233 0.025776 0.015339 0.0111578 2650 
213 1 -0.00646696 0.0382188 0.0145304 0.000847 0.0260498 0.00276319 0.0133116 2650 
80 1 -0.00620698 0.0368305 0.0150749 8.4e-05 0.0269174 -0.00387207 0.00630255 2650 
510 1 -0.00652883 0.0428885 0.014232 0.001312 -0.0126601 0.0323816 -0.00757053 2650 
57 1 -0.00133098 0.0305951 0.0159316 0.000847 -0.0153315 0.0184234 -0.00270005 2650 
418 1 -0.00354085 0.0789824 -0.016113 8.4e-05 -0.0209706 0.0409363 -0.0240492 2650 
437 1 -0.0108078 0.118594 -0.00373282 0.000847 -0.00719255 0.0835002 -0.0252935 2650 
63 1 -0.00135854 0.0829842 0.000591975 0.000233 0.00544067 0.0487134 -0.0167697 2650 
72 1 -0.00164762 0.0778766 0.00373571 0.000847 0.00694298 0.0370303 0.0147661 2650 
319 1 -0.00133229 0.148406 0.013718 0.000847 0.00321502 0.103152 0.00477754 2650 
426 1 0.00959429 -0.0283684 -0.0680902 0.000233 -10.3192 -0.0664768 -1.45485 2650 
361 1 0.00502003 -0.0248128 -0.0685843 0.000233 -10.7507 0.670973 -0.788592 2650 
104 1 0.00640256 -0.0108695 -0.0684778 0.000233 -9.75678 -0.668494 -0.916361 2650 
433 1 0.00840834 -0.0280651 -0.0676317 0.000847 -10.2529 -0.0230308 -1.31175 2650 
231 1 0.0175176 -0.0267142 -0.0664966 0.000233 -9.98977 -0.0404778 -2.63393 2650 
11 1 0.0117608 -0.0128423 -0.067769 0.000233 -8.99431 0.0556174 -1.56224 2650 
183 1 0.0208457 -0.00839153 -0.0655367 0.000233 -8.96333 -0.0492962 -2.84815 2650 
358 1 0.0254302 -0.0543665 -0.0632379 0.000847 -9.93332 -3.61858e-05 -3.99454 2650 
443 1 0.0296334 -0.0292862 -0.0620532 0.000233 -9.38295 -0.0638214 -4.4808 2650 
351 1 0.0303864 -0.0198887 -0.0616877 0.000233 -8.87518 0.138622 -4.37122 2650 
446 1 0.0313364 -0.0205529 -0.060526 0.000847 -8.70336 -0.0402508 -4.52765 2650 
229 1 0.038401 -0.0304875 -0.0563079 0.000847 -8.61183 -0.101398 -5.86961 2650 
271 1 0.0388763 -0.0139422 -0.056723 0.000233 -8.59992 0.829387 -5.89312 2650 
50 1 0.043053 -0.028644 -0.0536207 0.000233 -8.10481 0.211574 -6.50442 2650 
205 1 0.048753 -0.0206417 -0.0485107 0.000233 -6.6486 -0.115638 -6.68936 2650 
313 1 0.048225 -0.0174514 -0.0490415 0.000233 -7.46227 -0.0108748 -7.33723 2650 
477 1 0.0491461 -0.0115742 -0.0481167 0.000233 -7.28838 0.378953 -7.43719 2650 
220 1 0.0513229 -0.0226159 -0.0457771 0.000233 -6.61382 -0.217484 -7.4216 2650 
172 1 0.0497795 -0.0212738 -0.0458907 0.001312 -7.18181 -0.0609419 -7.7904 2650 
258 1 0.0547646 -0.0156128 -0.0416147 0.000233 -5.30667 0.0390981 -6.9873 2650 
332 1 0.0546111 -0.0168864 -0.0408026 0.000847 -5.44011 0.00143714 -7.285 2650 
410 1 0.0557213 -0.061875 -0.0392494 0.000847 -6.16531 7.70382e-05 -8.75272 2650 
125 1 0.0593169 -0.0455531 -0.0335878 0.000847 -5.45586 -0.0235061 -9.63685 2650 
436 1 0.0607201 -0.0618732 -0.0309592 0.000847 -4.86288 -0.000226221 -9.53752 2650 
311 1 0.0612458 -0.0246361 -0.0312598 0.000233 -4.95534 -0.133588 -9.71126 2650 
243 1 0.0616421 -0.0617858 -0.0290807 0.000847 -4.56807 0.000178339 -9.6829 2650 
366 1 0.0620929 -0.00949712 -0.0298874 8.4e-05 -3.17384 0.0318203 -6.70459 2650 
53 1 0.0629589 -0.0189523 -0.0275723 0.000233 -3.76458 0.144787 -8.52158 2650 
428 1 0.0626763 -0.0107282 -0.0281111 0.000233 -3.51926 -0.221161 -7.72553 2650 
494 1 0.0644222 -0.0304311 -0.0240499 0.000233 -3.6089 -0.155023 -9.67516 2650 
297 1 0.0653196 -0.029932 -0.0214999 0.000233 -3.21968 -0.116759 -9.77374 2650 
219 1 0.0654448 -0.0290049 -0.0211145 0.000233 -3.16612 0.190371 -9.80525 2650 
364 1 0.0655931 -0.0297372 -0.0206505 0.000233 -3.11955 -0.0393697 -9.87806 2650 
356 1 0.000779397 -0.00302511 -0.0148686 0.000847 -7.48654e-05 -0.00579622 -0.00143001 2650 
438 1 0.00348575 -0.00131611 -0.0149053 0.000847 -0.0169209 -0.00251284 -0.0025984 2650 
459 1 0.066823 -0.0267369 -0.0134167 0.000847 -2.15081 0.0302582 -10.7094 2650 
209 1 0.0673653 -0.0170288 -0.0138403 0.000233 -1.72378 0.435652 -8.40447 2650 
483 1 0.0678703 -0.00603761 -0.0119623 8.4e-05 -1.57858 0.263056 -8.92157 2650 
124 1 0.0672534 -0.056573 -0.0110666 0.000847 -1.73833 -3.55714e-05 -10.5641 2650 
8 1 0.0150188 -0.00676694 -0.0110969 0.000233 0.999163 -1.19978 -0.837182 2650 
336 1 0.00777267 -0.00066459 -0.00874372 0.000233 0.00789915 -0.00106843 0.00245482 2650 
382 1 0.0678534 -0.0513438 -0.00653596 0.000847 -1.02622 -0.0260574 -10.6528 2650 
138 1 0.0679917 -0.0509058 -0.00490545 0.000847 -0.770052 -0.0306186 -10.6733 2650 
116 1 0.0685973 -0.0192738 -0.00498447 0.000233 -0.592727 0.965767 -8.12957 2650 
424 1 0.068138 -0.0519667 -0.00199397 0.000847 -0.313208 -0.000491574 -10.7025 2650 
468 1 0.0687492 -0.0207984 -0.00192468 0.000233 -0.290838 -0.645069 -10.8499 2650 
261 1 0.0687732 -0.0125582 -0.00101949 0.000233 -0.153932 0.544848 -10.2777 2650 
401 1 0.0687804 -0.0488748 0.000422393 0.000233 0.0667201 -0.151661 -11.0237 2650 
95 1 0.0676921 -0.0260932 -8.14137e-05 0.001312 -0.0129976 -0.00193503 -10.5874 2650 
49 1 0.0687638 -0.0142412 0.0015448 0.000233 0.193265 -0.00844429 -8.68852 2650 
132 1 0.0132762 -0.00049778 0.00286086 8.4e-05 -0.00428615 -0.00289113 -0.000365994 2650 
105 1 0.0686457 -0.0272185 0.00402944 0.000233 0.638038 0.379968 -10.8523 2650 
460 1 0.0679342 -0.0508384 0.00564169 0.000847 0.886586 0.0193675 -10.6687 2650 
252 1 0.00736643 -0.00180393 0.00679489 0.000847 0.000408733 -0.00473082 -0.0109231 2650 
35 1 0.000841455 -0.000221891 0.00654147 0.000847 -0.0121953 -9.57773e-05 0.00420749 2650 
207 1 0.0685071 -0.000894101 0.00594518 0.000233 0.740654 -0.00118047 -8.49419 2650 
334 1 0.0675678 -0.0559643 0.0089499 0.000847 1.40951 -0.0494733 -10.6328 2650 
341 1 0.0666883 -0.0592869 0.0116304 0.001312 1.8274 0.000544782 -10.4779 2650 
294 1 0.0672729 -0.0524469 0.0109745 0.000847 1.72996 -0.00721883 -10.6035 2650 
162 1 0.0669094 -0.0507703 0.0130125 0.000847 2.04723 -0.0737364 -10.531 2650 
86 1 0.00887452 -0.000998343 0.0133426 0.000847 -0.0160568 -0.00271753 0.0137057 2650 
239 1 0.066631 -0.0618765 0.0143407 0.000847 2.24787 -0.012756 -10.4462 2650 
323 1 0.0673031 -0.0529498 0.0141303 0.000233 2.22425 0.0721637 -10.5896 2650 
312 1 0.0655007 -0.0280976 0.0209193 0.000233 3.31045 -0.171143 -10.3514 2650 
270 1 0.0655335 -0.0230893 0.0207363 0.000233 3.12906 -0.601007 -9.87492 2650 
174 1 0.0641011 -0.0309759 0.0234828 0.000847 3.68867 1.77348e-07 -10.069 2650 
65 1 0.0629558 -0.00451349 0.0276643 0.000233 3.29806 0.188835 -7.47669 2650 
36 1 0.0608145 -0.0137789 0.0321134 0.000233 4.7419 0.105673 -8.98513 2650 
473 1 0.0585665 -0.0501394 0.0348792 0.000847 5.46483 0.0100359 -9.176 2650 
274 1 0.0572245 -0.0492947 0.0381541 0.000233 5.73164 0.747386 -8.59638 2650 
167 1 0.0564631 -0.04516 0.0392757 0.000233 6.21971 -0.130879 -8.94153 2650 
396 1 0.0528577 -0.050708 0.0430474 0.000847 6.75435 -0.0567726 -8.2936 2650 
61 1 0.0534015 -0.0323244 0.0423488 0.000847 6.58879 -0.207764 -8.31511 2650 
374 1 0.0518792 -0.0236043 0.0451426 0.000233 5.52015 1.6666 -6.34509 2650 
148 1 0.0474083 -0.0464926 0.0489879 0.000847 7.69464 -0.00238963 -7.44659 2650 
264 1 0.0453977 -0.0560333 0.050839 0.000847 7.98571 -9.44823e-06 -7.13099 2650 
423 1 0.044592 -0.0417233 0.0515514 0.000847 8.06002 -0.128219 -6.97067 2650 
54 1 0.0469852 -0.0232607 0.0504184 8.4e-05 7.57425 -0.439971 -7.05836 2650 
338 1 0.0441368 -0.041393 0.0527311 0.000233 8.33325 0.00739251 -6.97392 2650 
90 1 0.044904 -0.0386774 0.0520787 0.000233 8.36422 0.304482 -7.20779 2650 
290 1 0.0414452 -0.0464518 0.0541078 0.000847 8.49787 -0.00411515 -6.50917 2650 
47 1 0.0418766 -0.0448465 0.0537814 0.000847 8.45003 -0.00556229 -6.57953 2650 
96 1 0.0419602 -0.0408237 0.0537125 0.000847 8.36521 -0.131529 -6.53305 2650 
393 1 0.0404336 -0.0364738 0.0542861 0.001312 8.35702 0.0224779 -6.22582 2650 
307 1 0.0417857 -0.0213761 0.05385 0.000847 8.16051 -0.0848013 -6.33225 2650 
466 1 0.0415494 -0.0123588 0.0548015 0.000233 7.33781 -0.229029 -5.56054 2650 
302 1 0.0384145 -0.0446619 0.0557385 0.001312 8.7549 -0.0831305 -6.04639 2650 
236 1 0.039719 -0.0344531 0.056312 8.4e-05 8.9209 0.361654 -6.29224 2650 
74 1 0.0347209 -0.0366558 0.0586438 0.000847 8.89704 0.0708142 -5.26334 2650 
378 1 0.0314245 -0.0366099 0.061166 0.000233 9.74059 0.0763824 -5.00172 2650 
492 1 0.0340089 -0.0238279 0.0597686 0.000233 8.87314 0.120477 -5.04604 2650 
429 1 0.0329102 -0.00848079 0.060354 0.000233 7.42692 0.0514068 -4.11956 2650 
479 1 0.0322532 -0.00794875 0.0606951 0.000233 8.01944 0.0537305 -4.29178 2650 
60 1 0.0263113 -0.0406335 0.0628767 0.000847 9.84393 -0.019105 -4.11937 2650 
298 1 0.0260734 -0.0393936 0.0636342 0.000233 9.9309 -0.0450839 -4.06922 2650 
456 1 0.0260949 -0.0111134 0.0636118 0.000233 7.63158 0.0704553 -3.13787 2650 
340 1 0.0205297 -0.0465641 0.0657991 8.4e-05 10.1702 0.297548 -3.17345 2650 
81 1 0.0192231 -0.0453487 0.064921 0.001312 10.1192 -0.0300203 -2.99576 2650 
500 1 0.00695939 -0.0500288 0.067814 0.000847 10.651 -0.00692063 -1.09303 2650 
173 1 0.0106888 -0.0504568 0.0668613 0.001312 10.496 0.00357363 -1.67814 2650 
350 1 0.0120709 -0.0510532 0.0677112 0.000233 10.6243 -0.138528 -1.8942 2650 
488 1 0.00716289 -0.0472172 0.0677943 0.000847 10.6782 0.0292747 -1.12803 2650 
269 1 0.00930682 -0.0472588 0.0675346 0.000847 10.6126 0.000259015 -1.4626 2650 
498 1 0.0134632 -0.0468503 0.0668285 0.000847 10.6198 -0.0663672 -2.14192 2650 
56 1 0.00986204 -0.0414238 0.0669814 0.001312 10.5624 -0.192904 -1.55264 2650 
411 1 0.012342 -0.0403775 0.0670378 0.000847 10.3603 -0.0824764 -1.90783 2650 
32 1 0.0156546 -0.0390651 0.0663397 0.000847 10.4166 -0.0319265 -2.45794 2650 
303 1 0.0140923 -0.0382233 0.066687 0.000847 10.4768 0.0111074 -2.21397 2650 
171 1 0.0183799 -0.0313627 0.0664202 8.4e-05 10.1702 0.235231 -2.80362 2650 
166 1 0.00446236 -0.052016 0.0686309 0.000233 10.7939 0.0238492 -0.701699 2650 
421 1 0.00397052 -0.0502026 0.0680527 0.000847 10.6897 9.21736e-05 -0.623688 2650 
122 1 0.00214882 -0.0494227 0.068134 0.000847 10.7024 3.67008e-05 -0.33753 2650 
308 1 0.0036602 -0.0481479 0.068072 0.000847 10.6928 -0.000527266 -0.574954 2650 