ITEM: TIMESTEP
17750095
ITEM: NUMBER OF ATOMS
486
ITEM: BOX BOUNDS ff ff ff
-0.15 0.15
-0.15 0.15
-0.15 0.15
ITEM: ATOMS id type x y z radius vx vy vz density 
351 1 -0.00389499 -0.00732345 -0.0686394 0.000233 -3.31121 -0.186968 0.182629 2650 
509 1 -0.0103633 -0.00626997 -0.0681222 8.4e-05 -7.7266 -0.105417 1.17778 2650 
88 1 -0.0134519 -0.0264871 -0.067437 0.000233 -7.90184 0.014167 1.57151 2650 
417 1 -0.0114228 -0.012149 -0.0678118 0.000233 -3.68853 -0.0331453 0.699201 2650 
454 1 -0.0225517 -0.0184388 -0.0649713 0.000233 -8.53084 0.0547742 2.95064 2650 
59 1 -0.0235625 -0.0484398 -0.0639628 0.000847 -9.89839 -0.0691839 3.64603 2650 
434 1 -0.0324462 -0.0200722 -0.0599491 0.000847 -8.20461 -0.0203721 4.40658 2650 
53 1 -0.036213 -0.0100456 -0.0584709 0.000233 -6.95243 -0.0820824 4.32386 2650 
85 1 -0.0380191 -0.0393393 -0.0565737 0.000847 -8.72645 -0.0108971 5.8658 2650 
183 1 -0.037452 -0.0255295 -0.0576729 0.000233 -7.41337 -0.380201 4.82256 2650 
307 1 -0.0379032 -0.0181476 -0.0566615 0.000847 -7.36586 0.0368888 4.92204 2650 
229 1 -0.0361024 -0.0173997 -0.0578274 0.000847 -7.88344 0.0806678 4.94468 2650 
184 1 -0.037085 -0.00141748 -0.0580842 8.4e-05 -7.77701 -0.189803 4.97274 2650 
230 1 -0.0404533 -0.0392877 -0.0548594 0.000847 -8.42258 0.00281108 6.21148 2650 
220 1 -0.0497345 -0.020171 -0.047372 0.000233 -5.99922 -0.238657 6.27096 2650 
250 1 -0.051327 -0.0302461 -0.0441308 0.001312 -6.79134 -0.319257 7.95602 2650 
433 1 -0.051108 -0.0265944 -0.0450781 0.000847 -5.7189 1.14334 6.48307 2650 
171 1 -0.0528958 -0.0103449 -0.044174 8.4e-05 -5.65144 0.74086 6.77801 2650 
274 1 -0.0525117 -0.00967924 -0.0443999 0.000233 -5.54423 -0.12946 6.54806 2650 
120 1 -0.0518613 -0.0355987 -0.0435125 0.001312 -6.69718 0.0389196 7.98257 2650 
280 1 -0.0533641 -0.0326629 -0.0423908 0.000847 -6.66439 -0.0397054 8.38987 2650 
201 1 -0.052295 -0.0322775 -0.0437109 0.000847 -6.87919 -0.102482 8.23007 2650 
205 1 -0.0540212 -0.0167871 -0.04255 0.000233 -5.68196 -0.129679 7.20008 2650 
258 1 -0.0537011 -0.0161059 -0.0429521 0.000233 -5.72636 -0.00251365 7.16271 2650 
110 1 -0.0547105 -0.0204485 -0.0406451 0.000847 -5.41057 -0.00350888 7.25948 2650 
95 1 -0.054136 -0.0183488 -0.040639 0.001312 -5.43027 0.00676362 7.25001 2650 
161 1 -0.0555772 -0.0223829 -0.0394536 0.000847 -5.28615 0.0976468 7.46173 2650 
344 1 -0.0561978 -0.0575125 -0.0385612 0.000847 -6.09287 -0.0818615 8.87986 2650 
65 1 -0.0569154 -0.0169005 -0.0385995 0.000233 -4.84319 0.267324 7.13015 2650 
466 1 -0.057611 -0.0157609 -0.0375563 0.000233 -4.40039 -0.307682 6.76514 2650 
423 1 -0.0573146 -0.0340586 -0.0368829 0.000847 -5.8071 0.00845499 9.02467 2650 
96 1 -0.0577551 -0.0307176 -0.0361942 0.000847 -5.41115 0.0345 8.58604 2650 
231 1 -0.0585381 -0.0249634 -0.036085 0.000233 -4.6325 -0.462644 7.51131 2650 
32 1 -0.0588556 -0.0337222 -0.0343644 0.000847 -5.26557 0.0274407 8.98116 2650 
267 1 -0.0581586 -0.0347227 -0.0355334 0.000847 -5.5706 -0.0118914 9.09334 2650 
448 1 -0.0586144 -0.024036 -0.0347829 0.000847 -4.48742 -0.289655 7.57476 2650 
140 1 -0.060286 -0.040712 -0.0330907 0.000233 -3.99814 -0.261949 7.33237 2650 
393 1 -0.058492 -0.030962 -0.0340971 0.001312 -5.04305 0.0383496 8.72216 2650 
478 1 -0.06014 -0.0215721 -0.0333577 0.000233 -4.35512 -0.0832855 7.83745 2650 
283 1 -0.0603723 -0.00923296 -0.0329385 0.000233 -4.20331 0.310177 7.68059 2650 
432 1 -0.0594739 -0.0342526 -0.032331 0.001312 -4.87114 -0.0980296 8.95774 2650 
499 1 -0.05996 -0.0267789 -0.0324032 0.000847 -4.76731 0.598105 8.79654 2650 
443 1 -0.0615951 -0.0223803 -0.0305871 0.000233 -4.13389 -0.250222 8.33182 2650 
311 1 -0.000156178 -0.0062609 -0.0687676 0.000233 -7.94016 -0.769314 0.0525745 2650 
141 1 -0.0624459 -0.0435884 -0.0288284 0.000233 -3.5718 -0.832053 7.75128 2650 
402 1 -0.0622624 -0.0116478 -0.02922 0.000233 -3.89041 0.324926 8.28469 2650 
84 1 -0.062276 -0.0448507 -0.0277309 0.000847 -4.33066 4.11944e-06 9.72496 2650 
60 1 -0.062838 -0.0351501 -0.0263839 0.000847 -3.68313 -0.280271 8.70433 2650 
302 1 -0.0621673 -0.0296254 -0.0267846 0.001312 -3.58581 -0.017769 8.38957 2650 
303 1 -0.0632473 -0.0261487 -0.0253922 0.000847 -3.38944 0.373455 8.47914 2650 
41 1 -0.0641831 -0.00333419 -0.0250888 8.4e-05 -2.82213 0.0806044 7.27945 2650 
106 1 -0.0639852 -0.00109855 -0.025592 8.4e-05 -2.56682 -0.164496 6.36313 2650 
463 1 -0.0635946 -0.0489 -0.0245593 0.000847 -3.89545 0.0796539 10.0862 2650 
519 1 -0.0643573 -0.035956 -0.0242239 0.000233 -3.70343 -0.0573896 9.84098 2650 
82 1 -0.0630979 -0.0338591 -0.0245123 0.001312 -3.39364 -0.0513791 8.6923 2650 
92 1 -0.064908 -0.00241817 -0.022704 0.000233 -2.6824 -0.252481 7.63228 2650 
289 1 -0.0645042 -0.0205652 -0.0205592 0.001312 -1.78902 -0.0156445 5.57905 2650 
489 1 -0.0654606 -0.0484508 -0.0190332 0.000847 -2.96687 0.110681 10.2029 2650 
102 1 -0.0658767 -0.0405147 -0.0197544 0.000233 -3.0991 0.0756411 10.3359 2650 
241 1 -0.0657489 -0.0512806 -0.0179962 0.000847 -2.82278 0.000523198 10.313 2650 
189 1 -0.0662133 -0.051186 -0.0162013 0.000847 -2.54017 0.0237029 10.3771 2650 
315 1 -0.0659165 -0.0455513 -0.0154839 0.001312 -2.43419 0.00239676 10.362 2650 
175 1 -0.0661257 -0.0436204 -0.0165617 0.000847 -2.59122 -0.0342374 10.3466 2650 
380 1 -0.0660197 -0.0488776 -0.0150315 0.001312 -2.36248 -0.00220912 10.3762 2650 
330 1 -0.0673136 -0.0442845 -0.0107417 0.000847 -1.66907 -0.0963357 10.4533 2650 
486 1 -0.0671951 -0.0400291 -0.0114367 0.000847 -1.79579 0.051365 10.5523 2650 
248 1 -0.0103829 -0.00316035 -0.0123229 0.000233 -0.00637846 -0.0124761 -0.00236458 2650 
13 1 -0.012448 -0.00310402 -0.010914 8.4e-05 0 -0.011754 0 2650 
69 1 -0.0105182 -0.00253865 -0.0107195 0.001312 -0.00193923 -0.0114169 0.000188368 2650 
209 1 -0.001802 -0.00168502 -0.011003 0.000233 0 -0.011754 0 2650 
113 1 -0.0676477 -0.0487566 -0.00835735 0.000847 -1.32166 0.00223462 10.7008 2650 
332 1 -0.0132674 -0.000371764 -0.0086907 0.000847 -2.59197e-05 -0.0117517 -8.4822e-06 2650 
320 1 -0.0679541 -0.0463861 -0.00526709 0.000847 -0.836301 -0.0640435 10.7774 2650 
193 1 -0.0685844 -0.0268054 -0.00500038 0.000233 -0.664693 0.375728 9.26371 2650 
134 1 -0.0675805 -0.0447016 -0.0039643 0.001312 -0.625222 -0.0114005 10.6434 2650 
203 1 -0.0680537 -0.0386863 -0.0037149 0.000847 -0.54565 0.162064 9.97322 2650 
219 1 -0.0687186 -0.0608998 -0.00256027 0.000233 -0.37483 0.0195086 10.0702 2650 
4 1 -0.0681456 -0.0332498 -0.00124055 0.000847 -0.187934 0.0472501 10.5368 2650 
339 1 -0.0687557 -0.00821024 -0.00120082 0.000233 -0.116172 -0.0104777 7.18819 2650 
245 1 -0.0163785 -0.00153582 -0.00305138 0.000233 -0.00221759 -0.0111797 -0.00662502 2650 
469 1 -0.0134479 -2.30784e-05 -0.00300652 0.000233 -0.00294498 -0.00215916 -0.0350837 2650 
75 1 -0.004976 -0.00212702 -0.001105 0.000233 0 -0.011754 0 2650 
384 1 -0.0157626 -0.000374816 -0.0010684 0.000847 0.00371215 -0.00343021 -0.035241 2650 
144 1 -0.0687592 -0.0600881 0.00101936 0.000233 0.146104 1.0101 9.63664 2650 
242 1 -0.010702 -0.00304602 0.00289 0.000847 0 -0.011754 0 2650 
376 1 -0.005395 -0.00263702 0.002758 0.000233 0 -0.011754 0 2650 
174 1 -0.001898 -0.00311402 0.003155 0.000847 0 -0.011754 0 2650 
131 1 -0.009967 -0.00278702 0.004313 0.000233 0 -0.011754 0 2650 
296 1 -0.002285 -0.000948019 0.004233 0.000233 0 -0.011754 0 2650 
90 1 -0.009269 -0.00200502 0.005356 0.000233 0 -0.011754 0 2650 
172 1 -0.000660758 -0.00196445 0.00513704 0.001312 0.000274478 -0.0120667 -0.00114405 2650 
361 1 -0.012031 -0.000630019 0.0053 0.000233 0 -0.011754 0 2650 
244 1 -0.002251 -0.000427019 0.006118 0.000233 0 -0.011754 0 2650 
277 1 -0.0137257 -0.00245771 0.00788493 0.000847 -0.00744758 -0.00968058 -0.00966905 2650 
369 1 -0.008047 -0.00209002 0.006729 0.000847 0 -0.011754 0 2650 
462 1 -0.014535 -0.00075215 0.0064051 0.000847 -0.0053093 -0.00468048 -0.0120478 2650 
479 1 -0.0681068 -0.00736485 0.00951352 0.000233 1.23281 -0.117536 8.99541 2650 
22 1 -0.002569 -0.00164102 0.009366 0.000233 0 -0.011754 0 2650 
45 1 -0.00432598 -0.00269033 0.00978507 0.000847 -0.119986 0.0154775 0.0619417 2650 
481 1 -0.0676658 -0.0408194 0.0122875 0.000233 1.78563 -0.519503 9.84065 2650 
284 1 -0.0677361 -0.0199417 0.0118787 0.000233 0.777441 -0.27622 3.42231 2650 
128 1 -0.003888 -0.00285502 0.011415 0.000233 0 -0.011754 0 2650 
313 1 -0.004641 -0.000209019 0.011299 0.000233 0 -0.011754 0 2650 
459 1 -0.0663496 -0.0101706 0.0156265 0.000847 2.15056 -0.066497 9.04369 2650 
446 1 -0.000353 -0.000854019 0.015695 0.000847 0 -0.011754 0 2650 
304 1 -0.0650229 -0.0292785 0.0204246 0.000847 3.18345 0.0164927 10.1353 2650 
494 1 -0.0651771 -0.0235536 0.0219383 0.000233 3.43481 1.02676 10.2085 2650 
318 1 -0.0625193 -0.0510449 0.0271702 0.000847 4.33442 -0.0119516 9.97418 2650 
522 1 -0.0624177 -0.00218881 0.0292048 8.4e-05 3.17397 -0.227588 6.80711 2650 
297 1 -0.0606587 -0.0259892 0.0323746 0.000233 4.4815 -0.415261 8.4457 2650 
136 1 -0.0597752 -0.0254661 0.0327449 0.000847 4.55193 -0.00484413 8.33338 2650 
259 1 -0.0587939 -0.0146232 0.0356811 0.000233 4.60599 -0.768249 7.57835 2650 
312 1 -0.0582474 -0.00641867 0.0365546 0.000233 4.66097 0.45001 7.41868 2650 
169 1 -0.0572571 -0.0525345 0.0380482 0.000233 5.66419 -0.00523525 8.51347 2650 
458 1 -0.0520765 -0.061488 0.0432554 0.001312 6.79453 -3.4661e-10 8.18015 2650 
367 1 -0.0504569 -0.0546703 0.0451327 0.001312 7.05453 0.0431364 7.88728 2650 
46 1 -0.0511631 -0.0429406 0.0450279 0.000847 7.07966 -0.0497004 8.04662 2650 
185 1 -0.0496387 -0.0395224 0.0460244 0.001312 7.22109 0.00460844 7.78848 2650 
327 1 -0.052426 -0.0237234 0.0447299 8.4e-05 5.44664 -0.189979 6.39657 2650 
190 1 -0.0499879 -0.0617526 0.0463322 0.000847 7.29075 0.029281 7.86587 2650 
19 1 -0.048649 -0.0617598 0.0477359 0.000847 7.49883 -0.00679683 7.64212 2650 
347 1 -0.0497104 -0.0311237 0.0466291 0.000847 7.33274 0.0119141 7.8173 2650 
23 1 -0.0486975 -0.0624621 0.048556 0.000233 7.60826 -0.0228599 7.63012 2650 
20 1 -0.047963 -0.0385262 0.048422 0.000847 7.70415 -0.0721661 7.63048 2650 
316 1 -0.0463885 -0.0618831 0.0499346 0.000847 7.87726 -0.0112277 7.31707 2650 
452 1 -0.0463563 -0.0483979 0.0508006 0.000233 7.84417 0.175411 7.15732 2650 
278 1 -0.0449674 -0.0617911 0.051218 0.000847 8.05336 -0.014527 7.06977 2650 
317 1 -0.0447477 -0.0501125 0.0514179 0.000847 7.98015 -0.057485 6.94758 2650 
159 1 -0.0433211 -0.0456616 0.0520296 0.001312 8.1214 -0.148503 6.75945 2650 
445 1 -0.0442354 -0.0397858 0.0512478 0.001312 8.04755 -0.0321267 6.9459 2650 
208 1 -0.0453482 -0.0338035 0.051693 0.000233 7.98315 0.893799 7.00579 2650 
497 1 -0.041758 -0.0426176 0.0532965 0.001312 8.18143 -0.148461 6.4113 2650 
420 1 -0.0390703 -0.0433019 0.0558597 0.000847 8.72739 -0.1544 6.1034 2650 
349 1 -0.0398881 -0.0371203 0.0560164 0.000233 8.58496 -0.677201 6.11692 2650 
442 1 -0.0350289 -0.0344991 0.0591727 0.000233 8.74949 -0.190706 5.17737 2650 
9 1 -0.0346667 -0.0239526 0.0593902 0.000233 9.38059 -0.180115 5.47414 2650 
78 1 -0.0318443 -0.0328175 0.0609466 0.000233 9.37219 -0.00282421 4.89642 2650 
338 1 -0.0270871 -0.0402326 0.063214 0.000233 9.8205 -0.274732 4.2094 2650 
513 1 -0.0259847 -0.0355249 0.0630035 0.000847 9.52444 -0.0254706 3.91454 2650 
314 1 -0.0257857 -0.0464152 0.0639159 8.4e-05 10.1897 0.411317 4.10825 2650 
485 1 -0.0222764 -0.0350221 0.0644124 0.000847 9.78852 0.0727295 3.37817 2650 
36 1 -0.0234297 -0.0016961 0.0646496 0.000233 4.24346 -0.123804 1.56961 2650 
10 1 -0.0246968 -0.000232996 0.0641781 0.000233 6.02238 0.000525083 2.33198 2650 
346 1 -0.0168219 -0.0619055 0.0660469 0.000847 10.2624 0.0190101 2.6146 2650 
506 1 -0.0211001 -0.010097 0.065449 0.000233 7.5173 -0.124548 2.40962 2650 
409 1 -0.0054448 -0.0515216 0.0679396 0.000847 10.6656 0.0246183 0.854835 2650 
173 1 -0.00776713 -0.0500786 0.0672453 0.001312 10.4307 -0.00450521 1.20404 2650 
308 1 -0.00960992 -0.0478789 0.0674748 0.000847 10.1553 -0.017793 1.44849 2650 
421 1 -0.00921108 -0.0461136 0.0675315 0.000847 10.6095 -0.079554 1.4338 2650 
449 1 -0.00655906 -0.0447521 0.0678422 0.000847 10.6219 -0.0349851 1.02672 2650 
461 1 -0.0118619 -0.04423 0.0671169 0.000847 10.7534 0.0977265 1.90065 2650 
305 1 -0.00835789 -0.0445431 0.067642 0.000847 10.7793 -0.145203 1.33274 2650 
150 1 -0.0100036 -0.0423833 0.067418 0.000847 10.6368 -0.220696 1.5472 2650 
33 1 -0.00897458 -0.0384742 0.067562 0.000847 10.6907 0.031322 1.41839 2650 
182 1 -0.0141904 -0.0278715 0.0672802 0.000233 9.00892 0.11091 1.91498 2650 
350 1 -0.00449462 -0.0530965 0.0686215 0.000233 11.0379 0.0896849 0.721076 2650 
253 1 -0.00436188 -0.0415352 0.0680202 0.000847 10.9216 -0.077354 0.697545 2650 
247 1 -0.00351534 -0.0411684 0.0686814 0.000233 11.5214 -0.445138 0.580803 2650 
197 1 -0.0105617 -0.0393499 0.0681007 8.4e-05 10.7715 -0.00755989 1.67029 2650 
435 1 -0.000611325 0.00460227 -0.0156084 0.000847 0.0110639 0.0108389 0.00825723 2650 
444 1 -0.00772964 0.00596157 -0.0144783 8.4e-05 -0.00260039 0.00547496 0.00633282 2650 
501 1 -0.00648511 0.00690137 -0.0142199 0.000847 -0.00139048 0.00902178 -0.00690783 2650 
163 1 -0.00186136 0.00712215 -0.0157132 0.000847 0.0124042 0.0208825 -0.00559459 2650 
357 1 -0.00351616 0.00889507 -0.0153793 0.000847 -0.00356262 0.00740695 0.00116372 2650 
223 1 -0.00444377 0.0143814 -0.0155924 8.4e-05 0.303836 0.22042 -0.0681494 2650 
16 1 -0.00427124 0.0377369 -0.0146669 0.001312 -0.00372561 0.0412357 0.00325068 2650 
371 1 -0.00639495 0.0513109 -0.0144953 0.000847 -0.0255412 0.0511436 0.0118966 2650 
425 1 -2.6618e-05 0.0535143 -0.0143855 0.000847 0.000798131 0.0539086 0.00864932 2650 
268 1 -0.00519043 0.0639746 -0.0153067 0.000847 -0.0299804 0.0810479 0.00539052 2650 
68 1 -0.00540807 0.00400476 -0.0134131 0.001312 0.0078264 0.0066275 -0.00288547 2650 
212 1 -0.000545085 0.00365459 -0.0136321 0.001312 -0.000431411 -0.00238781 -0.00442068 2650 
282 1 -0.00848942 0.00605202 -0.0135062 0.000847 -0.0102628 0.0112017 0.0074648 2650 
76 1 -0.00570237 0.0115405 -0.0137962 0.000233 -0.00578221 0.011958 0.00483197 2650 
392 1 -0.00776241 0.00103118 -0.0110598 8.4e-05 -0.00068915 -0.00349539 -0.00139054 2650 
266 1 -0.00337782 0.00331399 -0.0124519 0.000847 -0.00632715 -0.00517157 -0.00417132 2650 
348 1 -0.00917677 0.00494326 -0.0124964 0.000233 -0.00855875 -0.000417391 0.0118261 2650 
2 1 -0.00630638 0.00592195 -0.0112917 0.001312 0.00464057 0.00626666 0.00147605 2650 
309 1 -0.00490714 0.00866195 -0.0119492 0.000233 -0.0123102 0.020136 -0.0038176 2650 
386 1 -0.00381663 0.0081335 -0.0110825 0.000847 -0.00876552 0.00452864 0.00358068 2650 
115 1 -0.0108062 0.0143749 -0.0125187 0.000233 -0.00509119 0.0090838 -0.00606222 2650 
399 1 -0.0106697 0.0173286 -0.0116394 0.000847 0.00722196 0.0151601 -0.0170469 2650 
91 1 -0.00984064 0.0207182 -0.0117041 0.000233 -0.011194 0.0308527 0.0129891 2650 
273 1 -0.00141712 0.022269 -0.0113022 0.000233 -0.00788291 0.0124072 0.00594868 2650 
77 1 -0.0116121 0.0345389 -0.0113003 0.000233 0.00669575 0.0236814 0.0157679 2650 
439 1 -0.00872346 0.0115229 -0.00997912 0.000233 0.00360649 -0.00462834 0.00809011 2650 
37 1 -0.0122666 0.0131498 -0.0109899 0.000233 -0.0110769 0.0405379 0.0129588 2650 
15 1 -0.00727621 0.0271748 -0.0107923 0.001312 -0.00235194 0.0225075 0.0056031 2650 
512 1 -0.00962811 0.00145959 -0.00834136 0.000847 -0.00620923 0.00136295 0.0121494 2650 
94 1 -0.00732766 0.0077812 -0.00916585 0.001312 -0.0124084 0.00377188 0.00598516 2650 
225 1 -0.00396954 0.00784108 -0.00854675 0.001312 -0.0025157 0.00885487 -0.00255804 2650 
502 1 -0.0135622 0.0206628 -0.00811962 0.000847 -0.0201091 0.0131014 0.0230655 2650 
177 1 -0.0113443 0.0206029 -0.00900062 0.000847 -0.0114517 0.0203964 0.00745206 2650 
331 1 -0.00676438 0.027321 -0.00846229 0.000847 0.00840645 0.0232594 0.00867855 2650 
133 1 -0.00314103 0.000147775 -0.00679115 0.001312 -0.0021989 -0.00307358 0.00294343 2650 
237 1 -0.0132861 0.00216201 -0.00704382 0.001312 -0.0166288 -0.00194159 -0.00249817 2650 
147 1 -0.00623499 0.00370061 -0.00723503 0.001312 -0.00155224 -0.00287693 0.000873515 2650 
66 1 -0.0123458 0.0504214 -0.00730225 0.000233 0.00347261 0.0341619 0.00411013 2650 
202 1 -0.00124319 0.000917179 -0.00540564 0.000847 -0.000325259 -0.00498031 0.00775896 2650 
407 1 -0.00253377 0.00205041 -0.00496633 0.000847 -0.00271156 -0.00263393 0.00241233 2650 
158 1 -0.0113304 0.00455429 -0.00527863 8.4e-05 0.00188877 -0.00284778 0.00557992 2650 
198 1 -0.013544 0.0065915 -0.00554147 0.001312 -0.00588684 -0.00188959 0.0126317 2650 
204 1 -0.0142736 0.0199533 -0.005321 0.000847 -0.0114452 0.0176588 -0.00542553 2650 
391 1 -0.01304 0.0218654 -0.0060208 0.000233 -0.0185168 0.0226742 0.0109675 2650 
31 1 -0.0103986 0.0389181 -0.00512449 0.000847 0.0128996 0.0556905 -0.00624527 2650 
72 1 -0.00581336 0.0556586 -0.00512384 0.000847 0.00694298 0.0370303 0.0147661 2650 
17 1 -0.00264596 0.00352985 -0.00401522 0.000847 -0.00529384 -0.000624951 0.00099193 2650 
149 1 -0.0074848 0.0102649 -0.0037386 0.000847 0.00533574 0.00120564 0.000572163 2650 
199 1 -0.0125013 0.0217544 -0.00428907 0.001312 -0.0101783 0.0154526 -0.00123675 2650 
373 1 -0.0154616 0.00560984 -0.00196498 0.000847 0.000337109 0.0216316 -0.00631221 2650 
471 1 -0.000788352 0.00757903 -0.00210223 0.001312 -0.0318692 0.0139359 -0.0231651 2650 
5 1 -0.0113308 0.0118892 -0.0016034 0.000847 0.0159354 0.00855543 0.0196475 2650 
178 1 -0.0069625 0.0186802 -0.0018075 0.000847 -0.00942264 0.0138974 -0.0144999 2650 
7 1 -0.0125494 0.0242521 -0.00309436 0.000847 0.00509742 0.0248497 0.013646 2650 
408 1 -0.000650016 0.028437 -0.00274879 0.000847 0.0152707 0.0161504 -0.0297782 2650 
482 1 -0.0155386 0.0535385 -0.00307335 0.000233 -0.00272 0.0425188 0.0154078 2650 
206 1 -0.000620628 0.00175903 -0.000702554 0.000233 0.000200844 -0.0022057 -0.0101649 2650 
121 1 -0.012396 0.010036 -0.000245549 0.001312 0.00840531 0.00591376 0.00499871 2650 
21 1 -0.000780181 0.0237143 -0.00111865 0.000847 -0.0107612 0.0244459 0.0309069 2650 
217 1 -0.0137647 0.0289959 -0.00102581 0.000847 -0.0164792 0.0356281 0.00207149 2650 
450 1 -0.00899067 0.00182927 0.000928407 0.000847 0.0141697 0.00366662 0.00769839 2650 
467 1 -0.0152901 0.00418854 0.000888832 0.000233 -0.0114317 0.00391679 0.0097834 2650 
355 1 -0.0149292 0.00601587 1.79763e-05 0.000847 0.00437228 0.0104751 -0.0043935 2650 
345 1 -0.00325933 0.00493645 0.00100701 0.000847 0.0102698 0.00604929 0.00457735 2650 
213 1 -0.0160801 0.0352274 0.000198931 0.000847 0.00850695 0.00646293 0.0300841 2650 
137 1 -0.00273502 0.0452119 0.0015211 0.000847 0.0204383 0.0331061 0.00315705 2650 
440 1 -0.010148 0.00109855 0.00254771 0.000233 0.00893327 0.00123303 0.0100401 2650 
186 1 -0.011657 0.00463821 0.00226368 0.001312 0.0109248 -0.00095807 0.00524279 2650 
301 1 -0.00424009 0.00420056 0.00289871 8.4e-05 -0.00542456 -0.000958437 0.00851575 2650 
515 1 -0.0141462 0.0103781 0.00262634 0.000847 0.0111869 0.00310859 -0.0146617 2650 
156 1 -0.0117171 0.00994126 0.001629 0.000233 0.00826491 0.00699737 -0.00422055 2650 
153 1 -0.0161175 0.0244534 0.00306062 0.000233 0.00753817 0.0191391 0.0304205 2650 
503 1 -0.0110422 0.0265687 0.00213497 0.000233 -0.0202763 0.0321153 0.0393148 2650 
470 1 -0.008539 0.000110981 0.004033 8.4e-05 0 -0.011754 0 2650 
374 1 -0.006913 1.79812e-05 0.00361 0.000233 0 -0.011754 0 2650 
168 1 -0.0104013 0.00448915 0.00409633 0.000233 0.010374 0.000533782 0.0120746 2650 
226 1 -0.00475482 0.0199428 0.00350912 0.000847 0.00503538 0.0348535 0.0122627 2650 
222 1 -0.00894352 0.029818 0.00330295 0.000233 -0.0191158 0.00902985 0.033076 2650 
262 1 -0.014496 0.0473776 0.00409774 8.4e-05 -0.00568771 0.047836 0.0275692 2650 
451 1 -0.0114455 0.00768234 0.0062843 0.000847 0.0101382 0.00361366 0.00843172 2650 
29 1 -0.00432562 0.0147525 0.00606776 0.001312 0.00949452 0.0217713 0.0254281 2650 
214 1 -0.0116384 0.0212548 0.00555981 0.000847 0.0140272 0.0148951 0.00243728 2650 
299 1 -0.00318893 0.0243055 0.0056186 0.000233 -0.0415925 0.0521106 0.00250536 2650 
387 1 -0.00413574 0.00131579 0.00697276 0.000233 -0.118565 0.0878184 -0.00512403 2650 
291 1 -0.00137615 0.00789343 0.00733215 0.000847 0.000368443 -0.000878557 -0.00367841 2650 
413 1 -0.00579441 0.023866 0.00724377 0.000233 0.0212736 0.0189692 -0.00433326 2650 
80 1 -0.00334246 0.0284238 0.00765485 8.4e-05 -0.0125032 0.0188644 0.0118682 2650 
511 1 -0.0143457 0.0407743 0.00703059 0.000847 0.00146079 0.0210985 -0.0127999 2650 
518 1 -0.0129292 0.00279152 0.0101281 0.000233 -0.00455624 0.0103112 -0.00628034 2650 
457 1 -0.0045311 0.0209641 0.00969678 8.4e-05 0.00209197 0.0125772 -0.0227291 2650 
63 1 -0.0046229 0.0537565 0.0106537 0.000233 0.00544067 0.0487134 -0.0167697 2650 
464 1 -0.00751708 0.00648138 0.0121458 0.000233 0.0566479 0.0284979 0.044719 2650 
437 1 -0.0064923 0.0684949 0.0114431 0.000847 -0.00719255 0.0835002 -0.0252935 2650 
164 1 -0.00854859 0.00178882 0.0127861 0.000847 0.00171122 0.000309802 0.036423 2650 
112 1 -0.00888608 0.0130806 0.0133421 0.000847 0.0214954 0.016828 -0.00423595 2650 
390 1 -0.00133761 0.0127681 0.013457 0.000233 -0.00350245 0.00582576 -0.00125219 2650 
135 1 -0.00855245 0.0171627 0.0127981 0.000847 0.0322851 0.0519221 0.0188134 2650 
79 1 -0.00893481 0.0249042 0.0127041 0.000233 0.000840897 0.0441412 0.0394647 2650 
388 1 -0.00714834 0.0240085 0.015055 0.000233 0.0593272 0.000985626 0.0312328 2650 
319 1 -0.00326128 0.0865156 0.0108515 0.000847 0.00321502 0.103152 0.00477754 2650 
335 1 0.0993063 -0.0288042 -0.109572 0.000233 2.57234 0.158048 -9.93323 2650 
249 1 0.0611983 -0.00485995 -0.0316797 8.4e-05 -3.57739 0.0784218 -6.81824 2650 
324 1 0.00824239 -0.00459011 -0.0682699 0.000233 -7.29346 -0.136162 -0.903269 2650 
496 1 0.0100386 -0.00151144 -0.0681778 8.4e-05 -8.10476 -0.306083 -1.19862 2650 
429 1 0.0106592 -0.00869259 -0.0679427 0.000233 -8.44336 -0.186158 -1.33413 2650 
180 1 0.0184667 -0.0147095 -0.0662555 0.000233 -7.80773 0.0563045 -2.17129 2650 
61 1 0.0238635 -0.0160413 -0.0638505 0.000847 -8.26879 -0.0114893 -3.08875 2650 
49 1 0.0254266 -0.00749936 -0.0638948 0.000233 -4.96031 -0.257375 -1.96854 2650 
468 1 0.0238308 -0.00485675 -0.0645045 0.000233 -6.6222 0.286199 -2.4368 2650 
358 1 0.0253934 -0.0543358 -0.0632528 0.000847 -9.92679 -0.0441001 -3.98516 2650 
306 1 0.0280154 -0.0301212 -0.0621311 0.000847 -7.77115 -0.0806106 -3.47497 2650 
142 1 0.0283667 -0.0118351 -0.0626448 0.000233 -7.88002 -0.16303 -3.5557 2650 
487 1 0.0294168 -0.0312314 -0.0614828 0.000847 -7.71181 -0.237819 -3.66172 2650 
28 1 0.0327029 -0.00467502 -0.0606604 8.4e-05 -6.94744 -0.128569 -3.73358 2650 
114 1 0.0391088 -0.017543 -0.0565636 0.000233 -7.11282 -0.0741758 -4.92637 2650 
378 1 0.042204 -0.034952 -0.0542877 0.000233 -8.15157 -0.18215 -6.33942 2650 
56 1 0.0398617 -0.0254559 -0.0547109 0.001312 -5.11701 0.118338 -3.64197 2650 
74 1 0.0409984 -0.0210591 -0.0544492 0.000847 -5.0319 0.167652 -3.80552 2650 
401 1 0.0426781 -0.0546244 -0.0539178 0.000233 -7.99728 -0.318025 -6.33692 2650 
410 1 0.0448813 -0.0618434 -0.0512943 0.000847 -7.93414 -0.0133411 -6.94337 2650 
364 1 0.0452919 -0.0176588 -0.0517592 0.000233 -4.36803 0.883154 -3.81543 2650 
436 1 0.0483077 -0.0618029 -0.0480797 0.000847 -7.41158 0.00531835 -7.44715 2650 
70 1 0.0481166 -0.0218925 -0.0482802 0.000847 -6.94536 -0.0560561 -6.97949 2650 
117 1 0.0483904 -0.0164616 -0.0488782 0.000233 -6.23378 0.154862 -6.18131 2650 
81 1 0.0483266 -0.0338363 -0.0474038 0.001312 -6.59696 -0.292861 -6.74241 2650 
243 1 0.0516704 -0.0618124 -0.0444461 0.000847 -6.81231 -0.0169598 -7.92009 2650 
492 1 0.0525203 -0.017706 -0.0444119 0.000233 -6.16371 -0.261814 -7.28748 2650 
271 1 0.0563657 -0.00330871 -0.0393855 0.000233 -4.01021 0.113616 -5.77133 2650 
216 1 0.0587862 -0.0140756 -0.0344877 0.000847 -3.97937 1.01304 -6.76969 2650 
51 1 0.0628266 -0.00122483 -0.0279589 0.000233 -2.23846 0.242825 -4.89829 2650 
157 1 0.0636574 -0.0452819 -0.0260092 0.000233 -3.75659 0.956285 -9.20457 2650 
119 1 0.0641512 -0.0390238 -0.0251741 8.4e-05 -2.95972 -0.662311 -7.5359 2650 
67 1 0.0655688 -0.0123186 -0.0212081 8.4e-05 -2.51269 0.0697953 -7.76868 2650 
130 1 0.065399 -0.00721188 -0.0212521 0.000233 -2.70215 -0.147269 -8.29191 2650 
210 1 0.00398179 -0.000522791 -0.0161768 8.4e-05 -0.0101555 -0.00697022 -0.00276126 2650 
366 1 0.005681 -0.00168002 -0.015538 8.4e-05 0 -0.011754 0 2650 
395 1 0.00136363 -0.00116425 -0.0148819 0.000847 0.00509824 -0.00223179 0.00216209 2650 
397 1 0.0667219 -0.0276269 -0.013905 0.000847 -2.08995 -0.068691 -9.95496 2650 
139 1 0.00695563 -0.00129681 -0.0139593 0.000847 0.00115243 -0.00773472 0.00358594 2650 
160 1 0.0666145 -0.0253426 -0.0120438 0.001312 -1.80673 0.0755133 -9.98869 2650 
233 1 0.0677722 -0.0179552 -0.0117058 0.000233 -1.90433 -0.224562 -11.0214 2650 
12 1 0.0112022 -0.00164226 -0.011566 0.000233 0.00873092 -0.0095669 0.00190822 2650 
224 1 0.00160911 -0.00142357 -0.0125245 0.001312 0.00440762 -0.00590734 0.000702176 2650 
207 1 0.0121959 -0.000294542 -0.0112898 0.000233 0.0138254 -0.0101106 0.0220109 2650 
336 1 0.00303323 -2.35371e-05 -0.0102166 0.000233 0.00789915 -0.00106843 0.00245482 2650 
24 1 0.0681752 -0.0163925 -0.009087 0.000233 -1.10946 -0.189385 -8.30383 2650 
477 1 0.0680977 -0.0134171 -0.00964749 0.000233 -1.18205 0.195914 -8.304 2650 
146 1 0.00411129 -0.00304827 -0.00852934 0.001312 0.00673703 -0.0102174 0.00415946 2650 
154 1 0.012406 -0.00202902 -0.008801 0.000233 0 -0.011754 0 2650 
124 1 0.0676842 -0.0556656 -0.0080146 0.000847 -1.26488 -0.0519659 -10.7409 2650 
405 1 0.00247875 -0.000917164 -0.00715835 8.4e-05 0.0025106 -0.0076758 0.00495174 2650 
480 1 0.068346 -0.000256882 -0.00759379 0.000233 -0.815471 -0.00297938 -7.39634 2650 
138 1 0.0679292 -0.0465125 -0.00572891 0.000847 -0.918143 0.100142 -10.8625 2650 
323 1 0.0686373 -0.051465 -0.00438569 0.000233 -0.691777 -0.250241 -10.8132 2650 
362 1 0.0686274 -0.0330243 -0.0043458 0.000233 -0.624103 -0.106662 -9.70095 2650 
111 1 0.0679753 -0.0233312 -0.00501148 0.000847 -0.732788 -0.0853358 -9.96498 2650 
105 1 0.00021 -0.000152019 -0.003991 0.000233 0 -0.011754 0 2650 
292 1 0.007808 -5.30188e-05 -0.004111 0.000847 0 -0.011754 0 2650 
447 1 0.0681216 -0.0206159 -0.00245228 0.000847 -0.358209 0.249093 -10.0049 2650 
353 1 0.00306799 -0.00264799 -0.00250942 8.4e-05 0.0015345 -0.00573097 -0.0125122 2650 
426 1 0.00576091 -0.00279077 -0.00169098 0.000233 -0.00184642 -0.0123346 -0.0119623 2650 
265 1 0.00597239 -0.000677821 -9.12649e-05 0.000847 -0.00161831 -0.00717065 -0.0105314 2650 
424 1 0.0681648 -0.0521127 0.000378536 0.000847 0.0596069 0.101447 -10.6544 2650 
50 1 0.0106678 -0.00277349 0.00119887 0.000233 -0.00122274 -0.00865396 -0.00164665 2650 
294 1 0.0681651 -0.0489638 0.000980529 0.000847 0.151027 -0.0239516 -10.4836 2650 
18 1 0.0681323 -0.0283298 0.00169207 0.000847 0.275429 -0.0442776 -9.96348 2650 
101 1 0.0687574 -0.0159401 0.00186448 0.000233 0.234322 0.0972902 -8.63912 2650 
490 1 0.0687682 -0.0128061 0.00131963 0.000233 0.186566 -0.66158 -9.72686 2650 
382 1 0.0681137 -0.0490727 0.00279865 0.000847 0.433333 -0.0373547 -10.4393 2650 
343 1 0.0681172 -0.0162108 0.00270567 0.000847 0.356174 0.0244788 -8.56138 2650 
456 1 0.009608 -0.00318702 0.003179 0.000233 0 -0.011754 0 2650 
35 1 0.00815856 -0.000164425 0.004017 0.000847 -0.0121953 -9.57773e-05 0.00420749 2650 
261 1 0.000382 -0.000552019 0.006142 0.000233 0 -0.011754 0 2650 
340 1 0.068548 -0.0411705 0.00717471 8.4e-05 1.15346 0.0188846 -11.009 2650 
104 1 0.002239 -0.00125702 0.008255 0.000233 0 -0.011754 0 2650 
460 1 0.0675326 -0.0471244 0.00929761 0.000847 1.47407 0.0764737 -10.7079 2650 
252 1 0.00309654 -0.00184065 0.0102016 0.000847 0.0920717 0.0375015 0.0812927 2650 
428 1 0.0129512 -0.00310379 0.0105311 0.000233 -0.00478684 -0.00307176 0.00174953 2650 
93 1 0.0681033 -8.40048e-05 0.0105503 8.4e-05 1.12462 -0.0032398 -7.2341 2650 
341 1 0.0667676 -0.0593897 0.0111555 0.001312 1.74703 0.0179264 -10.4561 2650 
334 1 0.0673244 -0.0503732 0.0106717 0.000847 1.66076 -0.0259428 -10.4806 2650 
162 1 0.0668346 -0.049841 0.0133818 0.000847 2.09206 0.0103521 -10.452 2650 
127 1 0.0676117 -0.0370847 0.0125372 0.000233 1.86854 -0.0380101 -10.0861 2650 
123 1 0.0668228 -0.025136 0.0134157 0.000847 1.98711 -0.0119547 -9.87364 2650 
239 1 0.0667563 -0.0515145 0.0137383 0.000847 2.16022 -0.0347576 -10.4952 2650 
521 1 0.0673712 -0.0177103 0.014433 8.4e-05 1.43517 -0.303164 -7.07276 2650 
176 1 0.00371137 -0.00160786 0.0142877 0.000847 0.00761816 -0.00329714 -0.00812013 2650 
11 1 0.00511634 -0.00269485 0.0157359 0.000233 -0.030041 -0.00463477 0.00801673 2650 
281 1 0.066335 -0.0264072 0.0156444 0.000847 2.29572 -0.137025 -9.76006 2650 
54 1 0.0363924 -0.00661218 0.0168803 8.4e-05 5.18086 -0.353972 2.42861 2650 
256 1 0.0651446 -0.0127413 0.0197739 0.000847 1.2746 -0.244172 -4.07648 2650 
375 1 0.00614711 -0.00472611 0.0257264 0.000233 0.876405 -0.368194 3.68006 2650 
236 1 0.063603 -0.0144595 0.0265313 8.4e-05 3.176 0.147153 -7.60664 2650 
431 1 0.0569472 -0.0178112 0.0388334 8.4e-05 5.63297 0.425204 -8.26079 2650 
498 1 0.0545949 -0.0362286 0.0408014 0.000847 5.93617 -0.0441721 -7.94732 2650 
473 1 0.0521435 -0.0511351 0.0439095 0.000847 7.02283 0.00742198 -8.33842 2650 
411 1 0.0516725 -0.0364706 0.0444416 0.000847 6.63728 -0.0808091 -7.65925 2650 
148 1 0.0475784 -0.0454697 0.0488196 0.000847 7.64973 -0.042374 -7.45385 2650 
264 1 0.046004 -0.0536139 0.0502945 0.000847 7.96756 0.0158123 -7.28836 2650 
167 1 0.0468948 -0.0423094 0.0503082 0.000233 8.08534 0.0143544 -7.53712 2650 
47 1 0.0430181 -0.0399036 0.0528607 0.000847 7.99939 0.0135661 -6.50926 2650 
488 1 0.0440787 -0.0409178 0.05199 0.000847 7.94623 0.111204 -6.74278 2650 
290 1 0.0421782 -0.042451 0.0535417 0.000847 8.37622 0.0071939 -6.59802 2650 
396 1 0.041719 -0.0387539 0.0538956 0.000847 8.54728 -0.319311 -6.61663 2650 
491 1 0.0423041 -0.0308317 0.0542184 0.000233 7.5245 -0.355322 -5.89014 2650 
360 1 0.0395462 -0.0375419 0.0555063 0.000847 8.82668 0.240087 -6.28983 2650 
269 1 0.0385151 -0.0360055 0.0562208 0.000847 8.83591 0.105138 -6.05281 2650 
116 1 0.0394019 -0.0101911 0.0563608 0.000233 4.63024 -0.316691 -3.28036 2650 