ITEM: TIMESTEP
23615319
ITEM: NUMBER OF ATOMS
466
ITEM: BOX BOUNDS ff ff ff
-0.15 0.15
-0.15 0.15
-0.15 0.15
ITEM: ATOMS id type x y z radius vx vy vz density 
166 1 -0.00443696 -0.0508701 -0.0686342 0.000233 -10.7738 -0.0361878 0.696604 2650 
421 1 -0.00415741 -0.0499749 -0.0680418 0.000847 -10.7024 -0.00219245 0.653964 2650 
449 1 -0.00523575 -0.0486677 -0.0679697 0.000847 -10.6767 0.0147001 0.82239 2650 
308 1 -0.00364573 -0.048092 -0.0680726 0.000847 -10.679 -0.0243093 0.572593 2650 
122 1 -0.00217246 -0.0494201 -0.0681333 0.000847 -10.702 0.000655958 0.341228 2650 
100 1 -0.00186088 -0.0463862 -0.068143 0.000847 -10.7105 -0.0115811 0.292712 2650 
150 1 -0.000847455 -0.0477823 -0.0681623 0.000847 -10.7151 -0.014917 0.132921 2650 
488 1 -0.00368046 -0.0434407 -0.0680697 0.000847 -10.6341 -0.112154 0.574947 2650 
298 1 -0.00384025 -0.0373227 -0.0686611 0.000233 -11.0565 0.106461 0.618501 2650 
173 1 -0.0105762 -0.0507698 -0.0668765 0.001312 -10.5636 0.0926736 1.66639 2650 
500 1 -0.00693652 -0.0499605 -0.0678163 0.000847 -10.6345 -0.0441657 1.08788 2650 
269 1 -0.0086884 -0.0471669 -0.0676158 0.000847 -10.6732 -0.0243909 1.37013 2650 
157 1 -0.0122298 -0.0442906 -0.0676845 0.000233 -10.1054 0.193086 1.82607 2650 
487 1 -0.0135239 -0.0343507 -0.0667985 0.000847 -10.4893 -0.0100168 2.12386 2650 
466 1 -0.0167942 -0.0112339 -0.0666949 0.000233 -7.66103 0.276936 1.94168 2650 
415 1 -0.018482 -0.0463852 -0.0662508 0.000233 -10.3069 -0.0219139 2.87582 2650 
127 1 -0.023375 -0.0394981 -0.0646757 0.000233 -9.93152 0.0843553 3.58869 2650 
303 1 -0.0191042 -0.0337547 -0.065422 0.000847 -10.0476 -0.0638335 2.93363 2650 
350 1 -0.0239162 -0.0521395 -0.0644798 0.000233 -10.3783 0.0213917 3.84888 2650 
60 1 -0.0230137 -0.0356756 -0.0641526 0.000847 -9.9232 -0.270375 3.56195 2650 
411 1 -0.0285031 -0.0387903 -0.0619103 0.000847 -9.56248 -0.23606 4.39409 2650 
479 1 -0.0340883 -0.0110638 -0.059723 0.000233 -7.459 -0.0301132 4.2492 2650 
32 1 -0.0377367 -0.0374916 -0.0567508 0.000847 -8.91548 -0.0830239 5.92979 2650 
302 1 -0.0389155 -0.0392269 -0.0553899 0.001312 -8.79146 -0.106802 6.17925 2650 
360 1 -0.0380291 -0.0341503 -0.0565592 0.000847 -8.85477 -0.00595112 5.9531 2650 
118 1 -0.0394944 -0.0236691 -0.0562938 0.000233 -7.8028 -0.0345999 5.47902 2650 
290 1 -0.0414656 -0.0464484 -0.0540922 0.000847 -8.49621 9.70501e-05 6.51298 2650 
47 1 -0.041897 -0.0448429 -0.053767 0.000847 -8.45891 -0.000776998 6.56636 2650 
81 1 -0.039311 -0.0360886 -0.0551108 0.001312 -8.71141 0.0252598 6.16585 2650 
256 1 -0.0434095 -0.0209852 -0.0525519 0.000847 -7.60982 0.0469863 6.2842 2650 
264 1 -0.0454159 -0.0560332 -0.0508227 0.000847 -7.98311 0.000340201 7.13381 2650 
378 1 -0.0463614 -0.0396977 -0.0507867 0.000233 -7.89193 -0.266895 7.20139 2650 
219 1 -0.0459001 -0.0261783 -0.0512047 0.000233 -6.41687 -0.0794328 5.73944 2650 
446 1 -0.0450906 -0.0169332 -0.0511222 0.000847 -6.58201 0.447015 5.77755 2650 
148 1 -0.0474251 -0.0464972 -0.0489715 0.000847 -7.69189 -0.00345863 7.44907 2650 
89 1 -0.0483014 -0.0298047 -0.0489458 0.000233 -7.27692 1.05049 7.17977 2650 
396 1 -0.0492613 -0.0490776 -0.0471222 0.000847 -7.24253 0.022901 7.5713 2650 
507 1 -0.0531761 -0.0382475 -0.0436055 0.000233 -6.19874 0.244753 7.5576 2650 
65 1 -0.0536828 -0.00740413 -0.0429824 0.000233 -5.63845 0.524958 7.05025 2650 
167 1 -0.0554115 -0.0427503 -0.040744 0.000233 -6.44301 0.0657024 8.7623 2650 
205 1 -0.0567577 -0.0216684 -0.0388366 0.000233 -5.1244 0.0769581 7.48992 2650 
366 1 -0.0569992 -0.00941724 -0.0387491 8.4e-05 -3.94648 0.100161 5.78392 2650 
338 1 -0.0575869 -0.0441313 -0.0376055 0.000233 -6.07605 0.114991 9.30577 2650 
67 1 -0.0579547 -0.0114327 -0.0373098 8.4e-05 -4.13107 -0.405312 6.43979 2650 
271 1 -0.0575467 -0.004692 -0.0376446 0.000233 -4.9923 0.217667 7.63836 2650 
473 1 -0.0585422 -0.0502421 -0.0349203 0.000847 -5.50468 0.0460834 9.2281 2650 
522 1 -0.0599049 -0.00539981 -0.0340688 8.4e-05 -3.99389 0.191636 7.01427 2650 
114 1 -0.0628181 -0.0270658 -0.0279758 0.000233 -3.97815 0.0418269 8.92916 2650 
53 1 -0.0660159 -0.008792 -0.0190581 0.000233 -2.44109 -0.0174863 8.5516 2650 
9 1 -0.0668172 -0.0268489 -0.0162394 0.000233 -2.08827 -0.0204055 8.59052 2650 
239 1 -0.0665257 -0.0594479 -0.0148098 0.000847 -2.31667 0.0365318 10.4041 2650 
323 1 -0.0674257 -0.052017 -0.0135207 0.000233 -2.12195 0.109612 10.577 2650 
162 1 -0.0669023 -0.0509116 -0.0130462 0.000847 -2.04607 -0.0185733 10.4926 2650 
469 1 -0.00874282 -0.000406136 -0.0131242 0.000233 0.0278279 0.00160796 -0.0228433 2650 
341 1 -0.0666931 -0.059285 -0.0116032 0.001312 -1.82255 -0.00101209 10.4758 2650 
294 1 -0.0672792 -0.0527163 -0.0109375 0.000847 -1.7206 0.017257 10.5824 2650 
151 1 -0.0671142 -0.026281 -0.0118683 0.000847 -1.55334 -0.277147 8.8273 2650 
483 1 -0.0677909 -0.00849596 -0.0123544 8.4e-05 -1.58281 -0.261213 8.74631 2650 
384 1 -0.00966953 -0.00112096 -0.0126021 0.000847 0.0271937 -0.000382934 -0.0231699 2650 
392 1 -0.00802428 -0.000297052 -0.0115882 8.4e-05 -0.00068915 -0.00349539 -0.00139054 2650 
340 1 -0.0682378 -0.0440007 -0.00970185 8.4e-05 -1.48902 -0.255747 10.4674 2650 
334 1 -0.067556 -0.0554177 -0.00904789 0.000847 -1.4149 -0.00365048 10.5646 2650 
24 1 -0.0682237 -0.0205762 -0.00867262 0.000233 -1.22389 0.0785415 9.69294 2650 
45 1 -0.0104371 -0.00166908 -0.00913979 0.000847 0.0155993 -0.0174413 -0.0529627 2650 
460 1 -0.0678913 -0.0491681 -0.00616323 0.000847 -0.964641 -0.00439985 10.6154 2650 
133 1 -0.0039766 -0.00102017 -0.00567266 0.001312 -0.0021989 -0.00307358 0.00294343 2650 
183 1 -0.0687321 -0.016692 -0.00262066 0.000233 -0.344067 -0.00767561 9.00999 2650 
202 1 -0.00136678 -0.000975321 -0.00245727 0.000847 -0.000325259 -0.00498031 0.00775896 2650 
277 1 -0.0133361 -0.00129023 -0.000978494 0.000847 0.00338805 0.00569524 -0.0266496 2650 
138 1 -0.0681623 -0.049296 0.00113806 0.000847 0.17911 -0.0669925 10.7306 2650 
136 1 -0.0681528 -0.0327789 0.000586777 0.000847 0.0857991 -0.417071 10.1148 2650 
424 1 -0.0681373 -0.051969 0.00201724 0.000847 0.316856 0.000582893 10.703 2650 
216 1 -0.0681214 -0.0319254 0.00217547 0.000847 0.326689 -0.340833 10.1227 2650 
292 1 -0.0680943 -0.0299031 0.00288982 0.000847 0.39782 -0.021091 9.91818 2650 
462 1 -0.0157872 -0.0025086 0.0017859 0.000847 -0.000259904 -0.00453423 -0.0122608 2650 
39 1 -0.00018205 -0.000628402 0.00176056 0.000233 -0.0126184 -0.00557583 0.0065332 2650 
343 1 -0.068013 -0.0105531 0.00458661 0.000847 0.625405 0.0251247 9.22486 2650 
244 1 -0.0685998 -0.00362596 0.00474466 0.000233 0.628557 -0.0345481 9.01794 2650 
509 1 -0.0688308 -0.000345729 0.00340296 8.4e-05 0.431346 -0.0992523 8.86197 2650 
382 1 -0.0678263 -0.050435 0.00682414 0.000847 1.07469 0.0036813 10.6817 2650 
361 1 -0.068372 -0.0215488 0.00742685 0.000233 1.06031 -0.0663085 9.85556 2650 
447 1 -0.0677517 -0.0205944 0.00748381 0.000847 1.07892 -0.0737816 9.86327 2650 
124 1 -0.0672493 -0.0565732 0.0110909 0.000847 1.74217 -0.000215 10.5636 2650 
96 1 -0.067404 -0.0387279 0.0101241 0.000847 1.59073 -0.078062 10.5905 2650 
105 1 -0.0678628 -0.0296906 0.011097 0.000233 1.49318 2.11946 9.10949 2650 
129 1 -0.0676032 -0.014155 0.012645 0.000233 1.78038 0.0696302 9.52778 2650 
74 1 -0.0659683 -0.0332434 0.0171308 0.000847 2.58438 -0.0459981 9.98669 2650 
401 1 -0.0662303 -0.0484222 0.0185023 0.000233 2.89135 -0.157813 10.353 2650 
423 1 -0.0651707 -0.0377749 0.0199484 0.000847 2.97816 -0.0604611 9.73126 2650 
56 1 -0.0648844 -0.0357337 0.0193067 0.001312 2.86818 -0.0713568 9.64673 2650 
174 1 -0.0641281 -0.0304315 0.0230834 0.000847 3.51269 0.0263015 9.75534 2650 
125 1 -0.0631402 -0.041959 0.0256601 0.000847 3.69244 0.258507 9.0324 2650 
459 1 -0.0628371 -0.0240301 0.0263471 0.000847 4.01704 -0.705144 9.57864 2650 
243 1 -0.0616317 -0.0617821 0.0291031 0.000847 4.57163 0.00454007 9.68153 2650 
274 1 -0.06199 -0.00658216 0.0297533 0.000233 3.61887 0.141581 7.63094 2650 
436 1 -0.060704 -0.0618663 0.0309912 0.000847 4.86774 0.00218389 9.53467 2650 
454 1 -0.0609097 -0.0290982 0.0319165 0.000233 4.91888 -1.24057 9.39264 2650 
521 1 -0.0590658 -0.00876867 0.0355007 8.4e-05 4.06187 -0.0332254 6.72324 2650 
410 1 -0.0557153 -0.0618523 0.0392579 0.000847 6.15527 0.0115412 8.73601 2650 
312 1 -0.0567212 -0.0273119 0.0388746 0.000233 5.56698 -0.0742012 8.12125 2650 
116 1 -0.0398287 -0.0125014 0.0560607 0.000233 7.13005 0.11082 5.0613 2650 
224 1 -0.0346628 -0.0316638 0.0581373 0.001312 5.85235 -0.603132 3.46627 2650 
140 1 -0.0376994 -0.0243807 0.0575108 0.000233 8.34842 0.00385129 5.4773 2650 
259 1 -0.035321 -0.036934 0.0589915 0.000233 9.27059 0.0627293 5.55083 2650 
248 1 -0.0350227 -0.0144519 0.0591797 0.000233 8.04749 0.652683 4.75526 2650 
402 1 -0.03509 -0.0111363 0.0591397 0.000233 8.09736 0.493929 4.80912 2650 
429 1 -0.0344775 -0.00820612 0.0594998 0.000233 6.79813 -0.0716159 3.94774 2650 
242 1 -0.0290868 -0.0227524 0.0616381 0.000847 8.01484 0.128616 3.77638 2650 
180 1 -0.0314145 -0.0172643 0.06117 0.000233 7.94553 -0.0948822 4.08494 2650 
11 1 -0.0333658 -0.0108832 0.0601287 0.000233 7.61699 -0.0888622 4.23837 2650 
61 1 -0.0286592 -0.0247047 0.0618379 0.000847 8.86102 -0.172604 4.08855 2650 
69 1 -0.0278046 -0.0207415 0.0617222 0.001312 7.70091 0.548585 3.43065 2650 
358 1 -0.0254076 -0.0543661 0.0632469 0.000847 9.93472 2.24938e-05 3.99099 2650 
249 1 -0.0259951 -0.0341237 0.0638221 8.4e-05 9.01798 0.637313 3.66953 2650 
393 1 -0.0197983 -0.0310796 0.0647456 0.001312 9.8036 0.213261 3.00767 2650 
307 1 -0.0254684 -0.0187127 0.0632249 0.000847 8.93225 0.0576732 3.59606 2650 
93 1 -0.0272396 -8.44326e-05 0.0633029 8.4e-05 7.34131 0.000823406 3.14839 2650 
95 1 -0.014739 -0.0199434 0.066084 0.001312 9.50339 -0.0155228 2.11912 2650 
284 1 -0.0190355 -0.0186643 0.0660922 0.000233 9.26071 -0.134336 2.67321 2650 
49 1 -0.0200876 -0.0141273 0.0657808 0.000233 7.77144 0.0163355 2.37661 2650 
490 1 -0.0191804 -0.0136136 0.0660516 0.000233 9.71824 -0.123938 2.82028 2650 
492 1 -0.0157354 -0.0243256 0.0669439 0.000233 9.60358 -0.168667 2.26188 2650 
54 1 -0.0165163 -0.021382 0.0669126 8.4e-05 9.35599 0.0831226 2.30517 2650 
90 1 -0.0036703 -0.0338947 0.0686659 0.000233 10.0074 0.790257 0.538735 2650 
142 1 -0.00102797 -0.0152288 0.0687677 0.000233 8.66338 -0.0981901 0.145606 2650 
36 1 8.48057e-05 -0.00705879 0.0687687 0.000233 10.4055 -0.477682 -0.0158869 2650 
212 1 -0.000689177 0.00256243 -0.0149159 0.001312 -0.000378321 -0.00288226 -0.00336117 2650 
68 1 -0.00288165 0.00673886 -0.0147271 0.001312 0.00656765 0.00723405 -0.0034973 2650 
357 1 -0.00486995 0.0117097 -0.0149371 0.000847 -0.00356262 0.00740695 0.00116372 2650 
399 1 -0.00577988 0.0232186 -0.0148999 0.000847 0.0145811 0.0154461 -0.00307587 2650 
266 1 -0.00411863 0.000547223 -0.0132284 0.000847 -0.00164881 -0.00742592 -0.00189738 2650 
412 1 -4.90141e-05 0.000342688 -0.0141875 0.000847 -0.00361608 -0.00480485 -0.000872785 2650 
439 1 -0.00950156 0.0104777 -0.0129457 0.000233 0.0228492 0.00607655 0.00357595 2650 
501 1 -0.00574085 0.00996201 -0.0139284 0.000847 0.00271066 0.00783714 0.00249064 2650 
309 1 -0.00958496 0.0163135 -0.0133999 0.000233 -0.0123102 0.020136 -0.0038176 2650 
16 1 -0.00568696 0.0534063 -0.0134316 0.001312 -0.00372561 0.0412357 0.00325068 2650 
444 1 -0.00871778 0.00804203 -0.0120719 8.4e-05 -0.00260039 0.00547496 0.00633282 2650 
386 1 -0.00669366 0.0112898 -0.0111057 0.000847 -0.00685813 0.0101085 -0.000664392 2650 
76 1 -0.00789959 0.0160845 -0.0119601 0.000233 -0.00578221 0.011958 0.00483197 2650 
115 1 -0.0102301 0.0181343 -0.0116055 0.000233 0.00203478 0.00995688 0.00306778 2650 
30 1 -0.00669302 0.0339357 -0.0120784 0.001312 -0.0222447 0.0408615 0.0185442 2650 
359 1 -0.00516368 0.045997 -0.012256 0.000847 -0.0105408 0.0538414 0.0225509 2650 
2 1 -0.00470264 0.00795132 -0.0107747 0.001312 0.00400868 0.00487374 0.00130235 2650 
282 1 -0.0121212 0.0102596 -0.0104157 0.000847 -0.00822499 0.0108293 0.0093945 2650 
471 1 -0.0114829 0.0128898 -0.00981824 0.001312 0.0142077 0.0144874 0.0114805 2650 
377 1 -0.00563786 0.0525553 -0.0105552 0.000233 -0.00308755 0.0650231 0.0279133 2650 
22 1 -0.0124542 0.0005129 -0.00841074 0.000233 0.0270396 -0.0493052 0.00724531 2650 
348 1 -0.0124291 0.00478466 -0.00800256 0.000233 -0.00855875 -0.000417391 0.0118261 2650 
225 1 -0.00488795 0.0111716 -0.00910256 0.001312 -0.00239701 0.00874648 -0.00124216 2650 
273 1 -0.00441259 0.0269837 -0.00904177 0.000233 -0.00788291 0.0124072 0.00594868 2650 
15 1 -0.00816994 0.0357275 -0.0086631 0.001312 -0.00235194 0.0225075 0.0056031 2650 
147 1 -0.00682484 0.00260739 -0.0069031 0.001312 -0.00155224 -0.00287693 0.000873515 2650 
94 1 -0.0120085 0.00931078 -0.00700001 0.001312 -0.0121466 0.00450737 0.00515639 2650 
178 1 -0.0105431 0.0239612 -0.0073174 0.000847 -0.00942264 0.0138974 -0.0144999 2650 
387 1 -0.0042917 0.0292206 -0.00681485 0.000233 0.0389518 0.0686426 -0.046664 2650 
91 1 -0.0140943 0.0324422 -0.00676832 0.000233 -0.011194 0.0308527 0.0129891 2650 
31 1 -0.00549679 0.0600803 -0.00749767 0.000847 0.0128996 0.0556905 -0.00624527 2650 
502 1 -0.0151159 0.024522 -0.00514125 0.000847 -0.000230871 0.00792682 0.00455104 2650 
37 1 -0.0156974 0.0277054 -0.00564732 0.000233 -0.00484254 0.023938 0.0169692 2650 
177 1 -0.0146817 0.0282289 -0.00576595 0.000847 0.000491789 0.0190805 0.0121629 2650 
331 1 -0.00356996 0.0361595 -0.00516447 0.000847 0.00840645 0.0232594 0.00867855 2650 
77 1 -0.00906778 0.0435377 -0.00530857 0.000233 0.00669575 0.0236814 0.0157679 2650 
66 1 -0.0110262 0.0634027 -0.00574042 0.000233 0.00347261 0.0341619 0.00411013 2650 
407 1 -0.00356416 0.00104953 -0.00404966 0.000847 -0.00271156 -0.00263393 0.00241233 2650 
206 1 -0.000544308 0.000920872 -0.00456519 0.000233 0.000200844 -0.0022057 -0.0101649 2650 
237 1 -0.0138174 0.00190685 -0.00446245 0.001312 -0.00571909 0.0043721 0.00435753 2650 
512 1 -0.0109074 0.00204558 -0.00371453 0.000847 0.00181701 0.00186869 0.0122245 2650 
158 1 -0.0106127 0.00347214 -0.00315828 8.4e-05 0.00188877 -0.00284778 0.00557992 2650 
17 1 -0.0046576 0.00329237 -0.00363829 0.000847 -0.00529384 -0.000624951 0.00099193 2650 
149 1 -0.00545724 0.010723 -0.00352118 0.000847 0.00533574 0.00120564 0.000572163 2650 
373 1 -0.0153335 0.0138298 -0.0043636 0.000847 0.000337109 0.0216316 -0.00631221 2650 
199 1 -0.0148962 0.0280435 -0.00358155 0.001312 0.00216724 0.0161104 0.00517981 2650 
389 1 -0.000488114 0.00948802 -0.00304468 0.000233 -0.00715985 0.00216632 0.0289367 2650 
355 1 -0.0132677 0.00999636 -0.00165154 0.000847 0.00437228 0.0104751 -0.0043935 2650 
198 1 -0.0155069 0.00589256 -0.000744643 0.001312 0.000689044 -0.0014313 0.0125552 2650 
515 1 -0.0133002 0.0119375 -0.000134534 0.000847 0.000192831 0.00432954 -0.00558707 2650 
204 1 -0.0148476 0.0249334 -0.000999709 0.000847 0.00121054 0.0124535 0.0137872 2650 
391 1 -0.0156952 0.0299647 -0.000866301 0.000233 0.00226461 0.0200531 0.0160982 2650 
211 1 -0.00992343 0.0426521 -0.00119667 0.001312 -0.0377898 0.0415283 0.00180384 2650 
121 1 -0.00829231 0.0121819 0.00088133 0.001312 0.0113437 0.00558656 0.00250698 2650 
457 1 -0.00373616 0.0257434 0.00105982 8.4e-05 0.00209197 0.0125772 -0.0227291 2650 
217 1 -0.0142857 0.0417603 7.19801e-05 0.000847 0.00743731 0.032403 0.00336557 2650 
72 1 -0.00317506 0.06973 0.000487211 0.000847 0.00694298 0.0370303 0.0147661 2650 
156 1 -0.00742718 0.0125233 0.00295629 0.000233 0.0117738 0.00676262 0.00472854 2650 
7 1 -0.0106124 0.0336948 0.00209105 0.000847 0.00509742 0.0248497 0.013646 2650 
511 1 -0.0137906 0.0487917 0.00216668 0.000847 0.00146079 0.0210985 -0.0127999 2650 
482 1 -0.0165722 0.0696955 0.00278155 0.000233 -0.00272 0.0425188 0.0154078 2650 
186 1 -0.00749006 0.00428139 0.00425669 0.001312 0.0110093 -0.000918863 0.00524694 2650 
450 1 -0.00360622 0.00322257 0.00385376 0.000847 0.0141697 0.00366662 0.00769839 2650 
467 1 -0.0147376 0.00538417 0.00366406 0.000233 0.00666977 0.00283463 0.00629942 2650 
63 1 -0.00255547 0.0722674 0.00428128 0.000233 0.00544067 0.0487134 -0.0167697 2650 
301 1 -0.00630141 0.00383636 0.00613466 8.4e-05 -0.00542456 -0.000958437 0.00851575 2650 
291 1 -0.00123614 0.00755959 0.00593437 0.000847 0.000368443 -0.000878557 -0.00367841 2650 
5 1 -0.00527536 0.0151402 0.00586257 0.000847 0.0159354 0.00855543 0.0196475 2650 
299 1 -0.0141608 0.0433639 0.00505233 0.000233 0.0153724 0.0433476 -0.0153898 2650 
440 1 -0.00675334 0.0015671 0.00636291 0.000233 0.00893327 0.00123303 0.0100401 2650 
518 1 -0.0146606 0.00670974 0.00774156 0.000233 -0.00455624 0.0103112 -0.00628034 2650 
214 1 -0.00630811 0.0269149 0.00648596 0.000847 0.0140272 0.0148951 0.00243728 2650 
168 1 -0.0064592 0.00469198 0.00868461 0.000233 0.010374 0.000533782 0.0120746 2650 
226 1 -0.00345132 0.0314456 0.00866879 0.000847 0.00127411 0.0241147 0.0153454 2650 
451 1 -0.007593 0.00905552 0.00948832 0.000847 0.0101382 0.00361366 0.00843172 2650 
222 1 -0.00984336 0.0321608 0.0098843 0.000233 0.0205794 0.0022401 -0.00426972 2650 
21 1 -0.00425946 0.0347451 0.010126 0.000847 -0.0069999 0.0351848 0.0278242 2650 
213 1 -0.0116693 0.037472 0.0108438 0.000847 0.0193976 0.00450933 0.0228095 2650 
503 1 -0.00845933 0.0370132 0.0106755 0.000233 0.0275154 0.0239428 0.00958867 2650 
262 1 -0.0107729 0.0649367 0.00985448 8.4e-05 0.016947 0.0454576 0.00941551 2650 
164 1 -0.00135741 0.00206548 0.0120968 0.000847 0.0199672 0.00075341 -0.00413055 2650 
112 1 -0.000717902 0.0194752 0.0117325 0.000847 0.0214954 0.016828 -0.00423595 2650 
80 1 -0.00809362 0.0355922 0.0121647 8.4e-05 -0.0125032 0.0188644 0.0118682 2650 
390 1 -0.00266852 0.0149819 0.0129811 0.000233 -0.00350245 0.00582576 -0.00125219 2650 
153 1 -0.0105699 0.0312906 0.0127482 0.000233 0.0193183 0.0172264 0.0222012 2650 
79 1 -0.000692711 0.0395622 0.0130264 0.000233 0.024023 0.0379512 -0.00347318 2650 
29 1 -0.00129049 0.0234161 0.0150227 0.001312 0.0039704 0.0255386 0.0186034 2650 
510 1 -0.0030029 0.0356271 0.0146767 0.001312 -0.0176331 0.0316852 -0.00746164 2650 
472 1 -0.000295412 0.020785 0.0159543 0.000847 0.00290128 0.0107907 -0.00812892 2650 
139 1 -0.00448157 0.083481 -0.00623224 0.000847 -0.0716308 0.18402 -0.0944552 2650 
437 1 -0.00922544 0.100225 0.0018317 0.000847 -0.00719255 0.0835002 -0.0252935 2650 
319 1 -0.00203959 0.125713 0.0126669 0.000847 0.00321502 0.103152 0.00477754 2650 
305 1 0.00293417 -0.0486757 -0.068098 0.000847 -10.6443 -0.0695898 -0.460121 2650 
253 1 0.000850822 -0.0478111 -0.0681605 0.000847 -10.7064 -0.0246234 -0.133598 2650 
322 1 0.00500604 -0.0380163 -0.0685846 0.000233 -10.9754 -0.15715 -0.801064 2650 
131 1 0.0102975 -0.0307111 -0.067991 0.000233 -10.6858 0.365578 -1.61724 2650 
104 1 0.00395475 -0.0275431 -0.0686523 0.000233 -9.84586 0.0849352 -0.56534 2650 
220 1 0.0105132 -0.0229825 -0.0679573 0.000233 -9.07621 -0.0131726 -1.40333 2650 
111 1 0.00391459 -0.0179944 -0.0680465 0.000847 -9.76556 0.213198 -0.568554 2650 
374 1 0.00227711 -0.0169811 -0.0687347 0.000233 -10.3347 0.974791 -0.318968 2650 
324 1 0.00294559 -0.00510368 -0.0687028 0.000233 -8.50184 0.0306645 -0.366792 2650 
12 1 0.00635489 -0.00563002 -0.0684716 0.000233 -8.27117 -0.00555664 -0.771997 2650 
461 1 0.0105401 -0.048317 -0.0673356 0.000847 -10.5665 0.0325573 -1.65507 2650 
44 1 0.00817266 -0.0438813 -0.0676649 0.000847 -10.6276 0.00825896 -1.28377 2650 
498 1 0.00945607 -0.0387361 -0.0674963 0.000847 -10.7536 -0.0373198 -1.50643 2650 
197 1 0.0196585 -0.0363378 -0.0660409 8.4e-05 -10.3048 -0.11525 -3.06677 2650 
106 1 0.026816 -8.40004e-05 -0.0634841 8.4e-05 -7.74102 8.41676e-05 -3.28478 2650 
346 1 0.0268558 -0.0618437 -0.0626428 0.000847 -9.80838 0.0030617 -4.20485 2650 
28 1 0.0283778 -0.00581324 -0.0628018 8.4e-05 -7.30956 0.0580282 -3.29862 2650 
317 1 0.0357196 -0.0525363 -0.058056 0.000847 -9.20847 0.139752 -5.66562 2650 
409 1 0.0372549 -0.0525462 -0.0570841 0.000847 -9.04972 0.14378 -5.90635 2650 
452 1 0.0395151 -0.0511359 -0.0562926 0.000233 -8.93157 -0.0831142 -6.26911 2650 
159 1 0.0380375 -0.0485354 -0.0560183 0.001312 -8.98294 -0.117406 -6.09932 2650 
470 1 0.0422328 -0.0189422 -0.0544716 8.4e-05 -2.86749 -0.100953 -2.2486 2650 
485 1 0.0431593 -0.0432202 -0.0527631 0.000847 -8.18842 0.0684775 -6.6974 2650 
278 1 0.045107 -0.0617636 -0.0510957 0.000847 -8.02625 9.59278e-05 -7.08552 2650 
369 1 0.0448371 -0.0428822 -0.0513401 0.000847 -8.07437 -0.0311491 -7.05179 2650 
119 1 0.0462245 -0.000256796 -0.0511141 8.4e-05 -5.77082 -0.0331767 -5.24149 2650 
316 1 0.0464528 -0.0618732 -0.0498752 0.000847 -7.8344 9.02191e-05 -7.29681 2650 
420 1 0.0463243 -0.0476933 -0.0500012 0.000847 -7.8594 -0.00254561 -7.28127 2650 
23 1 0.0487139 -0.0624452 -0.0485397 0.000233 -7.62459 -0.000183154 -7.65197 2650 
19 1 0.0486786 -0.0617599 -0.0477057 0.000847 -7.49375 3.66936e-06 -7.64657 2650 
367 1 0.0479077 -0.0565153 -0.0478298 0.001312 -7.44922 -0.0242131 -7.46131 2650 
497 1 0.0474517 -0.0465515 -0.0482868 0.001312 -7.58821 -0.00817152 -7.45675 2650 
33 1 0.0475702 -0.0429714 -0.0488137 0.000847 -7.66193 -0.0357763 -7.46756 2650 
190 1 0.0500376 -0.0618123 -0.0462783 0.000847 -7.26933 6.92962e-05 -7.85983 2650 
20 1 0.050209 -0.0486157 -0.0460891 0.000847 -7.24277 0.000644202 -7.89032 2650 
445 1 0.049284 -0.0418815 -0.046407 0.001312 -7.28064 0.0417603 -7.7332 2650 
78 1 0.0508262 -0.0382113 -0.0463187 0.000233 -7.24839 -0.0443125 -7.95347 2650 
46 1 0.0516392 -0.0474747 -0.0444835 0.000847 -6.98832 -0.0039058 -8.11239 2650 
185 1 0.050065 -0.0395135 -0.0455641 0.001312 -7.19994 0.044647 -7.91325 2650 
18 1 0.0517227 -0.0350455 -0.0443826 0.000847 -6.8834 0.0721316 -8.02141 2650 
458 1 0.0521033 -0.061488 -0.0432231 0.001312 -6.78946 -3.46365e-10 -8.18436 2650 
513 1 0.0532536 -0.0373998 -0.0425135 0.000847 -6.79464 0.145691 -8.51292 2650 
171 1 0.0570742 -0.0469833 -0.0386086 8.4e-05 -6.38133 1.11005 -9.46032 2650 
145 1 0.0587744 -8.40126e-05 -0.0359831 8.4e-05 -3.99888 -0.000266638 -6.54563 2650 
318 1 0.0620003 -0.0493206 -0.0283394 0.000847 -4.45203 -0.00819229 -9.73943 2650 
306 1 0.0628166 -0.0312078 -0.0264505 0.000847 -4.18074 0.185681 -9.9304 2650 
245 1 0.065142 -0.00548274 -0.022029 0.000233 -2.11432 -0.03941 -6.24018 2650 
247 1 0.0664289 -0.0371793 -0.0177794 0.000233 -2.73997 0.771116 -10.2293 2650 
210 1 0.000135423 -0.00318835 -0.0167518 8.4e-05 -0.0100923 -0.00705442 -0.000399252 2650 
304 1 0.0662786 -0.0444614 -0.0159464 0.000847 -2.51954 0.0542889 -10.4766 2650 
356 1 0.000795868 -0.00174995 -0.014554 0.000847 -7.48654e-05 -0.00579622 -0.00143001 2650 
438 1 0.00720832 -0.000763288 -0.0143337 0.000847 -0.0169209 -0.00251284 -0.0025984 2650 
313 1 0.0677815 -0.0276693 -0.011583 0.000233 -1.74786 -0.152393 -10.2083 2650 
265 1 0.0138557 -0.00876197 -0.0113936 0.000847 0.922539 -1.13104 -0.959798 2650 
235 1 0.0678851 -0.0285933 -0.0109603 0.000233 -1.6245 -0.428147 -10.0769 2650 
336 1 0.00603487 -0.000429537 -0.00928378 0.000233 0.00789915 -0.00106843 0.00245482 2650 
8 1 0.00854047 -0.00205985 -0.00448939 0.000233 0.00301488 -0.00587201 -0.00977112 2650 
169 1 0.0686933 -0.0435293 -0.00316388 0.000233 -0.494613 -0.401569 -10.6677 2650 
405 1 0.0688598 -0.0136102 -0.00161158 8.4e-05 -0.243201 0.743052 -10.5819 2650 
381 1 0.068267 -0.0309759 0.000118277 0.000847 0.0185788 -9.48102e-10 -10.7234 2650 
51 1 0.0687663 -0.00854086 4.99864e-05 0.000233 0.00659949 1.24121 -10.0813 2650 
400 1 0.0687455 -0.0186098 0.00165448 0.000233 0.221099 -1.73019 -9.49148 2650 
134 1 0.0675747 -0.0448603 0.00405993 0.001312 0.637727 -0.000476114 -10.6146 2650 
329 1 0.068081 -0.0322752 0.003225 0.000847 0.425568 0.502426 -8.75747 2650 
320 1 0.0679741 -0.0478517 0.00499993 0.000847 0.785607 -0.000965135 -10.6805 2650 
35 1 0.00352439 -0.00020082 0.00561583 0.000847 -0.0121953 -9.57773e-05 0.00420749 2650 
468 1 0.0683737 -0.023682 0.0073508 0.000233 0.976513 0.131773 -9.09595 2650 
92 1 0.0684499 -0.0134963 0.00661453 0.000233 0.867062 -0.30593 -8.96332 2650 
88 1 0.0681473 -0.0357728 0.00920045 0.000233 1.48463 1.10848 -11.0544 2650 
352 1 0.00377203 -0.00216055 0.00928018 0.000233 -0.00581366 -0.00941981 -0.000498216 2650 
252 1 0.00727651 -0.000763159 0.00919794 0.000847 0.000408733 -0.00473082 -0.0109231 2650 
113 1 0.0674211 -0.0505439 0.0100272 0.000847 1.57548 0.000294015 -10.593 2650 
499 1 0.0673833 -0.0282807 0.0102335 0.000847 1.52886 0.00752064 -10.0656 2650 
86 1 0.0122762 -0.00040526 0.0102289 0.000847 -0.0118389 -0.00256384 0.0168813 2650 
176 1 0.00660624 -0.00286077 0.0112021 0.000847 0.00761816 -0.00329714 -0.00812013 2650 
330 1 0.0668684 -0.0490532 0.0132381 0.000847 2.07981 -0.00490348 -10.5062 2650 
433 1 0.0669903 -0.0281847 0.0125493 0.000847 1.87316 -0.000705248 -9.99145 2650 
486 1 0.0665746 -0.0480979 0.0146571 0.000847 2.30261 0.000483998 -10.4588 2650 
315 1 0.0659302 -0.0456118 0.0154242 0.001312 2.42325 -0.00371329 -10.3586 2650 
160 1 0.0661161 -0.0355975 0.0145399 0.001312 2.29204 0.043607 -10.4203 2650 
189 1 0.0659829 -0.0522927 0.0171119 0.000847 2.68793 -0.00500943 -10.3645 2650 
380 1 0.0658627 -0.0498463 0.0157047 0.001312 2.46724 0.000412928 -10.347 2650 
175 1 0.0661257 -0.0437884 0.0165634 0.000847 2.59973 -0.00962621 -10.3794 2650 
258 1 0.0668329 -0.0181974 0.0162427 0.000233 1.64996 -0.0859301 -6.89711 2650 
241 1 0.0658241 -0.0506094 0.0177239 0.000847 2.78458 -0.00100462 -10.3415 2650 
489 1 0.0653973 -0.0487342 0.0192498 0.000847 3.02295 -0.00361559 -10.2701 2650 
463 1 0.0646792 -0.049652 0.0215375 0.000847 3.3833 -0.000266328 -10.1604 2650 
102 1 0.065224 -0.0394475 0.0218008 0.000233 3.34717 0.162778 -10.0181 2650 
311 1 0.0654303 -0.0228098 0.0211728 0.000233 2.76066 0.318217 -8.53967 2650 
84 1 0.0644549 -0.0480497 0.0222038 0.000847 3.48798 0.000215327 -10.1252 2650 
443 1 0.0646781 -0.0250683 0.023358 0.000233 3.4256 0.0492444 -9.48395 2650 
519 1 0.064427 -0.0388652 0.0240555 0.000233 3.741 -0.034588 -10.0256 2650 
397 1 0.0634681 -0.0344012 0.0248353 0.000847 3.83503 0.119316 -9.802 2650 
110 1 0.0635885 -0.0302867 0.0245325 0.000847 3.88093 0.128501 -10.0599 2650 
4 1 0.0633593 -0.0434713 0.025153 0.000847 3.98621 -0.0845309 -10.0363 2650 
288 1 0.0633858 -0.0433242 0.0270801 8.4e-05 4.44671 -0.228298 -10.4126 2650 
10 1 0.062726 -0.000232949 0.0281811 0.000233 3.4616 0.0033911 -7.71343 2650 
281 1 0.0618007 -0.0341767 0.0287329 0.000847 4.4686 0.0658143 -9.61066 2650 
434 1 0.0615955 -0.0308423 0.0291932 0.000847 4.46283 -0.0678156 -9.43006 2650 
428 1 0.0626226 -0.00387159 0.0284094 0.000233 3.21843 -0.3904 -7.10716 2650 
506 1 0.062217 -0.000233001 0.0292875 0.000233 3.60197 -7.83376e-05 -7.64304 2650 
70 1 0.0609781 -0.0298473 0.0304444 0.000847 4.67539 0.0322105 -9.36357 2650 
231 1 0.0603758 -0.0244198 0.0329219 0.000233 4.95025 0.154363 -9.07694 2650 
480 1 0.0610605 -0.000233005 0.0316299 0.000233 3.86601 -0.00512244 -7.48002 2650 
146 1 0.0582492 -0.0261732 0.034496 0.001312 5.15949 0.0794555 -8.71033 2650 
344 1 0.057195 -0.0618757 0.037069 0.000847 5.82428 0.00149727 -8.98639 2650 
208 1 0.0576002 -0.0340058 0.0375573 0.000233 5.98939 0.0625439 -9.18306 2650 
376 1 0.0578905 -0.0306775 0.0371175 0.000233 5.52754 -0.401384 -8.60716 2650 
448 1 0.0566076 -0.0264545 0.0379589 0.000847 5.62907 -0.0123592 -8.40493 2650 
154 1 0.056316 -0.0332391 0.0394572 0.000233 6.3222 0.0858199 -9.02156 2650 
152 1 0.0554239 -0.0312019 0.0396673 0.000847 6.34269 -0.0646355 -8.8669 2650 
50 1 0.0544625 -0.0257799 0.0419829 0.000233 6.17571 0.109453 -8.01227 2650 
229 1 0.0534017 -0.0251782 0.04235 0.000847 6.21891 0.0929039 -7.86034 2650 
332 1 0.0539492 -0.0165341 0.0416464 0.000847 4.279 -0.233458 -5.55268 2650 
289 1 0.0518412 -0.0309846 0.0436427 0.001312 6.85537 3.08233e-08 -8.14319 2650 
141 1 0.0527035 -0.0333149 0.044172 0.000233 6.44938 -0.131435 -7.69775 2650 
426 1 0.0513386 -0.0271962 0.0457388 0.000233 6.94825 0.371941 -7.79641 2650 
261 1 0.0512579 -0.00891805 0.0457899 0.000233 6.30597 -0.660373 -7.11385 2650 
82 1 0.0444767 -0.0380952 0.0510387 0.001312 8.01754 -0.00245452 -6.98679 2650 
347 1 0.0441063 -0.036179 0.0519617 0.000847 8.16167 -0.00301006 -6.92782 2650 
120 1 0.0417681 -0.0406151 0.0532845 0.001312 8.36992 0.000169416 -6.56092 2650 
201 1 0.0434322 -0.039464 0.0525317 0.000847 8.25144 0.000643338 -6.82212 2650 
161 1 0.0431529 -0.0334894 0.0527545 0.000847 8.14404 -0.092888 -6.66221 2650 
432 1 0.0396537 -0.0452389 0.0548841 0.001312 8.63138 -0.00818046 -6.23682 2650 
250 1 0.039509 -0.042327 0.0549852 0.001312 8.64905 -0.0248375 -6.21532 2650 
375 1 0.0413868 -0.0110604 0.0549301 0.000233 7.05583 0.0963469 -5.3233 2650 
203 1 0.0388134 -0.0405599 0.0560356 0.000847 8.73998 -0.0519585 -6.05479 2650 
494 1 0.0394508 -0.0252238 0.0563242 0.000233 8.64468 0.351705 -6.05507 2650 
339 1 0.0406609 -0.00563168 0.0554571 0.000233 5.48144 0.21287 -4.02914 2650 
280 1 0.0353702 -0.0465869 0.0582801 0.000847 9.1869 -0.116235 -5.5751 2650 
442 1 0.0383098 -0.0407227 0.0571167 0.000233 8.88811 -0.0348066 -5.96125 2650 
314 1 0.037508 -0.0340819 0.0578112 8.4e-05 9.00838 -0.113285 -5.84408 2650 
270 1 0.0377336 -0.0315894 0.057488 0.000233 8.30275 0.182871 -5.44997 2650 
209 1 0.038212 -0.0230112 0.0571766 0.000233 6.05683 -0.191605 -4.05561 2650 
130 1 0.0382094 -0.0163218 0.0571907 0.000233 6.77232 -0.463276 -4.53139 2650 
349 1 0.0357088 -0.0301455 0.058768 0.000233 9.2399 0.175624 -5.61462 2650 
182 1 0.0364155 -0.0299225 0.0583321 0.000233 8.77613 -0.0118469 -5.47661 2650 
184 1 0.032866 -0.0279989 0.0605695 8.4e-05 7.86014 0.29573 -4.25977 2650 
267 1 0.0259024 -0.0436383 0.0630553 0.000847 9.91273 -0.0163654 -4.07239 2650 
230 1 0.0276912 -0.0433582 0.0622907 0.000847 9.79063 0.00104925 -4.35248 2650 
123 1 0.0274793 -0.03546 0.0623703 0.000847 9.48678 -0.0510826 -4.18026 2650 
207 1 0.0282002 -0.0234865 0.0627225 0.000233 7.03688 -0.319799 -3.14968 2650 
41 1 0.0290296 -0.0100939 0.0625134 8.4e-05 7.16049 0.481506 -3.34674 2650 
59 1 0.0235235 -0.0482799 0.0639795 0.000847 10.0494 0.00144506 -3.69485 2650 
431 1 0.0240146 -0.0409781 0.0646018 8.4e-05 9.02703 0.501581 -3.3602 2650 