ITEM: TIMESTEP
22689231
ITEM: NUMBER OF ATOMS
471
ITEM: BOX BOUNDS ff ff ff
-0.15 0.15
-0.15 0.15
-0.15 0.15
ITEM: ATOMS id type x y z radius vx vy vz density 
140 1 -0.00959725 -0.0220723 -0.0680597 0.000233 -9.92124 -0.698875 1.40343 2650 
151 1 -0.0135911 -0.0327757 -0.0667879 0.000847 -7.44621 -0.495682 1.52894 2650 
393 1 -0.00708024 -0.0304058 -0.0673247 0.001312 -9.85633 -0.417843 1.00419 2650 
292 1 -0.00864765 -0.0287714 -0.0676051 0.000847 -8.91971 1.40962 1.16852 2650 
104 1 -0.0148007 -0.0024236 -0.0671546 0.000233 -5.61083 -0.284042 1.26575 2650 
85 1 -0.020807 -0.0445535 -0.0649104 0.000847 -10.1403 0.0174584 3.25028 2650 
522 1 -0.0232163 -0.00490637 -0.0648863 8.4e-05 -7.52072 -0.20361 2.70473 2650 
59 1 -0.0235302 -0.0482823 -0.063977 0.000847 -10.0469 0.00295082 3.6951 2650 
230 1 -0.0276633 -0.043317 -0.0623028 0.000847 -9.77298 -0.0283193 4.33837 2650 
267 1 -0.025964 -0.0435633 -0.0630292 0.000847 -9.88479 -0.00295351 4.07151 2650 
61 1 -0.0272438 -0.0246026 -0.0624771 0.000847 -8.8127 0.0412969 3.8658 2650 
492 1 -0.0314899 -0.0243797 -0.0611341 0.000233 -8.94203 0.234482 4.60784 2650 
242 1 -0.0294014 -0.0211171 -0.061498 0.000847 -8.7056 0.283437 4.17231 2650 
36 1 -0.0316632 -0.0135983 -0.0610596 0.000233 -8.41899 -0.860779 4.36482 2650 
280 1 -0.035153 -0.044829 -0.0584086 0.000847 -9.28192 0.0185626 5.58666 2650 
249 1 -0.0360938 -0.00951758 -0.0587178 8.4e-05 -8.28415 0.973428 5.0955 2650 
90 1 -0.0372526 -0.0243635 -0.0578036 0.000233 -8.44683 -0.310086 5.44238 2650 
349 1 -0.0388389 -0.0329743 -0.0567462 0.000233 -8.85629 -0.406563 6.0632 2650 
432 1 -0.0395108 -0.0452176 -0.054985 0.001312 -8.6279 -0.0188356 6.20026 2650 
250 1 -0.0395136 -0.0423259 -0.0549819 0.001312 -8.64907 -0.038187 6.21664 2650 
442 1 -0.0419815 -0.0383753 -0.0544687 0.000233 -8.45601 -0.154062 6.51692 2650 
314 1 -0.0424398 -0.0382828 -0.0543009 8.4e-05 -8.43494 -0.20543 6.59066 2650 
307 1 -0.0417275 -0.0175445 -0.053903 0.000847 -7.41862 -0.0147093 5.73823 2650 
120 1 -0.0417697 -0.0406092 -0.0532835 0.001312 -8.36623 0.00919524 6.55815 2650 
201 1 -0.0434384 -0.0394676 -0.0525266 0.000847 -8.25409 -0.00453809 6.8261 2650 
203 1 -0.0420723 -0.0375999 -0.0536244 0.000847 -8.33637 -0.116094 6.54005 2650 
144 1 -0.0566842 -0.0321045 -0.0529951 0.000233 -9.90106 -0.474699 3.4203 2650 
490 1 -0.0434948 -0.0237373 -0.0532632 0.000233 -7.23003 -0.647776 5.89599 2650 
69 1 -0.0421698 -0.0228852 -0.0529606 0.001312 -7.33052 -0.0457866 5.90144 2650 
284 1 -0.0441862 -0.0217918 -0.052697 0.000233 -7.36371 0.162225 6.18 2650 
95 1 -0.0427553 -0.0201939 -0.0524894 0.001312 -7.32402 -0.104976 5.95116 2650 
82 1 -0.0444794 -0.0380858 -0.0510366 0.001312 -8.01639 0.0198678 6.98616 2650 
347 1 -0.044145 -0.0361473 -0.0519288 0.000847 -8.16513 0.0299999 6.94133 2650 
236 1 -0.0461568 -0.000768678 -0.0511736 8.4e-05 -7.55988 -0.325199 6.82101 2650 
123 1 -0.0466175 -0.0335342 -0.0497206 0.000847 -7.48953 -0.0650079 7.01894 2650 
172 1 -0.0458916 -0.0222058 -0.0497535 0.001312 -7.10192 -0.212376 6.53637 2650 
54 1 -0.0491611 -0.0194836 -0.0481834 8.4e-05 -6.85965 0.0509198 6.96896 2650 
402 1 -0.0512323 -0.0200695 -0.0457756 0.000233 -5.55502 -0.139669 6.30433 2650 
297 1 -0.0523964 -0.028168 -0.0445368 0.000233 -6.62046 0.0330701 7.78457 2650 
494 1 -0.0522203 -0.0255069 -0.0447397 0.000233 -6.77451 0.262504 7.91579 2650 
182 1 -0.0535146 -0.0342524 -0.0431718 0.000233 -6.67871 -0.140683 8.27816 2650 
161 1 -0.052012 -0.0292674 -0.0440472 0.000847 -6.89982 0.13478 8.14735 2650 
364 1 -0.05413 -0.027849 -0.0424121 0.000233 -6.26895 0.115374 8.00534 2650 
261 1 -0.0572192 -0.0321364 -0.0381416 0.000233 -3.4828 -0.613523 5.24607 2650 
289 1 -0.0555875 -0.0322026 -0.0386378 0.001312 -5.83712 0.0957521 8.3963 2650 
152 1 -0.055789 -0.0300718 -0.0391529 0.000847 -5.8632 0.0861809 8.35834 2650 
344 1 -0.0572013 -0.0618729 -0.0370594 0.000847 -5.81837 -0.00332547 8.98087 2650 
274 1 -0.0580491 -0.0113811 -0.0368767 0.000233 -4.44868 -0.343704 6.9858 2650 
248 1 -0.0573984 -0.00385358 -0.0378711 0.000233 -4.7982 -0.267542 7.28985 2650 
154 1 -0.0588306 -0.0324375 -0.0356046 0.000233 -5.40648 0.430193 8.93439 2650 
426 1 -0.0585141 -0.0175972 -0.0361367 0.000233 -5.60568 -0.000226261 9.07825 2650 
366 1 -0.0599137 -0.0333515 -0.0340495 8.4e-05 -5.11713 0.341045 9.00472 2650 
4 1 -0.0602932 -0.0416315 -0.031796 0.000847 -4.98244 -0.0440792 9.44818 2650 
288 1 -0.0618186 -0.0477932 -0.0304904 8.4e-05 -4.57633 -0.156274 9.28429 2650 
208 1 -0.0623752 -0.0368895 -0.0289504 0.000233 -4.38261 -0.0618019 9.44437 2650 
431 1 -0.0628146 -0.0194361 -0.0283757 8.4e-05 -4.22503 1.17961 9.35503 2650 
102 1 -0.0639448 -0.0396437 -0.0253137 0.000233 -4.12206 -0.44328 10.4224 2650 
496 1 -0.0647066 -0.0176337 -0.0237559 8.4e-05 -2.96077 -0.362641 8.06993 2650 
180 1 -0.0643974 -0.0169982 -0.0241654 0.000233 -3.10211 0.0100664 8.23042 2650 
84 1 -0.0644507 -0.0480523 -0.0222153 0.000847 -3.48704 -0.0013455 10.1169 2650 
463 1 -0.06468 -0.0496489 -0.0215353 0.000847 -3.38234 0.000461765 10.1586 2650 
281 1 -0.0646723 -0.0308524 -0.0215492 0.000847 -3.28728 0.101044 9.87839 2650 
489 1 -0.0654004 -0.0487261 -0.01924 0.000847 -3.02202 -0.00769156 10.2727 2650 
241 1 -0.065825 -0.0505913 -0.0177211 0.000847 -2.78431 0.00294594 10.3423 2650 
141 1 -0.0663389 -0.0368359 -0.0181118 0.000233 -2.7728 -0.271347 10.1555 2650 
519 1 -0.0662164 -0.0379517 -0.0185598 0.000233 -2.92122 0.329129 10.3888 2650 
70 1 -0.0655917 -0.0298174 -0.0185177 0.000847 -2.90074 -0.106934 10.2742 2650 
189 1 -0.0659857 -0.0522824 -0.0171011 0.000847 -2.68635 0.00400454 10.3654 2650 
175 1 -0.0661383 -0.0437606 -0.0165171 0.000847 -2.59387 0.0064656 10.3867 2650 
380 1 -0.0658647 -0.0498417 -0.0156969 0.001312 -2.46637 0.00233816 10.3487 2650 
315 1 -0.065931 -0.0456091 -0.015421 0.001312 -2.42155 0.00546013 10.3524 2650 
110 1 -0.0665818 -0.0303576 -0.0145673 0.000847 -2.21644 -0.107316 10.1396 2650 
330 1 -0.0668345 -0.0487446 -0.013411 0.000847 -2.09935 -0.0518889 10.4561 2650 
486 1 -0.0667195 -0.0470363 -0.0139837 0.000847 -2.19576 -0.0178838 10.476 2650 
160 1 -0.0662516 -0.0336978 -0.0139043 0.001312 -2.13167 -0.0556085 10.1565 2650 
270 1 -0.0673049 -0.0203399 -0.0141391 0.000233 -2.14809 0.491728 10.2121 2650 
105 1 -0.0675899 -0.0115203 -0.0127128 0.000233 -1.22482 -2.06757 6.407 2650 
397 1 -0.0671642 -0.0317719 -0.0115918 0.000847 -1.78546 -0.0163181 10.3433 2650 
11 1 -0.0676159 -0.00976768 -0.0125619 0.000233 -1.40284 0.667242 7.60574 2650 
384 1 -0.0113011 -0.00109799 -0.0112119 0.000847 0.0271937 -0.000382934 -0.0231699 2650 
469 1 -0.0104125 -0.000502612 -0.0117536 0.000233 0.0278279 0.00160796 -0.0228433 2650 
392 1 -0.00798293 -8.73313e-05 -0.0115047 8.4e-05 -0.00068915 -0.00349539 -0.00139054 2650 
113 1 -0.0674192 -0.0505473 -0.0100375 0.000847 -1.57887 0.00188453 10.6031 2650 
351 1 -0.0682979 -0.0179574 -0.00805011 0.000233 -1.00167 -0.386789 8.52609 2650 
116 1 -0.06837 -0.00905886 -0.00739259 0.000233 -0.888654 0.0439332 8.08659 2650 
320 1 -0.0679746 -0.0478538 -0.00499199 0.000847 -0.784131 -0.000246753 10.6774 2650 
376 1 -0.0685061 -0.0374106 -0.00597062 0.000233 -0.82154 0.613416 9.47286 2650 
45 1 -0.011373 -0.000622616 -0.00596206 0.000847 0.0155993 -0.0174413 -0.0529627 2650 
133 1 -0.00384467 -0.000835761 -0.00584926 0.001312 -0.0021989 -0.00307358 0.00294343 2650 
134 1 -0.0675751 -0.0448604 -0.00405301 0.001312 -0.636653 0.000482183 10.6147 2650 
434 1 -0.0680081 -0.0289963 -0.00448805 0.000847 -0.651137 -0.135063 9.89206 2650 
448 1 -0.068096 -0.0243804 -0.00285903 0.000847 -0.420045 -0.264815 9.96097 2650 
50 1 -0.0687282 -0.0228839 -0.00225717 0.000233 -0.332361 -0.27977 10.0405 2650 
202 1 -0.00134727 -0.000676506 -0.0029228 0.000847 -0.000325259 -0.00498031 0.00775896 2650 
171 1 -0.0688998 -0.0332809 0.00145565 8.4e-05 0.241352 1.49592 11.4404 2650 
229 1 -0.0681329 -0.0237603 0.00137355 0.000847 0.179893 -0.166581 9.80254 2650 
277 1 -0.0135393 -0.00163195 0.000620465 0.000847 0.00338805 0.00569524 -0.0266496 2650 
146 1 -0.0676218 -0.0252678 0.00289004 0.001312 0.422211 -0.138433 9.82472 2650 
521 1 -0.0688546 -0.0165247 0.00173545 8.4e-05 0.143926 -0.194395 7.7884 2650 
462 1 -0.0157716 -0.00223655 0.00252154 0.000847 -0.000259904 -0.00453423 -0.0122608 2650 
327 1 -0.0687895 -0.0245597 0.00402993 8.4e-05 0.541241 -1.0072 9.21243 2650 
477 1 -0.0686223 -0.0172275 0.00370267 0.000233 0.512779 0.0448495 9.15982 2650 
231 1 -0.0685961 -0.0281865 0.00483584 0.000233 0.713101 -0.0554329 9.88036 2650 
169 1 -0.0680039 -0.0465699 0.0102634 0.000233 1.58776 0.178272 10.5222 2650 
304 1 -0.0650613 -0.0429654 0.0203516 0.000847 3.17311 0.0717235 10.1446 2650 
443 1 -0.0657718 -0.0246737 0.0200773 0.000233 2.93705 -0.0326937 9.59955 2650 
381 1 -0.0649645 -0.0311594 0.0206401 0.000847 3.09367 -0.187801 9.78272 2650 
433 1 -0.0644698 -0.0266178 0.0221065 0.000847 3.26789 -0.00382603 9.52071 2650 
88 1 -0.0647874 -0.0198546 0.0230859 0.000233 3.36655 0.33008 9.44472 2650 
142 1 -0.0650995 -0.0165439 0.0222054 0.000233 2.74801 -0.0391811 8.07213 2650 
499 1 -0.0637782 -0.0263678 0.0240258 0.000847 3.55565 -0.0120028 9.40434 2650 
318 1 -0.0619777 -0.0492282 0.0283888 0.000847 4.46637 0.0205524 9.75098 2650 
247 1 -0.0622728 -0.0371083 0.0291705 0.000233 4.61745 0.522855 9.85207 2650 
101 1 -0.062478 -0.0154535 0.0287649 0.000233 3.63702 -0.0690599 7.93459 2650 
306 1 -0.0601924 -0.0300574 0.0319721 0.000847 4.90214 0.181389 9.23484 2650 
313 1 -0.0602677 -0.029229 0.0331116 0.000233 5.08704 0.669825 9.25808 2650 
375 1 -0.0599628 -0.0197526 0.0336784 0.000233 4.35527 -0.299844 7.7701 2650 
49 1 -0.0591542 -0.00940731 0.0350761 0.000233 4.05245 -0.0176766 6.84497 2650 
93 1 -0.0591036 -8.42576e-05 0.03544 8.4e-05 4.05924 0.0033588 6.75264 2650 
429 1 -0.0579475 -0.00442063 0.037022 0.000233 4.10326 0.13133 6.42673 2650 
235 1 -0.0545036 -0.0311258 0.0419312 0.000233 6.28323 -0.544235 8.16439 2650 
458 1 -0.052099 -0.061488 0.0432282 0.001312 6.79026 -3.46361e-10 8.18369 2650 
46 1 -0.0516289 -0.0474932 0.0444948 0.000847 6.99596 -0.0100466 8.11732 2650 
185 1 -0.0498698 -0.0392982 0.0457799 0.001312 7.19105 -2.10844e-05 7.8335 2650 
513 1 -0.0508654 -0.0374278 0.0453657 0.000847 7.12603 1.52718e-05 7.98994 2650 
190 1 -0.050033 -0.0618122 0.0462832 0.000847 7.27009 -0.000356016 7.85909 2650 
20 1 -0.0500994 -0.0485052 0.0462091 0.000847 7.25498 0.0405599 7.86569 2650 
445 1 -0.0492798 -0.0417748 0.046415 0.001312 7.29086 -1.8369e-06 7.74086 2650 
78 1 -0.0507627 -0.0381942 0.046389 0.000233 7.28632 -0.000112185 7.97331 2650 
23 1 -0.0487092 -0.0624452 0.0485444 0.000233 7.62532 -0.000217222 7.65122 2650 
19 1 -0.0486739 -0.0617598 0.0477105 0.000847 7.4945 -2.7761e-05 7.64584 2650 
367 1 -0.0477927 -0.0556264 0.0479449 0.001312 7.48573 0.110793 7.46293 2650 
497 1 -0.047497 -0.0465251 0.0482426 0.001312 7.57956 0.0090295 7.46244 2650 
33 1 -0.0477243 -0.042832 0.0486623 0.000847 7.66644 0.0140214 7.51882 2650 
316 1 -0.0464477 -0.0618729 0.04988 0.000847 7.83512 5.61566e-05 7.29597 2650 
420 1 -0.0463205 -0.0476981 0.0500047 0.000847 7.84499 0.00422593 7.26732 2650 
509 1 -0.0476474 -0.014454 0.0497953 8.4e-05 4.24834 0.04367 4.08164 2650 
278 1 -0.0451018 -0.0617643 0.0511002 0.000847 8.02668 0.00119952 7.08449 2650 
409 1 -0.0445915 -0.0533393 0.0515507 0.000847 8.27917 0.0354758 7.16694 2650 
159 1 -0.0436515 -0.0461141 0.0517531 0.001312 8.22568 -0.0372932 6.93731 2650 
317 1 -0.0434393 -0.0504414 0.052531 0.000847 8.34783 -0.0961804 6.90332 2650 
485 1 -0.0421189 -0.041863 0.0535965 0.000847 8.34996 -0.203687 6.56121 2650 
369 1 -0.0434477 -0.0400107 0.05252 0.000847 8.27243 -0.231391 6.83793 2650 
18 1 -0.0423389 -0.0317177 0.0534111 0.000847 8.25008 0.0719245 6.53954 2650 
452 1 -0.0339669 -0.0496837 0.0598076 0.000233 9.22516 -0.124419 5.23871 2650 
470 1 -0.0348267 -0.00656294 0.0594695 8.4e-05 2.82581 -0.189756 1.68525 2650 
346 1 -0.0267585 -0.0617027 0.0626833 0.000847 9.77815 -0.0271475 4.17555 2650 
197 1 -0.0301744 -0.041321 0.0619679 8.4e-05 10.1153 -0.136521 4.92815 2650 
51 1 -0.0296174 -0.0273623 0.0620585 0.000233 4.74667 -0.77117 2.30592 2650 
184 1 -0.0264975 -0.0012966 0.0636156 8.4e-05 7.16438 0.19409 2.97128 2650 
41 1 -0.0200127 -0.00026876 0.065945 8.4e-05 8.07564 -0.0651486 2.45811 2650 
461 1 -0.0111283 -0.0466872 0.0672424 0.000847 10.5202 0.0393915 1.74104 2650 
44 1 -0.00817034 -0.0438161 0.0676655 0.000847 10.6262 -0.00168405 1.28307 2650 
498 1 -0.00674124 -0.0402783 0.0678227 0.000847 10.4825 -0.126614 1.04157 2650 
298 1 -0.011366 -0.0354151 0.0678204 0.000233 10.9005 0.010128 1.82605 2650 
131 1 -0.0126128 -0.0253802 0.0675986 0.000233 10.6731 0.295701 1.99226 2650 
311 1 -0.0161962 -0.0177506 0.0667927 0.000233 8.64611 -0.266694 2.13081 2650 
468 1 -0.0131724 -0.0174138 0.0674698 0.000233 8.92399 0.0672964 1.69425 2650 
75 1 -0.0145564 -0.00799018 0.0671717 0.000233 7.65253 0.529904 1.61433 2650 
253 1 -0.00105456 -0.0482287 0.0681571 0.000847 10.7167 -0.0512186 0.165922 2650 
305 1 -0.00534817 -0.0468527 0.0679496 0.000847 10.8136 0.0236513 0.85165 2650 
322 1 -0.00897844 -0.0393514 0.0681765 0.000233 10.4638 -0.0942399 1.37764 2650 
92 1 -0.00336586 -0.0208657 0.0686878 0.000233 8.86489 -0.0524387 0.438351 2650 
374 1 -0.0108319 -0.00632767 0.0679082 0.000233 3.32423 -0.150617 0.53573 2650 
371 1 -0.0281882 0.0673479 -0.0201378 0.000847 -3.86546 -0.00127571 -2.74581 2650 
212 1 -0.000666478 0.00273536 -0.0147143 0.001312 -0.000378321 -0.00288226 -0.00336117 2650 
68 1 -0.0032757 0.00630482 -0.0145172 0.001312 0.00656765 0.00723405 -0.0034973 2650 
357 1 -0.00465619 0.0112653 -0.0150069 0.000847 -0.00356262 0.00740695 0.00116372 2650 
399 1 -0.00665473 0.0222918 -0.0147153 0.000847 0.0145811 0.0154461 -0.00307587 2650 
266 1 -0.0040197 0.000992773 -0.0131145 0.000847 -0.00164881 -0.00742592 -0.00189738 2650 
501 1 -0.00590349 0.00949178 -0.0140778 0.000847 0.00271066 0.00783714 0.00249064 2650 
309 1 -0.00884636 0.0151054 -0.0131708 0.000233 -0.0123102 0.020136 -0.0038176 2650 
30 1 -0.00535834 0.0314841 -0.0131911 0.001312 -0.0222447 0.0408615 0.0185442 2650 
359 1 -0.00453124 0.0427666 -0.0136091 0.000847 -0.0105408 0.0538414 0.0225509 2650 
16 1 -0.00546342 0.0509322 -0.0136267 0.001312 -0.00372561 0.0412357 0.00325068 2650 
444 1 -0.00856176 0.00771354 -0.0124519 8.4e-05 -0.00260039 0.00547496 0.00633282 2650 
439 1 -0.0101462 0.0102643 -0.0124639 0.000233 -0.0191289 -0.00266548 -0.0366741 2650 
386 1 -0.00628217 0.0106833 -0.0110659 0.000847 -0.00685813 0.0101085 -0.000664392 2650 
76 1 -0.00755266 0.0153671 -0.01225 0.000233 -0.00578221 0.011958 0.00483197 2650 
115 1 -0.0103522 0.0175369 -0.0117896 0.000233 0.00203478 0.00995688 0.00306778 2650 
377 1 -0.00545261 0.048654 -0.01223 0.000233 -0.00308755 0.0650231 0.0279133 2650 
2 1 -0.00494315 0.0076589 -0.0108529 0.001312 0.00400868 0.00487374 0.00130235 2650 
282 1 -0.0116277 0.00960988 -0.0109794 0.000847 -0.00822499 0.0108293 0.0093945 2650 
471 1 -0.010972 0.0120372 -0.00948658 0.001312 -0.0317419 0.0139249 -0.0229144 2650 
22 1 -0.0140766 0.00347118 -0.00884546 0.000233 0.0270396 -0.0493052 0.00724531 2650 
348 1 -0.0119155 0.0048097 -0.00871212 0.000233 -0.00855875 -0.000417391 0.0118261 2650 
225 1 -0.00474413 0.0106468 -0.00902803 0.001312 -0.00239701 0.00874648 -0.00124216 2650 
273 1 -0.00393962 0.0262393 -0.00939869 0.000233 -0.00788291 0.0124072 0.00594868 2650 
15 1 -0.00802882 0.0343771 -0.00899928 0.001312 -0.00235194 0.0225075 0.0056031 2650 
147 1 -0.0067317 0.00278001 -0.00695551 0.001312 -0.00155224 -0.00287693 0.000873515 2650 
94 1 -0.0112797 0.00904034 -0.00730939 0.001312 -0.0121466 0.00450737 0.00515639 2650 
178 1 -0.00997771 0.0231273 -0.00644742 0.000847 -0.00942264 0.0138974 -0.0144999 2650 
37 1 -0.0153785 0.0260649 -0.00664089 0.000233 -0.00377412 0.0395869 0.0156966 2650 
177 1 -0.0147079 0.027088 -0.00649536 0.000847 0.000240407 0.0187778 0.0121389 2650 
91 1 -0.0134227 0.030591 -0.00754766 0.000233 -0.011194 0.0308527 0.0129891 2650 
31 1 -0.00627075 0.0567389 -0.00712296 0.000847 0.0128996 0.0556905 -0.00624527 2650 
389 1 -5.85273e-05 0.00935804 -0.00478086 0.000233 -0.00715985 0.00216632 0.0289367 2650 
502 1 -0.0151021 0.0240464 -0.00541431 0.000847 -0.000230871 0.00792682 0.00455104 2650 
331 1 -0.00407434 0.034764 -0.00568518 0.000847 0.00840645 0.0232594 0.00867855 2650 
77 1 -0.00946952 0.0421169 -0.00625463 0.000233 0.00669575 0.0236814 0.0157679 2650 
66 1 -0.0112345 0.061353 -0.00598702 0.000233 0.00347261 0.0341619 0.00411013 2650 
407 1 -0.00340147 0.00120756 -0.00419439 0.000847 -0.00271156 -0.00263393 0.00241233 2650 
206 1 -0.000556359 0.00105321 -0.0039553 0.000233 0.000200844 -0.0022057 -0.0101649 2650 
237 1 -0.0134742 0.00164452 -0.0047239 0.001312 -0.00571909 0.0043721 0.00435753 2650 
512 1 -0.0110164 0.00193346 -0.004448 0.000847 0.00181701 0.00186869 0.0122245 2650 
158 1 -0.010726 0.00364301 -0.00349308 8.4e-05 0.00188877 -0.00284778 0.00557992 2650 
17 1 -0.00433997 0.00332987 -0.00369781 0.000847 -0.00529384 -0.000624951 0.00099193 2650 
149 1 -0.00577738 0.0106507 -0.00355551 0.000847 0.00533574 0.00120564 0.000572163 2650 
373 1 -0.0153537 0.0125319 -0.00398487 0.000847 0.000337109 0.0216316 -0.00631221 2650 
387 1 -0.00662878 0.0251021 -0.00401503 0.000233 0.0389518 0.0686426 -0.046664 2650 
199 1 -0.0150262 0.0270769 -0.00389233 0.001312 0.00216724 0.0161104 0.00517981 2650 
204 1 -0.0149202 0.0241862 -0.00182693 0.000847 0.00121054 0.0124535 0.0137872 2650 
391 1 -0.0158311 0.0287615 -0.00183218 0.000233 0.00226461 0.0200531 0.0160982 2650 
198 1 -0.0154278 0.00598684 -0.00149935 0.001312 -0.00588684 -0.00188959 0.0126317 2650 
355 1 -0.01353 0.00936786 -0.00138793 0.000847 0.00437228 0.0104751 -0.0043935 2650 
217 1 -0.014732 0.0398162 -0.000129952 0.000847 0.00743731 0.032403 0.00336557 2650 
211 1 -0.00765606 0.0401604 -0.0013049 0.001312 -0.0377898 0.0415283 0.00180384 2650 
72 1 -0.00359163 0.0675082 -0.000398744 0.000847 0.00694298 0.0370303 0.0147661 2650 
139 1 -0.000183766 0.07244 -0.000564992 0.000847 -0.0716308 0.18402 -0.0944552 2650 
515 1 -0.0133118 0.0116778 0.000200687 0.000847 0.000192831 0.00432954 -0.00558707 2650 
121 1 -0.00897292 0.0118467 0.000730913 0.001312 0.0113437 0.00558656 0.00250698 2650 
7 1 -0.0109182 0.0322039 0.0012723 0.000847 0.00509742 0.0248497 0.013646 2650 
156 1 -0.0081336 0.0121176 0.00267258 0.000233 0.0117738 0.00676262 0.00472854 2650 
457 1 -0.00386167 0.0249888 0.00242355 8.4e-05 0.00209197 0.0125772 -0.0227291 2650 
511 1 -0.0138782 0.0475258 0.00293467 0.000847 0.00146079 0.0210985 -0.0127999 2650 
482 1 -0.016409 0.0671444 0.00185709 0.000233 -0.00272 0.0425188 0.0154078 2650 
450 1 -0.0044564 0.00300258 0.00339187 0.000847 0.0141697 0.00366662 0.00769839 2650 
186 1 -0.0081506 0.00433652 0.00394188 0.001312 0.0110093 -0.000918863 0.00524694 2650 
467 1 -0.0151378 0.0052141 0.0032861 0.000233 0.00666977 0.00283463 0.00629942 2650 
5 1 -0.00623147 0.0146269 0.00468374 0.000847 0.0159354 0.00855543 0.0196475 2650 
440 1 -0.00728933 0.00149312 0.00576051 0.000233 0.00893327 0.00123303 0.0100401 2650 
301 1 -0.00597594 0.00389386 0.00562372 8.4e-05 -0.00542456 -0.000958437 0.00851575 2650 
291 1 -0.00125825 0.0076123 0.00615507 0.000847 0.000368443 -0.000878557 -0.00367841 2650 
299 1 -0.0150831 0.0407631 0.0059757 0.000233 0.0153724 0.0433476 -0.0153898 2650 
63 1 -0.00288191 0.0693446 0.00528745 0.000233 0.00544067 0.0487134 -0.0167697 2650 
214 1 -0.00714974 0.0260212 0.00633973 0.000847 0.0140272 0.0148951 0.00243728 2650 
226 1 -0.00352777 0.0299987 0.00774807 0.000847 0.00127411 0.0241147 0.0153454 2650 
168 1 -0.00708163 0.00465995 0.00796014 0.000233 0.010374 0.000533782 0.0120746 2650 
518 1 -0.0143872 0.00609107 0.00811838 0.000233 -0.00455624 0.0103112 -0.00628034 2650 
451 1 -0.00820129 0.00883871 0.00898242 0.000847 0.0101382 0.00361366 0.00843172 2650 
21 1 -0.00383947 0.032634 0.00845654 0.000847 -0.0069999 0.0351848 0.0278242 2650 
262 1 -0.0117897 0.0622093 0.00928956 8.4e-05 0.016947 0.0454576 0.00941551 2650 
222 1 -0.0110781 0.0320264 0.0101405 0.000233 0.0205794 0.0022401 -0.00426972 2650 
503 1 -0.0101102 0.0355766 0.0101002 0.000233 0.0275154 0.0239428 0.00958867 2650 
213 1 -0.0128332 0.0372014 0.00947526 0.000847 0.0193976 0.00450933 0.0228095 2650 
164 1 -0.00255544 0.00202028 0.0123447 0.000847 0.0199672 0.00075341 -0.00413055 2650 
112 1 -0.00200761 0.0184655 0.0119866 0.000847 0.0214954 0.016828 -0.00423595 2650 
153 1 -0.011729 0.030257 0.0114161 0.000233 0.0193183 0.0172264 0.0222012 2650 
80 1 -0.00734344 0.0344603 0.0114526 8.4e-05 -0.0125032 0.0188644 0.0118682 2650 
390 1 -0.00245838 0.0146323 0.0130563 0.000233 -0.00350245 0.00582576 -0.00125219 2650 
29 1 -0.00152872 0.0218838 0.0139065 0.001312 0.0039704 0.0255386 0.0186034 2650 
79 1 -0.00213407 0.0372852 0.0132348 0.000233 0.024023 0.0379512 -0.00347318 2650 
472 1 -0.000431537 0.0201874 0.0153815 0.000847 0.00196825 0.00956292 0.0179696 2650 
510 1 -0.00194493 0.033726 0.0151244 0.001312 -0.0176331 0.0316852 -0.00746164 2650 
437 1 -0.00879389 0.0952147 0.00334929 0.000847 -0.00719255 0.0835002 -0.0252935 2650 
319 1 -0.00223249 0.119524 0.0123803 0.000847 0.00321502 0.103152 0.00477754 2650 
193 1 0.0928604 -0.0287836 -0.070673 0.000233 3.18725 0.25764 -10.6512 2650 
312 1 0.00726483 -0.029788 -0.0683811 0.000233 -9.72435 0.010333 -1.03117 2650 
53 1 0.00605563 -0.0179399 -0.0685131 0.000233 -8.67094 -0.464192 -0.764934 2650 
244 1 0.000917058 -0.0128208 -0.0687654 0.000233 -9.1041 -0.281221 -0.111557 2650 
483 1 0.00219531 -0.0087894 -0.0688864 8.4e-05 -8.81845 0.28453 -0.28822 2650 
343 1 0.0043308 -0.00831042 -0.0680244 0.000847 -8.836 0.0862796 -0.552955 2650 
67 1 0.00951141 -0.00656399 -0.0682571 8.4e-05 -8.46761 0.323848 -1.18064 2650 
183 1 0.00656638 -0.00248262 -0.0684488 0.000233 -9.24035 -0.362995 -0.889399 2650 
466 1 0.0199333 -0.0112068 -0.0658247 0.000233 -7.38802 -0.435792 -2.2212 2650 
358 1 0.0254014 -0.0543663 -0.0632494 0.000847 -9.93532 -0.000660953 -3.99007 2650 
259 1 0.0238355 -0.0324895 -0.0645028 0.000233 -9.92645 0.412529 -3.6707 2650 
129 1 0.0270301 -0.0131912 -0.0632361 0.000233 -8.85907 -0.106885 -3.78662 2650 
219 1 0.0289451 -0.0153556 -0.0623805 0.000233 -7.66622 0.478238 -3.56626 2650 
125 1 0.0311682 -0.0381998 -0.0606112 0.000847 -9.27342 -0.0434073 -4.76867 2650 
271 1 0.031335 -0.0105465 -0.0612109 0.000233 -7.42017 -0.691714 -3.78011 2650 
454 1 0.0361062 -0.0443158 -0.0584766 0.000233 -7.75054 0.287223 -4.75132 2650 
446 1 0.0326373 -0.0110969 -0.0598311 0.000847 -7.25647 -0.597838 -3.97521 2650 
9 1 0.0378263 -0.0257505 -0.0574271 0.000233 -8.16108 0.155693 -5.37828 2650 
245 1 0.0382073 -0.0160221 -0.0571757 0.000233 -5.23365 0.106228 -3.52334 2650 
361 1 0.0382654 -0.0166317 -0.0571363 0.000233 -8.12418 -0.168534 -5.43994 2650 
479 1 0.0385849 -0.00433747 -0.0569203 0.000233 -6.64376 0.0328682 -4.50853 2650 
459 1 0.0398889 -0.0383408 -0.0552597 0.000847 -7.93561 0.12065 -5.73517 2650 
56 1 0.0405694 -0.035461 -0.0541911 0.001312 -7.86881 -0.142601 -5.89542 2650 
447 1 0.043816 -0.0208276 -0.0522144 0.000847 -7.44683 -0.0641421 -6.23319 2650 
65 1 0.043378 -0.00307208 -0.0533582 0.000233 -7.18708 -0.265255 -5.84331 2650 
24 1 0.0474383 -0.0265182 -0.0497823 0.000233 -7.01757 -0.351721 -6.68534 2650 
205 1 0.0474488 -0.0198058 -0.0497876 0.000233 -6.9159 -0.00201281 -6.59383 2650 
423 1 0.0494066 -0.0357209 -0.0469481 0.000847 -7.10062 -0.108409 -7.47526 2650 
174 1 0.0512693 -0.0303054 -0.0449084 0.000847 -6.74668 -0.0304222 -7.72079 2650 
74 1 0.0534376 -0.0305913 -0.0423059 0.000847 -6.32365 -0.0306217 -7.9879 2650 
410 1 0.0558077 -0.0618534 -0.0391258 0.000847 -6.16141 -0.0328271 -8.78855 2650 
12 1 0.0573692 -0.000471377 -0.0379148 0.000233 -4.4791 0.0264535 -6.79195 2650 
114 1 0.0592183 -0.0123539 -0.0349657 0.000233 -4.89025 0.736288 -8.2595 2650 
28 1 0.0610983 -0.00733691 -0.0318675 8.4e-05 -3.7206 -0.123506 -7.0181 2650 
436 1 0.060695 -0.0618238 -0.0310087 0.000847 -4.86985 0.0247939 -9.53147 2650 
207 1 0.0611604 -0.00720598 -0.0313136 0.000233 -0.586919 -0.250325 -3.29633 2650 
243 1 0.0616292 -0.0618005 -0.0291076 0.000847 -4.57199 0.00143328 -9.68029 2650 
324 1 0.0619689 -0.00458197 -0.0298054 0.000233 -3.59659 -0.081015 -7.55399 2650 
119 1 0.0633039 -0.00338919 -0.0272215 8.4e-05 -3.03481 -0.343436 -7.03754 2650 
216 1 0.0634754 -0.0299119 -0.0248146 0.000847 -3.76409 0.03097 -9.57834 2650 
118 1 0.0650765 -0.0207375 -0.0222224 0.000233 -2.99497 -0.403507 -8.73441 2650 
145 1 0.0656443 -0.000183369 -0.0209792 8.4e-05 -1.96537 -0.00925868 -6.10088 2650 
96 1 0.0655157 -0.0349534 -0.0187885 0.000847 -2.88157 -0.0331114 -10.0492 2650 
401 1 0.0666798 -0.0511249 -0.0168189 0.000233 -2.66353 -0.135892 -10.56 2650 
210 1 0.000740954 -0.00276509 -0.0167279 8.4e-05 -0.0100923 -0.00705442 -0.000399252 2650 
136 1 0.0663835 -0.0343188 -0.0154448 0.000847 -2.35221 0.0849593 -10.1115 2650 
507 1 0.0670935 -0.0232778 -0.0150826 0.000233 -2.13196 0.55402 -9.50981 2650 
395 1 0.00298786 -0.00169761 -0.0144199 0.000847 -0.00499176 0.210465 -0.260662 2650 
356 1 0.00080036 -0.00140218 -0.0144682 0.000847 -7.48654e-05 -0.00579622 -0.00143001 2650 
400 1 0.0172624 -0.00695738 -0.0139305 0.000233 1.93174 -1.1781 -1.6287 2650 
224 1 0.00322976 -0.00337947 -0.0130882 0.001312 0.186226 -0.077513 -0.658661 2650 
405 1 0.00771225 -0.00365262 -0.0131796 8.4e-05 1.09803 -0.0660804 -1.87251 2650 
438 1 0.0077778 -0.000584184 -0.013185 0.000847 -0.00816544 -0.00306936 -0.0220968 2650 
124 1 0.0672482 -0.0565719 -0.011098 0.000847 -1.74291 -0.00105406 -10.5613 2650 
336 1 0.00556093 -0.000365432 -0.00943106 0.000233 0.00789915 -0.00106843 0.00245482 2650 
106 1 0.0683685 -0.000549357 -0.00865525 8.4e-05 -1.16066 0.122823 -9.15503 2650 
382 1 0.067836 -0.0504076 -0.00671798 0.000847 -1.05677 0.0127181 -10.6782 2650 
340 1 0.0686343 -0.0472996 -0.00637519 8.4e-05 -0.977156 -0.245984 -10.5123 2650 
265 1 0.00545453 -0.00297241 -0.00346128 0.000847 -0.00161831 -0.00717065 -0.0105314 2650 
8 1 0.00835958 -0.00170754 -0.00390313 0.000233 0.00301488 -0.00587201 -0.00977112 2650 
424 1 0.0681371 -0.0519666 -0.00202554 0.000847 -0.318161 -0.00155003 -10.7014 2650 
258 1 0.0687609 -0.00133182 -0.000706403 0.000233 -0.0612113 -0.277616 -6.67124 2650 
138 1 0.0681622 -0.0481068 0.00122702 0.000847 0.193669 0.0328829 -10.7463 2650 
256 1 0.068158 -0.0202078 0.00114757 0.000847 0.16242 0.00645279 -9.58113 2650 
39 1 0.000575044 -0.000293855 0.00136858 0.000233 -0.0126184 -0.00557583 0.0065332 2650 
460 1 0.0679265 -0.0493325 0.0057528 0.000847 0.899269 -0.0293113 -10.6168 2650 
35 1 0.00425611 -0.000195073 0.00536339 0.000847 -0.0121953 -9.57773e-05 0.00420749 2650 
339 1 0.068318 -0.00590919 0.00785453 0.000233 0.569506 0.0095634 -5.29101 2650 
334 1 0.0675893 -0.056361 0.0087685 0.000847 1.37856 0.0451022 -10.6238 2650 
352 1 0.00412085 -0.00159537 0.00931008 0.000233 -0.00581366 -0.00941981 -0.000498216 2650 
86 1 0.0129865 -0.000251431 0.00921599 0.000847 -0.0118389 -0.00256384 0.0168813 2650 
294 1 0.0672853 -0.0525025 0.0109022 0.000847 1.71209 -0.0122963 -10.5667 2650 
252 1 0.00725198 -0.000479312 0.00985332 0.000847 0.000408733 -0.00473082 -0.0109231 2650 
341 1 0.0666944 -0.0592844 0.0115955 0.001312 1.82159 0.00246047 -10.4771 2650 
176 1 0.00614915 -0.00266294 0.0116893 0.000847 0.00761816 -0.00329714 -0.00812013 2650 
332 1 0.0672111 -0.00299957 0.0112781 0.000847 1.0409 0.263019 -6.06051 2650 
239 1 0.0667515 -0.0574539 0.0137597 0.000847 2.17285 -0.053049 -10.552 2650 
323 1 0.0674296 -0.0519171 0.0135041 0.000233 2.13945 -0.059889 -10.6916 2650 
162 1 0.0669167 -0.050685 0.0129752 0.000847 2.04335 0.0367729 -10.536 2650 
89 1 0.00458351 -0.00557438 0.0168559 0.000233 0.136487 -0.929088 0.797968 2650 
220 1 0.0662852 -0.0226477 0.0182758 0.000233 2.43764 0.0505675 -8.75938 2650 
473 1 0.0583463 -0.0506328 0.0352458 0.000847 5.59663 0.0284507 -9.25987 2650 
396 1 0.0563556 -0.0483996 0.0383545 0.000847 5.9121 -0.141346 -8.73875 2650 
167 1 0.051997 -0.0427686 0.0450203 0.000233 7.10559 -0.142545 -8.20627 2650 
378 1 0.0513309 -0.0422362 0.0457765 0.000233 7.12385 0.197385 -7.98862 2650 
148 1 0.0474292 -0.0465013 0.0489674 0.000847 7.69078 -0.00545881 -7.44932 2650 
264 1 0.0454208 -0.056034 0.0508183 0.000847 7.98256 -0.000709803 -7.13475 2650 
338 1 0.0446173 -0.042564 0.0523314 0.000233 8.4386 0.213273 -7.19364 2650 
290 1 0.0414761 -0.0464391 0.0540842 0.000847 8.49674 -0.00180475 -6.51595 2650 
47 1 0.0418966 -0.0448294 0.0537657 0.000847 8.44972 -0.0030561 -6.58434 2650 
302 1 0.0405875 -0.0395068 0.0541626 0.001312 8.31929 -0.0384543 -6.2374 2650 
111 1 0.0403989 -0.0144189 0.0548957 0.000847 7.94395 0.329899 -5.84119 2650 
130 1 0.0419911 -0.00872316 0.0544607 0.000233 4.7667 0.0486446 -3.68976 2650 
411 1 0.0390675 -0.0385237 0.055847 0.000847 8.44816 0.0363106 -5.91083 2650 
32 1 0.0377377 -0.0364328 0.0567531 0.000847 8.88926 0.00474752 -5.91029 2650 
81 1 0.0390927 -0.0355707 0.0552664 0.001312 8.71841 -0.018273 -6.16655 2650 
209 1 0.0387364 -0.00996542 0.0568192 0.000233 6.27663 0.519995 -4.29812 2650 
157 1 0.038677 -0.0385995 0.0568518 0.000233 8.59763 -0.0854651 -5.86169 2650 
360 1 0.0375929 -0.0345746 0.0568452 0.000847 8.94324 0.0932255 -5.9145 2650 
303 1 0.0370957 -0.0315165 0.0571775 0.000847 8.61801 -0.0416789 -5.58927 2650 
127 1 0.0346853 -0.0415898 0.0593772 0.000233 8.9652 -0.083245 -5.21762 2650 
60 1 0.0332181 -0.0402562 0.059514 0.000847 9.13418 -0.359283 -5.09856 2650 
428 1 0.0328094 -0.01475 0.0603933 0.000233 7.48828 0.728164 -4.12108 2650 
415 1 0.019531 -0.0455613 0.0659488 0.000233 10.4463 -0.050767 -3.09407 2650 
329 1 0.0187699 -0.0169989 0.0655341 0.000847 8.23012 -0.00833285 -2.39946 2650 
173 1 0.00449397 -0.0522906 0.0675569 0.001312 10.8477 -0.0938295 -0.727973 2650 
269 1 0.00907914 -0.0466479 0.0675659 0.000847 10.5225 -0.0654226 -1.41379 2650 