ITEM: TIMESTEP
22534883
ITEM: NUMBER OF ATOMS
471
ITEM: BOX BOUNDS ff ff ff
-0.15 0.15
-0.15 0.15
-0.15 0.15
ITEM: ATOMS id type x y z radius vx vy vz density 
171 1 -0.000595533 -0.0471278 -0.0689124 8.4e-05 -8.93942 1.03387 0.0737768 2650 
376 1 -0.00702568 -0.0411586 -0.0684079 0.000233 -9.43992 0.100896 0.967197 2650 
434 1 -0.00364758 -0.0283384 -0.0680515 0.000847 -9.87247 0.0340244 0.527895 2650 
261 1 -0.00512417 -0.023778 -0.0685694 0.000233 -6.1999 -1.0176 0.45648 2650 
448 1 -0.00418293 -0.0227807 -0.0679988 0.000847 -10.0215 0.0419458 0.62525 2650 
50 1 -0.00456346 -0.0217406 -0.0685772 0.000233 -10.1327 0.129876 0.688524 2650 
169 1 -0.0120728 -0.0461366 -0.0677082 0.000233 -10.4362 -0.254818 1.86079 2650 
231 1 -0.0136622 -0.0274025 -0.0673909 0.000233 -9.71075 -0.0832356 1.96756 2650 
146 1 -0.0115672 -0.0245658 -0.0666989 0.001312 -9.5552 -0.0080823 1.65579 2650 
229 1 -0.00923652 -0.021896 -0.0675307 0.000847 -9.85352 -0.194711 1.33748 2650 
351 1 -0.0139864 -0.0136003 -0.0673408 0.000233 -8.37893 -0.446092 1.72028 2650 
304 1 -0.0211968 -0.0431124 -0.0647888 0.000847 -10.0966 -0.0422383 3.30267 2650 
327 1 -0.0199732 -0.016973 -0.0659719 8.4e-05 -8.73534 -0.400667 2.64594 2650 
477 1 -0.0203095 -0.0169644 -0.0657152 0.000233 -8.67644 -0.0993784 2.6866 2650 
116 1 -0.0190539 -0.0101492 -0.0660836 0.000233 -7.78614 0.183621 2.24968 2650 
381 1 -0.0249159 -0.0313651 -0.0634397 0.000847 -9.52548 0.010525 3.74097 2650 
443 1 -0.0272832 -0.024311 -0.0631237 0.000233 -9.20758 -0.0416531 3.97906 2650 
318 1 -0.0282248 -0.0492643 -0.0620536 0.000847 -9.7426 -0.0106182 4.43136 2650 
247 1 -0.0282952 -0.0424961 -0.062687 0.000233 -9.94754 0.491918 4.49033 2650 
433 1 -0.0282089 -0.0264832 -0.0620426 0.000847 -9.13761 -0.0283416 4.14941 2650 
88 1 -0.0302722 -0.0233228 -0.0617489 0.000233 -8.99916 0.331089 4.40867 2650 
499 1 -0.0301418 -0.0262607 -0.061128 0.000847 -8.99377 -0.0117459 4.43571 2650 
521 1 -0.0312627 -0.013969 -0.0614312 8.4e-05 -6.90539 -0.300105 3.49803 2650 
313 1 -0.0347872 -0.0334706 -0.0593152 0.000233 -9.28206 1.45867 5.43657 2650 
306 1 -0.0346348 -0.0318924 -0.0586998 0.000847 -8.93209 0.113261 5.26336 2650 
142 1 -0.0422003 -0.0159148 -0.0542943 0.000233 -6.72571 -0.0822444 5.22357 2650 
458 1 -0.043229 -0.061488 -0.0520983 0.001312 -8.18358 -3.45102e-10 6.79039 2650 
46 1 -0.0444905 -0.0474814 -0.051633 0.000847 -8.11017 0.0182454 6.9879 2650 
78 1 -0.0463898 -0.0381942 -0.050762 0.000233 -7.97344 -3.90815e-05 7.28667 2650 
513 1 -0.0453665 -0.0374278 -0.0508647 0.000847 -7.98982 3.97996e-05 7.12616 2650 
235 1 -0.0458118 -0.0263078 -0.0512843 0.000233 -7.67654 -0.365081 6.85512 2650 
101 1 -0.046035 -0.0146456 -0.0510839 0.000233 -6.48103 -0.0901322 5.83058 2650 
23 1 -0.0485452 -0.0624451 -0.0487085 0.000233 -7.6511 -0.00019549 7.62545 2650 
190 1 -0.046284 -0.0618125 -0.0500323 0.000847 -7.85902 0.00039308 7.27024 2650 
20 1 -0.0460206 -0.0485803 -0.0502735 0.000847 -7.88472 -0.0323203 7.21791 2650 
445 1 -0.0464158 -0.0417748 -0.0492791 0.001312 -7.74074 2.2378e-05 7.29098 2650 
185 1 -0.0457807 -0.0392982 -0.0498691 0.001312 -7.83337 -8.02617e-07 7.19117 2650 
19 1 -0.0477113 -0.0617597 -0.0486731 0.000847 -7.64571 -5.47325e-06 7.49462 2650 
367 1 -0.0484612 -0.0561703 -0.0472694 0.001312 -7.39422 0.0351391 7.58071 2650 
497 1 -0.0482565 -0.0465678 -0.0474823 0.001312 -7.47489 -0.00818412 7.59721 2650 
33 1 -0.0485636 -0.0429721 -0.047824 0.000847 -7.51527 0.0123531 7.63145 2650 
375 1 -0.0487507 -0.0166775 -0.0485031 0.000233 -6.275 -0.286884 6.29602 2650 
316 1 -0.0498804 -0.0618734 -0.0464473 0.000847 -7.29597 0.000119678 7.83524 2650 
409 1 -0.0501202 -0.0530425 -0.0461922 0.000847 -7.38888 -0.0536262 8.01793 2650 
420 1 -0.0500171 -0.0476958 -0.0463067 0.000847 -7.26517 -0.00238321 7.84702 2650 
278 1 -0.051101 -0.0617643 -0.045101 0.000847 -7.0843 0.00145173 8.02673 2650 
317 1 -0.051704 -0.0498151 -0.0444203 0.000847 -7.0514 0.0277064 8.2075 2650 
159 1 -0.0509701 -0.0450705 -0.044565 0.001312 -7.07134 -0.142579 8.09205 2650 
105 1 -0.0526231 -0.00831777 -0.0442756 0.000233 -2.13785 -0.208358 2.54515 2650 
369 1 -0.0523787 -0.0386362 -0.0436134 0.000847 -6.85313 -0.0592264 8.23286 2650 
485 1 -0.0539446 -0.0399808 -0.0416676 0.000847 -6.51192 -0.136059 8.43013 2650 
18 1 -0.0544533 -0.032838 -0.0409879 0.000847 -6.34412 0.142618 8.42738 2650 
49 1 -0.0560131 -0.00971549 -0.0399057 0.000233 -4.59805 0.0777124 6.4438 2650 
93 1 -0.0568257 -8.39952e-05 -0.0389882 8.4e-05 -4.45413 -0.000157643 6.47528 2650 
429 1 -0.0590728 -0.0060551 -0.0352039 0.000233 -3.87816 0.192897 6.52058 2650 
197 1 -0.0599487 -0.0400317 -0.0340058 8.4e-05 -5.55837 -0.101558 9.8014 2650 
452 1 -0.0608065 -0.0483629 -0.0321465 0.000233 -4.95556 -0.12614 9.37352 2650 
346 1 -0.0626884 -0.0617455 -0.026747 0.000847 -4.2329 0.0317055 9.92539 2650 
298 1 -0.0674214 -0.0361084 -0.0134892 0.000233 -2.14727 0.119508 10.7311 2650 
461 1 -0.0672841 -0.0474593 -0.0108696 0.000847 -1.74735 0.0958794 10.5817 2650 
131 1 -0.0677213 -0.029129 -0.0119432 0.000233 -1.85866 0.410651 10.54 2650 
469 1 -0.0106908 -0.000518692 -0.0115251 0.000233 0.0278279 0.00160796 -0.0228433 2650 
392 1 -0.00797604 -5.23778e-05 -0.0114908 8.4e-05 -0.00068915 -0.00349539 -0.00139054 2650 
384 1 -0.0115731 -0.00109416 -0.0109802 0.000847 0.0271937 -0.000382934 -0.0231699 2650 
44 1 -0.0676624 -0.0438532 -0.00819277 0.000847 -1.28702 -0.0176915 10.6311 2650 
305 1 -0.0678648 -0.0472545 -0.006317 0.000847 -0.997915 0.0547187 10.7204 2650 
322 1 -0.0684672 -0.0383871 -0.00641426 0.000233 -0.981264 -0.101137 10.4845 2650 
498 1 -0.0679891 -0.0387557 -0.0047945 0.000847 -0.73214 -0.150158 10.4485 2650 
45 1 -0.011529 -0.000448205 -0.00543244 0.000847 0.0155993 -0.0174413 -0.0529627 2650 
133 1 -0.00382268 -0.000805026 -0.0058787 0.001312 -0.0021989 -0.00307358 0.00294343 2650 
509 1 -0.068849 -0.014263 -0.0031217 8.4e-05 -0.247033 -0.075383 5.85379 2650 
202 1 -0.00134402 -0.000626703 -0.00300039 0.000847 -0.000325259 -0.00498031 0.00775896 2650 
253 1 -0.0681619 -0.0480285 -0.00076699 0.000847 -0.120238 -0.000350537 10.6781 2650 
150 1 -0.0681617 -0.0474763 0.000937741 0.000847 0.147449 -0.000220739 10.7162 2650 
277 1 -0.0135732 -0.0016889 0.000886958 0.000847 0.00338805 0.00569524 -0.0266496 2650 
173 1 -0.0676651 -0.0519281 0.00234665 0.001312 0.376514 0.0134112 10.8562 2650 
122 1 -0.0681334 -0.0494207 0.00217319 0.000847 0.341195 -0.0036078 10.6958 2650 
100 1 -0.0681375 -0.0455873 0.00204318 0.000847 0.319793 -0.039909 10.6608 2650 
311 1 -0.0687107 -0.016435 0.00306601 0.000233 0.403912 0.0118008 8.82036 2650 
462 1 -0.015769 -0.00219121 0.00264414 0.000847 -0.000259904 -0.00453423 -0.0122608 2650 
350 1 -0.0686275 -0.051715 0.00452356 0.000233 0.699362 -0.034119 10.5575 2650 
421 1 -0.068051 -0.0502043 0.00399903 0.000847 0.628163 -1.67337e-05 10.6894 2650 
308 1 -0.0680718 -0.0484913 0.00366052 0.000847 0.574991 -5.27592e-05 10.6927 2650 
468 1 -0.0686382 -0.0189775 0.00437358 0.000233 0.573797 0.229109 8.99992 2650 
184 1 -0.0688212 -0.00437312 0.00358233 8.4e-05 0.402749 0.416797 7.72891 2650 
41 1 -0.0688201 -0.000397174 0.00361231 8.4e-05 0.432776 0.0925114 8.41462 2650 
166 1 -0.0685786 -0.050833 0.00523094 0.000233 0.820428 0.0540726 10.756 2650 
500 1 -0.0679349 -0.0498677 0.00565513 0.000847 0.888299 2.11694e-06 10.6711 2650 
449 1 -0.0679628 -0.0482061 0.00532671 0.000847 0.836715 1.07491e-05 10.6755 2650 
269 1 -0.067493 -0.0456767 0.0095958 0.000847 1.49964 -0.0399557 10.5451 2650 
487 1 -0.0667572 -0.0341669 0.0137283 0.000847 2.15653 -0.0431891 10.4868 2650 
488 1 -0.066567 -0.0425891 0.0146891 0.000847 2.28256 -0.0243215 10.3439 2650 
92 1 -0.0669062 -0.0191251 0.0159319 0.000233 2.06138 -0.286926 8.60252 2650 
75 1 -0.0670224 -0.0137648 0.0154556 0.000233 1.73553 0.605671 7.5573 2650 
415 1 -0.0662416 -0.0454324 0.0185155 0.000233 2.93826 0.0256552 10.5127 2650 
51 1 -0.064304 -0.018737 0.0243788 0.000233 1.82379 -0.93991 4.89266 2650 
480 1 -0.0604575 -0.00023396 0.0327598 0.000233 3.92209 -0.0118843 7.17657 2650 
456 1 -0.0594452 -0.00864388 0.0345715 0.000233 3.63941 0.640131 6.21124 2650 
506 1 -0.060081 -0.000233105 0.0334444 0.000233 3.99013 0.00231859 7.17523 2650 
10 1 -0.0597768 -0.000233 0.0339947 0.000233 4.05145 -7.45597e-05 7.14582 2650 
127 1 -0.0588058 -0.0414423 0.0355815 0.000233 5.67398 0.0560724 9.37009 2650 
60 1 -0.0583513 -0.0360379 0.035204 0.000847 5.44218 -0.43736 9.02125 2650 
296 1 -0.0584776 -0.0348149 0.0361712 0.000233 5.49112 0.439776 8.87123 2650 
470 1 -0.0557509 -0.00479736 0.0356835 8.4e-05 0.436422 -0.157088 3.38944 2650 
32 1 -0.0570214 -0.037807 0.0373088 0.000847 5.82521 0.189551 8.90712 2650 
360 1 -0.056769 -0.0361804 0.0377161 0.000847 5.92182 0.175903 8.91422 2650 
329 1 -0.0565981 -0.0171133 0.0379738 0.000847 4.7748 0.0356465 7.08791 2650 
157 1 -0.0570869 -0.038911 0.0383045 0.000233 6.00693 0.0660009 8.95345 2650 
81 1 -0.055002 -0.0356343 0.0394648 0.001312 6.19461 0.0299699 8.63363 2650 
117 1 -0.0564327 -0.00200369 0.0392947 0.000233 4.49861 -0.0238419 6.46963 2650 
303 1 -0.0546632 -0.0308501 0.0407157 0.000847 6.12206 -0.0810833 8.22633 2650 
353 1 -0.0559244 -0.00599972 0.0402715 8.4e-05 4.11516 0.599171 5.73657 2650 
290 1 -0.0540873 -0.0464584 0.041472 0.000847 6.5144 0.00155637 8.496 2650 
47 1 -0.0537673 -0.0448493 0.0418945 0.000847 6.57549 0.00468525 8.43885 2650 
338 1 -0.0542261 -0.0439428 0.0422989 0.000233 6.84649 0.0648366 8.77113 2650 
411 1 -0.0538165 -0.0380887 0.0418136 0.000847 6.35003 -0.109621 8.16786 2650 
302 1 -0.0522558 -0.038992 0.0430355 0.001312 6.52953 -0.0210026 7.93525 2650 
264 1 -0.0508176 -0.0560322 0.0454216 0.000847 7.13503 0.000319592 7.98266 2650 
148 1 -0.0489654 -0.0464933 0.0474314 0.000847 7.44965 -0.00604247 7.69043 2650 
111 1 -0.049162 -0.0178241 0.047223 0.000847 6.77918 0.314771 7.05124 2650 
167 1 -0.0452623 -0.0423405 0.0517855 0.000233 8.19793 0.0072394 7.1651 2650 
378 1 -0.0448914 -0.0425926 0.0521094 0.000233 8.04681 -0.0785321 6.92585 2650 
428 1 -0.0462574 -0.0212138 0.0508944 0.000233 6.26844 0.503837 5.70128 2650 
374 1 -0.0411957 -0.00509067 0.0550601 0.000233 2.65225 -0.0959596 1.9464 2650 
473 1 -0.0357519 -0.0508591 0.0580373 0.000847 9.15704 -0.00278898 5.64083 2650 
396 1 -0.0372337 -0.0467449 0.0571037 0.000847 8.85784 -0.131114 5.77507 2650 
209 1 -0.0332024 -0.0159057 0.0602294 0.000233 6.6217 0.626653 3.65028 2650 
341 1 -0.0115945 -0.0592854 0.0666946 0.001312 10.4776 0.00307444 1.82154 2650 
239 1 -0.0139032 -0.0568971 0.0667227 0.000847 10.4742 -0.0497447 2.18272 2650 
334 1 -0.00896221 -0.0560312 0.0675658 0.000847 10.6522 -0.104997 1.41493 2650 
323 1 -0.0134872 -0.0517 0.0674343 0.000233 10.4552 0.0349607 2.09314 2650 
294 1 -0.0108946 -0.0524449 0.0672866 0.000847 10.5691 0.000946291 1.71128 2650 
162 1 -0.0130425 -0.0508541 0.0669029 0.000847 10.5201 -0.0107888 2.05116 2650 
130 1 -0.0147725 -0.00960883 0.0671547 0.000233 5.85352 0.102487 1.21807 2650 
460 1 -0.0052015 -0.0493398 0.0679708 0.000847 10.5992 0.0191696 0.812276 2650 
138 1 -0.00102441 -0.0484672 0.0681646 0.000847 10.6678 -0.0604649 0.159905 2650 
220 1 -0.00127828 -0.0231662 0.0687584 0.000233 9.06497 0.0343342 0.162153 2650 
212 1 -0.000662695 0.00276418 -0.0146807 0.001312 -0.000378321 -0.00288226 -0.00336117 2650 
68 1 -0.00334138 0.00623248 -0.0144823 0.001312 0.00656765 0.00723405 -0.0034973 2650 
357 1 -0.00462056 0.0111912 -0.0150186 0.000847 -0.00356262 0.00740695 0.00116372 2650 
399 1 -0.00680054 0.0221374 -0.0146846 0.000847 0.0145811 0.0154461 -0.00307587 2650 
266 1 -0.00400321 0.00106703 -0.0130956 0.000847 -0.00164881 -0.00742592 -0.00189738 2650 
501 1 -0.00593059 0.00941341 -0.0141027 0.000847 0.00271066 0.00783714 0.00249064 2650 
309 1 -0.00872326 0.014904 -0.0131326 0.000233 -0.0123102 0.020136 -0.0038176 2650 
30 1 -0.0051359 0.0310755 -0.0133765 0.001312 -0.0222447 0.0408615 0.0185442 2650 
359 1 -0.00442583 0.0422282 -0.0138346 0.000847 -0.0105408 0.0538414 0.0225509 2650 
16 1 -0.00542617 0.0505198 -0.0136592 0.001312 -0.00372561 0.0412357 0.00325068 2650 
444 1 -0.00853575 0.00765879 -0.0125152 8.4e-05 -0.00260039 0.00547496 0.00633282 2650 
282 1 -0.0115454 0.00950159 -0.0110733 0.000847 -0.00822499 0.0108293 0.0093945 2650 
439 1 -0.00995496 0.010291 -0.0120972 0.000233 -0.0191289 -0.00266548 -0.0366741 2650 
386 1 -0.00621359 0.0105822 -0.0110592 0.000847 -0.00685813 0.0101085 -0.000664392 2650 
76 1 -0.00749484 0.0152475 -0.0122983 0.000233 -0.00578221 0.011958 0.00483197 2650 
115 1 -0.0103725 0.0174374 -0.0118203 0.000233 0.00203478 0.00995688 0.00306778 2650 
377 1 -0.00542173 0.0480038 -0.0125091 0.000233 -0.00308755 0.0650231 0.0279133 2650 
2 1 -0.00498324 0.00761016 -0.0108659 0.001312 0.00400868 0.00487374 0.00130235 2650 
371 1 -0.0137147 0.0670621 -0.0100224 0.000847 -0.022619 0.0506397 0.0157325 2650 
22 1 -0.0136597 0.00406377 -0.00854763 0.000233 -0.0456577 -0.0598346 -0.031923 2650 
348 1 -0.01183 0.00481388 -0.00883038 0.000233 -0.00855875 -0.000417391 0.0118261 2650 
225 1 -0.00472016 0.0105594 -0.00901561 0.001312 -0.00239701 0.00874648 -0.00124216 2650 
471 1 -0.0106545 0.011898 -0.00925744 0.001312 -0.0317419 0.0139249 -0.0229144 2650 
273 1 -0.0038608 0.0261152 -0.00945817 0.000233 -0.00788291 0.0124072 0.00594868 2650 
15 1 -0.00800531 0.034152 -0.00905531 0.001312 -0.00235194 0.0225075 0.0056031 2650 
147 1 -0.00671618 0.00280877 -0.00696424 0.001312 -0.00155224 -0.00287693 0.000873515 2650 
94 1 -0.0111583 0.00899527 -0.00736095 0.001312 -0.0121466 0.00450737 0.00515639 2650 
37 1 -0.0153408 0.025669 -0.00679786 0.000233 -0.00377412 0.0395869 0.0156966 2650 
177 1 -0.0147103 0.0269002 -0.00661675 0.000847 0.000240407 0.0187778 0.0121389 2650 
91 1 -0.0133107 0.0302825 -0.00767755 0.000233 -0.011194 0.0308527 0.0129891 2650 
77 1 -0.00953648 0.0418801 -0.00641231 0.000233 0.00669575 0.0236814 0.0157679 2650 
31 1 -0.00639975 0.056182 -0.0070605 0.000847 0.0128996 0.0556905 -0.00624527 2650 
237 1 -0.013417 0.0016008 -0.00476748 0.001312 -0.00571909 0.0043721 0.00435753 2650 
178 1 -0.00988349 0.0229884 -0.00630242 0.000847 -0.00942264 0.0138974 -0.0144999 2650 
502 1 -0.0150998 0.0239671 -0.00545982 0.000847 -0.000230871 0.00792682 0.00455104 2650 
331 1 -0.0041584 0.0345314 -0.00577196 0.000847 0.00840645 0.0232594 0.00867855 2650 
66 1 -0.0112693 0.0610114 -0.00602812 0.000233 0.00347261 0.0341619 0.00411013 2650 
407 1 -0.00337435 0.0012339 -0.00421852 0.000847 -0.00271156 -0.00263393 0.00241233 2650 
206 1 -0.000558367 0.00107527 -0.00385365 0.000233 0.000200844 -0.0022057 -0.0101649 2650 
512 1 -0.0110345 0.00191477 -0.00457024 0.000847 0.00181701 0.00186869 0.0122245 2650 
158 1 -0.0107449 0.00367148 -0.00354887 8.4e-05 0.00188877 -0.00284778 0.00557992 2650 
17 1 -0.00428704 0.00333612 -0.00370773 0.000847 -0.00529384 -0.000624951 0.00099193 2650 
149 1 -0.00583073 0.0106386 -0.00356123 0.000847 0.00533574 0.00120564 0.000572163 2650 
373 1 -0.0153571 0.0123156 -0.00392175 0.000847 0.000337109 0.0216316 -0.00631221 2650 
387 1 -0.00701829 0.0244157 -0.0035484 0.000233 0.0389518 0.0686426 -0.046664 2650 
199 1 -0.0150479 0.0269158 -0.00394413 0.001312 0.00216724 0.0161104 0.00517981 2650 
198 1 -0.0153689 0.00600573 -0.00162567 0.001312 -0.00588684 -0.00188959 0.0126317 2650 
204 1 -0.0149323 0.0240617 -0.0019648 0.000847 0.00121054 0.0124535 0.0137872 2650 
391 1 -0.0158537 0.028561 -0.00199316 0.000233 0.00226461 0.0200531 0.0160982 2650 
355 1 -0.0135738 0.00926311 -0.001344 0.000847 0.00437228 0.0104751 -0.0043935 2650 
217 1 -0.0148063 0.0394921 -0.000163607 0.000847 0.00743731 0.032403 0.00336557 2650 
211 1 -0.00727817 0.0397451 -0.00132293 0.001312 -0.0377898 0.0415283 0.00180384 2650 
72 1 -0.00366106 0.0671379 -0.000546404 0.000847 0.00694298 0.0370303 0.0147661 2650 
515 1 -0.0133137 0.0116345 0.000256557 0.000847 0.000192831 0.00432954 -0.00558707 2650 
121 1 -0.00908636 0.0117908 0.000705844 0.001312 0.0113437 0.00558656 0.00250698 2650 
7 1 -0.0109692 0.0319554 0.00113585 0.000847 0.00509742 0.0248497 0.013646 2650 
345 1 -7.57211e-05 0.00681171 0.00242597 0.000847 0.0102698 0.00604929 0.00457735 2650 
156 1 -0.00825134 0.01205 0.0026253 0.000233 0.0117738 0.00676262 0.00472854 2650 
457 1 -0.00388259 0.024863 0.00265084 8.4e-05 0.00209197 0.0125772 -0.0227291 2650 
511 1 -0.0138928 0.0473148 0.00306266 0.000847 0.00146079 0.0210985 -0.0127999 2650 
482 1 -0.0163818 0.0667192 0.00170302 0.000233 -0.00272 0.0425188 0.0154078 2650 
450 1 -0.00459809 0.00296591 0.00331488 0.000847 0.0141697 0.00366662 0.00769839 2650 
186 1 -0.0082607 0.00434571 0.00388941 0.001312 0.0110093 -0.000918863 0.00524694 2650 
467 1 -0.0152045 0.00518575 0.00322311 0.000233 0.00666977 0.00283463 0.00629942 2650 
5 1 -0.00639082 0.0145413 0.00448726 0.000847 0.0159354 0.00855543 0.0196475 2650 
440 1 -0.00737867 0.00148079 0.00566011 0.000233 0.00893327 0.00123303 0.0100401 2650 
301 1 -0.00592169 0.00390345 0.00553856 8.4e-05 -0.00542456 -0.000958437 0.00851575 2650 
291 1 -0.00126193 0.00762109 0.00619186 0.000847 0.000368443 -0.000878557 -0.00367841 2650 
214 1 -0.00729001 0.0258723 0.00631535 0.000847 0.0140272 0.0148951 0.00243728 2650 
299 1 -0.0152368 0.0403296 0.0061296 0.000233 0.0153724 0.0433476 -0.0153898 2650 
63 1 -0.00293631 0.0688575 0.00545515 0.000233 0.00544067 0.0487134 -0.0167697 2650 
168 1 -0.00718537 0.00465462 0.0078394 0.000233 0.010374 0.000533782 0.0120746 2650 
226 1 -0.00354051 0.0297576 0.00759462 0.000847 0.00127411 0.0241147 0.0153454 2650 
518 1 -0.0143416 0.00598796 0.00818118 0.000233 -0.00455624 0.0103112 -0.00628034 2650 
451 1 -0.00830267 0.00880257 0.00889811 0.000847 0.0101382 0.00361366 0.00843172 2650 
21 1 -0.00376948 0.0322822 0.0081783 0.000847 -0.0069999 0.0351848 0.0278242 2650 
213 1 -0.0130272 0.0371563 0.00924717 0.000847 0.0193976 0.00450933 0.0228095 2650 
262 1 -0.0119592 0.0617547 0.00919541 8.4e-05 0.016947 0.0454576 0.00941551 2650 
222 1 -0.0112839 0.032004 0.0101832 0.000233 0.0205794 0.0022401 -0.00426972 2650 
503 1 -0.0103854 0.0353372 0.0100043 0.000233 0.0275154 0.0239428 0.00958867 2650 
164 1 -0.00275511 0.00201275 0.012386 0.000847 0.0199672 0.00075341 -0.00413055 2650 
112 1 -0.00222257 0.0182973 0.012029 0.000847 0.0214954 0.016828 -0.00423595 2650 
153 1 -0.0119222 0.0300847 0.0111941 0.000233 0.0193183 0.0172264 0.0222012 2650 
80 1 -0.00721841 0.0342717 0.011334 8.4e-05 -0.0125032 0.0188644 0.0118682 2650 
390 1 -0.00242335 0.0145741 0.0130688 0.000233 -0.00350245 0.00582576 -0.00125219 2650 
29 1 -0.00156842 0.0216285 0.0137205 0.001312 0.0039704 0.0255386 0.0186034 2650 
79 1 -0.0023743 0.0369057 0.0132695 0.000233 0.024023 0.0379512 -0.00347318 2650 
472 1 -0.000451219 0.0200918 0.0152018 0.000847 0.00196825 0.00956292 0.0179696 2650 
510 1 -0.0017686 0.0334092 0.015199 0.001312 -0.0176331 0.0316852 -0.00746164 2650 
437 1 -0.00872197 0.0943797 0.00360222 0.000847 -0.00719255 0.0835002 -0.0252935 2650 
319 1 -0.00226464 0.118492 0.0123325 0.000847 0.00321502 0.103152 0.00477754 2650 
320 1 0.00499088 -0.0478541 -0.0679747 0.000847 -10.6774 3.19419e-05 -0.783964 2650 
270 1 0.0105089 -0.0257802 -0.0679587 0.000233 -10.3008 0.534818 -1.59379 2650 
180 1 0.00455443 -0.0170315 -0.0686148 0.000233 -8.7681 -0.00497901 -0.590253 2650 
496 1 0.0019515 -0.0126715 -0.0688862 8.4e-05 -8.59879 -0.595218 -0.243761 2650 
113 1 0.010037 -0.0505457 -0.0674193 0.000847 -10.5752 -0.000250495 -1.57409 2650 
330 1 0.0134354 -0.0485447 -0.0668294 0.000847 -10.5386 0.0226084 -2.11873 2650 
486 1 0.0139119 -0.0469104 -0.0667344 0.000847 -10.4827 0.00562779 -2.1852 2650 
134 1 0.0040554 -0.0448646 -0.0675749 0.001312 -10.6136 -0.00122509 -0.636934 2650 
160 1 0.0111945 -0.0329797 -0.0667603 0.001312 -10.2002 -0.0168301 -1.71362 2650 
141 1 0.0153909 -0.0326344 -0.0670202 0.000233 -10.252 -0.532911 -2.35332 2650 
397 1 0.00931923 -0.0317191 -0.067517 0.000847 -10.3564 0.0142144 -1.42793 2650 
110 1 0.0113208 -0.0297729 -0.0672089 0.000847 -10.215 0.0270158 -1.71999 2650 
274 1 0.0134467 -0.00781702 -0.0674439 0.000233 -8.08598 -0.339677 -1.62794 2650 
11 1 0.0106656 -0.00186671 -0.0679333 0.000233 -10.6583 -0.539565 -1.67378 2650 
189 1 0.0171075 -0.0523201 -0.065984 0.000847 -10.3643 0.00396423 -2.68711 2650 
380 1 0.0156932 -0.0498096 -0.0658656 0.001312 -10.3433 -0.00511566 -2.46433 2650 
241 1 0.0176913 -0.0506266 -0.0658329 0.000847 -10.3343 0.00429862 -2.77713 2650 
489 1 0.0192455 -0.0487459 -0.0653984 0.000847 -10.2701 -0.000113476 -3.02229 2650 
315 1 0.0154264 -0.0455988 -0.06593 0.001312 -10.3534 0.00191225 -2.42256 2650 
175 1 0.0165187 -0.0437482 -0.0661379 0.000847 -10.3867 0.00228423 -2.59414 2650 
519 1 0.0184887 -0.0406322 -0.0662423 0.000233 -10.438 0.172494 -2.9123 2650 
281 1 0.019276 -0.0317906 -0.0653739 0.000847 -10.0405 0.0696641 -2.96128 2650 
70 1 0.0182282 -0.0296308 -0.0656729 0.000847 -10.2638 0.0354348 -2.84862 2650 
431 1 0.0231389 -0.0294317 -0.0649125 8.4e-05 -9.66698 0.729065 -3.44899 2650 
248 1 0.0190047 -0.00347487 -0.0660864 0.000233 -8.364 0.202545 -2.40956 2650 
463 1 0.0215217 -0.0496575 -0.0646843 0.000847 -10.1619 0.000383552 -3.38102 2650 
84 1 0.0222195 -0.0480523 -0.0644492 0.000847 -10.1183 0.00262848 -3.48832 2650 
288 1 0.0261187 -0.0453368 -0.0637902 8.4e-05 -9.57445 -0.302913 -3.92037 2650 
208 1 0.0253239 -0.0366848 -0.063933 0.000233 -9.676 0.0349417 -3.83361 2650 
402 1 0.0248644 -0.0185222 -0.0641286 0.000233 -7.74476 -0.162304 -3.00473 2650 
102 1 0.0290045 -0.0362994 -0.0623492 0.000233 -10.156 -0.183944 -4.72564 2650 
366 1 0.0299016 -0.0333978 -0.0620882 8.4e-05 -9.32609 -0.329697 -4.48776 2650 
4 1 0.0311033 -0.0414867 -0.0606543 0.000847 -9.44623 0.00873645 -4.84412 2650 
154 1 0.0325709 -0.0359993 -0.0605625 0.000233 -9.20165 0.240784 -4.9447 2650 
152 1 0.0347775 -0.0301732 -0.0586163 0.000847 -8.74718 -0.003732 -5.19136 2650 
426 1 0.0349554 -0.0209676 -0.0592263 0.000233 -9.18506 0.638578 -5.422 2650 
344 1 0.0370548 -0.0618702 -0.0572044 0.000847 -8.98773 0.00152497 -5.82195 2650 
289 1 0.0350353 -0.0333338 -0.0579268 0.001312 -8.71271 0.129905 -5.27246 2650 
364 1 0.0372502 -0.0291887 -0.0578028 0.000233 -8.54623 0.133109 -5.50597 2650 
490 1 0.0371488 -0.0224449 -0.0578697 0.000233 -7.21041 -0.057519 -4.61726 2650 
297 1 0.0399401 -0.0284512 -0.0559782 0.000233 -8.31896 0.0174071 -5.93326 2650 
54 1 0.03953 -0.0208313 -0.0564517 8.4e-05 -7.87881 0.147029 -5.5172 2650 
104 1 0.0396996 -0.000492303 -0.0561494 0.000233 -4.64294 -0.0991711 -3.29818 2650 
182 1 0.0415146 -0.0315162 -0.0548219 0.000233 -8.4121 -0.38012 -6.37258 2650 
144 1 0.0414872 -0.030033 -0.0548425 0.000233 -8.21806 -0.0733378 -6.21479 2650 
494 1 0.041683 -0.0283314 -0.0546928 0.000233 -8.28284 0.27845 -6.31432 2650 
161 1 0.0434201 -0.0312879 -0.0525348 0.000847 -7.87661 0.0790385 -6.5025 2650 
284 1 0.0445992 -0.023105 -0.0523439 0.000233 -7.28375 0.156817 -6.20489 2650 
172 1 0.0428436 -0.0207467 -0.0524139 0.001312 -7.325 -0.00539617 -6.0359 2650 
292 1 0.0442699 -0.026005 -0.0518198 0.000847 -2.39361 -0.830841 -2.02416 2650 
69 1 0.0446742 -0.0226374 -0.0508412 0.001312 -7.10005 0.0576911 -6.19671 2650 
95 1 0.0446931 -0.0195497 -0.0507899 0.001312 -7.21391 -0.0748549 -6.29503 2650 
307 1 0.0451993 -0.0173232 -0.0509634 0.000847 -7.08365 -0.0866244 -6.25179 2650 
236 1 0.045799 -0.0152616 -0.0514421 8.4e-05 -7.52076 2.12586 -6.679 2650 
123 1 0.0464967 -0.0325828 -0.0498337 0.000847 -7.49257 -0.129085 -6.96687 2650 
522 1 0.0501534 -0.00327699 -0.047254 8.4e-05 -5.47261 -0.115102 -5.811 2650 
249 1 0.0522674 -0.0214762 -0.0449126 8.4e-05 -6.34399 1.29019 -7.40595 2650 
201 1 0.052527 -0.0394665 -0.0434379 0.000847 -6.82701 -0.0133056 -8.2552 2650 
82 1 0.0510316 -0.0380874 -0.0444851 0.001312 -6.98889 0.00501309 -8.01754 2650 
203 1 0.0529419 -0.0367055 -0.0429262 0.000847 -6.68419 -0.0484557 -8.24442 2650 
347 1 0.05195 -0.0358156 -0.0441195 0.000847 -6.94348 -0.112635 -8.17703 2650 
90 1 0.0533528 -0.0246437 -0.0433869 0.000233 -6.33176 0.36469 -7.7954 2650 
120 1 0.0532757 -0.0406274 -0.0417787 0.001312 -6.55601 0.0106847 -8.36071 2650 
314 1 0.054049 -0.0396039 -0.0427635 8.4e-05 -6.65939 0.247151 -8.4165 2650 
442 1 0.0542885 -0.03846 -0.0422143 0.000233 -6.63543 0.0656506 -8.53328 2650 
36 1 0.0538312 -0.00544989 -0.0427862 0.000233 -5.89289 -0.683068 -7.41131 2650 
432 1 0.0548589 -0.0450789 -0.039689 0.001312 -6.25894 -0.00593987 -8.65119 2650 
250 1 0.0549939 -0.0423498 -0.0394955 0.001312 -6.19418 0.0265134 -8.62549 2650 
349 1 0.0562034 -0.0298078 -0.0396193 0.000233 -6.14927 -0.148841 -8.72479 2650 
151 1 0.0561823 -0.0280337 -0.0385808 0.000847 -5.71338 -0.123726 -8.32091 2650 
242 1 0.0561516 -0.0236066 -0.0386372 0.000847 -5.44378 0.196214 -7.93856 2650 
492 1 0.0573667 -0.0259823 -0.037915 0.000233 -5.54341 0.0660622 -8.38836 2650 
61 1 0.0572859 -0.0244109 -0.0369304 0.000847 -5.19099 -0.0654214 -8.05473 2650 
280 1 0.0589761 -0.0446878 -0.0341936 0.000847 -5.40158 -0.11486 -9.31647 2650 
230 1 0.0623352 -0.0433406 -0.0275912 0.000847 -4.34162 0.0331815 -9.80908 2650 
267 1 0.0630293 -0.0436836 -0.0259625 0.000847 -4.07559 -0.02107 -9.8944 2650 
59 1 0.0639766 -0.0482839 -0.0235311 0.000847 -3.69725 -0.00311249 -10.0519 2650 
244 1 0.0649792 -0.00879986 -0.0225203 0.000233 -1.16723 -0.165762 -3.34026 2650 
85 1 0.0650132 -0.0445414 -0.0204775 0.000847 -3.2259 0.00887594 -10.2421 2650 
140 1 0.0662504 -0.0180141 -0.0184418 0.000233 -2.64757 -0.116439 -9.50993 2650 
483 1 0.0666855 -0.0107756 -0.017388 8.4e-05 -2.22832 0.0755895 -8.52921 2650 
210 1 0.000841876 -0.00269455 -0.0167239 8.4e-05 -0.0100923 -0.00705442 -0.000399252 2650 
53 1 0.067188 -0.012775 -0.0146444 0.000233 -1.85796 -0.514625 -8.4965 2650 
395 1 0.00294407 -0.0018561 -0.0142117 0.000847 0.00509824 -0.00223179 0.00216209 2650 
356 1 0.000801108 -0.00134422 -0.0144539 0.000847 -7.48654e-05 -0.00579622 -0.00143001 2650 
67 1 0.0676683 -0.00966461 -0.0130495 8.4e-05 -1.60089 0.221783 -8.38183 2650 
343 1 0.0667273 -0.00898213 -0.0138764 0.000847 -1.81054 0.00965802 -8.73106 2650 
438 1 0.00785945 -0.00055349 -0.0129641 0.000847 -0.00816544 -0.00306936 -0.0220968 2650 
224 1 0.00297546 -0.00325483 -0.0123069 0.001312 0.00440762 -0.00590734 0.000702176 2650 
466 1 0.0679175 -0.00737698 -0.0107246 0.000233 -1.22153 -0.339398 -7.5988 2650 
207 1 0.0316638 -0.00490577 -0.00833488 0.000233 4.28343 -0.207802 -1.09654 2650 
183 1 0.0682138 -0.00160399 -0.00869015 0.000233 -1.17577 0.191115 -9.19032 2650 
336 1 0.00548194 -0.000354748 -0.00945561 0.000233 0.00789915 -0.00106843 0.00245482 2650 
393 1 0.0672073 -0.0304383 -0.00811837 0.001312 -1.25959 -0.0136029 -10.4418 2650 
400 1 0.008609 -0.00329172 -0.006808 0.000233 0 -0.011754 0 2650 
405 1 0.00325703 -0.00329664 -0.00562333 8.4e-05 0.0025106 -0.0076758 0.00495174 2650 
245 1 0.0685883 -0.0162789 -0.00469795 0.000233 -0.454724 -0.0656451 -6.25291 2650 
265 1 0.00547072 -0.0029007 -0.00335597 0.000847 -0.00161831 -0.00717065 -0.0105314 2650 
8 1 0.00832944 -0.00164882 -0.00380542 0.000233 0.00301488 -0.00587201 -0.00977112 2650 
312 1 0.0687001 -0.0295857 -0.00300725 0.000233 -0.421314 -0.0519361 -9.75604 2650 
39 1 0.000701227 -0.000238098 0.00130325 0.000233 -0.0126184 -0.00557583 0.0065332 2650 
35 1 0.00437806 -0.000194116 0.00532131 0.000847 -0.0121953 -9.57773e-05 0.00420749 2650 
219 1 0.0684985 -0.0206811 0.00616843 0.000233 0.749106 0.538526 -8.38359 2650 
271 1 0.0683477 -0.00422825 0.00755731 0.000233 0.900706 -0.520949 -8.23976 2650 
446 1 0.0675586 -0.0066065 0.00902033 0.000847 1.06315 -0.249567 -8.07868 2650 
352 1 0.00417899 -0.00150117 0.00931506 0.000233 -0.00581366 -0.00941981 -0.000498216 2650 
86 1 0.0131049 -0.000225793 0.00904717 0.000847 -0.0118389 -0.00256384 0.0168813 2650 
252 1 0.0072479 -0.000432004 0.00996255 0.000847 0.000408733 -0.00473082 -0.0109231 2650 
89 1 0.003537 -0.00326572 0.012461 0.000233 0 -0.011754 0 2650 
176 1 0.00607297 -0.00262997 0.0117705 0.000847 0.00761816 -0.00329714 -0.00812013 2650 
479 1 0.0675288 -0.00539896 0.0129842 0.000233 1.51165 0.178528 -7.85128 2650 
129 1 0.0669502 -0.0127771 0.0157636 0.000233 2.20557 0.0282682 -9.34418 2650 
454 1 0.0658032 -0.0418713 0.0199996 0.000233 2.61661 -0.764941 -8.61575 2650 
259 1 0.0652067 -0.0361133 0.0218362 0.000233 3.36363 0.279599 -10.0458 2650 
358 1 0.0632498 -0.0543657 0.0254005 0.000847 3.98985 0.000326146 -9.9351 2650 
125 1 0.0619269 -0.0381094 0.0284663 0.000847 4.34006 0.0621536 -9.44409 2650 
9 1 0.0624493 -0.0277819 0.028789 0.000233 4.09093 0.224838 -8.86106 2650 
361 1 0.0622093 -0.0159369 0.0293086 0.000233 4.15853 0.0412637 -8.83144 2650 
65 1 0.0617045 -0.00200606 0.0303537 0.000233 4.08627 0.0601891 -8.28853 2650 
459 1 0.0599226 -0.0354719 0.0324746 0.000847 4.62955 -0.624711 -8.62339 2650 
193 1 0.060689 -0.0304924 0.0323387 0.000233 4.3017 -0.474809 -8.04016 2650 
56 1 0.0585804 -0.0340166 0.0339298 0.001312 4.90853 -0.140867 -8.4727 2650 
447 1 0.0581249 -0.0200843 0.035591 0.000847 5.05312 -0.0894769 -8.24855 2650 
24 1 0.0567821 -0.0228131 0.0387887 0.000233 5.46429 -0.353435 -7.99849 2650 
205 1 0.0575051 -0.019866 0.0377081 0.000233 5.2456 0.0215529 -7.99267 2650 
145 1 0.0572022 -0.00168628 0.0384351 8.4e-05 3.3606 0.0530906 -4.98746 2650 
12 1 0.0568703 -0.00107063 0.0386606 0.000233 4.56091 0.0977787 -6.69998 2650 
28 1 0.0540302 -0.00627206 0.0427815 8.4e-05 4.89794 -0.0840729 -6.22633 2650 
423 1 0.0497426 -0.0338618 0.0465899 0.000847 7.04533 -0.235183 -7.51991 2650 
119 1 0.0516554 -0.00128004 0.0456163 8.4e-05 5.23009 -0.0474001 -5.95845 2650 
174 1 0.0482232 -0.0296237 0.0481599 0.000847 7.24127 -0.0942705 -7.2511 2650 
324 1 0.0495231 -0.00385157 0.0477084 0.000233 5.79353 -0.0537115 -5.99851 2650 
74 1 0.046352 -0.0308972 0.0499678 0.000847 7.46661 -0.208488 -6.92736 2650 
114 1 0.0449346 -0.0199838 0.052069 0.000233 7.24309 0.7117 -6.24781 2650 
339 1 0.0435971 -0.00568154 0.0531797 0.000233 4.06095 -0.0640976 -3.34986 2650 