ITEM: TIMESTEP
25158799
ITEM: NUMBER OF ATOMS
461
ITEM: BOX BOUNDS ff ff ff
-0.15 0.15
-0.15 0.15
-0.15 0.15
ITEM: ATOMS id type x y z radius vx vy vz density 
229 1 -0.0038385 -0.0277089 -0.0680426 0.000847 -10.2196 -0.0754137 0.575278 2650 
50 1 -0.00747316 -0.026208 -0.0683572 0.000233 -10.2402 -0.230005 1.11612 2650 
426 1 -0.018109 -0.0299742 -0.0663399 0.000233 -10.143 -0.0703251 2.77564 2650 
182 1 -0.0177831 -0.0302968 -0.0664265 0.000233 -10.1652 -0.082046 2.722 2650 
85 1 -0.0207215 -0.0446297 -0.0649367 0.000847 -10.2002 0.00597793 3.25482 2650 
123 1 -0.0172232 -0.0350367 -0.0659428 0.000847 -10.5418 0.0104671 2.75105 2650 
443 1 -0.0215117 -0.0215979 -0.0653192 0.000233 -9.79133 -0.117139 3.22765 2650 
522 1 -0.0199785 -0.00532747 -0.0659554 8.4e-05 -7.84912 0.169237 2.37455 2650 
59 1 -0.0235134 -0.0482808 -0.0639832 0.000847 -10.0504 -0.000273158 3.69349 2650 
267 1 -0.0258975 -0.0436472 -0.0630571 0.000847 -9.90533 -0.00194882 4.06816 2650 
230 1 -0.0276728 -0.0433563 -0.062299 0.000847 -9.78651 -0.000133685 4.3471 2650 
314 1 -0.0287097 -0.0373758 -0.0626519 8.4e-05 -9.7345 -0.215813 4.45948 2650 
231 1 -0.0303978 -0.0246453 -0.061684 0.000233 -9.33222 -0.135027 4.59866 2650 
161 1 -0.0312151 -0.0329952 -0.0605853 0.000847 -9.30004 -0.0934435 4.79265 2650 
448 1 -0.0306348 -0.028593 -0.0608812 0.000847 -9.37688 -0.00472431 4.71731 2650 
466 1 -0.0320071 -0.0097805 -0.0608741 0.000233 -7.94663 0.158565 4.17329 2650 
442 1 -0.0344761 -0.0408353 -0.0595092 0.000233 -9.29205 0.0745859 5.38323 2650 
146 1 -0.0342998 -0.0303173 -0.0583633 0.001312 -9.2053 0.0841445 5.40907 2650 
280 1 -0.0360965 -0.0473933 -0.0578318 0.000847 -9.05009 0.00385429 5.64985 2650 
203 1 -0.0379149 -0.0426819 -0.0566508 0.000847 -8.91514 -0.0176223 5.96701 2650 
329 1 -0.0360992 -0.0292615 -0.0578083 0.000847 -9.11318 0.0930874 5.69099 2650 
433 1 -0.0367747 -0.0273459 -0.0573828 0.000847 -8.61783 0.0890522 5.53108 2650 
479 1 -0.0388894 -0.0107324 -0.056726 0.000233 -7.25508 0.0234362 4.96872 2650 
509 1 -0.0389503 -0.00065795 -0.0568505 8.4e-05 -6.13217 0.95049 4.20738 2650 
250 1 -0.0395063 -0.0423509 -0.0549866 0.001312 -8.63693 -0.00365065 6.20548 2650 
376 1 -0.0405895 -0.0314115 -0.0555107 0.000233 -8.80015 0.131863 6.43039 2650 
432 1 -0.0395991 -0.0452844 -0.054924 0.001312 -8.62656 0.000585864 6.21955 2650 
499 1 -0.0421645 -0.0256404 -0.053547 0.000847 -8.09374 -0.0594729 6.37022 2650 
120 1 -0.0417605 -0.0406179 -0.0532903 0.001312 -8.37086 -2.7414e-05 6.55976 2650 
201 1 -0.0434227 -0.0394627 -0.0525396 0.000847 -8.25287 0.000110041 6.8208 2650 
347 1 -0.0440976 -0.0361798 -0.0519691 0.000847 -8.16324 -6.2024e-05 6.9268 2650 
82 1 -0.0444681 -0.0380961 -0.0510462 0.001312 -8.0183 -4.74643e-05 6.98501 2650 
154 1 -0.0472653 -0.0305646 -0.0499475 0.000233 -7.67956 0.373735 7.27555 2650 
281 1 -0.0497157 -0.0349536 -0.0466232 0.000847 -7.12693 -0.0259371 7.60343 2650 
219 1 -0.0513895 -0.0235888 -0.0456682 0.000233 -5.85124 0.174105 6.63345 2650 
220 1 -0.050593 -0.0238545 -0.0465381 0.000233 -6.65867 -0.00477605 7.23745 2650 
313 1 -0.0504465 -0.0210425 -0.0466339 0.000233 -6.73409 0.24265 7.30087 2650 
289 1 -0.051834 -0.0309846 -0.0436512 0.001312 -6.85671 1.97936e-06 8.14207 2650 
397 1 -0.0541896 -0.0332172 -0.0413321 0.000847 -6.39671 -0.0356036 8.38752 2650 
374 1 -0.0552406 -0.00811795 -0.040953 0.000233 -5.54768 0.465854 7.48983 2650 
344 1 -0.0571902 -0.0618744 -0.0370764 0.000847 -5.82344 -0.000575288 8.98267 2650 
51 1 -0.058095 -0.0318393 -0.0367948 0.000233 -5.7955 0.0765789 9.15029 2650 
152 1 -0.0573886 -0.0309045 -0.0367769 0.000847 -5.8023 0.0333586 9.05313 2650 
519 1 -0.0591888 -0.0382387 -0.0350059 0.000233 -5.44752 0.0194249 9.21305 2650 
70 1 -0.0583551 -0.0320986 -0.0352141 0.000847 -5.54811 -0.0229841 9.19417 2650 
405 1 -0.058852 -0.000533522 -0.0358555 8.4e-05 -5.42954 -0.0938013 8.91198 2650 
434 1 -0.0589669 -0.0308922 -0.0341946 0.000847 -5.36956 0.0123064 9.25955 2650 
521 1 -0.059905 -0.00848885 -0.0340777 8.4e-05 -3.9641 0.0083516 6.9549 2650 
102 1 -0.0606903 -0.0418656 -0.0323451 0.000233 -5.15021 -0.176214 9.66177 2650 
110 1 -0.0600544 -0.0308124 -0.0322432 0.000847 -5.09107 0.0530795 9.48526 2650 
117 1 -0.0625725 -0.000341711 -0.0285208 0.000233 -3.02022 -0.00597371 6.63854 2650 
208 1 -0.0634044 -0.0373063 -0.0266242 0.000233 -4.11604 -0.350182 9.79919 2650 
4 1 -0.0633582 -0.0455382 -0.0251616 0.000847 -3.96914 0.0106294 9.99564 2650 
88 1 -0.0636472 -0.0245395 -0.0260398 0.000233 -4.02564 0.120161 9.83674 2650 
93 1 -0.0642878 -8.40468e-05 -0.0248252 8.4e-05 -2.65771 -0.000379416 6.85382 2650 
84 1 -0.0644463 -0.048053 -0.0222284 0.000847 -3.49111 -0.000322218 10.1218 2650 
463 1 -0.0646765 -0.0496527 -0.0215455 0.000847 -3.38448 -0.000132358 10.1598 2650 
235 1 -0.0657746 -0.0397383 -0.020082 0.000233 -3.10157 0.179406 10.1595 2650 
489 1 -0.0653941 -0.0487355 -0.0192608 0.000847 -3.02561 0.00062066 10.2725 2650 
22 1 -0.0657082 -0.00550478 -0.0202779 0.000233 -0.969902 -0.0991563 3.13659 2650 
189 1 -0.0659878 -0.0521664 -0.0170941 0.000847 -2.6851 6.41487e-05 10.3652 2650 
241 1 -0.0658216 -0.0506065 -0.0177334 0.000847 -2.78556 0.000115824 10.3392 2650 
160 1 -0.0654237 -0.0410571 -0.0174257 0.001312 -2.71236 -0.0635203 10.1927 2650 
380 1 -0.0658606 -0.0498445 -0.0157138 0.001312 -2.46832 1.57989e-06 10.3454 2650 
288 1 -0.066984 -0.0487749 -0.0162538 8.4e-05 -2.58421 0.246542 10.6441 2650 
315 1 -0.0659275 -0.0456106 -0.0154359 0.001312 -2.42466 4.34981e-05 10.3559 2650 
175 1 -0.0661338 -0.0437638 -0.016535 0.000847 -2.59751 0.000461705 10.389 2650 
486 1 -0.0665798 -0.0481193 -0.0146333 0.000847 -2.2986 7.71412e-05 10.4582 2650 
384 1 -0.00670617 -0.00110165 -0.0145593 0.000847 0.0313986 0.000609796 -0.0169711 2650 
469 1 -0.00596006 -0.000245342 -0.0154085 0.000233 0.0278279 0.00160796 -0.0228433 2650 
412 1 -0.000410619 -0.000137793 -0.0142747 0.000847 -0.00361608 -0.00480485 -0.000872785 2650 
330 1 -0.0668659 -0.0490527 -0.0132491 0.000847 -2.07973 -0.000324308 10.504 2650 
45 1 -0.00840457 -0.00347385 -0.0136924 0.000847 0.0259626 -0.107316 -0.047047 2650 
266 1 -0.00428351 -0.000195361 -0.0134181 0.000847 -0.00164881 -0.00742592 -0.00189738 2650 
392 1 -0.00809319 -0.000646587 -0.0117272 8.4e-05 -0.00068915 -0.00349539 -0.00139054 2650 
113 1 -0.0674186 -0.0505447 -0.0100436 0.000847 -1.57779 9.75523e-05 10.591 2650 
446 1 -0.0677401 -0.0176705 -0.00755145 0.000847 -1.04112 -0.000108699 9.28828 2650 
169 1 -0.0684486 -0.0430735 -0.00661646 0.000233 -1.03768 0.411282 10.7272 2650 
320 1 -0.0679733 -0.0478535 -0.00500975 0.000847 -0.786928 -3.75843e-05 10.6772 2650 
133 1 -0.00419649 -0.00132753 -0.00537832 0.001312 -0.0021989 -0.00307358 0.00294343 2650 
134 1 -0.067574 -0.0448619 -0.00407193 0.001312 -0.639614 -7.79899e-06 10.6144 2650 
277 1 -0.0129973 -0.000720717 -0.00364343 0.000847 0.00338805 0.00569524 -0.0266496 2650 
202 1 -0.00139931 -0.00147335 -0.00168138 0.000847 -0.000325259 -0.00498031 0.00775896 2650 
381 1 -0.068267 -0.0309759 -0.000129413 0.000847 -0.0203282 1.77342e-07 10.7233 2650 
65 1 -0.0687661 -0.00597122 -0.000144302 0.000233 -0.0195737 0.175538 9.1754 2650 
41 1 -0.0689113 -0.00399375 -0.000725946 8.4e-05 -0.0582886 0.071118 7.25427 2650 
462 1 -0.0158132 -0.00296202 0.000559835 0.000847 -0.000259904 -0.00453423 -0.0122608 2650 
247 1 -0.0687025 -0.0332139 0.00297387 0.000233 0.463449 -0.40501 10.7149 2650 
39 1 -0.00144387 -0.00118598 0.00241388 0.000233 -0.0126184 -0.00557583 0.0065332 2650 
400 1 -0.0683709 -0.0300006 0.00736504 0.000233 1.20161 0.255121 11.1542 2650 
53 1 -0.0680644 -0.0119151 0.00970716 0.000233 1.28822 -0.23976 8.95928 2650 
353 1 -0.0682482 -0.00969293 0.00957346 8.4e-05 1.05161 0.21409 7.72286 2650 
429 1 -0.068183 -0.0090733 0.00891515 0.000233 1.10141 -0.101109 8.08712 2650 
339 1 -0.0681293 -0.000707549 0.0093343 0.000233 1.0103 -0.0289778 7.37494 2650 
205 1 -0.0678073 -0.0200025 0.0114345 0.000233 1.55173 0.115235 9.13354 2650 
104 1 -0.0678752 -0.0142749 0.0110463 0.000233 1.61973 0.883347 9.8037 2650 
9 1 -0.0674307 -0.0275673 0.0134713 0.000233 1.7617 0.0164997 8.87293 2650 
483 1 -0.0676299 -0.0103052 0.0132702 8.4e-05 1.71261 -0.0893718 8.79136 2650 
271 1 -0.0671058 -0.00772882 0.015037 0.000233 2.01934 -0.259259 9.04965 2650 
304 1 -0.0661134 -0.0440562 0.0166127 0.000847 2.6117 0.00722888 10.3932 2650 
274 1 -0.0650565 -0.00802062 0.0223004 0.000233 2.8145 0.0877172 8.20565 2650 
111 1 -0.0641643 -0.016764 0.0230278 0.000847 3.3917 0.00516868 9.47321 2650 
318 1 -0.062016 -0.049329 0.0283044 0.000847 4.44554 -0.000102653 9.74031 2650 
118 1 -0.0626701 -0.0233058 0.0283162 0.000233 3.97689 -0.000961716 8.78717 2650 
456 1 -0.062049 -0.0118755 0.02967 0.000233 3.41501 -0.106703 7.09578 2650 
306 1 -0.0607804 -0.0317362 0.0308377 0.000847 4.84997 -0.0317261 9.55844 2650 
458 1 -0.0521103 -0.061488 0.0432146 0.001312 6.78812 -3.4689e-10 8.18547 2650 
46 1 -0.0516441 -0.0474826 0.0444775 0.000847 6.98617 0.00135379 8.11187 2650 
183 1 -0.0536411 -0.0170429 0.0430281 0.000233 5.78336 0.214805 7.21154 2650 
20 1 -0.050179 -0.0486717 0.0461233 0.000847 7.24969 -0.00976308 7.88708 2650 
185 1 -0.049966 -0.0391652 0.0456752 0.001312 7.1746 -0.000781125 7.8486 2650 
190 1 -0.0500451 -0.0618124 0.0462702 0.000847 7.26805 -4.31217e-05 7.86101 2650 
19 1 -0.0486864 -0.0617599 0.0476978 0.000847 7.4925 1.25182e-05 7.6478 2650 
445 1 -0.0492913 -0.0417671 0.046403 0.001312 7.29041 0.0103465 7.74451 2650 
78 1 -0.0507415 -0.0380504 0.046412 0.000233 7.27088 -0.000401721 7.94937 2650 
18 1 -0.0495191 -0.0353434 0.0468316 0.000847 7.31195 -0.0951332 7.72918 2650 
49 1 -0.0504324 -0.0142985 0.0467477 0.000233 5.7177 0.050307 6.17116 2650 
23 1 -0.0487219 -0.0624452 0.0485317 0.000233 7.62334 -0.00017419 7.65321 2650 
367 1 -0.0479301 -0.0567435 0.0478079 0.001312 7.5202 0.0366206 7.53935 2650 
497 1 -0.0474603 -0.046554 0.0482784 0.001312 7.58403 -0.000365978 7.45549 2650 
33 1 -0.0475625 -0.0429936 0.048821 0.000847 7.66701 -0.000108118 7.46943 2650 
244 1 -0.049044 -0.00447783 0.0482006 0.000233 6.4605 -0.0983255 6.57608 2650 
316 1 -0.0464609 -0.0618731 0.0498677 0.000847 7.83318 5.07449e-05 7.29804 2650 
420 1 -0.046334 -0.0476926 0.0499923 0.000847 7.85445 -0.000834208 7.27962 2650 
278 1 -0.0451157 -0.061762 0.051088 0.000847 8.02513 -0.000369284 7.08697 2650 
369 1 -0.0438847 -0.0469223 0.0521624 0.000847 8.18235 -0.07168 6.8842 2650 
159 1 -0.0393774 -0.0505779 0.055079 0.001312 8.49408 0.0404224 6.0715 2650 
485 1 -0.0390055 -0.0470316 0.0559108 0.000847 8.76364 -0.07651 6.11362 2650 
513 1 -0.0373418 -0.0389509 0.0570226 0.000847 9.11088 -0.00348782 5.96654 2650 
197 1 -0.0404318 -0.0375263 0.0558097 8.4e-05 8.73952 -0.251004 6.33139 2650 
171 1 -0.039096 -0.0182251 0.0567679 8.4e-05 9.15494 -0.0587371 6.30469 2650 
409 1 -0.0360274 -0.0521797 0.0578676 0.000847 9.16449 -0.0135169 5.70318 2650 
452 1 -0.0343809 -0.0471056 0.059573 0.000233 9.36624 0.170889 5.40611 2650 
507 1 -0.0358483 -0.0284321 0.0586788 0.000233 8.39778 0.472816 5.12746 2650 
207 1 -0.035534 -0.000262779 0.0588737 0.000233 7.01147 -0.0140527 4.24088 2650 
332 1 -0.03043 -0.0162459 0.0610018 0.000847 7.27698 -0.071882 3.65682 2650 
346 1 -0.0267885 -0.0618705 0.0626719 0.000847 9.83121 0.00828975 4.2024 2650 
317 1 -0.0286696 -0.0526404 0.0618429 0.000847 9.64216 -0.0253851 4.46972 2650 
209 1 -0.0247627 -0.0273046 0.0641518 0.000233 7.69862 -0.0431579 3.00082 2650 
256 1 -0.0196666 -0.0215916 0.0652361 0.000847 9.76124 -0.0995596 2.94613 2650 
258 1 -0.0205289 -0.0186073 0.0656145 0.000233 8.12281 -0.0171874 2.58179 2650 
114 1 -0.0195548 -0.0175206 0.0659025 0.000233 9.45843 0.698062 2.80943 2650 
116 1 -0.0212093 -0.0174776 0.0654155 0.000233 7.97331 -0.092982 2.65377 2650 
75 1 -0.0206764 -0.0171464 0.0655727 0.000233 8.03913 -0.0332504 2.58224 2650 
351 1 -0.0178723 -0.00346217 0.0663978 0.000233 7.89749 -0.176412 2.11863 2650 
461 1 -0.012067 -0.0494946 0.0670803 0.000847 10.5801 -0.0669405 1.90317 2650 
44 1 -0.00818683 -0.0438615 0.0676635 0.000847 10.6286 -0.00326725 1.28595 2650 
129 1 -0.0163286 -0.0224045 0.0667645 0.000233 8.55339 -0.046083 2.1187 2650 
343 1 -0.0092432 -0.0129884 0.0675255 0.000847 9.59598 0.00171212 1.31192 2650 
11 1 -0.0161447 -0.0114055 0.0667452 0.000233 8.78299 -0.108415 2.12054 2650 
245 1 -0.0110119 -0.00313479 0.0678794 0.000233 9.43082 0.250853 1.53423 2650 
305 1 -0.00296843 -0.0491974 0.0680976 0.000847 10.7126 0.014119 0.467018 2650 
253 1 -0.000992753 -0.0483354 0.0681583 0.000847 10.6845 -0.00122602 0.156089 2650 
89 1 -0.00865164 -0.04482 0.0682195 0.000233 10.5028 -0.0232214 1.33303 2650 
127 1 -0.0010123 -0.0451009 0.0687672 0.000233 10.5762 -0.22249 0.154995 2650 
157 1 -0.00906981 -0.0428083 0.0681645 0.000233 10.877 0.177554 1.44753 2650 
498 1 -0.00493611 -0.0429546 0.06798 0.000847 10.7718 -0.0241006 0.779934 2650 
180 1 -0.00469629 -0.0185622 0.0686084 0.000233 8.92781 -0.0212585 0.610103 2650 
212 1 -0.000727009 0.0022742 -0.0152521 0.001312 -0.000378321 -0.00288226 -0.00336117 2650 
68 1 -0.00222489 0.00746225 -0.0150768 0.001312 0.00656765 0.00723405 -0.0034973 2650 
357 1 -0.0052262 0.0124504 -0.0148207 0.000847 -0.00356262 0.00740695 0.00116372 2650 
399 1 -0.00432178 0.0247632 -0.0152074 0.000847 0.0145811 0.0154461 -0.00307587 2650 
501 1 -0.00546979 0.0107457 -0.0136793 0.000847 0.00271066 0.00783714 0.00249064 2650 
309 1 -0.0102835 0.0181946 -0.012927 0.000233 -0.00479857 0.018266 0.00823948 2650 
16 1 -0.00605951 0.0575298 -0.0131066 0.001312 -0.00372561 0.0412357 0.00325068 2650 
418 1 -0.0010244 0.0740701 -0.0132271 8.4e-05 -0.0209706 0.0409363 -0.0240492 2650 
444 1 -0.00897781 0.00858952 -0.0114386 8.4e-05 -0.00260039 0.00547496 0.00633282 2650 
439 1 -0.00721666 0.0110853 -0.0125882 0.000233 0.0228492 0.00607655 0.00357595 2650 
386 1 -0.00737946 0.0123006 -0.0111722 0.000847 -0.00685813 0.0101085 -0.000664392 2650 
76 1 -0.0084778 0.0172803 -0.0114769 0.000233 -0.00578221 0.011958 0.00483197 2650 
115 1 -0.0100266 0.01913 -0.0112987 0.000233 0.00203478 0.00995688 0.00306778 2650 
387 1 -0.000396561 0.0360848 -0.0114812 0.000233 0.0389518 0.0686426 -0.046664 2650 
2 1 -0.00430177 0.00843869 -0.0106445 0.001312 0.00400868 0.00487374 0.00130235 2650 
282 1 -0.0129437 0.0113425 -0.00947625 0.000847 -0.00822499 0.0108293 0.0093945 2650 
30 1 -0.00888178 0.0379261 -0.0105525 0.001312 -0.0211815 0.0380083 0.00875764 2650 
359 1 -0.00621775 0.0513811 -0.010001 0.000847 -0.0105408 0.0538414 0.0225509 2650 
225 1 -0.00512765 0.0120463 -0.00922678 0.001312 -0.00239701 0.00874648 -0.00124216 2650 
471 1 -0.0100621 0.0143385 -0.0086702 0.001312 0.0142077 0.0144874 0.0114805 2650 
178 1 -0.0114853 0.0253509 -0.00876738 0.000847 -0.00942264 0.0138974 -0.0144999 2650 
273 1 -0.00520088 0.0282244 -0.00844691 0.000233 -0.00788291 0.0124072 0.00594868 2650 
31 1 -0.00420684 0.0656492 -0.00812219 0.000847 0.0128996 0.0556905 -0.00624527 2650 
147 1 -0.00698006 0.0023197 -0.00681575 0.001312 -0.00155224 -0.00287693 0.000873515 2650 
348 1 -0.0132849 0.00474292 -0.00681996 0.000233 -0.00855875 -0.000417391 0.0118261 2650 
109 1 -0.000143505 0.00434292 -0.00750135 0.000847 -0.00739102 -0.000240261 0.00788824 2650 
94 1 -0.0132232 0.00976152 -0.00648438 0.001312 -0.0121466 0.00450737 0.00515639 2650 
15 1 -0.00844081 0.038074 -0.00777431 0.001312 -0.00341521 0.0253607 0.0153897 2650 
377 1 -0.00594661 0.0590576 -0.00776393 0.000233 -0.00308755 0.0650231 0.0279133 2650 
206 1 -0.000524224 0.000700305 -0.00558168 0.000233 0.000200844 -0.0022057 -0.0101649 2650 
373 1 -0.0152857 0.0159949 -0.0049891 0.000847 0.00260085 0.0219543 -0.0053929 2650 
177 1 -0.0145545 0.0301554 -0.00512191 0.000847 0.00132565 0.0192779 0.00604683 2650 
91 1 -0.0152137 0.0355274 -0.00546943 0.000233 -0.011194 0.0308527 0.0129891 2650 
66 1 -0.0106789 0.0668189 -0.00532941 0.000233 0.00347261 0.0341619 0.00411013 2650 
407 1 -0.00383531 0.000786136 -0.00380843 0.000847 -0.00271156 -0.00263393 0.00241233 2650 
237 1 -0.0143893 0.00234405 -0.0040267 0.001312 -0.00571909 0.0043721 0.00435753 2650 
17 1 -0.00518698 0.00322988 -0.0035391 0.000847 -0.00529384 -0.000624951 0.00099193 2650 
149 1 -0.00492367 0.0108436 -0.00346397 0.000847 0.00533574 0.00120564 0.000572163 2650 
502 1 -0.015139 0.0253146 -0.00468615 0.000847 -0.000230871 0.00792682 0.00455104 2650 
37 1 -0.0161816 0.0300992 -0.00395041 0.000233 -0.00484254 0.023938 0.0169692 2650 
331 1 -0.00272932 0.0384854 -0.00429663 0.000847 0.00840645 0.0232594 0.00867855 2650 
77 1 -0.00839821 0.0459059 -0.0037318 0.000233 0.00669575 0.0236814 0.0157679 2650 
512 1 -0.0107257 0.00223245 -0.0024921 0.000847 0.00181701 0.00186869 0.0122245 2650 
158 1 -0.0104238 0.00318737 -0.0026003 8.4e-05 0.00188877 -0.00284778 0.00557992 2650 
355 1 -0.0128305 0.0110439 -0.00209088 0.000847 0.00437228 0.0104751 -0.0043935 2650 
199 1 -0.0147004 0.0296496 -0.00290961 0.001312 0.00194289 0.0160573 0.0068254 2650 
389 1 -0.00120409 0.00970465 -0.000151045 0.000233 -0.00715985 0.00216632 0.0289367 2650 
515 1 -0.0132809 0.0123705 -0.000693236 0.000847 0.000192831 0.00432954 -0.00558707 2650 
457 1 -0.00352696 0.0270011 -0.00121306 8.4e-05 0.00209197 0.0125772 -0.0227291 2650 
211 1 -0.0137024 0.0468049 -0.00101628 0.001312 -0.0377898 0.0415283 0.00180384 2650 
198 1 -0.015438 0.00574944 0.000510866 0.001312 0.000689044 -0.0014313 0.0125552 2650 
121 1 -0.00715794 0.0127405 0.00113203 0.001312 0.0113437 0.00558656 0.00250698 2650 
395 1 -0.00275852 0.0132583 0.000242312 0.000847 -0.03813 0.0623589 0.0970061 2650 
204 1 -0.0147265 0.0261788 0.000378996 0.000847 0.00121054 0.0124535 0.0137872 2650 
391 1 -0.0154687 0.03197 0.000743499 0.000233 0.00226461 0.0200531 0.0160982 2650 
217 1 -0.013542 0.0450006 0.000408534 0.000847 0.00743731 0.032403 0.00336557 2650 
511 1 -0.0136445 0.0509015 0.000886707 0.000847 0.00146079 0.0210985 -0.0127999 2650 
72 1 -0.00248077 0.073433 0.0019638 0.000847 0.00694298 0.0370303 0.0147661 2650 
450 1 -0.00218926 0.00358923 0.0046236 0.000847 0.0141697 0.00366662 0.00769839 2650 
467 1 -0.0140706 0.00566763 0.004294 0.000233 0.00666977 0.00283463 0.00629942 2650 
156 1 -0.00624981 0.0131996 0.00342914 0.000233 0.0117738 0.00676262 0.00472854 2650 
7 1 -0.0101026 0.0361798 0.00345564 0.000847 0.00509742 0.0248497 0.013646 2650 
299 1 -0.0126236 0.0476986 0.00351336 0.000233 0.0153724 0.0433476 -0.0153898 2650 
186 1 -0.00638914 0.00418951 0.00478138 0.001312 0.0110093 -0.000918863 0.00524694 2650 
291 1 -0.0011993 0.00747173 0.00556653 0.000847 0.000368443 -0.000878557 -0.00367841 2650 
440 1 -0.00586002 0.0016904 0.00736691 0.000233 0.00893327 0.00123303 0.0100401 2650 
301 1 -0.00684386 0.00374051 0.00698622 8.4e-05 -0.00542456 -0.000958437 0.00851575 2650 
518 1 -0.0151162 0.00774085 0.00711353 0.000233 -0.00455624 0.0103112 -0.00628034 2650 
5 1 -0.00368183 0.0159957 0.0078273 0.000847 0.0159354 0.00855543 0.0196475 2650 
214 1 -0.00490541 0.0284044 0.00672969 0.000847 0.0140272 0.0148951 0.00243728 2650 
222 1 -0.00778544 0.0323848 0.00945733 0.000233 0.0205794 0.0022401 -0.00426972 2650 
168 1 -0.00542182 0.00474536 0.00989205 0.000233 0.010374 0.000533782 0.0120746 2650 
451 1 -0.00657919 0.00941689 0.0103315 0.000847 0.0101382 0.00361366 0.00843172 2650 
226 1 -0.00332391 0.0338571 0.0102033 0.000847 0.00127411 0.0241147 0.0153454 2650 
262 1 -0.00907821 0.0694825 0.010796 8.4e-05 0.016947 0.0454576 0.00941551 2650 
21 1 -0.00519996 0.0380565 0.0120477 0.000847 -0.0156294 0.0277562 -0.00305439 2650 
503 1 -0.00570782 0.0394075 0.0116343 0.000233 0.0275154 0.0239428 0.00958867 2650 
363 1 -0.00107452 0.0388275 0.0111459 0.000233 -0.0108121 0.0312503 -0.00018022 2650 
390 1 -0.00301876 0.0155644 0.0128559 0.000233 -0.00350245 0.00582576 -0.00125219 2650 
213 1 -0.00959291 0.0378872 0.012933 0.000847 0.0260498 0.00276319 0.0133116 2650 
80 1 -0.00908607 0.037274 0.01354 8.4e-05 0.0152605 -0.00316727 0.0321616 2650 
510 1 -0.00470148 0.0388513 0.0141621 0.001312 -0.0153113 0.0336839 0.000846545 2650 
472 1 -5.28754e-06 0.021864 0.0151414 0.000847 0.00290128 0.0107907 -0.00812892 2650 
29 1 -0.000623095 0.0257069 0.0149996 0.001312 0.00775959 0.0218363 -0.00786002 2650 
153 1 -0.00825202 0.0329003 0.014308 0.000233 0.025776 0.015339 0.0111578 2650 
403 1 -0.00143342 0.026337 0.0164435 0.000233 -0.0216925 0.0195608 -0.00722352 2650 
139 1 -0.0935073 0.100493 -0.126156 0.000847 -6.25558 0.0536986 -8.43949 2650 
437 1 -0.00994469 0.108575 -0.000697631 0.000847 -0.00719255 0.0835002 -0.0252935 2650 
63 1 -0.00201141 0.0771387 0.00260432 0.000233 0.00544067 0.0487134 -0.0167697 2650 
319 1 -0.00171809 0.136028 0.0131447 0.000847 0.00321502 0.103152 0.00477754 2650 
349 1 0.0534635 -0.0320885 -0.114744 0.000233 -1.40881 -0.13743 -10.2588 2650 
324 1 0.00402158 -0.00529302 -0.068649 0.000233 -8.7226 0.0230217 -0.519346 2650 
494 1 0.01681 -0.0246185 -0.0666817 0.000233 -9.88834 -0.00973472 -2.48991 2650 
259 1 0.0207072 -0.0302845 -0.0655744 0.000233 -10.5016 0.249704 -3.31688 2650 
67 1 0.0232042 -0.00848691 -0.0648961 8.4e-05 -7.35119 -0.391366 -2.62874 2650 
297 1 0.0252406 -0.0287819 -0.063966 0.000233 -9.57835 -0.0199604 -3.77693 2650 
12 1 0.0259742 -0.00572281 -0.0636729 0.000233 -7.92934 -0.015546 -3.22706 2650 
358 1 0.0254179 -0.0543664 -0.0632428 0.000847 -9.93408 1.65914e-05 -3.9926 2650 
364 1 0.0284445 -0.0276435 -0.0626068 0.000233 -9.35692 0.0306407 -4.25057 2650 
261 1 0.0309407 -0.0236253 -0.0614121 0.000233 -8.92486 -0.499953 -4.49802 2650 
270 1 0.0396267 -0.0227623 -0.0562016 0.000233 -8.1769 0.525713 -5.76827 2650 
106 1 0.0404438 -8.40037e-05 -0.0557985 8.4e-05 -6.9762 -0.000935717 -5.05849 2650 
172 1 0.0428337 -0.0256209 -0.0524202 0.001312 -7.97903 0.123266 -6.54166 2650 
468 1 0.0491946 -0.0221692 -0.0480579 0.000233 -6.5097 0.226396 -6.67492 2650 
410 1 0.0557062 -0.0618821 -0.0392703 0.000847 -6.16486 0.00323881 -8.74527 2650 
130 1 0.0566846 -0.0210513 -0.0389463 0.000233 -5.91368 -0.141487 -8.60372 2650 
36 1 0.0569555 -0.0171308 -0.0385571 0.000233 -5.65487 0.143254 -8.35822 2650 
92 1 0.0582599 -0.0172238 -0.0365523 0.000233 -4.87761 -0.210605 -7.76545 2650 
477 1 0.0590401 -0.0144615 -0.0352677 0.000233 -5.31278 -0.988395 -8.9041 2650 
436 1 0.0607135 -0.0618721 -0.0309723 0.000847 -4.86436 -0.000998988 -9.53528 2650 
311 1 0.0609914 -0.0215282 -0.0317513 0.000233 -4.99611 0.109326 -9.59704 2650 
243 1 0.0616364 -0.061785 -0.0290929 0.000847 -4.56993 -0.00165059 -9.68183 2650 
95 1 0.0612486 -0.0232277 -0.0288256 0.001312 -4.34863 -0.118194 -9.25807 2650 
90 1 0.0649083 -0.0289557 -0.0227092 0.000233 -3.2796 -0.208263 -9.36825 2650 
28 1 0.0654969 -0.00626491 -0.0214321 8.4e-05 -2.52531 0.0275613 -7.75259 2650 
366 1 0.0661064 -0.00998472 -0.0194703 8.4e-05 -2.02812 -0.0106446 -6.90754 2650 
356 1 0.000788381 -0.00232957 -0.014697 0.000847 -7.48654e-05 -0.00579622 -0.00143001 2650 
438 1 0.00551624 -0.00101457 -0.0145935 0.000847 -0.0169209 -0.00251284 -0.0025984 2650 
431 1 0.0676779 -0.00979395 -0.013029 8.4e-05 -1.81539 0.912807 -9.42079 2650 
124 1 0.0672512 -0.0565731 -0.0110798 0.000847 -1.7404 -5.00861e-06 -10.5637 2650 
210 1 0.0682948 -0.00798421 -0.00925832 8.4e-05 -0.712802 -0.163965 -5.12387 2650 
336 1 0.00682478 -0.000536379 -0.0090383 0.000233 0.00789915 -0.00106843 0.00245482 2650 
382 1 0.0677992 -0.0500022 -0.00708934 0.000847 -1.11213 -0.00794076 -10.6373 2650 
459 1 0.0677989 -0.0337921 -0.00695165 0.000847 -1.07262 -0.0266183 -10.4629 2650 
138 1 0.0679598 -0.0506245 -0.00533773 0.000847 -0.83929 0.00646525 -10.6858 2650 
492 1 0.0684706 -0.0289886 -0.00634724 0.000233 -0.926377 0.0408265 -9.98901 2650 
8 1 0.00884196 -0.00264705 -0.00546649 0.000233 0.00301488 -0.00587201 -0.00977112 2650 
54 1 0.0688089 -0.0191978 -0.00401692 8.4e-05 -0.594329 0.347805 -10.169 2650 
61 1 0.0680942 -0.0280031 -0.00280902 0.000847 -0.415586 -0.000414031 -10.1068 2650 
424 1 0.0681364 -0.0519413 -0.00204364 0.000847 -0.32074 0.0133382 -10.7029 2650 
401 1 0.0687777 -0.0504809 0.000446522 0.000233 0.0695687 0.08488 -10.5589 2650 
307 1 0.0681229 -0.0197496 0.00248292 0.000847 0.363316 -0.000388326 -10.0232 2650 
132 1 0.0137906 -0.000150847 0.00290478 8.4e-05 -0.00428615 -0.00289113 -0.000365994 2650 
312 1 0.0686884 -0.029956 0.00326514 0.000233 0.501334 -0.0744179 -10.5371 2650 
496 1 0.0688316 -0.0166586 0.00368765 8.4e-05 0.521322 0.455571 -9.61463 2650 
174 1 0.0679247 -0.0304497 0.00563125 0.000847 0.863654 0.00940818 -10.4393 2650 
35 1 0.00230488 -0.000210398 0.00603658 0.000847 -0.0121953 -9.57773e-05 0.00420749 2650 
460 1 0.0679181 -0.050494 0.00584725 0.000847 0.920952 0.00265199 -10.6953 2650 
352 1 0.00319067 -0.00310253 0.00923036 0.000233 -0.00581366 -0.00941981 -0.000498216 2650 
252 1 0.00731738 -0.00123624 0.00810564 0.000847 0.000408733 -0.00473082 -0.0109231 2650 
334 1 0.0675649 -0.0562475 0.00896267 0.000847 1.41394 -0.0223805 -10.6613 2650 
176 1 0.00736804 -0.00319048 0.0103901 0.000847 0.00761816 -0.00329714 -0.00812013 2650 
341 1 0.0666911 -0.0592862 0.0116145 0.001312 1.82446 0.000314922 -10.476 2650 
294 1 0.0672785 -0.052675 0.0109425 0.000847 1.71904 0.00734408 -10.5692 2650 
393 1 0.0667664 -0.0338508 0.0111675 0.001312 1.62935 -0.0293109 -9.78699 2650 
86 1 0.0108013 -0.000672243 0.0116979 0.000847 -0.0160568 -0.00271753 0.0137057 2650 
162 1 0.0668987 -0.0507989 0.0130627 0.000847 2.04669 0.0500172 -10.4846 2650 
125 1 0.0669693 -0.0431742 0.0126924 0.000847 2.0638 -0.0484679 -10.9059 2650 
74 1 0.0669033 -0.0349928 0.0129938 0.000847 1.92186 -0.232967 -9.935 2650 
323 1 0.0673441 -0.0521898 0.0139236 0.000233 2.18355 -0.036137 -10.5612 2650 
105 1 0.0672362 -0.0204901 0.0143704 0.000233 2.21577 -0.286632 -10.3841 2650 
239 1 0.0663673 -0.0615934 0.0155188 0.000847 2.46046 0.0107273 -10.5236 2650 
284 1 0.065662 -0.0211666 0.0202931 0.000233 2.90591 -0.0978981 -9.42582 2650 
119 1 0.0655482 -0.000400209 0.0212569 8.4e-05 2.42521 0.0440308 -7.56315 2650 
249 1 0.064993 -0.0177031 0.022872 8.4e-05 3.14614 0.612194 -8.79524 2650 
184 1 0.0648525 -0.00450347 0.0233149 8.4e-05 3.12025 -0.1142 -8.74476 2650 
423 1 0.0624266 -0.0395205 0.0273452 0.000847 4.13229 -0.198489 -9.43482 2650 
490 1 0.0624355 -0.0151409 0.0288215 0.000233 3.99949 -0.615572 -8.66368 2650 
338 1 0.0620466 -0.0414322 0.0296536 0.000233 4.55584 -0.272454 -9.53174 2650 
96 1 0.0611336 -0.0402806 0.0301391 0.000847 4.52052 -0.1948 -9.19098 2650 
428 1 0.00984944 -0.00492982 0.0680561 0.000233 8.00994 -0.216042 -1.16119 2650 
10 1 0.0614935 -0.000232967 0.0307786 0.000233 3.9206 0.00383947 -7.8449 2650 
145 1 0.0618229 -8.39969e-05 0.0304513 8.4e-05 3.91223 1.42593e-06 -7.91669 2650 
375 1 0.0610589 -0.014783 0.0316459 0.000233 4.16153 -0.349445 -8.02633 2650 
506 1 0.0612632 -0.000232989 0.0312358 0.000233 3.98874 0.000633718 -7.8144 2650 
473 1 0.0587065 -0.0501807 0.0346426 0.000847 5.42501 0.0292868 -9.19354 2650 
480 1 0.0579653 -0.000232997 0.0369967 0.000233 4.69521 0.000154056 -7.3592 2650 
340 1 0.0575967 -0.0480923 0.0378641 8.4e-05 5.54677 -0.231312 -8.43708 2650 
402 1 0.056697 -0.0120319 0.0389348 0.000233 5.59299 0.224771 -8.13879 2650 
167 1 0.0549793 -0.0474594 0.0413287 0.000233 6.45132 -0.0942077 -8.58182 2650 
396 1 0.0525209 -0.0484038 0.0434636 0.000847 6.91274 0.087241 -8.35337 2650 
148 1 0.0474111 -0.0465148 0.0489845 0.000847 7.69576 -0.00280402 -7.44861 2650 
264 1 0.0454076 -0.0560333 0.0508301 0.000847 7.98431 4.94488e-05 -7.13255 2650 
101 1 0.0452312 -0.016321 0.0518124 0.000233 6.81251 -0.0965056 -5.95356 2650 
236 1 0.0454414 -0.0122376 0.0518244 8.4e-05 8.06325 0.342891 -7.07126 2650 
290 1 0.0414554 -0.0464524 0.0541 0.000847 8.49794 4.37832e-05 -6.51176 2650 
47 1 0.0418869 -0.0448472 0.0537731 0.000847 8.44564 0.000896686 -6.57636 2650 
302 1 0.0384905 -0.0446252 0.0556848 0.001312 8.78976 -0.0860272 -6.06193 2650 
216 1 0.0393234 -0.0315629 0.0556704 0.000847 8.21638 -0.0934904 -5.82039 2650 
81 1 0.0325018 -0.0369827 0.0593817 0.001312 9.10933 0.0265956 -4.9847 2650 
32 1 0.0312277 -0.0352096 0.0605813 0.000847 9.34347 -0.008759 -4.81874 2650 
242 1 0.0314079 -0.0227398 0.0604518 0.000847 8.72391 -0.0163519 -4.53433 2650 
69 1 0.0293326 -0.0217908 0.0610031 0.001312 8.70433 0.109044 -4.15295 2650 
350 1 0.0291373 -0.0515102 0.0622894 0.000233 9.61831 0.0529229 -4.4984 2650 
298 1 0.0280831 -0.0399376 0.0627722 0.000233 10.058 0.0920595 -4.50066 2650 
56 1 0.0277652 -0.0350144 0.061741 0.001312 9.26885 0.208585 -4.16554 2650 
378 1 0.0303058 -0.0344714 0.0617275 0.000233 9.42415 -0.0641083 -4.62473 2650 
360 1 0.0292868 -0.0333396 0.0615427 0.000847 9.43526 0.114181 -4.48985 2650 
292 1 0.027126 -0.0233551 0.0625214 0.000847 8.88829 -0.0747569 -3.83644 2650 
142 1 0.0277166 -0.0153724 0.0629206 0.000233 8.29526 0.0668277 -3.67187 2650 
151 1 0.0256358 -0.034078 0.0631494 0.000847 9.48835 0.177056 -3.85332 2650 
248 1 0.0260196 -0.0155679 0.0636474 0.000233 8.55761 -0.285976 -3.47111 2650 
60 1 0.0178677 -0.0415124 0.065783 0.000847 10.4542 -0.0498091 -2.83925 2650 
411 1 0.021491 -0.0398955 0.0646857 0.000847 10.1248 0.0396941 -3.36407 2650 
303 1 0.0165569 -0.035375 0.0661137 0.000847 10.3195 -0.0372644 -2.58264 2650 
224 1 0.0156799 -0.0319407 0.0658545 0.001312 9.49979 -0.0332673 -2.27305 2650 
470 1 0.0213555 -0.0178033 0.0655333 8.4e-05 10.5509 1.07237 -3.43872 2650 
500 1 0.00694386 -0.0496534 0.0678161 0.000847 10.6559 -0.00755164 -1.09116 2650 
173 1 0.0106494 -0.0505977 0.0668671 0.001312 10.4757 0.0208059 -1.66834 2650 
269 1 0.00929764 -0.0471691 0.0675356 0.000847 10.6093 -0.00583 -1.46055 2650 
487 1 0.0128161 -0.0342744 0.0669384 0.000847 10.5053 -0.00305785 -2.01149 2650 
447 1 0.0158292 -0.0248305 0.0662941 0.000847 9.0656 0.0347014 -2.1611 2650 
166 1 0.00448457 -0.0511328 0.0686309 0.000233 10.7672 -0.0040062 -0.70364 2650 
421 1 0.00398558 -0.0501972 0.0680519 0.000847 10.6891 -0.00123529 -0.626031 2650 