ITEM: TIMESTEP
4784790
ITEM: NUMBER OF ATOMS
520
ITEM: BOX BOUNDS ff ff ff
-0.15 0.15
-0.15 0.15
-0.15 0.15
ITEM: ATOMS id type x y z radius vx vy vz density 
409 1 -0.00206455 -0.0235744 -0.0681143 0.000847 -6.1975 -0.0645103 0.216632 2650 
140 1 -0.00247939 -0.019922 -0.0687221 0.000233 -6.11553 0.710578 0.0880651 2650 
507 1 -0.000482421 -0.0171712 -0.0687634 0.000233 -4.24298 0.197441 -0.0266257 2650 
166 1 -0.0118892 -0.0355917 -0.0677306 0.000233 -6.34129 -0.259512 1.11317 2650 
318 1 -0.0162099 -0.0526145 -0.0661978 0.000847 -4.91407 -0.879758 1.20947 2650 
20 1 -0.0213533 -0.018562 -0.0647298 0.000847 -5.80419 0.000454183 1.93663 2650 
208 1 -0.0233837 -0.0134658 -0.0646788 0.000233 -4.7645 -0.239517 1.74251 2650 
243 1 -0.0259781 -0.0538296 -0.0630137 0.000847 -6.35694 -0.813148 2.647 2650 
173 1 -0.0287609 -0.0408896 -0.0612874 0.001312 -6.25647 0.0385916 2.99491 2650 
183 1 -0.0399369 -0.00555976 -0.0559803 0.000233 -3.51419 0.202873 2.5072 2650 
100 1 -0.0442559 -0.0168259 -0.0518379 0.000847 -2.42279 -0.625234 1.76089 2650 
52 1 -0.0542258 -0.0396917 -0.0422241 0.000233 -3.54077 -0.282673 4.40631 2650 
358 1 -0.0573991 -0.0498756 -0.0367272 0.000847 -3.90035 0.218278 6.1788 2650 
185 1 -0.059771 -0.0205956 -0.0317931 0.001312 -2.22716 -0.0554003 4.18272 2650 
460 1 -0.0621512 -0.0334189 -0.0279627 0.000847 -2.30469 -0.00334602 5.14916 2650 
269 1 -0.0631347 -0.043844 -0.0257112 0.000847 -2.23548 -0.291964 5.44414 2650 
113 1 -0.0633646 -0.026347 -0.0250955 0.000847 -2.06472 -0.264669 5.34225 2650 
239 1 -0.0638249 -0.0282095 -0.0238937 0.000847 -2.12129 -0.351815 5.57433 2650 
415 1 -0.0646778 -0.0206687 -0.0233867 0.000233 -1.40495 0.119095 3.80398 2650 
46 1 -0.011414 -0.00499988 -0.0151476 0.000847 -0.887035 -0.35687 -1.26987 2650 
26 1 -0.001949 -0.000787704 -0.014832 0.000233 0 -0.011754 0 2650 
442 1 -0.0673855 -0.0444266 -0.0137677 0.000233 -1.08332 0.136419 5.25227 2650 
360 1 -0.008207 -0.0022607 -0.012559 0.000847 0 -0.011754 0 2650 
86 1 -0.0062691 -0.00178317 -0.0110735 0.000847 -0.000103409 -0.0116349 -2.92058e-05 2650 
47 1 -0.0673465 -0.025518 -0.0104782 0.000847 -1.08927 0.0263959 6.87937 2650 
452 1 -0.0143028 -0.00521382 -0.010738 0.000233 -1.53814 -0.603669 -1.66464 2650 
335 1 -0.00807923 -0.00332829 -0.00963567 0.000233 -0.326661 -0.0219934 -0.389592 2650 
382 1 -0.067604 -0.0375777 -0.00864844 0.000847 -0.682546 0.398018 5.32535 2650 
487 1 -0.00547 -0.0019047 -0.008469 0.000847 0 -0.011754 0 2650 
304 1 -0.0121216 -0.00290056 -0.00668761 0.000847 -0.0158408 -0.000694593 0.00368826 2650 
402 1 -0.012528 -0.0017027 -0.0071 0.000233 0 -0.011754 0 2650 
53 1 -0.011013 -0.0017327 -0.007695 0.000233 0 -0.011754 0 2650 
31 1 -0.0141356 -0.000639826 -0.00635092 0.000847 0.00325038 -0.0202872 0.000225571 2650 
278 1 -0.0679687 -0.0468696 -0.00505949 0.000847 -0.482473 -0.229326 5.94254 2650 
85 1 -0.0144418 -0.00172527 -0.0050276 0.000847 -0.00107577 -0.0172193 0.005012 2650 
125 1 -0.003357 -0.000681704 -0.006037 0.000847 0 -0.011754 0 2650 
97 1 -0.009673 -0.0023017 -0.003235 0.000847 0 -0.011754 0 2650 
445 1 -0.00603062 -0.00288885 -0.00224426 0.001312 -0.00249893 -0.012143 -0.00058692 2650 
378 1 -0.001584 -0.0020917 -0.002895 0.000233 0 -0.011754 0 2650 
345 1 -0.0118819 -0.000178974 -0.00285186 0.000847 0.0102276 0.00640351 0.0047221 2650 
61 1 -0.000548 -0.0013147 -0.001635 0.000847 0 -0.011754 0 2650 
519 1 -0.014357 -0.0024137 -0.000107 0.000233 0 -0.011754 0 2650 
315 1 -0.00355337 -0.00273075 -0.00135451 0.001312 -0.00471228 -0.0221169 0.0126549 2650 
118 1 -0.006006 -0.0014967 -0.001449 0.000233 0 -0.011754 0 2650 
344 1 -0.0681135 -0.0379643 0.00237448 0.000847 0.2185 0.621469 7.32908 2650 
101 1 -0.007806 -0.0020147 0.002945 0.000233 0 -0.011754 0 2650 
341 1 -0.0101571 -0.00329992 0.0032678 0.001312 -0.00139711 -0.0105032 0.000562741 2650 
62 1 -0.012835 -0.0021867 0.004641 0.000233 0 -0.011754 0 2650 
440 1 -0.0161245 -0.00115303 0.00427341 0.000233 0.00640272 0.00324748 -0.00679238 2650 
218 1 -0.012593 -0.0010957 0.003611 0.000233 0 -0.011754 0 2650 
308 1 -0.0679628 -0.0272591 0.00507657 0.000847 0.479228 -0.123602 6.77367 2650 
319 1 -0.014687 -0.0019497 0.006167 0.000847 0 -0.011754 0 2650 
429 1 -0.00692 -0.0026677 0.005955 0.000233 0 -0.011754 0 2650 
117 1 -0.006406 -0.0019247 0.006156 0.000233 0 -0.011754 0 2650 
264 1 -0.003065 -0.000356704 0.00492 0.000847 0 -0.011754 0 2650 
448 1 -0.00517886 -0.0032838 0.00789067 0.000847 0.000973756 -0.0131421 -0.00856166 2650 
314 1 -0.012863 -0.0017697 0.007925 8.4e-05 0 -0.011754 0 2650 
92 1 -0.012301 -0.0029147 0.010509 0.000233 0 -0.011754 0 2650 
253 1 -0.00920783 -0.00276641 0.0103353 0.000847 -0.0163752 -0.00678803 -0.00424149 2650 
350 1 -0.001594 -0.000124704 0.011915 0.000233 0 -0.011754 0 2650 
420 1 -0.00723893 -0.00292482 0.0140641 0.000847 0.0107401 -0.0102696 -0.000842587 2650 
114 1 -0.004861 -0.0028947 0.015786 0.000233 0 -0.011754 0 2650 
151 1 -2.7e-05 -0.0026947 0.014966 0.000847 0 -0.011754 0 2650 
161 1 -0.0659597 -0.0107225 0.0172022 0.000847 1.18549 -0.125008 4.5986 2650 
327 1 -0.003487 -0.0016437 0.015912 8.4e-05 0 -0.011754 0 2650 
169 1 -0.0511206 -0.0565595 0.045994 0.000233 3.11946 -0.552606 3.48269 2650 
424 1 -0.0503013 -0.0538396 0.0459854 0.000847 3.11475 -0.299781 3.39727 2650 
280 1 -0.034628 -0.00523693 0.058704 0.000847 4.46209 0.157625 2.64074 2650 
148 1 -0.0282213 -0.0234353 0.0620404 0.000847 6.0881 -0.0585478 2.7566 2650 
458 1 -0.0182585 -0.0600179 0.0651859 0.001312 8.4128 -0.0593765 2.39527 2650 
380 1 -0.0190381 -0.0329551 0.0649624 0.001312 8.34775 -0.0410861 2.4505 2650 
162 1 -0.0166589 -0.0332386 0.0660884 0.000847 6.9944 -0.181395 1.78365 2650 
294 1 -0.0144374 -0.0270816 0.0666048 0.000847 6.53573 -0.099706 1.418 2650 
461 1 -0.00794949 -0.0237686 0.0676888 0.000847 6.56025 -0.0595948 0.751874 2650 
488 1 -0.0141792 -0.0208744 0.0666143 0.000847 7.02424 -0.232921 1.44359 2650 
493 1 -0.0109548 -0.0128343 0.0678873 0.000233 6.30123 0.204797 1.00794 2650 
205 1 -0.00304843 -0.0267367 0.0686983 0.000233 4.39138 -0.0258195 0.209931 2650 
143 1 -5.35379e-05 0.0049497 -0.0167386 0.000233 0.00287306 -0.000819399 0.00574052 2650 
501 1 -0.00493562 0.00396704 -0.0142932 0.000847 0.00709651 0.00142594 -0.00670783 2650 
49 1 -0.006313 0.0056263 -0.014865 0.000233 0 -0.011754 0 2650 
37 1 -0.007724 0.0065933 -0.014299 0.000233 0 -0.011754 0 2650 
309 1 -0.005736 0.0093123 -0.014845 0.000233 0 -0.011754 0 2650 
48 1 -0.0005 0.0085483 -0.014942 0.000847 0 -0.011754 0 2650 
395 1 -0.00740232 0.00129094 -0.0136165 0.000847 0.0236473 -0.00300438 -0.00517361 2650 
224 1 -0.00534372 0.00204108 -0.0131714 0.001312 0.0231444 -0.00517974 0.000423513 2650 
234 1 -0.003242 0.0029083 -0.013015 0.000233 0 -0.011754 0 2650 
36 1 -0.008519 0.0058563 -0.013643 0.000233 0 -0.011754 0 2650 
68 1 -0.006284 0.0061133 -0.013069 0.001312 0 -0.011754 0 2650 
16 1 -0.00154679 0.00685032 -0.0138442 0.001312 -0.018226 0.0396186 0.0116325 2650 
3 1 -0.000803175 0.0236428 -0.0134485 0.000847 0.0282866 0.0377877 0.0184803 2650 
133 1 -0.00217314 0.0016216 -0.0113616 0.001312 -0.00478745 0.000174018 0.00954726 2650 
233 1 -0.006747 0.0046193 -0.01241 0.000233 0 -0.011754 0 2650 
343 1 -0.003612 0.0056313 -0.01107 0.000847 0 -0.011754 0 2650 
76 1 -0.005578 0.0070193 -0.011829 0.000233 0 -0.011754 0 2650 
28 1 -0.0039974 0.00840933 -0.0111009 8.4e-05 -0.125624 0.0865584 -0.0891101 2650 
198 1 -0.00406701 0.0085703 -0.012517 0.001312 -4.39269e-06 -0.0117493 -1.49488e-05 2650 
368 1 -0.00500173 0.0163857 -0.0113632 0.000847 0.0337396 0.0209771 0.00460793 2650 
29 1 -0.00832089 0.000802517 -0.010659 0.001312 0.0010489 -0.0138166 -0.00176049 2650 
160 1 -0.00497323 0.00081107 -0.0098772 0.001312 -0.0111963 -0.009322 0.00874065 2650 
449 1 -0.00117292 0.00101065 -0.00947688 0.000847 9.54095e-06 -0.0117597 8.05247e-05 2650 
271 1 -0.005149 0.0029893 -0.010304 0.000233 0 -0.011754 0 2650 
95 1 -0.0072758 0.00377355 -0.0110249 0.001312 -0.000248372 -0.0120576 -0.000506657 2650 
435 1 -0.005486 0.0050673 -0.011036 0.000847 0 -0.011754 0 2650 
13 1 -0.012448 0.0067693 -0.010914 8.4e-05 0 -0.011754 0 2650 
69 1 -0.00959 0.0071403 -0.010713 0.001312 0 -0.011754 0 2650 
115 1 -0.00874145 0.00645997 -0.00956113 0.000233 -0.0561389 0.0408595 0.00668429 2650 
392 1 -0.003997 0.0073603 -0.009609 8.4e-05 0 -0.011754 0 2650 
146 1 -0.000676966 0.00653585 -0.0101813 0.001312 -0.000955538 -0.0118072 0.00595067 2650 
147 1 -0.004382 0.0087213 -0.009794 0.001312 -1.75068e-05 -0.0117403 4.67727e-05 2650 
209 1 -0.001802 0.0081883 -0.011003 0.000233 0 -0.011754 0 2650 
482 1 -0.00627213 0.0171657 -0.0103177 0.000233 -0.0162757 0.0437947 0.00434421 2650 
289 1 -0.0125792 0.00291452 -0.00913735 0.001312 0.00200879 -0.0124738 0.00211529 2650 
468 1 -0.0103303 0.00254042 -0.00850747 0.000233 0.00115239 -0.0134034 -0.00409537 2650 
164 1 -0.00925218 0.00224605 -0.00931509 0.000847 -0.000928237 -0.0130218 -0.00107494 2650 
455 1 -0.006244 0.0028883 -0.008207 0.000233 0 -0.011754 0 2650 
407 1 -0.002601 0.0032993 -0.009363 0.000847 0 -0.011754 0 2650 
336 1 -0.000699 0.0041063 -0.008095 0.000233 0 -0.011754 0 2650 
216 1 -0.00183325 0.00692582 -0.00831194 0.000847 0.000887841 -0.0149019 -0.045922 2650 
391 1 -0.000933458 0.00796205 -0.00885381 0.000233 0.0152389 0.00526511 -0.0349517 2650 
332 1 -0.013253 0.0095003 -0.008686 0.000847 0 -0.011754 0 2650 
348 1 -0.011402 0.0083053 -0.008993 0.000233 0 -0.011754 0 2650 
262 1 -0.00162138 0.00851931 -0.00920115 8.4e-05 -0.0210894 -0.00214597 -0.102903 2650 
483 1 -0.010366 0.0010003 -0.006716 8.4e-05 0 -0.011754 0 2650 
347 1 -0.00918224 0.00128419 -0.00650166 0.000847 0.00650209 -0.0196345 -0.000170551 2650 
266 1 -0.012074 0.0017683 -0.006827 0.000847 0 -0.011754 0 2650 
60 1 -0.005537 0.0019773 -0.006955 0.000847 0 -0.011754 0 2650 
136 1 -0.003358 0.0027923 -0.00699 0.000847 0 -0.011754 0 2650 
248 1 -0.0147475 0.00342869 -0.00656546 0.000233 -0.00277703 -0.00662847 -0.0294155 2650 
324 1 -0.004804 0.0037283 -0.006739 0.000233 0 -0.011754 0 2650 
251 1 -0.00982364 0.00555773 -0.00668012 0.000847 0.0352412 0.00403693 -0.0374152 2650 
158 1 -0.00532118 0.00628279 -0.00748003 8.4e-05 -0.0246844 -0.00052617 -0.00311611 2650 
512 1 -0.00408971 0.00672392 -0.00720487 0.000847 9.15653e-06 -0.0117345 4.13531e-06 2650 
464 1 -3.2e-05 0.0079603 -0.007535 0.000233 0 -0.011754 0 2650 
66 1 -0.0104507 0.0208892 -0.0078005 0.000233 -0.00951856 0.0364197 -0.00386543 2650 
489 1 -0.000487432 0.000361821 -0.00559579 0.000847 -0.0259232 -0.0202651 0.0153532 2650 
51 1 -0.00579768 0.0037412 -0.00599605 0.000233 -0.0138358 -0.00903861 -0.0230717 2650 
15 1 -0.00295647 0.00688807 -0.0053216 0.001312 0.00136181 0.0152044 -0.0277942 2650 
79 1 -0.009334 0.0082423 -0.006031 0.000233 0 -0.011754 0 2650 
72 1 -0.00350694 0.0222916 -0.00498131 0.000847 -0.0198786 0.0444843 -0.026581 2650 
286 1 -0.016281 0.0012323 -0.003576 0.000233 0 -0.011754 0 2650 
306 1 -0.011393 0.000606296 -0.004559 0.000847 0 -0.011754 0 2650 
229 1 -0.0155268 0.00260525 -0.00375416 0.000847 -0.000169989 -0.0118082 -1.68751e-06 2650 
237 1 -0.00191681 0.00220196 -0.00348702 0.001312 -0.00761684 -0.000712423 -0.000817686 2650 
466 1 -0.015616 0.0043503 -0.003521 0.000233 0 -0.011754 0 2650 
478 1 -0.010102 0.0047543 -0.003546 0.000233 0 -0.011754 0 2650 
413 1 -0.000914747 0.0050291 -0.00459694 0.000233 -0.0184911 0.00790297 -0.00254256 2650 
2 1 -0.012657 0.00714117 -0.00467828 0.001312 0.00808616 -0.00247549 -0.00933228 2650 
467 1 -0.0112635 0.00694331 -0.00403116 0.000233 0.00319889 -0.0119441 0.00112982 2650 
112 1 -0.009312 0.0075393 -0.004659 0.000847 0 -0.011754 0 2650 
145 1 -0.007489 0.0077523 -0.00326 8.4e-05 0 -0.011754 0 2650 
331 1 -0.0146074 0.00927912 -0.00360528 0.000847 0.0094052 0.0213481 -0.00684148 2650 
149 1 -0.011995 0.00931569 -0.00411397 0.000847 0.00559547 0.000619828 -0.000397969 2650 
199 1 -0.00392919 0.00960224 -0.00412431 0.001312 -0.00589796 -0.00428884 -0.0021018 2650 
87 1 -0.0117567 0.030168 -0.00378613 0.000847 -0.108522 0.0902812 -0.0426286 2650 
505 1 -0.0123578 0.000471131 -0.00213117 0.000233 -0.00423101 -0.00434391 0.00740396 2650 
84 1 -0.004923 0.0012053 -0.002038 0.000847 0 -0.011754 0 2650 
168 1 -0.011097 0.0025443 -0.001986 0.000233 0 -0.011754 0 2650 
312 1 -0.00805352 0.0056486 -0.00299479 0.000233 -0.0245499 -0.0247387 -0.0112885 2650 
399 1 -0.00767977 0.00698982 -0.00218941 0.000847 -0.0343417 -0.00727197 -0.00368845 2650 
301 1 -0.000431 0.0064933 -0.003081 8.4e-05 0 -0.011754 0 2650 
245 1 -0.015895 0.0082123 -0.001607 0.000233 0 -0.011754 0 2650 
204 1 -0.00581934 0.00883117 -0.00265054 0.000847 -0.000382133 -0.0115433 7.53889e-06 2650 
285 1 -0.00471367 0.00867153 -0.00307803 0.000233 -0.00281725 -0.00989628 -0.000983831 2650 
214 1 -0.001591 0.0093953 -0.002687 0.000847 0 -0.011754 0 2650 
63 1 -0.000147 0.0096133 -0.0027 0.000233 0 -0.011754 0 2650 
384 1 -0.00277837 0.000464238 -0.00036022 0.000847 -0.00928216 0.00410536 0.0475918 2650 
201 1 -0.005857 0.0029393 -0.001367 0.000847 0 -0.011754 0 2650 
75 1 -0.004976 0.0077463 -0.001105 0.000233 0 -0.011754 0 2650 
137 1 -0.00797324 0.015721 -0.000193844 0.000847 -0.0435427 0.0421262 -0.00186797 2650 
418 1 -0.0136985 0.0181626 -0.00136104 8.4e-05 0.0565282 0.0445312 0.0141261 2650 
373 1 -0.015091 0.0039783 0.000947 0.000847 0 -0.011754 0 2650 
310 1 -0.00409447 0.00319268 0.00112569 0.000233 -0.091255 -0.013942 -0.0341636 2650 
450 1 -0.0158956 0.00705453 0.00115652 0.000847 0.00333941 -0.00721395 0.0131887 2650 
186 1 -0.0154382 0.00907939 1.47044e-05 0.001312 0.00108872 -0.00772704 -0.000169001 2650 
504 1 -0.012481 0.0089643 0.001551 0.000233 0 -0.011754 0 2650 
474 1 -0.00940225 0.00861619 0.000375722 0.000847 0.0275537 0.0248876 0.00687161 2650 
517 1 -0.00906483 0.0103907 0.000440309 0.000233 0.0259823 0.0335168 0.00669738 2650 
188 1 -0.00463164 0.0201066 0.00145416 0.000847 0.00721131 0.0301563 0.00476899 2650 
323 1 -0.008651 0.0015253 0.002916 0.000233 0 -0.011754 0 2650 
364 1 -0.0139 0.0021873 0.002152 0.000233 0 -0.011754 0 2650 
242 1 -0.010702 0.0068273 0.00289 0.000847 0 -0.011754 0 2650 
376 1 -0.005395 0.0072363 0.002758 0.000233 0 -0.011754 0 2650 
174 1 -0.001898 0.0067593 0.003155 0.000847 0 -0.011754 0 2650 
302 1 -0.01139 0.0013583 0.00396 0.001312 0 -0.011754 0 2650 
441 1 -0.014312 0.0016633 0.004679 0.000233 0 -0.011754 0 2650 
206 1 -0.002945 0.0023333 0.003686 0.000233 0 -0.011754 0 2650 
131 1 -0.009967 0.0070863 0.004313 0.000233 0 -0.011754 0 2650 
156 1 -0.015257 0.0083453 0.00371 0.000233 0 -0.011754 0 2650 
296 1 -0.002285 0.0089253 0.004233 0.000233 0 -0.011754 0 2650 
470 1 -0.008539 0.0099843 0.004033 8.4e-05 0 -0.011754 0 2650 
374 1 -0.006913 0.0098913 0.00361 0.000233 0 -0.011754 0 2650 
42 1 -0.00752409 0.0738517 0.00468408 0.001312 -0.116147 0.17766 -0.0102211 2650 
274 1 -0.005863 0.0014383 0.005228 0.000233 0 -0.011754 0 2650 
189 1 -0.001267 0.0010043 0.004803 0.000847 0 -0.011754 0 2650 
195 1 -0.014509 0.0026443 0.005621 0.000233 0 -0.011754 0 2650 
135 1 -0.0085498 0.00427684 0.00521796 0.000847 7.01786e-05 -0.0111024 -0.000238173 2650 
431 1 -0.007173 0.0037073 0.006023 8.4e-05 0 -0.011754 0 2650 
223 1 -0.014414 0.0063783 0.005039 8.4e-05 0 -0.011754 0 2650 
56 1 -0.011864 0.0057363 0.004858 0.001312 0 -0.011754 0 2650 
469 1 -0.012765 0.0076253 0.005129 0.000233 0 -0.011754 0 2650 
90 1 -0.009269 0.0078683 0.005356 0.000233 0 -0.011754 0 2650 
361 1 -0.012031 0.0092433 0.0053 0.000233 0 -0.011754 0 2650 
244 1 -0.002251 0.0094463 0.006118 0.000233 0 -0.011754 0 2650 
172 1 -0.000863 0.0081393 0.00598 0.001312 0 -0.011754 0 2650 
96 1 -7.1e-05 0.0028983 0.006733 0.000847 0 -0.011754 0 2650 
283 1 -0.00727 0.0053943 0.006824 0.000233 0 -0.011754 0 2650 
256 1 -0.00468558 0.00571129 0.00657321 0.000847 -0.00429144 -0.0114483 0.0061069 2650 
329 1 -0.000212 0.0057973 0.006779 0.000847 0 -0.011754 0 2650 
369 1 -0.008047 0.0077833 0.006729 0.000847 0 -0.011754 0 2650 
355 1 -0.012705 0.0088213 0.006672 0.000847 0 -0.011754 0 2650 
196 1 -0.00934133 0.00416456 0.00833641 0.000233 -0.00735608 -0.00131167 0.0300939 2650 
88 1 -0.010473 0.0052763 0.008034 0.000233 0 -0.011754 0 2650 
130 1 -0.004749 0.0054773 0.009456 0.000233 0 -0.011754 0 2650 
417 1 -0.001923 0.0055433 0.008831 0.000233 0 -0.011754 0 2650 
462 1 -0.013341 0.0077603 0.008656 0.000847 0 -0.011754 0 2650 
45 1 -0.001763 0.0066013 0.008462 0.000847 0 -0.011754 0 2650 
152 1 -0.00171692 0.00883025 0.00801358 0.000847 0.00503329 -0.0126714 0.00211612 2650 
22 1 -0.002569 0.0082323 0.009366 0.000233 0 -0.011754 0 2650 
178 1 -0.000470063 0.00898126 0.0092923 0.000847 0.00916855 -0.00897693 0.00225135 2650 
495 1 -0.0116242 0.0150773 0.00872422 0.000233 0.033012 0.00318582 -0.0311893 2650 
365 1 -0.00515525 0.0316758 0.00872144 0.000233 -0.0631254 0.0667025 -0.0304057 2650 
372 1 -0.010707 0.0022683 0.010207 0.000847 0 -0.011754 0 2650 
41 1 -0.008377 0.0017123 0.009542 8.4e-05 0 -0.011754 0 2650 
259 1 -0.007193 0.0017443 0.011052 0.000233 0 -0.011754 0 2650 
321 1 -0.010881 0.0047483 0.010029 0.000847 0 -0.011754 0 2650 
219 1 -0.00835192 0.00353824 0.0101858 0.000233 0.0111426 0.00521502 -0.0209202 2650 
176 1 -0.003497 0.0037383 0.009518 0.000847 0 -0.011754 0 2650 
267 1 -0.00832 0.0058463 0.009655 0.000847 0 -0.011754 0 2650 
509 1 -0.001563 0.0051323 0.010036 8.4e-05 0 -0.011754 0 2650 
475 1 -0.007166 0.0083433 0.009694 0.000847 0 -0.011754 0 2650 
291 1 -0.00168564 0.00863142 0.010422 0.000847 0.000368443 -0.000878557 -0.00367841 2650 
226 1 -0.005007 0.0053353 0.011519 0.000847 0 -0.011754 0 2650 
235 1 -0.00605 0.0061993 0.012276 0.000233 0 -0.011754 0 2650 
518 1 -0.011612 0.0065993 0.01181 0.000233 0 -0.011754 0 2650 
73 1 -0.010447 0.0069383 0.011428 0.000847 0 -0.011754 0 2650 
128 1 -0.003888 0.0070183 0.011415 0.000233 0 -0.011754 0 2650 
55 1 -0.000803273 0.00792642 0.012438 0.001312 0.0129923 0.0123988 -0.00438465 2650 
516 1 -0.010492 0.0084733 0.012435 0.000233 0 -0.011754 0 2650 
313 1 -0.004641 0.0096643 0.011299 0.000233 0 -0.011754 0 2650 
180 1 -0.005697 0.0042383 0.013052 0.000233 0 -0.011754 0 2650 
379 1 -0.006906 0.0062493 0.013866 8.4e-05 0 -0.011754 0 2650 
443 1 -0.004264 0.0057173 0.013262 0.000233 0 -0.011754 0 2650 
192 1 -0.009107 0.0068823 0.013183 0.000233 0 -0.011754 0 2650 
9 1 -0.00172903 0.00140221 0.0149044 0.000233 0.00683895 -0.0120635 0.0025543 2650 
311 1 -0.002572 0.0027373 0.015752 0.000233 0 -0.011754 0 2650 
419 1 -0.000495268 0.0030334 0.015563 0.001312 -0.00457888 -0.00621977 -0.00139028 2650 
484 1 -0.000843324 0.00605792 0.0145313 0.001312 0.0411284 0.0139459 0.00815566 2650 
446 1 -0.000353 0.0090193 0.015695 0.000847 0 -0.011754 0 2650 
182 1 0.00121743 -0.0117818 -0.0687635 0.000233 -4.6739 -0.127787 -0.176251 2650 
236 1 0.00797467 -0.00832719 -0.0684582 8.4e-05 -5.77398 0.427489 -0.650529 2650 
33 1 0.0077165 -0.0237428 -0.0677203 0.000847 -5.68603 0.257536 -0.659029 2650 
23 1 0.0134624 -0.014652 -0.0674523 0.000233 -5.39095 0.0212183 -1.0992 2650 
290 1 0.013943 -0.0131695 -0.0667298 0.000847 -5.40341 0.106431 -1.15209 2650 
4 1 0.0306054 -0.0202437 -0.0608979 0.000847 -5.84305 -0.134153 -2.96852 2650 
124 1 0.0389717 -0.0457729 -0.0558661 0.000847 -6.13627 -0.0607627 -4.3753 2650 
453 1 0.0411513 -0.000747366 -0.0550948 0.000233 -2.98077 -0.108372 -2.18778 2650 
473 1 0.0448416 -0.0370271 -0.0513246 0.000847 -5.17509 -0.11258 -4.49965 2650 
170 1 0.0488159 -0.00572897 -0.0484345 0.000233 -3.95609 0.222919 -3.98549 2650 
272 1 0.0510133 -0.0383854 -0.0461168 0.000233 -3.09718 0.415579 -3.39341 2650 
367 1 0.049985 -0.0423576 -0.045666 0.001312 -3.6604 0.0862536 -4.0195 2650 
102 1 0.0519808 -0.0125334 -0.0450408 0.000233 -2.9713 -0.226846 -3.36911 2650 
129 1 0.0584316 -0.00840984 -0.0362664 0.000233 -2.1259 -0.457132 -3.45837 2650 
346 1 0.0590436 -0.0455076 -0.0340639 0.000847 -2.60455 0.328495 -4.45795 2650 
508 1 0.0611344 -0.0259985 -0.0314789 0.000233 -2.55338 -0.0451152 -4.72985 2650 
436 1 0.0628604 -0.0519755 -0.0263357 0.000847 -2.58059 0.00822739 -6.15891 2650 
221 1 0.0668768 -0.0275832 -0.0160047 0.000233 -0.964168 0.167742 -3.94904 2650 
141 1 0.002289 -0.0025057 -0.014794 0.000233 0 -0.011754 0 2650 
340 1 0.0674385 -0.0162226 -0.0142209 8.4e-05 -1.21706 -0.496591 -5.93032 2650 
459 1 0.00727869 -0.00228629 -0.0141418 0.000847 -0.00311424 -0.00489007 0.00512044 2650 
520 1 0.00256 -0.0026977 -0.012598 0.000233 0 -0.011754 0 2650 
362 1 0.011937 -0.0012667 -0.011389 0.000233 0 -0.011754 0 2650 
134 1 0.00834403 -0.000737354 -0.0100918 0.001312 0.00252032 -0.0195034 -0.00723364 2650 
305 1 0.000854222 -0.00231839 -0.00924438 0.000847 0.00026799 -0.01275 -0.000913272 2650 
232 1 0.00468749 -0.00204131 -0.009145 0.000233 -0.00936846 -0.0470955 0.0229902 2650 
337 1 0.014381 -0.00245854 -0.00805243 0.000233 -0.00953981 -0.0672087 0.00741562 2650 
330 1 2.15032e-05 -0.00125442 -0.00814084 0.000847 -0.023599 -0.0204272 -0.00202641 2650 
250 1 0.0119076 -0.00116898 -0.00820019 0.001312 -0.0171904 -0.0166685 0.00611425 2650 
401 1 0.00382069 -0.00334467 -0.00642448 0.000233 0.212569 -0.0261505 -0.357435 2650 
197 1 0.000379671 -0.00171863 -0.00693321 8.4e-05 -0.0440055 -0.0254416 -0.0315804 2650 
202 1 0.0141138 -0.0013793 -0.00675875 0.000847 -0.0084976 -0.00490325 0.0109606 2650 
316 1 0.00628098 -0.00223291 -0.00568393 0.000847 0.0205692 -0.0260093 0.0561621 2650 
339 1 0.001696 -0.000533704 -0.005869 0.000233 0 -0.011754 0 2650 
268 1 0.0135757 -0.000456832 -0.00504211 0.000847 -0.0139345 -0.00911301 0.00473768 2650 
297 1 0.009274 -0.0020957 -0.004716 0.000233 0 -0.011754 0 2650 
171 1 0.0688765 -0.0242181 -0.00234446 8.4e-05 -0.147212 -0.488112 -3.98091 2650 
490 1 0.0686981 -0.0106609 -0.00328005 0.000233 -0.229763 -0.100194 -4.84564 2650 
433 1 0.0145429 -0.00223052 -0.00175365 0.000847 -0.0162093 -0.0167517 0.00294017 2650 
393 1 0.00656662 -0.000945212 -0.00260387 0.001312 0.00509275 -0.0263925 -0.00621887 2650 
288 1 0.0689237 -0.0167944 -0.000985946 8.4e-05 -0.0945047 -0.13526 -4.51654 2650 
454 1 0.009343 -0.0030157 -0.001501 0.000233 0 -0.011754 0 2650 
34 1 0.00894009 -0.000776801 -0.00014768 0.000847 0.0440345 0.0139744 -0.0043686 2650 
190 1 0.06815 -0.054903 0.00099748 0.000847 0.121475 -0.105814 -5.24746 2650 
120 1 0.000510177 -0.00331473 0.00140299 0.001312 0.0124327 -0.0178358 0.0341899 2650 
434 1 0.002752 -0.0028607 0.000852 0.000847 0 -0.011754 0 2650 
396 1 0.005166 -0.000911704 0.00144 0.000847 0 -0.011754 0 2650 
480 1 0.00564 -2.97037e-05 0.00063 0.000233 0 -0.011754 0 2650 
485 1 0.010206 -0.000338379 0.00102057 0.000847 0.0394973 -0.00656247 0.0337742 2650 
427 1 0.0125651 -0.000234032 0.000335882 0.000233 -0.000341839 -0.0116929 -0.000277084 2650 
179 1 0.00765615 -0.00190989 0.0019986 0.000233 0.023119 -0.0137212 0.0469801 2650 
111 1 0.011904 -0.000208704 0.002793 0.000847 0 -0.011754 0 2650 
300 1 0.068685 -0.0152428 0.00366838 0.000233 0.316481 -0.231679 -6.16223 2650 
59 1 0.0150505 -0.00597852 0.00443712 0.000847 0.329411 -0.937493 0.00997488 2650 
127 1 0.0686136 -0.0422578 0.00473041 0.000233 0.337185 -0.286478 -4.92191 2650 
513 1 0.0679107 -0.0170302 0.00593572 0.000847 0.574023 -0.110258 -6.06511 2650 
44 1 0.0680096 -0.0152051 0.00469359 0.000847 0.44201 -0.0248086 -6.00981 2650 
64 1 0.0686157 -0.0109808 0.00472442 0.000233 0.434505 0.581704 -5.89711 2650 
106 1 0.00181 -0.000313704 0.00562 8.4e-05 0 -0.011754 0 2650 
249 1 0.008036 -0.0012457 0.006254 8.4e-05 0 -0.011754 0 2650 
277 1 0.0124274 -0.00111591 0.0052785 0.000847 -0.0525552 0.00371334 0.0478449 2650 
320 1 0.000962045 -0.00144541 0.00776742 0.000847 0.0116108 -0.0151842 -0.0062654 2650 
463 1 0.0675366 -0.0382304 0.00918585 0.000847 0.788057 -0.653964 -5.87302 2650 
439 1 0.002533 -0.0017057 0.008747 0.000233 0 -0.011754 0 2650 
10 1 0.00074 -0.000315704 0.009007 0.000233 0 -0.011754 0 2650 
322 1 0.0347953 -0.0126198 0.00963011 0.000233 4.82128 -1.04444 1.40329 2650 
481 1 0.000293 -0.0026487 0.009789 0.000233 0 -0.011754 0 2650 
385 1 0.00207889 -0.00240307 0.00948844 0.000847 0.00929607 -0.0170864 0.00372201 2650 
32 1 0.007496 -0.0032677 0.012128 0.000847 0 -0.011754 0 2650 
21 1 0.00345296 -0.00311294 0.011976 0.000847 0.00413412 -0.0100775 0.00481005 2650 
150 1 0.0051898 -0.00223668 0.0124517 0.000847 0.00585547 -0.00806862 0.0040817 2650 
281 1 0.00906925 -0.000253314 0.0118742 0.000847 0.00284275 -0.0241211 0.00160549 2650 
230 1 0.0669856 -0.0167625 0.0125616 0.000847 1.12785 0.0686158 -6.07626 2650 
181 1 0.0675327 -0.0124409 0.0129907 0.000233 0.869314 -0.111596 -4.50068 2650 
78 1 0.004456 -0.0032747 0.014175 0.000233 0 -0.011754 0 2650 
451 1 0.00484526 -0.0014675 0.0140597 0.000847 0.0283184 -0.0139299 -0.0126022 2650 
231 1 0.00623 -0.0023087 0.014979 0.000233 0 -0.011754 0 2650 
317 1 0.0657809 -0.0445744 0.0178146 0.000847 1.28227 0.323471 -5.49924 2650 
18 1 0.0641117 -0.0312036 0.0231281 0.000847 1.7782 -0.258018 -4.61867 2650 
421 1 0.0635349 -0.0305729 0.0246643 0.000847 1.73088 -0.671547 -4.37373 2650 
349 1 0.0634087 -0.0172971 0.0266108 0.000233 1.57726 0.178197 -3.87905 2650 
275 1 0.0629377 -0.0319223 0.028074 8.4e-05 2.27869 0.428182 -5.17362 2650 
138 1 0.0615926 -0.0364926 0.0291781 0.000847 3.17459 0.0169295 -6.74178 2650 
498 1 0.061997 -0.0280548 0.0283079 0.000847 2.5589 -0.00664466 -5.5405 2650 
411 1 0.0606303 -0.0302209 0.0311319 0.000847 3.21005 -0.0586369 -6.3772 2650 
465 1 0.0546116 -0.0192379 0.0418087 0.000233 3.42383 0.297307 -4.45826 2650 
241 1 0.0450476 -0.0306633 0.0511495 0.000847 5.55492 -0.0397771 -4.86322 2650 
410 1 0.0383112 -0.0406871 0.0563349 0.000847 5.09934 -0.11179 -3.59561 2650 
19 1 0.0335965 -0.0569818 0.0592999 0.000847 6.07141 -0.0579654 -3.44913 2650 
257 1 0.0257489 -0.060419 0.0637621 0.000233 3.3525 -0.672048 -1.32116 2650 
247 1 0.0259596 -0.0224176 0.0636725 0.000233 4.98702 -0.0938668 -1.94177 2650 
194 1 0.0125962 -0.0404216 0.0676104 0.000233 6.8563 -0.020936 -1.29738 2650 
334 1 0.00931689 -0.0317467 0.0675161 0.000847 6.96561 -0.0492806 -0.967902 2650 
159 1 0.0096027 -0.0244683 0.0670129 0.001312 6.89036 0.0068843 -0.971023 2650 
491 1 0.0154009 -0.0163267 0.0670363 0.000233 6.30984 -0.266102 -1.45676 2650 
500 1 0.00420043 -0.0314657 0.0680263 0.000847 6.50337 -0.294163 -0.410675 2650 
258 1 0.00201007 -0.0103571 0.0687449 0.000233 4.42203 0.0263641 -0.136141 2650 
521 1 0.00405949 -0.00589541 0.068797 8.4e-05 5.24282 -0.412671 -0.279115 2650 
357 1 0.00285894 0.00279487 -0.0158189 0.000847 -0.0167271 0.0190644 0.000426107 2650 
153 1 0.000703458 0.00511663 -0.0165871 0.000233 -0.0399919 0.0268401 0.00224061 2650 
325 1 0.00288388 0.00545607 -0.0158134 0.000233 -0.0174712 0.030416 0.00592618 2650 
282 1 0.00426198 0.00191946 -0.0154514 0.000847 -0.0251331 0.00582234 0.00216676 2650 
356 1 0.00218363 0.0046551 -0.0152298 0.000847 0.000156151 -0.00988765 0.00033183 2650 
246 1 0.00395588 0.00542818 -0.0147539 0.000233 0.0138094 0.00560836 0.0193502 2650 
228 1 0.00567439 0.00648194 -0.0146689 0.000847 -0.034672 0.101881 -0.00517124 2650 
412 1 0.0072841 0.00692008 -0.0142563 0.000847 -0.00398943 -0.0108668 -0.00184589 2650 
94 1 0.002982 0.0092523 -0.014222 0.001312 0 -0.011754 0 2650 
366 1 0.005681 0.0081933 -0.015538 8.4e-05 0 -0.011754 0 2650 
82 1 0.00224174 0.00100147 -0.0139679 0.001312 -0.00555002 0.000711421 -0.00214032 2650 
494 1 0.00284881 0.00268483 -0.0133369 0.000233 0.00774443 -0.0187431 0.0192459 2650 
177 1 0.00459527 0.00175642 -0.0137616 0.000847 -0.0553123 0.0258265 -0.00141257 2650 
386 1 0.00433345 0.00362628 -0.01365 0.000847 -0.013092 0.0105003 0.00494827 2650 
342 1 0.00409 0.0066243 -0.013033 0.000847 0 -0.011754 0 2650 
12 1 0.00627 0.0070073 -0.013543 0.000233 0 -0.011754 0 2650 
207 1 0.007509 0.0094133 -0.013163 0.000233 0 -0.011754 0 2650 
444 1 0.000432 0.0102703 -0.014191 8.4e-05 0 -0.011754 0 2650 
397 1 0.00888339 0.000941698 -0.0125916 0.000847 2.47281e-05 -0.0117498 -1.66727e-05 2650 
110 1 0.0101623 0.00016 -0.0111843 0.000847 0.00332668 -0.0110523 -0.00314649 2650 
287 1 5.75757e-05 0.00278927 -0.0124468 0.000233 0.00707277 0.000687299 -0.00441923 2650 
67 1 0.00818908 0.00203096 -0.0119919 8.4e-05 0.0310471 0.0126302 0.0176102 2650 
91 1 0.000109852 0.00410627 -0.0112948 0.000233 -0.00292347 -0.00793016 -0.00296145 2650 
404 1 0.009844 0.0035503 -0.011142 0.000233 0 -0.011754 0 2650 
139 1 0.00363265 0.00501426 -0.0111399 0.000847 0.00619393 0.00838396 -0.00954173 2650 
210 1 0.0117462 0.0051941 -0.0115321 8.4e-05 -0.00850035 -0.00668207 -0.00752471 2650 
422 1 0.000147689 0.00759366 -0.0122444 0.000847 0.0138373 0.0211615 0.00769902 2650 
109 1 0.005483 0.0070863 -0.011097 0.000847 0 -0.011754 0 2650 
212 1 0.00326563 0.00816715 -0.0111835 0.001312 1.50924e-05 -0.0117336 -1.14626e-05 2650 
273 1 0.000843 0.0099723 -0.012177 0.000233 0 -0.011754 0 2650 
155 1 0.00123777 0.000866126 -0.0107556 0.000233 -0.0501494 -0.0200846 0.0160825 2650 
175 1 0.00355936 0.00111619 -0.0104309 0.000847 -0.0219983 -0.0295742 0.0159874 2650 
93 1 0.0127806 0.000496 -0.0100788 8.4e-05 -0.0111448 -0.00926872 0.00559827 2650 
522 1 0.00679 0.0020383 -0.01028 8.4e-05 0 -0.011754 0 2650 
157 1 0.006689 0.0026453 -0.009595 0.000233 0 -0.011754 0 2650 
144 1 0.000616 0.0036853 -0.009639 0.000233 0 -0.011754 0 2650 
217 1 0.0053529 0.00329048 -0.0110116 0.000847 -0.0240475 0.0321977 0.0430761 2650 
276 1 0.00867365 0.00473093 -0.00994273 0.001312 0.00792612 -0.00603745 0.0020324 2650 
163 1 0.012136 0.00455217 -0.0104436 0.000847 -0.00402157 -0.0121487 -0.00017611 2650 
58 1 0.00596271 0.00501509 -0.0100371 0.000847 0.00903336 -0.00877678 -0.0400819 2650 
405 1 0.001255 0.0069683 -0.009572 8.4e-05 0 -0.011754 0 2650 
30 1 0.00412 0.0136567 -0.00965091 0.001312 -0.00304289 0.00906275 -0.01558 2650 
423 1 0.0083379 0.00126338 -0.0090874 0.000847 0.0110994 -0.0177575 -0.00042185 2650 
389 1 0.011221 8.52963e-05 -0.009451 0.000233 0 -0.011754 0 2650 