ITEM: TIMESTEP
14814794
ITEM: NUMBER OF ATOMS
337
ITEM: BOX BOUNDS ff ff ff
-0.15 0.15
-0.15 0.15
-0.15 0.15
ITEM: ATOMS id type x y z radius vx vy vz density 
739 1 -0.0155455 -0.0412144 -0.0625859 0.000984 -23.7844 -10.6845 -46.8361 2650 
956 1 -0.0577464 -0.0247299 -0.0374497 0.000175 -0.100379 -0.736375 0.154753 2650 
1008 1 -0.0665878 -0.0548707 -0.0156404 0.000635 -17.8926 -6.01906 76.1468 2650 
727 1 -0.000240881 -0.00140135 -0.0123544 0.000175 0.0160888 -0.0108712 0.00482676 2650 
1282 1 -0.00300419 -0.00235709 -0.0104229 0.000175 -0.015916 -0.0213832 0.0439427 2650 
164 1 -0.00256085 -0.000148969 -0.00611659 0.000175 -0.100684 -0.194465 0.0464923 2650 
1251 1 -0.00596129 -0.000559662 0.00089387 0.000175 -0.0341488 -0.0348804 0.0362523 2650 
453 1 -0.0142449 -0.000335822 0.00295322 0.000635 0.0253744 -0.0489103 0.0240022 2650 
828 1 -0.0146973 -0.00145692 0.00501312 0.000175 -0.013832 -0.0143126 0.00115989 2650 
1152 1 -0.004408 -0.000729988 0.005639 0.000175 0 -0.01175 0 2650 
901 1 -0.0680694 -0.00408679 0.00706183 6.3e-05 2.55031 -0.0703798 -0.310147 2650 
770 1 -0.00905572 -0.00158546 0.0119713 6.3e-05 0.020983 -0.00972078 0.00265317 2650 
535 1 -0.00670777 -0.00109136 0.015204 0.000175 -0.0665068 -0.0159257 -0.02905 2650 
397 1 -0.00183259 -0.0011317 0.0154048 0.000175 0.00609463 -0.00186071 0.0226175 2650 
1293 1 -0.0100403 -0.00752862 0.0421917 0.000175 -1.50009 -0.593963 6.32442 2650 
771 1 -0.0338971 -0.0480124 0.0589872 0.000984 31.9271 -1.91394 18.334 2650 
138 1 -0.0187694 -0.0419256 0.0653911 0.000984 38.2899 10.6706 10.9831 2650 
421 1 -0.00932476 -0.0533254 0.0676982 0.000635 7.14244 -4.45793 0.914521 2650 
1158 1 -0.00148239 -0.00596742 0.068809 0.000175 -0.00932449 -0.141449 -0.00538737 2650 
1089 1 -0.0236804 0.0717135 -0.0646229 0.000175 3.82091 0.243405 -1.40013 2650 
491 1 -0.0558643 0.0735728 -0.0402028 0.000175 -0.158854 -0.0676159 0.220694 2650 
746 1 -0.0570645 0.0708484 -0.0376609 0.000635 -0.113008 -0.116509 0.17112 2650 
1088 1 -0.0030658 0.00737853 -0.0163856 0.000175 0.519119 0.079178 -0.139364 2650 
515 1 -0.00458049 0.0235905 -0.0156473 0.000635 -0.238758 0.0180299 0.0105852 2650 
1070 1 -0.0023393 0.000745693 -0.0154219 0.000984 0.0778264 -0.00727753 -0.0164186 2650 
616 1 -0.000258096 0.00323506 -0.0146407 0.000635 0.0496839 -0.0270836 -0.00926686 2650 
932 1 -0.00568921 0.0177119 -0.0155521 0.000175 -0.138162 -0.11268 0.0630394 2650 
772 1 -0.00664832 0.02251 -0.0144523 0.000984 -0.192855 0.023954 0.0800017 2650 
1232 1 -0.00837541 0.0254699 -0.0146571 6.3e-05 -0.268806 0.0785467 0.112769 2650 
373 1 -0.00668011 0.0262793 -0.0154501 6.3e-05 -0.749416 -0.145887 0.308134 2650 
1080 1 -0.000404284 0.0333208 -0.0152893 0.000635 -0.0742423 0.0344038 -0.0294049 2650 
1330 1 -0.00942556 0.0053524 -0.0138095 6.3e-05 -0.346374 -0.0206665 0.258055 2650 
900 1 -0.0105983 0.0209801 -0.0133343 6.3e-05 -0.0949756 -0.0166246 0.0597275 2650 
1164 1 -0.01021 0.0384778 -0.0133817 6.3e-05 -0.0867242 0.00395661 0.0624462 2650 
957 1 -0.0090116 0.0539621 -0.0134647 0.000175 0.0654438 0.0968118 -0.0380302 2650 
379 1 -0.0104711 0.0256724 -0.0124799 0.000635 -0.225274 0.0220332 0.16688 2650 
751 1 -0.00454336 0.0257279 -0.0126668 0.000635 -0.00774345 0.0357527 0.0110587 2650 
1265 1 -0.0105146 0.0614047 -0.012148 6.3e-05 -0.0237117 0.0585808 -0.0669344 2650 
292 1 -0.0064456 0.0063795 -0.0108093 0.000175 -0.0638196 0.0256353 -0.0961742 2650 
396 1 -0.00785117 0.0145151 -0.0118136 0.000175 -0.00499332 0.00687778 0.00838541 2650 
1193 1 -0.0126432 0.0162836 -0.0109435 0.000175 -0.160007 -0.0104791 0.18352 2650 
945 1 -0.00226406 0.0166988 -0.0108134 0.000635 -0.0240349 0.00665535 -0.0303935 2650 
1100 1 -0.00783166 0.0240497 -0.0115269 6.3e-05 -0.154 0.0617359 -0.0112026 2650 
273 1 -0.000421427 0.0479367 -0.0112284 0.000984 0.00807697 0.087446 0.0426926 2650 
198 1 -0.00164101 0.000320535 -0.00981794 0.000175 0.067197 -0.0126869 0.0374104 2650 
571 1 -0.008585 0.00438001 -0.010244 6.3e-05 0 -0.01175 0 2650 
517 1 -0.0120794 0.015232 -0.00966898 0.000635 0.0592094 0.00391897 0.0126818 2650 
516 1 -0.00702447 0.0159963 -0.0106266 0.000635 -0.0257037 0.0146865 0.0412411 2650 
1245 1 -0.00186276 0.0748957 -0.00981074 0.000635 -0.0598822 0.146973 0.0324678 2650 
490 1 -0.00861292 0.00205663 -0.00901278 0.000635 0.0407791 -0.000202429 -0.0398211 2650 
1033 1 -0.013396 0.00366201 -0.009423 6.3e-05 0 -0.01175 0 2650 
1289 1 -0.0137915 0.0125723 -0.0095151 0.000175 -0.134398 -0.00858262 0.251752 2650 
980 1 -0.0112791 0.0214048 -0.0089596 0.000635 0.0346606 0.02808 0.0123262 2650 
258 1 -0.0141199 0.0344418 -0.00852944 0.000175 -0.0976263 0.00807203 0.0689002 2650 
714 1 -0.0113611 0.0362885 -0.008781 0.000635 -0.0844385 0.039461 0.100282 2650 
472 1 -0.00122156 0.0401464 -0.00896116 6.3e-05 0.00995699 0.0515943 -0.0100183 2650 
67 1 -0.0131327 0.0459301 -0.00907678 6.3e-05 -0.0337119 0.0682583 -0.0198006 2650 
572 1 -0.00271875 0.0663006 -0.00888299 6.3e-05 0.00506827 0.0682336 0.0295527 2650 
752 1 -0.00741171 0.0693408 -0.00919372 0.000635 0.0360481 0.11806 0.0192317 2650 
101 1 -0.014189 0.00413901 -0.007683 6.3e-05 0 -0.01175 0 2650 
1182 1 -0.0122206 0.0244683 -0.00783659 0.000635 0.0256157 0.0304217 0.0338843 2650 
316 1 -0.0140394 0.0352871 -0.00809665 0.000635 -0.131111 -0.0772749 0.246469 2650 
1205 1 -0.00334593 0.0399627 -0.00817451 0.000635 0.021074 0.0667453 -0.0244109 2650 
261 1 -0.000427 0.00483001 -0.006302 0.000175 0 -0.01175 0 2650 
94 1 -0.0141746 0.0114118 -0.00611704 0.000175 -0.220411 0.0258659 0.297375 2650 
191 1 -0.0149258 0.0147573 -0.00659959 0.000175 0.0102592 0.00326646 -0.0355023 2650 
645 1 -0.0127809 0.0310151 -0.00614183 0.000635 -0.00630721 0.0460774 -0.0697953 2650 
922 1 -0.0148877 0.0341225 -0.00688605 0.000175 0.0018898 0.0604371 -0.0190527 2650 
1155 1 -0.0122132 0.0499163 -0.00710495 0.000175 0.0394362 0.0494461 -0.0526637 2650 
1 1 -0.00836355 0.0529603 -0.00624945 0.000984 -0.0658381 0.11626 -0.0798988 2650 
805 1 -0.01502 0.0098001 -0.0050938 0.000984 -0.129459 -0.0727827 0.491902 2650 
285 1 -0.0135248 0.013464 -0.00520743 0.000635 0.025088 0.0264236 0.0249134 2650 
538 1 -0.0148325 0.0241757 -0.00584793 6.3e-05 -0.0318782 0.0336994 -0.0716935 2650 
410 1 -0.0380996 0.0340392 -0.00350376 0.000984 -3.6527 -0.130795 36.7251 2650 
788 1 -0.006237 0.000195012 -0.003705 0.000175 0 -0.01175 0 2650 
1022 1 -0.002244 0.000689012 -0.00401 0.000175 0 -0.01175 0 2650 
1222 1 -0.00602922 0.00316946 -0.00413068 0.000175 -0.000823926 -0.0103451 -0.00598924 2650 
1148 1 -0.00634628 0.0158485 -0.00372559 0.000635 0.00813974 0.00648073 -0.0520808 2650 
296 1 -0.016113 0.0450914 -0.00364554 0.000175 -0.0482689 0.0777636 0.200041 2650 
999 1 -0.0115383 0.044478 -0.00365949 6.3e-05 0.0101617 0.114222 -0.0891846 2650 
268 1 -0.00950867 0.0574515 -0.00388416 0.000175 0.0277996 0.0486986 0.0135912 2650 
622 1 -0.0049178 0.0018678 -0.00287174 0.000635 -0.0312483 -0.00243646 -0.0517639 2650 
863 1 -0.00732541 0.0030039 -0.00327271 0.000175 -0.00559964 -0.0106365 -0.00410659 2650 
665 1 -0.011804 0.00464701 -0.002448 0.000175 0 -0.01175 0 2650 
303 1 -0.0165622 0.0183054 -0.00341034 6.3e-05 -0.0331135 0.143318 0.0528875 2650 
1198 1 -0.0162413 0.0399645 -0.00279139 6.3e-05 -0.0151123 0.0621731 0.0854003 2650 
1129 1 -0.00956903 0.00551746 -0.00147963 0.000175 -0.0117335 -0.00389042 -0.00243884 2650 
1308 1 -0.0144652 0.0094989 -0.00230841 0.000635 0.0176693 -0.00805527 0.0457206 2650 
55 1 -0.0165004 0.01112 -0.00131445 0.000175 -0.000593837 0.0112509 0.0168697 2650 
973 1 -0.0161438 0.0175269 -0.00172119 0.000635 -0.0247208 -0.0583442 0.607321 2650 
767 1 -0.0120385 0.0540388 -0.00215726 0.000175 -0.00238088 0.0853306 0.0359432 2650 
1315 1 -0.008679 4.90125e-05 -0.000613 0.000175 0 -0.01175 0 2650 
924 1 -0.00877654 0.00924792 -0.000964854 0.000175 0.0062608 0.0127381 0.0177113 2650 
760 1 -0.00532731 0.0222874 -0.000928267 0.000175 -0.133847 0.0356753 -0.073902 2650 
443 1 -0.00160792 0.0268614 -0.00084112 0.000984 0.0326647 0.0525338 -0.0336109 2650 
1212 1 -0.00635975 0.0609611 -0.000271131 0.000635 0.0467901 0.0923018 0.00815118 2650 
153 1 -0.0145346 0.0732575 -7.76322e-05 0.000635 -8.26566e-05 0.150012 0.0600018 2650 
558 1 -0.011131 0.00430101 0.000798 0.000175 0 -0.01175 0 2650 
1269 1 -0.0123037 0.00644782 0.000676707 0.000635 -0.0411711 0.000753661 -0.052319 2650 
701 1 -0.00187922 0.0154538 0.00119108 0.000175 0.0432088 0.0363741 -0.0409748 2650 
1026 1 -0.0130425 0.0297107 0.00096959 0.000175 0.0246877 0.0285708 0.0241764 2650 
537 1 -0.0141825 0.03568 0.000141503 6.3e-05 0.00287779 0.0531912 -0.0526252 2650 
93 1 -0.00320288 0.0433203 0.000217722 0.000175 0.0148271 0.0720952 -0.0502846 2650 
947 1 -0.016078 0.0264078 0.00121456 0.000635 0.0141316 0.0234135 -0.00488716 2650 
1223 1 -0.004473 0.00214001 0.002721 0.000175 0 -0.01175 0 2650 
629 1 -0.00248 0.00251301 0.002813 0.000175 0 -0.01175 0 2650 
586 1 -0.0116837 0.0292209 0.00333824 0.000635 0.00677678 0.042679 -0.0071317 2650 
1079 1 -0.014644 0.0397237 0.00287231 0.000635 0.0526113 0.0407497 -0.00282494 2650 
424 1 -0.00308579 0.0504441 0.00279086 0.000635 0.00793162 0.056283 0.0290702 2650 
987 1 -0.000127245 0.0502428 0.0032787 0.000175 -0.0264761 0.0565284 -0.00520713 2650 
66 1 -0.006818 0.00176501 0.004587 6.3e-05 0 -0.01175 0 2650 
165 1 -0.0101196 0.039784 0.00479492 0.000175 -0.00634257 0.0588998 0.00980155 2650 
530 1 -0.0111242 0.0413947 0.0041548 0.000175 0.00829209 0.0663841 -0.00884312 2650 
1217 1 -0.0046277 0.00308988 0.0050901 0.000175 -0.000942621 -0.0101844 -0.000321658 2650 
372 1 -0.00750818 0.00801619 0.00566731 6.3e-05 -0.0106514 0.00351897 0.00342164 2650 
685 1 -0.0146903 0.0129682 0.00532213 0.000635 -0.00421959 0.0452742 0.0359569 2650 
310 1 -0.0036775 0.0196545 0.00510972 0.000984 -0.123197 -0.0148724 0.0525303 2650 
520 1 -0.0681378 0.0412687 0.00572646 0.000635 -0.00839137 -0.343565 -0.0997899 2650 
52 1 -0.014287 0.0151397 0.0061108 0.000175 0.0251893 0.00487505 0.00431669 2650 
325 1 -0.0151445 0.033236 0.00711279 0.000175 0.0639096 -0.105565 0.154908 2650 
706 1 -0.0128368 0.0363938 0.00701052 0.000984 0.00434197 0.0549911 -0.0297133 2650 
90 1 -0.013025 0.0252966 0.008161 0.000175 0.00713327 0.0255296 0.0107142 2650 
902 1 -0.0149136 0.0427304 0.00777725 6.3e-05 0.0303799 0.0525894 0.0704695 2650 
979 1 -0.014386 0.0483782 0.00749224 0.000635 0.220789 0.0960829 0.511425 2650 
134 1 -0.0141375 0.00302366 0.00897775 6.3e-05 0.0390866 0.00716599 0.0526409 2650 
550 1 -0.0112508 0.00665825 0.00848125 0.000635 0.057387 -0.0126871 0.078141 2650 
577 1 -0.00632437 0.0225424 0.00908471 0.000635 -0.0601772 0.04697 0.00209495 2650 
715 1 -0.00140695 0.00471568 0.00990538 0.000635 0.0105001 -0.00342913 -0.0167707 2650 
1116 1 -0.0128192 0.0440973 0.00983891 0.000635 0.187635 0.0302419 0.251043 2650 
562 1 -0.00778304 0.0527298 0.0104924 0.000175 -0.000440573 0.0855638 0.0364224 2650 
1036 1 -0.00491078 0.0573712 0.0106964 0.000984 0.0868444 0.0800547 0.0234869 2650 
364 1 -0.00720526 0.0614395 0.0102818 0.000175 -0.0274729 0.113699 -0.0353632 2650 
270 1 -0.006581 0.00117201 0.011683 6.3e-05 0 -0.01175 0 2650 
822 1 -0.000405311 0.0228205 0.011654 0.000175 -0.0875092 0.0278918 -0.03493 2650 
1296 1 -0.0111212 0.0280621 0.0116707 6.3e-05 0.0129042 0.0393147 0.0494218 2650 
1207 1 -0.00925754 0.0495752 0.011195 0.000635 0.0201036 0.143813 0.0137797 2650 
773 1 -0.00725074 0.0601187 0.0119694 0.000984 0.0146184 0.0524811 -0.0110739 2650 
635 1 -0.00256371 0.00220149 0.012271 0.000175 -0.0367644 -0.0146836 -0.0017765 2650 
698 1 -0.009276 0.00647836 0.0121988 0.000175 -0.0136836 0.00631579 -0.0332257 2650 
814 1 -0.00709332 0.0146279 0.0123718 0.000635 -0.0109392 0.0087546 -0.0146486 2650 
679 1 -0.00969026 0.0310682 0.0122529 0.000635 0.0896798 -0.0307789 0.00516228 2650 
803 1 -0.00977766 0.0380805 0.0130609 6.3e-05 0.0294184 0.0412458 0.0372037 2650 
763 1 -1.23252e-05 0.0711322 0.0120354 0.000175 -0.00781582 0.168313 0.165131 2650 
1075 1 -0.0084528 0.00633255 0.0138383 0.000635 -0.179742 0.0186822 -0.133647 2650 
519 1 -0.00717753 0.0157154 0.0141782 0.000635 0.0410328 0.0813268 0.0299369 2650 
719 1 -0.00584404 0.0156807 0.0142159 0.000635 0.0798591 0.0270764 -0.00757275 2650 
1065 1 -0.00644848 0.0152481 0.0154973 6.3e-05 0.299537 -0.136321 0.049001 2650 
567 1 -0.00685459 0.0295142 0.0153005 0.000175 0.290845 0.140796 0.151378 2650 
942 1 -0.00741987 0.0453734 0.0144246 0.000635 -0.0717792 0.0781324 -0.031418 2650 
498 1 -0.00274454 0.0527887 0.0163199 0.000175 0.00581767 0.0802475 -0.0300599 2650 
899 1 -0.0099181 0.0589867 0.0274542 0.000175 -1.19484 0.0126745 3.53338 2650 
775 1 -0.0143254 0.0870208 -0.0668473 0.000635 -0.0485903 0.022905 0.0104132 2650 
1322 1 -0.0492854 0.0971724 -0.0298175 0.000175 11.2849 -0.347328 -9.36617 2650 
873 1 -0.00160365 0.0770013 -0.0119071 0.000635 0.00259651 0.20825 0.00242078 2650 
82 1 -0.0136284 0.0872836 -0.0103913 0.000635 -0.259287 0.130068 -0.222886 2650 
1120 1 -0.00660305 0.080654 -0.00882222 0.000175 -0.0560432 0.0973335 -0.072984 2650 
963 1 -0.00158588 0.0756388 -0.00754485 0.000175 -0.0347827 0.199019 0.0431201 2650 
439 1 -0.0119998 0.0765351 -0.00622512 6.3e-05 -0.0243268 0.0803513 -0.0586153 2650 
417 1 -0.00742946 0.0917616 -0.00643144 0.000635 -0.051399 0.179511 -0.0473735 2650 
849 1 -0.016512 0.0852575 -0.00330474 0.000635 -0.0543628 0.12969 0.0108953 2650 
354 1 -0.01294 0.133656 -0.00220681 0.000635 -0.0359262 0.171089 -0.0221489 2650 
1094 1 -0.00351905 0.106537 0.00099512 0.000175 -0.026842 0.235105 -0.0503115 2650 
574 1 -0.00352403 0.115854 0.000515426 0.000984 0.0229457 0.190912 -0.0268023 2650 
754 1 -0.000843099 0.121851 0.0111534 0.000635 0.00749884 0.15254 0.0475497 2650 
1224 1 -0.00170452 0.0758671 0.0149815 0.000175 0.0377279 0.115482 0.0232808 2650 
241 1 -0.0614438 0.134223 0.0292044 0.000984 -0.0753193 -0.1433 -0.158318 2650 
213 1 -0.0374992 0.102733 0.0571628 0.000635 -0.147693 -0.258357 -0.096887 2650 
370 1 -0.0248031 0.0895959 0.0640405 0.000175 -0.167361 0.101518 -0.071275 2650 
501 1 0.00365615 -0.00571711 -0.0447619 0.000175 0.417703 -0.264597 -6.54306 2650 
14 1 0.0512582 -0.0304278 -0.0315284 0.000635 89.8577 8.70526 121.179 2650 
686 1 0.0588721 -0.00956801 -0.0347694 0.000635 0.112217 -0.336026 0.189885 2650 
462 1 0.0634557 -0.00885009 -0.0266575 0.000175 0.0795952 -0.250425 0.189436 2650 
60 1 0.0142391 -0.00175558 -0.0262543 0.000175 -6.87704 0.329327 6.25296 2650 
710 1 0.0610884 -0.0593815 -0.0222746 0.000635 -7.54421 0.860996 -13.5082 2650 
1238 1 0.00631559 -0.00211335 -0.00623128 0.000635 0.0104546 -0.0158843 -0.011746 2650 
983 1 0.0449156 -0.0321494 0.00195991 0.000635 35.6106 -0.628427 32.9697 2650 
729 1 0.010208 -8.89875e-05 0.002656 0.000175 0 -0.01175 0 2650 
360 1 0.0200622 -0.00376219 0.00461247 0.000175 2.18006 -0.101322 0.477999 2650 
200 1 0.013022 -0.00270899 0.003646 0.000175 0 -0.01175 0 2650 
54 1 0.005637 -0.00294299 0.009018 0.000175 0 -0.01175 0 2650 
304 1 0.002986 -0.00125499 0.008788 6.3e-05 0 -0.01175 0 2650 
1277 1 0.00141164 -0.000217118 0.00917783 0.000635 -0.00398436 -0.00548707 -0.00742378 2650 
1054 1 0.005655 -0.000115988 0.008743 0.000175 0 -0.01175 0 2650 
962 1 0.008004 -0.00313799 0.009611 0.000175 0 -0.01175 0 2650 
523 1 0.00157565 -0.00288769 0.0130025 0.000635 4.36294e-06 -0.0117333 0.000107025 2650 
798 1 0.004927 -0.00280699 0.013693 0.000175 0 -0.01175 0 2650 
50 1 0.0591498 -0.0459698 0.0211906 0.000635 36.9457 -11.303 -33.8379 2650 
253 1 0.0573509 -0.0545857 0.0373495 0.000635 86.47 25.314 -132.742 2650 
649 1 0.036485 -0.00966638 0.0538715 0.000635 -0.421477 -0.394445 -1.05636 2650 
522 1 0.0356998 -0.0456789 0.0583036 0.000635 -8.9714 0.348899 5.49304 2650 
317 1 0.00734371 -0.0101483 0.0679694 0.000635 0.0466545 -0.224684 -0.00502562 2650 
115 1 0.0629986 0.0677343 -0.0265768 0.000635 -0.0802899 -0.283074 -0.190207 2650 
402 1 0.00220747 0.000320423 -0.0164136 0.000175 -0.0215028 0.000360171 -0.00959751 2650 
1257 1 0.000820216 0.0154932 -0.0166181 0.000175 -0.0922337 0.046683 -0.00342773 2650 
789 1 0.00134651 0.0164102 -0.0166191 0.000175 -0.175853 -0.0420487 -0.00767188 2650 
232 1 0.00501715 0.0305365 -0.0158543 0.000175 0.0557092 0.0417631 0.00405548 2650 
808 1 0.00361335 0.0341839 -0.0157885 0.000635 -0.349701 -0.0177384 -0.0883852 2650 
976 1 0.00648384 0.00450734 -0.0147803 0.000635 -0.129094 -0.126594 -0.0675924 2650 
176 1 0.00483339 0.00484584 -0.0155222 0.000635 0.108072 0.00498619 0.00560432 2650 
1186 1 0.00523473 0.00930146 -0.0154816 0.000175 0.104899 0.0480959 -0.00550599 2650 
1072 1 0.00282341 0.0214914 -0.0155283 0.000635 -0.158119 0.0319766 -0.0261292 2650 
1068 1 0.00467864 0.0227021 -0.0147292 0.000984 -0.132772 0.0530612 -0.0770178 2650 
411 1 0.000677814 0.0370343 -0.0151251 0.000984 8.93953e-05 0.0588757 0.0350071 2650 
367 1 0.00380311 0.0432966 -0.0146517 0.000175 -0.00548209 0.0535552 0.00190321 2650 
557 1 0.00444439 0.0464124 -0.0147894 0.000175 0.043388 0.0695419 0.0486933 2650 
1142 1 0.00261246 0.0566219 -0.0151468 0.000635 -0.0314187 0.0878008 -0.0035365 2650 
1119 1 0.00236082 0.0585587 -0.0153252 0.000175 0.0875814 0.0977659 -0.00931473 2650 
231 1 0.001457 0.00363706 -0.0132625 0.000175 -0.00129865 -0.0115267 0.000163275 2650 
781 1 0.00856225 0.0186028 -0.0139043 0.000635 -0.0698977 0.00792501 -0.0376961 2650 
489 1 0.00838979 0.051282 -0.0133428 0.000635 -0.0689352 0.0455139 -0.0260209 2650 
897 1 0.0108856 0.00251654 -0.0126916 0.000175 -0.0356689 0.0299653 -0.0164191 2650 
440 1 0.00245005 0.00995149 -0.0121831 6.3e-05 0.0660987 0.0092916 -0.000505106 2650 
929 1 0.0112469 0.0281009 -0.0124353 0.000175 -0.169014 0.0475366 -0.146831 2650 
450 1 0.0103475 0.0403289 -0.012553 0.000635 -0.0372112 0.0323539 -0.0191684 2650 
1039 1 0.00932513 0.044138 -0.0131509 0.000635 -0.132704 0.100049 -0.111486 2650 
939 1 0.00691931 0.0525617 -0.0122865 0.000635 -0.0619415 0.0733672 0.00267662 2650 
309 1 0.0163901 0.0604065 -0.0131834 0.000984 1.47323 0.0905076 -1.2793 2650 
1297 1 0.0122285 0.00847657 -0.0108581 6.3e-05 -0.00864716 0.0425214 0.0211336 2650 
1059 1 0.0116401 0.0104865 -0.011849 0.000175 0.0335109 0.0126285 0.0258991 2650 
496 1 0.0122197 0.0190951 -0.0109284 0.000175 0.092185 -0.0147998 0.129829 2650 
495 1 0.0038396 0.0277913 -0.0114024 0.000175 -0.0170681 0.0235121 0.0138596 2650 
583 1 0.0112371 0.0409204 -0.0116431 0.000635 -0.0306335 0.0950176 -0.0128164 2650 
1056 1 0.008546 0.00206001 -0.010429 0.000175 0 -0.01175 0 2650 
222 1 0.013375 0.0305247 -0.0100159 0.000175 -0.119184 0.0228209 -0.160278 2650 
254 1 0.0121977 0.0359371 -0.0102975 0.000635 -0.176053 -0.0414253 -0.2015 2650 
132 1 0.0135768 0.0633849 -0.00966299 0.000175 -0.0304761 0.205815 -0.0441158 2650 
1263 1 0.00164281 0.00337031 -0.00884775 6.3e-05 -5.52108e-05 -0.011226 0.0130423 2650 
1283 1 0.0142787 0.0285752 -0.00867504 0.000175 -0.0691776 -0.0419438 -0.091409 2650 
1221 1 0.0129825 0.0320452 -0.00926775 0.000175 -0.0216319 0.0459065 -0.03798 2650 
469 1 0.0145022 0.00326661 -0.00828835 0.000175 -0.0636489 -0.0651971 -0.0792894 2650 
749 1 0.014153 0.00390321 -0.00757184 0.000635 -0.026385 -0.0284706 -0.0925013 2650 
984 1 0.00956159 0.0364966 -0.00775701 0.000635 -0.0442845 0.092588 -0.040803 2650 
259 1 0.00672317 0.0588762 -0.00729429 0.000175 0.149261 0.111635 -0.0748424 2650 
493 1 0.00863893 0.0634807 -0.00677166 0.000175 0.0984559 0.184041 -0.0530709 2650 
1262 1 0.010899 0.000406012 -0.005031 0.000175 0 -0.01175 0 2650 
475 1 0.01496 0.00107083 -0.00525523 0.000984 -0.124997 0.0195835 -0.286964 2650 
463 1 0.005034 0.00227801 -0.005057 0.000175 0 -0.01175 0 2650 
125 1 0.0155462 0.0026837 -0.00581894 0.000175 -0.118243 0.00812977 -0.268619 2650 
969 1 0.00168241 0.0319825 -0.00506197 0.000984 0.102457 -0.00121718 0.0208918 2650 
521 1 0.00505658 0.0387144 -0.00482491 0.000635 -0.0107292 0.0068263 -0.107902 2650 
336 1 0.0144833 0.0083715 -0.00415602 0.000175 0.0378202 -0.014867 -0.019438 2650 
507 1 0.00238934 0.0189645 -0.0039793 0.000984 0.0299138 0.0251773 -0.0186139 2650 
278 1 0.015586 0.0230184 -0.00431117 0.000635 -0.0476226 0.0343988 -0.261625 2650 
333 1 0.00926616 0.0253382 -0.00476019 0.000175 0.0259514 0.0359455 0.0139357 2650 
592 1 0.0160932 0.0124829 -0.00319969 0.000175 -0.077028 0.00616937 -0.300457 2650 
1256 1 0.0161398 0.0185462 -0.00352767 0.000175 -0.0795584 0.0485777 -0.396071 2650 
480 1 0.0157574 0.0201675 -0.00292058 0.000635 -0.0631339 -0.0506852 -0.270704 2650 
777 1 0.00826715 0.022563 -0.00241049 0.000635 -0.0175457 0.0412341 0.0484292 2650 
505 1 0.0133608 0.0260745 -0.0027076 6.3e-05 -0.00252091 0.0293182 0.0301674 2650 
878 1 0.0158047 0.0272671 -0.00347164 0.000635 -0.0793898 0.00510705 -0.451306 2650 
734 1 0.0132629 0.0632536 -0.00263823 0.000175 -0.0373936 0.128068 -0.0658361 2650 
169 1 0.006597 0.00168101 -0.002208 6.3e-05 0 -0.01175 0 2650 
605 1 0.005345 0.00368501 -0.002048 6.3e-05 0 -0.01175 0 2650 
68 1 0.005451 0.00538801 -0.001535 6.3e-05 0 -0.01175 0 2650 
610 1 0.016211 0.0151942 -0.00129086 0.000635 -0.0153032 0.0150909 -0.0837561 2650 
670 1 0.0166836 0.043163 -0.00175041 6.3e-05 0.00620051 0.0787674 0.158704 2650 
1097 1 0.0016327 0.0470623 -0.00193146 0.000175 0.0029674 0.0682429 0.00574002 2650 
225 1 0.00547111 0.00413914 -2.54357e-05 0.000175 0.00264059 -0.0129039 0.00259193 2650 
927 1 0.00835312 0.00505686 -0.00115393 0.000175 -0.0277929 -0.0334044 0.0458911 2650 
1073 1 0.00920999 0.0147808 -0.000807836 0.000635 0.00098949 0.0203622 0.0467874 2650 
162 1 0.012424 0.019298 -0.00030134 0.000175 -0.0475712 0.0135164 -0.00409782 2650 
795 1 0.00456918 0.0210873 -0.000659205 0.000175 -0.013104 0.03785 0.0289092 2650 
1027 1 0.016599 0.0219271 -0.00101937 0.000175 -0.0266889 -0.0416149 -0.120087 2650 
703 1 0.0168207 0.0235092 -0.000971536 6.3e-05 0.00860668 -0.0113359 -0.220561 2650 
107 1 0.0162213 0.0299202 -0.000252193 0.000635 0.0158019 0.107603 -0.405192 2650 
565 1 0.00203373 0.0391691 -0.000390229 0.000175 -0.0552074 0.0501093 -0.0536072 2650 
1110 1 0.00972294 0.0407778 -0.000185625 0.000635 -0.0520416 0.0266692 0.0155023 2650 
394 1 0.0667766 0.0599488 -0.000823276 0.000175 1.09897 -0.0154473 0.0205321 2650 
301 1 0.002246 0.00227701 0.002099 0.000175 0 -0.01175 0 2650 
579 1 0.00723552 0.00366805 0.00182757 0.000635 0.0476603 -0.00428827 0.0295526 2650 
27 1 0.012286 0.00523701 0.001673 0.000175 0 -0.01175 0 2650 
603 1 0.015933 0.0400633 0.00151094 6.3e-05 0.0069049 0.115893 -0.0770251 2650 
399 1 0.00103328 0.00367134 0.00303271 0.000175 0.0109325 0.00254967 -0.03203 2650 
471 1 0.0050441 0.00780846 0.00425406 6.3e-05 -0.0103771 0.015617 0.00514545 2650 
1055 1 0.00214715 0.0189459 0.00475941 0.000175 -0.0286867 0.0136934 -0.00999794 2650 
280 1 0.015659 0.0179827 0.0039933 0.000635 -0.0175069 0.0341256 0.152438 2650 
481 1 0.00823935 0.0221668 0.00446828 0.000635 -0.00502753 0.0290872 -0.0366989 2650 
511 1 0.0155599 0.0237744 0.00430356 0.000635 0.0511348 -0.0384636 -0.21299 2650 
879 1 0.00543075 0.0694547 0.00405154 0.000635 0.0476516 0.151396 -0.0258068 2650 
975 1 0.0153279 0.00366346 0.00530997 0.000635 0.0172222 -0.0296481 -0.0634501 2650 
380 1 0.015366 0.014344 0.00526117 0.000635 0.0401036 0.00185906 -0.0479206 2650 
1259 1 0.012499 0.0328431 0.0051504 0.000175 0.0397896 0.0405256 -0.0314728 2650 
948 1 0.00739168 0.0718932 0.00505319 0.000635 0.0485795 0.139574 0.00587885 2650 
591 1 0.001823 0.00190101 0.006113 0.000175 0 -0.01175 0 2650 
1095 1 0.007483 0.00432101 0.007178 0.000175 0 -0.01175 0 2650 
1316 1 0.0128346 0.00994454 0.00650147 0.000175 -0.00915498 0.0232049 -0.00234329 2650 
674 1 0.0102596 0.0112481 0.0069925 0.000984 -0.0253574 0.0406966 -0.00310493 2650 
831 1 0.000496608 0.019563 0.00641409 0.000175 0.0128948 0.0104285 -0.0358818 2650 
288 1 0.0142899 0.0239902 0.00662243 0.000635 0.0478011 0.039708 -0.00745213 2650 
700 1 0.000251453 0.0257067 0.00620246 0.000175 0.0272146 0.0365675 0.00523879 2650 
1187 1 0.00489849 0.0300913 0.00683296 0.000175 0.0445453 0.0755408 0.0109439 2650 
256 1 0.00269066 0.0383051 0.00710807 0.000175 0.0231561 0.076766 -0.0260245 2650 
1123 1 0.007425 0.00304201 0.007759 0.000175 0 -0.01175 0 2650 
320 1 0.00187634 0.00428479 0.00727075 0.000635 0.00959752 -0.00295297 -0.0137221 2650 
204 1 0.014732 0.0497368 0.00738395 6.3e-05 0.247331 0.0573168 -0.549635 2650 
568 1 0.007217 0.00395501 0.008505 0.000175 0 -0.01175 0 2650 
337 1 0.013281 0.0175595 0.00952798 6.3e-05 -0.0195105 0.0228984 -0.0196122 2650 
459 1 0.00804376 0.0253442 0.00902058 0.000175 -0.0410455 0.0271437 0.00366704 2650 
1292 1 0.0144358 0.0252993 0.00844629 0.000175 0.15225 -0.130288 -0.245141 2650 
549 1 0.0129108 0.00772504 0.00980926 0.000635 0.151592 -0.0336937 -0.133808 2650 
334 1 0.00436819 0.0128187 0.00971823 0.000175 0.0676629 0.00988801 -0.0714131 2650 
48 1 0.00708286 0.0154084 0.0100714 0.000635 0.109172 0.0267029 -0.0490204 2650 
1118 1 0.00841285 0.0148339 0.00987806 0.000175 0.0848292 0.000755757 -0.0190992 2650 
596 1 0.0101717 0.0273585 0.0102228 0.000175 0.126792 -0.0218752 0.12345 2650 
344 1 0.0124018 0.0278556 0.00998565 0.000984 0.18077 -0.100065 -0.208398 2650 
615 1 0.0109615 0.02985 0.0103206 0.000635 -0.00430015 -0.0289618 -0.00718513 2650 
76 1 0.00941893 0.00116563 0.0116359 0.000635 0.0388246 0.0333268 -0.0620183 2650 
160 1 0.007407 0.00505401 0.011422 0.000175 0 -0.01175 0 2650 
884 1 0.00661293 0.021117 0.0115135 0.000635 0.0271624 0.0109336 -0.0210675 2650 
267 1 0.00830605 0.00018438 0.0122563 0.000175 0.0351803 -0.00994765 0.0183873 2650 
792 1 0.006737 0.00468901 0.012733 0.000175 0 -0.01175 0 2650 
778 1 0.00971593 0.0094632 0.0129286 0.000635 0.123462 -0.0353559 -0.0883667 2650 
242 1 0.0092007 0.0354744 0.012075 0.000984 0.0719253 0.10944 -0.0492392 2650 
937 1 0.00223606 0.0392828 0.0124206 0.000984 -0.0522874 0.0288325 0.0152463 2650 
1165 1 0.00861413 0.0510226 0.0121659 6.3e-05 0.0353006 0.0698385 -0.037945 2650 
1159 1 0.00677019 0.0530483 0.012825 0.000175 0.0392665 0.064913 0.0422187 2650 
92 1 0.00129396 0.0270825 0.0143151 0.000175 0.075689 0.0181005 -0.00987053 2650 
494 1 0.00879245 0.0462951 0.0141541 0.000175 0.477308 0.0637158 -0.356253 2650 
272 1 0.0082158 0.00200132 0.0146234 6.3e-05 0.0117662 -0.26055 -0.0103824 2650 
395 1 0.00774012 0.0242283 0.0148907 0.000175 0.272819 -0.0391839 -0.11228 2650 
1099 1 0.00506007 0.0576567 0.0147925 6.3e-05 -0.0390329 0.0680273 -0.0214539 2650 
827 1 0.00418765 0.0621992 0.0148619 0.000175 0.0297359 0.0933971 0.0206136 2650 
513 1 0.000207854 0.022092 0.0162157 0.000635 0.493537 0.0060351 0.0193241 2650 
1163 1 0.00226884 0.0238239 0.0163835 0.000175 0.109878 0.0768444 -0.0273827 2650 
1237 1 0.0658653 0.0646646 0.0169613 0.000635 4.76682 -0.191104 -25.8448 2650 
1021 1 0.0359487 0.0657452 0.0273848 0.000175 5.24264 0.0734052 3.97236 2650 
478 1 0.034613 0.0728597 0.0589552 0.000635 0.171126 -0.300348 -0.100469 2650 
916 1 0.00889221 0.117567 -0.0677842 0.000635 0.11033 -0.14143 0.0144736 2650 
811 1 0.0319869 0.0995484 -0.0565294 0.000635 -0.409125 0.0772098 1.05422 2650 
608 1 0.0640034 0.0751587 -0.023067 0.000984 -0.047998 -0.0321423 -0.133058 2650 
12 1 0.0110031 0.0788528 -0.0128659 0.000635 -0.0215451 0.159183 -0.0683876 2650 
555 1 9.58537e-05 0.0873214 -0.0129096 0.000635 -0.0135031 0.102418 -0.0757787 2650 
547 1 0.00821664 0.0912272 -0.0116492 0.000635 -0.0405601 0.173525 -0.0565043 2650 
190 1 0.0069508 0.108443 -0.0116734 0.000175 -0.0181167 0.192941 -0.00470619 2650 
297 1 0.00904381 0.0956266 -0.00962729 0.000175 0.122115 0.21721 0.00424879 2650 
57 1 0.0688032 0.0754278 -0.00186565 0.000175 0.00128423 -0.204874 0.0473536 2650 
102 1 0.0503945 0.0756488 0.0470396 6.3e-05 0.112575 -0.153653 -0.120592 2650 
