LIGGGHTS (Version LIGGGHTS-PUBLIC 3.8.0, compiled 2022-11-07-16:55:38 by serperd1, git commit 86544c3f1215bc9744d7929e3eacf53ba086af9e)
units si #
dimension 3 #
newton off #
boundary f f f #
atom_style sphere #
pair_style gran model hertz tangential history #
communicate single vel yes #
region outer_basket cylinder y 0 0 0.15 -0.15 0.15 #
create_box 3 outer_basket #
Created orthogonal box = (-0.15 -0.15 -0.15) to (0.15 0.15 0.15)
  2 by 4 by 5 MPI processor grid
variable my_omega equal 157.0796 #
fix cone_mesh all mesh/surface file cone.stl type 3 scale 1 #
fix rotating_wall_1 all move/mesh mesh cone_mesh rotate/variable origin 0 0 0 axis 0 1 0 omega v_my_omega #
fix filter_mesh_walls all wall/gran model hertz tangential history primitive type 2 ycylinder_filtermesh 0.069 0 0 2 8 -0.0628 0 0.028424 0.016469 0.10342 0.091469 shear x 10.8385 #

fix inlet_cyl_wall_mesh all mesh/surface file in_cyl.stl type 3 scale 1 #
fix top_cyl_wall_mesh all mesh/surface file top_cyl.stl type 3 scale 1 #
fix rotating_wall_4 all move/mesh mesh top_cyl_wall_mesh rotate/variable origin 0 0 0 axis 0 1 0 omega v_my_omega #
fix bot_cyl_wall_mesh all mesh/surface file bot_cyl.stl type 3 scale 1 #
fix rotating_wall_5 all move/mesh mesh bot_cyl_wall_mesh rotate/variable origin 0 0 0 axis 0 1 0 omega v_my_omega #
fix bot_disk_wall_mesh all mesh/surface file bottom_disk.stl type 3 scale 1 #
fix rotating_wall_6 all move/mesh mesh bot_disk_wall_mesh rotate/variable origin 0 0 0 axis 0 1 0 omega v_my_omega #
fix top_disk_wall_mesh all mesh/surface file top_disk.stl type 3 scale 1 #
fix rotating_wall_7 all move/mesh mesh top_disk_wall_mesh rotate/variable origin 0 0 0 axis 0 1 0 omega v_my_omega #
fix GMSH_mesh_walls all wall/gran model hertz tangential history mesh n_meshes 6 meshes cone_mesh top_cyl_wall_mesh bot_cyl_wall_mesh bot_disk_wall_mesh inlet_cyl_wall_mesh top_disk_wall_mesh #
fix Young_mod all property/global youngsModulus peratomtype 375000000 46000000 1000000000 #
fix Poisson_rat all property/global poissonsRatio peratomtype 0.32 0.42 0.29 #
fix Coeff_rest all property/global coefficientRestitution peratomtypepair 3 0.15 0.32 0.475 0.32 0.49 0.645 0.475 0.645 0.8 #
fix Coeff_fric all property/global coefficientFriction peratomtypepair 3 0.04 0.145 0.12 0.145 0.25 0.225 0.12 0.225 0.2 #

neighbor 0.0006561 bin #
neigh_modify delay 0 one 100000 page 5000000 #
fix r_0to10p all particletemplate/sphere 12345787 atom_type 1 density constant 2650 radius constant 0.000105 #
fix r_10to50p all particletemplate/sphere 15485863 atom_type 1 density constant 2650 radius constant 0.000291 #
fix r_50to90p all particletemplate/sphere 15485867 atom_type 1 density constant 2650 radius constant 0.0010582 #
fix r_90to100p all particletemplate/sphere 32452843 atom_type 1 density constant 2650 radius constant 0.0016402 #
fix prob_par all particledistribution/discrete 32452867 4 r_0to10p 0.1 r_10to50p 0.4 r_50to90p 0.4 r_90to100p 0.1 #
pair_coeff * * #
timestep 8.1e-08 #

fix nve_group all nve/sphere #
fix grav_fix all gravity 6.1081 vector 0.017 -0.0033 0 -1 0 #
fix cent_fix all centrifugal 157.0796 0.017 -0.0033 0.069 #

variable step equal step #
variable mycount equal count(all) #
fix print_amount_of_atoms all print 25 "${step} ${mycount}" file numatoms.txt screen no #
run 0 #
Setting up run at Fri Jan  6 12:04:52 2023

Memory usage per processor = 954.231 Mbytes
    Step    Atoms         KinEng            CPU 
       0        0              0              0 
Loop time of 6.37228e-05 on 40 procs for 0 steps with 0 atoms, finish time Fri Jan  6 12:04:52 2023


Pair  time (%) = 0 (0)
Neigh time (%) = 0 (0)
Comm  time (%) = 0 (0)
Outpt time (%) = 0 (0)
Other time (%) = 6.37228e-05 (100)

Nlocal:    0 ave 0 max 0 min
Histogram: 40 0 0 0 0 0 0 0 0 0
Nghost:    0 ave 0 max 0 min
Histogram: 40 0 0 0 0 0 0 0 0 0
Neighs:    0 ave 0 max 0 min
Histogram: 40 0 0 0 0 0 0 0 0 0

Total # of neighbors = 0
Neighbor list builds = 0
Dangerous builds = 0
run 1 #
Setting up run at Fri Jan  6 12:04:52 2023

Memory usage per processor = 954.231 Mbytes
    Step    Atoms         KinEng            CPU 
       0        0              0              0 
       1        0              0    0.009717592 
Loop time of 0.00973552 on 40 procs for 1 steps with 0 atoms, finish time Fri Jan  6 12:04:52 2023


Pair  time (%) = 2.1391e-06 (0.0219721)
Neigh time (%) = 0 (0)
Comm  time (%) = 0.0001848 (1.89821)
Outpt time (%) = 0.000103193 (1.05996)
Other time (%) = 0.00944539 (97.0199)

Nlocal:    0 ave 0 max 0 min
Histogram: 40 0 0 0 0 0 0 0 0 0
Nghost:    0 ave 0 max 0 min
Histogram: 40 0 0 0 0 0 0 0 0 0
Neighs:    0 ave 0 max 0 min
Histogram: 40 0 0 0 0 0 0 0 0 0

Total # of neighbors = 0
Neighbor list builds = 0
Dangerous builds = 0
read_dump dump.atom_info_1 1 x y z radius vx vy vz box no add yes replace no #
  orthogonal box = (-0.15 -0.15 -0.15) to (0.15 0.15 0.15)
  0 atoms before read
  305 atoms in snapshot
  0 atoms purged
  0 atoms replaced
  0 atoms trimmed
  305 atoms added
  305 atoms after read
set atom * type 1 density 2650 vy -0.01175 #
  305 settings made for type
  305 settings made for density
  305 settings made for vy
run 1 #
Setting up run at Fri Jan  6 12:04:52 2023

Memory usage per processor = 958.583 Mbytes
    Step    Atoms         KinEng            CPU 
       1      305  2.0462467e-07              0 
       2      305  2.4125357e-07    0.009215424 
Loop time of 0.00923381 on 40 procs for 1 steps with 305 atoms, finish time Fri Jan  6 12:04:52 2023


Pair  time (%) = 2.01083e-06 (0.0217768)
Neigh time (%) = 0 (0)
Comm  time (%) = 4.4763e-06 (0.0484773)
Outpt time (%) = 0.000145058 (1.57094)
Other time (%) = 0.00908227 (98.3588)

Nlocal:    7.625 ave 134 max 0 min
Histogram: 36 2 0 0 0 0 0 0 0 2
Nghost:    5.125 ave 59 max 0 min
Histogram: 36 0 0 0 0 0 0 2 0 2
Neighs:    2.375 ave 54 max 0 min
Histogram: 37 1 0 0 0 1 0 0 0 1

Total # of neighbors = 95
Ave neighs/atom = 0.311475
Neighbor list builds = 0
Dangerous builds = 0
write_dump all custom dump.atom_info_ac_* id type x y z radius vx vy vz density #
run 123456
Setting up run at Fri Jan  6 12:04:52 2023

Memory usage per processor = 958.583 Mbytes
    Step    Atoms         KinEng            CPU 
       2      305  2.4125357e-07              0 
  123458      305  6.0816412e-05      1206.3018 
Loop time of 1206.3 on 40 procs for 123456 steps with 305 atoms, finish time Fri Jan  6 12:24:58 2023


Pair  time (%) = 0.251691 (0.0208647)
Neigh time (%) = 0.0571791 (0.00474003)
Comm  time (%) = 0.472074 (0.039134)
Outpt time (%) = 0.000225673 (1.87078e-05)
Other time (%) = 1205.52 (99.9352)

Nlocal:    7.625 ave 136 max 0 min
Histogram: 36 2 0 0 0 0 0 0 1 1
Nghost:    5.15 ave 59 max 0 min
Histogram: 36 0 0 0 0 0 0 2 0 2
Neighs:    2.5 ave 57 max 0 min
Histogram: 36 2 0 0 1 0 0 0 0 1

Total # of neighbors = 100
Ave neighs/atom = 0.327869
Neighbor list builds = 330
Dangerous builds = 0
write_dump all custom dump.atom_info_ac_* id type x y z radius vx vy vz density #
run 123456
Setting up run at Fri Jan  6 12:24:58 2023

Memory usage per processor = 958.583 Mbytes
    Step    Atoms         KinEng            CPU 
  123458      305  6.0816412e-05              0 
  246914      305  4.3842796e-05      1204.6892 
Loop time of 1204.69 on 40 procs for 123456 steps with 305 atoms, finish time Fri Jan  6 12:45:03 2023


Pair  time (%) = 0.251447 (0.0208723)
Neigh time (%) = 0.0582339 (0.00483394)
Comm  time (%) = 0.442604 (0.0367401)
Outpt time (%) = 0.000259382 (2.1531e-05)
Other time (%) = 1203.94 (99.9375)

Nlocal:    7.625 ave 138 max 0 min
Histogram: 36 2 0 0 0 0 0 0 1 1
Nghost:    5.125 ave 56 max 0 min
Histogram: 36 0 0 0 0 0 0 0 2 2
Neighs:    2.475 ave 57 max 0 min
Histogram: 36 2 0 0 1 0 0 0 0 1

Total # of neighbors = 99
Ave neighs/atom = 0.32459
Neighbor list builds = 330
Dangerous builds = 0
write_dump all custom dump.atom_info_ac_* id type x y z radius vx vy vz density #
run 123456
Setting up run at Fri Jan  6 12:45:03 2023

Memory usage per processor = 958.583 Mbytes
    Step    Atoms         KinEng            CPU 
  246914      305  4.3842796e-05              0 
  370370      305  0.00038250452       1204.935 
Loop time of 1204.95 on 40 procs for 123456 steps with 305 atoms, finish time Fri Jan  6 13:05:08 2023


Pair  time (%) = 0.251747 (0.0208928)
Neigh time (%) = 0.0581965 (0.0048298)
Comm  time (%) = 0.507851 (0.0421472)
Outpt time (%) = 0.000243995 (2.02494e-05)
Other time (%) = 1204.13 (99.9321)

Nlocal:    7.625 ave 134 max 0 min
Histogram: 36 0 2 0 0 0 0 0 1 1
Nghost:    5.025 ave 61 max 0 min
Histogram: 36 0 0 0 0 0 0 2 1 1
Neighs:    2.475 ave 57 max 0 min
Histogram: 36 2 0 0 1 0 0 0 0 1

Total # of neighbors = 99
Ave neighs/atom = 0.32459
Neighbor list builds = 330
Dangerous builds = 0
write_dump all custom dump.atom_info_ac_* id type x y z radius vx vy vz density #
run 123456
Setting up run at Fri Jan  6 13:05:08 2023

Memory usage per processor = 958.583 Mbytes
    Step    Atoms         KinEng            CPU 
  370370      305  0.00038250452              0 
  493826      305   0.0002185812      1200.9154 
Loop time of 1200.92 on 40 procs for 123456 steps with 305 atoms, finish time Fri Jan  6 13:25:09 2023


Pair  time (%) = 0.247675 (0.0206239)
Neigh time (%) = 0.0587041 (0.00488828)
Comm  time (%) = 0.473158 (0.0393997)
Outpt time (%) = 0.000526507 (4.38421e-05)
Other time (%) = 1200.14 (99.935)

Nlocal:    7.625 ave 134 max 0 min
Histogram: 36 0 2 0 0 0 0 0 1 1
Nghost:    5.025 ave 59 max 0 min
Histogram: 36 0 0 0 0 0 0 2 0 2
Neighs:    2.425 ave 54 max 0 min
Histogram: 36 1 1 0 1 0 0 0 0 1

Total # of neighbors = 97
Ave neighs/atom = 0.318033
Neighbor list builds = 330
Dangerous builds = 0
write_dump all custom dump.atom_info_ac_* id type x y z radius vx vy vz density #
run 123456
Setting up run at Fri Jan  6 13:25:09 2023

Memory usage per processor = 958.583 Mbytes
    Step    Atoms         KinEng            CPU 
  493826      305   0.0002185812              0 
  617282      305   0.0027880123      1204.7018 
Loop time of 1204.7 on 40 procs for 123456 steps with 305 atoms, finish time Fri Jan  6 13:45:14 2023


Pair  time (%) = 0.24698 (0.0205013)
Neigh time (%) = 0.176602 (0.0146594)
Comm  time (%) = 0.673559 (0.0559108)
Outpt time (%) = 0.000263682 (2.18877e-05)
Other time (%) = 1203.6 (99.9089)

Nlocal:    7.625 ave 134 max 0 min
Histogram: 36 0 2 0 0 0 0 1 0 1
Nghost:    4.95 ave 59 max 0 min
Histogram: 36 0 0 0 0 0 1 1 0 2
Neighs:    2.5 ave 55 max 0 min
Histogram: 36 1 1 0 1 0 0 0 0 1

Total # of neighbors = 100
Ave neighs/atom = 0.327869
Neighbor list builds = 991
Dangerous builds = 0
write_dump all custom dump.atom_info_ac_* id type x y z radius vx vy vz density #
run 123456
Setting up run at Fri Jan  6 13:45:14 2023

Memory usage per processor = 958.583 Mbytes
    Step    Atoms         KinEng            CPU 
  617282      305   0.0027880123              0 
  740738      304  0.00069191296      1557.9562 
Loop time of 1557.96 on 40 procs for 123456 steps with 304 atoms, finish time Fri Jan  6 14:11:12 2023


Pair  time (%) = 0.242677 (0.0155766)
Neigh time (%) = 0.0776908 (0.00498671)
Comm  time (%) = 0.503012 (0.0322867)
Outpt time (%) = 0.000201155 (1.29115e-05)
Other time (%) = 1557.13 (99.9471)

Nlocal:    7.6 ave 133 max 0 min
Histogram: 36 0 2 0 0 0 0 1 0 1
Nghost:    5 ave 58 max 0 min
Histogram: 36 0 0 0 0 0 1 1 0 2
Neighs:    2.4 ave 54 max 0 min
Histogram: 36 1 1 0 1 0 0 0 0 1

Total # of neighbors = 96
Ave neighs/atom = 0.315789
Neighbor list builds = 445
Dangerous builds = 9
write_dump all custom dump.atom_info_ac_* id type x y z radius vx vy vz density #
run 123456
Setting up run at Fri Jan  6 14:11:23 2023

Memory usage per processor = 958.583 Mbytes
    Step    Atoms         KinEng            CPU 
  740738      304  0.00069191296              0 
  864194      303    0.034389503      1394.8823 
Loop time of 1394.88 on 40 procs for 123456 steps with 303 atoms, finish time Fri Jan  6 14:34:38 2023


Pair  time (%) = 0.24815 (0.01779)
Neigh time (%) = 0.37434 (0.0268367)
Comm  time (%) = 0.968168 (0.0694086)
Outpt time (%) = 0.000533296 (3.82323e-05)
Other time (%) = 1393.29 (99.8859)

Nlocal:    7.575 ave 131 max 0 min
Histogram: 36 0 2 0 0 0 0 1 0 1
Nghost:    5.2 ave 60 max 0 min
Histogram: 36 0 0 0 0 0 1 0 1 2
Neighs:    2.4 ave 54 max 0 min
Histogram: 36 1 1 1 0 0 0 0 0 1

Total # of neighbors = 96
Ave neighs/atom = 0.316832
Neighbor list builds = 2136
Dangerous builds = 1
write_dump all custom dump.atom_info_ac_* id type x y z radius vx vy vz density #
run 123456
Setting up run at Fri Jan  6 14:34:38 2023

Memory usage per processor = 958.583 Mbytes
    Step    Atoms         KinEng            CPU 
  864194      303    0.034389503              0 
  987650      302     0.11871726      1276.6679 
Loop time of 1276.67 on 40 procs for 123456 steps with 302 atoms, finish time Fri Jan  6 14:55:55 2023


Pair  time (%) = 0.250057 (0.0195867)
Neigh time (%) = 0.306206 (0.0239848)
Comm  time (%) = 0.901799 (0.0706369)
Outpt time (%) = 0.0001209 (9.46996e-06)
Other time (%) = 1275.21 (99.8858)

Nlocal:    7.55 ave 132 max 0 min
Histogram: 36 1 1 0 0 0 0 1 0 1
Nghost:    5.3 ave 61 max 0 min
Histogram: 36 0 0 0 0 0 1 0 1 2
Neighs:    2.375 ave 56 max 0 min
Histogram: 36 2 0 1 0 0 0 0 0 1

Total # of neighbors = 95
Ave neighs/atom = 0.31457
Neighbor list builds = 1718
Dangerous builds = 1
write_dump all custom dump.atom_info_ac_* id type x y z radius vx vy vz density #
run 123456
Setting up run at Fri Jan  6 14:55:55 2023

Memory usage per processor = 958.583 Mbytes
    Step    Atoms         KinEng            CPU 
  987650      302     0.11871726              0 
 1111106      300     0.11996152      1207.7807 
Loop time of 1207.78 on 40 procs for 123456 steps with 300 atoms, finish time Fri Jan  6 15:16:02 2023


Pair  time (%) = 0.248233 (0.0205528)
Neigh time (%) = 0.346087 (0.0286548)
Comm  time (%) = 0.918985 (0.0760888)
Outpt time (%) = 0.000206578 (1.71039e-05)
Other time (%) = 1206.27 (99.8747)

Nlocal:    7.5 ave 129 max 0 min
Histogram: 36 1 1 0 0 0 0 1 0 1
Nghost:    5.35 ave 59 max 0 min
Histogram: 36 0 0 0 0 0 0 1 0 3
Neighs:    2.4 ave 57 max 0 min
Histogram: 36 2 0 1 0 0 0 0 0 1

Total # of neighbors = 96
Ave neighs/atom = 0.32
Neighbor list builds = 1952
Dangerous builds = 3
write_dump all custom dump.atom_info_ac_* id type x y z radius vx vy vz density #
run 123456
Setting up run at Fri Jan  6 15:16:02 2023

Memory usage per processor = 958.583 Mbytes
    Step    Atoms         KinEng            CPU 
 1111106      300     0.11996152              0 
 1234562      299     0.15577455        1220.46 
Loop time of 1220.46 on 40 procs for 123456 steps with 299 atoms, finish time Fri Jan  6 15:36:23 2023


Pair  time (%) = 0.250437 (0.0205199)
Neigh time (%) = 0.387525 (0.0317523)
Comm  time (%) = 1.45283 (0.119039)
Outpt time (%) = 0.000497345 (4.07506e-05)
Other time (%) = 1218.37 (99.8286)

Nlocal:    7.475 ave 128 max 0 min
Histogram: 36 1 1 0 0 0 0 0 1 1
Nghost:    5.375 ave 56 max 0 min
Histogram: 36 0 0 0 0 0 0 1 0 3
Neighs:    2.425 ave 58 max 0 min
Histogram: 36 2 0 1 0 0 0 0 0 1

Total # of neighbors = 97
Ave neighs/atom = 0.324415
Neighbor list builds = 2225
Dangerous builds = 1
write_dump all custom dump.atom_info_ac_* id type x y z radius vx vy vz density #
run 123456
Setting up run at Fri Jan  6 15:36:23 2023

Memory usage per processor = 958.583 Mbytes
    Step    Atoms         KinEng            CPU 
 1234562      299     0.15577455              0 
 1358018      299     0.14894501      1207.7697 
Loop time of 1207.77 on 40 procs for 123456 steps with 299 atoms, finish time Fri Jan  6 15:56:31 2023


Pair  time (%) = 0.240799 (0.0199375)
Neigh time (%) = 0.369123 (0.0305624)
Comm  time (%) = 1.34358 (0.111245)
Outpt time (%) = 0.000177118 (1.46649e-05)
Other time (%) = 1205.82 (99.8382)

Nlocal:    7.475 ave 123 max 0 min
Histogram: 36 0 2 0 0 0 0 0 1 1
Nghost:    5.2 ave 59 max 0 min
Histogram: 36 0 0 0 0 0 0 1 2 1
Neighs:    2.5 ave 60 max 0 min
Histogram: 36 2 0 1 0 0 0 0 0 1

Total # of neighbors = 100
Ave neighs/atom = 0.334448
Neighbor list builds = 2087
Dangerous builds = 0
write_dump all custom dump.atom_info_ac_* id type x y z radius vx vy vz density #
run 123456
Setting up run at Fri Jan  6 15:56:31 2023

Memory usage per processor = 958.583 Mbytes
    Step    Atoms         KinEng            CPU 
 1358018      299     0.14894501              0 
 1481474      299     0.13523312      1200.3665 
Loop time of 1200.37 on 40 procs for 123456 steps with 299 atoms, finish time Fri Jan  6 16:16:31 2023


Pair  time (%) = 0.243631 (0.0202964)
Neigh time (%) = 0.344391 (0.0286905)
Comm  time (%) = 1.416 (0.117964)
Outpt time (%) = 0.000218798 (1.82276e-05)
Other time (%) = 1198.36 (99.833)

Nlocal:    7.475 ave 120 max 0 min
Histogram: 36 0 2 0 0 0 0 0 1 1
Nghost:    5.35 ave 61 max 0 min
Histogram: 36 0 0 0 0 0 0 1 1 2
Neighs:    2.6 ave 60 max 0 min
Histogram: 36 1 1 1 0 0 0 0 0 1

Total # of neighbors = 104
Ave neighs/atom = 0.347826
Neighbor list builds = 1949
Dangerous builds = 0
write_dump all custom dump.atom_info_ac_* id type x y z radius vx vy vz density #
run 123456
Setting up run at Fri Jan  6 16:16:31 2023

Memory usage per processor = 958.583 Mbytes
    Step    Atoms         KinEng            CPU 
 1481474      299     0.13523312              0 
 1604930      297      0.1202175      1217.8705 
Loop time of 1217.87 on 40 procs for 123456 steps with 297 atoms, finish time Fri Jan  6 16:36:49 2023


Pair  time (%) = 0.246531 (0.0202427)
Neigh time (%) = 0.420755 (0.0345484)
Comm  time (%) = 1.40155 (0.115082)
Outpt time (%) = 0.000539873 (4.43293e-05)
Other time (%) = 1215.8 (99.8301)

Nlocal:    7.425 ave 119 max 0 min
Histogram: 36 0 1 1 0 0 0 0 1 1
Nghost:    5.325 ave 62 max 0 min
Histogram: 36 0 0 0 0 0 1 0 1 2
Neighs:    2.65 ave 59 max 0 min
Histogram: 36 1 1 1 0 0 0 0 0 1

Total # of neighbors = 106
Ave neighs/atom = 0.356902
Neighbor list builds = 2389
Dangerous builds = 50
write_dump all custom dump.atom_info_ac_* id type x y z radius vx vy vz density #
run 123456
Setting up run at Fri Jan  6 16:36:49 2023

Memory usage per processor = 958.583 Mbytes
    Step    Atoms         KinEng            CPU 
 1604930      297      0.1202175              0 
 1728386      296     0.15903797      1265.7943 
Loop time of 1265.79 on 40 procs for 123456 steps with 296 atoms, finish time Fri Jan  6 16:57:55 2023


Pair  time (%) = 0.245104 (0.0193636)
Neigh time (%) = 0.458915 (0.0362551)
Comm  time (%) = 1.59653 (0.126129)
Outpt time (%) = 0.000258265 (2.04034e-05)
Other time (%) = 1263.49 (99.8182)

Nlocal:    7.4 ave 116 max 0 min
Histogram: 36 0 1 1 0 0 0 0 1 1
Nghost:    5.275 ave 62 max 0 min
Histogram: 36 0 0 0 0 0 1 1 0 2
Neighs:    2.725 ave 56 max 0 min
Histogram: 36 1 0 1 1 0 0 0 0 1

Total # of neighbors = 109
Ave neighs/atom = 0.368243
Neighbor list builds = 2642
Dangerous builds = 166
write_dump all custom dump.atom_info_ac_* id type x y z radius vx vy vz density #
run 123456
Setting up run at Fri Jan  6 16:57:55 2023

Memory usage per processor = 958.583 Mbytes
    Step    Atoms         KinEng            CPU 
 1728386      296     0.15903797              0 
 1851842      294    0.017862911      1276.9714 
Loop time of 1276.97 on 40 procs for 123456 steps with 294 atoms, finish time Fri Jan  6 17:19:12 2023


Pair  time (%) = 0.247564 (0.0193868)
Neigh time (%) = 0.551203 (0.0431648)
Comm  time (%) = 1.98026 (0.155075)
Outpt time (%) = 0.000164594 (1.28894e-05)
Other time (%) = 1274.19 (99.7824)

Nlocal:    7.35 ave 113 max 0 min
Histogram: 36 0 0 2 0 0 0 0 1 1
Nghost:    5.35 ave 66 max 0 min
Histogram: 36 0 0 0 0 0 2 0 1 1
Neighs:    2.6 ave 50 max 0 min
Histogram: 36 1 0 0 2 0 0 0 0 1

Total # of neighbors = 104
Ave neighs/atom = 0.353741
Neighbor list builds = 3231
Dangerous builds = 323
write_dump all custom dump.atom_info_ac_* id type x y z radius vx vy vz density #
run 123456
Setting up run at Fri Jan  6 17:21:59 2023

Memory usage per processor = 958.583 Mbytes
    Step    Atoms         KinEng            CPU 
 1851842      294    0.017862911              0 
 1975298      291    0.076436887      1211.7436 
Loop time of 1211.75 on 40 procs for 123456 steps with 291 atoms, finish time Fri Jan  6 17:42:10 2023


Pair  time (%) = 0.250018 (0.0206328)
Neigh time (%) = 0.571512 (0.047164)
Comm  time (%) = 2.03276 (0.167753)
Outpt time (%) = 0.0101698 (0.000839266)
Other time (%) = 1208.89 (99.7636)

Nlocal:    7.275 ave 110 max 0 min
Histogram: 36 0 0 2 0 0 0 0 1 1
Nghost:    5.05 ave 63 max 0 min
Histogram: 36 0 0 0 0 0 2 0 1 1
Neighs:    2.525 ave 51 max 0 min
Histogram: 36 1 0 0 2 0 0 0 0 1

Total # of neighbors = 101
Ave neighs/atom = 0.347079
Neighbor list builds = 3277
Dangerous builds = 3
write_dump all custom dump.atom_info_ac_* id type x y z radius vx vy vz density #
run 123456
Setting up run at Fri Jan  6 17:42:11 2023

Memory usage per processor = 958.583 Mbytes
    Step    Atoms         KinEng            CPU 
 1975298      291    0.076436887              0 
 2098754      287   0.0072273424      1249.6547 
Loop time of 1249.65 on 40 procs for 123456 steps with 287 atoms, finish time Fri Jan  6 18:03:00 2023


Pair  time (%) = 0.249281 (0.019948)
Neigh time (%) = 0.33278 (0.0266298)
Comm  time (%) = 1.09967 (0.0879982)
Outpt time (%) = 0.00018394 (1.47193e-05)
Other time (%) = 1247.97 (99.8654)

Nlocal:    7.175 ave 109 max 0 min
Histogram: 36 0 0 2 0 0 0 0 1 1
Nghost:    5.025 ave 67 max 0 min
Histogram: 36 0 0 0 0 0 2 1 0 1
Neighs:    2.775 ave 54 max 0 min
Histogram: 36 1 0 1 0 1 0 0 0 1

Total # of neighbors = 111
Ave neighs/atom = 0.38676
Neighbor list builds = 1909
Dangerous builds = 106
write_dump all custom dump.atom_info_ac_* id type x y z radius vx vy vz density #
run 123456
Setting up run at Fri Jan  6 18:03:00 2023

Memory usage per processor = 958.583 Mbytes
    Step    Atoms         KinEng            CPU 
 2098754      287   0.0072273424              0 
 2222210      286   0.0026406459      1247.6716 
Loop time of 1247.67 on 40 procs for 123456 steps with 286 atoms, finish time Fri Jan  6 18:23:48 2023


Pair  time (%) = 0.248441 (0.0199124)
Neigh time (%) = 0.0834032 (0.00668471)
Comm  time (%) = 0.527475 (0.0422767)
Outpt time (%) = 0.000176748 (1.41662e-05)
Other time (%) = 1246.81 (99.9311)

Nlocal:    7.15 ave 109 max 0 min
Histogram: 36 0 1 1 0 0 0 0 1 1
Nghost:    5.025 ave 66 max 0 min
Histogram: 36 0 0 0 0 0 2 1 0 1
Neighs:    2.675 ave 54 max 0 min
Histogram: 36 1 0 1 0 1 0 0 0 1

Total # of neighbors = 107
Ave neighs/atom = 0.374126
Neighbor list builds = 457
Dangerous builds = 0
write_dump all custom dump.atom_info_ac_* id type x y z radius vx vy vz density #
run 123456
Setting up run at Fri Jan  6 18:23:48 2023

Memory usage per processor = 958.583 Mbytes
    Step    Atoms         KinEng            CPU 
 2222210      286   0.0026406459              0 
 2345666      284   0.0072289626      1223.8523 
Loop time of 1223.85 on 40 procs for 123456 steps with 284 atoms, finish time Fri Jan  6 18:44:12 2023


Pair  time (%) = 0.244877 (0.0200087)
Neigh time (%) = 0.139042 (0.011361)
Comm  time (%) = 0.652624 (0.0533254)
Outpt time (%) = 0.000539073 (4.40472e-05)
Other time (%) = 1222.82 (99.9153)

Nlocal:    7.1 ave 107 max 0 min
Histogram: 36 0 0 2 0 0 0 0 1 1
Nghost:    5.075 ave 67 max 0 min
Histogram: 36 0 0 0 0 0 2 1 0 1
Neighs:    2.525 ave 49 max 0 min
Histogram: 36 1 0 0 2 0 0 0 0 1

Total # of neighbors = 101
Ave neighs/atom = 0.355634
Neighbor list builds = 787
Dangerous builds = 43
write_dump all custom dump.atom_info_ac_* id type x y z radius vx vy vz density #
run 123456
Setting up run at Fri Jan  6 18:44:12 2023

Memory usage per processor = 958.583 Mbytes
    Step    Atoms         KinEng            CPU 
 2345666      284   0.0072289626              0 
 2469122      283     0.10683687      1196.7408 
Loop time of 1196.74 on 40 procs for 123456 steps with 283 atoms, finish time Fri Jan  6 19:04:09 2023


Pair  time (%) = 0.246682 (0.0206128)
Neigh time (%) = 0.320649 (0.0267935)
Comm  time (%) = 1.15908 (0.0968534)
Outpt time (%) = 0.000212088 (1.77222e-05)
Other time (%) = 1195.01 (99.8557)

Nlocal:    7.075 ave 104 max 0 min
Histogram: 36 0 1 1 0 0 0 0 1 1
Nghost:    5.175 ave 68 max 0 min
Histogram: 36 0 0 0 0 1 1 1 0 1
Neighs:    2.475 ave 49 max 0 min
Histogram: 36 1 0 0 2 0 0 0 0 1

Total # of neighbors = 99
Ave neighs/atom = 0.349823
Neighbor list builds = 1776
Dangerous builds = 0
write_dump all custom dump.atom_info_ac_* id type x y z radius vx vy vz density #
run 123456
Setting up run at Fri Jan  6 19:04:09 2023

Memory usage per processor = 958.583 Mbytes
    Step    Atoms         KinEng            CPU 
 2469122      283     0.10683687              0 
 2592578      283     0.10377217      1205.3662 
Loop time of 1205.37 on 40 procs for 123456 steps with 283 atoms, finish time Fri Jan  6 19:24:14 2023


Pair  time (%) = 0.244967 (0.0203231)
Neigh time (%) = 0.40336 (0.0334637)
Comm  time (%) = 1.11675 (0.0926485)
Outpt time (%) = 0.000203887 (1.6915e-05)
Other time (%) = 1203.6 (99.8535)

Nlocal:    7.075 ave 105 max 0 min
Histogram: 36 0 1 0 1 0 0 0 1 1
Nghost:    5.1 ave 68 max 0 min
Histogram: 36 0 0 0 0 1 1 1 0 1
Neighs:    2.475 ave 51 max 0 min
Histogram: 36 1 0 1 1 0 0 0 0 1

Total # of neighbors = 99
Ave neighs/atom = 0.349823
Neighbor list builds = 2229
Dangerous builds = 0
write_dump all custom dump.atom_info_ac_* id type x y z radius vx vy vz density #
run 123456
Setting up run at Fri Jan  6 19:24:14 2023

Memory usage per processor = 958.583 Mbytes
    Step    Atoms         KinEng            CPU 
 2592578      283     0.10377217              0 
 2716034      282     0.59250794      1221.4675 
Loop time of 1221.47 on 40 procs for 123456 steps with 282 atoms, finish time Fri Jan  6 19:44:36 2023


Pair  time (%) = 0.251589 (0.0205973)
Neigh time (%) = 0.83664 (0.0684946)
Comm  time (%) = 2.40333 (0.196758)
Outpt time (%) = 0.00268901 (0.000220146)
Other time (%) = 1217.97 (99.7139)

Nlocal:    7.05 ave 107 max 0 min
Histogram: 36 0 1 1 0 0 0 1 0 1
Nghost:    4.95 ave 61 max 0 min
Histogram: 36 0 0 0 0 0 1 1 1 1
Neighs:    2.275 ave 50 max 0 min
Histogram: 36 1 0 2 0 0 0 0 0 1

Total # of neighbors = 91
Ave neighs/atom = 0.322695
Neighbor list builds = 4616
Dangerous builds = 1
write_dump all custom dump.atom_info_ac_* id type x y z radius vx vy vz density #
run 123456
Setting up run at Fri Jan  6 19:44:36 2023

Memory usage per processor = 958.583 Mbytes
    Step    Atoms         KinEng            CPU 
 2716034      282     0.59250794              0 
 2839490      279     0.34720387      1217.7169 
Loop time of 1217.72 on 40 procs for 123456 steps with 279 atoms, finish time Fri Jan  6 20:04:53 2023


Pair  time (%) = 0.250832 (0.0205985)
Neigh time (%) = 0.708348 (0.0581702)
Comm  time (%) = 1.75156 (0.14384)
Outpt time (%) = 0.000180648 (1.4835e-05)
Other time (%) = 1215.01 (99.7774)

Nlocal:    6.975 ave 107 max 0 min
Histogram: 36 0 0 2 0 0 0 1 0 1
Nghost:    4.95 ave 58 max 0 min
Histogram: 36 0 0 0 0 0 0 2 1 1
Neighs:    2.3 ave 51 max 0 min
Histogram: 36 1 1 1 0 0 0 0 0 1

Total # of neighbors = 92
Ave neighs/atom = 0.329749
Neighbor list builds = 4022
Dangerous builds = 280
write_dump all custom dump.atom_info_ac_* id type x y z radius vx vy vz density #
run 123456
Setting up run at Fri Jan  6 20:04:53 2023

Memory usage per processor = 958.583 Mbytes
    Step    Atoms         KinEng            CPU 
 2839490      279     0.34720387              0 
 2962946      276     0.32729174      1210.2858 
Loop time of 1210.29 on 40 procs for 123456 steps with 276 atoms, finish time Fri Jan  6 20:25:04 2023


Pair  time (%) = 0.253491 (0.0209447)
Neigh time (%) = 0.654333 (0.0540643)
Comm  time (%) = 2.02766 (0.167536)
Outpt time (%) = 0.000198596 (1.6409e-05)
Other time (%) = 1207.35 (99.7574)

Nlocal:    6.9 ave 106 max 0 min
Histogram: 36 0 0 2 0 0 0 1 0 1
Nghost:    4.875 ave 59 max 0 min
Histogram: 36 0 0 0 0 0 1 1 1 1
Neighs:    2.55 ave 57 max 0 min
Histogram: 36 0 2 1 0 0 0 0 0 1

Total # of neighbors = 102
Ave neighs/atom = 0.369565
Neighbor list builds = 3673
Dangerous builds = 2
write_dump all custom dump.atom_info_ac_* id type x y z radius vx vy vz density #
run 123456
Setting up run at Fri Jan  6 20:25:04 2023

Memory usage per processor = 958.583 Mbytes
    Step    Atoms         KinEng            CPU 
 2962946      276     0.32729174              0 
 3086402      275     0.45371763      1216.3211 
Loop time of 1216.32 on 40 procs for 123456 steps with 275 atoms, finish time Fri Jan  6 20:45:20 2023


Pair  time (%) = 0.249869 (0.020543)
Neigh time (%) = 0.495519 (0.0407391)
Comm  time (%) = 1.46487 (0.120434)
Outpt time (%) = 0.0207077 (0.00170248)
Other time (%) = 1214.09 (99.8166)

Nlocal:    6.875 ave 108 max 0 min
Histogram: 36 0 0 2 0 0 1 0 0 1
Nghost:    4.75 ave 53 max 0 min
Histogram: 36 0 0 0 0 0 0 0 2 2
Neighs:    2.2 ave 44 max 0 min
Histogram: 36 0 2 0 0 1 0 0 0 1

Total # of neighbors = 88
Ave neighs/atom = 0.32
Neighbor list builds = 2740
Dangerous builds = 1
write_dump all custom dump.atom_info_ac_* id type x y z radius vx vy vz density #
run 123456
Setting up run at Fri Jan  6 20:45:20 2023

Memory usage per processor = 958.583 Mbytes
    Step    Atoms         KinEng            CPU 
 3086402      275     0.45371763              0 
 3209858      272     0.14586996      1211.7892 
Loop time of 1211.79 on 40 procs for 123456 steps with 272 atoms, finish time Fri Jan  6 21:05:32 2023


Pair  time (%) = 0.250796 (0.0206964)
Neigh time (%) = 0.568491 (0.0469134)
Comm  time (%) = 1.6801 (0.138647)
Outpt time (%) = 0.000251363 (2.07431e-05)
Other time (%) = 1209.29 (99.7937)

Nlocal:    6.8 ave 101 max 0 min
Histogram: 36 0 0 2 0 0 0 1 0 1
Nghost:    4.75 ave 59 max 0 min
Histogram: 36 0 0 0 0 0 0 3 0 1
Neighs:    2.3 ave 44 max 0 min
Histogram: 36 1 0 1 0 1 0 0 0 1

Total # of neighbors = 92
Ave neighs/atom = 0.338235
Neighbor list builds = 3212
Dangerous builds = 187
write_dump all custom dump.atom_info_ac_* id type x y z radius vx vy vz density #
run 123456
Setting up run at Fri Jan  6 21:05:32 2023

Memory usage per processor = 958.583 Mbytes
    Step    Atoms         KinEng            CPU 
 3209858      272     0.14586996              0 
 3333314      266     0.24693232      1255.4105 
Loop time of 1255.41 on 40 procs for 123456 steps with 266 atoms, finish time Fri Jan  6 21:26:28 2023


Pair  time (%) = 0.250376 (0.0199437)
Neigh time (%) = 0.81433 (0.0648656)
Comm  time (%) = 2.0783 (0.165548)
Outpt time (%) = 0.000236713 (1.88554e-05)
Other time (%) = 1252.27 (99.7496)

Nlocal:    6.65 ave 99 max 0 min
Histogram: 36 0 0 1 1 0 0 1 0 1
Nghost:    4.725 ave 59 max 0 min
Histogram: 36 0 0 0 0 0 2 1 0 1
Neighs:    1.975 ave 36 max 0 min
Histogram: 36 1 0 0 1 1 0 0 0 1

Total # of neighbors = 79
Ave neighs/atom = 0.296992
Neighbor list builds = 4512
Dangerous builds = 5
write_dump all custom dump.atom_info_ac_* id type x y z radius vx vy vz density #
run 123456
Setting up run at Fri Jan  6 21:26:28 2023

Memory usage per processor = 958.583 Mbytes
    Step    Atoms         KinEng            CPU 
 3333314      266     0.24693232              0 
 3456770      266     0.49198543      1430.0803 
Loop time of 1430.08 on 40 procs for 123456 steps with 266 atoms, finish time Fri Jan  6 21:50:18 2023


Pair  time (%) = 0.247744 (0.0173238)
Neigh time (%) = 0.685195 (0.047913)
Comm  time (%) = 1.81103 (0.126639)
Outpt time (%) = 0.000523708 (3.66209e-05)
Other time (%) = 1427.34 (99.8081)

Nlocal:    6.65 ave 96 max 0 min
Histogram: 36 0 0 1 1 0 0 1 0 1
Nghost:    4.575 ave 60 max 0 min
Histogram: 36 0 0 0 0 0 2 1 0 1
Neighs:    2 ave 29 max 0 min
Histogram: 36 0 0 1 0 0 0 2 0 1

Total # of neighbors = 80
Ave neighs/atom = 0.300752
Neighbor list builds = 3749
Dangerous builds = 0
write_dump all custom dump.atom_info_ac_* id type x y z radius vx vy vz density #
run 123456
Setting up run at Fri Jan  6 21:50:18 2023

Memory usage per processor = 958.583 Mbytes
    Step    Atoms         KinEng            CPU 
 3456770      266     0.49198543              0 
 3580226      261     0.27051534      1302.9019 
Loop time of 1302.9 on 40 procs for 123456 steps with 261 atoms, finish time Fri Jan  6 22:12:01 2023


Pair  time (%) = 0.246681 (0.0189332)
Neigh time (%) = 0.659702 (0.0506333)
Comm  time (%) = 1.52805 (0.11728)
Outpt time (%) = 0.000259308 (1.99023e-05)
Other time (%) = 1300.47 (99.8131)

Nlocal:    6.525 ave 93 max 0 min
Histogram: 36 0 0 1 1 0 0 1 0 1
Nghost:    4.5 ave 61 max 0 min
Histogram: 36 0 0 0 0 1 2 0 0 1
Neighs:    2 ave 31 max 0 min
Histogram: 36 0 1 0 0 0 2 0 0 1

Total # of neighbors = 80
Ave neighs/atom = 0.306513
Neighbor list builds = 3664
Dangerous builds = 58
write_dump all custom dump.atom_info_ac_* id type x y z radius vx vy vz density #
run 123456
Setting up run at Fri Jan  6 22:12:01 2023

Memory usage per processor = 958.583 Mbytes
    Step    Atoms         KinEng            CPU 
 3580226      261     0.27051534              0 
 3703682      253     0.19388567      1275.1814 
Loop time of 1275.18 on 40 procs for 123456 steps with 253 atoms, finish time Fri Jan  6 22:33:16 2023


Pair  time (%) = 0.234065 (0.0183554)
Neigh time (%) = 0.734957 (0.0576355)
Comm  time (%) = 1.62966 (0.127798)
Outpt time (%) = 0.000155697 (1.22098e-05)
Other time (%) = 1272.58 (99.7962)

Nlocal:    6.325 ave 91 max 0 min
Histogram: 36 0 0 1 1 0 0 1 0 1
Nghost:    4.4 ave 60 max 0 min
Histogram: 36 0 0 0 0 1 2 0 0 1
Neighs:    2.225 ave 37 max 0 min
Histogram: 36 0 1 0 0 2 0 0 0 1

Total # of neighbors = 89
Ave neighs/atom = 0.351779
Neighbor list builds = 4345
Dangerous builds = 363
write_dump all custom dump.atom_info_ac_* id type x y z radius vx vy vz density #
run 123456
Setting up run at Fri Jan  6 22:33:16 2023

Memory usage per processor = 958.583 Mbytes
    Step    Atoms         KinEng            CPU 
 3703682      253     0.19388567              0 
 3827138      252     0.17175899      1205.4713 
Loop time of 1205.47 on 40 procs for 123456 steps with 252 atoms, finish time Fri Jan  6 22:53:21 2023


Pair  time (%) = 0.233308 (0.0193541)
Neigh time (%) = 0.702172 (0.0582488)
Comm  time (%) = 1.50731 (0.125039)
Outpt time (%) = 0.000480697 (3.98763e-05)
Other time (%) = 1203.03 (99.7973)

Nlocal:    6.3 ave 88 max 0 min
Histogram: 36 0 0 1 0 1 0 0 1 1
Nghost:    4.35 ave 62 max 0 min
Histogram: 36 0 0 0 0 2 1 0 0 1
Neighs:    2 ave 28 max 0 min
Histogram: 36 0 0 1 0 0 1 0 1 1

Total # of neighbors = 80
Ave neighs/atom = 0.31746
Neighbor list builds = 3913
Dangerous builds = 0
write_dump all custom dump.atom_info_ac_* id type x y z radius vx vy vz density #
run 123456
Setting up run at Fri Jan  6 22:53:21 2023

Memory usage per processor = 958.583 Mbytes
    Step    Atoms         KinEng            CPU 
 3827138      252     0.17175899              0 
 3950594      252     0.15254458       1200.203 
Loop time of 1200.2 on 40 procs for 123456 steps with 252 atoms, finish time Fri Jan  6 23:13:22 2023


Pair  time (%) = 0.232544 (0.0193754)
Neigh time (%) = 0.504276 (0.0420158)
Comm  time (%) = 1.2282 (0.102333)
Outpt time (%) = 0.000207245 (1.72675e-05)
Other time (%) = 1198.24 (99.8363)

Nlocal:    6.3 ave 88 max 0 min
Histogram: 36 0 0 0 1 1 0 1 0 1
Nghost:    4.475 ave 60 max 0 min
Histogram: 36 0 0 0 0 1 2 0 0 1
Neighs:    1.8 ave 26 max 0 min
Histogram: 36 0 0 1 0 1 0 0 1 1

Total # of neighbors = 72
Ave neighs/atom = 0.285714
Neighbor list builds = 2761
Dangerous builds = 0
write_dump all custom dump.atom_info_ac_* id type x y z radius vx vy vz density #
run 123456
Setting up run at Fri Jan  6 23:13:22 2023

Memory usage per processor = 958.583 Mbytes
    Step    Atoms         KinEng            CPU 
 3950594      252     0.15254458              0 
 4074050      251     0.25163453      1198.0188 
Loop time of 1198.02 on 40 procs for 123456 steps with 251 atoms, finish time Fri Jan  6 23:33:20 2023


Pair  time (%) = 0.228192 (0.0190475)
Neigh time (%) = 0.570156 (0.0475916)
Comm  time (%) = 1.31369 (0.109655)
Outpt time (%) = 5.41076e-05 (4.51643e-06)
Other time (%) = 1195.91 (99.8237)

Nlocal:    6.275 ave 90 max 0 min
Histogram: 36 0 0 1 1 0 0 1 0 1
Nghost:    4.4 ave 53 max 0 min
Histogram: 36 0 0 0 0 0 1 1 1 1
Neighs:    1.65 ave 25 max 0 min
Histogram: 36 0 1 0 0 0 1 1 0 1

Total # of neighbors = 66
Ave neighs/atom = 0.262948
Neighbor list builds = 3183
Dangerous builds = 1
write_dump all custom dump.atom_info_ac_* id type x y z radius vx vy vz density #
run 123456
Setting up run at Fri Jan  6 23:33:20 2023

Memory usage per processor = 958.583 Mbytes
    Step    Atoms         KinEng            CPU 
 4074050      251     0.25163453              0 
 4197506      250     0.21922767      1200.9802 
Loop time of 1200.98 on 40 procs for 123456 steps with 250 atoms, finish time Fri Jan  6 23:53:21 2023


Pair  time (%) = 0.231549 (0.01928)
Neigh time (%) = 0.619371 (0.0515721)
Comm  time (%) = 1.39197 (0.115903)
Outpt time (%) = 0.000489092 (4.07244e-05)
Other time (%) = 1198.74 (99.8132)

Nlocal:    6.25 ave 89 max 0 min
Histogram: 36 0 0 1 1 0 0 1 0 1
Nghost:    4.45 ave 52 max 0 min
Histogram: 36 0 0 0 0 0 0 2 1 1
Neighs:    1.75 ave 31 max 0 min
Histogram: 36 0 1 0 1 1 0 0 0 1

Total # of neighbors = 70
Ave neighs/atom = 0.28
Neighbor list builds = 3421
Dangerous builds = 1
write_dump all custom dump.atom_info_ac_* id type x y z radius vx vy vz density #
run 123456
Setting up run at Fri Jan  6 23:53:21 2023

Memory usage per processor = 958.583 Mbytes
    Step    Atoms         KinEng            CPU 
 4197506      250     0.21922767              0 
 4320962      248     0.26430328      1202.1794 
Loop time of 1202.18 on 40 procs for 123456 steps with 248 atoms, finish time Sat Jan  7 00:13:23 2023


Pair  time (%) = 0.229394 (0.0190815)
Neigh time (%) = 0.60917 (0.0506721)
Comm  time (%) = 1.88556 (0.156845)
Outpt time (%) = 0.000177351 (1.47525e-05)
Other time (%) = 1199.46 (99.7734)

Nlocal:    6.2 ave 85 max 0 min
Histogram: 36 0 0 1 1 0 0 0 1 1
Nghost:    4.375 ave 53 max 0 min
Histogram: 36 0 0 0 0 0 1 1 1 1
Neighs:    1.85 ave 29 max 0 min
Histogram: 36 0 0 1 0 1 1 0 0 1

Total # of neighbors = 74
Ave neighs/atom = 0.298387
Neighbor list builds = 3436
Dangerous builds = 2
write_dump all custom dump.atom_info_ac_* id type x y z radius vx vy vz density #
run 123456
Setting up run at Sat Jan  7 00:13:23 2023

Memory usage per processor = 958.583 Mbytes
    Step    Atoms         KinEng            CPU 
 4320962      248     0.26430328              0 
 4444418      245     0.90003017      1210.9171 
Loop time of 1210.92 on 40 procs for 123456 steps with 245 atoms, finish time Sat Jan  7 00:33:34 2023


Pair  time (%) = 0.236205 (0.0195063)
Neigh time (%) = 0.894897 (0.0739025)
Comm  time (%) = 1.99895 (0.165077)
Outpt time (%) = 0.000184452 (1.52324e-05)
Other time (%) = 1207.79 (99.7415)

Nlocal:    6.125 ave 85 max 0 min
Histogram: 36 0 0 1 1 0 0 0 1 1
Nghost:    4.2 ave 51 max 0 min
Histogram: 36 0 0 0 0 0 0 3 0 1
Neighs:    1.7 ave 29 max 0 min
Histogram: 36 0 1 0 1 0 1 0 0 1

Total # of neighbors = 68
Ave neighs/atom = 0.277551
Neighbor list builds = 4994
Dangerous builds = 2
write_dump all custom dump.atom_info_ac_* id type x y z radius vx vy vz density #
run 123456
Setting up run at Sat Jan  7 00:33:34 2023

Memory usage per processor = 958.583 Mbytes
    Step    Atoms         KinEng            CPU 
 4444418      245     0.90003017              0 
 4567874      242     0.48542166       1208.725 
Loop time of 1208.73 on 40 procs for 123456 steps with 242 atoms, finish time Sat Jan  7 00:53:43 2023


Pair  time (%) = 0.234397 (0.0193921)
Neigh time (%) = 0.766251 (0.0633933)
Comm  time (%) = 1.88372 (0.155844)
Outpt time (%) = 0.00043875 (3.62986e-05)
Other time (%) = 1205.84 (99.7613)

Nlocal:    6.05 ave 85 max 0 min
Histogram: 35 1 0 2 0 0 0 0 1 1
Nghost:    4.075 ave 47 max 0 min
Histogram: 36 0 0 0 0 0 0 1 2 1
Neighs:    1.65 ave 32 max 0 min
Histogram: 36 0 1 1 0 1 0 0 0 1

Total # of neighbors = 66
Ave neighs/atom = 0.272727
Neighbor list builds = 4271
Dangerous builds = 4
write_dump all custom dump.atom_info_ac_* id type x y z radius vx vy vz density #
run 123456
Setting up run at Sat Jan  7 00:53:43 2023

Memory usage per processor = 958.583 Mbytes
    Step    Atoms         KinEng            CPU 
 4567874      242     0.48542166              0 
 4691330      240     0.48345263      1205.9917 
Loop time of 1205.99 on 40 procs for 123456 steps with 240 atoms, finish time Sat Jan  7 01:13:49 2023


Pair  time (%) = 0.235135 (0.0194972)
Neigh time (%) = 0.64214 (0.0532458)
Comm  time (%) = 1.66508 (0.138067)
Outpt time (%) = 0.000219376 (1.81905e-05)
Other time (%) = 1203.45 (99.7892)

Nlocal:    6 ave 86 max 0 min
Histogram: 35 1 0 2 0 0 0 0 1 1
Nghost:    3.975 ave 41 max 0 min
Histogram: 36 0 0 0 0 0 0 0 0 4
Neighs:    1.55 ave 31 max 0 min
Histogram: 36 1 0 1 1 0 0 0 0 1

Total # of neighbors = 62
Ave neighs/atom = 0.258333
Neighbor list builds = 3539
Dangerous builds = 41
write_dump all custom dump.atom_info_ac_* id type x y z radius vx vy vz density #
run 123456
Setting up run at Sat Jan  7 01:13:49 2023

Memory usage per processor = 958.583 Mbytes
    Step    Atoms         KinEng            CPU 
 4691330      240     0.48345263              0 
 4814786      236     0.39120836      1196.7864 
Loop time of 1196.79 on 40 procs for 123456 steps with 236 atoms, finish time Sat Jan  7 01:33:46 2023


Pair  time (%) = 0.232233 (0.0194047)
Neigh time (%) = 0.628141 (0.0524857)
Comm  time (%) = 1.60542 (0.134145)
Outpt time (%) = 0.00019262 (1.60948e-05)
Other time (%) = 1194.32 (99.7939)

Nlocal:    5.9 ave 84 max 0 min
Histogram: 35 1 0 2 0 0 0 0 1 1
Nghost:    4.05 ave 44 max 0 min
Histogram: 36 0 0 0 0 0 0 0 2 2
Neighs:    1.575 ave 30 max 0 min
Histogram: 36 0 1 1 0 1 0 0 0 1

Total # of neighbors = 63
Ave neighs/atom = 0.266949
Neighbor list builds = 3504
Dangerous builds = 3
write_dump all custom dump.atom_info_ac_* id type x y z radius vx vy vz density #
run 123456
Setting up run at Sat Jan  7 01:33:46 2023

Memory usage per processor = 958.583 Mbytes
    Step    Atoms         KinEng            CPU 
 4814786      236     0.39120836              0 
 4938242      235     0.36346778      1204.5609 
Loop time of 1204.56 on 40 procs for 123456 steps with 235 atoms, finish time Sat Jan  7 01:53:50 2023


Pair  time (%) = 0.233316 (0.0193694)
Neigh time (%) = 0.619886 (0.0514616)
Comm  time (%) = 1.75918 (0.146044)
Outpt time (%) = 0.000445271 (3.69654e-05)
Other time (%) = 1201.95 (99.7831)

Nlocal:    5.875 ave 83 max 0 min
Histogram: 36 0 0 2 0 0 0 0 1 1
Nghost:    4.05 ave 42 max 0 min
Histogram: 36 0 0 0 0 0 0 0 1 3
Neighs:    1.75 ave 34 max 0 min
Histogram: 36 0 1 1 1 0 0 0 0 1

Total # of neighbors = 70
Ave neighs/atom = 0.297872
Neighbor list builds = 3393
Dangerous builds = 1
write_dump all custom dump.atom_info_ac_* id type x y z radius vx vy vz density #
run 123456
Setting up run at Sat Jan  7 01:53:50 2023

Memory usage per processor = 958.583 Mbytes
    Step    Atoms         KinEng            CPU 
 4938242      235     0.36346778              0 
 5061698      231     0.58420502      1207.5015 
Loop time of 1207.5 on 40 procs for 123456 steps with 231 atoms, finish time Sat Jan  7 02:13:58 2023


Pair  time (%) = 0.234656 (0.0194331)
Neigh time (%) = 0.714593 (0.0591794)
Comm  time (%) = 1.75692 (0.1455)
Outpt time (%) = 0.000215475 (1.78447e-05)
Other time (%) = 1204.8 (99.7759)

Nlocal:    5.775 ave 82 max 0 min
Histogram: 36 0 0 2 0 0 0 0 1 1
Nghost:    3.95 ave 42 max 0 min
Histogram: 36 0 0 0 0 0 0 0 2 2
Neighs:    1.725 ave 31 max 0 min
Histogram: 36 0 0 2 0 1 0 0 0 1

Total # of neighbors = 69
Ave neighs/atom = 0.298701
Neighbor list builds = 4036
Dangerous builds = 228
write_dump all custom dump.atom_info_ac_* id type x y z radius vx vy vz density #
run 123456
Setting up run at Sat Jan  7 02:13:58 2023

Memory usage per processor = 958.583 Mbytes
    Step    Atoms         KinEng            CPU 
 5061698      231     0.58420502              0 
 5185154      230     0.47939251      1213.2196 
Loop time of 1213.22 on 40 procs for 123456 steps with 230 atoms, finish time Sat Jan  7 02:34:11 2023


Pair  time (%) = 0.234206 (0.0193045)
Neigh time (%) = 0.987434 (0.0813896)
Comm  time (%) = 2.13755 (0.176188)
Outpt time (%) = 0.000185214 (1.52663e-05)
Other time (%) = 1209.86 (99.7231)

Nlocal:    5.75 ave 82 max 0 min
Histogram: 36 0 0 2 0 0 0 0 1 1
Nghost:    3.725 ave 41 max 0 min
Histogram: 36 0 0 0 0 0 0 0 2 2
Neighs:    1.325 ave 21 max 0 min
Histogram: 36 0 0 0 2 0 1 0 0 1

Total # of neighbors = 53
Ave neighs/atom = 0.230435
Neighbor list builds = 5422
Dangerous builds = 1
write_dump all custom dump.atom_info_ac_* id type x y z radius vx vy vz density #
run 123456
Setting up run at Sat Jan  7 02:34:11 2023

Memory usage per processor = 958.583 Mbytes
    Step    Atoms         KinEng            CPU 
 5185154      230     0.47939251              0 
 5308610      222     0.85961139      1210.5269 
Loop time of 1210.53 on 40 procs for 123456 steps with 222 atoms, finish time Sat Jan  7 02:54:22 2023


Pair  time (%) = 0.230261 (0.0190215)
Neigh time (%) = 0.854836 (0.0706169)
Comm  time (%) = 2.12752 (0.175751)
Outpt time (%) = 0.000481827 (3.98031e-05)
Other time (%) = 1207.31 (99.7346)

Nlocal:    5.55 ave 80 max 0 min
Histogram: 36 0 0 2 0 0 0 0 1 1
Nghost:    3.6 ave 39 max 0 min
Histogram: 36 0 0 0 0 0 0 1 1 2
Neighs:    1.15 ave 18 max 0 min
Histogram: 36 0 0 1 1 0 0 1 0 1

Total # of neighbors = 46
Ave neighs/atom = 0.207207
Neighbor list builds = 4740
Dangerous builds = 12
write_dump all custom dump.atom_info_ac_* id type x y z radius vx vy vz density #
run 123456
Setting up run at Sat Jan  7 02:54:22 2023

Memory usage per processor = 958.583 Mbytes
    Step    Atoms         KinEng            CPU 
 5308610      222     0.85961139              0 
 5432066      218     0.30177177      1203.4571 
Loop time of 1203.46 on 40 procs for 123456 steps with 218 atoms, finish time Sat Jan  7 03:14:25 2023


Pair  time (%) = 0.229293 (0.0190529)
Neigh time (%) = 0.699884 (0.0581561)
Comm  time (%) = 1.62315 (0.134874)
Outpt time (%) = 0.000215581 (1.79135e-05)
Other time (%) = 1200.9 (99.7879)

Nlocal:    5.45 ave 78 max 0 min
Histogram: 36 0 1 1 0 0 0 0 1 1
Nghost:    3.475 ave 37 max 0 min
Histogram: 36 0 0 0 0 0 0 0 2 2
Neighs:    1.25 ave 21 max 0 min
Histogram: 36 0 0 2 0 0 0 1 0 1

Total # of neighbors = 50
Ave neighs/atom = 0.229358
Neighbor list builds = 3892
Dangerous builds = 2
write_dump all custom dump.atom_info_ac_* id type x y z radius vx vy vz density #
run 123456
Setting up run at Sat Jan  7 03:14:25 2023

Memory usage per processor = 958.583 Mbytes
    Step    Atoms         KinEng            CPU 
 5432066      218     0.30177177              0 
 5555522      216     0.36303942      1213.3482 
Loop time of 1213.35 on 40 procs for 123456 steps with 216 atoms, finish time Sat Jan  7 03:34:39 2023


Pair  time (%) = 0.23358 (0.0192508)
Neigh time (%) = 0.92594 (0.0763128)
Comm  time (%) = 2.18546 (0.180118)
Outpt time (%) = 0.000175667 (1.44778e-05)
Other time (%) = 1210 (99.7243)

Nlocal:    5.4 ave 77 max 0 min
Histogram: 35 1 1 0 1 0 0 0 1 1
Nghost:    3.275 ave 36 max 0 min
Histogram: 36 0 0 0 0 0 0 1 1 2
Neighs:    1.125 ave 17 max 0 min
Histogram: 36 0 0 2 0 0 0 0 0 2

Total # of neighbors = 45
Ave neighs/atom = 0.208333
Neighbor list builds = 5351
Dangerous builds = 519
write_dump all custom dump.atom_info_ac_* id type x y z radius vx vy vz density #
run 123456
Setting up run at Sat Jan  7 03:34:39 2023

Memory usage per processor = 958.583 Mbytes
    Step    Atoms         KinEng            CPU 
 5555522      216     0.36303942              0 
 5678978      216     0.38795734      1201.6001 
Loop time of 1201.6 on 40 procs for 123456 steps with 216 atoms, finish time Sat Jan  7 03:54:40 2023


Pair  time (%) = 0.22754 (0.0189364)
Neigh time (%) = 0.659335 (0.0548714)
Comm  time (%) = 1.64624 (0.137004)
Outpt time (%) = 0.000174241 (1.45007e-05)
Other time (%) = 1199.07 (99.7892)

Nlocal:    5.4 ave 77 max 0 min
Histogram: 35 1 1 0 1 0 0 0 1 1
Nghost:    3.2 ave 34 max 0 min
Histogram: 36 0 0 0 0 0 0 0 2 2
Neighs:    1.1 ave 16 max 0 min
Histogram: 36 0 0 1 1 0 0 0 0 2

Total # of neighbors = 44
Ave neighs/atom = 0.203704
Neighbor list builds = 3581
Dangerous builds = 0
write_dump all custom dump.atom_info_ac_* id type x y z radius vx vy vz density #
run 123456
Setting up run at Sat Jan  7 03:54:40 2023

Memory usage per processor = 958.583 Mbytes
    Step    Atoms         KinEng            CPU 
 5678978      216     0.38795734              0 
 5802434      215     0.30931013      1205.4653 
Loop time of 1205.47 on 40 procs for 123456 steps with 215 atoms, finish time Sat Jan  7 04:14:46 2023


Pair  time (%) = 0.229327 (0.0190239)
Neigh time (%) = 0.665547 (0.0552108)
Comm  time (%) = 1.6068 (0.133293)
Outpt time (%) = 0.0029187 (0.000242122)
Other time (%) = 1202.96 (99.7922)

Nlocal:    5.375 ave 78 max 0 min
Histogram: 36 0 1 0 1 0 0 1 0 1
Nghost:    2.925 ave 32 max 0 min
Histogram: 36 0 0 0 0 0 0 1 1 2
Neighs:    1.275 ave 20 max 0 min
Histogram: 36 0 1 0 1 0 0 0 1 1

Total # of neighbors = 51
Ave neighs/atom = 0.237209
Neighbor list builds = 3614
Dangerous builds = 6
write_dump all custom dump.atom_info_ac_* id type x y z radius vx vy vz density #
run 123456
Setting up run at Sat Jan  7 04:14:46 2023

Memory usage per processor = 958.583 Mbytes
    Step    Atoms         KinEng            CPU 
 5802434      215     0.30931013              0 
 5925890      210     0.65144864      1217.5305 
Loop time of 1217.53 on 40 procs for 123456 steps with 210 atoms, finish time Sat Jan  7 04:35:03 2023


Pair  time (%) = 0.235704 (0.0193592)
Neigh time (%) = 0.933995 (0.0767122)
Comm  time (%) = 2.0323 (0.16692)
Outpt time (%) = 0.00015772 (1.29541e-05)
Other time (%) = 1214.33 (99.737)

Nlocal:    5.25 ave 77 max 0 min
Histogram: 36 0 1 1 0 0 0 1 0 1
Nghost:    2.975 ave 33 max 0 min
Histogram: 36 0 0 0 0 0 0 1 2 1
Neighs:    1.225 ave 17 max 0 min
Histogram: 36 0 1 0 0 1 0 0 0 2

Total # of neighbors = 49
Ave neighs/atom = 0.233333
Neighbor list builds = 5262
Dangerous builds = 249
write_dump all custom dump.atom_info_ac_* id type x y z radius vx vy vz density #
run 123456
Setting up run at Sat Jan  7 04:35:03 2023

Memory usage per processor = 958.583 Mbytes
    Step    Atoms         KinEng            CPU 
 5925890      210     0.65144864              0 
 6049346      208     0.33088966      1204.8711 
Loop time of 1204.87 on 40 procs for 123456 steps with 208 atoms, finish time Sat Jan  7 04:55:08 2023


Pair  time (%) = 0.229972 (0.0190868)
Neigh time (%) = 0.589667 (0.0489403)
Comm  time (%) = 1.45095 (0.120423)
Outpt time (%) = 0.000238879 (1.98261e-05)
Other time (%) = 1202.6 (99.8115)

Nlocal:    5.2 ave 76 max 0 min
Histogram: 36 0 1 1 0 0 0 0 1 1
Nghost:    2.95 ave 34 max 0 min
Histogram: 36 0 0 0 0 0 0 2 0 2
Neighs:    1.35 ave 25 max 0 min
Histogram: 36 1 0 1 0 0 1 0 0 1

Total # of neighbors = 54
Ave neighs/atom = 0.259615
Neighbor list builds = 3254
Dangerous builds = 3
write_dump all custom dump.atom_info_ac_* id type x y z radius vx vy vz density #
run 123456
Setting up run at Sat Jan  7 04:55:08 2023

Memory usage per processor = 958.583 Mbytes
    Step    Atoms         KinEng            CPU 
 6049346      208     0.33088966              0 
 6172802      206     0.30240482      1213.9865 
Loop time of 1213.99 on 40 procs for 123456 steps with 206 atoms, finish time Sat Jan  7 05:15:22 2023


Pair  time (%) = 0.234774 (0.0193391)
Neigh time (%) = 0.863901 (0.0711623)
Comm  time (%) = 2.46412 (0.202978)
Outpt time (%) = 0.000498993 (4.11037e-05)
Other time (%) = 1210.42 (99.7065)

Nlocal:    5.15 ave 76 max 0 min
Histogram: 36 0 1 0 1 0 0 0 1 1
Nghost:    3.125 ave 36 max 0 min
Histogram: 36 0 0 0 0 0 1 1 1 1
Neighs:    1.4 ave 28 max 0 min
Histogram: 37 0 0 1 0 0 1 0 0 1

Total # of neighbors = 56
Ave neighs/atom = 0.271845
Neighbor list builds = 4924
Dangerous builds = 1
write_dump all custom dump.atom_info_ac_* id type x y z radius vx vy vz density #
run 123456
Setting up run at Sat Jan  7 05:15:22 2023

Memory usage per processor = 958.583 Mbytes
    Step    Atoms         KinEng            CPU 
 6172802      206     0.30240482              0 
 6296258      201     0.29551114      1225.8379 
Loop time of 1225.84 on 40 procs for 123456 steps with 201 atoms, finish time Sat Jan  7 05:35:48 2023


Pair  time (%) = 0.238654 (0.0194687)
Neigh time (%) = 1.19654 (0.0976101)
Comm  time (%) = 3.0082 (0.245399)
Outpt time (%) = 0.000180917 (1.47587e-05)
Other time (%) = 1221.39 (99.6375)

Nlocal:    5.025 ave 74 max 0 min
Histogram: 36 0 1 1 0 0 0 0 1 1
Nghost:    3.025 ave 36 max 0 min
Histogram: 36 0 0 0 0 0 0 2 1 1
Neighs:    1.425 ave 30 max 0 min
Histogram: 37 0 0 1 0 1 0 0 0 1

Total # of neighbors = 57
Ave neighs/atom = 0.283582
Neighbor list builds = 6759
Dangerous builds = 415
write_dump all custom dump.atom_info_ac_* id type x y z radius vx vy vz density #
run 123456
Setting up run at Sat Jan  7 05:35:48 2023

Memory usage per processor = 958.583 Mbytes
    Step    Atoms         KinEng            CPU 
 6296258      201     0.29551114              0 
 6419714      198     0.31816468      1210.6644 
Loop time of 1210.66 on 40 procs for 123456 steps with 198 atoms, finish time Sat Jan  7 05:55:59 2023


Pair  time (%) = 0.231273 (0.019103)
Neigh time (%) = 0.751599 (0.0620816)
Comm  time (%) = 1.62643 (0.134342)
Outpt time (%) = 0.000151118 (1.24822e-05)
Other time (%) = 1208.05 (99.7845)

Nlocal:    4.95 ave 73 max 0 min
Histogram: 36 1 0 0 1 0 0 0 1 1
Nghost:    3.1 ave 35 max 0 min
Histogram: 36 0 0 0 0 0 0 1 2 1
Neighs:    1.4 ave 30 max 0 min
Histogram: 37 0 0 1 1 0 0 0 0 1

Total # of neighbors = 56
Ave neighs/atom = 0.282828
Neighbor list builds = 4200
Dangerous builds = 181
write_dump all custom dump.atom_info_ac_* id type x y z radius vx vy vz density #
run 123456
Setting up run at Sat Jan  7 05:55:59 2023

Memory usage per processor = 958.583 Mbytes
    Step    Atoms         KinEng            CPU 
 6419714      198     0.31816468              0 
 6543170      197     0.40436856      1201.5593 
Loop time of 1201.56 on 40 procs for 123456 steps with 197 atoms, finish time Sat Jan  7 06:16:01 2023


Pair  time (%) = 0.225821 (0.018794)
Neigh time (%) = 0.510204 (0.0424616)
Comm  time (%) = 1.67564 (0.139455)
Outpt time (%) = 0.000467271 (3.88886e-05)
Other time (%) = 1199.15 (99.7993)

Nlocal:    4.925 ave 71 max 0 min
Histogram: 35 2 0 0 1 0 0 0 0 2
Nghost:    2.975 ave 34 max 0 min
Histogram: 36 0 0 0 0 0 0 2 1 1
Neighs:    1.375 ave 29 max 0 min
Histogram: 37 0 0 0 2 0 0 0 0 1

Total # of neighbors = 55
Ave neighs/atom = 0.279188
Neighbor list builds = 2866
Dangerous builds = 119
write_dump all custom dump.atom_info_ac_* id type x y z radius vx vy vz density #
run 123456
Setting up run at Sat Jan  7 06:16:01 2023

Memory usage per processor = 958.583 Mbytes
    Step    Atoms         KinEng            CPU 
 6543170      197     0.40436856              0 
 6666626      195     0.26670085      1202.9955 
Loop time of 1203 on 40 procs for 123456 steps with 195 atoms, finish time Sat Jan  7 06:36:04 2023


Pair  time (%) = 0.225334 (0.018731)
Neigh time (%) = 0.643858 (0.0535212)
Comm  time (%) = 1.87087 (0.155518)
Outpt time (%) = 0.0110772 (0.000920801)
Other time (%) = 1200.24 (99.7713)

Nlocal:    4.875 ave 70 max 0 min
Histogram: 36 1 0 0 1 0 0 0 0 2
Nghost:    2.825 ave 34 max 0 min
Histogram: 36 0 0 0 0 0 0 2 1 1
Neighs:    1.3 ave 23 max 0 min
Histogram: 37 0 0 0 0 1 1 0 0 1

Total # of neighbors = 52
Ave neighs/atom = 0.266667
Neighbor list builds = 3576
Dangerous builds = 1
write_dump all custom dump.atom_info_ac_* id type x y z radius vx vy vz density #
run 123456
Setting up run at Sat Jan  7 06:36:04 2023

Memory usage per processor = 958.583 Mbytes
    Step    Atoms         KinEng            CPU 
 6666626      195     0.26670085              0 
 6790082      193     0.20788137      1203.7633 
Loop time of 1203.76 on 40 procs for 123456 steps with 193 atoms, finish time Sat Jan  7 06:56:08 2023


Pair  time (%) = 0.228337 (0.0189686)
Neigh time (%) = 0.622835 (0.0517406)
Comm  time (%) = 1.58265 (0.131475)
Outpt time (%) = 0.000152437 (1.26634e-05)
Other time (%) = 1201.33 (99.7978)

Nlocal:    4.825 ave 67 max 0 min
Histogram: 35 1 1 0 1 0 0 0 1 1
Nghost:    2.8 ave 37 max 0 min
Histogram: 36 0 0 0 0 1 1 1 0 1
Neighs:    1.1 ave 17 max 0 min
Histogram: 36 1 0 0 0 0 1 0 1 1

Total # of neighbors = 44
Ave neighs/atom = 0.227979
Neighbor list builds = 3450
Dangerous builds = 1
write_dump all custom dump.atom_info_ac_* id type x y z radius vx vy vz density #
run 123456
Setting up run at Sat Jan  7 06:56:08 2023

Memory usage per processor = 958.583 Mbytes
    Step    Atoms         KinEng            CPU 
 6790082      193     0.20788137              0 
 6913538      189     0.81190511      1211.8987 
Loop time of 1211.9 on 40 procs for 123456 steps with 189 atoms, finish time Sat Jan  7 07:16:20 2023


Pair  time (%) = 0.23027 (0.0190008)
Neigh time (%) = 0.709317 (0.0585294)
Comm  time (%) = 1.5113 (0.124705)
Outpt time (%) = 0.0132979 (0.00109728)
Other time (%) = 1209.43 (99.7967)

Nlocal:    4.725 ave 67 max 0 min
Histogram: 36 0 1 0 1 0 0 0 1 1
Nghost:    2.7 ave 38 max 0 min
Histogram: 36 0 0 0 0 1 2 0 0 1
Neighs:    1.05 ave 16 max 0 min
Histogram: 37 0 0 0 0 0 1 0 0 2

Total # of neighbors = 42
Ave neighs/atom = 0.222222
Neighbor list builds = 3981
Dangerous builds = 55
write_dump all custom dump.atom_info_ac_* id type x y z radius vx vy vz density #
run 123456
Setting up run at Sat Jan  7 07:16:20 2023

Memory usage per processor = 958.583 Mbytes
    Step    Atoms         KinEng            CPU 
 6913538      189     0.81190511              0 
 7036994      187      1.0813699      1211.7014 
Loop time of 1211.7 on 40 procs for 123456 steps with 187 atoms, finish time Sat Jan  7 07:36:31 2023


Pair  time (%) = 0.231901 (0.0191385)
Neigh time (%) = 0.869529 (0.071761)
Comm  time (%) = 2.00868 (0.165773)
Outpt time (%) = 0.000149826 (1.23649e-05)
Other time (%) = 1208.59 (99.7433)

Nlocal:    4.675 ave 67 max 0 min
Histogram: 36 0 1 0 1 0 0 0 1 1
Nghost:    2.725 ave 39 max 0 min
Histogram: 36 0 0 0 0 2 1 0 0 1
Neighs:    0.95 ave 15 max 0 min
Histogram: 37 0 0 0 0 0 0 2 0 1

Total # of neighbors = 38
Ave neighs/atom = 0.203209
Neighbor list builds = 4799
Dangerous builds = 1
write_dump all custom dump.atom_info_ac_* id type x y z radius vx vy vz density #
run 123456
Setting up run at Sat Jan  7 07:36:31 2023

Memory usage per processor = 958.583 Mbytes
    Step    Atoms         KinEng            CPU 
 7036994      187      1.0813699              0 
 7160450      187      1.0515352      1214.4787 
Loop time of 1214.48 on 40 procs for 123456 steps with 187 atoms, finish time Sat Jan  7 07:56:46 2023


Pair  time (%) = 0.232698 (0.0191603)
Neigh time (%) = 0.848929 (0.0699007)
Comm  time (%) = 1.84256 (0.151716)
Outpt time (%) = 6.24888e-05 (5.14532e-06)
Other time (%) = 1211.55 (99.7592)

Nlocal:    4.675 ave 66 max 0 min
Histogram: 36 1 0 0 1 0 0 0 1 1
Nghost:    2.7 ave 38 max 0 min
Histogram: 36 0 0 0 0 2 1 0 0 1
Neighs:    0.85 ave 11 max 0 min
Histogram: 36 1 0 0 0 0 0 0 0 3

Total # of neighbors = 34
Ave neighs/atom = 0.181818
Neighbor list builds = 4629
Dangerous builds = 0
write_dump all custom dump.atom_info_ac_* id type x y z radius vx vy vz density #
run 123456
Setting up run at Sat Jan  7 07:56:46 2023

Memory usage per processor = 958.583 Mbytes
    Step    Atoms         KinEng            CPU 
 7160450      187      1.0515352              0 
 7283906      186     0.66008659      1208.6824 
Loop time of 1208.68 on 40 procs for 123456 steps with 186 atoms, finish time Sat Jan  7 08:16:55 2023


Pair  time (%) = 0.230088 (0.0190363)
Neigh time (%) = 0.690316 (0.0571131)
Comm  time (%) = 1.53927 (0.127351)
Outpt time (%) = 0.000217593 (1.80025e-05)
Other time (%) = 1206.22 (99.7965)

Nlocal:    4.65 ave 66 max 0 min
Histogram: 35 2 0 0 1 0 0 0 1 1
Nghost:    2.675 ave 37 max 0 min
Histogram: 36 0 0 0 0 1 2 0 0 1
Neighs:    0.925 ave 13 max 0 min
Histogram: 36 1 0 0 0 0 0 0 2 1

Total # of neighbors = 37
Ave neighs/atom = 0.198925
Neighbor list builds = 3820
Dangerous builds = 0
write_dump all custom dump.atom_info_ac_* id type x y z radius vx vy vz density #
run 123456
Setting up run at Sat Jan  7 08:16:55 2023

Memory usage per processor = 958.583 Mbytes
    Step    Atoms         KinEng            CPU 
 7283906      186     0.66008659              0 
 7407362      180     0.40210855      1215.2641 
Loop time of 1215.26 on 40 procs for 123456 steps with 180 atoms, finish time Sat Jan  7 08:37:10 2023


Pair  time (%) = 0.232583 (0.0191385)
Neigh time (%) = 0.903498 (0.0743458)
Comm  time (%) = 1.98983 (0.163736)
Outpt time (%) = 0.000735943 (6.05583e-05)
Other time (%) = 1212.14 (99.7427)

Nlocal:    4.5 ave 63 max 0 min
Histogram: 36 1 0 0 0 1 0 0 1 1
Nghost:    2.6 ave 34 max 0 min
Histogram: 36 0 0 0 0 1 1 1 0 1
Neighs:    0.75 ave 11 max 0 min
Histogram: 37 0 0 0 0 0 0 0 2 1

Total # of neighbors = 30
Ave neighs/atom = 0.166667
Neighbor list builds = 5143
Dangerous builds = 11
write_dump all custom dump.atom_info_ac_* id type x y z radius vx vy vz density #
run 123456
Setting up run at Sat Jan  7 08:37:10 2023

Memory usage per processor = 958.583 Mbytes
    Step    Atoms         KinEng            CPU 
 7407362      180     0.40210855              0 
 7530818      177      0.3112752      1208.8404 
Loop time of 1208.84 on 40 procs for 123456 steps with 177 atoms, finish time Sat Jan  7 08:57:19 2023


Pair  time (%) = 0.229305 (0.018969)
Neigh time (%) = 0.557515 (0.0461198)
Comm  time (%) = 1.28349 (0.106176)
Outpt time (%) = 0.000174246 (1.44143e-05)
Other time (%) = 1206.77 (99.8287)

Nlocal:    4.425 ave 60 max 0 min
Histogram: 35 1 1 0 1 0 0 0 0 2
Nghost:    2.5 ave 32 max 0 min
Histogram: 36 0 0 0 0 1 1 0 1 1
Neighs:    0.8 ave 11 max 0 min
Histogram: 37 0 0 0 0 0 0 0 1 2

Total # of neighbors = 32
Ave neighs/atom = 0.180791
Neighbor list builds = 3149
Dangerous builds = 225
write_dump all custom dump.atom_info_ac_* id type x y z radius vx vy vz density #
run 123456
Setting up run at Sat Jan  7 08:57:19 2023

Memory usage per processor = 958.583 Mbytes
    Step    Atoms         KinEng            CPU 
 7530818      177      0.3112752              0 
 7654274      177     0.51017149      1208.3666 
Loop time of 1208.37 on 40 procs for 123456 steps with 177 atoms, finish time Sat Jan  7 09:17:27 2023


Pair  time (%) = 0.229411 (0.0189852)
Neigh time (%) = 0.613221 (0.0507479)
Comm  time (%) = 1.56332 (0.129375)
Outpt time (%) = 0.000170927 (1.41453e-05)
Other time (%) = 1205.96 (99.8009)

Nlocal:    4.425 ave 60 max 0 min
Histogram: 36 0 1 0 1 0 0 0 0 2
Nghost:    2.575 ave 31 max 0 min
Histogram: 36 0 0 0 0 1 0 1 1 1
Neighs:    0.75 ave 11 max 0 min
Histogram: 37 0 0 0 0 0 0 0 2 1

Total # of neighbors = 30
Ave neighs/atom = 0.169492
Neighbor list builds = 3343
Dangerous builds = 0
write_dump all custom dump.atom_info_ac_* id type x y z radius vx vy vz density #
run 123456
Setting up run at Sat Jan  7 09:17:27 2023

Memory usage per processor = 958.583 Mbytes
    Step    Atoms         KinEng            CPU 
 7654274      177     0.51017149              0 
 7777730      175     0.34816264      1204.8229 
Loop time of 1204.82 on 40 procs for 123456 steps with 175 atoms, finish time Sat Jan  7 09:37:32 2023


Pair  time (%) = 0.224314 (0.018618)
Neigh time (%) = 0.612766 (0.0508594)
Comm  time (%) = 2.42058 (0.200908)
Outpt time (%) = 0.000528379 (4.38553e-05)
Other time (%) = 1201.56 (99.7296)

Nlocal:    4.375 ave 59 max 0 min
Histogram: 36 0 1 0 1 0 0 0 0 2
Nghost:    2.55 ave 31 max 0 min
Histogram: 36 0 0 0 1 0 0 1 0 2
Neighs:    0.7 ave 11 max 0 min
Histogram: 36 1 0 0 0 0 1 1 0 1

Total # of neighbors = 28
Ave neighs/atom = 0.16
Neighbor list builds = 3378
Dangerous builds = 1
write_dump all custom dump.atom_info_ac_* id type x y z radius vx vy vz density #
run 123456
Setting up run at Sat Jan  7 09:37:32 2023

Memory usage per processor = 958.583 Mbytes
    Step    Atoms         KinEng            CPU 
 7777730      175     0.34816264              0 
 7901186      175     0.34146397      1204.2376 
Loop time of 1204.24 on 40 procs for 123456 steps with 175 atoms, finish time Sat Jan  7 09:57:37 2023


Pair  time (%) = 0.228104 (0.0189418)
Neigh time (%) = 0.608493 (0.0505293)
Comm  time (%) = 2.36777 (0.19662)
Outpt time (%) = 0.000262324 (2.17834e-05)
Other time (%) = 1201.03 (99.7339)

Nlocal:    4.375 ave 60 max 0 min
Histogram: 34 2 1 0 1 0 0 0 0 2
Nghost:    2.525 ave 31 max 0 min
Histogram: 36 0 0 0 0 1 0 1 0 2
Neighs:    0.6 ave 11 max 0 min
Histogram: 36 1 0 1 0 0 1 0 0 1

Total # of neighbors = 24
Ave neighs/atom = 0.137143
Neighbor list builds = 3340
Dangerous builds = 0
write_dump all custom dump.atom_info_ac_* id type x y z radius vx vy vz density #
run 123456
Setting up run at Sat Jan  7 09:57:37 2023

Memory usage per processor = 958.583 Mbytes
    Step    Atoms         KinEng            CPU 
 7901186      175     0.34146397              0 
 8024642      172     0.41463782      1206.7781 
Loop time of 1206.78 on 40 procs for 123456 steps with 172 atoms, finish time Sat Jan  7 10:17:43 2023


Pair  time (%) = 0.227303 (0.0188356)
Neigh time (%) = 0.568408 (0.0471013)
Comm  time (%) = 1.3973 (0.115787)
Outpt time (%) = 0.000199783 (1.65551e-05)
Other time (%) = 1204.58 (99.8183)

Nlocal:    4.3 ave 60 max 0 min
Histogram: 35 1 1 1 0 0 0 0 0 2
Nghost:    2.5 ave 31 max 0 min
Histogram: 36 0 0 0 0 1 0 1 0 2
Neighs:    0.725 ave 13 max 0 min
Histogram: 36 1 0 1 0 0 1 0 0 1

Total # of neighbors = 29
Ave neighs/atom = 0.168605
Neighbor list builds = 3101
Dangerous builds = 10
write_dump all custom dump.atom_info_ac_* id type x y z radius vx vy vz density #
run 123456
Setting up run at Sat Jan  7 10:17:43 2023

Memory usage per processor = 958.583 Mbytes
    Step    Atoms         KinEng            CPU 
 8024642      172     0.41463782              0 
 8148098      168     0.30345773      1203.3296 
Loop time of 1203.35 on 40 procs for 123456 steps with 168 atoms, finish time Sat Jan  7 10:37:47 2023


Pair  time (%) = 0.224736 (0.0186759)
Neigh time (%) = 0.599715 (0.0498372)
Comm  time (%) = 1.35603 (0.112688)
Outpt time (%) = 0.000532589 (4.42588e-05)
Other time (%) = 1201.17 (99.8188)

Nlocal:    4.2 ave 59 max 0 min
Histogram: 35 1 1 1 0 0 0 0 0 2
Nghost:    2.575 ave 31 max 0 min
Histogram: 36 0 0 0 0 1 0 1 1 1
Neighs:    0.725 ave 14 max 0 min
Histogram: 36 1 0 1 0 1 0 0 0 1

Total # of neighbors = 29
Ave neighs/atom = 0.172619
Neighbor list builds = 3476
Dangerous builds = 246
write_dump all custom dump.atom_info_ac_* id type x y z radius vx vy vz density #
run 123456
Setting up run at Sat Jan  7 10:37:47 2023

Memory usage per processor = 958.583 Mbytes
    Step    Atoms         KinEng            CPU 
 8148098      168     0.30345773              0 
 8271554      168     0.39027768      1207.5772 
Loop time of 1207.58 on 40 procs for 123456 steps with 168 atoms, finish time Sat Jan  7 10:57:55 2023


Pair  time (%) = 0.227369 (0.0188285)
Neigh time (%) = 0.675107 (0.0559059)
Comm  time (%) = 1.47736 (0.12234)
Outpt time (%) = 0.000135878 (1.12521e-05)
Other time (%) = 1205.2 (99.8029)

Nlocal:    4.2 ave 57 max 0 min
Histogram: 36 0 1 1 0 0 0 0 0 2
Nghost:    2.35 ave 28 max 0 min
Histogram: 36 0 0 0 0 1 0 0 1 2
Neighs:    0.675 ave 13 max 0 min
Histogram: 36 1 0 1 0 1 0 0 0 1

Total # of neighbors = 27
Ave neighs/atom = 0.160714
Neighbor list builds = 3690
Dangerous builds = 0
write_dump all custom dump.atom_info_ac_* id type x y z radius vx vy vz density #
run 123456
Setting up run at Sat Jan  7 10:57:55 2023

Memory usage per processor = 958.583 Mbytes
    Step    Atoms         KinEng            CPU 
 8271554      168     0.39027768              0 
 8395010      166     0.36843169      1205.0319 
Loop time of 1205.03 on 40 procs for 123456 steps with 166 atoms, finish time Sat Jan  7 11:18:00 2023


Pair  time (%) = 0.228895 (0.0189949)
Neigh time (%) = 0.539774 (0.0447933)
Comm  time (%) = 1.24907 (0.103655)
Outpt time (%) = 0.000169471 (1.40636e-05)
Other time (%) = 1203.01 (99.8325)

Nlocal:    4.15 ave 56 max 0 min
Histogram: 36 0 1 0 1 0 0 0 0 2
Nghost:    2.4 ave 28 max 0 min
Histogram: 36 0 0 0 0 1 0 0 1 2
Neighs:    0.625 ave 13 max 0 min
Histogram: 36 1 0 1 1 0 0 0 0 1

Total # of neighbors = 25
Ave neighs/atom = 0.150602
Neighbor list builds = 2992
Dangerous builds = 108
write_dump all custom dump.atom_info_ac_* id type x y z radius vx vy vz density #
run 123456
Setting up run at Sat Jan  7 11:18:00 2023

Memory usage per processor = 958.583 Mbytes
    Step    Atoms         KinEng            CPU 
 8395010      166     0.36843169              0 
 8518466      162     0.42815292      1209.9269 
Loop time of 1209.93 on 40 procs for 123456 steps with 162 atoms, finish time Sat Jan  7 11:38:10 2023


Pair  time (%) = 0.226749 (0.0187408)
Neigh time (%) = 0.674896 (0.0557799)
Comm  time (%) = 1.4844 (0.122685)
Outpt time (%) = 0.00048792 (4.03264e-05)
Other time (%) = 1207.54 (99.8028)

Nlocal:    4.05 ave 55 max 0 min
Histogram: 36 0 1 0 1 0 0 0 0 2
Nghost:    2.275 ave 26 max 0 min
Histogram: 36 0 0 0 0 1 0 0 1 2
Neighs:    0.45 ave 9 max 0 min
Histogram: 37 0 0 1 0 0 1 0 0 1

Total # of neighbors = 18
Ave neighs/atom = 0.111111
Neighbor list builds = 3979
Dangerous builds = 527
write_dump all custom dump.atom_info_ac_* id type x y z radius vx vy vz density #
run 123456
Setting up run at Sat Jan  7 11:38:10 2023

Memory usage per processor = 958.583 Mbytes
    Step    Atoms         KinEng            CPU 
 8518466      162     0.42815292              0 
 8641922      161      0.1733181      1231.4645 
Loop time of 1231.46 on 40 procs for 123456 steps with 161 atoms, finish time Sat Jan  7 11:58:41 2023


Pair  time (%) = 0.224242 (0.0182094)
Neigh time (%) = 0.527215 (0.042812)
Comm  time (%) = 1.17361 (0.0953023)
Outpt time (%) = 0.00018714 (1.51965e-05)
Other time (%) = 1229.54 (99.8437)

Nlocal:    4.025 ave 56 max 0 min
Histogram: 36 0 1 0 1 0 0 0 0 2
Nghost:    2.4 ave 28 max 0 min
Histogram: 36 0 0 0 0 1 0 1 1 1
Neighs:    0.425 ave 8 max 0 min
Histogram: 37 0 0 1 0 0 0 1 0 1

Total # of neighbors = 17
Ave neighs/atom = 0.10559
Neighbor list builds = 2851
Dangerous builds = 0
write_dump all custom dump.atom_info_ac_* id type x y z radius vx vy vz density #
run 123456
Setting up run at Sat Jan  7 11:58:41 2023

Memory usage per processor = 958.583 Mbytes
    Step    Atoms         KinEng            CPU 
 8641922      161      0.1733181              0 
 8765378      161     0.17111515      1195.2702 
Loop time of 1195.27 on 40 procs for 123456 steps with 161 atoms, finish time Sat Jan  7 12:18:36 2023


Pair  time (%) = 0.223042 (0.0186604)
Neigh time (%) = 0.508209 (0.0425184)
Comm  time (%) = 1.14656 (0.0959244)
Outpt time (%) = 0.00017884 (1.49623e-05)
Other time (%) = 1193.39 (99.8429)

Nlocal:    4.025 ave 56 max 0 min
Histogram: 36 0 1 1 0 0 0 0 0 2
Nghost:    2.25 ave 28 max 0 min
Histogram: 36 0 0 0 0 1 0 1 1 1
Neighs:    0.35 ave 7 max 0 min
Histogram: 37 0 0 0 1 1 0 0 0 1

Total # of neighbors = 14
Ave neighs/atom = 0.0869565
Neighbor list builds = 2760
Dangerous builds = 0
write_dump all custom dump.atom_info_ac_* id type x y z radius vx vy vz density #
run 123456
Setting up run at Sat Jan  7 12:18:37 2023

Memory usage per processor = 958.583 Mbytes
    Step    Atoms         KinEng            CPU 
 8765378      161     0.17111515              0 
 8888834      158     0.21062868      1218.1464 
Loop time of 1218.15 on 40 procs for 123456 steps with 158 atoms, finish time Sat Jan  7 12:38:55 2023


Pair  time (%) = 0.220567 (0.0181067)
Neigh time (%) = 0.602584 (0.0494673)
Comm  time (%) = 1.45806 (0.119695)
Outpt time (%) = 0.000162088 (1.33061e-05)
Other time (%) = 1215.87 (99.8127)

Nlocal:    3.95 ave 56 max 0 min
Histogram: 36 1 0 1 0 0 0 0 0 2
Nghost:    2.225 ave 30 max 0 min
Histogram: 36 0 0 0 0 1 1 0 1 1
Neighs:    0.425 ave 9 max 0 min
Histogram: 37 0 0 0 2 0 0 0 0 1

Total # of neighbors = 17
Ave neighs/atom = 0.107595
Neighbor list builds = 3274
Dangerous builds = 2
write_dump all custom dump.atom_info_ac_* id type x y z radius vx vy vz density #
run 123456
Setting up run at Sat Jan  7 12:38:55 2023

Memory usage per processor = 958.583 Mbytes
    Step    Atoms         KinEng            CPU 
 8888834      158     0.21062868              0 
 9012290      153      0.1764439      1334.4543 
Loop time of 1334.45 on 40 procs for 123456 steps with 153 atoms, finish time Sat Jan  7 13:01:09 2023


Pair  time (%) = 0.224872 (0.0168512)
Neigh time (%) = 0.744338 (0.0557785)
Comm  time (%) = 1.40392 (0.105205)
Outpt time (%) = 0.000489733 (3.66991e-05)
Other time (%) = 1332.08 (99.8221)

Nlocal:    3.825 ave 55 max 0 min
Histogram: 35 1 1 1 0 0 0 0 0 2
Nghost:    2.075 ave 27 max 0 min
Histogram: 36 0 0 0 0 1 0 1 1 1
Neighs:    0.425 ave 9 max 0 min
Histogram: 37 0 0 1 0 1 0 0 0 1

Total # of neighbors = 17
Ave neighs/atom = 0.111111
Neighbor list builds = 4053
Dangerous builds = 4
write_dump all custom dump.atom_info_ac_* id type x y z radius vx vy vz density #
run 123456
Setting up run at Sat Jan  7 13:01:09 2023

Memory usage per processor = 958.583 Mbytes
    Step    Atoms         KinEng            CPU 
 9012290      153      0.1764439              0 
 9135746      152      0.1699845      1415.2918 
Loop time of 1415.29 on 40 procs for 123456 steps with 152 atoms, finish time Sat Jan  7 13:24:45 2023


Pair  time (%) = 0.221732 (0.0156669)
Neigh time (%) = 0.490732 (0.0346735)
Comm  time (%) = 1.02894 (0.0727015)
Outpt time (%) = 0.000186627 (1.31865e-05)
Other time (%) = 1413.55 (99.8769)

Nlocal:    3.8 ave 54 max 0 min
Histogram: 36 0 1 0 1 0 0 0 0 2
Nghost:    2.125 ave 27 max 0 min
Histogram: 36 0 0 0 0 1 0 1 1 1
Neighs:    0.4 ave 10 max 0 min
Histogram: 37 0 0 2 0 0 0 0 0 1

Total # of neighbors = 16
Ave neighs/atom = 0.105263
Neighbor list builds = 2670
Dangerous builds = 1
write_dump all custom dump.atom_info_ac_* id type x y z radius vx vy vz density #
run 123456
Setting up run at Sat Jan  7 13:24:45 2023

Memory usage per processor = 958.583 Mbytes
    Step    Atoms         KinEng            CPU 
 9135746      152      0.1699845              0 
 9259202      151     0.40272868      1216.2477 
Loop time of 1216.25 on 40 procs for 123456 steps with 151 atoms, finish time Sat Jan  7 13:45:01 2023


Pair  time (%) = 0.221822 (0.0182383)
Neigh time (%) = 0.573344 (0.0471404)
Comm  time (%) = 1.21327 (0.0997548)
Outpt time (%) = 0.000534185 (4.39208e-05)
Other time (%) = 1214.24 (99.8348)

Nlocal:    3.775 ave 54 max 0 min
Histogram: 36 0 1 0 1 0 0 0 0 2
Nghost:    2.125 ave 27 max 0 min
Histogram: 36 0 0 0 0 1 1 0 1 1
Neighs:    0.45 ave 10 max 0 min
Histogram: 37 0 0 0 2 0 0 0 0 1

Total # of neighbors = 18
Ave neighs/atom = 0.119205
Neighbor list builds = 3223
Dangerous builds = 243
write_dump all custom dump.atom_info_ac_* id type x y z radius vx vy vz density #
run 123456
Setting up run at Sat Jan  7 13:45:01 2023

Memory usage per processor = 958.583 Mbytes
    Step    Atoms         KinEng            CPU 
 9259202      151     0.40272868              0 
 9382658      150     0.24576019      1293.0167 
Loop time of 1293.02 on 40 procs for 123456 steps with 150 atoms, finish time Sat Jan  7 14:06:34 2023


Pair  time (%) = 0.222967 (0.017244)
Neigh time (%) = 0.618245 (0.0478141)
Comm  time (%) = 1.26964 (0.0981923)
Outpt time (%) = 0.000246485 (1.90628e-05)
Other time (%) = 1290.91 (99.8367)

Nlocal:    3.75 ave 54 max 0 min
Histogram: 36 0 1 0 1 0 0 0 0 2
Nghost:    2.1 ave 27 max 0 min
Histogram: 36 0 0 0 0 1 1 0 1 1
Neighs:    0.4 ave 10 max 0 min
Histogram: 37 0 1 0 1 0 0 0 0 1

Total # of neighbors = 16
Ave neighs/atom = 0.106667
Neighbor list builds = 3350
Dangerous builds = 1
write_dump all custom dump.atom_info_ac_* id type x y z radius vx vy vz density #
run 123456
Setting up run at Sat Jan  7 14:06:34 2023

Memory usage per processor = 958.583 Mbytes
    Step    Atoms         KinEng            CPU 
 9382658      150     0.24576019              0 
 9506114      148     0.17933557      1230.7611 
Loop time of 1230.76 on 40 procs for 123456 steps with 148 atoms, finish time Sat Jan  7 14:27:05 2023


Pair  time (%) = 0.222108 (0.0180464)
Neigh time (%) = 0.652145 (0.0529871)
Comm  time (%) = 1.72467 (0.14013)
Outpt time (%) = 0.000202048 (1.64165e-05)
Other time (%) = 1228.16 (99.7888)

Nlocal:    3.7 ave 56 max 0 min
Histogram: 36 0 1 1 0 0 0 0 0 2
Nghost:    1.925 ave 25 max 0 min
Histogram: 36 0 0 0 0 1 1 0 0 2
Neighs:    0.45 ave 12 max 0 min
Histogram: 38 0 0 0 1 0 0 0 0 1

Total # of neighbors = 18
Ave neighs/atom = 0.121622
Neighbor list builds = 3657
Dangerous builds = 1
write_dump all custom dump.atom_info_ac_* id type x y z radius vx vy vz density #
run 123456
Setting up run at Sat Jan  7 14:27:05 2023

Memory usage per processor = 958.583 Mbytes
    Step    Atoms         KinEng            CPU 
 9506114      148     0.17933557              0 
 9629570      146     0.21571149      1204.3024 
Loop time of 1204.3 on 40 procs for 123456 steps with 146 atoms, finish time Sat Jan  7 14:47:09 2023


Pair  time (%) = 0.22104 (0.0183542)
Neigh time (%) = 0.53801 (0.044674)
Comm  time (%) = 1.54372 (0.128184)
Outpt time (%) = 0.000213849 (1.77571e-05)
Other time (%) = 1202 (99.8088)

Nlocal:    3.65 ave 53 max 0 min
Histogram: 36 0 1 0 1 0 0 0 0 2
Nghost:    2.075 ave 28 max 0 min
Histogram: 36 0 0 0 1 0 1 1 0 1
Neighs:    0.5 ave 12 max 0 min
Histogram: 37 1 0 0 1 0 0 0 0 1

Total # of neighbors = 20
Ave neighs/atom = 0.136986
Neighbor list builds = 2960
Dangerous builds = 1
write_dump all custom dump.atom_info_ac_* id type x y z radius vx vy vz density #
run 123456
Setting up run at Sat Jan  7 14:47:09 2023

Memory usage per processor = 958.583 Mbytes
    Step    Atoms         KinEng            CPU 
 9629570      146     0.21571149              0 
 9753026      145     0.29886512      1285.3543 
Loop time of 1285.35 on 40 procs for 123456 steps with 145 atoms, finish time Sat Jan  7 15:08:35 2023


Pair  time (%) = 0.223295 (0.0173722)
Neigh time (%) = 0.743305 (0.0578288)
Comm  time (%) = 2.18798 (0.170224)
Outpt time (%) = 0.000487197 (3.79037e-05)
Other time (%) = 1282.2 (99.7545)

Nlocal:    3.625 ave 53 max 0 min
Histogram: 36 0 1 1 0 0 0 0 0 2
Nghost:    1.95 ave 25 max 0 min
Histogram: 36 0 0 0 1 0 0 1 0 2
Neighs:    0.45 ave 11 max 0 min
Histogram: 38 0 0 0 1 0 0 0 0 1

Total # of neighbors = 18
Ave neighs/atom = 0.124138
Neighbor list builds = 4040
Dangerous builds = 0
write_dump all custom dump.atom_info_ac_* id type x y z radius vx vy vz density #
run 123456
Setting up run at Sat Jan  7 15:08:35 2023

Memory usage per processor = 958.583 Mbytes
    Step    Atoms         KinEng            CPU 
 9753026      145     0.29886512              0 
 9876482      143     0.68303955      1210.7839 
Loop time of 1210.78 on 40 procs for 123456 steps with 143 atoms, finish time Sat Jan  7 15:28:45 2023


Pair  time (%) = 0.223521 (0.0184608)
Neigh time (%) = 0.810929 (0.0669755)
Comm  time (%) = 1.71083 (0.1413)
Outpt time (%) = 0.000191882 (1.58478e-05)
Other time (%) = 1208.04 (99.7732)

Nlocal:    3.575 ave 55 max 0 min
Histogram: 36 0 1 1 0 0 0 0 1 1
Nghost:    1.85 ave 23 max 0 min
Histogram: 36 0 0 0 0 1 0 1 0 2
Neighs:    0.4 ave 10 max 0 min
Histogram: 37 1 0 0 0 1 0 0 0 1

Total # of neighbors = 16
Ave neighs/atom = 0.111888
Neighbor list builds = 4477
Dangerous builds = 122
write_dump all custom dump.atom_info_ac_* id type x y z radius vx vy vz density #
run 123456
Setting up run at Sat Jan  7 15:28:46 2023

Memory usage per processor = 958.583 Mbytes
    Step    Atoms         KinEng            CPU 
[...]
16790096       76     0.16236947      1207.7479 
Loop time of 1207.75 on 40 procs for 123456 steps with 76 atoms, finish time Sun Jan  8 10:18:59 2023


Pair  time (%) = 0.212009 (0.0175541)
Neigh time (%) = 0.719975 (0.059613)
Comm  time (%) = 1.5372 (0.127278)
Outpt time (%) = 0.000252013 (2.08664e-05)
Other time (%) = 1205.28 (99.7955)

Nlocal:    1.9 ave 35 max 0 min
Histogram: 37 1 0 0 0 0 0 0 1 1
Nghost:    0.65 ave 8 max 0 min
Histogram: 35 1 0 0 0 1 0 1 1 1
Neighs:    0.025 ave 1 max 0 min
Histogram: 39 0 0 0 0 0 0 0 0 1

Total # of neighbors = 1
Ave neighs/atom = 0.0131579
Neighbor list builds = 3885
Dangerous builds = 1
write_dump all custom dump.atom_info_ac_* id type x y z radius vx vy vz density #
run 123456
Setting up run at Sun Jan  8 10:18:59 2023

Memory usage per processor = 958.583 Mbytes
    Step    Atoms         KinEng            CPU 
16790096       76     0.16236947              0 
16913552       76    0.022131151      1205.6045 
Loop time of 1205.6 on 40 procs for 123456 steps with 76 atoms, finish time Sun Jan  8 10:39:04 2023


Pair  time (%) = 0.213036 (0.0176705)
Neigh time (%) = 0.724944 (0.0601312)
Comm  time (%) = 1.66562 (0.138156)
Outpt time (%) = 0.000164307 (1.36286e-05)
Other time (%) = 1203 (99.784)

Nlocal:    1.9 ave 31 max 0 min
Histogram: 37 0 1 0 0 0 0 0 0 2
Nghost:    0.7 ave 8 max 0 min
Histogram: 34 2 0 0 0 1 0 0 2 1
Neighs:    0.025 ave 1 max 0 min
Histogram: 39 0 0 0 0 0 0 0 0 1

Total # of neighbors = 1
Ave neighs/atom = 0.0131579
Neighbor list builds = 3903
Dangerous builds = 0
write_dump all custom dump.atom_info_ac_* id type x y z radius vx vy vz density #
run 123456
Setting up run at Sun Jan  8 10:39:04 2023

Memory usage per processor = 958.583 Mbytes
    Step    Atoms         KinEng            CPU 
16913552       76    0.022131151              0 
17037008       76     0.17840645      1207.0473 
Loop time of 1207.05 on 40 procs for 123456 steps with 76 atoms, finish time Sun Jan  8 10:59:11 2023


Pair  time (%) = 0.212325 (0.0175905)
Neigh time (%) = 0.7309 (0.0605527)
Comm  time (%) = 1.71603 (0.142167)
Outpt time (%) = 0.00047172 (3.90805e-05)
Other time (%) = 1204.39 (99.7797)

Nlocal:    1.9 ave 34 max 0 min
Histogram: 37 0 1 0 0 0 0 1 0 1
Nghost:    0.7 ave 10 max 0 min
Histogram: 33 3 0 0 2 0 0 1 0 1
Neighs:    0.05 ave 2 max 0 min
Histogram: 39 0 0 0 0 0 0 0 0 1

Total # of neighbors = 2
Ave neighs/atom = 0.0263158
Neighbor list builds = 3938
Dangerous builds = 0
write_dump all custom dump.atom_info_ac_* id type x y z radius vx vy vz density #
run 123456
Setting up run at Sun Jan  8 10:59:11 2023

Memory usage per processor = 958.583 Mbytes
    Step    Atoms         KinEng            CPU 
17037008       76     0.17840645              0 
17160464       73     0.06231948      1209.3974 
Loop time of 1209.4 on 40 procs for 123456 steps with 73 atoms, finish time Sun Jan  8 11:19:21 2023


Pair  time (%) = 0.212921 (0.0176056)
Neigh time (%) = 0.65076 (0.0538086)
Comm  time (%) = 1.39114 (0.115027)
Outpt time (%) = 0.000258956 (2.1412e-05)
Other time (%) = 1207.14 (99.8135)

Nlocal:    1.825 ave 32 max 0 min
Histogram: 37 1 0 0 0 0 0 1 0 1
Nghost:    0.625 ave 8 max 0 min
Histogram: 33 3 0 1 0 0 1 1 0 1
Neighs:    0.05 ave 2 max 0 min
Histogram: 39 0 0 0 0 0 0 0 0 1

Total # of neighbors = 2
Ave neighs/atom = 0.0273973
Neighbor list builds = 3507
Dangerous builds = 2
write_dump all custom dump.atom_info_ac_* id type x y z radius vx vy vz density #
run 123456
Setting up run at Sun Jan  8 11:19:21 2023

Memory usage per processor = 958.583 Mbytes
    Step    Atoms         KinEng            CPU 
17160464       73     0.06231948              0 
17283920       72    0.091124844      1196.6524 
Loop time of 1196.67 on 40 procs for 123456 steps with 72 atoms, finish time Sun Jan  8 11:39:17 2023


Pair  time (%) = 0.209881 (0.0175388)
Neigh time (%) = 0.508276 (0.0424743)
Comm  time (%) = 0.870428 (0.0727377)
Outpt time (%) = 0.000153887 (1.28596e-05)
Other time (%) = 1195.08 (99.8672)

Nlocal:    1.8 ave 31 max 0 min
Histogram: 37 1 0 0 0 0 0 1 0 1
Nghost:    0.65 ave 8 max 0 min
Histogram: 36 0 0 0 0 1 0 0 2 1
Neighs:    0.025 ave 1 max 0 min
Histogram: 39 0 0 0 0 0 0 0 0 1

Total # of neighbors = 1
Ave neighs/atom = 0.0138889
Neighbor list builds = 2730
Dangerous builds = 1
write_dump all custom dump.atom_info_ac_* id type x y z radius vx vy vz density #
run 123456
Setting up run at Sun Jan  8 11:39:18 2023

Memory usage per processor = 958.583 Mbytes
    Step    Atoms         KinEng            CPU 
17283920       72    0.091124844              0 
17407376       70     0.34306355      1219.0724 
Loop time of 1219.07 on 40 procs for 123456 steps with 70 atoms, finish time Sun Jan  8 11:59:37 2023


Pair  time (%) = 0.214452 (0.0175914)
Neigh time (%) = 0.890713 (0.0730648)
Comm  time (%) = 2.08436 (0.170979)
Outpt time (%) = 0.000490301 (4.02192e-05)
Other time (%) = 1215.88 (99.7383)

Nlocal:    1.75 ave 27 max 0 min
Histogram: 36 2 0 0 0 0 0 0 0 2
Nghost:    0.7 ave 10 max 0 min
Histogram: 36 0 0 0 1 0 0 2 0 1
Neighs:    0.025 ave 1 max 0 min
Histogram: 39 0 0 0 0 0 0 0 0 1

Total # of neighbors = 1
Ave neighs/atom = 0.0142857
Neighbor list builds = 4824
Dangerous builds = 21
write_dump all custom dump.atom_info_ac_* id type x y z radius vx vy vz density #
run 123456
Setting up run at Sun Jan  8 11:59:37 2023

Memory usage per processor = 958.583 Mbytes
    Step    Atoms         KinEng            CPU 
17407376       70     0.34306355              0 
17530832       68     0.30289572      1226.6695 
Loop time of 1226.67 on 40 procs for 123456 steps with 68 atoms, finish time Sun Jan  8 12:20:03 2023


Pair  time (%) = 0.217205 (0.0177069)
Neigh time (%) = 1.15909 (0.0944911)
Comm  time (%) = 1.8406 (0.150048)
Outpt time (%) = 0.00231206 (0.000188483)
Other time (%) = 1223.45 (99.7376)

Nlocal:    1.7 ave 27 max 0 min
Histogram: 36 2 0 0 0 0 0 0 0 2
Nghost:    0.65 ave 7 max 0 min
Histogram: 35 0 1 0 0 1 0 0 1 2
Neighs:    0.025 ave 1 max 0 min
Histogram: 39 0 0 0 0 0 0 0 0 1

Total # of neighbors = 1
Ave neighs/atom = 0.0147059
Neighbor list builds = 6241
Dangerous builds = 35
write_dump all custom dump.atom_info_ac_* id type x y z radius vx vy vz density #
run 123456
Setting up run at Sun Jan  8 12:20:03 2023

Memory usage per processor = 958.583 Mbytes
    Step    Atoms         KinEng            CPU 
17530832       68     0.30289572              0 
17654288       68     0.34072593      1222.0296 
Loop time of 1222.03 on 40 procs for 123456 steps with 68 atoms, finish time Sun Jan  8 12:40:25 2023


Pair  time (%) = 0.216467 (0.0177137)
Neigh time (%) = 1.11715 (0.0914178)
Comm  time (%) = 2.78806 (0.22815)
Outpt time (%) = 0.000233134 (1.90776e-05)
Other time (%) = 1217.91 (99.6627)

Nlocal:    1.7 ave 27 max 0 min
Histogram: 35 3 0 0 0 0 0 0 0 2
Nghost:    0.675 ave 8 max 0 min
Histogram: 34 2 0 0 0 1 0 1 1 1
Neighs:    0.05 ave 2 max 0 min
Histogram: 39 0 0 0 0 0 0 0 0 1

Total # of neighbors = 2
Ave neighs/atom = 0.0294118
Neighbor list builds = 6002
Dangerous builds = 0
write_dump all custom dump.atom_info_ac_* id type x y z radius vx vy vz density #
run 123456
Setting up run at Sun Jan  8 12:40:26 2023

Memory usage per processor = 958.583 Mbytes
    Step    Atoms         KinEng            CPU 
17654288       68     0.34072593              0 
17777744       67     0.32516509      1221.0679 
Loop time of 1221.07 on 40 procs for 123456 steps with 67 atoms, finish time Sun Jan  8 13:00:47 2023


Pair  time (%) = 0.21479 (0.0175903)
Neigh time (%) = 1.11611 (0.0914041)
Comm  time (%) = 3.25436 (0.266517)
Outpt time (%) = 0.000537234 (4.39971e-05)
Other time (%) = 1216.48 (99.6244)

Nlocal:    1.675 ave 28 max 0 min
Histogram: 36 2 0 0 0 0 0 0 1 1
Nghost:    0.675 ave 7 max 0 min
Histogram: 33 3 0 0 1 0 0 0 0 3
Neighs:    0.025 ave 1 max 0 min
Histogram: 39 0 0 0 0 0 0 0 0 1

Total # of neighbors = 1
Ave neighs/atom = 0.0149254
Neighbor list builds = 6034
Dangerous builds = 1
write_dump all custom dump.atom_info_ac_* id type x y z radius vx vy vz density #
run 123456
Setting up run at Sun Jan  8 13:00:47 2023

Memory usage per processor = 958.583 Mbytes
    Step    Atoms         KinEng            CPU 
17777744       67     0.32516509              0 
17901200       66      0.3897325      1222.5134 
Loop time of 1222.51 on 40 procs for 123456 steps with 66 atoms, finish time Sun Jan  8 13:21:09 2023


Pair  time (%) = 0.216214 (0.017686)
Neigh time (%) = 1.13826 (0.0931081)
Comm  time (%) = 3.3667 (0.275392)
Outpt time (%) = 9.15937e-05 (7.49225e-06)
Other time (%) = 1217.79 (99.6138)

Nlocal:    1.65 ave 27 max 0 min
Histogram: 36 2 0 0 0 0 0 0 0 2
Nghost:    0.675 ave 7 max 0 min
Histogram: 32 4 0 0 1 0 0 0 1 2
Neighs:    0.025 ave 1 max 0 min
Histogram: 39 0 0 0 0 0 0 0 0 1

Total # of neighbors = 1
Ave neighs/atom = 0.0151515
Neighbor list builds = 6091
Dangerous builds = 1
write_dump all custom dump.atom_info_ac_* id type x y z radius vx vy vz density #
run 123456
Setting up run at Sun Jan  8 13:21:09 2023

Memory usage per processor = 958.583 Mbytes
    Step    Atoms         KinEng            CPU 
17901200       66      0.3897325              0 
18024656       64     0.39056121      1220.9732 
Loop time of 1220.97 on 40 procs for 123456 steps with 64 atoms, finish time Sun Jan  8 13:41:30 2023


Pair  time (%) = 0.216373 (0.0177213)
Neigh time (%) = 1.09451 (0.0896421)
Comm  time (%) = 3.11694 (0.255283)
Outpt time (%) = 0.000199464 (1.63365e-05)
Other time (%) = 1216.55 (99.6373)

Nlocal:    1.6 ave 28 max 0 min
Histogram: 36 2 0 0 0 0 0 0 1 1
Nghost:    0.575 ave 7 max 0 min
Histogram: 34 2 0 0 0 2 0 0 1 1
Neighs:    0.05 ave 1 max 0 min
Histogram: 38 0 0 0 0 0 0 0 0 2

Total # of neighbors = 2
Ave neighs/atom = 0.03125
Neighbor list builds = 5880
Dangerous builds = 1
write_dump all custom dump.atom_info_ac_* id type x y z radius vx vy vz density #
run 123456
Setting up run at Sun Jan  8 13:41:30 2023

Memory usage per processor = 958.583 Mbytes
    Step    Atoms         KinEng            CPU 
18024656       64     0.39056121              0 
18148112       64     0.39166113      1218.3222 
Loop time of 1218.32 on 40 procs for 123456 steps with 64 atoms, finish time Sun Jan  8 14:01:49 2023


Pair  time (%) = 0.217037 (0.0178144)
Neigh time (%) = 1.12105 (0.0920162)
Comm  time (%) = 3.21627 (0.263992)
Outpt time (%) = 0.00052454 (4.30543e-05)
Other time (%) = 1213.77 (99.6261)

Nlocal:    1.6 ave 27 max 0 min
Histogram: 36 2 0 0 0 0 0 0 0 2
Nghost:    0.575 ave 7 max 0 min
Histogram: 34 2 0 0 1 0 0 1 1 1
Neighs:    0.05 ave 1 max 0 min
Histogram: 38 0 0 0 0 0 0 0 0 2

Total # of neighbors = 2
Ave neighs/atom = 0.03125
Neighbor list builds = 6027
Dangerous builds = 0
write_dump all custom dump.atom_info_ac_* id type x y z radius vx vy vz density #
run 123456
Setting up run at Sun Jan  8 14:01:49 2023

Memory usage per processor = 958.583 Mbytes
    Step    Atoms         KinEng            CPU 
18148112       64     0.39166113              0 
18271568       63     0.51162084      1225.3479 
Loop time of 1225.35 on 40 procs for 123456 steps with 63 atoms, finish time Sun Jan  8 14:22:14 2023


Pair  time (%) = 0.21603 (0.01763)
Neigh time (%) = 1.13065 (0.0922715)
Comm  time (%) = 1.90475 (0.155446)
Outpt time (%) = 0.00021392 (1.74579e-05)
Other time (%) = 1222.1 (99.7346)

Nlocal:    1.575 ave 28 max 0 min
Histogram: 35 3 0 0 0 0 0 1 0 1
Nghost:    0.575 ave 8 max 0 min
Histogram: 35 1 0 1 0 0 1 1 0 1
Neighs:    0.025 ave 1 max 0 min
Histogram: 39 0 0 0 0 0 0 0 0 1

Total # of neighbors = 1
Ave neighs/atom = 0.015873
Neighbor list builds = 6058
Dangerous builds = 0
write_dump all custom dump.atom_info_ac_* id type x y z radius vx vy vz density #
run 123456
Setting up run at Sun Jan  8 14:22:14 2023

Memory usage per processor = 958.583 Mbytes
    Step    Atoms         KinEng            CPU 
18271568       63     0.51162084              0 
18395024       63     0.51588856      1222.6758 
Loop time of 1222.68 on 40 procs for 123456 steps with 63 atoms, finish time Sun Jan  8 14:42:37 2023


Pair  time (%) = 0.215618 (0.0176349)
Neigh time (%) = 1.09654 (0.0896838)
Comm  time (%) = 2.49429 (0.204002)
Outpt time (%) = 0.000166794 (1.36417e-05)
Other time (%) = 1218.87 (99.6887)

Nlocal:    1.575 ave 28 max 0 min
Histogram: 36 2 0 0 0 0 0 1 0 1
Nghost:    0.625 ave 8 max 0 min
Histogram: 34 2 0 1 0 0 1 0 1 1
Neighs:    0.025 ave 1 max 0 min
Histogram: 39 0 0 0 0 0 0 0 0 1

Total # of neighbors = 1
Ave neighs/atom = 0.015873
Neighbor list builds = 5878
Dangerous builds = 0
write_dump all custom dump.atom_info_ac_* id type x y z radius vx vy vz density #
run 123456
Setting up run at Sun Jan  8 14:42:37 2023

Memory usage per processor = 958.583 Mbytes
    Step    Atoms         KinEng            CPU 
18395024       63     0.51588856              0 
18518480       63     0.48119768      1222.7174 
Loop time of 1222.72 on 40 procs for 123456 steps with 63 atoms, finish time Sun Jan  8 15:03:00 2023


Pair  time (%) = 0.21653 (0.0177089)
Neigh time (%) = 1.09947 (0.0899205)
Comm  time (%) = 2.99926 (0.245294)
Outpt time (%) = 0.000546578 (4.47019e-05)
Other time (%) = 1218.4 (99.647)

Nlocal:    1.575 ave 29 max 0 min
Histogram: 37 1 0 0 0 0 0 1 0 1
Nghost:    0.7 ave 8 max 0 min
Histogram: 31 5 0 1 0 0 1 0 1 1
Neighs:    0.025 ave 1 max 0 min
Histogram: 39 0 0 0 0 0 0 0 0 1

Total # of neighbors = 1
Ave neighs/atom = 0.015873
Neighbor list builds = 5878
Dangerous builds = 0
write_dump all custom dump.atom_info_ac_* id type x y z radius vx vy vz density #
run 123456
Setting up run at Sun Jan  8 15:03:00 2023

Memory usage per processor = 958.583 Mbytes
    Step    Atoms         KinEng            CPU 
18518480       63     0.48119768              0 
18641936       62     0.46845425      1218.3549 
Loop time of 1218.36 on 40 procs for 123456 steps with 62 atoms, finish time Sun Jan  8 15:23:18 2023


Pair  time (%) = 0.214162 (0.017578)
Neigh time (%) = 0.932181 (0.0765114)
Comm  time (%) = 2.58297 (0.212004)
Outpt time (%) = 0.000211263 (1.734e-05)
Other time (%) = 1214.63 (99.6939)

Nlocal:    1.55 ave 30 max 0 min
Histogram: 37 1 0 0 0 0 0 1 0 1
Nghost:    0.675 ave 10 max 0 min
Histogram: 33 3 0 1 0 1 1 0 0 1
Neighs:    0.025 ave 1 max 0 min
Histogram: 39 0 0 0 0 0 0 0 0 1

Total # of neighbors = 1
Ave neighs/atom = 0.016129
Neighbor list builds = 4980
Dangerous builds = 1
write_dump all custom dump.atom_info_ac_* id type x y z radius vx vy vz density #
run 123456
Setting up run at Sun Jan  8 15:23:18 2023

Memory usage per processor = 958.583 Mbytes
    Step    Atoms         KinEng            CPU 
18641936       62     0.46845425              0 
18765392       61     0.35306166      1212.7531 
Loop time of 1212.75 on 40 procs for 123456 steps with 61 atoms, finish time Sun Jan  8 15:43:31 2023


Pair  time (%) = 0.21203 (0.0174834)
Neigh time (%) = 0.878327 (0.0724243)
Comm  time (%) = 2.39774 (0.19771)
Outpt time (%) = 0.000169194 (1.39513e-05)
Other time (%) = 1209.26 (99.7124)

Nlocal:    1.525 ave 30 max 0 min
Histogram: 37 1 0 0 0 0 1 0 0 1
Nghost:    0.55 ave 7 max 0 min
Histogram: 34 3 0 0 0 0 0 0 2 1
Neighs:    0.025 ave 1 max 0 min
Histogram: 39 0 0 0 0 0 0 0 0 1

Total # of neighbors = 1
Ave neighs/atom = 0.0163934
Neighbor list builds = 4727
Dangerous builds = 0
write_dump all custom dump.atom_info_ac_* id type x y z radius vx vy vz density #
run 123456
Setting up run at Sun Jan  8 15:43:31 2023

Memory usage per processor = 958.583 Mbytes
    Step    Atoms         KinEng            CPU 
18765392       61     0.35306166              0 
18888848       61      0.3390079      1212.2455 
Loop time of 1212.25 on 40 procs for 123456 steps with 61 atoms, finish time Sun Jan  8 16:03:43 2023


Pair  time (%) = 0.21307 (0.0175765)
Neigh time (%) = 0.813913 (0.0671409)
Comm  time (%) = 2.20606 (0.181981)
Outpt time (%) = 0.00049765 (4.10519e-05)
Other time (%) = 1209.01 (99.7333)

Nlocal:    1.525 ave 29 max 0 min
Histogram: 36 2 0 0 0 0 0 1 0 1
Nghost:    0.55 ave 8 max 0 min
Histogram: 34 2 1 1 0 0 0 0 1 1
Neighs:    0.025 ave 1 max 0 min
Histogram: 39 0 0 0 0 0 0 0 0 1

Total # of neighbors = 1
Ave neighs/atom = 0.0163934
Neighbor list builds = 4355
Dangerous builds = 0
write_dump all custom dump.atom_info_ac_* id type x y z radius vx vy vz density #
run 123456
Setting up run at Sun Jan  8 16:03:43 2023

Memory usage per processor = 958.583 Mbytes
    Step    Atoms         KinEng            CPU 
18888848       61      0.3390079              0 
19012304       60     0.30849538      1213.9122 
Loop time of 1213.91 on 40 procs for 123456 steps with 60 atoms, finish time Sun Jan  8 16:23:57 2023


Pair  time (%) = 0.210998 (0.0173816)
Neigh time (%) = 0.773445 (0.063715)
Comm  time (%) = 2.31376 (0.190603)
Outpt time (%) = 0.000196125 (1.61564e-05)
Other time (%) = 1210.61 (99.7283)

Nlocal:    1.5 ave 29 max 0 min
Histogram: 38 0 0 0 0 0 0 1 0 1
Nghost:    0.525 ave 7 max 0 min
Histogram: 33 3 1 0 1 0 0 0 1 1
Neighs:    0.025 ave 1 max 0 min
Histogram: 39 0 0 0 0 0 0 0 0 1

Total # of neighbors = 1
Ave neighs/atom = 0.0166667
Neighbor list builds = 4149
Dangerous builds = 1
write_dump all custom dump.atom_info_ac_* id type x y z radius vx vy vz density #
run 123456
Setting up run at Sun Jan  8 16:23:57 2023

Memory usage per processor = 958.583 Mbytes
    Step    Atoms         KinEng            CPU 
19012304       60     0.30849538              0 
19135760       60     0.31364756      1211.5849 
Loop time of 1211.58 on 40 procs for 123456 steps with 60 atoms, finish time Sun Jan  8 16:44:09 2023


Pair  time (%) = 0.211731 (0.0174755)
Neigh time (%) = 0.745602 (0.0615394)
Comm  time (%) = 2.00476 (0.165466)
Outpt time (%) = 0.000225672 (1.86262e-05)
Other time (%) = 1208.62 (99.7555)

Nlocal:    1.5 ave 28 max 0 min
Histogram: 35 3 0 0 0 0 0 1 0 1
Nghost:    0.525 ave 8 max 0 min
Histogram: 34 2 1 0 0 1 1 0 0 1
Neighs:    0.05 ave 2 max 0 min
Histogram: 39 0 0 0 0 0 0 0 0 1

Total # of neighbors = 2
Ave neighs/atom = 0.0333333
Neighbor list builds = 3985
Dangerous builds = 0
write_dump all custom dump.atom_info_ac_* id type x y z radius vx vy vz density #
run 123456
Setting up run at Sun Jan  8 16:44:09 2023

Memory usage per processor = 958.583 Mbytes
    Step    Atoms         KinEng            CPU 
19135760       60     0.31364756              0 
19259216       59     0.31033658      1226.9165 
Loop time of 1226.92 on 40 procs for 123456 steps with 59 atoms, finish time Sun Jan  8 17:04:36 2023


Pair  time (%) = 0.20954 (0.0170786)
Neigh time (%) = 0.744034 (0.0606426)
Comm  time (%) = 1.17708 (0.0959384)
Outpt time (%) = 0.000220007 (1.79317e-05)
Other time (%) = 1224.79 (99.8263)

Nlocal:    1.475 ave 27 max 0 min
Histogram: 38 0 0 0 0 0 0 0 1 1
Nghost:    0.5 ave 8 max 0 min
Histogram: 35 1 1 0 0 1 1 0 0 1
Neighs:    0.05 ave 2 max 0 min
Histogram: 39 0 0 0 0 0 0 0 0 1

Total # of neighbors = 2
Ave neighs/atom = 0.0338983
Neighbor list builds = 3983
Dangerous builds = 1
write_dump all custom dump.atom_info_ac_* id type x y z radius vx vy vz density #
run 123456
Setting up run at Sun Jan  8 17:04:36 2023

Memory usage per processor = 958.583 Mbytes
    Step    Atoms         KinEng            CPU 
19259216       59     0.31033658              0 
WARNING: Forced restart written (../output.cpp:427)
19323364       59     0.31233383      637.61594 
Loop time of 637.616 on 40 procs for 123456 steps with 59 atoms, finish time Sun Jan  8 17:15:13 2023


Pair  time (%) = 0.110115 (0.0172697)
Neigh time (%) = 0.386022 (0.0605414)
Comm  time (%) = 0.68295 (0.10711)
Outpt time (%) = 0.214216 (0.0335964)
Other time (%) = 636.223 (99.7815)

Nlocal:    1.475 ave 28 max 0 min
Histogram: 38 0 0 0 0 0 0 1 0 1
Nghost:    0.625 ave 8 max 0 min
Histogram: 32 4 1 0 0 0 1 1 0 1
Neighs:    0.05 ave 2 max 0 min
Histogram: 39 0 0 0 0 0 0 0 0 1

Total # of neighbors = 2
Ave neighs/atom = 0.0338983
Neighbor list builds = 2070
Dangerous builds = 0
