ITEM: TIMESTEP
17407376
ITEM: NUMBER OF ATOMS
191
ITEM: BOX BOUNDS ff ff ff
-0.15 0.15
-0.15 0.15
-0.15 0.15
ITEM: ATOMS id type x y z radius vx vy vz density 
168 1 -0.00520167 -0.0155728 -0.0686984 0.000105 -45.9962 16.2733 3.68814 2650 
162 1 -0.0115993 -0.043596 -0.0669505 0.001058 -27.1 -4.61309 4.69216 2650 
272 1 -0.00218391 -0.0192929 -0.0679128 0.001058 -28.4823 1.15705 0.916966 2650 
252 1 -0.00108379 -0.00565962 -0.0679344 0.001058 -19.7873 0.0583813 0.315428 2650 
30 1 -0.0203687 -0.0408712 -0.0656205 0.000291 -27.0368 6.26767 8.39217 2650 
264 1 -0.0184235 -0.0288462 -0.0653982 0.001058 -18.9795 0.97519 5.34484 2650 
3 1 -0.0280109 -0.0442946 -0.0619057 0.001058 -21.5028 0.480888 9.72253 2650 
293 1 -0.0308059 -0.0357352 -0.0605589 0.001058 -14.3595 0.833037 7.3009 2650 
180 1 -0.0324952 -0.0242084 -0.0596793 0.001058 -24.1453 -2.24523 13.1368 2650 
122 1 -0.0157813 -0.0175932 -0.0601231 0.001058 -15.2188 0.19229 0.661345 2650 
246 1 -0.0334265 -0.0412539 -0.0591561 0.001058 -17.0199 1.93477 9.61002 2650 
259 1 -0.0386761 -0.0474413 -0.0558685 0.001058 -16.6292 2.64617 11.5007 2650 
169 1 -0.0358385 -0.0456037 -0.0570557 0.00164 -17.2755 1.67932 10.8377 2650 
73 1 -0.0416183 -0.0501779 -0.0529905 0.00164 -15.031 0.645957 11.7916 2650 
244 1 -0.046884 -0.0404728 -0.0491879 0.001058 -12.9276 3.89904 12.3106 2650 
231 1 -0.0550436 -0.0199747 -0.0398608 0.001058 -12.9358 4.10025 17.8472 2650 
98 1 -0.0613314 -0.00826721 -0.0292845 0.001058 -8.40627 0.0256113 17.59 2650 
193 1 -0.0637456 -0.0303613 -0.0219109 0.00164 -7.0901 -1.81143 20.6014 2650 
78 1 -0.00270574 -0.0022678 -0.0152436 0.000291 -0.00533626 -0.0103826 -0.00367069 2650 
135 1 -0.00130536 -0.000228253 -0.0155213 0.000291 0.00169601 -0.000325767 0.00663364 2650 
94 1 -0.0115082 -0.00277445 -0.0118072 0.000291 8.54657e-05 -0.0117335 8.54657e-05 2650 
140 1 -0.0676991 -0.0323712 -0.00608095 0.001058 -2.1138 -2.36322 23.513 2650 
33 1 -0.00253141 -0.000321203 -0.00730289 0.00164 0.00139121 -0.00702858 0.00589607 2650 
289 1 -0.0685552 -0.0098352 -0.00469693 0.000291 -2.19959 -3.00386 32.0968 2650 
159 1 -0.012707 -0.00268747 -0.00588 0.000291 0 -0.01175 0 2650 
49 1 -0.0673987 -0.0242472 -0.00139207 0.00164 -0.488164 -1.94582 23.6022 2650 
61 1 -0.016439 -0.00296947 -0.001038 0.000291 0 -0.01175 0 2650 
291 1 -0.008194 -0.00258247 0.004767 0.000291 0 -0.01175 0 2650 
185 1 -0.0660773 -0.00163987 0.013276 0.00164 2.00511 2.16111e-06 9.96626 2650 
275 1 -0.0657692 -0.0259661 0.0199054 0.000291 9.77995 -0.039507 32.3059 2650 
128 1 -0.0652635 -0.054667 0.022078 0.000105 3.74535 -6.6992 11.0703 2650 
20 1 -0.0634488 -0.0187553 0.0243638 0.001058 6.78443 0.555046 17.6528 2650 
171 1 -0.0632904 -0.0585783 0.024767 0.001058 5.58423 -1.13664 14.2573 2650 
113 1 -0.043822 -0.047674 0.0511935 0.00164 17.2838 -1.79354 14.7764 2650 
226 1 -0.0438984 -0.00278775 0.0528571 0.000291 8.9372 0.632999 7.42177 2650 
70 1 -0.0416507 -0.0326595 0.0546461 0.000291 16.6747 4.89772 12.707 2650 
299 1 -0.0327039 -0.014778 0.0595548 0.001058 12.1726 1.70201 6.68134 2650 
108 1 -0.0305066 -0.0230359 0.0607114 0.001058 16.0832 0.740127 8.07645 2650 
294 1 -0.0237575 -0.00726144 0.0636553 0.001058 17.786 -1.08091 6.6421 2650 
18 1 -0.0198831 -0.0502445 0.064969 0.001058 17.7175 2.44332 5.42053 2650 
268 1 -0.0208866 -0.0105269 0.0654574 0.000291 11.5595 -1.94816 3.68849 2650 
114 1 -0.0219443 -0.00638428 0.0643021 0.001058 17.7092 -0.515507 6.03325 2650 
110 1 -0.019393 -0.00701485 0.0659154 0.000291 20.6108 0.208647 6.06392 2650 
51 1 -0.0102724 -0.0418352 0.0671673 0.001058 28.9713 -3.91238 4.44988 2650 
42 1 -0.00892699 -0.0392345 0.0673595 0.001058 26.8555 2.08497 3.50952 2650 
137 1 -3.199e-05 -0.0382608 0.0673754 0.00164 25.6531 2.29813 0.0121812 2650 
211 1 -0.00145448 -0.0350442 0.0679268 0.001058 16.0113 -1.64345 0.342826 2650 
257 1 -0.00874817 -0.0278119 0.0673815 0.001058 26.438 -5.42526 3.42712 2650 
278 1 -0.00160553 -0.0259742 0.0679423 0.001058 42.9164 6.1299 1.01343 2650 
43 1 -0.00440093 -0.020478 0.0678122 0.001058 36.0778 1.87768 2.34141 2650 
48 1 -0.0148239 -0.0180204 0.0672813 0.000105 11.1741 -1.31247 2.46183 2650 
13 1 -0.0137783 -0.00837553 0.0673133 0.000291 17.6011 -3.27118 3.60277 2650 
104 1 -0.00766309 0.00224276 -0.0136053 0.000105 0.011981 -0.00157217 -0.0109702 2650 
260 1 -0.00185781 0.00363487 -0.0134254 0.000291 -0.0120055 0.0019441 0.00651081 2650 
134 1 -0.000715841 0.00671654 -0.0127469 0.000291 -0.0118829 0.00375813 -0.00608975 2650 
80 1 -0.00357916 0.00367939 -0.00875629 0.000105 0.0130288 -0.0027678 -0.00975077 2650 
71 1 -0.00280904 0.00275114 -0.00928141 0.000291 -0.00101545 -0.00618567 -0.020495 2650 
59 1 -0.00598433 0.020002 -0.00836601 0.001058 -0.00678086 0.00769962 0.0204659 2650 
97 1 -0.00874342 0.000925327 -0.00480212 0.00164 0.00587724 -0.00270027 -0.00409197 2650 
201 1 -0.00848309 0.0382523 -0.00447923 0.00164 -0.089897 0.101411 -0.0299288 2650 
67 1 -0.000298772 4.7486e-05 -0.0023726 0.001058 -0.0055431 -0.00515644 0.00696255 2650 
234 1 -0.0121342 0.00909052 -0.00367262 0.000291 -0.000530972 0.00319134 0.0114593 2650 
7 1 -0.00359562 0.02968 -0.00322141 0.000291 0.00379351 0.0136266 -0.000190797 2650 
99 1 -0.00277275 0.0175639 -0.0014389 0.001058 0.0112842 0.0140299 -0.00166045 2650 
116 1 -0.0134252 0.0610719 -0.00135997 0.001058 0.0060965 0.0429198 -0.0402084 2650 
129 1 -0.00127133 0.00312351 0.000295175 0.00164 0.0137141 0.00233646 -0.00334931 2650 
209 1 -0.000730328 0.0113096 0.00118061 0.001058 0.0134316 0.00655067 0.00545932 2650 
65 1 -0.0133646 0.0255443 0.00138969 0.00164 -0.00343699 0.0118581 0.00338465 2650 
4 1 -0.0144038 0.00503425 0.00538259 0.001058 -0.000962198 -0.00289426 -0.00306323 2650 
187 1 -0.0124927 0.0232991 0.00510272 0.001058 0.00220575 0.0137802 0.0133562 2650 
124 1 -0.0146069 0.0488052 0.00417872 0.001058 0.000501626 0.0410145 -0.000846304 2650 
17 1 -0.0107721 0.0136423 0.00703722 0.00164 0.00532312 0.0101535 0.0126934 2650 
242 1 -0.0151991 0.0174149 0.00699938 0.000291 -0.0086111 0.00654042 0.00262129 2650 
220 1 -0.0147809 0.0274802 0.00684814 0.000291 0.00700129 0.0121426 0.00761609 2650 
240 1 -0.0134419 0.0313865 0.00640143 0.000291 -0.00215606 0.0297587 0.00899639 2650 
68 1 -0.00125183 0.00674611 0.00870778 0.001058 0.0027366 -0.00341554 -0.0016946 2650 
304 1 -0.00903411 0.0116827 0.00834642 0.000291 0.00483691 0.00442522 -0.0020989 2650 
115 1 -0.013499 0.0142458 0.00829263 0.001058 0.0105714 0.00418192 0.0141992 2650 
256 1 -0.0127507 0.0155584 0.00989138 0.000291 0.012635 0.00634989 0.0138765 2650 
28 1 -0.0116331 0.0533187 0.00839786 0.001058 0.00321107 0.0436165 0.0028608 2650 
300 1 -0.0100853 4.31314e-06 0.0119592 0.001058 0.00506621 -0.000103925 0.00433634 2650 
170 1 -0.00527869 0.000765051 0.0117224 0.001058 0.0120343 0.00223595 0.00751203 2650 
52 1 -0.0118456 0.0130776 0.0104889 0.001058 0.00849495 0.00864021 0.0113559 2650 
224 1 -0.00901441 0.0155565 0.011397 0.001058 -0.00136791 0.00490756 -0.00324686 2650 
273 1 -0.00343319 0.0468927 0.0101478 0.001058 -0.000465026 0.0310927 -0.0151219 2650 
217 1 -0.00768279 0.0510687 0.0119985 0.001058 0.0050448 0.0355067 -0.000306287 2650 
10 1 -0.00907613 0.0217598 0.0126137 0.001058 0.0152991 0.0161186 0.0101484 2650 
147 1 -0.010068 0.0388384 0.0122069 0.001058 0.0393998 0.019476 0.0340066 2650 
55 1 -0.00666057 0.015092 0.0148425 0.000291 0.00439797 0.00637099 0.00132786 2650 
266 1 -0.00234223 0.0165472 0.0154601 0.001058 0.0119064 0.0112507 0.00434695 2650 
144 1 -0.00442186 0.0234101 0.0159597 0.000105 0.0157353 0.0126694 -0.00626058 2650 
155 1 -0.00237762 0.0363096 0.015598 0.001058 -0.0432813 0.0278846 -0.00776089 2650 
46 1 -0.00786986 0.0426569 0.0145298 0.000291 0.972311 -0.0513349 0.520417 2650 
47 1 -0.00345812 0.0165831 0.0162586 0.000291 0.0163325 0.00599603 0.0169365 2650 
216 1 -0.0105278 0.0273398 0.0671416 0.001058 42.4018 -4.61263 6.64052 2650 
132 1 0.00196338 -0.0310016 -0.0679192 0.001058 -27.9303 -1.4591 -0.806946 2650 
172 1 0.000222852 -0.020609 -0.0679474 0.001058 -28.2528 -0.468865 -0.0960051 2650 
146 1 0.00277741 -0.0200537 -0.0678896 0.001058 -26.235 4.71881 -1.07274 2650 
121 1 0.000775355 -0.0131724 -0.067359 0.00164 -16.9563 -1.50175 -0.195126 2650 
218 1 0.021468 -0.022725 -0.0644633 0.001058 -18.5672 0.259102 -6.18074 2650 
36 1 0.0273808 -0.0409722 -0.0621851 0.001058 -19.4414 2.28772 -8.55455 2650 
258 1 0.0322531 -0.00733158 -0.059809 0.001058 -22.6191 -0.238449 -12.1881 2650 
263 1 0.0389836 -0.0248891 -0.0565793 0.000291 -16.1776 2.57321 -11.1459 2650 
232 1 0.0392718 -0.0305312 -0.055452 0.001058 -16.2966 -3.23873 -11.5313 2650 
90 1 0.0406582 -0.0287817 -0.0544452 0.001058 -16.5348 -1.42631 -12.3369 2650 
178 1 0.0413974 -0.0238356 -0.0538844 0.001058 -15.2304 0.774507 -11.6904 2650 
213 1 0.0470022 -0.000290977 -0.0501176 0.000291 -6.45036 1.1319e-07 -6.04733 2650 
44 1 0.0486621 -0.0352223 -0.0474323 0.001058 -12.9729 -1.39376 -13.2969 2650 
16 1 0.0518814 -0.000104996 -0.0453311 0.000105 -5.86065 3.4843e-08 -6.70661 2650 
285 1 0.0520354 -0.0238692 -0.043708 0.001058 -11.4059 -1.36227 -13.5663 2650 
229 1 0.053572 -0.0250655 -0.0418597 0.001058 -32.9312 0.429135 -42.117 2650 
253 1 0.0541223 -0.0136456 -0.0423328 0.000291 -10.9586 0.417883 -14.0063 2650 
191 1 0.061361 -0.0455146 -0.0309249 0.000291 -7.33736 1.33619 -14.5547 2650 
83 1 0.0662922 -0.00953205 -0.0150022 0.001058 -4.39071 -0.505475 -19.3854 2650 
37 1 0.006156 -0.00326947 -0.015157 0.000291 0 -0.01175 0 2650 
25 1 0.0662242 -0.0448766 -0.0125795 0.00164 -3.89325 1.58542 -20.4707 2650 
269 1 0.00375784 -0.00251041 -0.0120405 0.000291 -0.00749531 -0.00226906 0.00353502 2650 
210 1 0.0677644 -0.0334725 -0.00388553 0.001058 -0.33236 -1.48015 -27.5538 2650 
190 1 0.00412489 -0.00090462 -0.00270943 0.000291 -0.00521913 -0.00362216 -0.00639973 2650 
160 1 0.0160835 -0.00121677 -0.00120275 0.000105 -0.00597896 0.000269468 0.0180444 2650 
237 1 0.0679517 -0.030264 0.00209844 0.001058 1.26288 3.08603 -40.8623 2650 
208 1 0.0153664 -0.00161456 0.00394349 0.001058 0.000694892 -0.0109206 0.000895466 2650 
9 1 0.00986481 -0.00145351 0.00530795 0.00164 -0.00822201 -0.00531381 0.0121797 2650 
287 1 0.0119595 -0.00336719 0.0102763 0.001058 -0.225879 -0.0755412 -0.320884 2650 
82 1 0.00326389 -0.00168438 0.0122202 0.001058 -0.000391042 -0.00138864 -0.00588319 2650 
89 1 0.0533079 -0.0564822 0.0412191 0.00164 8.62421 -0.234456 -11.1378 2650 
35 1 0.0529314 -0.0415913 0.0426198 0.001058 11.686 1.11319 -14.5 2650 
63 1 0.0483154 -0.034472 0.0488542 0.000291 13.1325 3.66883 -12.9835 2650 
196 1 0.0454374 -0.0600737 0.0505211 0.001058 8.70962 -0.116072 -7.8253 2650 
26 1 0.0403047 -0.0410732 0.0547104 0.001058 19.8183 -0.289598 -14.5877 2650 
1 1 0.0316335 -0.031938 0.0594897 0.00164 19.2959 1.46789 -10.2482 2650 
243 1 0.0248853 -0.0223858 0.0632229 0.001058 17.6316 1.7773 -6.93674 2650 
76 1 0.0271099 -0.0185831 0.0623035 0.001058 19.5668 3.03663 -8.50856 2650 
138 1 0.0231763 -0.0163933 0.0638696 0.001058 18.9392 4.75431 -6.86907 2650 
50 1 0.0186163 -0.00221957 0.0653429 0.001058 17.2977 -0.812534 -4.92686 2650 
174 1 0.0228446 -0.00128223 0.0647912 0.000291 4.88892 -1.19748 -1.81853 2650 
225 1 0.013022 -0.0404322 0.066686 0.001058 23.6297 -1.59021 -4.61181 2650 
2 1 0.00486341 -0.0360784 0.0677683 0.001058 17.4659 -2.83332 -1.25344 2650 
34 1 0.0129257 -0.0230485 0.0667046 0.001058 23.4408 2.57846 -4.53991 2650 
177 1 0.00515371 -0.0166532 0.0671653 0.00164 15.907 -0.958749 -1.2199 2650 
14 1 0.0145454 -0.0103576 0.0671518 0.000291 15.8447 -2.17024 -3.43182 2650 
186 1 0.00357677 -0.00490439 0.0678486 0.001058 18.5698 1.23594 -0.978761 2650 
127 1 0.0595206 0.0642649 -0.0343323 0.000291 0.0952522 -0.181592 0.165086 2650 
11 1 0.0622586 0.0602233 -0.0273641 0.001058 -27.597 8.34906 -62.7499 2650 
85 1 0.00174444 0.0135374 -0.0163046 0.000291 0.00302158 0.0132939 0.000274953 2650 
105 1 2.42144e-05 0.000392298 -0.014018 0.00164 -0.00380999 -0.0064552 -0.00344187 2650 
276 1 0.0052687 0.00192701 -0.0147021 0.000291 0.0225313 -0.00352277 0.00767648 2650 
153 1 0.00815225 0.0043694 -0.0101281 0.00164 0.00619331 -0.00234755 -0.0203634 2650 
54 1 0.0124772 0.0327739 -0.0107681 0.000291 -0.0306405 -0.00128986 -0.0366903 2650 
279 1 0.00498083 0.0130824 -0.00847289 0.001058 -0.00655734 0.00883723 -0.00295144 2650 
77 1 0.0122633 0.0120828 -0.00835574 0.000291 -0.00528679 0.000925745 0.0158841 2650 
301 1 0.00911764 0.0438114 -0.00970085 0.001058 -0.0177704 0.0203916 -0.00700909 2650 
161 1 0.0105339 0.00308596 -0.00770118 0.00164 0.000745282 -0.000712 -0.00114313 2650 
284 1 0.0138427 0.00481346 -0.00761867 0.000291 -0.00241431 -0.00119174 -0.000406097 2650 
195 1 0.0130877 0.0122947 -0.00633327 0.001058 -0.0135239 0.00889222 -0.0182334 2650 
292 1 0.0123768 0.0248177 -0.0078589 0.001058 0.0152425 0.0152519 -0.0334915 2650 
92 1 0.00749621 0.0109077 -0.00440211 0.001058 -0.00319297 0.00820736 -7.57342e-07 2650 
194 1 0.0152918 0.0200634 -0.0040296 0.001058 -0.00923708 0.0864287 -0.0548048 2650 
212 1 0.000200263 0.00338148 -0.00301751 0.000291 -0.0026474 0.0067937 -0.00109041 2650 
202 1 0.00342595 0.00446799 -0.00222518 0.001058 -0.00434778 0.00879769 -0.00781258 2650 
19 1 0.0144532 0.00410407 -0.00353438 0.001058 -0.000934858 -0.000672318 0.00257047 2650 
79 1 0.0101294 0.0040942 -0.000290016 0.000291 -0.0098558 -0.00054128 -0.00920898 2650 
249 1 0.00454098 0.032847 -0.00145916 0.000291 0.00967839 0.0183331 -0.0129307 2650 
81 1 0.00687881 0.00078731 0.00104357 0.00164 8.70564e-05 0.0050329 0.00133521 2650 
203 1 0.0110508 0.0477733 0.00155987 0.001058 -0.0104617 0.0489781 0.0207311 2650 
74 1 0.0023777 0.0108654 0.00261541 0.001058 0.0120085 0.00759219 0.0108605 2650 
156 1 0.0119555 0.0118096 0.00326345 0.001058 0.00972231 -0.000191895 -0.0100171 2650 
57 1 0.00610469 0.0434041 0.00269138 0.00164 0.00164073 0.114548 0.00845379 2650 
271 1 0.00497127 0.000516541 0.00509194 0.001058 -0.0143022 -0.00514114 -0.00504971 2650 
130 1 0.0152204 0.00123457 0.00405982 0.001058 -0.00447243 0.00685155 0.0218493 2650 
199 1 0.014364 0.00344836 0.00550637 0.000291 -0.00652159 0.0115982 0.010153 2650 
298 1 0.0150267 0.00306568 0.00587563 0.000105 0.00504241 -0.00484656 -0.0145413 2650 
250 1 0.00302279 0.0581177 0.00422168 0.001058 -0.0207209 0.0499207 0.0196622 2650 
145 1 0.0101536 0.00353125 0.00763915 0.00164 -0.00697266 0.000571824 -0.00264258 2650 
101 1 0.00591616 0.00484437 0.00619404 0.000291 -0.000754547 0.0112167 0.0101384 2650 
106 1 0.00312045 0.0564989 0.00759106 0.001058 0.0168325 0.0449922 -0.00167347 2650 
265 1 0.0126392 0.00726446 0.00935138 0.001058 0.00481515 0.00379781 -0.00645808 2650 
87 1 0.0130497 0.0138535 0.00952724 0.000291 0.00224394 -0.0332984 -0.00537513 2650 
139 1 0.0110942 0.0239781 0.0092062 0.001058 -0.0136668 0.00686955 0.0124231 2650 
238 1 0.00785886 0.0363098 0.00857319 0.001058 -0.00539285 0.0228554 -0.0112404 2650 
204 1 0.00474404 3.75758e-05 0.0122769 0.001058 -0.00161874 0.00229652 -0.00428399 2650 
95 1 0.0111136 0.00393294 0.0122505 0.000291 0.0492852 0.0214156 -0.0355105 2650 
112 1 0.0090042 0.0043003 0.0128483 0.000105 -0.0109427 -0.000159124 0.00547551 2650 
66 1 0.0100321 0.0100348 0.0120065 0.001058 -0.00243266 0.00123622 -0.00504944 2650 
286 1 0.00593862 0.02268 0.0139414 0.001058 -0.0512032 0.0769424 0.0167728 2650 
123 1 0.00978581 0.0364606 0.0125028 0.001058 -0.0100799 0.0225497 0.00604813 2650 
222 1 0.00402977 0.00368075 0.0142506 0.001058 -0.030215 0.0188938 -0.00627839 2650 
100 1 0.00345856 0.0148383 0.0149203 0.001058 -0.0417461 0.0462493 0.0412501 2650 
41 1 0.00196944 0.0201946 0.0146635 0.00164 0.0101493 0.00903205 0.0210511 2650 
175 1 0.0338987 0.0142723 0.0597725 0.000291 73.2873 2.45358 -41.5552 2650 
245 1 0.00781849 0.0898797 -0.00983662 0.001058 0.0132501 0.0534812 -0.0221989 2650 
