ITEM: TIMESTEP
9629570
ITEM: NUMBER OF ATOMS
244
ITEM: BOX BOUNDS ff ff ff
-0.15 0.15
-0.15 0.15
-0.15 0.15
ITEM: ATOMS id type x y z radius vx vy vz density 
241 1 -0.0148494 -0.0430281 -0.0670852 0.000291 -14.3412 -0.545757 3.17445 2650 
83 1 -0.0170274 -0.0532328 -0.0657738 0.001058 -10.0737 -1.79649 2.60781 2650 
150 1 -0.0199569 -0.04455 -0.0657462 0.000291 -2.69473 2.76673 0.861559 2650 
26 1 -0.0221689 -0.0107599 -0.0642254 0.001058 -17.8529 1.74747 6.16166 2650 
172 1 -0.0205352 -0.0087191 -0.0647652 0.001058 -15.487 1.41375 4.90743 2650 
16 1 -0.0215162 -0.000104997 -0.065449 0.000105 -9.50447 -1.80185e-05 3.12345 2650 
49 1 -0.0163854 -0.0298829 -0.0518562 0.00164 32.918 0.738629 -2.47275 2650 
165 1 -0.0485966 -0.00104362 -0.0482608 0.000291 -8.91667 -3.36425 9.64863 2650 
267 1 -0.0503157 -0.03818 -0.0467911 0.000291 -3.6511 -2.90737 3.92466 2650 
237 1 -0.0517946 -0.0390946 -0.0439845 0.001058 -4.41259 -1.26775 5.19048 2650 
90 1 -0.052381 -0.0612004 -0.043288 0.001058 -7.36567 0.0628926 8.90384 2650 
88 1 -0.0561136 -0.0136152 -0.0399739 0.000105 -10.7689 0.885443 15.1152 2650 
229 1 -0.0562482 -0.058631 -0.0381353 0.001058 -7.62834 -0.0871428 11.2407 2650 
137 1 -0.0589136 -0.0147422 -0.0327134 0.00164 -3.96581 0.48809 7.13151 2650 
2 1 -0.0605236 -0.0185653 -0.030906 0.001058 -2.22972 0.0295667 4.36213 2650 
196 1 -0.0617977 -0.00752735 -0.0282785 0.001058 -4.43535 0.311456 9.6838 2650 
243 1 -0.061337 -0.00505081 -0.0292648 0.001058 -5.23033 0.399865 10.9519 2650 
63 1 -0.0624409 -0.000405427 -0.0286819 0.000291 -3.41248 -0.0199476 7.4269 2650 
174 1 -0.0651301 -0.0230202 -0.0219021 0.000291 -4.58611 -2.91772 13.634 2650 
211 1 -0.0654289 -0.0100699 -0.0172603 0.001058 2.57304 -0.448329 0.755032 2650 
70 1 -0.002345 -0.000510942 -0.015511 0.000291 0 -0.01175 0 2650 
135 1 -0.00263872 -0.000263673 -0.00953169 0.000291 0.0022501 0.000177671 -0.0146391 2650 
42 1 -0.0352377 -0.0479065 -0.00368747 0.001058 0.20655 -3.50804 8.1406 2650 
184 1 -0.0163191 -0.00325224 -0.00361429 0.000105 -0.0239306 -0.0011594 0.0884078 2650 
274 1 -0.0163396 -0.00306443 -0.00154629 0.000291 0.000761315 -0.0225968 0.00643577 2650 
132 1 -0.0679441 -0.0534133 0.00175256 0.001058 0.326253 -3.87513 12.6376 2650 
191 1 -0.0108 -0.00313994 0.001549 0.000291 0 -0.01175 0 2650 
168 1 -0.007536 -0.00212894 0.001389 0.000105 0 -0.01175 0 2650 
205 1 -9.07297e-06 -0.00291041 0.000562518 0.000291 -0.0110845 -0.00951857 0.00619805 2650 
175 1 -0.0164808 -0.000146741 0.00166965 0.000291 0.00512123 -0.00606583 0.0281417 2650 
98 1 -0.00468271 -0.00404283 0.00312576 0.001058 -0.551564 -0.141566 0.42972 2650 
18 1 -0.00611217 -0.00267753 0.00230033 0.001058 -0.22975 0.0514288 0.0399664 2650 
170 1 -0.01149 -0.000456942 0.005193 0.001058 0 -0.01175 0 2650 
53 1 -0.000389 -0.00185194 0.004762 0.000291 0 -0.01175 0 2650 
38 1 -0.00251511 -0.00132372 0.00630933 0.000291 -0.00540624 -0.00234689 -0.00641771 2650 
233 1 -0.0681731 -0.0535879 0.00861225 0.000291 1.52283 -4.55417 12.0513 2650 
58 1 -0.013185 -0.000892262 0.00856702 0.001058 -0.00593126 -0.00817978 0.00596219 2650 
285 1 -0.0108489 -0.000440155 0.011347 0.001058 -0.00567287 -0.013081 -0.00684475 2650 
232 1 -0.0621876 -0.054342 0.0274168 0.001058 6.27582 0.684364 14.2222 2650 
73 1 -0.0577745 -0.00234552 0.0346979 0.00164 8.40809 -0.800766 13.9813 2650 
197 1 -0.0556419 -0.0108595 0.0403148 0.000291 7.91348 -1.21162 10.9187 2650 
30 1 -0.0536532 -0.00167386 0.0429262 0.000291 14.5654 -1.83744 18.1999 2650 
185 1 -0.0484312 -0.0274082 0.046848 0.00164 10.6765 1.67721 11.0219 2650 
50 1 -0.0423852 -0.00800317 0.0530942 0.001058 11.183 -1.74203 9.06126 2650 
226 1 -0.0417061 -0.00750727 0.0543238 0.000291 15.5935 2.16842 8.34595 2650 
272 1 -0.038374 -0.0485303 0.0560729 0.001058 12.9514 -2.12452 8.85578 2650 
20 1 -0.039911 -0.0436398 0.0549891 0.001058 11.2584 -3.4179 8.16404 2650 
29 1 -0.0341902 -0.0547051 0.0595983 0.000291 8.93936 1.28445 5.12832 2650 
230 1 -0.0332256 -0.0010689 0.0592658 0.001058 12.6591 -0.00721884 7.09306 2650 
44 1 -0.0276103 -0.0231397 0.0620821 0.001058 17.469 -2.40109 7.76458 2650 
257 1 -0.026766 -0.0456777 0.0624492 0.001058 15.2249 3.35605 6.52296 2650 
140 1 -0.0262992 -0.014958 0.0626456 0.001058 6.32481 -0.464309 2.65518 2650 
169 1 -0.00968212 -0.0431941 0.0666652 0.00164 17.4451 -0.225969 2.53185 2650 
270 1 -0.0153873 -0.00422867 0.0669287 0.000291 11.2119 -2.80447 1.73343 2650 
122 1 -0.0020697 -0.00120067 0.0679102 0.001058 8.14914 -0.0684024 0.250987 2650 
46 1 -0.00171495 -0.0495943 0.0686876 0.000291 22.261 -0.0621026 0.555799 2650 
207 1 -0.00674852 -0.0182815 0.0683333 0.000291 -0.0554841 -0.721397 -0.723152 2650 
121 1 -0.060155 -0.00709402 0.0303857 0.00164 6.4256 -0.112943 12.7036 2650 
11 1 -0.0512716 0.0502394 -0.0447432 0.001058 -72.2693 -17.5564 82.7702 2650 
85 1 -0.000159168 0.00516222 -0.0164778 0.000291 0.00302158 0.0132939 0.000274953 2650 
147 1 -0.00494965 0.0215275 -0.0150879 0.001058 -0.0515215 0.0353012 0.0211455 2650 
94 1 -0.011562 0.00461771 -0.011861 0.000291 8.54657e-05 -0.0117335 8.54657e-05 2650 
33 1 -0.00340788 0.00410682 -0.0110174 0.00164 0.00139121 -0.00702858 0.00589607 2650 
234 1 -0.0117997 0.00707997 -0.010892 0.000291 -0.000530972 0.00319134 0.0114593 2650 
127 1 -0.00304049 0.0353947 -0.0108689 0.000291 0.0287766 0.0561217 0.00113528 2650 
114 1 -0.0119753 5.31767e-05 -0.00872553 0.001058 0.00321985 -0.00836985 -0.0228365 2650 
104 1 -0.0152112 0.00323323 -0.00669407 0.000105 0.011981 -0.00157217 -0.0109702 2650 
276 1 -0.0091772 0.0036314 -0.00754672 0.000291 0.0231998 -0.00215193 -0.0242449 2650 
75 1 -0.00902428 0.0407634 -0.00711464 0.001058 0.0171891 0.064434 -0.0211867 2650 
159 1 -0.012707 0.00471506 -0.00588 0.000291 0 -0.01175 0 2650 
13 1 -0.014201 0.000821058 -0.003882 0.000291 0 -0.01175 0 2650 
97 1 -0.0124461 0.00262651 -0.00222417 0.00164 0.00587724 -0.00270027 -0.00409197 2650 
80 1 -0.0117873 0.00542311 -0.00261328 0.000105 0.0130288 -0.0027678 -0.00975077 2650 
209 1 -0.00919225 0.00718262 -0.00225877 0.001058 0.0134316 0.00655067 0.00545932 2650 
74 1 -0.0061287 0.00666736 -0.00359342 0.001058 0.0197531 0.00277685 0.00564839 2650 
256 1 -0.0164803 0.0114073 -0.00203167 0.000291 -0.00248712 0.00686779 0.0223943 2650 
115 1 -0.0155397 0.0109671 -0.00293249 0.001058 -0.00491951 0.00608397 0.0189887 2650 
77 1 -0.000721074 0.0109308 -0.00221095 0.000291 0.0277953 0.00207908 -0.016867 2650 
187 1 -0.0138823 0.0146175 -0.00331173 0.001058 0.00220575 0.0137802 0.0133562 2650 
7 1 -0.00598554 0.0210952 -0.00310121 0.000291 0.00379351 0.0136266 -0.000190797 2650 
154 1 -0.0118543 0.0442745 -0.00356059 0.001058 -0.0457969 0.0551383 0.0326121 2650 
61 1 -0.016439 0.00443306 -0.001038 0.000291 0 -0.01175 0 2650 
17 1 -0.0141256 0.0072456 -0.000959673 0.00164 0.00532312 0.0101535 0.0126934 2650 
99 1 -0.00988183 0.0087251 -0.000392809 0.001058 0.0112842 0.0140299 -0.00166045 2650 
144 1 -0.0100555 0.0136983 -0.000163316 0.000105 0.00862261 0.0155448 0.0270904 2650 
220 1 -0.0129047 0.0190711 -0.000678066 0.000291 -0.00515653 0.0136107 0.0128916 2650 
65 1 -0.0111993 0.0180737 -0.000742647 0.00164 -0.00343699 0.0118581 0.00338465 2650 
120 1 -0.016055 7.30577e-05 0.000189 0.000105 0 -0.01175 0 2650 
268 1 -0.011054 0.00329506 0.000789 0.000291 0 -0.01175 0 2650 
47 1 -0.0163468 0.0112094 0.000966408 0.000291 -0.00010115 0.0117239 0.0355766 2650 
10 1 -0.0152312 0.0110613 0.00199345 0.001058 0.00786106 0.0172796 0.0191737 2650 
240 1 -0.0120836 0.0126384 0.000733687 0.000291 -0.00215606 0.0297587 0.00899639 2650 
41 1 -0.00442464 0.0145044 0.00140129 0.00164 0.0101493 0.00903205 0.0210511 2650 
176 1 -0.003983 0.00141006 0.002552 0.000105 0 -0.01175 0 2650 
126 1 -0.00261894 0.00118749 0.00225927 0.000291 -0.00813257 -0.0158529 -0.0248811 2650 
129 1 -0.00863592 0.00300957 0.0020504 0.00164 0.000219449 -0.0120332 0.000405385 2650 
52 1 -0.0154741 0.00757844 0.0021486 0.001058 -0.00152778 0.00892288 0.016201 2650 
71 1 -0.0021693 0.00664812 0.00363048 0.000291 -0.00101545 -0.00618567 -0.020495 2650 
164 1 -0.003894 0.000446058 0.005467 0.001058 0 -0.01175 0 2650 
291 1 -0.008194 0.00482006 0.004767 0.000291 0 -0.01175 0 2650 
242 1 -0.00977412 0.0132945 0.00534796 0.000291 -0.0086111 0.00654042 0.00262129 2650 
124 1 -0.014923 0.022966 0.00471189 0.001058 0.000501626 0.0410145 -0.000846304 2650 
245 1 -0.000529137 0.0561864 0.00414873 0.001058 0.0132501 0.0534812 -0.0221989 2650 
186 1 -0.006177 0.00276206 0.006545 0.001058 0 -0.01175 0 2650 
4 1 -0.0137976 0.00685764 0.00731243 0.001058 -0.000962198 -0.00289426 -0.00306323 2650 
249 1 -0.00155643 0.0212971 0.0066872 0.000291 0.00967839 0.0183331 -0.0129307 2650 
273 1 -0.00224232 0.0255356 0.00717067 0.001058 -0.00378567 0.0376334 0.0311204 2650 
28 1 -0.0136561 0.0258403 0.00659555 0.001058 0.00321107 0.0436165 0.0028608 2650 
300 1 -0.0124719 0.000657151 0.00982891 0.001058 -0.00474694 -0.00935107 -0.00498779 2650 
304 1 -0.0120814 0.00889485 0.00966873 0.000291 0.00483691 0.00442522 -0.0020989 2650 
68 1 -0.00297589 0.0088979 0.00977538 0.001058 0.0027366 -0.00341554 -0.0016946 2650 
106 1 -0.00748408 0.0281537 0.00864535 0.001058 0.0168325 0.0449922 -0.00167347 2650 
217 1 -0.010157 0.0285526 0.0114085 0.001058 -0.00233988 0.0370461 0.00790606 2650 
157 1 -0.00669202 0.0559299 0.0110164 0.000291 0.0200522 0.0842483 0.026686 2650 
299 1 -0.00653746 0.002689 0.0139163 0.001058 0.0133133 -0.0112639 0.0106099 2650 
266 1 -0.00962143 0.00944179 0.0125974 0.001058 0.0114944 0.0113642 0.00462513 2650 
55 1 -0.00947117 0.0112895 0.0133847 0.000291 0.0117878 0.0126004 0.00705877 2650 
224 1 -0.00814624 0.012471 0.0134415 0.001058 -0.00158302 0.0046982 -0.00321277 2650 
238 1 -0.000921289 0.021025 0.0134301 0.001058 0.0206406 0.0247492 -0.00648467 2650 
87 1 -0.00298517 0.0193839 0.0158215 0.000291 0.0584589 0.0238916 0.00843225 2650 
216 1 -0.0535729 0.055204 0.0419788 0.001058 72.4135 -9.89996 92.3659 2650 
206 1 -0.0166586 0.0889435 0.000933237 0.000291 -0.00229865 0.236368 -0.00599883 2650 
293 1 0.0130079 -0.0498633 -0.0666855 0.001058 -14.6318 1.06519 -2.85392 2650 
96 1 0.0187331 -0.0232455 -0.0662993 0.000105 -13.5142 2.41722 -3.81848 2650 
280 1 0.0220873 -0.00105776 -0.0642516 0.001058 -7.72243 -1.58391e-06 -2.65464 2650 
146 1 0.0266098 -0.0120718 -0.0625144 0.001058 -9.3573 -0.0205491 -3.98195 2650 
133 1 0.0343508 -0.0575894 -0.0595059 0.000291 -17.3592 -1.34158 -10.0208 2650 
239 1 0.031546 -0.0266697 -0.0601749 0.001058 -9.25712 -1.59016 -4.85218 2650 
180 1 0.0351866 -0.0107113 -0.0576736 0.001058 -0.120832 -0.375477 0.563457 2650 
259 1 0.0406073 -0.00105779 -0.0544745 0.001058 -7.62307 -2.78925e-06 -5.67784 2650 
14 1 0.0435284 -0.00283111 -0.0531621 0.000291 -8.22212 0.0153231 -6.73183 2650 
93 1 0.0543165 -0.0514419 -0.0420827 0.000291 -5.15348 1.00741 -6.64949 2650 
76 1 0.0598843 -0.0551056 -0.0321287 0.001058 -4.52966 0.773342 -8.43458 2650 
36 1 0.0608007 -0.00105786 -0.0303607 0.001058 -4.24251 1.18038e-06 -8.48793 2650 
225 1 0.0573895 -0.0309946 -0.03201 0.001058 -36.0503 0.263508 -105.804 2650 
43 1 0.0534157 -0.00660288 -0.0296397 0.001058 -2.22817 -12.2669 -35.0643 2650 
15 1 0.0633763 -0.0214776 0.0265535 0.000291 9.33741 -2.51321 -22.2801 2650 
21 1 0.0642798 -0.0420944 0.0242842 0.000291 5.0896 -1.60043 -13.4684 2650 
269 1 0.00847596 -0.0010805 -0.0142624 0.000291 0.00579511 -0.00362019 -0.0138276 2650 
263 1 0.006877 -0.00237294 -0.012319 0.000291 0 -0.01175 0 2650 
1 1 0.066115 -0.00298768 -0.0130954 0.00164 -2.38843 0.554161 -12.0424 2650 
289 1 0.001465 -0.00120594 -0.012477 0.000291 0 -0.01175 0 2650 
142 1 0.002378 -0.000790942 -0.013184 0.000291 0 -0.01175 0 2650 
160 1 0.00621978 -0.00162114 -0.0129173 0.000105 0.0189834 0.00069911 0.018679 2650 
247 1 0.0677855 -0.0369772 -0.0112642 0.000291 -2.92623 3.14834 -17.6049 2650 
138 1 0.066957 -0.0318856 -0.0116645 0.001058 -1.95904 1.04528 -11.2352 2650 
201 1 0.0104616 -0.00166799 -0.0108835 0.00164 0.0258363 0.00451728 0.0344242 2650 
213 1 0.0680611 -0.045854 -0.00945742 0.000291 -2.36783 0.262222 -17.0359 2650 
102 1 0.003423 -0.00246794 -0.006065 0.000291 0 -0.01175 0 2650 
117 1 0.004754 -0.00220594 -0.007063 0.000291 0 -0.01175 0 2650 
246 1 0.001376 -0.00296694 -0.005453 0.001058 0 -0.01175 0 2650 
253 1 0.014729 -0.000795942 -0.002617 0.000291 0 -0.01175 0 2650 
177 1 0.00224772 -0.00150334 -0.00139586 0.00164 -0.00972365 -0.00599557 0.0042022 2650 
113 1 0.0102845 -0.000745869 -0.0005653 0.00164 -0.000131046 -0.0102654 0.00285074 2650 
81 1 0.00735652 -0.00284329 5.7922e-07 0.00164 -0.00189205 -0.0116569 -0.0015504 2650 
210 1 0.00928114 -0.00254053 0.00199773 0.001058 -0.00357518 -0.00692175 0.00240524 2650 
261 1 0.011218 -0.00267194 0.000328 0.000291 0 -0.01175 0 2650 
35 1 0.00194341 -0.000860261 0.00337548 0.001058 0.00657044 -0.0107373 -0.00948648 2650 
223 1 0.0123847 -0.00303629 0.00607132 0.001058 0.0234053 -0.008914 0.00888968 2650 
258 1 0.0115432 -0.000487302 0.0084275 0.001058 0.00409759 -0.0073608 -0.00772301 2650 
3 1 0.0129624 -0.00192685 0.00910742 0.001058 0.00642628 -0.00698809 -0.0102347 2650 
111 1 0.0674845 -0.0288079 0.0129436 0.000291 1.20951 0.097436 -6.30442 2650 
103 1 0.00570472 -0.00231243 0.0123717 0.000291 -0.00204212 -0.0142702 0.00820261 2650 
82 1 0.000898085 -0.00272821 0.0151027 0.001058 0.00797863 0.00368093 0.0114158 2650 
148 1 0.026861 -0.0526083 0.0196187 0.001058 -11.2112 9.65928 -16.3601 2650 
162 1 0.0588189 -0.060581 0.0340359 0.001058 7.86868 2.3081 -13.4476 2650 
108 1 0.0573949 -0.0266862 0.0363856 0.001058 5.24398 -0.556155 -8.26364 2650 
264 1 0.0543381 -0.0300393 0.040816 0.001058 13.0299 -1.37243 -17.3314 2650 
188 1 0.0543755 -0.0121703 0.0407563 0.001058 6.22909 -0.439014 -8.30217 2650 
171 1 0.0506281 -0.00623199 0.0453288 0.001058 10.9066 -5.07126 -10.8167 2650 
193 1 0.0496977 -0.00243268 0.0454895 0.00164 7.12668 -1.67821 -7.79518 2650 
198 1 0.0515045 -0.0499253 0.0454806 0.000291 11.8946 -7.31137 -13.4658 2650 
178 1 0.0461101 -0.00106032 0.0499068 0.001058 6.60927 -0.0206867 -6.10016 2650 
218 1 0.0439275 -0.0361973 0.0518438 0.001058 14.5036 0.32595 -12.2778 2650 
152 1 0.0247004 -0.0478407 0.0640455 0.000105 -13.527 -4.88208 5.59652 2650 
179 1 0.0208451 -0.0221801 0.0646682 0.001058 20.2418 1.42941 -6.52144 2650 
25 1 0.0096709 -0.060743 0.0666638 0.00164 13.7567 -0.047546 -1.99497 2650 
89 1 0.00459371 -0.0537577 0.0672088 0.00164 18.8753 -0.575086 -1.28905 2650 
34 1 0.0165859 -0.0389961 0.065887 0.001058 15.5661 3.71081 -3.91795 2650 
296 1 0.00079956 -0.000827751 0.068666 0.000291 9.67777 -0.419422 0.368821 2650 
252 1 0.00199553 0.00236814 -0.0144084 0.001058 -0.00166999 -0.0122494 -0.00385255 2650 
37 1 0.006156 0.00413306 -0.015157 0.000291 0 -0.01175 0 2650 
110 1 0.00435094 0.00159505 -0.0133298 0.000291 -0.00350107 -0.0220031 -0.0105184 2650 
130 1 0.00920924 0.00108674 -0.0127252 0.001058 0.0280189 -0.000842093 0.0208687 2650 
260 1 0.00583326 0.00241001 -0.0129419 0.000291 -0.0126887 0.00194451 -0.0180502 2650 
78 1 0.000656112 0.00427328 -0.012931 0.000291 -0.00533626 -0.0103826 -0.00367069 2650 
275 1 0.012705 0.00186606 -0.010476 0.000291 0 -0.01175 0 2650 
105 1 0.00242452 0.00445909 -0.0118496 0.00164 -0.00380999 -0.0064552 -0.00344187 2650 
134 1 0.0067704 0.00434891 -0.00891035 0.000291 -0.0118829 0.00375813 -0.00608975 2650 
60 1 0.007579 0.000435058 -0.006312 0.001058 0 -0.01175 0 2650 
45 1 0.010575 0.000355058 -0.007722 0.000291 0 -0.01175 0 2650 
67 1 0.00321221 0.00320112 -0.0068673 0.001058 -0.00558703 -0.00493479 0.00721537 2650 
161 1 0.0120293 0.00259926 -0.00640873 0.00164 -0.00276466 0.000958617 -0.00216536 2650 
284 1 0.0145663 0.0056437 -0.00670894 0.000291 0.00198088 -0.00162967 -0.00401056 2650 
279 1 0.00911197 0.00751489 -0.00661347 0.001058 -0.00655734 0.00883723 -0.00295144 2650 
59 1 0.00223702 0.0132149 -0.00677446 0.001058 -0.0209148 0.0146292 -0.0313729 2650 
203 1 0.00438925 0.0149903 -0.00767356 0.001058 0.0383176 0.0560696 0.0066439 2650 
123 1 0.00958943 0.0191906 -0.00778016 0.001058 0.00532989 0.0294064 0.0427642 2650 
250 1 0.0102888 0.0258706 -0.00661343 0.001058 0.056604 0.0605666 -0.00107285 2650 
199 1 0.014464 0.000846058 -0.004562 0.000291 0 -0.01175 0 2650 
278 1 7.4e-05 0.00294606 -0.004448 0.001058 0 -0.01175 0 2650 
92 1 0.00950779 0.005737 -0.00440164 0.001058 -0.00319297 0.00820736 -7.57342e-07 2650 
19 1 0.0148271 0.00454361 -0.00510725 0.001058 0.00435807 -0.00106563 0.00142516 2650 
155 1 0.0149116 0.0165973 -0.00534769 0.001058 0.0153106 0.0336883 0.0602145 2650 
227 1 0.00944 0.00103306 -0.002109 0.000291 0 -0.01175 0 2650 
139 1 0.0103614 0.0190783 -0.00241763 0.001058 0.0124295 0.00846741 0.0230295 2650 
190 1 0.005899 0.00373506 -0.000534 0.000291 0 -0.01175 0 2650 
48 1 0.009671 0.00162706 0.000233 0.000105 0 -0.01175 0 2650 
128 1 0.00361 0.00333406 0.000511 0.000105 0 -0.01175 0 2650 
9 1 0.012984 0.00337206 0.000468 0.00164 0 -0.01175 0 2650 
286 1 0.015584 0.00404006 0.000132 0.001058 0 -0.01175 0 2650 
301 1 0.00972652 0.0290562 0.00144524 0.001058 0.0113125 0.0256345 -0.0254985 2650 
294 1 0.006997 0.00134106 0.003581 0.001058 0 -0.01175 0 2650 
212 1 0.000963851 0.00366378 0.00287352 0.000291 -0.000536105 -0.00385845 -0.0132408 2650 
202 1 0.00335106 0.00226325 0.00392505 0.001058 0.00927578 -0.00719028 -0.0138109 2650 
101 1 0.004812 0.00205706 0.002517 0.000291 0 -0.01175 0 2650 
153 1 0.00237714 0.00679804 0.00219364 0.00164 0.00916448 -0.00410288 -0.0197232 2650 
24 1 0.005464 0.00142306 0.005551 0.000105 0 -0.01175 0 2650 
244 1 0.014869 0.00190906 0.00421 0.001058 0 -0.01175 0 2650 
51 1 0.00957028 0.00241691 0.00471613 0.001058 -0.00119198 -0.0127786 0.00180812 2650 
271 1 0.0131484 0.00380507 0.00533282 0.001058 0.0295457 -0.00706995 0.0292712 2650 
79 1 0.0143622 0.00439948 0.00505523 0.000291 0.0277757 0.000138993 -0.000518555 2650 
231 1 0.006459 0.00104806 0.007445 0.001058 0 -0.01175 0 2650 
100 1 0.0121174 0.00157235 0.00686652 0.001058 0.0225976 -0.000995176 -0.0107968 2650 
208 1 0.0143123 0.00126275 0.00691428 0.001058 -0.000245189 -0.0012266 -0.00963756 2650 
222 1 0.009219 0.00369506 0.006833 0.001058 0 -0.01175 0 2650 
112 1 0.013668 0.00465906 0.007002 0.000105 0 -0.01175 0 2650 
195 1 0.00599133 0.00740789 0.00707246 0.001058 0.0216865 0.00727933 -0.0225594 2650 
194 1 0.0118637 0.00254573 0.00972405 0.001058 0.00965479 -0.00844737 -0.00170701 2650 
156 1 0.0058304 0.0119305 0.00957425 0.001058 0.00972231 -0.000191895 -0.0100171 2650 
204 1 0.00673201 0.00015742 0.0119586 0.001058 0.00309304 0.0005573 0.0141749 2650 
287 1 0.0100948 0.00114331 0.011727 0.001058 0.00682141 -0.00787141 0.000922002 2650 
145 1 0.0102994 0.00539723 0.0102375 0.00164 0.0110313 -0.00631937 0.0021615 2650 
66 1 0.00631691 0.00927614 0.0114218 0.001058 0.00619263 0.00109789 0.000884431 2650 
298 1 0.0102427 0.00613493 0.0130185 0.000105 0.00384822 -0.00429062 -0.00813409 2650 
292 1 0.00277403 0.0152089 0.0132408 0.001058 0.0152425 0.0152519 -0.0334915 2650 
57 1 0.00629165 0.0224307 0.0126827 0.00164 -0.000944415 0.00612769 -0.0239867 2650 
54 1 0.00308318 0.0305423 0.0134901 0.000291 0.0527092 0.00944275 -0.0227616 2650 
116 1 0.00663934 0.0299103 0.0126023 0.001058 -0.0193078 0.0669284 0.0834163 2650 
95 1 0.00709491 0.00372004 0.0141409 0.000291 0.000317815 -0.00292264 0.00231518 2650 
265 1 0.00729132 0.00556841 0.0140363 0.001058 0.0138468 -0.000204256 -0.0123584 2650 
163 1 0.0602834 0.099804 -0.0313811 0.001058 -7.86371 15.1586 -15.092 2650 
136 1 0.0049728 0.0891104 0.00193758 0.000105 0.0370802 0.101801 0.0201257 2650 
91 1 0.000274041 0.0904693 0.0680236 0.001058 98.0233 -12.7091 -0.394861 2650 
