LIGGGHTS (Version LIGGGHTS-PUBLIC 3.8.0, compiled 2022-11-07-16:55:38 by serperd1, git commit 86544c3f1215bc9744d7929e3eacf53ba086af9e)
units si #
dimension 3 #
newton off #
boundary f f f #
atom_style sphere #
pair_style gran model hertz tangential history #
communicate single vel yes #
region outer_basket cylinder y 0 0 0.15 -0.15 0.15 #
create_box 3 outer_basket #
Created orthogonal box = (-0.15 -0.15 -0.15) to (0.15 0.15 0.15)
  2 by 4 by 5 MPI processor grid
variable my_omega equal 157.0796 #
fix cone_mesh all mesh/surface file cone.stl type 3 scale 1 #
fix rotating_wall_1 all move/mesh mesh cone_mesh rotate/variable origin 0 0 0 axis 0 1 0 omega v_my_omega #
fix filter_mesh_walls all wall/gran model hertz tangential history primitive type 2 ycylinder_filtermesh 0.069 0 0 2 8 -0.0628 0 0.033406 0.019356 0.033906 0.019856 shear x 10.8385 #

fix inlet_cyl_wall_mesh all mesh/surface file in_cyl.stl type 3 scale 1 #
fix top_cyl_wall_mesh all mesh/surface file top_cyl.stl type 3 scale 1 #
fix rotating_wall_4 all move/mesh mesh top_cyl_wall_mesh rotate/variable origin 0 0 0 axis 0 1 0 omega v_my_omega #
fix bot_cyl_wall_mesh all mesh/surface file bot_cyl.stl type 3 scale 1 #
fix rotating_wall_5 all move/mesh mesh bot_cyl_wall_mesh rotate/variable origin 0 0 0 axis 0 1 0 omega v_my_omega #
fix bot_disk_wall_mesh all mesh/surface file bottom_disk.stl type 3 scale 1 #
fix rotating_wall_6 all move/mesh mesh bot_disk_wall_mesh rotate/variable origin 0 0 0 axis 0 1 0 omega v_my_omega #
fix top_disk_wall_mesh all mesh/surface file top_disk.stl type 3 scale 1 #
fix rotating_wall_7 all move/mesh mesh top_disk_wall_mesh rotate/variable origin 0 0 0 axis 0 1 0 omega v_my_omega #
fix GMSH_mesh_walls all wall/gran model hertz tangential history mesh n_meshes 6 meshes cone_mesh top_cyl_wall_mesh bot_cyl_wall_mesh bot_disk_wall_mesh inlet_cyl_wall_mesh top_disk_wall_mesh #
fix Young_mod all property/global youngsModulus peratomtype 375000000 46000000 1000000000 #
fix Poisson_rat all property/global poissonsRatio peratomtype 0.32 0.42 0.29 #
fix Coeff_rest all property/global coefficientRestitution peratomtypepair 3 0.15 0.32 0.475 0.32 0.49 0.645 0.475 0.645 0.8 #
fix Coeff_fric all property/global coefficientFriction peratomtypepair 3 0.04 0.145 0.12 0.145 0.25 0.225 0.12 0.225 0.2 #

neighbor 0.0006561 bin #
neigh_modify delay 0 one 100000 page 5000000 #
fix r_0to10p all particletemplate/sphere 12345787 atom_type 1 density constant 2650 radius constant 0.000105 #
fix r_10to50p all particletemplate/sphere 15485863 atom_type 1 density constant 2650 radius constant 0.000291 #
fix r_50to90p all particletemplate/sphere 15485867 atom_type 1 density constant 2650 radius constant 0.0010582 #
fix r_90to100p all particletemplate/sphere 32452843 atom_type 1 density constant 2650 radius constant 0.0016402 #
fix prob_par all particledistribution/discrete 32452867 4 r_0to10p 0.1 r_10to50p 0.4 r_50to90p 0.4 r_90to100p 0.1 #
pair_coeff * * #
timestep 8.1e-08 #

fix nve_group all nve/sphere #
fix grav_fix all gravity 6.1081 vector 0.017 -0.0033 0 -1 0 #
fix cent_fix all centrifugal 157.0796 0.017 -0.0033 0.069 #

variable step equal step #
variable mycount equal count(all) #
fix print_amount_of_atoms all print 25 "${step} ${mycount}" file numatoms.txt screen no #
run 0 #
Setting up run at Tue Jan  3 07:01:35 2023

Memory usage per processor = 954.231 Mbytes
    Step    Atoms         KinEng            CPU 
       0        0              0              0 
Loop time of 7.26742e-05 on 40 procs for 0 steps with 0 atoms, finish time Tue Jan  3 07:01:36 2023


Pair  time (%) = 0 (0)
Neigh time (%) = 0 (0)
Comm  time (%) = 0 (0)
Outpt time (%) = 0 (0)
Other time (%) = 7.26742e-05 (100)

Nlocal:    0 ave 0 max 0 min
Histogram: 40 0 0 0 0 0 0 0 0 0
Nghost:    0 ave 0 max 0 min
Histogram: 40 0 0 0 0 0 0 0 0 0
Neighs:    0 ave 0 max 0 min
Histogram: 40 0 0 0 0 0 0 0 0 0

Total # of neighbors = 0
Neighbor list builds = 0
Dangerous builds = 0
run 1 #
Setting up run at Tue Jan  3 07:01:36 2023

Memory usage per processor = 954.231 Mbytes
    Step    Atoms         KinEng            CPU 
       0        0              0              0 
       1        0              0    0.009529269 
Loop time of 0.00956129 on 40 procs for 1 steps with 0 atoms, finish time Tue Jan  3 07:01:36 2023


Pair  time (%) = 2.47215e-06 (0.0258558)
Neigh time (%) = 0 (0)
Comm  time (%) = 0.000171752 (1.79632)
Outpt time (%) = 9.78816e-05 (1.02373)
Other time (%) = 0.00928919 (97.1541)

Nlocal:    0 ave 0 max 0 min
Histogram: 40 0 0 0 0 0 0 0 0 0
Nghost:    0 ave 0 max 0 min
Histogram: 40 0 0 0 0 0 0 0 0 0
Neighs:    0 ave 0 max 0 min
Histogram: 40 0 0 0 0 0 0 0 0 0

Total # of neighbors = 0
Neighbor list builds = 0
Dangerous builds = 0
read_dump dump.atom_info_1 1 x y z radius vx vy vz box no add yes replace no #
  orthogonal box = (-0.15 -0.15 -0.15) to (0.15 0.15 0.15)
  0 atoms before read
  305 atoms in snapshot
  0 atoms purged
  0 atoms replaced
  0 atoms trimmed
  305 atoms added
  305 atoms after read
set atom * type 1 density 2650 vy -0.01175 #
  305 settings made for type
  305 settings made for density
  305 settings made for vy
run 1 #
Setting up run at Tue Jan  3 07:01:36 2023

Memory usage per processor = 958.583 Mbytes
    Step    Atoms         KinEng            CPU 
       1      305  2.0462467e-07              0 
       2      305  2.4125357e-07    0.009054459 
Loop time of 0.00906645 on 40 procs for 1 steps with 305 atoms, finish time Tue Jan  3 07:01:36 2023


Pair  time (%) = 2.62925e-06 (0.0289998)
Neigh time (%) = 0 (0)
Comm  time (%) = 4.48603e-06 (0.0494794)
Outpt time (%) = 0.000133272 (1.46994)
Other time (%) = 0.00892606 (98.4516)

Nlocal:    7.625 ave 134 max 0 min
Histogram: 36 2 0 0 0 0 0 0 0 2
Nghost:    5.125 ave 59 max 0 min
Histogram: 36 0 0 0 0 0 0 2 0 2
Neighs:    2.375 ave 54 max 0 min
Histogram: 37 1 0 0 0 1 0 0 0 1

Total # of neighbors = 95
Ave neighs/atom = 0.311475
Neighbor list builds = 0
Dangerous builds = 0
write_dump all custom dump.atom_info_ac_* id type x y z radius vx vy vz density #
run 123456
Setting up run at Tue Jan  3 07:01:36 2023

Memory usage per processor = 958.583 Mbytes
    Step    Atoms         KinEng            CPU 
       2      305  2.4125357e-07              0 
  123458      305  6.0816412e-05      1215.2325 
Loop time of 1215.23 on 40 procs for 123456 steps with 305 atoms, finish time Tue Jan  3 07:21:51 2023


Pair  time (%) = 0.254942 (0.0209789)
Neigh time (%) = 0.0503247 (0.00414116)
Comm  time (%) = 0.564106 (0.0464196)
Outpt time (%) = 0.000697849 (5.74252e-05)
Other time (%) = 1214.36 (99.9284)

Nlocal:    7.625 ave 136 max 0 min
Histogram: 36 2 0 0 0 0 0 0 1 1
Nghost:    5.15 ave 59 max 0 min
Histogram: 36 0 0 0 0 0 0 2 0 2
Neighs:    2.5 ave 57 max 0 min
Histogram: 36 2 0 0 1 0 0 0 0 1

Total # of neighbors = 100
Ave neighs/atom = 0.327869
Neighbor list builds = 330
Dangerous builds = 0
write_dump all custom dump.atom_info_ac_* id type x y z radius vx vy vz density #
run 123456
Setting up run at Tue Jan  3 07:21:52 2023

Memory usage per processor = 958.583 Mbytes
    Step    Atoms         KinEng            CPU 
  123458      305  6.0816412e-05              0 
  246914      305  4.3842796e-05      1219.0977 
Loop time of 1219.1 on 40 procs for 123456 steps with 305 atoms, finish time Tue Jan  3 07:42:11 2023


Pair  time (%) = 0.252764 (0.0207337)
Neigh time (%) = 0.0550003 (0.00451156)
Comm  time (%) = 0.535399 (0.0439176)
Outpt time (%) = 0.000604074 (4.95509e-05)
Other time (%) = 1218.25 (99.9308)

Nlocal:    7.625 ave 138 max 0 min
Histogram: 36 2 0 0 0 0 0 0 1 1
Nghost:    5.125 ave 56 max 0 min
Histogram: 36 0 0 0 0 0 0 0 2 2
Neighs:    2.475 ave 57 max 0 min
Histogram: 36 2 0 0 1 0 0 0 0 1

Total # of neighbors = 99
Ave neighs/atom = 0.32459
Neighbor list builds = 330
Dangerous builds = 0
write_dump all custom dump.atom_info_ac_* id type x y z radius vx vy vz density #
run 123456
Setting up run at Tue Jan  3 07:42:11 2023

Memory usage per processor = 958.583 Mbytes
    Step    Atoms         KinEng            CPU 
  246914      305  4.3842796e-05              0 
  370370      305  0.00038250452      1218.6504 
Loop time of 1218.65 on 40 procs for 123456 steps with 305 atoms, finish time Tue Jan  3 08:02:29 2023


Pair  time (%) = 0.251947 (0.0206743)
Neigh time (%) = 0.0507769 (0.00416665)
Comm  time (%) = 0.618536 (0.0507558)
Outpt time (%) = 0.000589414 (4.83661e-05)
Other time (%) = 1217.73 (99.9244)

Nlocal:    7.625 ave 134 max 0 min
Histogram: 36 0 2 0 0 0 0 0 1 1
Nghost:    5.025 ave 61 max 0 min
Histogram: 36 0 0 0 0 0 0 2 1 1
Neighs:    2.475 ave 57 max 0 min
Histogram: 36 2 0 0 1 0 0 0 0 1

Total # of neighbors = 99
Ave neighs/atom = 0.32459
Neighbor list builds = 330
Dangerous builds = 0
write_dump all custom dump.atom_info_ac_* id type x y z radius vx vy vz density #
run 123456
Setting up run at Tue Jan  3 08:02:29 2023

Memory usage per processor = 958.583 Mbytes
    Step    Atoms         KinEng            CPU 
  370370      305  0.00038250452              0 
  493826      305   0.0002185812      1216.2358 
Loop time of 1216.24 on 40 procs for 123456 steps with 305 atoms, finish time Tue Jan  3 08:22:46 2023


Pair  time (%) = 0.250756 (0.0206174)
Neigh time (%) = 0.050451 (0.00414813)
Comm  time (%) = 0.672693 (0.0553094)
Outpt time (%) = 0.000587986 (4.83447e-05)
Other time (%) = 1215.26 (99.9199)

Nlocal:    7.625 ave 134 max 0 min
Histogram: 36 0 2 0 0 0 0 0 1 1
Nghost:    5.025 ave 59 max 0 min
Histogram: 36 0 0 0 0 0 0 2 0 2
Neighs:    2.425 ave 54 max 0 min
Histogram: 36 1 1 0 1 0 0 0 0 1

Total # of neighbors = 97
Ave neighs/atom = 0.318033
Neighbor list builds = 330
Dangerous builds = 0
write_dump all custom dump.atom_info_ac_* id type x y z radius vx vy vz density #
run 123456
Setting up run at Tue Jan  3 08:22:46 2023

Memory usage per processor = 958.583 Mbytes
    Step    Atoms         KinEng            CPU 
  493826      305   0.0002185812              0 
  617282      305    0.001796919      1214.5365 
Loop time of 1214.54 on 40 procs for 123456 steps with 305 atoms, finish time Tue Jan  3 08:43:00 2023


Pair  time (%) = 0.248338 (0.0204471)
Neigh time (%) = 0.0508001 (0.00418267)
Comm  time (%) = 0.623663 (0.0513499)
Outpt time (%) = 0.000637444 (5.24846e-05)
Other time (%) = 1213.61 (99.924)

Nlocal:    7.625 ave 134 max 0 min
Histogram: 36 0 2 0 0 0 0 1 0 1
Nghost:    4.975 ave 59 max 0 min
Histogram: 36 0 0 0 0 0 1 1 0 2
Neighs:    2.5 ave 55 max 0 min
Histogram: 36 1 1 0 1 0 0 0 0 1

Total # of neighbors = 100
Ave neighs/atom = 0.327869
Neighbor list builds = 330
Dangerous builds = 0
write_dump all custom dump.atom_info_ac_* id type x y z radius vx vy vz density #
run 123456
Setting up run at Tue Jan  3 08:43:00 2023

Memory usage per processor = 958.583 Mbytes
    Step    Atoms         KinEng            CPU 
  617282      305    0.001796919              0 
  740738      305  9.1153157e-05      1217.2694 
Loop time of 1217.27 on 40 procs for 123456 steps with 305 atoms, finish time Tue Jan  3 09:03:18 2023


Pair  time (%) = 0.250731 (0.0205978)
Neigh time (%) = 0.0513421 (0.00421781)
Comm  time (%) = 0.665128 (0.0546409)
Outpt time (%) = 0.000643432 (5.28586e-05)
Other time (%) = 1216.3 (99.9205)

Nlocal:    7.625 ave 133 max 0 min
Histogram: 36 0 2 0 0 0 0 1 0 1
Nghost:    5 ave 58 max 0 min
Histogram: 36 0 0 0 0 0 1 1 0 2
Neighs:    2.4 ave 54 max 0 min
Histogram: 36 1 1 0 1 0 0 0 0 1

Total # of neighbors = 96
Ave neighs/atom = 0.314754
Neighbor list builds = 330
Dangerous builds = 0
write_dump all custom dump.atom_info_ac_* id type x y z radius vx vy vz density #
run 123456
Setting up run at Tue Jan  3 09:03:18 2023

Memory usage per processor = 958.583 Mbytes
    Step    Atoms         KinEng            CPU 
  740738      305  9.1153157e-05              0 
  864194      304  0.00054024268      1244.0737 
Loop time of 1244.07 on 40 procs for 123456 steps with 304 atoms, finish time Tue Jan  3 09:24:02 2023


Pair  time (%) = 0.251116 (0.0201849)
Neigh time (%) = 0.0503855 (0.00405004)
Comm  time (%) = 0.664026 (0.0533751)
Outpt time (%) = 0.000590138 (4.74359e-05)
Other time (%) = 1243.11 (99.9223)

Nlocal:    7.6 ave 131 max 0 min
Histogram: 36 0 2 0 0 0 0 1 0 1
Nghost:    5.25 ave 60 max 0 min
Histogram: 36 0 0 0 0 0 1 0 1 2
Neighs:    2.4 ave 54 max 0 min
Histogram: 36 1 1 1 0 0 0 0 0 1

Total # of neighbors = 96
Ave neighs/atom = 0.315789
Neighbor list builds = 332
Dangerous builds = 2
write_dump all custom dump.atom_info_ac_* id type x y z radius vx vy vz density #
run 123456
Setting up run at Tue Jan  3 09:24:02 2023

Memory usage per processor = 958.583 Mbytes
    Step    Atoms         KinEng            CPU 
  864194      304  0.00054024268              0 
  987650      304   0.0011250449      1228.2157 
Loop time of 1228.22 on 40 procs for 123456 steps with 304 atoms, finish time Tue Jan  3 09:44:30 2023


Pair  time (%) = 0.250629 (0.020406)
Neigh time (%) = 0.0546571 (0.00445012)
Comm  time (%) = 0.735889 (0.0599153)
Outpt time (%) = 0.0112129 (0.000912942)
Other time (%) = 1227.16 (99.9143)

Nlocal:    7.6 ave 132 max 0 min
Histogram: 36 1 1 0 0 0 0 1 0 1
Nghost:    5.325 ave 61 max 0 min
Histogram: 36 0 0 0 0 0 1 0 1 2
Neighs:    2.375 ave 56 max 0 min
Histogram: 36 2 0 1 0 0 0 0 0 1

Total # of neighbors = 95
Ave neighs/atom = 0.3125
Neighbor list builds = 354
Dangerous builds = 0
write_dump all custom dump.atom_info_ac_* id type x y z radius vx vy vz density #
run 123456
Setting up run at Tue Jan  3 09:44:30 2023

Memory usage per processor = 958.583 Mbytes
    Step    Atoms         KinEng            CPU 
  987650      304   0.0011250449              0 
 1111106      303   0.0012384353      1218.3781 
Loop time of 1218.38 on 40 procs for 123456 steps with 303 atoms, finish time Tue Jan  3 10:04:49 2023


Pair  time (%) = 0.248558 (0.0204007)
Neigh time (%) = 0.0505567 (0.0041495)
Comm  time (%) = 0.650857 (0.0534199)
Outpt time (%) = 0.000623175 (5.11479e-05)
Other time (%) = 1217.43 (99.922)

Nlocal:    7.575 ave 129 max 0 min
Histogram: 36 1 1 0 0 0 0 1 0 1
Nghost:    5.35 ave 59 max 0 min
Histogram: 36 0 0 0 0 0 0 1 0 3
Neighs:    2.425 ave 58 max 0 min
Histogram: 36 2 0 1 0 0 0 0 0 1

Total # of neighbors = 97
Ave neighs/atom = 0.320132
Neighbor list builds = 333
Dangerous builds = 3
write_dump all custom dump.atom_info_ac_* id type x y z radius vx vy vz density #
run 123456
Setting up run at Tue Jan  3 10:04:49 2023

Memory usage per processor = 958.583 Mbytes
    Step    Atoms         KinEng            CPU 
 1111106      303   0.0012384353              0 
 1234562      303     0.29720142      1236.6499 
Loop time of 1236.65 on 40 procs for 123456 steps with 303 atoms, finish time Tue Jan  3 10:25:26 2023


Pair  time (%) = 0.255961 (0.0206979)
Neigh time (%) = 0.687146 (0.0555651)
Comm  time (%) = 2.54196 (0.205552)
Outpt time (%) = 0.000687663 (5.56069e-05)
Other time (%) = 1233.16 (99.7181)

Nlocal:    7.575 ave 128 max 0 min
Histogram: 36 1 1 0 0 0 0 0 1 1
Nghost:    5.3 ave 55 max 0 min
Histogram: 36 0 0 0 0 0 0 0 1 3
Neighs:    2.425 ave 58 max 0 min
Histogram: 36 2 0 1 0 0 0 0 0 1

Total # of neighbors = 97
Ave neighs/atom = 0.320132
Neighbor list builds = 3975
Dangerous builds = 0
write_dump all custom dump.atom_info_ac_* id type x y z radius vx vy vz density #
run 123456
Setting up run at Tue Jan  3 10:25:26 2023

Memory usage per processor = 958.583 Mbytes
    Step    Atoms         KinEng            CPU 
 1234562      303     0.29720142              0 
 1358018      302      0.3004786      1301.7538 
Loop time of 1301.75 on 40 procs for 123456 steps with 302 atoms, finish time Tue Jan  3 10:47:07 2023


Pair  time (%) = 0.261335 (0.0200756)
Neigh time (%) = 1.25097 (0.0960986)
Comm  time (%) = 3.55317 (0.272952)
Outpt time (%) = 0.00070584 (5.42222e-05)
Other time (%) = 1296.69 (99.6108)

Nlocal:    7.55 ave 123 max 0 min
Histogram: 36 0 2 0 0 0 0 0 1 1
Nghost:    5.2 ave 59 max 0 min
Histogram: 36 0 0 0 0 0 0 1 2 1
Neighs:    2.5 ave 60 max 0 min
Histogram: 36 2 0 1 0 0 0 0 0 1

Total # of neighbors = 100
Ave neighs/atom = 0.331126
Neighbor list builds = 7141
Dangerous builds = 20
write_dump all custom dump.atom_info_ac_* id type x y z radius vx vy vz density #
run 123456
Setting up run at Tue Jan  3 10:47:07 2023

Memory usage per processor = 958.583 Mbytes
    Step    Atoms         KinEng            CPU 
 1358018      302      0.3004786              0 
 1481474      302     0.29088169       1252.638 
Loop time of 1252.64 on 40 procs for 123456 steps with 302 atoms, finish time Tue Jan  3 11:08:00 2023


Pair  time (%) = 0.259821 (0.0207419)
Neigh time (%) = 1.25246 (0.0999854)
Comm  time (%) = 4.15215 (0.331472)
Outpt time (%) = 0.000647329 (5.16772e-05)
Other time (%) = 1246.97 (99.5477)

Nlocal:    7.55 ave 120 max 0 min
Histogram: 36 0 2 0 0 0 0 0 1 1
Nghost:    5.3 ave 61 max 0 min
Histogram: 36 0 0 0 0 0 0 1 1 2
Neighs:    2.6 ave 60 max 0 min
Histogram: 36 1 1 1 0 0 0 0 0 1

Total # of neighbors = 104
Ave neighs/atom = 0.344371
Neighbor list builds = 7155
Dangerous builds = 0
write_dump all custom dump.atom_info_ac_* id type x y z radius vx vy vz density #
run 123456
Setting up run at Tue Jan  3 11:08:00 2023

Memory usage per processor = 958.583 Mbytes
    Step    Atoms         KinEng            CPU 
 1481474      302     0.29088169              0 
 1604930      302     0.17207813      1239.7358 
Loop time of 1239.74 on 40 procs for 123456 steps with 302 atoms, finish time Tue Jan  3 11:28:40 2023


Pair  time (%) = 0.254796 (0.0205524)
Neigh time (%) = 0.779504 (0.0628766)
Comm  time (%) = 2.27646 (0.183625)
Outpt time (%) = 0.000642153 (5.17976e-05)
Other time (%) = 1236.42 (99.7329)

Nlocal:    7.55 ave 119 max 0 min
Histogram: 36 0 1 1 0 0 0 0 1 1
Nghost:    5.275 ave 61 max 0 min
Histogram: 36 0 0 0 0 0 1 0 1 2
Neighs:    2.65 ave 59 max 0 min
Histogram: 36 1 1 1 0 0 0 0 0 1

Total # of neighbors = 106
Ave neighs/atom = 0.350993
Neighbor list builds = 4437
Dangerous builds = 0
write_dump all custom dump.atom_info_ac_* id type x y z radius vx vy vz density #
run 123456
Setting up run at Tue Jan  3 11:28:40 2023

Memory usage per processor = 958.583 Mbytes
    Step    Atoms         KinEng            CPU 
 1604930      302     0.17207813              0 
 1728386      302     0.10900503      1236.6248 
Loop time of 1236.62 on 40 procs for 123456 steps with 302 atoms, finish time Tue Jan  3 11:49:17 2023


Pair  time (%) = 0.258588 (0.0209108)
Neigh time (%) = 0.649477 (0.0525201)
Comm  time (%) = 2.3766 (0.192185)
Outpt time (%) = 0.000590702 (4.77672e-05)
Other time (%) = 1233.34 (99.7343)

Nlocal:    7.55 ave 116 max 0 min
Histogram: 36 0 2 0 0 0 0 0 1 1
Nghost:    5.25 ave 62 max 0 min
Histogram: 36 0 0 0 0 0 1 1 0 2
Neighs:    2.75 ave 56 max 0 min
Histogram: 36 1 0 1 1 0 0 0 0 1

Total # of neighbors = 110
Ave neighs/atom = 0.364238
Neighbor list builds = 3741
Dangerous builds = 0
write_dump all custom dump.atom_info_ac_* id type x y z radius vx vy vz density #
run 123456
Setting up run at Tue Jan  3 11:49:17 2023

Memory usage per processor = 958.583 Mbytes
    Step    Atoms         KinEng            CPU 
 1728386      302     0.10900503              0 
 1851842      301    0.055730079      1227.5792 
Loop time of 1227.58 on 40 procs for 123456 steps with 301 atoms, finish time Tue Jan  3 12:09:44 2023


Pair  time (%) = 0.256513 (0.0208958)
Neigh time (%) = 0.618814 (0.0504093)
Comm  time (%) = 2.50677 (0.204204)
Outpt time (%) = 0.000614238 (5.00365e-05)
Other time (%) = 1224.2 (99.7244)

Nlocal:    7.525 ave 113 max 0 min
Histogram: 36 0 1 1 0 0 0 0 1 1
Nghost:    5.35 ave 66 max 0 min
Histogram: 36 0 0 0 0 0 2 0 1 1
Neighs:    2.625 ave 50 max 0 min
Histogram: 36 1 0 0 2 0 0 0 0 1

Total # of neighbors = 105
Ave neighs/atom = 0.348837
Neighbor list builds = 3564
Dangerous builds = 41
write_dump all custom dump.atom_info_ac_* id type x y z radius vx vy vz density #
run 123456
Setting up run at Tue Jan  3 12:09:44 2023

Memory usage per processor = 958.583 Mbytes
    Step    Atoms         KinEng            CPU 
 1851842      301    0.055730079              0 
 1975298      300    0.062731713      1231.8904 
Loop time of 1231.9 on 40 procs for 123456 steps with 300 atoms, finish time Tue Jan  3 12:30:16 2023


Pair  time (%) = 0.251896 (0.0204477)
Neigh time (%) = 0.405835 (0.0329438)
Comm  time (%) = 1.73235 (0.140624)
Outpt time (%) = 0.0133472 (0.00108347)
Other time (%) = 1229.5 (99.8049)

Nlocal:    7.5 ave 110 max 0 min
Histogram: 36 0 0 2 0 0 0 0 1 1
Nghost:    5.025 ave 63 max 0 min
Histogram: 36 0 0 0 0 0 2 0 1 1
Neighs:    2.525 ave 51 max 0 min
Histogram: 36 1 0 0 2 0 0 0 0 1

Total # of neighbors = 101
Ave neighs/atom = 0.336667
Neighbor list builds = 2317
Dangerous builds = 0
write_dump all custom dump.atom_info_ac_* id type x y z radius vx vy vz density #
run 123456
Setting up run at Tue Jan  3 12:30:17 2023

Memory usage per processor = 958.583 Mbytes
    Step    Atoms         KinEng            CPU 
 1975298      300    0.062731713              0 
 2098754      300    0.052718697      1224.1174 
Loop time of 1224.12 on 40 procs for 123456 steps with 300 atoms, finish time Tue Jan  3 12:50:41 2023


Pair  time (%) = 0.253462 (0.0207057)
Neigh time (%) = 0.353086 (0.0288441)
Comm  time (%) = 1.37385 (0.112232)
Outpt time (%) = 0.000657608 (5.3721e-05)
Other time (%) = 1222.14 (99.8382)

Nlocal:    7.5 ave 106 max 0 min
Histogram: 36 0 0 2 0 0 0 0 0 2
Nghost:    5 ave 68 max 0 min
Histogram: 36 0 0 0 0 1 1 1 0 1
Neighs:    2.675 ave 52 max 0 min
Histogram: 36 1 0 1 0 1 0 0 0 1

Total # of neighbors = 107
Ave neighs/atom = 0.356667
Neighbor list builds = 2018
Dangerous builds = 0
write_dump all custom dump.atom_info_ac_* id type x y z radius vx vy vz density #
run 123456
Setting up run at Tue Jan  3 12:50:41 2023

Memory usage per processor = 958.583 Mbytes
    Step    Atoms         KinEng            CPU 
 2098754      300    0.052718697              0 
 2222210      299    0.068228374      1234.5057 
Loop time of 1234.51 on 40 procs for 123456 steps with 299 atoms, finish time Tue Jan  3 13:11:15 2023


Pair  time (%) = 0.251704 (0.020389)
Neigh time (%) = 0.350012 (0.0283524)
Comm  time (%) = 1.46368 (0.118564)
Outpt time (%) = 0.000719015 (5.82431e-05)
Other time (%) = 1232.44 (99.8326)

Nlocal:    7.475 ave 105 max 0 min
Histogram: 36 0 0 1 1 0 0 0 0 2
Nghost:    5.2 ave 68 max 0 min
Histogram: 36 0 0 0 0 0 2 1 0 1
Neighs:    2.6 ave 49 max 0 min
Histogram: 36 1 0 0 1 1 0 0 0 1

Total # of neighbors = 104
Ave neighs/atom = 0.347826
Neighbor list builds = 2128
Dangerous builds = 306
write_dump all custom dump.atom_info_ac_* id type x y z radius vx vy vz density #
run 123456
Setting up run at Tue Jan  3 13:11:15 2023

Memory usage per processor = 958.583 Mbytes
    Step    Atoms         KinEng            CPU 
 2222210      299    0.068228374              0 
 2345666      298     0.10665724      1231.6928 
Loop time of 1231.69 on 40 procs for 123456 steps with 298 atoms, finish time Tue Jan  3 13:31:47 2023


Pair  time (%) = 0.254924 (0.0206971)
Neigh time (%) = 0.479767 (0.0389518)
Comm  time (%) = 2.02263 (0.164216)
Outpt time (%) = 0.00065411 (5.31066e-05)
Other time (%) = 1228.93 (99.7761)

Nlocal:    7.45 ave 103 max 0 min
Histogram: 36 0 0 1 1 0 0 0 0 2
Nghost:    5.125 ave 68 max 0 min
Histogram: 36 0 0 0 0 1 1 1 0 1
Neighs:    2.325 ave 40 max 0 min
Histogram: 36 1 0 0 0 1 1 0 0 1

Total # of neighbors = 93
Ave neighs/atom = 0.312081
Neighbor list builds = 2777
Dangerous builds = 2
write_dump all custom dump.atom_info_ac_* id type x y z radius vx vy vz density #
run 123456
Setting up run at Tue Jan  3 13:31:47 2023

Memory usage per processor = 958.583 Mbytes
    Step    Atoms         KinEng            CPU 
 2345666      298     0.10665724              0 
 2469122      297    0.033370513      1228.8355 
Loop time of 1228.84 on 40 procs for 123456 steps with 297 atoms, finish time Tue Jan  3 13:52:16 2023


Pair  time (%) = 0.253855 (0.0206582)
Neigh time (%) = 0.355672 (0.0289438)
Comm  time (%) = 1.75757 (0.143027)
Outpt time (%) = 0.000638648 (5.19718e-05)
Other time (%) = 1226.47 (99.8073)

Nlocal:    7.425 ave 102 max 0 min
Histogram: 36 0 0 1 1 0 0 0 0 2
Nghost:    5.05 ave 66 max 0 min
Histogram: 36 0 0 0 0 1 1 1 0 1
Neighs:    2.325 ave 42 max 0 min
Histogram: 36 1 0 0 0 2 0 0 0 1

Total # of neighbors = 93
Ave neighs/atom = 0.313131
Neighbor list builds = 2038
Dangerous builds = 0
write_dump all custom dump.atom_info_ac_* id type x y z radius vx vy vz density #
run 123456
Setting up run at Tue Jan  3 13:52:16 2023

Memory usage per processor = 958.583 Mbytes
    Step    Atoms         KinEng            CPU 
 2469122      297    0.033370513              0 
 2592578      296    0.032511714      1307.6858 
Loop time of 1307.69 on 40 procs for 123456 steps with 296 atoms, finish time Tue Jan  3 14:14:04 2023


Pair  time (%) = 0.252948 (0.0193431)
Neigh time (%) = 0.314993 (0.0240878)
Comm  time (%) = 1.40849 (0.107709)
Outpt time (%) = 0.00068177 (5.21356e-05)
Other time (%) = 1305.71 (99.8488)

Nlocal:    7.4 ave 100 max 0 min
Histogram: 36 0 0 1 1 0 0 0 0 2
Nghost:    5.075 ave 68 max 0 min
Histogram: 36 0 0 0 0 1 1 1 0 1
Neighs:    2.15 ave 35 max 0 min
Histogram: 36 0 1 0 0 1 1 0 0 1

Total # of neighbors = 86
Ave neighs/atom = 0.290541
Neighbor list builds = 1808
Dangerous builds = 0
write_dump all custom dump.atom_info_ac_* id type x y z radius vx vy vz density #
run 123456
Setting up run at Tue Jan  3 14:14:04 2023

Memory usage per processor = 958.583 Mbytes
    Step    Atoms         KinEng            CPU 
 2592578      296    0.032511714              0 
 2716034      295    0.032146984      1230.5628 
Loop time of 1230.56 on 40 procs for 123456 steps with 295 atoms, finish time Tue Jan  3 14:34:34 2023


Pair  time (%) = 0.254884 (0.0207128)
Neigh time (%) = 0.445017 (0.0361637)
Comm  time (%) = 1.46933 (0.119403)
Outpt time (%) = 0.000680335 (5.52865e-05)
Other time (%) = 1228.39 (99.8237)

Nlocal:    7.375 ave 100 max 0 min
Histogram: 36 0 0 1 1 0 0 0 0 2
Nghost:    4.925 ave 62 max 0 min
Histogram: 36 0 0 0 0 0 2 1 0 1
Neighs:    2.125 ave 36 max 0 min
Histogram: 36 0 1 0 1 0 1 0 0 1

Total # of neighbors = 85
Ave neighs/atom = 0.288136
Neighbor list builds = 2516
Dangerous builds = 0
write_dump all custom dump.atom_info_ac_* id type x y z radius vx vy vz density #
run 123456
Setting up run at Tue Jan  3 14:34:34 2023

Memory usage per processor = 958.583 Mbytes
    Step    Atoms         KinEng            CPU 
 2716034      295    0.032146984              0 
 2839490      294    0.020045422      1227.9814 
Loop time of 1227.98 on 40 procs for 123456 steps with 294 atoms, finish time Tue Jan  3 14:55:02 2023


Pair  time (%) = 0.254233 (0.0207033)
Neigh time (%) = 0.328863 (0.0267808)
Comm  time (%) = 1.36621 (0.111257)
Outpt time (%) = 0.000634438 (5.16651e-05)
Other time (%) = 1226.03 (99.8412)

Nlocal:    7.35 ave 99 max 0 min
Histogram: 36 0 0 1 1 0 0 0 0 2
Nghost:    4.925 ave 61 max 0 min
Histogram: 36 0 0 0 0 0 2 0 1 1
Neighs:    2 ave 34 max 0 min
Histogram: 36 0 1 0 1 0 1 0 0 1

Total # of neighbors = 80
Ave neighs/atom = 0.272109
Neighbor list builds = 1956
Dangerous builds = 0
write_dump all custom dump.atom_info_ac_* id type x y z radius vx vy vz density #
run 123456
Setting up run at Tue Jan  3 14:55:02 2023

Memory usage per processor = 958.583 Mbytes
    Step    Atoms         KinEng            CPU 
 2839490      294    0.020045422              0 
 2962946      294     0.44051732      1241.2323 
Loop time of 1241.23 on 40 procs for 123456 steps with 294 atoms, finish time Tue Jan  3 15:15:44 2023


Pair  time (%) = 0.256871 (0.0206949)
Neigh time (%) = 0.774226 (0.0623756)
Comm  time (%) = 3.11576 (0.251022)
Outpt time (%) = 0.000684835 (5.51738e-05)
Other time (%) = 1237.08 (99.6659)

Nlocal:    7.35 ave 97 max 0 min
Histogram: 35 1 0 0 2 0 0 0 0 2
Nghost:    4.8 ave 62 max 0 min
Histogram: 36 0 0 0 0 1 1 1 0 1
Neighs:    2.075 ave 32 max 0 min
Histogram: 36 0 0 1 1 0 0 0 1 1

Total # of neighbors = 83
Ave neighs/atom = 0.282313
Neighbor list builds = 4349
Dangerous builds = 0
write_dump all custom dump.atom_info_ac_* id type x y z radius vx vy vz density #
run 123456
Setting up run at Tue Jan  3 15:15:44 2023

Memory usage per processor = 958.583 Mbytes
    Step    Atoms         KinEng            CPU 
 2962946      294     0.44051732              0 
 3086402      293     0.33896644      1236.4007 
Loop time of 1236.4 on 40 procs for 123456 steps with 293 atoms, finish time Tue Jan  3 15:36:20 2023


Pair  time (%) = 0.254919 (0.0206179)
Neigh time (%) = 0.628529 (0.0508354)
Comm  time (%) = 2.28483 (0.184797)
Outpt time (%) = 0.00069066 (5.58605e-05)
Other time (%) = 1233.23 (99.7437)

Nlocal:    7.325 ave 97 max 0 min
Histogram: 35 1 0 2 0 0 0 0 0 2
Nghost:    4.825 ave 61 max 0 min
Histogram: 36 0 0 0 0 0 1 2 0 1
Neighs:    2.075 ave 31 max 0 min
Histogram: 36 0 0 2 0 0 0 0 0 2

Total # of neighbors = 83
Ave neighs/atom = 0.283276
Neighbor list builds = 3551
Dangerous builds = 0
write_dump all custom dump.atom_info_ac_* id type x y z radius vx vy vz density #
run 123456
Setting up run at Tue Jan  3 15:36:20 2023

Memory usage per processor = 958.583 Mbytes
    Step    Atoms         KinEng            CPU 
 3086402      293     0.33896644              0 
 3209858      293     0.27565047      1233.6931 
Loop time of 1233.69 on 40 procs for 123456 steps with 293 atoms, finish time Tue Jan  3 15:56:54 2023


Pair  time (%) = 0.250208 (0.0202812)
Neigh time (%) = 0.552103 (0.0447521)
Comm  time (%) = 2.1883 (0.177378)
Outpt time (%) = 0.000661574 (5.36255e-05)
Other time (%) = 1230.7 (99.7575)

Nlocal:    7.325 ave 96 max 0 min
Histogram: 35 1 0 2 0 0 0 0 0 2
Nghost:    4.75 ave 60 max 0 min
Histogram: 36 0 0 0 0 0 2 1 0 1
Neighs:    2 ave 31 max 0 min
Histogram: 36 0 1 1 0 0 0 0 0 2

Total # of neighbors = 80
Ave neighs/atom = 0.273038
Neighbor list builds = 3078
Dangerous builds = 0
write_dump all custom dump.atom_info_ac_* id type x y z radius vx vy vz density #
run 123456
Setting up run at Tue Jan  3 15:56:54 2023

Memory usage per processor = 958.583 Mbytes
    Step    Atoms         KinEng            CPU 
 3209858      293     0.27565047              0 
 3333314      292     0.20422945      1233.1578 
Loop time of 1233.16 on 40 procs for 123456 steps with 292 atoms, finish time Tue Jan  3 16:17:27 2023


Pair  time (%) = 0.247774 (0.0200926)
Neigh time (%) = 0.506191 (0.0410483)
Comm  time (%) = 1.84217 (0.149386)
Outpt time (%) = 0.000655252 (5.31361e-05)
Other time (%) = 1230.56 (99.7894)

Nlocal:    7.3 ave 94 max 0 min
Histogram: 36 0 0 1 1 0 0 0 0 2
Nghost:    4.675 ave 61 max 0 min
Histogram: 36 0 0 0 0 1 2 0 0 1
Neighs:    1.975 ave 30 max 0 min
Histogram: 36 0 1 0 1 0 0 0 0 2

Total # of neighbors = 79
Ave neighs/atom = 0.270548
Neighbor list builds = 2815
Dangerous builds = 0
write_dump all custom dump.atom_info_ac_* id type x y z radius vx vy vz density #
run 123456
Setting up run at Tue Jan  3 16:17:27 2023

Memory usage per processor = 958.583 Mbytes
    Step    Atoms         KinEng            CPU 
 3333314      292     0.20422945              0 
 3456770      292     0.17819756        1228.28 
Loop time of 1228.28 on 40 procs for 123456 steps with 292 atoms, finish time Tue Jan  3 16:37:56 2023


Pair  time (%) = 0.242567 (0.0197485)
Neigh time (%) = 0.400431 (0.032601)
Comm  time (%) = 1.56339 (0.127283)
Outpt time (%) = 0.000625271 (5.09062e-05)
Other time (%) = 1226.07 (99.8203)

Nlocal:    7.3 ave 94 max 0 min
Histogram: 35 1 0 1 1 0 0 0 0 2
Nghost:    4.8 ave 61 max 0 min
Histogram: 36 0 0 0 0 0 2 1 0 1
Neighs:    1.9 ave 29 max 0 min
Histogram: 36 0 1 0 1 0 0 0 1 1

Total # of neighbors = 76
Ave neighs/atom = 0.260274
Neighbor list builds = 2219
Dangerous builds = 0
write_dump all custom dump.atom_info_ac_* id type x y z radius vx vy vz density #
run 123456
Setting up run at Tue Jan  3 16:37:56 2023

Memory usage per processor = 958.583 Mbytes
    Step    Atoms         KinEng            CPU 
 3456770      292     0.17819756              0 
 3580226      292     0.15134468      1227.5185 
Loop time of 1227.52 on 40 procs for 123456 steps with 292 atoms, finish time Tue Jan  3 16:58:23 2023


Pair  time (%) = 0.243865 (0.0198665)
Neigh time (%) = 0.323553 (0.0263583)
Comm  time (%) = 1.56568 (0.127548)
Outpt time (%) = 0.000560743 (4.5681e-05)
Other time (%) = 1225.39 (99.8262)

Nlocal:    7.3 ave 94 max 0 min
Histogram: 35 1 0 2 0 0 0 0 0 2
Nghost:    4.725 ave 60 max 0 min
Histogram: 36 0 0 0 0 0 2 1 0 1
Neighs:    1.875 ave 28 max 0 min
Histogram: 36 0 1 0 1 0 0 0 0 2

Total # of neighbors = 75
Ave neighs/atom = 0.256849
Neighbor list builds = 1817
Dangerous builds = 0
write_dump all custom dump.atom_info_ac_* id type x y z radius vx vy vz density #
run 123456
Setting up run at Tue Jan  3 16:58:23 2023

Memory usage per processor = 958.583 Mbytes
    Step    Atoms         KinEng            CPU 
 3580226      292     0.15134468              0 
 3703682      292     0.12348635      1231.7086 
Loop time of 1231.71 on 40 procs for 123456 steps with 292 atoms, finish time Tue Jan  3 17:18:55 2023


Pair  time (%) = 0.246366 (0.020002)
Neigh time (%) = 0.445644 (0.036181)
Comm  time (%) = 1.67471 (0.135966)
Outpt time (%) = 0.000683172 (5.54654e-05)
Other time (%) = 1229.34 (99.8078)

Nlocal:    7.3 ave 92 max 0 min
Histogram: 34 2 0 0 2 0 0 0 0 2
Nghost:    4.725 ave 62 max 0 min
Histogram: 36 0 0 0 0 1 1 1 0 1
Neighs:    1.85 ave 27 max 0 min
Histogram: 36 0 0 1 1 0 0 0 0 2

Total # of neighbors = 74
Ave neighs/atom = 0.253425
Neighbor list builds = 2502
Dangerous builds = 0
write_dump all custom dump.atom_info_ac_* id type x y z radius vx vy vz density #
run 123456
Setting up run at Tue Jan  3 17:18:55 2023

Memory usage per processor = 958.583 Mbytes
    Step    Atoms         KinEng            CPU 
 3703682      292     0.12348635              0 
 3827138      291     0.11848797      1226.8337 
Loop time of 1226.83 on 40 procs for 123456 steps with 291 atoms, finish time Tue Jan  3 17:39:22 2023


Pair  time (%) = 0.2412 (0.0196603)
Neigh time (%) = 0.317878 (0.0259104)
Comm  time (%) = 1.38428 (0.112834)
Outpt time (%) = 0.000704535 (5.74271e-05)
Other time (%) = 1224.89 (99.8415)

Nlocal:    7.275 ave 92 max 0 min
Histogram: 35 1 0 0 1 1 0 0 0 2
Nghost:    4.65 ave 60 max 0 min
Histogram: 36 0 0 0 0 0 2 1 0 1
Neighs:    1.9 ave 27 max 0 min
Histogram: 36 0 0 0 2 0 0 0 0 2

Total # of neighbors = 76
Ave neighs/atom = 0.261168
Neighbor list builds = 1764
Dangerous builds = 0
write_dump all custom dump.atom_info_ac_* id type x y z radius vx vy vz density #
run 123456
Setting up run at Tue Jan  3 17:39:22 2023

Memory usage per processor = 958.583 Mbytes
    Step    Atoms         KinEng            CPU 
 3827138      291     0.11848797              0 
 3950594      291    0.094646529      1226.3525 
Loop time of 1226.35 on 40 procs for 123456 steps with 291 atoms, finish time Tue Jan  3 17:59:48 2023


Pair  time (%) = 0.243339 (0.0198425)
Neigh time (%) = 0.243459 (0.0198522)
Comm  time (%) = 1.20173 (0.0979925)
Outpt time (%) = 0.000713824 (5.82071e-05)
Other time (%) = 1224.66 (99.8623)

Nlocal:    7.275 ave 92 max 0 min
Histogram: 35 1 0 0 2 0 0 0 0 2
Nghost:    4.675 ave 58 max 0 min
Histogram: 36 0 0 0 0 0 2 1 0 1
Neighs:    2 ave 27 max 0 min
Histogram: 36 0 0 0 1 1 0 0 0 2

Total # of neighbors = 80
Ave neighs/atom = 0.274914
Neighbor list builds = 1388
Dangerous builds = 0
write_dump all custom dump.atom_info_ac_* id type x y z radius vx vy vz density #
run 123456
Setting up run at Tue Jan  3 17:59:48 2023

Memory usage per processor = 958.583 Mbytes
    Step    Atoms         KinEng            CPU 
 3950594      291    0.094646529              0 
 4074050      291    0.091139048      1229.4167 
Loop time of 1229.42 on 40 procs for 123456 steps with 291 atoms, finish time Tue Jan  3 18:20:18 2023


Pair  time (%) = 0.245671 (0.0199828)
Neigh time (%) = 0.307598 (0.0250199)
Comm  time (%) = 1.60238 (0.130336)
Outpt time (%) = 0.000666151 (5.41843e-05)
Other time (%) = 1227.26 (99.8246)

Nlocal:    7.275 ave 95 max 0 min
Histogram: 34 2 0 1 1 0 0 0 1 1
Nghost:    4.6 ave 53 max 0 min
Histogram: 36 0 0 0 0 0 1 1 0 2
Neighs:    1.9 ave 28 max 0 min
Histogram: 36 0 1 1 0 0 0 0 0 2

Total # of neighbors = 76
Ave neighs/atom = 0.261168
Neighbor list builds = 1759
Dangerous builds = 0
write_dump all custom dump.atom_info_ac_* id type x y z radius vx vy vz density #
run 123456
Setting up run at Tue Jan  3 18:20:18 2023

Memory usage per processor = 958.583 Mbytes
    Step    Atoms         KinEng            CPU 
 4074050      291    0.091139048              0 
 4197506      290    0.086677765       1225.879 
Loop time of 1225.88 on 40 procs for 123456 steps with 290 atoms, finish time Tue Jan  3 18:40:44 2023


Pair  time (%) = 0.240945 (0.0196549)
Neigh time (%) = 0.252708 (0.0206144)
Comm  time (%) = 1.21242 (0.0989021)
Outpt time (%) = 0.000650855 (5.30929e-05)
Other time (%) = 1224.17 (99.8608)

Nlocal:    7.25 ave 94 max 0 min
Histogram: 33 3 0 2 0 0 0 0 1 1
Nghost:    4.65 ave 52 max 0 min
Histogram: 36 0 0 0 0 0 0 1 1 2
Neighs:    1.85 ave 28 max 0 min
Histogram: 36 0 1 1 0 0 0 0 0 2

Total # of neighbors = 74
Ave neighs/atom = 0.255172
Neighbor list builds = 1425
Dangerous builds = 25
write_dump all custom dump.atom_info_ac_* id type x y z radius vx vy vz density #
run 123456
Setting up run at Tue Jan  3 18:40:44 2023

Memory usage per processor = 958.583 Mbytes
    Step    Atoms         KinEng            CPU 
 4197506      290    0.086677765              0 
 4320962      289    0.083284666      1228.4201 
Loop time of 1228.42 on 40 procs for 123456 steps with 289 atoms, finish time Tue Jan  3 19:01:12 2023


Pair  time (%) = 0.240337 (0.0195647)
Neigh time (%) = 0.32456 (0.0264209)
Comm  time (%) = 1.32132 (0.107563)
Outpt time (%) = 0.000683205 (5.56166e-05)
Other time (%) = 1226.53 (99.8464)

Nlocal:    7.225 ave 93 max 0 min
Histogram: 33 3 0 2 0 0 0 0 1 1
Nghost:    4.65 ave 52 max 0 min
Histogram: 36 0 0 0 0 0 1 0 1 2
Neighs:    2.075 ave 30 max 0 min
Histogram: 35 1 0 2 0 0 0 0 0 2

Total # of neighbors = 83
Ave neighs/atom = 0.287197
Neighbor list builds = 1882
Dangerous builds = 1
write_dump all custom dump.atom_info_ac_* id type x y z radius vx vy vz density #
run 123456
Setting up run at Tue Jan  3 19:01:12 2023

Memory usage per processor = 958.583 Mbytes
    Step    Atoms         KinEng            CPU 
 4320962      289    0.083284666              0 
 4444418      287    0.078581088      1232.4197 
Loop time of 1232.42 on 40 procs for 123456 steps with 287 atoms, finish time Tue Jan  3 19:21:45 2023


Pair  time (%) = 0.241727 (0.019614)
Neigh time (%) = 0.478324 (0.0388118)
Comm  time (%) = 1.87487 (0.152129)
Outpt time (%) = 0.000639662 (5.1903e-05)
Other time (%) = 1229.82 (99.7894)

Nlocal:    7.175 ave 92 max 0 min
Histogram: 34 2 0 1 1 0 0 0 1 1
Nghost:    4.65 ave 54 max 0 min
Histogram: 36 0 0 0 0 0 1 1 1 1
Neighs:    1.875 ave 32 max 0 min
Histogram: 36 1 1 0 0 0 0 0 0 2

Total # of neighbors = 75
Ave neighs/atom = 0.261324
Neighbor list builds = 2750
Dangerous builds = 206
write_dump all custom dump.atom_info_ac_* id type x y z radius vx vy vz density #
run 123456
Setting up run at Tue Jan  3 19:21:45 2023

Memory usage per processor = 958.583 Mbytes
    Step    Atoms         KinEng            CPU 
 4444418      287    0.078581088              0 
 4567874      287    0.069343459      1234.2944 
Loop time of 1234.29 on 40 procs for 123456 steps with 287 atoms, finish time Tue Jan  3 19:42:19 2023


Pair  time (%) = 0.243086 (0.0196943)
Neigh time (%) = 0.507871 (0.0411466)
Comm  time (%) = 2.10832 (0.170812)
Outpt time (%) = 0.000644371 (5.22056e-05)
Other time (%) = 1231.43 (99.7683)

Nlocal:    7.175 ave 92 max 0 min
Histogram: 32 4 0 1 1 0 0 0 1 1
Nghost:    4.45 ave 51 max 0 min
Histogram: 36 0 0 0 0 0 0 2 1 1
Neighs:    2.025 ave 35 max 0 min
Histogram: 36 1 1 0 0 0 0 0 1 1

Total # of neighbors = 81
Ave neighs/atom = 0.28223
Neighbor list builds = 2829
Dangerous builds = 0
write_dump all custom dump.atom_info_ac_* id type x y z radius vx vy vz density #
run 123456
Setting up run at Tue Jan  3 19:42:19 2023

Memory usage per processor = 958.583 Mbytes
    Step    Atoms         KinEng            CPU 
 4567874      287    0.069343459              0 
 4691330      287    0.068069594      1224.4886 
Loop time of 1224.49 on 40 procs for 123456 steps with 287 atoms, finish time Tue Jan  3 20:02:44 2023


Pair  time (%) = 0.240727 (0.0196594)
Neigh time (%) = 0.179345 (0.0146465)
Comm  time (%) = 1.03493 (0.0845196)
Outpt time (%) = 0.000728682 (5.95091e-05)
Other time (%) = 1223.03 (99.8811)

Nlocal:    7.175 ave 92 max 0 min
Histogram: 33 3 0 1 1 0 0 0 0 2
Nghost:    4.225 ave 47 max 0 min
Histogram: 36 0 0 0 0 0 0 1 1 2
Neighs:    1.8 ave 33 max 0 min
Histogram: 36 1 1 0 0 0 0 1 0 1

Total # of neighbors = 72
Ave neighs/atom = 0.250871
Neighbor list builds = 1001
Dangerous builds = 0
write_dump all custom dump.atom_info_ac_* id type x y z radius vx vy vz density #
run 123456
Setting up run at Tue Jan  3 20:02:44 2023

Memory usage per processor = 958.583 Mbytes
    Step    Atoms         KinEng            CPU 
 4691330      287    0.068069594              0 
 4814786      287    0.073823996      1224.8357 
Loop time of 1224.84 on 40 procs for 123456 steps with 287 atoms, finish time Tue Jan  3 20:23:09 2023


Pair  time (%) = 0.238798 (0.0194963)
Neigh time (%) = 0.193782 (0.015821)
Comm  time (%) = 1.10395 (0.0901305)
Outpt time (%) = 0.000644947 (5.26558e-05)
Other time (%) = 1223.3 (99.8745)

Nlocal:    7.175 ave 92 max 0 min
Histogram: 33 3 0 1 1 0 0 0 1 1
Nghost:    4.3 ave 46 max 0 min
Histogram: 36 0 0 0 0 0 0 1 1 2
Neighs:    1.7 ave 31 max 0 min
Histogram: 36 1 1 0 0 0 0 1 0 1

Total # of neighbors = 68
Ave neighs/atom = 0.236934
Neighbor list builds = 1106
Dangerous builds = 0
write_dump all custom dump.atom_info_ac_* id type x y z radius vx vy vz density #
run 123456
Setting up run at Tue Jan  3 20:23:09 2023

Memory usage per processor = 958.583 Mbytes
    Step    Atoms         KinEng            CPU 
 4814786      287    0.073823996              0 
 4938242      287    0.072404668      1233.6311 
Loop time of 1233.63 on 40 procs for 123456 steps with 287 atoms, finish time Tue Jan  3 20:43:42 2023


Pair  time (%) = 0.244182 (0.0197938)
Neigh time (%) = 0.476537 (0.0386288)
Comm  time (%) = 2.1939 (0.17784)
Outpt time (%) = 0.000696374 (5.64492e-05)
Other time (%) = 1230.72 (99.7637)

Nlocal:    7.175 ave 91 max 0 min
Histogram: 34 2 0 1 1 0 0 0 1 1
Nghost:    4.35 ave 44 max 0 min
Histogram: 36 0 0 0 0 0 1 0 0 3
Neighs:    1.85 ave 33 max 0 min
Histogram: 36 0 2 0 0 0 0 1 0 1

Total # of neighbors = 74
Ave neighs/atom = 0.25784
Neighbor list builds = 2681
Dangerous builds = 0
write_dump all custom dump.atom_info_ac_* id type x y z radius vx vy vz density #
run 123456
Setting up run at Tue Jan  3 20:43:42 2023

Memory usage per processor = 958.583 Mbytes
    Step    Atoms         KinEng            CPU 
 4938242      287    0.072404668              0 
 5061698      286     0.20168126      1235.5493 
Loop time of 1235.55 on 40 procs for 123456 steps with 286 atoms, finish time Tue Jan  3 21:04:18 2023


Pair  time (%) = 0.245918 (0.0199036)
Neigh time (%) = 0.650473 (0.0526465)
Comm  time (%) = 3.19062 (0.258235)
Outpt time (%) = 0.000631316 (5.1096e-05)
Other time (%) = 1231.46 (99.6692)

Nlocal:    7.15 ave 91 max 0 min
Histogram: 34 2 0 0 2 0 0 0 1 1
Nghost:    4.1 ave 44 max 0 min
Histogram: 36 0 0 0 0 0 0 1 0 3
Neighs:    1.8 ave 30 max 0 min
Histogram: 36 0 1 1 0 0 0 0 1 1

Total # of neighbors = 72
Ave neighs/atom = 0.251748
Neighbor list builds = 3727
Dangerous builds = 189
write_dump all custom dump.atom_info_ac_* id type x y z radius vx vy vz density #
run 123456
Setting up run at Tue Jan  3 21:04:18 2023

Memory usage per processor = 958.583 Mbytes
    Step    Atoms         KinEng            CPU 
 5061698      286     0.20168126              0 
 5185154      285     0.23217444      1245.6464 
Loop time of 1245.65 on 40 procs for 123456 steps with 285 atoms, finish time Tue Jan  3 21:25:04 2023


Pair  time (%) = 0.245888 (0.0197398)
Neigh time (%) = 0.957314 (0.0768528)
Comm  time (%) = 3.63076 (0.291476)
Outpt time (%) = 0.000688926 (5.53067e-05)
Other time (%) = 1240.81 (99.6119)

Nlocal:    7.125 ave 89 max 0 min
Histogram: 33 3 0 1 1 0 0 0 1 1
Nghost:    4.05 ave 43 max 0 min
Histogram: 36 0 0 0 0 0 0 1 0 3
Neighs:    1.675 ave 29 max 0 min
Histogram: 36 0 1 1 0 0 0 1 0 1

Total # of neighbors = 67
Ave neighs/atom = 0.235088
Neighbor list builds = 5448
Dangerous builds = 0
write_dump all custom dump.atom_info_ac_* id type x y z radius vx vy vz density #
run 123456
Setting up run at Tue Jan  3 21:25:04 2023

Memory usage per processor = 958.583 Mbytes
    Step    Atoms         KinEng            CPU 
 5185154      285     0.23217444              0 
 5308610      281     0.15512302      1242.2809 
Loop time of 1242.28 on 40 procs for 123456 steps with 281 atoms, finish time Tue Jan  3 21:45:46 2023


Pair  time (%) = 0.24467 (0.0196953)
Neigh time (%) = 0.830279 (0.066835)
Comm  time (%) = 3.22841 (0.259878)
Outpt time (%) = 0.000678821 (5.46431e-05)
Other time (%) = 1237.98 (99.6535)

Nlocal:    7.025 ave 87 max 0 min
Histogram: 33 3 0 1 1 0 0 0 0 2
Nghost:    4.025 ave 41 max 0 min
Histogram: 36 0 0 0 0 0 0 1 0 3
Neighs:    1.7 ave 29 max 0 min
Histogram: 36 0 2 0 0 0 0 0 1 1

Total # of neighbors = 68
Ave neighs/atom = 0.241993
Neighbor list builds = 4768
Dangerous builds = 333
write_dump all custom dump.atom_info_ac_* id type x y z radius vx vy vz density #
run 123456
Setting up run at Tue Jan  3 21:45:46 2023

Memory usage per processor = 958.583 Mbytes
    Step    Atoms         KinEng            CPU 
 5308610      281     0.15512302              0 
 5432066      279     0.14808618      1241.2113 
Loop time of 1241.21 on 40 procs for 123456 steps with 279 atoms, finish time Tue Jan  3 22:06:27 2023


Pair  time (%) = 0.245611 (0.019788)
Neigh time (%) = 0.804145 (0.0647871)
Comm  time (%) = 3.21133 (0.258725)
Outpt time (%) = 0.000582726 (4.69481e-05)
Other time (%) = 1236.95 (99.6567)

Nlocal:    6.975 ave 85 max 0 min
Histogram: 32 3 2 0 1 0 0 0 0 2
Nghost:    3.7 ave 41 max 0 min
Histogram: 36 0 0 0 0 0 1 0 2 1
Neighs:    1.75 ave 29 max 0 min
Histogram: 36 1 1 0 0 0 0 0 1 1

Total # of neighbors = 70
Ave neighs/atom = 0.250896
Neighbor list builds = 4696
Dangerous builds = 508
write_dump all custom dump.atom_info_ac_* id type x y z radius vx vy vz density #
run 123456
Setting up run at Tue Jan  3 22:06:27 2023

Memory usage per processor = 958.583 Mbytes
    Step    Atoms         KinEng            CPU 
 5432066      279     0.14808618              0 
 5555522      278     0.38777056      1247.0497 
Loop time of 1247.05 on 40 procs for 123456 steps with 278 atoms, finish time Tue Jan  3 22:27:14 2023


Pair  time (%) = 0.246703 (0.0197829)
Neigh time (%) = 0.997574 (0.0799947)
Comm  time (%) = 3.95757 (0.317354)
Outpt time (%) = 0.00059279 (4.75354e-05)
Other time (%) = 1241.85 (99.5828)

Nlocal:    6.95 ave 83 max 0 min
Histogram: 33 3 0 1 1 0 0 0 0 2
Nghost:    3.675 ave 41 max 0 min
Histogram: 36 0 0 0 0 0 1 1 0 2
Neighs:    1.625 ave 31 max 0 min
Histogram: 36 2 0 0 0 0 0 1 0 1

Total # of neighbors = 65
Ave neighs/atom = 0.233813
Neighbor list builds = 5669
Dangerous builds = 261
write_dump all custom dump.atom_info_ac_* id type x y z radius vx vy vz density #
run 123456
Setting up run at Tue Jan  3 22:27:15 2023

Memory usage per processor = 958.583 Mbytes
    Step    Atoms         KinEng            CPU 
 5555522      278     0.38777056              0 
 5678978      277     0.40594516      1253.5487 
Loop time of 1253.55 on 40 procs for 123456 steps with 277 atoms, finish time Tue Jan  3 22:48:08 2023


Pair  time (%) = 0.245667 (0.0195977)
Neigh time (%) = 1.06271 (0.0847761)
Comm  time (%) = 4.17671 (0.333191)
Outpt time (%) = 0.000633954 (5.05728e-05)
Other time (%) = 1248.06 (99.5624)

Nlocal:    6.925 ave 86 max 0 min
Histogram: 34 2 0 1 1 0 0 0 1 1
Nghost:    3.725 ave 40 max 0 min
Histogram: 36 0 0 0 0 0 0 1 1 2
Neighs:    1.625 ave 29 max 0 min
Histogram: 36 2 0 0 0 0 0 0 1 1

Total # of neighbors = 65
Ave neighs/atom = 0.234657
Neighbor list builds = 5900
Dangerous builds = 23
write_dump all custom dump.atom_info_ac_* id type x y z radius vx vy vz density #
run 123456
Setting up run at Tue Jan  3 22:48:08 2023

Memory usage per processor = 958.583 Mbytes
    Step    Atoms         KinEng            CPU 
 5678978      277     0.40594516              0 
 5802434      276     0.42003848      1256.8837 
Loop time of 1256.88 on 40 procs for 123456 steps with 276 atoms, finish time Tue Jan  3 23:09:05 2023


Pair  time (%) = 0.251023 (0.0199719)
Neigh time (%) = 1.38605 (0.110276)
Comm  time (%) = 5.78882 (0.460569)
Outpt time (%) = 0.000631578 (5.02495e-05)
Other time (%) = 1249.46 (99.4091)

Nlocal:    6.9 ave 86 max 0 min
Histogram: 32 3 2 0 1 0 0 0 1 1
Nghost:    3.7 ave 39 max 0 min
Histogram: 35 1 0 0 0 0 0 1 2 1
Neighs:    1.75 ave 29 max 0 min
Histogram: 35 3 0 0 0 0 0 0 0 2

Total # of neighbors = 70
Ave neighs/atom = 0.253623
Neighbor list builds = 7784
Dangerous builds = 145
write_dump all custom dump.atom_info_ac_* id type x y z radius vx vy vz density #
run 123456
Setting up run at Tue Jan  3 23:09:05 2023

Memory usage per processor = 958.583 Mbytes
    Step    Atoms         KinEng            CPU 
 5802434      276     0.42003848              0 
 5925890      276     0.44938916      1246.8461 
Loop time of 1246.85 on 40 procs for 123456 steps with 276 atoms, finish time Tue Jan  3 23:29:52 2023


Pair  time (%) = 0.246811 (0.0197948)
Neigh time (%) = 1.06187 (0.0851648)
Comm  time (%) = 4.3192 (0.34641)
Outpt time (%) = 0.00158068 (0.000126774)
Other time (%) = 1241.22 (99.5485)

Nlocal:    6.9 ave 84 max 0 min
Histogram: 34 1 1 1 0 1 0 0 1 1
Nghost:    3.7 ave 45 max 0 min
Histogram: 36 0 0 0 0 0 2 1 0 1
Neighs:    1.625 ave 29 max 0 min
Histogram: 37 0 1 0 0 0 0 0 0 2

Total # of neighbors = 65
Ave neighs/atom = 0.235507
Neighbor list builds = 5876
Dangerous builds = 0
write_dump all custom dump.atom_info_ac_* id type x y z radius vx vy vz density #
run 123456
Setting up run at Tue Jan  3 23:29:52 2023

Memory usage per processor = 958.583 Mbytes
    Step    Atoms         KinEng            CPU 
 5925890      276     0.44938916              0 
 6049346      274     0.32764307      1249.2208 
Loop time of 1249.22 on 40 procs for 123456 steps with 274 atoms, finish time Tue Jan  3 23:50:41 2023


Pair  time (%) = 0.243094 (0.0194596)
Neigh time (%) = 1.02464 (0.0820222)
Comm  time (%) = 3.79857 (0.304076)
Outpt time (%) = 0.000659364 (5.27821e-05)
Other time (%) = 1244.15 (99.5944)

Nlocal:    6.85 ave 84 max 0 min
Histogram: 33 2 2 0 1 0 0 0 1 1
Nghost:    3.875 ave 43 max 0 min
Histogram: 36 0 0 0 0 0 1 1 1 1
Neighs:    1.55 ave 29 max 0 min
Histogram: 37 0 1 0 0 0 0 0 1 1

Total # of neighbors = 62
Ave neighs/atom = 0.226277
Neighbor list builds = 5807
Dangerous builds = 160
write_dump all custom dump.atom_info_ac_* id type x y z radius vx vy vz density #
run 123456
Setting up run at Tue Jan  3 23:50:41 2023

Memory usage per processor = 958.583 Mbytes
    Step    Atoms         KinEng            CPU 
 6049346      274     0.32764307              0 
 6172802      274     0.31719155      1236.1356 
Loop time of 1236.14 on 40 procs for 123456 steps with 274 atoms, finish time Wed Jan  4 00:11:17 2023


Pair  time (%) = 0.235923 (0.0190855)
Neigh time (%) = 0.724449 (0.058606)
Comm  time (%) = 3.19144 (0.258179)
Outpt time (%) = 0.000617809 (4.99791e-05)
Other time (%) = 1231.98 (99.6641)

Nlocal:    6.85 ave 83 max 0 min
Histogram: 33 3 0 1 0 1 0 0 1 1
Nghost:    3.975 ave 44 max 0 min
Histogram: 36 0 0 0 0 0 1 1 1 1
Neighs:    1.75 ave 30 max 0 min
Histogram: 36 1 1 0 0 0 0 0 0 2

Total # of neighbors = 70
Ave neighs/atom = 0.255474
Neighbor list builds = 3982
Dangerous builds = 0
write_dump all custom dump.atom_info_ac_* id type x y z radius vx vy vz density #
run 123456
Setting up run at Wed Jan  4 00:11:18 2023

Memory usage per processor = 958.583 Mbytes
    Step    Atoms         KinEng            CPU 
 6172802      274     0.31719155              0 
 6296258      273     0.31141987      1244.8428 
Loop time of 1244.84 on 40 procs for 123456 steps with 273 atoms, finish time Wed Jan  4 00:32:02 2023


Pair  time (%) = 0.235961 (0.0189551)
Neigh time (%) = 0.72278 (0.0580619)
Comm  time (%) = 3.12785 (0.251264)
Outpt time (%) = 0.000683723 (5.49244e-05)
Other time (%) = 1240.76 (99.6717)

Nlocal:    6.825 ave 81 max 0 min
Histogram: 32 4 1 0 0 1 0 0 0 2
Nghost:    3.825 ave 41 max 0 min
Histogram: 36 0 0 0 0 0 0 1 1 2
Neighs:    1.7 ave 29 max 0 min
Histogram: 37 0 1 0 0 0 0 0 0 2

Total # of neighbors = 68
Ave neighs/atom = 0.249084
Neighbor list builds = 3986
Dangerous builds = 4
write_dump all custom dump.atom_info_ac_* id type x y z radius vx vy vz density #
run 123456
Setting up run at Wed Jan  4 00:32:03 2023

Memory usage per processor = 958.583 Mbytes
    Step    Atoms         KinEng            CPU 
 6296258      273     0.31141987              0 
 6419714      272     0.35240685      1242.0739 
Loop time of 1242.07 on 40 procs for 123456 steps with 272 atoms, finish time Wed Jan  4 00:52:45 2023


Pair  time (%) = 0.237885 (0.0191522)
Neigh time (%) = 0.765922 (0.0616648)
Comm  time (%) = 3.47475 (0.279754)
Outpt time (%) = 0.000639231 (5.14648e-05)
Other time (%) = 1237.59 (99.6394)

Nlocal:    6.8 ave 80 max 0 min
Histogram: 32 3 1 1 1 0 0 0 0 2
Nghost:    3.975 ave 40 max 0 min
Histogram: 36 0 0 0 0 0 0 0 2 2
Neighs:    1.775 ave 31 max 0 min
Histogram: 37 0 1 0 0 0 0 0 0 2

Total # of neighbors = 71
Ave neighs/atom = 0.261029
Neighbor list builds = 4297
Dangerous builds = 161
write_dump all custom dump.atom_info_ac_* id type x y z radius vx vy vz density #
run 123456
Setting up run at Wed Jan  4 00:52:45 2023

Memory usage per processor = 958.583 Mbytes
    Step    Atoms         KinEng            CPU 
 6419714      272     0.35240685              0 
 6543170      271     0.33938449      1241.2278 
Loop time of 1241.23 on 40 procs for 123456 steps with 271 atoms, finish time Wed Jan  4 01:13:26 2023


Pair  time (%) = 0.237677 (0.0191486)
Neigh time (%) = 0.823 (0.0663053)
Comm  time (%) = 3.85963 (0.310953)
Outpt time (%) = 0.000673362 (5.42497e-05)
Other time (%) = 1236.31 (99.6035)

Nlocal:    6.775 ave 78 max 0 min
Histogram: 33 2 1 1 0 1 0 0 0 2
Nghost:    3.8 ave 42 max 0 min
Histogram: 36 0 0 0 0 0 1 1 1 1
Neighs:    1.675 ave 27 max 0 min
Histogram: 36 1 0 1 0 0 0 0 0 2

Total # of neighbors = 67
Ave neighs/atom = 0.247232
Neighbor list builds = 4558
Dangerous builds = 0
write_dump all custom dump.atom_info_ac_* id type x y z radius vx vy vz density #
run 123456
Setting up run at Wed Jan  4 01:13:26 2023

Memory usage per processor = 958.583 Mbytes
    Step    Atoms         KinEng            CPU 
 6543170      271     0.33938449              0 
 6666626      271     0.31585498      1293.0928 
Loop time of 1293.09 on 40 procs for 123456 steps with 271 atoms, finish time Wed Jan  4 01:34:59 2023


Pair  time (%) = 0.237501 (0.0183669)
Neigh time (%) = 0.72341 (0.0559442)
Comm  time (%) = 3.48337 (0.269383)
Outpt time (%) = 0.000612483 (4.73657e-05)
Other time (%) = 1288.65 (99.6563)

Nlocal:    6.775 ave 77 max 0 min
Histogram: 32 4 0 1 1 0 0 0 0 2
Nghost:    3.7 ave 41 max 0 min
Histogram: 36 0 0 0 0 0 0 2 0 2
Neighs:    1.7 ave 29 max 0 min
Histogram: 37 0 0 1 0 0 0 0 1 1

Total # of neighbors = 68
Ave neighs/atom = 0.250923
Neighbor list builds = 3982
Dangerous builds = 0
write_dump all custom dump.atom_info_ac_* id type x y z radius vx vy vz density #
run 123456
Setting up run at Wed Jan  4 01:34:59 2023

Memory usage per processor = 958.583 Mbytes
    Step    Atoms         KinEng            CPU 
 6666626      271     0.31585498              0 
 6790082      269     0.31611043      1236.3474 
Loop time of 1236.35 on 40 procs for 123456 steps with 269 atoms, finish time Wed Jan  4 01:55:36 2023


Pair  time (%) = 0.238678 (0.0193051)
Neigh time (%) = 0.802447 (0.0649047)
Comm  time (%) = 4.2552 (0.344175)
Outpt time (%) = 0.000658388 (5.32527e-05)
Other time (%) = 1231.05 (99.5716)

Nlocal:    6.725 ave 77 max 0 min
Histogram: 32 3 1 1 0 1 0 0 0 2
Nghost:    3.9 ave 44 max 0 min
Histogram: 36 0 0 0 0 0 2 0 1 1
Neighs:    1.675 ave 30 max 0 min
Histogram: 37 0 0 0 1 0 0 1 0 1

Total # of neighbors = 67
Ave neighs/atom = 0.249071
Neighbor list builds = 4803
Dangerous builds = 847
write_dump all custom dump.atom_info_ac_* id type x y z radius vx vy vz density #
run 123456
Setting up run at Wed Jan  4 01:55:36 2023

Memory usage per processor = 958.583 Mbytes
    Step    Atoms         KinEng            CPU 
 6790082      269     0.31611043              0 
 6913538      268     0.32770202      1247.4755 
Loop time of 1247.48 on 40 procs for 123456 steps with 268 atoms, finish time Wed Jan  4 02:16:23 2023


Pair  time (%) = 0.239583 (0.0192054)
Neigh time (%) = 0.866328 (0.0694465)
Comm  time (%) = 3.67092 (0.294268)
Outpt time (%) = 0.000646424 (5.18186e-05)
Other time (%) = 1242.7 (99.617)

Nlocal:    6.7 ave 76 max 0 min
Histogram: 33 1 2 1 0 1 0 0 0 2
Nghost:    3.7 ave 43 max 0 min
Histogram: 36 0 0 0 0 0 2 0 1 1
Neighs:    1.6 ave 28 max 0 min
Histogram: 37 0 0 1 0 0 0 0 1 1

Total # of neighbors = 64
Ave neighs/atom = 0.238806
Neighbor list builds = 4811
Dangerous builds = 1
write_dump all custom dump.atom_info_ac_* id type x y z radius vx vy vz density #
run 123456
Setting up run at Wed Jan  4 02:16:23 2023

Memory usage per processor = 958.583 Mbytes
    Step    Atoms         KinEng            CPU 
 6913538      268     0.32770202              0 
 7036994      267     0.32340012      1239.3412 
Loop time of 1239.34 on 40 procs for 123456 steps with 267 atoms, finish time Wed Jan  4 02:37:03 2023


Pair  time (%) = 0.238049 (0.0192077)
Neigh time (%) = 0.759032 (0.0612448)
Comm  time (%) = 3.2756 (0.264302)
Outpt time (%) = 0.000716056 (5.77772e-05)
Other time (%) = 1235.07 (99.6552)

Nlocal:    6.675 ave 74 max 0 min
Histogram: 32 1 3 1 0 1 0 0 0 2
Nghost:    3.525 ave 44 max 0 min
Histogram: 36 0 0 0 0 1 1 0 1 1
Neighs:    1.575 ave 28 max 0 min
Histogram: 37 0 0 1 0 0 0 1 0 1

Total # of neighbors = 63
Ave neighs/atom = 0.235955
Neighbor list builds = 4188
Dangerous builds = 1
write_dump all custom dump.atom_info_ac_* id type x y z radius vx vy vz density #
run 123456
Setting up run at Wed Jan  4 02:37:03 2023

Memory usage per processor = 958.583 Mbytes
    Step    Atoms         KinEng            CPU 
 7036994      267     0.32340012              0 
 7160450      267     0.32118708      1237.6334 
Loop time of 1237.63 on 40 procs for 123456 steps with 267 atoms, finish time Wed Jan  4 02:57:40 2023


Pair  time (%) = 0.238855 (0.0192994)
Neigh time (%) = 0.729496 (0.0589428)
Comm  time (%) = 2.90777 (0.234946)
Outpt time (%) = 0.000664558 (5.36959e-05)
Other time (%) = 1233.76 (99.6868)

Nlocal:    6.675 ave 75 max 0 min
Histogram: 32 1 4 0 1 0 0 0 0 2
Nghost:    3.575 ave 41 max 0 min
Histogram: 36 0 0 0 0 0 2 0 1 1
Neighs:    1.475 ave 25 max 0 min
Histogram: 37 0 0 0 1 0 0 0 1 1

Total # of neighbors = 59
Ave neighs/atom = 0.220974
Neighbor list builds = 3982
Dangerous builds = 0
write_dump all custom dump.atom_info_ac_* id type x y z radius vx vy vz density #
run 123456
Setting up run at Wed Jan  4 02:57:40 2023

Memory usage per processor = 958.583 Mbytes
    Step    Atoms         KinEng            CPU 
 7160450      267     0.32118708              0 
 7283906      265     0.33158379      1237.9174 
Loop time of 1237.92 on 40 procs for 123456 steps with 265 atoms, finish time Wed Jan  4 03:18:18 2023


Pair  time (%) = 0.238802 (0.0192906)
Neigh time (%) = 0.82862 (0.0669366)
Comm  time (%) = 3.49705 (0.282494)
Outpt time (%) = 0.000600347 (4.84965e-05)
Other time (%) = 1233.35 (99.6312)

Nlocal:    6.625 ave 74 max 0 min
Histogram: 32 2 3 0 0 1 0 0 0 2
Nghost:    3.575 ave 46 max 0 min
Histogram: 36 0 0 0 0 2 0 1 0 1
Neighs:    1.6 ave 24 max 0 min
Histogram: 36 1 0 0 1 0 0 0 0 2

Total # of neighbors = 64
Ave neighs/atom = 0.241509
Neighbor list builds = 4754
Dangerous builds = 118
write_dump all custom dump.atom_info_ac_* id type x y z radius vx vy vz density #
run 123456
Setting up run at Wed Jan  4 03:18:18 2023

Memory usage per processor = 958.583 Mbytes
    Step    Atoms         KinEng            CPU 
 7283906      265     0.33158379              0 
 7407362      264     0.33906681      1239.8762 
Loop time of 1239.89 on 40 procs for 123456 steps with 264 atoms, finish time Wed Jan  4 03:38:58 2023


Pair  time (%) = 0.237125 (0.0191247)
Neigh time (%) = 0.72568 (0.0585278)
Comm  time (%) = 3.17211 (0.255838)
Outpt time (%) = 0.00163073 (0.000131522)
Other time (%) = 1235.75 (99.6664)

Nlocal:    6.6 ave 72 max 0 min
Histogram: 32 3 1 1 0 1 0 0 0 2
Nghost:    3.375 ave 40 max 0 min
Histogram: 36 0 0 0 0 1 1 0 0 2
Neighs:    1.525 ave 25 max 0 min
Histogram: 37 0 0 1 0 0 0 0 0 2

Total # of neighbors = 61
Ave neighs/atom = 0.231061
Neighbor list builds = 3987
Dangerous builds = 48
write_dump all custom dump.atom_info_ac_* id type x y z radius vx vy vz density #
run 123456
Setting up run at Wed Jan  4 03:38:58 2023

Memory usage per processor = 958.583 Mbytes
    Step    Atoms         KinEng            CPU 
 7407362      264     0.33906681              0 
 7530818      262     0.34218912        1247.05 
Loop time of 1247.05 on 40 procs for 123456 steps with 262 atoms, finish time Wed Jan  4 03:59:45 2023


Pair  time (%) = 0.242167 (0.0194192)
Neigh time (%) = 0.738638 (0.0592308)
Comm  time (%) = 3.23831 (0.259678)
Outpt time (%) = 0.000749033 (6.00644e-05)
Other time (%) = 1242.83 (99.6616)

Nlocal:    6.55 ave 72 max 0 min
Histogram: 32 1 3 1 1 0 0 0 0 2
Nghost:    3.4 ave 39 max 0 min
Histogram: 36 0 0 0 0 0 2 0 1 1
Neighs:    1.45 ave 25 max 0 min
Histogram: 37 0 0 1 0 0 0 0 1 1

Total # of neighbors = 58
Ave neighs/atom = 0.221374
Neighbor list builds = 4182
Dangerous builds = 206
write_dump all custom dump.atom_info_ac_* id type x y z radius vx vy vz density #
run 123456
Setting up run at Wed Jan  4 03:59:45 2023

Memory usage per processor = 958.583 Mbytes
    Step    Atoms         KinEng            CPU 
 7530818      262     0.34218912              0 
 7654274      260     0.34197074      1237.0017 
Loop time of 1237 on 40 procs for 123456 steps with 260 atoms, finish time Wed Jan  4 04:20:22 2023


Pair  time (%) = 0.238519 (0.019282)
Neigh time (%) = 0.683275 (0.0552364)
Comm  time (%) = 3.05823 (0.247229)
Outpt time (%) = 0.000641416 (5.18525e-05)
Other time (%) = 1233.02 (99.6782)

Nlocal:    6.5 ave 74 max 0 min
Histogram: 32 3 1 1 0 1 0 0 0 2
Nghost:    3.425 ave 39 max 0 min
Histogram: 34 2 0 0 0 1 1 0 1 1
Neighs:    1.475 ave 25 max 0 min
Histogram: 36 1 0 1 0 0 0 0 1 1

Total # of neighbors = 59
Ave neighs/atom = 0.226923
Neighbor list builds = 3772
Dangerous builds = 79
write_dump all custom dump.atom_info_ac_* id type x y z radius vx vy vz density #
run 123456
Setting up run at Wed Jan  4 04:20:22 2023

Memory usage per processor = 958.583 Mbytes
    Step    Atoms         KinEng            CPU 
 7654274      260     0.34197074              0 
 7777730      258     0.35449686      1243.1191 
Loop time of 1243.12 on 40 procs for 123456 steps with 258 atoms, finish time Wed Jan  4 04:41:06 2023


Pair  time (%) = 0.239882 (0.0192967)
Neigh time (%) = 0.741316 (0.0596335)
Comm  time (%) = 4.17793 (0.336084)
Outpt time (%) = 0.000697152 (5.60809e-05)
Other time (%) = 1237.96 (99.5849)

Nlocal:    6.45 ave 70 max 0 min
Histogram: 33 0 2 2 0 1 0 0 0 2
Nghost:    3.175 ave 33 max 0 min
Histogram: 36 0 0 0 0 0 0 1 1 2
Neighs:    1.475 ave 24 max 0 min
Histogram: 36 1 0 1 0 0 0 0 1 1

Total # of neighbors = 59
Ave neighs/atom = 0.228682
Neighbor list builds = 4109
Dangerous builds = 2
write_dump all custom dump.atom_info_ac_* id type x y z radius vx vy vz density #
run 123456
Setting up run at Wed Jan  4 04:41:06 2023

Memory usage per processor = 958.583 Mbytes
    Step    Atoms         KinEng            CPU 
 7777730      258     0.35449686              0 
 7901186      258     0.33090176      1229.6605 
Loop time of 1229.66 on 40 procs for 123456 steps with 258 atoms, finish time Wed Jan  4 05:01:35 2023


Pair  time (%) = 0.236904 (0.0192658)
Neigh time (%) = 0.669408 (0.0544384)
Comm  time (%) = 3.5885 (0.291829)
Outpt time (%) = 0.00278722 (0.000226666)
Other time (%) = 1225.16 (99.6342)

Nlocal:    6.45 ave 70 max 0 min
Histogram: 32 3 1 0 1 1 0 0 0 2
Nghost:    3.275 ave 34 max 0 min
Histogram: 36 0 0 0 0 0 0 2 0 2
Neighs:    1.325 ave 23 max 0 min
Histogram: 36 1 0 0 1 0 1 0 0 1

Total # of neighbors = 53
Ave neighs/atom = 0.205426
Neighbor list builds = 3685
Dangerous builds = 0
write_dump all custom dump.atom_info_ac_* id type x y z radius vx vy vz density #
run 123456
Setting up run at Wed Jan  4 05:01:36 2023

Memory usage per processor = 958.583 Mbytes
    Step    Atoms         KinEng            CPU 
 7901186      258     0.33090176              0 
 8024642      256     0.30989509      1241.8751 
Loop time of 1241.88 on 40 procs for 123456 steps with 256 atoms, finish time Wed Jan  4 05:22:17 2023


Pair  time (%) = 0.237895 (0.0191561)
Neigh time (%) = 0.866395 (0.0697651)
Comm  time (%) = 4.09398 (0.329661)
Outpt time (%) = 0.000602991 (4.85549e-05)
Other time (%) = 1236.68 (99.5814)

Nlocal:    6.4 ave 68 max 0 min
Histogram: 32 2 2 1 1 0 0 0 0 2
Nghost:    3.375 ave 37 max 0 min
Histogram: 35 1 0 0 0 0 1 1 1 1
Neighs:    1.25 ave 22 max 0 min
Histogram: 36 1 0 0 1 0 1 0 0 1

Total # of neighbors = 50
Ave neighs/atom = 0.195312
Neighbor list builds = 4927
Dangerous builds = 15
write_dump all custom dump.atom_info_ac_* id type x y z radius vx vy vz density #
run 123456
Setting up run at Wed Jan  4 05:22:18 2023

Memory usage per processor = 958.583 Mbytes
    Step    Atoms         KinEng            CPU 
 8024642      256     0.30989509              0 
 8148098      255     0.29977912      1243.9666 
Loop time of 1243.97 on 40 procs for 123456 steps with 255 atoms, finish time Wed Jan  4 05:43:01 2023


Pair  time (%) = 0.240846 (0.0193611)
Neigh time (%) = 0.68321 (0.0549219)
Comm  time (%) = 3.2204 (0.258882)
Outpt time (%) = 0.000593188 (4.76852e-05)
Other time (%) = 1239.82 (99.6668)

Nlocal:    6.375 ave 68 max 0 min
Histogram: 33 1 1 2 1 0 0 0 0 2
Nghost:    3.4 ave 38 max 0 min
Histogram: 36 0 0 0 0 0 1 1 1 1
Neighs:    1.325 ave 22 max 0 min
Histogram: 36 1 0 0 1 0 1 0 0 1

Total # of neighbors = 53
Ave neighs/atom = 0.207843
Neighbor list builds = 3877
Dangerous builds = 193
write_dump all custom dump.atom_info_ac_* id type x y z radius vx vy vz density #
run 123456
Setting up run at Wed Jan  4 05:43:02 2023

Memory usage per processor = 958.583 Mbytes
    Step    Atoms         KinEng            CPU 
 8148098      255     0.29977912              0 
 8271554      253     0.29015961       1227.955 
Loop time of 1227.96 on 40 procs for 123456 steps with 253 atoms, finish time Wed Jan  4 06:03:30 2023


Pair  time (%) = 0.23896 (0.01946)
Neigh time (%) = 0.691909 (0.0563464)
Comm  time (%) = 3.22508 (0.262638)
Outpt time (%) = 0.00274878 (0.00022385)
Other time (%) = 1223.8 (99.6613)

Nlocal:    6.325 ave 67 max 0 min
Histogram: 33 2 0 1 1 1 0 0 0 2
Nghost:    3.075 ave 33 max 0 min
Histogram: 36 0 0 0 0 0 1 0 1 2
Neighs:    1.275 ave 20 max 0 min
Histogram: 35 2 0 0 0 0 2 0 0 1

Total # of neighbors = 51
Ave neighs/atom = 0.201581
Neighbor list builds = 3867
Dangerous builds = 9
write_dump all custom dump.atom_info_ac_* id type x y z radius vx vy vz density #
run 123456
Setting up run at Wed Jan  4 06:03:30 2023

Memory usage per processor = 958.583 Mbytes
    Step    Atoms         KinEng            CPU 
 8271554      253     0.29015961              0 
 8395010      252     0.34680588      1233.1145 
Loop time of 1233.11 on 40 procs for 123456 steps with 252 atoms, finish time Wed Jan  4 06:24:03 2023


Pair  time (%) = 0.241094 (0.0195517)
Neigh time (%) = 0.736627 (0.0597371)
Comm  time (%) = 3.33097 (0.270127)
Outpt time (%) = 0.0102176 (0.000828604)
Other time (%) = 1228.8 (99.6498)

Nlocal:    6.3 ave 66 max 0 min
Histogram: 33 2 1 0 1 0 1 0 0 2
Nghost:    3.35 ave 39 max 0 min
Histogram: 36 0 0 0 0 1 1 0 1 1
Neighs:    1.25 ave 20 max 0 min
Histogram: 35 2 0 0 0 0 2 0 0 1

Total # of neighbors = 50
Ave neighs/atom = 0.198413
Neighbor list builds = 4162
Dangerous builds = 165
write_dump all custom dump.atom_info_ac_* id type x y z radius vx vy vz density #
run 123456
Setting up run at Wed Jan  4 06:24:03 2023

Memory usage per processor = 958.583 Mbytes
    Step    Atoms         KinEng            CPU 
 8395010      252     0.34680588              0 
 8518466      251     0.32362042      1231.2752 
Loop time of 1231.28 on 40 procs for 123456 steps with 251 atoms, finish time Wed Jan  4 06:44:34 2023


Pair  time (%) = 0.237373 (0.0192786)
Neigh time (%) = 0.702538 (0.0570577)
Comm  time (%) = 3.07036 (0.249364)
Outpt time (%) = 0.0005447 (4.42387e-05)
Other time (%) = 1227.26 (99.6743)

Nlocal:    6.275 ave 66 max 0 min
Histogram: 33 1 2 0 1 1 0 0 0 2
Nghost:    3.275 ave 37 max 0 min
Histogram: 36 0 0 0 0 1 0 1 0 2
Neighs:    1.125 ave 19 max 0 min
Histogram: 36 1 0 0 0 2 0 0 0 1

Total # of neighbors = 45
Ave neighs/atom = 0.179283
Neighbor list builds = 3959
Dangerous builds = 225
write_dump all custom dump.atom_info_ac_* id type x y z radius vx vy vz density #
run 123456
Setting up run at Wed Jan  4 06:44:34 2023

Memory usage per processor = 958.583 Mbytes
    Step    Atoms         KinEng            CPU 
 8518466      251     0.32362042              0 
 8641922      251     0.42026261      1237.2942 
Loop time of 1237.3 on 40 procs for 123456 steps with 251 atoms, finish time Wed Jan  4 07:05:12 2023


Pair  time (%) = 0.238338 (0.0192627)
Neigh time (%) = 0.726594 (0.058724)
Comm  time (%) = 2.82552 (0.228361)
Outpt time (%) = 0.00031803 (2.57035e-05)
Other time (%) = 1233.51 (99.6936)

Nlocal:    6.275 ave 68 max 0 min
Histogram: 32 2 2 1 1 0 0 0 0 2
Nghost:    3.55 ave 37 max 0 min
Histogram: 35 1 0 0 0 0 1 0 2 1
Neighs:    1.1 ave 18 max 0 min
Histogram: 36 1 0 0 0 1 1 0 0 1

Total # of neighbors = 44
Ave neighs/atom = 0.175299
Neighbor list builds = 3967
Dangerous builds = 0
write_dump all custom dump.atom_info_ac_* id type x y z radius vx vy vz density #
run 123456
Setting up run at Wed Jan  4 07:05:12 2023

Memory usage per processor = 958.583 Mbytes
    Step    Atoms         KinEng            CPU 
 8641922      251     0.42026261              0 
 8765378      250     0.31972538        1230.59 
Loop time of 1230.59 on 40 procs for 123456 steps with 250 atoms, finish time Wed Jan  4 07:25:42 2023


Pair  time (%) = 0.236106 (0.0191864)
Neigh time (%) = 0.694743 (0.0564561)
Comm  time (%) = 2.94502 (0.239318)
Outpt time (%) = 0.000824821 (6.70265e-05)
Other time (%) = 1226.71 (99.685)

Nlocal:    6.25 ave 67 max 0 min
Histogram: 32 2 1 1 1 1 0 0 0 2
Nghost:    3.35 ave 37 max 0 min
Histogram: 35 1 0 0 0 0 1 1 1 1
Neighs:    1.025 ave 15 max 0 min
Histogram: 36 1 0 0 0 0 1 1 0 1

Total # of neighbors = 41
Ave neighs/atom = 0.164
Neighbor list builds = 3834
Dangerous builds = 91
write_dump all custom dump.atom_info_ac_* id type x y z radius vx vy vz density #
run 123456
Setting up run at Wed Jan  4 07:25:42 2023

Memory usage per processor = 958.583 Mbytes
    Step    Atoms         KinEng            CPU 
 8765378      250     0.31972538              0 
 8888834      249     0.31477829      1231.3629 
Loop time of 1231.36 on 40 procs for 123456 steps with 249 atoms, finish time Wed Jan  4 07:46:14 2023


Pair  time (%) = 0.235405 (0.0191174)
Neigh time (%) = 0.687984 (0.0558717)
Comm  time (%) = 3.58646 (0.291259)
Outpt time (%) = 0.00160818 (0.000130602)
Other time (%) = 1226.85 (99.6336)

Nlocal:    6.225 ave 67 max 0 min
Histogram: 32 1 3 1 0 1 0 0 1 1
Nghost:    3.6 ave 45 max 0 min
Histogram: 34 2 0 0 0 1 2 0 0 1
Neighs:    1.175 ave 15 max 0 min
Histogram: 35 0 1 0 1 0 1 1 0 1

Total # of neighbors = 47
Ave neighs/atom = 0.188755
Neighbor list builds = 3772
Dangerous builds = 7
write_dump all custom dump.atom_info_ac_* id type x y z radius vx vy vz density #
run 123456
Setting up run at Wed Jan  4 07:46:14 2023

Memory usage per processor = 958.583 Mbytes
    Step    Atoms         KinEng            CPU 
 8888834      249     0.31477829              0 
 9012290      246     0.23707486      1237.6553 
Loop time of 1237.66 on 40 procs for 123456 steps with 246 atoms, finish time Wed Jan  4 08:06:52 2023


Pair  time (%) = 0.239911 (0.0193843)
Neigh time (%) = 0.730609 (0.0590317)
Comm  time (%) = 2.98781 (0.241409)
Outpt time (%) = 0.000364632 (2.94615e-05)
Other time (%) = 1233.7 (99.6801)

Nlocal:    6.15 ave 65 max 0 min
Histogram: 33 1 2 0 1 0 1 0 0 2
Nghost:    3.45 ave 41 max 0 min
Histogram: 36 0 0 0 0 0 2 0 1 1
Neighs:    0.925 ave 12 max 0 min
Histogram: 36 1 0 0 0 0 0 1 0 2

Total # of neighbors = 37
Ave neighs/atom = 0.150407
Neighbor list builds = 4067
Dangerous builds = 101
write_dump all custom dump.atom_info_ac_* id type x y z radius vx vy vz density #
run 123456
Setting up run at Wed Jan  4 08:06:52 2023

Memory usage per processor = 958.583 Mbytes
    Step    Atoms         KinEng            CPU 
 9012290      246     0.23707486              0 
 9135746      246     0.23313946      1226.3257 
Loop time of 1226.33 on 40 procs for 123456 steps with 246 atoms, finish time Wed Jan  4 08:27:18 2023


Pair  time (%) = 0.237117 (0.0193355)
Neigh time (%) = 0.595183 (0.0485338)
Comm  time (%) = 2.53891 (0.207034)
Outpt time (%) = 0.000320487 (2.61339e-05)
Other time (%) = 1222.95 (99.7251)

Nlocal:    6.15 ave 64 max 0 min
Histogram: 32 2 2 1 0 0 1 0 0 2
Nghost:    3.3 ave 38 max 0 min
Histogram: 36 0 0 0 0 0 1 2 0 1
Neighs:    0.9 ave 12 max 0 min
Histogram: 36 1 0 0 0 0 0 1 0 2

Total # of neighbors = 36
Ave neighs/atom = 0.146341
Neighbor list builds = 3248
Dangerous builds = 0
write_dump all custom dump.atom_info_ac_* id type x y z radius vx vy vz density #
run 123456
Setting up run at Wed Jan  4 08:27:18 2023

Memory usage per processor = 958.583 Mbytes
    Step    Atoms         KinEng            CPU 
 9135746      246     0.23313946              0 
 9259202      245     0.41458013      1231.1031 
Loop time of 1231.1 on 40 procs for 123456 steps with 245 atoms, finish time Wed Jan  4 08:47:49 2023


Pair  time (%) = 0.238109 (0.0193411)
Neigh time (%) = 0.751422 (0.0610365)
Comm  time (%) = 3.26327 (0.265069)
Outpt time (%) = 0.000631505 (5.12959e-05)
Other time (%) = 1226.85 (99.6545)

Nlocal:    6.125 ave 63 max 0 min
Histogram: 32 0 4 1 1 0 0 0 0 2
Nghost:    3.375 ave 37 max 0 min
Histogram: 35 1 0 0 0 0 1 0 2 1
Neighs:    0.95 ave 11 max 0 min
Histogram: 36 0 0 1 0 0 0 0 1 2

Total # of neighbors = 38
Ave neighs/atom = 0.155102
Neighbor list builds = 4178
Dangerous builds = 132
write_dump all custom dump.atom_info_ac_* id type x y z radius vx vy vz density #
run 123456
Setting up run at Wed Jan  4 08:47:49 2023

Memory usage per processor = 958.583 Mbytes
    Step    Atoms         KinEng            CPU 
 9259202      245     0.41458013              0 
 9382658      245     0.42171321      1231.4117 
Loop time of 1231.42 on 40 procs for 123456 steps with 245 atoms, finish time Wed Jan  4 09:08:21 2023


Pair  time (%) = 0.239687 (0.0194642)
Neigh time (%) = 0.874024 (0.0709768)
Comm  time (%) = 3.35231 (0.272231)
Outpt time (%) = 0.0100265 (0.000814223)
Other time (%) = 1226.95 (99.6365)

Nlocal:    6.125 ave 61 max 0 min
Histogram: 33 1 1 1 1 1 0 0 0 2
Nghost:    3.325 ave 38 max 0 min
Histogram: 36 0 0 0 0 0 1 1 1 1
Neighs:    0.925 ave 13 max 0 min
Histogram: 36 1 0 0 0 0 1 0 0 2

Total # of neighbors = 37
Ave neighs/atom = 0.15102
Neighbor list builds = 4780
Dangerous builds = 0
write_dump all custom dump.atom_info_ac_* id type x y z radius vx vy vz density #
run 123456
Setting up run at Wed Jan  4 09:08:21 2023

Memory usage per processor = 958.583 Mbytes
    Step    Atoms         KinEng            CPU 
 9382658      245     0.42171321              0 
 9506114      244     0.38259907      1241.5611 
Loop time of 1241.56 on 40 procs for 123456 steps with 244 atoms, finish time Wed Jan  4 09:29:02 2023


Pair  time (%) = 0.239129 (0.0192603)
Neigh time (%) = 0.88043 (0.0709131)
Comm  time (%) = 3.75382 (0.302347)
Outpt time (%) = 0.000307726 (2.47854e-05)
Other time (%) = 1236.69 (99.6075)

Nlocal:    6.1 ave 62 max 0 min
Histogram: 32 2 1 2 0 1 0 0 0 2
Nghost:    3.575 ave 38 max 0 min
Histogram: 35 1 0 0 0 0 1 1 1 1
Neighs:    0.875 ave 12 max 0 min
Histogram: 35 2 0 0 0 0 0 2 0 1

Total # of neighbors = 35
Ave neighs/atom = 0.143443
Neighbor list builds = 4900
Dangerous builds = 186
write_dump all custom dump.atom_info_ac_* id type x y z radius vx vy vz density #
run 123456
Setting up run at Wed Jan  4 09:29:02 2023

Memory usage per processor = 958.583 Mbytes
    Step    Atoms         KinEng            CPU 
 9506114      244     0.38259907              0 
 9629570      244     0.45332449      1291.5516 
Loop time of 1291.55 on 40 procs for 123456 steps with 244 atoms, finish time Wed Jan  4 09:50:34 2023


Pair  time (%) = 0.234794 (0.0181792)
Neigh time (%) = 0.689049 (0.0533505)
Comm  time (%) = 3.14009 (0.243126)
Outpt time (%) = 0.000679822 (5.2636e-05)
Other time (%) = 1287.49 (99.6853)

Nlocal:    6.1 ave 61 max 0 min
Histogram: 32 0 3 2 1 0 0 0 0 2
Nghost:    3.575 ave 34 max 0 min
Histogram: 34 2 0 0 0 0 0 2 0 2
Neighs:    0.825 ave 11 max 0 min
Histogram: 36 0 0 0 1 0 1 1 0 1

Total # of neighbors = 33
Ave neighs/atom = 0.135246
Neighbor list builds = 3770
Dangerous builds = 0
write_dump all custom dump.atom_info_ac_* id type x y z radius vx vy vz density #
run 123456
Setting up run at Wed Jan  4 09:50:34 2023

Memory usage per processor = 958.583 Mbytes
    Step    Atoms         KinEng            CPU 
 9629570      244     0.45332449              0 
 9753026      243     0.35883743      1359.3151 
Loop time of 1359.32 on 40 procs for 123456 steps with 243 atoms, finish time Wed Jan  4 10:13:13 2023


Pair  time (%) = 0.23505 (0.0172918)
Neigh time (%) = 0.647602 (0.0476417)
Comm  time (%) = 2.85286 (0.209875)
Outpt time (%) = 0.000401145 (2.95108e-05)
Other time (%) = 1355.58 (99.7252)

Nlocal:    6.075 ave 63 max 0 min
Histogram: 32 3 1 0 0 2 0 0 0 2
Nghost:    3.2 ave 37 max 0 min
Histogram: 35 1 0 0 1 0 0 1 1 1
Neighs:    0.875 ave 13 max 0 min
Histogram: 35 1 0 1 0 1 1 0 0 1

Total # of neighbors = 35
Ave neighs/atom = 0.144033
Neighbor list builds = 3527
Dangerous builds = 0
write_dump all custom dump.atom_info_ac_* id type x y z radius vx vy vz density #
run 123456
Setting up run at Wed Jan  4 10:13:13 2023

Memory usage per processor = 958.583 Mbytes
    Step    Atoms         KinEng            CPU 
 9753026      243     0.35883743              0 
 9876482      242     0.34489796      1308.5955 
Loop time of 1308.6 on 40 procs for 123456 steps with 242 atoms, finish time Wed Jan  4 10:35:02 2023


Pair  time (%) = 0.235178 (0.0179718)
Neigh time (%) = 0.671331 (0.0513017)
Comm  time (%) = 2.85646 (0.218284)
Outpt time (%) = 0.0099378 (0.000759425)
Other time (%) = 1304.82 (99.7117)

Nlocal:    6.05 ave 61 max 0 min
Histogram: 32 1 3 0 1 1 0 0 0 2
Nghost:    3.125 ave 30 max 0 min
Histogram: 32 4 0 0 0 0 1 0 0 3
Neighs:    0.85 ave 13 max 0 min
Histogram: 34 2 1 0 0 2 0 0 0 1

Total # of neighbors = 34
Ave neighs/atom = 0.140496
Neighbor list builds = 3658
Dangerous builds = 1
write_dump all custom dump.atom_info_ac_* id type x y z radius vx vy vz density #
run 123456
Setting up run at Wed Jan  4 10:35:02 2023

Memory usage per processor = 958.583 Mbytes
[...]


Pair  time (%) = 0.223057 (0.0182097)
Neigh time (%) = 0.525037 (0.0428623)
Comm  time (%) = 2.36019 (0.192678)
Outpt time (%) = 0.000372537 (3.04127e-05)
Other time (%) = 1221.83 (99.7462)

Nlocal:    4.2 ave 41 max 0 min
Histogram: 32 0 3 2 1 0 0 0 0 2
Nghost:    1.675 ave 17 max 0 min
Histogram: 32 4 0 0 0 1 1 0 0 2
Neighs:    0.35 ave 5 max 0 min
Histogram: 35 0 2 0 0 0 1 0 1 1

Total # of neighbors = 14
Ave neighs/atom = 0.0833333
Neighbor list builds = 2845
Dangerous builds = 0
write_dump all custom dump.atom_info_ac_* id type x y z radius vx vy vz density #
run 123456
Setting up run at Thu Jan  5 21:39:44 2023

Memory usage per processor = 958.583 Mbytes
    Step    Atoms         KinEng            CPU 
22222160      168     0.25748509              0 
22345616      168     0.28803919       1230.413 
Loop time of 1230.41 on 40 procs for 123456 steps with 168 atoms, finish time Thu Jan  5 22:00:15 2023


Pair  time (%) = 0.226251 (0.0183882)
Neigh time (%) = 0.540423 (0.0439221)
Comm  time (%) = 2.2884 (0.185986)
Outpt time (%) = 0.000307194 (2.49668e-05)
Other time (%) = 1227.36 (99.7517)

Nlocal:    4.2 ave 41 max 0 min
Histogram: 32 0 3 1 1 1 0 0 0 2
Nghost:    1.475 ave 18 max 0 min
Histogram: 34 2 0 1 0 0 1 0 1 1
Neighs:    0.325 ave 5 max 0 min
Histogram: 35 0 1 0 2 0 1 0 0 1

Total # of neighbors = 13
Ave neighs/atom = 0.077381
Neighbor list builds = 2925
Dangerous builds = 0
write_dump all custom dump.atom_info_ac_* id type x y z radius vx vy vz density #
run 123456
Setting up run at Thu Jan  5 22:00:15 2023

Memory usage per processor = 958.583 Mbytes
    Step    Atoms         KinEng            CPU 
22345616      168     0.28803919              0 
22469072      168     0.54808559      1242.5312 
Loop time of 1242.53 on 40 procs for 123456 steps with 168 atoms, finish time Thu Jan  5 22:20:57 2023


Pair  time (%) = 0.229373 (0.0184601)
Neigh time (%) = 1.0405 (0.0837403)
Comm  time (%) = 4.75935 (0.383036)
Outpt time (%) = 0.000618193 (4.97527e-05)
Other time (%) = 1236.5 (99.5147)

Nlocal:    4.2 ave 40 max 0 min
Histogram: 32 0 3 1 0 2 0 0 0 2
Nghost:    1.475 ave 16 max 0 min
Histogram: 33 3 0 1 0 0 0 0 2 1
Neighs:    0.25 ave 5 max 0 min
Histogram: 37 0 0 0 1 0 1 0 0 1

Total # of neighbors = 10
Ave neighs/atom = 0.0595238
Neighbor list builds = 5628
Dangerous builds = 0
write_dump all custom dump.atom_info_ac_* id type x y z radius vx vy vz density #
run 123456
Setting up run at Thu Jan  5 22:20:58 2023

Memory usage per processor = 958.583 Mbytes
    Step    Atoms         KinEng            CPU 
22469072      168     0.54808559              0 
22592528      167     0.48728917      1243.2374 
Loop time of 1243.24 on 40 procs for 123456 steps with 167 atoms, finish time Thu Jan  5 22:41:41 2023


Pair  time (%) = 0.227636 (0.01831)
Neigh time (%) = 0.875833 (0.0704477)
Comm  time (%) = 4.2792 (0.344198)
Outpt time (%) = 0.000398905 (3.2086e-05)
Other time (%) = 1237.85 (99.567)

Nlocal:    4.175 ave 39 max 0 min
Histogram: 32 0 1 4 1 0 0 0 0 2
Nghost:    1.5 ave 17 max 0 min
Histogram: 33 3 0 1 0 0 0 2 0 1
Neighs:    0.35 ave 5 max 0 min
Histogram: 35 0 1 0 1 0 2 0 0 1

Total # of neighbors = 14
Ave neighs/atom = 0.0838323
Neighbor list builds = 4727
Dangerous builds = 0
write_dump all custom dump.atom_info_ac_* id type x y z radius vx vy vz density #
run 123456
Setting up run at Thu Jan  5 22:41:41 2023

Memory usage per processor = 958.583 Mbytes
    Step    Atoms         KinEng            CPU 
22592528      167     0.48728917              0 
22715984      167     0.39912483      1246.1991 
Loop time of 1246.2 on 40 procs for 123456 steps with 167 atoms, finish time Thu Jan  5 23:02:27 2023


Pair  time (%) = 0.233414 (0.0187301)
Neigh time (%) = 1.17577 (0.0943488)
Comm  time (%) = 5.93998 (0.476648)
Outpt time (%) = 0.000564717 (4.53152e-05)
Other time (%) = 1238.85 (99.4102)

Nlocal:    4.175 ave 39 max 0 min
Histogram: 32 0 1 4 1 0 0 0 0 2
Nghost:    1.5 ave 16 max 0 min
Histogram: 31 5 0 1 0 0 0 1 1 1
Neighs:    0.325 ave 5 max 0 min
Histogram: 34 0 3 0 1 0 1 0 0 1

Total # of neighbors = 13
Ave neighs/atom = 0.0778443
Neighbor list builds = 6443
Dangerous builds = 0
write_dump all custom dump.atom_info_ac_* id type x y z radius vx vy vz density #
run 123456
Setting up run at Thu Jan  5 23:02:27 2023

Memory usage per processor = 958.583 Mbytes
    Step    Atoms         KinEng            CPU 
22715984      167     0.39912483              0 
22839440      165     0.43246909      1238.3702 
Loop time of 1238.37 on 40 procs for 123456 steps with 165 atoms, finish time Thu Jan  5 23:23:05 2023


Pair  time (%) = 0.227959 (0.018408)
Neigh time (%) = 0.903395 (0.0729503)
Comm  time (%) = 4.6434 (0.37496)
Outpt time (%) = 0.000594516 (4.80079e-05)
Other time (%) = 1232.6 (99.5336)

Nlocal:    4.125 ave 39 max 0 min
Histogram: 31 1 3 1 1 1 0 0 0 2
Nghost:    1.575 ave 17 max 0 min
Histogram: 33 3 0 1 0 0 0 0 2 1
Neighs:    0.325 ave 6 max 0 min
Histogram: 34 3 0 2 0 0 0 0 0 1

Total # of neighbors = 13
Ave neighs/atom = 0.0787879
Neighbor list builds = 4875
Dangerous builds = 1
write_dump all custom dump.atom_info_ac_* id type x y z radius vx vy vz density #
run 123456
Setting up run at Thu Jan  5 23:23:06 2023

Memory usage per processor = 958.583 Mbytes
    Step    Atoms         KinEng            CPU 
22839440      165     0.43246909              0 
22962896      163     0.37899502      1241.7836 
Loop time of 1241.78 on 40 procs for 123456 steps with 163 atoms, finish time Thu Jan  5 23:43:47 2023


Pair  time (%) = 0.227543 (0.0183239)
Neigh time (%) = 0.960085 (0.077315)
Comm  time (%) = 4.43437 (0.357097)
Outpt time (%) = 0.000329147 (2.6506e-05)
Other time (%) = 1236.16 (99.5472)

Nlocal:    4.075 ave 38 max 0 min
Histogram: 32 0 1 3 2 0 0 0 0 2
Nghost:    1.55 ave 16 max 0 min
Histogram: 33 3 0 1 0 0 0 0 1 2
Neighs:    0.325 ave 5 max 0 min
Histogram: 35 0 1 0 2 0 1 0 0 1

Total # of neighbors = 13
Ave neighs/atom = 0.0797546
Neighbor list builds = 5339
Dangerous builds = 3
write_dump all custom dump.atom_info_ac_* id type x y z radius vx vy vz density #
run 123456
Setting up run at Thu Jan  5 23:43:47 2023

Memory usage per processor = 958.583 Mbytes
    Step    Atoms         KinEng            CPU 
22962896      163     0.37899502              0 
23086352      163     0.40333697      1238.6724 
Loop time of 1238.67 on 40 procs for 123456 steps with 163 atoms, finish time Fri Jan  6 00:04:26 2023


Pair  time (%) = 0.226451 (0.0182818)
Neigh time (%) = 0.887605 (0.0716578)
Comm  time (%) = 3.74537 (0.30237)
Outpt time (%) = 0.000368875 (2.97799e-05)
Other time (%) = 1233.81 (99.6077)

Nlocal:    4.075 ave 39 max 0 min
Histogram: 32 0 1 4 1 0 0 0 0 2
Nghost:    1.5 ave 15 max 0 min
Histogram: 33 3 0 0 1 0 0 0 0 3
Neighs:    0.25 ave 6 max 0 min
Histogram: 37 0 0 2 0 0 0 0 0 1

Total # of neighbors = 10
Ave neighs/atom = 0.0613497
Neighbor list builds = 4785
Dangerous builds = 0
write_dump all custom dump.atom_info_ac_* id type x y z radius vx vy vz density #
run 123456
Setting up run at Fri Jan  6 00:04:26 2023

Memory usage per processor = 958.583 Mbytes
    Step    Atoms         KinEng            CPU 
23086352      163     0.40333697              0 
23209808      163      0.3979632       1235.481 
Loop time of 1235.48 on 40 procs for 123456 steps with 163 atoms, finish time Fri Jan  6 00:25:02 2023


Pair  time (%) = 0.224513 (0.0181721)
Neigh time (%) = 0.76266 (0.0617298)
Comm  time (%) = 3.33214 (0.269704)
Outpt time (%) = 0.000683245 (5.53019e-05)
Other time (%) = 1231.16 (99.6503)

Nlocal:    4.075 ave 39 max 0 min
Histogram: 32 0 2 2 2 0 0 0 0 2
Nghost:    1.525 ave 16 max 0 min
Histogram: 32 4 0 1 0 0 0 0 1 2
Neighs:    0.225 ave 4 max 0 min
Histogram: 35 0 3 0 0 1 0 0 0 1

Total # of neighbors = 9
Ave neighs/atom = 0.0552147
Neighbor list builds = 4115
Dangerous builds = 0
write_dump all custom dump.atom_info_ac_* id type x y z radius vx vy vz density #
run 123456
Setting up run at Fri Jan  6 00:25:02 2023

Memory usage per processor = 958.583 Mbytes
    Step    Atoms         KinEng            CPU 
23209808      163      0.3979632              0 
23333264      163     0.38198777      1235.6348 
Loop time of 1235.63 on 40 procs for 123456 steps with 163 atoms, finish time Fri Jan  6 00:45:37 2023


Pair  time (%) = 0.225106 (0.0182178)
Neigh time (%) = 0.76394 (0.0618257)
Comm  time (%) = 2.96466 (0.23993)
Outpt time (%) = 0.000372763 (3.01677e-05)
Other time (%) = 1231.68 (99.68)

Nlocal:    4.075 ave 39 max 0 min
Histogram: 32 1 3 0 1 0 0 1 0 2
Nghost:    1.475 ave 14 max 0 min
Histogram: 33 1 2 0 0 1 0 0 0 3
Neighs:    0.25 ave 3 max 0 min
Histogram: 35 0 0 2 0 0 1 0 0 2

Total # of neighbors = 10
Ave neighs/atom = 0.0613497
Neighbor list builds = 4115
Dangerous builds = 0
write_dump all custom dump.atom_info_ac_* id type x y z radius vx vy vz density #
run 123456
Setting up run at Fri Jan  6 00:45:37 2023

Memory usage per processor = 958.583 Mbytes
    Step    Atoms         KinEng            CPU 
23333264      163     0.38198777              0 
23456720      162     0.40727577      1236.2957 
Loop time of 1236.3 on 40 procs for 123456 steps with 162 atoms, finish time Fri Jan  6 01:06:14 2023


Pair  time (%) = 0.227242 (0.0183809)
Neigh time (%) = 0.78502 (0.0634978)
Comm  time (%) = 3.23118 (0.26136)
Outpt time (%) = 0.000334798 (2.70807e-05)
Other time (%) = 1232.05 (99.6567)

Nlocal:    4.05 ave 39 max 0 min
Histogram: 32 2 1 1 0 1 1 0 0 2
Nghost:    1.375 ave 13 max 0 min
Histogram: 34 1 1 0 1 0 0 0 1 2
Neighs:    0.25 ave 3 max 0 min
Histogram: 35 0 0 1 0 0 3 0 0 1

Total # of neighbors = 10
Ave neighs/atom = 0.0617284
Neighbor list builds = 4328
Dangerous builds = 220
write_dump all custom dump.atom_info_ac_* id type x y z radius vx vy vz density #
run 123456
Setting up run at Fri Jan  6 01:06:14 2023

Memory usage per processor = 958.583 Mbytes
    Step    Atoms         KinEng            CPU 
23456720      162     0.40727577              0 
23580176      162     0.38944092      1242.2712 
Loop time of 1242.27 on 40 procs for 123456 steps with 162 atoms, finish time Fri Jan  6 01:26:56 2023


Pair  time (%) = 0.22588 (0.0181828)
Neigh time (%) = 0.764714 (0.0615577)
Comm  time (%) = 3.70091 (0.297915)
Outpt time (%) = 0.000619172 (4.98419e-05)
Other time (%) = 1237.58 (99.6223)

Nlocal:    4.05 ave 39 max 0 min
Histogram: 32 1 0 4 1 0 0 0 0 2
Nghost:    1.5 ave 17 max 0 min
Histogram: 34 1 1 1 0 0 1 1 0 1
Neighs:    0.25 ave 5 max 0 min
Histogram: 35 0 3 0 1 0 0 0 0 1

Total # of neighbors = 10
Ave neighs/atom = 0.0617284
Neighbor list builds = 4115
Dangerous builds = 0
write_dump all custom dump.atom_info_ac_* id type x y z radius vx vy vz density #
run 123456
Setting up run at Fri Jan  6 01:26:56 2023

Memory usage per processor = 958.583 Mbytes
    Step    Atoms         KinEng            CPU 
23580176      162     0.38944092              0 
23703632      161     0.46736547      1242.1296 
Loop time of 1242.13 on 40 procs for 123456 steps with 161 atoms, finish time Fri Jan  6 01:47:38 2023


Pair  time (%) = 0.229636 (0.0184873)
Neigh time (%) = 1.01898 (0.0820352)
Comm  time (%) = 5.18343 (0.417302)
Outpt time (%) = 0.000339718 (2.73496e-05)
Other time (%) = 1235.7 (99.4821)

Nlocal:    4.025 ave 38 max 0 min
Histogram: 32 0 2 2 1 1 0 0 0 2
Nghost:    1.5 ave 16 max 0 min
Histogram: 32 3 1 1 0 0 1 1 0 1
Neighs:    0.2 ave 2 max 0 min
Histogram: 34 0 0 0 0 4 0 0 0 2

Total # of neighbors = 8
Ave neighs/atom = 0.0496894
Neighbor list builds = 5717
Dangerous builds = 267
write_dump all custom dump.atom_info_ac_* id type x y z radius vx vy vz density #
run 123456
Setting up run at Fri Jan  6 01:47:38 2023

Memory usage per processor = 958.583 Mbytes
    Step    Atoms         KinEng            CPU 
23703632      161     0.46736547              0 
23827088      161     0.46197941      1234.7653 
Loop time of 1234.77 on 40 procs for 123456 steps with 161 atoms, finish time Fri Jan  6 02:08:13 2023


Pair  time (%) = 0.229277 (0.0185685)
Neigh time (%) = 0.76378 (0.0618563)
Comm  time (%) = 3.6055 (0.291999)
Outpt time (%) = 0.000411927 (3.33608e-05)
Other time (%) = 1230.17 (99.6275)

Nlocal:    4.025 ave 39 max 0 min
Histogram: 32 1 1 2 2 0 0 0 1 1
Nghost:    1.125 ave 13 max 0 min
Histogram: 36 0 0 0 1 0 0 1 0 2
Neighs:    0.225 ave 3 max 0 min
Histogram: 34 0 0 4 0 0 1 0 0 1

Total # of neighbors = 9
Ave neighs/atom = 0.0559006
Neighbor list builds = 4115
Dangerous builds = 0
write_dump all custom dump.atom_info_ac_* id type x y z radius vx vy vz density #
run 123456
Setting up run at Fri Jan  6 02:08:13 2023

Memory usage per processor = 958.583 Mbytes
    Step    Atoms         KinEng            CPU 
23827088      161     0.46197941              0 
23950544      161     0.71724842      1236.9427 
Loop time of 1236.94 on 40 procs for 123456 steps with 161 atoms, finish time Fri Jan  6 02:28:50 2023


Pair  time (%) = 0.228688 (0.0184882)
Neigh time (%) = 0.816973 (0.0660477)
Comm  time (%) = 3.69712 (0.298891)
Outpt time (%) = 0.00030973 (2.504e-05)
Other time (%) = 1232.2 (99.6165)

Nlocal:    4.025 ave 39 max 0 min
Histogram: 31 1 3 2 0 1 0 0 1 1
Nghost:    1.225 ave 12 max 0 min
Histogram: 35 1 0 0 0 1 0 0 0 3
Neighs:    0.25 ave 3 max 0 min
Histogram: 35 0 0 1 0 0 3 0 0 1

Total # of neighbors = 10
Ave neighs/atom = 0.0621118
Neighbor list builds = 4391
Dangerous builds = 0
write_dump all custom dump.atom_info_ac_* id type x y z radius vx vy vz density #
run 123456
Setting up run at Fri Jan  6 02:28:50 2023

Memory usage per processor = 958.583 Mbytes
    Step    Atoms         KinEng            CPU 
23950544      161     0.71724842              0 
24074000      160      0.4668729      1237.8071 
Loop time of 1237.81 on 40 procs for 123456 steps with 160 atoms, finish time Fri Jan  6 02:49:28 2023


Pair  time (%) = 0.227123 (0.0183488)
Neigh time (%) = 0.831867 (0.0672049)
Comm  time (%) = 3.58523 (0.289643)
Outpt time (%) = 0.000765803 (6.18677e-05)
Other time (%) = 1233.16 (99.6247)

Nlocal:    4 ave 41 max 0 min
Histogram: 32 1 3 1 0 1 0 0 1 1
Nghost:    1.3 ave 12 max 0 min
Histogram: 32 2 1 1 0 1 0 1 0 2
Neighs:    0.225 ave 2 max 0 min
Histogram: 33 0 0 0 0 5 0 0 0 2

Total # of neighbors = 9
Ave neighs/atom = 0.05625
Neighbor list builds = 4550
Dangerous builds = 0
write_dump all custom dump.atom_info_ac_* id type x y z radius vx vy vz density #
run 123456
Setting up run at Fri Jan  6 02:49:28 2023

Memory usage per processor = 958.583 Mbytes
    Step    Atoms         KinEng            CPU 
24074000      160      0.4668729              0 
24197456      159     0.43093355      1236.2739 
Loop time of 1236.27 on 40 procs for 123456 steps with 159 atoms, finish time Fri Jan  6 03:10:04 2023


Pair  time (%) = 0.22615 (0.0182929)
Neigh time (%) = 0.784484 (0.0634555)
Comm  time (%) = 3.30408 (0.267261)
Outpt time (%) = 0.000414017 (3.34891e-05)
Other time (%) = 1231.96 (99.651)

Nlocal:    3.975 ave 40 max 0 min
Histogram: 32 1 1 2 2 0 0 0 1 1
Nghost:    1.3 ave 14 max 0 min
Histogram: 35 0 1 0 0 1 1 1 0 1
Neighs:    0.225 ave 2 max 0 min
Histogram: 34 0 0 0 0 3 0 0 0 3

Total # of neighbors = 9
Ave neighs/atom = 0.0566038
Neighbor list builds = 4340
Dangerous builds = 233
write_dump all custom dump.atom_info_ac_* id type x y z radius vx vy vz density #
run 123456
Setting up run at Fri Jan  6 03:10:04 2023

Memory usage per processor = 958.583 Mbytes
    Step    Atoms         KinEng            CPU 
24197456      159     0.43093355              0 
24320912      156     0.44101495      1235.4083 
Loop time of 1235.42 on 40 procs for 123456 steps with 156 atoms, finish time Fri Jan  6 03:30:40 2023


Pair  time (%) = 0.226821 (0.0183599)
Neigh time (%) = 0.75033 (0.0607349)
Comm  time (%) = 3.187 (0.25797)
Outpt time (%) = 0.000374353 (3.03017e-05)
Other time (%) = 1231.25 (99.6629)

Nlocal:    3.9 ave 38 max 0 min
Histogram: 31 3 1 1 0 1 1 0 1 1
Nghost:    1.2 ave 15 max 0 min
Histogram: 35 1 0 1 0 0 0 1 1 1
Neighs:    0.3 ave 3 max 0 min
Histogram: 34 0 0 2 0 0 2 0 0 2

Total # of neighbors = 12
Ave neighs/atom = 0.0769231
Neighbor list builds = 4095
Dangerous builds = 110
write_dump all custom dump.atom_info_ac_* id type x y z radius vx vy vz density #
run 123456
Setting up run at Fri Jan  6 03:30:40 2023

Memory usage per processor = 958.583 Mbytes
    Step    Atoms         KinEng            CPU 
24320912      156     0.44101495              0 
24444368      156     0.49355549      1235.3613 
Loop time of 1235.36 on 40 procs for 123456 steps with 156 atoms, finish time Fri Jan  6 03:51:15 2023


Pair  time (%) = 0.22681 (0.0183598)
Neigh time (%) = 0.734876 (0.0594868)
Comm  time (%) = 2.92899 (0.237096)
Outpt time (%) = 0.000647037 (5.23763e-05)
Other time (%) = 1231.47 (99.685)

Nlocal:    3.9 ave 39 max 0 min
Histogram: 31 2 2 1 2 0 0 1 0 1
Nghost:    1.3 ave 14 max 0 min
Histogram: 34 2 0 0 1 0 0 0 2 1
Neighs:    0.2 ave 3 max 0 min
Histogram: 35 0 0 3 0 0 1 0 0 1

Total # of neighbors = 8
Ave neighs/atom = 0.0512821
Neighbor list builds = 3966
Dangerous builds = 0
write_dump all custom dump.atom_info_ac_* id type x y z radius vx vy vz density #
run 123456
Setting up run at Fri Jan  6 03:51:15 2023

Memory usage per processor = 958.583 Mbytes
    Step    Atoms         KinEng            CPU 
24444368      156     0.49355549              0 
24567824      155     0.45004871      1234.0316 
Loop time of 1234.03 on 40 procs for 123456 steps with 155 atoms, finish time Fri Jan  6 04:11:49 2023


Pair  time (%) = 0.225856 (0.0183023)
Neigh time (%) = 0.720225 (0.0583636)
Comm  time (%) = 3.04163 (0.246479)
Outpt time (%) = 0.000228633 (1.85273e-05)
Other time (%) = 1230.04 (99.6768)

Nlocal:    3.875 ave 42 max 0 min
Histogram: 32 1 2 3 0 0 1 0 0 1
Nghost:    1.35 ave 14 max 0 min
Histogram: 32 3 1 0 1 0 0 1 1 1
Neighs:    0.15 ave 2 max 0 min
Histogram: 35 0 0 0 0 4 0 0 0 1

Total # of neighbors = 6
Ave neighs/atom = 0.0387097
Neighbor list builds = 3887
Dangerous builds = 4
write_dump all custom dump.atom_info_ac_* id type x y z radius vx vy vz density #
run 123456
Setting up run at Fri Jan  6 04:11:49 2023

Memory usage per processor = 958.583 Mbytes
    Step    Atoms         KinEng            CPU 
24567824      155     0.45004871              0 
24691280      155     0.46146916      1240.1639 
Loop time of 1240.16 on 40 procs for 123456 steps with 155 atoms, finish time Fri Jan  6 04:32:30 2023


Pair  time (%) = 0.225172 (0.0181566)
Neigh time (%) = 0.719349 (0.0580044)
Comm  time (%) = 2.90307 (0.234088)
Outpt time (%) = 0.000378275 (3.0502e-05)
Other time (%) = 1236.32 (99.6897)

Nlocal:    3.875 ave 43 max 0 min
Histogram: 32 2 1 2 1 0 1 0 0 1
Nghost:    1.375 ave 16 max 0 min
Histogram: 33 3 0 1 0 1 0 0 1 1
Neighs:    0.275 ave 4 max 0 min
Histogram: 34 0 3 0 0 2 0 0 0 1

Total # of neighbors = 11
Ave neighs/atom = 0.0709677
Neighbor list builds = 3875
Dangerous builds = 0
write_dump all custom dump.atom_info_ac_* id type x y z radius vx vy vz density #
run 78
Setting up run at Fri Jan  6 04:32:30 2023

Memory usage per processor = 958.583 Mbytes
    Step    Atoms         KinEng            CPU 
24691280      155     0.46146916              0 
24691358      155     0.46145068     0.75438405 
Loop time of 0.754398 on 40 procs for 78 steps with 155 atoms, finish time Fri Jan  6 04:32:30 2023


Pair  time (%) = 0.000128308 (0.017008)
Neigh time (%) = 0.00037105 (0.049185)
Comm  time (%) = 0.00143478 (0.190189)
Outpt time (%) = 0.000293802 (0.0389453)
Other time (%) = 0.75217 (99.7047)

Nlocal:    3.875 ave 43 max 0 min
Histogram: 32 2 1 2 1 0 1 0 0 1
Nghost:    1.35 ave 16 max 0 min
Histogram: 34 2 0 1 0 1 0 0 1 1
Neighs:    0.275 ave 4 max 0 min
Histogram: 34 0 3 0 0 2 0 0 0 1

Total # of neighbors = 11
Ave neighs/atom = 0.0709677
Neighbor list builds = 2
Dangerous builds = 0
write_dump all custom dump.atom_info_ac_* id type x y z radius vx vy vz density #
