ITEM: TIMESTEP
12345602
ITEM: NUMBER OF ATOMS
208
ITEM: BOX BOUNDS ff ff ff
-0.15 0.15
-0.15 0.15
-0.15 0.15
ITEM: ATOMS id type x y z radius vx vy vz density 
218 1 -0.0286653 -0.0607383 -0.0616084 0.001058 -24.2618 -6.1035 11.2789 2650 
272 1 -0.0282748 -0.0257756 -0.0617884 0.001058 -23.5879 9.98087 10.8329 2650 
132 1 -0.0247099 -0.0190181 -0.0632929 0.001058 -19.6183 -2.31365 7.65467 2650 
137 1 -0.0253979 -0.0144722 -0.0624035 0.00164 -20.0369 -1.14809 8.1456 2650 
81 1 -0.0311858 -0.0398885 -0.0597369 0.00164 -24.9357 -1.45004 13.0102 2650 
257 1 -0.0331845 -0.0263021 -0.0593012 0.001058 -26.0005 7.24651 14.5386 2650 
140 1 -0.0377786 -0.0542741 -0.056497 0.001058 -31.8251 -13.0881 21.2678 2650 
205 1 -0.0469343 -0.0394758 -0.0501819 0.000291 -12.5418 -3.65809 11.7264 2650 
211 1 -0.051725 -0.0298072 -0.0440729 0.001058 -10.6991 -3.03589 12.5448 2650 
20 1 -0.0517047 -0.0122542 -0.0440966 0.001058 -10.602 -0.431118 12.4193 2650 
98 1 -0.054374 -0.0197668 -0.040771 0.001058 -14.5329 -1.71062 19.365 2650 
280 1 -0.0538177 -0.0149057 -0.0409069 0.001058 5.19318 4.16297 -8.6703 2650 
169 1 -0.0567498 -0.0161657 -0.0363182 0.00164 4.02433 3.34673 -6.10377 2650 
138 1 -0.0592002 -0.0209387 -0.0333329 0.001058 -12.1547 7.40279 21.3691 2650 
53 1 -0.0527192 -0.00239063 -0.0350785 0.000291 0.301684 -5.32908 9.06193 2650 
270 1 -0.0606461 -0.0269608 -0.0323046 0.000291 -10.8253 -5.62857 20.317 2650 
102 1 -0.0612593 -0.0582803 -0.031125 0.000291 -2.33753 0.271976 4.59934 2650 
191 1 -0.0614973 -0.0325134 -0.0306536 0.000291 -9.57577 2.00479 19.2057 2650 
34 1 -0.0629778 -0.0144299 -0.0255548 0.001058 -7.05044 -2.74294 17.3599 2650 
117 1 -0.0642136 -0.0587611 -0.0244596 0.000291 -7.91784 5.17536 20.7811 2650 
289 1 -0.0650752 -0.0497269 -0.0220641 0.000291 -2.56015 1.46368 7.54877 2650 
42 1 -0.0642307 -0.0427688 -0.0222137 0.001058 -4.16313 -2.77163 12.0266 2650 
70 1 -0.002345 -0.00309593 -0.015511 0.000291 0 -0.01175 0 2650 
39 1 -0.067515 -0.0507739 -0.0127841 0.000291 -1.70812 -0.651037 9.01848 2650 
225 1 -0.0668435 -0.0343876 -0.0110364 0.001058 -25.9045 -6.78991 49.3885 2650 
135 1 -0.0021437 -0.000224586 -0.0127523 0.000291 0.0022501 0.000177671 -0.0146391 2650 
114 1 -0.00957652 -0.00165644 -0.0115471 0.001058 0.0157286 -0.00739496 -0.00653879 2650 
43 1 -0.0674379 -0.0559726 -0.00844509 0.001058 0.825471 1.81066 -6.58522 2650 
13 1 -0.014201 -0.00176393 -0.003882 0.000291 0 -0.01175 0 2650 
120 1 -0.016055 -0.00251193 0.000189 0.000105 0 -0.01175 0 2650 
170 1 -0.01149 -0.00304193 0.005193 0.001058 0 -0.01175 0 2650 
38 1 -0.00370447 -0.00184003 0.00489745 0.000291 -0.00540624 -0.00234689 -0.00641771 2650 
58 1 -0.0127651 -0.00296521 0.00795783 0.001058 0.00123796 -0.00901905 -0.00632084 2650 
175 1 -0.0146836 -0.00140156 0.00755949 0.000291 0.0112087 -0.00534273 0.0254067 2650 
300 1 -0.0128194 -0.000726367 0.00901976 0.001058 -0.00145822 -0.00625883 -0.00374683 2650 
8 1 -0.0600104 -0.0451918 0.0108397 0.000105 2.93689 -7.32434 -5.36247 2650 
285 1 -0.0122878 -0.00334663 0.0101033 0.001058 -0.195452 -0.0271943 0.0944157 2650 
184 1 -0.00959713 -0.00309085 0.0137711 0.000105 0.067091 0.00200283 0.058002 2650 
6 1 -0.0666562 -0.0449201 0.0166933 0.000291 4.55584 1.40638 18.1868 2650 
178 1 -0.0624843 -0.036756 0.0267543 0.001058 11.3766 -0.410712 26.5487 2650 
90 1 -0.0612048 -0.0564911 -0.0295504 0.001058 -9.33985 -1.95306 19.328 2650 
251 1 -0.0583758 -0.0114361 0.0348021 0.001058 10.4714 -1.11019 17.549 2650 
264 1 -0.0451797 -0.0149353 0.0507599 0.001058 15.8947 -1.40501 14.1347 2650 
223 1 -0.0380387 -0.0167278 0.0563055 0.001058 17.6071 1.09811 11.8847 2650 
76 1 -0.0364803 -0.0613641 0.0573205 0.001058 11.5106 0.116413 7.32079 2650 
172 1 -0.0337919 -0.0459346 0.0589443 0.001058 11.6459 4.52274 6.67308 2650 
89 1 -0.00667753 -0.0567649 0.0670407 0.00164 23.4683 0.374971 2.33514 2650 
193 1 -0.06018 -0.053055 0.0303518 0.00164 9.19226 1.46358 18.2028 2650 
276 1 -0.00407327 0.00315797 -0.0128806 0.000291 0.0231998 -0.00215193 -0.0242449 2650 
78 1 -0.000517857 0.00198912 -0.0137386 0.000291 -0.00533626 -0.0103826 -0.00367069 2650 
59 1 -0.00236421 0.0164333 -0.0136765 0.001058 -0.0209148 0.0146292 -0.0313729 2650 
128 1 -0.00354998 0.000193482 -0.0107445 0.000105 -0.00319047 -0.0592054 0.0209106 2650 
94 1 -0.0115432 0.00203635 -0.0118422 0.000291 8.54657e-05 -0.0117335 8.54657e-05 2650 
75 1 -0.0052427 0.0549388 -0.0117757 0.001058 0.0171891 0.064434 -0.0211867 2650 
104 1 -0.0125754 0.00288736 -0.00910751 0.000105 0.011981 -0.00157217 -0.0109702 2650 
33 1 -0.00310168 0.00256099 -0.0097195 0.00164 0.0013962 -0.00701225 0.00592525 2650 
234 1 -0.0119165 0.00778206 -0.00837098 0.000291 -0.000530972 0.00319134 0.0114593 2650 
147 1 -0.0139534 0.0287565 -0.00749325 0.001058 -0.0252905 0.0298675 0.0481072 2650 
159 1 -0.012707 0.00213007 -0.00588 0.000291 0 -0.01175 0 2650 
80 1 -0.008921 0.0048142 -0.00475843 0.000105 0.0130288 -0.0027678 -0.00975077 2650 
97 1 -0.0111531 0.00203245 -0.0031244 0.00164 0.00587724 -0.00270027 -0.00409197 2650 
261 1 -0.00768497 0.0158387 -0.00336763 0.000291 0.0811964 0.0768408 0.112163 2650 
7 1 -0.00515098 0.024093 -0.00314318 0.000291 0.00379351 0.0136266 -0.000190797 2650 
61 1 -0.016439 0.00184807 -0.001038 0.000291 0 -0.01175 0 2650 
74 1 -0.00254582 0.00775253 -0.00183744 0.001058 0.0120085 0.00759219 0.0108605 2650 
209 1 -0.00623733 0.00862376 -0.00105773 0.001058 0.0134316 0.00655067 0.00545932 2650 
99 1 -0.00739932 0.0118116 -0.000758106 0.001058 0.0112842 0.0140299 -0.00166045 2650 
187 1 -0.0133971 0.0176492 -0.000373381 0.001058 0.00220575 0.0137802 0.0133562 2650 
268 1 -0.011054 0.000710074 0.000789 0.000291 0 -0.01175 0 2650 
17 1 -0.0129546 0.00947935 0.00183287 0.00164 0.00532312 0.0101535 0.0126934 2650 
115 1 -0.0157905 0.0122282 0.00124395 0.001058 0.00336061 0.00522645 0.0181894 2650 
65 1 -0.0119554 0.0206825 1.97173e-06 0.00164 -0.00343699 0.0118581 0.00338465 2650 
129 1 -0.00858764 0.000362278 0.00213958 0.00164 0.000219449 -0.0120332 0.000405385 2650 
256 1 -0.0161021 0.0128886 0.00266053 0.000291 0.00468521 0.00663814 0.0205766 2650 
240 1 -0.0125579 0.0191853 0.00271288 0.000291 -0.00215606 0.0297587 0.00899639 2650 
220 1 -0.0140392 0.0220655 0.00215806 0.000291 -0.00515653 0.0136107 0.0128916 2650 
291 1 -0.008194 0.00223507 0.004767 0.000291 0 -0.01175 0 2650 
52 1 -0.0147907 0.00951602 0.00537861 0.001058 0.00571339 0.00873902 0.0137055 2650 
242 1 -0.0116686 0.0147333 0.00592464 0.000291 -0.0086111 0.00654042 0.00262129 2650 
144 1 -0.0081585 0.0171181 0.00579654 0.000105 0.00862261 0.0155448 0.0270904 2650 
124 1 -0.0148126 0.0319891 0.00452571 0.001058 0.000501626 0.0410145 -0.000846304 2650 
154 1 -0.0138072 0.055243 0.00458905 0.001058 0.0154467 0.0463776 0.039964 2650 
186 1 -0.006177 0.000177074 0.006545 0.001058 0 -0.01175 0 2650 
4 1 -0.0140093 0.00622091 0.00663852 0.001058 -0.000962198 -0.00289426 -0.00306323 2650 
10 1 -0.0135018 0.0148628 0.00621164 0.001058 0.00786106 0.0172796 0.0191737 2650 
41 1 -0.00219181 0.0164915 0.0060325 0.00164 0.0101493 0.00903205 0.0210511 2650 
28 1 -0.0129497 0.0354358 0.00722492 0.001058 0.00321107 0.0436165 0.0028608 2650 
304 1 -0.0110173 0.00986839 0.00920697 0.000291 0.00483691 0.00442522 -0.0020989 2650 
68 1 -0.00237385 0.00814649 0.00940257 0.001058 0.0027366 -0.00341554 -0.0016946 2650 
47 1 -0.0143144 0.0135282 0.00827481 0.000291 0.0140092 0.00992729 0.031936 2650 
116 1 -0.00356406 0.041606 0.0107399 0.001058 -0.0498801 0.0513823 -0.0203473 2650 
106 1 -0.0048403 0.0416542 0.0129171 0.001058 0.0137575 0.0554487 0.0117951 2650 
273 1 -0.00307516 0.0338149 0.0140171 0.001058 -0.00378567 0.0376334 0.0311204 2650 
157 1 -0.00236398 0.0744555 0.0174976 0.000291 -0.0779553 0.0738152 0.745997 2650 
163 1 -0.0480767 0.0659625 0.0482076 0.001058 96.1681 16.7136 95.8601 2650 
55 1 -0.0687132 0.137188 -0.000481126 0.000291 0.000972599 0.969519 -0.138868 2650 
224 1 -0.019837 0.143059 -0.00181256 0.001058 -1.61766 1.39938 -0.279463 2650 
196 1 0.00742007 -0.0283765 -0.0675362 0.001058 -17.3668 2.93113 -1.90783 2650 
148 1 0.0268215 -0.0477332 -0.0624319 0.001058 -23.6171 3.88887 -10.1386 2650 
185 1 0.0446519 -0.0611604 -0.0504511 0.00164 -8.0343 4.81214e-06 -7.10014 2650 
50 1 0.0467757 -0.0615108 -0.0473935 0.001058 -29.2356 22.2424 17.9018 2650 
237 1 0.0457037 -0.00884639 -0.050283 0.001058 -10.6674 -1.94668 -9.6864 2650 
18 1 0.0533101 -0.0420495 -0.0421498 0.001058 -13.7614 5.17052 -17.3899 2650 
14 1 0.0535612 -0.0362998 -0.0430417 0.000291 -18.5227 -4.54263 -23.0433 2650 
121 1 0.0551382 -0.0180768 -0.0387408 0.00164 -7.98226 -1.14881 -11.345 2650 
36 1 0.0575306 -0.0512821 -0.0361745 0.001058 -7.44343 -1.83701 -11.8265 2650 
69 1 0.0601236 -0.0233025 -0.0332658 0.000291 -6.64504 -3.48692 -12.0066 2650 
197 1 0.062933 -0.0139836 -0.0275893 0.000291 -14.2857 -7.39746 -32.5787 2650 
246 1 0.0638355 -0.0604562 -0.0233383 0.001058 -7.70566 1.40333 -21.0591 2650 
122 1 0.0647933 -0.0078898 -0.0205227 0.001058 -5.08897 -0.516388 -16.0525 2650 
142 1 0.00316675 -0.00482632 -0.0163281 0.000291 0.178746 -0.681594 -0.38439 2650 
230 1 0.0662657 -0.0230216 -0.0151255 0.001058 -5.0059 -5.89441 -21.913 2650 
210 1 0.0661322 -0.0135699 -0.0156839 0.001058 -3.69067 -0.708706 -15.5483 2650 
110 1 0.00358071 -0.00324559 -0.0156438 0.000291 -0.00350107 -0.0220031 -0.0105184 2650 
252 1 0.00162813 -0.00032672 -0.015256 0.001058 -0.00166999 -0.0122494 -0.00385255 2650 
269 1 0.00683094 -0.00158009 -0.0134898 0.000291 -0.00749531 -0.00226906 0.00353502 2650 
160 1 0.0103961 -0.00146734 -0.00880794 0.000105 0.0189834 0.00069911 0.018679 2650 
60 1 0.007579 -0.00214993 -0.006312 0.001058 0 -0.01175 0 2650 
45 1 0.010575 -0.00222993 -0.007722 0.000291 0 -0.01175 0 2650 
275 1 0.0148268 -0.00106116 -0.00720297 0.000291 0.0141865 -0.0144499 0.025982 2650 
26 1 0.0676262 -0.0440091 -0.00696881 0.001058 -4.23828 -1.1839 -41.0999 2650 
253 1 0.0175837 -0.00461447 -0.003468 0.000291 1.10681 -0.333762 -0.295786 2650 
126 1 0.00536834 -0.000690662 -0.00282617 0.000291 0.021637 -0.00216469 -0.0181041 2650 
227 1 0.00944 -0.00155193 -0.002109 0.000291 0 -0.01175 0 2650 
201 1 0.0145442 -0.000727165 -0.00301506 0.00164 0.00671041 0.00388833 0.0379647 2650 
177 1 0.000104562 -0.00283525 -0.000479334 0.00164 -0.00975051 -0.00608278 0.00414842 2650 
199 1 0.0160503 -0.000670159 -0.000613109 0.000291 0.017924 0.000326482 0.04462 2650 
35 1 0.00338889 -0.00322244 0.00128847 0.001058 0.00657044 -0.0107373 -0.00948648 2650 
101 1 0.00690944 -0.00117602 0.00104608 0.000291 0.0120929 -0.0154866 -0.00848068 2650 
48 1 0.009671 -0.000957926 0.000233 0.000105 0 -0.01175 0 2650 
294 1 0.006997 -0.00124393 0.003581 0.001058 0 -0.01175 0 2650 
244 1 0.0150845 -0.00064855 0.00347984 0.001058 0.00143191 -0.0115681 -0.00485067 2650 
24 1 0.00540572 -0.00130178 0.00470967 0.000105 -0.000275854 -0.0124119 -0.00398216 2650 
231 1 0.00427214 -0.00018552 0.00578017 0.001058 -0.00565497 -0.00825503 -0.00430339 2650 
51 1 0.00930804 -0.000394355 0.00511392 0.001058 -0.00119198 -0.0127786 0.00180812 2650 
3 1 0.0121639 -0.000873983 0.00954057 0.001058 0.0020679 -0.00116428 -0.00374371 2650 
287 1 0.0106582 -0.000455685 0.0111487 0.001058 0.000606337 -0.00699142 -0.0042577 2650 
82 1 0.00201443 -0.00219319 0.0147675 0.001058 0.00400128 0.00197046 -0.0063043 2650 
204 1 0.00422299 -0.000157229 0.0152343 0.001058 -0.00909458 -0.00133798 -0.00302903 2650 
267 1 0.0667318 -0.0509609 0.0163939 0.000291 9.54606 7.39125 -38.8481 2650 
296 1 0.0639344 -0.055588 0.0251794 0.000291 6.51066 1.57016 -16.5271 2650 
229 1 0.0595956 -0.0426736 0.0326773 0.001058 12.2766 1.26351 -22.3708 2650 
46 1 0.0600001 -0.000290977 0.0334877 0.000291 4.32715 8.92848e-07 -7.7507 2650 
180 1 0.045511 -0.012585 0.0504654 0.001058 17.763 -4.26789 -16.0053 2650 
23 1 0.039851 -0.016459 0.0559725 0.000291 22.9076 -3.66815 -16.3062 2650 
1 1 0.0332563 -0.00881702 0.0586156 0.00164 26.457 0.182678 -14.9936 2650 
108 1 0.0158249 -0.0208401 0.0660734 0.001058 9.74707 0.496696 -2.33444 2650 
217 1 0.0190445 0.0594787 -0.0610817 0.001058 0.281107 -0.0147203 -0.405089 2650 
206 1 0.0634313 0.0181826 -0.0264204 0.000291 -4.74249 -6.93909 -11.3828 2650 
260 1 0.00306451 0.00283778 -0.0160949 0.000291 -0.0120055 0.0019441 0.00651081 2650 
85 1 0.000505577 0.00808686 -0.0164174 0.000291 0.00302158 0.0132939 0.000274953 2650 
37 1 0.006156 0.00154807 -0.015157 0.000291 0 -0.01175 0 2650 
105 1 0.00158633 0.00303895 -0.0126068 0.00164 -0.00380999 -0.0064552 -0.00344187 2650 
134 1 0.00415619 0.0051757 -0.0102501 0.000291 -0.0118829 0.00375813 -0.00608975 2650 
127 1 0.00329033 0.0477414 -0.0106191 0.000291 0.0287766 0.0561217 0.00113528 2650 
130 1 0.0139641 0.000929637 -0.00729275 0.001058 0.015114 -0.000586331 0.0278419 2650 
161 1 0.0114211 0.00281016 -0.00688511 0.00164 -0.00276466 0.000958617 -0.00216536 2650 
176 1 0.00129665 0.00395635 -0.00741251 0.000105 0.0148625 0.0026948 -0.0280506 2650 
284 1 0.0148325 0.00530208 -0.00745217 0.000291 -0.00241431 -0.00119174 -0.000406097 2650 
279 1 0.00766936 0.00945907 -0.00726278 0.001058 -0.00655734 0.00883723 -0.00295144 2650 
203 1 0.0128191 0.0273255 -0.00621191 0.001058 0.0383176 0.0560696 0.0066439 2650 
250 1 0.00484176 0.0374917 -0.00659815 0.001058 -0.0712758 0.0487217 -0.00122096 2650 
278 1 7.4e-05 0.000361074 -0.004448 0.001058 0 -0.01175 0 2650 
67 1 0.00198307 0.00211547 -0.00527993 0.001058 -0.00558703 -0.00493479 0.00721537 2650 
113 1 0.00555056 0.00317261 -0.00488033 0.00164 -0.0667374 0.0148987 -0.0204135 2650 
263 1 0.00261801 0.00444897 -0.00405411 0.000291 0.00647248 -0.0280953 -0.0382382 2650 
19 1 0.0148365 0.00437972 -0.00458828 0.001058 -0.000934858 -0.000672318 0.00257047 2650 
92 1 0.00880534 0.00754261 -0.0044018 0.001058 -0.00319297 0.00820736 -7.57342e-07 2650 
77 1 0.00539386 0.0113882 -0.00592166 0.000291 0.0277953 0.00207908 -0.016867 2650 
301 1 0.0122153 0.0346957 -0.00416439 0.001058 0.0113125 0.0256345 -0.0254985 2650 
153 1 0.00442018 0.00589964 -0.00212639 0.00164 0.00970325 -0.00401816 -0.0193411 2650 
286 1 0.0152257 0.00506145 -0.00252661 0.001058 -0.00452817 0.00975893 -0.0162105 2650 
190 1 0.005899 0.00115007 -0.000534 0.000291 0 -0.01175 0 2650 
212 1 0.000845909 0.00281493 -3.94438e-05 0.000291 -0.000536105 -0.00385845 -0.0132408 2650 
149 1 0.00816751 0.050604 -4.67331e-05 0.000291 -0.055882 0.147724 0.0455829 2650 
245 1 0.00238588 0.0679522 -0.000734995 0.001058 0.0132501 0.0534812 -0.0221989 2650 
202 1 0.0049916 0.000656092 0.00143367 0.001058 0.00642366 -0.00739553 -0.00986741 2650 
49 1 0.000385652 0.0144014 0.000463329 0.00164 0.0144104 0.0337561 -0.0099999 2650 
123 1 0.010762 0.02566 0.00162791 0.001058 0.00532989 0.0294064 0.0427642 2650 
79 1 0.0141703 0.00431613 0.0034857 0.000291 -0.0098558 -0.00054128 -0.00920898 2650 
222 1 0.010497 0.00633005 0.00376358 0.001058 0.00387924 0.00409408 -0.00931656 2650 
195 1 0.0107623 0.00900933 0.00210942 0.001058 0.0216865 0.00727933 -0.0225594 2650 
139 1 0.0130959 0.0209411 0.00264883 0.001058 0.0124295 0.00846741 0.0230295 2650 
249 1 0.000572805 0.0253303 0.00384247 0.000291 0.00967839 0.0183331 -0.0129307 2650 
208 1 0.0140428 0.000965521 0.00552419 0.001058 -0.00167709 -0.0014085 -0.00478689 2650 
71 1 0.00332004 0.0107326 0.00542437 0.000291 0.0217236 0.0154889 0.00459254 2650 
9 1 0.0134095 0.0148458 0.00472839 0.00164 -0.0201623 0.0680235 0.0162104 2650 
292 1 0.00612735 0.0185643 0.00587273 0.001058 0.0152425 0.0152519 -0.0334915 2650 
91 1 0.0680752 0.0547093 -0.00212538 0.001058 -4.62129 2.72316 -147.957 2650 
100 1 0.0102359 0.0038921 0.00693277 0.001058 -0.00927748 0.0064427 -0.00722449 2650 
271 1 0.0130378 0.00290186 0.00696556 0.001058 -0.00241367 -0.00331481 0.000562986 2650 
156 1 0.0079693 0.0118883 0.0073705 0.001058 0.00972231 -0.000191895 -0.0100171 2650 
57 1 0.00608388 0.0237788 0.00740569 0.00164 -0.000944415 0.00612769 -0.0239867 2650 
155 1 0.0141453 0.0238341 0.00723383 0.001058 -0.0212136 0.0320806 0.0513865 2650 
258 1 0.0105022 0.00194998 0.00822123 0.001058 -0.0104443 0.00788984 0.00377156 2650 
194 1 0.0125095 0.00195894 0.0096983 0.001058 0.000980541 -0.00346625 0.000869129 2650 
145 1 0.011194 0.00446974 0.00943671 0.00164 0.000994439 -0.00165757 -0.00714826 2650 
112 1 0.0129704 0.00434879 0.00991544 0.000105 -0.00362665 7.64353e-05 0.0151472 2650 
54 1 0.0143779 0.0325669 0.00828375 0.000291 0.0125375 0.00240004 -0.049284 2650 
232 1 0.00663425 0.00326954 0.0111226 0.001058 -0.00465943 0.00819483 0.00397328 2650 
265 1 0.0100528 0.00569703 0.0116823 0.001058 0.00686462 0.00404975 -0.00341683 2650 
298 1 0.0110893 0.005191 0.011229 0.000105 0.00384822 -0.00429062 -0.00813409 2650 
66 1 0.00767928 0.00951768 0.0116164 0.001058 0.00619263 0.00109789 0.000884431 2650 
164 1 0.00654399 0.0120831 0.0109655 0.001058 0.0256567 0.0232866 0.0135504 2650 
87 1 0.00920399 0.0240879 0.01374 0.000291 0.0460879 0.0176314 -0.0349452 2650 
238 1 0.00361962 0.0264698 0.0120035 0.001058 0.0206406 0.0247492 -0.00648467 2650 
95 1 0.00716482 0.00307707 0.0146502 0.000291 0.000317815 -0.00292264 0.00231518 2650 
136 1 0.0131304 0.111506 0.00636519 0.000105 0.0370802 0.101801 0.0201257 2650 
