ITEM: TIMESTEP
15185168
ITEM: NUMBER OF ATOMS
181
ITEM: BOX BOUNDS ff ff ff
-0.15 0.15
-0.15 0.15
-0.15 0.15
ITEM: ATOMS id type x y z radius vx vy vz density 
46 1 -0.0187856 -0.051746 -0.066091 0.000291 -14.4931 -2.16328 4.11949 2650 
244 1 -0.0121258 -0.0274546 -0.0668513 0.001058 -12.736 -1.05674 2.31004 2650 
193 1 -0.0329366 -0.0410837 -0.0587736 0.00164 -16.2671 -2.32373 9.10489 2650 
148 1 -0.0395072 -0.0499055 -0.0552858 0.001058 -17.5901 -2.34388 12.5591 2650 
280 1 -0.0429687 -0.00640215 -0.0526364 0.001058 -10.9563 1.48418 8.93549 2650 
180 1 -0.0531132 -0.0548409 -0.0423902 0.001058 -9.5026 1.581 11.8949 2650 
81 1 -0.0581974 -0.0573023 -0.0339909 0.00164 -9.82236 -2.26277 16.7954 2650 
43 1 -0.0647862 -0.0341573 -0.0205328 0.001058 -2.01805 -1.42623 6.36116 2650 
135 1 -0.00162617 -0.000183721 -0.0161193 0.000291 0.0022501 0.000177671 -0.0146391 2650 
114 1 -0.00722508 -0.00417417 -0.0146465 0.001058 -0.201684 -0.397108 -0.364982 2650 
78 1 -0.00174522 -0.000398941 -0.0145828 0.000291 -0.00533626 -0.0103826 -0.00367069 2650 
225 1 -0.0666342 -0.0307383 -0.0133814 0.001058 -1.88282 0.7452 9.36713 2650 
275 1 -0.0675551 -0.0335732 -0.0101395 0.000291 -0.0158876 5.42199 -2.21311 2650 
94 1 -0.0115236 -0.000662424 -0.0118226 0.000291 8.54657e-05 -0.0117335 8.54657e-05 2650 
159 1 -0.012707 -0.000572483 -0.00588 0.000291 0 -0.01175 0 2650 
67 1 -0.00355893 -0.000177392 -0.00432889 0.001058 -0.0251403 -0.00934789 0.00339681 2650 
175 1 -0.0686305 -0.0435576 -0.00341322 0.000291 -1.02245 -0.388532 20.5533 2650 
76 1 -0.0678975 -0.0211153 -0.00308851 0.001058 -0.701602 1.70585 15.4099 2650 
61 1 -0.016439 -0.000854483 -0.001038 0.000291 0 -0.01175 0 2650 
268 1 -0.011054 -0.00199248 0.000789 0.000291 0 -0.01175 0 2650 
129 1 -0.00853716 -0.00240542 0.00223282 0.00164 0.000219449 -0.0120332 0.000405385 2650 
291 1 -0.008194 -0.000467483 0.004767 0.000291 0 -0.01175 0 2650 
170 1 -0.0675672 -0.0168043 0.00738767 0.001058 2.23061 1.40975 20.3841 2650 
300 1 -0.0130433 -0.00211075 0.00817428 0.001058 -0.000841633 -0.00595378 -0.00365684 2650 
229 1 -0.0666625 -0.0125812 0.0132536 0.001058 3.22078 2.50425 16.1857 2650 
289 1 -0.0665265 -0.0426137 0.0172034 0.000291 5.41794 -2.85404 20.946 2650 
257 1 -0.0592539 -0.0615508 0.0332789 0.001058 6.58016 0.136346 11.705 2650 
36 1 -0.042902 -0.056212 0.0526895 0.001058 9.20568 -0.0272389 7.48833 2650 
169 1 -0.0376498 -0.0251397 0.0558763 0.00164 15.4681 -1.43994 10.4089 2650 
6 1 -0.0331494 -0.0264826 0.0580277 0.000291 4.40401 -3.23603 5.85422 2650 
18 1 -0.0364109 -0.0119162 0.0565765 0.001058 29.7753 -2.84153 20.5526 2650 
128 1 -0.0309859 -0.0601832 0.0615337 0.000105 15.6051 1.76429 7.85809 2650 
294 1 -0.0217653 -0.015021 0.0643615 0.001058 10.4603 0.626968 3.53724 2650 
34 1 -0.0149185 -0.057982 0.0662839 0.001058 -2.71738 0.556196 -0.611593 2650 
267 1 -0.0173026 -0.0493832 0.0664947 0.000291 21.7828 -0.992704 5.66808 2650 
24 1 -0.0179564 -0.0360095 0.0665138 0.000105 19.6353 -2.55189 5.30083 2650 
108 1 -0.00573085 -0.0301182 0.0676183 0.001058 3.1751 4.96559 0.652408 2650 
218 1 -0.011738 -0.0236014 0.0669221 0.001058 20.4148 -1.06577 3.57956 2650 
185 1 -0.0119715 -0.00489364 0.0662926 0.00164 17.364 -1.26371 3.13335 2650 
8 1 -0.0047805 -0.0414723 0.0687289 0.000105 23.344 -6.63012 1.62371 2650 
75 1 -0.00128913 0.0697589 -0.0166487 0.001058 0.0171891 0.064434 -0.0211867 2650 
59 1 -0.00476378 0.0186161 -0.0120499 0.001058 -0.00678086 0.00769962 0.0204659 2650 
104 1 -0.00981966 0.00252575 -0.0116307 0.000105 0.011981 -0.00157217 -0.0109702 2650 
33 1 -0.00278054 0.000948135 -0.00835666 0.00164 0.0013962 -0.00701225 0.00592525 2650 
113 1 -0.00805085 0.00751614 -0.00964711 0.00164 -0.0583554 0.0193057 -0.0207538 2650 
263 1 -0.0145113 0.00539015 -0.00794685 0.000291 0.0144724 0.0136007 0.0456324 2650 
80 1 -0.00592432 0.00417759 -0.00700116 0.000105 0.0130288 -0.0027678 -0.00975077 2650 
250 1 -0.011552 0.0486979 -0.00687897 0.001058 -0.0712758 0.0487217 -0.00122096 2650 
97 1 -0.00980132 0.00141137 -0.00406557 0.00164 0.00587724 -0.00270027 -0.00409197 2650 
234 1 -0.0120386 0.00851609 -0.00573528 0.000291 -0.000530972 0.00319134 0.0114593 2650 
7 1 -0.00427845 0.0272272 -0.00318707 0.000291 0.00379351 0.0136266 -0.000190797 2650 
99 1 -0.0048039 0.0150386 -0.00114002 0.001058 0.0112842 0.0140299 -0.00166045 2650 
209 1 -0.003148 0.0101304 0.000197941 0.001058 0.0134316 0.00655067 0.00545932 2650 
65 1 -0.012746 0.0234099 0.000780458 0.00164 -0.00343699 0.0118581 0.00338465 2650 
187 1 -0.0128897 0.0208187 0.00269862 0.001058 0.00220575 0.0137802 0.0133562 2650 
4 1 -0.0142306 0.00555522 0.00593397 0.001058 -0.000962198 -0.00289426 -0.00306323 2650 
17 1 -0.0117302 0.0118147 0.00475242 0.00164 0.00532312 0.0101535 0.0126934 2650 
115 1 -0.0148724 0.0134107 0.00536736 0.001058 0.00704531 0.00473014 0.0166597 2650 
220 1 -0.0152252 0.025196 0.00512319 0.000291 -0.00515653 0.0136107 0.0128916 2650 
240 1 -0.0130538 0.0260299 0.00478209 0.000291 -0.00215606 0.0297587 0.00899639 2650 
147 1 -0.0152167 0.0349509 0.00447662 0.001058 0.00923729 0.0248067 0.0523804 2650 
124 1 -0.0146972 0.0414227 0.00433106 0.001058 0.000501626 0.0410145 -0.000846304 2650 
116 1 -0.0145225 0.0533464 0.0058775 0.001058 0.0060965 0.0429198 -0.0402084 2650 
256 1 -0.0150245 0.0144154 0.00739325 0.000291 0.00468521 0.00663814 0.0205766 2650 
242 1 -0.0136491 0.0162377 0.00652755 0.000291 -0.0086111 0.00654042 0.00262129 2650 
28 1 -0.0122111 0.0454678 0.00788292 0.001058 0.00321107 0.0436165 0.0028608 2650 
68 1 -0.00174441 0.0073609 0.0090128 0.001058 0.0027366 -0.00341554 -0.0016946 2650 
52 1 -0.0133747 0.0115224 0.00844489 0.001058 0.00849495 0.00864021 0.0113559 2650 
304 1 -0.00990475 0.0108862 0.00872422 0.000291 0.00483691 0.00442522 -0.0020989 2650 
10 1 -0.0116937 0.0188372 0.0106217 0.001058 0.00786106 0.0172796 0.0191737 2650 
144 1 -0.00617526 0.0206935 0.0120275 0.000105 0.00862261 0.0155448 0.0270904 2650 
273 1 -0.00334949 0.0412961 0.0128698 0.001058 -0.000465026 0.0310927 -0.0151219 2650 
47 1 -0.00898724 0.0154515 0.0140023 0.000291 0.0300647 0.00683939 0.0160766 2650 
106 1 -0.00167601 0.0544077 0.0156301 0.001058 0.0137575 0.0554487 0.0117951 2650 
154 1 -0.0192305 0.0657206 0.0255604 0.001058 -2.54333 -0.00173716 3.41287 2650 
149 1 -0.00468562 0.0845813 0.0104376 0.000291 -0.055882 0.147724 0.0455829 2650 
101 1 0.00436168 -0.0233474 -0.0685704 0.000291 -15.0355 -1.89419 -0.956387 2650 
278 1 0.00678873 -0.0212556 -0.0676022 0.001058 -14.1676 -1.80651 -1.42268 2650 
172 1 0.00396346 -0.0179875 -0.0678265 0.001058 -14.4937 -0.365531 -0.846907 2650 
230 1 0.0133337 -0.00884932 -0.0666209 0.001058 -12.4791 -1.75695 -2.49752 2650 
196 1 0.0195263 -0.0427554 -0.0650802 0.001058 -22.9335 2.58422 -6.87664 2650 
35 1 0.020494 -0.00858485 -0.0647805 0.001058 -20.5111 4.2579 -6.48555 2650 
210 1 0.0312043 -0.0615562 -0.0583027 0.001058 -3.95131 1.50529 0.453911 2650 
227 1 0.0373155 -0.037052 -0.0576931 0.000291 -18.0829 6.48902 -11.6953 2650 
69 1 0.0394335 -0.0238514 -0.05627 0.000291 -39.2204 0.494495 -27.4789 2650 
270 1 0.0475881 -0.0526707 -0.0495634 0.000291 -17.7061 4.52893 -16.9954 2650 
138 1 0.0530624 -0.0188798 -0.04245 0.001058 -5.97714 0.727121 -7.46371 2650 
20 1 0.0524159 -0.0326789 -0.0393292 0.001058 152.323 -2.45171 4.16257 2650 
1 1 0.0596573 -0.0526703 -0.0313403 0.00164 -4.08137 1.78365 -7.75775 2650 
140 1 0.0623215 -0.0531924 -0.027108 0.001058 -4.9818 -1.91357 -11.4425 2650 
122 1 0.0625957 -0.00239771 -0.0264885 0.001058 -10.2948 1.51222 -24.3079 2650 
23 1 0.0667418 -0.0591364 -0.0163463 0.000291 -1.86404 -0.0888527 -7.60887 2650 
110 1 0.0663072 -0.0297308 -0.0180284 0.000291 -2.75141 -4.7617 -10.1168 2650 
252 1 0.00119736 -0.00307242 -0.0156359 0.001058 -0.00216317 -0.0114914 0.00149657 2650 
37 1 0.006156 -0.00115448 -0.015157 0.000291 0 -0.01175 0 2650 
269 1 0.00510699 -0.00210198 -0.0126768 0.000291 -0.00749531 -0.00226906 0.00353502 2650 
126 1 0.010345 -0.00118855 -0.0069902 0.000291 0.021637 -0.00216469 -0.0181041 2650 
58 1 0.00812266 -0.00320765 -0.00501179 0.001058 0.0945217 -0.00941695 -0.0655177 2650 
160 1 0.0147624 -0.00130654 -0.00451167 0.000105 0.0189834 0.00069911 0.018679 2650 
13 1 0.0686524 -0.0393784 -0.00299317 0.000291 -2.27504 -0.311301 -52.1699 2650 
190 1 0.00669182 -0.00115198 -0.00247141 0.000291 0.00500936 -0.00921948 -0.0122412 2650 
202 1 0.00645258 -0.00105325 -0.000795571 0.001058 0.00631943 -0.00744818 -0.0096127 2650 
48 1 0.0688804 -0.0059126 0.00151799 0.000105 0.000214555 -0.140779 -0.00973472 2650 
38 1 0.00571604 -0.00200425 0.00161202 0.000291 -7.47821e-05 0.0166214 -0.029285 2650 
231 1 0.00297147 -0.00208422 0.00479037 0.001058 -0.00565497 -0.00825503 -0.00430339 2650 
89 1 0.0667148 -0.0580306 0.00965889 0.00164 3.19197 2.45369 -22.0196 2650 
51 1 0.0126619 -0.0026596 0.0092382 0.001058 0.0320449 -0.0219288 0.0282693 2650 
287 1 0.0105869 -0.00203337 0.0106857 0.001058 -0.0065463 -0.00596088 0.013261 2650 
120 1 0.0677743 -0.0259415 0.0123872 0.000105 2.25043 2.23173 -12.3116 2650 
82 1 0.0026435 -0.00219681 0.0131342 0.001058 0.00183228 -0.00143169 -0.00766888 2650 
184 1 0.00921051 -0.00230729 0.0139394 0.000105 0.0687825 0.00430141 -0.0505603 2650 
204 1 0.00242244 -8.13409e-06 0.0147209 0.001058 -0.00692558 0.00206417 -0.00166445 2650 
60 1 0.0649222 -0.00286894 0.0201036 0.001058 3.42519 1.97531 -11.051 2650 
272 1 0.0587575 -0.0336452 0.0341408 0.001058 -1.19609 1.34649 2.05636 2650 
211 1 0.0569528 -0.0271588 0.0370716 0.001058 3.91255 -0.47797 -6.00428 2650 
223 1 0.057357 -0.0189173 0.0364432 0.001058 3.10674 6.59314 -4.88467 2650 
121 1 0.0445425 -0.0183572 0.0505669 0.00164 16.8381 -1.16773 -14.8133 2650 
178 1 0.0403969 -0.0263099 0.0546438 0.001058 20.8887 1.75329 -15.4297 2650 
246 1 0.0368432 -0.0419755 0.0570851 0.001058 0.950302 5.97092 -0.592075 2650 
264 1 0.0287687 -0.026877 0.0615577 0.001058 21.6828 0.864266 -10.1259 2650 
137 1 0.0138924 -0.050126 0.0659229 0.00164 21.4769 1.17923 -4.52129 2650 
177 1 0.0107407 -0.0287926 0.0665223 0.00164 29.6182 2.24842 -4.77696 2650 
197 1 0.0128559 -0.00545509 0.0674956 0.000291 21.6272 -0.344762 -4.11935 2650 
163 1 0.0611467 0.0534393 -0.0299428 0.001058 -58.4008 -12.9883 -119.203 2650 
276 1 0.0012131 0.00256111 -0.0160839 0.000291 0.0225313 -0.00352277 0.00767648 2650 
85 1 0.00120056 0.0111445 -0.0163541 0.000291 0.00302158 0.0132939 0.000274953 2650 
260 1 0.000303175 0.00328493 -0.0145974 0.000291 -0.0120055 0.0019441 0.00651081 2650 
105 1 0.000710009 0.00155423 -0.0133984 0.00164 -0.00380999 -0.0064552 -0.00344187 2650 
176 1 0.00471509 0.00457616 -0.0138643 0.000105 0.0148625 0.0026948 -0.0280506 2650 
134 1 0.00142306 0.00604009 -0.0116508 0.000291 -0.0118829 0.00375813 -0.00608975 2650 
127 1 0.0099091 0.0606496 -0.010358 0.000291 0.0287766 0.0561217 0.00113528 2650 
77 1 0.0117869 0.0118664 -0.00980114 0.000291 0.0277953 0.00207908 -0.016867 2650 
301 1 0.0123163 0.0401409 -0.00843922 0.001058 -0.0177704 0.0203916 -0.00700909 2650 
161 1 0.0107852 0.00303064 -0.00738315 0.00164 -0.00276466 0.000958617 -0.00216536 2650 
153 1 0.00665197 0.00497544 -0.00657494 0.00164 0.00970325 -0.00401816 -0.0193411 2650 
284 1 0.0142772 0.00502797 -0.00754557 0.000291 -0.00241431 -0.00119174 -0.000406097 2650 
279 1 0.00616114 0.0114917 -0.00794163 0.001058 -0.00655734 0.00883723 -0.00295144 2650 
19 1 0.0143158 0.00371196 -0.00573047 0.001058 -0.00230076 -0.00296493 -0.00517443 2650 
286 1 0.0144899 0.00781917 -0.0045217 0.001058 -0.00316227 0.0120515 -0.00846562 2650 
92 1 0.00807094 0.00943034 -0.00440198 0.001058 -0.00319297 0.00820736 -7.57342e-07 2650 
212 1 0.000722602 0.00192747 -0.0030849 0.000291 -0.000536105 -0.00385845 -0.0132408 2650 
195 1 0.015522 0.0106941 -0.00305128 0.001058 -0.0135239 0.00889222 -0.0182334 2650 
54 1 0.0159751 0.0329571 -0.00294264 0.000291 -0.0134846 -0.000873254 -0.0470759 2650 
203 1 0.0129338 0.0389573 -0.00217171 0.001058 -0.0104617 0.0489781 0.0207311 2650 
130 1 0.0157506 0.000828689 -0.000628079 0.001058 0.00117783 -0.000292622 0.0291338 2650 
49 1 0.00370012 0.0221654 -0.0018367 0.00164 0.0144104 0.0337561 -0.0099999 2650 
292 1 0.00963319 0.0220723 -0.00183048 0.001058 0.0152425 0.0152519 -0.0334915 2650 
79 1 0.0119034 0.00419163 0.00136759 0.000291 -0.0098558 -0.00054128 -0.00920898 2650 
222 1 0.0113893 0.00727171 0.00162072 0.001058 0.00387924 0.00409408 -0.00931656 2650 
74 1 0.000216185 0.00949877 0.000660531 0.001058 0.0120085 0.00759219 0.0108605 2650 
57 1 0.00586666 0.0251882 0.00188865 0.00164 -0.000944415 0.00612769 -0.0239867 2650 
249 1 0.00279888 0.029547 0.000868352 0.000291 0.00967839 0.0183331 -0.0129307 2650 
201 1 0.0144868 0.00029776 0.00381291 0.00164 -0.00292732 0.00251251 0.0160402 2650 
199 1 0.0154801 0.00171837 0.00572211 0.000291 -0.00956766 0.0147874 0.0183172 2650 
100 1 0.00810202 0.00537395 0.0052711 0.001058 -0.00927748 0.0064427 -0.00722449 2650 
156 1 0.0102055 0.0118441 0.00506652 0.001058 0.00972231 -0.000191895 -0.0100171 2650 
208 1 0.0131639 0.000713254 0.00614038 0.001058 -0.00658928 -0.00758497 0.0169413 2650 
271 1 0.0123677 0.00214128 0.00750049 0.001058 -0.00629691 -0.0031298 0.0135882 2650 
71 1 0.00831657 0.0142951 0.00648068 0.000291 0.0217236 0.0154889 0.00459254 2650 
139 1 0.0135542 0.0227416 0.00697004 0.001058 -0.0136668 0.00686955 0.0124231 2650 
258 1 0.00767018 0.00234786 0.00846483 0.001058 -0.0124882 0.00115252 0.000804852 2650 
186 1 0.0070126 0.0049933 0.00930966 0.001058 0.0779256 0.032672 0.0163341 2650 
145 1 0.0114272 0.00468888 0.00801231 0.00164 -0.00323184 0.0101977 -0.00844388 2650 
298 1 0.0119535 0.00444804 0.00982096 0.000105 -0.000718208 0.0317398 -0.0161032 2650 
9 1 0.00877309 0.0304889 0.00845353 0.00164 -0.0173672 0.0606425 0.00667133 2650 
3 1 0.0120021 0.000650965 0.0101952 0.001058 -0.0220419 0.0345077 0.0231583 2650 
194 1 0.0120046 0.0033803 0.0103189 0.001058 -0.0183915 0.0372774 0.0158804 2650 
112 1 0.0109739 0.00432894 0.0118627 0.000105 -0.0109427 -0.000159124 0.00547551 2650 
265 1 0.0115016 0.00661682 0.0107941 0.001058 0.00404958 0.00379722 -0.00563065 2650 
66 1 0.00910361 0.0097702 0.0118198 0.001058 0.00619263 0.00109789 0.000884431 2650 
164 1 0.0100911 0.0170193 0.0109657 0.001058 0.0033823 0.019315 -0.015938 2650 
41 1 0.00014258 0.0185689 0.0108744 0.00164 0.0101493 0.00903205 0.0210511 2650 
87 1 0.0126458 0.0198472 0.0104948 0.000291 0.00224394 -0.0332984 -0.00537513 2650 
238 1 0.00836346 0.0321719 0.0105244 0.001058 0.0102303 0.05224 0.0290441 2650 
123 1 0.0113193 0.0322819 0.0107896 0.001058 -0.0301497 0.0218868 0.00698048 2650 
232 1 0.00556256 0.00515439 0.0120365 0.001058 -0.00465943 0.00819483 0.00397328 2650 
261 1 0.00323249 0.0319937 0.0125018 0.000291 -0.0703008 0.0528812 -0.0412 2650 
95 1 0.00717619 0.00243265 0.0149954 0.000291 -0.000739003 -0.00244661 -0.000892357 2650 
155 1 0.00576703 0.0310574 0.0148008 0.001058 -0.041231 0.0307669 0.0213877 2650 
91 1 0.0426875 0.0514634 0.0530322 0.001058 104.299 -18.1819 -83.9133 2650 
245 1 0.00543348 0.0802532 -0.00584085 0.001058 0.0132501 0.0534812 -0.0221989 2650 
