ITEM: TIMESTEP
7777730
ITEM: NUMBER OF ATOMS
255
ITEM: BOX BOUNDS ff ff ff
-0.15 0.15
-0.15 0.15
-0.15 0.15
ITEM: ATOMS id type x y z radius vx vy vz density 
236 1 -0.00985814 -0.0608695 -0.0672236 0.001058 -16.9025 -0.67331 2.47837 2650 
200 1 -0.0147915 -0.0340117 -0.0672884 0.000105 -5.91638 -2.18538 1.29882 2650 
89 1 -0.00640633 -0.0240717 -0.0670565 0.00164 -14.5588 -0.638861 1.39033 2650 
173 1 -0.0294887 -0.0335972 -0.0620592 0.000291 -17.1213 1.96144 8.15536 2650 
138 1 -0.0271665 -0.0194756 -0.0622768 0.001058 -16.7007 1.74849 7.28158 2650 
90 1 -0.0307133 -0.0551374 -0.0606094 0.001058 -18.9609 1.6507 9.60131 2650 
230 1 -0.0292976 -0.0467462 -0.0613032 0.001058 -15.8932 0.0635263 7.59151 2650 
183 1 -0.0331478 -0.0379484 -0.0601843 0.000291 -16.3917 2.60277 9.02802 2650 
84 1 -0.0306811 -0.0324295 -0.0606252 0.001058 -18.3319 2.10873 9.27069 2650 
69 1 -0.0330127 -0.00708698 -0.0602585 0.000291 -10.2304 -1.29926 5.60477 2650 
257 1 -0.0557466 -0.0123769 -0.0388701 0.001058 -11.3811 0.150137 16.3079 2650 
6 1 -0.0572544 -0.00745943 -0.0379909 0.000291 -8.97934 -1.75672 13.5284 2650 
295 1 -0.0593027 -0.0513248 -0.0347085 0.000291 -11.0543 3.91925 18.8822 2650 
137 1 -0.0619181 -0.0220899 -0.0266138 0.00164 -5.62011 -2.13493 13.0576 2650 
50 1 -0.0662458 -0.0287981 -0.0151832 0.001058 -1.49339 0.301053 6.50968 2650 
184 1 -0.00841165 -0.00292272 -0.0145303 0.000105 -0.0752633 -0.00302714 0.0552319 2650 
108 1 -0.00830954 -0.00338817 -0.0106744 0.001058 -0.69566 -0.0348588 -0.893643 2650 
135 1 -0.00297623 -0.000290324 -0.00733584 0.000291 0.0022501 0.000177671 -0.0146391 2650 
76 1 -0.000971828 -0.0025391 -0.00543699 0.001058 0.00564796 -0.0105611 0.000695373 2650 
198 1 -0.0160109 -0.00156378 -0.0041065 0.000291 -0.00877366 -0.0177289 0.0346228 2650 
211 1 -0.013621 -0.00177645 -0.002856 0.001058 0 -0.01175 0 2650 
36 1 -0.0679589 -0.00114717 -0.00105638 0.001058 -0.212454 1.01265 13.6543 2650 
121 1 -0.0673435 -0.0181563 0.00299661 0.00164 0.948024 4.81987 21.2805 2650 
14 1 -0.006378 -0.00270945 0.001478 0.000291 0 -0.01175 0 2650 
296 1 -0.005879 -0.00223145 0.000521 0.000291 0 -0.01175 0 2650 
191 1 -0.0108 -0.00137745 0.001549 0.000291 0 -0.01175 0 2650 
168 1 -0.007536 -0.000366454 0.001389 0.000105 0 -0.01175 0 2650 
18 1 -0.0048051 -0.00110579 0.00123618 0.001058 0.0053943 -0.0106696 -0.0143213 2650 
98 1 -0.00201738 -0.00125509 0.00267574 0.001058 -0.000888658 -0.0146521 -0.00984914 2650 
53 1 -0.000389 -8.94536e-05 0.004762 0.000291 0 -0.01175 0 2650 
38 1 -0.00170418 -0.000971684 0.00727198 0.000291 -0.00540624 -0.00234689 -0.00641771 2650 
233 1 -0.001796 -0.00279245 0.010436 0.000291 0 -0.01175 0 2650 
226 1 -0.009224 -0.00182045 0.012787 0.000291 0 -0.01175 0 2650 
111 1 -0.0590459 -0.0437371 0.0351445 0.000291 15.5581 -2.65475 26.1319 2650 
189 1 -0.0597913 -0.0287034 0.0338616 0.000291 15.6383 12.6329 27.6066 2650 
8 1 -0.0553867 -0.0396818 0.0409749 0.000105 3.34962 0.0690468 4.5272 2650 
30 1 -0.0315017 -0.0604959 0.0439042 0.000291 8.53656 3.9967 1.6171 2650 
277 1 -0.0524659 -0.0262844 0.0443684 0.000291 10.7425 5.76178 12.6991 2650 
225 1 -0.0493353 -0.033644 0.0467349 0.001058 14.6162 4.4033 15.4157 2650 
107 1 -0.0453512 -0.0410352 0.0506078 0.001058 16.5279 1.92874 14.7981 2650 
214 1 -0.0246331 -0.0101239 0.0641415 0.000291 6.33633 -0.44936 2.43343 2650 
169 1 -0.0166302 -0.0540751 0.0652805 0.00164 16.8694 -2.63337 4.29389 2650 
83 1 -0.00571158 -0.0512299 0.067702 0.001058 17.0483 -2.54699 1.43811 2650 
148 1 -0.0601 -0.0368152 0.0317879 0.001058 24.2035 -0.827167 45.7265 2650 
26 1 -0.00702631 -0.00283496 0.0675783 0.001058 18.4895 -1.40301 1.9128 2650 
42 1 -0.00401106 -0.00188366 0.0678191 0.001058 18.4351 -1.76791 1.15785 2650 
63 1 -0.00293882 -0.00545637 0.0686461 0.000291 9.48514 0.297499 0.40607 2650 
182 1 -0.00637311 -0.000481531 0.0681537 0.000291 9.70778 -0.737131 0.292188 2650 
85 1 -0.000612403 0.00316815 -0.0165191 0.000291 0.00302158 0.0132939 0.000274953 2650 
70 1 -0.002345 0.00125155 -0.015511 0.000291 0 -0.01175 0 2650 
33 1 -0.00361656 0.0051611 -0.0119018 0.00164 0.00139121 -0.00702858 0.00589607 2650 
94 1 -0.0115748 0.00637773 -0.0118738 0.000291 8.54657e-05 -0.0117335 8.54657e-05 2650 
234 1 -0.0101798 0.00650469 -0.0114293 0.000291 -0.0198056 0.0044 -0.0033269 2650 
127 1 -0.00735696 0.0269765 -0.0110392 0.000291 0.0287766 0.0561217 0.00113528 2650 
154 1 -0.00498481 0.0360038 -0.00845238 0.001058 -0.0457969 0.0551383 0.0326121 2650 
114 1 -0.0124582 0.00130865 -0.00530007 0.001058 0.00321985 -0.00836985 -0.0228365 2650 
159 1 -0.012707 0.00647755 -0.00588 0.000291 0 -0.01175 0 2650 
74 1 -0.00909166 0.00625084 -0.00444068 0.001058 0.0197531 0.00277685 0.00564839 2650 
47 1 -0.0159791 0.00948983 -0.00436387 0.000291 -0.0120532 0.0103998 0.035367 2650 
256 1 -0.0158801 0.0107487 -0.00484642 0.000291 -0.00334059 -0.00157516 0.0102324 2650 
115 1 -0.0147255 0.0100425 -0.00577945 0.001058 -0.00922469 0.00653503 0.0183832 2650 
144 1 -0.0113488 0.0113666 -0.00422685 0.000105 0.00862261 0.0155448 0.0270904 2650 
187 1 -0.0142132 0.0125505 -0.00531515 0.001058 0.00220575 0.0137802 0.0133562 2650 
274 1 -0.0163523 0.000338867 -0.00250388 0.000291 -0.00392913 -0.0232343 0.0060769 2650 
175 1 -0.0162121 0.000866187 -0.0027157 0.000291 -0.00891713 -0.00738117 0.029378 2650 
13 1 -0.014201 0.00258355 -0.003882 0.000291 0 -0.01175 0 2650 
104 1 -0.014381 0.00355964 -0.0036961 0.000105 -0.00937326 -0.00230838 -0.0219625 2650 
17 1 -0.0149116 0.00571407 -0.00293608 0.00164 0.00416816 0.0109391 0.0193603 2650 
276 1 -0.0126571 0.00395418 -0.00391 0.000291 0.0231998 -0.00215193 -0.0242449 2650 
209 1 -0.011207 0.00620003 -0.00307766 0.001058 0.0134316 0.00655067 0.00545932 2650 
220 1 -0.0135996 0.0178194 -0.00284334 0.000291 0.00621602 0.00749286 0.0146849 2650 
7 1 -0.00655456 0.0190512 -0.00307259 0.000291 0.00379351 0.0136266 -0.000190797 2650 
75 1 -0.0116026 0.0310983 -0.00393665 0.001058 0.0171891 0.064434 -0.0211867 2650 
97 1 -0.0133277 0.00303154 -0.00161038 0.00164 0.00587724 -0.00270027 -0.00409197 2650 
80 1 -0.013617 0.00580378 -0.00108216 0.000105 0.0101478 -0.00197038 -0.0113343 2650 
61 1 -0.016439 0.00619555 -0.001038 0.000291 0 -0.01175 0 2650 
52 1 -0.0152917 0.00627178 -1.19203e-05 0.001058 0.00277676 0.00599608 -0.00862869 2650 
99 1 -0.0115744 0.00662063 -0.000143742 0.001058 0.0112842 0.0140299 -0.00166045 2650 
10 1 -0.0152732 0.00836131 -0.00113701 0.001058 -0.00943025 0.0189231 0.0230423 2650 
240 1 -0.0117602 0.00817464 -0.000615763 0.000291 -0.00215606 0.0297587 0.00899639 2650 
41 1 -0.00594702 0.0131496 -0.00175636 0.00164 0.0101493 0.00903205 0.0210511 2650 
65 1 -0.0106755 0.0162906 -0.00124905 0.00164 -0.00350053 0.0118922 0.00337463 2650 
136 1 -0.0005892 0.0738404 -0.00108126 0.000105 0.0370802 0.101801 0.0201257 2650 
120 1 -0.016055 0.00183555 0.000189 0.000105 0 -0.01175 0 2650 
268 1 -0.011054 0.00505755 0.000789 0.000291 0 -0.01175 0 2650 
129 1 -0.00866883 0.00481454 0.00198959 0.00164 0.000219449 -0.0120332 0.000405385 2650 
77 1 -0.00489034 0.0106189 0.000319078 0.000291 0.0277953 0.00207908 -0.016867 2650 
206 1 -0.0163138 0.0534885 0.00183306 0.000291 -0.00229865 0.236368 -0.00599883 2650 
176 1 -0.003983 0.00317255 0.002552 0.000105 0 -0.01175 0 2650 
273 1 -0.00167447 0.0198907 0.00250264 0.001058 -0.00378567 0.0376334 0.0311204 2650 
217 1 -0.00506734 0.0319988 0.00231436 0.001058 0.0281174 0.0762519 -0.0524681 2650 
170 1 -0.01149 0.00130555 0.005193 0.001058 0 -0.01175 0 2650 
49 1 -0.00496131 0.00189722 0.00414673 0.00164 0.0145414 0.033881 -0.00986711 2650 
164 1 -0.00295246 0.00346733 0.00595229 0.001058 0.0261761 0.0232466 0.0134911 2650 
126 1 -0.00139906 0.00356542 0.00599141 0.000291 -0.00813257 -0.0158529 -0.0248811 2650 
291 1 -0.008194 0.00658255 0.004767 0.000291 0 -0.01175 0 2650 
242 1 -0.00848246 0.0123134 0.00495477 0.000291 -0.0086111 0.00654042 0.00262129 2650 
124 1 -0.0149982 0.0168139 0.00483884 0.001058 0.000501626 0.0410145 -0.000846304 2650 
58 1 -0.0122953 0.000334697 0.00767269 0.001058 -0.00593126 -0.00817978 0.00596219 2650 
186 1 -0.006177 0.00452455 0.006545 0.001058 0 -0.01175 0 2650 
4 1 -0.0136532 0.00729178 0.00777191 0.001058 -0.000962198 -0.00289426 -0.00306323 2650 
71 1 -0.00201698 0.00757597 0.00670471 0.000291 -0.00101545 -0.00618567 -0.020495 2650 
28 1 -0.0141378 0.0192978 0.00616643 0.001058 0.00321107 0.0436165 0.0028608 2650 
157 1 -0.00969983 0.0432928 0.00701347 0.000291 0.0200522 0.0842483 0.026686 2650 
245 1 -0.00251665 0.0481643 0.00747854 0.001058 0.0132501 0.0534812 -0.0221989 2650 
304 1 -0.0128069 0.00823107 0.00998356 0.000291 0.00483691 0.00442522 -0.0020989 2650 
249 1 -0.00300818 0.0185471 0.00862679 0.000291 0.00967839 0.0183331 -0.0129307 2650 
106 1 -0.00993053 0.0211384 0.00855296 0.001058 0.0137575 0.0554487 0.0117951 2650 
300 1 -0.0117599 0.0020598 0.0105771 0.001058 -0.00474694 -0.00935107 -0.00498779 2650 
266 1 -0.0109371 0.00783154 0.0110787 0.001058 0.00827004 0.0106193 0.0111365 2650 
68 1 -0.00338638 0.00941023 0.0100296 0.001058 0.0027366 -0.00341554 -0.0016946 2650 
87 1 -0.0107612 0.0154243 0.0118823 0.000291 0.0466638 0.0283577 0.0402066 2650 
285 1 -0.00996988 0.00152594 0.0123502 0.001058 -0.00771031 -0.0133685 -0.00514153 2650 
299 1 -0.00853445 0.00437857 0.0123248 0.001058 0.0133133 -0.0112639 0.0106099 2650 
55 1 -0.011123 0.00938203 0.012186 0.000291 0.00488476 0.0136365 0.0153625 2650 
224 1 -0.00772014 0.0117218 0.0135618 0.001058 -0.00433066 0.00534585 0.00205423 2650 
238 1 -0.00401736 0.0173126 0.0144028 0.001058 0.0206406 0.0247492 -0.00648467 2650 
54 1 -0.00453079 0.0288195 0.0147503 0.000291 0.0409507 0.0217642 0.0638771 2650 
62 1 -0.0387307 0.0756105 -0.0568315 0.000291 -321.98 -1.87005 219.405 2650 
93 1 0.00607791 -0.00029097 -0.0684396 0.000291 -7.59969 2.26539e-07 -0.674905 2650 
140 1 0.0137607 -0.0596338 -0.0665395 0.001058 -26.1323 -0.835376 -5.40091 2650 
251 1 0.00233956 -0.0442197 -0.0679019 0.001058 -14.0417 -1.88321 -0.483793 2650 
219 1 0.0168971 -0.0149171 -0.0665989 0.000291 -17.8397 -3.79865 -4.52619 2650 
229 1 0.0212167 -0.0424919 -0.0645445 0.001058 -10.9102 -1.67035 -3.5862 2650 
122 1 0.0255794 -0.0533461 -0.0629433 0.001058 -12.0135 1.2894 -4.88153 2650 
132 1 0.0270612 -0.0499348 -0.0623206 0.001058 -11.1905 1.74999 -4.85859 2650 
193 1 0.0323753 -0.00234846 -0.0590731 0.00164 -8.97796 0.143434 -4.91611 2650 
39 1 0.0358097 -0.000290974 -0.0586395 0.000291 -7.1049 2.58667e-07 -4.33878 2650 
259 1 0.0422313 -0.0166276 -0.0532333 0.001058 -14.4213 0.628273 -11.4303 2650 
64 1 0.0466111 -0.017376 -0.0507339 0.000105 -6.763 -2.46467 -6.21335 2650 
213 1 0.0533302 -0.0474784 -0.0433261 0.000291 -11.2065 3.16689 -13.7899 2650 
118 1 0.0550788 -0.058702 -0.0410803 0.000291 -5.92521 0.916746 -7.94177 2650 
23 1 0.0552815 -0.0503906 -0.0408074 0.000291 -6.78066 1.03662 -9.18286 2650 
171 1 0.0550233 -0.0608932 -0.0398798 0.001058 -7.02777 0.341466 -9.68686 2650 
267 1 0.0582988 -0.0608206 -0.0363682 0.000291 -6.72109 1.26683 -10.7708 2650 
272 1 0.0572542 -0.00183895 -0.0366111 0.001058 -8.22745 -0.542716 -12.8545 2650 
1 1 0.0641524 -0.0370438 -0.0206467 0.00164 -1.98571 -0.216736 -6.1611 2650 
86 1 0.0666443 -0.0185355 -0.0167395 0.000291 -2.3343 1.41351 -9.29095 2650 
237 1 0.00873282 -0.0060545 -0.017866 0.001058 0.901674 -0.549282 -1.59933 2650 
303 1 0.00204285 -0.00271998 -0.0161241 0.000291 0.0149045 -0.0315016 -0.0069394 2650 
46 1 0.007499 -0.00269345 -0.014091 0.000291 0 -0.01175 0 2650 
180 1 0.00186514 -0.00119558 -0.0155988 0.001058 0.033368 -0.0170825 0.000537216 2650 
160 1 0.004468 -0.00100745 -0.014641 0.000105 0 -0.01175 0 2650 
263 1 0.006877 -0.000610454 -0.012319 0.000291 0 -0.01175 0 2650 
196 1 0.002599 -0.00213745 -0.011929 0.001058 0 -0.01175 0 2650 
201 1 0.00924565 -0.000511018 -0.0115202 0.00164 0.00137504 -0.011407 -0.00388383 2650 
247 1 0.0678694 -0.0482599 -0.0107589 0.000291 -7.30258 -3.4797 -46.0533 2650 
293 1 0.0675406 -0.0162555 -0.00765347 0.001058 -2.88174 2.11023 -25.4107 2650 
102 1 0.003423 -0.000705454 -0.006065 0.000291 0 -0.01175 0 2650 
117 1 0.004754 -0.000443454 -0.007063 0.000291 0 -0.01175 0 2650 
178 1 0.00376729 -0.00319372 -0.0048061 0.001058 0.000447662 -0.0102267 0.00270423 2650 
88 1 0.012863 -0.00383491 -0.00457647 0.000105 1.85763 -0.0842151 -0.655261 2650 
246 1 0.001376 -0.00120445 -0.005453 0.001058 0 -0.01175 0 2650 
264 1 0.0459934 -0.0204216 -0.00341735 0.001058 27.628 8.68236 -14.3903 2650 
270 1 0.0054532 -0.00352675 -0.00331089 0.000291 0.612447 -0.0574731 -0.367462 2650 
177 1 0.00370626 -0.000604014 -0.00202619 0.00164 -0.00972365 -0.00599557 0.0042022 2650 
43 1 0.0678786 -0.0508414 -0.00374227 0.001058 -2.08354 -4.29663 -37.7225 2650 
185 1 0.0673544 -0.0447695 -0.00342043 0.00164 -2.11625 0.592015 -41.6349 2650 
205 1 0.00165359 -0.00148263 -0.000367183 0.000291 -0.0110845 -0.00951857 0.00619805 2650 
96 1 0.009869 -0.00244845 0.000788 0.000105 0 -0.01175 0 2650 
81 1 0.007451 -0.00108545 7.8e-05 0.00164 0 -0.01175 0 2650 
261 1 0.011218 -0.000909454 0.000328 0.000291 0 -0.01175 0 2650 
210 1 0.0105226 -0.00153698 0.00221476 0.001058 -0.0106222 -0.00657497 -0.00336931 2650 
150 1 0.010064 -0.00256745 0.004311 0.000291 0 -0.01175 0 2650 
223 1 0.00887182 -0.0016971 0.00473915 0.001058 0.0235385 -0.00904348 0.00881089 2650 
197 1 0.0686167 -0.00123041 0.00367337 0.000291 0.546411 -0.637642 -10.204 2650 
174 1 0.002361 -0.00291545 0.006466 0.000291 0 -0.01175 0 2650 
162 1 0.0674349 -0.00105776 0.00847098 0.001058 1.00861 3.15836e-06 -8.02175 2650 
103 1 0.005979 -0.000211454 0.01127 0.000291 0 -0.01175 0 2650 
3 1 0.0113987 -0.000443203 0.0109257 0.001058 0.0020679 -0.00116428 -0.00374371 2650 
283 1 0.0677866 -0.000290971 0.0112553 0.000291 1.32242 4.27526e-07 -7.96236 2650 
82 1 0.000755 -0.00124245 0.014898 0.001058 0 -0.01175 0 2650 
143 1 0.0659227 -0.00942919 0.0193862 0.000291 0.0358616 -0.212795 -0.121914 2650 
218 1 0.0615011 -0.0495977 0.028925 0.001058 7.73424 2.1882 -16.43 2650 
141 1 0.0598379 -0.0461283 0.033777 0.000291 7.82456 1.37996 -13.8577 2650 
243 1 0.0424162 -0.060936 0.05308 0.001058 8.59202 0.336513 -6.85947 2650 
20 1 0.0314405 -0.0341271 0.0602319 0.001058 14.0526 -1.94346 -7.33154 2650 
34 1 0.0245911 -0.0155967 0.0633365 0.001058 14.4832 -1.3978 -5.62193 2650 
172 1 0.0237011 -0.0194219 0.0636799 0.001058 23.0417 -0.473366 -8.57015 2650 
72 1 0.0217217 -0.00972452 0.0653808 0.000105 -0.203474 2.39915 0.0622124 2650 
280 1 0.00102839 -0.0258544 0.0679443 0.001058 33.2517 -5.85068 -0.502936 2650 
91 1 0.0579669 0.0635885 -0.035793 0.001058 -86.2153 -0.0153611 -139.688 2650 
265 1 0.00442063 0.00558922 0.0149597 0.001058 0.0199912 -0.000128115 -0.00515531 2650 
130 1 0.00444246 0.00121797 -0.0151713 0.001058 0.0370744 -0.000902355 0.00754921 2650 
37 1 0.006156 0.00589555 -0.015157 0.000291 0 -0.01175 0 2650 
147 1 0.0033786 0.0158117 -0.015378 0.001058 -0.0549531 0.0404081 -0.0141113 2650 
289 1 0.001465 0.000556546 -0.012477 0.000291 0 -0.01175 0 2650 
142 1 0.002378 0.000971546 -0.013184 0.000291 0 -0.01175 0 2650 
269 1 0.00564969 3.6131e-05 -0.013918 0.000291 0.0371977 -0.0128243 0.0139292 2650 
78 1 0.001258 0.00588155 -0.012517 0.000291 0 -0.01175 0 2650 
252 1 0.00224602 0.00420554 -0.0138306 0.001058 -0.00166999 -0.0122494 -0.00385255 2650 
203 1 0.000237277 0.00821325 -0.0125895 0.001058 0.0258377 0.0432949 0.0372977 2650 
155 1 0.00879168 0.0114161 -0.0130699 0.001058 0.0562611 0.0350797 0.0421039 2650 
123 1 0.0073946 0.0144521 -0.0121136 0.001058 0.063573 0.0430792 -0.0441042 2650 
149 1 0.0110111 0.0367906 -0.0124336 0.000291 -2.62796 0.00112353 -2.28941 2650 
260 1 0.00773655 0.00211833 -0.0102343 0.000291 -0.0126887 0.00194451 -0.0180502 2650 
275 1 0.012705 0.00362855 -0.010476 0.000291 0 -0.01175 0 2650 
105 1 0.00299712 0.00542708 -0.0113325 0.00164 -0.0038398 -0.00644756 -0.00346238 2650 
110 1 0.00487609 0.00489549 -0.0117521 0.000291 -0.00350107 -0.0220031 -0.0105184 2650 
67 1 0.00405026 0.00394134 -0.0079496 0.001058 -0.00558703 -0.00493479 0.00721537 2650 
60 1 0.007579 0.00219755 -0.006312 0.001058 0 -0.01175 0 2650 
134 1 0.00855282 0.0037852 -0.0079969 0.000291 -0.0118829 0.00375813 -0.00608975 2650 
45 1 0.010575 0.00211755 -0.007722 0.000291 0 -0.01175 0 2650 
161 1 0.012444 0.00245547 -0.00608393 0.00164 -0.00276466 0.000958617 -0.00216536 2650 
284 1 0.0142692 0.00588815 -0.00610736 0.000291 0.00198088 -0.00162967 -0.00401056 2650 
279 1 0.0100956 0.00618931 -0.00617076 0.001058 -0.00655734 0.00883723 -0.00295144 2650 
250 1 0.00179825 0.0167857 -0.00645251 0.001058 0.056604 0.0605666 -0.00107285 2650 
199 1 0.014464 0.00260855 -0.004562 0.000291 0 -0.01175 0 2650 
278 1 7.4e-05 0.00470855 -0.004448 0.001058 0 -0.01175 0 2650 
92 1 0.00998673 0.00450591 -0.00440152 0.001058 -0.00319297 0.00820736 -7.57342e-07 2650 
19 1 0.0141734 0.00470346 -0.00532102 0.001058 0.00435807 -0.00106563 0.00142516 2650 
139 1 0.00849703 0.0178082 -0.00587203 0.001058 0.0124295 0.00846741 0.0230295 2650 
253 1 0.014729 0.000966546 -0.002617 0.000291 0 -0.01175 0 2650 
227 1 0.00944 0.00279555 -0.002109 0.000291 0 -0.01175 0 2650 
113 1 0.0103041 0.000793937 -0.000992908 0.00164 -0.000131046 -0.0102654 0.00285074 2650 
190 1 0.005899 0.00549755 -0.000534 0.000291 0 -0.01175 0 2650 
48 1 0.009671 0.00338955 0.000233 0.000105 0 -0.01175 0 2650 
128 1 0.00361 0.00509655 0.000511 0.000105 0 -0.01175 0 2650 
271 1 0.00872006 0.00490491 0.000811644 0.001058 0.0289317 -0.00785113 0.0310685 2650 
9 1 0.012984 0.00513455 0.000468 0.00164 0 -0.01175 0 2650 
286 1 0.015584 0.00580255 0.000132 0.001058 0 -0.01175 0 2650 
59 1 0.00377859 0.00938724 0.00185077 0.001058 -0.00843491 0.0274039 -0.0620268 2650 
116 1 0.00953549 0.0198711 8.9961e-05 0.001058 -0.0193078 0.0669284 0.0834163 2650 
101 1 0.004812 0.00381955 0.002517 0.000291 0 -0.01175 0 2650 
294 1 0.006997 0.00310355 0.003581 0.001058 0 -0.01175 0 2650 
35 1 0.000957847 0.000750318 0.00479844 0.001058 0.00657044 -0.0107373 -0.00948648 2650 
202 1 0.0019597 0.00334179 0.00599668 0.001058 0.00927578 -0.00719028 -0.0138109 2650 
24 1 0.005464 0.00318555 0.005551 0.000105 0 -0.01175 0 2650 
244 1 0.014869 0.00367155 0.00421 0.001058 0 -0.01175 0 2650 
212 1 0.00104427 0.00424254 0.00485963 0.000291 -0.000536105 -0.00385845 -0.0132408 2650 
51 1 0.009662 0.00425855 0.004577 0.001058 0 -0.01175 0 2650 
153 1 0.00100247 0.00741347 0.00515211 0.00164 0.00916448 -0.00410288 -0.0197232 2650 
79 1 0.014214 0.00609855 0.005058 0.000291 0 -0.01175 0 2650 
301 1 0.00802966 0.025211 0.00526999 0.001058 0.0113125 0.0256345 -0.0254985 2650 
208 1 0.0121174 0.00138174 0.0073538 0.001058 0.015057 -0.000780944 -0.00273884 2650 
231 1 0.00636451 0.00286893 0.00737304 0.001058 -0.00565524 -0.00825568 -0.00430729 2650 
222 1 0.009219 0.00545755 0.006833 0.001058 0 -0.01175 0 2650 
112 1 0.013668 0.00642155 0.007002 0.000105 0 -0.01175 0 2650 
204 1 0.00625199 7.23501e-05 0.00983158 0.001058 -0.00544 -0.000663987 0.0153122 2650 
232 1 0.00835823 0.000237474 0.00965254 0.001058 -0.00465943 0.00819483 0.00397328 2650 
258 1 0.0107846 0.000879438 0.00938624 0.001058 0.0047834 -0.00600891 -0.00984882 2650 
100 1 0.00832173 0.00246929 0.00834279 0.001058 0.0150592 0.0167551 -0.012161 2650 
194 1 0.0104154 0.00381283 0.0099801 0.001058 0.00965479 -0.00844737 -0.00170701 2650 
145 1 0.00864468 0.00634513 0.0099133 0.00164 0.0110313 -0.00631937 0.0021615 2650 
57 1 0.00418534 0.0206427 0.00993416 0.00164 0.0229902 0.0153792 0.043586 2650 
207 1 0.0026484 0.00074804 0.0105732 0.000291 -0.0197991 -0.0328905 -0.0312262 2650 
287 1 0.00907161 0.00232401 0.0115887 0.001058 0.00682141 -0.00787141 0.000922002 2650 
195 1 0.00273838 0.006316 0.0104563 0.001058 0.0216865 0.00727933 -0.0225594 2650 
66 1 0.00538802 0.00911146 0.0112891 0.001058 0.00619263 0.00109789 0.000884431 2650 
292 1 0.000189472 0.0119925 0.0109067 0.001058 0.0192322 0.0276757 0.064947 2650 
156 1 0.00437207 0.0119593 0.0110768 0.001058 0.00972231 -0.000191895 -0.0100171 2650 
95 1 0.00704723 0.00415844 0.0137936 0.000291 0.000317815 -0.00292264 0.00231518 2650 
298 1 0.00886022 0.00692339 0.013202 0.000105 0.0129991 -0.00593697 0.0036458 2650 
163 1 0.0162159 0.077429 -0.00455117 0.001058 0.148238 0.430061 0.0454896 2650 
11 1 0.0192632 0.0857891 0.0178548 0.001058 2.31987 0.0894889 2.12425 2650 
