ITEM: TIMESTEP
20123408
ITEM: NUMBER OF ATOMS
133
ITEM: BOX BOUNDS ff ff ff
-0.15 0.15
-0.15 0.15
-0.15 0.15
ITEM: ATOMS id type x y z radius vx vy vz density 
58 1 -0.0272636 -0.0226945 -0.0622339 0.001058 -15.7878 0.0762357 6.91621 2650 
177 1 -0.0250136 -0.0212405 -0.0625518 0.00164 -16.2732 0.765413 6.49989 2650 
268 1 -0.0396255 -0.0150578 -0.0561324 0.000291 -23.6118 1.80743 16.6648 2650 
148 1 -0.0516007 -0.00351122 -0.0442169 0.001058 -9.67459 0.771 11.2792 2650 
218 1 -0.0615514 -0.0612763 -0.0288391 0.001058 -13.825 2.45717 29.6283 2650 
78 1 -0.0168445 -0.0201852 -0.0195831 0.000291 14.5064 4.03796 5.99207 2650 
135 1 -0.00269693 -0.00104029 -0.0162885 0.000291 -0.00685495 -0.00391328 -0.00415534 2650 
264 1 -0.0663938 -0.00880727 -0.0145667 0.001058 -5.81872 10.3465 26.496 2650 
291 1 -0.0671205 -0.00696738 -0.0143171 0.000291 -7.50761 12.7942 27.071 2650 
105 1 -0.00080412 -0.0010237 -0.0147627 0.00164 -0.00376222 -0.00643515 -0.0033816 2650 
138 1 -0.0668484 -0.0319831 -0.0122946 0.001058 -3.84526 -4.47631 20.8897 2650 
280 1 -0.0516047 -0.0211121 -0.00695667 0.001058 8.50561 1.57824 -6.23931 2650 
114 1 -0.0678452 -0.0386162 -0.00414831 0.001058 -1.45041 -1.30575 23.7011 2650 
33 1 -0.00222206 -0.00185675 -0.00598658 0.00164 0.0013962 -0.00701225 0.00592525 2650 
210 1 -0.0665547 -0.0275806 0.0137911 0.001058 3.93084 1.39264 18.9538 2650 
140 1 -0.0654473 -0.0429706 0.0183633 0.001058 8.3145 -4.02402 29.6101 2650 
230 1 -0.0566859 -0.0251552 0.0375343 0.001058 28.1952 -2.37904 42.5525 2650 
89 1 -0.0292135 -0.0419059 0.0607125 0.00164 18.9676 -1.82897 9.11576 2650 
43 1 -0.0173754 -0.0323303 0.0656869 0.001058 23.2625 -0.264935 6.1498 2650 
35 1 -0.018827 -0.0174755 0.0652832 0.001058 18.8387 -0.725582 5.43092 2650 
36 1 -0.00415946 -0.0526262 0.0678167 0.001058 22.4773 2.36883 1.37814 2650 
104 1 -0.00502692 0.00189699 -0.0160172 0.000105 0.0139931 -0.000990409 -0.00173116 2650 
134 1 -0.00333006 0.00754333 -0.0140866 0.000291 -0.0118829 0.00375813 -0.00608975 2650 
80 1 -0.000712851 0.00307047 -0.0109014 0.000105 0.0130288 -0.0027678 -0.00975077 2650 
260 1 -0.00449901 0.00406257 -0.011993 0.000291 -0.0120055 0.0019441 0.00651081 2650 
116 1 -0.0120839 0.0705142 -0.0102058 0.001058 0.0060965 0.0429198 -0.0402084 2650 
97 1 -0.00542525 0.00138186 -0.00740707 0.00164 0.0416412 0.0158531 -0.0341965 2650 
261 1 -0.0134968 0.0520029 -0.00411913 0.000291 0.0264272 0.0431737 -0.0423973 2650 
59 1 -0.00747611 0.0216959 -0.00386353 0.001058 -0.00678086 0.00769962 0.0204659 2650 
7 1 -0.00276106 0.0326778 -0.00326339 0.000291 0.00379351 0.0136266 -0.000190797 2650 
99 1 -0.000290241 0.0206505 -0.0018042 0.001058 0.0112842 0.0140299 -0.00166045 2650 
234 1 -0.0142589 0.00874295 0.00078077 0.000291 -0.0112235 -0.00239837 0.0217497 2650 
67 1 -0.00800177 0.00851809 7.75482e-05 0.001058 0.030402 0.156082 0.0681558 2650 
113 1 -0.0109162 0.0117795 0.00247297 0.00164 4.49409e-07 0.00946792 0.0373905 2650 
65 1 -0.0141207 0.0281531 0.00213431 0.00164 -0.00343699 0.0118581 0.00338465 2650 
124 1 -0.0144966 0.0578284 0.00399254 0.001058 0.000501626 0.0410145 -0.000846304 2650 
4 1 -0.0146154 0.00439752 0.00470868 0.001058 -0.000962198 -0.00289426 -0.00306323 2650 
304 1 -0.00797 0.0126563 0.00788466 0.000291 0.00483691 0.00442522 -0.0020989 2650 
242 1 -0.0143497 0.0184577 0.00664036 0.000291 0.0039053 0.00473342 -0.00164707 2650 
273 1 -0.0035355 0.0537331 0.00682103 0.001058 -0.000465026 0.0310927 -0.0151219 2650 
250 1 -0.0113947 0.0643582 0.00774065 0.001058 0.00458912 0.0491695 0.0266593 2650 
68 1 -0.000649781 0.00599469 0.00833497 0.001058 0.0027366 -0.00341554 -0.0016946 2650 
17 1 -0.00921307 0.0158935 0.00961469 0.00164 0.00928463 0.010393 0.0104601 2650 
187 1 -0.0120074 0.0263308 0.00804107 0.001058 0.00220575 0.0137802 0.0133562 2650 
220 1 -0.0132407 0.0301516 0.00852367 0.000291 0.00700129 0.0121426 0.00761609 2650 
240 1 -0.0139162 0.0379334 0.00838063 0.000291 -0.00215606 0.0297587 0.00899639 2650 
28 1 -0.0108907 0.0628024 0.00916867 0.001058 0.00686009 0.0322535 0.0172244 2650 
263 1 -0.00872234 0.0108304 0.010306 0.000291 0.0144724 0.0136007 0.0456324 2650 
115 1 -0.0114348 0.0149277 0.0110177 0.001058 0.00920111 0.00139362 0.00899027 2650 
52 1 -0.00966277 0.0149616 0.0125746 0.001058 0.0102442 0.00854631 0.00905676 2650 
256 1 -0.00997099 0.0169553 0.0129442 0.000291 0.012635 0.00634989 0.0138765 2650 
155 1 -0.00795924 0.0385318 0.0136645 0.001058 -0.0167891 -0.000334456 -0.0131494 2650 
204 1 -0.000347771 0.000817528 0.0140551 0.001058 -0.00692558 0.00206417 -0.00166445 2650 
10 1 -0.00571035 0.0253059 0.0148463 0.001058 0.0152991 0.0161186 0.0101484 2650 
144 1 -0.000960113 0.0261974 0.0145824 0.000105 0.0157353 0.0126694 -0.00626058 2650 
147 1 -0.00235775 0.0463644 0.0155922 0.001058 0.0302382 0.0435632 0.00727078 2650 
127 1 -0.0479281 0.0493944 0.0492676 0.000291 135.881 15.3771 132.167 2650 
46 1 0.0328574 -0.0214199 -0.0603433 0.000291 -17.5509 0.179873 -9.55654 2650 
1 1 0.030864 -0.0342019 -0.0599006 0.00164 -23.188 -3.88922 -11.9335 2650 
60 1 0.0544379 -0.0507327 -0.0406827 0.001058 -12.4741 1.01157 -16.6768 2650 
202 1 0.0549066 -0.0263387 -0.0400451 0.001058 -10.3796 1.05372 -14.2186 2650 
81 1 0.0558079 -0.0147376 -0.0377783 0.00164 -9.80868 2.68202 -14.4705 2650 
184 1 0.00908653 -0.000581875 -0.0140587 0.000105 -0.0711038 0.00341216 -0.0380377 2650 
269 1 0.00210888 -0.0030096 -0.0112628 0.000291 -0.00749531 -0.00226906 0.00353502 2650 
51 1 0.0672207 -0.0327152 -0.0100689 0.001058 -3.3025 1.89501 -22.0295 2650 
126 1 0.0107231 -0.00113494 -0.00780488 0.000291 -0.011083 0.0014703 0.0073033 2650 
252 1 0.0583713 -0.0319787 0.000523028 0.001058 0.986824 -3.64283 -1.64963 2650 
160 1 0.0147682 -0.00115749 0.002767 0.000105 -0.00597896 0.000269468 0.0180444 2650 
129 1 0.0670695 -0.0269259 0.00677467 0.00164 2.23253 1.19848 -22.0742 2650 
82 1 0.0033764 -0.00276948 0.0100667 0.001058 0.00183228 -0.00143169 -0.00766888 2650 
208 1 0.00985461 -0.00229792 0.0120249 0.001058 -0.0131059 -0.00736448 0.00831187 2650 
223 1 0.0653811 -0.0557207 0.018553 0.001058 1.57862 0.626441 -5.55778 2650 
246 1 0.0654978 -0.0381193 0.0181539 0.001058 4.97485 0.148534 -17.9332 2650 
159 1 0.0618334 -0.0540289 0.0299697 0.000291 7.97187 2.01434 -16.443 2650 
185 1 0.00124131 -0.0417856 0.0673605 0.00164 23.5455 2.97716 -0.433417 2650 
193 1 0.0598294 -0.0472792 0.0310348 0.00164 9.37344 1.53937 -18.0471 2650 
122 1 0.0552855 -0.0446008 0.0395275 0.001058 14.2063 -0.209382 -19.8527 2650 
294 1 0.052802 -0.0500984 0.0427944 0.001058 19.8981 3.15808 -24.5344 2650 
170 1 0.0509292 -0.0561881 0.0450062 0.001058 21.5206 -4.08609 -24.3314 2650 
227 1 0.0280956 -0.0076434 0.0627022 0.000291 16.417 -1.97228 -7.35614 2650 
287 1 0.02016 -0.00514057 0.064883 0.001058 15.8008 -0.704142 -4.9085 2650 
85 1 0.00240918 0.016462 -0.0162441 0.000291 0.00302158 0.0132939 0.000274953 2650 
54 1 0.00385584 0.0324161 -0.0161583 0.000291 -0.0454236 -0.00188442 -0.0115374 2650 
276 1 0.0102255 0.00115201 -0.0130133 0.000291 0.0225313 -0.00352277 0.00767648 2650 
38 1 0.00568613 0.00464427 -0.0101019 0.000291 -7.47821e-05 0.0166214 -0.029285 2650 
153 1 0.0078449 0.004078 -0.0118307 0.00164 -0.00940421 -0.000246349 0.0055768 2650 
176 1 0.00518734 0.0060497 -0.0107414 0.000105 -0.00162422 0.00388661 0.0151582 2650 
77 1 0.00833015 0.0106702 -0.0105279 0.000291 -0.019582 -0.00741499 -0.0133594 2650 
195 1 0.0101701 0.0142846 -0.0102267 0.001058 -0.0132264 0.00906577 -0.0176249 2650 
292 1 0.00858075 0.0273204 -0.0114669 0.001058 -0.0249092 0.0104633 -0.0123747 2650 
49 1 0.00747451 0.0333358 -0.0102204 0.00164 0.00846609 0.0267894 -0.0230963 2650 
301 1 0.00520817 0.0482975 -0.0112428 0.001058 -0.0177704 0.0203916 -0.00700909 2650 
212 1 0.000508162 0.000384097 -0.0083812 0.000291 -0.000536105 -0.00385845 -0.0132408 2650 
279 1 0.00353822 0.0150265 -0.0091222 0.001058 -0.00655734 0.00883723 -0.00295144 2650 
19 1 0.0133955 0.002526 -0.00780023 0.001058 -0.00230076 -0.00296493 -0.00517443 2650 
284 1 0.0133115 0.00455127 -0.00770801 0.000291 -0.00241431 -0.00119174 -0.000406097 2650 
286 1 0.013225 0.0126398 -0.00790793 0.001058 -0.00316227 0.0120515 -0.00846562 2650 
92 1 0.00679376 0.0127133 -0.00440228 0.001058 -0.00319297 0.00820736 -7.57342e-07 2650 
249 1 0.00667021 0.0368802 -0.00430389 0.000291 0.00967839 0.0183331 -0.0129307 2650 
79 1 0.00796115 0.00397512 -0.00231598 0.000291 -0.0098558 -0.00054128 -0.00920898 2650 
222 1 0.012941 0.00890933 -0.00210588 0.001058 0.00387924 0.00409408 -0.00931656 2650 
57 1 0.00747864 0.0299712 -0.0033222 0.00164 0.00499991 0.0130944 -0.0108903 2650 
161 1 0.0142083 0.0018114 0.00170515 0.00164 0.0190792 -0.00655047 0.0492959 2650 
156 1 0.0140944 0.0117674 0.00105971 0.001058 0.00972231 -0.000191895 -0.0100171 2650 
100 1 0.00439105 0.00795101 0.00238132 0.001058 -0.00927748 0.0064427 -0.00722449 2650 
209 1 0.0022246 0.0127507 0.00238165 0.001058 0.0134316 0.00655067 0.00545932 2650 
145 1 0.0103491 0.00855549 0.00424631 0.00164 -0.00260238 0.0095746 -0.00958323 2650 
74 1 0.00501954 0.0125356 0.00500471 0.001058 0.0120085 0.00759219 0.0108605 2650 
298 1 0.0119677 0.0172818 0.00434282 0.000105 8.72357e-05 0.0321083 -0.0135302 2650 
164 1 0.011444 0.0247453 0.0045905 0.001058 0.0033823 0.019315 -0.015938 2650 
130 1 0.013483 0.000978293 0.00768607 0.001058 -0.00808602 0.000816537 0.0151172 2650 
186 1 0.0134194 0.0118615 0.00694052 0.001058 0.00186478 0.0140231 -0.0124817 2650 
71 1 0.0142319 0.0201422 0.00682345 0.000291 -0.00531043 0.0120928 -0.00996921 2650 
203 1 0.00874921 0.0585484 0.00612069 0.001058 -0.0104617 0.0489781 0.0207311 2650 
201 1 0.0115472 0.00119771 0.00981954 0.00164 -0.0103905 0.00207772 0.0142253 2650 
258 1 0.00267492 0.00280887 0.00878677 0.001058 -0.0124882 0.00115252 0.000804852 2650 
87 1 0.0132721 0.0131894 0.00998441 0.000291 -0.00452928 0.0138957 0.00246653 2650 
66 1 0.0104804 0.0100897 0.0112877 0.001058 0.000417165 0.000469974 -0.00376546 2650 
139 1 0.00808755 0.0254894 0.0119393 0.001058 -0.0136668 0.00686955 0.0124231 2650 
9 1 0.00182625 0.0547458 0.011122 0.00164 -0.0173672 0.0606425 0.00667133 2650 
271 1 0.00957876 0.000891153 0.0125748 0.001058 -0.0108962 -0.0030995 0.00744471 2650 
199 1 0.0108516 0.00755487 0.0120147 0.000291 -0.015158 0.0142404 0.011103 2650 
232 1 0.00341995 0.00833128 0.0133823 0.001058 -0.00633791 0.00758675 0.00250762 2650 
41 1 0.00352865 0.021327 0.0128951 0.00164 0.00675228 0.00472229 -0.0112217 2650 
123 1 0.00500034 0.0398009 0.0129466 0.001058 -0.0149086 0.0186062 0.00529426 2650 
238 1 0.00181767 0.0529398 0.0134843 0.001058 -0.0214399 0.0509459 -0.000445839 2650 
95 1 0.0068806 0.00145401 0.0146384 0.000291 -0.000739003 -0.00244661 -0.000892357 2650 
3 1 0.0010274 0.0121495 0.0156953 0.001058 -0.0306663 0.025765 0.00149055 2650 
194 1 0.00400924 0.014161 0.0152237 0.001058 -0.021926 0.0262714 0.00588051 2650 
112 1 0.00128201 0.0143311 0.0165894 0.000105 -0.0300004 0.0286163 -0.000287542 2650 
47 1 0.00397096 0.0175651 0.0160698 0.000291 0.032888 0.00371641 -0.00588051 2650 
245 1 0.0460275 0.095919 -0.0499801 0.001058 0.159345 -0.172209 0.146577 2650 
106 1 0.0044229 0.0757623 0.0145434 0.001058 0.0152911 0.0533264 -0.00314274 2650 
