LIGGGHTS (Version LIGGGHTS-PUBLIC 3.8.0, compiled 2022-11-07-16:55:38 by serperd1, git commit 86544c3f1215bc9744d7929e3eacf53ba086af9e)
Created orthogonal box = (-0.15 -0.15 -0.15) to (0.15 0.15 0.15)
  2 by 4 by 5 MPI processor grid

Reading STL file 'cone.stl' (mesh processing step 1/3) 

Reading STL file 'in_cyl.stl' (mesh processing step 1/3) 

Reading STL file 'top_cyl.stl' (mesh processing step 1/3) 

Reading STL file 'bot_cyl.stl' (mesh processing step 1/3) 

Reading STL file 'bottom_disk.stl' (mesh processing step 1/3) 

Reading STL file 'top_disk.stl' (mesh processing step 1/3) 
Fix particledistribution/discrete (id prob_par): distribution based on mass%:
    r_0to10p: d=2.100000e-04 (max. bounding sphere) mass%=10.000000%
    r_10to50p: d=5.820000e-04 (max. bounding sphere) mass%=40.000000%
    r_50to90p: d=2.116400e-03 (max. bounding sphere) mass%=40.000000%
    r_90to100p: d=3.280400e-03 (max. bounding sphere) mass%=10.000000%
Fix particledistribution/discrete (id prob_par): distribution based on number%:
    r_0to10p: d=2.100000e-04 (max. bounding sphere) number%=83.887011%
    r_10to50p: d=5.820000e-04 (max. bounding sphere) number%=15.763173%
    r_50to90p: d=2.116400e-03 (max. bounding sphere) number%=0.327808%
    r_90to100p: d=3.280400e-03 (max. bounding sphere) number%=0.022008%
Setting up run at Sun Nov 27 18:34:40 2022

Import and parallelization of mesh cone_mesh containing 868 triangle(s) successful
Import and parallelization of mesh inlet_cyl_wall_mesh containing 1064 triangle(s) successful
Import and parallelization of mesh top_cyl_wall_mesh containing 682 triangle(s) successful
Import and parallelization of mesh bot_cyl_wall_mesh containing 1280 triangle(s) successful
Import and parallelization of mesh bot_disk_wall_mesh containing 1682 triangle(s) successful
Import and parallelization of mesh top_disk_wall_mesh containing 1144 triangle(s) successful
Memory usage per processor = 954.231 Mbytes
    Step    Atoms         KinEng            CPU 
       0        0              0              0 
Loop time of 9.01052e-05 on 40 procs for 0 steps with 0 atoms, finish time Sun Nov 27 18:34:41 2022


Pair  time (%) = 0 (0)
Neigh time (%) = 0 (0)
Comm  time (%) = 0 (0)
Outpt time (%) = 0 (0)
Other time (%) = 9.01052e-05 (100)

Nlocal:    0 ave 0 max 0 min
Histogram: 40 0 0 0 0 0 0 0 0 0
Nghost:    0 ave 0 max 0 min
Histogram: 40 0 0 0 0 0 0 0 0 0
Neighs:    0 ave 0 max 0 min
Histogram: 40 0 0 0 0 0 0 0 0 0

Total # of neighbors = 0
Neighbor list builds = 0
Dangerous builds = 0
Setting up run at Sun Nov 27 18:34:41 2022

Memory usage per processor = 954.231 Mbytes
    Step    Atoms         KinEng            CPU 
       0        0              0              0 
       1        0              0    0.009652034 
Loop time of 0.0096756 on 40 procs for 1 steps with 0 atoms, finish time Sun Nov 27 18:34:41 2022


Pair  time (%) = 2.39698e-06 (0.0247734)
Neigh time (%) = 0 (0)
Comm  time (%) = 0.000220738 (2.28139)
Outpt time (%) = 0.000116336 (1.20236)
Other time (%) = 0.00933613 (96.4915)

Nlocal:    0 ave 0 max 0 min
Histogram: 40 0 0 0 0 0 0 0 0 0
Nghost:    0 ave 0 max 0 min
Histogram: 40 0 0 0 0 0 0 0 0 0
Neighs:    0 ave 0 max 0 min
Histogram: 40 0 0 0 0 0 0 0 0 0

Total # of neighbors = 0
Neighbor list builds = 0
Dangerous builds = 0
Scanning dump file ...
Reading snapshot from dump file ...
  orthogonal box = (-0.15 -0.15 -0.15) to (0.15 0.15 0.15)
  0 atoms before read
  305 atoms in snapshot
  0 atoms purged
  0 atoms replaced
  0 atoms trimmed
  305 atoms added
  305 atoms after read
Setting atom values ...
  305 settings made for type
  305 settings made for density
  305 settings made for vy
Setting up run at Sun Nov 27 18:34:41 2022

Memory usage per processor = 958.583 Mbytes
    Step    Atoms         KinEng            CPU 
       1      305  2.0462467e-07              0 
       2      305  2.4125357e-07    0.022157781 
Loop time of 0.0221683 on 40 procs for 1 steps with 305 atoms, finish time Sun Nov 27 18:34:41 2022


Pair  time (%) = 2.1776e-06 (0.00982302)
Neigh time (%) = 0 (0)
Comm  time (%) = 5.28583e-06 (0.023844)
Outpt time (%) = 0.0130673 (58.9458)
Other time (%) = 0.00909357 (41.0205)

Nlocal:    7.625 ave 134 max 0 min
Histogram: 36 2 0 0 0 0 0 0 0 2
Nghost:    5.125 ave 59 max 0 min
Histogram: 36 0 0 0 0 0 0 2 0 2
Neighs:    2.375 ave 54 max 0 min
Histogram: 37 1 0 0 0 1 0 0 0 1

Total # of neighbors = 95
Ave neighs/atom = 0.311475
Neighbor list builds = 0
Dangerous builds = 0
Setting up run at Sun Nov 27 18:34:41 2022

Memory usage per processor = 958.583 Mbytes
    Step    Atoms         KinEng            CPU 
       2      305  2.4125357e-07              0 
  123458      305  6.0816412e-05      1179.5571 
Loop time of 1179.56 on 40 procs for 123456 steps with 305 atoms, finish time Sun Nov 27 18:54:21 2022


Pair  time (%) = 0.236782 (0.0200738)
Neigh time (%) = 0.0580312 (0.00491975)
Comm  time (%) = 0.403101 (0.0341739)
Outpt time (%) = 0.000190899 (1.6184e-05)
Other time (%) = 1178.86 (99.9408)

Nlocal:    7.625 ave 136 max 0 min
Histogram: 36 2 0 0 0 0 0 0 1 1
Nghost:    5.15 ave 59 max 0 min
Histogram: 36 0 0 0 0 0 0 2 0 2
Neighs:    2.5 ave 57 max 0 min
Histogram: 36 2 0 0 1 0 0 0 0 1

Total # of neighbors = 100
Ave neighs/atom = 0.327869
Neighbor list builds = 330
Dangerous builds = 0
Setting up run at Sun Nov 27 18:54:21 2022

Memory usage per processor = 958.583 Mbytes
    Step    Atoms         KinEng            CPU 
  123458      305  6.0816412e-05              0 
  246914      305  4.3842796e-05      1183.0939 
Loop time of 1183.09 on 40 procs for 123456 steps with 305 atoms, finish time Sun Nov 27 19:14:04 2022


Pair  time (%) = 0.23705 (0.0200365)
Neigh time (%) = 0.0579007 (0.00489401)
Comm  time (%) = 0.402827 (0.0340486)
Outpt time (%) = 0.000216799 (1.83247e-05)
Other time (%) = 1182.4 (99.941)

Nlocal:    7.625 ave 138 max 0 min
Histogram: 36 2 0 0 0 0 0 0 1 1
Nghost:    5.125 ave 56 max 0 min
Histogram: 36 0 0 0 0 0 0 0 2 2
Neighs:    2.475 ave 57 max 0 min
Histogram: 36 2 0 0 1 0 0 0 0 1

Total # of neighbors = 99
Ave neighs/atom = 0.32459
Neighbor list builds = 330
Dangerous builds = 0
Setting up run at Sun Nov 27 19:14:04 2022

Memory usage per processor = 958.583 Mbytes
    Step    Atoms         KinEng            CPU 
  246914      305  4.3842796e-05              0 
  370370      305  0.00038250452      1182.5647 
Loop time of 1182.56 on 40 procs for 123456 steps with 305 atoms, finish time Sun Nov 27 19:33:46 2022


Pair  time (%) = 0.236062 (0.0199619)
Neigh time (%) = 0.0577607 (0.00488435)
Comm  time (%) = 0.401489 (0.0339507)
Outpt time (%) = 0.000189092 (1.599e-05)
Other time (%) = 1181.87 (99.9412)

Nlocal:    7.625 ave 134 max 0 min
Histogram: 36 0 2 0 0 0 0 0 1 1
Nghost:    5.025 ave 61 max 0 min
Histogram: 36 0 0 0 0 0 0 2 1 1
Neighs:    2.475 ave 57 max 0 min
Histogram: 36 2 0 0 1 0 0 0 0 1

Total # of neighbors = 99
Ave neighs/atom = 0.32459
Neighbor list builds = 330
Dangerous builds = 0
Setting up run at Sun Nov 27 19:33:46 2022

Memory usage per processor = 958.583 Mbytes
    Step    Atoms         KinEng            CPU 
  370370      305  0.00038250452              0 
  493826      305   0.0002185812      1181.0715 
Loop time of 1181.07 on 40 procs for 123456 steps with 305 atoms, finish time Sun Nov 27 19:53:27 2022


Pair  time (%) = 0.237696 (0.0201254)
Neigh time (%) = 0.0579848 (0.00490951)
Comm  time (%) = 0.427801 (0.0362214)
Outpt time (%) = 0.000555775 (4.70568e-05)
Other time (%) = 1180.35 (99.9387)

Nlocal:    7.625 ave 134 max 0 min
Histogram: 36 0 2 0 0 0 0 0 1 1
Nghost:    5.025 ave 59 max 0 min
Histogram: 36 0 0 0 0 0 0 2 0 2
Neighs:    2.425 ave 54 max 0 min
Histogram: 36 1 1 0 1 0 0 0 0 1

Total # of neighbors = 97
Ave neighs/atom = 0.318033
Neighbor list builds = 330
Dangerous builds = 0
Setting up run at Sun Nov 27 19:53:28 2022

Memory usage per processor = 958.583 Mbytes
    Step    Atoms         KinEng            CPU 
  493826      305   0.0002185812              0 
  617282      305    0.001796919       1212.869 
Loop time of 1212.87 on 40 procs for 123456 steps with 305 atoms, finish time Sun Nov 27 20:13:40 2022


Pair  time (%) = 0.236318 (0.0194842)
Neigh time (%) = 0.059031 (0.00486705)
Comm  time (%) = 0.438898 (0.0361867)
Outpt time (%) = 0.00023982 (1.9773e-05)
Other time (%) = 1212.13 (99.9394)

Nlocal:    7.625 ave 134 max 0 min
Histogram: 36 0 2 0 0 0 0 1 0 1
Nghost:    4.975 ave 59 max 0 min
Histogram: 36 0 0 0 0 0 1 1 0 2
Neighs:    2.5 ave 55 max 0 min
Histogram: 36 1 1 0 1 0 0 0 0 1

Total # of neighbors = 100
Ave neighs/atom = 0.327869
Neighbor list builds = 330
Dangerous builds = 0
Setting up run at Sun Nov 27 20:13:41 2022

Memory usage per processor = 958.583 Mbytes
    Step    Atoms         KinEng            CPU 
  617282      305    0.001796919              0 
  740738      305  9.1153157e-05      1179.5562 
Loop time of 1179.56 on 40 procs for 123456 steps with 305 atoms, finish time Sun Nov 27 20:33:20 2022


Pair  time (%) = 0.236129 (0.0200184)
Neigh time (%) = 0.0578399 (0.00490353)
Comm  time (%) = 0.436683 (0.0370209)
Outpt time (%) = 0.000195636 (1.65855e-05)
Other time (%) = 1178.83 (99.938)

Nlocal:    7.625 ave 133 max 0 min
Histogram: 36 0 2 0 0 0 0 1 0 1
Nghost:    5 ave 58 max 0 min
Histogram: 36 0 0 0 0 0 1 1 0 2
Neighs:    2.4 ave 54 max 0 min
Histogram: 36 1 1 0 1 0 0 0 0 1

Total # of neighbors = 96
Ave neighs/atom = 0.314754
Neighbor list builds = 330
Dangerous builds = 0
Setting up run at Sun Nov 27 20:33:20 2022

Memory usage per processor = 958.583 Mbytes
    Step    Atoms         KinEng            CPU 
  740738      305  9.1153157e-05              0 
  864194      304    0.061898123      1185.0826 
Loop time of 1185.08 on 40 procs for 123456 steps with 304 atoms, finish time Sun Nov 27 20:53:05 2022


Pair  time (%) = 0.23887 (0.0201564)
Neigh time (%) = 0.252054 (0.0212689)
Comm  time (%) = 0.721326 (0.0608671)
Outpt time (%) = 0.00052855 (4.46003e-05)
Other time (%) = 1183.87 (99.8977)

Nlocal:    7.6 ave 131 max 0 min
Histogram: 36 0 2 0 0 0 0 1 0 1
Nghost:    5.225 ave 60 max 0 min
Histogram: 36 0 0 0 0 0 1 0 1 2
Neighs:    2.4 ave 54 max 0 min
Histogram: 36 1 1 1 0 0 0 0 0 1

Total # of neighbors = 96
Ave neighs/atom = 0.315789
Neighbor list builds = 1434
Dangerous builds = 2
Setting up run at Sun Nov 27 20:53:05 2022

Memory usage per processor = 958.583 Mbytes
    Step    Atoms         KinEng            CPU 
  864194      304    0.061898123              0 
  987650      304   0.0027358099      1181.3393 
Loop time of 1181.34 on 40 procs for 123456 steps with 304 atoms, finish time Sun Nov 27 21:12:47 2022


Pair  time (%) = 0.236145 (0.0199896)
Neigh time (%) = 0.173354 (0.0146744)
Comm  time (%) = 0.579215 (0.0490304)
Outpt time (%) = 4.87522e-05 (4.12686e-06)
Other time (%) = 1180.35 (99.9163)

Nlocal:    7.6 ave 132 max 0 min
Histogram: 36 1 1 0 0 0 0 1 0 1
Nghost:    5.325 ave 61 max 0 min
Histogram: 36 0 0 0 0 0 1 0 1 2
Neighs:    2.375 ave 56 max 0 min
Histogram: 36 2 0 1 0 0 0 0 0 1

Total # of neighbors = 95
Ave neighs/atom = 0.3125
Neighbor list builds = 980
Dangerous builds = 0
Setting up run at Sun Nov 27 21:12:47 2022

Memory usage per processor = 958.583 Mbytes
    Step    Atoms         KinEng            CPU 
  987650      304   0.0027358099              0 
 1111106      303   0.0015199802      1176.1556 
Loop time of 1176.16 on 40 procs for 123456 steps with 303 atoms, finish time Sun Nov 27 21:32:23 2022


Pair  time (%) = 0.232028 (0.0197276)
Neigh time (%) = 0.0989422 (0.00841234)
Comm  time (%) = 0.44164 (0.0375494)
Outpt time (%) = 0.000160744 (1.36669e-05)
Other time (%) = 1175.38 (99.9343)

Nlocal:    7.575 ave 129 max 0 min
Histogram: 36 0 2 0 0 0 0 1 0 1
Nghost:    5.35 ave 59 max 0 min
Histogram: 36 0 0 0 0 0 0 1 0 3
Neighs:    2.4 ave 57 max 0 min
Histogram: 36 2 0 1 0 0 0 0 0 1

Total # of neighbors = 96
Ave neighs/atom = 0.316832
Neighbor list builds = 561
Dangerous builds = 0
Setting up run at Sun Nov 27 21:32:23 2022

Memory usage per processor = 958.583 Mbytes
    Step    Atoms         KinEng            CPU 
 1111106      303   0.0015199802              0 
 1234562      303     0.29622694      1196.0153 
Loop time of 1196.02 on 40 procs for 123456 steps with 303 atoms, finish time Sun Nov 27 21:52:19 2022


Pair  time (%) = 0.240466 (0.0201056)
Neigh time (%) = 0.712691 (0.0595888)
Comm  time (%) = 2.42393 (0.202667)
Outpt time (%) = 0.000514088 (4.29833e-05)
Other time (%) = 1192.64 (99.7176)

Nlocal:    7.575 ave 128 max 0 min
Histogram: 36 0 2 0 0 0 0 0 1 1
Nghost:    5.35 ave 55 max 0 min
Histogram: 36 0 0 0 0 0 0 0 1 3
Neighs:    2.425 ave 58 max 0 min
Histogram: 36 2 0 1 0 0 0 0 0 1

Total # of neighbors = 97
Ave neighs/atom = 0.320132
Neighbor list builds = 4106
Dangerous builds = 0
Setting up run at Sun Nov 27 21:52:19 2022

Memory usage per processor = 958.583 Mbytes
    Step    Atoms         KinEng            CPU 
 1234562      303     0.29622694              0 
 1358018      302     0.29028362       1207.701 
Loop time of 1207.7 on 40 procs for 123456 steps with 302 atoms, finish time Sun Nov 27 22:12:27 2022


Pair  time (%) = 0.246925 (0.0204459)
Neigh time (%) = 1.08424 (0.0897772)
Comm  time (%) = 3.06829 (0.254061)
Outpt time (%) = 0.000191874 (1.58875e-05)
Other time (%) = 1203.3 (99.6357)

Nlocal:    7.55 ave 123 max 0 min
Histogram: 36 0 2 0 0 0 0 0 1 1
Nghost:    5.2 ave 59 max 0 min
Histogram: 36 0 0 0 0 0 0 1 2 1
Neighs:    2.5 ave 60 max 0 min
Histogram: 36 2 0 1 0 0 0 0 0 1

Total # of neighbors = 100
Ave neighs/atom = 0.331126
Neighbor list builds = 6225
Dangerous builds = 55
Setting up run at Sun Nov 27 22:12:27 2022

Memory usage per processor = 958.583 Mbytes
    Step    Atoms         KinEng            CPU 
 1358018      302     0.29028362              0 
 1481474      302      0.2163073      1207.7836 
Loop time of 1207.78 on 40 procs for 123456 steps with 302 atoms, finish time Sun Nov 27 22:32:35 2022


Pair  time (%) = 0.245506 (0.020327)
Neigh time (%) = 1.05653 (0.0874763)
Comm  time (%) = 3.43604 (0.284492)
Outpt time (%) = 0.000256669 (2.12512e-05)
Other time (%) = 1203.05 (99.6077)

Nlocal:    7.55 ave 120 max 0 min
Histogram: 36 0 2 0 0 0 0 0 1 1
Nghost:    5.325 ave 61 max 0 min
Histogram: 36 0 0 0 0 0 0 1 1 2
Neighs:    2.6 ave 60 max 0 min
Histogram: 36 1 1 1 0 0 0 0 0 1

Total # of neighbors = 104
Ave neighs/atom = 0.344371
Neighbor list builds = 6066
Dangerous builds = 0
Setting up run at Sun Nov 27 22:32:35 2022

Memory usage per processor = 958.583 Mbytes
    Step    Atoms         KinEng            CPU 
 1481474      302      0.2163073              0 
 1604930      302     0.16923398      1202.3137 
Loop time of 1202.31 on 40 procs for 123456 steps with 302 atoms, finish time Sun Nov 27 22:52:37 2022


Pair  time (%) = 0.244144 (0.0203061)
Neigh time (%) = 0.864557 (0.0719078)
Comm  time (%) = 2.45097 (0.203855)
Outpt time (%) = 0.000197872 (1.64576e-05)
Other time (%) = 1198.75 (99.7039)

Nlocal:    7.55 ave 119 max 0 min
Histogram: 36 0 2 0 0 0 0 0 1 1
Nghost:    5.25 ave 61 max 0 min
Histogram: 36 0 0 0 0 0 1 0 1 2
Neighs:    2.675 ave 59 max 0 min
Histogram: 36 1 1 1 0 0 0 0 0 1

Total # of neighbors = 107
Ave neighs/atom = 0.354305
Neighbor list builds = 4931
Dangerous builds = 0
Setting up run at Sun Nov 27 22:52:37 2022

Memory usage per processor = 958.583 Mbytes
    Step    Atoms         KinEng            CPU 
 1604930      302     0.16923398              0 
 1728386      301     0.10991472      1199.0525 
Loop time of 1199.05 on 40 procs for 123456 steps with 301 atoms, finish time Sun Nov 27 23:12:36 2022


Pair  time (%) = 0.244403 (0.020383)
Neigh time (%) = 0.725896 (0.0605391)
Comm  time (%) = 2.27242 (0.189518)
Outpt time (%) = 0.000499091 (4.16238e-05)
Other time (%) = 1195.81 (99.7295)

Nlocal:    7.525 ave 116 max 0 min
Histogram: 36 0 2 0 0 0 0 0 1 1
Nghost:    5.25 ave 62 max 0 min
Histogram: 36 0 0 0 0 0 1 1 0 2
Neighs:    2.775 ave 56 max 0 min
Histogram: 36 1 0 1 1 0 0 0 0 1

Total # of neighbors = 111
Ave neighs/atom = 0.368771
Neighbor list builds = 4194
Dangerous builds = 120
Setting up run at Sun Nov 27 23:12:36 2022

Memory usage per processor = 958.583 Mbytes
    Step    Atoms         KinEng            CPU 
 1728386      301     0.10991472              0 
 1851842      299      0.1023736      1198.6917 
Loop time of 1198.69 on 40 procs for 123456 steps with 299 atoms, finish time Sun Nov 27 23:32:35 2022


Pair  time (%) = 0.243177 (0.0202869)
Neigh time (%) = 0.671657 (0.0560325)
Comm  time (%) = 2.44977 (0.20437)
Outpt time (%) = 0.000182064 (1.51886e-05)
Other time (%) = 1195.33 (99.7193)

Nlocal:    7.475 ave 113 max 0 min
Histogram: 36 0 1 1 0 0 0 0 1 1
Nghost:    5.25 ave 65 max 0 min
Histogram: 36 0 0 0 0 0 2 0 1 1
Neighs:    2.6 ave 50 max 0 min
Histogram: 36 1 0 0 2 0 0 0 0 1

Total # of neighbors = 104
Ave neighs/atom = 0.347826
Neighbor list builds = 4000
Dangerous builds = 387
Setting up run at Sun Nov 27 23:32:35 2022

Memory usage per processor = 958.583 Mbytes
    Step    Atoms         KinEng            CPU 
 1851842      299      0.1023736              0 
 1975298      297    0.063099398      1179.2243 
Loop time of 1179.22 on 40 procs for 123456 steps with 297 atoms, finish time Sun Nov 27 23:52:14 2022


Pair  time (%) = 0.241168 (0.0204514)
Neigh time (%) = 0.508011 (0.0430801)
Comm  time (%) = 1.68386 (0.142794)
Outpt time (%) = 0.000244692 (2.07502e-05)
Other time (%) = 1176.79 (99.7937)

Nlocal:    7.425 ave 110 max 0 min
Histogram: 36 0 0 2 0 0 0 0 1 1
Nghost:    5.025 ave 63 max 0 min
Histogram: 36 0 0 0 0 0 2 0 1 1
Neighs:    2.525 ave 51 max 0 min
Histogram: 36 1 0 0 2 0 0 0 0 1

Total # of neighbors = 101
Ave neighs/atom = 0.340067
Neighbor list builds = 2920
Dangerous builds = 54
Setting up run at Sun Nov 27 23:52:14 2022

Memory usage per processor = 958.583 Mbytes
    Step    Atoms         KinEng            CPU 
 1975298      297    0.063099398              0 
 2098754      297    0.061481529       1188.693 
Loop time of 1188.69 on 40 procs for 123456 steps with 297 atoms, finish time Mon Nov 28 00:12:03 2022


Pair  time (%) = 0.238492 (0.0200633)
Neigh time (%) = 0.348145 (0.0292881)
Comm  time (%) = 1.14384 (0.096227)
Outpt time (%) = 0.000508773 (4.2801e-05)
Other time (%) = 1186.96 (99.8544)

Nlocal:    7.425 ave 106 max 0 min
Histogram: 36 0 0 2 0 0 0 0 0 2
Nghost:    5.125 ave 68 max 0 min
Histogram: 36 0 0 0 0 1 1 1 0 1
Neighs:    2.675 ave 52 max 0 min
Histogram: 36 1 0 1 0 1 0 0 0 1

Total # of neighbors = 107
Ave neighs/atom = 0.360269
Neighbor list builds = 1960
Dangerous builds = 0
Setting up run at Mon Nov 28 00:12:03 2022

Memory usage per processor = 958.583 Mbytes
    Step    Atoms         KinEng            CPU 
 2098754      297    0.061481529              0 
 2222210      297      1.0662441      1203.9226 
Loop time of 1203.92 on 40 procs for 123456 steps with 297 atoms, finish time Mon Nov 28 00:32:07 2022


Pair  time (%) = 0.246681 (0.0204898)
Neigh time (%) = 0.783295 (0.0650619)
Comm  time (%) = 2.99839 (0.249051)
Outpt time (%) = 0.000242769 (2.01648e-05)
Other time (%) = 1199.89 (99.6654)

Nlocal:    7.425 ave 105 max 0 min
Histogram: 36 0 0 2 0 0 0 0 0 2
Nghost:    5.175 ave 68 max 0 min
Histogram: 36 0 0 0 0 0 2 1 0 1
Neighs:    2.6 ave 49 max 0 min
Histogram: 36 1 0 0 1 1 0 0 0 1

Total # of neighbors = 104
Ave neighs/atom = 0.350168
Neighbor list builds = 4520
Dangerous builds = 0
Setting up run at Mon Nov 28 00:32:07 2022

Memory usage per processor = 958.583 Mbytes
    Step    Atoms         KinEng            CPU 
 2222210      297      1.0662441              0 
 2345666      295     0.73303399      1216.2923 
Loop time of 1216.29 on 40 procs for 123456 steps with 295 atoms, finish time Mon Nov 28 00:52:23 2022


Pair  time (%) = 0.249877 (0.0205442)
Neigh time (%) = 0.962683 (0.079149)
Comm  time (%) = 2.87384 (0.236279)
Outpt time (%) = 0.000193873 (1.59397e-05)
Other time (%) = 1212.21 (99.664)

Nlocal:    7.375 ave 103 max 0 min
Histogram: 36 0 0 2 0 0 0 0 0 2
Nghost:    5.125 ave 68 max 0 min
Histogram: 36 0 0 0 0 0 2 1 0 1
Neighs:    2.325 ave 40 max 0 min
Histogram: 36 1 0 0 0 1 1 0 0 1

Total # of neighbors = 93
Ave neighs/atom = 0.315254
Neighbor list builds = 5542
Dangerous builds = 2
Setting up run at Mon Nov 28 00:52:23 2022

Memory usage per processor = 958.583 Mbytes
    Step    Atoms         KinEng            CPU 
 2345666      295     0.73303399              0 
 2469122      295     0.64599934      1213.2495 
Loop time of 1213.25 on 40 procs for 123456 steps with 295 atoms, finish time Mon Nov 28 01:12:37 2022


Pair  time (%) = 0.251269 (0.0207104)
Neigh time (%) = 1.05459 (0.0869223)
Comm  time (%) = 3.64744 (0.300633)
Outpt time (%) = 0.000542879 (4.47458e-05)
Other time (%) = 1208.3 (99.5917)

Nlocal:    7.375 ave 102 max 0 min
Histogram: 36 0 0 2 0 0 0 0 0 2
Nghost:    5.05 ave 66 max 0 min
Histogram: 36 0 0 0 0 0 2 1 0 1
Neighs:    2.35 ave 42 max 0 min
Histogram: 36 1 0 0 0 2 0 0 0 1

Total # of neighbors = 94
Ave neighs/atom = 0.318644
Neighbor list builds = 5989
Dangerous builds = 0
Setting up run at Mon Nov 28 01:12:37 2022

Memory usage per processor = 958.583 Mbytes
    Step    Atoms         KinEng            CPU 
 2469122      295     0.64599934              0 
 2592578      295     0.34238686      1200.1388 
Loop time of 1200.14 on 40 procs for 123456 steps with 295 atoms, finish time Mon Nov 28 01:32:37 2022


Pair  time (%) = 0.243318 (0.0202741)
Neigh time (%) = 0.712277 (0.0593495)
Comm  time (%) = 2.43574 (0.202955)
Outpt time (%) = 0.000259914 (2.1657e-05)
Other time (%) = 1196.75 (99.7174)

Nlocal:    7.375 ave 100 max 0 min
Histogram: 36 0 0 1 1 0 0 0 0 2
Nghost:    5.05 ave 68 max 0 min
Histogram: 36 0 0 0 0 1 1 1 0 1
Neighs:    2.15 ave 35 max 0 min
Histogram: 36 0 1 0 0 1 1 0 0 1

Total # of neighbors = 86
Ave neighs/atom = 0.291525
Neighbor list builds = 4009
Dangerous builds = 0
Setting up run at Mon Nov 28 01:32:37 2022

Memory usage per processor = 958.583 Mbytes
    Step    Atoms         KinEng            CPU 
 2592578      295     0.34238686              0 
 2716034      295     0.32249249      1195.1874 
Loop time of 1195.19 on 40 procs for 123456 steps with 295 atoms, finish time Mon Nov 28 01:52:32 2022


Pair  time (%) = 0.242897 (0.0203229)
Neigh time (%) = 0.562967 (0.0471029)
Comm  time (%) = 1.65511 (0.138481)
Outpt time (%) = 0.0100976 (0.000844851)
Other time (%) = 1192.72 (99.7932)

Nlocal:    7.375 ave 100 max 0 min
Histogram: 36 0 0 1 1 0 0 0 0 2
Nghost:    4.875 ave 62 max 0 min
Histogram: 36 0 0 0 0 0 2 1 0 1
Neighs:    2.125 ave 36 max 0 min
Histogram: 36 0 1 0 1 0 1 0 0 1

Total # of neighbors = 85
Ave neighs/atom = 0.288136
Neighbor list builds = 3132
Dangerous builds = 0
Setting up run at Mon Nov 28 01:52:32 2022

Memory usage per processor = 958.583 Mbytes
    Step    Atoms         KinEng            CPU 
 2716034      295     0.32249249              0 
 2839490      293     0.18699611      1186.6571 
Loop time of 1186.66 on 40 procs for 123456 steps with 293 atoms, finish time Mon Nov 28 02:12:19 2022


Pair  time (%) = 0.242202 (0.0204105)
Neigh time (%) = 0.484744 (0.0408495)
Comm  time (%) = 1.51257 (0.127464)
Outpt time (%) = 0.000629667 (5.30622e-05)
Other time (%) = 1184.42 (99.8112)

Nlocal:    7.325 ave 99 max 0 min
Histogram: 35 1 0 2 0 0 0 0 0 2
Nghost:    4.85 ave 62 max 0 min
Histogram: 36 0 0 0 0 0 2 1 0 1
Neighs:    2 ave 34 max 0 min
Histogram: 36 0 1 0 1 0 1 0 0 1

Total # of neighbors = 80
Ave neighs/atom = 0.273038
Neighbor list builds = 2744
Dangerous builds = 83
Setting up run at Mon Nov 28 02:12:19 2022

Memory usage per processor = 958.583 Mbytes
    Step    Atoms         KinEng            CPU 
 2839490      293     0.18699611              0 
 2962946      293     0.16363062      1211.0323 
Loop time of 1211.03 on 40 procs for 123456 steps with 293 atoms, finish time Mon Nov 28 02:32:30 2022


Pair  time (%) = 0.249514 (0.0206034)
Neigh time (%) = 1.09094 (0.0900838)
Comm  time (%) = 2.96298 (0.244666)
Outpt time (%) = 0.000245415 (2.0265e-05)
Other time (%) = 1206.73 (99.6446)

Nlocal:    7.325 ave 97 max 0 min
Histogram: 35 1 0 2 0 0 0 0 0 2
Nghost:    4.975 ave 63 max 0 min
Histogram: 36 0 0 0 0 1 1 1 0 1
Neighs:    2.1 ave 32 max 0 min
Histogram: 36 0 0 1 1 0 0 0 1 1

Total # of neighbors = 84
Ave neighs/atom = 0.286689
Neighbor list builds = 6132
Dangerous builds = 0
Setting up run at Mon Nov 28 02:32:30 2022

Memory usage per processor = 958.583 Mbytes
    Step    Atoms         KinEng            CPU 
 2962946      293     0.16363062              0 
 3086402      293     0.14975679      1195.3657 
Loop time of 1195.37 on 40 procs for 123456 steps with 293 atoms, finish time Mon Nov 28 02:52:25 2022


Pair  time (%) = 0.241644 (0.020215)
Neigh time (%) = 0.603335 (0.0504729)
Comm  time (%) = 1.85203 (0.154935)
Outpt time (%) = 0.000171942 (1.43841e-05)
Other time (%) = 1192.67 (99.7744)

Nlocal:    7.325 ave 97 max 0 min
Histogram: 36 0 0 2 0 0 0 0 0 2
Nghost:    4.875 ave 61 max 0 min
Histogram: 36 0 0 0 0 0 1 2 0 1
Neighs:    2.075 ave 31 max 0 min
Histogram: 36 0 0 2 0 0 0 0 0 2

Total # of neighbors = 83
Ave neighs/atom = 0.283276
Neighbor list builds = 3372
Dangerous builds = 0
Setting up run at Mon Nov 28 02:52:25 2022

Memory usage per processor = 958.583 Mbytes
    Step    Atoms         KinEng            CPU 
 3086402      293     0.14975679              0 
 3209858      293     0.25247786      1196.3009 
Loop time of 1196.3 on 40 procs for 123456 steps with 293 atoms, finish time Mon Nov 28 03:12:22 2022


Pair  time (%) = 0.241263 (0.0201674)
Neigh time (%) = 0.617919 (0.0516524)
Comm  time (%) = 1.84748 (0.154433)
Outpt time (%) = 0.000295741 (2.47213e-05)
Other time (%) = 1193.6 (99.7737)

Nlocal:    7.325 ave 96 max 0 min
Histogram: 35 1 0 1 1 0 0 0 0 2
Nghost:    4.725 ave 60 max 0 min
Histogram: 36 0 0 0 0 0 2 1 0 1
Neighs:    2 ave 31 max 0 min
Histogram: 36 0 1 1 0 0 0 0 0 2

Total # of neighbors = 80
Ave neighs/atom = 0.273038
Neighbor list builds = 3460
Dangerous builds = 0
Setting up run at Mon Nov 28 03:12:22 2022

Memory usage per processor = 958.583 Mbytes
    Step    Atoms         KinEng            CPU 
 3209858      293     0.25247786              0 
 3333314      292     0.15913309      1192.2375 
Loop time of 1192.24 on 40 procs for 123456 steps with 292 atoms, finish time Mon Nov 28 03:32:14 2022


Pair  time (%) = 0.23759 (0.019928)
Neigh time (%) = 0.528459 (0.0443249)
Comm  time (%) = 1.61258 (0.135256)
Outpt time (%) = 0.000551882 (4.62896e-05)
Other time (%) = 1189.86 (99.8004)

Nlocal:    7.3 ave 94 max 0 min
Histogram: 36 0 0 1 1 0 0 0 0 2
Nghost:    4.6 ave 60 max 0 min
Histogram: 36 0 0 0 0 0 2 1 0 1
Neighs:    1.975 ave 30 max 0 min
Histogram: 36 0 1 0 1 0 0 0 0 2

Total # of neighbors = 79
Ave neighs/atom = 0.270548
Neighbor list builds = 2951
Dangerous builds = 0
Setting up run at Mon Nov 28 03:32:14 2022

Memory usage per processor = 958.583 Mbytes
    Step    Atoms         KinEng            CPU 
 3333314      292     0.15913309              0 
 3456770      291     0.20699695      1204.7067 
Loop time of 1204.71 on 40 procs for 123456 steps with 291 atoms, finish time Mon Nov 28 03:52:19 2022


Pair  time (%) = 0.242119 (0.0200978)
Neigh time (%) = 0.951449 (0.0789776)
Comm  time (%) = 3.16749 (0.262926)
Outpt time (%) = 0.000263044 (2.18347e-05)
Other time (%) = 1200.35 (99.638)

Nlocal:    7.275 ave 95 max 0 min
Histogram: 35 1 0 1 1 0 0 0 0 2
Nghost:    4.65 ave 60 max 0 min
Histogram: 36 0 0 0 0 0 2 1 0 1
Neighs:    1.925 ave 29 max 0 min
Histogram: 36 0 1 0 1 0 0 0 1 1

Total # of neighbors = 77
Ave neighs/atom = 0.264605
Neighbor list builds = 5287
Dangerous builds = 2
Setting up run at Mon Nov 28 03:52:19 2022

Memory usage per processor = 958.583 Mbytes
    Step    Atoms         KinEng            CPU 
 3456770      291     0.20699695              0 
 3580226      291     0.16209731      1192.0744 
Loop time of 1192.07 on 40 procs for 123456 steps with 291 atoms, finish time Mon Nov 28 04:12:11 2022


Pair  time (%) = 0.233954 (0.0196258)
Neigh time (%) = 0.539281 (0.0452389)
Comm  time (%) = 1.55628 (0.130553)
Outpt time (%) = 0.000147522 (1.23753e-05)
Other time (%) = 1189.74 (99.8046)

Nlocal:    7.275 ave 94 max 0 min
Histogram: 35 1 0 1 1 0 0 0 0 2
Nghost:    4.625 ave 60 max 0 min
Histogram: 36 0 0 0 0 0 2 1 0 1
Neighs:    1.875 ave 28 max 0 min
Histogram: 36 0 1 0 1 0 0 0 0 2

Total # of neighbors = 75
Ave neighs/atom = 0.257732
Neighbor list builds = 2997
Dangerous builds = 0
Setting up run at Mon Nov 28 04:12:11 2022

Memory usage per processor = 958.583 Mbytes
    Step    Atoms         KinEng            CPU 
 3580226      291     0.16209731              0 
 3703682      289     0.15323938      1194.2763 
Loop time of 1194.28 on 40 procs for 123456 steps with 289 atoms, finish time Mon Nov 28 04:32:05 2022


Pair  time (%) = 0.231819 (0.0194108)
Neigh time (%) = 0.584138 (0.0489114)
Comm  time (%) = 1.81581 (0.152043)
Outpt time (%) = 0.000518016 (4.33749e-05)
Other time (%) = 1191.64 (99.7796)

Nlocal:    7.225 ave 92 max 0 min
Histogram: 35 1 0 1 1 0 0 0 0 2
Nghost:    4.6 ave 62 max 0 min
Histogram: 36 0 0 0 0 1 1 1 0 1
Neighs:    1.875 ave 27 max 0 min
Histogram: 36 0 0 1 1 0 0 0 0 2

Total # of neighbors = 75
Ave neighs/atom = 0.259516
Neighbor list builds = 3274
Dangerous builds = 0
Setting up run at Mon Nov 28 04:32:05 2022

Memory usage per processor = 958.583 Mbytes
    Step    Atoms         KinEng            CPU 
 3703682      289     0.15323938              0 
 3827138      289     0.12494327      1187.0259 
Loop time of 1187.03 on 40 procs for 123456 steps with 289 atoms, finish time Mon Nov 28 04:51:52 2022


Pair  time (%) = 0.228186 (0.0192233)
Neigh time (%) = 0.373012 (0.0314241)
Comm  time (%) = 1.24424 (0.10482)
Outpt time (%) = 0.000247968 (2.08899e-05)
Other time (%) = 1185.18 (99.8445)

Nlocal:    7.225 ave 92 max 0 min
Histogram: 35 1 0 0 2 0 0 0 0 2
Nghost:    4.575 ave 59 max 0 min
Histogram: 36 0 0 0 0 0 2 1 0 1
Neighs:    1.875 ave 27 max 0 min
Histogram: 36 0 0 1 1 0 0 0 0 2

Total # of neighbors = 75
Ave neighs/atom = 0.259516
Neighbor list builds = 2083
Dangerous builds = 0
Setting up run at Mon Nov 28 04:51:52 2022

Memory usage per processor = 958.583 Mbytes
    Step    Atoms         KinEng            CPU 
 3827138      289     0.12494327              0 
 3950594      288     0.16374702      1189.4259 
Loop time of 1189.43 on 40 procs for 123456 steps with 288 atoms, finish time Mon Nov 28 05:11:42 2022


Pair  time (%) = 0.230258 (0.0193587)
Neigh time (%) = 0.46334 (0.0389549)
Comm  time (%) = 1.38008 (0.116029)
Outpt time (%) = 0.0001719 (1.44523e-05)
Other time (%) = 1187.35 (99.8256)

Nlocal:    7.2 ave 92 max 0 min
Histogram: 35 1 0 1 1 0 0 0 0 2
Nghost:    4.5 ave 57 max 0 min
Histogram: 36 0 0 0 0 0 2 1 0 1
Neighs:    2 ave 27 max 0 min
Histogram: 36 0 0 0 1 1 0 0 0 2

Total # of neighbors = 80
Ave neighs/atom = 0.277778
Neighbor list builds = 2622
Dangerous builds = 1
Setting up run at Mon Nov 28 05:11:42 2022

Memory usage per processor = 958.583 Mbytes
    Step    Atoms         KinEng            CPU 
 3950594      288     0.16374702              0 
 4074050      288     0.17111726      1190.7146 
Loop time of 1190.72 on 40 procs for 123456 steps with 288 atoms, finish time Mon Nov 28 05:31:33 2022


Pair  time (%) = 0.232124 (0.0194945)
Neigh time (%) = 0.538248 (0.0452037)
Comm  time (%) = 1.54899 (0.130089)
Outpt time (%) = 0.000719106 (6.03928e-05)
Other time (%) = 1188.39 (99.8052)

Nlocal:    7.2 ave 95 max 0 min
Histogram: 34 2 0 1 1 0 0 0 1 1
Nghost:    4.625 ave 53 max 0 min
Histogram: 36 0 0 0 0 0 1 0 1 2
Neighs:    1.925 ave 28 max 0 min
Histogram: 36 0 1 0 1 0 0 0 0 2

Total # of neighbors = 77
Ave neighs/atom = 0.267361
Neighbor list builds = 2987
Dangerous builds = 0
Setting up run at Mon Nov 28 05:31:33 2022

Memory usage per processor = 958.583 Mbytes
    Step    Atoms         KinEng            CPU 
 4074050      288     0.17111726              0 
 4197506      288     0.18144255      1188.7938 
Loop time of 1188.79 on 40 procs for 123456 steps with 288 atoms, finish time Mon Nov 28 05:51:22 2022


Pair  time (%) = 0.22934 (0.0192919)
Neigh time (%) = 0.483423 (0.040665)
Comm  time (%) = 1.42886 (0.120194)
Outpt time (%) = 0.00023799 (2.00195e-05)
Other time (%) = 1186.65 (99.8198)

Nlocal:    7.2 ave 94 max 0 min
Histogram: 35 1 0 1 1 0 0 0 1 1
Nghost:    4.525 ave 53 max 0 min
Histogram: 36 0 0 0 0 0 1 1 0 2
Neighs:    1.85 ave 28 max 0 min
Histogram: 36 0 1 1 0 0 0 0 0 2

Total # of neighbors = 74
Ave neighs/atom = 0.256944
Neighbor list builds = 2700
Dangerous builds = 0
Setting up run at Mon Nov 28 05:51:22 2022

Memory usage per processor = 958.583 Mbytes
    Step    Atoms         KinEng            CPU 
 4197506      288     0.18144255              0 
 4320962      288     0.17056372      1183.4633 
Loop time of 1183.46 on 40 procs for 123456 steps with 288 atoms, finish time Mon Nov 28 06:11:05 2022


Pair  time (%) = 0.224565 (0.0189752)
Neigh time (%) = 0.301313 (0.0254603)
Comm  time (%) = 1.15139 (0.0972897)
Outpt time (%) = 0.000213437 (1.80349e-05)
Other time (%) = 1181.79 (99.8583)

Nlocal:    7.2 ave 93 max 0 min
Histogram: 34 2 0 1 1 0 0 0 1 1
Nghost:    4.675 ave 52 max 0 min
Histogram: 36 0 0 0 0 0 0 1 1 2
Neighs:    2.025 ave 30 max 0 min
Histogram: 36 0 0 2 0 0 0 0 0 2

Total # of neighbors = 81
Ave neighs/atom = 0.28125
Neighbor list builds = 1676
Dangerous builds = 0
Setting up run at Mon Nov 28 06:11:05 2022

Memory usage per processor = 958.583 Mbytes
    Step    Atoms         KinEng            CPU 
 4320962      288     0.17056372              0 
 4444418      287     0.39459813      1238.5381 
Loop time of 1238.54 on 40 procs for 123456 steps with 287 atoms, finish time Mon Nov 28 06:31:44 2022


Pair  time (%) = 0.237868 (0.0192055)
Neigh time (%) = 0.957708 (0.0773257)
Comm  time (%) = 2.69034 (0.217219)
Outpt time (%) = 0.00059933 (4.83901e-05)
Other time (%) = 1234.65 (99.6862)

Nlocal:    7.175 ave 92 max 0 min
Histogram: 33 3 0 2 0 0 0 0 1 1
Nghost:    4.55 ave 52 max 0 min
Histogram: 36 0 0 0 0 0 0 1 2 1
Neighs:    1.875 ave 32 max 0 min
Histogram: 36 1 1 0 0 0 0 0 0 2

Total # of neighbors = 75
Ave neighs/atom = 0.261324
Neighbor list builds = 5375
Dangerous builds = 0
Setting up run at Mon Nov 28 06:31:44 2022

Memory usage per processor = 958.583 Mbytes
    Step    Atoms         KinEng            CPU 
 4444418      287     0.39459813              0 
 4567874      286     0.20716265      1190.4147 
Loop time of 1190.41 on 40 procs for 123456 steps with 286 atoms, finish time Mon Nov 28 06:51:34 2022


Pair  time (%) = 0.231557 (0.0194518)
Neigh time (%) = 0.689743 (0.0579414)
Comm  time (%) = 2.44078 (0.205036)
Outpt time (%) = 0.000275526 (2.31454e-05)
Other time (%) = 1187.05 (99.7175)

Nlocal:    7.15 ave 92 max 0 min
Histogram: 34 1 1 2 0 0 0 0 1 1
Nghost:    4.4 ave 50 max 0 min
Histogram: 36 0 0 0 0 0 0 1 1 2
Neighs:    2 ave 35 max 0 min
Histogram: 36 1 1 0 0 0 0 0 1 1

Total # of neighbors = 80
Ave neighs/atom = 0.27972
Neighbor list builds = 3892
Dangerous builds = 79
Setting up run at Mon Nov 28 06:51:34 2022

Memory usage per processor = 958.583 Mbytes
    Step    Atoms         KinEng            CPU 
 4567874      286     0.20716265              0 
 4691330      285     0.32116615      1203.6851 
Loop time of 1203.69 on 40 procs for 123456 steps with 285 atoms, finish time Mon Nov 28 07:11:38 2022


Pair  time (%) = 0.236142 (0.0196183)
Neigh time (%) = 0.890169 (0.0739536)
Comm  time (%) = 3.11006 (0.258379)
Outpt time (%) = 0.000173005 (1.43729e-05)
Other time (%) = 1199.45 (99.648)

Nlocal:    7.125 ave 92 max 0 min
Histogram: 32 4 0 2 0 0 0 0 1 1
Nghost:    4.325 ave 48 max 0 min
Histogram: 36 0 0 0 0 0 0 1 2 1
Neighs:    1.8 ave 33 max 0 min
Histogram: 36 1 1 0 0 0 0 1 0 1

Total # of neighbors = 72
Ave neighs/atom = 0.252632
Neighbor list builds = 5009
Dangerous builds = 0
Setting up run at Mon Nov 28 07:11:38 2022

Memory usage per processor = 958.583 Mbytes
    Step    Atoms         KinEng            CPU 
 4691330      285     0.32116615              0 
 4814786      285       0.393557      1194.4716 
Loop time of 1194.47 on 40 procs for 123456 steps with 285 atoms, finish time Mon Nov 28 07:31:32 2022


Pair  time (%) = 0.230153 (0.0192682)
Neigh time (%) = 0.604221 (0.0505848)
Comm  time (%) = 1.97329 (0.165202)
Outpt time (%) = 0.00058267 (4.87805e-05)
Other time (%) = 1191.66 (99.7649)

Nlocal:    7.125 ave 92 max 0 min
Histogram: 34 2 0 1 1 0 0 0 1 1
Nghost:    4.275 ave 45 max 0 min
Histogram: 36 0 0 0 0 0 0 0 2 2
Neighs:    1.675 ave 31 max 0 min
Histogram: 36 1 1 0 0 0 0 1 0 1

Total # of neighbors = 67
Ave neighs/atom = 0.235088
Neighbor list builds = 3348
Dangerous builds = 0
Setting up run at Mon Nov 28 07:31:33 2022

Memory usage per processor = 958.583 Mbytes
    Step    Atoms         KinEng            CPU 
 4814786      285       0.393557              0 
 4938242      283     0.25877726      1187.0482 
Loop time of 1187.06 on 40 procs for 123456 steps with 283 atoms, finish time Mon Nov 28 07:51:20 2022


Pair  time (%) = 0.230616 (0.0194275)
Neigh time (%) = 0.546476 (0.046036)
Comm  time (%) = 1.94365 (0.163736)
Outpt time (%) = 0.000250132 (2.10715e-05)
Other time (%) = 1184.34 (99.7708)

Nlocal:    7.075 ave 90 max 0 min
Histogram: 33 3 0 1 1 0 0 0 1 1
Nghost:    4.425 ave 46 max 0 min
Histogram: 36 0 0 0 0 0 1 0 0 3
Neighs:    1.875 ave 33 max 0 min
Histogram: 36 0 2 0 0 0 0 1 0 1

Total # of neighbors = 75
Ave neighs/atom = 0.265018
Neighbor list builds = 3120
Dangerous builds = 76
Setting up run at Mon Nov 28 07:51:20 2022

Memory usage per processor = 958.583 Mbytes
    Step    Atoms         KinEng            CPU 
 4938242      283     0.25877726              0 
 5061698      282     0.26574391      1198.8709 
Loop time of 1198.87 on 40 procs for 123456 steps with 282 atoms, finish time Mon Nov 28 08:11:19 2022


Pair  time (%) = 0.229884 (0.0191751)
Neigh time (%) = 0.760412 (0.0634273)
Comm  time (%) = 2.46787 (0.205849)
Outpt time (%) = 0.00241485 (0.000201427)
Other time (%) = 1195.41 (99.7113)

Nlocal:    7.05 ave 90 max 0 min
Histogram: 33 3 0 1 1 0 0 0 1 1
Nghost:    4.025 ave 42 max 0 min
Histogram: 36 0 0 0 0 0 0 0 1 3
Neighs:    1.75 ave 30 max 0 min
Histogram: 36 0 2 0 0 0 0 0 1 1

Total # of neighbors = 70
Ave neighs/atom = 0.248227
Neighbor list builds = 4207
Dangerous builds = 0
Setting up run at Mon Nov 28 08:11:19 2022

Memory usage per processor = 958.583 Mbytes
    Step    Atoms         KinEng            CPU 
 5061698      282     0.26574391              0 
 5185154      282     0.34161653      1193.7074 
Loop time of 1193.71 on 40 procs for 123456 steps with 282 atoms, finish time Mon Nov 28 08:31:12 2022


Pair  time (%) = 0.230093 (0.0192755)
Neigh time (%) = 0.558805 (0.0468125)
Comm  time (%) = 1.7273 (0.1447)
Outpt time (%) = 0.000603204 (5.0532e-05)
Other time (%) = 1191.19 (99.7892)

Nlocal:    7.05 ave 88 max 0 min
Histogram: 34 2 0 0 2 0 0 0 0 2
Nghost:    3.85 ave 41 max 0 min
Histogram: 36 0 0 0 0 0 0 0 1 3
Neighs:    1.675 ave 29 max 0 min
Histogram: 36 0 2 0 0 0 0 1 0 1

Total # of neighbors = 67
Ave neighs/atom = 0.237589
Neighbor list builds = 3072
Dangerous builds = 0
Setting up run at Mon Nov 28 08:31:12 2022

Memory usage per processor = 958.583 Mbytes
    Step    Atoms         KinEng            CPU 
 5185154      282     0.34161653              0 
 5308610      281     0.24127538      1179.6104 
Loop time of 1179.61 on 40 procs for 123456 steps with 281 atoms, finish time Mon Nov 28 08:50:52 2022


Pair  time (%) = 0.226592 (0.019209)
Neigh time (%) = 0.568186 (0.0481673)
Comm  time (%) = 1.96197 (0.166323)
Outpt time (%) = 0.00023031 (1.95243e-05)
Other time (%) = 1176.85 (99.7663)

Nlocal:    7.025 ave 87 max 0 min
Histogram: 32 4 1 0 1 0 0 0 0 2
Nghost:    4 ave 43 max 0 min
Histogram: 36 0 0 0 0 0 0 1 0 3
Neighs:    1.675 ave 29 max 0 min
Histogram: 36 0 2 0 0 0 0 0 1 1

Total # of neighbors = 67
Ave neighs/atom = 0.238434
Neighbor list builds = 3192
Dangerous builds = 2
Setting up run at Mon Nov 28 08:50:52 2022

Memory usage per processor = 958.583 Mbytes
    Step    Atoms         KinEng            CPU 
 5308610      281     0.24127538              0 
 5432066      280     0.24073417      1194.1152 
Loop time of 1194.12 on 40 procs for 123456 steps with 280 atoms, finish time Mon Nov 28 09:10:46 2022


Pair  time (%) = 0.228582 (0.0191423)
Neigh time (%) = 0.608378 (0.0509478)
Comm  time (%) = 1.97552 (0.165438)
Outpt time (%) = 0.00015872 (1.32918e-05)
Other time (%) = 1191.31 (99.7645)

Nlocal:    7 ave 85 max 0 min
Histogram: 33 2 1 1 1 0 0 0 0 2
Nghost:    3.7 ave 40 max 0 min
Histogram: 36 0 0 0 0 0 0 0 1 3
Neighs:    1.7 ave 29 max 0 min
Histogram: 36 1 1 0 0 0 0 0 1 1

Total # of neighbors = 68
Ave neighs/atom = 0.242857
Neighbor list builds = 3365
Dangerous builds = 1
Setting up run at Mon Nov 28 09:10:46 2022

Memory usage per processor = 958.583 Mbytes
    Step    Atoms         KinEng            CPU 
 5432066      280     0.24073417              0 
 5555522      278     0.46361912      1229.4903 
Loop time of 1229.49 on 40 procs for 123456 steps with 278 atoms, finish time Mon Nov 28 09:31:16 2022


Pair  time (%) = 0.246938 (0.0200846)
Neigh time (%) = 1.44804 (0.117775)
Comm  time (%) = 4.44717 (0.361708)
Outpt time (%) = 0.000228621 (1.85948e-05)
Other time (%) = 1223.35 (99.5004)

Nlocal:    6.95 ave 83 max 0 min
Histogram: 32 3 1 1 1 0 0 0 0 2
Nghost:    3.775 ave 39 max 0 min
Histogram: 36 0 0 0 0 0 0 1 1 2
Neighs:    1.7 ave 31 max 0 min
Histogram: 36 2 0 0 0 0 0 1 0 1

Total # of neighbors = 68
Ave neighs/atom = 0.244604
Neighbor list builds = 8312
Dangerous builds = 396
Setting up run at Mon Nov 28 09:31:16 2022

Memory usage per processor = 958.583 Mbytes
    Step    Atoms         KinEng            CPU 
 5555522      278     0.46361912              0 
 5678978      276     0.45666294      1249.9893 
Loop time of 1249.99 on 40 procs for 123456 steps with 276 atoms, finish time Mon Nov 28 09:52:06 2022


Pair  time (%) = 0.254297 (0.0203439)
Neigh time (%) = 2.09841 (0.167874)
Comm  time (%) = 6.70046 (0.536041)
Outpt time (%) = 0.000574075 (4.59263e-05)
Other time (%) = 1240.94 (99.2757)

Nlocal:    6.9 ave 86 max 0 min
Histogram: 33 3 0 1 1 0 0 0 1 1
Nghost:    3.65 ave 39 max 0 min
Histogram: 36 0 0 0 0 0 0 1 1 2
Neighs:    1.65 ave 29 max 0 min
Histogram: 36 1 1 0 0 0 0 0 1 1

Total # of neighbors = 66
Ave neighs/atom = 0.23913
Neighbor list builds = 11700
Dangerous builds = 71
Setting up run at Mon Nov 28 09:52:06 2022

Memory usage per processor = 958.583 Mbytes
    Step    Atoms         KinEng            CPU 
 5678978      276     0.45666294              0 
 5802434      275     0.50400429      1242.4463 
Loop time of 1242.45 on 40 procs for 123456 steps with 275 atoms, finish time Mon Nov 28 10:12:48 2022


Pair  time (%) = 0.252583 (0.0203295)
Neigh time (%) = 2.04784 (0.164823)
Comm  time (%) = 5.75017 (0.46281)
Outpt time (%) = 0.000197053 (1.58601e-05)
Other time (%) = 1234.4 (99.352)

Nlocal:    6.875 ave 86 max 0 min
Histogram: 32 4 1 0 1 0 0 0 1 1
Nghost:    3.45 ave 40 max 0 min
Histogram: 36 0 0 0 0 0 0 1 2 1
Neighs:    1.7 ave 29 max 0 min
Histogram: 36 2 0 0 0 0 0 0 0 2

Total # of neighbors = 68
Ave neighs/atom = 0.247273
Neighbor list builds = 11368
Dangerous builds = 1
Setting up run at Mon Nov 28 10:12:48 2022

Memory usage per processor = 958.583 Mbytes
    Step    Atoms         KinEng            CPU 
 5802434      275     0.50400429              0 
 5925890      275     0.51123125      1241.1183 
Loop time of 1241.12 on 40 procs for 123456 steps with 275 atoms, finish time Mon Nov 28 10:33:30 2022


Pair  time (%) = 0.251011 (0.0202245)
Neigh time (%) = 2.03419 (0.163899)
Comm  time (%) = 6.08547 (0.490322)
Outpt time (%) = 0.0126933 (0.00102273)
Other time (%) = 1232.73 (99.3245)

Nlocal:    6.875 ave 84 max 0 min
Histogram: 32 4 0 1 1 0 0 0 1 1
Nghost:    3.45 ave 41 max 0 min
Histogram: 36 0 0 0 0 0 1 1 1 1
Neighs:    1.625 ave 29 max 0 min
Histogram: 36 1 1 0 0 0 0 0 0 2

Total # of neighbors = 65
Ave neighs/atom = 0.236364
Neighbor list builds = 11223
Dangerous builds = 0
Setting up run at Mon Nov 28 10:33:30 2022

Memory usage per processor = 958.583 Mbytes
    Step    Atoms         KinEng            CPU 
 5925890      275     0.51123125              0 
 6049346      274     0.48920349      1252.3336 
Loop time of 1252.33 on 40 procs for 123456 steps with 274 atoms, finish time Mon Nov 28 10:54:22 2022


Pair  time (%) = 0.254656 (0.0203345)
Neigh time (%) = 2.27288 (0.181491)
Comm  time (%) = 7.50162 (0.599011)
Outpt time (%) = 0.0251171 (0.00200562)
Other time (%) = 1242.28 (99.1972)

Nlocal:    6.85 ave 83 max 0 min
Histogram: 33 2 1 1 1 0 0 0 1 1
Nghost:    3.425 ave 42 max 0 min
Histogram: 36 0 0 0 0 0 2 0 1 1
Neighs:    1.6 ave 29 max 0 min
Histogram: 37 0 1 0 0 0 0 0 1 1

Total # of neighbors = 64
Ave neighs/atom = 0.233577
Neighbor list builds = 12953
Dangerous builds = 266
Setting up run at Mon Nov 28 10:54:22 2022

Memory usage per processor = 958.583 Mbytes
    Step    Atoms         KinEng            CPU 
 6049346      274     0.48920349              0 
 6172802      274      1.4433568      1240.5085 
Loop time of 1240.51 on 40 procs for 123456 steps with 274 atoms, finish time Mon Nov 28 11:15:03 2022


Pair  time (%) = 0.252885 (0.0203856)
Neigh time (%) = 2.1234 (0.171172)
Comm  time (%) = 6.97081 (0.561931)
Outpt time (%) = 0.00025453 (2.05182e-05)
Other time (%) = 1231.16 (99.2465)

Nlocal:    6.85 ave 83 max 0 min
Histogram: 32 4 1 0 1 0 0 0 1 1
Nghost:    3.75 ave 43 max 0 min
Histogram: 36 0 0 0 0 0 0 2 1 1
Neighs:    1.675 ave 30 max 0 min
Histogram: 37 0 1 0 0 0 0 0 0 2

Total # of neighbors = 67
Ave neighs/atom = 0.244526
Neighbor list builds = 11839
Dangerous builds = 0
Setting up run at Mon Nov 28 11:15:03 2022

Memory usage per processor = 958.583 Mbytes
    Step    Atoms         KinEng            CPU 
 6172802      274      1.4433568              0 
 6296258      272     0.39185511      1243.5064 
Loop time of 1243.51 on 40 procs for 123456 steps with 272 atoms, finish time Mon Nov 28 11:35:46 2022


Pair  time (%) = 0.253171 (0.0203595)
Neigh time (%) = 2.07072 (0.166523)
Comm  time (%) = 6.74881 (0.542724)
Outpt time (%) = 0.00246071 (0.000197884)
Other time (%) = 1234.43 (99.2702)

Nlocal:    6.8 ave 81 max 0 min
Histogram: 32 4 0 1 1 0 0 0 0 2
Nghost:    3.775 ave 40 max 0 min
Histogram: 34 2 0 0 0 0 0 1 1 2
Neighs:    1.7 ave 29 max 0 min
Histogram: 37 0 1 0 0 0 0 0 0 2

Total # of neighbors = 68
Ave neighs/atom = 0.25
Neighbor list builds = 11633
Dangerous builds = 133
Setting up run at Mon Nov 28 11:35:46 2022

Memory usage per processor = 958.583 Mbytes
    Step    Atoms         KinEng            CPU 
 6296258      272     0.39185511              0 
 6419714      272     0.35231349      1242.5951 
Loop time of 1242.6 on 40 procs for 123456 steps with 272 atoms, finish time Mon Nov 28 11:56:29 2022


Pair  time (%) = 0.251646 (0.0202516)
Neigh time (%) = 2.03104 (0.163452)
Comm  time (%) = 6.88656 (0.554207)
Outpt time (%) = 0.000419373 (3.37498e-05)
Other time (%) = 1233.43 (99.2621)

Nlocal:    6.8 ave 79 max 0 min
Histogram: 32 3 2 0 1 0 0 0 0 2
Nghost:    3.825 ave 40 max 0 min
Histogram: 36 0 0 0 0 0 0 0 2 2
Neighs:    1.775 ave 31 max 0 min
Histogram: 37 0 1 0 0 0 0 0 0 2

Total # of neighbors = 71
Ave neighs/atom = 0.261029
Neighbor list builds = 11247
Dangerous builds = 0
Setting up run at Mon Nov 28 11:56:29 2022

Memory usage per processor = 958.583 Mbytes
    Step    Atoms         KinEng            CPU 
 6419714      272     0.35231349              0 
 6543170      272     0.34700898      1243.6421 
Loop time of 1243.64 on 40 procs for 123456 steps with 272 atoms, finish time Mon Nov 28 12:17:13 2022


Pair  time (%) = 0.249579 (0.0200684)
Neigh time (%) = 2.02346 (0.162704)
Comm  time (%) = 7.94964 (0.639223)
Outpt time (%) = 0.000237115 (1.90662e-05)
Other time (%) = 1233.42 (99.178)

Nlocal:    6.8 ave 78 max 0 min
Histogram: 32 2 3 0 1 0 0 0 0 2
Nghost:    3.7 ave 41 max 0 min
Histogram: 36 0 0 0 0 0 0 2 0 2
Neighs:    1.675 ave 27 max 0 min
Histogram: 37 0 0 1 0 0 0 0 0 2

Total # of neighbors = 67
Ave neighs/atom = 0.246324
Neighbor list builds = 11223
Dangerous builds = 0
Setting up run at Mon Nov 28 12:17:13 2022

Memory usage per processor = 958.583 Mbytes
    Step    Atoms         KinEng            CPU 
 6543170      272     0.34700898              0 
 6666626      271     0.33764661      1241.5351 
Loop time of 1241.54 on 40 procs for 123456 steps with 271 atoms, finish time Mon Nov 28 12:37:54 2022


Pair  time (%) = 0.24876 (0.0200365)
Neigh time (%) = 2.02143 (0.162817)
Comm  time (%) = 8.22657 (0.662612)
Outpt time (%) = 0.000113318 (9.12723e-06)
Other time (%) = 1231.04 (99.1545)

Nlocal:    6.775 ave 77 max 0 min
Histogram: 32 4 0 1 0 1 0 0 0 2
Nghost:    3.95 ave 40 max 0 min
Histogram: 34 2 0 0 0 0 0 1 1 2
Neighs:    1.7 ave 29 max 0 min
Histogram: 37 0 0 1 0 0 0 0 1 1

Total # of neighbors = 68
Ave neighs/atom = 0.250923
Neighbor list builds = 11223
Dangerous builds = 0
Setting up run at Mon Nov 28 12:37:54 2022

Memory usage per processor = 958.583 Mbytes
    Step    Atoms         KinEng            CPU 
 6666626      271     0.33764661              0 
 6790082      270      1.2172115      1243.6553 
Loop time of 1243.67 on 40 procs for 123456 steps with 270 atoms, finish time Mon Nov 28 12:58:38 2022


Pair  time (%) = 0.251522 (0.0202242)
Neigh time (%) = 2.10713 (0.169429)
Comm  time (%) = 8.17647 (0.657449)
Outpt time (%) = 0.0230448 (0.00185297)
Other time (%) = 1233.11 (99.151)

Nlocal:    6.75 ave 76 max 0 min
Histogram: 32 3 1 1 0 1 0 0 0 2
Nghost:    3.725 ave 41 max 0 min
Histogram: 36 0 0 0 0 0 1 1 0 2
Neighs:    1.65 ave 30 max 0 min
Histogram: 37 0 0 1 0 0 0 1 0 1

Total # of neighbors = 66
Ave neighs/atom = 0.244444
Neighbor list builds = 11733
Dangerous builds = 0
Setting up run at Mon Nov 28 12:58:38 2022

Memory usage per processor = 958.583 Mbytes
    Step    Atoms         KinEng            CPU 
 6790082      270      1.2172115              0 
 6913538      268     0.36498989      1242.7615 
Loop time of 1242.76 on 40 procs for 123456 steps with 268 atoms, finish time Mon Nov 28 13:19:21 2022


Pair  time (%) = 0.250749 (0.0201767)
Neigh time (%) = 2.06574 (0.166222)
Comm  time (%) = 7.53786 (0.606541)
Outpt time (%) = 0.000299101 (2.40674e-05)
Other time (%) = 1232.91 (99.207)

Nlocal:    6.7 ave 75 max 0 min
Histogram: 33 2 1 0 1 1 0 0 0 2
Nghost:    3.6 ave 41 max 0 min
Histogram: 36 0 0 0 0 0 1 1 0 2
Neighs:    1.75 ave 30 max 0 min
Histogram: 36 1 0 0 1 0 0 1 0 1

Total # of neighbors = 70
Ave neighs/atom = 0.261194
Neighbor list builds = 11412
Dangerous builds = 1
Setting up run at Mon Nov 28 13:19:21 2022

Memory usage per processor = 958.583 Mbytes
    Step    Atoms         KinEng            CPU 
 6913538      268     0.36498989              0 
 7036994      265      0.3398707      1240.6277 
Loop time of 1240.63 on 40 procs for 123456 steps with 265 atoms, finish time Mon Nov 28 13:40:02 2022


Pair  time (%) = 0.250315 (0.0201765)
Neigh time (%) = 2.05681 (0.165788)
Comm  time (%) = 7.34841 (0.592314)
Outpt time (%) = 0.000259718 (2.09344e-05)
Other time (%) = 1230.97 (99.2217)

Nlocal:    6.625 ave 75 max 0 min
Histogram: 33 0 3 1 1 0 0 0 0 2
Nghost:    3.6 ave 44 max 0 min
Histogram: 36 0 0 0 0 1 1 0 1 1
Neighs:    1.675 ave 29 max 0 min
Histogram: 35 2 0 1 0 0 0 1 0 1

Total # of neighbors = 67
Ave neighs/atom = 0.25283
Neighbor list builds = 11449
Dangerous builds = 248
Setting up run at Mon Nov 28 13:40:02 2022

Memory usage per processor = 958.583 Mbytes
    Step    Atoms         KinEng            CPU 
 7036994      265      0.3398707              0 
 7160450      264     0.37861494       1237.098 
Loop time of 1237.1 on 40 procs for 123456 steps with 264 atoms, finish time Mon Nov 28 14:00:39 2022


Pair  time (%) = 0.24896 (0.0201245)
Neigh time (%) = 2.04615 (0.165399)
Comm  time (%) = 7.54722 (0.610074)
Outpt time (%) = 0.00075767 (6.12458e-05)
Other time (%) = 1227.25 (99.2043)

Nlocal:    6.6 ave 75 max 0 min
Histogram: 32 3 1 1 0 1 0 0 0 2
Nghost:    3.5 ave 45 max 0 min
Histogram: 36 0 0 0 0 1 1 1 0 1
Neighs:    1.675 ave 27 max 0 min
Histogram: 36 1 0 0 1 0 0 0 1 1

Total # of neighbors = 67
Ave neighs/atom = 0.253788
Neighbor list builds = 11230
Dangerous builds = 8
Setting up run at Mon Nov 28 14:00:39 2022

Memory usage per processor = 958.583 Mbytes
    Step    Atoms         KinEng            CPU 
 7160450      264     0.37861494              0 
 7283906      264     0.35246448      1237.1525 
Loop time of 1237.15 on 40 procs for 123456 steps with 264 atoms, finish time Mon Nov 28 14:21:16 2022


Pair  time (%) = 0.247532 (0.0200082)
Neigh time (%) = 2.03934 (0.164842)
Comm  time (%) = 7.86797 (0.635974)
Outpt time (%) = 0.000241088 (1.94874e-05)
Other time (%) = 1227 (99.1792)

Nlocal:    6.6 ave 76 max 0 min
Histogram: 32 3 1 1 0 1 0 0 0 2
Nghost:    3.6 ave 44 max 0 min
Histogram: 36 0 0 0 0 0 2 1 0 1
Neighs:    1.725 ave 27 max 0 min
Histogram: 36 1 0 0 1 0 0 0 0 2

Total # of neighbors = 69
Ave neighs/atom = 0.261364
Neighbor list builds = 11223
Dangerous builds = 0
Setting up run at Mon Nov 28 14:21:16 2022

Memory usage per processor = 958.583 Mbytes
    Step    Atoms         KinEng            CPU 
 7283906      264     0.35246448              0 
 7407362      260     0.33212302       1242.517 
Loop time of 1242.52 on 40 procs for 123456 steps with 260 atoms, finish time Mon Nov 28 14:41:59 2022


Pair  time (%) = 0.250196 (0.0201362)
Neigh time (%) = 2.10459 (0.169381)
Comm  time (%) = 8.15281 (0.656153)
Outpt time (%) = 0.00241355 (0.000194247)
Other time (%) = 1232.01 (99.1541)

Nlocal:    6.5 ave 73 max 0 min
Histogram: 32 3 1 1 0 1 0 0 0 2
Nghost:    3.425 ave 39 max 0 min
Histogram: 36 0 0 0 0 0 1 1 0 2
Neighs:    1.675 ave 28 max 0 min
Histogram: 36 1 0 1 0 0 0 0 1 1

Total # of neighbors = 67
Ave neighs/atom = 0.257692
Neighbor list builds = 11692
Dangerous builds = 152
Setting up run at Mon Nov 28 14:41:59 2022

Memory usage per processor = 958.583 Mbytes
    Step    Atoms         KinEng            CPU 
 7407362      260     0.33212302              0 
 7530818      257     0.41213855      1244.9208 
Loop time of 1244.92 on 40 procs for 123456 steps with 257 atoms, finish time Mon Nov 28 15:02:44 2022


Pair  time (%) = 0.254639 (0.0204542)
Neigh time (%) = 2.10541 (0.16912)
Comm  time (%) = 8.08201 (0.649198)
Outpt time (%) = 0.000520923 (4.18439e-05)
Other time (%) = 1234.48 (99.1612)

Nlocal:    6.425 ave 74 max 0 min
Histogram: 32 4 0 0 2 0 0 0 0 2
Nghost:    3.45 ave 37 max 0 min
Histogram: 36 0 0 0 0 0 0 2 0 2
Neighs:    1.525 ave 27 max 0 min
Histogram: 37 0 1 0 0 0 0 0 1 1

Total # of neighbors = 61
Ave neighs/atom = 0.237354
Neighbor list builds = 11764
Dangerous builds = 399
Setting up run at Mon Nov 28 15:02:44 2022

Memory usage per processor = 958.583 Mbytes
    Step    Atoms         KinEng            CPU 
 7530818      257     0.41213855              0 
 7654274      255     0.39541574      1234.4017 
Loop time of 1234.41 on 40 procs for 123456 steps with 255 atoms, finish time Mon Nov 28 15:23:18 2022


Pair  time (%) = 0.250284 (0.0202756)
Neigh time (%) = 2.1218 (0.171887)
Comm  time (%) = 7.82061 (0.633548)
Outpt time (%) = 0.000194019 (1.57175e-05)
Other time (%) = 1224.22 (99.1743)

Nlocal:    6.375 ave 73 max 0 min
Histogram: 33 2 0 2 0 1 0 0 0 2
Nghost:    3.4 ave 41 max 0 min
Histogram: 36 0 0 0 0 1 1 1 0 1
Neighs:    1.575 ave 27 max 0 min
Histogram: 36 1 1 0 0 0 0 0 1 1

Total # of neighbors = 63
Ave neighs/atom = 0.247059
Neighbor list builds = 11727
Dangerous builds = 2
Setting up run at Mon Nov 28 15:23:18 2022

Memory usage per processor = 958.583 Mbytes
    Step    Atoms         KinEng            CPU 
 7654274      255     0.39541574              0 
 7777730      255     0.37395342      1243.0827 
Loop time of 1243.08 on 40 procs for 123456 steps with 255 atoms, finish time Mon Nov 28 15:44:01 2022


Pair  time (%) = 0.246438 (0.0198248)
Neigh time (%) = 2.03231 (0.16349)
Comm  time (%) = 9.94135 (0.799734)
Outpt time (%) = 0.000254147 (2.04449e-05)
Other time (%) = 1230.86 (99.0169)

Nlocal:    6.375 ave 71 max 0 min
Histogram: 33 1 3 0 0 1 0 0 0 2
Nghost:    3.375 ave 36 max 0 min
Histogram: 35 1 0 0 0 0 1 1 0 2
Neighs:    1.575 ave 26 max 0 min
Histogram: 36 1 0 1 0 0 0 0 0 2

Total # of neighbors = 63
Ave neighs/atom = 0.247059
Neighbor list builds = 11223
Dangerous builds = 0
Setting up run at Mon Nov 28 15:44:01 2022

Memory usage per processor = 958.583 Mbytes
    Step    Atoms         KinEng            CPU 
 7777730      255     0.37395342              0 
 7901186      254     0.45115644      1239.4585 
Loop time of 1239.46 on 40 procs for 123456 steps with 254 atoms, finish time Mon Nov 28 16:04:41 2022


Pair  time (%) = 0.244458 (0.019723)
Neigh time (%) = 2.06887 (0.166918)
Comm  time (%) = 10.4072 (0.839661)
Outpt time (%) = 0.000528542 (4.2643e-05)
Other time (%) = 1226.74 (98.9737)

Nlocal:    6.35 ave 71 max 0 min
Histogram: 32 4 0 1 1 0 0 0 0 2
Nghost:    3.4 ave 34 max 0 min
Histogram: 35 1 0 0 0 0 0 1 1 2
Neighs:    1.45 ave 26 max 0 min
Histogram: 36 1 0 1 0 0 1 0 0 1

Total # of neighbors = 58
Ave neighs/atom = 0.228346
Neighbor list builds = 11496
Dangerous builds = 143
Setting up run at Mon Nov 28 16:04:41 2022

Memory usage per processor = 958.583 Mbytes
    Step    Atoms         KinEng            CPU 
 7901186      254     0.45115644              0 
 8024642      251     0.64355974      1249.7581 
Loop time of 1249.76 on 40 procs for 123456 steps with 251 atoms, finish time Mon Nov 28 16:25:31 2022


Pair  time (%) = 0.247219 (0.0197814)
Neigh time (%) = 1.89367 (0.151523)
Comm  time (%) = 7.4786 (0.598403)
Outpt time (%) = 0.000266926 (2.13582e-05)
Other time (%) = 1240.14 (99.2303)

Nlocal:    6.275 ave 70 max 0 min
Histogram: 32 3 1 1 1 0 0 0 0 2
Nghost:    3.525 ave 39 max 0 min
Histogram: 35 1 0 0 0 0 1 1 1 1
Neighs:    1.4 ave 25 max 0 min
Histogram: 36 0 1 1 0 0 1 0 0 1

Total # of neighbors = 56
Ave neighs/atom = 0.223108
Neighbor list builds = 10864
Dangerous builds = 913
Setting up run at Mon Nov 28 16:25:31 2022

Memory usage per processor = 958.583 Mbytes
    Step    Atoms         KinEng            CPU 
 8024642      251     0.64355974              0 
 8148098      250     0.54054722      1228.0988 
Loop time of 1228.1 on 40 procs for 123456 steps with 250 atoms, finish time Mon Nov 28 16:45:59 2022


Pair  time (%) = 0.241098 (0.0196318)
Neigh time (%) = 1.50943 (0.122908)
Comm  time (%) = 5.36342 (0.436725)
Outpt time (%) = 0.000194005 (1.57972e-05)
Other time (%) = 1220.98 (99.4207)

Nlocal:    6.25 ave 69 max 0 min
Histogram: 32 2 2 1 1 0 0 0 0 2
Nghost:    3.325 ave 34 max 0 min
Histogram: 36 0 0 0 0 0 0 1 1 2
Neighs:    1.325 ave 25 max 0 min
Histogram: 36 0 1 1 0 0 1 0 0 1

Total # of neighbors = 53
Ave neighs/atom = 0.212
Neighbor list builds = 8292
Dangerous builds = 1
Setting up run at Mon Nov 28 16:45:59 2022

Memory usage per processor = 958.583 Mbytes
    Step    Atoms         KinEng            CPU 
 8148098      250     0.54054722              0 
 8271554      250     0.32851906      1224.6547 
Loop time of 1224.65 on 40 procs for 123456 steps with 250 atoms, finish time Mon Nov 28 17:06:24 2022


Pair  time (%) = 0.23797 (0.0194316)
Neigh time (%) = 1.51334 (0.123573)
Comm  time (%) = 5.94 (0.485034)
Outpt time (%) = 0.000563968 (4.60512e-05)
Other time (%) = 1216.96 (99.3719)

Nlocal:    6.25 ave 69 max 0 min
Histogram: 33 1 2 1 1 0 0 0 0 2
Nghost:    3.325 ave 36 max 0 min
Histogram: 36 0 0 0 0 0 1 0 1 2
Neighs:    1.375 ave 24 max 0 min
Histogram: 36 1 0 0 0 2 0 0 0 1

Total # of neighbors = 55
Ave neighs/atom = 0.22
Neighbor list builds = 8230
Dangerous builds = 0
Setting up run at Mon Nov 28 17:06:24 2022

Memory usage per processor = 958.583 Mbytes
    Step    Atoms         KinEng            CPU 
 8271554      250     0.32851906              0 
 8395010      250     0.37337564      1234.0898 
Loop time of 1234.09 on 40 procs for 123456 steps with 250 atoms, finish time Mon Nov 28 17:26:58 2022


Pair  time (%) = 0.241437 (0.0195639)
Neigh time (%) = 1.64437 (0.133246)
Comm  time (%) = 6.20039 (0.502426)
Outpt time (%) = 0.00030003 (2.43119e-05)
Other time (%) = 1226 (99.3447)

Nlocal:    6.25 ave 69 max 0 min
Histogram: 32 2 2 2 0 0 0 0 0 2
Nghost:    3.275 ave 36 max 0 min
Histogram: 35 1 0 0 0 1 0 0 2 1
Neighs:    1.4 ave 25 max 0 min
Histogram: 36 1 0 0 2 0 0 0 0 1

Total # of neighbors = 56
Ave neighs/atom = 0.224
Neighbor list builds = 9034
Dangerous builds = 0
Setting up run at Mon Nov 28 17:26:58 2022

Memory usage per processor = 958.583 Mbytes
    Step    Atoms         KinEng            CPU 
 8395010      250     0.37337564              0 
 8518466      249     0.32071748      1224.3309 
Loop time of 1224.33 on 40 procs for 123456 steps with 249 atoms, finish time Mon Nov 28 17:47:22 2022


Pair  time (%) = 0.240282 (0.0196256)
Neigh time (%) = 1.43374 (0.117104)
Comm  time (%) = 5.27301 (0.430685)
Outpt time (%) = 0.000213147 (1.74093e-05)
Other time (%) = 1217.38 (99.4326)

Nlocal:    6.225 ave 68 max 0 min
Histogram: 32 3 1 1 0 1 0 0 0 2
Nghost:    3.275 ave 37 max 0 min
Histogram: 36 0 0 0 0 1 0 0 2 1
Neighs:    1.325 ave 23 max 0 min
Histogram: 36 1 0 0 1 1 0 0 0 1

Total # of neighbors = 53
Ave neighs/atom = 0.212851
Neighbor list builds = 7831
Dangerous builds = 0
Setting up run at Mon Nov 28 17:49:31 2022

Memory usage per processor = 958.583 Mbytes
    Step    Atoms         KinEng            CPU 
 8518466      249     0.32071748              0 
 8641922      245      1.1062252      1226.2335 
Loop time of 1226.23 on 40 procs for 123456 steps with 245 atoms, finish time Mon Nov 28 18:09:57 2022


Pair  time (%) = 0.239882 (0.0195625)
Neigh time (%) = 1.52888 (0.124681)
Comm  time (%) = 5.85051 (0.477112)
Outpt time (%) = 0.000543132 (4.42927e-05)
Other time (%) = 1218.61 (99.3786)

Nlocal:    6.125 ave 68 max 0 min
Histogram: 32 1 3 1 1 0 0 0 0 2
Nghost:    3.375 ave 39 max 0 min
Histogram: 36 0 0 0 0 1 0 1 1 1
Neighs:    1.1 ave 21 max 0 min
Histogram: 36 1 0 1 0 1 0 0 0 1

Total # of neighbors = 44
Ave neighs/atom = 0.179592
Neighbor list builds = 8437
Dangerous builds = 251
Setting up run at Mon Nov 28 18:09:58 2022

Memory usage per processor = 958.583 Mbytes
    Step    Atoms         KinEng            CPU 
 8641922      245      1.1062252              0 
 8765378      243     0.51967709      1232.1971 
Loop time of 1232.2 on 40 procs for 123456 steps with 243 atoms, finish time Mon Nov 28 18:30:30 2022


Pair  time (%) = 0.236826 (0.0192198)
Neigh time (%) = 1.47775 (0.119928)
Comm  time (%) = 5.09293 (0.413321)
Outpt time (%) = 0.00018279 (1.48344e-05)
Other time (%) = 1225.39 (99.4475)

Nlocal:    6.075 ave 69 max 0 min
Histogram: 32 2 2 1 1 0 0 0 0 2
Nghost:    3.375 ave 41 max 0 min
Histogram: 36 0 0 0 0 1 0 2 0 1
Neighs:    1.075 ave 18 max 0 min
Histogram: 35 2 0 0 0 2 0 0 0 1

Total # of neighbors = 43
Ave neighs/atom = 0.176955
Neighbor list builds = 8308
Dangerous builds = 463
Setting up run at Mon Nov 28 18:30:30 2022

Memory usage per processor = 958.583 Mbytes
    Step    Atoms         KinEng            CPU 
 8765378      243     0.51967709              0 
 8888834      241      0.4290788      1209.8739 
Loop time of 1209.87 on 40 procs for 123456 steps with 241 atoms, finish time Mon Nov 28 18:50:40 2022


Pair  time (%) = 0.232462 (0.0192137)
Neigh time (%) = 1.20766 (0.0998172)
Comm  time (%) = 5.83913 (0.482623)
Outpt time (%) = 0.000148149 (1.2245e-05)
Other time (%) = 1202.59 (99.3983)

Nlocal:    6.025 ave 69 max 0 min
Histogram: 32 3 1 1 0 1 0 0 0 2
Nghost:    3.425 ave 45 max 0 min
Histogram: 36 0 0 0 0 1 2 0 0 1
Neighs:    1 ave 17 max 0 min
Histogram: 37 0 0 0 0 2 0 0 0 1

Total # of neighbors = 40
Ave neighs/atom = 0.165975
Neighbor list builds = 6739
Dangerous builds = 54
Setting up run at Mon Nov 28 18:50:40 2022

Memory usage per processor = 958.583 Mbytes
    Step    Atoms         KinEng            CPU 
 8888834      241      0.4290788              0 
 9012290      241     0.39178628       1238.315 
Loop time of 1238.32 on 40 procs for 123456 steps with 241 atoms, finish time Mon Nov 28 19:11:18 2022


Pair  time (%) = 0.234347 (0.0189247)
Neigh time (%) = 1.17786 (0.095118)
Comm  time (%) = 4.10038 (0.331126)
Outpt time (%) = 0.000549776 (4.43971e-05)
Other time (%) = 1232.8 (99.5548)

Nlocal:    6.025 ave 66 max 0 min
Histogram: 32 3 1 0 2 0 0 0 0 2
Nghost:    3.375 ave 42 max 0 min
Histogram: 36 0 0 0 0 1 1 0 1 1
Neighs:    0.975 ave 16 max 0 min
Histogram: 36 1 0 0 0 1 1 0 0 1

Total # of neighbors = 39
Ave neighs/atom = 0.161826
Neighbor list builds = 6497
Dangerous builds = 0
Setting up run at Mon Nov 28 19:11:18 2022

Memory usage per processor = 958.583 Mbytes
    Step    Atoms         KinEng            CPU 
 9012290      241     0.39178628              0 
 9135746      238     0.84402421      1217.4259 
Loop time of 1217.43 on 40 procs for 123456 steps with 238 atoms, finish time Mon Nov 28 19:31:36 2022


Pair  time (%) = 0.237207 (0.0194843)
Neigh time (%) = 1.25265 (0.102893)
Comm  time (%) = 4.05421 (0.333015)
Outpt time (%) = 0.000226353 (1.85927e-05)
Other time (%) = 1211.88 (99.5446)

Nlocal:    5.95 ave 65 max 0 min
Histogram: 33 2 1 0 2 0 0 0 0 2
Nghost:    3.275 ave 39 max 0 min
Histogram: 36 0 0 0 0 1 0 1 1 1
Neighs:    0.9 ave 13 max 0 min
Histogram: 36 1 0 0 0 0 0 2 0 1

Total # of neighbors = 36
Ave neighs/atom = 0.151261
Neighbor list builds = 6966
Dangerous builds = 162
Setting up run at Mon Nov 28 19:31:36 2022

Memory usage per processor = 958.583 Mbytes
    Step    Atoms         KinEng            CPU 
 9135746      238     0.84402421              0 
 9259202      236     0.70381983      1222.5652 
Loop time of 1222.57 on 40 procs for 123456 steps with 236 atoms, finish time Mon Nov 28 19:51:58 2022


Pair  time (%) = 0.236739 (0.0193641)
Neigh time (%) = 1.40753 (0.115129)
Comm  time (%) = 4.22736 (0.345778)
Outpt time (%) = 0.00026698 (2.18377e-05)
Other time (%) = 1216.69 (99.5197)

Nlocal:    5.9 ave 66 max 0 min
Histogram: 33 2 1 0 1 1 0 0 0 2
Nghost:    3.2 ave 38 max 0 min
Histogram: 36 0 0 0 0 1 0 0 2 1
Neighs:    0.975 ave 12 max 0 min
Histogram: 36 0 0 0 1 0 0 0 2 1

Total # of neighbors = 39
Ave neighs/atom = 0.165254
Neighbor list builds = 7774
Dangerous builds = 42
Setting up run at Mon Nov 28 19:51:58 2022

Memory usage per processor = 958.583 Mbytes
    Step    Atoms         KinEng            CPU 
 9259202      236     0.70381983              0 
 9382658      236     0.52055082      1197.9904 
Loop time of 1197.99 on 40 procs for 123456 steps with 236 atoms, finish time Mon Nov 28 20:11:56 2022


Pair  time (%) = 0.22876 (0.0190953)
Neigh time (%) = 0.799876 (0.0667681)
Comm  time (%) = 2.78498 (0.232471)
Outpt time (%) = 0.000124451 (1.03883e-05)
Other time (%) = 1194.18 (99.6817)

Nlocal:    5.9 ave 64 max 0 min
Histogram: 33 2 1 0 1 1 0 0 0 2
Nghost:    3.425 ave 37 max 0 min
Histogram: 35 1 0 0 0 0 1 0 2 1
Neighs:    0.875 ave 13 max 0 min
Histogram: 36 0 1 0 0 0 2 0 0 1

Total # of neighbors = 35
Ave neighs/atom = 0.148305
Neighbor list builds = 4383
Dangerous builds = 0
Setting up run at Mon Nov 28 20:11:56 2022

Memory usage per processor = 958.583 Mbytes
    Step    Atoms         KinEng            CPU 
 9382658      236     0.52055082              0 
 9506114      235     0.50162811      1269.5186 
Loop time of 1269.52 on 40 procs for 123456 steps with 235 atoms, finish time Mon Nov 28 20:33:06 2022


Pair  time (%) = 0.25222 (0.0198674)
Neigh time (%) = 2.84345 (0.223979)
Comm  time (%) = 9.31829 (0.734002)
Outpt time (%) = 0.000491861 (3.87439e-05)
Other time (%) = 1257.1 (99.0221)

Nlocal:    5.875 ave 64 max 0 min
Histogram: 33 2 1 1 0 1 0 0 0 2
Nghost:    3.15 ave 37 max 0 min
Histogram: 36 0 0 0 0 1 0 0 2 1
Neighs:    0.825 ave 12 max 0 min
Histogram: 36 1 0 0 0 1 0 0 1 1

Total # of neighbors = 33
Ave neighs/atom = 0.140426
Neighbor list builds = 16197
Dangerous builds = 293
Setting up run at Mon Nov 28 20:33:06 2022

Memory usage per processor = 958.583 Mbytes
    Step    Atoms         KinEng            CPU 
 9506114      235     0.50162811              0 
 9629570      233     0.46167759      1202.9348 
Loop time of 1202.94 on 40 procs for 123456 steps with 233 atoms, finish time Mon Nov 28 20:53:09 2022


Pair  time (%) = 0.226828 (0.0188562)
Neigh time (%) = 0.81304 (0.067588)
Comm  time (%) = 2.61018 (0.216985)
Outpt time (%) = 0.000288015 (2.39427e-05)
Other time (%) = 1199.28 (99.6965)

Nlocal:    5.825 ave 63 max 0 min
Histogram: 32 2 2 0 2 0 0 0 0 2
Nghost:    3.025 ave 36 max 0 min
Histogram: 36 0 0 0 0 1 0 0 2 1
Neighs:    0.775 ave 10 max 0 min
Histogram: 35 1 0 0 1 0 0 0 2 1

Total # of neighbors = 31
Ave neighs/atom = 0.133047
Neighbor list builds = 4500
Dangerous builds = 143
Setting up run at Mon Nov 28 20:53:09 2022

Memory usage per processor = 958.583 Mbytes
    Step    Atoms         KinEng            CPU 
 9629570      233     0.46167759              0 
 9753026      233      0.4696846      1195.8961 
Loop time of 1195.9 on 40 procs for 123456 steps with 233 atoms, finish time Mon Nov 28 21:13:05 2022


Pair  time (%) = 0.2268 (0.0189649)
Neigh time (%) = 0.783255 (0.0654953)
Comm  time (%) = 2.46095 (0.205783)
Outpt time (%) = 0.000520899 (4.35572e-05)
Other time (%) = 1192.42 (99.7097)

Nlocal:    5.825 ave 65 max 0 min
Histogram: 32 2 2 1 0 1 0 0 1 1
Nghost:    3.1 ave 38 max 0 min
Histogram: 36 0 0 0 1 0 0 1 1 1
Neighs:    0.75 ave 11 max 0 min
Histogram: 36 1 0 0 0 0 0 2 0 1

Total # of neighbors = 30
Ave neighs/atom = 0.128755
Neighbor list builds = 4287
Dangerous builds = 0
Setting up run at Mon Nov 28 21:13:05 2022

Memory usage per processor = 958.583 Mbytes
    Step    Atoms         KinEng            CPU 
 9753026      233      0.4696846              0 
 9876482      232     0.66484359      1208.2052 
Loop time of 1208.21 on 40 procs for 123456 steps with 232 atoms, finish time Mon Nov 28 21:33:13 2022


Pair  time (%) = 0.228782 (0.0189357)
Neigh time (%) = 0.936409 (0.0775041)
Comm  time (%) = 3.15373 (0.261026)
Outpt time (%) = 0.00044068 (3.6474e-05)
Other time (%) = 1203.89 (99.6425)

Nlocal:    5.8 ave 65 max 0 min
Histogram: 32 3 1 0 1 1 0 0 1 1
Nghost:    2.975 ave 35 max 0 min
Histogram: 36 0 0 0 1 0 0 0 1 2
Neighs:    0.775 ave 12 max 0 min
Histogram: 36 0 1 0 0 0 2 0 0 1

Total # of neighbors = 31
Ave neighs/atom = 0.133621
Neighbor list builds = 5082
Dangerous builds = 0
Setting up run at Mon Nov 28 21:33:13 2022

Memory usage per processor = 958.583 Mbytes
    Step    Atoms         KinEng            CPU 
 9876482      232     0.66484359              0 
 9999938      232     0.60450082      1206.4348 
Loop time of 1206.44 on 40 procs for 123456 steps with 232 atoms, finish time Mon Nov 28 21:53:20 2022


Pair  time (%) = 0.226948 (0.0188115)
Neigh time (%) = 0.868358 (0.0719772)
Comm  time (%) = 3.13397 (0.259771)
Outpt time (%) = 0.000280823 (2.32771e-05)
Other time (%) = 1202.21 (99.6494)

Nlocal:    5.8 ave 65 max 0 min
Histogram: 32 3 1 0 1 1 0 0 1 1
Nghost:    3.15 ave 35 max 0 min
Histogram: 35 1 0 0 0 1 0 0 1 2
Neighs:    0.725 ave 11 max 0 min
Histogram: 36 0 1 0 0 0 1 1 0 1

Total # of neighbors = 29
Ave neighs/atom = 0.125
Neighbor list builds = 4748
Dangerous builds = 0
Setting up run at Mon Nov 28 21:53:20 2022

Memory usage per processor = 958.583 Mbytes
    Step    Atoms         KinEng            CPU 
 9999938      232     0.60450082              0 
10123394      230     0.88522816      1214.4829 
Loop time of 1214.48 on 40 procs for 123456 steps with 230 atoms, finish time Mon Nov 28 22:13:34 2022


Pair  time (%) = 0.229189 (0.0188713)
Neigh time (%) = 1.08268 (0.0891477)
Comm  time (%) = 3.80342 (0.313172)
Outpt time (%) = 0.000198642 (1.63561e-05)
Other time (%) = 1209.37 (99.5788)

Nlocal:    5.75 ave 64 max 0 min
Histogram: 32 2 2 1 0 1 0 0 1 1
Nghost:    2.975 ave 31 max 0 min
Histogram: 36 0 0 0 0 1 0 0 0 3
Neighs:    0.8 ave 9 max 0 min
Histogram: 33 2 1 1 0 0 0 1 0 2

Total # of neighbors = 32
Ave neighs/atom = 0.13913
Neighbor list builds = 6218
Dangerous builds = 605
Setting up run at Mon Nov 28 22:13:34 2022

Memory usage per processor = 958.583 Mbytes
    Step    Atoms         KinEng            CPU 
10123394      230     0.88522816              0 
10246850      227     0.59990233      1212.7423 
Loop time of 1212.74 on 40 procs for 123456 steps with 227 atoms, finish time Mon Nov 28 22:33:47 2022


Pair  time (%) = 0.229196 (0.018899)
Neigh time (%) = 1.09056 (0.089925)
Comm  time (%) = 4.01636 (0.33118)
Outpt time (%) = 0.000756482 (6.23778e-05)
Other time (%) = 1207.41 (99.5599)

Nlocal:    5.675 ave 66 max 0 min
Histogram: 33 2 0 2 1 0 0 0 1 1
Nghost:    3.05 ave 32 max 0 min
Histogram: 35 1 0 0 0 1 0 0 0 3
Neighs:    0.65 ave 10 max 0 min
Histogram: 35 1 1 0 0 1 0 0 1 1

Total # of neighbors = 26
Ave neighs/atom = 0.114537
Neighbor list builds = 6007
Dangerous builds = 11
Setting up run at Mon Nov 28 22:33:47 2022

Memory usage per processor = 958.583 Mbytes
    Step    Atoms         KinEng            CPU 
10246850      227     0.59990233              0 
10370306      226     0.64582643      1197.5569 
Loop time of 1197.56 on 40 procs for 123456 steps with 226 atoms, finish time Mon Nov 28 22:53:45 2022


Pair  time (%) = 0.226638 (0.018925)
Neigh time (%) = 0.990809 (0.0827358)
Comm  time (%) = 3.72346 (0.310921)
Outpt time (%) = 0.000275072 (2.29694e-05)
Other time (%) = 1192.62 (99.5874)

Nlocal:    5.65 ave 68 max 0 min
Histogram: 32 2 3 0 0 1 0 1 0 1
Nghost:    2.975 ave 33 max 0 min
Histogram: 35 1 0 0 0 1 0 0 0 3
Neighs:    0.775 ave 10 max 0 min
Histogram: 33 2 2 0 0 0 1 0 0 2

Total # of neighbors = 31
Ave neighs/atom = 0.137168
Neighbor list builds = 5621
Dangerous builds = 292
Setting up run at Mon Nov 28 22:53:45 2022

Memory usage per processor = 958.583 Mbytes
    Step    Atoms         KinEng            CPU 
10370306      226     0.64582643              0 
10493762      226     0.63643103      1207.1834 
Loop time of 1207.18 on 40 procs for 123456 steps with 226 atoms, finish time Mon Nov 28 23:13:52 2022


Pair  time (%) = 0.227093 (0.0188118)
Neigh time (%) = 0.918923 (0.0761213)
Comm  time (%) = 3.19537 (0.264696)
Outpt time (%) = 0.000178386 (1.4777e-05)
Other time (%) = 1202.84 (99.6404)

Nlocal:    5.65 ave 71 max 0 min
Histogram: 32 3 1 1 1 0 0 1 0 1
Nghost:    2.775 ave 32 max 0 min
Histogram: 36 0 0 0 0 1 0 0 1 2
Neighs:    0.725 ave 10 max 0 min
Histogram: 34 2 1 0 0 0 1 0 0 2

Total # of neighbors = 29
Ave neighs/atom = 0.128319
Neighbor list builds = 5013
Dangerous builds = 0
Setting up run at Mon Nov 28 23:13:52 2022

Memory usage per processor = 958.583 Mbytes
    Step    Atoms         KinEng            CPU 
10493762      226     0.63643103              0 
10617218      224     0.67111879      1205.1925 
Loop time of 1205.19 on 40 procs for 123456 steps with 224 atoms, finish time Mon Nov 28 23:33:57 2022


Pair  time (%) = 0.225111 (0.0186784)
Neigh time (%) = 0.893277 (0.074119)
Comm  time (%) = 2.90855 (0.241335)
Outpt time (%) = 0.000518203 (4.29975e-05)
Other time (%) = 1201.17 (99.6658)

Nlocal:    5.6 ave 68 max 0 min
Histogram: 32 3 1 1 1 0 0 1 0 1
Nghost:    3 ave 33 max 0 min
Histogram: 36 0 0 0 1 0 0 0 1 2
Neighs:    0.925 ave 14 max 0 min
Histogram: 36 1 0 0 0 1 1 0 0 1

Total # of neighbors = 37
Ave neighs/atom = 0.165179
Neighbor list builds = 5053
Dangerous builds = 330
Setting up run at Mon Nov 28 23:33:57 2022

Memory usage per processor = 958.583 Mbytes
    Step    Atoms         KinEng            CPU 
10617218      224     0.67111879              0 
10740674      222     0.57501903      1205.1141 
Loop time of 1205.11 on 40 procs for 123456 steps with 222 atoms, finish time Mon Nov 28 23:54:02 2022


Pair  time (%) = 0.222821 (0.0184896)
Neigh time (%) = 0.870901 (0.0722671)
Comm  time (%) = 3.03556 (0.25189)
Outpt time (%) = 0.000252664 (2.0966e-05)
Other time (%) = 1200.99 (99.6573)

Nlocal:    5.55 ave 69 max 0 min
Histogram: 33 2 1 1 1 0 0 1 0 1
Nghost:    2.85 ave 33 max 0 min
Histogram: 36 0 0 0 0 1 0 0 1 2
Neighs:    0.8 ave 15 max 0 min
Histogram: 36 1 0 0 1 0 1 0 0 1

Total # of neighbors = 32
Ave neighs/atom = 0.144144
Neighbor list builds = 4825
Dangerous builds = 3
Setting up run at Mon Nov 28 23:54:02 2022

Memory usage per processor = 958.583 Mbytes
    Step    Atoms         KinEng            CPU 
10740674      222     0.57501903              0 
10864130      221     0.60961964      1195.9459 
Loop time of 1195.95 on 40 procs for 123456 steps with 221 atoms, finish time Tue Nov 29 00:13:58 2022


Pair  time (%) = 0.224434 (0.0187662)
Neigh time (%) = 0.830941 (0.0694798)
Comm  time (%) = 2.64186 (0.220901)
Outpt time (%) = 0.000188628 (1.57723e-05)
Other time (%) = 1192.25 (99.6908)

Nlocal:    5.525 ave 69 max 0 min
Histogram: 33 1 2 2 0 0 0 1 0 1
Nghost:    2.85 ave 33 max 0 min
Histogram: 36 0 0 0 0 1 0 0 1 2
Neighs:    0.825 ave 14 max 0 min
Histogram: 35 2 0 0 1 0 1 0 0 1

Total # of neighbors = 33
Ave neighs/atom = 0.149321
Neighbor list builds = 4633
Dangerous builds = 147
Setting up run at Tue Nov 29 00:13:58 2022

Memory usage per processor = 958.583 Mbytes
    Step    Atoms         KinEng            CPU 
10864130      221     0.60961964              0 
10987586      221     0.59050345      1202.1923 
Loop time of 1202.19 on 40 procs for 123456 steps with 221 atoms, finish time Tue Nov 29 00:34:01 2022


Pair  time (%) = 0.224549 (0.0186783)
Neigh time (%) = 0.823574 (0.068506)
Comm  time (%) = 2.95428 (0.245741)
Outpt time (%) = 0.0005408 (4.49845e-05)
Other time (%) = 1198.19 (99.667)

Nlocal:    5.525 ave 68 max 0 min
Histogram: 32 3 2 0 1 0 0 1 0 1
Nghost:    2.925 ave 34 max 0 min
Histogram: 36 0 0 0 1 0 0 0 2 1
Neighs:    0.775 ave 16 max 0 min
Histogram: 36 1 0 1 1 0 0 0 0 1

Total # of neighbors = 31
Ave neighs/atom = 0.140271
Neighbor list builds = 4526
Dangerous builds = 0
Setting up run at Tue Nov 29 00:34:01 2022

Memory usage per processor = 958.583 Mbytes
    Step    Atoms         KinEng            CPU 
10987586      221     0.59050345              0 
11111042      219     0.48636683      1206.4014 
Loop time of 1206.4 on 40 procs for 123456 steps with 219 atoms, finish time Tue Nov 29 00:54:07 2022


Pair  time (%) = 0.226332 (0.0187609)
Neigh time (%) = 0.954957 (0.0791575)
Comm  time (%) = 3.74606 (0.310515)
Outpt time (%) = 0.00247383 (0.000205059)
Other time (%) = 1201.47 (99.5914)

Nlocal:    5.475 ave 65 max 0 min
Histogram: 33 1 2 1 1 0 0 0 1 1
Nghost:    2.975 ave 31 max 0 min
Histogram: 35 1 0 0 0 1 0 0 0 3
Neighs:    0.825 ave 15 max 0 min
Histogram: 36 0 1 0 2 0 0 0 0 1

Total # of neighbors = 33
Ave neighs/atom = 0.150685
Neighbor list builds = 5251
Dangerous builds = 1
Setting up run at Tue Nov 29 00:54:07 2022

Memory usage per processor = 958.583 Mbytes
    Step    Atoms         KinEng            CPU 
11111042      219     0.48636683              0 
11234498      218     0.55353604      1198.7789 
Loop time of 1198.78 on 40 procs for 123456 steps with 218 atoms, finish time Tue Nov 29 01:14:06 2022


Pair  time (%) = 0.223387 (0.0186346)
Neigh time (%) = 0.841366 (0.0701852)
Comm  time (%) = 3.15168 (0.262908)
Outpt time (%) = 0.0002005 (1.67253e-05)
Other time (%) = 1194.56 (99.6483)

Nlocal:    5.45 ave 64 max 0 min
Histogram: 32 3 1 1 1 0 0 0 1 1
Nghost:    2.775 ave 32 max 0 min
Histogram: 36 0 0 0 0 1 0 0 1 2
Neighs:    0.825 ave 17 max 0 min
Histogram: 36 1 1 1 0 0 0 0 0 1

Total # of neighbors = 33
Ave neighs/atom = 0.151376
Neighbor list builds = 4635
Dangerous builds = 48
Setting up run at Tue Nov 29 01:14:06 2022

Memory usage per processor = 958.583 Mbytes
[...]
Histogram: 36 0 0 0 0 2 0 1 0 1

Total # of neighbors = 11
Ave neighs/atom = 0.0859375
Neighbor list builds = 5688
Dangerous builds = 62
Setting up run at Wed Nov 30 05:59:11 2022

Memory usage per processor = 958.583 Mbytes
    Step    Atoms         KinEng            CPU 
21851792      128    0.089244576              0 
21975248      127     0.06237753      1189.9923 
Loop time of 1189.99 on 40 procs for 123456 steps with 127 atoms, finish time Wed Nov 30 06:19:01 2022


Pair  time (%) = 0.208653 (0.0175339)
Neigh time (%) = 0.373605 (0.0313956)
Comm  time (%) = 1.07594 (0.0904159)
Outpt time (%) = 0.000207692 (1.74532e-05)
Other time (%) = 1188.33 (99.8606)

Nlocal:    3.175 ave 49 max 0 min
Histogram: 33 4 1 0 0 0 0 1 0 1
Nghost:    1.3 ave 17 max 0 min
Histogram: 36 0 1 0 0 0 0 1 1 1
Neighs:    0.225 ave 4 max 0 min
Histogram: 36 0 2 0 0 0 0 1 0 1

Total # of neighbors = 9
Ave neighs/atom = 0.0708661
Neighbor list builds = 2026
Dangerous builds = 0
Setting up run at Wed Nov 30 06:19:01 2022

Memory usage per processor = 958.583 Mbytes
    Step    Atoms         KinEng            CPU 
21975248      127     0.06237753              0 
22098704      127     0.04016627      1184.5243 
Loop time of 1184.52 on 40 procs for 123456 steps with 127 atoms, finish time Wed Nov 30 06:38:45 2022


Pair  time (%) = 0.207329 (0.0175032)
Neigh time (%) = 0.178726 (0.0150884)
Comm  time (%) = 0.795006 (0.0671161)
Outpt time (%) = 0.00051386 (4.33811e-05)
Other time (%) = 1183.34 (99.9002)

Nlocal:    3.175 ave 49 max 0 min
Histogram: 34 3 0 1 0 0 0 1 0 1
Nghost:    1.45 ave 17 max 0 min
Histogram: 35 1 0 1 0 0 0 1 0 2
Neighs:    0.25 ave 5 max 0 min
Histogram: 37 0 1 0 0 0 0 0 1 1

Total # of neighbors = 10
Ave neighs/atom = 0.0787402
Neighbor list builds = 965
Dangerous builds = 0
Setting up run at Wed Nov 30 06:38:45 2022

Memory usage per processor = 958.583 Mbytes
    Step    Atoms         KinEng            CPU 
22098704      127     0.04016627              0 
22222160      127     0.14443315      1187.8687 
Loop time of 1187.87 on 40 procs for 123456 steps with 127 atoms, finish time Wed Nov 30 06:58:33 2022


Pair  time (%) = 0.209127 (0.0176053)
Neigh time (%) = 0.263494 (0.0221821)
Comm  time (%) = 1.04888 (0.0882996)
Outpt time (%) = 0.000213473 (1.79711e-05)
Other time (%) = 1186.35 (99.8719)

Nlocal:    3.175 ave 49 max 0 min
Histogram: 33 4 1 0 0 0 0 1 0 1
Nghost:    1.35 ave 17 max 0 min
Histogram: 35 1 1 0 0 0 0 2 0 1
Neighs:    0.225 ave 4 max 0 min
Histogram: 37 0 1 0 0 0 0 0 0 2

Total # of neighbors = 9
Ave neighs/atom = 0.0708661
Neighbor list builds = 1438
Dangerous builds = 0
Setting up run at Wed Nov 30 06:58:33 2022

Memory usage per processor = 958.583 Mbytes
    Step    Atoms         KinEng            CPU 
22222160      127     0.14443315              0 
22345616      126    0.035957196      1188.6756 
Loop time of 1188.68 on 40 procs for 123456 steps with 126 atoms, finish time Wed Nov 30 07:18:22 2022


Pair  time (%) = 0.20837 (0.0175296)
Neigh time (%) = 0.284534 (0.0239371)
Comm  time (%) = 1.39119 (0.117037)
Outpt time (%) = 0.000168871 (1.42066e-05)
Other time (%) = 1186.79 (99.8415)

Nlocal:    3.15 ave 49 max 0 min
Histogram: 33 3 2 0 0 0 1 0 0 1
Nghost:    1.325 ave 17 max 0 min
Histogram: 35 1 1 0 0 0 0 2 0 1
Neighs:    0.3 ave 5 max 0 min
Histogram: 37 0 0 0 0 0 1 0 1 1

Total # of neighbors = 12
Ave neighs/atom = 0.0952381
Neighbor list builds = 1730
Dangerous builds = 285
Setting up run at Wed Nov 30 07:18:22 2022

Memory usage per processor = 958.583 Mbytes
    Step    Atoms         KinEng            CPU 
22345616      126    0.035957196              0 
22469072      126    0.083188609      1185.2462 
Loop time of 1185.25 on 40 procs for 123456 steps with 126 atoms, finish time Wed Nov 30 07:38:07 2022


Pair  time (%) = 0.205826 (0.0173656)
Neigh time (%) = 0.204027 (0.0172139)
Comm  time (%) = 0.89656 (0.0756434)
Outpt time (%) = 0.00046377 (3.91285e-05)
Other time (%) = 1183.94 (99.8897)

Nlocal:    3.15 ave 48 max 0 min
Histogram: 34 3 1 0 0 0 0 1 0 1
Nghost:    1.425 ave 16 max 0 min
Histogram: 35 1 1 0 0 0 0 0 1 2
Neighs:    0.3 ave 6 max 0 min
Histogram: 35 3 0 0 0 1 0 0 0 1

Total # of neighbors = 12
Ave neighs/atom = 0.0952381
Neighbor list builds = 1109
Dangerous builds = 0
Setting up run at Wed Nov 30 07:38:07 2022

Memory usage per processor = 958.583 Mbytes
    Step    Atoms         KinEng            CPU 
22469072      126    0.083188609              0 
22592528      125    0.043146273      1190.6313 
Loop time of 1190.63 on 40 procs for 123456 steps with 125 atoms, finish time Wed Nov 30 07:57:58 2022


Pair  time (%) = 0.207704 (0.0174449)
Neigh time (%) = 0.36259 (0.0304536)
Comm  time (%) = 1.29116 (0.108444)
Outpt time (%) = 0.000198795 (1.66966e-05)
Other time (%) = 1188.77 (99.8436)

Nlocal:    3.125 ave 48 max 0 min
Histogram: 34 3 1 0 0 0 0 1 0 1
Nghost:    1.35 ave 15 max 0 min
Histogram: 35 1 0 1 0 0 0 0 0 3
Neighs:    0.275 ave 6 max 0 min
Histogram: 37 1 0 0 0 0 1 0 0 1

Total # of neighbors = 11
Ave neighs/atom = 0.088
Neighbor list builds = 1977
Dangerous builds = 0
Setting up run at Wed Nov 30 07:57:58 2022

Memory usage per processor = 958.583 Mbytes
    Step    Atoms         KinEng            CPU 
22592528      125    0.043146273              0 
22715984      125     0.34817331      1204.7202 
Loop time of 1204.72 on 40 procs for 123456 steps with 125 atoms, finish time Wed Nov 30 08:18:03 2022


Pair  time (%) = 0.219181 (0.0181935)
Neigh time (%) = 1.0791 (0.0895727)
Comm  time (%) = 3.56864 (0.296221)
Outpt time (%) = 0.000190115 (1.57809e-05)
Other time (%) = 1199.85 (99.596)

Nlocal:    3.125 ave 48 max 0 min
Histogram: 33 4 1 0 0 0 0 1 0 1
Nghost:    1.275 ave 16 max 0 min
Histogram: 36 0 1 0 0 0 0 0 1 2
Neighs:    0.35 ave 6 max 0 min
Histogram: 36 2 0 0 0 0 0 0 0 2

Total # of neighbors = 14
Ave neighs/atom = 0.112
Neighbor list builds = 5888
Dangerous builds = 0
Setting up run at Wed Nov 30 08:18:03 2022

Memory usage per processor = 958.583 Mbytes
    Step    Atoms         KinEng            CPU 
22715984      125     0.34817331              0 
22839440      123     0.10746604      1204.3063 
Loop time of 1204.31 on 40 procs for 123456 steps with 123 atoms, finish time Wed Nov 30 08:38:07 2022


Pair  time (%) = 0.215949 (0.0179314)
Neigh time (%) = 0.878991 (0.0729873)
Comm  time (%) = 2.84405 (0.236157)
Outpt time (%) = 0.000284903 (2.3657e-05)
Other time (%) = 1200.37 (99.6729)

Nlocal:    3.075 ave 47 max 0 min
Histogram: 33 5 0 0 0 0 0 1 0 1
Nghost:    1.25 ave 16 max 0 min
Histogram: 35 1 0 1 0 0 0 2 0 1
Neighs:    0.3 ave 6 max 0 min
Histogram: 37 1 0 0 0 0 0 0 1 1

Total # of neighbors = 12
Ave neighs/atom = 0.097561
Neighbor list builds = 4784
Dangerous builds = 0
Setting up run at Wed Nov 30 08:38:07 2022

Memory usage per processor = 958.583 Mbytes
    Step    Atoms         KinEng            CPU 
22839440      123     0.10746604              0 
22962896      123    0.079440063      1191.5319 
Loop time of 1191.53 on 40 procs for 123456 steps with 123 atoms, finish time Wed Nov 30 08:57:59 2022


Pair  time (%) = 0.20576 (0.0172685)
Neigh time (%) = 0.484211 (0.0406377)
Comm  time (%) = 1.45913 (0.122458)
Outpt time (%) = 0.000622226 (5.22206e-05)
Other time (%) = 1189.38 (99.8196)

Nlocal:    3.075 ave 47 max 0 min
Histogram: 34 4 0 0 0 0 0 1 0 1
Nghost:    1.225 ave 15 max 0 min
Histogram: 35 1 0 0 1 0 0 1 1 1
Neighs:    0.325 ave 7 max 0 min
Histogram: 37 1 0 0 0 0 0 1 0 1

Total # of neighbors = 13
Ave neighs/atom = 0.105691
Neighbor list builds = 2626
Dangerous builds = 0
Setting up run at Wed Nov 30 08:57:59 2022

Memory usage per processor = 958.583 Mbytes
    Step    Atoms         KinEng            CPU 
22962896      123    0.079440063              0 
23086352      123    0.060426702      1192.2662 
Loop time of 1192.27 on 40 procs for 123456 steps with 123 atoms, finish time Wed Nov 30 09:17:51 2022


Pair  time (%) = 0.207607 (0.0174128)
Neigh time (%) = 0.377148 (0.0316329)
Comm  time (%) = 1.15891 (0.097202)
Outpt time (%) = 0.000202409 (1.69768e-05)
Other time (%) = 1190.52 (99.8537)

Nlocal:    3.075 ave 48 max 0 min
Histogram: 33 4 1 0 0 0 0 1 0 1
Nghost:    1.25 ave 14 max 0 min
Histogram: 36 0 0 0 1 0 0 0 0 3
Neighs:    0.4 ave 7 max 0 min
Histogram: 37 0 0 0 1 0 0 0 1 1

Total # of neighbors = 16
Ave neighs/atom = 0.130081
Neighbor list builds = 2047
Dangerous builds = 0
Setting up run at Wed Nov 30 09:17:51 2022

Memory usage per processor = 958.583 Mbytes
    Step    Atoms         KinEng            CPU 
23086352      123    0.060426702              0 
23209808      123    0.066994927      1178.5963 
Loop time of 1178.6 on 40 procs for 123456 steps with 123 atoms, finish time Wed Nov 30 09:37:30 2022


Pair  time (%) = 0.203748 (0.0172873)
Neigh time (%) = 0.288659 (0.0244917)
Comm  time (%) = 0.907802 (0.077024)
Outpt time (%) = 0.000221605 (1.88024e-05)
Other time (%) = 1177.2 (99.8812)

Nlocal:    3.075 ave 48 max 0 min
Histogram: 34 4 0 0 0 0 0 1 0 1
Nghost:    1.225 ave 15 max 0 min
Histogram: 35 1 0 1 0 0 0 1 1 1
Neighs:    0.35 ave 7 max 0 min
Histogram: 37 1 0 0 0 0 0 0 1 1

Total # of neighbors = 14
Ave neighs/atom = 0.113821
Neighbor list builds = 1562
Dangerous builds = 0
Setting up run at Wed Nov 30 09:37:30 2022

Memory usage per processor = 958.583 Mbytes
    Step    Atoms         KinEng            CPU 
23209808      123    0.066994927              0 
23333264      123     0.32736368      1193.9885 
Loop time of 1193.99 on 40 procs for 123456 steps with 123 atoms, finish time Wed Nov 30 09:57:24 2022


Pair  time (%) = 0.207048 (0.0173409)
Neigh time (%) = 0.585928 (0.0490732)
Comm  time (%) = 1.74033 (0.145758)
Outpt time (%) = 0.000536813 (4.49597e-05)
Other time (%) = 1191.45 (99.7878)

Nlocal:    3.075 ave 50 max 0 min
Histogram: 34 3 1 0 0 0 1 0 0 1
Nghost:    1.2 ave 13 max 0 min
Histogram: 35 1 0 0 1 0 0 0 0 3
Neighs:    0.375 ave 7 max 0 min
Histogram: 37 1 0 0 0 0 0 0 0 2

Total # of neighbors = 15
Ave neighs/atom = 0.121951
Neighbor list builds = 3205
Dangerous builds = 0
Setting up run at Wed Nov 30 09:57:24 2022

Memory usage per processor = 958.583 Mbytes
    Step    Atoms         KinEng            CPU 
23333264      123     0.32736368              0 
23456720      122     0.18400586      1201.4289 
Loop time of 1201.43 on 40 procs for 123456 steps with 122 atoms, finish time Wed Nov 30 10:17:25 2022


Pair  time (%) = 0.211821 (0.0176307)
Neigh time (%) = 0.908571 (0.0756242)
Comm  time (%) = 2.52163 (0.209886)
Outpt time (%) = 0.00024139 (2.00919e-05)
Other time (%) = 1197.79 (99.6968)

Nlocal:    3.05 ave 49 max 0 min
Histogram: 35 1 2 0 0 0 1 0 0 1
Nghost:    1.225 ave 15 max 0 min
Histogram: 34 2 0 1 0 0 0 1 1 1
Neighs:    0.45 ave 8 max 0 min
Histogram: 36 0 2 0 0 0 0 1 0 1

Total # of neighbors = 18
Ave neighs/atom = 0.147541
Neighbor list builds = 4938
Dangerous builds = 1
Setting up run at Wed Nov 30 10:17:25 2022

Memory usage per processor = 958.583 Mbytes
    Step    Atoms         KinEng            CPU 
23456720      122     0.18400586              0 
23580176      120    0.074990089      1192.9145 
Loop time of 1192.91 on 40 procs for 123456 steps with 120 atoms, finish time Wed Nov 30 10:37:18 2022


Pair  time (%) = 0.207645 (0.0174065)
Neigh time (%) = 0.58894 (0.0493698)
Comm  time (%) = 2.60943 (0.218744)
Outpt time (%) = 0.0001635 (1.37059e-05)
Other time (%) = 1189.51 (99.7145)

Nlocal:    3 ave 48 max 0 min
Histogram: 35 2 1 0 0 0 0 1 0 1
Nghost:    1.25 ave 16 max 0 min
Histogram: 34 2 0 1 0 0 1 1 0 1
Neighs:    0.475 ave 8 max 0 min
Histogram: 36 1 0 0 0 1 0 1 0 1

Total # of neighbors = 19
Ave neighs/atom = 0.158333
Neighbor list builds = 3300
Dangerous builds = 1
Setting up run at Wed Nov 30 10:37:18 2022

Memory usage per processor = 958.583 Mbytes
    Step    Atoms         KinEng            CPU 
23580176      120    0.074990089              0 
23703632      120    0.078437429      1184.1037 
Loop time of 1184.1 on 40 procs for 123456 steps with 120 atoms, finish time Wed Nov 30 10:57:02 2022


Pair  time (%) = 0.202916 (0.0171367)
Neigh time (%) = 0.257992 (0.0217879)
Comm  time (%) = 1.22558 (0.103503)
Outpt time (%) = 0.000536901 (4.53424e-05)
Other time (%) = 1182.42 (99.8575)

Nlocal:    3 ave 47 max 0 min
Histogram: 36 0 2 0 0 0 0 1 0 1
Nghost:    1.25 ave 15 max 0 min
Histogram: 34 2 0 1 0 0 1 0 1 1
Neighs:    0.475 ave 9 max 0 min
Histogram: 37 0 0 0 1 0 1 0 0 1

Total # of neighbors = 19
Ave neighs/atom = 0.158333
Neighbor list builds = 1406
Dangerous builds = 0
Setting up run at Wed Nov 30 10:57:02 2022

Memory usage per processor = 958.583 Mbytes
    Step    Atoms         KinEng            CPU 
23703632      120    0.078437429              0 
23827088      120     0.57926857      1209.2499 
Loop time of 1209.25 on 40 procs for 123456 steps with 120 atoms, finish time Wed Nov 30 11:17:12 2022


Pair  time (%) = 0.215331 (0.017807)
Neigh time (%) = 1.14353 (0.0945654)
Comm  time (%) = 4.42877 (0.366241)
Outpt time (%) = 0.00246054 (0.000203477)
Other time (%) = 1203.46 (99.5212)

Nlocal:    3 ave 46 max 0 min
Histogram: 35 2 1 0 0 0 0 1 0 1
Nghost:    1.425 ave 16 max 0 min
Histogram: 32 4 0 1 0 0 1 1 0 1
Neighs:    0.5 ave 8 max 0 min
Histogram: 36 0 1 0 0 1 0 1 0 1

Total # of neighbors = 20
Ave neighs/atom = 0.166667
Neighbor list builds = 6299
Dangerous builds = 0
Setting up run at Wed Nov 30 11:17:12 2022

Memory usage per processor = 958.583 Mbytes
    Step    Atoms         KinEng            CPU 
23827088      120     0.57926857              0 
23950544      120     0.57776593      1208.9777 
Loop time of 1208.98 on 40 procs for 123456 steps with 120 atoms, finish time Wed Nov 30 11:37:21 2022


Pair  time (%) = 0.219924 (0.0181909)
Neigh time (%) = 1.41154 (0.116755)
Comm  time (%) = 5.03148 (0.416176)
Outpt time (%) = 0.0024485 (0.000202526)
Other time (%) = 1202.31 (99.4487)

Nlocal:    3 ave 46 max 0 min
Histogram: 35 2 1 0 0 0 0 1 0 1
Nghost:    1.3 ave 17 max 0 min
Histogram: 34 2 1 0 0 0 1 1 0 1
Neighs:    0.45 ave 8 max 0 min
Histogram: 36 1 0 0 0 1 1 0 0 1

Total # of neighbors = 18
Ave neighs/atom = 0.15
Neighbor list builds = 7716
Dangerous builds = 0
Setting up run at Wed Nov 30 11:37:21 2022

Memory usage per processor = 958.583 Mbytes
    Step    Atoms         KinEng            CPU 
23950544      120     0.57776593              0 
24074000      120     0.56910694      1217.3094 
Loop time of 1217.31 on 40 procs for 123456 steps with 120 atoms, finish time Wed Nov 30 11:57:38 2022


Pair  time (%) = 0.222667 (0.0182917)
Neigh time (%) = 1.414 (0.116158)
Comm  time (%) = 5.02036 (0.412414)
Outpt time (%) = 0.000704092 (5.78401e-05)
Other time (%) = 1210.65 (99.4531)

Nlocal:    3 ave 46 max 0 min
Histogram: 32 6 0 0 0 0 0 1 0 1
Nghost:    1.25 ave 16 max 0 min
Histogram: 34 2 0 1 0 0 0 2 0 1
Neighs:    0.425 ave 8 max 0 min
Histogram: 37 0 0 0 0 1 1 0 0 1

Total # of neighbors = 17
Ave neighs/atom = 0.141667
Neighbor list builds = 7716
Dangerous builds = 0
Setting up run at Wed Nov 30 11:57:38 2022

Memory usage per processor = 958.583 Mbytes
    Step    Atoms         KinEng            CPU 
24074000      120     0.56910694              0 
24197456      119      0.8611153      1214.7744 
Loop time of 1214.77 on 40 procs for 123456 steps with 119 atoms, finish time Wed Nov 30 12:17:53 2022


Pair  time (%) = 0.217691 (0.0179203)
Neigh time (%) = 1.31543 (0.108286)
Comm  time (%) = 4.89777 (0.403183)
Outpt time (%) = 0.000229712 (1.89099e-05)
Other time (%) = 1208.34 (99.4706)

Nlocal:    2.975 ave 48 max 0 min
Histogram: 33 5 0 0 0 0 1 0 0 1
Nghost:    1.3 ave 15 max 0 min
Histogram: 35 1 0 1 0 0 0 0 2 1
Neighs:    0.3 ave 5 max 0 min
Histogram: 37 0 0 0 1 0 0 0 0 2

Total # of neighbors = 12
Ave neighs/atom = 0.10084
Neighbor list builds = 7196
Dangerous builds = 0
Setting up run at Wed Nov 30 12:17:53 2022

Memory usage per processor = 958.583 Mbytes
    Step    Atoms         KinEng            CPU 
24197456      119      0.8611153              0 
24320912      118     0.73386505      1206.7189 
Loop time of 1206.72 on 40 procs for 123456 steps with 118 atoms, finish time Wed Nov 30 12:38:00 2022


Pair  time (%) = 0.214473 (0.0177733)
Neigh time (%) = 1.09162 (0.0904619)
Comm  time (%) = 3.60056 (0.298376)
Outpt time (%) = 0.000147992 (1.2264e-05)
Other time (%) = 1201.81 (99.5934)

Nlocal:    2.95 ave 46 max 0 min
Histogram: 33 4 1 0 0 0 1 0 0 1
Nghost:    1.225 ave 15 max 0 min
Histogram: 35 1 0 1 0 0 0 1 1 1
Neighs:    0.275 ave 4 max 0 min
Histogram: 36 0 1 0 0 1 0 0 0 2

Total # of neighbors = 11
Ave neighs/atom = 0.0932203
Neighbor list builds = 5954
Dangerous builds = 0
Setting up run at Wed Nov 30 12:38:00 2022

Memory usage per processor = 958.583 Mbytes
    Step    Atoms         KinEng            CPU 
24320912      118     0.73386505              0 
24444368      118     0.43225089      1199.0529 
Loop time of 1199.05 on 40 procs for 123456 steps with 118 atoms, finish time Wed Nov 30 12:57:59 2022


Pair  time (%) = 0.210669 (0.0175697)
Neigh time (%) = 0.874716 (0.0729506)
Comm  time (%) = 2.68608 (0.224017)
Outpt time (%) = 0.0124595 (0.00103911)
Other time (%) = 1195.27 (99.6844)

Nlocal:    2.95 ave 44 max 0 min
Histogram: 34 3 0 1 0 0 0 1 0 1
Nghost:    1.225 ave 16 max 0 min
Histogram: 35 1 0 1 0 0 1 1 0 1
Neighs:    0.325 ave 6 max 0 min
Histogram: 36 1 0 1 0 0 1 0 0 1

Total # of neighbors = 13
Ave neighs/atom = 0.110169
Neighbor list builds = 4761
Dangerous builds = 0
Setting up run at Wed Nov 30 12:57:59 2022

Memory usage per processor = 958.583 Mbytes
    Step    Atoms         KinEng            CPU 
24444368      118     0.43225089              0 
24567824      118     0.41448866      1193.6935 
Loop time of 1193.7 on 40 procs for 123456 steps with 118 atoms, finish time Wed Nov 30 13:17:53 2022


Pair  time (%) = 0.212429 (0.0177958)
Neigh time (%) = 0.873021 (0.0731356)
Comm  time (%) = 2.67266 (0.223897)
Outpt time (%) = 0.000530264 (4.44218e-05)
Other time (%) = 1189.94 (99.6851)

Nlocal:    2.95 ave 42 max 0 min
Histogram: 33 4 1 0 0 0 0 0 1 1
Nghost:    1.225 ave 18 max 0 min
Histogram: 35 1 1 0 0 1 1 0 0 1
Neighs:    0.275 ave 4 max 0 min
Histogram: 36 0 1 0 0 0 0 2 0 1

Total # of neighbors = 11
Ave neighs/atom = 0.0932203
Neighbor list builds = 4748
Dangerous builds = 0
Setting up run at Wed Nov 30 13:17:53 2022

Memory usage per processor = 958.583 Mbytes
    Step    Atoms         KinEng            CPU 
24567824      118     0.41448866              0 
24691280      118     0.40218136      1200.5895 
Loop time of 1200.59 on 40 procs for 123456 steps with 118 atoms, finish time Wed Nov 30 13:37:53 2022


Pair  time (%) = 0.213708 (0.0178002)
Neigh time (%) = 0.874612 (0.0728484)
Comm  time (%) = 2.55812 (0.213072)
Outpt time (%) = 0.000176623 (1.47114e-05)
Other time (%) = 1196.94 (99.6963)

Nlocal:    2.95 ave 42 max 0 min
Histogram: 35 2 1 0 0 0 0 0 1 1
Nghost:    1.3 ave 17 max 0 min
Histogram: 35 1 0 0 1 0 2 0 0 1
Neighs:    0.225 ave 3 max 0 min
Histogram: 37 0 0 0 0 0 0 0 0 3

Total # of neighbors = 9
Ave neighs/atom = 0.0762712
Neighbor list builds = 4747
Dangerous builds = 0
Setting up run at Wed Nov 30 13:37:53 2022

Memory usage per processor = 958.583 Mbytes
    Step    Atoms         KinEng            CPU 
24691280      118     0.40218136              0 
24691358      118     0.40217142     0.73693898 
Loop time of 0.736951 on 40 procs for 78 steps with 118 atoms, finish time Wed Nov 30 13:37:54 2022


Pair  time (%) = 0.000132961 (0.018042)
Neigh time (%) = 0.000542567 (0.0736233)
Comm  time (%) = 0.00223355 (0.30308)
Outpt time (%) = 0.00259967 (0.352761)
Other time (%) = 0.731442 (99.2525)

Nlocal:    2.95 ave 42 max 0 min
Histogram: 35 2 1 0 0 0 0 0 1 1
Nghost:    1.3 ave 17 max 0 min
Histogram: 35 1 0 0 1 0 2 0 0 1
Neighs:    0.225 ave 3 max 0 min
Histogram: 37 0 0 0 0 0 0 0 0 3

Total # of neighbors = 9
Ave neighs/atom = 0.0762712
Neighbor list builds = 3
Dangerous builds = 0
