ITEM: TIMESTEP
30452660
ITEM: NUMBER OF ATOMS
518
ITEM: BOX BOUNDS ff ff ff
-0.15 0.15
-0.15 0.15
-0.15 0.15
ITEM: ATOMS id type x y z radius vx vy vz density 
149 1 -0.00646919 -0.0424808 -0.0680602 0.000635 -32.8652 1.57183 3.12293 2650 
42 1 -0.00980443 -0.0352582 -0.0676597 0.000635 -30.1153 6.0966 4.36286 2650 
466 1 -0.0153065 -0.00950736 -0.0671014 0.000175 -27.8913 0.145883 6.36227 2650 
1295 1 -0.0109858 -0.00373953 -0.0679426 0.000175 -24.2963 -0.120153 3.92853 2650 
861 1 -0.0204352 -0.0454343 -0.0657213 0.000175 -32.6752 0.838222 10.1599 2650 
218 1 -0.0151575 -0.0360701 -0.0666648 0.000635 -28.2693 -0.0477841 6.426 2650 
37 1 -0.0114959 -0.022496 -0.0670415 0.000984 -26.2181 0.995696 4.49335 2650 
152 1 -0.0144347 -0.0185867 -0.0668248 0.000635 -27.4253 1.19216 5.92283 2650 
486 1 -0.0218157 -0.0493668 -0.0647932 0.000635 -28.9557 0.58451 9.74593 2650 
1113 1 -0.0208268 -0.0470757 -0.0651165 0.000635 -25.0873 2.84488 8.02211 2650 
377 1 -0.01753 -0.0290147 -0.0657281 0.000984 -32.0555 -0.820083 8.54371 2650 
317 1 -0.023088 -0.043704 -0.06435 0.000635 -25.9998 2.11783 9.32569 2650 
254 1 -0.0256581 -0.0353248 -0.0633713 0.000635 -30.5592 1.08328 12.3678 2650 
982 1 -0.0264097 -0.0257061 -0.0630608 0.000635 -27.6057 -0.466431 11.5567 2650 
746 1 -0.0296491 -0.0253425 -0.0616054 0.000635 -28.5979 0.762566 13.7573 2650 
1153 1 -0.0383885 -0.0609779 -0.0571246 0.000175 -27.8031 -0.347138 18.6826 2650 
49 1 -0.0366915 -0.0229608 -0.0576895 0.000635 -23.9177 2.55284 15.2045 2650 
882 1 -0.0364305 -0.0107369 -0.0578586 0.000635 -31.5432 0.102901 19.8522 2650 
28 1 -0.0374432 -0.0101411 -0.0577488 0.000175 -32.9288 -0.184917 21.4608 2650 
1136 1 -0.0375593 -0.0293442 -0.0567194 0.000984 -24.0301 0.618624 15.9007 2650 
250 1 -0.0397812 -0.0549813 -0.0556074 0.000635 -27.1843 2.71164 19.4377 2650 
445 1 -0.0456794 -0.0470957 -0.0508766 0.000635 -25.7654 -0.723403 23.1216 2650 
713 1 -0.044633 -0.0281046 -0.0517927 0.000635 -20.0725 -1.19889 17.2883 2650 
78 1 -0.0469933 -0.0180613 -0.0496647 0.000635 -22.9577 0.837528 21.7115 2650 
143 1 -0.0489282 -0.016467 -0.0477611 0.000635 -22.7777 0.52414 23.3222 2650 
630 1 -0.050633 -0.0477643 -0.0466193 0.000175 -20.843 0.0016902 22.6334 2650 
1037 1 -0.0494124 -0.0119256 -0.0467754 0.000984 -26.2782 -1.21183 27.7399 2650 
1200 1 -0.0497925 -0.00369944 -0.0463609 0.000984 -19.7573 2.59262 21.2034 2650 
688 1 -0.0516388 -0.0422843 -0.0448176 0.000635 -20.5216 -1.13155 23.6325 2650 
1179 1 -0.0533866 -0.0450397 -0.0427216 0.000635 -19.4372 -1.10922 24.2768 2650 
1041 1 -0.0533383 -0.0401223 -0.0427825 0.000635 -20.097 0.455432 25.0346 2650 
647 1 -0.0539709 -0.0408778 -0.041982 0.000635 -19.8206 0.715474 25.4771 2650 
720 1 -0.0550102 -0.0512162 -0.0406155 0.000635 -23.3805 -4.86316 31.6515 2650 
352 1 -0.055038 -0.0495461 -0.0405733 0.000635 -18.6487 -1.41018 25.2839 2650 
548 1 -0.0548732 -0.0339504 -0.040801 0.000635 -24.1169 9.4981 32.4191 2650 
964 1 -0.055488 -0.00260177 -0.0407215 0.000175 -19.15 -2.39298 26.0898 2650 
120 1 -0.0567069 -0.0233244 -0.0390063 0.000175 -16.548 -1.65579 24.0532 2650 
441 1 -0.0564918 -0.0434071 -0.0379215 0.000984 -17.271 1.17918 25.7093 2650 
253 1 -0.0611161 -0.0416444 -0.0306687 0.000635 -14.1952 5.46329 28.2734 2650 
225 1 -0.0623694 -0.0389263 -0.029109 0.000175 -12.1553 6.29098 26.04 2650 
403 1 -0.0638922 -0.0576523 -0.0255948 0.000175 -10.4517 0.2672 26.0863 2650 
175 1 -0.0650285 -0.060407 -0.0211386 0.000635 -5.57222 1.32826 17.1322 2650 
446 1 -0.0652424 -0.0577303 -0.0204703 0.000635 -5.83599 -0.645273 18.5901 2650 
205 1 -0.0649445 -0.0553028 -0.0203053 0.000984 -9.10894 1.80807 29.1124 2650 
1246 1 -0.0653416 -0.0434429 -0.0201613 0.000635 -9.17584 3.31948 29.7234 2650 
1105 1 -0.0659046 -0.0152967 -0.0182511 0.000635 -11.312 -2.99145 40.8283 2650 
1313 1 -0.0661898 -0.0413607 -0.0171739 0.000635 -7.62662 -0.233854 29.3787 2650 
376 1 -0.0658155 -0.0350121 -0.0172928 0.000984 -9.30444 2.76216 35.387 2650 
573 1 -0.0660268 -0.00757114 -0.0164456 0.000984 -6.77776 -2.37592 27.1911 2650 
734 1 -0.00610211 -0.00250895 -0.0155702 0.000175 0.219213 0.0174638 -0.0592396 2650 
1309 1 -0.0680534 -0.0289888 -0.00670715 0.000635 -3.20802 1.48951 32.5336 2650 
944 1 -0.0680082 -0.0238478 -0.00715907 0.000635 -3.74771 0.248543 35.5842 2650 
8 1 -0.0680985 -0.0178318 -0.00623817 0.000635 -3.14366 0.929002 34.3004 2650 
1323 1 -0.0291407 -0.054625 -0.00489134 0.000175 -0.791278 1.48716e-07 4.78079 2650 
1307 1 -0.0682697 -0.00528276 -0.00396014 0.000635 -2.13286 0.588169 36.7506 2650 
1217 1 -0.0687567 -0.0555289 -0.00314935 0.000175 -1.2105 -2.49438 26.4237 2650 
286 1 -0.0683517 -0.0280193 -0.00209452 0.000635 -1.06034 1.53125 34.5849 2650 
1300 1 -0.0680491 -0.0375264 -0.000525789 0.000984 -0.283601 -0.640998 36.67 2650 
208 1 -0.0680439 -0.0303806 -0.000598812 0.000984 -0.25891 0.0665089 29.3929 2650 
509 1 -0.06795 -0.0373589 0.00370093 0.000984 1.96918 -1.39001 36.1304 2650 
921 1 -0.00167728 -0.00190176 0.00258067 0.000175 -0.00974098 0.00082278 0.0321492 2650 
191 1 -0.0686968 -0.0265686 0.00425768 0.000175 0.987655 0.108872 15.9333 2650 
1282 1 -0.0686112 -0.0171465 0.00547077 0.000175 2.69009 0.0495345 33.7325 2650 
581 1 -0.0681542 -0.0262059 0.00554464 0.000635 1.32102 1.04265 16.2291 2650 
1145 1 -0.0679134 -0.0411158 0.00798917 0.000635 3.23442 1.78401 27.481 2650 
103 1 -0.0676038 -0.0226372 0.00775829 0.000984 3.59721 -1.26128 31.2873 2650 
897 1 -0.0683051 -0.0368694 0.00847493 0.000175 4.17951 -0.528678 33.6805 2650 
714 1 -0.0678573 -0.0240771 0.00846176 0.000635 3.92784 -1.28125 31.4497 2650 
1148 1 -0.00348733 -0.00176211 0.00796405 0.000635 -0.0136312 -0.00463218 0.0103722 2650 
731 1 -0.00419875 -0.000749235 0.00886219 0.000175 -0.0161922 -0.00583992 0.0232237 2650 
476 1 -0.00548602 -0.00313125 0.0100035 0.000984 -0.0112817 -0.00547918 0.00936782 2650 
97 1 -0.0676358 -0.0178567 0.0127597 0.000175 6.97115 5.33812 36.9467 2650 
104 1 -0.0664202 -0.0501746 0.0147862 0.000984 6.65717 -0.86396 29.8825 2650 
75 1 -0.0667189 -0.0425957 0.0149885 0.000635 6.58652 -1.05366 29.3043 2650 
709 1 -0.0667547 -0.0289644 0.0148296 0.000635 6.76763 0.178841 30.449 2650 
423 1 -0.0663741 -0.0296797 0.0164509 0.000635 7.94997 1.86052 32.0599 2650 
781 1 -0.0661064 -0.0415249 0.0174929 0.000635 7.92254 1.65548 29.9247 2650 
948 1 -0.0662183 -0.035903 0.0170635 0.000635 7.44086 -5.80826 28.8612 2650 
1008 1 -0.00289935 -0.00129008 0.0159463 0.000635 -0.0502699 -0.169991 -0.0072883 2650 
150 1 -0.065907 -0.021546 0.0182293 0.000635 8.24045 -0.729346 29.7781 2650 
950 1 -0.0656045 -0.0402762 0.0192918 0.000635 9.42572 -1.40551 32.0378 2650 
609 1 -0.0655011 -0.0346909 0.0196353 0.000635 8.36551 -0.331464 27.8995 2650 
416 1 -0.065137 -0.0350026 0.020811 0.000635 8.82483 -1.08662 27.595 2650 
144 1 -0.0650906 -0.0318344 0.020956 0.000635 9.08083 1.45748 28.1914 2650 
1157 1 -0.0642721 -0.0395197 0.0246256 0.000175 11.37 1.41763 29.6708 2650 
147 1 -0.0640684 -0.00377162 0.0238963 0.000635 9.58852 0.168503 25.6945 2650 
1269 1 -0.0635323 -0.0445235 0.0252871 0.000635 10.5029 -1.12025 26.3745 2650 
839 1 -0.0625552 -0.0388854 0.0267758 0.000984 12.8341 0.507798 29.9621 2650 
884 1 -0.0630601 -0.0282606 0.0264386 0.000635 9.00412 1.3865 21.4647 2650 
454 1 -0.0628582 -0.0201691 0.0269214 0.000635 12.8209 2.83616 29.9202 2650 
907 1 -0.0622548 -0.0440178 0.0282869 0.000635 12.7785 0.756642 28.1091 2650 
106 1 -0.0613224 -0.0494679 0.0294878 0.000984 14.1128 0.165815 29.3274 2650 
1083 1 -0.0619043 -0.00695114 -0.0290514 0.000635 -16.638 -1.76581 35.4361 2650 
880 1 -0.0609533 -0.0240369 0.0309895 0.000635 13.1357 0.107838 25.8232 2650 
1022 1 -0.0576129 -0.0101195 0.0376558 0.000175 18.9345 -8.11995 28.9648 2650 
576 1 -0.0565001 -0.03847 0.0385108 0.000635 15.8526 -1.08186 23.2454 2650 
4 1 -0.0557087 -0.0358377 0.0390589 0.000984 15.9213 0.00157884 22.6906 2650 
906 1 -0.0551375 -0.0278572 0.0404437 0.000635 23.9382 -11.8067 32.6231 2650 
804 1 -0.0552709 -0.0211887 0.0396832 0.000984 19.9871 1.13328 27.8162 2650 
885 1 -0.0540825 -0.0530808 0.0418374 0.000635 18.3244 -0.838334 23.6752 2650 
1267 1 -0.0530411 -0.0513497 0.0426088 0.000984 17.6349 -1.26598 21.9356 2650 
1299 1 -0.0523739 -0.0423808 0.0434282 0.000984 19.5347 1.55353 23.5408 2650 
903 1 -0.0528022 -0.0402922 0.0429067 0.000984 19.2158 0.0844205 23.6296 2650 
1074 1 -0.0519033 -0.0287837 0.0445113 0.000635 20.3008 0.312301 23.6598 2650 
219 1 -0.0503688 -0.0086714 0.0462399 0.000635 21.2854 -2.88169 23.1739 2650 
1126 1 -0.0517208 -0.00097696 0.0454097 0.000175 19.6604 -1.02184 22.3889 2650 
584 1 -0.0493937 -0.0520718 0.0472795 0.000635 21.763 -0.470651 22.7243 2650 
137 1 -0.0485661 -0.0361283 0.0476454 0.000984 21.4446 1.79306 21.8424 2650 
738 1 -0.0451117 -0.0237839 0.0509272 0.000984 23.9979 -2.88401 21.2416 2650 
351 1 -0.0448762 -0.0339635 0.051585 0.000635 24.0159 -1.39377 20.8817 2650 
1086 1 -0.0425479 -0.0476942 0.054098 0.000175 22.5411 6.29404 17.7261 2650 
1068 1 -0.0410737 -0.0402035 0.0542353 0.000984 26.5348 0.264352 20.0807 2650 
534 1 -0.0433406 -0.0343512 0.0534654 0.000175 25.3469 -5.55086 20.5437 2650 
319 1 -0.0424402 -0.0341407 0.0536055 0.000635 24.0331 0.363061 19.0174 2650 
710 1 -0.0420902 -0.0274011 0.0538813 0.000635 25.425 2.40595 19.8508 2650 
617 1 -0.0405259 -0.0328041 0.055067 0.000635 26.0812 0.0796753 19.1844 2650 
519 1 -0.0353967 -0.0173692 0.0584924 0.000635 23.661 3.62046 14.3115 2650 
185 1 -0.0334694 -0.0456015 0.0596158 0.000635 24.6066 3.44192 13.8081 2650 
112 1 -0.0303174 -0.0433488 0.0612785 0.000635 26.0857 0.914973 12.9001 2650 
488 1 -0.031175 -0.0203849 0.060848 0.000635 28.1962 -0.0617345 14.4394 2650 
240 1 -0.0272336 -0.0354329 0.0623359 0.000984 27.1801 -0.199219 11.8662 2650 
261 1 -0.0302866 -0.0304831 0.061803 0.000175 27.5096 1.00233 13.4803 2650 
711 1 -0.0274083 -0.0288478 0.0626351 0.000635 31.169 -1.20342 13.6331 2650 
314 1 -0.0258536 -0.039626 0.0632928 0.000635 32.3942 1.7452 13.2264 2650 
276 1 -0.0223187 -0.053909 0.0642508 0.000984 16.1992 1.93706 5.62589 2650 
48 1 -0.0223697 -0.036151 0.0646045 0.000635 29.9535 -0.867767 10.3676 2650 
575 1 -0.0209272 -0.0290009 0.0647246 0.000984 28.2698 -2.50138 9.13427 2650 
1304 1 -0.0223285 -0.0278058 0.0646185 0.000635 29.3108 -1.31724 10.1244 2650 
36 1 -0.0162575 -0.0490122 0.0660519 0.000984 29.4044 -0.817497 7.23272 2650 
1238 1 -0.0190289 -0.047339 0.0656662 0.000635 31.442 2.83253 9.10799 2650 
390 1 -0.0193179 -0.03215 0.06558 0.000635 31.1627 -2.75578 9.02085 2650 
593 1 -0.0200523 -0.00141716 0.0658391 0.000175 31.6454 4.96513 9.63806 2650 
477 1 -0.01122 -0.0295623 0.067091 0.000984 30.0809 0.000818822 5.02748 2650 
252 1 -0.0146967 -0.0252992 0.0667684 0.000635 30.2409 0.0289975 6.65454 2650 
212 1 -0.00292423 -0.061148 0.0682785 0.000635 29.38 -6.53364 1.32238 2650 
273 1 -0.00348853 -0.0592037 0.0679138 0.000984 18.7793 -2.01928 1.26177 2650 
675 1 -0.00860528 -0.0451035 0.0678231 0.000635 31.8182 -3.36784 4.03593 2650 
1215 1 -0.0114924 -0.0407847 0.0673944 0.000635 32.6002 -2.35776 5.55739 2650 
681 1 -0.00800694 -0.038995 0.0678959 0.000635 30.3016 -1.70457 3.57264 2650 
239 1 -0.00867816 -0.0368019 0.0674704 0.000984 34.8828 -1.5204 4.48378 2650 
307 1 -0.00889188 -0.0297439 0.0674394 0.000984 30.8719 -1.42223 4.06796 2650 
577 1 -0.00482302 0.0652671 -0.0682026 0.000635 -48.1072 3.25489 3.40053 2650 
556 1 -0.017224 0.0310463 -0.0661644 0.000635 -37.172 4.95928 9.67269 2650 
878 1 -0.021019 0.0352356 -0.0650721 0.000635 -63.1186 -4.64551 20.3797 2650 
805 1 -0.0256322 0.00586162 -0.0630103 0.000984 -27.2206 -2.98969 11.0656 2650 
545 1 -0.0542108 0.0280645 -0.0416975 0.000635 -43.192 -5.35766 56.131 2650 
987 1 -0.0305907 0.0295841 -0.0402134 0.000175 -29.6884 -26.4087 4.33782 2650 
227 1 -0.0578186 0.064984 -0.0225965 0.000175 8.92008 19.2721 0.940622 2650 
333 1 -0.0657087 0.0444002 -0.0204869 0.000175 -9.2032 8.79905 29.5134 2650 
773 1 -0.065617 0.0508605 -0.0179778 0.000984 -1.69408 0.441149 6.1775 2650 
291 1 -0.000194501 0.00246595 -0.016634 0.000175 0.472608 -0.0120911 -0.0196757 2650 
263 1 -0.00225467 0.0198703 -0.0162239 0.000175 -0.0215043 0.022847 0.0159752 2650 
84 1 -0.00136369 0.0388718 -0.0157522 0.000635 0.0645868 0.0288766 -0.014842 2650 
611 1 -0.00715878 0.0275111 -0.0145183 0.000635 0.0641539 0.0505377 -0.0464112 2650 
947 1 -0.00239956 0.0357484 -0.0152619 0.000635 0.009707 0.0178317 -0.00751568 2650 
331 1 -0.00440605 0.00735928 -0.0136271 0.000175 0.060825 -0.0776044 -0.0327721 2650 
337 1 -0.00326404 0.0199028 -0.0139457 6.3e-05 -0.0285237 0.00622771 0.00824667 2650 
1172 1 -0.00348694 0.0385763 -0.0135327 0.000635 -0.0833683 0.0135513 0.00372014 2650 
676 1 -0.00124379 0.043041 -0.0139245 0.000635 0.053801 0.0456469 0.00941733 2650 
433 1 -0.00959284 0.044454 -0.0135698 0.000175 -0.100802 -0.00817625 0.0751814 2650 
89 1 -0.00433594 0.0448355 -0.0134595 0.000175 -0.0166362 0.0321188 -0.00383283 2650 
123 1 -0.0095026 0.0515822 -0.0134952 0.000175 -0.0971773 0.00675877 0.0516453 2650 
883 1 -0.00779394 0.0558863 -0.0139911 0.000635 0.0525826 0.107209 -0.0393233 2650 
172 1 -0.00850792 0.00456949 -0.0128876 0.000984 0.0911938 -0.0283708 -0.0656425 2650 
547 1 -0.00395578 0.00375063 -0.0127261 0.000635 -0.0390551 0.0109223 -0.0134753 2650 
1023 1 -0.00257214 0.00938426 -0.0124126 0.000175 -0.0455558 0.0339575 -0.0460927 2650 
536 1 -0.00375596 0.0252321 -0.0122627 0.000175 -0.0051282 0.0173174 -0.0128074 2650 
1101 1 -0.00224879 0.0351382 -0.0126372 0.000984 -0.0443509 0.0469799 -0.00229874 2650 
1006 1 -0.0077665 0.0128808 -0.0113783 0.000635 -0.0122982 0.00605938 0.0184643 2650 
1319 1 -0.008297 0.0157856 -0.0108812 0.000175 -0.0240666 0.00829223 -0.00332398 2650 
1047 1 -0.0675471 0.0332504 -0.0106637 0.000635 -5.55572 1.23564 35.1744 2650 
83 1 -0.0126705 0.0267245 -0.010239 0.000635 0.0575807 0.0106587 -0.077526 2650 
414 1 -0.00291069 0.0579735 -0.0101894 0.000635 0.0941296 0.100801 -0.0728817 2650 
35 1 -0.000858112 0.0192824 -0.00878271 0.000984 0.00814709 0.00405451 6.85379e-05 2650 
1204 1 -0.00958002 0.0424349 -0.00857328 0.000635 -0.00511542 0.0263897 0.00737163 2650 
561 1 -0.0148571 0.00968826 -0.00734698 0.000175 0.0541125 0.0296814 -0.125092 2650 
1144 1 -0.0145511 0.0347405 -0.00751169 0.000635 0.0203571 0.00522165 -0.0431186 2650 
308 1 -0.00888501 0.035337 -0.00784412 0.000984 -0.0387877 0.0299059 -0.00163225 2650 
1134 1 -0.0676566 0.0415751 -0.0072642 0.000984 -3.00505 -0.350505 27.9668 2650 
557 1 -0.00651975 0.0723669 -0.00764499 0.000175 -0.0127933 0.0580029 0.0228993 2650 
706 1 -0.00200681 0.00288801 -0.00699399 0.000984 0.0186687 0.00401889 -0.0151653 2650 
875 1 -0.00392043 0.02527 -0.00702537 0.000635 -0.0115199 -0.000324873 0.0116132 2650 
1273 1 -0.0147269 0.0345717 -0.00600601 0.000635 0.0170481 0.00897661 -0.0345436 2650 
462 1 -0.0156006 0.0418107 -0.00606955 0.000175 -0.00437451 0.0310557 0.0169654 2650 
34 1 -0.00892076 0.00210449 -0.00534263 6.3e-05 -0.0245429 -0.00359333 0.0171368 2650 
1070 1 -0.0147534 0.00844116 -0.00513018 0.000984 0.0392784 -0.00585448 -0.0657466 2650 
1039 1 -0.0126279 0.012729 -0.00553448 0.000635 0.0262739 -0.0180542 0.00671982 2650 
859 1 -0.00168938 0.020013 -0.00501979 0.000175 -0.00699072 0.0104727 0.00432033 2650 
408 1 -0.00259574 0.0243195 -0.00491129 0.000984 -0.00250562 0.0143134 -0.00351015 2650 
792 1 -0.000150997 0.0319527 -0.00506497 0.000175 0.0136925 0.0165103 0.0275012 2650 
110 1 -0.00327333 0.0521566 -0.00575628 0.000635 -0.00512828 0.0375081 0.00893931 2650 
483 1 -0.0156533 0.00293063 -0.00444583 0.000635 0.0411648 -0.0384758 -0.0934316 2650 
1201 1 -0.0155179 0.0222474 -0.00391569 0.000984 0.0167224 0.04709 -0.101693 2650 
715 1 -0.0142687 0.0238458 -0.00434631 0.000635 0.00162313 0.062508 -0.0997617 2650 
620 1 -0.00632739 0.0244073 -0.00390449 0.000635 -0.0249651 0.011968 -0.0114584 2650 
1089 1 -4.1229e-05 0.0297429 -0.00391963 0.000175 0.00773798 0.0242828 -0.0120661 2650 
1173 1 -0.0154205 0.00652997 -0.00333507 0.000635 0.00919916 -0.0275252 -0.0875495 2650 
14 1 -0.00168163 0.00701521 -0.00310715 0.000635 -0.00874534 0.00357596 -0.00099169 2650 
275 1 -0.0126204 0.0129996 -0.00341367 0.000984 0.0235765 -0.00810595 0.013844 2650 
1270 1 -0.00627401 0.0180624 -0.0028984 0.000635 0.00714019 0.00183274 -0.000348323 2650 
1205 1 -0.0011083 0.0229514 -0.00329466 0.000635 -0.023857 0.0135658 -0.00415351 2650 
1187 1 -0.0155787 0.0109274 -0.00173797 0.000175 -0.0218433 0.0110025 0.00361319 2650 
187 1 -0.00894891 0.0155545 -0.0016228 0.000635 0.0162666 -0.0301613 -0.0345853 2650 
924 1 -0.0115046 0.0176136 -0.00121275 0.000175 0.000471034 0.011719 0.0067381 2650 
817 1 -0.0125046 0.0194171 -0.0020662 0.000635 0.00983687 0.00704646 -0.0569687 2650 
1324 1 -0.0163345 0.0296988 -0.00216596 0.000175 -0.0207097 0.0164521 0.0112886 2650 
1326 1 -0.0163601 0.0291367 -0.00148246 0.000175 0.00753226 0.0193268 -0.0198815 2650 
1073 1 -0.0121563 0.0423118 -0.00196529 0.000635 -0.00400847 0.0264818 0.00358555 2650 
1033 1 -0.0166743 0.0454258 -0.00202409 6.3e-05 -0.0042908 -0.0256444 0.101974 2650 
629 1 -0.00555507 0.0546724 -0.0016379 0.000175 0.0207198 0.0363503 0.0194658 2650 
750 1 -0.00824212 0.00480772 -0.000350882 0.000635 0.0380014 -0.0474199 0.00522981 2650 
945 1 -0.00767313 0.0246193 -0.00116829 0.000635 0.00147891 0.00677172 0.0208418 2650 
832 1 -0.0133981 0.0250435 -0.000857512 0.000175 0.00878949 0.0625595 0.00643934 2650 
269 1 -0.0159908 0.0355667 -0.000455003 6.3e-05 0.00913408 0.018008 -0.05568 2650 
1026 1 -0.0164564 0.0367603 -0.000235506 0.000175 -0.000181221 0.0748008 -0.0322676 2650 
1082 1 -0.0108482 0.0395501 -0.00108479 0.000635 -0.00401833 0.0280641 0.0270059 2650 
170 1 -0.00862989 0.00675082 0.000916915 6.3e-05 0.0131921 0.00654398 0.0137728 2650 
396 1 -0.00197197 0.0296559 0.00035925 0.000175 0.00469398 0.0212255 0.0128186 2650 
824 1 -0.0114661 0.0473871 0.000366315 0.000175 -0.0040458 0.0316073 0.0140192 2650 
943 1 -0.00818595 0.000496089 0.00204642 0.000635 -0.00662511 -0.00214623 0.00892642 2650 
637 1 -0.00449766 0.00351336 0.00195783 6.3e-05 0.0591703 -0.0445732 0.0389203 2650 
588 1 -0.0683157 0.00751266 0.00310479 0.000635 1.9211 3.55382 42.252 2650 
440 1 -0.0149549 0.0277212 0.00176205 6.3e-05 -0.0115646 0.0178358 -0.0101824 2650 
1049 1 -0.0071567 0.03249 0.00194036 0.000635 -0.00558521 0.0348076 -0.0225875 2650 
380 1 -0.00700421 0.0388774 0.00120709 0.000635 -0.00373228 0.0267426 -0.0188702 2650 
938 1 -0.00236976 0.0584431 0.00181544 0.000984 -0.00640544 0.0346346 0.00685781 2650 
1222 1 -0.00297601 0.0325209 0.00316887 0.000175 0.0026228 0.0195977 0.0204013 2650 
45 1 -0.0105813 0.0359832 0.00348735 0.000635 -0.0127086 0.0234462 -0.0468386 2650 
980 1 -0.0158852 0.0577631 0.00310155 0.000635 0.0103114 0.0410724 0.0558606 2650 
946 1 -0.0163517 0.0590808 0.00355884 0.000635 -0.00242075 0.0427889 0.0567797 2650 
1091 1 -0.0122326 0.00896414 0.00469088 0.000175 0.00526396 0.00327977 0.0026449 2650 
474 1 -0.00245872 0.0368237 0.00380025 0.000984 -0.000362483 0.0221972 0.00936314 2650 
52 1 -0.000663277 0.0395864 0.0041776 0.000175 0.0196879 0.0229778 0.00611739 2650 
459 1 -0.00558644 0.043444 0.0045129 0.000175 -0.00831464 0.0626707 -0.056211 2650 
877 1 -0.0079993 0.00189888 0.00579101 0.000635 -0.0183756 0.00219422 0.00439416 2650 
222 1 -0.00957173 0.0143703 0.00559174 0.000175 0.00579536 0.00230475 -0.0042589 2650 
759 1 -0.0159374 0.0187985 0.00511794 0.000175 -0.0115271 0.0173551 -0.0433376 2650 
1007 1 -0.0127236 0.0253199 0.00499051 0.000635 -0.0376139 -0.00194083 -0.01231 2650 
830 1 -0.015567 0.0383752 0.00581021 0.000175 0.0170076 0.103163 0.0386399 2650 
61 1 -0.0125408 0.0668738 0.00504704 0.000175 0.00284435 0.0383743 0.0328059 2650 
1292 1 -0.00945784 0.0333063 0.00666886 0.000175 0.0257864 0.0107077 0.0227421 2650 
843 1 -0.00354531 0.0642236 0.00667539 0.000635 -0.0216504 0.0523048 0.00462256 2650 
1115 1 -0.0139797 0.00779937 0.00767466 0.000635 -0.00495489 0.000631341 -0.0324067 2650 
372 1 -0.0146843 0.0105469 0.0076324 6.3e-05 0.00247308 0.00146638 -0.00565257 2650 
94 1 -0.00112559 0.0167713 0.00736105 0.000175 -0.0255132 0.0056386 0.00570025 2650 
673 1 -0.0133455 0.0295193 0.00868596 0.000984 0.00183504 0.021525 0.0246255 2650 
571 1 -0.012007 0.000262381 0.00999609 6.3e-05 0.00576034 -0.00538722 0.0287236 2650 
662 1 -0.0133474 0.00534978 0.0101261 0.000175 -0.130676 -0.100652 -0.148397 2650 
778 1 -0.0128469 0.0174764 0.0099027 0.000635 0.0510327 0.0105858 0.0685426 2650 
1276 1 -0.0128731 0.0189634 0.0099531 0.000635 -0.169632 0.120353 -0.193813 2650 
1104 1 -0.0674613 0.0190986 0.0111819 0.000635 4.66257 -1.39104 28.1155 2650 
1017 1 -0.0119855 0.0214832 0.0106869 0.000635 -0.154762 -0.042292 -0.134807 2650 
707 1 -0.0672281 0.033718 0.010514 0.000984 4.37829 1.12335 27.9747 2650 
628 1 -0.00445899 0.0631029 0.0100003 0.000175 0.0063189 0.0355182 -0.0157764 2650 
633 1 -0.00240799 0.063399 0.0106602 0.000175 0.0218492 0.0418799 0.0329776 2650 
1146 1 -0.0110181 0.00799846 0.011959 0.000635 -0.103229 -0.00623662 -0.0768968 2650 
101 1 -0.0126672 0.00967543 0.0109836 6.3e-05 0.0438146 -0.0219754 0.0582366 2650 
336 1 -0.00694297 0.0364739 0.0113107 0.000175 -0.0134937 0.0212418 0.00477987 2650 
1305 1 -0.0115259 0.0371737 0.011063 0.000635 -0.0351866 0.0358113 -0.0310032 2650 
784 1 -0.0026406 0.0646421 0.0111255 0.000635 0.00940023 0.0384708 -0.0125057 2650 
1088 1 -0.0109115 0.0195588 0.0126894 0.000175 0.0214016 0.0061553 0.0186338 2650 
1244 1 -0.0054431 0.0218841 0.012632 0.000635 0.0346352 -0.0158307 -0.0301488 2650 
625 1 -0.00918891 0.0302552 0.0129864 0.000175 0.030965 0.00819496 0.0216265 2650 
195 1 -0.00974174 0.0477457 0.0124369 0.000175 0.0102176 0.0283175 0.00771699 2650 
217 1 -0.00796901 0.0418261 0.0141129 0.000635 -0.10554 0.0871341 -0.082664 2650 
409 1 -0.00194798 0.0144013 0.0157722 0.000984 0.164807 0.0408809 0.00692456 2650 
293 1 -0.00595938 0.0206606 0.0156733 0.000175 -0.404595 -0.0717186 -0.160039 2650 
164 1 -0.00227441 0.0226435 0.0165781 0.000175 0.00441586 0.106727 0.00624919 2650 
487 1 -0.0583822 0.0578328 0.0356303 0.000635 39.2954 -1.40216 64.3623 2650 
507 1 -0.0560053 0.0556119 0.0386139 0.000984 1.03548 -1.82988 1.50035 2650 
384 1 -0.0422696 0.0279423 0.0537401 0.000635 24.1998 3.58052 19.0246 2650 
567 1 -0.0198933 0.0741966 0.0658873 0.000175 -0.102098 -0.152781 -0.0306218 2650 
806 1 -0.00871419 0.0749852 0.0675181 0.000984 87.7278 13.1128 11.3164 2650 
849 1 -0.00744139 0.102345 -0.0679613 0.000635 -34.1427 16.3251 3.73654 2650 
957 1 -0.00951064 0.108281 -0.0681647 0.000175 0.109291 -0.00862434 -0.0136937 2650 
1280 1 -9.48751e-05 0.100307 -0.0166584 0.000635 -0.00744639 0.0729218 -0.00187479 2650 
979 1 -0.000398952 0.100571 -0.0124011 0.000635 -0.0400191 0.179183 -0.0125847 2650 
1210 1 -0.0101537 0.0991512 -0.0117106 0.000635 -0.00425961 0.0729796 0.00221068 2650 
568 1 -0.0129662 0.0999292 -0.0095889 0.000175 -0.0549529 0.102285 0.040611 2650 
544 1 -0.00232238 0.108962 -0.0090918 0.000635 -0.0593514 0.220268 -0.0259819 2650 
341 1 -0.00753855 0.0770543 -0.00566478 0.000984 -0.0146584 0.0495816 0.00276996 2650 
64 1 -0.00648175 0.0783579 -0.00388479 0.000175 -0.0246439 0.0705249 -0.0178555 2650 
775 1 -0.0112322 0.0756471 -0.000110274 0.000635 0.00495739 0.0451474 -0.0208516 2650 
1137 1 -0.0144448 0.099927 -0.000176832 0.000635 -0.0281939 0.0678305 0.00639445 2650 
553 1 -0.00573606 0.0889805 0.00155586 0.000635 -0.0141497 0.128327 -0.0254962 2650 
814 1 -0.00892726 0.0872718 0.00890115 0.000635 -0.000756461 0.213784 -0.0192623 2650 
912 1 -0.00226926 0.090016 0.0102863 0.000635 0.011419 0.0560948 0.000533708 2650 
311 1 -0.0417854 0.13837 0.0541271 0.000635 39.8618 -3.62775 30.759 2650 
1106 1 -0.0182881 0.0818036 0.0658836 0.000635 48.1864 4.98453 13.3699 2650 
1274 1 0.00286962 -0.059958 -0.0683051 0.000635 -24.6393 -3.33661 -1.03508 2650 
973 1 0.00554207 -0.0357207 -0.0681405 0.000635 -26.2438 4.00043 -2.13426 2650 
356 1 0.00445301 -0.0286442 -0.068221 0.000635 -30.0627 0.885407 -1.96189 2650 
1271 1 0.00330458 -0.0278192 -0.0682866 0.000635 -31.4063 0.14117 -1.51949 2650 
749 1 0.00565683 -0.0267288 -0.0681326 0.000635 -33.0012 -1.37038 -2.73921 2650 
764 1 0.0129333 -0.0190678 -0.0675989 0.000175 -24.3463 4.57446 -4.65804 2650 
467 1 0.0124942 -0.0145234 -0.0676814 0.000175 -27.0111 1.85966 -4.98634 2650 
816 1 0.00116813 -0.00374774 -0.068356 0.000635 -29.3035 -0.00718494 -0.500697 2650 
2 1 0.015089 -0.0534137 -0.0663289 0.000984 -30.0922 0.44041 -6.84122 2650 
510 1 0.016957 -0.0133994 -0.0662293 0.000635 -24.1433 0.233339 -6.18069 2650 
72 1 0.0221461 -0.0608621 -0.0643161 0.000984 -25.8238 -2.6031 -8.88595 2650 
1063 1 0.0242982 -0.0571852 -0.0637345 0.000175 -8.60555 -11.9339 -3.32354 2650 
684 1 0.0230065 -0.045683 -0.0643801 0.000635 -28.5131 2.13137 -10.1855 2650 
38 1 0.0197651 -0.0449675 -0.0650902 0.000984 -30.2593 0.920267 -9.18226 2650 
716 1 0.026676 -0.0506914 -0.0629478 0.000635 -25.2121 0.888911 -10.6806 2650 
113 1 0.0260601 -0.0194695 -0.0632077 0.000635 -31.4698 -1.57733 -12.9691 2650 
639 1 0.0284568 -0.0537504 -0.0617848 0.000984 -24.0366 3.16086 -11.063 2650 
891 1 0.0299314 -0.0461744 -0.0619761 0.000175 -43.2038 9.05912 -20.8636 2650 
552 1 0.0287682 -0.0254849 -0.0620207 0.000635 -26.83 -0.807028 -12.4398 2650 
140 1 0.0274606 -0.0245147 -0.0622361 0.000984 -26.8887 -1.29167 -11.8557 2650 
916 1 0.0325941 -0.0059093 -0.0600972 0.000635 -21.5187 -2.44626 -11.666 2650 
550 1 0.0354535 -0.0511815 -0.0584587 0.000635 -25.2044 -0.7397 -15.2782 2650 
1214 1 0.0346854 -0.0267771 -0.0589237 0.000635 -36.9733 6.19101 -21.7542 2650 
158 1 0.0379904 -0.00598944 -0.05739 0.000175 -20.0615 -2.36982 -13.28 2650 
594 1 0.0396996 -0.0220469 -0.0562214 0.000175 -25.4942 -2.39231 -18.0007 2650 
419 1 0.0421734 -0.0238553 -0.0538159 0.000635 -24.7411 -0.0130676 -19.3786 2650 
951 1 0.0429612 -0.057044 -0.0531885 0.000635 -22.9058 0.38489 -18.4915 2650 
284 1 0.0429214 -0.0277912 -0.0532198 0.000635 -21.4732 1.99856 -17.3087 2650 
1236 1 0.0429348 -0.0211245 -0.0532108 0.000635 -24.6273 2.19087 -19.861 2650 
741 1 0.0445609 -0.00973047 -0.0517834 0.000635 -0.160073 -0.213471 -0.219065 2650 
342 1 0.0442076 -0.037203 -0.0517111 0.000984 -22.5906 -0.086458 -19.2978 2650 
689 1 0.0449306 -0.011953 -0.0510286 0.000175 -1.71582 -7.96012 2.62555 2650 
484 1 0.0538699 -0.0437922 -0.0421142 0.000635 -22.5663 -4.3542 -28.8511 2650 
695 1 0.0593391 -0.0388612 -0.0348723 0.000175 -13.1439 -1.81653 -22.3621 2650 
381 1 0.0591759 -0.0307764 -0.0342684 0.000635 -21.8603 7.20792 -37.5717 2650 
3 1 0.0595211 -0.0196203 -0.0329696 0.000984 -15.4277 1.26471 -27.8315 2650 
970 1 0.0612114 -0.0386272 -0.0297143 0.000984 -13.2774 -1.50789 -27.331 2650 
1301 1 0.0629528 -0.0502596 -0.0258213 0.000984 -10.9236 -0.232164 -26.612 2650 
348 1 0.0651652 -0.0591422 -0.0207319 0.000635 -11.657 -0.64068 -36.6232 2650 
68 1 0.0656232 -0.00482622 -0.0184462 6.3e-05 -2.41609 -0.0981056 0.798064 2650 
1268 1 0.0656744 -0.0497825 -0.0178019 0.000984 -7.45435 0.330308 -27.48 2650 
422 1 0.0660193 -0.0410403 -0.0178199 0.000635 -8.34608 4.61435 -30.9054 2650 
722 1 0.000196342 -0.000856238 -0.0111702 0.000175 -0.000765307 -0.00724665 -0.00160405 2650 
1111 1 0.00975095 -0.00201312 -0.00856759 0.000635 -0.00397703 -0.00881317 -0.00487577 2650 
1040 1 0.00303478 -0.0163776 -0.00503612 0.000635 -1.10934 -0.0773256 -0.646916 2650 
242 1 0.00598826 -0.000705367 -0.00526116 0.000984 -0.007244 -0.00724781 -0.0027481 2650 
1330 1 7.5006e-05 -0.00337816 -0.00413225 6.3e-05 0.00587927 -0.0330586 -0.323903 2650 
925 1 0.00143975 -0.00202168 -0.00026791 0.000175 0.0235303 -0.00678132 -0.00107973 2650 
209 1 0.068379 -0.0127411 -0.00071619 0.000635 -0.32183 -1.78826 -30.7143 2650 
375 1 0.0680488 -0.02519 0.000162193 0.000984 0.0796751 0.803853 -33.379 2650 
1046 1 0.0683255 -0.0551124 0.00286134 0.000635 1.65797 3.04024 -39.5708 2650 
546 1 0.0683335 -0.0491557 0.00265588 0.000635 1.51147 2.9331 -38.8696 2650 
776 1 0.068334 -0.0313103 0.0026391 0.000635 1.48321 1.45392 -38.3856 2650 
1251 1 0.0686816 -0.0386379 0.00450277 0.000175 2.50943 -1.75204 -38.2711 2650 
873 1 0.0681786 -0.0460046 0.00528357 0.000635 2.47805 3.60262 -31.9603 2650 
589 1 0.0119729 -0.000919551 0.00798812 0.000635 -0.0241311 -0.0296312 0.00931118 2650 
1095 1 0.0682735 -0.0552818 0.00872522 0.000175 3.53467 -4.45616 -27.654 2650 
928 1 0.0682918 -0.0313729 0.00858078 0.000175 3.67676 0.25037 -29.2577 2650 
1243 1 0.0675652 -0.0529775 0.0105436 0.000635 5.07318 -1.78283 -32.4935 2650 
397 1 0.00104511 -0.00156449 0.0127045 0.000175 0.00170465 0.000415777 -0.00369366 2650 
182 1 0.00316316 -0.00150517 0.0135224 0.000635 0.0048067 -0.00885607 -0.023248 2650 
515 1 0.0670119 -0.0146 0.0136227 0.000635 6.48158 -2.76909 -31.8678 2650 
701 1 0.0669434 -0.0256913 0.0159981 0.000175 5.40067 -6.12194 -22.5953 2650 
870 1 0.06577 -0.0418569 0.0174535 0.000984 8.22967 -0.7307 -30.9891 2650 
523 1 0.0657398 -0.0260028 0.0188257 0.000635 9.2659 0.547646 -32.3406 2650 
672 1 0.0643497 -0.0371986 0.0221221 0.000984 10.7828 -2.32996 -31.3424 2650 
549 1 0.0645809 -0.00616357 0.0224748 0.000635 8.94717 0.0569071 -25.6961 2650 
357 1 0.0635831 -0.0141388 0.0251573 0.000635 9.66506 0.575452 -24.4148 2650 
11 1 0.0620343 -0.0311839 0.0272316 0.000635 13.5617 -0.534213 -35.5421 2650 
585 1 0.0621837 -0.0104577 0.0284388 0.000635 10.5931 0.326347 -23.1503 2650 
562 1 0.0619881 -0.0182708 0.0299118 0.000175 7.76861 3.32208 -16.0967 2650 
1221 1 0.005869 -0.038099 0.0685743 0.000175 32.9736 0.799698 -2.82207 2650 
382 1 0.0609802 -0.0402007 0.030936 0.000635 12.9618 2.32084 -25.5367 2650 
788 1 0.0615698 -0.0146217 0.030764 0.000175 13.0008 3.74222 -26.0149 2650 
721 1 0.0605258 -0.0567747 0.0318194 0.000635 16.1814 -2.36694 -30.7644 2650 
603 1 0.0497294 -0.0519266 0.0329782 6.3e-05 8.82964 8.02194 -1.47681 2650 
871 1 0.0593779 -0.0210238 0.0332145 0.000984 11.1559 0.800654 -19.9274 2650 