LIGGGHTS (Version LIGGGHTS-PUBLIC 3.8.0, compiled 2022-11-07-16:55:38 by serperd1, git commit 86544c3f1215bc9744d7929e3eacf53ba086af9e)
Created orthogonal box = (-0.15 -0.15 -0.15) to (0.15 0.15 0.15)
  2 by 4 by 5 MPI processor grid

Reading STL file 'cone.stl' (mesh processing step 1/3) 

Reading STL file 'in_cyl.stl' (mesh processing step 1/3) 

Reading STL file 'top_cyl.stl' (mesh processing step 1/3) 

Reading STL file 'bot_cyl.stl' (mesh processing step 1/3) 

Reading STL file 'bottom_disk.stl' (mesh processing step 1/3) 

Reading STL file 'top_disk.stl' (mesh processing step 1/3) 
Fix particledistribution/discrete (id prob_par): distribution based on mass%:
    r_0to10p: d=1.260000e-04 (max. bounding sphere) mass%=10.000000%
    r_10to50p: d=3.492000e-04 (max. bounding sphere) mass%=40.000000%
    r_50to90p: d=1.269900e-03 (max. bounding sphere) mass%=40.000000%
    r_90to100p: d=1.968300e-03 (max. bounding sphere) mass%=10.000000%
Fix particledistribution/discrete (id prob_par): distribution based on number%:
    r_0to10p: d=1.260000e-04 (max. bounding sphere) number%=83.887052%
    r_10to50p: d=3.492000e-04 (max. bounding sphere) number%=15.763181%
    r_50to90p: d=1.269900e-03 (max. bounding sphere) number%=0.327762%
    r_90to100p: d=1.968300e-03 (max. bounding sphere) number%=0.022006%
Setting up run at Sat Dec 24 06:00:09 2022

Import and parallelization of mesh cone_mesh containing 868 triangle(s) successful
Import and parallelization of mesh inlet_cyl_wall_mesh containing 1064 triangle(s) successful
Import and parallelization of mesh top_cyl_wall_mesh containing 682 triangle(s) successful
Import and parallelization of mesh bot_cyl_wall_mesh containing 1280 triangle(s) successful
Import and parallelization of mesh bot_disk_wall_mesh containing 1682 triangle(s) successful
Import and parallelization of mesh top_disk_wall_mesh containing 1144 triangle(s) successful
Memory usage per processor = 955.842 Mbytes
    Step    Atoms         KinEng            CPU 
       0        0              0              0 
Loop time of 4.70993e-05 on 40 procs for 0 steps with 0 atoms, finish time Sat Dec 24 06:00:09 2022


Pair  time (%) = 0 (0)
Neigh time (%) = 0 (0)
Comm  time (%) = 0 (0)
Outpt time (%) = 0 (0)
Other time (%) = 4.70993e-05 (100)

Nlocal:    0 ave 0 max 0 min
Histogram: 40 0 0 0 0 0 0 0 0 0
Nghost:    0 ave 0 max 0 min
Histogram: 40 0 0 0 0 0 0 0 0 0
Neighs:    0 ave 0 max 0 min
Histogram: 40 0 0 0 0 0 0 0 0 0

Total # of neighbors = 0
Neighbor list builds = 0
Dangerous builds = 0
Setting up run at Sat Dec 24 06:00:09 2022

Memory usage per processor = 955.842 Mbytes
    Step    Atoms         KinEng            CPU 
       0        0              0              0 
       1        0              0    0.009829194 
Loop time of 0.00984454 on 40 procs for 1 steps with 0 atoms, finish time Sat Dec 24 06:00:09 2022


Pair  time (%) = 2.2832e-06 (0.0231926)
Neigh time (%) = 0 (0)
Comm  time (%) = 0.000205723 (2.08972)
Outpt time (%) = 0.000150866 (1.53249)
Other time (%) = 0.00948567 (96.3546)

Nlocal:    0 ave 0 max 0 min
Histogram: 40 0 0 0 0 0 0 0 0 0
Nghost:    0 ave 0 max 0 min
Histogram: 40 0 0 0 0 0 0 0 0 0
Neighs:    0 ave 0 max 0 min
Histogram: 40 0 0 0 0 0 0 0 0 0

Total # of neighbors = 0
Neighbor list builds = 0
Dangerous builds = 0
Scanning dump file ...
Reading snapshot from dump file ...
  orthogonal box = (-0.15 -0.15 -0.15) to (0.15 0.15 0.15)
  0 atoms before read
  1331 atoms in snapshot
  0 atoms purged
  0 atoms replaced
  0 atoms trimmed
  1331 atoms added
  1331 atoms after read
Setting atom values ...
  1331 settings made for type
  1331 settings made for density
  1331 settings made for vy
Setting up run at Sat Dec 24 06:00:10 2022

Memory usage per processor = 960.195 Mbytes
    Step    Atoms         KinEng            CPU 
       1     1331    2.04396e-07              0 
       2     1331  2.5455856e-07    0.009234461 
Loop time of 0.00924665 on 40 procs for 1 steps with 1331 atoms, finish time Sat Dec 24 06:00:10 2022


Pair  time (%) = 2.63582e-06 (0.0285057)
Neigh time (%) = 0 (0)
Comm  time (%) = 6.23995e-06 (0.0674834)
Outpt time (%) = 0.000173219 (1.87332)
Other time (%) = 0.00906455 (98.0307)

Nlocal:    33.275 ave 555 max 0 min
Histogram: 36 0 2 0 0 0 0 0 0 2
Nghost:    13.575 ave 173 max 0 min
Histogram: 36 0 0 0 0 1 1 0 0 2
Neighs:    10.175 ave 168 max 0 min
Histogram: 36 0 2 0 0 0 0 0 0 2

Total # of neighbors = 407
Ave neighs/atom = 0.305785
Neighbor list builds = 0
Dangerous builds = 0
Setting up run at Sat Dec 24 06:00:10 2022

Memory usage per processor = 960.195 Mbytes
    Step    Atoms         KinEng            CPU 
       2     1331  2.5455856e-07              0 
  205763     1331  6.9273694e-05      2082.9285 
Loop time of 2082.93 on 40 procs for 205761 steps with 1331 atoms, finish time Sat Dec 24 06:34:53 2022


Pair  time (%) = 0.528087 (0.0253531)
Neigh time (%) = 0.418695 (0.0201013)
Comm  time (%) = 1.17058 (0.0561987)
Outpt time (%) = 0.000260094 (1.24869e-05)
Other time (%) = 2080.81 (99.8983)

Nlocal:    33.275 ave 551 max 0 min
Histogram: 36 0 2 0 0 0 0 0 0 2
Nghost:    13.8 ave 171 max 0 min
Histogram: 36 0 0 0 0 1 1 0 0 2
Neighs:    11.175 ave 191 max 0 min
Histogram: 36 1 1 0 0 0 0 0 1 1

Total # of neighbors = 447
Ave neighs/atom = 0.335838
Neighbor list builds = 550
Dangerous builds = 0
Setting up run at Sat Dec 24 06:34:53 2022

Memory usage per processor = 960.195 Mbytes
    Step    Atoms         KinEng            CPU 
  205763     1331  6.9273694e-05              0 
  411524     1331  0.00040217614      2079.8021 
Loop time of 2079.87 on 40 procs for 205761 steps with 1331 atoms, finish time Sat Dec 24 07:09:33 2022


Pair  time (%) = 0.528477 (0.0254091)
Neigh time (%) = 0.419006 (0.0201457)
Comm  time (%) = 1.22637 (0.0589637)
Outpt time (%) = 0.000612248 (2.94368e-05)
Other time (%) = 2077.7 (99.8955)

Nlocal:    33.275 ave 538 max 0 min
Histogram: 36 0 2 0 0 0 0 0 0 2
Nghost:    13.625 ave 169 max 0 min
Histogram: 36 0 0 0 0 1 1 0 0 2
Neighs:    11.725 ave 197 max 0 min
Histogram: 36 1 1 0 0 0 0 0 0 2

Total # of neighbors = 469
Ave neighs/atom = 0.352367
Neighbor list builds = 550
Dangerous builds = 0
Setting up run at Sat Dec 24 07:09:33 2022

Memory usage per processor = 960.195 Mbytes
    Step    Atoms         KinEng            CPU 
  411524     1331  0.00040217614              0 
  617285     1331  0.00067128357      2076.5793 
Loop time of 2076.58 on 40 procs for 205761 steps with 1331 atoms, finish time Sat Dec 24 07:44:09 2022


Pair  time (%) = 0.533058 (0.02567)
Neigh time (%) = 0.420196 (0.020235)
Comm  time (%) = 1.24747 (0.0600734)
Outpt time (%) = 0.000598305 (2.88121e-05)
Other time (%) = 2074.38 (99.894)

Nlocal:    33.275 ave 522 max 0 min
Histogram: 36 0 2 0 0 0 0 0 0 2
Nghost:    13.05 ave 158 max 0 min
Histogram: 36 0 0 0 0 0 1 1 0 2
Neighs:    11.9 ave 190 max 0 min
Histogram: 36 0 2 0 0 0 0 0 0 2

Total # of neighbors = 476
Ave neighs/atom = 0.357626
Neighbor list builds = 550
Dangerous builds = 0
Setting up run at Sat Dec 24 07:44:09 2022

Memory usage per processor = 960.195 Mbytes
    Step    Atoms         KinEng            CPU 
  617285     1331  0.00067128357              0 
  823046     1331    0.026573725      2095.3987 
Loop time of 2095.41 on 40 procs for 205761 steps with 1331 atoms, finish time Sat Dec 24 08:19:05 2022


Pair  time (%) = 0.536009 (0.0255801)
Neigh time (%) = 1.90745 (0.0910298)
Comm  time (%) = 2.46959 (0.117857)
Outpt time (%) = 0.000322415 (1.53867e-05)
Other time (%) = 2090.5 (99.7655)

Nlocal:    33.275 ave 512 max 0 min
Histogram: 36 0 1 1 0 0 0 0 0 2
Nghost:    12.925 ave 161 max 0 min
Histogram: 36 0 0 0 0 1 1 0 0 2
Neighs:    12.575 ave 203 max 0 min
Histogram: 36 0 2 0 0 0 0 0 0 2

Total # of neighbors = 503
Ave neighs/atom = 0.377911
Neighbor list builds = 2360
Dangerous builds = 0
Setting up run at Sat Dec 24 08:19:05 2022

Memory usage per processor = 960.195 Mbytes
    Step    Atoms         KinEng            CPU 
  823046     1331    0.026573725              0 
 1028807     1331    0.026162138      2103.7585 
Loop time of 2103.76 on 40 procs for 205761 steps with 1331 atoms, finish time Sat Dec 24 08:54:09 2022


Pair  time (%) = 0.54303 (0.0258124)
Neigh time (%) = 2.83722 (0.134864)
Comm  time (%) = 3.04088 (0.144545)
Outpt time (%) = 0.000676234 (3.21441e-05)
Other time (%) = 2097.34 (99.6947)

Nlocal:    33.275 ave 498 max 0 min
Histogram: 36 0 1 1 0 0 0 0 0 2
Nghost:    12.275 ave 159 max 0 min
Histogram: 36 0 0 0 0 1 1 0 0 2
Neighs:    12.65 ave 194 max 0 min
Histogram: 36 0 1 1 0 0 0 0 0 2

Total # of neighbors = 506
Ave neighs/atom = 0.380165
Neighbor list builds = 3487
Dangerous builds = 0
Setting up run at Sat Dec 24 08:54:09 2022

Memory usage per processor = 960.195 Mbytes
    Step    Atoms         KinEng            CPU 
 1028807     1331    0.026162138              0 
 1234568     1330    0.020340665      2102.1945 
Loop time of 2102.2 on 40 procs for 205761 steps with 1330 atoms, finish time Sat Dec 24 09:29:11 2022


Pair  time (%) = 0.541733 (0.0257698)
Neigh time (%) = 2.85733 (0.135921)
Comm  time (%) = 2.85359 (0.135743)
Outpt time (%) = 0.000367377 (1.74758e-05)
Other time (%) = 2095.95 (99.7025)

Nlocal:    33.25 ave 496 max 0 min
Histogram: 36 0 1 1 0 0 0 0 0 2
Nghost:    11.675 ave 155 max 0 min
Histogram: 36 0 0 0 0 2 0 0 1 1
Neighs:    11.9 ave 183 max 0 min
Histogram: 36 0 1 1 0 0 0 0 0 2

Total # of neighbors = 476
Ave neighs/atom = 0.357895
Neighbor list builds = 3501
Dangerous builds = 160
Setting up run at Sat Dec 24 09:29:11 2022

Memory usage per processor = 960.195 Mbytes
    Step    Atoms         KinEng            CPU 
 1234568     1330    0.020340665              0 
 1440329     1328    0.020465004      2095.7115 
Loop time of 2095.71 on 40 procs for 205761 steps with 1328 atoms, finish time Sat Dec 24 10:04:07 2022


Pair  time (%) = 0.542439 (0.0258833)
Neigh time (%) = 2.91668 (0.139174)
Comm  time (%) = 3.13836 (0.149752)
Outpt time (%) = 0.000533777 (2.547e-05)
Other time (%) = 2089.11 (99.6852)

Nlocal:    33.2 ave 490 max 0 min
Histogram: 36 0 1 1 0 0 0 0 0 2
Nghost:    11.05 ave 140 max 0 min
Histogram: 36 0 0 0 0 1 1 0 0 2
Neighs:    11.925 ave 180 max 0 min
Histogram: 36 0 0 1 1 0 0 0 0 2

Total # of neighbors = 477
Ave neighs/atom = 0.359187
Neighbor list builds = 3568
Dangerous builds = 169
Setting up run at Sat Dec 24 10:04:07 2022

Memory usage per processor = 960.195 Mbytes
    Step    Atoms         KinEng            CPU 
 1440329     1328    0.020465004              0 
 1646090     1328     0.01061023      2094.5394 
Loop time of 2094.55 on 40 procs for 205761 steps with 1328 atoms, finish time Sat Dec 24 10:39:01 2022


Pair  time (%) = 0.534109 (0.0254999)
Neigh time (%) = 2.04466 (0.0976182)
Comm  time (%) = 2.31319 (0.110438)
Outpt time (%) = 0.0240113 (0.00114637)
Other time (%) = 2089.63 (99.7653)

Nlocal:    33.2 ave 487 max 0 min
Histogram: 36 0 1 1 0 0 0 0 0 2
Nghost:    10.625 ave 135 max 0 min
Histogram: 36 0 0 0 0 2 0 0 0 2
Neighs:    11.7 ave 178 max 0 min
Histogram: 36 0 0 2 0 0 0 0 0 2

Total # of neighbors = 468
Ave neighs/atom = 0.35241
Neighbor list builds = 2495
Dangerous builds = 0
Setting up run at Sat Dec 24 10:39:01 2022

Memory usage per processor = 960.195 Mbytes
    Step    Atoms         KinEng            CPU 
 1646090     1328     0.01061023              0 
 1851851     1327   0.0074317177      2082.2982 
Loop time of 2082.3 on 40 procs for 205761 steps with 1327 atoms, finish time Sat Dec 24 11:13:44 2022


Pair  time (%) = 0.526846 (0.0253012)
Neigh time (%) = 1.38547 (0.0665357)
Comm  time (%) = 1.91096 (0.0917718)
Outpt time (%) = 0.000573685 (2.75506e-05)
Other time (%) = 2078.47 (99.8164)

Nlocal:    33.175 ave 485 max 0 min
Histogram: 36 0 1 1 0 0 0 0 0 2
Nghost:    10.35 ave 139 max 0 min
Histogram: 36 0 0 0 0 2 0 0 1 1
Neighs:    11.625 ave 177 max 0 min
Histogram: 36 0 0 2 0 0 0 0 0 2

Total # of neighbors = 465
Ave neighs/atom = 0.350414
Neighbor list builds = 1700
Dangerous builds = 9
Setting up run at Sat Dec 24 11:13:44 2022

Memory usage per processor = 960.195 Mbytes
    Step    Atoms         KinEng            CPU 
 1851851     1327   0.0074317177              0 
 2057612     1325   0.0070287533      2089.2471 
Loop time of 2089.25 on 40 procs for 205761 steps with 1325 atoms, finish time Sat Dec 24 11:48:33 2022


Pair  time (%) = 0.516117 (0.0247035)
Neigh time (%) = 1.14713 (0.0549062)
Comm  time (%) = 1.99369 (0.0954262)
Outpt time (%) = 0.000305602 (1.46274e-05)
Other time (%) = 2085.59 (99.8249)

Nlocal:    33.125 ave 480 max 0 min
Histogram: 36 0 1 1 0 0 0 0 0 2
Nghost:    10.275 ave 135 max 0 min
Histogram: 36 0 0 0 0 1 1 0 1 1
Neighs:    11.25 ave 175 max 0 min
Histogram: 36 0 0 2 0 0 0 0 0 2

Total # of neighbors = 450
Ave neighs/atom = 0.339623
Neighbor list builds = 1415
Dangerous builds = 15
Setting up run at Sat Dec 24 11:48:33 2022

Memory usage per processor = 960.195 Mbytes
    Step    Atoms         KinEng            CPU 
 2057612     1325   0.0070287533              0 
 2263373     1324    0.010407212      2096.9679 
Loop time of 2096.97 on 40 procs for 205761 steps with 1324 atoms, finish time Sat Dec 24 12:23:30 2022


Pair  time (%) = 0.518741 (0.0247377)
Neigh time (%) = 2.20254 (0.105034)
Comm  time (%) = 3.45093 (0.164568)
Outpt time (%) = 0.000631325 (3.01066e-05)
Other time (%) = 2090.8 (99.7056)

Nlocal:    33.1 ave 477 max 0 min
Histogram: 36 0 1 1 0 0 0 0 0 2
Nghost:    10.15 ave 125 max 0 min
Histogram: 36 0 0 0 0 1 1 0 0 2
Neighs:    10.725 ave 170 max 0 min
Histogram: 36 0 1 1 0 0 0 0 0 2

Total # of neighbors = 429
Ave neighs/atom = 0.324018
Neighbor list builds = 2688
Dangerous builds = 72
Setting up run at Sat Dec 24 12:23:30 2022

Memory usage per processor = 960.195 Mbytes
    Step    Atoms         KinEng            CPU 
 2263373     1324    0.010407212              0 
 2469134     1319   0.0065280356      2121.4656 
Loop time of 2121.47 on 40 procs for 205761 steps with 1319 atoms, finish time Sat Dec 24 12:58:52 2022


Pair  time (%) = 0.524761 (0.0247358)
Neigh time (%) = 5.71382 (0.269334)
Comm  time (%) = 8.69546 (0.40988)
Outpt time (%) = 0.000298954 (1.40918e-05)
Other time (%) = 2106.53 (99.296)

Nlocal:    32.975 ave 481 max 0 min
Histogram: 36 0 1 1 0 0 0 0 0 2
Nghost:    9.575 ave 125 max 0 min
Histogram: 36 0 0 0 0 1 1 1 0 1
Neighs:    10.8 ave 176 max 0 min
Histogram: 36 1 1 0 0 0 0 0 0 2

Total # of neighbors = 432
Ave neighs/atom = 0.327521
Neighbor list builds = 6953
Dangerous builds = 560
Setting up run at Sat Dec 24 12:58:52 2022

Memory usage per processor = 960.195 Mbytes
    Step    Atoms         KinEng            CPU 
 2469134     1319   0.0065280356              0 
 2674895     1314   0.0056512842      2122.9681 
Loop time of 2122.97 on 40 procs for 205761 steps with 1314 atoms, finish time Sat Dec 24 13:34:15 2022


Pair  time (%) = 0.52579 (0.0247668)
Neigh time (%) = 5.12677 (0.241491)
Comm  time (%) = 7.90328 (0.372275)
Outpt time (%) = 0.000612012 (2.88281e-05)
Other time (%) = 2109.41 (99.3614)

Nlocal:    32.85 ave 481 max 0 min
Histogram: 36 0 1 1 0 0 0 0 0 2
Nghost:    9.475 ave 115 max 0 min
Histogram: 36 0 0 0 0 0 2 0 1 1
Neighs:    10.65 ave 178 max 0 min
Histogram: 36 1 1 0 0 0 0 0 1 1

Total # of neighbors = 426
Ave neighs/atom = 0.324201
Neighbor list builds = 6230
Dangerous builds = 438
Setting up run at Sat Dec 24 13:34:15 2022

Memory usage per processor = 960.195 Mbytes
    Step    Atoms         KinEng            CPU 
 2674895     1314   0.0056512842              0 
 2880656     1312      1.1093407       2129.281 
Loop time of 2129.28 on 40 procs for 205761 steps with 1312 atoms, finish time Sat Dec 24 14:09:44 2022


Pair  time (%) = 0.520553 (0.0244473)
Neigh time (%) = 5.80238 (0.272504)
Comm  time (%) = 9.33384 (0.438356)
Outpt time (%) = 0.000198306 (9.31328e-06)
Other time (%) = 2113.62 (99.2647)

Nlocal:    32.8 ave 481 max 0 min
Histogram: 36 0 2 0 0 0 0 0 0 2
Nghost:    9.575 ave 117 max 0 min
Histogram: 36 0 0 0 0 0 2 0 1 1
Neighs:    10.175 ave 169 max 0 min
Histogram: 36 1 1 0 0 0 0 0 0 2

Total # of neighbors = 407
Ave neighs/atom = 0.310213
Neighbor list builds = 7044
Dangerous builds = 391
Setting up run at Sat Dec 24 14:09:44 2022

Memory usage per processor = 960.195 Mbytes
    Step    Atoms         KinEng            CPU 
 2880656     1312      1.1093407              0 
 3086417     1309    0.031580102      2101.3813 
Loop time of 2101.38 on 40 procs for 205761 steps with 1309 atoms, finish time Sat Dec 24 14:44:46 2022


Pair  time (%) = 0.517136 (0.0246093)
Neigh time (%) = 3.6226 (0.172391)
Comm  time (%) = 6.55485 (0.311931)
Outpt time (%) = 0.00056983 (2.71169e-05)
Other time (%) = 2090.69 (99.491)

Nlocal:    32.725 ave 483 max 0 min
Histogram: 36 0 2 0 0 0 0 0 0 2
Nghost:    9.375 ave 122 max 0 min
Histogram: 36 0 0 0 0 1 1 1 0 1
Neighs:    9.625 ave 166 max 0 min
Histogram: 36 1 1 0 0 0 0 0 0 2

Total # of neighbors = 385
Ave neighs/atom = 0.294118
Neighbor list builds = 4404
Dangerous builds = 513
Setting up run at Sat Dec 24 14:44:46 2022

Memory usage per processor = 960.195 Mbytes
    Step    Atoms         KinEng            CPU 
 3086417     1309    0.031580102              0 
 3292178     1305    0.026424384      2186.0795 
Loop time of 2186.08 on 40 procs for 205761 steps with 1305 atoms, finish time Sat Dec 24 15:21:12 2022


Pair  time (%) = 0.524265 (0.023982)
Neigh time (%) = 4.23224 (0.193599)
Comm  time (%) = 7.19644 (0.329194)
Outpt time (%) = 0.000583225 (2.6679e-05)
Other time (%) = 2174.13 (99.4532)

Nlocal:    32.625 ave 482 max 0 min
Histogram: 35 1 2 0 0 0 0 0 0 2
Nghost:    9.225 ave 118 max 0 min
Histogram: 36 0 0 0 0 0 2 1 0 1
Neighs:    9.8 ave 166 max 0 min
Histogram: 37 0 1 0 0 0 0 0 0 2

Total # of neighbors = 392
Ave neighs/atom = 0.300383
Neighbor list builds = 5146
Dangerous builds = 746
Setting up run at Sat Dec 24 15:21:12 2022

Memory usage per processor = 960.195 Mbytes
    Step    Atoms         KinEng            CPU 
 3292178     1305    0.026424384              0 
 3497939     1302    0.016492043      2324.9755 
Loop time of 2324.98 on 40 procs for 205761 steps with 1302 atoms, finish time Sat Dec 24 15:59:57 2022


Pair  time (%) = 0.500916 (0.021545)
Neigh time (%) = 1.89423 (0.081473)
Comm  time (%) = 4.43511 (0.190759)
Outpt time (%) = 0.000377851 (1.62518e-05)
Other time (%) = 2318.15 (99.7062)

Nlocal:    32.55 ave 474 max 0 min
Histogram: 36 0 2 0 0 0 0 0 0 2
Nghost:    8.975 ave 111 max 0 min
Histogram: 36 0 0 0 0 0 2 0 1 1
Neighs:    9.05 ave 162 max 0 min
Histogram: 37 1 0 0 0 0 0 0 0 2

Total # of neighbors = 362
Ave neighs/atom = 0.278034
Neighbor list builds = 2304
Dangerous builds = 96
Setting up run at Sat Dec 24 15:59:57 2022

Memory usage per processor = 960.195 Mbytes
    Step    Atoms         KinEng            CPU 
 3497939     1302    0.016492043              0 
 3703700     1300    0.079380882      2250.9858 
Loop time of 2250.99 on 40 procs for 205761 steps with 1300 atoms, finish time Sat Dec 24 16:37:28 2022


Pair  time (%) = 0.505667 (0.0224642)
Neigh time (%) = 3.92476 (0.174357)
Comm  time (%) = 6.46123 (0.28704)
Outpt time (%) = 0.000754301 (3.35098e-05)
Other time (%) = 2240.09 (99.5161)

Nlocal:    32.5 ave 484 max 0 min
Histogram: 35 1 2 0 0 0 0 0 0 2
Nghost:    8.2 ave 96 max 0 min
Histogram: 36 0 0 0 0 0 1 1 0 2
Neighs:    9.05 ave 167 max 0 min
Histogram: 36 2 0 0 0 0 0 0 1 1

Total # of neighbors = 362
Ave neighs/atom = 0.278462
Neighbor list builds = 4728
Dangerous builds = 19
Setting up run at Sat Dec 24 16:37:28 2022

Memory usage per processor = 960.195 Mbytes
    Step    Atoms         KinEng            CPU 
 3703700     1300    0.079380882              0 
 3909461     1297    0.028593707      2178.9031 
Loop time of 2178.91 on 40 procs for 205761 steps with 1297 atoms, finish time Sat Dec 24 17:13:47 2022


Pair  time (%) = 0.504097 (0.0231353)
Neigh time (%) = 2.61364 (0.119952)
Comm  time (%) = 5.12008 (0.234984)
Outpt time (%) = 0.0003376 (1.5494e-05)
Other time (%) = 2170.67 (99.6219)

Nlocal:    32.425 ave 483 max 0 min
Histogram: 36 0 2 0 0 0 0 0 0 2
Nghost:    7.975 ave 94 max 0 min
Histogram: 36 0 0 0 0 0 1 1 1 1
Neighs:    8.85 ave 158 max 0 min
Histogram: 36 2 0 0 0 0 0 0 0 2

Total # of neighbors = 354
Ave neighs/atom = 0.272938
Neighbor list builds = 3148
Dangerous builds = 75
Setting up run at Sat Dec 24 17:13:47 2022

Memory usage per processor = 960.195 Mbytes
    Step    Atoms         KinEng            CPU 
 3909461     1297    0.028593707              0 
 4115222     1293    0.031874953      2208.6309 
Loop time of 2208.63 on 40 procs for 205761 steps with 1293 atoms, finish time Sat Dec 24 17:50:36 2022


Pair  time (%) = 0.504528 (0.0228435)
Neigh time (%) = 5.56002 (0.251741)
Comm  time (%) = 11.3677 (0.514694)
Outpt time (%) = 0.000626465 (2.83644e-05)
Other time (%) = 2191.2 (99.2107)

Nlocal:    32.325 ave 478 max 0 min
Histogram: 36 0 2 0 0 0 0 0 0 2
Nghost:    7.725 ave 101 max 0 min
Histogram: 36 0 0 0 0 1 2 0 0 1
Neighs:    8.125 ave 140 max 0 min
Histogram: 36 2 0 0 0 0 0 0 0 2

Total # of neighbors = 325
Ave neighs/atom = 0.251353
Neighbor list builds = 6662
Dangerous builds = 65
Setting up run at Sat Dec 24 17:50:36 2022

Memory usage per processor = 960.195 Mbytes
    Step    Atoms         KinEng            CPU 
 4115222     1293    0.031874953              0 
 4320983     1287    0.015024845      2178.1369 
Loop time of 2178.15 on 40 procs for 205761 steps with 1287 atoms, finish time Sat Dec 24 18:26:54 2022


Pair  time (%) = 0.498332 (0.0228787)
Neigh time (%) = 2.87575 (0.132027)
Comm  time (%) = 5.44811 (0.250126)
Outpt time (%) = 0.000327942 (1.5056e-05)
Other time (%) = 2169.33 (99.595)

Nlocal:    32.175 ave 471 max 0 min
Histogram: 36 0 2 0 0 0 0 0 0 2
Nghost:    7.3 ave 92 max 0 min
Histogram: 36 0 0 0 0 1 1 1 0 1
Neighs:    7.875 ave 151 max 0 min
Histogram: 36 2 0 0 0 0 0 1 0 1

Total # of neighbors = 315
Ave neighs/atom = 0.244755
Neighbor list builds = 3468
Dangerous builds = 107
Setting up run at Sat Dec 24 18:26:54 2022

Memory usage per processor = 960.195 Mbytes
    Step    Atoms         KinEng            CPU 
 4320983     1287    0.015024845              0 
 4526744     1283   0.0090676588      2191.1349 
Loop time of 2191.14 on 40 procs for 205761 steps with 1283 atoms, finish time Sat Dec 24 19:03:25 2022


Pair  time (%) = 0.493335 (0.0225151)
Neigh time (%) = 2.20511 (0.100638)
Comm  time (%) = 5.79206 (0.26434)
Outpt time (%) = 0.000620977 (2.83404e-05)
Other time (%) = 2182.64 (99.6125)

Nlocal:    32.075 ave 461 max 0 min
Histogram: 36 0 2 0 0 0 0 0 0 2
Nghost:    7.55 ave 96 max 0 min
Histogram: 36 0 0 0 0 2 0 1 0 1
Neighs:    7.725 ave 152 max 0 min
Histogram: 36 2 0 0 0 0 0 1 0 1

Total # of neighbors = 309
Ave neighs/atom = 0.240842
Neighbor list builds = 2647
Dangerous builds = 0
Setting up run at Sat Dec 24 19:03:25 2022

Memory usage per processor = 960.195 Mbytes
    Step    Atoms         KinEng            CPU 
 4526744     1283   0.0090676588              0 
 4732505     1278    0.012240903       2147.942 
Loop time of 2147.94 on 40 procs for 205761 steps with 1278 atoms, finish time Sat Dec 24 19:39:13 2022


Pair  time (%) = 0.50094 (0.0233219)
Neigh time (%) = 5.30239 (0.246859)
Comm  time (%) = 10.81 (0.503271)
Outpt time (%) = 0.000593668 (2.76389e-05)
Other time (%) = 2131.33 (99.2265)

Nlocal:    31.95 ave 454 max 0 min
Histogram: 35 1 2 0 0 0 0 0 0 2
Nghost:    7.475 ave 90 max 0 min
Histogram: 36 0 0 0 0 2 0 0 1 1
Neighs:    7.1 ave 146 max 0 min
Histogram: 37 1 0 0 0 0 1 0 0 1

Total # of neighbors = 284
Ave neighs/atom = 0.222222
Neighbor list builds = 6386
Dangerous builds = 766
Setting up run at Sat Dec 24 19:39:13 2022

Memory usage per processor = 960.195 Mbytes
    Step    Atoms         KinEng            CPU 
 4732505     1278    0.012240903              0 
 4938266     1272    0.014617958      2171.3982 
Loop time of 2171.4 on 40 procs for 205761 steps with 1272 atoms, finish time Sat Dec 24 20:15:25 2022


Pair  time (%) = 0.50385 (0.0232039)
Neigh time (%) = 5.36912 (0.247266)
Comm  time (%) = 10.9298 (0.503352)
Outpt time (%) = 0.000338798 (1.56028e-05)
Other time (%) = 2154.6 (99.2262)

Nlocal:    31.8 ave 453 max 0 min
Histogram: 34 2 2 0 0 0 0 0 0 2
Nghost:    7.325 ave 86 max 0 min
Histogram: 36 0 0 0 0 1 1 0 0 2
Neighs:    7.6 ave 155 max 0 min
Histogram: 37 1 0 0 0 0 1 0 0 1

Total # of neighbors = 304
Ave neighs/atom = 0.238994
Neighbor list builds = 6402
Dangerous builds = 12
Setting up run at Sat Dec 24 20:15:25 2022

Memory usage per processor = 960.195 Mbytes
    Step    Atoms         KinEng            CPU 
 4938266     1272    0.014617958              0 
 5144027     1266    0.010038565      2283.7038 
Loop time of 2283.7 on 40 procs for 205761 steps with 1266 atoms, finish time Sat Dec 24 20:53:28 2022


Pair  time (%) = 0.50841 (0.0222625)
Neigh time (%) = 8.04817 (0.352417)
Comm  time (%) = 16.3327 (0.715184)
Outpt time (%) = 0.000573667 (2.512e-05)
Other time (%) = 2258.81 (98.9101)

Nlocal:    31.65 ave 447 max 0 min
Histogram: 35 1 2 0 0 0 0 0 0 2
Nghost:    7.05 ave 79 max 0 min
Histogram: 36 0 0 0 0 1 0 1 0 2
Neighs:    7.425 ave 148 max 0 min
Histogram: 37 1 0 0 0 0 0 1 0 1

Total # of neighbors = 297
Ave neighs/atom = 0.234597
Neighbor list builds = 9643
Dangerous builds = 793
Setting up run at Sat Dec 24 20:53:28 2022

Memory usage per processor = 960.195 Mbytes
    Step    Atoms         KinEng            CPU 
 5144027     1266    0.010038565              0 
 5349788     1261    0.010975543      2133.9105 
Loop time of 2133.91 on 40 procs for 205761 steps with 1261 atoms, finish time Sat Dec 24 21:29:02 2022


Pair  time (%) = 0.49625 (0.0232554)
Neigh time (%) = 5.39563 (0.252852)
Comm  time (%) = 11.4776 (0.537867)
Outpt time (%) = 0.000273025 (1.27946e-05)
Other time (%) = 2116.54 (99.186)

Nlocal:    31.525 ave 445 max 0 min
Histogram: 36 0 2 0 0 0 0 0 0 2
Nghost:    7.025 ave 81 max 0 min
Histogram: 36 0 0 0 0 0 2 0 0 2
Neighs:    7.075 ave 152 max 0 min
Histogram: 37 1 0 0 0 0 1 0 0 1

Total # of neighbors = 283
Ave neighs/atom = 0.224425
Neighbor list builds = 6484
Dangerous builds = 550
Setting up run at Sat Dec 24 21:29:44 2022

Memory usage per processor = 960.195 Mbytes
    Step    Atoms         KinEng            CPU 
 5349788     1261    0.010975543              0 
 5555549     1254    0.010312051      2139.7369 
Loop time of 2139.74 on 40 procs for 205761 steps with 1254 atoms, finish time Sat Dec 24 22:05:23 2022


Pair  time (%) = 0.495631 (0.0231632)
Neigh time (%) = 4.3837 (0.204871)
Comm  time (%) = 9.14016 (0.427163)
Outpt time (%) = 0.000690896 (3.22888e-05)
Other time (%) = 2125.72 (99.3448)

Nlocal:    31.35 ave 436 max 0 min
Histogram: 35 1 2 0 0 0 0 0 0 2
Nghost:    7.25 ave 82 max 0 min
Histogram: 36 0 0 0 0 1 1 0 0 2
Neighs:    6.85 ave 145 max 0 min
Histogram: 37 1 0 0 0 0 1 0 0 1

Total # of neighbors = 274
Ave neighs/atom = 0.218501
Neighbor list builds = 5256
Dangerous builds = 374
Setting up run at Sat Dec 24 22:05:24 2022

Memory usage per processor = 960.195 Mbytes
    Step    Atoms         KinEng            CPU 
 5555549     1254    0.010312051              0 
 5761310     1247    0.026817942       2183.399 
Loop time of 2183.4 on 40 procs for 205761 steps with 1247 atoms, finish time Sat Dec 24 22:41:47 2022


Pair  time (%) = 0.500809 (0.0229371)
Neigh time (%) = 4.91836 (0.225261)
Comm  time (%) = 10.0771 (0.461534)
Outpt time (%) = 0.000368432 (1.68742e-05)
Other time (%) = 2167.9 (99.2903)

Nlocal:    31.175 ave 429 max 0 min
Histogram: 35 1 2 0 0 0 0 0 0 2
Nghost:    7.225 ave 80 max 0 min
Histogram: 35 0 1 0 0 0 2 0 1 1
Neighs:    7.1 ave 140 max 0 min
Histogram: 36 2 0 0 0 0 1 0 0 1

Total # of neighbors = 284
Ave neighs/atom = 0.227747
Neighbor list builds = 5941
Dangerous builds = 1193
Setting up run at Sat Dec 24 22:41:47 2022

Memory usage per processor = 960.195 Mbytes
    Step    Atoms         KinEng            CPU 
 5761310     1247    0.026817942              0 
 5967071     1241    0.028102399       2132.653 
Loop time of 2132.66 on 40 procs for 205761 steps with 1241 atoms, finish time Sat Dec 24 23:17:20 2022


Pair  time (%) = 0.504403 (0.0236513)
Neigh time (%) = 6.15002 (0.288373)
Comm  time (%) = 12.6589 (0.593572)
Outpt time (%) = 0.0220273 (0.00103285)
Other time (%) = 2113.33 (99.0934)

Nlocal:    31.025 ave 425 max 0 min
Histogram: 34 2 2 0 0 0 0 0 0 2
Nghost:    7.575 ave 85 max 0 min
Histogram: 34 2 0 0 1 0 1 0 1 1
Neighs:    7.175 ave 129 max 0 min
Histogram: 35 3 0 0 0 0 0 1 0 1

Total # of neighbors = 287
Ave neighs/atom = 0.231265
Neighbor list builds = 7373
Dangerous builds = 609
Setting up run at Sat Dec 24 23:17:20 2022

Memory usage per processor = 960.195 Mbytes
    Step    Atoms         KinEng            CPU 
 5967071     1241    0.028102399              0 
 6172832     1233    0.029525593      2132.9515 
Loop time of 2132.96 on 40 procs for 205761 steps with 1233 atoms, finish time Sat Dec 24 23:52:53 2022


Pair  time (%) = 0.504795 (0.0236664)
Neigh time (%) = 5.5094 (0.258298)
Comm  time (%) = 9.52304 (0.44647)
Outpt time (%) = 0.000374466 (1.75562e-05)
Other time (%) = 2117.42 (99.2715)

Nlocal:    30.825 ave 421 max 0 min
Histogram: 34 2 2 0 0 0 0 0 0 2
Nghost:    7.65 ave 80 max 0 min
Histogram: 35 1 0 0 0 1 0 0 1 2
Neighs:    7.1 ave 137 max 0 min
Histogram: 36 2 0 0 0 0 1 0 0 1

Total # of neighbors = 284
Ave neighs/atom = 0.230333
Neighbor list builds = 6604
Dangerous builds = 483
Setting up run at Sat Dec 24 23:52:53 2022

Memory usage per processor = 960.195 Mbytes
    Step    Atoms         KinEng            CPU 
 6172832     1233    0.029525593              0 
 6378593     1225    0.041505669      2133.0977 
Loop time of 2133.1 on 40 procs for 205761 steps with 1225 atoms, finish time Sun Dec 25 00:28:26 2022


Pair  time (%) = 0.506606 (0.0237498)
Neigh time (%) = 6.37108 (0.298677)
Comm  time (%) = 12.8647 (0.603102)
Outpt time (%) = 0.000692884 (3.24825e-05)
Other time (%) = 2113.36 (99.0744)

Nlocal:    30.625 ave 411 max 0 min
Histogram: 34 2 2 0 0 0 0 0 0 2
Nghost:    7.375 ave 86 max 0 min
Histogram: 34 2 0 0 1 0 1 0 1 1
Neighs:    6.75 ave 117 max 0 min
Histogram: 36 1 1 0 0 0 0 0 1 1

Total # of neighbors = 270
Ave neighs/atom = 0.220408
Neighbor list builds = 7651
Dangerous builds = 570
Setting up run at Sun Dec 25 00:28:26 2022

Memory usage per processor = 960.195 Mbytes
    Step    Atoms         KinEng            CPU 
 6378593     1225    0.041505669              0 
 6584354     1224     0.53720646      2124.5416 
Loop time of 2124.55 on 40 procs for 205761 steps with 1224 atoms, finish time Sun Dec 25 01:03:51 2022


Pair  time (%) = 0.505822 (0.0238084)
Neigh time (%) = 5.18479 (0.244042)
Comm  time (%) = 11.01 (0.518229)
Outpt time (%) = 0.00467127 (0.000219871)
Other time (%) = 2107.85 (99.2137)

Nlocal:    30.6 ave 408 max 0 min
Histogram: 33 3 2 0 0 0 0 0 0 2
Nghost:    7.375 ave 80 max 0 min
Histogram: 34 1 1 0 1 0 1 0 0 2
Neighs:    6.65 ave 111 max 0 min
Histogram: 36 1 1 0 0 0 0 1 0 1

Total # of neighbors = 266
Ave neighs/atom = 0.21732
Neighbor list builds = 6207
Dangerous builds = 24
Setting up run at Sun Dec 25 01:03:51 2022

Memory usage per processor = 960.195 Mbytes
    Step    Atoms         KinEng            CPU 
 6584354     1224     0.53720646              0 
 6790115     1216    0.024112375      2139.9774 
Loop time of 2139.98 on 40 procs for 205761 steps with 1216 atoms, finish time Sun Dec 25 01:39:31 2022


Pair  time (%) = 0.504839 (0.0235909)
Neigh time (%) = 6.47457 (0.302553)
Comm  time (%) = 12.0414 (0.562686)
Outpt time (%) = 0.000340807 (1.59257e-05)
Other time (%) = 2120.96 (99.1112)

Nlocal:    30.4 ave 407 max 0 min
Histogram: 33 4 1 0 0 0 0 0 0 2
Nghost:    7.4 ave 81 max 0 min
Histogram: 35 0 1 0 0 1 1 0 0 2
Neighs:    6.65 ave 92 max 0 min
Histogram: 35 1 1 1 0 0 0 0 0 2

Total # of neighbors = 266
Ave neighs/atom = 0.21875
Neighbor list builds = 7829
Dangerous builds = 1723
Setting up run at Sun Dec 25 01:39:31 2022

Memory usage per processor = 960.195 Mbytes
    Step    Atoms         KinEng            CPU 
 6790115     1216    0.024112375              0 
 6995876     1211    0.015025137      2134.9856 
Loop time of 2134.99 on 40 procs for 205761 steps with 1211 atoms, finish time Sun Dec 25 02:15:06 2022


Pair  time (%) = 0.507948 (0.0237916)
Neigh time (%) = 7.28737 (0.341331)
Comm  time (%) = 17.1041 (0.801135)
Outpt time (%) = 0.000626413 (2.93404e-05)
Other time (%) = 2110.09 (98.8337)

Nlocal:    30.275 ave 402 max 0 min
Histogram: 34 2 2 0 0 0 0 0 0 2
Nghost:    7.375 ave 82 max 0 min
Histogram: 34 1 1 0 1 1 0 0 0 2
Neighs:    5.525 ave 87 max 0 min
Histogram: 35 2 0 1 0 0 0 0 1 1

Total # of neighbors = 221
Ave neighs/atom = 0.182494
Neighbor list builds = 8883
Dangerous builds = 2908
Setting up run at Sun Dec 25 02:15:06 2022

Memory usage per processor = 960.195 Mbytes
    Step    Atoms         KinEng            CPU 
 6995876     1211    0.015025137              0 
 7201637     1205    0.017967918       2137.739 
Loop time of 2137.74 on 40 procs for 205761 steps with 1205 atoms, finish time Sun Dec 25 02:50:44 2022


Pair  time (%) = 0.500189 (0.023398)
Neigh time (%) = 7.66592 (0.358599)
Comm  time (%) = 15.0062 (0.701967)
Outpt time (%) = 0.000350151 (1.63795e-05)
Other time (%) = 2114.57 (98.916)

Nlocal:    30.125 ave 389 max 0 min
Histogram: 35 1 1 1 0 0 0 0 0 2
Nghost:    7.5 ave 94 max 0 min
Histogram: 35 1 0 1 0 1 0 0 1 1
Neighs:    5.025 ave 72 max 0 min
Histogram: 35 1 1 1 0 0 0 0 0 2

Total # of neighbors = 201
Ave neighs/atom = 0.166805
Neighbor list builds = 9177
Dangerous builds = 472
Setting up run at Sun Dec 25 02:50:44 2022

Memory usage per processor = 960.195 Mbytes
    Step    Atoms         KinEng            CPU 
 7201637     1205    0.017967918              0 
 7407398     1200    0.011629796      2117.1543 
Loop time of 2117.15 on 40 procs for 205761 steps with 1200 atoms, finish time Sun Dec 25 03:26:01 2022


Pair  time (%) = 0.49416 (0.0233408)
Neigh time (%) = 4.81413 (0.227387)
Comm  time (%) = 10.5805 (0.49975)
Outpt time (%) = 0.000562733 (2.65797e-05)
Other time (%) = 2101.26 (99.2495)

Nlocal:    30 ave 384 max 0 min
Histogram: 34 2 2 0 0 0 0 0 0 2
Nghost:    7.625 ave 85 max 0 min
Histogram: 33 3 0 1 0 1 0 0 0 2
Neighs:    4.95 ave 71 max 0 min
Histogram: 35 2 1 0 0 0 0 0 0 2

Total # of neighbors = 198
Ave neighs/atom = 0.165
Neighbor list builds = 5751
Dangerous builds = 1
Setting up run at Sun Dec 25 03:26:01 2022

Memory usage per processor = 960.195 Mbytes
    Step    Atoms         KinEng            CPU 
 7407398     1200    0.011629796              0 
 7613159     1194     0.10461786      2132.7191 
Loop time of 2132.72 on 40 procs for 205761 steps with 1194 atoms, finish time Sun Dec 25 04:01:34 2022


Pair  time (%) = 0.48579 (0.0227779)
Neigh time (%) = 7.55462 (0.354225)
Comm  time (%) = 19.0866 (0.894944)
Outpt time (%) = 0.00031426 (1.47352e-05)
Other time (%) = 2105.59 (98.728)

Nlocal:    29.85 ave 383 max 0 min
Histogram: 32 4 2 0 0 0 0 0 0 2
Nghost:    8.05 ave 95 max 0 min
Histogram: 34 1 1 1 1 0 0 0 0 2
Neighs:    4.375 ave 54 max 0 min
Histogram: 34 2 0 0 2 0 0 0 0 2

Total # of neighbors = 175
Ave neighs/atom = 0.146566
Neighbor list builds = 9059
Dangerous builds = 710
Setting up run at Sun Dec 25 04:01:34 2022

Memory usage per processor = 960.195 Mbytes
    Step    Atoms         KinEng            CPU 
 7613159     1194     0.10461786              0 
 7818920     1190    0.077366295      2128.1611 
Loop time of 2128.16 on 40 procs for 205761 steps with 1190 atoms, finish time Sun Dec 25 04:37:02 2022


Pair  time (%) = 0.487808 (0.0229216)
Neigh time (%) = 6.0446 (0.284029)
Comm  time (%) = 14.7996 (0.695415)
Outpt time (%) = 0.000609771 (2.86525e-05)
Other time (%) = 2106.83 (98.9976)

Nlocal:    29.75 ave 374 max 0 min
Histogram: 34 1 3 0 0 0 0 0 0 2
Nghost:    8.25 ave 106 max 0 min
Histogram: 34 1 2 0 1 0 0 1 0 1
Neighs:    4.3 ave 62 max 0 min
Histogram: 34 1 3 0 0 0 0 0 1 1

Total # of neighbors = 172
Ave neighs/atom = 0.144538
Neighbor list builds = 7270
Dangerous builds = 582
Setting up run at Sun Dec 25 04:37:02 2022

Memory usage per processor = 960.195 Mbytes
    Step    Atoms         KinEng            CPU 
 7818920     1190    0.077366295              0 
 8024681     1189    0.048404492      2124.7806 
Loop time of 2124.78 on 40 procs for 205761 steps with 1189 atoms, finish time Sun Dec 25 05:12:27 2022


Pair  time (%) = 0.48462 (0.022808)
Neigh time (%) = 5.55932 (0.261642)
Comm  time (%) = 13.8878 (0.653611)
Outpt time (%) = 0.000356387 (1.67729e-05)
Other time (%) = 2104.85 (99.0619)

Nlocal:    29.725 ave 372 max 0 min
Histogram: 32 4 1 1 0 0 0 0 0 2
Nghost:    7.775 ave 99 max 0 min
Histogram: 34 2 0 1 1 0 0 0 0 2
Neighs:    4.25 ave 55 max 0 min
Histogram: 35 1 1 0 0 0 1 0 1 1

Total # of neighbors = 170
Ave neighs/atom = 0.142977
Neighbor list builds = 6656
Dangerous builds = 0
Setting up run at Sun Dec 25 05:12:27 2022

Memory usage per processor = 960.195 Mbytes
    Step    Atoms         KinEng            CPU 
 8024681     1189    0.048404492              0 
 8230442     1186    0.038933788      2124.0974 
Loop time of 2124.1 on 40 procs for 205761 steps with 1186 atoms, finish time Sun Dec 25 05:47:51 2022


Pair  time (%) = 0.481053 (0.0226474)
Neigh time (%) = 5.60903 (0.264067)
Comm  time (%) = 12.8757 (0.606174)
Outpt time (%) = 0.000559048 (2.63193e-05)
Other time (%) = 2105.13 (99.1071)

Nlocal:    29.65 ave 369 max 0 min
Histogram: 32 3 3 0 0 0 0 0 0 2
Nghost:    8.325 ave 106 max 0 min
Histogram: 34 2 0 2 0 0 1 0 0 1
Neighs:    4.35 ave 48 max 0 min
Histogram: 34 0 1 1 1 1 0 0 0 2

Total # of neighbors = 174
Ave neighs/atom = 0.146712
Neighbor list builds = 6734
Dangerous builds = 341
Setting up run at Sun Dec 25 05:47:51 2022

Memory usage per processor = 960.195 Mbytes
    Step    Atoms         KinEng            CPU 
 8230442     1186    0.038933788              0 
 8436203     1180       0.027745      2108.0826 
Loop time of 2108.08 on 40 procs for 205761 steps with 1180 atoms, finish time Sun Dec 25 06:22:59 2022


Pair  time (%) = 0.484684 (0.0229917)
Neigh time (%) = 5.35725 (0.254129)
Comm  time (%) = 13.6636 (0.648151)
Outpt time (%) = 0.00032931 (1.56213e-05)
Other time (%) = 2088.58 (99.0747)

Nlocal:    29.5 ave 374 max 0 min
Histogram: 32 3 3 0 0 0 0 0 0 2
Nghost:    7.375 ave 96 max 0 min
Histogram: 34 1 1 2 0 0 0 1 0 1
Neighs:    4.25 ave 49 max 0 min
Histogram: 33 1 2 0 2 0 0 0 1 1

Total # of neighbors = 170
Ave neighs/atom = 0.144068
Neighbor list builds = 6446
Dangerous builds = 572
Setting up run at Sun Dec 25 06:22:59 2022

Memory usage per processor = 960.195 Mbytes
    Step    Atoms         KinEng            CPU 
 8436203     1180       0.027745              0 
 8641964     1173    0.028250917      2116.9786 
Loop time of 2116.98 on 40 procs for 205761 steps with 1173 atoms, finish time Sun Dec 25 06:58:16 2022


Pair  time (%) = 0.47902 (0.0226275)
Neigh time (%) = 6.61509 (0.312478)
Comm  time (%) = 15.8482 (0.748622)
Outpt time (%) = 0.000524273 (2.47652e-05)
Other time (%) = 2094.04 (98.9162)

Nlocal:    29.325 ave 372 max 0 min
Histogram: 32 3 3 0 0 0 0 0 0 2
Nghost:    7.75 ave 92 max 0 min
Histogram: 34 1 1 1 1 0 0 0 1 1
Neighs:    4.15 ave 49 max 0 min
Histogram: 34 1 0 1 1 1 0 1 0 1

Total # of neighbors = 166
Ave neighs/atom = 0.141517
Neighbor list builds = 7945
Dangerous builds = 245
Setting up run at Sun Dec 25 06:58:16 2022

Memory usage per processor = 960.195 Mbytes
    Step    Atoms         KinEng            CPU 
 8641964     1173    0.028250917              0 
 8847725     1169       0.029137      2114.1327 
Loop time of 2114.13 on 40 procs for 205761 steps with 1169 atoms, finish time Sun Dec 25 07:33:30 2022


Pair  time (%) = 0.486778 (0.0230249)
Neigh time (%) = 5.97899 (0.28281)
Comm  time (%) = 14.0485 (0.664504)
Outpt time (%) = 0.000783204 (3.70461e-05)
Other time (%) = 2093.62 (99.0296)

Nlocal:    29.225 ave 365 max 0 min
Histogram: 32 4 1 1 0 0 0 0 0 2
Nghost:    7.45 ave 97 max 0 min
Histogram: 33 3 0 2 0 0 1 0 0 1
Neighs:    4.375 ave 52 max 0 min
Histogram: 33 2 0 2 1 0 0 1 0 1

Total # of neighbors = 175
Ave neighs/atom = 0.149701
Neighbor list builds = 7123
Dangerous builds = 16
Setting up run at Sun Dec 25 07:33:30 2022

Memory usage per processor = 960.195 Mbytes
    Step    Atoms         KinEng            CPU 
 8847725     1169       0.029137              0 
 9053486     1161     0.16396141      2152.6041 
Loop time of 2152.6 on 40 procs for 205761 steps with 1161 atoms, finish time Sun Dec 25 08:09:23 2022


Pair  time (%) = 0.501874 (0.0233147)
Neigh time (%) = 10.569 (0.490988)
Comm  time (%) = 23.1997 (1.07775)
Outpt time (%) = 0.000342074 (1.58912e-05)
Other time (%) = 2118.33 (98.4079)

Nlocal:    29.025 ave 371 max 0 min
Histogram: 32 3 3 0 0 0 0 0 1 1
Nghost:    8.125 ave 94 max 0 min
Histogram: 33 1 2 1 1 0 0 1 0 1
Neighs:    3.9 ave 43 max 0 min
Histogram: 33 1 1 1 1 1 0 1 0 1

Total # of neighbors = 156
Ave neighs/atom = 0.134367
Neighbor list builds = 12707
Dangerous builds = 2193
Setting up run at Sun Dec 25 08:09:23 2022

Memory usage per processor = 960.195 Mbytes
    Step    Atoms         KinEng            CPU 
 9053486     1161     0.16396141              0 
 9259247     1157    0.043251152      2151.1525 
Loop time of 2151.15 on 40 procs for 205761 steps with 1157 atoms, finish time Sun Dec 25 08:45:14 2022


Pair  time (%) = 0.497468 (0.0231256)
Neigh time (%) = 9.16067 (0.42585)
Comm  time (%) = 20.823 (0.967992)
Outpt time (%) = 0.0203955 (0.00094812)
Other time (%) = 2120.65 (98.5821)

Nlocal:    28.925 ave 365 max 0 min
Histogram: 32 3 3 0 0 0 0 0 1 1
Nghost:    7.925 ave 77 max 0 min
Histogram: 33 1 1 0 2 1 0 0 0 2
Neighs:    4.2 ave 46 max 0 min
Histogram: 32 3 0 2 0 0 1 1 0 1

Total # of neighbors = 168
Ave neighs/atom = 0.145203
Neighbor list builds = 11171
Dangerous builds = 4542
Setting up run at Sun Dec 25 08:45:14 2022

Memory usage per processor = 960.195 Mbytes
    Step    Atoms         KinEng            CPU 
 9259247     1157    0.043251152              0 
 9465008     1153     0.10285174      2116.4864 
Loop time of 2116.49 on 40 procs for 205761 steps with 1153 atoms, finish time Sun Dec 25 09:20:31 2022


Pair  time (%) = 0.489252 (0.0231162)
Neigh time (%) = 5.93754 (0.280538)
Comm  time (%) = 16.4017 (0.774951)
Outpt time (%) = 0.000291408 (1.37685e-05)
Other time (%) = 2093.66 (98.9214)

Nlocal:    28.825 ave 361 max 0 min
Histogram: 32 4 1 1 0 0 0 0 1 1
Nghost:    7.45 ave 82 max 0 min
Histogram: 34 0 1 0 3 0 0 1 0 1
Neighs:    4.3 ave 51 max 0 min
Histogram: 33 1 1 2 0 1 1 0 0 1

Total # of neighbors = 172
Ave neighs/atom = 0.149176
Neighbor list builds = 7097
Dangerous builds = 2
Setting up run at Sun Dec 25 09:20:31 2022

Memory usage per processor = 960.195 Mbytes
    Step    Atoms         KinEng            CPU 
 9465008     1153     0.10285174              0 
 9670769     1147    0.051856264      2137.2733 
Loop time of 2137.27 on 40 procs for 205761 steps with 1147 atoms, finish time Sun Dec 25 09:56:08 2022


Pair  time (%) = 0.49693 (0.0232506)
Neigh time (%) = 7.97753 (0.373257)
Comm  time (%) = 18.7012 (0.875002)
Outpt time (%) = 0.000587463 (2.74866e-05)
Other time (%) = 2110.1 (98.7285)

Nlocal:    28.675 ave 352 max 0 min
Histogram: 32 4 2 0 0 0 0 0 1 1
Nghost:    7.575 ave 85 max 0 min
Histogram: 33 1 2 2 0 0 0 0 0 2
Neighs:    4.25 ave 47 max 0 min
Histogram: 32 1 2 1 1 1 1 0 0 1

Total # of neighbors = 170
Ave neighs/atom = 0.148213
Neighbor list builds = 9498
Dangerous builds = 8
Setting up run at Sun Dec 25 09:56:08 2022

Memory usage per processor = 960.195 Mbytes
    Step    Atoms         KinEng            CPU 
 9670769     1147    0.051856264              0 
 9876530     1139    0.083401674      2149.0402 
Loop time of 2149.05 on 40 procs for 205761 steps with 1139 atoms, finish time Sun Dec 25 10:31:58 2022


Pair  time (%) = 0.494138 (0.0229933)
Neigh time (%) = 10.3992 (0.483896)
Comm  time (%) = 23.0292 (1.0716)
Outpt time (%) = 0.0127108 (0.00059146)
Other time (%) = 2115.12 (98.4209)

Nlocal:    28.475 ave 351 max 0 min
Histogram: 33 3 1 1 0 0 0 0 1 1
Nghost:    7.65 ave 85 max 0 min
Histogram: 33 2 1 1 1 0 0 0 0 2
Neighs:    4.275 ave 51 max 0 min
Histogram: 33 1 0 2 3 0 0 0 0 1

Total # of neighbors = 171
Ave neighs/atom = 0.150132
Neighbor list builds = 12385
Dangerous builds = 87
Setting up run at Sun Dec 25 10:31:58 2022

Memory usage per processor = 960.195 Mbytes
    Step    Atoms         KinEng            CPU 
 9876530     1139    0.083401674              0 
10082291     1131    0.059507159      2161.3102 
Loop time of 2161.31 on 40 procs for 205761 steps with 1131 atoms, finish time Sun Dec 25 11:07:59 2022


Pair  time (%) = 0.488904 (0.0226207)
Neigh time (%) = 11.0805 (0.512675)
Comm  time (%) = 26.0124 (1.20355)
Outpt time (%) = 0.000540151 (2.49918e-05)
Other time (%) = 2123.73 (98.2611)

Nlocal:    28.275 ave 345 max 0 min
Histogram: 33 1 4 0 0 0 0 0 1 1
Nghost:    7.275 ave 92 max 0 min
Histogram: 34 1 1 2 0 0 0 1 0 1
Neighs:    4.275 ave 46 max 0 min
Histogram: 34 0 0 1 1 2 1 0 0 1

Total # of neighbors = 171
Ave neighs/atom = 0.151194
Neighbor list builds = 13223
Dangerous builds = 176
Setting up run at Sun Dec 25 11:07:59 2022

Memory usage per processor = 960.195 Mbytes
    Step    Atoms         KinEng            CPU 
10082291     1131    0.059507159              0 
10288052     1120    0.044518542      2154.3525 
Loop time of 2154.35 on 40 procs for 205761 steps with 1120 atoms, finish time Sun Dec 25 11:43:53 2022


Pair  time (%) = 0.481848 (0.0223663)
Neigh time (%) = 9.13968 (0.424243)
Comm  time (%) = 25.3112 (1.17489)
Outpt time (%) = 0.000264321 (1.22692e-05)
Other time (%) = 2119.42 (98.3785)

Nlocal:    28 ave 350 max 0 min
Histogram: 32 4 2 0 0 0 0 0 1 1
Nghost:    7.05 ave 83 max 0 min
Histogram: 33 2 1 2 0 0 0 0 1 1
Neighs:    4.075 ave 53 max 0 min
Histogram: 32 2 2 1 1 1 0 0 0 1

Total # of neighbors = 163
Ave neighs/atom = 0.145536
Neighbor list builds = 10914
Dangerous builds = 550
Setting up run at Sun Dec 25 11:43:53 2022

Memory usage per processor = 960.195 Mbytes
    Step    Atoms         KinEng            CPU 
10288052     1120    0.044518542              0 
10493813     1110      0.1900134      2186.0954 
Loop time of 2186.1 on 40 procs for 205761 steps with 1110 atoms, finish time Sun Dec 25 12:20:20 2022


Pair  time (%) = 0.477395 (0.0218378)
Neigh time (%) = 12.1991 (0.558033)
Comm  time (%) = 31.8024 (1.45476)
Outpt time (%) = 0.000623646 (2.85279e-05)
Other time (%) = 2141.62 (97.9653)

Nlocal:    27.75 ave 345 max 0 min
Histogram: 32 4 1 1 0 0 0 0 1 1
Nghost:    7.65 ave 88 max 0 min
Histogram: 32 4 1 1 0 0 0 0 0 2
Neighs:    3.225 ave 35 max 0 min
Histogram: 33 1 1 1 1 0 0 2 0 1

Total # of neighbors = 129
Ave neighs/atom = 0.116216
Neighbor list builds = 14619
Dangerous builds = 573
Setting up run at Sun Dec 25 12:20:20 2022

Memory usage per processor = 960.195 Mbytes
    Step    Atoms         KinEng            CPU 
10493813     1110      0.1900134              0 
10699574     1102     0.10276869       2786.195 
Loop time of 2786.2 on 40 procs for 205761 steps with 1102 atoms, finish time Sun Dec 25 13:06:46 2022


Pair  time (%) = 0.599907 (0.0215314)
Neigh time (%) = 78.1826 (2.80607)
Comm  time (%) = 208.039 (7.46677)
Outpt time (%) = 0.000578185 (2.07518e-05)
Other time (%) = 2499.37 (89.7056)

Nlocal:    27.55 ave 340 max 0 min
Histogram: 32 3 3 0 0 0 0 1 0 1
Nghost:    6.85 ave 81 max 0 min
Histogram: 33 3 1 1 0 0 0 0 0 2
Neighs:    2.325 ave 32 max 0 min
Histogram: 34 2 1 0 0 0 2 0 0 1

Total # of neighbors = 93
Ave neighs/atom = 0.084392
Neighbor list builds = 97361
Dangerous builds = 91940
Setting up run at Sun Dec 25 13:06:46 2022

Memory usage per processor = 960.195 Mbytes
    Step    Atoms         KinEng            CPU 
10699574     1102     0.10276869              0 
10905335     1095     0.07151688      2111.9531 
Loop time of 2111.95 on 40 procs for 205761 steps with 1095 atoms, finish time Sun Dec 25 13:41:58 2022


Pair  time (%) = 0.47134 (0.0223177)
Neigh time (%) = 5.23266 (0.247764)
Comm  time (%) = 13.5974 (0.64383)
Outpt time (%) = 0.000299861 (1.41983e-05)
Other time (%) = 2092.65 (99.0861)

Nlocal:    27.375 ave 337 max 0 min
Histogram: 32 4 2 0 0 0 0 1 0 1
Nghost:    6.975 ave 80 max 0 min
Histogram: 33 1 2 2 0 0 0 0 0 2
Neighs:    2.95 ave 39 max 0 min
Histogram: 34 0 3 0 0 1 1 0 0 1

Total # of neighbors = 118
Ave neighs/atom = 0.107763
Neighbor list builds = 6250
Dangerous builds = 251
Setting up run at Sun Dec 25 13:41:58 2022

Memory usage per processor = 960.195 Mbytes
    Step    Atoms         KinEng            CPU 
10905335     1095     0.07151688              0 
11111096     1089    0.066605161      2099.7507 
Loop time of 2099.75 on 40 procs for 205761 steps with 1089 atoms, finish time Sun Dec 25 14:16:58 2022


Pair  time (%) = 0.470874 (0.0224252)
Neigh time (%) = 5.43971 (0.259064)
Comm  time (%) = 13.7738 (0.655971)
Outpt time (%) = 0.00054805 (2.61007e-05)
Other time (%) = 2080.07 (99.0625)

Nlocal:    27.225 ave 338 max 0 min
Histogram: 32 4 1 1 0 0 0 1 0 1
Nghost:    7.25 ave 90 max 0 min
Histogram: 34 2 1 1 0 0 0 0 0 2
Neighs:    3.25 ave 47 max 0 min
Histogram: 32 5 0 1 0 1 0 0 0 1

Total # of neighbors = 130
Ave neighs/atom = 0.119376
Neighbor list builds = 6507
Dangerous builds = 2
Setting up run at Sun Dec 25 14:16:58 2022

Memory usage per processor = 960.195 Mbytes
    Step    Atoms         KinEng            CPU 
11111096     1089    0.066605161              0 
11316857     1083     0.17868734      2231.0844 
Loop time of 2231.08 on 40 procs for 205761 steps with 1083 atoms, finish time Sun Dec 25 14:54:09 2022


Pair  time (%) = 0.470845 (0.0211039)
Neigh time (%) = 6.21272 (0.278462)
Comm  time (%) = 16.713 (0.749099)
Outpt time (%) = 0.000290944 (1.30405e-05)
Other time (%) = 2207.69 (98.9513)

Nlocal:    27.075 ave 335 max 0 min
Histogram: 32 3 3 0 0 0 0 1 0 1
Nghost:    7.025 ave 84 max 0 min
Histogram: 33 2 1 2 0 0 0 1 0 1
Neighs:    3.275 ave 49 max 0 min
Histogram: 34 2 1 1 0 1 0 0 0 1

Total # of neighbors = 131
Ave neighs/atom = 0.12096
Neighbor list builds = 7458
Dangerous builds = 1081
Setting up run at Sun Dec 25 14:54:09 2022

Memory usage per processor = 960.195 Mbytes
    Step    Atoms         KinEng            CPU 
11316857     1083     0.17868734              0 
11522618     1074    0.098415089      2220.8974 
Loop time of 2220.9 on 40 procs for 205761 steps with 1074 atoms, finish time Sun Dec 25 15:31:10 2022


Pair  time (%) = 0.470294 (0.0211759)
Neigh time (%) = 7.60807 (0.342567)
Comm  time (%) = 19.8454 (0.893578)
Outpt time (%) = 0.000566274 (2.54975e-05)
Other time (%) = 2192.97 (98.7427)

Nlocal:    26.85 ave 333 max 0 min
Histogram: 32 4 2 0 0 0 0 1 0 1
Nghost:    6.75 ave 83 max 0 min
Histogram: 32 4 1 1 0 0 0 1 0 1
Neighs:    3.1 ave 50 max 0 min
Histogram: 32 3 3 1 0 0 0 0 0 1

Total # of neighbors = 124
Ave neighs/atom = 0.115456
Neighbor list builds = 9135
Dangerous builds = 57
Setting up run at Sun Dec 25 15:31:10 2022

Memory usage per processor = 960.195 Mbytes
    Step    Atoms         KinEng            CPU 
11522618     1074    0.098415089              0 
11728379     1065     0.15055734       2301.377 
Loop time of 2301.38 on 40 procs for 205761 steps with 1065 atoms, finish time Sun Dec 25 16:09:31 2022


Pair  time (%) = 0.492415 (0.0213965)
Neigh time (%) = 16.9368 (0.73594)
Comm  time (%) = 42.0723 (1.82814)
Outpt time (%) = 0.000271026 (1.17767e-05)
Other time (%) = 2241.88 (97.4145)

Nlocal:    26.625 ave 332 max 0 min
Histogram: 32 4 1 1 0 0 0 1 0 1
Nghost:    7 ave 81 max 0 min
Histogram: 33 2 1 2 0 0 0 0 0 2
Neighs:    3.225 ave 53 max 0 min
Histogram: 34 1 1 3 0 0 0 0 0 1

Total # of neighbors = 129
Ave neighs/atom = 0.121127
Neighbor list builds = 20720
Dangerous builds = 10109
Setting up run at Sun Dec 25 16:09:31 2022

Memory usage per processor = 960.195 Mbytes
    Step    Atoms         KinEng            CPU 
11728379     1065     0.15055734              0 
11934140     1055     0.21042821      2292.6521 
Loop time of 2292.65 on 40 procs for 205761 steps with 1055 atoms, finish time Sun Dec 25 16:47:44 2022


Pair  time (%) = 0.470114 (0.0205053)
Neigh time (%) = 8.59103 (0.37472)
Comm  time (%) = 22.6866 (0.989537)
Outpt time (%) = 0.000516935 (2.25475e-05)
Other time (%) = 2260.9 (98.6152)

Nlocal:    26.375 ave 334 max 0 min
Histogram: 32 2 4 0 0 0 0 1 0 1
Nghost:    7.3 ave 77 max 0 min
Histogram: 32 3 0 2 1 0 0 0 0 2
Neighs:    3.075 ave 43 max 0 min
Histogram: 33 3 1 0 1 0 1 0 0 1

Total # of neighbors = 123
Ave neighs/atom = 0.116588
Neighbor list builds = 10287
Dangerous builds = 83
Setting up run at Sun Dec 25 16:47:44 2022

Memory usage per processor = 960.195 Mbytes
    Step    Atoms         KinEng            CPU 
11934140     1055     0.21042821              0 
12139901     1048     0.09972542       2506.995 
Loop time of 2507 on 40 procs for 205761 steps with 1048 atoms, finish time Sun Dec 25 17:29:31 2022


Pair  time (%) = 0.472058 (0.0188296)
Neigh time (%) = 9.05657 (0.361252)
Comm  time (%) = 22.5457 (0.899311)
Outpt time (%) = 0.000583907 (2.32911e-05)
Other time (%) = 2474.92 (98.7206)

Nlocal:    26.2 ave 327 max 0 min
Histogram: 32 3 3 0 0 0 0 1 0 1
Nghost:    6.9 ave 70 max 0 min
Histogram: 31 4 0 2 1 0 0 0 0 2
Neighs:    3.25 ave 49 max 0 min
Histogram: 35 1 1 0 1 0 1 0 0 1

Total # of neighbors = 130
Ave neighs/atom = 0.124046
Neighbor list builds = 10850
Dangerous builds = 283
Setting up run at Sun Dec 25 17:29:31 2022

Memory usage per processor = 960.195 Mbytes
    Step    Atoms         KinEng            CPU 
12139901     1048     0.09972542              0 
12345662     1036     0.11566503      2253.2088 
Loop time of 2253.21 on 40 procs for 205761 steps with 1036 atoms, finish time Sun Dec 25 18:07:04 2022


Pair  time (%) = 0.470708 (0.0208905)
Neigh time (%) = 7.34713 (0.326074)
Comm  time (%) = 18.8498 (0.836578)
Outpt time (%) = 0.000275714 (1.22365e-05)
Other time (%) = 2226.54 (98.8164)

Nlocal:    25.9 ave 321 max 0 min
Histogram: 32 4 2 0 0 0 0 1 0 1
Nghost:    6.875 ave 82 max 0 min
Histogram: 34 2 0 0 2 0 0 0 1 1
Neighs:    3.3 ave 38 max 0 min
Histogram: 35 0 0 0 2 0 1 0 1 1

Total # of neighbors = 132
Ave neighs/atom = 0.127413
Neighbor list builds = 8798
Dangerous builds = 640
Setting up run at Sun Dec 25 18:07:05 2022

Memory usage per processor = 960.195 Mbytes
    Step    Atoms         KinEng            CPU 
12345662     1036     0.11566503              0 
12551423     1029     0.16292255      2175.2549 
Loop time of 2175.25 on 40 procs for 205761 steps with 1029 atoms, finish time Sun Dec 25 18:43:20 2022


Pair  time (%) = 0.461959 (0.021237)
Neigh time (%) = 5.51814 (0.253678)
Comm  time (%) = 14.3446 (0.659445)
Outpt time (%) = 0.000526325 (2.4196e-05)
Other time (%) = 2154.93 (99.0656)

Nlocal:    25.725 ave 318 max 0 min
Histogram: 32 3 3 0 0 0 0 1 0 1
Nghost:    6.5 ave 65 max 0 min
Histogram: 31 3 2 0 2 0 0 0 1 1
Neighs:    2.45 ave 32 max 0 min
Histogram: 34 2 1 0 0 1 0 1 0 1

Total # of neighbors = 98
Ave neighs/atom = 0.0952381
Neighbor list builds = 6577
Dangerous builds = 3
Setting up run at Sun Dec 25 18:43:20 2022

Memory usage per processor = 960.195 Mbytes
    Step    Atoms         KinEng            CPU 
12551423     1029     0.16292255              0 
12757184     1024     0.13584383       2279.734 
Loop time of 2279.73 on 40 procs for 205761 steps with 1024 atoms, finish time Sun Dec 25 19:21:20 2022


Pair  time (%) = 0.463596 (0.0203355)
Neigh time (%) = 6.94923 (0.304826)
Comm  time (%) = 18.7793 (0.823751)
Outpt time (%) = 0.00028832 (1.26471e-05)
Other time (%) = 2253.54 (98.8511)

Nlocal:    25.6 ave 310 max 0 min
Histogram: 32 4 1 1 0 0 0 1 0 1
Nghost:    6.925 ave 84 max 0 min
Histogram: 35 1 0 1 1 0 0 0 1 1
Neighs:    2.525 ave 28 max 0 min
Histogram: 33 1 2 0 1 0 0 1 1 1

Total # of neighbors = 101
Ave neighs/atom = 0.0986328
Neighbor list builds = 8256
Dangerous builds = 6
Setting up run at Sun Dec 25 19:21:20 2022

Memory usage per processor = 960.195 Mbytes
    Step    Atoms         KinEng            CPU 
12757184     1024     0.13584383              0 
12962945     1016     0.15665514      2207.2905 
Loop time of 2207.3 on 40 procs for 205761 steps with 1016 atoms, finish time Sun Dec 25 19:58:07 2022


Pair  time (%) = 0.460842 (0.0208781)
Neigh time (%) = 5.19391 (0.235306)
Comm  time (%) = 13.3781 (0.606086)
Outpt time (%) = 0.000480671 (2.17765e-05)
Other time (%) = 2188.26 (99.1377)

Nlocal:    25.4 ave 310 max 0 min
Histogram: 32 3 3 0 0 0 0 1 0 1
Nghost:    6.775 ave 69 max 0 min
Histogram: 32 3 0 1 1 1 0 0 0 2
Neighs:    2.4 ave 22 max 0 min
Histogram: 32 2 1 1 0 1 0 0 1 2

Total # of neighbors = 96
Ave neighs/atom = 0.0944882
Neighbor list builds = 6199
Dangerous builds = 240
Setting up run at Sun Dec 25 19:58:07 2022

Memory usage per processor = 960.195 Mbytes
    Step    Atoms         KinEng            CPU 
12962945     1016     0.15665514              0 
13168706     1002     0.13597575       2286.764 
Loop time of 2286.76 on 40 procs for 205761 steps with 1002 atoms, finish time Sun Dec 25 20:36:14 2022


Pair  time (%) = 0.458031 (0.0200296)
Neigh time (%) = 5.91829 (0.258806)
Comm  time (%) = 14.3708 (0.628434)
Outpt time (%) = 0.00445505 (0.000194819)
Other time (%) = 2266.01 (99.0925)

Nlocal:    25.05 ave 310 max 0 min
Histogram: 32 3 3 0 0 0 0 1 0 1
Nghost:    6.7 ave 66 max 0 min
Histogram: 31 4 0 1 1 1 0 0 0 2
Neighs:    2.35 ave 26 max 0 min
Histogram: 32 2 2 0 1 0 1 0 1 1

Total # of neighbors = 94
Ave neighs/atom = 0.0938124
Neighbor list builds = 7053
Dangerous builds = 212
Setting up run at Sun Dec 25 20:36:14 2022

Memory usage per processor = 960.195 Mbytes
    Step    Atoms         KinEng            CPU 
13168706     1002     0.13597575              0 
13374467      994     0.12874699      2115.1477 
Loop time of 2115.15 on 40 procs for 205761 steps with 994 atoms, finish time Sun Dec 25 21:11:29 2022


Pair  time (%) = 0.457849 (0.0216462)
Neigh time (%) = 6.13652 (0.290122)
Comm  time (%) = 16.9879 (0.803156)
Outpt time (%) = 0.000270977 (1.28112e-05)
Other time (%) = 2091.57 (98.8851)

Nlocal:    24.85 ave 306 max 0 min
Histogram: 32 4 1 1 0 0 0 1 0 1
Nghost:    6.425 ave 86 max 0 min
Histogram: 35 1 0 1 1 0 0 1 0 1
Neighs:    2.025 ave 25 max 0 min
Histogram: 34 2 0 1 0 0 0 1 1 1

Total # of neighbors = 81
Ave neighs/atom = 0.0814889
Neighbor list builds = 7403
Dangerous builds = 1790
Setting up run at Sun Dec 25 21:11:29 2022

Memory usage per processor = 960.195 Mbytes
    Step    Atoms         KinEng            CPU 
13374467      994     0.12874699              0 
13580228      987     0.17866524      2086.8694 
Loop time of 2086.89 on 40 procs for 205761 steps with 987 atoms, finish time Sun Dec 25 21:46:16 2022


Pair  time (%) = 0.451975 (0.0216578)
Neigh time (%) = 3.36161 (0.161082)
Comm  time (%) = 9.41096 (0.450956)
Outpt time (%) = 0.000555697 (2.6628e-05)
Other time (%) = 2073.67 (99.3663)

Nlocal:    24.675 ave 303 max 0 min
Histogram: 32 2 3 1 0 0 0 1 0 1
Nghost:    6.575 ave 65 max 0 min
Histogram: 32 2 2 1 0 0 1 0 0 2
Neighs:    2.075 ave 29 max 0 min
Histogram: 33 3 0 1 1 0 1 0 0 1

Total # of neighbors = 83
Ave neighs/atom = 0.0840932
Neighbor list builds = 4016
Dangerous builds = 167
Setting up run at Sun Dec 25 21:46:16 2022

Memory usage per processor = 960.195 Mbytes
    Step    Atoms         KinEng            CPU 
13580228      987     0.17866524              0 
13785989      977     0.10905352      2088.8225 
Loop time of 2088.82 on 40 procs for 205761 steps with 977 atoms, finish time Sun Dec 25 22:21:05 2022


Pair  time (%) = 0.448897 (0.0214904)
Neigh time (%) = 4.05503 (0.19413)
Comm  time (%) = 11.0182 (0.527482)
Outpt time (%) = 0.000328684 (1.57354e-05)
Other time (%) = 2073.3 (99.2569)

Nlocal:    24.425 ave 304 max 0 min
Histogram: 32 4 1 1 0 0 0 1 0 1
Nghost:    6.575 ave 70 max 0 min
Histogram: 34 2 0 0 1 1 0 0 0 2
Neighs:    2.5 ave 32 max 0 min
Histogram: 35 0 1 0 1 0 2 0 0 1

Total # of neighbors = 100
Ave neighs/atom = 0.102354
Neighbor list builds = 4865
Dangerous builds = 437
Setting up run at Sun Dec 25 22:21:05 2022

Memory usage per processor = 960.195 Mbytes
    Step    Atoms         KinEng            CPU 
13785989      977     0.10905352              0 
13991750      967     0.21250497      2146.3807 
Loop time of 2146.38 on 40 procs for 205761 steps with 967 atoms, finish time Sun Dec 25 22:56:51 2022


Pair  time (%) = 0.454845 (0.0211913)
Neigh time (%) = 9.00543 (0.419563)
Comm  time (%) = 22.2607 (1.03713)
Outpt time (%) = 0.000843432 (3.92955e-05)
Other time (%) = 2114.66 (98.5221)

Nlocal:    24.175 ave 305 max 0 min
Histogram: 32 3 3 0 0 0 0 1 0 1
Nghost:    6.275 ave 66 max 0 min
Histogram: 34 1 0 1 1 0 1 0 1 1
Neighs:    2.5 ave 30 max 0 min
Histogram: 33 1 1 1 2 0 0 1 0 1

Total # of neighbors = 100
Ave neighs/atom = 0.103413
Neighbor list builds = 10773
Dangerous builds = 995
Setting up run at Sun Dec 25 22:56:51 2022

Memory usage per processor = 960.195 Mbytes
    Step    Atoms         KinEng            CPU 
13991750      967     0.21250497              0 
14197511      962     0.23671335      2118.0281 
Loop time of 2118.03 on 40 procs for 205761 steps with 962 atoms, finish time Sun Dec 25 23:32:10 2022


Pair  time (%) = 0.454654 (0.0214659)
Neigh time (%) = 7.0343 (0.332116)
Comm  time (%) = 17.6003 (0.830977)
Outpt time (%) = 0.000274121 (1.29423e-05)
Other time (%) = 2092.94 (98.8154)

Nlocal:    24.05 ave 305 max 0 min
Histogram: 32 2 4 0 0 0 0 1 0 1
Nghost:    6.375 ave 62 max 0 min
Histogram: 33 1 1 1 1 0 1 0 1 1
Neighs:    2.025 ave 27 max 0 min
Histogram: 33 2 0 3 0 0 1 0 0 1

Total # of neighbors = 81
Ave neighs/atom = 0.0841996
Neighbor list builds = 8382
Dangerous builds = 104
Setting up run at Sun Dec 25 23:32:10 2022

Memory usage per processor = 960.195 Mbytes
    Step    Atoms         KinEng            CPU 
14197511      962     0.23671335              0 
14403272      957      0.1889788       2125.043 
Loop time of 2125.04 on 40 procs for 205761 steps with 957 atoms, finish time Mon Dec 26 00:07:35 2022


Pair  time (%) = 0.452994 (0.0213169)
Neigh time (%) = 7.76409 (0.365361)
Comm  time (%) = 18.8117 (0.885239)
Outpt time (%) = 0.000593516 (2.79296e-05)
Other time (%) = 2098.01 (98.7281)

Nlocal:    23.925 ave 294 max 0 min
Histogram: 32 3 3 0 0 0 0 1 0 1
Nghost:    6 ave 63 max 0 min
Histogram: 33 3 0 0 1 0 1 0 1 1
Neighs:    1.725 ave 20 max 0 min
Histogram: 32 3 1 0 0 1 2 0 0 1

Total # of neighbors = 69
Ave neighs/atom = 0.0721003
Neighbor list builds = 9250
Dangerous builds = 53
Setting up run at Mon Dec 26 00:07:35 2022

Memory usage per processor = 960.195 Mbytes
    Step    Atoms         KinEng            CPU 
14403272      957      0.1889788              0 
14609033      946     0.16737967      2105.7337 
Loop time of 2105.73 on 40 procs for 205761 steps with 946 atoms, finish time Mon Dec 26 00:42:40 2022


Pair  time (%) = 0.444567 (0.0211122)
Neigh time (%) = 5.16694 (0.245375)
Comm  time (%) = 12.2718 (0.582782)
Outpt time (%) = 0.000303077 (1.43929e-05)
Other time (%) = 2087.85 (99.1507)

Nlocal:    23.65 ave 285 max 0 min
Histogram: 32 3 3 0 0 0 0 0 1 1
Nghost:    5.675 ave 61 max 0 min
Histogram: 34 2 0 0 1 1 0 0 0 2
Neighs:    1.475 ave 21 max 0 min
Histogram: 33 3 1 1 0 1 0 0 0 1

Total # of neighbors = 59
Ave neighs/atom = 0.0623679
Neighbor list builds = 6193
Dangerous builds = 1021
Setting up run at Mon Dec 26 00:42:41 2022

Memory usage per processor = 960.195 Mbytes
    Step    Atoms         KinEng            CPU 
14609033      946     0.16737967              0 
14814794      938     0.14665667      2129.1795 
Loop time of 2129.18 on 40 procs for 205761 steps with 938 atoms, finish time Mon Dec 26 01:18:10 2022


Pair  time (%) = 0.454874 (0.0213638)
Neigh time (%) = 8.00376 (0.375908)
Comm  time (%) = 18.2989 (0.859434)
Outpt time (%) = 0.000600231 (2.81907e-05)
Other time (%) = 2102.42 (98.7433)

Nlocal:    23.45 ave 288 max 0 min
Histogram: 32 3 3 0 0 0 0 1 0 1
Nghost:    5.825 ave 53 max 0 min
Histogram: 30 4 1 1 1 0 0 1 0 2
Neighs:    2.075 ave 25 max 0 min
Histogram: 33 2 0 0 3 0 1 0 0 1

Total # of neighbors = 83
Ave neighs/atom = 0.0884861
Neighbor list builds = 9560
Dangerous builds = 757
Setting up run at Mon Dec 26 01:18:10 2022

Memory usage per processor = 960.195 Mbytes
    Step    Atoms         KinEng            CPU 
14814794      938     0.14665667              0 
15020555      923     0.13432763      2118.8514 
Loop time of 2118.85 on 40 procs for 205761 steps with 923 atoms, finish time Mon Dec 26 01:53:29 2022


Pair  time (%) = 0.446181 (0.0210577)
Neigh time (%) = 7.57313 (0.357417)
Comm  time (%) = 18.1644 (0.857273)
Outpt time (%) = 0.000273905 (1.2927e-05)
Other time (%) = 2092.67 (98.7642)

Nlocal:    23.075 ave 285 max 0 min
Histogram: 32 4 2 0 0 0 0 1 0 1
Nghost:    5 ave 56 max 0 min
Histogram: 35 1 0 1 0 0 1 0 0 2
Neighs:    1.8 ave 29 max 0 min
Histogram: 33 2 3 0 1 0 0 0 0 1

Total # of neighbors = 72
Ave neighs/atom = 0.0780065
Neighbor list builds = 9050
Dangerous builds = 1045
Setting up run at Mon Dec 26 01:53:29 2022

Memory usage per processor = 960.195 Mbytes
    Step    Atoms         KinEng            CPU 
15020555      923     0.13432763              0 
15226316      916     0.17961937      2123.0062 
Loop time of 2123.02 on 40 procs for 205761 steps with 916 atoms, finish time Mon Dec 26 02:28:52 2022


Pair  time (%) = 0.44333 (0.0208821)
Neigh time (%) = 7.15419 (0.336982)
Comm  time (%) = 17.9454 (0.845279)
Outpt time (%) = 0.0112458 (0.000529708)
Other time (%) = 2097.46 (98.7963)

Nlocal:    22.9 ave 281 max 0 min
Histogram: 32 3 3 0 0 0 0 1 0 1
Nghost:    5.425 ave 53 max 0 min
Histogram: 32 3 1 0 1 0 0 1 0 2
Neighs:    1.625 ave 30 max 0 min
Histogram: 35 2 0 1 1 0 0 0 0 1

Total # of neighbors = 65
Ave neighs/atom = 0.0709607
Neighbor list builds = 8543
Dangerous builds = 1044
Setting up run at Mon Dec 26 02:28:52 2022

Memory usage per processor = 960.195 Mbytes
    Step    Atoms         KinEng            CPU 
15226316      916     0.17961937              0 
15432077      912     0.22244987      2132.3016 
Loop time of 2132.3 on 40 procs for 205761 steps with 912 atoms, finish time Mon Dec 26 03:04:24 2022


Pair  time (%) = 0.447546 (0.0209889)
Neigh time (%) = 8.3514 (0.391661)
Comm  time (%) = 21.6495 (1.01531)
Outpt time (%) = 0.000540075 (2.53283e-05)
Other time (%) = 2101.85 (98.572)

Nlocal:    22.8 ave 274 max 0 min
Histogram: 32 2 4 0 0 0 0 1 0 1
Nghost:    4.9 ave 57 max 0 min
Histogram: 34 2 0 1 0 1 0 0 1 1
Neighs:    1.15 ave 21 max 0 min
Histogram: 35 2 1 1 0 0 0 0 0 1

Total # of neighbors = 46
Ave neighs/atom = 0.0504386
Neighbor list builds = 9977
Dangerous builds = 1376
Setting up run at Mon Dec 26 03:04:24 2022

Memory usage per processor = 960.195 Mbytes
    Step    Atoms         KinEng            CPU 
15432077      912     0.22244987              0 
15637838      906     0.32246319      2117.9368 
Loop time of 2117.94 on 40 procs for 205761 steps with 906 atoms, finish time Mon Dec 26 03:39:42 2022


Pair  time (%) = 0.440144 (0.0207817)
Neigh time (%) = 7.39327 (0.349079)
Comm  time (%) = 17.8635 (0.843438)
Outpt time (%) = 0.000274446 (1.29582e-05)
Other time (%) = 2092.24 (98.7867)

Nlocal:    22.65 ave 272 max 0 min
Histogram: 32 2 3 1 0 0 0 1 0 1
Nghost:    4.95 ave 55 max 0 min
Histogram: 35 1 0 0 0 1 1 0 1 1
Neighs:    1.175 ave 22 max 0 min
Histogram: 36 1 1 0 0 1 0 0 0 1

Total # of neighbors = 47
Ave neighs/atom = 0.0518764
Neighbor list builds = 8792
Dangerous builds = 2
Setting up run at Mon Dec 26 03:39:42 2022

Memory usage per processor = 960.195 Mbytes
    Step    Atoms         KinEng            CPU 
15637838      906     0.32246319              0 
15843599      898     0.39809179       2113.394 
Loop time of 2113.39 on 40 procs for 205761 steps with 898 atoms, finish time Mon Dec 26 04:14:56 2022


Pair  time (%) = 0.438641 (0.0207553)
Neigh time (%) = 6.49426 (0.307291)
Comm  time (%) = 13.7759 (0.65184)
Outpt time (%) = 0.000605652 (2.86578e-05)
Other time (%) = 2092.68 (99.0201)

Nlocal:    22.45 ave 268 max 0 min
Histogram: 32 2 3 1 0 0 0 1 0 1
Nghost:    4.675 ave 50 max 0 min
Histogram: 34 2 0 0 1 0 1 0 0 2
Neighs:    1.25 ave 15 max 0 min
Histogram: 33 1 2 0 2 0 0 1 0 1

Total # of neighbors = 50
Ave neighs/atom = 0.0556793
Neighbor list builds = 7735
Dangerous builds = 1011
Setting up run at Mon Dec 26 04:14:56 2022

Memory usage per processor = 960.195 Mbytes
    Step    Atoms         KinEng            CPU 
15843599      898     0.39809179              0 
16049360      892     0.23185596      2120.4211 
Loop time of 2120.42 on 40 procs for 205761 steps with 892 atoms, finish time Mon Dec 26 04:50:16 2022


Pair  time (%) = 0.438702 (0.0206894)
Neigh time (%) = 6.87436 (0.324198)
Comm  time (%) = 12.3464 (0.582263)
Outpt time (%) = 0.000281129 (1.32582e-05)
Other time (%) = 2100.76 (99.0728)

Nlocal:    22.3 ave 260 max 0 min
Histogram: 32 3 2 1 0 0 0 0 1 1
Nghost:    4.8 ave 51 max 0 min
Histogram: 34 2 0 0 1 0 1 0 0 2
Neighs:    1.225 ave 14 max 0 min
Histogram: 34 1 1 1 0 0 1 0 0 2

Total # of neighbors = 49
Ave neighs/atom = 0.0549327
Neighbor list builds = 8146
Dangerous builds = 111
Setting up run at Mon Dec 26 04:50:16 2022

Memory usage per processor = 960.195 Mbytes
    Step    Atoms         KinEng            CPU 
16049360      892     0.23185596              0 
16255121      885     0.33635713      2103.1615 
Loop time of 2103.16 on 40 procs for 205761 steps with 885 atoms, finish time Mon Dec 26 05:25:19 2022


Pair  time (%) = 0.436218 (0.0207411)
Neigh time (%) = 5.50003 (0.261512)
Comm  time (%) = 12.0741 (0.574091)
Outpt time (%) = 0.000586401 (2.78819e-05)
Other time (%) = 2085.15 (99.1436)

Nlocal:    22.125 ave 259 max 0 min
Histogram: 32 4 0 2 0 0 0 0 1 1
Nghost:    4.25 ave 49 max 0 min
Histogram: 34 2 0 1 0 1 0 0 0 2
Neighs:    1.3 ave 16 max 0 min
Histogram: 35 1 0 1 0 0 1 0 1 1

Total # of neighbors = 52
Ave neighs/atom = 0.0587571
Neighbor list builds = 6539
Dangerous builds = 609
Setting up run at Mon Dec 26 05:25:19 2022

Memory usage per processor = 960.195 Mbytes
    Step    Atoms         KinEng            CPU 
16255121      885     0.33635713              0 
16460882      881     0.30060525      2121.0285 
Loop time of 2121.03 on 40 procs for 205761 steps with 881 atoms, finish time Mon Dec 26 06:00:40 2022


Pair  time (%) = 0.435785 (0.0205459)
Neigh time (%) = 8.22231 (0.387656)
Comm  time (%) = 19.3989 (0.914599)
Outpt time (%) = 0.000309058 (1.45711e-05)
Other time (%) = 2092.97 (98.6772)

Nlocal:    22.025 ave 261 max 0 min
Histogram: 32 4 0 2 0 0 0 1 0 1
Nghost:    4.275 ave 50 max 0 min
Histogram: 33 3 0 1 0 1 0 0 1 1
Neighs:    1.2 ave 18 max 0 min
Histogram: 33 2 3 0 0 0 1 0 0 1

Total # of neighbors = 48
Ave neighs/atom = 0.0544835
Neighbor list builds = 9784
Dangerous builds = 983
Setting up run at Mon Dec 26 06:00:41 2022

Memory usage per processor = 960.195 Mbytes
    Step    Atoms         KinEng            CPU 
16460882      881     0.30060525              0 
16666643      874     0.25859118      2108.6697 
Loop time of 2108.67 on 40 procs for 205761 steps with 874 atoms, finish time Mon Dec 26 06:35:49 2022


Pair  time (%) = 0.43154 (0.020465)
Neigh time (%) = 6.59577 (0.312793)
Comm  time (%) = 16.1896 (0.767761)
Outpt time (%) = 0.00967065 (0.000458614)
Other time (%) = 2085.44 (98.8985)

Nlocal:    21.85 ave 254 max 0 min
Histogram: 32 3 2 1 0 0 0 0 1 1
Nghost:    4.075 ave 49 max 0 min
Histogram: 35 1 0 0 2 0 0 0 1 1
Neighs:    1.225 ave 18 max 0 min
Histogram: 33 4 1 0 0 0 0 1 0 1

Total # of neighbors = 49
Ave neighs/atom = 0.0560641
Neighbor list builds = 7849
Dangerous builds = 862
Setting up run at Mon Dec 26 06:35:49 2022

Memory usage per processor = 960.195 Mbytes
    Step    Atoms         KinEng            CPU 
16666643      874     0.25859118              0 
16872404      861     0.31287892      2144.3158 
Loop time of 2144.32 on 40 procs for 205761 steps with 861 atoms, finish time Mon Dec 26 07:11:34 2022


Pair  time (%) = 0.438193 (0.0204351)
Neigh time (%) = 9.29609 (0.433522)
Comm  time (%) = 20.256 (0.944638)
Outpt time (%) = 0.00418206 (0.00019503)
Other time (%) = 2114.32 (98.6012)

Nlocal:    21.525 ave 251 max 0 min
Histogram: 32 2 4 0 0 0 0 0 1 1
Nghost:    4.075 ave 52 max 0 min
Histogram: 35 1 0 1 1 0 0 0 1 1
Neighs:    1.1 ave 16 max 0 min
Histogram: 34 2 2 0 0 0 0 0 1 1

Total # of neighbors = 44
Ave neighs/atom = 0.0511034
Neighbor list builds = 11076
Dangerous builds = 1379
Setting up run at Mon Dec 26 07:11:34 2022

Memory usage per processor = 960.195 Mbytes
    Step    Atoms         KinEng            CPU 
16872404      861     0.31287892              0 
17078165      852     0.26159914      2126.1129 
Loop time of 2126.11 on 40 procs for 205761 steps with 852 atoms, finish time Mon Dec 26 07:47:00 2022


Pair  time (%) = 0.436117 (0.0205124)
Neigh time (%) = 8.69898 (0.409149)
Comm  time (%) = 19.6692 (0.925125)
Outpt time (%) = 0.000548682 (2.58068e-05)
Other time (%) = 2097.31 (98.6452)

Nlocal:    21.3 ave 249 max 0 min
Histogram: 32 3 2 1 0 0 0 0 1 1
Nghost:    4.075 ave 44 max 0 min
Histogram: 32 4 0 0 1 0 1 0 0 2
Neighs:    1.05 ave 15 max 0 min
Histogram: 35 1 1 0 1 0 0 0 0 2

Total # of neighbors = 42
Ave neighs/atom = 0.0492958
Neighbor list builds = 10369
Dangerous builds = 1058
Setting up run at Mon Dec 26 07:47:00 2022

Memory usage per processor = 960.195 Mbytes
    Step    Atoms         KinEng            CPU 
17078165      852     0.26159914              0 
17283926      849     0.30027226      2107.6025 
Loop time of 2107.6 on 40 procs for 205761 steps with 849 atoms, finish time Mon Dec 26 08:22:08 2022


Pair  time (%) = 0.431262 (0.0204622)
Neigh time (%) = 6.02332 (0.28579)
Comm  time (%) = 12.5698 (0.596402)
Outpt time (%) = 0.000317664 (1.50723e-05)
Other time (%) = 2088.58 (99.0973)

Nlocal:    21.225 ave 247 max 0 min
Histogram: 32 2 4 0 0 0 0 0 1 1
Nghost:    3.725 ave 40 max 0 min
Histogram: 34 2 0 0 1 1 0 0 0 2
Neighs:    1.175 ave 16 max 0 min
Histogram: 33 3 2 0 0 0 0 0 1 1

Total # of neighbors = 47
Ave neighs/atom = 0.0553592
Neighbor list builds = 7134
Dangerous builds = 204
Setting up run at Mon Dec 26 08:22:08 2022

Memory usage per processor = 960.195 Mbytes
    Step    Atoms         KinEng            CPU 
17283926      849     0.30027226              0 
17489687      839     0.38153241       2129.261 
Loop time of 2129.26 on 40 procs for 205761 steps with 839 atoms, finish time Mon Dec 26 08:57:37 2022


Pair  time (%) = 0.433274 (0.0203486)
Neigh time (%) = 8.0354 (0.37738)
Comm  time (%) = 16.0776 (0.755077)
Outpt time (%) = 0.000542864 (2.54954e-05)
Other time (%) = 2104.71 (98.8472)

Nlocal:    20.975 ave 247 max 0 min
Histogram: 32 3 2 1 0 0 0 0 1 1
Nghost:    3.95 ave 39 max 0 min
Histogram: 31 4 1 0 0 1 1 0 0 2
Neighs:    1.175 ave 23 max 0 min
Histogram: 37 1 0 0 0 0 1 0 0 1

Total # of neighbors = 47
Ave neighs/atom = 0.0560191
Neighbor list builds = 9529
Dangerous builds = 801
Setting up run at Mon Dec 26 08:57:37 2022

Memory usage per processor = 960.195 Mbytes
    Step    Atoms         KinEng            CPU 
17489687      839     0.38153241              0 
17695448      834     0.36479562      2124.7196 
Loop time of 2124.72 on 40 procs for 205761 steps with 834 atoms, finish time Mon Dec 26 09:33:02 2022


Pair  time (%) = 0.431287 (0.0202985)
Neigh time (%) = 7.66073 (0.360552)
Comm  time (%) = 17.3415 (0.816177)
Outpt time (%) = 0.000299699 (1.41054e-05)
Other time (%) = 2099.29 (98.803)

Nlocal:    20.85 ave 243 max 0 min
Histogram: 32 2 4 0 0 0 0 0 1 1
Nghost:    3.55 ave 37 max 0 min
Histogram: 31 5 0 0 1 1 0 0 0 2
Neighs:    1.375 ave 26 max 0 min
Histogram: 34 4 0 0 1 0 0 0 0 1

Total # of neighbors = 55
Ave neighs/atom = 0.0659472
Neighbor list builds = 9083
Dangerous builds = 214
Setting up run at Mon Dec 26 09:33:02 2022

Memory usage per processor = 960.195 Mbytes
    Step    Atoms         KinEng            CPU 
17695448      834     0.36479562              0 
17901209      831      0.5222416      2157.5875 
Loop time of 2157.59 on 40 procs for 205761 steps with 831 atoms, finish time Mon Dec 26 10:08:59 2022


Pair  time (%) = 0.438807 (0.0203379)
Neigh time (%) = 11.7162 (0.543024)
Comm  time (%) = 26.4303 (1.22499)
Outpt time (%) = 0.000545673 (2.52909e-05)
Other time (%) = 2119 (98.2116)

Nlocal:    20.775 ave 242 max 0 min
Histogram: 32 2 3 1 0 0 0 0 1 1
Nghost:    3.475 ave 43 max 0 min
Histogram: 35 1 0 2 0 0 0 1 0 1
Neighs:    1.025 ave 22 max 0 min
Histogram: 37 1 0 0 0 1 0 0 0 1

Total # of neighbors = 41
Ave neighs/atom = 0.0493381
Neighbor list builds = 14156
Dangerous builds = 6235
Setting up run at Mon Dec 26 10:09:00 2022

Memory usage per processor = 960.195 Mbytes
    Step    Atoms         KinEng            CPU 
17901209      831      0.5222416              0 
18106970      825     0.48259447      2112.1931 
Loop time of 2112.19 on 40 procs for 205761 steps with 825 atoms, finish time Mon Dec 26 10:44:12 2022


Pair  time (%) = 0.42561 (0.0201502)
Neigh time (%) = 6.53032 (0.309172)
Comm  time (%) = 14.369 (0.680287)
Outpt time (%) = 0.000495622 (2.34648e-05)
Other time (%) = 2090.87 (98.9904)

Nlocal:    20.625 ave 233 max 0 min
Histogram: 32 2 3 1 0 0 0 0 0 2
Nghost:    3.55 ave 46 max 0 min
Histogram: 35 1 0 1 1 0 1 0 0 1
Neighs:    1.3 ave 18 max 0 min
Histogram: 35 1 0 1 0 1 0 0 1 1

Total # of neighbors = 52
Ave neighs/atom = 0.0630303
Neighbor list builds = 7732
Dangerous builds = 192
Setting up run at Mon Dec 26 10:44:12 2022

Memory usage per processor = 960.195 Mbytes
    Step    Atoms         KinEng            CPU 
18106970      825     0.48259447              0 
18312731      821     0.43335237      2100.8922 
Loop time of 2100.89 on 40 procs for 205761 steps with 821 atoms, finish time Mon Dec 26 11:19:13 2022


Pair  time (%) = 0.433771 (0.020647)
Neigh time (%) = 5.71516 (0.272035)
Comm  time (%) = 12.1844 (0.579965)
Outpt time (%) = 0.000320867 (1.52729e-05)
Other time (%) = 2082.56 (99.1273)

Nlocal:    20.525 ave 231 max 0 min
Histogram: 32 2 3 1 0 0 0 0 0 2
Nghost:    3.65 ave 44 max 0 min
Histogram: 35 1 0 0 2 0 0 0 1 1
Neighs:    1.175 ave 16 max 0 min
Histogram: 32 4 1 1 0 0 0 0 1 1

Total # of neighbors = 47
Ave neighs/atom = 0.0572473
Neighbor list builds = 6775
Dangerous builds = 1
Setting up run at Mon Dec 26 11:19:13 2022

Memory usage per processor = 960.195 Mbytes
    Step    Atoms         KinEng            CPU 
18312731      821     0.43335237              0 
18518492      818     0.40965315      2097.1435 
Loop time of 2097.14 on 40 procs for 205761 steps with 818 atoms, finish time Mon Dec 26 11:54:10 2022


Pair  time (%) = 0.434722 (0.0207292)
Neigh time (%) = 4.70047 (0.224137)
Comm  time (%) = 10.319 (0.49205)
Outpt time (%) = 0.000536844 (2.55988e-05)
Other time (%) = 2081.69 (99.2631)

Nlocal:    20.45 ave 234 max 0 min
Histogram: 32 2 3 1 0 0 0 0 0 2
Nghost:    3.6 ave 45 max 0 min
Histogram: 35 1 0 0 1 1 0 1 0 1
Neighs:    1.15 ave 16 max 0 min
Histogram: 33 4 0 1 0 0 0 0 1 1

Total # of neighbors = 46
Ave neighs/atom = 0.0562347
Neighbor list builds = 5602
Dangerous builds = 587
Setting up run at Mon Dec 26 11:54:10 2022

Memory usage per processor = 960.195 Mbytes
    Step    Atoms         KinEng            CPU 
18518492      818     0.40965315              0 
18724253      812      0.3812355      2142.8244 
Loop time of 2142.83 on 40 procs for 205761 steps with 812 atoms, finish time Mon Dec 26 12:29:53 2022


Pair  time (%) = 0.436389 (0.0203651)
Neigh time (%) = 10.0532 (0.469157)
Comm  time (%) = 21.5651 (1.00639)
Outpt time (%) = 0.000187171 (8.7348e-06)
Other time (%) = 2110.77 (98.5041)

[...]
Other time (%) = 2107.06 (98.8997)

Nlocal:    13.35 ave 124 max 0 min
Histogram: 31 1 2 2 2 0 0 0 1 1
Nghost:    1.875 ave 21 max 0 min
Histogram: 33 2 1 2 0 0 0 0 1 1
Neighs:    0.475 ave 5 max 0 min
Histogram: 34 0 2 0 0 0 1 0 1 2

Total # of neighbors = 19
Ave neighs/atom = 0.0355805
Neighbor list builds = 10231
Dangerous builds = 439
Setting up run at Tue Dec 27 19:55:55 2022

Memory usage per processor = 960.195 Mbytes
    Step    Atoms         KinEng            CPU 
29423855      534      0.6429518              0 
29629616      530     0.60791713      2231.5663 
Loop time of 2231.57 on 40 procs for 205761 steps with 530 atoms, finish time Tue Dec 27 20:33:06 2022


Pair  time (%) = 0.418291 (0.0187443)
Neigh time (%) = 8.79814 (0.394258)
Comm  time (%) = 15.4696 (0.693216)
Outpt time (%) = 0.000571071 (2.55906e-05)
Other time (%) = 2206.88 (98.8938)

Nlocal:    13.25 ave 125 max 0 min
Histogram: 31 2 2 2 0 1 0 1 0 1
Nghost:    2.075 ave 27 max 0 min
Histogram: 33 3 0 1 1 1 0 0 0 1
Neighs:    0.6 ave 4 max 0 min
Histogram: 32 0 1 0 0 1 0 3 0 3

Total # of neighbors = 24
Ave neighs/atom = 0.045283
Neighbor list builds = 10389
Dangerous builds = 13
Setting up run at Tue Dec 27 20:33:06 2022

Memory usage per processor = 960.195 Mbytes
    Step    Atoms         KinEng            CPU 
29629616      530     0.60791713              0 
29835377      528     0.61770161      2124.0081 
Loop time of 2124.01 on 40 procs for 205761 steps with 528 atoms, finish time Tue Dec 27 21:08:30 2022


Pair  time (%) = 0.409004 (0.0192562)
Neigh time (%) = 7.00837 (0.32996)
Comm  time (%) = 12.4349 (0.585444)
Outpt time (%) = 0.000272014 (1.28067e-05)
Other time (%) = 2104.16 (99.0653)

Nlocal:    13.2 ave 129 max 0 min
Histogram: 31 1 2 3 1 0 0 1 0 1
Nghost:    1.875 ave 22 max 0 min
Histogram: 34 2 0 1 0 0 1 1 0 1
Neighs:    0.875 ave 9 max 0 min
Histogram: 32 2 0 1 1 2 0 1 0 1

Total # of neighbors = 35
Ave neighs/atom = 0.0662879
Neighbor list builds = 8277
Dangerous builds = 1
Setting up run at Tue Dec 27 21:08:30 2022

Memory usage per processor = 960.195 Mbytes
    Step    Atoms         KinEng            CPU 
29835377      528     0.61770161              0 
30041138      524     0.60747157      2104.1957 
Loop time of 2104.2 on 40 procs for 205761 steps with 524 atoms, finish time Tue Dec 27 21:43:35 2022


Pair  time (%) = 0.412109 (0.0195851)
Neigh time (%) = 6.18189 (0.293789)
Comm  time (%) = 11.2658 (0.535395)
Outpt time (%) = 0.000594665 (2.82609e-05)
Other time (%) = 2086.34 (99.1512)

Nlocal:    13.1 ave 121 max 0 min
Histogram: 31 1 3 1 2 0 0 0 1 1
Nghost:    1.975 ave 21 max 0 min
Histogram: 33 2 1 0 1 1 0 0 1 1
Neighs:    0.675 ave 6 max 0 min
Histogram: 32 2 0 2 0 0 1 0 1 2

Total # of neighbors = 27
Ave neighs/atom = 0.0515267
Neighbor list builds = 7308
Dangerous builds = 43
Setting up run at Tue Dec 27 21:43:35 2022

Memory usage per processor = 960.195 Mbytes
    Step    Atoms         KinEng            CPU 
30041138      524     0.60747157              0 
30246899      520     0.67137285      2127.2597 
Loop time of 2127.26 on 40 procs for 205761 steps with 520 atoms, finish time Tue Dec 27 22:19:02 2022


Pair  time (%) = 0.412432 (0.0193879)
Neigh time (%) = 8.81373 (0.414323)
Comm  time (%) = 15.2764 (0.718126)
Outpt time (%) = 0.000223831 (1.0522e-05)
Other time (%) = 2102.76 (98.8482)

Nlocal:    13 ave 120 max 0 min
Histogram: 31 2 2 0 3 0 0 0 1 1
Nghost:    1.8 ave 20 max 0 min
Histogram: 33 3 0 1 0 0 1 0 0 2
Neighs:    0.425 ave 4 max 0 min
Histogram: 33 0 3 0 0 0 0 2 0 2

Total # of neighbors = 17
Ave neighs/atom = 0.0326923
Neighbor list builds = 10421
Dangerous builds = 29
Setting up run at Tue Dec 27 22:19:02 2022

Memory usage per processor = 960.195 Mbytes
    Step    Atoms         KinEng            CPU 
30246899      520     0.67137285              0 
30452660      518     0.60406516      2104.2665 
Loop time of 2104.27 on 40 procs for 205761 steps with 518 atoms, finish time Tue Dec 27 22:54:06 2022


Pair  time (%) = 0.413207 (0.0196366)
Neigh time (%) = 5.45698 (0.259329)
Comm  time (%) = 7.48423 (0.355669)
Outpt time (%) = 0.00050939 (2.42075e-05)
Other time (%) = 2090.91 (99.3653)

Nlocal:    12.95 ave 121 max 0 min
Histogram: 32 0 3 2 1 0 0 0 1 1
Nghost:    1.725 ave 20 max 0 min
Histogram: 30 6 0 1 1 0 0 0 0 2
Neighs:    0.4 ave 4 max 0 min
Histogram: 34 0 0 0 0 3 0 2 0 1

Total # of neighbors = 16
Ave neighs/atom = 0.030888
Neighbor list builds = 6475
Dangerous builds = 547
Setting up run at Tue Dec 27 22:54:06 2022

Memory usage per processor = 960.195 Mbytes
    Step    Atoms         KinEng            CPU 
30452660      518     0.60406516              0 
30658421      517     0.59519091      2119.4562 
Loop time of 2119.46 on 40 procs for 205761 steps with 517 atoms, finish time Tue Dec 27 23:29:26 2022


Pair  time (%) = 0.412518 (0.0194634)
Neigh time (%) = 6.26905 (0.295786)
Comm  time (%) = 9.17213 (0.432759)
Outpt time (%) = 0.00381195 (0.000179855)
Other time (%) = 2103.6 (99.2518)

Nlocal:    12.925 ave 116 max 0 min
Histogram: 31 1 2 2 1 1 0 0 1 1
Nghost:    1.625 ave 18 max 0 min
Histogram: 32 4 0 1 1 0 0 0 0 2
Neighs:    0.475 ave 5 max 0 min
Histogram: 34 0 1 0 1 0 2 0 0 2

Total # of neighbors = 19
Ave neighs/atom = 0.0367505
Neighbor list builds = 7405
Dangerous builds = 0
Setting up run at Tue Dec 27 23:29:26 2022

Memory usage per processor = 960.195 Mbytes
    Step    Atoms         KinEng            CPU 
30658421      517     0.59519091              0 
30864182      513     0.58968354      2116.7573 
Loop time of 2116.76 on 40 procs for 205761 steps with 513 atoms, finish time Wed Dec 28 00:04:43 2022


Pair  time (%) = 0.416621 (0.019682)
Neigh time (%) = 7.73114 (0.365235)
Comm  time (%) = 10.6554 (0.503384)
Outpt time (%) = 0.000615108 (2.9059e-05)
Other time (%) = 2097.95 (99.1117)

Nlocal:    12.825 ave 120 max 0 min
Histogram: 31 1 3 1 2 0 0 0 1 1
Nghost:    1.65 ave 19 max 0 min
Histogram: 30 5 1 2 0 0 0 0 1 1
Neighs:    0.5 ave 5 max 0 min
Histogram: 32 0 2 0 3 0 1 0 1 1

Total # of neighbors = 20
Ave neighs/atom = 0.0389864
Neighbor list builds = 9143
Dangerous builds = 391
Setting up run at Wed Dec 28 00:04:43 2022

Memory usage per processor = 960.195 Mbytes
    Step    Atoms         KinEng            CPU 
30864182      513     0.58968354              0 
31069943      510     0.57812208      2097.9942 
Loop time of 2097.99 on 40 procs for 205761 steps with 510 atoms, finish time Wed Dec 28 00:39:41 2022


Pair  time (%) = 0.409169 (0.0195029)
Neigh time (%) = 5.06551 (0.241446)
Comm  time (%) = 9.05924 (0.431805)
Outpt time (%) = 0.000515697 (2.45805e-05)
Other time (%) = 2083.46 (99.3072)

Nlocal:    12.75 ave 119 max 0 min
Histogram: 31 1 2 2 2 0 0 0 1 1
Nghost:    1.625 ave 17 max 0 min
Histogram: 31 5 0 0 2 0 0 0 0 2
Neighs:    0.425 ave 3 max 0 min
Histogram: 33 0 0 1 0 0 2 0 0 4

Total # of neighbors = 17
Ave neighs/atom = 0.0333333
Neighbor list builds = 5996
Dangerous builds = 1
Setting up run at Wed Dec 28 00:39:41 2022

Memory usage per processor = 960.195 Mbytes
    Step    Atoms         KinEng            CPU 
31069943      510     0.57812208              0 
31275704      510     0.57633777      2107.6657 
Loop time of 2107.67 on 40 procs for 205761 steps with 510 atoms, finish time Wed Dec 28 01:14:49 2022


Pair  time (%) = 0.408785 (0.0193951)
Neigh time (%) = 6.44185 (0.305639)
Comm  time (%) = 12.0044 (0.569559)
Outpt time (%) = 0.000253354 (1.20206e-05)
Other time (%) = 2088.81 (99.1054)

Nlocal:    12.75 ave 113 max 0 min
Histogram: 31 1 0 5 1 0 0 0 1 1
Nghost:    1.675 ave 21 max 0 min
Histogram: 34 2 1 0 0 1 0 1 0 1
Neighs:    0.625 ave 4 max 0 min
Histogram: 32 0 0 0 0 2 0 3 0 3

Total # of neighbors = 25
Ave neighs/atom = 0.0490196
Neighbor list builds = 7606
Dangerous builds = 0
Setting up run at Wed Dec 28 01:14:49 2022

Memory usage per processor = 960.195 Mbytes
    Step    Atoms         KinEng            CPU 
31275704      510     0.57633777              0 
31481465      508      0.5823688       2119.083 
Loop time of 2119.08 on 40 procs for 205761 steps with 508 atoms, finish time Wed Dec 28 01:50:08 2022


Pair  time (%) = 0.417796 (0.0197159)
Neigh time (%) = 6.29136 (0.29689)
Comm  time (%) = 10.5759 (0.499077)
Outpt time (%) = 0.000533207 (2.51621e-05)
Other time (%) = 2101.8 (99.1843)

Nlocal:    12.7 ave 112 max 0 min
Histogram: 31 1 2 2 2 0 0 0 1 1
Nghost:    1.575 ave 22 max 0 min
Histogram: 34 2 1 1 0 1 0 0 0 1
Neighs:    0.55 ave 6 max 0 min
Histogram: 32 2 0 3 0 0 2 0 0 1

Total # of neighbors = 22
Ave neighs/atom = 0.0433071
Neighbor list builds = 7443
Dangerous builds = 3
Setting up run at Wed Dec 28 01:50:08 2022

Memory usage per processor = 960.195 Mbytes
    Step    Atoms         KinEng            CPU 
31481465      508      0.5823688              0 
31687226      506     0.57607836      2098.1411 
Loop time of 2098.14 on 40 procs for 205761 steps with 506 atoms, finish time Wed Dec 28 02:25:06 2022


Pair  time (%) = 0.412794 (0.0196742)
Neigh time (%) = 5.61495 (0.267615)
Comm  time (%) = 8.25931 (0.393649)
Outpt time (%) = 0.000239826 (1.14304e-05)
Other time (%) = 2083.85 (99.3191)

Nlocal:    12.65 ave 114 max 0 min
Histogram: 31 1 1 3 2 0 0 0 1 1
Nghost:    1.675 ave 18 max 0 min
Histogram: 31 2 3 2 0 0 0 0 1 1
Neighs:    0.575 ave 8 max 0 min
Histogram: 33 2 2 1 0 0 0 1 0 1

Total # of neighbors = 23
Ave neighs/atom = 0.0454545
Neighbor list builds = 6658
Dangerous builds = 399
Setting up run at Wed Dec 28 02:25:06 2022

Memory usage per processor = 960.195 Mbytes
    Step    Atoms         KinEng            CPU 
31687226      506     0.57607836              0 
31892987      504     0.51511024      2108.3156 
Loop time of 2108.32 on 40 procs for 205761 steps with 504 atoms, finish time Wed Dec 28 03:00:14 2022


Pair  time (%) = 0.413542 (0.0196148)
Neigh time (%) = 6.61393 (0.313707)
Comm  time (%) = 9.93975 (0.471454)
Outpt time (%) = 0.000550188 (2.60961e-05)
Other time (%) = 2091.35 (99.1952)

Nlocal:    12.6 ave 113 max 0 min
Histogram: 31 1 0 5 1 0 0 0 1 1
Nghost:    1.9 ave 18 max 0 min
Histogram: 31 3 1 1 0 2 0 0 0 2
Neighs:    0.525 ave 8 max 0 min
Histogram: 31 3 5 0 0 0 0 0 0 1

Total # of neighbors = 21
Ave neighs/atom = 0.0416667
Neighbor list builds = 7822
Dangerous builds = 249
Setting up run at Wed Dec 28 03:00:14 2022

Memory usage per processor = 960.195 Mbytes
    Step    Atoms         KinEng            CPU 
31892987      504     0.51511024              0 
32098748      502     0.54564934      2109.6007 
Loop time of 2109.62 on 40 procs for 205761 steps with 502 atoms, finish time Wed Dec 28 03:35:24 2022


Pair  time (%) = 0.414703 (0.0196577)
Neigh time (%) = 5.77837 (0.273906)
Comm  time (%) = 9.27207 (0.439514)
Outpt time (%) = 0.000269135 (1.27575e-05)
Other time (%) = 2094.15 (99.2669)

Nlocal:    12.55 ave 108 max 0 min
Histogram: 31 1 1 3 2 0 0 0 0 2
Nghost:    1.925 ave 19 max 0 min
Histogram: 30 3 3 1 1 0 0 0 0 2
Neighs:    0.6 ave 7 max 0 min
Histogram: 32 3 0 0 2 2 0 0 0 1

Total # of neighbors = 24
Ave neighs/atom = 0.0478088
Neighbor list builds = 6846
Dangerous builds = 0
Setting up run at Wed Dec 28 03:35:24 2022

Memory usage per processor = 960.195 Mbytes
    Step    Atoms         KinEng            CPU 
32098748      502     0.54564934              0 
32304509      498     0.51566284      2122.5795 
Loop time of 2122.58 on 40 procs for 205761 steps with 498 atoms, finish time Wed Dec 28 04:10:47 2022


Pair  time (%) = 0.419627 (0.0197697)
Neigh time (%) = 7.18578 (0.33854)
Comm  time (%) = 10.5 (0.494682)
Outpt time (%) = 0.000539343 (2.54098e-05)
Other time (%) = 2104.47 (99.147)

Nlocal:    12.45 ave 111 max 0 min
Histogram: 31 1 2 2 1 0 1 0 1 1
Nghost:    1.725 ave 17 max 0 min
Histogram: 29 7 1 0 0 0 0 1 0 2
Neighs:    0.45 ave 7 max 0 min
Histogram: 34 2 1 0 1 1 0 0 0 1

Total # of neighbors = 18
Ave neighs/atom = 0.0361446
Neighbor list builds = 8506
Dangerous builds = 435
Setting up run at Wed Dec 28 04:10:47 2022

Memory usage per processor = 960.195 Mbytes
    Step    Atoms         KinEng            CPU 
32304509      498     0.51566284              0 
32510270      496      0.5019176      2106.9743 
Loop time of 2106.97 on 40 procs for 205761 steps with 496 atoms, finish time Wed Dec 28 04:45:54 2022


Pair  time (%) = 0.414354 (0.0196658)
Neigh time (%) = 5.72202 (0.271575)
Comm  time (%) = 8.5564 (0.406099)
Outpt time (%) = 0.000278603 (1.32229e-05)
Other time (%) = 2092.28 (99.3026)

Nlocal:    12.4 ave 115 max 0 min
Histogram: 31 1 2 3 0 1 0 0 1 1
Nghost:    1.575 ave 18 max 0 min
Histogram: 31 4 2 0 1 0 0 0 1 1
Neighs:    0.5 ave 5 max 0 min
Histogram: 33 0 1 0 3 0 0 0 2 1

Total # of neighbors = 20
Ave neighs/atom = 0.0403226
Neighbor list builds = 6792
Dangerous builds = 657
Setting up run at Wed Dec 28 04:45:54 2022

Memory usage per processor = 960.195 Mbytes
    Step    Atoms         KinEng            CPU 
32510270      496      0.5019176              0 
32716031      494     0.47936705      2099.0963 
slurmstepd: error: *** JOB 14676764 ON r02c20 CANCELLED AT 2022-12-28T06:00:11 DUE TO TIME LIMIT ***
srun: Job step aborted: Waiting up to 62 seconds for job step to finish.
slurmstepd: error: *** STEP 14676764.0 ON r02c20 CANCELLED AT 2022-12-28T06:00:11 DUE TO TIME LIMIT ***

SIGINT/SIGTERM caught - Writing restart on next occasion and quitting after that.

SIGINT/SIGTERM caught - Writing restart on next occasion and quitting after that.

SIGINT/SIGTERM caught - Writing restart on next occasion and quitting after that.

SIGINT/SIGTERM caught - Writing restart on next occasion and quitting after that.

SIGINT/SIGTERM caught - Writing restart on next occasion and quitting after that.

SIGINT/SIGTERM caught - Writing restart on next occasion and quitting after that.

SIGINT/SIGTERM caught - Writing restart on next occasion and quitting after that.

SIGINT/SIGTERM caught - Writing restart on next occasion and quitting after that.

SIGINT/SIGTERM caught - Writing restart on next occasion and quitting after that.

SIGINT/SIGTERM caught - Writing restart on next occasion and quitting after that.

SIGINT/SIGTERM caught - Writing restart on next occasion and quitting after that.

SIGINT/SIGTERM caught - Writing restart on next occasion and quitting after that.

SIGINT/SIGTERM caught - Writing restart on next occasion and quitting after that.

SIGINT/SIGTERM caught - Writing restart on next occasion and quitting after that.

SIGINT/SIGTERM caught - Writing restart on next occasion and quitting after that.

SIGINT/SIGTERM caught - Writing restart on next occasion and quitting after that.

SIGINT/SIGTERM caught - Writing restart on next occasion and quitting after that.

SIGINT/SIGTERM caught - Writing restart on next occasion and quitting after that.

SIGINT/SIGTERM caught - Writing restart on next occasion and quitting after that.

SIGINT/SIGTERM caught - Writing restart on next occasion and quitting after that.

SIGINT/SIGTERM caught - Writing restart on next occasion and quitting after that.

SIGINT/SIGTERM caught - Writing restart on next occasion and quitting after that.

SIGINT/SIGTERM caught - Writing restart on next occasion and quitting after that.

SIGINT/SIGTERM caught - Writing restart on next occasion and quitting after that.

SIGINT/SIGTERM caught - Writing restart on next occasion and quitting after that.

SIGINT/SIGTERM caught - Writing restart on next occasion and quitting after that.

SIGINT/SIGTERM caught - Writing restart on next occasion and quitting after that.

SIGINT/SIGTERM caught - Writing restart on next occasion and quitting after that.

SIGINT/SIGTERM caught - Writing restart on next occasion and quitting after that.
Loop time of 2099.1 on 40 procs for 205761
SIGINT/SIGTERM caught - Writing restart on next occasion and quitting after that.

SIGINT/SIGTERM caught - Writing restart on next occasion and quitting after that.

SIGINT/SIGTERM caught - Writing restart on next occasion and quitting after that.

SIGINT/SIGTERM caught - Writing restart on next occasion and quitting after that.

SIGINT/SIGTERM caught - Writing restart on next occasion and quitting after that.

SIGINT/SIGTERM caught - Writing restart on next occasion and quitting after that.

SIGINT/SIGTERM caught - Writing restart on next occasion and quitting after that.

SIGINT/SIGTERM caught - Writing restart on next occasion and quitting after that.

SIGINT/SIGTERM caught - Writing restart on next occasion and quitting after that.

SIGINT/SIGTERM caught - Writing restart on next occasion and quitting after that.

SIGINT/SIGTERM caught - Writing restart on next occasion and quitting after that.

SIGINT/SIGTERM caught - Writing restart on next occasion and quitting after that.

SIGINT/SIGTERM caught - Writing restart on next occasion and quitting after that.

SIGINT/SIGTERM caught - Writing restart on next occasion and quitting after that.

SIGINT/SIGTERM caught - Writing restart on next occasion and quitting after that.

SIGINT/SIGTERM caught - Writing restart on next occasion and quitting after that.

SIGINT/SIGTERM caught - Writing restart on next occasion and quitting after that.

SIGINT/SIGTERM caught - Writing restart on next occasion and quitting after that.

SIGINT/SIGTERM caught - Writing restart on next occasion and quitting after that.

SIGINT/SIGTERM caught - Writing restart on next occasion and quitting after that.

SIGINT/SIGTERM caught - Writing restart on next occasion and quitting after that.

SIGINT/SIGTERM caught - Writing restart on next occasion and quitting after that.

SIGINT/SIGTERM caught - Writing restart on next occasion and quitting after that.

SIGINT/SIGTERM caught - Writing restart on next occasion and quitting after that.

SIGINT/SIGTERM caught - Writing restart on next occasion and quitting after that.

SIGINT/SIGTERM caught - Writing restart on next occasion and quitting after that.

SIGINT/SIGTERM caught - Writing restart on next occasion and quitting after that.

SIGINT/SIGTERM caught - Writing restart on next occasion and quitting after that.

SIGINT/SIGTERM caught - Writing restart on next occasion and quitting after that.

SIGINT/SIGTERM caught - Writing restart on next occasion and quitting after that.

SIGINT/SIGTERM caught - Writing restart on next occasion and quitting after that.

SIGINT/SIGTERM caught - Writing restart on next occasion and quitting after that.

SIGINT/SIGTERM caught - Writing restart on next occasion and quitting after that.

SIGINT/SIGTERM caught - Writing restart on next occasion and quitting after that.

SIGINT/SIGTERM caught - Writing restart on next occasion and quitting after that.

SIGINT/SIGTERM caught - Writing restart on next occasion and quitting after that.

SIGINT/SIGTERM caught - Writing restart on next occasion and quitting after that.

SIGINT/SIGTERM caught - Writing restart on next occasion and quitting after that.

SIGINT/SIGTERM caught - Writing restart on next occasion and quitting after that.

SIGINT/SIGTERM caught - Writing restart on next occasion and quitting after that.

SIGINT/SIGTERM caught - Writing restart on next occasion and quitting after that.

SIGINT/SIGTERM caught - Writing restart on next occasion and quitting after that.

SIGINT/SIGTERM caught - Writing restart on next occasion and quitting after that.

SIGINT/SIGTERM caught - Writing restart on next occasion and quitting after that.

SIGINT/SIGTERM caught - Writing restart on next occasion and quitting after that.

SIGINT/SIGTERM caught - Writing restart on next occasion and quitting after that.

SIGINT/SIGTERM caught - Writing restart on next occasion and quitting after that.

SIGINT/SIGTERM caught - Writing restart on next occasion and quitting after that.

SIGINT/SIGTERM caught - Writing restart on next occasion and quitting after that.

SIGINT/SIGTERM caught - Writing restart on next occasion and quitting after that.

SIGINT/SIGTERM caught - Writing restart on next occasion and quitting after that.
