ITEM: TIMESTEP
5092562
ITEM: NUMBER OF ATOMS
497
ITEM: BOX BOUNDS ff ff ff
-0.15 0.15
-0.15 0.15
-0.15 0.15
ITEM: ATOMS id type x y z radius vx vy vz density 
98 1 -0.00360095 -0.0413078 -0.0680587 0.000847 -22.8842 1.34982 1.21055 2650 
300 1 -0.014467 -0.0383485 -0.067228 0.000233 -24.5163 -3.51403 5.27572 2650 
33 1 -0.0176482 -0.0185049 -0.0658287 0.000847 -16.8471 2.41664 4.51622 2650 
194 1 -0.0213338 -0.00516039 -0.0653741 0.000233 -22.1844 -0.38742 7.23949 2650 
334 1 -0.023795 -0.0485172 -0.0638646 0.000847 -15.7735 -2.80349 5.87628 2650 
382 1 -0.0253633 -0.0127231 -0.0632599 0.000847 -20.9038 -3.90538 8.37771 2650 
10 1 -0.0399039 -0.0604719 -0.0560052 0.000233 -12.0516 1.20209 8.58613 2650 
46 1 -0.0418356 -0.0128193 -0.0538019 0.000847 -0.138134 -0.42014 0.107388 2650 
436 1 -0.0437993 -0.0466773 -0.0522216 0.000847 -12.2334 -2.14441 10.2525 2650 
335 1 -0.0412647 -0.0220108 -0.0520007 0.000233 -1.38141 -1.06838 -1.44405 2650 
337 1 -0.0499025 -0.055721 -0.0473155 0.000233 -6.88413 -3.51338 7.25839 2650 
181 1 -0.0593532 -0.0191009 -0.0347377 0.000233 -23.211 6.02928 39.6508 2650 
259 1 -0.0598282 -0.0134098 -0.0339133 0.000233 -22.9307 17.8516 40.4458 2650 
473 1 -0.0641199 -0.0510199 -0.0231405 0.000847 0.722749 1.93042 -2.00109 2650 
371 1 -0.00953295 -0.00543028 -0.0218232 0.000847 -1.17232 -0.308863 -2.51387 2650 
360 1 -0.008207 -0.00249448 -0.012559 0.000847 0 -0.01175 0 2650 
86 1 -0.00627117 -0.00201434 -0.0110742 0.000847 -0.000103446 -0.0116296 -2.98029e-05 2650 
459 1 -0.000128316 -0.00188155 -0.0112907 0.000847 -0.07664 -0.0126553 0.0176381 2650 
282 1 -0.00173587 -0.00121919 -0.00979153 0.000847 -0.0842624 -0.0174213 0.0409406 2650 
487 1 -0.00547 -0.00213848 -0.008469 0.000847 0 -0.01175 0 2650 
155 1 -0.00254685 -0.00143924 -0.00844682 0.000233 -0.0594987 -0.0161944 0.0410294 2650 
304 1 -0.0124364 -0.00291414 -0.00661381 0.000847 -0.0158203 -0.000685189 0.0037065 2650 
402 1 -0.012528 -0.00193648 -0.0071 0.000233 0 -0.01175 0 2650 
53 1 -0.011013 -0.00196648 -0.007695 0.000233 0 -0.01175 0 2650 
31 1 -0.0140798 -0.00110351 -0.00636775 0.000847 0.00315239 -0.0205367 0.000105283 2650 
410 1 -0.0680036 -0.00873762 -0.00487085 0.000847 -2.08539 -4.37948 29.0954 2650 
85 1 -0.0144645 -0.00208892 -0.00490219 0.000847 -0.00100994 -0.017203 0.0051437 2650 
125 1 -0.003357 -0.000915476 -0.006037 0.000847 0 -0.01175 0 2650 
97 1 -0.009673 -0.00253548 -0.003235 0.000847 0 -0.01175 0 2650 
326 1 -0.00235202 -4.37071e-05 -0.00361812 0.000233 -0.0279408 -0.0115234 -0.00284728 2650 
445 1 -0.00607733 -0.00313296 -0.00225904 0.001312 -0.00235036 -0.0122142 -0.00067426 2650 
378 1 -0.001584 -0.00232548 -0.002895 0.000233 0 -0.01175 0 2650 
345 1 -0.0118265 -0.000209227 -0.00275739 0.000847 0.00932488 0.00546524 0.0047395 2650 
384 1 -0.00172089 -0.000265356 -0.00186004 0.000847 0.00318935 -0.0011335 0.0232617 2650 
61 1 -0.000548 -0.00154848 -0.001635 0.000847 0 -0.01175 0 2650 
182 1 -0.0687716 -0.0116592 -0.000225869 0.000233 -0.0634248 -3.30072 19.3067 2650 
519 1 -0.014357 -0.00264748 -0.000107 0.000233 0 -0.01175 0 2650 
118 1 -0.006006 -0.00173048 -0.001449 0.000233 0 -0.01175 0 2650 
315 1 -0.00376795 -0.00297459 -0.000853932 0.001312 -0.00643685 -0.0199935 0.0159573 2650 
101 1 -0.007806 -0.00224848 0.002945 0.000233 0 -0.01175 0 2650 
189 1 -0.00386511 -0.000180111 0.00209367 0.000847 -0.0182469 -0.017679 -0.0212515 2650 
440 1 -0.016002 -0.00108593 0.00414035 0.000233 0.00637766 0.0032616 -0.0067895 2650 
218 1 -0.012593 -0.00132948 0.003611 0.000233 0 -0.01175 0 2650 
429 1 -0.00692 -0.00290148 0.005955 0.000233 0 -0.01175 0 2650 
117 1 -0.006406 -0.00215848 0.006156 0.000233 0 -0.01175 0 2650 
264 1 -0.00434358 -0.00162416 0.00526964 0.000847 -0.0115001 -0.0210474 0.00314473 2650 
314 1 -0.012863 -0.00200348 0.007925 8.4e-05 0 -0.01175 0 2650 
448 1 -0.00639575 -0.0028447 0.00859033 0.000847 -0.00569405 -0.00959738 -0.00567433 2650 
47 1 -0.0674229 -0.0231348 0.0100839 0.000847 2.50158 -1.34887 16.7143 2650 
92 1 -0.012301 -0.00314848 0.010509 0.000233 0 -0.01175 0 2650 
341 1 -0.0485317 -0.0101222 0.0119512 0.001312 -7.2864 -0.517107 1.75548 2650 
350 1 -0.001594 -0.000358476 0.011915 0.000233 0 -0.01175 0 2650 
415 1 -0.0670946 -0.0171691 0.0150958 0.000233 6.00533 -2.42308 26.6857 2650 
420 1 -0.00701681 -0.00312549 0.0140464 0.000847 0.0107624 -0.0102547 -0.000846324 2650 
26 1 -0.0671938 -0.00932604 0.0146459 0.000233 2.21642 -1.46518 10.1665 2650 
114 1 -0.004861 -0.00312848 0.015786 0.000233 0 -0.01175 0 2650 
327 1 -0.003487 -0.00187748 0.015912 8.4e-05 0 -0.01175 0 2650 
100 1 -0.0646093 -0.0312023 0.0217395 0.000847 2.42962 0.208054 7.21516 2650 
452 1 -0.0630534 -0.0446062 0.027453 0.000233 4.69491 -4.55402 10.7807 2650 
140 1 -0.0624497 -0.0237257 0.0287996 0.000233 4.32553 1.53646 9.37746 2650 
481 1 -0.00160624 -0.00390141 0.033015 0.000233 -0.241447 -0.0874011 4.91669 2650 
113 1 -0.0539197 -0.0327991 0.0417008 0.000847 9.86995 -3.50776 12.752 2650 
52 1 -0.0518165 -0.0204273 0.0452123 0.000233 9.75976 -2.94772 11.1824 2650 
138 1 -0.0496579 -0.0566355 0.0466893 0.000847 9.15198 1.67639 9.72583 2650 
344 1 -0.030455 -0.00201588 0.0609704 0.000847 13.3589 -0.879171 6.67162 2650 
185 1 -0.0235803 -0.0122865 0.0634503 0.001312 14.8364 -2.27025 5.51085 2650 
433 1 -0.0232948 -0.00874891 0.0640485 0.000847 13.8281 -0.444692 5.02911 2650 
359 1 -0.0134872 -0.0224973 0.0668052 0.000847 12.3066 -1.1734 2.48453 2650 
35 1 -0.00914587 -0.00163132 0.0675366 0.000847 11.8145 0.542607 1.59993 2650 
148 1 -0.000842194 -0.0350525 0.068148 0.000847 17.2524 -0.915383 0.213207 2650 
507 1 -0.00546577 -0.0153086 0.0685494 0.000233 16.5619 0.317742 1.32056 2650 
239 1 -0.06105 -0.0581606 0.0303304 0.000847 8.3127 -1.25242 16.7201 2650 
217 1 -0.000259954 0.00169665 -0.0148013 0.000847 -0.0670367 -0.00575689 -0.00632068 2650 
501 1 -0.00483262 0.00390914 -0.0143665 0.000847 0.00684911 0.000581338 -0.00586792 2650 
246 1 -0.0078216 0.00497973 -0.0147416 0.000233 -0.0807454 -0.000796052 0.0605769 2650 
37 1 -0.007724 0.00635952 -0.014299 0.000233 0 -0.01175 0 2650 
49 1 -0.006313 0.00539252 -0.014865 0.000233 0 -0.01175 0 2650 
143 1 -0.00507068 0.00696039 -0.0157322 0.000233 -0.083253 -0.00197236 0.0494402 2650 
309 1 -0.00692909 0.00941538 -0.0150439 0.000233 -0.0330938 0.0164099 0.037656 2650 
165 1 -0.00414661 0.0085286 -0.0154433 0.000847 -0.0635873 0.0512448 -0.00351431 2650 
370 1 -0.00386165 0.0120834 -0.0155224 0.000847 -0.132438 0.0842886 0.0246271 2650 
70 1 -0.00620302 0.0141343 -0.0145213 0.000847 -0.0866275 0.0830767 0.0409256 2650 
356 1 -0.00247219 0.0158663 -0.0155496 0.000847 -0.0410279 0.0833667 0.014721 2650 
418 1 -0.00339386 0.0199932 -0.0145284 8.4e-05 -0.0976761 0.0487142 0.0093005 2650 
395 1 -0.00720919 0.00146003 -0.0136045 0.000847 0.0197759 -0.00095831 -0.00408132 2650 
386 1 -0.00206249 0.000641813 -0.0140311 0.000847 -0.0706649 -0.0252324 -0.0086421 2650 
224 1 -0.00508202 0.00186161 -0.0132829 0.001312 0.0215013 -0.00589233 -0.000971849 2650 
234 1 -0.003242 0.00267452 -0.013015 0.000233 0 -0.01175 0 2650 
175 1 -0.000807108 0.00195348 -0.0129505 0.000847 -0.0232376 -0.0049857 -0.0265937 2650 
36 1 -0.008519 0.00562252 -0.013643 0.000233 0 -0.01175 0 2650 
68 1 -0.0064753 0.00572483 -0.0128978 0.001312 -0.00757057 -0.0178471 0.00677163 2650 
422 1 -0.000333 0.00613252 -0.012757 0.000847 0 -0.01175 0 2650 
16 1 -0.00597891 0.00818628 -0.0141437 0.001312 -0.053175 0.0194249 0.0372199 2650 
273 1 -5.56837e-05 0.00955679 -0.0129843 0.000233 -0.0161497 -0.0150158 -0.0145083 2650 
48 1 -0.00706314 0.0104354 -0.0142049 0.000847 -0.0819588 0.0197777 0.00407196 2650 
233 1 -0.00677824 0.00428922 -0.0123664 0.000233 -0.00315758 -0.0214833 0.00440331 2650 
343 1 -0.003612 0.00539752 -0.01107 0.000847 0 -0.01175 0 2650 
76 1 -0.005578 0.00678552 -0.011829 0.000233 0 -0.01175 0 2650 
198 1 -0.00512592 0.00984979 -0.0116558 0.001312 -0.0209768 0.0176121 0.0167916 2650 
368 1 -0.00441409 0.01675 -0.011216 0.000847 0.0335713 0.0207598 0.00538703 2650 
482 1 -0.00720689 0.0184553 -0.0119281 0.000233 -0.0226473 0.0467204 -0.0303994 2650 
29 1 -0.00830142 0.000531046 -0.0106918 0.001312 0.00104881 -0.0137933 -0.00176511 2650 
160 1 -0.00517942 0.000622308 -0.009716 0.001312 -0.0110883 -0.00933976 0.0086581 2650 
133 1 -0.00262225 0.00150152 -0.0110427 0.001312 -0.0178368 -0.00411587 0.0142871 2650 
449 1 -0.00117358 0.000776703 -0.00947601 0.000847 3.16897e-06 -0.0117562 7.50475e-05 2650 
271 1 -0.005149 0.00275552 -0.010304 0.000233 0 -0.01175 0 2650 
287 1 -0.00460987 0.00186217 -0.0107752 0.000233 -0.0244942 -0.0167275 -0.0034175 2650 
95 1 -0.007267 0.00355052 -0.011007 0.001312 0 -0.01175 0 2650 
435 1 -0.005486 0.00483352 -0.011036 0.000847 0 -0.01175 0 2650 
13 1 -0.012448 0.00653552 -0.010914 8.4e-05 0 -0.01175 0 2650 
69 1 -0.00959 0.00690652 -0.010713 0.001312 0 -0.01175 0 2650 
392 1 -0.003997 0.00712652 -0.009609 8.4e-05 0 -0.01175 0 2650 
209 1 -0.001802 0.00795452 -0.011003 0.000233 0 -0.01175 0 2650 
146 1 -0.000512479 0.006764 -0.0104638 0.001312 0.00218217 -0.00449572 -0.00190306 2650 
419 1 -0.0150642 0.0705627 -0.0106821 0.001312 -0.829758 0.392999 -0.798052 2650 
289 1 -0.0125465 0.00267208 -0.00910221 0.001312 0.00198349 -0.0124475 0.00209368 2650 
468 1 -0.0103179 0.00229223 -0.00854886 0.000233 0.00112078 -0.0133423 -0.00397386 2650 
164 1 -0.00927125 0.00197584 -0.00932244 0.000847 -0.000948101 -0.0131065 -0.000990191 2650 
455 1 -0.006244 0.00265452 -0.008207 0.000233 0 -0.01175 0 2650 
407 1 -0.002601 0.00306552 -0.009363 0.000847 0 -0.01175 0 2650 
336 1 -0.000699 0.00387252 -0.008095 0.000233 0 -0.01175 0 2650 
251 1 -0.00846832 0.00709853 -0.00838499 0.000847 0.0375376 0.0174978 -0.0442078 2650 
332 1 -0.013253 0.00926652 -0.008686 0.000847 0 -0.01175 0 2650 
348 1 -0.011402 0.00807152 -0.008993 0.000233 0 -0.01175 0 2650 
147 1 -0.00451177 0.00864896 -0.00896487 0.001312 -0.00359217 -0.00275638 0.0115885 2650 
391 1 -0.000391331 0.00876972 -0.00805418 0.000233 0.0202642 0.019737 -0.00497997 2650 
66 1 -0.0106414 0.0216396 -0.00800854 0.000233 -0.00952687 0.0365334 -0.00433662 2650 
291 1 -0.00612104 0.0407574 -0.00853425 0.000847 -0.0166683 0.214433 -0.103918 2650 
266 1 -0.012074 0.00153452 -0.006827 0.000847 0 -0.01175 0 2650 
483 1 -0.010366 0.000766524 -0.006716 8.4e-05 0 -0.01175 0 2650 
347 1 -0.0091404 0.000971403 -0.00650534 0.000847 0.00623302 -0.019391 -0.000171357 2650 
60 1 -0.005537 0.00174352 -0.006955 0.000847 0 -0.01175 0 2650 
136 1 -0.003358 0.00255852 -0.00699 0.000847 0 -0.01175 0 2650 
51 1 -0.00641445 0.00399733 -0.00715143 0.000233 -0.021407 -0.0405153 0.00518574 2650 
324 1 -0.004804 0.00349452 -0.006739 0.000233 0 -0.01175 0 2650 
158 1 -0.004052 0.00469852 -0.007417 8.4e-05 0 -0.01175 0 2650 
316 1 -0.0068318 0.00499376 -0.00777743 0.000847 -0.0846958 -0.0178856 0.0145294 2650 
512 1 -0.00458217 0.00703874 -0.00752756 0.000847 -0.0200643 -0.0106556 -0.00735792 2650 
464 1 -3.2e-05 0.00772652 -0.007535 0.000233 0 -0.01175 0 2650 
216 1 -0.00184504 0.00833587 -0.00728967 0.000847 0.00347878 0.0283419 0.0066285 2650 
188 1 -0.00862963 0.0196171 -0.00749858 0.000847 -0.0331799 0.0192545 -0.0803013 2650 
248 1 -0.0141401 0.00313456 -0.00482298 0.000233 0.00323949 -0.00754655 -0.0117901 2650 
15 1 -0.00334699 0.00686885 -0.00573412 0.001312 0.00361292 0.0108949 -0.0143814 2650 
79 1 -0.009334 0.00800852 -0.006031 0.000233 0 -0.01175 0 2650 
199 1 -0.00552989 0.0107173 -0.00498186 0.001312 -0.0149642 0.00254045 -0.00725036 2650 
72 1 -0.00411455 0.0217096 -0.00497944 0.000847 -0.0206207 0.0396561 -0.0248414 2650 
286 1 -0.016281 0.000998524 -0.003576 0.000233 0 -0.01175 0 2650 
306 1 -0.011393 0.000372524 -0.004559 0.000847 0 -0.01175 0 2650 
229 1 -0.0155415 0.00236833 -0.00376363 0.000847 -0.00027552 -0.0118241 -8.69851e-05 2650 
237 1 -0.00158688 0.00168448 -0.00411274 0.001312 -0.0017906 -0.00403287 -0.0034818 2650 
466 1 -0.015616 0.00411652 -0.003521 0.000233 0 -0.01175 0 2650 
478 1 -0.010102 0.00452052 -0.003546 0.000233 0 -0.01175 0 2650 
225 1 -0.00115766 0.00519921 -0.00427798 0.001312 -0.0221233 0.0161333 -5.12453e-05 2650 
2 1 -0.0122096 0.00676783 -0.00472238 0.001312 0.0103384 -0.00554141 -0.00797345 2650 
467 1 -0.0106673 0.00683901 -0.0039835 0.000233 0.0111357 -0.00941469 0.000972394 2650 
112 1 -0.009312 0.00730552 -0.004659 0.000847 0 -0.01175 0 2650 
145 1 -0.007489 0.00751852 -0.00326 8.4e-05 0 -0.01175 0 2650 
413 1 -0.0020515 0.00682556 -0.00443615 0.000233 -0.00414707 0.0141738 0.000801229 2650 
149 1 -0.0120499 0.009082 -0.00410118 0.000847 0.00364223 -0.00195496 -0.000131579 2650 
331 1 -0.0148107 0.0100373 -0.00406523 0.000847 0.00640981 0.0229006 -0.00879041 2650 
404 1 -0.0161213 0.0156622 -0.00385842 0.000233 -0.0535462 0.0801028 0.210452 2650 
267 1 -0.0136745 0.0293997 -0.00451099 0.000847 -0.0368281 0.141529 -0.0933362 2650 
505 1 -0.0124189 0.000394955 -0.00199318 0.000233 -0.00378522 -0.00213289 0.00845565 2650 
84 1 -0.004923 0.000971524 -0.002038 0.000847 0 -0.01175 0 2650 
168 1 -0.011097 0.00231052 -0.001986 0.000233 0 -0.01175 0 2650 
312 1 -0.006897 0.00602652 -0.002463 0.000233 0 -0.01175 0 2650 
399 1 -0.00283 0.00614652 -0.001648 0.000847 0 -0.01175 0 2650 
301 1 -0.000431 0.00625952 -0.003081 8.4e-05 0 -0.01175 0 2650 
285 1 -0.004117 0.00710152 -0.002186 0.000233 0 -0.01175 0 2650 
245 1 -0.015895 0.00797852 -0.001607 0.000233 0 -0.01175 0 2650 
204 1 -0.005796 0.00858452 -0.002651 0.000847 0 -0.01175 0 2650 
214 1 -0.001591 0.00916152 -0.002687 0.000847 0 -0.01175 0 2650 
63 1 -0.000147 0.00937952 -0.0027 0.000233 0 -0.01175 0 2650 
201 1 -0.005857 0.00270552 -0.001367 0.000847 0 -0.01175 0 2650 
208 1 -0.003072 0.00414452 -0.000554 0.000233 0 -0.01175 0 2650 
75 1 -0.004976 0.00751252 -0.001105 0.000233 0 -0.01175 0 2650 
421 1 -0.000175196 0.0070622 -0.000460707 0.000847 0.0267721 0.0287571 -0.0645351 2650 
186 1 -0.0153969 0.00902787 -1.78788e-05 0.001312 0.00118346 -0.00704862 -0.000609313 2650 
3 1 -0.0156625 0.0160364 -0.00120314 0.000847 -0.00406919 -0.0378688 0.161074 2650 
310 1 -0.00581452 0.00311883 8.38539e-05 0.000233 -0.0908326 -0.0132465 -0.0354539 2650 
373 1 -0.015091 0.00374452 0.000947 0.000847 0 -0.01175 0 2650 
115 1 -0.00624492 0.00333538 0.000903848 0.000233 -0.0755096 -0.032661 0.0052106 2650 
450 1 -0.0159561 0.00675052 0.00134007 0.000847 0.00112582 -0.00909708 0.011959 2650 
504 1 -0.012481 0.00873052 0.001551 0.000233 0 -0.01175 0 2650 
22 1 -0.0116035 0.0109067 0.000997878 0.000233 0.0769922 0.0166527 -0.00962315 2650 
474 1 -0.00850779 0.0099286 0.000560186 0.000847 0.0292048 0.0292379 0.00704819 2650 
517 1 -0.00777267 0.0118082 0.000874004 0.000233 0.0308496 0.037053 0.00878162 2650 
323 1 -0.008651 0.00129152 0.002916 0.000233 0 -0.01175 0 2650 
364 1 -0.0139 0.00195352 0.002152 0.000233 0 -0.01175 0 2650 
242 1 -0.0104978 0.00677136 0.00256625 0.000847 0.00481936 -0.00755399 -0.00763936 2650 
376 1 -0.005395 0.00700252 0.002758 0.000233 0 -0.01175 0 2650 
174 1 -0.00218635 0.00885371 0.00313358 0.000847 -0.00529512 0.0310044 -0.000393603 2650 
137 1 -0.00861178 0.0146971 0.0017954 0.000847 -0.0419939 0.031769 0.00899049 2650 
172 1 -0.00332339 0.015968 0.00237776 0.001312 -0.0177287 0.0452829 -0.0259387 2650 
441 1 -0.014312 0.00142952 0.004679 0.000233 0 -0.01175 0 2650 
302 1 -0.01139 0.00112452 0.00396 0.001312 0 -0.01175 0 2650 
206 1 -0.002945 0.00209952 0.003686 0.000233 0 -0.01175 0 2650 
56 1 -0.0116151 0.00553858 0.00406267 0.001312 0.00271084 -0.0117724 -0.00958323 2650 
131 1 -0.009967 0.00685252 0.004313 0.000233 0 -0.01175 0 2650 
156 1 -0.015257 0.00811152 0.00371 0.000233 0 -0.01175 0 2650 
296 1 -0.002285 0.00869152 0.004233 0.000233 0 -0.01175 0 2650 
470 1 -0.008539 0.00975052 0.004033 8.4e-05 0 -0.01175 0 2650 
374 1 -0.006913 0.00965752 0.00361 0.000233 0 -0.01175 0 2650 
274 1 -0.005863 0.00120452 0.005228 0.000233 0 -0.01175 0 2650 
195 1 -0.014509 0.00241052 0.005621 0.000233 0 -0.01175 0 2650 
135 1 -0.008556 0.00398552 0.005239 0.000847 0 -0.01175 0 2650 
431 1 -0.007173 0.00347352 0.006023 8.4e-05 0 -0.01175 0 2650 
223 1 -0.014414 0.00614452 0.005039 8.4e-05 0 -0.01175 0 2650 
321 1 -0.0136777 0.00584537 0.00607032 0.000847 -0.0126768 -0.0048934 -0.0100559 2650 
469 1 -0.012765 0.00739152 0.005129 0.000233 0 -0.01175 0 2650 
90 1 -0.009269 0.00763452 0.005356 0.000233 0 -0.01175 0 2650 
361 1 -0.012031 0.00900952 0.0053 0.000233 0 -0.01175 0 2650 
62 1 -0.0127536 0.0047147 0.00760723 0.000233 0.261555 0.398962 0.0797621 2650 
283 1 -0.00727 0.00516052 0.006824 0.000233 0 -0.01175 0 2650 
256 1 -0.00476396 0.00547676 0.00669825 0.000847 -0.00426754 -0.0114665 0.00611625 2650 
196 1 -0.00803476 0.00692547 0.00787972 0.000233 -0.000496307 0.0280491 0.0192263 2650 
369 1 -0.00808029 0.00750475 0.00677208 0.000847 -0.000282964 -0.0121306 0.000366156 2650 
355 1 -0.012705 0.00858752 0.006672 0.000847 0 -0.01175 0 2650 
244 1 -0.00705807 0.0128283 0.00712011 0.000233 -0.0362331 0.0155037 0.00755332 2650 
319 1 -0.0120681 0.00212549 0.00940343 0.000847 0.0555277 0.25912 0.122745 2650 
88 1 -0.010473 0.00504252 0.008034 0.000233 0 -0.01175 0 2650 
130 1 -0.004749 0.00524352 0.009456 0.000233 0 -0.01175 0 2650 
417 1 -0.001923 0.00530952 0.008831 0.000233 0 -0.01175 0 2650 
45 1 -0.001763 0.00636752 0.008462 0.000847 0 -0.01175 0 2650 
462 1 -0.013341 0.00752652 0.008656 0.000847 0 -0.01175 0 2650 
152 1 -0.00108639 0.00862991 0.00802421 0.000847 0.0138278 -0.0123671 0.00800378 2650 
41 1 -0.008377 0.00147852 0.009542 8.4e-05 0 -0.01175 0 2650 
372 1 -0.0105677 0.00206291 0.0103026 0.000847 0.151267 0.0191392 0.103835 2650 
219 1 -0.00871133 0.00326962 0.00990797 0.000233 0.00849933 0.00349453 -0.0201485 2650 
176 1 -0.003497 0.00350452 0.009518 0.000847 0 -0.01175 0 2650 
509 1 -0.001563 0.00489852 0.010036 8.4e-05 0 -0.01175 0 2650 
518 1 -0.011612 0.00636552 0.01181 0.000233 0 -0.01175 0 2650 
226 1 -0.005007 0.00510152 0.011519 0.000847 0 -0.01175 0 2650 
235 1 -0.00605 0.00596552 0.012276 0.000233 0 -0.01175 0 2650 
73 1 -0.010447 0.00670452 0.011428 0.000847 0 -0.01175 0 2650 
128 1 -0.003888 0.00678452 0.011415 0.000233 0 -0.01175 0 2650 
516 1 -0.010492 0.00823952 0.012435 0.000233 0 -0.01175 0 2650 
313 1 -0.004641 0.00943052 0.011299 0.000233 0 -0.01175 0 2650 
475 1 -0.000936959 0.0153263 0.0123335 0.000847 0.0425421 0.0375382 0.0180267 2650 
180 1 -0.005697 0.00400452 0.013052 0.000233 0 -0.01175 0 2650 
379 1 -0.006906 0.00601552 0.013866 8.4e-05 0 -0.01175 0 2650 
443 1 -0.004264 0.00548352 0.013262 0.000233 0 -0.01175 0 2650 
192 1 -0.009107 0.00664852 0.013183 0.000233 0 -0.01175 0 2650 
416 1 -0.0091157 0.0457674 0.013652 0.000233 -0.0626955 0.097572 -0.0538229 2650 
295 1 -0.00782426 0.0493559 0.0138872 0.000847 0.345185 0.207377 0.185053 2650 
18 1 -0.00147242 0.00062672 0.014796 0.000847 -0.0122302 0.0404071 -0.164972 2650 
311 1 -0.002572 0.00250352 0.015752 0.000233 0 -0.01175 0 2650 
9 1 -0.000568362 0.00167719 0.0148325 0.000233 0.0606085 0.0834089 -0.0661078 2650 
430 1 -0.000953411 0.0214454 0.0164149 0.000233 -0.0770387 0.0364555 -0.0189638 2650 
262 1 -0.0610557 0.122881 -0.0319651 8.4e-05 -0.0619993 0.0572555 0.118413 2650 
446 1 -0.0625138 0.0766926 -0.0270216 0.000847 0.193298 0.278585 0.179371 2650 
42 1 -0.00981422 0.0774287 0.0044863 0.001312 -0.116046 0.177736 -0.0102008 2650 
263 1 -0.00987913 0.0854203 0.0124148 0.001312 -0.0730492 0.51538 -0.0338337 2650 
7 1 0.000685467 -0.0593608 -0.0681497 0.000847 -16.8132 1.34079 -0.169293 2650 
522 1 0.000119845 -0.00613016 -0.0689135 8.4e-05 -0.00677846 -0.15215 0.0819741 2650 
460 1 0.0104754 -0.0290595 -0.0673432 0.000847 -12.1125 -1.5107 -1.88411 2650 
21 1 0.010076 -0.0274147 -0.0674041 0.000847 -12.4094 -1.58166 -1.85503 2650 
380 1 0.0143358 -0.0594522 -0.0661595 0.001312 -22.779 -2.44454 -4.93201 2650 
183 1 0.0195429 -0.0564316 -0.0659317 0.000233 -19.8307 0.896474 -5.88074 2650 
173 1 0.0173163 -0.0550821 -0.0654431 0.001312 -22.3979 -2.45176 -5.92169 2650 
278 1 0.0204434 -0.0377179 -0.0650162 0.000847 -21.4763 -2.86617 -6.7508 2650 
367 1 0.0240892 -0.00926219 -0.0632653 0.001312 -20.9213 1.02767 -7.95901 2650 
268 1 0.0307725 -0.0460178 -0.0608132 0.000847 -19.0651 1.06837 -9.64218 2650 
93 1 0.0319393 -0.0283587 -0.0610687 8.4e-05 -84.5471 -1.99394 -44.216 2650 
159 1 0.0353952 -0.0462681 -0.0577136 0.001312 -20.4417 1.9989 -12.5224 2650 
488 1 0.0369236 -0.0216019 -0.0572896 0.000847 -17.9142 -0.00760292 -11.5381 2650 
401 1 0.0316806 -0.0104206 -0.0568779 0.000233 0.709565 -0.375882 -0.90162 2650 
96 1 0.038499 -0.0427017 -0.0562459 0.000847 -20.2996 4.65331 -13.8858 2650 
500 1 0.0417353 -0.0521407 -0.0538838 0.000847 -11.7528 0.231686 -9.0962 2650 
171 1 0.0529577 -0.0330621 -0.0441017 8.4e-05 -2.42737 0.466507 -2.9145 2650 
358 1 0.0535549 -0.0147237 -0.0421688 0.000847 -10.8442 0.0667856 -13.7617 2650 
272 1 0.0575394 -0.0592667 -0.0376626 0.000233 -8.94804 -2.21237 -13.6672 2650 
59 1 0.0593291 -0.0304532 -0.0335675 0.000847 -7.51453 1.37003 -13.2716 2650 
453 1 0.0656426 -0.0181523 -0.0205067 0.000233 -4.68073 -1.51801 -14.9799 2650 
228 1 0.000319927 -0.00186956 -0.0160377 0.000847 -0.0754344 -0.0235127 -0.00348286 2650 
177 1 0.00186714 -0.00259697 -0.0157124 0.000847 -0.0673068 -0.0114255 0.00272606 2650 
141 1 0.0028058 -0.00262619 -0.014163 0.000233 0.00252664 -0.0103723 0.0235767 2650 
494 1 0.0675854 -0.0184942 -0.0127171 0.000233 -1.36686 1.83598 -7.26265 2650 
232 1 0.000698434 -0.000845466 -0.0122866 0.000233 -0.0309363 -0.0339914 0.00282964 2650 
397 1 0.00101725 -0.000442067 -0.0112323 0.000847 -0.0561961 -0.0166065 0.00746526 2650 
110 1 0.00295177 -0.000274456 -0.0125473 0.000847 -0.0552419 -0.00552059 -0.00891742 2650 
129 1 0.00959694 -0.000368555 -0.0122007 0.000233 -0.0644373 0.0167445 -0.0321036 2650 
362 1 0.0101672 -0.0015888 -0.0126123 0.000233 -0.0489923 -0.0138934 -0.0269471 2650 
250 1 0.00860959 -0.00262893 -0.0100525 0.001312 -0.017461 -0.0285616 -0.0175421 2650 
305 1 0.00085 -0.00253648 -0.00923 0.000847 0 -0.01175 0 2650 
67 1 0.00310306 -0.00289773 -0.00912262 8.4e-05 -0.0191881 -0.0455793 0.0401733 2650 
134 1 0.00543533 -0.0024947 -0.00898915 0.001312 -0.0245442 -0.0266426 0.0029586 2650 
330 1 0.001472 -0.000904476 -0.007973 0.000847 0 -0.01175 0 2650 
389 1 0.011221 -0.000148476 -0.009451 0.000233 0 -0.01175 0 2650 
197 1 0.00216376 -0.00262727 -0.00763791 8.4e-05 -0.0259168 -0.0288921 -0.0331175 2650 
339 1 0.001696 -0.000767476 -0.005869 0.000233 0 -0.01175 0 2650 
44 1 0.0680566 -0.0314718 -0.00398555 0.000847 -0.967589 3.79063 -16.5109 2650 
179 1 0.0686762 -0.00627986 -0.00362143 0.000233 0.00117958 -0.147917 0.0223647 2650 
297 1 0.009274 -0.00232948 -0.004716 0.000233 0 -0.01175 0 2650 
284 1 0.0134087 -0.00085969 -0.00415332 0.000233 -0.0239005 -0.0105818 0.026667 2650 
64 1 0.0687111 -0.0292204 -0.00288804 0.000233 -0.586352 -2.81158 -13.9474 2650 
434 1 0.0680794 -0.00773892 -0.00358074 0.000847 -0.922394 0.444324 -17.5251 2650 
393 1 0.00730052 -0.00174947 -0.00268875 0.001312 0.0145571 -0.0442909 0.00901918 2650 
520 1 0.0135978 -0.000613005 -0.00271046 0.000233 0.0103229 -0.0771353 -0.00597826 2650 
454 1 0.009343 -0.00324948 -0.001501 0.000233 0 -0.01175 0 2650 
34 1 0.00894091 -0.00165758 -0.000459548 0.000847 0.0495082 0.0059147 0.00503808 2650 
318 1 0.0120325 -0.00191138 0.000307455 0.000847 0.0780178 -0.0141278 0.00964228 2650 
480 1 0.00564 -0.000263476 0.00063 0.000233 0 -0.01175 0 2650 
427 1 0.01258 -0.000470476 0.000348 0.000233 0 -0.01175 0 2650 
111 1 0.011904 -0.000442476 0.002793 0.000847 0 -0.01175 0 2650 
193 1 0.0687076 -0.0364486 0.00297327 0.000233 0.741086 1.25403 -17.1217 2650 
396 1 0.00531005 -0.00193162 0.00337745 0.000847 0.00155861 -0.0192506 0.0185454 2650 
411 1 0.0681099 -0.00118372 0.00295697 0.000847 0.84091 1.91367 -19.3553 2650 
106 1 0.00181 -0.000547476 0.00562 8.4e-05 0 -0.01175 0 2650 
249 1 0.008036 -0.00147948 0.006254 8.4e-05 0 -0.01175 0 2650 
463 1 0.0677942 -0.0249925 0.0072067 0.000847 2.70171 -0.832589 -25.398 2650 
439 1 0.002533 -0.00193948 0.008747 0.000233 0 -0.01175 0 2650 
65 1 0.00913432 -0.000140702 0.00993757 0.000233 0.0158543 -0.0203427 0.00801213 2650 
465 1 0.02671 -0.00823127 0.0111615 0.000233 8.19934 -2.75994 -0.624095 2650 
277 1 0.0665207 -0.0551616 0.014916 0.000847 3.98268 -1.71609 -17.7489 2650 
231 1 0.00623 -0.00254248 0.014979 0.000233 0 -0.01175 0 2650 
322 1 0.0664355 -0.0327275 0.017771 0.000233 0.0143227 -1.02908 -0.0535328 2650 
241 1 0.0652628 -0.0597641 0.0196979 0.000847 4.35046 1.04652 -14.4033 2650 
280 1 0.0654741 -0.0472018 0.0189842 0.000847 4.15834 2.51638 -14.3311 2650 
124 1 0.0653847 -0.0314645 0.019294 0.000847 5.37228 -0.87387 -18.193 2650 
123 1 0.0656215 -0.00147734 0.018471 0.000847 4.59808 5.79061 -16.3237 2650 
161 1 0.0623192 -0.0185917 0.0276319 0.000847 8.22097 -0.717829 -18.5277 2650 
521 1 0.0633883 -0.00192269 0.0270466 8.4e-05 5.60397 0.38275 -13.1328 2650 
43 1 0.0575655 -0.0473607 0.0356491 0.001312 7.50926 1.90729 -12.1119 2650 
294 1 0.0524944 -0.0432181 0.0434759 0.000847 5.26776 -4.52132 -6.35481 2650 
20 1 0.0524246 -0.0319698 0.0435668 0.000847 13.5728 -2.10037 -16.3193 2650 
442 1 0.0494096 -0.0476158 0.0478303 0.000233 13.1955 -2.63057 -13.6276 2650 
120 1 0.0428963 -0.00131529 0.0523648 0.001312 5.24769 0.324862 -4.30313 2650 
385 1 0.0405366 -0.0423281 0.0547872 0.000847 1.93803 -1.76162 -1.43377 2650 
513 1 0.041351 -0.00782049 0.0541414 0.000847 5.66959 -4.67691 -4.18127 2650 
162 1 0.0393015 -0.0534852 0.055683 0.000847 13.1097 2.07212 -9.24685 2650 
77 1 0.0393021 -0.0269962 0.0564291 0.000233 11.7393 1.35619 -8.17621 2650 
170 1 0.0419845 -0.0586381 0.054482 0.000233 138.826 8.13797 -106.967 2650 
82 1 0.0364932 -0.0371287 0.0570192 0.001312 15.8671 1.98484 -10.1446 2650 
290 1 0.037326 -0.00306964 0.057025 0.000847 12.9577 -1.00942 -8.47696 2650 
57 1 0.0340834 -0.0421024 0.0590193 0.000847 13.1014 0.0859179 -7.57029 2650 
307 1 0.0345142 -0.029957 0.0587676 0.000847 8.33855 -4.78737 -4.89677 2650 
190 1 0.0322088 -0.0540762 0.0600643 0.000847 17.3264 -1.15486 -9.28654 2650 
257 1 0.0285512 -0.00774794 0.0625598 0.000233 12.6336 -0.308931 -5.76574 2650 
458 1 0.0241111 -0.0483747 0.0632531 0.001312 17.7078 0.867621 -6.74492 2650 
317 1 0.0242668 -0.0102461 0.0636866 0.000847 13.2148 -0.890328 -5.03502 2650 
498 1 0.0204561 -0.0528827 0.0650119 0.000847 20.697 0.652776 -6.51056 2650 
243 1 0.0201759 -0.0309089 0.0650989 0.000847 18.9398 2.7198 -5.86891 2650 
78 1 0.0193219 -0.0100002 0.0655861 0.000233 -0.892473 -0.429313 -3.40684 2650 
349 1 0.0141847 -0.0415092 0.0672882 0.000233 15.8041 3.67505 -3.33158 2650 
346 1 0.0141297 -0.0353953 0.0666724 0.000847 16.3349 -1.03462 -3.46184 2650 
127 1 0.018411 -0.0336354 0.0662566 0.000233 20.8811 5.52303 -5.80232 2650 
236 1 0.0156521 -0.0312463 0.067115 8.4e-05 13.2896 1.04102 -3.09941 2650 
269 1 0.00943308 -0.000934515 0.0674975 0.000847 12.6204 -0.285176 -1.69213 2650 
205 1 0.00810125 -0.0372 0.0682884 0.000233 45.5732 0.622305 -5.40624 2650 
424 1 0.000830782 -0.00298804 0.068148 0.000847 14.1542 -0.171671 -0.172547 2650 
414 1 0.0542425 0.0674654 -0.0422715 0.000233 0.133088 -0.201548 0.170731 2650 
153 1 0.00215788 0.00169721 -0.016352 0.000233 -0.0732754 0.0218123 0.0108366 2650 
412 1 0.00158769 0.0217153 -0.0159398 0.000847 -0.0592581 0.121778 -0.00199332 2650 
28 1 0.00117033 0.00147148 -0.0145228 8.4e-05 -0.0858068 0.0250291 -0.0193768 2650 
357 1 0.00170021 0.00081869 -0.0157874 0.000847 -0.0476145 -0.00287948 -0.0121397 2650 
202 1 0.0031939 0.00129089 -0.0150535 0.000847 -0.052856 0.0286931 0.00197391 2650 
408 1 0.00210226 0.00310431 -0.0155845 0.000847 -0.0426071 0.00111028 -0.0447386 2650 
342 1 0.0029705 0.00603156 -0.0147537 0.000847 -0.0145936 -0.0166653 -0.0215129 2650 
366 1 0.005681 0.00795952 -0.015538 8.4e-05 0 -0.01175 0 2650 
157 1 0.00550356 0.00940663 -0.0146777 0.000233 0.0288722 0.0310974 -0.0537254 2650 
351 1 0.00244196 0.0116917 -0.0155616 0.000233 0.0222358 0.0218165 -0.0658727 2650 
12 1 0.00627 0.00677352 -0.013543 0.000233 0 -0.01175 0 2650 
109 1 0.00507364 0.00658949 -0.0135721 0.000847 0.000500365 -0.0150253 -0.0237361 2650 
444 1 0.000432 0.0100365 -0.014191 8.4e-05 0 -0.01175 0 2650 
94 1 0.00394506 0.010706 -0.0134381 0.001312 0.0109607 0.00745545 0.0089216 2650 
365 1 0.00271134 0.0233481 -0.0137959 0.000233 -0.0925811 0.00859955 0.0168886 2650 
398 1 0.00855769 0.0245086 -0.0133928 0.000847 -0.220483 0.35063 -0.155687 2650 
40 1 0.0186709 0.0605961 -0.0138203 0.000233 1.97356 0.137586 -1.51871 2650 
423 1 0.00826602 0.0019208 -0.0113031 0.000847 0.0125745 -0.00842058 -0.0256246 2650 
24 1 0.00271142 0.00333736 -0.0111222 0.000233 -0.0482732 0.0796359 -0.507313 2650 
447 1 0.00820269 0.00358382 -0.0118224 0.000847 -0.0323143 0.0103672 -0.00318362 2650 
212 1 0.00226714 0.00849545 -0.0111428 0.001312 -0.0115734 -0.00524722 0.000451259 2650 
207 1 0.00716951 0.0130492 -0.0114403 0.000233 -0.00568935 0.053099 0.0288702 2650 
163 1 0.0106386 0.0163807 -0.0120886 0.000847 -0.0130636 0.0686803 -0.0103486 2650 
121 1 0.000944253 0.00207518 -0.0103264 0.001312 -0.0440129 0.0180645 -0.0158071 2650 
144 1 0.000616 0.00345152 -0.009639 0.000233 0 -0.01175 0 2650 
139 1 0.00196789 0.00546843 -0.00952766 0.000847 -0.0143405 0.0138754 0.0111135 2650 
210 1 0.0113506 0.00479282 -0.0106775 8.4e-05 -0.0111128 -0.0100912 0.00475607 2650 
405 1 0.001255 0.00673452 -0.009572 8.4e-05 0 -0.01175 0 2650 
58 1 0.00399544 0.0109692 -0.0109271 0.000847 -0.0589858 0.0345791 0.0452465 2650 
30 1 0.00404341 0.0146092 -0.01069 0.001312 -0.00308708 0.0120084 -0.0183724 2650 
495 1 0.0120099 0.00129985 -0.00822232 0.000233 -0.0216097 -0.00536975 0.0219754 2650 
325 1 0.00815025 0.00298657 -0.00924801 0.000233 0.0498857 0.00528377 0.010002 2650 
255 1 0.00408152 0.00425753 -0.00845425 0.000847 0.0035895 0.0164 0.00759877 2650 
493 1 0.00507958 0.00608488 -0.00922188 0.000233 -0.010799 -0.0137477 -0.00456916 2650 