ITEM: TIMESTEP
4166642
ITEM: NUMBER OF ATOMS
505
ITEM: BOX BOUNDS ff ff ff
-0.15 0.15
-0.15 0.15
-0.15 0.15
ITEM: ATOMS id type x y z radius vx vy vz density 
344 1 -0.00658038 -0.0216709 -0.0678395 0.000847 -32.1135 -0.591857 3.11341 2650 
442 1 -0.00902002 -0.0100421 -0.0681729 0.000233 -19.0935 5.40823 2.52628 2650 
138 1 -0.00553554 -0.00474466 -0.0679279 0.000847 -14.1202 -1.8229 1.16263 2650 
280 1 -0.00631488 -0.00255049 -0.06786 0.000847 -11.8569 1.69732 1.09307 2650 
428 1 -0.0206574 -0.0180845 -0.065591 0.000233 -23.9381 -0.668544 7.53911 2650 
162 1 -0.0221698 -0.0492038 -0.0644474 0.000847 -19.4138 0.896674 6.67664 2650 
35 1 -0.0336433 -0.00157501 -0.0592706 0.000847 -3.34325 -1.10292 1.88378 2650 
488 1 -0.0390103 -0.0304551 -0.0558847 0.000847 -7.20885 1.7808 5.03081 2650 
436 1 -0.05529 -0.0367821 -0.0398662 0.000847 -8.34873 2.30497 11.5696 2650 
349 1 -0.0570192 -0.00635769 -0.038446 0.000233 -13.7127 4.73787 20.3327 2650 
410 1 -0.0593642 -0.028193 -0.033507 0.000847 -8.81206 -7.09611 15.6007 2650 
185 1 -0.0616853 -0.0202007 -0.0279277 0.001312 -4.97433 3.09166 10.9745 2650 
190 1 -0.063006 -0.047518 -0.0260235 0.000847 -5.24801 1.7083 12.6965 2650 
26 1 -0.001949 -0.00031648 -0.014832 0.000233 0 -0.01175 0 2650 
257 1 -0.0662017 -0.0261579 -0.0118788 0.000233 -3.75303 27.4756 37.7793 2650 
513 1 -0.0673823 -0.0317982 -0.0104385 0.000847 -6.93578 8.07886 44.858 2650 
494 1 -0.00165665 -0.00323178 -0.0114746 0.000233 -0.120141 -0.171015 0.0772541 2650 
46 1 -0.009231 -0.00293848 -0.011381 0.000847 0 -0.01175 0 2650 
360 1 -0.008207 -0.00178948 -0.012559 0.000847 0 -0.01175 0 2650 
86 1 -0.00626496 -0.00131656 -0.0110724 0.000847 -0.000103446 -0.0116296 -2.98029e-05 2650 
100 1 -0.00514487 -0.00317314 -0.0098564 0.000847 0.00031669 -0.011822 0.000453538 2650 
317 1 -0.0673755 -0.000846824 -0.01038 0.000847 -0.754254 5.98183e-07 4.89207 2650 
335 1 -0.007807 -0.00284848 -0.009311 0.000233 0 -0.01175 0 2650 
487 1 -0.00547 -0.00143348 -0.008469 0.000847 0 -0.01175 0 2650 
304 1 -0.012077 -0.00246048 -0.006698 0.000847 0 -0.01175 0 2650 
402 1 -0.012528 -0.00123148 -0.0071 0.000233 0 -0.01175 0 2650 
53 1 -0.011013 -0.00126148 -0.007695 0.000233 0 -0.01175 0 2650 
85 1 -0.01442 -0.00114348 -0.005129 0.000847 0 -0.01175 0 2650 
125 1 -0.003357 -0.00021048 -0.006037 0.000847 0 -0.01175 0 2650 
97 1 -0.009673 -0.00183048 -0.003235 0.000847 0 -0.01175 0 2650 
452 1 -0.00665 -0.00294548 -0.004116 0.000233 0 -0.01175 0 2650 
384 1 -0.00194213 -0.000222823 -0.00321307 0.000847 0.00453983 1.76909e-05 0.0213336 2650 
380 1 -0.0677724 -0.0395621 0.00033425 0.001312 0.304943 3.85116 61.8532 2650 
445 1 -0.006004 -0.00241348 -0.002238 0.001312 0 -0.01175 0 2650 
315 1 -0.00331405 -0.00176162 -0.00179195 0.001312 -0.00878722 -0.0204576 0.015283 2650 
378 1 -0.001584 -0.00162048 -0.002895 0.000233 0 -0.01175 0 2650 
345 1 -0.0123826 -0.00054577 -0.00304935 0.000847 0.00924608 0.00566544 0.00491553 2650 
61 1 -0.000548 -0.00084348 -0.001635 0.000847 0 -0.01175 0 2650 
519 1 -0.014357 -0.00194248 -0.000107 0.000233 0 -0.01175 0 2650 
118 1 -0.006006 -0.00102548 -0.001449 0.000233 0 -0.01175 0 2650 
101 1 -0.007806 -0.00154348 0.002945 0.000233 0 -0.01175 0 2650 
62 1 -0.012835 -0.00171548 0.004641 0.000233 0 -0.01175 0 2650 
341 1 -0.0101011 -0.0028788 0.00324525 0.001312 -0.00139654 -0.0104989 0.000562591 2650 
440 1 -0.0154421 -0.00137895 0.0043247 0.000233 -0.0187185 0.00585296 -0.000851433 2650 
218 1 -0.012593 -0.00062448 0.003611 0.000233 0 -0.01175 0 2650 
429 1 -0.00692 -0.00219648 0.005955 0.000233 0 -0.01175 0 2650 
319 1 -0.014687 -0.00147848 0.006167 0.000847 0 -0.01175 0 2650 
117 1 -0.006406 -0.00145348 0.006156 0.000233 0 -0.01175 0 2650 
264 1 -0.00365358 -0.000361326 0.00508095 0.000847 -0.0115001 -0.0210474 0.00314473 2650 
181 1 -0.0682869 -0.0404927 0.00816151 0.000233 5.18783 -4.89244 43.3981 2650 
300 1 -0.0683859 -0.00919881 0.00727498 0.000233 1.64132 0.987814 15.4254 2650 
448 1 -0.0060541 -0.00226886 0.00893079 0.000847 -0.00569405 -0.00959738 -0.00567433 2650 
314 1 -0.012863 -0.00129848 0.007925 8.4e-05 0 -0.01175 0 2650 
92 1 -0.012301 -0.00244348 0.010509 0.000233 0 -0.01175 0 2650 
481 1 -0.000111945 -0.00247143 0.0101674 0.000233 -0.00735395 -0.0170882 0.00687195 2650 
277 1 -0.0668773 -0.0577569 0.0132191 0.000847 2.41655 0.00353167 12.2168 2650 
409 1 -0.0666744 -0.036534 0.0142237 0.000847 4.91333 7.1068 23.0161 2650 
420 1 -0.00766255 -0.00251021 0.0140972 0.000847 0.0107624 -0.0102547 -0.000846324 2650 
114 1 -0.004861 -0.00242348 0.015786 0.000233 0 -0.01175 0 2650 
307 1 -0.000718917 -0.00287965 0.0153356 0.000847 0.0035512 -0.0162567 0.00809551 2650 
327 1 -0.003487 -0.00117248 0.015912 8.4e-05 0 -0.01175 0 2650 
498 1 -0.0633916 -0.0616216 0.0250828 0.000847 9.58485 0.285148 24.2074 2650 
290 1 -0.0623752 -0.00638078 0.0274965 0.000847 2.62961 -0.252823 5.96051 2650 
382 1 -0.0516093 -0.0218481 0.0445398 0.000847 22.3209 -1.35986 25.847 2650 
57 1 -0.0128624 -0.00902422 0.0499116 0.000847 -1.9568 -0.493159 7.43063 2650 
52 1 -0.0440454 -0.0358027 0.0528105 0.000233 15.2453 -5.1872 12.7126 2650 
278 1 -0.0396186 -0.0334625 0.0554619 0.000847 18.0508 1.07789 12.8853 2650 
272 1 -0.0375965 -0.0193566 0.0575844 0.000233 64.2098 8.57232 41.9151 2650 
182 1 -0.0181881 -0.0247876 0.0663181 0.000233 26.7845 2.08445 7.34575 2650 
159 1 -0.00549751 -0.0454676 0.0674831 0.001312 33.9328 4.34467 2.76191 2650 
140 1 -0.0071202 -0.0352627 0.0683029 0.000233 10.7646 6.44703 4.10043 2650 
143 1 -0.00177039 0.00630764 -0.016487 0.000233 -0.0282935 0.0190951 0.0124684 2650 
246 1 -0.00196037 0.00502706 -0.0163952 0.000233 -0.100191 -0.000771951 0.020446 2650 
70 1 -0.000754698 0.00914581 -0.0160225 0.000847 -0.107277 0.0837866 0.0200414 2650 
371 1 -0.000599683 0.00140446 -0.0152581 0.000847 -0.0966948 -0.0934937 0.0177656 2650 
49 1 -0.006313 0.00609752 -0.014865 0.000233 0 -0.01175 0 2650 
37 1 -0.007724 0.00706452 -0.014299 0.000233 0 -0.01175 0 2650 
16 1 -0.00218801 0.00691249 -0.0145324 0.001312 -0.089305 0.0469464 0.0234012 2650 
48 1 -0.00208513 0.00946733 -0.0147646 0.000847 -0.0726342 0.00877087 0.0081295 2650 
404 1 -0.00800319 0.0105316 -0.0145892 0.000233 -0.234326 0.0900992 0.0995756 2650 
309 1 -0.005736 0.00978352 -0.014845 0.000233 0 -0.01175 0 2650 
395 1 -0.0085218 0.00148052 -0.013364 0.000847 0.0240121 0.000285326 -0.00393278 2650 
224 1 -0.00637572 0.00215751 -0.0131912 0.001312 0.0222043 -0.00290908 -0.00259063 2650 
501 1 -0.005104 0.00412552 -0.014134 0.000847 0 -0.01175 0 2650 
234 1 -0.003242 0.00337952 -0.013015 0.000233 0 -0.01175 0 2650 
36 1 -0.008519 0.00632752 -0.013643 0.000233 0 -0.01175 0 2650 
68 1 -0.006284 0.00658452 -0.013069 0.001312 0 -0.01175 0 2650 
422 1 -0.000333 0.00683752 -0.012757 0.000847 0 -0.01175 0 2650 
133 1 -0.00196899 0.00161221 -0.0117494 0.001312 -0.00461478 0.000204866 0.00951441 2650 
233 1 -0.006747 0.00509052 -0.01241 0.000233 0 -0.01175 0 2650 
343 1 -0.003612 0.00610252 -0.01107 0.000847 0 -0.01175 0 2650 
76 1 -0.005578 0.00749052 -0.011829 0.000233 0 -0.01175 0 2650 
198 1 -0.004067 0.00904152 -0.012517 0.001312 0 -0.01175 0 2650 
368 1 -0.00642488 0.0154978 -0.0115474 0.000847 0.0333616 0.0211605 0.00588105 2650 
29 1 -0.008334 0.00129952 -0.010637 0.001312 0 -0.01175 0 2650 
160 1 -0.00451413 0.00118269 -0.0102355 0.001312 -0.0110883 -0.00933976 0.0086581 2650 
449 1 -0.00117377 0.00148207 -0.00948052 0.000847 3.16897e-06 -0.0117562 7.50475e-05 2650 
287 1 -0.00314022 0.00286582 -0.0105702 0.000233 -0.0244942 -0.0167275 -0.0034175 2650 
95 1 -0.007267 0.00425552 -0.011007 0.001312 0 -0.01175 0 2650 
271 1 -0.005149 0.00346052 -0.010304 0.000233 0 -0.01175 0 2650 
435 1 -0.005486 0.00553852 -0.011036 0.000847 0 -0.01175 0 2650 
13 1 -0.012448 0.00724052 -0.010914 8.4e-05 0 -0.01175 0 2650 
69 1 -0.00959 0.00761152 -0.010713 0.001312 0 -0.01175 0 2650 
392 1 -0.003997 0.00783152 -0.009609 8.4e-05 0 -0.01175 0 2650 
146 1 -0.000643408 0.00703374 -0.0103496 0.001312 0.00218217 -0.00449572 -0.00190306 2650 
147 1 -0.004382 0.00919252 -0.009794 0.001312 0 -0.01175 0 2650 
209 1 -0.001802 0.00865952 -0.011003 0.000233 0 -0.01175 0 2650 
482 1 -0.0060148 0.0159708 -0.00971136 0.000233 -0.0125738 0.0274672 -0.0541309 2650 
3 1 -0.00928133 0.0186716 -0.009648 0.000847 -0.150596 -0.0465376 0.131956 2650 
468 1 -0.0103851 0.00309276 -0.00831043 0.000233 0.00112078 -0.0133423 -0.00397386 2650 
164 1 -0.00932714 0.00298196 -0.00907323 0.000847 0.00294994 -0.0207008 -0.00755046 2650 
289 1 -0.0124606 0.00345407 -0.00910226 0.001312 -0.00529161 -0.0136947 -0.00236341 2650 
455 1 -0.006244 0.00335952 -0.008207 0.000233 0 -0.01175 0 2650 
407 1 -0.002601 0.00377052 -0.009363 0.000847 0 -0.01175 0 2650 
336 1 -0.000699 0.00457752 -0.008095 0.000233 0 -0.01175 0 2650 
316 1 -0.00166388 0.00528835 -0.00942854 0.000847 -0.0840294 0.0500795 0.0823036 2650 
348 1 -0.011402 0.00877652 -0.008993 0.000233 0 -0.01175 0 2650 
332 1 -0.013253 0.00997152 -0.008686 0.000847 0 -0.01175 0 2650 
31 1 -0.0142529 0.000215423 -0.00645588 0.000847 0.00214245 -0.0259898 0.00524898 2650 
483 1 -0.010366 0.00147152 -0.006716 8.4e-05 0 -0.01175 0 2650 
266 1 -0.012074 0.00223952 -0.006827 0.000847 0 -0.01175 0 2650 
347 1 -0.00951438 0.00213486 -0.00649506 0.000847 0.00623302 -0.019391 -0.000171357 2650 
60 1 -0.005537 0.00244852 -0.006955 0.000847 0 -0.01175 0 2650 
324 1 -0.004804 0.00419952 -0.006739 0.000233 0 -0.01175 0 2650 
136 1 -0.003358 0.00326352 -0.00699 0.000847 0 -0.01175 0 2650 
158 1 -0.004052 0.00540352 -0.007417 8.4e-05 0 -0.01175 0 2650 
512 1 -0.00409 0.00719452 -0.007205 0.000847 0 -0.01175 0 2650 
216 1 -0.002016 0.00700395 -0.00729601 0.000847 -0.00182544 -0.021819 -0.0462671 2650 
391 1 -0.001389 0.00792452 -0.007809 0.000233 0 -0.01175 0 2650 
464 1 -3.2e-05 0.00843152 -0.007535 0.000233 0 -0.01175 0 2650 
66 1 -0.0100698 0.0194476 -0.00774834 0.000233 -0.00952687 0.0365334 -0.00433662 2650 
295 1 -0.0146005 0.0343108 -0.00669226 0.000847 -0.187064 0.296651 0.357854 2650 
51 1 -0.00545436 0.00455365 -0.00571496 0.000233 -0.0151893 -0.0045765 -0.0283188 2650 
251 1 -0.0107206 0.00604867 -0.00573254 0.000847 0.0375376 0.0174978 -0.0442078 2650 
79 1 -0.009334 0.00871352 -0.006031 0.000233 0 -0.01175 0 2650 
306 1 -0.011393 0.00107752 -0.004559 0.000847 0 -0.01175 0 2650 
286 1 -0.016281 0.00170352 -0.003576 0.000233 0 -0.01175 0 2650 
229 1 -0.015525 0.00307776 -0.00375841 0.000847 -0.00027552 -0.0118241 -8.69851e-05 2650 
237 1 -0.00148359 0.0019385 -0.0039063 0.001312 -0.00158505 -0.0046088 -0.00336911 2650 
248 1 -0.0143344 0.00358735 -0.00411558 0.000233 0.00323949 -0.00754655 -0.0117901 2650 
466 1 -0.015616 0.00482152 -0.003521 0.000233 0 -0.01175 0 2650 
478 1 -0.010102 0.00522552 -0.003546 0.000233 0 -0.01175 0 2650 
15 1 -0.00335254 0.0061068 -0.0043639 0.001312 -0.00145059 0.0137322 -0.0280343 2650 
413 1 -0.00147068 0.00594973 -0.00444421 0.000233 -0.027059 0.0159275 -0.00196035 2650 
2 1 -0.0128302 0.00710025 -0.00424401 0.001312 0.0104008 -0.00552833 -0.007968 2650 
467 1 -0.01128 0.00741552 -0.004037 0.000233 0 -0.01175 0 2650 
331 1 -0.0151953 0.00866326 -0.00353781 0.000847 0.00640981 0.0229006 -0.00879041 2650 
149 1 -0.0122684 0.0091993 -0.00409328 0.000847 0.00364223 -0.00195496 -0.000131579 2650 
112 1 -0.009312 0.00801052 -0.004659 0.000847 0 -0.01175 0 2650 
145 1 -0.007489 0.00822352 -0.00326 8.4e-05 0 -0.01175 0 2650 
199 1 -0.00463205 0.0105649 -0.00454684 0.001312 -0.0149642 0.00254045 -0.00725036 2650 
72 1 -0.00287732 0.0193302 -0.00348897 0.000847 -0.0206207 0.0396561 -0.0248414 2650 
505 1 -0.012355 0.00093752 -0.002136 0.000233 0 -0.01175 0 2650 
168 1 -0.011097 0.00301552 -0.001986 0.000233 0 -0.01175 0 2650 
84 1 -0.004923 0.00167652 -0.002038 0.000847 0 -0.01175 0 2650 
312 1 -0.006897 0.00673152 -0.002463 0.000233 0 -0.01175 0 2650 
285 1 -0.004117 0.00780652 -0.002186 0.000233 0 -0.01175 0 2650 
399 1 -0.00283 0.00685152 -0.001648 0.000847 0 -0.01175 0 2650 
301 1 -0.000431 0.00696452 -0.003081 8.4e-05 0 -0.01175 0 2650 
245 1 -0.015895 0.00868352 -0.001607 0.000233 0 -0.01175 0 2650 
204 1 -0.005796 0.00928952 -0.002651 0.000847 0 -0.01175 0 2650 
214 1 -0.001591 0.00986652 -0.002687 0.000847 0 -0.01175 0 2650 
63 1 -0.000147 0.0100845 -0.0027 0.000233 0 -0.01175 0 2650 
188 1 -0.00663885 0.0184618 -0.00268053 0.000847 -0.0331799 0.0192545 -0.0803013 2650 
291 1 -0.00512095 0.0278915 -0.00229919 0.000847 -0.0166683 0.214433 -0.103918 2650 
201 1 -0.005857 0.00341052 -0.001367 0.000847 0 -0.01175 0 2650 
208 1 -0.003072 0.00484952 -0.000554 0.000233 0 -0.01175 0 2650 
75 1 -0.004976 0.00821752 -0.001105 0.000233 0 -0.01175 0 2650 
373 1 -0.015091 0.00444952 0.000947 0.000847 0 -0.01175 0 2650 
115 1 -0.00171437 0.00529502 0.000591214 0.000233 -0.0755096 -0.032661 0.0052106 2650 
450 1 -0.0160237 0.00729634 0.000622535 0.000847 0.00112582 -0.00909708 0.011959 2650 
186 1 -0.0154679 0.00945079 1.86798e-05 0.001312 0.00118346 -0.00704862 -0.000609313 2650 
504 1 -0.012481 0.00943552 0.001551 0.000233 0 -0.01175 0 2650 
474 1 -0.0102601 0.00817434 0.000137297 0.000847 0.0292048 0.0292379 0.00704819 2650 
22 1 -0.016223 0.0099075 0.00157526 0.000233 0.0769922 0.0166527 -0.00962315 2650 
517 1 -0.00962363 0.00958503 0.00034711 0.000233 0.0308496 0.037053 0.00878162 2650 
137 1 -0.00609216 0.0127909 0.00125597 0.000847 -0.0419939 0.031769 0.00899049 2650 
267 1 -0.0114648 0.020908 0.00108914 0.000847 -0.0368281 0.141529 -0.0933362 2650 
364 1 -0.0139 0.00265852 0.002152 0.000233 0 -0.01175 0 2650 
323 1 -0.008651 0.00199652 0.002916 0.000233 0 -0.01175 0 2650 
310 1 -0.000364598 0.00391361 0.00221107 0.000233 -0.0908326 -0.0132465 -0.0354539 2650 
242 1 -0.010702 0.00729852 0.00289 0.000847 0 -0.01175 0 2650 
376 1 -0.005395 0.00770752 0.002758 0.000233 0 -0.01175 0 2650 
174 1 -0.001898 0.00723052 0.003155 0.000847 0 -0.01175 0 2650 
419 1 -0.0152636 0.0460105 0.00217008 0.001312 -0.0687638 0.419819 -0.205821 2650 
189 1 -0.0027703 0.000880623 0.00336875 0.000847 -0.0182469 -0.017679 -0.0212515 2650 
441 1 -0.014312 0.00213452 0.004679 0.000233 0 -0.01175 0 2650 
302 1 -0.01139 0.00182952 0.00396 0.001312 0 -0.01175 0 2650 
206 1 -0.002945 0.00280452 0.003686 0.000233 0 -0.01175 0 2650 
56 1 -0.0118006 0.00622503 0.00467387 0.001312 0.00400754 -0.0106434 -0.0116387 2650 
421 1 -0.00175216 0.00509972 0.00341357 0.000847 0.0214769 0.0715116 -0.0649287 2650 
131 1 -0.009967 0.00755752 0.004313 0.000233 0 -0.01175 0 2650 
156 1 -0.015257 0.00881652 0.00371 0.000233 0 -0.01175 0 2650 
296 1 -0.002285 0.00939652 0.004233 0.000233 0 -0.01175 0 2650 
470 1 -0.008539 0.0104555 0.004033 8.4e-05 0 -0.01175 0 2650 
374 1 -0.006913 0.0103625 0.00361 0.000233 0 -0.01175 0 2650 
172 1 -0.00225968 0.0132511 0.00393407 0.001312 -0.0177287 0.0452829 -0.0259387 2650 
446 1 -0.0157472 0.0500023 0.00336243 0.000847 -0.00590877 0.46523 -0.210973 2650 
195 1 -0.014509 0.00311552 0.005621 0.000233 0 -0.01175 0 2650 
274 1 -0.005863 0.00190952 0.005228 0.000233 0 -0.01175 0 2650 
135 1 -0.008556 0.00469052 0.005239 0.000847 0 -0.01175 0 2650 
431 1 -0.007173 0.00417852 0.006023 8.4e-05 0 -0.01175 0 2650 
223 1 -0.014414 0.00684952 0.005039 8.4e-05 0 -0.01175 0 2650 
469 1 -0.012765 0.00809652 0.005129 0.000233 0 -0.01175 0 2650 
90 1 -0.009269 0.00833952 0.005356 0.000233 0 -0.01175 0 2650 
361 1 -0.012031 0.00971452 0.0053 0.000233 0 -0.01175 0 2650 
42 1 -0.00285147 0.0667646 0.00509834 0.001312 -0.116046 0.177736 -0.0102008 2650 
321 1 -0.0129171 0.00613897 0.00667368 0.000847 -0.0126768 -0.0048934 -0.0100559 2650 
196 1 -0.00800498 0.00524254 0.00672615 0.000233 -0.000496307 0.0280491 0.0192263 2650 
283 1 -0.00727 0.00586552 0.006824 0.000233 0 -0.01175 0 2650 
256 1 -0.00450791 0.00616474 0.00633127 0.000847 -0.00426754 -0.0114665 0.00611625 2650 
355 1 -0.012705 0.00929252 0.006672 0.000847 0 -0.01175 0 2650 
369 1 -0.00806331 0.00823258 0.00675011 0.000847 -0.000282964 -0.0121306 0.000366156 2650 
152 1 -0.00191606 0.00937194 0.00754399 0.000847 0.0138278 -0.0123671 0.00800378 2650 
244 1 -0.0048841 0.0118981 0.00666691 0.000233 -0.0362331 0.0155037 0.00755332 2650 
88 1 -0.010473 0.00574752 0.008034 0.000233 0 -0.01175 0 2650 
130 1 -0.004749 0.00594852 0.009456 0.000233 0 -0.01175 0 2650 
417 1 -0.001923 0.00601452 0.008831 0.000233 0 -0.01175 0 2650 
45 1 -0.001763 0.00707252 0.008462 0.000847 0 -0.01175 0 2650 
462 1 -0.013341 0.00823152 0.008656 0.000847 0 -0.01175 0 2650 
372 1 -0.010707 0.00273952 0.010207 0.000847 0 -0.01175 0 2650 
41 1 -0.008377 0.00218352 0.009542 8.4e-05 0 -0.01175 0 2650 
176 1 -0.003497 0.00420952 0.009518 0.000847 0 -0.01175 0 2650 
406 1 -0.000204785 0.00350856 0.00984581 0.001312 0.0261277 0.00722785 0.0122021 2650 
509 1 -0.001563 0.00560352 0.010036 8.4e-05 0 -0.01175 0 2650 
350 1 -0.001594 0.00034652 0.011915 0.000233 0 -0.01175 0 2650 
219 1 -0.00922128 0.00305995 0.0111169 0.000233 0.00849933 0.00349453 -0.0201485 2650 
226 1 -0.005007 0.00580652 0.011519 0.000847 0 -0.01175 0 2650 
518 1 -0.011612 0.00707052 0.01181 0.000233 0 -0.01175 0 2650 
73 1 -0.010447 0.00740952 0.011428 0.000847 0 -0.01175 0 2650 
235 1 -0.00605 0.00667052 0.012276 0.000233 0 -0.01175 0 2650 
128 1 -0.003888 0.00748952 0.011415 0.000233 0 -0.01175 0 2650 
516 1 -0.010492 0.00894452 0.012435 0.000233 0 -0.01175 0 2650 
313 1 -0.004641 0.0101355 0.011299 0.000233 0 -0.01175 0 2650 
475 1 -0.00348947 0.013074 0.0112519 0.000847 0.0425421 0.0375382 0.0180267 2650 
180 1 -0.005697 0.00470952 0.013052 0.000233 0 -0.01175 0 2650 
443 1 -0.004264 0.00618852 0.013262 0.000233 0 -0.01175 0 2650 
192 1 -0.009107 0.00735352 0.013183 0.000233 0 -0.01175 0 2650 
379 1 -0.006906 0.00672052 0.013866 8.4e-05 0 -0.01175 0 2650 
9 1 -0.00141764 0.00186229 0.0150208 0.000233 0.00928171 -0.0121577 0.00346702 2650 
311 1 -0.002572 0.00320852 0.015752 0.000233 0 -0.01175 0 2650 
484 1 -0.00206034 0.00562301 0.0145008 0.001312 0.047466 0.0222002 0.00406455 2650 
416 1 -0.00468294 0.0397238 0.0157434 0.000233 -0.0803345 0.102549 -0.0239125 2650 
263 1 -0.00549621 0.0544976 0.0144448 0.001312 -0.0730492 0.51538 -0.0338337 2650 
262 1 -0.0128743 0.107755 -0.00663858 8.4e-05 -0.0988013 0.390482 -0.104277 2650 
102 1 -0.00928353 0.0788784 0.00707754 0.000233 -0.439872 2.35408 -0.244024 2650 
19 1 -0.0165804 0.134472 0.0661054 0.000847 1.55984 1.36703 0.388358 2650 
124 1 0.0120696 -0.0562897 -0.0670763 0.000847 -20.1396 4.46156 -3.62345 2650 
268 1 0.00686751 -0.0348672 -0.0678061 0.000847 -9.07412 -3.22901 -0.919037 2650 
259 1 0.0113888 -0.0116347 -0.0678175 0.000233 -41.403 14.8879 -6.95271 2650 
230 1 0.00872672 -0.0102843 -0.0675921 0.000847 -15.5243 2.67777 -2.00427 2650 
465 1 0.0191163 -0.0494281 -0.0660565 0.000233 -18.2622 3.76393 -5.28497 2650 
358 1 0.0205651 -0.00943605 -0.0649762 0.000847 -7.76761 -0.388891 -2.45846 2650 
82 1 0.00467166 -0.0102939 -0.0633768 0.001312 -0.0182826 -0.42535 0.361194 2650 
463 1 0.0279386 -0.016087 -0.0621639 0.000847 -15.1469 2.77964 -6.80621 2650 
127 1 0.0476872 -0.0208292 -0.0495473 0.000233 -12.9088 -0.412972 -12.4208 2650 
7 1 0.0478624 -0.0160707 -0.0485224 0.000847 -2.98865 -3.6437 -2.83238 2650 
239 1 0.0479172 -0.0137237 -0.0484727 0.000847 -10.2132 7.29758 -10.178 2650 
424 1 0.0537564 -0.0287703 -0.0419054 0.000847 0.186516 -0.845847 0.239048 2650 
43 1 0.0568594 -0.0551345 -0.0367634 0.001312 -7.33685 0.919417 -11.3343 2650 
241 1 0.0584939 -0.0307868 -0.0350009 0.000847 -7.22824 0.557437 -12.0706 2650 
123 1 0.0593179 -0.0566193 -0.0335862 0.000847 -6.58985 1.32618 -11.6296 2650 
346 1 0.0595892 -0.0479096 -0.0331224 0.000847 -17.185 5.46968 -30.8974 2650 
507 1 0.0614446 -0.0162793 -0.0308867 0.000233 -12.4465 -2.07508 -24.7553 2650 
269 1 0.062269 -0.00656306 0.0277351 0.000847 1.16158 -0.484612 -2.60582 2650 
161 1 0.020803 -0.0051208 -0.0293953 0.000847 3.25809 -0.152343 -4.59325 2650 
148 1 0.0622032 -0.0510614 -0.0278845 0.000847 -3.81189 -0.299484 -8.49677 2650 
243 1 0.0633786 -0.0492504 -0.0251114 0.000847 -8.25315 -1.02419 -20.8162 2650 
44 1 0.0640396 -0.0418223 -0.0233707 0.000847 -6.07888 6.85071 -16.6445 2650 
521 1 0.0650215 -0.0301132 -0.0228431 8.4e-05 -3.47749 9.33721 -9.89767 2650 
500 1 0.0659139 -0.056879 -0.0173974 0.000847 -3.77218 0.609406 -14.2814 2650 
93 1 0.0064877 -0.00373308 -0.0161442 8.4e-05 0.55822 -0.106621 -1.62759 2650 
20 1 0.0664256 -0.0300607 -0.015346 0.000847 -5.68927 -7.56979 -24.6097 2650 
433 1 0.0664906 -0.00350034 -0.015041 0.000847 -2.37467 1.00625 -10.4898 2650 
141 1 0.00266282 -0.00202174 -0.0155757 0.000233 0.00202983 -0.00934154 0.0234686 2650 
177 1 0.00606744 -0.00192628 -0.0146526 0.000847 -0.071237 -0.0112758 -0.029299 2650 
522 1 0.00375428 -0.00028472 -0.0144706 8.4e-05 -0.0363114 -0.0929559 -0.0589703 2650 
228 1 0.00488768 -0.000758167 -0.0150663 0.000847 -0.0837259 -0.00134891 -0.023425 2650 
28 1 0.0063187 -3.02632e-05 -0.0133602 8.4e-05 -0.0858068 0.0250291 -0.0193768 2650 
202 1 0.00758148 -0.000262096 -0.0139458 0.000847 -0.0635323 0.0308705 -0.0570929 2650 
459 1 0.00473291 -0.00174784 -0.0125707 0.000847 -0.0931068 0.0135023 0.0280189 2650 
67 1 0.00425433 -0.000162997 -0.011533 8.4e-05 -0.0191881 -0.0455793 0.0401733 2650 
362 1 0.011937 -0.00079548 -0.011389 0.000233 0 -0.01175 0 2650 
155 1 0.00102305 -0.000467587 -0.0109086 0.000233 -0.0594987 -0.0161944 0.0410294 2650 
305 1 0.00085 -0.00183148 -0.00923 0.000847 0 -0.01175 0 2650 
330 1 0.001472 -0.00019948 -0.007973 0.000847 0 -0.01175 0 2650 
134 1 0.00694629 -0.000810471 -0.00918616 0.001312 -0.025375 -0.0285967 0.00345836 2650 
250 1 0.00965724 -0.000915249 -0.00899997 0.001312 -0.017461 -0.0285616 -0.0175421 2650 
129 1 0.0138712 -0.00130407 -0.0088736 0.000233 -0.0837286 0.0134757 -0.0983343 2650 
170 1 0.068259 -0.0370189 -0.00838162 0.000233 -1.66095 1.00854 -13.5238 2650 
401 1 0.003573 -0.00285648 -0.006008 0.000233 0 -0.01175 0 2650 
326 1 0.00150091 -0.000280462 -0.00505662 0.000233 -0.129513 0.0360033 0.0696521 2650 
339 1 0.001696 -6.24805e-05 -0.005869 0.000233 0 -0.01175 0 2650 
197 1 0.00371875 -0.00089376 -0.00565087 8.4e-05 -0.0259168 -0.0288921 -0.0331175 2650 
284 1 0.0148427 -0.000224784 -0.00575333 0.000233 -0.0239005 -0.0105818 0.026667 2650 
297 1 0.009274 -0.00162448 -0.004716 0.000233 0 -0.01175 0 2650 
453 1 0.006767 -0.00324348 -0.000527 0.000233 0 -0.01175 0 2650 
434 1 0.00337922 -0.003102 -0.000463137 0.000847 0.0220397 -0.0367872 -0.046211 2650 
34 1 0.00597044 -0.00201246 -0.000761831 0.000847 0.0495082 0.0059147 0.00503808 2650 
179 1 0.00736049 -0.00229665 -0.000148276 0.000233 0.00924368 -0.0325174 -0.00771083 2650 
454 1 0.009343 -0.00254448 -0.001501 0.000233 0 -0.01175 0 2650 
318 1 0.0073515 -0.00106372 -0.000271078 0.000847 0.0780178 -0.0141278 0.00964228 2650 
120 1 0.000248861 -0.0030795 0.00119202 0.001312 -0.0084897 -0.0197035 -0.00645487 2650 
96 1 0.00372555 -0.00282123 0.00204617 0.000847 0.0560332 -0.0493547 -0.00862221 2650 
322 1 0.012407 -0.00299348 0.002788 0.000233 0 -0.01175 0 2650 
396 1 0.00521654 -0.00077659 0.00226473 0.000847 0.00155861 -0.0192506 0.0185454 2650 
359 1 0.0117818 -0.00350867 0.00369175 0.000847 1.07787 -0.0660918 0.286537 2650 
10 1 0.00747985 -0.00264726 0.00328871 0.000233 0.0897903 -0.0268746 -0.0549896 2650 
59 1 0.0316356 -0.0149503 0.00528654 0.000847 4.28064 -1.40462 0.736139 2650 
249 1 0.008036 -0.00077448 0.006254 8.4e-05 0 -0.01175 0 2650 
194 1 0.0685399 -0.000232985 0.00564209 0.000233 0.745751 1.1215e-07 -9.05743 2650 
18 1 0.000568755 -0.00249935 0.00654812 0.000847 -0.00124114 -0.0136333 -0.00123586 2650 
320 1 0.000990026 -0.000730219 0.00766834 0.000847 0.020601 -0.0176087 -0.00593413 2650 
385 1 0.000799495 -0.00269179 0.0091439 0.000847 -0.00375134 -0.0289673 0.000730501 2650 
439 1 0.002533 -0.00123448 0.008747 0.000233 0 -0.01175 0 2650 
32 1 0.00625362 -0.000327433 0.0111514 0.000847 -0.0733199 0.057468 -0.114363 2650 
78 1 0.004456 -0.00280348 0.014175 0.000233 0 -0.01175 0 2650 
183 1 0.0673974 -0.057928 0.0136792 0.000233 2.89364 -0.0403934 -14.2539 2650 
415 1 0.0670459 -0.0121057 0.0153082 0.000233 0.0198536 -0.304174 -0.0869346 2650 
231 1 0.00623 -0.00183748 0.014979 0.000233 0 -0.01175 0 2650 
151 1 0.00130707 -0.00235628 0.0158557 0.000847 0.00563578 -0.0113638 -0.004652 2650 
473 1 0.0636615 -0.0593455 0.024385 0.000847 7.88882 2.20954 -20.5808 2650 
173 1 0.0637034 -0.0496697 0.0229789 0.001312 7.11838 0.00808044 -19.7135 2650 
33 1 0.062787 -0.0331768 0.0265459 0.000847 4.53475 2.65052 -10.7175 2650 
193 1 0.0538207 -0.0573446 0.0304866 0.000233 -0.513092 5.10981 -7.08777 2650 
113 1 0.0610941 -0.0325856 0.0302463 0.000847 10.9039 4.00475 -22.0092 2650 
460 1 0.0588779 -0.0564655 0.0343472 0.000847 2.10771 2.01552 -3.60993 2650 
77 1 0.0583769 -0.0459061 0.0363512 0.000233 7.34742 3.32052 -11.7965 2650 
64 1 0.0571155 -0.0123103 0.038302 0.000233 6.40508 0.913895 -9.54884 2650 
205 1 0.0540515 -0.0319091 0.042517 0.000233 -19.0979 1.04014 24.2736 2650 
221 1 0.0549368 -0.0109789 0.0413657 0.000233 7.82387 1.5066 -10.3881 2650 
294 1 0.0512204 -0.0114704 0.0449685 0.000847 5.50389 0.289431 -6.26355 2650 
171 1 0.0500853 -0.0515558 0.0473385 8.4e-05 19.8227 -12.8763 -20.9708 2650 
47 1 0.0455349 -0.0279394 0.0507123 0.000847 5.34875 0.18978 -4.79853 2650 
411 1 0.0400415 -0.00375327 0.0551587 0.000847 19.648 -0.19502 -14.2533 2650 
98 1 0.0357618 -0.0229764 0.057939 0.000847 3.50647 1.07793 1.13279 2650 
236 1 0.0379969 -0.00382925 0.0574948 8.4e-05 15.2306 -1.8621 -10.0653 2650 
21 1 0.0345376 -0.02477 0.0587536 0.000847 1.34766 0.175966 -0.780785 2650 
367 1 0.0220101 -0.018238 0.064012 0.001312 15.5046 -0.61806 -5.32904 2650 
334 1 0.0110554 -0.0591408 0.0672597 0.000847 18.2974 4.76314 -1.23758 2650 
458 1 0.012064 -0.0224106 0.0666153 0.001312 26.9079 0.165949 -4.86885 2650 
414 1 0.0389155 0.0715956 -0.0445533 0.000233 5.85819 0.151958 -6.70223 2650 
25 1 0.0035002 0.0443671 -0.0161913 0.000233 0.497532 -0.0614874 0.0932786 2650 
357 1 0.002883 0.00111352 -0.015739 0.000847 0 -0.01175 0 2650 
217 1 0.00380904 0.00219251 -0.0142276 0.000847 -0.0747988 -0.0228886 -0.0291665 2650 
165 1 0.00320912 0.00533458 -0.0154224 0.000847 -0.135568 0.0558215 -0.0316581 2650 
370 1 0.00440433 0.00702514 -0.0153393 0.000847 -0.14092 0.0852223 -0.0380935 2650 
366 1 0.005681 0.00866452 -0.015538 8.4e-05 0 -0.01175 0 2650 
356 1 0.000143195 0.0107523 -0.0155514 0.000847 -0.0465443 0.0873873 -0.0169079 2650 
412 1 0.00510932 0.0143187 -0.0151203 0.000847 -0.0585926 0.123547 -0.0157565 2650 
418 1 0.00246667 0.0170703 -0.0150864 8.4e-05 -0.0976761 0.0487142 0.0093005 2650 
365 1 0.00799096 0.022757 -0.014344 0.000233 0.00780499 0.0360141 -0.152799 2650 
153 1 0.00662996 0.000292149 -0.0139388 0.000233 -0.0747503 0.0236921 -0.0489433 2650 
386 1 0.00217738 0.00215575 -0.0135126 0.000847 -0.0706649 -0.0252324 -0.0086421 2650 
408 1 0.00465867 0.00303769 -0.0129002 0.000847 -0.0426071 0.00111028 -0.0447386 2650 
342 1 0.00384611 0.00703147 -0.0134629 0.000847 -0.0145936 -0.0166653 -0.0215129 2650 
12 1 0.00627 0.00747852 -0.013543 0.000233 0 -0.01175 0 2650 
58 1 0.0075346 0.00889401 -0.0136421 0.000847 -0.0591042 0.0359291 0.0458475 2650 
444 1 0.000432 0.0107415 -0.014191 8.4e-05 0 -0.01175 0 2650 
94 1 0.00328742 0.0102587 -0.0139734 0.001312 0.0109607 0.00745545 0.0089216 2650 
207 1 0.007509 0.00988452 -0.013163 0.000233 0 -0.01175 0 2650 
232 1 0.0025546 0.001194 -0.0124563 0.000233 -0.0309363 -0.0339914 0.00282964 2650 
282 1 0.00296156 0.00016088 -0.0120852 0.000847 -0.0650904 -0.0353357 0.0322303 2650 
397 1 0.00463013 0.0006028 -0.0120032 0.000847 -0.0648181 -0.015009 0.0213023 2650 
110 1 0.00626627 5.67768e-05 -0.0120122 0.000847 -0.0552419 -0.00552059 -0.00891742 2650 
175 1 0.00213678 0.00275904 -0.0119142 0.000847 -0.0723791 -0.0210443 -0.00885534 2650 
447 1 0.0102351 0.0033732 -0.0118287 0.000847 -0.0340647 0.00267286 0.000505749 2650 
157 1 0.0038616 0.00740409 -0.0114918 0.000233 -0.0117327 0.0925246 -0.0368089 2650 
109 1 0.00504361 0.007491 -0.012148 0.000847 0.000500365 -0.0150253 -0.0237361 2650 
212 1 0.00296104 0.00881104 -0.0111696 0.001312 -0.011346 -0.00559128 0.00035651 2650 
273 1 0.000843 0.0104435 -0.012177 0.000233 0 -0.01175 0 2650 
351 1 0.00117811 0.0103969 -0.0115461 0.000233 0.0060861 0.0185508 -0.080381 2650 
163 1 0.011187 0.0122159 -0.0112152 0.000847 -0.0075942 0.0697035 -0.0162141 2650 
325 1 0.00515713 0.00266955 -0.00984813 0.000233 0.0498857 0.00528377 0.010002 2650 
423 1 0.00741796 0.00201462 -0.00956837 0.000847 0.0143249 -0.000726275 -0.029314 2650 
495 1 0.0133064 0.00162203 -0.00954084 0.000233 -0.0216097 -0.00536975 0.0219754 2650 
144 1 0.000616 0.00415652 -0.009639 0.000233 0 -0.01175 0 2650 
139 1 0.00282831 0.00463591 -0.0101945 0.000847 -0.0143405 0.0138754 0.0111135 2650 
210 1 0.0120173 0.00539828 -0.0109628 8.4e-05 -0.0111128 -0.0100912 0.00475607 2650 
405 1 0.001255 0.00743952 -0.009572 8.4e-05 0 -0.01175 0 2650 
457 1 0.00331661 0.00777666 -0.0102712 8.4e-05 0.0667615 0.0279256 0.0344977 2650 
493 1 0.00555361 0.00646287 -0.0096475 0.000233 0.0428799 -0.0292441 0.045735 2650 
30 1 0.00422864 0.0138887 -0.00958771 0.001312 -0.00308708 0.0120084 -0.0183724 2650 
121 1 0.0035458 0.00105651 -0.00927525 0.001312 -0.0424209 0.0154168 -0.0199796 2650 
337 1 0.00907019 0.000616513 -0.00871734 0.000233 -0.120558 -0.1403 0.0640313 2650 
389 1 0.011221 0.00055652 -0.009451 0.000233 0 -0.01175 0 2650 
255 1 0.00384116 0.00326391 -0.00891733 0.000847 0.0209164 0.0230709 0.0125604 2650 
437 1 0.0054155 0.00380744 -0.0084068 0.000847 -0.00778346 -0.00689522 0.0173768 2650 
91 1 0.00137086 0.00560137 -0.00906726 0.000233 0.0259589 0.0572784 0.0628986 2650 
276 1 0.00698822 0.00542875 -0.00894662 0.001312 -0.00615872 0.00713013 0.017937 2650 
5 1 0.005292 0.00764152 -0.008353 0.000847 0 -0.01175 0 2650 
502 1 0.0121889 0.0101878 -0.00871064 0.000847 0.00018019 -0.00519971 -0.00700163 2650 