ITEM: TIMESTEP
13117202
ITEM: NUMBER OF ATOMS
424
ITEM: BOX BOUNDS ff ff ff
-0.15 0.15
-0.15 0.15
-0.15 0.15
ITEM: ATOMS id type x y z radius vx vy vz density 
57 1 -0.00329216 -0.0314975 -0.0680736 0.000847 -17.9442 0.188019 0.867766 2650 
138 1 -0.00560506 -0.0259536 -0.0679222 0.000847 -13.3137 -3.08999 1.09866 2650 
41 1 -0.00981745 -0.0197851 -0.0682131 8.4e-05 -21.1606 0.619852 3.0455 2650 
206 1 -0.0115499 -0.0596098 -0.0677901 0.000233 -27.4459 -6.02257 4.67615 2650 
61 1 -0.0122967 -0.0377269 -0.0670348 0.000847 -18.3491 0.699272 3.36562 2650 
124 1 -0.00908874 -0.0351171 -0.0675445 0.000847 -18.3205 0.0281616 2.46502 2650 
239 1 -0.0179522 -0.0342582 -0.0657483 0.000847 -23.9203 -1.90063 6.52888 2650 
439 1 -0.0292728 -0.0555428 -0.0622254 0.000233 -15.0431 0.294131 7.07675 2650 
339 1 -0.0278597 -0.0386871 -0.0628708 0.000233 -19.8002 -0.193856 8.77399 2650 
290 1 -0.0297148 -0.0484975 -0.0613396 0.000847 -23.9542 -0.840617 11.5973 2650 
360 1 -0.0325747 -0.0521232 -0.0598674 0.000847 -18.3531 -0.676017 9.98078 2650 
385 1 -0.0327856 -0.0225333 -0.0597511 0.000847 -16.3978 -1.24263 8.99327 2650 
266 1 -0.0400484 -0.0125452 -0.0551492 0.000847 -13.8982 -0.843335 10.0856 2650 
306 1 -0.0446741 -0.0367546 -0.0514808 0.000847 -18.0236 -1.5947 15.6294 2650 
113 1 -0.0475599 -0.0268869 -0.0488341 0.000847 -21.795 -6.51254 21.2121 2650 
7 1 -0.0520558 -0.0267147 -0.0440134 0.000847 -19.7744 -6.07196 23.3808 2650 
249 1 -0.0527814 -0.0111537 -0.0443127 8.4e-05 -20.4254 -3.88112 24.3267 2650 
427 1 -0.0530656 -0.0251363 -0.0436134 0.000233 -20.5881 2.04177 23.6598 2650 
96 1 -0.0542949 -0.0335124 -0.0412158 0.000847 -13.9371 -2.05628 18.3466 2650 
371 1 -0.0564352 -0.0605379 -0.0382396 0.000847 -15.924 2.01439 23.4852 2650 
195 1 -0.0577804 -0.0399708 -0.0372921 0.000233 -9.9554 -3.94777 15.4213 2650 
307 1 -0.058396 -0.0247861 -0.0351697 0.000847 -11.7459 -5.39736 19.4891 2650 
386 1 -0.0590879 -0.0312607 -0.0310401 0.000847 -22.4913 0.244439 51.8761 2650 
455 1 -0.0243926 -0.0075497 -0.0319094 0.000233 -3.66272 -0.651678 -4.78291 2650 
185 1 -0.0622737 -0.0441258 -0.026609 0.001312 -8.54454 -0.724544 19.9762 2650 
442 1 -0.0657348 -0.055502 -0.02021 0.000233 -6.77304 3.62477 22.0253 2650 
3 1 -0.0657573 -0.0567716 -0.0179936 0.000847 -6.71267 -0.766815 24.5147 2650 
362 1 -0.0665883 -0.0338077 -0.0171914 0.000233 -6.43153 -2.60328 24.9064 2650 
127 1 -0.0627305 -0.0368042 -0.0126074 0.000233 -47.168 -8.11013 69.7744 2650 
36 1 -0.008519 -0.000487437 -0.013643 0.000233 0 -0.01175 0 2650 
274 1 -0.0680486 -0.024447 -0.00994732 0.000233 -2.89423 -3.16677 19.795 2650 
20 1 -0.0673457 -0.0237909 -0.0106134 0.000847 -4.35438 -3.59839 27.6117 2650 
451 1 -0.0673224 -0.0202139 -0.0107415 0.000847 -3.25327 -1.10378 20.3755 2650 
407 1 -0.00312135 -0.00181665 -0.00951494 0.000847 2.67664e-05 -0.0113513 -0.0043438 2650 
271 1 -0.00967175 -0.00105386 -0.0108141 0.000233 -0.0117326 -0.0107575 -0.00719916 2650 
289 1 -0.0119101 -0.00282858 -0.00811183 0.001312 0.00108608 -0.00974277 0.00110667 2650 
336 1 -0.000699 -0.00223744 -0.008095 0.000233 0 -0.01175 0 2650 
435 1 -0.00594587 -8.76869e-05 -0.00930347 0.000847 -0.0013486 -0.0100303 0.00636002 2650 
248 1 -0.00907582 -0.00328203 -0.00780378 0.000233 0.00943045 -0.0128006 -0.00254809 2650 
324 1 -0.004804 -0.00261544 -0.006739 0.000233 0 -0.01175 0 2650 
136 1 -0.00199243 -0.00206983 -0.0068441 0.000847 0.00378666 -0.00801551 0.000750199 2650 
133 1 -0.00751185 -0.000951848 -0.00783085 0.001312 -0.00718012 -0.00737741 0.00471764 2650 
158 1 -0.004052 -0.00141144 -0.007417 8.4e-05 0 -0.01175 0 2650 
193 1 -0.0685146 -0.0474037 -0.00594496 0.000233 -2.03144 -1.78797 23.4071 2650 
60 1 -0.0143528 -0.000295794 -0.00477743 0.000847 0.00776094 -0.000233955 0.0125597 2650 
201 1 -0.0125551 -0.00364571 -0.00293031 0.000847 -1.74441 -0.0660404 -0.407138 2650 
326 1 -0.0637862 -0.0303555 0.00499909 0.000233 23.8455 1.6566 456.319 2650 
478 1 -0.0160551 -0.00154208 -0.000200772 0.000233 -0.0224787 -0.0115712 0.0126315 2650 
56 1 -0.0102055 -0.00058303 -0.000920579 0.001312 0.00271084 -0.0117724 -0.00958323 2650 
505 1 -0.0143872 -0.000714139 0.00240373 0.000233 -0.00378522 -0.00213289 0.00845565 2650 
431 1 -0.007173 -0.00263644 0.006023 8.4e-05 0 -0.01175 0 2650 
283 1 -0.00569508 -0.00192456 0.00489562 0.000233 0.00411522 -0.014298 -0.00503883 2650 
135 1 -0.00691746 -0.000124533 0.00699308 0.000847 0.00900114 -0.000763851 0.00963581 2650 
88 1 -0.010473 -0.00106744 0.008034 0.000233 0 -0.01175 0 2650 
417 1 -0.001923 -0.000800437 0.008831 0.000233 0 -0.01175 0 2650 
410 1 -0.067412 -0.0134324 0.0101605 0.000847 2.7788 4.27192 18.4237 2650 
176 1 -0.00343887 -0.00267537 0.00951636 0.000847 0.00316126 -0.0155531 -8.93552e-05 2650 
355 1 -0.00674042 -0.00137476 0.0105916 0.000847 0.00560135 -0.0180871 0.00938453 2650 
256 1 -0.00436674 -0.00123654 0.00970526 0.000847 0.0064699 -0.0119379 0.00526188 2650 
130 1 -0.00307828 -0.00111286 0.0102976 0.000233 0.0115857 -0.0134588 0.00583624 2650 
509 1 -0.001563 -0.00121144 0.010036 8.4e-05 0 -0.01175 0 2650 
226 1 -0.005007 -0.00100844 0.011519 0.000847 0 -0.01175 0 2650 
235 1 -0.00605 -0.000144437 0.012276 0.000233 0 -0.01175 0 2650 
180 1 -0.005697 -0.00210544 0.013052 0.000233 0 -0.01175 0 2650 
379 1 -0.006906 -9.44368e-05 0.013866 8.4e-05 0 -0.01175 0 2650 
443 1 -0.004264 -0.000626437 0.013262 0.000233 0 -0.01175 0 2650 
384 1 -0.000382571 -0.0015934 0.012672 0.000847 0.00243298 -0.00287864 0.0290172 2650 
448 1 -0.0644685 -0.00818006 0.0221673 0.000847 7.54125 -1.46396 21.917 2650 
323 1 -0.064454 -0.019938 0.0226209 0.000233 2.88821 -1.1802 22.2749 2650 
453 1 -0.0634763 -0.0143727 0.0264608 0.000233 6.03029 -2.98207 14.4628 2650 
125 1 -0.0609435 -0.0348379 0.0305533 0.000847 12.949 -3.00709 25.8117 2650 
294 1 -0.0597225 -0.0451004 0.0328655 0.000847 9.04085 1.71867 16.4169 2650 
241 1 -0.0580768 -0.0578731 0.0356995 0.000847 14.9521 3.23509 24.308 2650 
250 1 -0.0486666 -0.0496019 0.0470708 0.001312 12.8565 1.41498 13.2712 2650 
98 1 -0.0502976 -0.0486801 0.0460033 0.000847 12.5455 0.784577 13.7314 2650 
161 1 -0.0493577 -0.0442146 0.0470075 0.000847 10.737 0.271115 11.2648 2650 
64 1 -0.0490934 -0.0249292 0.048155 0.000233 14.5741 3.34102 14.8544 2650 
382 1 -0.0464522 -0.0230119 0.0498817 0.000847 15.2044 -0.527928 14.1485 2650 
53 1 -0.0433739 -0.0625653 0.0531877 0.000233 8.55607 2.55815 5.85215 2650 
286 1 -0.0390561 -0.0379007 0.0565997 0.000233 17.6978 2.2081 12.2118 2650 
359 1 -0.0370237 -0.0130731 0.057225 0.000847 17.8367 -1.87524 11.5323 2650 
272 1 -0.0333822 -0.059285 0.060121 0.000233 24.3727 1.7875 13.5325 2650 
65 1 -0.0352676 -0.0236002 0.0590347 0.000233 11.8302 0.601748 7.06744 2650 
173 1 -0.0309299 -0.0329757 0.0602182 0.001312 18.4331 -0.019482 9.45859 2650 
264 1 -0.0313725 -0.00513553 0.0605031 0.000847 10.4488 1.02703 5.41755 2650 
477 1 -0.0271359 -0.010856 0.0631866 0.000233 19.1092 0.421989 8.20659 2650 
468 1 -0.0271868 -0.00399963 0.0631647 0.000233 14.0713 -2.76816 6.05849 2650 
304 1 -0.0249264 -0.0323073 0.0634341 0.000847 22.5561 -2.54394 8.86628 2650 
82 1 -0.0237152 -0.0102306 0.0634062 0.001312 20.8804 1.61075 7.80281 2650 
59 1 -0.0225779 -0.00343006 0.0643053 0.000847 17.9795 0.535863 6.3115 2650 
436 1 -0.0196542 -0.0161769 0.0652584 0.000847 19.3661 -1.60289 5.83145 2650 
100 1 -0.0145982 -0.0415665 0.0665725 0.000847 22.6291 -3.58024 4.9609 2650 
380 1 -2.74437e-05 -0.0428494 0.0676952 0.001312 24.8688 -1.03447 0.0101162 2650 
233 1 -0.0136566 -0.0322734 0.0673973 0.000233 31.8353 0.155162 6.4507 2650 
350 1 -0.0107962 -0.020947 0.0679143 0.000233 32.2835 10.7957 5.132 2650 
155 1 -0.0028194 -0.0613944 0.0687092 0.000233 21.2366 -1.19699 0.871417 2650 
277 1 -0.00555525 -0.0107062 0.0679268 0.000847 21.1906 -0.472939 1.73282 2650 
62 1 -0.0234018 0.0307559 -0.0646694 0.000233 -102.381 -4.74898 37.043 2650 
279 1 -0.0342098 0.0420835 -0.0589451 0.000847 -1.04304 1.17648 0.605339 2650 
37 1 -0.00468088 0.000343457 -0.0158465 0.000233 0.010753 -0.0120212 -0.00300657 2650 
151 1 -0.00197063 0.0361448 -0.0158484 0.000847 -0.0129174 0.0570025 0.0129622 2650 
163 1 -0.000366351 0.0526885 -0.0160662 0.000847 -0.0330002 0.0708974 -0.00174518 2650 
217 1 -0.00303362 0.00499576 -0.0142937 0.000847 0.00344483 0.0103718 0.00273862 2650 
421 1 -0.00110029 0.018113 -0.0144825 0.000847 -0.0158288 0.0150399 0.00989567 2650 
1 1 -0.00489557 0.0631288 -0.014749 0.001312 -0.0464571 0.0845861 -0.00226942 2650 
273 1 -0.00506556 0.00264142 -0.0130976 0.000233 -0.00445532 -0.0119341 0.0111422 2650 
399 1 -0.00720529 0.00701335 -0.0137784 0.000847 0.00662952 -0.000885894 0.0126789 2650 
447 1 -0.00710329 0.00901633 -0.0138327 0.000847 -0.0132173 0.0118429 0.016787 2650 
202 1 -0.00865018 0.0132106 -0.0133486 0.000847 -0.00593663 0.0190399 0.00386976 2650 
49 1 -0.00602298 0.0618585 -0.0135717 0.000233 -0.0522778 0.0858784 0.00976734 2650 
287 1 -0.00679037 0.0011819 -0.0124465 0.000233 0.00559768 -0.00730303 -0.00565696 2650 
408 1 -0.00665186 0.00262199 -0.0125614 0.000847 -0.0028572 -0.00329893 0.00648662 2650 
209 1 -0.00356871 0.00282719 -0.0115288 0.000233 -0.00423162 -0.00946533 -0.00125148 2650 
68 1 -0.00871087 0.00371053 -0.0121108 0.001312 -0.00320542 -0.0016274 0.00537783 2650 
146 1 -0.00191389 0.00529435 -0.0124687 0.001312 -0.00381077 -0.000362696 -0.00630995 2650 
129 1 -0.0122274 0.00776234 -0.0112007 0.000233 -0.0183133 0.0137549 0.0209099 2650 
212 1 -0.00144897 0.00767845 -0.0114614 0.001312 -0.00696214 -0.00117336 -0.00198479 2650 
121 1 -0.0092261 0.0137358 -0.0112387 0.001312 -0.0106518 0.0212999 0.00404062 2650 
405 1 -0.00572254 0.0130142 -0.0124903 8.4e-05 -0.0139272 0.0129797 -0.00582497 2650 
501 1 -0.0111868 0.0150884 -0.0115755 0.000847 -0.0125804 0.030062 0.0123904 2650 
511 1 -0.00565813 0.0459383 -0.0124367 0.000847 -0.00369014 0.0427978 0.0240509 2650 
13 1 -0.012448 0.000425563 -0.010914 8.4e-05 0 -0.01175 0 2650 
69 1 -0.00972761 0.00089421 -0.0107974 0.001312 -0.000494876 -0.0113987 -0.000299697 2650 
392 1 -0.003997 0.00101656 -0.009609 8.4e-05 0 -0.01175 0 2650 
395 1 -0.00387221 0.00566532 -0.00950037 0.000847 0.00478061 0.00702116 0.0109016 2650 
5 1 -0.00073004 0.00904946 -0.00985214 0.000847 -0.00649041 0.00191137 -0.00296017 2650 
343 1 -0.0114965 0.0139789 -0.00997785 0.000847 -0.00242637 0.0172445 0.0160061 2650 
199 1 -0.00978757 0.0168205 -0.0105325 0.001312 -0.00782444 0.0168633 -0.0127507 2650 
238 1 -0.0113114 0.0225514 -0.0108058 0.001312 -0.0388751 0.00367886 0.0446966 2650 
172 1 -0.0113982 0.0392677 -0.00996663 0.001312 0.0148852 0.0382336 0.00666398 2650 
72 1 -0.00748452 0.0407721 -0.010535 0.000847 0.0131193 0.0325042 0.0089407 2650 
320 1 -0.00115588 0.0451737 -0.0105241 0.000847 -0.0295614 0.0615881 -0.0392779 2650 
89 1 -0.013584 0.0592726 -0.00959859 0.000233 -0.0431279 0.0685004 0.0494125 2650 
95 1 -0.00909091 0.00146567 -0.00802125 0.001312 -0.00543914 -0.00416386 0.00352121 2650 
348 1 -0.011402 0.00196156 -0.008993 0.000233 0 -0.01175 0 2650 
332 1 -0.0131371 0.00331489 -0.00856918 0.000847 0.000438224 -0.0111515 0.000441454 2650 
147 1 -0.0100301 0.0103736 -0.00821898 0.001312 -0.00953271 0.00251713 0.00283058 2650 
149 1 -0.0113259 0.0126203 -0.00850751 0.000847 -0.00573128 0.0130183 0.00390553 2650 
15 1 -0.00146917 0.0113067 -0.00872198 0.001312 0.000383538 0.0097622 -0.00333507 2650 
66 1 -0.0131375 0.0402074 -0.00875026 0.000233 0.00377936 0.0342087 0.00385618 2650 
79 1 -0.00494958 0.00304674 -0.0067899 0.000233 0.0116224 -0.00870638 -0.00201173 2650 
512 1 -0.00854578 0.00325723 -0.00642268 0.000847 0.000405434 -0.00312093 0.0049103 2650 
76 1 -0.00675866 0.00379007 -0.00705936 0.000233 -0.00400535 -0.00118408 0.016181 2650 
2 1 -0.0100159 0.00544089 -0.0071365 0.001312 0.000596146 -0.000340558 -0.00205963 2650 
404 1 -0.0153736 0.0173321 -0.00647457 0.000233 -0.0844675 -0.0305226 0.160415 2650 
105 1 -0.00462652 0.00574331 -0.005981 0.000233 -0.0102854 -0.00671896 -0.00423197 2650 
139 1 -0.00126928 0.0100398 -0.0052363 0.000847 -0.0143455 0.00436253 0.0104723 2650 
225 1 -0.0105305 0.0142611 -0.00507268 0.001312 -0.0146016 0.0149631 0.00135021 2650 
186 1 -0.0143922 0.029724 -0.00613602 0.001312 0.00474955 0.044462 -0.0114236 2650 
482 1 -0.00874524 0.0436963 -0.00506325 0.000233 0.000351426 0.0488467 0.0205314 2650 
112 1 -0.00659125 0.00132789 -0.00396016 0.000847 0.00623434 -0.0114499 0.00160916 2650 
464 1 -0.00210068 0.000697077 -0.00430761 0.000233 -0.00493927 -0.0139454 0.00770588 2650 
237 1 -0.0148892 0.00164659 -0.00374227 0.001312 0.00825852 -0.000719554 0.0112053 2650 
413 1 -0.00442001 0.0158025 -0.00415972 0.000233 -0.00459354 0.0175567 0.000506024 2650 
198 1 -0.0149267 0.0203295 -0.00385169 0.001312 -0.0177158 0.0215048 0.0140598 2650 
216 1 -3.60814e-05 0.0230736 -0.00384288 0.000847 0.00347878 0.0283419 0.0066285 2650 
222 1 -0.0106523 0.0317342 -0.00448302 0.000233 -0.0404047 0.0139169 0.0287244 2650 
213 1 -0.0103393 0.0595245 -0.00463589 0.000847 0.0100469 0.055921 0.0298514 2650 
145 1 -0.00748172 0.0014372 -0.00304235 8.4e-05 5.27386e-05 -0.0115425 0.00157743 2650 
285 1 -0.004117 0.000991563 -0.002186 0.000233 0 -0.01175 0 2650 
301 1 -0.000431 0.000149563 -0.003081 8.4e-05 0 -0.01175 0 2650 
245 1 -0.015895 0.00186856 -0.001607 0.000233 0 -0.01175 0 2650 
223 1 -0.0161548 0.00167306 -0.00236999 8.4e-05 0.00221747 -0.00814115 -0.0148246 2650 
467 1 -0.00918509 0.00292406 -0.00185029 0.000233 -0.0100048 0.0082939 0.00134744 2650 
204 1 -0.005796 0.00247456 -0.002651 0.000847 0 -0.01175 0 2650 
214 1 -0.001591 0.00305156 -0.002687 0.000847 0 -0.01175 0 2650 
63 1 -0.000147 0.00326956 -0.0027 0.000233 0 -0.01175 0 2650 
144 1 -0.00330712 0.0113762 -0.00312397 0.000233 -0.00755938 0.015293 0.0125537 2650 
75 1 -0.004976 0.00140256 -0.001105 0.000233 0 -0.01175 0 2650 
160 1 -0.00771196 0.00167686 -0.00103157 0.001312 -0.00645737 0.00596548 0.0122308 2650 
312 1 -0.00728412 0.00302943 -0.000306419 0.000233 0.00550684 -0.000383066 0.00953807 2650 
321 1 -0.01467 0.00350054 -0.00074935 0.000847 0.00245345 -0.00436164 -0.013662 2650 
242 1 -0.00835721 0.00416787 -0.00121656 0.000847 0.00129703 0.00497959 -0.00581669 2650 
316 1 -0.0123286 0.00662154 -3.66548e-05 0.000847 0.0343755 0.0571248 -0.0563723 2650 
8 1 -0.0135054 0.00946079 -0.000782261 0.000233 -0.0377859 0.00117362 -0.00427534 2650 
356 1 -0.0158998 0.0577444 -0.00092813 0.000847 -0.00141728 0.0767578 0.0390983 2650 
440 1 -0.0126856 0.000610093 0.000609832 0.000233 0.00637766 0.0032616 -0.0067895 2650 
345 1 -0.00811671 0.00219015 0.00131839 0.000847 -0.000382141 0.00185864 0.0190676 2650 
246 1 -0.016388 0.00368667 0.000171446 0.000233 0.000110581 -0.00366774 -0.00933702 2650 
168 1 -0.0111234 0.00404447 0.000774771 0.000233 -6.1116e-05 0.00638121 0.00638153 2650 
178 1 -0.0107363 0.0447103 0.000347849 0.000847 -0.0462435 0.0458375 0.0305035 2650 
376 1 -0.005395 0.000892563 0.002758 0.000233 0 -0.01175 0 2650 
219 1 -0.0051611 0.00545652 0.00164341 0.000233 0.00888838 0.00217768 -0.0132951 2650 
48 1 -0.012694 0.0206946 0.0020247 0.000847 0.00559545 0.0207473 0.0249892 2650 
244 1 -0.0116305 0.0202867 0.00312141 0.000233 0.00843508 0.0136148 -0.0172605 2650 
331 1 -0.0108053 0.0221637 0.00240253 0.000847 0.00943175 0.022743 0.0201838 2650 
137 1 -0.00873364 0.0283072 0.00300721 0.000847 0.0202347 0.0234308 -0.000934137 2650 
131 1 -0.009967 0.000742563 0.004313 0.000233 0 -0.01175 0 2650 
296 1 -0.002285 0.00258156 0.004233 0.000233 0 -0.01175 0 2650 
470 1 -0.008539 0.00364056 0.004033 8.4e-05 0 -0.01175 0 2650 
374 1 -0.00761853 0.00415293 0.00332578 0.000233 -0.00450428 -0.00788516 -0.00181456 2650 
469 1 -0.012765 0.00128156 0.005129 0.000233 0 -0.01175 0 2650 
90 1 -0.009269 0.00152456 0.005356 0.000233 0 -0.01175 0 2650 
153 1 -0.0157071 0.00209997 0.00543556 0.000233 0.0110839 -0.0144504 0.05609 2650 
361 1 -0.012031 0.00289956 0.0053 0.000233 0 -0.01175 0 2650 
394 1 -0.00338991 0.00647635 0.004865 0.000847 -0.0103893 -8.34416e-05 0.0121911 2650 
515 1 -0.0106034 0.0101807 0.00581587 0.000847 -0.033504 0.00740605 0.0118993 2650 
309 1 -0.0159305 0.0201918 0.00491321 0.000233 0.0166904 0.0162007 0.0398618 2650 
174 1 -0.00285946 0.02295 0.00628243 0.000847 0.000488961 0.0253716 0.00893035 2650 
165 1 -0.0148953 0.0314329 0.00602587 0.000847 0.0177184 0.040121 0.0425452 2650 
369 1 -0.00822743 0.00119688 0.00696248 0.000847 -0.000282964 -0.0121306 0.000366156 2650 
58 1 -0.00818352 0.0266018 0.00660811 0.000847 0.0395548 0.022066 0.0133145 2650 
462 1 -0.013341 0.00141656 0.008656 0.000847 0 -0.01175 0 2650 
45 1 -0.001763 0.000257563 0.008462 0.000847 0 -0.01175 0 2650 
71 1 -0.0014933 0.0486644 0.00843605 0.000847 -0.0146025 0.0443271 0.015827 2650 
503 1 -0.00101305 0.00337836 0.00956738 0.000233 -0.0185948 -0.00386918 0.0157593 2650 
16 1 -0.0121041 0.0174272 0.00983893 0.001312 0.0278386 0.0155818 0.037714 2650 
430 1 -0.000578786 0.0298929 0.010878 0.000233 0.0499107 0.0244434 -0.0183463 2650 
128 1 -0.003888 0.000674563 0.011415 0.000233 0 -0.01175 0 2650 
313 1 -0.004641 0.00332056 0.011299 0.000233 0 -0.01175 0 2650 
87 1 -0.0114396 0.0413315 0.01124 0.000847 -0.000765043 0.030515 -0.0195847 2650 
192 1 -0.009107 0.000538563 0.013183 0.000233 0 -0.01175 0 2650 
365 1 -0.0103156 0.0264092 0.0130491 0.000233 0.0557946 0.00219718 0.0473811 2650 
85 1 -0.00103357 0.0408565 0.014046 0.000847 0.0481049 0.0813343 -0.00493414 2650 
390 1 -0.000559464 0.00164743 0.0145663 0.000233 -0.00511716 -0.00910385 0.00447344 2650 
196 1 -0.00604724 0.0219303 0.0144349 0.000233 0.0126842 0.0305104 -0.000979182 2650 
476 1 -0.00177529 0.0215433 0.0156679 0.000847 -0.00299427 0.0238541 -0.00557422 2650 
31 1 -0.00492329 0.0321656 0.0147853 0.000847 0.0388337 0.0631175 0.00641639 2650 
126 1 -0.00155531 0.0365234 0.0156191 0.000847 -0.0194854 0.0413714 0.042256 2650 
143 1 -0.00444255 0.00846474 0.0159608 0.000233 0.0706384 0.00420091 0.0185832 2650 
441 1 -0.000958706 0.0320962 0.0166347 0.000233 -0.239195 0.0935405 0.00963831 2650 
263 1 -0.0349138 0.108317 0.057989 0.001312 2.48578 -0.204324 1.49645 2650 
228 1 0.00503758 -0.0515706 -0.0679674 0.000847 -22.5177 0.98184 -1.66867 2650 
460 1 0.00558417 -0.037583 -0.0679241 0.000847 -18.2393 0.855429 -1.49941 2650 
21 1 0.00620373 -0.0528706 -0.067871 0.000847 -22.7387 0.606855 -2.07806 2650 
318 1 0.0087165 -0.050442 -0.0675937 0.000847 -19.5587 0.635104 -2.52195 2650 
488 1 0.0137203 -0.0495071 -0.0667581 0.000847 -18.8045 0.739617 -3.86439 2650 
458 1 0.00553657 -0.0472904 -0.0674673 0.001312 -23.5208 0.61799 -1.92883 2650 
497 1 0.00447761 -0.0434599 -0.0675453 0.001312 -22.9618 1.66899 -1.52115 2650 
35 1 0.0105274 -0.0424131 -0.0673359 0.000847 -21.7688 -0.101642 -3.4028 2650 
315 1 0.0118412 -0.0397851 -0.0666497 0.001312 -21.8492 0.906017 -3.87908 2650 
162 1 0.0142131 -0.0389444 -0.0666555 0.000847 -21.7591 1.17785 -4.63874 2650 
494 1 0.021895 -0.0524415 -0.0651883 0.000233 -27.4946 0.64758 -9.23466 2650 
393 1 0.0151611 -0.0470245 -0.0659724 0.001312 -19.701 -0.4016 -4.52462 2650 
513 1 0.0205494 -0.0404476 -0.0649833 0.000847 -22.7726 0.00334689 -7.19854 2650 
269 1 0.0184501 -0.0324722 -0.0656104 0.000847 -23.9988 0.543272 -6.74603 2650 
302 1 0.0212378 -0.0467758 -0.0642796 0.001312 -22.7961 0.170692 -7.52515 2650 
123 1 0.0251417 -0.0422558 -0.0633488 0.000847 -21.8038 2.51297 -8.64945 2650 
459 1 0.0219233 -0.0413301 -0.0645328 0.000847 -22.3053 0.537316 -7.57465 2650 
159 1 0.0226229 -0.0393917 -0.0638051 0.001312 -22.147 0.117869 -7.84553 2650 
141 1 0.0291309 -0.0525642 -0.0622923 0.000233 -33.9478 6.00053 -15.8746 2650 
197 1 0.0277144 -8.39927e-05 -0.0630978 8.4e-05 -23.42 -1.94796e-07 -10.2868 2650 
47 1 0.0304038 -0.0139419 -0.0609997 0.000847 -21.3206 0.561459 -10.6205 2650 
84 1 0.0324707 -0.024935 -0.0599242 0.000847 -18.8052 2.71414 -10.184 2650 
397 1 0.0358501 -0.0102952 -0.0579839 0.000847 -38.2215 6.44176 -23.6175 2650 
18 1 0.0237143 -0.00798183 -0.0574871 0.000847 3.60924 -0.37351 -8.71313 2650 
92 1 0.042552 -0.0555935 -0.0540207 0.000233 -12.6523 2.18755 -9.96572 2650 
486 1 0.041122 -0.0386784 -0.0543581 0.000847 -18.5374 0.847145 -14.0136 2650 
148 1 0.0404815 -0.0218346 -0.0548407 0.000847 -23.6673 -5.38029 -17.4587 2650 
305 1 0.0424585 -0.0475737 -0.0533221 0.000847 -18.9944 -4.37567 -15.1138 2650 
43 1 0.048435 -0.0115013 -0.0473169 0.001312 -16.8921 -1.37521 -17.2734 2650 
46 1 0.05177 -0.0615251 -0.0443429 0.000847 -14.0419 -0.635922 -16.3817 2650 
120 1 0.0515953 -0.0240454 -0.0438511 0.001312 -14.8365 0.998019 -17.4385 2650 
367 1 0.0536495 -0.0477126 -0.0413151 0.001312 -13.9493 -3.24335 -18.095 2650 
433 1 0.0552483 -0.0209268 -0.0399341 0.000847 -16.2963 -1.46953 -22.5304 2650 
489 1 0.0561531 -0.027354 -0.0386484 0.000847 -13.0594 -2.30844 -18.9607 2650 
341 1 0.0567849 -0.0489505 -0.0368882 0.001312 -11.1138 0.135395 -17.0902 2650 
330 1 0.0606468 -0.011742 -0.0311318 0.000847 -10.4741 1.30496 -20.3889 2650 
101 1 0.0616925 -0.0114295 -0.0292418 0.000233 -8.06727 1.86617 -18.6519 2650 
268 1 0.0643251 -0.0485961 -0.0225779 0.000847 -7.21892 -3.57436 -20.5527 2650 
445 1 0.0659463 -0.0350128 -0.0154054 0.001312 -4.61398 1.91642 -19.6949 2650 
334 1 0.0666097 -0.0331578 -0.0145308 0.000847 -4.29911 1.96753 -19.5259 2650 
378 1 0.067089 -0.0298825 -0.0151211 0.000233 -6.46107 3.59317 -28.6605 2650 
175 1 0.00882586 -0.00133175 -0.0132256 0.000847 0.0213077 -0.00790836 0.0157649 2650 
347 1 0.067034 -0.0449656 -0.0124172 0.000847 -4.02949 -0.547059 -21.7387 2650 
317 1 0.0672171 -0.043632 -0.0113867 0.000847 -3.80027 -0.00439816 -22.4189 2650 
109 1 0.00219967 -0.000237638 -0.011069 0.000847 -0.00644707 -0.0128397 0.00917255 2650 
493 1 0.00821491 -0.000567749 -0.0123976 0.000233 0.0274959 -0.0115766 -0.00806934 2650 
342 1 0.000412217 -0.0002898 -0.0108287 0.000847 -0.000366473 -0.0116256 0.0101946 2650 
278 1 0.0676322 -0.0452212 -0.00873563 0.000847 -7.43837 15.8165 -57.5582 2650 
210 1 0.00557193 -0.000454551 -0.00820433 8.4e-05 -0.0111128 -0.0100912 0.00475607 2650 
33 1 0.0679853 -0.0164707 -0.00507956 0.000847 -1.61512 2.14793 -21.6024 2650 
177 1 0.068064 -0.0568527 -0.00393319 0.000847 -1.64203 -2.44632 -28.3975 2650 
473 1 0.0681014 -0.00969526 -0.0031503 0.000847 -0.90998 0.229166 -19.6583 2650 
142 1 0.000422 -0.00290044 -0.00166 0.000233 0 -0.01175 0 2650 
34 1 0.0117955 -0.00271269 -0.00199771 0.000847 -0.00383013 -0.0135192 -0.026499 2650 
11 1 0.015764 -0.00275344 -0.002545 0.000233 0 -0.01175 0 2650 
328 1 0.0109585 -0.00163445 -0.000178957 0.001312 -0.0129334 -0.000611698 -0.0304049 2650 
187 1 0.00749893 -0.000764831 -0.00123191 0.000847 -0.0130743 -0.00565345 0.00793079 2650 
220 1 0.0687723 -0.035912 3.29229e-05 0.000233 0.0141295 0.671406 -29.5004 2650 
449 1 0.0681492 -0.0400115 0.00197809 0.000847 0.846119 -2.34555 -29.1303 2650 
116 1 8e-05 -0.00113344 0.00308 0.000233 0 -0.01175 0 2650 
132 1 0.013326 -0.000576437 0.002036 8.4e-05 0 -0.01175 0 2650 
495 1 0.000772912 -0.0014924 0.00320479 0.000233 -0.0216097 -0.00536975 0.0219754 2650 
387 1 0.002106 -0.000147437 0.004988 0.000233 0 -0.01175 0 2650 
499 1 0.00574067 -0.000247947 0.005056 0.000847 0.00282975 -0.0129904 -0.00469531 2650 
167 1 0.009498 -0.00170844 0.007687 0.000233 0 -0.01175 0 2650 
471 1 0.00396668 -0.00235403 0.00934674 0.001312 -0.0156567 -0.0116236 0.0247204 2650 
119 1 0.00722 -0.00146144 0.008414 8.4e-05 0 -0.01175 0 2650 
184 1 0.00721588 -0.00108831 0.00792114 8.4e-05 -0.00176945 -0.0161585 -0.000587964 2650 
338 1 0.00992531 -0.00336322 0.00960215 0.000233 0.687877 -0.0301714 0.665481 2650 
420 1 0.067307 -0.00129768 0.0108888 0.000847 3.96227 1.1565 -23.6024 2650 
498 1 0.0669142 -0.0158513 0.0130555 0.000847 5.05806 3.81185 -25.9069 2650 
485 1 0.00701998 -0.00173961 0.0135568 0.000847 -0.00578755 -0.00883647 0.0307874 2650 
190 1 0.0670389 -0.00205689 0.0123697 0.000847 4.19397 -4.04597 -23.5919 2650 
265 1 0.00544215 -0.000264856 0.0134133 0.000847 -0.00812964 -0.01459 0.0163763 2650 
346 1 0.0666098 -0.0055577 0.0145355 0.000847 6.40846 -3.01085 -29.3479 2650 
411 1 0.0645929 -0.0414656 0.021798 0.000847 6.35959 -4.43863 -18.8316 2650 
111 1 0.0644874 -0.0615331 0.0221055 0.000847 6.07312 1.8669 -17.6454 2650 
480 1 0.0648698 -0.0417449 0.0228338 0.000233 6.56495 -3.93514 -18.6467 2650 
500 1 0.0631142 -0.052435 0.0257724 0.000847 10.0511 3.79728 -24.5974 2650 
487 1 0.0586303 -0.00187447 0.0347825 0.000847 14.2672 -1.63395 -24.0329 2650 
396 1 0.0548793 -0.0295344 0.0404354 0.000847 13.9791 1.24091 -18.9589 2650 
434 1 0.0528487 -0.0149515 0.0430566 0.000847 17.3513 -2.92061 -21.2828 2650 
189 1 0.0509401 -0.0603255 0.0452945 0.000847 15.9762 -4.73032 -17.9546 2650 
282 1 0.047398 -0.00891168 0.0489869 0.000847 17.814 4.34358 -17.224 2650 
522 1 0.0446863 -0.041381 0.0524648 8.4e-05 20.2684 1.00668 -17.2628 2650 
281 1 0.0433852 -0.0225685 0.0525713 0.000847 18.9817 1.13224 -15.6539 2650 
496 1 0.040086 -0.010851 0.0560583 8.4e-05 12.2482 0.385673 -8.75838 2650 
424 1 0.03716 -0.0610684 0.0571442 0.000847 27.5724 1.83232 -17.9184 2650 
389 1 0.0378353 -0.0555239 0.057423 0.000233 20.9155 -0.118245 -13.7802 2650 
373 1 0.0364659 -0.0209557 0.0575845 0.000847 21.8716 -0.149508 -13.8412 2650 
164 1 0.033692 -0.00768251 0.0592433 0.000847 11.8399 0.299832 -6.73194 2650 
519 1 0.0330699 -0.0624788 0.0602952 0.000233 27.438 1.8692 -14.8527 2650 
432 1 0.0262552 -0.0300606 0.0623924 0.001312 15.6838 -0.0767001 -6.59535 2650 
44 1 0.0217367 -0.0420726 0.064596 0.000847 22.6775 -1.16425 -7.62802 2650 
86 1 0.021923 -0.0264288 0.064533 0.000847 22.5885 0.925891 -7.67068 2650 
134 1 0.0143368 -0.0299363 0.0661653 0.001312 25.5119 2.19148 -5.47024 2650 
311 1 0.019387 -0.0214544 0.065975 0.000233 7.42052 -3.26059 -2.27786 2650 
29 1 0.00346603 -0.0058681 0.0675999 0.001312 15.1144 -0.783748 -0.774809 2650 
419 1 0.0288269 0.00131191 -0.0612428 0.001312 -1.57899 -2.23089e-06 -0.74321 2650 
366 1 0.005681 0.00184956 -0.015538 8.4e-05 0 -0.01175 0 2650 
444 1 0.000432 0.00392656 -0.014191 8.4e-05 0 -0.01175 0 2650 
224 1 0.00341755 0.00369705 -0.0140145 0.001312 0.0122427 0.0111667 0.00790625 2650 
30 1 0.00231929 0.0201134 -0.0131476 0.001312 -0.00353148 0.0092409 0.00816097 2650 
425 1 0.00270072 0.0264395 -0.0134926 0.000847 -0.00178317 0.0169229 0.0136358 2650 
251 1 0.00911087 0.0140028 -0.0113323 0.000847 0.0121918 0.002057 0.00619476 2650 
403 1 0.0121735 0.0235671 -0.0112001 0.000233 -0.00992673 0.0221863 -0.0117494 2650 
6 1 0.00312894 0.0533229 -0.012348 0.000847 -0.0179648 0.0964856 0.023264 2650 
422 1 0.000353197 0.00271509 -0.0102305 0.000847 0.00115368 -0.00430155 0.00770051 2650 
234 1 0.00697712 0.00164391 -0.0106318 0.000233 0.020544 -0.00153873 0.00479096 2650 
502 1 0.0106957 0.00746104 -0.0108463 0.000847 -0.00465413 -0.004325 -0.0011763 2650 
94 1 0.0106366 0.0154803 -0.00990748 0.001312 0.0022584 0.0112077 0.014202 2650 
329 1 0.0128082 0.0156122 -0.00987803 0.000847 0.00240939 0.00726232 0.00592291 2650 
391 1 0.010146 0.0190329 -0.0106437 0.000233 0.0202642 0.019737 -0.00497997 2650 
293 1 0.000332219 0.0518382 -0.00974792 0.000847 -0.0256201 0.0785861 -0.0341296 2650 
423 1 0.00457557 4.8684e-05 -0.00893935 0.000847 -0.0102803 -0.00282026 0.00942778 2650 
510 1 0.0127261 0.0103418 -0.00868926 0.001312 -0.0110185 0.00889625 -0.0146127 2650 
363 1 0.0140539 0.0147362 -0.00800701 0.000233 -0.00516116 0.0058541 -0.00751722 2650 
211 1 0.000326014 0.0219612 -0.00946201 0.001312 -0.00852625 0.0126877 -0.0169949 2650 
22 1 0.00735568 0.0278003 -0.00903707 0.000233 0.0309508 0.0365931 -0.01863 2650 
368 1 0.0130429 0.027545 -0.00841474 0.000847 0.0335713 0.0207598 0.00538703 2650 
400 1 0.008609 0.00388156 -0.006808 0.000233 0 -0.01175 0 2650 
81 1 0.0111399 0.00819247 -0.0068864 0.001312 -0.00427917 0.00171754 -0.00378792 2650 
108 1 0.0138697 0.0201414 -0.00733971 0.001312 -0.00404283 0.0204779 -0.0109249 2650 
188 1 0.00963189 0.0300888 -0.00775617 0.000847 0.0438808 0.0202514 0.00974275 2650 
12 1 0.00781365 0.00062751 -0.00596652 0.000233 0.0141703 -0.0120809 0.0695499 2650 
357 1 0.014809 0.00761324 -0.00621324 0.000847 0.0517887 0.0495089 0.0953987 2650 
372 1 0.0135596 0.00895353 -0.00626115 0.000847 -0.0100128 0.00430103 -0.0146967 2650 
107 1 0.0122449 0.0149893 -0.00552862 0.001312 -0.0107956 0.00228858 -0.01377 2650 
157 1 0.0129503 0.0171615 -0.00626928 0.000233 -0.00252876 -5.74435e-05 0.00600991 2650 
9 1 0.0145398 0.0274655 -0.00523419 0.000233 0.0104131 0.04503 -0.0493323 2650 
73 1 0.0153365 0.058556 -0.00477082 0.000847 -0.0130409 0.0928478 -0.0692402 2650 
27 1 0.00966 0.00189756 -0.004536 8.4e-05 0 -0.01175 0 2650 
292 1 0.00751653 0.00366591 -0.00462915 0.000847 -0.00147004 -0.0115677 -0.000761149 2650 
255 1 0.00609591 0.00954905 -0.00389604 0.000847 0.00392617 0.00903056 0.00898064 2650 
276 1 0.000551607 0.0120375 -0.00388146 0.001312 -0.0158282 0.0140503 0.0219122 2650 
17 1 0.00392723 0.00104596 -0.00173922 0.000847 -0.000232265 -0.01105 -0.00146143 2650 
80 1 0.000184 0.00335256 -0.002772 8.4e-05 0 -0.01175 0 2650 
388 1 0.0163546 0.00619069 -0.00302116 0.000233 0.0332269 0.0374608 0.123236 2650 
227 1 0.00987089 0.0142766 -0.00188145 0.000847 -0.0137908 0.00458495 0.00563828 2650 
50 1 0.00996031 0.0016735 -8.90068e-05 0.000233 -0.017712 0.0234448 -0.0274813 2650 
457 1 0.0126864 0.00792485 -0.00151507 8.4e-05 0.00244839 -0.00723877 0.00984229 2650 
377 1 0.0105274 0.0103502 -0.00117801 0.000233 0.0167908 0.00571065 0.0150393 2650 
156 1 0.0166743 0.0379126 -0.000701959 0.000233 0.00365866 0.0524537 -0.0858018 2650 
438 1 0.00851941 0.000598396 0.000206922 0.000847 -0.0286401 0.0133449 -0.0113983 2650 
472 1 0.0123585 0.000920372 0.000733106 0.000847 0.00355261 0.00733776 -0.00789527 2650 
215 1 0.000637247 0.00920439 0.00105503 0.000847 -0.00285515 0.00806101 0.0151955 2650 
74 1 0.00552337 0.0130825 0.000104839 0.000847 -0.00423609 0.00905328 0.00538328 2650 