LIGGGHTS (Version LIGGGHTS-PUBLIC 3.8.0, compiled 2022-11-07-16:55:38 by serperd1, git commit 86544c3f1215bc9744d7929e3eacf53ba086af9e)
Created orthogonal box = (-0.15 -0.15 -0.15) to (0.15 0.15 0.15)
  2 by 4 by 5 MPI processor grid

Reading STL file 'cone.stl' (mesh processing step 1/3) 

Reading STL file 'in_cyl.stl' (mesh processing step 1/3) 

Reading STL file 'top_cyl.stl' (mesh processing step 1/3) 

Reading STL file 'bot_cyl.stl' (mesh processing step 1/3) 

Reading STL file 'bottom_disk.stl' (mesh processing step 1/3) 

Reading STL file 'top_disk.stl' (mesh processing step 1/3) 
Fix particledistribution/discrete (id prob_par): distribution based on mass%:
    r_0to10p: d=1.680000e-04 (max. bounding sphere) mass%=10.000000%
    r_10to50p: d=4.656000e-04 (max. bounding sphere) mass%=40.000000%
    r_50to90p: d=1.693200e-03 (max. bounding sphere) mass%=40.000000%
    r_90to100p: d=2.624400e-03 (max. bounding sphere) mass%=10.000000%
Fix particledistribution/discrete (id prob_par): distribution based on number%:
    r_0to10p: d=1.680000e-04 (max. bounding sphere) number%=83.887052%
    r_10to50p: d=4.656000e-04 (max. bounding sphere) number%=15.763181%
    r_50to90p: d=1.693200e-03 (max. bounding sphere) number%=0.327762%
    r_90to100p: d=2.624400e-03 (max. bounding sphere) number%=0.022006%
Setting up run at Mon Jan  2 13:04:00 2023

Import and parallelization of mesh cone_mesh containing 868 triangle(s) successful
Import and parallelization of mesh inlet_cyl_wall_mesh containing 1064 triangle(s) successful
Import and parallelization of mesh top_cyl_wall_mesh containing 682 triangle(s) successful
Import and parallelization of mesh bot_cyl_wall_mesh containing 1280 triangle(s) successful
Import and parallelization of mesh bot_disk_wall_mesh containing 1682 triangle(s) successful
Import and parallelization of mesh top_disk_wall_mesh containing 1144 triangle(s) successful
Memory usage per processor = 954.637 Mbytes
    Step    Atoms         KinEng            CPU 
       0        0              0              0 
Loop time of 6.35866e-05 on 40 procs for 0 steps with 0 atoms, finish time Mon Jan  2 13:04:00 2023


Pair  time (%) = 0 (0)
Neigh time (%) = 0 (0)
Comm  time (%) = 0 (0)
Outpt time (%) = 0 (0)
Other time (%) = 6.35866e-05 (100)

Nlocal:    0 ave 0 max 0 min
Histogram: 40 0 0 0 0 0 0 0 0 0
Nghost:    0 ave 0 max 0 min
Histogram: 40 0 0 0 0 0 0 0 0 0
Neighs:    0 ave 0 max 0 min
Histogram: 40 0 0 0 0 0 0 0 0 0

Total # of neighbors = 0
Neighbor list builds = 0
Dangerous builds = 0
Setting up run at Mon Jan  2 13:04:00 2023

Memory usage per processor = 954.637 Mbytes
    Step    Atoms         KinEng            CPU 
       0        0              0              0 
       1        0              0    0.009766263 
Loop time of 0.00979163 on 40 procs for 1 steps with 0 atoms, finish time Mon Jan  2 13:04:00 2023


Pair  time (%) = 2.46382e-06 (0.0251626)
Neigh time (%) = 0 (0)
Comm  time (%) = 0.000237961 (2.43025)
Outpt time (%) = 0.000103196 (1.05392)
Other time (%) = 0.00944801 (96.4907)

Nlocal:    0 ave 0 max 0 min
Histogram: 40 0 0 0 0 0 0 0 0 0
Nghost:    0 ave 0 max 0 min
Histogram: 40 0 0 0 0 0 0 0 0 0
Neighs:    0 ave 0 max 0 min
Histogram: 40 0 0 0 0 0 0 0 0 0

Total # of neighbors = 0
Neighbor list builds = 0
Dangerous builds = 0
Scanning dump file ...
Reading snapshot from dump file ...
  orthogonal box = (-0.15 -0.15 -0.15) to (0.15 0.15 0.15)
  0 atoms before read
  522 atoms in snapshot
  0 atoms purged
  0 atoms replaced
  0 atoms trimmed
  522 atoms added
  522 atoms after read
Setting atom values ...
  522 settings made for type
  522 settings made for density
  522 settings made for vy
Setting up run at Mon Jan  2 13:04:00 2023

Memory usage per processor = 958.989 Mbytes
    Step    Atoms         KinEng            CPU 
       1      522  2.0467238e-07              0 
       2      522  2.2321206e-07    0.009125191 
Loop time of 0.00915075 on 40 procs for 1 steps with 522 atoms, finish time Mon Jan  2 13:04:00 2023


Pair  time (%) = 2.14483e-06 (0.0234388)
Neigh time (%) = 0 (0)
Comm  time (%) = 6.204e-06 (0.0677977)
Outpt time (%) = 0.000132994 (1.45336)
Other time (%) = 0.00900941 (98.4554)

Nlocal:    13.05 ave 230 max 0 min
Histogram: 36 2 0 0 0 0 0 0 1 1
Nghost:    6.9 ave 88 max 0 min
Histogram: 36 0 0 0 0 1 1 0 0 2
Neighs:    4.05 ave 71 max 0 min
Histogram: 36 2 0 0 0 0 0 0 0 2

Total # of neighbors = 162
Ave neighs/atom = 0.310345
Neighbor list builds = 0
Dangerous builds = 0
Setting up run at Mon Jan  2 13:04:00 2023

Memory usage per processor = 958.989 Mbytes
    Step    Atoms         KinEng            CPU 
       2      522  2.2321206e-07              0 
  154322      522  2.5096779e-05      1538.8676 
Loop time of 1538.87 on 40 procs for 154320 steps with 522 atoms, finish time Mon Jan  2 13:29:39 2023


Pair  time (%) = 0.332179 (0.021586)
Neigh time (%) = 0.13612 (0.00884549)
Comm  time (%) = 0.596428 (0.0387576)
Outpt time (%) = 0.00023446 (1.52359e-05)
Other time (%) = 1537.8 (99.9308)

Nlocal:    13.05 ave 225 max 0 min
Histogram: 36 0 2 0 0 0 0 0 0 2
Nghost:    6.975 ave 93 max 0 min
Histogram: 36 0 0 0 1 1 0 0 0 2
Neighs:    4.4 ave 82 max 0 min
Histogram: 36 2 0 0 0 0 0 0 1 1

Total # of neighbors = 176
Ave neighs/atom = 0.337165
Neighbor list builds = 412
Dangerous builds = 0
Setting up run at Mon Jan  2 13:29:39 2023

Memory usage per processor = 958.989 Mbytes
    Step    Atoms         KinEng            CPU 
  154322      522  2.5096779e-05              0 
  308642      522  0.00014274771      1548.7508 
Loop time of 1548.75 on 40 procs for 154320 steps with 522 atoms, finish time Mon Jan  2 13:55:28 2023


Pair  time (%) = 0.333158 (0.0215114)
Neigh time (%) = 0.136284 (0.00879959)
Comm  time (%) = 0.600588 (0.0387789)
Outpt time (%) = 0.000243543 (1.57251e-05)
Other time (%) = 1547.68 (99.9309)

Nlocal:    13.05 ave 215 max 0 min
Histogram: 36 0 2 0 0 0 0 0 0 2
Nghost:    7.05 ave 94 max 0 min
Histogram: 36 0 0 0 0 2 0 0 0 2
Neighs:    4.375 ave 75 max 0 min
Histogram: 36 1 1 0 0 0 0 0 0 2

Total # of neighbors = 175
Ave neighs/atom = 0.335249
Neighbor list builds = 412
Dangerous builds = 0
Setting up run at Mon Jan  2 13:55:28 2023

Memory usage per processor = 958.989 Mbytes
    Step    Atoms         KinEng            CPU 
  308642      522  0.00014274771              0 
  462962      522  0.00014423352      1546.1106 
Loop time of 1546.11 on 40 procs for 154320 steps with 522 atoms, finish time Mon Jan  2 14:21:14 2023


Pair  time (%) = 0.335818 (0.0217202)
Neigh time (%) = 0.136254 (0.00881267)
Comm  time (%) = 0.656266 (0.0424462)
Outpt time (%) = 0.000622667 (4.02731e-05)
Other time (%) = 1544.98 (99.927)

Nlocal:    13.05 ave 210 max 0 min
Histogram: 36 0 2 0 0 0 0 0 0 2
Nghost:    6.9 ave 92 max 0 min
Histogram: 36 0 0 0 1 1 0 0 0 2
Neighs:    4.275 ave 72 max 0 min
Histogram: 36 0 2 0 0 0 0 0 0 2

Total # of neighbors = 171
Ave neighs/atom = 0.327586
Neighbor list builds = 412
Dangerous builds = 0
Setting up run at Mon Jan  2 14:21:14 2023

Memory usage per processor = 958.989 Mbytes
    Step    Atoms         KinEng            CPU 
  462962      522  0.00014423352              0 
  617282      522  7.6652719e-05      1530.9365 
Loop time of 1530.94 on 40 procs for 154320 steps with 522 atoms, finish time Mon Jan  2 14:46:45 2023


Pair  time (%) = 0.332487 (0.0217179)
Neigh time (%) = 0.13693 (0.00894422)
Comm  time (%) = 0.615296 (0.0401908)
Outpt time (%) = 0.000562861 (3.67658e-05)
Other time (%) = 1529.85 (99.9291)

Nlocal:    13.05 ave 207 max 0 min
Histogram: 36 0 2 0 0 0 0 0 0 2
Nghost:    6.925 ave 90 max 0 min
Histogram: 36 0 0 0 0 1 1 0 0 2
Neighs:    4.1 ave 74 max 0 min
Histogram: 36 1 1 0 0 0 0 1 0 1

Total # of neighbors = 164
Ave neighs/atom = 0.314176
Neighbor list builds = 412
Dangerous builds = 0
Setting up run at Mon Jan  2 14:46:45 2023

Memory usage per processor = 958.989 Mbytes
    Step    Atoms         KinEng            CPU 
  617282      522  7.6652719e-05              0 
  771602      522   0.0003105504      1536.1058 
Loop time of 1536.11 on 40 procs for 154320 steps with 522 atoms, finish time Mon Jan  2 15:12:21 2023


Pair  time (%) = 0.330437 (0.0215114)
Neigh time (%) = 0.137733 (0.00896634)
Comm  time (%) = 0.630357 (0.041036)
Outpt time (%) = 0.000302547 (1.96957e-05)
Other time (%) = 1535.01 (99.9285)

Nlocal:    13.05 ave 208 max 0 min
Histogram: 36 0 2 0 0 0 0 0 0 2
Nghost:    6.9 ave 91 max 0 min
Histogram: 36 0 0 0 0 1 1 0 1 1
Neighs:    4 ave 70 max 0 min
Histogram: 36 1 1 0 0 0 0 0 1 1

Total # of neighbors = 160
Ave neighs/atom = 0.306513
Neighbor list builds = 412
Dangerous builds = 0
Setting up run at Mon Jan  2 15:12:22 2023

Memory usage per processor = 958.989 Mbytes
    Step    Atoms         KinEng            CPU 
  771602      522   0.0003105504              0 
  925922      522   0.0020053579      1537.8196 
Loop time of 1537.82 on 40 procs for 154320 steps with 522 atoms, finish time Mon Jan  2 15:37:59 2023


Pair  time (%) = 0.329922 (0.0214539)
Neigh time (%) = 0.145754 (0.00947797)
Comm  time (%) = 0.612638 (0.0398381)
Outpt time (%) = 0.000201444 (1.30993e-05)
Other time (%) = 1536.73 (99.9292)

Nlocal:    13.05 ave 206 max 0 min
Histogram: 36 0 2 0 0 0 0 0 0 2
Nghost:    6.775 ave 86 max 0 min
Histogram: 36 0 0 0 0 1 1 0 1 1
Neighs:    3.975 ave 74 max 0 min
Histogram: 36 2 0 0 0 0 0 1 0 1

Total # of neighbors = 159
Ave neighs/atom = 0.304598
Neighbor list builds = 436
Dangerous builds = 0
Setting up run at Mon Jan  2 15:38:00 2023

Memory usage per processor = 958.989 Mbytes
    Step    Atoms         KinEng            CPU 
  925922      522   0.0020053579              0 
 1080242      522  0.00024007912      1537.6248 
Loop time of 1537.63 on 40 procs for 154320 steps with 522 atoms, finish time Mon Jan  2 16:03:37 2023


Pair  time (%) = 0.329193 (0.0214092)
Neigh time (%) = 0.148478 (0.0096563)
Comm  time (%) = 0.736733 (0.0479137)
Outpt time (%) = 0.000507437 (3.30013e-05)
Other time (%) = 1536.41 (99.921)

Nlocal:    13.05 ave 204 max 0 min
Histogram: 36 0 2 0 0 0 0 0 0 2
Nghost:    6.85 ave 84 max 0 min
Histogram: 36 0 0 0 0 0 2 0 0 2
Neighs:    4.05 ave 72 max 0 min
Histogram: 36 0 2 0 0 0 0 1 0 1

Total # of neighbors = 162
Ave neighs/atom = 0.310345
Neighbor list builds = 443
Dangerous builds = 0
Setting up run at Mon Jan  2 16:03:37 2023

Memory usage per processor = 958.989 Mbytes
    Step    Atoms         KinEng            CPU 
 1080242      522  0.00024007912              0 
 1234562      522  0.00041094969      1537.7514 
Loop time of 1537.76 on 40 procs for 154320 steps with 522 atoms, finish time Mon Jan  2 16:29:15 2023


Pair  time (%) = 0.335152 (0.0217948)
Neigh time (%) = 0.125458 (0.00815847)
Comm  time (%) = 0.836963 (0.0544274)
Outpt time (%) = 0.000670167 (4.35808e-05)
Other time (%) = 1536.46 (99.9156)

Nlocal:    13.05 ave 203 max 0 min
Histogram: 36 0 2 0 0 0 0 0 0 2
Nghost:    6.575 ave 85 max 0 min
Histogram: 36 0 0 0 0 2 0 0 0 2
Neighs:    4.35 ave 76 max 0 min
Histogram: 36 0 2 0 0 0 0 1 0 1

Total # of neighbors = 174
Ave neighs/atom = 0.333333
Neighbor list builds = 412
Dangerous builds = 0
Setting up run at Mon Jan  2 16:29:15 2023

Memory usage per processor = 958.989 Mbytes
    Step    Atoms         KinEng            CPU 
 1234562      522  0.00041094969              0 
 1388882      522  0.00052014136      1538.0621 
Loop time of 1538.06 on 40 procs for 154320 steps with 522 atoms, finish time Mon Jan  2 16:54:53 2023


Pair  time (%) = 0.340104 (0.0221125)
Neigh time (%) = 0.120064 (0.00780617)
Comm  time (%) = 0.923558 (0.0600469)
Outpt time (%) = 0.000527179 (3.42755e-05)
Other time (%) = 1536.68 (99.91)

Nlocal:    13.05 ave 200 max 0 min
Histogram: 36 0 2 0 0 0 0 0 0 2
Nghost:    6.425 ave 84 max 0 min
Histogram: 36 0 0 0 0 2 0 0 1 1
Neighs:    4.275 ave 78 max 0 min
Histogram: 36 0 2 0 0 0 1 0 0 1

Total # of neighbors = 171
Ave neighs/atom = 0.327586
Neighbor list builds = 412
Dangerous builds = 0
Setting up run at Mon Jan  2 16:54:53 2023

Memory usage per processor = 958.989 Mbytes
    Step    Atoms         KinEng            CPU 
 1388882      522  0.00052014136              0 
 1543202      519  0.00039442396      1530.9162 
Loop time of 1530.92 on 40 procs for 154320 steps with 519 atoms, finish time Mon Jan  2 17:20:24 2023


Pair  time (%) = 0.337838 (0.0220677)
Neigh time (%) = 0.187824 (0.0122687)
Comm  time (%) = 0.902199 (0.0589319)
Outpt time (%) = 0.00054676 (3.57146e-05)
Other time (%) = 1529.49 (99.9067)

Nlocal:    12.975 ave 196 max 0 min
Histogram: 36 0 1 1 0 0 0 0 0 2
Nghost:    6.325 ave 85 max 0 min
Histogram: 36 0 0 0 0 1 1 0 1 1
Neighs:    4.2 ave 74 max 0 min
Histogram: 36 0 2 0 0 0 0 1 0 1

Total # of neighbors = 168
Ave neighs/atom = 0.323699
Neighbor list builds = 696
Dangerous builds = 283
Setting up run at Mon Jan  2 17:20:24 2023

Memory usage per processor = 958.989 Mbytes
    Step    Atoms         KinEng            CPU 
 1543202      519  0.00039442396              0 
 1697522      519  0.00026510324      1716.3025 
Loop time of 1716.3 on 40 procs for 154320 steps with 519 atoms, finish time Mon Jan  2 17:49:01 2023


Pair  time (%) = 0.334512 (0.0194903)
Neigh time (%) = 0.120046 (0.00699446)
Comm  time (%) = 0.94641 (0.0551424)
Outpt time (%) = 0.000465834 (2.71417e-05)
Other time (%) = 1714.9 (99.9183)

Nlocal:    12.975 ave 196 max 0 min
Histogram: 36 0 1 1 0 0 0 0 0 2
Nghost:    6.375 ave 85 max 0 min
Histogram: 36 0 0 0 0 2 0 0 1 1
Neighs:    4.175 ave 71 max 0 min
Histogram: 36 0 1 1 0 0 0 1 0 1

Total # of neighbors = 167
Ave neighs/atom = 0.321773
Neighbor list builds = 412
Dangerous builds = 0
Setting up run at Mon Jan  2 17:49:01 2023

Memory usage per processor = 958.989 Mbytes
    Step    Atoms         KinEng            CPU 
 1697522      519  0.00026510324              0 
 1851842      519   0.0017722857      1627.8555 
Loop time of 1627.86 on 40 procs for 154320 steps with 519 atoms, finish time Mon Jan  2 18:16:08 2023


Pair  time (%) = 0.33692 (0.0206972)
Neigh time (%) = 0.840194 (0.0516135)
Comm  time (%) = 1.88135 (0.115572)
Outpt time (%) = 0.000723502 (4.44451e-05)
Other time (%) = 1624.8 (99.8121)

Nlocal:    12.975 ave 195 max 0 min
Histogram: 36 0 1 1 0 0 0 0 0 2
Nghost:    6.375 ave 87 max 0 min
Histogram: 36 0 0 0 0 2 0 0 1 1
Neighs:    4.05 ave 68 max 0 min
Histogram: 36 0 1 1 0 0 0 1 0 1

Total # of neighbors = 162
Ave neighs/atom = 0.312139
Neighbor list builds = 2568
Dangerous builds = 0
Setting up run at Mon Jan  2 18:16:09 2023

Memory usage per processor = 958.989 Mbytes
    Step    Atoms         KinEng            CPU 
 1851842      519   0.0017722857              0 
 2006162      518   0.0056321456      1603.5954 
Loop time of 1603.6 on 40 procs for 154320 steps with 518 atoms, finish time Mon Jan  2 18:42:52 2023


Pair  time (%) = 0.33981 (0.0211905)
Neigh time (%) = 1.08688 (0.0677778)
Comm  time (%) = 2.46178 (0.153516)
Outpt time (%) = 0.00055424 (3.45623e-05)
Other time (%) = 1599.71 (99.7575)

Nlocal:    12.95 ave 197 max 0 min
Histogram: 36 0 1 1 0 0 0 0 0 2
Nghost:    6.35 ave 84 max 0 min
Histogram: 36 0 0 0 0 2 0 0 1 1
Neighs:    4.2 ave 68 max 0 min
Histogram: 36 0 1 0 1 0 0 1 0 1

Total # of neighbors = 168
Ave neighs/atom = 0.324324
Neighbor list builds = 4064
Dangerous builds = 2309
Setting up run at Mon Jan  2 18:42:52 2023

Memory usage per processor = 958.989 Mbytes
    Step    Atoms         KinEng            CPU 
 2006162      518   0.0056321456              0 
 2160482      518     0.01653359      1587.9456 
Loop time of 1587.95 on 40 procs for 154320 steps with 518 atoms, finish time Mon Jan  2 19:09:20 2023


Pair  time (%) = 0.331186 (0.0208563)
Neigh time (%) = 0.475662 (0.0299545)
Comm  time (%) = 1.41753 (0.0892681)
Outpt time (%) = 0.000556549 (3.50484e-05)
Other time (%) = 1585.72 (99.8599)

Nlocal:    12.95 ave 194 max 0 min
Histogram: 36 0 1 1 0 0 0 0 0 2
Nghost:    6.6 ave 90 max 0 min
Histogram: 36 0 0 0 1 1 0 0 1 1
Neighs:    4.375 ave 75 max 0 min
Histogram: 36 0 1 1 0 0 0 1 0 1

Total # of neighbors = 175
Ave neighs/atom = 0.337838
Neighbor list builds = 1452
Dangerous builds = 0
Setting up run at Mon Jan  2 19:09:20 2023

Memory usage per processor = 958.989 Mbytes
    Step    Atoms         KinEng            CPU 
 2160482      518     0.01653359              0 
 2314802      516    0.019636629      1689.8126 
Loop time of 1689.81 on 40 procs for 154320 steps with 516 atoms, finish time Mon Jan  2 19:37:30 2023


Pair  time (%) = 0.343634 (0.0203356)
Neigh time (%) = 2.27919 (0.134878)
Comm  time (%) = 3.47433 (0.205605)
Outpt time (%) = 0.00296133 (0.000175246)
Other time (%) = 1683.71 (99.639)

Nlocal:    12.9 ave 195 max 0 min
Histogram: 36 0 2 0 0 0 0 0 0 2
Nghost:    6.5 ave 83 max 0 min
Histogram: 36 0 0 0 0 1 1 0 1 1
Neighs:    4.1 ave 74 max 0 min
Histogram: 36 0 2 0 0 0 1 0 0 1

Total # of neighbors = 164
Ave neighs/atom = 0.317829
Neighbor list builds = 7162
Dangerous builds = 362
Setting up run at Mon Jan  2 19:37:30 2023

Memory usage per processor = 958.989 Mbytes
    Step    Atoms         KinEng            CPU 
 2314802      516    0.019636629              0 
 2469122      516   0.0079729343      1583.5697 
Loop time of 1583.57 on 40 procs for 154320 steps with 516 atoms, finish time Mon Jan  2 20:03:54 2023


Pair  time (%) = 0.342251 (0.0216126)
Neigh time (%) = 2.34184 (0.147883)
Comm  time (%) = 4.62084 (0.291799)
Outpt time (%) = 0.000495329 (3.12792e-05)
Other time (%) = 1576.26 (99.5387)

Nlocal:    12.9 ave 195 max 0 min
Histogram: 36 0 1 1 0 0 0 0 0 2
Nghost:    6.7 ave 81 max 0 min
Histogram: 36 0 0 0 1 0 0 1 0 2
Neighs:    4.275 ave 73 max 0 min
Histogram: 36 0 1 1 0 0 0 1 0 1

Total # of neighbors = 171
Ave neighs/atom = 0.331395
Neighbor list builds = 7042
Dangerous builds = 0
Setting up run at Mon Jan  2 20:03:54 2023

Memory usage per processor = 958.989 Mbytes
    Step    Atoms         KinEng            CPU 
 2469122      516   0.0079729343              0 
 2623442      516     0.35753065      1571.9581 
Loop time of 1571.96 on 40 procs for 154320 steps with 516 atoms, finish time Mon Jan  2 20:30:06 2023


Pair  time (%) = 0.337287 (0.0214565)
Neigh time (%) = 1.56239 (0.0993912)
Comm  time (%) = 3.63733 (0.231388)
Outpt time (%) = 0.000497067 (3.16209e-05)
Other time (%) = 1566.42 (99.6477)

Nlocal:    12.9 ave 194 max 0 min
Histogram: 36 0 2 0 0 0 0 0 0 2
Nghost:    6.75 ave 82 max 0 min
Histogram: 36 0 0 0 0 1 0 1 0 2
Neighs:    4.25 ave 71 max 0 min
Histogram: 36 0 1 1 0 0 0 1 0 1

Total # of neighbors = 170
Ave neighs/atom = 0.329457
Neighbor list builds = 4735
Dangerous builds = 0
Setting up run at Mon Jan  2 20:30:06 2023

Memory usage per processor = 958.989 Mbytes
    Step    Atoms         KinEng            CPU 
 2623442      516     0.35753065              0 
 2777762      516    0.085003702      1576.0793 
Loop time of 1576.08 on 40 procs for 154320 steps with 516 atoms, finish time Mon Jan  2 20:56:22 2023


Pair  time (%) = 0.338748 (0.0214931)
Neigh time (%) = 1.83286 (0.116292)
Comm  time (%) = 3.22051 (0.204337)
Outpt time (%) = 0.000499492 (3.1692e-05)
Other time (%) = 1570.69 (99.6578)

Nlocal:    12.9 ave 195 max 0 min
Histogram: 36 0 2 0 0 0 0 0 0 2
Nghost:    6.55 ave 80 max 0 min
Histogram: 36 0 0 0 0 1 0 1 0 2
Neighs:    4.3 ave 71 max 0 min
Histogram: 36 1 0 1 0 0 0 0 1 1

Total # of neighbors = 172
Ave neighs/atom = 0.333333
Neighbor list builds = 5518
Dangerous builds = 0
Setting up run at Mon Jan  2 20:56:22 2023

Memory usage per processor = 958.989 Mbytes
    Step    Atoms         KinEng            CPU 
 2777762      516    0.085003702              0 
 2932082      514     0.13735418      1552.0632 
Loop time of 1552.06 on 40 procs for 154320 steps with 514 atoms, finish time Mon Jan  2 21:22:14 2023


Pair  time (%) = 0.325384 (0.0209646)
Neigh time (%) = 1.29245 (0.083273)
Comm  time (%) = 2.71009 (0.174612)
Outpt time (%) = 0.000459403 (2.95995e-05)
Other time (%) = 1547.74 (99.7211)

Nlocal:    12.85 ave 194 max 0 min
Histogram: 36 0 2 0 0 0 0 0 1 1
Nghost:    6.725 ave 85 max 0 min
Histogram: 36 0 0 0 1 0 0 1 1 1
Neighs:    4.2 ave 74 max 0 min
Histogram: 36 1 0 1 0 0 0 1 0 1

Total # of neighbors = 168
Ave neighs/atom = 0.326848
Neighbor list builds = 3910
Dangerous builds = 0
Setting up run at Mon Jan  2 21:22:14 2023

Memory usage per processor = 958.989 Mbytes
    Step    Atoms         KinEng            CPU 
 2932082      514     0.13735418              0 
 3086402      512     0.13910862      1553.4489 
Loop time of 1553.45 on 40 procs for 154320 steps with 512 atoms, finish time Mon Jan  2 21:48:08 2023


Pair  time (%) = 0.327647 (0.0210916)
Neigh time (%) = 1.45944 (0.0939483)
Comm  time (%) = 2.90743 (0.18716)
Outpt time (%) = 0.000414014 (2.66513e-05)
Other time (%) = 1548.75 (99.6978)

Nlocal:    12.8 ave 190 max 0 min
Histogram: 36 0 1 1 0 0 0 0 1 1
Nghost:    6.55 ave 81 max 0 min
Histogram: 36 0 0 0 1 0 0 1 0 2
Neighs:    4.375 ave 77 max 0 min
Histogram: 36 1 0 1 0 0 0 1 0 1

Total # of neighbors = 175
Ave neighs/atom = 0.341797
Neighbor list builds = 4414
Dangerous builds = 27
Setting up run at Mon Jan  2 21:48:08 2023

Memory usage per processor = 958.989 Mbytes
    Step    Atoms         KinEng            CPU 
 3086402      512     0.13910862              0 
 3240722      511    0.096920537      1553.7692 
Loop time of 1553.77 on 40 procs for 154320 steps with 511 atoms, finish time Mon Jan  2 22:14:01 2023


Pair  time (%) = 0.328075 (0.0211148)
Neigh time (%) = 1.40349 (0.0903283)
Comm  time (%) = 3.85054 (0.247819)
Outpt time (%) = 0.00300353 (0.000193306)
Other time (%) = 1548.18 (99.6405)

Nlocal:    12.775 ave 184 max 0 min
Histogram: 36 0 1 1 0 0 0 0 0 2
Nghost:    6.175 ave 75 max 0 min
Histogram: 36 0 0 0 0 1 0 1 0 2
Neighs:    4.1 ave 77 max 0 min
Histogram: 36 1 1 0 0 0 1 0 0 1

Total # of neighbors = 164
Ave neighs/atom = 0.320939
Neighbor list builds = 4404
Dangerous builds = 319
Setting up run at Mon Jan  2 22:14:02 2023

Memory usage per processor = 958.989 Mbytes
    Step    Atoms         KinEng            CPU 
 3240722      511    0.096920537              0 
 3395042      510       0.074213      1580.0169 
Loop time of 1580.02 on 40 procs for 154320 steps with 510 atoms, finish time Mon Jan  2 22:40:22 2023


Pair  time (%) = 0.332824 (0.0210646)
Neigh time (%) = 2.50042 (0.158253)
Comm  time (%) = 4.94572 (0.313017)
Outpt time (%) = 0.000516692 (3.27016e-05)
Other time (%) = 1572.24 (99.5076)

Nlocal:    12.75 ave 187 max 0 min
Histogram: 36 0 1 1 0 0 0 0 1 1
Nghost:    6.2 ave 78 max 0 min
Histogram: 36 0 0 0 1 0 0 1 0 2
Neighs:    4.025 ave 78 max 0 min
Histogram: 36 1 1 0 0 0 0 1 0 1

Total # of neighbors = 161
Ave neighs/atom = 0.315686
Neighbor list builds = 7620
Dangerous builds = 0
Setting up run at Mon Jan  2 22:40:22 2023

Memory usage per processor = 958.989 Mbytes
    Step    Atoms         KinEng            CPU 
 3395042      510       0.074213              0 
 3549362      508     0.13354674      1554.7861 
Loop time of 1554.79 on 40 procs for 154320 steps with 508 atoms, finish time Mon Jan  2 23:06:16 2023


Pair  time (%) = 0.324003 (0.0208391)
Neigh time (%) = 1.52769 (0.098257)
Comm  time (%) = 4.03766 (0.259692)
Outpt time (%) = 0.000504241 (3.24315e-05)
Other time (%) = 1548.9 (99.6212)

Nlocal:    12.7 ave 182 max 0 min
Histogram: 36 0 1 1 0 0 0 0 0 2
Nghost:    6.2 ave 76 max 0 min
Histogram: 36 0 0 0 0 1 0 1 0 2
Neighs:    4.225 ave 89 max 0 min
Histogram: 36 1 1 0 0 1 0 0 0 1

Total # of neighbors = 169
Ave neighs/atom = 0.332677
Neighbor list builds = 4614
Dangerous builds = 39
Setting up run at Mon Jan  2 23:06:17 2023

Memory usage per processor = 958.989 Mbytes
    Step    Atoms         KinEng            CPU 
 3549362      508     0.13354674              0 
 3703682      508     0.11126075      1549.3877 
Loop time of 1549.39 on 40 procs for 154320 steps with 508 atoms, finish time Mon Jan  2 23:32:06 2023


Pair  time (%) = 0.322724 (0.0208291)
Neigh time (%) = 0.926322 (0.0597863)
Comm  time (%) = 2.35633 (0.152081)
Outpt time (%) = 0.000432772 (2.79318e-05)
Other time (%) = 1545.78 (99.7673)

Nlocal:    12.7 ave 179 max 0 min
Histogram: 35 1 1 1 0 0 0 0 0 2
Nghost:    5.9 ave 76 max 0 min
Histogram: 36 0 0 0 0 1 1 0 1 1
Neighs:    3.975 ave 78 max 0 min
Histogram: 36 1 1 0 0 0 1 0 0 1

Total # of neighbors = 159
Ave neighs/atom = 0.312992
Neighbor list builds = 2817
Dangerous builds = 0
Setting up run at Mon Jan  2 23:32:06 2023

Memory usage per processor = 958.989 Mbytes
    Step    Atoms         KinEng            CPU 
 3703682      508     0.11126075              0 
 3858002      506    0.092538275      1557.1957 
Loop time of 1557.2 on 40 procs for 154320 steps with 506 atoms, finish time Mon Jan  2 23:58:03 2023


Pair  time (%) = 0.325472 (0.0209012)
Neigh time (%) = 1.7341 (0.11136)
Comm  time (%) = 4.03043 (0.258826)
Outpt time (%) = 0.000442063 (2.83884e-05)
Other time (%) = 1551.11 (99.6089)

Nlocal:    12.65 ave 173 max 0 min
Histogram: 35 1 0 2 0 0 0 0 0 2
Nghost:    5.975 ave 76 max 0 min
Histogram: 36 0 0 0 1 0 1 0 0 2
Neighs:    4.175 ave 77 max 0 min
Histogram: 36 1 0 1 0 0 1 0 0 1

Total # of neighbors = 167
Ave neighs/atom = 0.33004
Neighbor list builds = 5228
Dangerous builds = 34
Setting up run at Mon Jan  2 23:58:03 2023

Memory usage per processor = 958.989 Mbytes
    Step    Atoms         KinEng            CPU 
 3858002      506    0.092538275              0 
 4012322      506     0.19846788      1550.1813 
Loop time of 1550.18 on 40 procs for 154320 steps with 506 atoms, finish time Tue Jan  3 00:23:53 2023


Pair  time (%) = 0.322848 (0.0208265)
Neigh time (%) = 1.34939 (0.0870471)
Comm  time (%) = 3.40851 (0.219878)
Outpt time (%) = 0.000487023 (3.14172e-05)
Other time (%) = 1545.1 (99.6722)

Nlocal:    12.65 ave 172 max 0 min
Histogram: 35 1 2 0 0 0 0 0 0 2
Nghost:    5.775 ave 73 max 0 min
Histogram: 36 0 0 0 1 0 1 0 0 2
Neighs:    3.675 ave 58 max 0 min
Histogram: 36 0 1 1 0 0 0 0 0 2

Total # of neighbors = 147
Ave neighs/atom = 0.290514
Neighbor list builds = 4070
Dangerous builds = 0
Setting up run at Tue Jan  3 00:23:54 2023

Memory usage per processor = 958.989 Mbytes
    Step    Atoms         KinEng            CPU 
 4012322      506     0.19846788              0 
 4166642      505     0.13925144      1553.3706 
Loop time of 1553.37 on 40 procs for 154320 steps with 505 atoms, finish time Tue Jan  3 00:49:47 2023


Pair  time (%) = 0.322333 (0.0207505)
Neigh time (%) = 1.12378 (0.0723447)
Comm  time (%) = 3.00736 (0.193602)
Outpt time (%) = 0.00052765 (3.39681e-05)
Other time (%) = 1548.92 (99.7133)

Nlocal:    12.625 ave 173 max 0 min
Histogram: 36 0 0 2 0 0 0 0 0 2
Nghost:    5.75 ave 72 max 0 min
Histogram: 36 0 0 0 0 1 1 0 0 2
Neighs:    3.6 ave 57 max 0 min
Histogram: 36 0 1 1 0 0 0 0 0 2

Total # of neighbors = 144
Ave neighs/atom = 0.285149
Neighbor list builds = 3409
Dangerous builds = 0
Setting up run at Tue Jan  3 00:49:47 2023

Memory usage per processor = 958.989 Mbytes
    Step    Atoms         KinEng            CPU 
 4166642      505     0.13925144              0 
 4320962      504     0.10672041      1538.0429 
Loop time of 1538.04 on 40 procs for 154320 steps with 504 atoms, finish time Tue Jan  3 01:15:25 2023


Pair  time (%) = 0.318436 (0.0207039)
Neigh time (%) = 0.697158 (0.0453276)
Comm  time (%) = 2.15575 (0.140162)
Outpt time (%) = 0.000457428 (2.97409e-05)
Other time (%) = 1534.87 (99.7938)

Nlocal:    12.6 ave 173 max 0 min
Histogram: 34 2 1 1 0 0 0 0 0 2
Nghost:    5.825 ave 68 max 0 min
Histogram: 36 0 0 0 0 0 1 1 0 2
Neighs:    3.45 ave 57 max 0 min
Histogram: 36 0 1 1 0 0 0 0 1 1

Total # of neighbors = 138
Ave neighs/atom = 0.27381
Neighbor list builds = 2128
Dangerous builds = 0
Setting up run at Tue Jan  3 01:15:25 2023

Memory usage per processor = 958.989 Mbytes
    Step    Atoms         KinEng            CPU 
 4320962      504     0.10672041              0 
 4475282      504     0.11271662      1550.7241 
Loop time of 1550.72 on 40 procs for 154320 steps with 504 atoms, finish time Tue Jan  3 01:41:16 2023


Pair  time (%) = 0.32123 (0.0207148)
Neigh time (%) = 0.943802 (0.060862)
Comm  time (%) = 2.64632 (0.17065)
Outpt time (%) = 0.000460125 (2.96717e-05)
Other time (%) = 1546.81 (99.7477)

Nlocal:    12.6 ave 173 max 0 min
Histogram: 35 1 1 1 0 0 0 0 0 2
Nghost:    5.675 ave 67 max 0 min
Histogram: 36 0 0 0 0 0 1 1 1 1
Neighs:    3.525 ave 60 max 0 min
Histogram: 36 0 1 1 0 0 0 1 0 1

Total # of neighbors = 141
Ave neighs/atom = 0.279762
Neighbor list builds = 2867
Dangerous builds = 0
Setting up run at Tue Jan  3 01:41:16 2023

Memory usage per processor = 958.989 Mbytes
    Step    Atoms         KinEng            CPU 
 4475282      504     0.11271662              0 
 4629602      503     0.12850434       1597.879 
Loop time of 1597.88 on 40 procs for 154320 steps with 503 atoms, finish time Tue Jan  3 02:07:54 2023


Pair  time (%) = 0.33512 (0.0209728)
Neigh time (%) = 3.90561 (0.244425)
Comm  time (%) = 9.22245 (0.577168)
Outpt time (%) = 0.000485631 (3.03922e-05)
Other time (%) = 1584.42 (99.1574)

Nlocal:    12.575 ave 175 max 0 min
Histogram: 35 1 1 1 0 0 0 0 1 1
Nghost:    5.9 ave 69 max 0 min
Histogram: 36 0 0 0 0 0 1 1 0 2
Neighs:    3.175 ave 56 max 0 min
Histogram: 36 0 2 0 0 0 0 1 0 1

Total # of neighbors = 127
Ave neighs/atom = 0.252485
Neighbor list builds = 11940
Dangerous builds = 330
Setting up run at Tue Jan  3 02:07:54 2023

Memory usage per processor = 958.989 Mbytes
    Step    Atoms         KinEng            CPU 
 4629602      503     0.12850434              0 
 4783922      501     0.11151624      1541.8055 
Loop time of 1541.81 on 40 procs for 154320 steps with 501 atoms, finish time Tue Jan  3 02:33:36 2023


Pair  time (%) = 0.316566 (0.0205321)
Neigh time (%) = 0.867323 (0.0562537)
Comm  time (%) = 3.20456 (0.207845)
Outpt time (%) = 0.000545491 (3.538e-05)
Other time (%) = 1537.42 (99.7153)

Nlocal:    12.525 ave 176 max 0 min
Histogram: 35 1 1 1 0 0 0 0 1 1
Nghost:    5.725 ave 65 max 0 min
Histogram: 36 0 0 0 0 0 2 0 0 2
Neighs:    3.225 ave 62 max 0 min
Histogram: 36 0 2 0 0 1 0 0 0 1

Total # of neighbors = 129
Ave neighs/atom = 0.257485
Neighbor list builds = 2640
Dangerous builds = 5
Setting up run at Tue Jan  3 02:33:36 2023

Memory usage per processor = 958.989 Mbytes
    Step    Atoms         KinEng            CPU 
 4783922      501     0.11151624              0 
 4938242      499     0.10638367      1547.4526 
Loop time of 1547.45 on 40 procs for 154320 steps with 499 atoms, finish time Tue Jan  3 02:59:23 2023


Pair  time (%) = 0.316343 (0.0204428)
Neigh time (%) = 0.881123 (0.0569402)
Comm  time (%) = 2.80403 (0.181203)
Outpt time (%) = 0.000475854 (3.07508e-05)
Other time (%) = 1543.45 (99.7414)

Nlocal:    12.475 ave 176 max 0 min
Histogram: 34 2 1 1 0 0 0 0 1 1
Nghost:    5.65 ave 67 max 0 min
Histogram: 36 0 0 0 0 1 0 1 0 2
Neighs:    3.15 ave 65 max 0 min
Histogram: 36 2 0 0 0 0 1 0 0 1

Total # of neighbors = 126
Ave neighs/atom = 0.252505
Neighbor list builds = 2680
Dangerous builds = 11
Setting up run at Tue Jan  3 02:59:23 2023

Memory usage per processor = 958.989 Mbytes
    Step    Atoms         KinEng            CPU 
 4938242      499     0.10638367              0 
 5092562      497     0.10521896      1560.6699 
Loop time of 1560.67 on 40 procs for 154320 steps with 497 atoms, finish time Tue Jan  3 03:25:24 2023


Pair  time (%) = 0.324693 (0.0208047)
Neigh time (%) = 1.8654 (0.119526)
Comm  time (%) = 5.16211 (0.330762)
Outpt time (%) = 0.000450937 (2.88938e-05)
Other time (%) = 1553.32 (99.5289)

Nlocal:    12.425 ave 177 max 0 min
Histogram: 34 2 2 0 0 0 0 0 1 1
Nghost:    5.575 ave 64 max 0 min
Histogram: 36 0 0 0 0 1 0 1 0 2
Neighs:    3.275 ave 70 max 0 min
Histogram: 36 2 0 0 0 1 0 0 0 1

Total # of neighbors = 131
Ave neighs/atom = 0.263581
Neighbor list builds = 5644
Dangerous builds = 0
Setting up run at Tue Jan  3 03:25:24 2023

Memory usage per processor = 958.989 Mbytes
    Step    Atoms         KinEng            CPU 
 5092562      497     0.10521896              0 
 5246882      496      0.2035529      1559.4392 
Loop time of 1559.44 on 40 procs for 154320 steps with 496 atoms, finish time Tue Jan  3 03:51:23 2023


Pair  time (%) = 0.320022 (0.0205216)
Neigh time (%) = 1.48196 (0.0950316)
Comm  time (%) = 4.66388 (0.299074)
Outpt time (%) = 0.000487366 (3.12526e-05)
Other time (%) = 1552.97 (99.5853)

Nlocal:    12.4 ave 175 max 0 min
Histogram: 33 3 2 0 0 0 0 1 0 1
Nghost:    5.425 ave 62 max 0 min
Histogram: 36 0 0 0 0 1 0 0 1 2
Neighs:    3.325 ave 67 max 0 min
Histogram: 36 2 0 0 0 0 1 0 0 1

Total # of neighbors = 133
Ave neighs/atom = 0.268145
Neighbor list builds = 4536
Dangerous builds = 0
Setting up run at Tue Jan  3 03:51:24 2023

Memory usage per processor = 958.989 Mbytes
    Step    Atoms         KinEng            CPU 
 5246882      496      0.2035529              0 
 5401202      496     0.11798783       1545.258 
Loop time of 1545.26 on 40 procs for 154320 steps with 496 atoms, finish time Tue Jan  3 04:17:09 2023


Pair  time (%) = 0.316317 (0.0204702)
Neigh time (%) = 1.04368 (0.0675405)
Comm  time (%) = 3.18266 (0.205963)
Outpt time (%) = 0.000477004 (3.08689e-05)
Other time (%) = 1540.72 (99.706)

Nlocal:    12.4 ave 175 max 0 min
Histogram: 33 3 2 0 0 0 0 1 0 1
Nghost:    5.125 ave 61 max 0 min
Histogram: 36 0 0 0 0 1 0 1 0 2
Neighs:    3.175 ave 65 max 0 min
Histogram: 37 1 0 0 0 0 1 0 0 1

Total # of neighbors = 127
Ave neighs/atom = 0.256048
Neighbor list builds = 3156
Dangerous builds = 0
Setting up run at Tue Jan  3 04:17:09 2023

Memory usage per processor = 958.989 Mbytes
    Step    Atoms         KinEng            CPU 
 5401202      496     0.11798783              0 
 5555522      494     0.17181131      1544.3134 
Loop time of 1544.31 on 40 procs for 154320 steps with 494 atoms, finish time Tue Jan  3 04:42:53 2023


Pair  time (%) = 0.319304 (0.0206761)
Neigh time (%) = 1.08938 (0.0705417)
Comm  time (%) = 3.35351 (0.217152)
Outpt time (%) = 0.000490281 (3.17475e-05)
Other time (%) = 1539.55 (99.6916)

Nlocal:    12.35 ave 178 max 0 min
Histogram: 34 3 1 0 0 0 0 1 0 1
Nghost:    5.075 ave 61 max 0 min
Histogram: 36 0 0 0 0 1 0 0 2 1
Neighs:    3.25 ave 72 max 0 min
Histogram: 37 1 0 0 0 1 0 0 0 1

Total # of neighbors = 130
Ave neighs/atom = 0.263158
Neighbor list builds = 3328
Dangerous builds = 102
Setting up run at Tue Jan  3 04:42:53 2023

Memory usage per processor = 958.989 Mbytes
    Step    Atoms         KinEng            CPU 
 5555522      494     0.17181131              0 
 5709842      493     0.13739205      1547.5247 
Loop time of 1547.53 on 40 procs for 154320 steps with 493 atoms, finish time Tue Jan  3 05:08:41 2023


Pair  time (%) = 0.317772 (0.0205342)
Neigh time (%) = 0.762681 (0.0492839)
Comm  time (%) = 2.50741 (0.162027)
Outpt time (%) = 0.000508598 (3.28652e-05)
Other time (%) = 1543.94 (99.7681)

Nlocal:    12.325 ave 182 max 0 min
Histogram: 35 1 1 1 0 0 0 1 0 1
Nghost:    4.725 ave 53 max 0 min
Histogram: 36 0 0 0 0 1 0 0 0 3
Neighs:    3.025 ave 69 max 0 min
Histogram: 37 1 0 0 0 1 0 0 0 1

Total # of neighbors = 121
Ave neighs/atom = 0.245436
Neighbor list builds = 2321
Dangerous builds = 2
Setting up run at Tue Jan  3 05:08:41 2023

Memory usage per processor = 958.989 Mbytes
    Step    Atoms         KinEng            CPU 
 5709842      493     0.13739205              0 
 5864162      492     0.16511823      1561.5449 
Loop time of 1561.54 on 40 procs for 154320 steps with 492 atoms, finish time Tue Jan  3 05:34:43 2023


Pair  time (%) = 0.318153 (0.0203742)
Neigh time (%) = 1.80091 (0.115329)
Comm  time (%) = 4.98603 (0.319301)
Outpt time (%) = 0.000494371 (3.16591e-05)
Other time (%) = 1554.44 (99.545)

Nlocal:    12.3 ave 184 max 0 min
Histogram: 34 3 1 0 0 0 0 1 0 1
Nghost:    4.625 ave 51 max 0 min
Histogram: 36 0 0 0 1 0 0 0 0 3
Neighs:    2.75 ave 69 max 0 min
Histogram: 38 0 0 0 1 0 0 0 0 1

Total # of neighbors = 110
Ave neighs/atom = 0.223577
Neighbor list builds = 5590
Dangerous builds = 324
Setting up run at Tue Jan  3 05:34:43 2023

Memory usage per processor = 958.989 Mbytes
    Step    Atoms         KinEng            CPU 
 5864162      492     0.16511823              0 
 6018482      490     0.12611036      1544.8376 
Loop time of 1544.84 on 40 procs for 154320 steps with 490 atoms, finish time Tue Jan  3 06:00:27 2023


Pair  time (%) = 0.311815 (0.0201844)
Neigh time (%) = 0.845148 (0.0547079)
Comm  time (%) = 2.9728 (0.192435)
Outpt time (%) = 0.000424506 (2.7479e-05)
Other time (%) = 1540.71 (99.7326)

Nlocal:    12.25 ave 183 max 0 min
Histogram: 34 2 2 0 0 0 0 1 0 1
Nghost:    4.6 ave 53 max 0 min
Histogram: 36 0 0 0 0 1 0 0 1 2
Neighs:    2.7 ave 69 max 0 min
Histogram: 37 1 0 1 0 0 0 0 0 1

Total # of neighbors = 108
Ave neighs/atom = 0.220408
Neighbor list builds = 2736
Dangerous builds = 556
Setting up run at Tue Jan  3 06:00:28 2023

Memory usage per processor = 958.989 Mbytes
    Step    Atoms         KinEng            CPU 
 6018482      490     0.12611036              0 
 6172802      488      0.1264911      1573.9043 
Loop time of 1573.9 on 40 procs for 154320 steps with 488 atoms, finish time Tue Jan  3 06:26:41 2023


Pair  time (%) = 0.3223 (0.0204777)
Neigh time (%) = 2.1334 (0.135548)
Comm  time (%) = 6.28672 (0.399434)
Outpt time (%) = 0.000500134 (3.17766e-05)
Other time (%) = 1565.16 (99.4445)

Nlocal:    12.2 ave 181 max 0 min
Histogram: 34 2 2 0 0 0 0 1 0 1
Nghost:    4.6 ave 52 max 0 min
Histogram: 36 0 0 0 0 1 0 0 0 3
Neighs:    2.675 ave 67 max 0 min
Histogram: 37 1 0 1 0 0 0 0 0 1

Total # of neighbors = 107
Ave neighs/atom = 0.219262
Neighbor list builds = 6823
Dangerous builds = 306
Setting up run at Tue Jan  3 06:26:42 2023

Memory usage per processor = 958.989 Mbytes
    Step    Atoms         KinEng            CPU 
 6172802      488      0.1264911              0 
 6327122      484      11.413459      1571.5126 
Loop time of 1571.51 on 40 procs for 154320 steps with 484 atoms, finish time Tue Jan  3 06:52:53 2023


Pair  time (%) = 0.31856 (0.0202709)
Neigh time (%) = 2.45739 (0.156371)
Comm  time (%) = 6.66159 (0.423897)
Outpt time (%) = 0.0030938 (0.000196868)
Other time (%) = 1562.07 (99.3993)

Nlocal:    12.1 ave 182 max 0 min
Histogram: 33 3 2 0 0 0 1 0 0 1
Nghost:    4.475 ave 51 max 0 min
Histogram: 36 0 0 0 1 0 0 0 0 3
Neighs:    2.65 ave 67 max 0 min
Histogram: 37 1 0 1 0 0 0 0 0 1

Total # of neighbors = 106
Ave neighs/atom = 0.219008
Neighbor list builds = 7566
Dangerous builds = 62
Setting up run at Tue Jan  3 06:52:53 2023

Memory usage per processor = 958.989 Mbytes
    Step    Atoms         KinEng            CPU 
 6327122      484      11.413459              0 
 6481442      482     0.32476295      1599.9879 
Loop time of 1599.99 on 40 procs for 154320 steps with 482 atoms, finish time Tue Jan  3 07:19:33 2023


Pair  time (%) = 0.325321 (0.0203327)
Neigh time (%) = 3.69678 (0.23105)
Comm  time (%) = 9.55812 (0.597387)
Outpt time (%) = 0.000506404 (3.16505e-05)
Other time (%) = 1586.41 (99.1512)

Nlocal:    12.05 ave 182 max 0 min
Histogram: 33 4 1 0 0 0 1 0 0 1
Nghost:    4.3 ave 50 max 0 min
Histogram: 36 0 0 0 1 0 0 0 1 2
Neighs:    2.525 ave 65 max 0 min
Histogram: 37 1 0 1 0 0 0 0 0 1

Total # of neighbors = 101
Ave neighs/atom = 0.209544
Neighbor list builds = 11081
Dangerous builds = 1
Setting up run at Tue Jan  3 07:19:33 2023

Memory usage per processor = 958.989 Mbytes
    Step    Atoms         KinEng            CPU 
 6481442      482     0.32476295              0 
 6635762      481     0.21776094      1599.4527 
Loop time of 1599.45 on 40 procs for 154320 steps with 481 atoms, finish time Tue Jan  3 07:46:13 2023


Pair  time (%) = 0.321757 (0.0201167)
Neigh time (%) = 3.77134 (0.23579)
Comm  time (%) = 8.44891 (0.528237)
Outpt time (%) = 0.000501673 (3.13653e-05)
Other time (%) = 1586.91 (99.2158)

Nlocal:    12.025 ave 178 max 0 min
Histogram: 34 2 2 0 0 0 1 0 0 1
Nghost:    4.3 ave 50 max 0 min
Histogram: 36 0 0 0 1 0 0 0 1 2
Neighs:    2.7 ave 70 max 0 min
Histogram: 37 1 1 0 0 0 0 0 0 1

Total # of neighbors = 108
Ave neighs/atom = 0.224532
Neighbor list builds = 11184
Dangerous builds = 0
Setting up run at Tue Jan  3 07:46:13 2023

Memory usage per processor = 958.989 Mbytes
    Step    Atoms         KinEng            CPU 
 6635762      481     0.21776094              0 
 6790082      479     0.23345188       1597.983 
Loop time of 1597.98 on 40 procs for 154320 steps with 479 atoms, finish time Tue Jan  3 08:12:51 2023


Pair  time (%) = 0.328328 (0.0205464)
Neigh time (%) = 3.6674 (0.229502)
Comm  time (%) = 9.59446 (0.60041)
Outpt time (%) = 0.000481108 (3.01072e-05)
Other time (%) = 1584.39 (99.1495)

Nlocal:    11.975 ave 176 max 0 min
Histogram: 33 3 2 0 0 0 1 0 0 1
Nghost:    4.525 ave 53 max 0 min
Histogram: 36 0 0 0 1 0 0 1 0 2
Neighs:    2.575 ave 68 max 0 min
Histogram: 37 1 1 0 0 0 0 0 0 1

Total # of neighbors = 103
Ave neighs/atom = 0.215031
Neighbor list builds = 11051
Dangerous builds = 414
Setting up run at Tue Jan  3 08:12:51 2023

Memory usage per processor = 958.989 Mbytes
    Step    Atoms         KinEng            CPU 
 6790082      479     0.23345188              0 
 6944402      477     0.21641194      1597.3301 
Loop time of 1597.33 on 40 procs for 154320 steps with 477 atoms, finish time Tue Jan  3 08:39:28 2023


Pair  time (%) = 0.323157 (0.0202311)
Neigh time (%) = 3.63743 (0.227719)
Comm  time (%) = 9.65455 (0.604418)
Outpt time (%) = 0.000458088 (2.86783e-05)
Other time (%) = 1583.71 (99.1476)

Nlocal:    11.925 ave 176 max 0 min
Histogram: 34 2 2 0 0 0 1 0 0 1
Nghost:    4.475 ave 50 max 0 min
Histogram: 36 0 0 0 1 0 0 0 0 3
Neighs:    2.525 ave 66 max 0 min
Histogram: 37 1 1 0 0 0 0 0 0 1

Total # of neighbors = 101
Ave neighs/atom = 0.21174
Neighbor list builds = 10910
Dangerous builds = 189
Setting up run at Tue Jan  3 08:39:28 2023

Memory usage per processor = 958.989 Mbytes
    Step    Atoms         KinEng            CPU 
 6944402      477     0.21641194              0 
 7098722      474     0.22687018      1648.6452 
Loop time of 1648.65 on 40 procs for 154320 steps with 474 atoms, finish time Tue Jan  3 09:06:57 2023


Pair  time (%) = 0.325557 (0.0197469)
Neigh time (%) = 3.64071 (0.22083)
Comm  time (%) = 10.905 (0.661454)
Outpt time (%) = 0.000477043 (2.89355e-05)
Other time (%) = 1633.77 (99.0979)

Nlocal:    11.85 ave 173 max 0 min
Histogram: 34 2 1 1 0 0 0 1 0 1
Nghost:    4.4 ave 54 max 0 min
Histogram: 36 0 0 0 1 0 0 1 1 1
Neighs:    2.525 ave 62 max 0 min
Histogram: 37 0 1 1 0 0 0 0 0 1

Total # of neighbors = 101
Ave neighs/atom = 0.21308
Neighbor list builds = 11269
Dangerous builds = 844
Setting up run at Tue Jan  3 09:06:57 2023

Memory usage per processor = 958.989 Mbytes
    Step    Atoms         KinEng            CPU 
 7098722      474     0.22687018              0 
 7253042      473     0.39633768      1582.6921 
Loop time of 1582.69 on 40 procs for 154320 steps with 473 atoms, finish time Tue Jan  3 09:33:20 2023


Pair  time (%) = 0.320506 (0.0202507)
Neigh time (%) = 2.7338 (0.172731)
Comm  time (%) = 7.60851 (0.480732)
Outpt time (%) = 0.00338035 (0.000213582)
Other time (%) = 1572.03 (99.3261)

Nlocal:    11.825 ave 172 max 0 min
Histogram: 34 2 1 1 0 0 0 1 0 1
Nghost:    4.525 ave 53 max 0 min
Histogram: 36 0 0 0 1 0 0 0 1 2
Neighs:    2.325 ave 60 max 0 min
Histogram: 37 1 1 0 0 0 0 0 0 1

Total # of neighbors = 93
Ave neighs/atom = 0.196617
Neighbor list builds = 8166
Dangerous builds = 0
Setting up run at Tue Jan  3 09:33:20 2023

Memory usage per processor = 958.989 Mbytes
    Step    Atoms         KinEng            CPU 
 7253042      473     0.39633768              0 
 7407362      472     0.27700615      1594.7158 
Loop time of 1594.72 on 40 procs for 154320 steps with 472 atoms, finish time Tue Jan  3 09:59:55 2023


Pair  time (%) = 0.31231 (0.019584)
Neigh time (%) = 1.09239 (0.0685009)
Comm  time (%) = 3.38022 (0.211964)
Outpt time (%) = 0.000493404 (3.09399e-05)
Other time (%) = 1589.93 (99.6999)

Nlocal:    11.8 ave 171 max 0 min
Histogram: 34 2 1 1 0 0 0 1 0 1
Nghost:    4.075 ave 53 max 0 min
Histogram: 36 0 0 1 0 0 0 1 1 1
Neighs:    2.25 ave 53 max 0 min
Histogram: 37 0 2 0 0 0 0 0 0 1

Total # of neighbors = 90
Ave neighs/atom = 0.190678
Neighbor list builds = 3297
Dangerous builds = 0
Setting up run at Tue Jan  3 09:59:55 2023

Memory usage per processor = 958.989 Mbytes
    Step    Atoms         KinEng            CPU 
 7407362      472     0.27700615              0 
 7561682      472     0.23937651      1554.2202 
Loop time of 1554.22 on 40 procs for 154320 steps with 472 atoms, finish time Tue Jan  3 10:25:49 2023


Pair  time (%) = 0.313064 (0.0201428)
Neigh time (%) = 1.47909 (0.0951657)
Comm  time (%) = 4.46285 (0.287144)
Outpt time (%) = 0.000499759 (3.21549e-05)
Other time (%) = 1547.97 (99.5975)

Nlocal:    11.8 ave 170 max 0 min
Histogram: 34 2 1 1 0 0 0 1 0 1
Nghost:    4.325 ave 50 max 0 min
Histogram: 36 0 0 0 0 1 0 1 0 2
Neighs:    2.175 ave 52 max 0 min
Histogram: 37 0 2 0 0 0 0 0 0 1

Total # of neighbors = 87
Ave neighs/atom = 0.184322
Neighbor list builds = 4439
Dangerous builds = 0
Setting up run at Tue Jan  3 10:25:49 2023

Memory usage per processor = 958.989 Mbytes
    Step    Atoms         KinEng            CPU 
 7561682      472     0.23937651              0 
 7716002      472     0.23174465      1565.3554 
Loop time of 1565.36 on 40 procs for 154320 steps with 472 atoms, finish time Tue Jan  3 10:51:54 2023


Pair  time (%) = 0.301054 (0.0192323)
Neigh time (%) = 1.27606 (0.0815186)
Comm  time (%) = 4.23795 (0.270734)
Outpt time (%) = 0.000470993 (3.00886e-05)
Other time (%) = 1559.54 (99.6285)

Nlocal:    11.8 ave 169 max 0 min
Histogram: 34 2 1 1 0 0 0 1 0 1
Nghost:    4.05 ave 48 max 0 min
Histogram: 36 0 0 0 1 0 0 1 0 2
Neighs:    2.075 ave 52 max 0 min
Histogram: 37 0 2 0 0 0 0 0 0 1

Total # of neighbors = 83
Ave neighs/atom = 0.175847
Neighbor list builds = 3786
Dangerous builds = 0
Setting up run at Tue Jan  3 10:51:54 2023

Memory usage per processor = 958.989 Mbytes
    Step    Atoms         KinEng            CPU 
 7716002      472     0.23174465              0 
 7870322      470     0.39715865      1590.1903 
Loop time of 1590.19 on 40 procs for 154320 steps with 470 atoms, finish time Tue Jan  3 11:18:25 2023


Pair  time (%) = 0.308641 (0.019409)
Neigh time (%) = 2.05081 (0.128966)
Comm  time (%) = 5.58837 (0.351428)
Outpt time (%) = 0.000455814 (2.86641e-05)
Other time (%) = 1582.24 (99.5002)

Nlocal:    11.75 ave 165 max 0 min
Histogram: 33 3 1 1 0 0 0 1 0 1
Nghost:    4.15 ave 50 max 0 min
Histogram: 36 0 0 0 1 0 1 0 1 1
Neighs:    1.925 ave 46 max 0 min
Histogram: 37 0 1 1 0 0 0 0 0 1

Total # of neighbors = 77
Ave neighs/atom = 0.16383
Neighbor list builds = 6209
Dangerous builds = 226
Setting up run at Tue Jan  3 11:18:26 2023

Memory usage per processor = 958.989 Mbytes
    Step    Atoms         KinEng            CPU 
 7870322      470     0.39715865              0 
 8024642      469     0.23371817      1656.2291 
Loop time of 1656.23 on 40 procs for 154320 steps with 469 atoms, finish time Tue Jan  3 11:46:02 2023


Pair  time (%) = 0.336248 (0.020302)
Neigh time (%) = 6.55632 (0.395858)
Comm  time (%) = 17.6693 (1.06684)
Outpt time (%) = 0.000503932 (3.04265e-05)
Other time (%) = 1631.67 (98.517)

Nlocal:    11.725 ave 161 max 0 min
Histogram: 34 2 1 1 0 0 0 1 0 1
Nghost:    3.925 ave 50 max 0 min
Histogram: 36 0 0 0 1 0 0 2 0 1
Neighs:    1.9 ave 43 max 0 min
Histogram: 36 1 1 1 0 0 0 0 0 1

Total # of neighbors = 76
Ave neighs/atom = 0.162047
Neighbor list builds = 19634
Dangerous builds = 4
Setting up run at Tue Jan  3 11:46:02 2023

Memory usage per processor = 958.989 Mbytes
    Step    Atoms         KinEng            CPU 
 8024642      469     0.23371817              0 
 8178962      465     0.21573866      1593.6058 
Loop time of 1593.61 on 40 procs for 154320 steps with 465 atoms, finish time Tue Jan  3 12:12:36 2023


Pair  time (%) = 0.31675 (0.0198763)
Neigh time (%) = 3.43842 (0.215763)
Comm  time (%) = 8.02528 (0.503593)
Outpt time (%) = 0.0212873 (0.0013358)
Other time (%) = 1581.8 (99.2594)

Nlocal:    11.625 ave 160 max 0 min
Histogram: 34 0 3 1 0 0 0 1 0 1
Nghost:    3.7 ave 49 max 0 min
Histogram: 36 0 0 0 1 0 1 1 0 1
Neighs:    2.175 ave 48 max 0 min
Histogram: 36 1 1 1 0 0 0 0 0 1

Total # of neighbors = 87
Ave neighs/atom = 0.187097
Neighbor list builds = 10403
Dangerous builds = 654
Setting up run at Tue Jan  3 12:12:36 2023

Memory usage per processor = 958.989 Mbytes
    Step    Atoms         KinEng            CPU 
 8178962      465     0.21573866              0 
 8333282      463     0.26212765      1637.4614 
Loop time of 1637.46 on 40 procs for 154320 steps with 463 atoms, finish time Tue Jan  3 12:39:53 2023


Pair  time (%) = 0.334309 (0.0204163)
Neigh time (%) = 6.02188 (0.367757)
Comm  time (%) = 12.62 (0.770705)
Outpt time (%) = 0.000537529 (3.2827e-05)
Other time (%) = 1618.49 (98.8411)

Nlocal:    11.575 ave 161 max 0 min
Histogram: 34 1 3 0 0 0 0 1 0 1
Nghost:    3.8 ave 49 max 0 min
Histogram: 36 0 0 0 1 0 1 1 0 1
Neighs:    2.4 ave 51 max 0 min
Histogram: 37 0 1 0 1 0 0 0 0 1

Total # of neighbors = 96
Ave neighs/atom = 0.207343
Neighbor list builds = 18052
Dangerous builds = 301
Setting up run at Tue Jan  3 12:39:53 2023

Memory usage per processor = 958.989 Mbytes
    Step    Atoms         KinEng            CPU 
 8333282      463     0.26212765              0 
 8487602      463     0.34500195       1619.941 
Loop time of 1619.94 on 40 procs for 154320 steps with 463 atoms, finish time Tue Jan  3 13:06:53 2023


Pair  time (%) = 0.324605 (0.0200381)
Neigh time (%) = 4.74429 (0.292868)
Comm  time (%) = 11.4055 (0.704071)
Outpt time (%) = 0.000527619 (3.25703e-05)
Other time (%) = 1603.47 (98.983)

Nlocal:    11.575 ave 160 max 0 min
Histogram: 34 1 2 1 0 0 0 1 0 1
Nghost:    3.7 ave 48 max 0 min
Histogram: 36 0 0 0 1 0 1 1 0 1
Neighs:    2.375 ave 53 max 0 min
Histogram: 37 0 1 0 1 0 0 0 0 1

Total # of neighbors = 95
Ave neighs/atom = 0.205184
Neighbor list builds = 14072
Dangerous builds = 0
Setting up run at Tue Jan  3 13:06:53 2023

Memory usage per processor = 958.989 Mbytes
    Step    Atoms         KinEng            CPU 
 8487602      463     0.34500195              0 
 8641922      463     0.31200141       1549.531 
Loop time of 1549.53 on 40 procs for 154320 steps with 463 atoms, finish time Tue Jan  3 13:32:43 2023


Pair  time (%) = 0.306864 (0.0198037)
Neigh time (%) = 1.56546 (0.101028)
Comm  time (%) = 4.75847 (0.307091)
Outpt time (%) = 0.00048285 (3.1161e-05)
Other time (%) = 1542.9 (99.572)

Nlocal:    11.575 ave 158 max 0 min
Histogram: 33 3 1 1 0 0 0 1 0 1
Nghost:    3.925 ave 50 max 0 min
Histogram: 36 0 0 0 0 2 0 0 1 1
Neighs:    2.45 ave 55 max 0 min
Histogram: 37 0 1 0 1 0 0 0 0 1

Total # of neighbors = 98
Ave neighs/atom = 0.211663
Neighbor list builds = 4663
Dangerous builds = 0
Setting up run at Tue Jan  3 13:32:43 2023

Memory usage per processor = 958.989 Mbytes
    Step    Atoms         KinEng            CPU 
 8641922      463     0.31200141              0 
 8796242      462     0.30077028      1553.7821 
Loop time of 1553.78 on 40 procs for 154320 steps with 462 atoms, finish time Tue Jan  3 13:58:37 2023


Pair  time (%) = 0.305035 (0.0196318)
Neigh time (%) = 0.954172 (0.0614096)
Comm  time (%) = 3.24208 (0.208657)
Outpt time (%) = 0.000544097 (3.50176e-05)
Other time (%) = 1549.28 (99.7103)

Nlocal:    11.55 ave 156 max 0 min
Histogram: 33 3 1 1 0 0 0 1 0 1
Nghost:    3.95 ave 55 max 0 min
Histogram: 36 0 0 0 1 1 0 1 0 1
Neighs:    2.375 ave 51 max 0 min
Histogram: 37 0 1 0 1 0 0 0 0 1

Total # of neighbors = 95
Ave neighs/atom = 0.205628
Neighbor list builds = 2887
Dangerous builds = 7
Setting up run at Tue Jan  3 13:58:37 2023

Memory usage per processor = 958.989 Mbytes
    Step    Atoms         KinEng            CPU 
 8796242      462     0.30077028              0 
 8950562      461     0.29364556      1557.2317 
Loop time of 1557.23 on 40 procs for 154320 steps with 461 atoms, finish time Tue Jan  3 14:24:34 2023


Pair  time (%) = 0.307196 (0.0197271)
Neigh time (%) = 1.54308 (0.0990915)
Comm  time (%) = 4.37249 (0.280786)
Outpt time (%) = 0.000450518 (2.89307e-05)
Other time (%) = 1551.01 (99.6004)

Nlocal:    11.525 ave 154 max 0 min
Histogram: 33 3 1 1 0 0 0 1 0 1
Nghost:    4.05 ave 56 max 0 min
Histogram: 36 0 0 0 1 0 1 1 0 1
Neighs:    2.325 ave 50 max 0 min
Histogram: 37 0 0 1 1 0 0 0 0 1

Total # of neighbors = 93
Ave neighs/atom = 0.201735
Neighbor list builds = 4630
Dangerous builds = 0
Setting up run at Tue Jan  3 14:24:34 2023

Memory usage per processor = 958.989 Mbytes
    Step    Atoms         KinEng            CPU 
 8950562      461     0.29364556              0 
 9104882      460     0.46452162      1555.7333 
Loop time of 1555.73 on 40 procs for 154320 steps with 460 atoms, finish time Tue Jan  3 14:50:30 2023


Pair  time (%) = 0.304353 (0.0195633)
Neigh time (%) = 1.12483 (0.0723022)
Comm  time (%) = 3.21099 (0.206397)
Outpt time (%) = 0.00055181 (3.54695e-05)
Other time (%) = 1551.09 (99.7017)

Nlocal:    11.5 ave 152 max 0 min
Histogram: 32 3 2 1 0 0 0 1 0 1
Nghost:    4.1 ave 59 max 0 min
Histogram: 36 0 0 1 0 1 1 0 0 1
Neighs:    2.075 ave 47 max 0 min
Histogram: 37 0 1 1 0 0 0 0 0 1

Total # of neighbors = 83
Ave neighs/atom = 0.180435
Neighbor list builds = 3461
Dangerous builds = 1
Setting up run at Tue Jan  3 14:50:30 2023

Memory usage per processor = 958.989 Mbytes
    Step    Atoms         KinEng            CPU 
 9104882      460     0.46452162              0 
 9259202      459     0.36310863      1565.6525 
Loop time of 1565.65 on 40 procs for 154320 steps with 459 atoms, finish time Tue Jan  3 15:16:36 2023


Pair  time (%) = 0.309133 (0.0197447)
Neigh time (%) = 1.71011 (0.109227)
Comm  time (%) = 4.63116 (0.295798)
Outpt time (%) = 0.000432931 (2.76518e-05)
Other time (%) = 1559 (99.5752)

Nlocal:    11.475 ave 149 max 0 min
Histogram: 32 3 2 1 0 0 0 0 1 1
Nghost:    4.225 ave 60 max 0 min
Histogram: 36 0 0 0 1 0 2 0 0 1
Neighs:    1.95 ave 45 max 0 min
Histogram: 37 0 1 1 0 0 0 0 0 1

Total # of neighbors = 78
Ave neighs/atom = 0.169935
Neighbor list builds = 5344
Dangerous builds = 336
Setting up run at Tue Jan  3 15:16:36 2023

Memory usage per processor = 958.989 Mbytes
    Step    Atoms         KinEng            CPU 
 9259202      459     0.36310863              0 
 9413522      457     0.42031802      1574.0851 
Loop time of 1574.09 on 40 procs for 154320 steps with 457 atoms, finish time Tue Jan  3 15:42:50 2023


Pair  time (%) = 0.31557 (0.0200478)
Neigh time (%) = 2.78267 (0.17678)
Comm  time (%) = 8.46185 (0.537573)
Outpt time (%) = 0.000452042 (2.87178e-05)
Other time (%) = 1562.52 (99.2656)

Nlocal:    11.425 ave 146 max 0 min
Histogram: 33 3 1 0 1 0 0 0 1 1
Nghost:    4.275 ave 59 max 0 min
Histogram: 36 0 0 0 1 1 1 0 0 1
Neighs:    2.05 ave 43 max 0 min
Histogram: 37 0 0 1 1 0 0 0 0 1

Total # of neighbors = 82
Ave neighs/atom = 0.179431
Neighbor list builds = 8466
Dangerous builds = 46
Setting up run at Tue Jan  3 15:42:50 2023

Memory usage per processor = 958.989 Mbytes
    Step    Atoms         KinEng            CPU 
 9413522      457     0.42031802              0 
 9567842      457     0.33226329      1558.4557 
Loop time of 1558.46 on 40 procs for 154320 steps with 457 atoms, finish time Tue Jan  3 16:08:49 2023


Pair  time (%) = 0.303701 (0.0194873)
Neigh time (%) = 1.80082 (0.115551)
Comm  time (%) = 5.05746 (0.324517)
Outpt time (%) = 0.00056117 (3.6008e-05)
Other time (%) = 1551.29 (99.5404)

Nlocal:    11.425 ave 147 max 0 min
Histogram: 33 2 2 1 0 0 0 0 1 1
Nghost:    4.175 ave 52 max 0 min
Histogram: 36 0 0 0 0 1 1 1 0 1
Neighs:    2 ave 41 max 0 min
Histogram: 36 1 1 1 0 0 0 0 0 1

Total # of neighbors = 80
Ave neighs/atom = 0.175055
Neighbor list builds = 5316
Dangerous builds = 0
Setting up run at Tue Jan  3 16:08:49 2023

Memory usage per processor = 958.989 Mbytes
    Step    Atoms         KinEng            CPU 
 9567842      457     0.33226329              0 
 9722162      456     0.31788666      1562.6298 
Loop time of 1562.63 on 40 procs for 154320 steps with 456 atoms, finish time Tue Jan  3 16:34:51 2023


Pair  time (%) = 0.302791 (0.019377)
Neigh time (%) = 1.64876 (0.105512)
Comm  time (%) = 4.28507 (0.274222)
Outpt time (%) = 0.000522391 (3.34302e-05)
Other time (%) = 1556.39 (99.6009)

Nlocal:    11.4 ave 146 max 0 min
Histogram: 32 4 1 0 1 0 0 0 1 1
Nghost:    4.025 ave 48 max 0 min
Histogram: 36 0 0 0 0 0 1 2 0 1
Neighs:    1.9 ave 41 max 0 min
Histogram: 37 0 1 0 1 0 0 0 0 1

Total # of neighbors = 76
Ave neighs/atom = 0.166667
Neighbor list builds = 5046
Dangerous builds = 522
Setting up run at Tue Jan  3 16:34:51 2023

Memory usage per processor = 958.989 Mbytes
    Step    Atoms         KinEng            CPU 
 9722162      456     0.31788666              0 
 9876482      455     0.30899504      1548.4636 
Loop time of 1548.46 on 40 procs for 154320 steps with 455 atoms, finish time Tue Jan  3 17:00:40 2023


Pair  time (%) = 0.301401 (0.0194645)
Neigh time (%) = 1.18314 (0.076407)
Comm  time (%) = 3.37315 (0.217839)
Outpt time (%) = 0.000676788 (4.37071e-05)
Other time (%) = 1543.61 (99.6862)

Nlocal:    11.375 ave 143 max 0 min
Histogram: 32 3 2 1 0 0 0 0 1 1
Nghost:    4.3 ave 49 max 0 min
Histogram: 35 1 0 0 0 0 1 2 0 1
Neighs:    1.95 ave 38 max 0 min
Histogram: 37 0 0 1 0 1 0 0 0 1

Total # of neighbors = 78
Ave neighs/atom = 0.171429
Neighbor list builds = 3515
Dangerous builds = 0
Setting up run at Tue Jan  3 17:00:40 2023

Memory usage per processor = 958.989 Mbytes
    Step    Atoms         KinEng            CPU 
 9876482      455     0.30899504              0 
10030802      450     0.33300438      1624.1353 
Loop time of 1624.14 on 40 procs for 154320 steps with 450 atoms, finish time Tue Jan  3 17:27:44 2023


Pair  time (%) = 0.325515 (0.0200424)
Neigh time (%) = 4.58939 (0.282574)
Comm  time (%) = 12.4953 (0.769349)
Outpt time (%) = 0.000551411 (3.39511e-05)
Other time (%) = 1606.72 (98.928)

Nlocal:    11.25 ave 142 max 0 min
Histogram: 32 3 2 1 0 0 0 0 1 1
Nghost:    4.1 ave 47 max 0 min
Histogram: 36 0 0 0 0 0 0 3 0 1
Neighs:    1.775 ave 33 max 0 min
Histogram: 37 0 0 1 0 0 1 0 0 1

Total # of neighbors = 71
Ave neighs/atom = 0.157778
Neighbor list builds = 15496
Dangerous builds = 746
Setting up run at Tue Jan  3 17:27:44 2023

Memory usage per processor = 958.989 Mbytes
    Step    Atoms         KinEng            CPU 
10030802      450     0.33300438              0 
10185122      449     0.30066031       1562.248 
Loop time of 1562.25 on 40 procs for 154320 steps with 449 atoms, finish time Tue Jan  3 17:53:46 2023


Pair  time (%) = 0.303943 (0.0194555)
Neigh time (%) = 1.88154 (0.120438)
Comm  time (%) = 4.20924 (0.269435)
Outpt time (%) = 0.000444806 (2.84722e-05)
Other time (%) = 1555.85 (99.5906)

Nlocal:    11.225 ave 141 max 0 min
Histogram: 32 4 1 0 1 0 0 0 1 1
Nghost:    4.175 ave 47 max 0 min
Histogram: 36 0 0 0 0 0 1 2 0 1
Neighs:    2.05 ave 35 max 0 min
Histogram: 36 0 1 1 0 0 1 0 0 1

Total # of neighbors = 82
Ave neighs/atom = 0.182628
Neighbor list builds = 5564
Dangerous builds = 0
Setting up run at Tue Jan  3 17:53:47 2023

Memory usage per processor = 958.989 Mbytes
    Step    Atoms         KinEng            CPU 
10185122      449     0.30066031              0 
10339442      448     0.28882668       1555.281 
Loop time of 1555.28 on 40 procs for 154320 steps with 448 atoms, finish time Tue Jan  3 18:19:42 2023


Pair  time (%) = 0.303362 (0.0195053)
Neigh time (%) = 1.18873 (0.0764316)
Comm  time (%) = 3.84085 (0.246955)
Outpt time (%) = 0.000452099 (2.90686e-05)
Other time (%) = 1549.95 (99.6571)

Nlocal:    11.2 ave 140 max 0 min
Histogram: 32 4 1 1 0 0 0 0 1 1
Nghost:    4.325 ave 48 max 0 min
Histogram: 36 0 0 0 0 0 0 2 1 1
Neighs:    2.175 ave 36 max 0 min
Histogram: 36 0 1 0 1 0 1 0 0 1

Total # of neighbors = 87
Ave neighs/atom = 0.194196
Neighbor list builds = 3586
Dangerous builds = 20
Setting up run at Tue Jan  3 18:19:42 2023

Memory usage per processor = 958.989 Mbytes
    Step    Atoms         KinEng            CPU 
10339442      448     0.28882668              0 
10493762      448     0.25659192      1549.5008 
Loop time of 1549.5 on 40 procs for 154320 steps with 448 atoms, finish time Tue Jan  3 18:45:31 2023


Pair  time (%) = 0.30113 (0.019434)
Neigh time (%) = 1.72317 (0.111208)
Comm  time (%) = 4.90812 (0.316755)
Outpt time (%) = 0.000525851 (3.39368e-05)
Other time (%) = 1542.57 (99.5526)

Nlocal:    11.2 ave 138 max 0 min
Histogram: 32 3 2 0 1 0 0 0 1 1
Nghost:    4.1 ave 48 max 0 min
Histogram: 36 0 0 0 0 0 1 1 1 1
Neighs:    2.025 ave 37 max 0 min
Histogram: 36 1 0 1 0 0 1 0 0 1

Total # of neighbors = 81
Ave neighs/atom = 0.180804
Neighbor list builds = 5098
Dangerous builds = 0
Setting up run at Tue Jan  3 18:45:31 2023

Memory usage per processor = 958.989 Mbytes
    Step    Atoms         KinEng            CPU 
10493762      448     0.25659192              0 
10648082      446     0.27163998      1568.1376 
Loop time of 1568.14 on 40 procs for 154320 steps with 446 atoms, finish time Tue Jan  3 19:11:40 2023


Pair  time (%) = 0.302344 (0.0192805)
Neigh time (%) = 2.00864 (0.128091)
Comm  time (%) = 5.08967 (0.324568)
Outpt time (%) = 0.00050085 (3.19392e-05)
Other time (%) = 1560.74 (99.528)

Nlocal:    11.15 ave 136 max 0 min
Histogram: 32 3 1 2 0 0 0 0 1 1
Nghost:    4.075 ave 50 max 0 min
Histogram: 36 0 0 0 0 0 2 1 0 1
Neighs:    1.975 ave 34 max 0 min
Histogram: 35 1 2 0 0 1 0 0 0 1

Total # of neighbors = 79
Ave neighs/atom = 0.17713
Neighbor list builds = 6073
Dangerous builds = 121
Setting up run at Tue Jan  3 19:11:40 2023

Memory usage per processor = 958.989 Mbytes
    Step    Atoms         KinEng            CPU 
10648082      446     0.27163998              0 
10802402      445     0.27650585      1572.5523 
Loop time of 1572.55 on 40 procs for 154320 steps with 445 atoms, finish time Tue Jan  3 19:37:52 2023


Pair  time (%) = 0.306916 (0.0195171)
Neigh time (%) = 2.60137 (0.165423)
Comm  time (%) = 6.36445 (0.404721)
Outpt time (%) = 0.000537571 (3.41846e-05)
Other time (%) = 1563.28 (99.4103)

Nlocal:    11.125 ave 133 max 0 min
Histogram: 32 4 1 0 1 0 0 0 1 1
Nghost:    4.2 ave 52 max 0 min
Histogram: 36 0 0 0 0 1 1 1 0 1
Neighs:    1.875 ave 31 max 0 min
Histogram: 35 2 0 1 0 0 1 0 0 1

Total # of neighbors = 75
Ave neighs/atom = 0.168539
Neighbor list builds = 7841
Dangerous builds = 450
Setting up run at Tue Jan  3 19:37:52 2023

Memory usage per processor = 958.989 Mbytes
    Step    Atoms         KinEng            CPU 
10802402      445     0.27650585              0 
10956722      445     0.22481076      1561.0256 
Loop time of 1561.03 on 40 procs for 154320 steps with 445 atoms, finish time Tue Jan  3 20:03:53 2023


Pair  time (%) = 0.299223 (0.0191684)
Neigh time (%) = 1.57921 (0.101165)
Comm  time (%) = 4.17858 (0.267682)
Outpt time (%) = 0.000522808 (3.34913e-05)
Other time (%) = 1554.97 (99.612)

Nlocal:    11.125 ave 134 max 0 min
Histogram: 32 4 0 1 1 0 0 0 1 1
Nghost:    4.025 ave 48 max 0 min
Histogram: 36 0 0 0 0 0 0 3 0 1
Neighs:    1.875 ave 32 max 0 min
Histogram: 36 0 1 1 0 0 1 0 0 1

Total # of neighbors = 75
Ave neighs/atom = 0.168539
Neighbor list builds = 4652
Dangerous builds = 0
Setting up run at Tue Jan  3 20:03:53 2023

Memory usage per processor = 958.989 Mbytes
    Step    Atoms         KinEng            CPU 
10956722      445     0.22481076              0 
11111042      445     0.37310782      1568.3132 
Loop time of 1568.31 on 40 procs for 154320 steps with 445 atoms, finish time Tue Jan  3 20:30:02 2023


Pair  time (%) = 0.306515 (0.0195443)
Neigh time (%) = 1.98307 (0.126446)
Comm  time (%) = 4.94784 (0.315488)
Outpt time (%) = 0.000530884 (3.38506e-05)
Other time (%) = 1561.08 (99.5385)

Nlocal:    11.125 ave 133 max 0 min
Histogram: 32 3 2 0 0 1 0 0 1 1
Nghost:    3.85 ave 45 max 0 min
Histogram: 36 0 0 0 0 0 0 2 1 1
Neighs:    1.9 ave 34 max 0 min
Histogram: 35 2 0 1 0 1 0 0 0 1

Total # of neighbors = 76
Ave neighs/atom = 0.170787
Neighbor list builds = 5887
Dangerous builds = 0
Setting up run at Tue Jan  3 20:30:02 2023

Memory usage per processor = 958.989 Mbytes
    Step    Atoms         KinEng            CPU 
11111042      445     0.37310782              0 
11265362      445     0.23392724      1560.1913 
Loop time of 1560.2 on 40 procs for 154320 steps with 445 atoms, finish time Tue Jan  3 20:56:02 2023


Pair  time (%) = 0.305077 (0.0195537)
Neigh time (%) = 1.83226 (0.117438)
Comm  time (%) = 4.91818 (0.315227)
Outpt time (%) = 0.00050518 (3.23792e-05)
Other time (%) = 1553.14 (99.5477)

Nlocal:    11.125 ave 130 max 0 min
Histogram: 33 1 2 2 0 0 0 0 1 1
Nghost:    3.9 ave 46 max 0 min
Histogram: 36 0 0 0 0 0 2 0 1 1
Neighs:    1.85 ave 32 max 0 min
Histogram: 35 2 1 0 0 1 0 0 0 1

Total # of neighbors = 74
Ave neighs/atom = 0.166292
Neighbor list builds = 5462
Dangerous builds = 0
Setting up run at Tue Jan  3 20:56:02 2023

Memory usage per processor = 958.989 Mbytes
    Step    Atoms         KinEng            CPU 
11265362      445     0.23392724              0 
11419682      443      0.2161911       1550.408 
Loop time of 1550.41 on 40 procs for 154320 steps with 443 atoms, finish time Tue Jan  3 21:21:53 2023


Pair  time (%) = 0.304721 (0.0196543)
Neigh time (%) = 1.63244 (0.105291)
Comm  time (%) = 4.42613 (0.285482)
Outpt time (%) = 0.000522801 (3.37202e-05)
Other time (%) = 1544.04 (99.5895)

Nlocal:    11.075 ave 129 max 0 min
Histogram: 33 1 2 2 0 0 0 0 1 1
Nghost:    4.075 ave 46 max 0 min
Histogram: 36 0 0 0 0 0 1 0 2 1
Neighs:    1.575 ave 32 max 0 min
Histogram: 36 1 1 0 1 0 0 0 0 1

Total # of neighbors = 63
Ave neighs/atom = 0.142212
Neighbor list builds = 4950
Dangerous builds = 290
Setting up run at Tue Jan  3 21:21:53 2023

Memory usage per processor = 958.989 Mbytes
    Step    Atoms         KinEng            CPU 
11419682      443      0.2161911              0 
11574002      439      0.2352543      1573.1041 
Loop time of 1573.1 on 40 procs for 154320 steps with 439 atoms, finish time Tue Jan  3 21:48:06 2023


Pair  time (%) = 0.308143 (0.0195882)
Neigh time (%) = 2.19972 (0.139833)
Comm  time (%) = 5.56041 (0.353467)
Outpt time (%) = 0.000463087 (2.94378e-05)
Other time (%) = 1565.04 (99.4871)

Nlocal:    10.975 ave 133 max 0 min
Histogram: 32 3 1 2 0 0 0 0 1 1
Nghost:    4.025 ave 41 max 0 min
Histogram: 36 0 0 0 0 0 0 1 0 3
Neighs:    1.525 ave 34 max 0 min
Histogram: 36 2 0 0 1 0 0 0 0 1

Total # of neighbors = 61
Ave neighs/atom = 0.138952
Neighbor list builds = 6748
Dangerous builds = 558
Setting up run at Tue Jan  3 21:48:06 2023

Memory usage per processor = 958.989 Mbytes
    Step    Atoms         KinEng            CPU 
11574002      439      0.2352543              0 
11728322      436     0.32230547      1565.4034 
Loop time of 1565.4 on 40 procs for 154320 steps with 436 atoms, finish time Tue Jan  3 22:14:11 2023


Pair  time (%) = 0.307932 (0.0196711)
Neigh time (%) = 1.75188 (0.111912)
Comm  time (%) = 4.41683 (0.282153)
Outpt time (%) = 0.000521719 (3.33281e-05)
Other time (%) = 1558.93 (99.5862)

Nlocal:    10.9 ave 133 max 0 min
Histogram: 32 2 3 1 0 0 0 1 0 1
Nghost:    3.95 ave 41 max 0 min
Histogram: 36 0 0 0 0 0 0 1 0 3
Neighs:    1.5 ave 36 max 0 min
Histogram: 37 1 1 0 0 0 0 0 0 1

Total # of neighbors = 60
Ave neighs/atom = 0.137615
Neighbor list builds = 5259
Dangerous builds = 67
Setting up run at Tue Jan  3 22:14:11 2023

Memory usage per processor = 958.989 Mbytes
    Step    Atoms         KinEng            CPU 
11728322      436     0.32230547              0 
11882642      435     0.25451028      1575.3378 
Loop time of 1575.34 on 40 procs for 154320 steps with 435 atoms, finish time Tue Jan  3 22:40:27 2023


Pair  time (%) = 0.312317 (0.0198254)
Neigh time (%) = 2.62116 (0.166387)
Comm  time (%) = 6.15971 (0.391009)
Outpt time (%) = 0.000537057 (3.40915e-05)
Other time (%) = 1566.24 (99.4227)

Nlocal:    10.875 ave 128 max 0 min
Histogram: 32 2 2 1 1 0 0 0 1 1
Nghost:    4.2 ave 44 max 0 min
Histogram: 36 0 0 0 0 0 1 0 1 2
Neighs:    1.85 ave 34 max 0 min
Histogram: 35 1 2 0 1 0 0 0 0 1

Total # of neighbors = 74
Ave neighs/atom = 0.170115
Neighbor list builds = 8059
Dangerous builds = 485
Setting up run at Tue Jan  3 22:40:27 2023

Memory usage per processor = 958.989 Mbytes
    Step    Atoms         KinEng            CPU 
11882642      435     0.25451028              0 
12036962      434     0.24174469      1565.2747 
Loop time of 1565.27 on 40 procs for 154320 steps with 434 atoms, finish time Tue Jan  3 23:06:32 2023


Pair  time (%) = 0.308546 (0.0197119)
Neigh time (%) = 1.81621 (0.116031)
Comm  time (%) = 4.80632 (0.307059)
Outpt time (%) = 0.00050711 (3.23975e-05)
Other time (%) = 1558.34 (99.5572)

Nlocal:    10.85 ave 128 max 0 min
Histogram: 33 0 3 2 0 0 0 0 1 1
Nghost:    4.175 ave 45 max 0 min
Histogram: 36 0 0 0 0 0 0 1 1 2
Neighs:    1.825 ave 35 max 0 min
Histogram: 35 1 2 0 1 0 0 0 0 1

Total # of neighbors = 73
Ave neighs/atom = 0.168203
Neighbor list builds = 5406
Dangerous builds = 0
Setting up run at Tue Jan  3 23:06:32 2023

Memory usage per processor = 958.989 Mbytes
    Step    Atoms         KinEng            CPU 
12036962      434     0.24174469              0 
12191282      431     0.23222998      1555.1299 
Loop time of 1555.13 on 40 procs for 154320 steps with 431 atoms, finish time Tue Jan  3 23:32:27 2023


Pair  time (%) = 0.305688 (0.0196567)
Neigh time (%) = 1.49054 (0.0958463)
Comm  time (%) = 4.32145 (0.277884)
Outpt time (%) = 0.000517045 (3.32477e-05)
Other time (%) = 1549.01 (99.6066)

Nlocal:    10.775 ave 127 max 0 min
Histogram: 32 1 4 0 1 0 0 0 1 1
Nghost:    4.1 ave 43 max 0 min
Histogram: 36 0 0 0 0 0 0 1 1 2
Neighs:    1.95 ave 36 max 0 min
Histogram: 36 1 0 1 1 0 0 0 0 1

Total # of neighbors = 78
Ave neighs/atom = 0.180974
Neighbor list builds = 4510
Dangerous builds = 191
Setting up run at Tue Jan  3 23:32:27 2023

Memory usage per processor = 958.989 Mbytes
    Step    Atoms         KinEng            CPU 
12191282      431     0.23222998              0 
12345602      431     0.21475345      1593.7037 
Loop time of 1593.7 on 40 procs for 154320 steps with 431 atoms, finish time Tue Jan  3 23:59:01 2023


Pair  time (%) = 0.306245 (0.0192159)
Neigh time (%) = 3.54104 (0.222189)
Comm  time (%) = 7.62582 (0.478497)
Outpt time (%) = 0.000532828 (3.34333e-05)
Other time (%) = 1582.23 (99.2801)

Nlocal:    10.775 ave 126 max 0 min
Histogram: 32 3 0 3 0 0 0 0 1 1
Nghost:    4.175 ave 43 max 0 min
Histogram: 35 1 0 0 0 0 0 0 1 3
Neighs:    1.6 ave 35 max 0 min
Histogram: 36 1 1 0 1 0 0 0 0 1

Total # of neighbors = 64
Ave neighs/atom = 0.148492
Neighbor list builds = 10456
Dangerous builds = 0
Setting up run at Tue Jan  3 23:59:01 2023

Memory usage per processor = 958.989 Mbytes
    Step    Atoms         KinEng            CPU 
12345602      431     0.21475345              0 
12499922      429     0.22641544      1554.0471 
Loop time of 1554.05 on 40 procs for 154320 steps with 429 atoms, finish time Wed Jan  4 00:24:55 2023


Pair  time (%) = 0.294969 (0.0189807)
Neigh time (%) = 1.61729 (0.10407)
Comm  time (%) = 4.46346 (0.287215)
Outpt time (%) = 0.000509429 (3.27808e-05)
Other time (%) = 1547.67 (99.5897)

Nlocal:    10.725 ave 124 max 0 min
Histogram: 32 3 1 1 1 0 0 0 1 1
Nghost:    4.05 ave 44 max 0 min
Histogram: 36 0 0 0 0 0 0 1 1 2
Neighs:    1.75 ave 35 max 0 min
Histogram: 36 1 0 0 2 0 0 0 0 1

Total # of neighbors = 70
Ave neighs/atom = 0.16317
Neighbor list builds = 4917
Dangerous builds = 464
Setting up run at Wed Jan  4 00:24:55 2023

Memory usage per processor = 958.989 Mbytes
    Step    Atoms         KinEng            CPU 
12499922      429     0.22641544              0 
12654242      428     0.24466779      1554.7332 
Loop time of 1554.73 on 40 procs for 154320 steps with 428 atoms, finish time Wed Jan  4 00:50:50 2023


Pair  time (%) = 0.297146 (0.0191124)
Neigh time (%) = 1.35856 (0.0873824)
Comm  time (%) = 3.19381 (0.205425)
Outpt time (%) = 0.000509849 (3.27933e-05)
Other time (%) = 1549.88 (99.688)

Nlocal:    10.7 ave 125 max 0 min
Histogram: 32 3 1 1 1 0 0 0 1 1
Nghost:    4.075 ave 43 max 0 min
Histogram: 36 0 0 0 0 0 0 1 1 2
Neighs:    1.65 ave 34 max 0 min
Histogram: 36 1 1 1 0 0 0 0 0 1

Total # of neighbors = 66
Ave neighs/atom = 0.154206
Neighbor list builds = 4055
Dangerous builds = 159
Setting up run at Wed Jan  4 00:50:50 2023

Memory usage per processor = 958.989 Mbytes
    Step    Atoms         KinEng            CPU 
12654242      428     0.24466779              0 
12808562      427     0.30073031      1572.9629 
Loop time of 1572.96 on 40 procs for 154320 steps with 427 atoms, finish time Wed Jan  4 01:17:03 2023


Pair  time (%) = 0.30009 (0.019078)
Neigh time (%) = 2.05915 (0.130909)
Comm  time (%) = 4.79541 (0.304865)
Outpt time (%) = 0.000525897 (3.34335e-05)
Other time (%) = 1565.81 (99.5451)

Nlocal:    10.675 ave 124 max 0 min
Histogram: 32 1 3 2 0 0 0 0 1 1
Nghost:    4.2 ave 43 max 0 min
Histogram: 36 0 0 0 0 0 1 0 1 2
Neighs:    1.775 ave 37 max 0 min
Histogram: 36 1 1 1 0 0 0 0 0 1

Total # of neighbors = 71
Ave neighs/atom = 0.166276
Neighbor list builds = 6068
Dangerous builds = 10
Setting up run at Wed Jan  4 01:17:03 2023

Memory usage per processor = 958.989 Mbytes
    Step    Atoms         KinEng            CPU 
12808562      427     0.30073031              0 
12962882      426      0.3134826      1546.7994 
Loop time of 1546.8 on 40 procs for 154320 steps with 426 atoms, finish time Wed Jan  4 01:42:50 2023


Pair  time (%) = 0.294657 (0.0190494)
Neigh time (%) = 1.05294 (0.0680725)
Comm  time (%) = 3.21474 (0.207832)
Outpt time (%) = 0.000487065 (3.14886e-05)
Other time (%) = 1542.24 (99.705)

Nlocal:    10.65 ave 123 max 0 min
Histogram: 32 1 4 0 1 0 0 1 0 1
Nghost:    4.2 ave 46 max 0 min
Histogram: 36 0 0 0 0 1 0 0 1 2
Neighs:    1.825 ave 34 max 0 min
Histogram: 35 1 2 0 1 0 0 0 0 1

Total # of neighbors = 73
Ave neighs/atom = 0.171362
Neighbor list builds = 3144
Dangerous builds = 0
Setting up run at Wed Jan  4 01:42:50 2023

Memory usage per processor = 958.989 Mbytes
    Step    Atoms         KinEng            CPU 
12962882      426      0.3134826              0 
13117202      424     0.31787886      1553.4138 
Loop time of 1553.41 on 40 procs for 154320 steps with 424 atoms, finish time Wed Jan  4 02:08:43 2023


Pair  time (%) = 0.296089 (0.0190606)
Neigh time (%) = 1.27572 (0.0821239)
Comm  time (%) = 3.40213 (0.21901)
Outpt time (%) = 0.000510595 (3.28692e-05)
Other time (%) = 1548.44 (99.6798)

Nlocal:    10.6 ave 122 max 0 min
Histogram: 32 2 2 2 0 0 0 1 0 1
Nghost:    4.1 ave 46 max 0 min
Histogram: 36 0 0 0 0 0 1 0 1 2
Neighs:    1.775 ave 33 max 0 min
Histogram: 35 1 1 2 0 0 0 0 0 1

Total # of neighbors = 71
Ave neighs/atom = 0.167453
Neighbor list builds = 3774
Dangerous builds = 54
Setting up run at Wed Jan  4 02:08:43 2023

Memory usage per processor = 958.989 Mbytes
    Step    Atoms         KinEng            CPU 
13117202      424     0.31787886              0 
13271522      423     0.30459227      1561.6451 
Loop time of 1561.65 on 40 procs for 154320 steps with 423 atoms, finish time Wed Jan  4 02:34:45 2023


Pair  time (%) = 0.298389 (0.0191074)
Neigh time (%) = 1.7447 (0.111722)
Comm  time (%) = 4.2113 (0.269671)
Outpt time (%) = 0.000509241 (3.26093e-05)
Other time (%) = 1555.39 (99.5995)

Nlocal:    10.575 ave 123 max 0 min
Histogram: 32 3 0 2 1 0 0 1 0 1
Nghost:    4.275 ave 45 max 0 min
Histogram: 34 2 0 0 0 0 1 0 0 3
Neighs:    1.675 ave 31 max 0 min
Histogram: 35 1 1 2 0 0 0 0 0 1

Total # of neighbors = 67
Ave neighs/atom = 0.158392
Neighbor list builds = 5137
Dangerous builds = 18
Setting up run at Wed Jan  4 02:34:45 2023

Memory usage per processor = 958.989 Mbytes
    Step    Atoms         KinEng            CPU 
13271522      423     0.30459227              0 
13425842      423     0.31559323      1559.2013 
Loop time of 1559.2 on 40 procs for 154320 steps with 423 atoms, finish time Wed Jan  4 03:00:44 2023


Pair  time (%) = 0.300405 (0.0192666)
Neigh time (%) = 1.94425 (0.124695)
Comm  time (%) = 5.04866 (0.323798)
Outpt time (%) = 0.000485347 (3.11279e-05)
Other time (%) = 1551.91 (99.5322)

Nlocal:    10.575 ave 120 max 0 min
Histogram: 33 1 1 2 1 0 0 1 0 1
Nghost:    4.4 ave 46 max 0 min
Histogram: 35 1 0 0 0 1 0 0 0 3
Neighs:    1.725 ave 28 max 0 min
Histogram: 34 1 2 1 1 0 0 0 0 1

Total # of neighbors = 69
Ave neighs/atom = 0.163121
Neighbor list builds = 5724
Dangerous builds = 0
Setting up run at Wed Jan  4 03:00:44 2023

Memory usage per processor = 958.989 Mbytes
    Step    Atoms         KinEng            CPU 
13425842      423     0.31559323              0 
13580162      422     0.30596578      1590.5354 
Loop time of 1590.54 on 40 procs for 154320 steps with 422 atoms, finish time Wed Jan  4 03:27:15 2023


Pair  time (%) = 0.308509 (0.0193966)
Neigh time (%) = 3.66855 (0.230649)
Comm  time (%) = 7.28339 (0.457921)
Outpt time (%) = 0.000497383 (3.12714e-05)
Other time (%) = 1579.27 (99.292)

Nlocal:    10.55 ave 117 max 0 min
Histogram: 32 1 2 3 0 0 0 0 1 1
Nghost:    4.475 ave 50 max 0 min
Histogram: 35 1 0 0 0 1 0 1 0 2
Neighs:    1.65 ave 27 max 0 min
Histogram: 35 0 1 2 1 0 0 0 0 1

Total # of neighbors = 66
Ave neighs/atom = 0.156398
Neighbor list builds = 10972
Dangerous builds = 1
Setting up run at Wed Jan  4 03:27:15 2023

Memory usage per processor = 958.989 Mbytes
    Step    Atoms         KinEng            CPU 
13580162      422     0.30596578              0 
13734482      421     0.29459507      1591.1317 
Loop time of 1591.13 on 40 procs for 154320 steps with 421 atoms, finish time Wed Jan  4 03:53:46 2023


Pair  time (%) = 0.311037 (0.0195482)
Neigh time (%) = 3.5022 (0.220107)
Comm  time (%) = 9.34487 (0.58731)
Outpt time (%) = 0.000521952 (3.28038e-05)
Other time (%) = 1577.97 (99.173)

Nlocal:    10.525 ave 119 max 0 min
Histogram: 32 3 1 1 1 0 0 1 0 1
Nghost:    4.525 ave 51 max 0 min
Histogram: 36 0 0 0 0 1 0 1 0 2
Neighs:    1.525 ave 26 max 0 min
Histogram: 35 1 1 1 0 1 0 0 0 1

Total # of neighbors = 61
Ave neighs/atom = 0.144893
Neighbor list builds = 10950
Dangerous builds = 942
Setting up run at Wed Jan  4 03:53:46 2023

Memory usage per processor = 958.989 Mbytes
    Step    Atoms         KinEng            CPU 
13734482      421     0.29459507              0 
13888802      421     0.32244273      1558.7847 
Loop time of 1558.78 on 40 procs for 154320 steps with 421 atoms, finish time Wed Jan  4 04:19:45 2023


Pair  time (%) = 0.296756 (0.0190376)
Neigh time (%) = 1.50099 (0.0962926)
Comm  time (%) = 4.07109 (0.261171)
Outpt time (%) = 0.0110352 (0.000707935)
Other time (%) = 1552.9 (99.6228)

Nlocal:    10.525 ave 117 max 0 min
Histogram: 32 2 2 0 1 1 0 1 0 1
Nghost:    4.25 ave 48 max 0 min
Histogram: 36 0 0 0 0 1 0 1 0 2
Neighs:    1.4 ave 24 max 0 min
Histogram: 36 0 1 1 0 1 0 0 0 1

Total # of neighbors = 56
Ave neighs/atom = 0.133017
Neighbor list builds = 4419
Dangerous builds = 0
Setting up run at Wed Jan  4 04:19:45 2023

Memory usage per processor = 958.989 Mbytes
    Step    Atoms         KinEng            CPU 
13888802      421     0.32244273              0 
14043122      419     0.32609894      1563.1802 
Loop time of 1563.18 on 40 procs for 154320 steps with 419 atoms, finish time Wed Jan  4 04:45:48 2023


Pair  time (%) = 0.298583 (0.019101)
Neigh time (%) = 1.9583 (0.125277)
Comm  time (%) = 5.40479 (0.345756)
Outpt time (%) = 0.000563373 (3.60402e-05)
Other time (%) = 1555.52 (99.5098)

Nlocal:    10.475 ave 117 max 0 min
Histogram: 32 2 2 1 0 1 0 1 0 1
Nghost:    4.3 ave 47 max 0 min
Histogram: 36 0 0 0 0 1 0 0 1 2
Neighs:    1.375 ave 24 max 0 min
Histogram: 36 0 2 0 0 1 0 0 0 1

[...]
Histogram: 35 0 1 0 0 0 1 0 2 1

Total # of neighbors = 17
Ave neighs/atom = 0.0580205
Neighbor list builds = 3077
Dangerous builds = 413
Setting up run at Thu Jan  5 18:43:44 2023

Memory usage per processor = 958.989 Mbytes
    Step    Atoms         KinEng            CPU 
27314739      293     0.43364882              0 
27469059      292     0.43360636      1697.5781 
Loop time of 1697.58 on 40 procs for 154320 steps with 292 atoms, finish time Thu Jan  5 19:12:02 2023


Pair  time (%) = 0.283919 (0.0167249)
Neigh time (%) = 2.70655 (0.159436)
Comm  time (%) = 8.47323 (0.499136)
Outpt time (%) = 0.00017685 (1.04178e-05)
Other time (%) = 1686.11 (99.3247)

Nlocal:    7.3 ave 75 max 0 min
Histogram: 32 0 2 3 1 0 0 1 0 1
Nghost:    1.9 ave 24 max 0 min
Histogram: 34 2 0 1 1 0 0 1 0 1
Neighs:    0.35 ave 4 max 0 min
Histogram: 33 0 3 0 0 2 0 1 0 1

Total # of neighbors = 14
Ave neighs/atom = 0.0479452
Neighbor list builds = 7958
Dangerous builds = 0
Setting up run at Thu Jan  5 19:12:02 2023

Memory usage per processor = 958.989 Mbytes
    Step    Atoms         KinEng            CPU 
27469059      292     0.43360636              0 
27623379      292     0.45064422      1548.3456 
Loop time of 1548.35 on 40 procs for 154320 steps with 292 atoms, finish time Thu Jan  5 19:37:50 2023


Pair  time (%) = 0.278286 (0.0179731)
Neigh time (%) = 1.28924 (0.0832655)
Comm  time (%) = 4.03658 (0.260703)
Outpt time (%) = 0.000547087 (3.53337e-05)
Other time (%) = 1542.74 (99.638)

Nlocal:    7.3 ave 74 max 0 min
Histogram: 32 1 1 2 1 1 0 1 0 1
Nghost:    1.775 ave 23 max 0 min
Histogram: 35 1 0 1 0 1 0 1 0 1
Neighs:    0.35 ave 5 max 0 min
Histogram: 35 0 1 0 1 0 2 0 0 1

Total # of neighbors = 14
Ave neighs/atom = 0.0479452
Neighbor list builds = 3738
Dangerous builds = 0
Setting up run at Thu Jan  5 19:37:50 2023

Memory usage per processor = 958.989 Mbytes
    Step    Atoms         KinEng            CPU 
27623379      292     0.45064422              0 
27777699      292     0.44223013      1548.1205 
Loop time of 1548.12 on 40 procs for 154320 steps with 292 atoms, finish time Thu Jan  5 20:03:38 2023


Pair  time (%) = 0.275011 (0.0177642)
Neigh time (%) = 0.805618 (0.0520384)
Comm  time (%) = 2.27546 (0.146982)
Outpt time (%) = 0.000222674 (1.43835e-05)
Other time (%) = 1544.76 (99.7832)

Nlocal:    7.3 ave 73 max 0 min
Histogram: 32 0 1 4 1 0 0 1 0 1
Nghost:    1.8 ave 23 max 0 min
Histogram: 36 0 0 1 1 0 0 0 1 1
Neighs:    0.4 ave 5 max 0 min
Histogram: 35 0 1 0 1 0 1 0 0 2

Total # of neighbors = 16
Ave neighs/atom = 0.0547945
Neighbor list builds = 2334
Dangerous builds = 0
Setting up run at Thu Jan  5 20:03:38 2023

Memory usage per processor = 958.989 Mbytes
    Step    Atoms         KinEng            CPU 
27777699      292     0.44223013              0 
27932019      291     0.53873976      1552.2199 
Loop time of 1552.22 on 40 procs for 154320 steps with 291 atoms, finish time Thu Jan  5 20:29:30 2023


Pair  time (%) = 0.281533 (0.0181374)
Neigh time (%) = 1.30247 (0.0839099)
Comm  time (%) = 3.59123 (0.231361)
Outpt time (%) = 0.000589291 (3.79644e-05)
Other time (%) = 1547.04 (99.6666)

Nlocal:    7.275 ave 73 max 0 min
Histogram: 32 0 2 3 0 1 0 1 0 1
Nghost:    1.75 ave 26 max 0 min
Histogram: 35 1 1 0 1 0 1 0 0 1
Neighs:    0.45 ave 5 max 0 min
Histogram: 34 0 2 0 0 0 2 0 0 2

Total # of neighbors = 18
Ave neighs/atom = 0.0618557
Neighbor list builds = 4067
Dangerous builds = 501
Setting up run at Thu Jan  5 20:29:31 2023

Memory usage per processor = 958.989 Mbytes
    Step    Atoms         KinEng            CPU 
27932019      291     0.53873976              0 
28086339      288     0.48108252      1571.8269 
Loop time of 1571.83 on 40 procs for 154320 steps with 288 atoms, finish time Thu Jan  5 20:55:42 2023


Pair  time (%) = 0.287171 (0.0182699)
Neigh time (%) = 2.17543 (0.138401)
Comm  time (%) = 5.64974 (0.359438)
Outpt time (%) = 0.000218198 (1.38818e-05)
Other time (%) = 1563.71 (99.4839)

Nlocal:    7.2 ave 73 max 0 min
Histogram: 32 2 0 2 2 0 0 1 0 1
Nghost:    1.7 ave 21 max 0 min
Histogram: 34 2 1 1 0 0 0 0 1 1
Neighs:    0.375 ave 5 max 0 min
Histogram: 35 0 1 0 1 0 1 0 1 1

Total # of neighbors = 15
Ave neighs/atom = 0.0520833
Neighbor list builds = 6448
Dangerous builds = 0
Setting up run at Thu Jan  5 20:55:42 2023

Memory usage per processor = 958.989 Mbytes
    Step    Atoms         KinEng            CPU 
28086339      288     0.48108252              0 
28240659      288     0.50037652      1549.5667 
Loop time of 1549.57 on 40 procs for 154320 steps with 288 atoms, finish time Thu Jan  5 21:21:32 2023


Pair  time (%) = 0.278116 (0.0179479)
Neigh time (%) = 0.870767 (0.0561942)
Comm  time (%) = 2.86747 (0.185049)
Outpt time (%) = 0.000254481 (1.64227e-05)
Other time (%) = 1545.55 (99.7408)

Nlocal:    7.2 ave 72 max 0 min
Histogram: 32 1 1 2 2 0 0 1 0 1
Nghost:    1.7 ave 19 max 0 min
Histogram: 33 1 2 0 2 0 0 0 1 1
Neighs:    0.45 ave 4 max 0 min
Histogram: 34 0 0 0 0 1 0 4 0 1

Total # of neighbors = 18
Ave neighs/atom = 0.0625
Neighbor list builds = 2526
Dangerous builds = 0
Setting up run at Thu Jan  5 21:21:32 2023

Memory usage per processor = 958.989 Mbytes
    Step    Atoms         KinEng            CPU 
28240659      288     0.50037652              0 
28394979      288     0.45618391       1544.004 
Loop time of 1544 on 40 procs for 154320 steps with 288 atoms, finish time Thu Jan  5 21:47:16 2023


Pair  time (%) = 0.279405 (0.0180961)
Neigh time (%) = 0.891949 (0.0577685)
Comm  time (%) = 2.99834 (0.194193)
Outpt time (%) = 0.000533349 (3.45432e-05)
Other time (%) = 1539.83 (99.7299)

Nlocal:    7.2 ave 73 max 0 min
Histogram: 32 0 3 2 0 1 0 1 0 1
Nghost:    1.625 ave 20 max 0 min
Histogram: 34 2 0 0 1 1 0 0 1 1
Neighs:    0.65 ave 9 max 0 min
Histogram: 34 1 1 1 1 0 0 1 0 1

Total # of neighbors = 26
Ave neighs/atom = 0.0902778
Neighbor list builds = 2591
Dangerous builds = 0
Setting up run at Thu Jan  5 21:47:16 2023

Memory usage per processor = 958.989 Mbytes
    Step    Atoms         KinEng            CPU 
28394979      288     0.45618391              0 
28549299      285     0.44327452       1544.323 
Loop time of 1544.32 on 40 procs for 154320 steps with 285 atoms, finish time Thu Jan  5 22:13:01 2023


Pair  time (%) = 0.283514 (0.0183585)
Neigh time (%) = 0.883065 (0.0571814)
Comm  time (%) = 2.58725 (0.167533)
Outpt time (%) = 0.000264126 (1.7103e-05)
Other time (%) = 1540.57 (99.7569)

Nlocal:    7.125 ave 71 max 0 min
Histogram: 32 1 0 4 1 0 0 1 0 1
Nghost:    1.625 ave 18 max 0 min
Histogram: 33 2 1 0 0 2 0 0 1 1
Neighs:    0.575 ave 5 max 0 min
Histogram: 33 0 0 0 2 0 2 0 2 1

Total # of neighbors = 23
Ave neighs/atom = 0.0807018
Neighbor list builds = 2564
Dangerous builds = 0
Setting up run at Thu Jan  5 22:13:01 2023

Memory usage per processor = 958.989 Mbytes
    Step    Atoms         KinEng            CPU 
28549299      285     0.44327452              0 
28703619      284     0.54527845      1557.1408 
Loop time of 1557.14 on 40 procs for 154320 steps with 284 atoms, finish time Thu Jan  5 22:38:58 2023


Pair  time (%) = 0.284039 (0.018241)
Neigh time (%) = 1.76386 (0.113276)
Comm  time (%) = 5.36347 (0.344444)
Outpt time (%) = 0.00163017 (0.00010469)
Other time (%) = 1549.73 (99.5239)

Nlocal:    7.1 ave 71 max 0 min
Histogram: 32 2 1 1 1 0 1 1 0 1
Nghost:    1.525 ave 18 max 0 min
Histogram: 33 3 0 1 0 1 0 0 0 2
Neighs:    0.45 ave 5 max 0 min
Histogram: 33 0 3 0 1 0 0 0 2 1

Total # of neighbors = 18
Ave neighs/atom = 0.0633803
Neighbor list builds = 5178
Dangerous builds = 175
Setting up run at Thu Jan  5 22:38:58 2023

Memory usage per processor = 958.989 Mbytes
    Step    Atoms         KinEng            CPU 
28703619      284     0.54527845              0 
28857939      284     0.42944371      1566.9032 
Loop time of 1566.9 on 40 procs for 154320 steps with 284 atoms, finish time Thu Jan  5 23:05:05 2023


Pair  time (%) = 0.282866 (0.0180526)
Neigh time (%) = 2.04679 (0.130626)
Comm  time (%) = 5.45433 (0.348096)
Outpt time (%) = 0.000278705 (1.7787e-05)
Other time (%) = 1559.12 (99.5032)

Nlocal:    7.1 ave 69 max 0 min
Histogram: 32 0 2 2 1 1 0 1 0 1
Nghost:    1.625 ave 18 max 0 min
Histogram: 32 4 0 0 1 1 0 0 1 1
Neighs:    0.45 ave 6 max 0 min
Histogram: 34 2 0 1 0 0 2 0 0 1

Total # of neighbors = 18
Ave neighs/atom = 0.0633803
Neighbor list builds = 5943
Dangerous builds = 0
Setting up run at Thu Jan  5 23:05:05 2023

Memory usage per processor = 958.989 Mbytes
    Step    Atoms         KinEng            CPU 
28857939      284     0.42944371              0 
29012259      283     0.42051593      1541.3209 
Loop time of 1541.32 on 40 procs for 154320 steps with 283 atoms, finish time Thu Jan  5 23:30:46 2023


Pair  time (%) = 0.276707 (0.0179526)
Neigh time (%) = 0.769922 (0.0499521)
Comm  time (%) = 2.45687 (0.1594)
Outpt time (%) = 0.000233166 (1.51276e-05)
Other time (%) = 1537.82 (99.7727)

Nlocal:    7.075 ave 70 max 0 min
Histogram: 31 1 3 0 3 0 0 1 0 1
Nghost:    1.45 ave 19 max 0 min
Histogram: 35 1 0 1 1 0 0 0 1 1
Neighs:    0.75 ave 10 max 0 min
Histogram: 34 1 0 1 1 0 2 0 0 1

Total # of neighbors = 30
Ave neighs/atom = 0.106007
Neighbor list builds = 2235
Dangerous builds = 0
Setting up run at Thu Jan  5 23:30:46 2023

Memory usage per processor = 958.989 Mbytes
    Step    Atoms         KinEng            CPU 
29012259      283     0.42051593              0 
29166579      282     0.44187365      1549.8596 
Loop time of 1549.86 on 40 procs for 154320 steps with 282 atoms, finish time Thu Jan  5 23:56:36 2023


Pair  time (%) = 0.277849 (0.0179274)
Neigh time (%) = 0.958579 (0.0618494)
Comm  time (%) = 3.48795 (0.225049)
Outpt time (%) = 0.000628054 (4.05233e-05)
Other time (%) = 1545.13 (99.6951)

Nlocal:    7.05 ave 72 max 0 min
Histogram: 32 1 0 4 0 1 1 0 0 1
Nghost:    1.45 ave 15 max 0 min
Histogram: 32 4 0 0 1 1 0 0 0 2
Neighs:    0.575 ave 7 max 0 min
Histogram: 33 0 4 0 0 2 0 0 0 1

Total # of neighbors = 23
Ave neighs/atom = 0.0815603
Neighbor list builds = 2777
Dangerous builds = 0
Setting up run at Thu Jan  5 23:56:36 2023

Memory usage per processor = 958.989 Mbytes
    Step    Atoms         KinEng            CPU 
29166579      282     0.44187365              0 
29320899      281     0.41774098      1546.3876 
Loop time of 1546.39 on 40 procs for 154320 steps with 281 atoms, finish time Fri Jan  6 00:22:22 2023


Pair  time (%) = 0.277907 (0.0179714)
Neigh time (%) = 1.05338 (0.068119)
Comm  time (%) = 3.22812 (0.208752)
Outpt time (%) = 0.000160267 (1.0364e-05)
Other time (%) = 1541.83 (99.7051)

Nlocal:    7.025 ave 69 max 0 min
Histogram: 32 0 3 1 1 1 0 1 0 1
Nghost:    1.45 ave 16 max 0 min
Histogram: 34 2 0 0 0 2 0 0 0 2
Neighs:    0.475 ave 5 max 0 min
Histogram: 34 0 2 0 0 0 1 0 1 2

Total # of neighbors = 19
Ave neighs/atom = 0.0676157
Neighbor list builds = 3055
Dangerous builds = 0
Setting up run at Fri Jan  6 00:22:22 2023

Memory usage per processor = 958.989 Mbytes
    Step    Atoms         KinEng            CPU 
29320899      281     0.41774098              0 
29475219      281     0.41332522      1558.0918 
Loop time of 1558.09 on 40 procs for 154320 steps with 281 atoms, finish time Fri Jan  6 00:48:21 2023


Pair  time (%) = 0.281993 (0.0180986)
Neigh time (%) = 1.40257 (0.0900186)
Comm  time (%) = 3.55601 (0.228228)
Outpt time (%) = 0.00053407 (3.42772e-05)
Other time (%) = 1552.85 (99.6636)

Nlocal:    7.025 ave 69 max 0 min
Histogram: 32 1 2 1 1 0 1 1 0 1
Nghost:    1.375 ave 17 max 0 min
Histogram: 34 2 0 0 2 0 0 0 1 1
Neighs:    0.4 ave 4 max 0 min
Histogram: 34 0 2 0 0 0 0 2 0 2

Total # of neighbors = 16
Ave neighs/atom = 0.0569395
Neighbor list builds = 4062
Dangerous builds = 0
Setting up run at Fri Jan  6 00:48:21 2023

Memory usage per processor = 958.989 Mbytes
    Step    Atoms         KinEng            CPU 
29475219      281     0.41332522              0 
29629539      281     0.41280998      1548.5591 
Loop time of 1548.56 on 40 procs for 154320 steps with 281 atoms, finish time Fri Jan  6 01:14:09 2023


Pair  time (%) = 0.278727 (0.0179991)
Neigh time (%) = 1.07235 (0.0692484)
Comm  time (%) = 2.96871 (0.191708)
Outpt time (%) = 0.000254695 (1.64472e-05)
Other time (%) = 1544.24 (99.721)

Nlocal:    7.025 ave 68 max 0 min
Histogram: 32 0 1 3 2 0 0 1 0 1
Nghost:    1.325 ave 17 max 0 min
Histogram: 34 2 1 0 1 0 0 0 0 2
Neighs:    0.625 ave 5 max 0 min
Histogram: 32 0 1 0 2 0 1 0 3 1

Total # of neighbors = 25
Ave neighs/atom = 0.088968
Neighbor list builds = 3097
Dangerous builds = 0
Setting up run at Fri Jan  6 01:14:09 2023

Memory usage per processor = 958.989 Mbytes
    Step    Atoms         KinEng            CPU 
29629539      281     0.41280998              0 
29783859      280     0.47943579      1553.2634 
Loop time of 1553.26 on 40 procs for 154320 steps with 280 atoms, finish time Fri Jan  6 01:40:02 2023


Pair  time (%) = 0.28658 (0.0184502)
Neigh time (%) = 1.51678 (0.097651)
Comm  time (%) = 3.90617 (0.251482)
Outpt time (%) = 0.000156929 (1.01032e-05)
Other time (%) = 1547.55 (99.6324)

Nlocal:    7 ave 69 max 0 min
Histogram: 32 0 2 1 2 1 0 1 0 1
Nghost:    1.225 ave 16 max 0 min
Histogram: 36 0 0 1 0 1 0 0 0 2
Neighs:    0.575 ave 5 max 0 min
Histogram: 32 0 2 0 1 0 2 0 2 1

Total # of neighbors = 23
Ave neighs/atom = 0.0821429
Neighbor list builds = 4531
Dangerous builds = 330
Setting up run at Fri Jan  6 01:40:03 2023

Memory usage per processor = 958.989 Mbytes
    Step    Atoms         KinEng            CPU 
29783859      280     0.47943579              0 
29938179      279     0.44044735      1557.3405 
Loop time of 1557.34 on 40 procs for 154320 steps with 279 atoms, finish time Fri Jan  6 02:06:00 2023


Pair  time (%) = 0.280749 (0.0180275)
Neigh time (%) = 1.25312 (0.0804657)
Comm  time (%) = 3.47682 (0.223254)
Outpt time (%) = 0.0005386 (3.45846e-05)
Other time (%) = 1552.33 (99.6782)

Nlocal:    6.975 ave 67 max 0 min
Histogram: 32 1 1 2 1 1 0 1 0 1
Nghost:    1.45 ave 16 max 0 min
Histogram: 32 3 0 2 1 0 0 0 0 2
Neighs:    0.45 ave 5 max 0 min
Histogram: 33 0 3 0 0 0 2 0 1 1

Total # of neighbors = 18
Ave neighs/atom = 0.0645161
Neighbor list builds = 3774
Dangerous builds = 412
Setting up run at Fri Jan  6 02:06:00 2023

Memory usage per processor = 958.989 Mbytes
    Step    Atoms         KinEng            CPU 
29938179      279     0.44044735              0 
30092499      279     0.44357978      1556.7747 
Loop time of 1556.78 on 40 procs for 154320 steps with 279 atoms, finish time Fri Jan  6 02:31:57 2023


Pair  time (%) = 0.283179 (0.0181901)
Neigh time (%) = 1.60045 (0.102805)
Comm  time (%) = 4.29971 (0.276194)
Outpt time (%) = 0.000242363 (1.55683e-05)
Other time (%) = 1550.59 (99.6028)

Nlocal:    6.975 ave 66 max 0 min
Histogram: 32 2 0 1 2 0 1 0 1 1
Nghost:    1.35 ave 18 max 0 min
Histogram: 33 3 0 2 0 0 0 1 0 1
Neighs:    0.675 ave 6 max 0 min
Histogram: 33 1 0 0 0 2 1 0 2 1

Total # of neighbors = 27
Ave neighs/atom = 0.0967742
Neighbor list builds = 4636
Dangerous builds = 0
Setting up run at Fri Jan  6 02:31:57 2023

Memory usage per processor = 958.989 Mbytes
    Step    Atoms         KinEng            CPU 
30092499      279     0.44357978              0 
30246819      275     0.42132463      1581.7675 
Loop time of 1581.77 on 40 procs for 154320 steps with 275 atoms, finish time Fri Jan  6 02:58:19 2023


Pair  time (%) = 0.292373 (0.018484)
Neigh time (%) = 2.90684 (0.183772)
Comm  time (%) = 6.62951 (0.41912)
Outpt time (%) = 0.0031619 (0.000199897)
Other time (%) = 1571.94 (99.3784)

Nlocal:    6.875 ave 65 max 0 min
Histogram: 32 0 3 1 1 0 1 0 1 1
Nghost:    1.475 ave 20 max 0 min
Histogram: 35 0 1 1 0 1 0 0 1 1
Neighs:    0.35 ave 6 max 0 min
Histogram: 36 1 0 0 0 1 1 0 0 1

Total # of neighbors = 14
Ave neighs/atom = 0.0509091
Neighbor list builds = 8644
Dangerous builds = 311
Setting up run at Fri Jan  6 02:58:19 2023

Memory usage per processor = 958.989 Mbytes
    Step    Atoms         KinEng            CPU 
30246819      275     0.42132463              0 
30401139      274     0.34564231      1559.9108 
Loop time of 1559.91 on 40 procs for 154320 steps with 274 atoms, finish time Fri Jan  6 03:24:19 2023


Pair  time (%) = 0.282761 (0.0181268)
Neigh time (%) = 1.72826 (0.110792)
Comm  time (%) = 3.97576 (0.254871)
Outpt time (%) = 0.000240783 (1.54357e-05)
Other time (%) = 1553.92 (99.6162)

Nlocal:    6.85 ave 65 max 0 min
Histogram: 32 0 1 3 1 1 0 0 1 1
Nghost:    1.425 ave 20 max 0 min
Histogram: 33 3 1 1 0 0 0 1 0 1
Neighs:    0.4 ave 5 max 0 min
Histogram: 35 0 0 0 2 0 1 0 1 1

Total # of neighbors = 16
Ave neighs/atom = 0.0583942
Neighbor list builds = 5006
Dangerous builds = 0
Setting up run at Fri Jan  6 03:24:19 2023

Memory usage per processor = 958.989 Mbytes
    Step    Atoms         KinEng            CPU 
30401139      274     0.34564231              0 
30555459      273     0.32574032      1559.8933 
Loop time of 1559.89 on 40 procs for 154320 steps with 273 atoms, finish time Fri Jan  6 03:50:19 2023


Pair  time (%) = 0.282155 (0.0180881)
Neigh time (%) = 1.47998 (0.0948772)
Comm  time (%) = 3.48605 (0.22348)
Outpt time (%) = 0.000183908 (1.17898e-05)
Other time (%) = 1554.65 (99.6635)

Nlocal:    6.825 ave 64 max 0 min
Histogram: 32 0 1 3 1 1 0 0 1 1
Nghost:    1.5 ave 19 max 0 min
Histogram: 34 2 0 1 1 0 0 0 1 1
Neighs:    0.475 ave 5 max 0 min
Histogram: 33 0 2 0 2 0 0 0 2 1

Total # of neighbors = 19
Ave neighs/atom = 0.0695971
Neighbor list builds = 4285
Dangerous builds = 1
Setting up run at Fri Jan  6 03:50:19 2023

Memory usage per processor = 958.989 Mbytes
    Step    Atoms         KinEng            CPU 
30555459      273     0.32574032              0 
30709779      272     0.41464203       1553.714 
Loop time of 1553.71 on 40 procs for 154320 steps with 272 atoms, finish time Fri Jan  6 04:16:13 2023


Pair  time (%) = 0.281201 (0.0180986)
Neigh time (%) = 1.46436 (0.0942489)
Comm  time (%) = 3.83212 (0.246643)
Outpt time (%) = 0.000500213 (3.21947e-05)
Other time (%) = 1548.14 (99.641)

Nlocal:    6.8 ave 65 max 0 min
Histogram: 32 0 1 3 2 0 0 1 0 1
Nghost:    1.4 ave 18 max 0 min
Histogram: 33 2 2 0 1 0 0 1 0 1
Neighs:    0.45 ave 5 max 0 min
Histogram: 33 0 3 0 1 0 1 0 0 2

Total # of neighbors = 18
Ave neighs/atom = 0.0661765
Neighbor list builds = 4243
Dangerous builds = 0
Setting up run at Fri Jan  6 04:16:13 2023

Memory usage per processor = 958.989 Mbytes
    Step    Atoms         KinEng            CPU 
30709779      272     0.41464203              0 
30864099      272     0.33786627      1548.4867 
Loop time of 1548.49 on 40 procs for 154320 steps with 272 atoms, finish time Fri Jan  6 04:42:01 2023


Pair  time (%) = 0.274504 (0.0177273)
Neigh time (%) = 0.766438 (0.0494959)
Comm  time (%) = 2.11962 (0.136883)
Outpt time (%) = 0.000245839 (1.5876e-05)
Other time (%) = 1545.33 (99.7959)

Nlocal:    6.8 ave 64 max 0 min
Histogram: 32 0 2 2 1 1 0 1 0 1
Nghost:    1.325 ave 18 max 0 min
Histogram: 34 2 0 1 1 0 0 1 0 1
Neighs:    0.6 ave 6 max 0 min
Histogram: 33 1 0 2 0 1 0 0 2 1

Total # of neighbors = 24
Ave neighs/atom = 0.0882353
Neighbor list builds = 2221
Dangerous builds = 0
Setting up run at Fri Jan  6 04:42:01 2023

Memory usage per processor = 958.989 Mbytes
    Step    Atoms         KinEng            CPU 
30864099      272     0.33786627              0 
30864196      272     0.33786378     0.92539413 
Loop time of 0.925408 on 40 procs for 97 steps with 272 atoms, finish time Fri Jan  6 04:42:02 2023


Pair  time (%) = 0.00017103 (0.0184815)
Neigh time (%) = 0.000353891 (0.0382416)
Comm  time (%) = 0.000685762 (0.0741038)
Outpt time (%) = 0.000173262 (0.0187228)
Other time (%) = 0.924024 (99.8505)

Nlocal:    6.8 ave 64 max 0 min
Histogram: 32 0 2 2 1 1 0 1 0 1
Nghost:    1.325 ave 18 max 0 min
Histogram: 34 2 0 1 1 0 0 1 0 1
Neighs:    0.575 ave 6 max 0 min
Histogram: 33 1 0 2 0 1 1 0 1 1

Total # of neighbors = 23
Ave neighs/atom = 0.0845588
Neighbor list builds = 1
Dangerous builds = 0
