LIGGGHTS (Version LIGGGHTS-PUBLIC 3.8.0, compiled 2022-11-07-16:55:38 by serperd1, git commit 86544c3f1215bc9744d7929e3eacf53ba086af9e)
Created orthogonal box = (-0.15 -0.15 -0.15) to (0.15 0.15 0.15)
  2 by 4 by 5 MPI processor grid

Reading STL file 'cone.stl' (mesh processing step 1/3) 

Reading STL file 'in_cyl.stl' (mesh processing step 1/3) 

Reading STL file 'top_cyl.stl' (mesh processing step 1/3) 

Reading STL file 'bot_cyl.stl' (mesh processing step 1/3) 

Reading STL file 'bottom_disk.stl' (mesh processing step 1/3) 

Reading STL file 'top_disk.stl' (mesh processing step 1/3) 
Fix particledistribution/discrete (id prob_par): distribution based on mass%:
    r_0to10p: d=8.400000e-05 (max. bounding sphere) mass%=10.000000%
    r_10to50p: d=2.328000e-04 (max. bounding sphere) mass%=40.000000%
    r_50to90p: d=8.466000e-04 (max. bounding sphere) mass%=40.000000%
    r_90to100p: d=1.312200e-03 (max. bounding sphere) mass%=10.000000%
Fix particledistribution/discrete (id prob_par): distribution based on number%:
    r_0to10p: d=8.400000e-05 (max. bounding sphere) number%=83.887052%
    r_10to50p: d=2.328000e-04 (max. bounding sphere) number%=15.763181%
    r_50to90p: d=8.466000e-04 (max. bounding sphere) number%=0.327762%
    r_90to100p: d=1.312200e-03 (max. bounding sphere) number%=0.022006%
Setting up run at Thu Dec 22 21:02:49 2022

Import and parallelization of mesh cone_mesh containing 868 triangle(s) successful
Import and parallelization of mesh inlet_cyl_wall_mesh containing 1064 triangle(s) successful
Import and parallelization of mesh top_cyl_wall_mesh containing 682 triangle(s) successful
Import and parallelization of mesh bot_cyl_wall_mesh containing 1280 triangle(s) successful
Import and parallelization of mesh bot_disk_wall_mesh containing 1682 triangle(s) successful
Import and parallelization of mesh top_disk_wall_mesh containing 1144 triangle(s) successful
Memory usage per processor = 960.256 Mbytes
    Step    Atoms         KinEng            CPU 
       0        0              0              0 
Loop time of 7.79255e-05 on 40 procs for 0 steps with 0 atoms, finish time Thu Dec 22 21:02:49 2022


Pair  time (%) = 0 (0)
Neigh time (%) = 0 (0)
Comm  time (%) = 0 (0)
Outpt time (%) = 0 (0)
Other time (%) = 7.79255e-05 (100)

Nlocal:    0 ave 0 max 0 min
Histogram: 40 0 0 0 0 0 0 0 0 0
Nghost:    0 ave 0 max 0 min
Histogram: 40 0 0 0 0 0 0 0 0 0
Neighs:    0 ave 0 max 0 min
Histogram: 40 0 0 0 0 0 0 0 0 0

Total # of neighbors = 0
Neighbor list builds = 0
Dangerous builds = 0
Setting up run at Thu Dec 22 21:02:49 2022

Memory usage per processor = 960.256 Mbytes
    Step    Atoms         KinEng            CPU 
       0        0              0              0 
       1        0              0    0.009745619 
Loop time of 0.00978672 on 40 procs for 1 steps with 0 atoms, finish time Thu Dec 22 21:02:49 2022


Pair  time (%) = 3.08938e-06 (0.031567)
Neigh time (%) = 0 (0)
Comm  time (%) = 0.000252014 (2.57506)
Outpt time (%) = 9.28404e-05 (0.948637)
Other time (%) = 0.00943878 (96.4447)

Nlocal:    0 ave 0 max 0 min
Histogram: 40 0 0 0 0 0 0 0 0 0
Nghost:    0 ave 0 max 0 min
Histogram: 40 0 0 0 0 0 0 0 0 0
Neighs:    0 ave 0 max 0 min
Histogram: 40 0 0 0 0 0 0 0 0 0

Total # of neighbors = 0
Neighbor list builds = 0
Dangerous builds = 0
Scanning dump file ...
Reading snapshot from dump file ...
  orthogonal box = (-0.15 -0.15 -0.15) to (0.15 0.15 0.15)
  0 atoms before read
  4382 atoms in snapshot
  0 atoms purged
  0 atoms replaced
  0 atoms trimmed
  4382 atoms added
  4382 atoms after read
Setting atom values ...
  4382 settings made for type
  4382 settings made for density
  4382 settings made for vy
Setting up run at Thu Dec 22 21:02:49 2022

Memory usage per processor = 964.609 Mbytes
    Step    Atoms         KinEng            CPU 
       1     4382  2.0405663e-07              0 
       2     4382  2.5286639e-06    0.009356519 
Loop time of 0.00937502 on 40 procs for 1 steps with 4382 atoms, finish time Thu Dec 22 21:02:49 2022


Pair  time (%) = 4.43817e-06 (0.0473405)
Neigh time (%) = 0 (0)
Comm  time (%) = 8.3757e-06 (0.0893407)
Outpt time (%) = 0.000236727 (2.52509)
Other time (%) = 0.00912547 (97.3382)

Nlocal:    109.55 ave 1816 max 0 min
Histogram: 36 0 2 0 0 0 0 0 0 2
Nghost:    27.3 ave 345 max 0 min
Histogram: 36 0 0 0 0 1 1 0 0 2
Neighs:    35.525 ave 600 max 0 min
Histogram: 36 0 2 0 0 0 0 0 0 2

Total # of neighbors = 1421
Ave neighs/atom = 0.324281
Neighbor list builds = 0
Dangerous builds = 0
Setting up run at Thu Dec 22 21:02:49 2022

Memory usage per processor = 964.609 Mbytes
    Step    Atoms         KinEng            CPU 
       2     4382  2.5286639e-06              0 
  308643     4382  0.00030849076      3157.8804 
Loop time of 3157.88 on 40 procs for 308641 steps with 4382 atoms, finish time Thu Dec 22 21:55:27 2022


Pair  time (%) = 1.32609 (0.0419931)
Neigh time (%) = 4.25734 (0.134816)
Comm  time (%) = 4.14162 (0.131152)
Outpt time (%) = 0.000245103 (7.76163e-06)
Other time (%) = 3148.16 (99.692)

Nlocal:    109.55 ave 1780 max 0 min
Histogram: 36 0 2 0 0 0 0 0 0 2
Nghost:    28.15 ave 360 max 0 min
Histogram: 36 0 0 0 0 1 1 0 0 2
Neighs:    39.35 ave 668 max 0 min
Histogram: 36 0 2 0 0 0 0 0 0 2

Total # of neighbors = 1574
Ave neighs/atom = 0.359197
Neighbor list builds = 1630
Dangerous builds = 0
Setting up run at Thu Dec 22 21:55:27 2022

Memory usage per processor = 964.609 Mbytes
    Step    Atoms         KinEng            CPU 
  308643     4382  0.00030849076              0 
  617284     4380  0.00035966076      3137.9086 
Loop time of 3137.91 on 40 procs for 308641 steps with 4380 atoms, finish time Thu Dec 22 22:47:45 2022


Pair  time (%) = 1.34449 (0.0428466)
Neigh time (%) = 3.29339 (0.104955)
Comm  time (%) = 4.31649 (0.137559)
Outpt time (%) = 0.000700382 (2.232e-05)
Other time (%) = 3128.95 (99.7146)

Nlocal:    109.5 ave 1746 max 0 min
Histogram: 36 0 2 0 0 0 0 0 0 2
Nghost:    26.625 ave 327 max 0 min
Histogram: 36 0 0 0 0 0 2 0 0 2
Neighs:    41.175 ave 673 max 0 min
Histogram: 36 0 2 0 0 0 0 0 0 2

Total # of neighbors = 1647
Ave neighs/atom = 0.376027
Neighbor list builds = 1267
Dangerous builds = 0
Setting up run at Thu Dec 22 22:47:45 2022

Memory usage per processor = 964.609 Mbytes
    Step    Atoms         KinEng            CPU 
  617284     4380  0.00035966076              0 
  925925     4374   0.0010742731      3210.3259 
Loop time of 3210.33 on 40 procs for 308641 steps with 4374 atoms, finish time Thu Dec 22 23:41:15 2022


Pair  time (%) = 1.34714 (0.0419626)
Neigh time (%) = 15.628 (0.486805)
Comm  time (%) = 9.47159 (0.295035)
Outpt time (%) = 0.00077626 (2.41801e-05)
Other time (%) = 3183.88 (99.1762)

Nlocal:    109.35 ave 1729 max 0 min
Histogram: 36 0 2 0 0 0 0 0 0 2
Nghost:    24.525 ave 304 max 0 min
Histogram: 36 0 0 0 0 1 1 0 0 2
Neighs:    40.525 ave 658 max 0 min
Histogram: 36 0 2 0 0 0 0 0 0 2

Total # of neighbors = 1621
Ave neighs/atom = 0.370599
Neighbor list builds = 5789
Dangerous builds = 10
Setting up run at Thu Dec 22 23:41:15 2022

Memory usage per processor = 964.609 Mbytes
    Step    Atoms         KinEng            CPU 
  925925     4374   0.0010742731              0 
 1234566     4368    0.021154755      3351.1386 
Loop time of 3351.14 on 40 procs for 308641 steps with 4368 atoms, finish time Fri Dec 23 00:37:07 2022


Pair  time (%) = 1.37008 (0.0408841)
Neigh time (%) = 45.9616 (1.37152)
Comm  time (%) = 21.6551 (0.646202)
Outpt time (%) = 0.000595107 (1.77584e-05)
Other time (%) = 3282.15 (97.9414)

Nlocal:    109.2 ave 1704 max 0 min
Histogram: 36 0 2 0 0 0 0 0 0 2
Nghost:    23.7 ave 294 max 0 min
Histogram: 36 0 0 0 0 1 1 0 0 2
Neighs:    37.925 ave 630 max 0 min
Histogram: 36 1 1 0 0 0 0 0 0 2

Total # of neighbors = 1517
Ave neighs/atom = 0.347299
Neighbor list builds = 16897
Dangerous builds = 256
Setting up run at Fri Dec 23 00:37:07 2022

Memory usage per processor = 964.609 Mbytes
    Step    Atoms         KinEng            CPU 
 1234566     4368    0.021154755              0 
 1543207     4351    0.069228373      3503.0319 
Loop time of 3503.03 on 40 procs for 308641 steps with 4351 atoms, finish time Fri Dec 23 01:35:30 2022


Pair  time (%) = 1.38615 (0.0395699)
Neigh time (%) = 76.0964 (2.1723)
Comm  time (%) = 38.7224 (1.1054)
Outpt time (%) = 0.00665814 (0.000190068)
Other time (%) = 3386.82 (96.6825)

Nlocal:    108.775 ave 1666 max 0 min
Histogram: 36 0 2 0 0 0 0 0 0 2
Nghost:    23.1 ave 300 max 0 min
Histogram: 36 0 0 0 0 2 0 0 0 2
Neighs:    38.675 ave 638 max 0 min
Histogram: 36 0 2 0 0 0 0 0 0 2

Total # of neighbors = 1547
Ave neighs/atom = 0.35555
Neighbor list builds = 27999
Dangerous builds = 4097
Setting up run at Fri Dec 23 01:35:30 2022

Memory usage per processor = 964.609 Mbytes
    Step    Atoms         KinEng            CPU 
 1543207     4351    0.069228373              0 
 1851848     4339    0.078867959      3675.6199 
Loop time of 3675.62 on 40 procs for 308641 steps with 4339 atoms, finish time Fri Dec 23 02:36:45 2022


Pair  time (%) = 1.40427 (0.038205)
Neigh time (%) = 115.66 (3.14667)
Comm  time (%) = 62.9766 (1.71336)
Outpt time (%) = 0.000658527 (1.79161e-05)
Other time (%) = 3495.58 (95.1017)

Nlocal:    108.475 ave 1648 max 0 min
Histogram: 36 0 2 0 0 0 0 0 0 2
Nghost:    22.975 ave 294 max 0 min
Histogram: 36 0 0 0 0 2 0 0 0 2
Neighs:    38.7 ave 633 max 0 min
Histogram: 36 1 1 0 0 0 0 0 0 2

Total # of neighbors = 1548
Ave neighs/atom = 0.356764
Neighbor list builds = 42497
Dangerous builds = 2441
Setting up run at Fri Dec 23 02:36:46 2022

Memory usage per processor = 964.609 Mbytes
    Step    Atoms         KinEng            CPU 
 1851848     4339    0.078867959              0 
 2160489     4321    0.059535171      3600.3631 
Loop time of 3600.36 on 40 procs for 308641 steps with 4321 atoms, finish time Fri Dec 23 03:36:46 2022


Pair  time (%) = 1.35782 (0.0377134)
Neigh time (%) = 97.9533 (2.72065)
Comm  time (%) = 66.8947 (1.858)
Outpt time (%) = 0.00066741 (1.85373e-05)
Other time (%) = 3434.16 (95.3836)

Nlocal:    108.025 ave 1639 max 0 min
Histogram: 36 0 2 0 0 0 0 0 0 2
Nghost:    22.4 ave 275 max 0 min
Histogram: 36 0 0 0 0 1 1 0 0 2
Neighs:    36.5 ave 616 max 0 min
Histogram: 36 0 2 0 0 0 0 0 0 2

Total # of neighbors = 1460
Ave neighs/atom = 0.337885
Neighbor list builds = 35995
Dangerous builds = 3286
Setting up run at Fri Dec 23 03:36:46 2022

Memory usage per processor = 964.609 Mbytes
    Step    Atoms         KinEng            CPU 
 2160489     4321    0.059535171              0 
 2469130     4308     0.24456642      3524.9466 
Loop time of 3524.95 on 40 procs for 308641 steps with 4308 atoms, finish time Fri Dec 23 04:35:31 2022


Pair  time (%) = 1.33682 (0.0379245)
Neigh time (%) = 82.2781 (2.33417)
Comm  time (%) = 59.7416 (1.69482)
Outpt time (%) = 0.000309216 (8.77221e-06)
Other time (%) = 3381.59 (95.9331)

Nlocal:    107.7 ave 1631 max 0 min
Histogram: 36 0 2 0 0 0 0 0 0 2
Nghost:    22.25 ave 281 max 0 min
Histogram: 36 0 0 0 0 2 0 0 0 2
Neighs:    36.475 ave 610 max 0 min
Histogram: 36 1 1 0 0 0 0 0 0 2

Total # of neighbors = 1459
Ave neighs/atom = 0.338672
Neighbor list builds = 30234
Dangerous builds = 1188
Setting up run at Fri Dec 23 04:35:31 2022

Memory usage per processor = 964.609 Mbytes
    Step    Atoms         KinEng            CPU 
 2469130     4308     0.24456642              0 
 2777771     4279     0.25725476       3652.882 
Loop time of 3652.88 on 40 procs for 308641 steps with 4279 atoms, finish time Fri Dec 23 05:36:24 2022


Pair  time (%) = 1.35113 (0.0369881)
Neigh time (%) = 107.442 (2.9413)
Comm  time (%) = 80.9358 (2.21567)
Outpt time (%) = 0.000601215 (1.64586e-05)
Other time (%) = 3463.15 (94.806)

Nlocal:    106.975 ave 1639 max 0 min
Histogram: 36 0 2 0 0 0 0 0 0 2
Nghost:    21.875 ave 264 max 0 min
Histogram: 36 0 0 0 0 0 2 0 0 2
Neighs:    35.5 ave 602 max 0 min
Histogram: 36 0 2 0 0 0 0 0 0 2

Total # of neighbors = 1420
Ave neighs/atom = 0.331853
Neighbor list builds = 39471
Dangerous builds = 3975
Setting up run at Fri Dec 23 05:36:24 2022

Memory usage per processor = 964.609 Mbytes
    Step    Atoms         KinEng            CPU 
 2777771     4279     0.25725476              0 
 3086412     4251     0.20420903      3668.7106 
Loop time of 3668.71 on 40 procs for 308641 steps with 4251 atoms, finish time Fri Dec 23 06:37:33 2022


Pair  time (%) = 1.33397 (0.0363608)
Neigh time (%) = 110.714 (3.01779)
Comm  time (%) = 81.483 (2.22103)
Outpt time (%) = 0.000631375 (1.72097e-05)
Other time (%) = 3475.18 (94.7248)

Nlocal:    106.275 ave 1614 max 0 min
Histogram: 36 0 2 0 0 0 0 0 0 2
Nghost:    21.95 ave 278 max 0 min
Histogram: 36 0 0 0 0 1 1 0 0 2
Neighs:    35.275 ave 606 max 0 min
Histogram: 36 0 2 0 0 0 0 0 1 1

Total # of neighbors = 1411
Ave neighs/atom = 0.331922
Neighbor list builds = 40623
Dangerous builds = 1949
Setting up run at Fri Dec 23 06:37:33 2022

Memory usage per processor = 964.609 Mbytes
    Step    Atoms         KinEng            CPU 
 3086412     4251     0.20420903              0 
 3395053     4226      7.0515415      3936.1525 
Loop time of 3936.15 on 40 procs for 308641 steps with 4226 atoms, finish time Fri Dec 23 07:43:09 2022


Pair  time (%) = 1.33943 (0.0340289)
Neigh time (%) = 165.049 (4.19316)
Comm  time (%) = 145.267 (3.69058)
Outpt time (%) = 0.00672179 (0.00017077)
Other time (%) = 3624.49 (92.0821)

Nlocal:    105.65 ave 1592 max 0 min
Histogram: 36 0 2 0 0 0 0 0 0 2
Nghost:    21.325 ave 267 max 0 min
Histogram: 36 0 0 0 0 1 1 0 0 2
Neighs:    34.175 ave 612 max 0 min
Histogram: 36 0 2 0 0 0 0 1 0 1

Total # of neighbors = 1367
Ave neighs/atom = 0.323474
Neighbor list builds = 60597
Dangerous builds = 6804
Setting up run at Fri Dec 23 07:43:09 2022

Memory usage per processor = 964.609 Mbytes
    Step    Atoms         KinEng            CPU 
 3395053     4226      7.0515415              0 
 3703694     4183      0.3632465      3940.7307 
Loop time of 3940.73 on 40 procs for 308641 steps with 4183 atoms, finish time Fri Dec 23 08:48:50 2022


Pair  time (%) = 1.31653 (0.0334082)
Neigh time (%) = 166.978 (4.23724)
Comm  time (%) = 145.338 (3.6881)
Outpt time (%) = 0.00659259 (0.000167293)
Other time (%) = 3627.09 (92.0411)

Nlocal:    104.575 ave 1569 max 0 min
Histogram: 36 0 2 0 0 0 0 0 0 2
Nghost:    19.925 ave 244 max 0 min
Histogram: 36 0 0 0 0 1 1 0 0 2
Neighs:    30.95 ave 544 max 0 min
Histogram: 36 0 2 0 0 0 0 1 0 1

Total # of neighbors = 1238
Ave neighs/atom = 0.29596
Neighbor list builds = 61301
Dangerous builds = 3535
Setting up run at Fri Dec 23 08:48:50 2022

Memory usage per processor = 964.609 Mbytes
    Step    Atoms         KinEng            CPU 
 3703694     4183      0.3632465              0 
 4012335     4142      0.4296882      3838.8801 
Loop time of 3838.88 on 40 procs for 308641 steps with 4142 atoms, finish time Fri Dec 23 09:52:49 2022


Pair  time (%) = 1.27089 (0.0331058)
Neigh time (%) = 148.617 (3.87137)
Comm  time (%) = 139.859 (3.64322)
Outpt time (%) = 0.000693174 (1.80567e-05)
Other time (%) = 3549.13 (92.4523)

Nlocal:    103.55 ave 1551 max 0 min
Histogram: 36 0 2 0 0 0 0 0 0 2
Nghost:    18.65 ave 224 max 0 min
Histogram: 36 0 0 0 0 1 1 0 0 2
Neighs:    29.975 ave 522 max 0 min
Histogram: 36 0 2 0 0 0 0 1 0 1

Total # of neighbors = 1199
Ave neighs/atom = 0.289474
Neighbor list builds = 54440
Dangerous builds = 5380
Setting up run at Fri Dec 23 09:52:49 2022

Memory usage per processor = 964.609 Mbytes
    Step    Atoms         KinEng            CPU 
 4012335     4142      0.4296882              0 
 4320976     4095      2.1515671      3857.4326 
Loop time of 3857.43 on 40 procs for 308641 steps with 4095 atoms, finish time Fri Dec 23 10:57:07 2022


Pair  time (%) = 1.27053 (0.0329372)
Neigh time (%) = 151.251 (3.92103)
Comm  time (%) = 135.401 (3.51013)
Outpt time (%) = 0.000846873 (2.19543e-05)
Other time (%) = 3569.51 (92.5359)

Nlocal:    102.375 ave 1535 max 0 min
Histogram: 36 0 2 0 0 0 0 0 1 1
Nghost:    18.025 ave 217 max 0 min
Histogram: 36 0 0 0 0 1 1 0 0 2
Neighs:    27.95 ave 523 max 0 min
Histogram: 36 0 2 0 0 0 1 0 0 1

Total # of neighbors = 1118
Ave neighs/atom = 0.273016
Neighbor list builds = 55334
Dangerous builds = 5096
Setting up run at Fri Dec 23 10:57:07 2022

Memory usage per processor = 964.609 Mbytes
    Step    Atoms         KinEng            CPU 
 4320976     4095      2.1515671              0 
 4629617     4039     0.44745134      3814.4411 
Loop time of 3814.44 on 40 procs for 308641 steps with 4039 atoms, finish time Fri Dec 23 12:00:41 2022


Pair  time (%) = 1.25451 (0.0328886)
Neigh time (%) = 144.358 (3.78451)
Comm  time (%) = 135.377 (3.54907)
Outpt time (%) = 0.000582307 (1.52658e-05)
Other time (%) = 3533.45 (92.6335)

Nlocal:    100.975 ave 1512 max 0 min
Histogram: 36 0 2 0 0 0 0 0 1 1
Nghost:    17.5 ave 207 max 0 min
Histogram: 36 0 0 0 0 1 1 0 0 2
Neighs:    27.625 ave 551 max 0 min
Histogram: 36 1 1 0 0 0 1 0 0 1

Total # of neighbors = 1105
Ave neighs/atom = 0.273583
Neighbor list builds = 52858
Dangerous builds = 11157
Setting up run at Fri Dec 23 12:00:41 2022

Memory usage per processor = 964.609 Mbytes
    Step    Atoms         KinEng            CPU 
 4629617     4039     0.44745134              0 
 4938258     3973     0.72731212      3779.4141 
Loop time of 3779.41 on 40 procs for 308641 steps with 3973 atoms, finish time Fri Dec 23 13:03:41 2022


Pair  time (%) = 1.21616 (0.0321786)
Neigh time (%) = 135.87 (3.595)
Comm  time (%) = 142.658 (3.77462)
Outpt time (%) = 0.000598344 (1.58317e-05)
Other time (%) = 3499.67 (92.5982)

Nlocal:    99.325 ave 1490 max 0 min
Histogram: 36 0 2 0 0 0 0 0 1 1
Nghost:    17.575 ave 203 max 0 min
Histogram: 36 0 0 0 0 0 2 0 0 2
Neighs:    26.425 ave 504 max 0 min
Histogram: 36 1 1 0 0 0 1 0 0 1

Total # of neighbors = 1057
Ave neighs/atom = 0.266046
Neighbor list builds = 49809
Dangerous builds = 5426
Setting up run at Fri Dec 23 13:03:41 2022

Memory usage per processor = 964.609 Mbytes
    Step    Atoms         KinEng            CPU 
 4938258     3973     0.72731212              0 
 5246899     3916     0.73189722      3846.0301 
Loop time of 3846.03 on 40 procs for 308641 steps with 3916 atoms, finish time Fri Dec 23 14:07:47 2022


Pair  time (%) = 1.21115 (0.0314909)
Neigh time (%) = 150.841 (3.922)
Comm  time (%) = 156.56 (4.0707)
Outpt time (%) = 0.00656121 (0.000170597)
Other time (%) = 3537.41 (91.9756)

Nlocal:    97.9 ave 1453 max 0 min
Histogram: 36 0 2 0 0 0 0 0 1 1
Nghost:    18.075 ave 206 max 0 min
Histogram: 36 0 0 0 0 1 0 1 0 2
Neighs:    25.725 ave 481 max 0 min
Histogram: 36 1 1 0 0 0 0 1 0 1

Total # of neighbors = 1029
Ave neighs/atom = 0.262768
Neighbor list builds = 55336
Dangerous builds = 6070
Setting up run at Fri Dec 23 14:07:47 2022

Memory usage per processor = 964.609 Mbytes
    Step    Atoms         KinEng            CPU 
 5246899     3916     0.73189722              0 
 5555540     3837     0.56495205       3986.753 
Loop time of 3986.75 on 40 procs for 308641 steps with 3837 atoms, finish time Fri Dec 23 15:14:14 2022


Pair  time (%) = 1.21623 (0.0305068)
Neigh time (%) = 176.441 (4.42568)
Comm  time (%) = 182.287 (4.57232)
Outpt time (%) = 0.000634309 (1.59104e-05)
Other time (%) = 3626.81 (90.9715)

Nlocal:    95.925 ave 1401 max 0 min
Histogram: 36 0 2 0 0 0 0 0 1 1
Nghost:    16.775 ave 195 max 0 min
Histogram: 36 0 0 0 0 1 0 1 0 2
Neighs:    23.925 ave 428 max 0 min
Histogram: 36 0 2 0 0 0 0 1 0 1

Total # of neighbors = 957
Ave neighs/atom = 0.249414
Neighbor list builds = 64761
Dangerous builds = 9719
Setting up run at Fri Dec 23 15:14:14 2022

Memory usage per processor = 964.609 Mbytes
    Step    Atoms         KinEng            CPU 
 5555540     3837     0.56495205              0 
 5864181     3790      1.9028429      3814.1163 
Loop time of 3814.12 on 40 procs for 308641 steps with 3790 atoms, finish time Fri Dec 23 16:17:48 2022


Pair  time (%) = 1.1691 (0.0306519)
Neigh time (%) = 144.06 (3.77701)
Comm  time (%) = 154.698 (4.05593)
Outpt time (%) = 0.000632427 (1.65812e-05)
Other time (%) = 3514.19 (92.1364)

Nlocal:    94.75 ave 1353 max 0 min
Histogram: 36 0 2 0 0 0 0 0 1 1
Nghost:    16.175 ave 200 max 0 min
Histogram: 36 0 0 0 0 1 1 0 0 2
Neighs:    23.625 ave 392 max 0 min
Histogram: 36 0 2 0 0 0 0 0 1 1

Total # of neighbors = 945
Ave neighs/atom = 0.24934
Neighbor list builds = 52738
Dangerous builds = 5290
Setting up run at Fri Dec 23 16:17:48 2022

Memory usage per processor = 964.609 Mbytes
    Step    Atoms         KinEng            CPU 
 5864181     3790      1.9028429              0 
 6172822     3710     0.69473725      3874.7742 
Loop time of 3874.77 on 40 procs for 308641 steps with 3710 atoms, finish time Fri Dec 23 17:22:23 2022


Pair  time (%) = 1.17359 (0.0302879)
Neigh time (%) = 158.136 (4.08116)
Comm  time (%) = 175.798 (4.53698)
Outpt time (%) = 0.0126482 (0.000326423)
Other time (%) = 3539.65 (91.3512)

Nlocal:    92.75 ave 1343 max 0 min
Histogram: 36 0 2 0 0 0 0 0 1 1
Nghost:    14.775 ave 177 max 0 min
Histogram: 36 0 0 0 0 1 1 0 0 2
Neighs:    19.625 ave 390 max 0 min
Histogram: 36 1 1 0 0 1 0 0 0 1

Total # of neighbors = 785
Ave neighs/atom = 0.21159
Neighbor list builds = 57972
Dangerous builds = 10379
Setting up run at Fri Dec 23 17:22:23 2022

Memory usage per processor = 964.609 Mbytes
    Step    Atoms         KinEng            CPU 
 6172822     3710     0.69473725              0 
 6481463     3620     0.66731908      4035.7399 
Loop time of 4035.78 on 40 procs for 308641 steps with 3620 atoms, finish time Fri Dec 23 18:29:39 2022


Pair  time (%) = 1.14862 (0.0284608)
Neigh time (%) = 186.813 (4.62893)
Comm  time (%) = 209.66 (5.19503)
Outpt time (%) = 0.000582828 (1.44415e-05)
Other time (%) = 3638.16 (90.1476)

Nlocal:    90.5 ave 1396 max 0 min
Histogram: 36 0 2 0 0 0 0 1 0 1
Nghost:    15.1 ave 192 max 0 min
Histogram: 36 0 0 0 1 0 0 1 1 1
Neighs:    16.65 ave 372 max 0 min
Histogram: 36 1 1 1 0 0 0 0 0 1

Total # of neighbors = 666
Ave neighs/atom = 0.183978
Neighbor list builds = 68532
Dangerous builds = 12128
Setting up run at Fri Dec 23 18:29:39 2022

Memory usage per processor = 964.609 Mbytes
    Step    Atoms         KinEng            CPU 
 6481463     3620     0.66731908              0 
 6790104     3532     0.66159401      4029.9582 
Loop time of 4029.96 on 40 procs for 308641 steps with 3532 atoms, finish time Fri Dec 23 19:36:49 2022


Pair  time (%) = 1.11432 (0.027651)
Neigh time (%) = 191.429 (4.75015)
Comm  time (%) = 221.094 (5.48625)
Outpt time (%) = 0.000644037 (1.59812e-05)
Other time (%) = 3616.32 (89.7359)

Nlocal:    88.3 ave 1368 max 0 min
Histogram: 34 2 2 0 0 0 1 0 0 1
Nghost:    14.7 ave 196 max 0 min
Histogram: 36 0 0 1 0 0 1 1 0 1
Neighs:    13.925 ave 298 max 0 min
Histogram: 36 1 1 0 1 0 0 0 0 1

Total # of neighbors = 557
Ave neighs/atom = 0.157701
Neighbor list builds = 70100
Dangerous builds = 12219
Setting up run at Fri Dec 23 19:36:49 2022

Memory usage per processor = 964.609 Mbytes
    Step    Atoms         KinEng            CPU 
 6790104     3532     0.66159401              0 
 7098745     3442      1.1784522      4010.4303 
Loop time of 4010.43 on 40 procs for 308641 steps with 3442 atoms, finish time Fri Dec 23 20:43:40 2022


Pair  time (%) = 1.07187 (0.0267269)
Neigh time (%) = 188.065 (4.6894)
Comm  time (%) = 229.543 (5.72366)
Outpt time (%) = 0.000591076 (1.47385e-05)
Other time (%) = 3591.75 (89.5602)

Nlocal:    86.05 ave 1287 max 0 min
Histogram: 35 1 1 1 0 0 1 0 0 1
Nghost:    14.75 ave 181 max 0 min
Histogram: 36 0 0 0 1 0 0 1 1 1
Neighs:    11.4 ave 225 max 0 min
Histogram: 36 1 1 0 0 0 1 0 0 1

Total # of neighbors = 456
Ave neighs/atom = 0.132481
Neighbor list builds = 68736
Dangerous builds = 8489
Setting up run at Fri Dec 23 20:43:40 2022

Memory usage per processor = 964.609 Mbytes
    Step    Atoms         KinEng            CPU 
 7098745     3442      1.1784522              0 
 7407386     3344      2.7782768      4071.6702 
Loop time of 4071.67 on 40 procs for 308641 steps with 3344 atoms, finish time Fri Dec 23 21:51:31 2022


Pair  time (%) = 1.03591 (0.0254418)
Neigh time (%) = 203.801 (5.00535)
Comm  time (%) = 251.72 (6.18222)
Outpt time (%) = 0.00608432 (0.000149431)
Other time (%) = 3615.11 (88.7868)

Nlocal:    83.6 ave 1207 max 0 min
Histogram: 33 3 1 1 0 0 1 0 0 1
Nghost:    12.95 ave 161 max 0 min
Histogram: 36 0 0 0 1 0 1 0 1 1
Neighs:    8.275 ave 187 max 0 min
Histogram: 37 1 0 1 0 0 0 0 0 1

Total # of neighbors = 331
Ave neighs/atom = 0.0989833
Neighbor list builds = 74548
Dangerous builds = 10434
Setting up run at Fri Dec 23 21:51:31 2022

Memory usage per processor = 964.609 Mbytes
    Step    Atoms         KinEng            CPU 
 7407386     3344      2.7782768              0 
 7716027     3245     0.85444124      4373.4025 
Loop time of 4373.4 on 40 procs for 308641 steps with 3245 atoms, finish time Fri Dec 23 23:04:25 2022


Pair  time (%) = 1.0421 (0.0238281)
Neigh time (%) = 268.569 (6.14095)
Comm  time (%) = 342.875 (7.84001)
Outpt time (%) = 0.000510392 (1.16704e-05)
Other time (%) = 3760.92 (85.9952)

Nlocal:    81.125 ave 1171 max 0 min
Histogram: 33 3 1 1 0 1 0 0 0 1
Nghost:    12.225 ave 139 max 0 min
Histogram: 36 0 0 0 1 0 1 0 0 2
Neighs:    6.75 ave 145 max 0 min
Histogram: 36 2 0 0 1 0 0 0 0 1

Total # of neighbors = 270
Ave neighs/atom = 0.0832049
Neighbor list builds = 98298
Dangerous builds = 12296
Setting up run at Fri Dec 23 23:04:25 2022

Memory usage per processor = 964.609 Mbytes
    Step    Atoms         KinEng            CPU 
 7716027     3245     0.85444124              0 
 8024668     3128      1.0579065      4053.2583 
Loop time of 4053.26 on 40 procs for 308641 steps with 3128 atoms, finish time Sat Dec 24 00:11:58 2022


Pair  time (%) = 0.979068 (0.0241551)
Neigh time (%) = 202.448 (4.99469)
Comm  time (%) = 243.765 (6.01405)
Outpt time (%) = 0.000548825 (1.35403e-05)
Other time (%) = 3606.07 (88.9671)

Nlocal:    78.2 ave 1097 max 0 min
Histogram: 33 3 1 1 0 1 0 0 0 1
Nghost:    10.375 ave 117 max 0 min
Histogram: 35 1 0 0 1 0 1 0 1 1
Neighs:    5.15 ave 117 max 0 min
Histogram: 36 2 1 0 0 0 0 0 0 1

Total # of neighbors = 206
Ave neighs/atom = 0.0658568
Neighbor list builds = 73901
Dangerous builds = 11813
Setting up run at Sat Dec 24 00:11:58 2022

Memory usage per processor = 964.609 Mbytes
    Step    Atoms         KinEng            CPU 
 8024668     3128      1.0579065              0 
 8333309     3020      1.2769825      3880.1134 
Loop time of 3880.11 on 40 procs for 308641 steps with 3020 atoms, finish time Sat Dec 24 01:16:39 2022


Pair  time (%) = 0.931284 (0.0240015)
Neigh time (%) = 167.233 (4.31)
Comm  time (%) = 202.503 (5.219)
Outpt time (%) = 0.000590631 (1.5222e-05)
Other time (%) = 3509.45 (90.447)

Nlocal:    75.5 ave 1019 max 0 min
Histogram: 32 4 2 0 0 0 1 0 0 1
Nghost:    9.625 ave 98 max 0 min
Histogram: 36 0 0 0 0 1 0 0 1 2
Neighs:    4.325 ave 86 max 0 min
Histogram: 35 2 1 1 0 0 0 0 0 1

Total # of neighbors = 173
Ave neighs/atom = 0.0572848
Neighbor list builds = 60854
Dangerous builds = 6667
Setting up run at Sat Dec 24 01:16:39 2022

Memory usage per processor = 964.609 Mbytes
    Step    Atoms         KinEng            CPU 
 8333309     3020      1.2769825              0 
 8641950     2906     0.89008071      3959.5185 
Loop time of 3959.52 on 40 procs for 308641 steps with 2906 atoms, finish time Sat Dec 24 02:22:38 2022


Pair  time (%) = 0.924236 (0.0233421)
Neigh time (%) = 185.703 (4.69003)
Comm  time (%) = 227.196 (5.73797)
Outpt time (%) = 0.00072798 (1.83856e-05)
Other time (%) = 3545.7 (89.5486)

Nlocal:    72.65 ave 931 max 0 min
Histogram: 32 4 1 1 0 0 1 0 0 1
Nghost:    9.4 ave 97 max 0 min
Histogram: 35 1 0 0 0 0 1 0 2 1
Neighs:    3.55 ave 66 max 0 min
Histogram: 35 1 2 1 0 0 0 0 0 1

Total # of neighbors = 142
Ave neighs/atom = 0.0488644
Neighbor list builds = 67553
Dangerous builds = 6915
Setting up run at Sat Dec 24 02:22:38 2022

Memory usage per processor = 964.609 Mbytes
    Step    Atoms         KinEng            CPU 
 8641950     2906     0.89008071              0 
 8950591     2782     0.82051083      4400.6288 
Loop time of 4400.63 on 40 procs for 308641 steps with 2782 atoms, finish time Sat Dec 24 03:35:59 2022


Pair  time (%) = 0.967312 (0.0219812)
Neigh time (%) = 282.75 (6.42521)
Comm  time (%) = 352.309 (8.00588)
Outpt time (%) = 0.000633041 (1.43852e-05)
Other time (%) = 3764.6 (85.5469)

Nlocal:    69.55 ave 856 max 0 min
Histogram: 32 4 1 1 0 0 0 1 0 1
Nghost:    8.675 ave 98 max 0 min
Histogram: 36 0 0 0 1 0 1 1 0 1
Neighs:    3.125 ave 58 max 0 min
Histogram: 34 3 0 2 0 0 0 0 0 1

Total # of neighbors = 125
Ave neighs/atom = 0.0449317
Neighbor list builds = 103025
Dangerous builds = 27266
Setting up run at Sat Dec 24 03:35:59 2022

Memory usage per processor = 964.609 Mbytes
    Step    Atoms         KinEng            CPU 
 8950591     2782     0.82051083              0 
 9259232     2669      15.643113      4021.3256 
Loop time of 4021.33 on 40 procs for 308641 steps with 2669 atoms, finish time Sat Dec 24 04:43:00 2022


Pair  time (%) = 0.892338 (0.0221902)
Neigh time (%) = 201.629 (5.01398)
Comm  time (%) = 243.227 (6.04843)
Outpt time (%) = 0.00627257 (0.000155983)
Other time (%) = 3575.57 (88.9152)

Nlocal:    66.725 ave 806 max 0 min
Histogram: 32 3 2 1 0 0 0 1 0 1
Nghost:    7.825 ave 84 max 0 min
Histogram: 35 1 0 0 0 1 0 2 0 1
Neighs:    2.8 ave 46 max 0 min
Histogram: 35 1 1 1 1 0 0 0 0 1

Total # of neighbors = 112
Ave neighs/atom = 0.0419633
Neighbor list builds = 73381
Dangerous builds = 10782
Setting up run at Sat Dec 24 04:43:00 2022

Memory usage per processor = 964.609 Mbytes
    Step    Atoms         KinEng            CPU 
 9259232     2669      15.643113              0 
 9567873     2540     0.81711519      4490.1891 
Loop time of 4490.19 on 40 procs for 308641 steps with 2540 atoms, finish time Sat Dec 24 05:57:51 2022


Pair  time (%) = 0.975299 (0.0217207)
Neigh time (%) = 305.792 (6.81023)
Comm  time (%) = 366.9 (8.17114)
Outpt time (%) = 0.000584243 (1.30115e-05)
Other time (%) = 3816.52 (84.9969)

Nlocal:    63.5 ave 739 max 0 min
Histogram: 32 3 2 1 0 0 0 1 0 1
Nghost:    8.05 ave 89 max 0 min
Histogram: 36 0 0 0 1 0 0 1 1 1
Neighs:    2.675 ave 36 max 0 min
Histogram: 34 2 0 1 0 2 0 0 0 1

Total # of neighbors = 107
Ave neighs/atom = 0.042126
Neighbor list builds = 111641
Dangerous builds = 71523
Setting up run at Sat Dec 24 05:57:51 2022

Memory usage per processor = 964.609 Mbytes
    Step    Atoms         KinEng            CPU 
 9567873     2540     0.81711519              0 
 9876514     2434      1.0535056      3887.4157 
Loop time of 3887.42 on 40 procs for 308641 steps with 2434 atoms, finish time Sat Dec 24 07:02:38 2022


Pair  time (%) = 0.853765 (0.0219623)
Neigh time (%) = 173.587 (4.46535)
Comm  time (%) = 207.755 (5.34429)
Outpt time (%) = 0.000528568 (1.35969e-05)
Other time (%) = 3505.22 (90.1684)

Nlocal:    60.85 ave 676 max 0 min
Histogram: 32 2 3 1 0 0 0 0 1 1
Nghost:    7.625 ave 78 max 0 min
Histogram: 33 3 0 0 1 0 0 1 0 2
Neighs:    2.25 ave 29 max 0 min
Histogram: 32 3 1 1 1 0 1 0 0 1

Total # of neighbors = 90
Ave neighs/atom = 0.0369762
Neighbor list builds = 63224
Dangerous builds = 7253
Setting up run at Sat Dec 24 07:02:38 2022

Memory usage per processor = 964.609 Mbytes
    Step    Atoms         KinEng            CPU 
 9876514     2434      1.0535056              0 
10185155     2301      1.0858167      4072.9824 
Loop time of 4072.98 on 40 procs for 308641 steps with 2301 atoms, finish time Sat Dec 24 08:10:31 2022


Pair  time (%) = 0.86682 (0.0212822)
Neigh time (%) = 214.303 (5.26158)
Comm  time (%) = 262.648 (6.44854)
Outpt time (%) = 0.00592687 (0.000145517)
Other time (%) = 3595.16 (88.2685)

Nlocal:    57.525 ave 625 max 0 min
Histogram: 32 2 2 2 0 0 0 0 1 1
Nghost:    7.55 ave 81 max 0 min
Histogram: 35 1 0 0 1 0 1 0 0 2
Neighs:    2.05 ave 31 max 0 min
Histogram: 33 4 0 1 0 0 1 0 0 1

Total # of neighbors = 82
Ave neighs/atom = 0.0356367
Neighbor list builds = 78112
Dangerous builds = 14255
Setting up run at Sat Dec 24 08:10:31 2022

Memory usage per processor = 964.609 Mbytes
    Step    Atoms         KinEng            CPU 
10185155     2301      1.0858167              0 
10493796     2190      2.6668314      3936.7593 
Loop time of 3936.76 on 40 procs for 308641 steps with 2190 atoms, finish time Sat Dec 24 09:16:08 2022


Pair  time (%) = 0.830659 (0.0211001)
Neigh time (%) = 184.305 (4.68163)
Comm  time (%) = 220.624 (5.6042)
Outpt time (%) = 0.000616754 (1.56665e-05)
Other time (%) = 3531 (89.6931)

Nlocal:    54.75 ave 579 max 0 min
Histogram: 32 0 4 2 0 0 0 0 1 1
Nghost:    6.25 ave 68 max 0 min
Histogram: 34 2 0 1 0 0 1 0 0 2
Neighs:    1.225 ave 18 max 0 min
Histogram: 35 2 0 1 0 0 0 0 0 2

Total # of neighbors = 49
Ave neighs/atom = 0.0223744
Neighbor list builds = 67175
Dangerous builds = 9344
Setting up run at Sat Dec 24 09:16:08 2022

Memory usage per processor = 964.609 Mbytes
    Step    Atoms         KinEng            CPU 
10493796     2190      2.6668314              0 
10802437     2087     0.80127268      3864.3286 
Loop time of 3864.33 on 40 procs for 308641 steps with 2087 atoms, finish time Sat Dec 24 10:20:33 2022


Pair  time (%) = 0.81604 (0.0211172)
Neigh time (%) = 171.179 (4.42971)
Comm  time (%) = 199.903 (5.17302)
Outpt time (%) = 0.000619919 (1.60421e-05)
Other time (%) = 3492.43 (90.3761)

Nlocal:    52.175 ave 545 max 0 min
Histogram: 31 2 3 2 0 0 0 0 1 1
Nghost:    6.675 ave 73 max 0 min
Histogram: 36 0 0 0 1 0 1 0 1 1
Neighs:    1.225 ave 16 max 0 min
Histogram: 34 2 0 1 0 1 1 0 0 1

Total # of neighbors = 49
Ave neighs/atom = 0.0234787
Neighbor list builds = 62380
Dangerous builds = 5716
Setting up run at Sat Dec 24 10:20:33 2022

Memory usage per processor = 964.609 Mbytes
    Step    Atoms         KinEng            CPU 
10802437     2087     0.80127268              0 
11111078     2004     0.92803141      3770.9926 
Loop time of 3770.99 on 40 procs for 308641 steps with 2004 atoms, finish time Sat Dec 24 11:23:24 2022


Pair  time (%) = 0.801537 (0.0212553)
Neigh time (%) = 148.593 (3.94043)
Comm  time (%) = 173.247 (4.59421)
Outpt time (%) = 0.00044711 (1.18565e-05)
Other time (%) = 3448.35 (91.4441)

Nlocal:    50.1 ave 490 max 0 min
Histogram: 30 2 4 2 0 0 0 0 0 2
Nghost:    6.325 ave 73 max 0 min
Histogram: 36 0 0 0 0 2 0 1 0 1
Neighs:    1.475 ave 18 max 0 min
Histogram: 33 2 1 1 0 1 0 0 1 1

Total # of neighbors = 59
Ave neighs/atom = 0.0294411
Neighbor list builds = 54184
Dangerous builds = 3811
Setting up run at Sat Dec 24 11:23:24 2022

Memory usage per processor = 964.609 Mbytes
    Step    Atoms         KinEng            CPU 
11111078     2004     0.92803141              0 
11419719     1905      1.0022934      3960.2993 
Loop time of 3960.3 on 40 procs for 308641 steps with 1905 atoms, finish time Sat Dec 24 12:29:24 2022


Pair  time (%) = 0.825564 (0.020846)
Neigh time (%) = 192.1 (4.85065)
Comm  time (%) = 205.779 (5.19605)
Outpt time (%) = 0.000589213 (1.4878e-05)
Other time (%) = 3561.59 (89.9324)

Nlocal:    47.625 ave 467 max 0 min
Histogram: 30 2 3 3 0 0 0 0 0 2
Nghost:    5.6 ave 59 max 0 min
Histogram: 35 1 0 0 0 0 1 1 1 1
Neighs:    0.875 ave 8 max 0 min
Histogram: 32 0 2 2 0 1 0 1 1 1

Total # of neighbors = 35
Ave neighs/atom = 0.0183727
Neighbor list builds = 70088
Dangerous builds = 12610
Setting up run at Sat Dec 24 12:29:24 2022

Memory usage per processor = 964.609 Mbytes
    Step    Atoms         KinEng            CPU 
11419719     1905      1.0022934              0 
11728360     1814     0.91875041      3851.6454 
Loop time of 3851.65 on 40 procs for 308641 steps with 1814 atoms, finish time Sat Dec 24 13:33:36 2022


Pair  time (%) = 0.798968 (0.0207436)
Neigh time (%) = 171.269 (4.44664)
Comm  time (%) = 176.456 (4.58133)
Outpt time (%) = 0.00050233 (1.3042e-05)
Other time (%) = 3503.12 (90.9513)

Nlocal:    45.35 ave 438 max 0 min
Histogram: 30 2 4 1 1 0 0 0 0 2
Nghost:    5.475 ave 56 max 0 min
Histogram: 33 3 0 0 0 1 1 0 1 1
Neighs:    1.35 ave 13 max 0 min
Histogram: 33 0 2 1 0 1 0 1 1 1

Total # of neighbors = 54
Ave neighs/atom = 0.0297685
Neighbor list builds = 62492
Dangerous builds = 9971
Setting up run at Sat Dec 24 13:33:36 2022

Memory usage per processor = 964.609 Mbytes
    Step    Atoms         KinEng            CPU 
11728360     1814     0.91875041              0 
12037001     1733      1.0367094      3865.7214 
Loop time of 3865.72 on 40 procs for 308641 steps with 1733 atoms, finish time Sat Dec 24 14:38:02 2022


Pair  time (%) = 0.79018 (0.0204407)
Neigh time (%) = 170.213 (4.40314)
Comm  time (%) = 185.676 (4.80315)
Outpt time (%) = 0.000517863 (1.33963e-05)
Other time (%) = 3509.04 (90.7733)

Nlocal:    43.325 ave 417 max 0 min
Histogram: 31 1 4 2 0 0 0 0 0 2
Nghost:    5.4 ave 63 max 0 min
Histogram: 36 0 0 0 1 1 0 0 1 1
Neighs:    1.2 ave 13 max 0 min
Histogram: 32 1 2 2 0 1 0 0 1 1

Total # of neighbors = 48
Ave neighs/atom = 0.0276976
Neighbor list builds = 62099
Dangerous builds = 7528
Setting up run at Sat Dec 24 14:38:02 2022

Memory usage per processor = 964.609 Mbytes
    Step    Atoms         KinEng            CPU 
12037001     1733      1.0367094              0 
12345642     1652     0.78701836      3951.9539 
Loop time of 3951.95 on 40 procs for 308641 steps with 1652 atoms, finish time Sat Dec 24 15:43:54 2022


Pair  time (%) = 0.775897 (0.0196333)
Neigh time (%) = 155.409 (3.93246)
Comm  time (%) = 164.484 (4.1621)
Outpt time (%) = 0.000447357 (1.13199e-05)
Other time (%) = 3631.28 (91.8858)

Nlocal:    41.3 ave 395 max 0 min
Histogram: 31 1 2 4 0 0 0 0 0 2
Nghost:    5.3 ave 63 max 0 min
Histogram: 36 0 0 0 1 1 0 0 0 2
Neighs:    0.9 ave 9 max 0 min
Histogram: 32 1 2 0 1 1 1 1 0 1

Total # of neighbors = 36
Ave neighs/atom = 0.0217918
Neighbor list builds = 56770
Dangerous builds = 8058
Setting up run at Sat Dec 24 15:43:54 2022

Memory usage per processor = 964.609 Mbytes
    Step    Atoms         KinEng            CPU 
12345642     1652     0.78701836              0 
12654283     1575      0.7649698      4328.5018 
Loop time of 4328.5 on 40 procs for 308641 steps with 1575 atoms, finish time Sat Dec 24 16:56:02 2022


Pair  time (%) = 0.791312 (0.0182814)
Neigh time (%) = 193.034 (4.4596)
Comm  time (%) = 198.44 (4.58449)
Outpt time (%) = 0.000542083 (1.25236e-05)
Other time (%) = 3936.24 (90.9376)

Nlocal:    39.375 ave 395 max 0 min
Histogram: 32 1 3 2 0 0 0 0 0 2
Nghost:    5.25 ave 65 max 0 min
Histogram: 36 0 0 0 1 1 0 1 0 1
Neighs:    0.75 ave 9 max 0 min
Histogram: 32 2 2 0 2 0 0 1 0 1

Total # of neighbors = 30
Ave neighs/atom = 0.0190476
Neighbor list builds = 70630
Dangerous builds = 11693
Setting up run at Sat Dec 24 16:56:03 2022

Memory usage per processor = 964.609 Mbytes
    Step    Atoms         KinEng            CPU 
12654283     1575      0.7649698              0 
12962924     1515     0.74510185      3855.1455 
Loop time of 3855.15 on 40 procs for 308641 steps with 1515 atoms, finish time Sat Dec 24 18:00:18 2022


Pair  time (%) = 0.757396 (0.0196464)
Neigh time (%) = 154.712 (4.01312)
Comm  time (%) = 159.967 (4.14944)
Outpt time (%) = 0.000563254 (1.46104e-05)
Other time (%) = 3539.71 (91.8178)

Nlocal:    37.875 ave 376 max 0 min
Histogram: 32 0 3 3 0 0 0 0 0 2
Nghost:    4.95 ave 64 max 0 min
Histogram: 36 0 0 1 0 1 0 1 0 1
Neighs:    0.925 ave 10 max 0 min
Histogram: 32 1 1 0 2 2 1 0 0 1

Total # of neighbors = 37
Ave neighs/atom = 0.0244224
Neighbor list builds = 56527
Dangerous builds = 5470
Setting up run at Sat Dec 24 18:00:18 2022

Memory usage per processor = 964.609 Mbytes
    Step    Atoms         KinEng            CPU 
12962924     1515     0.74510185              0 
13271565     1457      1.0063325      3977.1955 
Loop time of 3977.2 on 40 procs for 308641 steps with 1457 atoms, finish time Sat Dec 24 19:06:35 2022


Pair  time (%) = 0.745035 (0.0187327)
Neigh time (%) = 149.328 (3.7546)
Comm  time (%) = 159.109 (4.00054)
Outpt time (%) = 0.000495134 (1.24493e-05)
Other time (%) = 3668.01 (92.2261)

Nlocal:    36.425 ave 364 max 0 min
Histogram: 32 0 4 2 0 0 0 0 0 2
Nghost:    4.575 ave 46 max 0 min
Histogram: 32 4 0 0 0 1 1 0 0 2
Neighs:    0.7 ave 9 max 0 min
Histogram: 33 0 2 2 1 1 0 0 0 1

Total # of neighbors = 28
Ave neighs/atom = 0.0192176
Neighbor list builds = 54602
Dangerous builds = 6052
Setting up run at Sat Dec 24 19:06:35 2022

Memory usage per processor = 964.609 Mbytes
    Step    Atoms         KinEng            CPU 
13271565     1457      1.0063325              0 
13580206     1396     0.86566291      3807.9381 
Loop time of 3807.94 on 40 procs for 308641 steps with 1396 atoms, finish time Sat Dec 24 20:10:03 2022


Pair  time (%) = 0.754258 (0.0198075)
Neigh time (%) = 144.55 (3.79602)
Comm  time (%) = 128.798 (3.38237)
Outpt time (%) = 0.00052703 (1.38403e-05)
Other time (%) = 3533.84 (92.8018)

Nlocal:    34.9 ave 351 max 0 min
Histogram: 32 1 2 3 0 0 0 0 0 2
Nghost:    4.225 ave 46 max 0 min
Histogram: 35 1 0 1 0 0 0 1 1 1
Neighs:    0.575 ave 12 max 0 min
Histogram: 35 2 2 0 0 0 0 0 0 1

Total # of neighbors = 23
Ave neighs/atom = 0.0164756
Neighbor list builds = 52781
Dangerous builds = 6941
Setting up run at Sat Dec 24 20:10:03 2022

Memory usage per processor = 964.609 Mbytes
    Step    Atoms         KinEng            CPU 
13580206     1396     0.86566291              0 
13888847     1346     0.78529732      3900.2622 
Loop time of 3900.26 on 40 procs for 308641 steps with 1346 atoms, finish time Sat Dec 24 21:15:03 2022


Pair  time (%) = 0.74165 (0.0190154)
Neigh time (%) = 143.126 (3.66964)
Comm  time (%) = 137.787 (3.53276)
Outpt time (%) = 0.000557718 (1.42995e-05)
Other time (%) = 3618.61 (92.7786)

Nlocal:    33.65 ave 342 max 0 min
Histogram: 31 1 5 1 0 0 0 0 0 2
Nghost:    4.15 ave 49 max 0 min
Histogram: 35 1 0 1 0 1 0 0 1 1
Neighs:    0.925 ave 15 max 0 min
Histogram: 34 0 4 1 0 0 0 0 0 1

Total # of neighbors = 37
Ave neighs/atom = 0.0274889
Neighbor list builds = 52352
Dangerous builds = 5622
Setting up run at Sat Dec 24 21:15:03 2022

Memory usage per processor = 964.609 Mbytes
    Step    Atoms         KinEng            CPU 
13888847     1346     0.78529732              0 
14197488     1294       1.005441      3917.8667 
Loop time of 3917.87 on 40 procs for 308641 steps with 1294 atoms, finish time Sat Dec 24 22:20:21 2022


Pair  time (%) = 0.752727 (0.0192127)
Neigh time (%) = 162.175 (4.13938)
Comm  time (%) = 144.836 (3.6968)
Outpt time (%) = 0.000733881 (1.87316e-05)
Other time (%) = 3610.1 (92.1446)

Nlocal:    32.35 ave 325 max 0 min
Histogram: 30 3 3 2 0 0 0 0 0 2
Nghost:    3.75 ave 46 max 0 min
Histogram: 33 3 0 2 0 0 0 1 0 1
Neighs:    0.675 ave 9 max 0 min
Histogram: 32 2 1 2 2 0 0 0 0 1

Total # of neighbors = 27
Ave neighs/atom = 0.0208655
Neighbor list builds = 59338
Dangerous builds = 6543
Setting up run at Sat Dec 24 22:20:21 2022

Memory usage per processor = 964.609 Mbytes
    Step    Atoms         KinEng            CPU 
14197488     1294       1.005441              0 
14506129     1235     0.63527945      3722.5181 
Loop time of 3722.52 on 40 procs for 308641 steps with 1235 atoms, finish time Sat Dec 24 23:22:24 2022


Pair  time (%) = 0.723317 (0.0194308)
Neigh time (%) = 136.606 (3.66973)
Comm  time (%) = 135.612 (3.64302)
Outpt time (%) = 0.00605162 (0.000162568)
Other time (%) = 3449.57 (92.6677)

Nlocal:    30.875 ave 309 max 0 min
Histogram: 30 3 2 3 0 0 0 0 0 2
Nghost:    3.825 ave 47 max 0 min
Histogram: 32 4 0 2 0 0 0 1 0 1
Neighs:    0.4 ave 4 max 0 min
Histogram: 34 0 1 0 0 1 0 3 0 1

Total # of neighbors = 16
Ave neighs/atom = 0.0129555
Neighbor list builds = 49946
Dangerous builds = 4267
Setting up run at Sat Dec 24 23:22:24 2022

Memory usage per processor = 964.609 Mbytes
    Step    Atoms         KinEng            CPU 
14506129     1235     0.63527945              0 
14814770     1176     0.76252185      3695.8843 
Loop time of 3695.88 on 40 procs for 308641 steps with 1176 atoms, finish time Sun Dec 25 00:24:00 2022


Pair  time (%) = 0.759458 (0.0205487)
Neigh time (%) = 131.608 (3.56094)
Comm  time (%) = 122.412 (3.31211)
Outpt time (%) = 0.000579848 (1.5689e-05)
Other time (%) = 3441.1 (93.1064)

Nlocal:    29.4 ave 296 max 0 min
Histogram: 31 3 2 2 0 0 0 0 0 2
Nghost:    3.525 ave 51 max 0 min
Histogram: 35 1 0 2 0 1 0 0 0 1
Neighs:    0.5 ave 12 max 0 min
Histogram: 37 1 0 0 0 1 0 0 0 1

Total # of neighbors = 20
Ave neighs/atom = 0.0170068
Neighbor list builds = 48149
Dangerous builds = 4881
Setting up run at Sun Dec 25 00:24:00 2022

Memory usage per processor = 964.609 Mbytes
    Step    Atoms         KinEng            CPU 
14814770     1176     0.76252185              0 
15123411     1137     0.72884915      3536.2374 
Loop time of 3536.24 on 40 procs for 308641 steps with 1137 atoms, finish time Sun Dec 25 01:22:56 2022


Pair  time (%) = 0.683143 (0.0193184)
Neigh time (%) = 100.632 (2.84573)
Comm  time (%) = 86.5085 (2.44634)
Outpt time (%) = 0.000515809 (1.45864e-05)
Other time (%) = 3348.41 (94.6886)

Nlocal:    28.425 ave 292 max 0 min
Histogram: 31 1 4 2 0 0 0 0 0 2
Nghost:    3.275 ave 42 max 0 min
Histogram: 35 1 0 1 0 2 0 0 0 1
Neighs:    0.375 ave 9 max 0 min
Histogram: 35 3 0 1 0 0 0 0 0 1

Total # of neighbors = 15
Ave neighs/atom = 0.0131926
Neighbor list builds = 36822
Dangerous builds = 1095
Setting up run at Sun Dec 25 01:22:56 2022

Memory usage per processor = 964.609 Mbytes
    Step    Atoms         KinEng            CPU 
15123411     1137     0.72884915              0 
15432052     1085     0.56153969       3847.478 
Loop time of 3847.48 on 40 procs for 308641 steps with 1085 atoms, finish time Sun Dec 25 02:27:04 2022


Pair  time (%) = 0.712255 (0.0185123)
Neigh time (%) = 166.749 (4.33398)
Comm  time (%) = 143.67 (3.73414)
Outpt time (%) = 0.000530814 (1.37964e-05)
Other time (%) = 3536.35 (91.9133)

Nlocal:    27.125 ave 278 max 0 min
Histogram: 30 3 4 0 1 0 0 0 0 2
Nghost:    3.2 ave 47 max 0 min
Histogram: 36 0 1 0 1 1 0 0 0 1
Neighs:    0.4 ave 5 max 0 min
Histogram: 33 0 2 0 3 0 1 0 0 1

Total # of neighbors = 16
Ave neighs/atom = 0.0147465
Neighbor list builds = 61068
Dangerous builds = 5937
Setting up run at Sun Dec 25 02:27:04 2022

Memory usage per processor = 964.609 Mbytes
    Step    Atoms         KinEng            CPU 
15432052     1085     0.56153969              0 
15740693     1048     0.67881202      3691.5646 
Loop time of 3691.56 on 40 procs for 308641 steps with 1048 atoms, finish time Sun Dec 25 03:28:36 2022


Pair  time (%) = 0.693416 (0.0187838)
Neigh time (%) = 136.553 (3.69906)
Comm  time (%) = 115.284 (3.12289)
Outpt time (%) = 0.000558765 (1.51363e-05)
Other time (%) = 3439.03 (93.1592)

Nlocal:    26.2 ave 273 max 0 min
Histogram: 30 4 3 0 1 0 0 0 0 2
Nghost:    3.05 ave 48 max 0 min
Histogram: 35 1 0 2 1 0 0 0 0 1
Neighs:    0.225 ave 4 max 0 min
Histogram: 35 0 3 0 0 1 0 0 0 1

Total # of neighbors = 9
Ave neighs/atom = 0.00858779
Neighbor list builds = 50005
Dangerous builds = 3774
Setting up run at Sun Dec 25 03:28:36 2022

Memory usage per processor = 964.609 Mbytes
    Step    Atoms         KinEng            CPU 
15740693     1048     0.67881202              0 
16049334     1008     0.64237873      3578.4576 
Loop time of 3578.46 on 40 procs for 308641 steps with 1008 atoms, finish time Sun Dec 25 04:28:14 2022


Pair  time (%) = 0.679427 (0.0189866)
Neigh time (%) = 111.048 (3.10322)
Comm  time (%) = 83.9046 (2.34471)
Outpt time (%) = 0.000502856 (1.40523e-05)
Other time (%) = 3382.83 (94.5331)

Nlocal:    25.2 ave 268 max 0 min
Histogram: 31 3 3 1 0 0 0 0 0 2
Nghost:    3.225 ave 46 max 0 min
Histogram: 36 0 0 1 1 1 0 0 0 1
Neighs:    0.175 ave 3 max 0 min
Histogram: 37 0 0 1 0 0 0 0 0 2

Total # of neighbors = 7
Ave neighs/atom = 0.00694444
Neighbor list builds = 40669
Dangerous builds = 4180
Setting up run at Sun Dec 25 04:28:14 2022

Memory usage per processor = 964.609 Mbytes
    Step    Atoms         KinEng            CPU 
16049334     1008     0.64237873              0 
16357975      978     0.53048843      3557.6896 
Loop time of 3557.69 on 40 procs for 308641 steps with 978 atoms, finish time Sun Dec 25 05:27:32 2022


Pair  time (%) = 0.66809 (0.0187788)
Neigh time (%) = 106.892 (3.00454)
Comm  time (%) = 90.8493 (2.5536)
Outpt time (%) = 0.000756832 (2.12731e-05)
Other time (%) = 3359.28 (94.4231)

Nlocal:    24.45 ave 259 max 0 min
Histogram: 32 2 2 2 0 0 0 0 0 2
Nghost:    3.175 ave 45 max 0 min
Histogram: 35 1 1 1 0 0 0 1 0 1
Neighs:    0.325 ave 7 max 0 min
Histogram: 36 1 1 0 1 0 0 0 0 1

Total # of neighbors = 13
Ave neighs/atom = 0.0132924
Neighbor list builds = 39147
Dangerous builds = 1323
Setting up run at Sun Dec 25 05:27:32 2022

Memory usage per processor = 964.609 Mbytes
    Step    Atoms         KinEng            CPU 
16357975      978     0.53048843              0 
16666616      943     0.49095632      3661.5798 
Loop time of 3661.58 on 40 procs for 308641 steps with 943 atoms, finish time Sun Dec 25 06:28:34 2022


Pair  time (%) = 0.684837 (0.0187033)
Neigh time (%) = 129.474 (3.53601)
Comm  time (%) = 112.013 (3.05914)
Outpt time (%) = 0.000250721 (6.84735e-06)
Other time (%) = 3419.41 (93.3861)

Nlocal:    23.575 ave 252 max 0 min
Histogram: 30 4 2 2 0 0 0 0 0 2
Nghost:    2.875 ave 42 max 0 min
Histogram: 36 0 1 1 0 0 0 0 1 1
Neighs:    0.575 ave 11 max 0 min
Histogram: 36 0 2 0 1 0 0 0 0 1

Total # of neighbors = 23
Ave neighs/atom = 0.0243902
Neighbor list builds = 47503
Dangerous builds = 2356
Setting up run at Sun Dec 25 06:28:34 2022

Memory usage per processor = 964.609 Mbytes
    Step    Atoms         KinEng            CPU 
16666616      943     0.49095632              0 
16975257      905     0.49660326      3634.9347 
Loop time of 3634.94 on 40 procs for 308641 steps with 905 atoms, finish time Sun Dec 25 07:29:09 2022


Pair  time (%) = 0.678514 (0.0186665)
Neigh time (%) = 126.156 (3.47066)
Comm  time (%) = 97.6953 (2.68768)
Outpt time (%) = 0.000547973 (1.50752e-05)
Other time (%) = 3410.4 (93.823)

Nlocal:    22.625 ave 253 max 0 min
Histogram: 32 2 3 1 0 0 0 0 0 2
Nghost:    2.925 ave 42 max 0 min
Histogram: 35 1 2 0 0 0 0 0 1 1
Neighs:    0.4 ave 8 max 0 min
Histogram: 34 3 1 1 0 0 0 0 0 1

Total # of neighbors = 16
Ave neighs/atom = 0.0176796
Neighbor list builds = 46262
Dangerous builds = 1874
Setting up run at Sun Dec 25 07:29:09 2022

Memory usage per processor = 964.609 Mbytes
    Step    Atoms         KinEng            CPU 
16975257      905     0.49660326              0 
17283898      881     0.51878236      3618.0602 
Loop time of 3618.06 on 40 procs for 308641 steps with 881 atoms, finish time Sun Dec 25 08:29:27 2022


Pair  time (%) = 0.675257 (0.0186635)
Neigh time (%) = 116.344 (3.21565)
Comm  time (%) = 82.0596 (2.26806)
Outpt time (%) = 0.000534808 (1.47816e-05)
Other time (%) = 3418.98 (94.4976)

Nlocal:    22.025 ave 243 max 0 min
Histogram: 31 4 2 1 0 0 0 0 0 2
Nghost:    2.675 ave 34 max 0 min
Histogram: 33 3 1 1 0 0 0 0 1 1
Neighs:    0.35 ave 7 max 0 min
Histogram: 35 2 1 0 1 0 0 0 0 1

Total # of neighbors = 14
Ave neighs/atom = 0.015891
Neighbor list builds = 42679
Dangerous builds = 4154
Setting up run at Sun Dec 25 08:29:27 2022

Memory usage per processor = 964.609 Mbytes
    Step    Atoms         KinEng            CPU 
17283898      881     0.51878236              0 
17592539      845     0.92010972      3645.0814 
Loop time of 3645.08 on 40 procs for 308641 steps with 845 atoms, finish time Sun Dec 25 09:30:12 2022


Pair  time (%) = 0.697779 (0.019143)
Neigh time (%) = 126.151 (3.46086)
Comm  time (%) = 95.686 (2.62507)
Outpt time (%) = 0.000520172 (1.42705e-05)
Other time (%) = 3422.55 (93.8949)

Nlocal:    21.125 ave 232 max 0 min
Histogram: 30 4 3 1 0 0 0 0 0 2
Nghost:    2.6 ave 35 max 0 min
Histogram: 35 1 1 1 0 0 0 0 0 2
Neighs:    0.25 ave 5 max 0 min
Histogram: 36 0 1 0 2 0 0 0 0 1

Total # of neighbors = 10
Ave neighs/atom = 0.0118343
Neighbor list builds = 46317
Dangerous builds = 5116
Setting up run at Sun Dec 25 09:30:12 2022

Memory usage per processor = 964.609 Mbytes
    Step    Atoms         KinEng            CPU 
17592539      845     0.92010972              0 
17901180      818     0.40936085      3511.1974 
Loop time of 3511.2 on 40 procs for 308641 steps with 818 atoms, finish time Sun Dec 25 10:28:43 2022


Pair  time (%) = 0.657016 (0.018712)
Neigh time (%) = 97.8102 (2.78566)
Comm  time (%) = 61.0086 (1.73754)
Outpt time (%) = 0.00625302 (0.000178088)
Other time (%) = 3351.72 (95.4579)

Nlocal:    20.45 ave 227 max 0 min
Histogram: 30 4 3 1 0 0 0 0 0 2
Nghost:    2.45 ave 32 max 0 min
Histogram: 36 0 0 1 0 1 0 1 0 1
Neighs:    0.225 ave 4 max 0 min
Histogram: 35 0 3 0 0 1 0 0 0 1

Total # of neighbors = 9
Ave neighs/atom = 0.0110024
Neighbor list builds = 35869
Dangerous builds = 2460
Setting up run at Sun Dec 25 10:28:43 2022

Memory usage per processor = 964.609 Mbytes
    Step    Atoms         KinEng            CPU 
17901180      818     0.40936085              0 
18209821      799      0.4092281      3535.5914 
Loop time of 3535.59 on 40 procs for 308641 steps with 799 atoms, finish time Sun Dec 25 11:27:39 2022


Pair  time (%) = 0.65375 (0.0184905)
Neigh time (%) = 100.07 (2.83036)
Comm  time (%) = 59.9184 (1.69472)
Outpt time (%) = 0.000559715 (1.58309e-05)
Other time (%) = 3374.95 (95.4564)

Nlocal:    19.975 ave 226 max 0 min
Histogram: 31 4 2 1 0 0 0 0 0 2
Nghost:    2.125 ave 33 max 0 min
Histogram: 35 2 0 1 0 0 1 0 0 1
Neighs:    0.225 ave 2 max 0 min
Histogram: 33 0 0 0 0 5 0 0 0 2

Total # of neighbors = 9
Ave neighs/atom = 0.0112641
Neighbor list builds = 36665
Dangerous builds = 2997
Setting up run at Sun Dec 25 11:27:39 2022

Memory usage per processor = 964.609 Mbytes
    Step    Atoms         KinEng            CPU 
18209821      799      0.4092281              0 
18518462      767     0.36424711       3718.319 
Loop time of 3718.32 on 40 procs for 308641 steps with 767 atoms, finish time Sun Dec 25 12:29:37 2022


Pair  time (%) = 0.68856 (0.018518)
Neigh time (%) = 143.003 (3.84591)
Comm  time (%) = 108.07 (2.90641)
Outpt time (%) = 0.0061478 (0.000165338)
Other time (%) = 3466.55 (93.229)

Nlocal:    19.175 ave 219 max 0 min
Histogram: 32 4 1 1 0 0 0 0 0 2
Nghost:    2.425 ave 29 max 0 min
Histogram: 35 0 2 0 1 0 0 0 0 2
Neighs:    0.125 ave 2 max 0 min
Histogram: 37 0 0 0 0 1 0 0 0 2

Total # of neighbors = 5
Ave neighs/atom = 0.0065189
Neighbor list builds = 52641
Dangerous builds = 20559
Setting up run at Sun Dec 25 12:29:37 2022

Memory usage per processor = 964.609 Mbytes
    Step    Atoms         KinEng            CPU 
18518462      767     0.36424711              0 
18827103      746     0.37107864      3530.1501 
Loop time of 3530.15 on 40 procs for 308641 steps with 746 atoms, finish time Sun Dec 25 13:28:27 2022


Pair  time (%) = 0.643806 (0.0182374)
Neigh time (%) = 100.15 (2.83699)
Comm  time (%) = 83.3159 (2.36012)
Outpt time (%) = 0.000566356 (1.60434e-05)
Other time (%) = 3346.04 (94.7846)

Nlocal:    18.65 ave 213 max 0 min
Histogram: 33 3 1 1 0 0 0 0 0 2
Nghost:    2.3 ave 31 max 0 min
Histogram: 35 1 1 1 0 0 0 0 1 1
Neighs:    0.225 ave 4 max 0 min
Histogram: 35 0 3 0 0 1 0 0 0 1

Total # of neighbors = 9
Ave neighs/atom = 0.0120643
Neighbor list builds = 36786
Dangerous builds = 1479
Setting up run at Sun Dec 25 13:28:28 2022

Memory usage per processor = 964.609 Mbytes
    Step    Atoms         KinEng            CPU 
18827103      746     0.37107864              0 
19135744      730       1.129618      3497.7971 
Loop time of 3497.8 on 40 procs for 308641 steps with 730 atoms, finish time Sun Dec 25 14:26:45 2022


Pair  time (%) = 0.641936 (0.0183526)
Neigh time (%) = 89.1115 (2.54765)
Comm  time (%) = 61.2494 (1.75108)
Outpt time (%) = 0.00627915 (0.000179517)
Other time (%) = 3346.79 (95.6827)

Nlocal:    18.25 ave 211 max 0 min
Histogram: 32 4 1 1 0 0 0 0 0 2
Nghost:    2.325 ave 32 max 0 min
Histogram: 34 3 0 1 0 0 0 0 1 1
Neighs:    0.225 ave 4 max 0 min
Histogram: 36 0 2 0 0 0 0 1 0 1

Total # of neighbors = 9
Ave neighs/atom = 0.0123288
Neighbor list builds = 32705
Dangerous builds = 828
Setting up run at Sun Dec 25 14:26:45 2022

Memory usage per processor = 964.609 Mbytes
    Step    Atoms         KinEng            CPU 
19135744      730       1.129618              0 
19444385      711     0.37048499      3571.6636 
Loop time of 3571.66 on 40 procs for 308641 steps with 711 atoms, finish time Sun Dec 25 15:26:17 2022


Pair  time (%) = 0.642732 (0.0179953)
Neigh time (%) = 90.3563 (2.52981)
Comm  time (%) = 55.505 (1.55404)
Outpt time (%) = 0.000549633 (1.53887e-05)
Other time (%) = 3425.16 (95.8981)

Nlocal:    17.775 ave 212 max 0 min
Histogram: 33 3 2 0 0 0 0 0 1 1
Nghost:    2.025 ave 27 max 0 min
Histogram: 34 3 1 0 0 0 0 0 1 1
Neighs:    0.15 ave 3 max 0 min
Histogram: 38 0 0 0 0 0 0 0 0 2

Total # of neighbors = 6
Ave neighs/atom = 0.00843882
Neighbor list builds = 33172
Dangerous builds = 1499
Setting up run at Sun Dec 25 15:26:17 2022

Memory usage per processor = 964.609 Mbytes
    Step    Atoms         KinEng            CPU 
19444385      711     0.37048499              0 
19753026      687      0.3527352       3729.832 
Loop time of 3729.83 on 40 procs for 308641 steps with 687 atoms, finish time Sun Dec 25 16:28:27 2022


Pair  time (%) = 0.677976 (0.0181771)
Neigh time (%) = 133.423 (3.57718)
Comm  time (%) = 63.976 (1.71525)
Outpt time (%) = 0.00623445 (0.000167151)
Other time (%) = 3531.75 (94.6892)

Nlocal:    17.175 ave 207 max 0 min
Histogram: 32 4 1 1 0 0 0 0 0 2
Nghost:    1.875 ave 27 max 0 min
Histogram: 35 2 1 0 0 0 0 1 0 1
Neighs:    0.175 ave 3 max 0 min
Histogram: 37 0 0 1 0 0 0 0 0 2

Total # of neighbors = 7
Ave neighs/atom = 0.0101892
Neighbor list builds = 49099
Dangerous builds = 2962
Setting up run at Sun Dec 25 16:28:27 2022

Memory usage per processor = 964.609 Mbytes
    Step    Atoms         KinEng            CPU 
19753026      687      0.3527352              0 
20061667      664     0.42408457      3965.5068 
Loop time of 3965.51 on 40 procs for 308641 steps with 664 atoms, finish time Sun Dec 25 17:34:33 2022


Pair  time (%) = 0.651215 (0.016422)
Neigh time (%) = 113.974 (2.87414)
Comm  time (%) = 74.1779 (1.87058)
Outpt time (%) = 0.000476575 (1.2018e-05)
Other time (%) = 3776.7 (95.2388)

Nlocal:    16.6 ave 205 max 0 min
Histogram: 33 3 1 1 0 0 0 0 0 2
Nghost:    1.425 ave 20 max 0 min
Histogram: 33 3 1 1 0 0 0 0 1 1
Neighs:    0.15 ave 4 max 0 min
Histogram: 38 0 0 0 0 1 0 0 0 1

Total # of neighbors = 6
Ave neighs/atom = 0.00903614
Neighbor list builds = 41901
Dangerous builds = 408
Setting up run at Sun Dec 25 17:34:33 2022

Memory usage per processor = 964.609 Mbytes
    Step    Atoms         KinEng            CPU 
20061667      664     0.42408457              0 
20370308      651     0.49615313      3786.6848 
Loop time of 3786.69 on 40 procs for 308641 steps with 651 atoms, finish time Sun Dec 25 18:37:40 2022


Pair  time (%) = 0.652795 (0.0172392)
Neigh time (%) = 108.438 (2.86366)
Comm  time (%) = 71.6486 (1.89212)
Outpt time (%) = 0.000541426 (1.42981e-05)
Other time (%) = 3605.95 (95.227)

Nlocal:    16.275 ave 193 max 0 min
Histogram: 31 5 2 0 0 0 0 0 0 2
Nghost:    1.725 ave 22 max 0 min
Histogram: 34 2 1 1 0 0 0 1 0 1
Neighs:    0.05 ave 2 max 0 min
Histogram: 39 0 0 0 0 0 0 0 0 1

Total # of neighbors = 2
Ave neighs/atom = 0.0030722
Neighbor list builds = 39826
Dangerous builds = 345
Setting up run at Sun Dec 25 18:37:40 2022

Memory usage per processor = 964.609 Mbytes
    Step    Atoms         KinEng            CPU 
20370308      651     0.49615313              0 
20678949      646     0.46722123        3722.26 
Loop time of 3722.26 on 40 procs for 308641 steps with 646 atoms, finish time Sun Dec 25 19:39:42 2022


Pair  time (%) = 0.656286 (0.0176314)
Neigh time (%) = 105.144 (2.82473)
Comm  time (%) = 46.3642 (1.24559)
Outpt time (%) = 0.000541013 (1.45345e-05)
Other time (%) = 3570.1 (95.912)

Nlocal:    16.15 ave 192 max 0 min
Histogram: 33 3 2 0 0 0 0 0 0 2
Nghost:    1.5 ave 20 max 0 min
Histogram: 34 2 1 0 1 0 0 1 0 1
Neighs:    0.15 ave 3 max 0 min
Histogram: 36 0 0 3 0 0 0 0 0 1

Total # of neighbors = 6
Ave neighs/atom = 0.00928793
Neighbor list builds = 38630
Dangerous builds = 1552
Setting up run at Sun Dec 25 19:39:42 2022

Memory usage per processor = 964.609 Mbytes
    Step    Atoms         KinEng            CPU 
20678949      646     0.46722123              0 
20987590      623      0.4048809      3911.8946 
Loop time of 3911.91 on 40 procs for 308641 steps with 623 atoms, finish time Sun Dec 25 20:44:54 2022


Pair  time (%) = 0.673845 (0.0172255)
Neigh time (%) = 158.554 (4.05311)
Comm  time (%) = 80.9485 (2.06928)
Outpt time (%) = 0.00061299 (1.56698e-05)
Other time (%) = 3671.73 (93.8604)

Nlocal:    15.575 ave 190 max 0 min
Histogram: 31 5 2 0 0 0 0 0 0 2
Nghost:    1.55 ave 23 max 0 min
Histogram: 34 3 0 1 0 0 0 1 0 1
Neighs:    0.125 ave 2 max 0 min
Histogram: 37 0 0 0 0 1 0 0 0 2

Total # of neighbors = 5
Ave neighs/atom = 0.00802568
Neighbor list builds = 58222
Dangerous builds = 2172
Setting up run at Sun Dec 25 20:44:54 2022

Memory usage per processor = 964.609 Mbytes
    Step    Atoms         KinEng            CPU 
20987590      623      0.4048809              0 
21296231      608     0.37205014       3606.194 
Loop time of 3606.19 on 40 procs for 308641 steps with 608 atoms, finish time Sun Dec 25 21:45:00 2022


Pair  time (%) = 0.651063 (0.018054)
Neigh time (%) = 116.63 (3.23417)
Comm  time (%) = 51.9234 (1.43984)
Outpt time (%) = 0.000531698 (1.4744e-05)
Other time (%) = 3436.99 (95.3079)

Nlocal:    15.2 ave 190 max 0 min
Histogram: 32 4 2 0 0 0 0 0 0 2
Nghost:    1.65 ave 31 max 0 min
Histogram: 36 2 0 0 0 1 0 0 0 1
Neighs:    0.1 ave 2 max 0 min
Histogram: 37 0 0 0 0 2 0 0 0 1

Total # of neighbors = 4
Ave neighs/atom = 0.00657895
Neighbor list builds = 42867
Dangerous builds = 1576
Setting up run at Sun Dec 25 21:45:00 2022

Memory usage per processor = 964.609 Mbytes
    Step    Atoms         KinEng            CPU 
21296231      608     0.37205014              0 
21604872      592     0.31232515      3424.5474 
Loop time of 3424.55 on 40 procs for 308641 steps with 592 atoms, finish time Sun Dec 25 22:42:05 2022


Pair  time (%) = 0.62901 (0.0183677)
Neigh time (%) = 80.9772 (2.36461)
Comm  time (%) = 42.483 (1.24054)
Outpt time (%) = 0.000220616 (6.4422e-06)
Other time (%) = 3300.46 (96.3765)

Nlocal:    14.8 ave 183 max 0 min
Histogram: 33 3 2 0 0 0 0 0 0 2
Nghost:    1.4 ave 22 max 0 min
Histogram: 36 0 1 1 0 0 1 0 0 1
Neighs:    0.15 ave 4 max 0 min
Histogram: 37 0 2 0 0 0 0 0 0 1

Total # of neighbors = 6
Ave neighs/atom = 0.0101351
Neighbor list builds = 29763
Dangerous builds = 874
Setting up run at Sun Dec 25 22:42:05 2022

Memory usage per processor = 964.609 Mbytes
    Step    Atoms         KinEng            CPU 
21604872      592     0.31232515              0 
21913513      572     0.27614304      3430.2636 
Loop time of 3430.26 on 40 procs for 308641 steps with 572 atoms, finish time Sun Dec 25 23:39:15 2022


Pair  time (%) = 0.631526 (0.0184104)
Neigh time (%) = 79.2487 (2.31028)
Comm  time (%) = 36.4566 (1.06279)
Outpt time (%) = 0.000498994 (1.45468e-05)
Other time (%) = 3313.93 (96.6085)

Nlocal:    14.3 ave 182 max 0 min
Histogram: 34 2 2 0 0 0 0 0 0 2
Nghost:    1.7 ave 18 max 0 min
Histogram: 31 4 1 1 0 1 0 0 0 2
Neighs:    0.175 ave 4 max 0 min
Histogram: 37 0 1 0 0 1 0 0 0 1

Total # of neighbors = 7
Ave neighs/atom = 0.0122378
Neighbor list builds = 29142
Dangerous builds = 1206
Setting up run at Sun Dec 25 23:39:15 2022

Memory usage per processor = 964.609 Mbytes
    Step    Atoms         KinEng            CPU 
21913513      572     0.27614304              0 
22222154      562     0.34246797      3441.8958 
Loop time of 3441.9 on 40 procs for 308641 steps with 562 atoms, finish time Mon Dec 26 00:36:37 2022


Pair  time (%) = 0.624332 (0.0181392)
Neigh time (%) = 81.0525 (2.35488)
Comm  time (%) = 48.5142 (1.40952)
Outpt time (%) = 0.000644652 (1.87296e-05)
Other time (%) = 3311.7 (96.2174)

Nlocal:    14.05 ave 177 max 0 min
Histogram: 34 2 2 0 0 0 0 0 0 2
Nghost:    2.025 ave 26 max 0 min
Histogram: 33 3 0 2 0 0 1 0 0 1
Neighs:    0.2 ave 3 max 0 min
Histogram: 37 0 0 0 0 0 1 0 0 2

Total # of neighbors = 8
Ave neighs/atom = 0.0142349
Neighbor list builds = 29811
Dangerous builds = 1273
Setting up run at Mon Dec 26 00:36:37 2022

Memory usage per processor = 964.609 Mbytes
    Step    Atoms         KinEng            CPU 
22222154      562     0.34246797              0 
22530795      546     0.31232042      3398.8855 
Loop time of 3398.89 on 40 procs for 308641 steps with 546 atoms, finish time Mon Dec 26 01:33:16 2022


Pair  time (%) = 0.614327 (0.0180744)
Neigh time (%) = 74.876 (2.20296)
Comm  time (%) = 39.8156 (1.17143)
Outpt time (%) = 0.000532654 (1.56714e-05)
Other time (%) = 3283.58 (96.6075)

Nlocal:    13.65 ave 171 max 0 min
Histogram: 34 2 2 0 0 0 0 0 0 2
Nghost:    1.7 ave 26 max 0 min
Histogram: 35 0 1 2 0 0 1 0 0 1
Neighs:    0.1 ave 2 max 0 min
Histogram: 37 0 0 0 0 2 0 0 0 1

Total # of neighbors = 4
Ave neighs/atom = 0.00732601
Neighbor list builds = 27531
Dangerous builds = 285
Setting up run at Mon Dec 26 01:33:16 2022

Memory usage per processor = 964.609 Mbytes
    Step    Atoms         KinEng            CPU 
22530795      546     0.31232042              0 
22839436      540     0.29019841      3468.4894 
Loop time of 3468.49 on 40 procs for 308641 steps with 540 atoms, finish time Mon Dec 26 02:31:05 2022


Pair  time (%) = 0.62598 (0.0180476)
Neigh time (%) = 87.4408 (2.521)
Comm  time (%) = 50.0568 (1.44319)
Outpt time (%) = 0.000544653 (1.57029e-05)
Other time (%) = 3330.37 (96.0177)

Nlocal:    13.5 ave 168 max 0 min
Histogram: 32 4 2 0 0 0 0 0 0 2
Nghost:    1.925 ave 25 max 0 min
Histogram: 35 0 1 1 0 1 0 1 0 1
Neighs:    0.125 ave 3 max 0 min
Histogram: 38 0 0 0 0 0 1 0 0 1

Total # of neighbors = 5
Ave neighs/atom = 0.00925926
Neighbor list builds = 32164
Dangerous builds = 1370
Setting up run at Mon Dec 26 02:31:05 2022

Memory usage per processor = 964.609 Mbytes
    Step    Atoms         KinEng            CPU 
22839436      540     0.29019841              0 
23148077      530     0.28305722        3485.87 
Loop time of 3485.87 on 40 procs for 308641 steps with 530 atoms, finish time Mon Dec 26 03:29:11 2022


Pair  time (%) = 0.625792 (0.0179523)
Neigh time (%) = 93.8625 (2.69266)
Comm  time (%) = 52.7875 (1.51433)
Outpt time (%) = 0.000553643 (1.58825e-05)
Other time (%) = 3338.59 (95.775)

Nlocal:    13.25 ave 163 max 0 min
Histogram: 32 4 2 0 0 0 0 0 0 2
Nghost:    1.8 ave 24 max 0 min
Histogram: 35 1 0 2 0 0 0 1 0 1
Neighs:    0.075 ave 2 max 0 min
Histogram: 38 0 0 0 0 1 0 0 0 1

Total # of neighbors = 3
Ave neighs/atom = 0.00566038
Neighbor list builds = 34528
Dangerous builds = 351
Setting up run at Mon Dec 26 03:29:11 2022

Memory usage per processor = 964.609 Mbytes
    Step    Atoms         KinEng            CPU 
23148077      530     0.28305722              0 
23456718      519     0.24920005      3489.1782 
Loop time of 3489.18 on 40 procs for 308641 steps with 519 atoms, finish time Mon Dec 26 04:27:20 2022


Pair  time (%) = 0.627534 (0.0179852)
Neigh time (%) = 93.9634 (2.69299)
Comm  time (%) = 45.6477 (1.30827)
Outpt time (%) = 0.000523875 (1.50143e-05)
Other time (%) = 3348.94 (95.9807)

Nlocal:    12.975 ave 166 max 0 min
Histogram: 32 4 2 0 0 0 0 0 0 2
Nghost:    1.5 ave 17 max 0 min
Histogram: 34 1 1 1 1 0 0 0 0 2
Neighs:    0.1 ave 1 max 0 min
Histogram: 36 0 0 0 0 0 0 0 0 4

Total # of neighbors = 4
Ave neighs/atom = 0.00770713
Neighbor list builds = 34578
Dangerous builds = 2770
Setting up run at Mon Dec 26 04:27:20 2022

Memory usage per processor = 964.609 Mbytes
    Step    Atoms         KinEng            CPU 
23456718      519     0.24920005              0 
23765359      509     0.25085571      3662.8367 
Loop time of 3662.84 on 40 procs for 308641 steps with 509 atoms, finish time Mon Dec 26 05:28:23 2022


Pair  time (%) = 0.641678 (0.0175186)
Neigh time (%) = 133.538 (3.64576)
Comm  time (%) = 79.098 (2.15947)
Outpt time (%) = 0.000516993 (1.41146e-05)
Other time (%) = 3449.56 (94.1772)

Nlocal:    12.725 ave 163 max 0 min
Histogram: 34 2 2 0 0 0 0 0 0 2
Nghost:    1.575 ave 15 max 0 min
Histogram: 32 1 3 0 1 0 1 0 1 1
Neighs:    0.125 ave 4 max 0 min
Histogram: 38 0 1 0 0 0 0 0 0 1

Total # of neighbors = 5
Ave neighs/atom = 0.00982318
Neighbor list builds = 49137
Dangerous builds = 1894
Setting up run at Mon Dec 26 05:28:23 2022

Memory usage per processor = 964.609 Mbytes
    Step    Atoms         KinEng            CPU 
23765359      509     0.25085571              0 
24074000      499     0.25433395      3599.5127 
Loop time of 3599.51 on 40 procs for 308641 steps with 499 atoms, finish time Mon Dec 26 06:28:22 2022


Pair  time (%) = 0.632088 (0.0175604)
Neigh time (%) = 117.423 (3.26218)
Comm  time (%) = 55.8121 (1.55055)
Outpt time (%) = 0.0006885 (1.91276e-05)
Other time (%) = 3425.65 (95.1697)

Nlocal:    12.475 ave 156 max 0 min
Histogram: 32 5 1 0 0 0 0 0 0 2
Nghost:    1.475 ave 18 max 0 min
Histogram: 33 2 1 2 0 0 1 0 0 1
Neighs:    0.075 ave 1 max 0 min
Histogram: 37 0 0 0 0 0 0 0 0 3

Total # of neighbors = 3
Ave neighs/atom = 0.00601202
Neighbor list builds = 43178
Dangerous builds = 1192
Setting up run at Mon Dec 26 06:28:23 2022

Memory usage per processor = 964.609 Mbytes
    Step    Atoms         KinEng            CPU 
24074000      499     0.25433395              0 
24382641      481     0.27441886      3567.6965 
Loop time of 3567.7 on 40 procs for 308641 steps with 481 atoms, finish time Mon Dec 26 07:27:50 2022


Pair  time (%) = 0.627997 (0.0176023)
Neigh time (%) = 112.261 (3.14659)
Comm  time (%) = 51.5322 (1.44441)
Outpt time (%) = 0.000216735 (6.07493e-06)
Other time (%) = 3403.28 (95.3914)

Nlocal:    12.025 ave 154 max 0 min
Histogram: 33 3 2 0 0 0 0 0 0 2
Nghost:    1.225 ave 15 max 0 min
Histogram: 34 0 2 0 2 0 1 0 0 1
Neighs:    0.05 ave 1 max 0 min
Histogram: 38 0 0 0 0 0 0 0 0 2

Total # of neighbors = 2
Ave neighs/atom = 0.004158
Neighbor list builds = 41235
Dangerous builds = 2828
Setting up run at Mon Dec 26 07:27:50 2022

Memory usage per processor = 964.609 Mbytes
    Step    Atoms         KinEng            CPU 
24382641      481     0.27441886              0 
24691282      470     0.29080009      3570.2861 
Loop time of 3570.29 on 40 procs for 308641 steps with 470 atoms, finish time Mon Dec 26 08:27:21 2022


Pair  time (%) = 0.627125 (0.0175651)
Neigh time (%) = 111.559 (3.12466)
Comm  time (%) = 59.383 (1.66326)
Outpt time (%) = 0.000560899 (1.57102e-05)
Other time (%) = 3398.72 (95.1945)

Nlocal:    11.75 ave 152 max 0 min
Histogram: 34 3 1 0 0 0 0 0 0 2
Nghost:    1.55 ave 16 max 0 min
Histogram: 32 1 2 2 1 0 0 0 1 1
Neighs:    0.075 ave 2 max 0 min
Histogram: 38 0 0 0 0 1 0 0 0 1

Total # of neighbors = 3
Ave neighs/atom = 0.00638298
Neighbor list builds = 41033
Dangerous builds = 371
Setting up run at Mon Dec 26 08:27:21 2022

Memory usage per processor = 964.609 Mbytes
    Step    Atoms         KinEng            CPU 
24691282      470     0.29080009              0 
24999923      465     0.29606965      3534.4044 
Loop time of 3534.4 on 40 procs for 308641 steps with 465 atoms, finish time Mon Dec 26 09:26:15 2022


Pair  time (%) = 0.679864 (0.0192356)
Neigh time (%) = 103.728 (2.93481)
Comm  time (%) = 51.0497 (1.44436)
Outpt time (%) = 0.0467053 (0.00132145)
Other time (%) = 3378.9 (95.6003)

Nlocal:    11.625 ave 152 max 0 min
Histogram: 34 3 1 0 0 0 0 0 0 2
Nghost:    1.225 ave 19 max 0 min
Histogram: 35 1 0 2 0 1 0 0 0 1
Neighs:    0.1 ave 2 max 0 min
Histogram: 37 0 0 0 0 2 0 0 0 1

Total # of neighbors = 4
Ave neighs/atom = 0.00860215
Neighbor list builds = 38099
Dangerous builds = 250
Setting up run at Mon Dec 26 09:26:16 2022

Memory usage per processor = 964.609 Mbytes
    Step    Atoms         KinEng            CPU 
24999923      465     0.29606965              0 
25308564      456     0.44318224      3632.2633 
Loop time of 3632.26 on 40 procs for 308641 steps with 456 atoms, finish time Mon Dec 26 10:26:48 2022


Pair  time (%) = 0.629293 (0.0173251)
Neigh time (%) = 124.545 (3.42886)
Comm  time (%) = 62.7802 (1.7284)
Outpt time (%) = 0.000561807 (1.54671e-05)
Other time (%) = 3444.31 (94.8254)

Nlocal:    11.4 ave 152 max 0 min
Histogram: 34 3 1 0 0 0 0 0 0 2
Nghost:    1.25 ave 17 max 0 min
Histogram: 34 2 0 0 2 1 0 0 0 1
Neighs:    0.05 ave 1 max 0 min
Histogram: 38 0 0 0 0 0 0 0 0 2

Total # of neighbors = 2
Ave neighs/atom = 0.00438596
Neighbor list builds = 45849
Dangerous builds = 1426
Setting up run at Mon Dec 26 10:26:48 2022

Memory usage per processor = 964.609 Mbytes
    Step    Atoms         KinEng            CPU 
25308564      456     0.44318224              0 
25617205      440     0.24815821      3780.6044 
Loop time of 3780.6 on 40 procs for 308641 steps with 440 atoms, finish time Mon Dec 26 11:29:49 2022


Pair  time (%) = 0.653632 (0.0172891)
Neigh time (%) = 159.305 (4.21374)
Comm  time (%) = 63.069 (1.66823)
Outpt time (%) = 0.000449883 (1.18998e-05)
Other time (%) = 3557.58 (94.1007)

Nlocal:    11 ave 151 max 0 min
Histogram: 33 5 0 0 0 0 0 0 0 2
Nghost:    1.375 ave 17 max 0 min
Histogram: 32 4 1 0 1 0 0 0 1 1
Neighs:    0.075 ave 1 max 0 min
Histogram: 37 0 0 0 0 0 0 0 0 3

Total # of neighbors = 3
Ave neighs/atom = 0.00681818
Neighbor list builds = 58661
Dangerous builds = 2271
Setting up run at Mon Dec 26 11:29:49 2022

Memory usage per processor = 964.609 Mbytes
    Step    Atoms         KinEng            CPU 
25617205      440     0.24815821              0 
25925846      429      0.4392594      3762.3595 
Loop time of 3762.36 on 40 procs for 308641 steps with 429 atoms, finish time Mon Dec 26 12:32:31 2022


Pair  time (%) = 0.650984 (0.0173026)
Neigh time (%) = 154.833 (4.1153)
Comm  time (%) = 52.3305 (1.3909)
Outpt time (%) = 0.00053125 (1.41201e-05)
Other time (%) = 3554.55 (94.4765)

Nlocal:    10.725 ave 152 max 0 min
Histogram: 34 4 0 0 0 0 0 0 1 1
Nghost:    1.225 ave 16 max 0 min
Histogram: 35 0 2 0 0 0 2 0 0 1
Neighs:    0.075 ave 2 max 0 min
Histogram: 38 0 0 0 0 1 0 0 0 1

Total # of neighbors = 3
Ave neighs/atom = 0.00699301
Neighbor list builds = 57013
Dangerous builds = 3094
Setting up run at Mon Dec 26 12:32:31 2022

Memory usage per processor = 964.609 Mbytes
    Step    Atoms         KinEng            CPU 
25925846      429      0.4392594              0 
26234487      421     0.21316903      3618.8488 
Loop time of 3618.85 on 40 procs for 308641 steps with 421 atoms, finish time Mon Dec 26 13:32:50 2022


Pair  time (%) = 0.624819 (0.0172657)
Neigh time (%) = 122.341 (3.38067)
Comm  time (%) = 58.8875 (1.62724)
Outpt time (%) = 0.000536606 (1.48281e-05)
Other time (%) = 3436.99 (94.9748)

Nlocal:    10.525 ave 147 max 0 min
Histogram: 35 2 1 0 0 0 0 0 1 1
Nghost:    1.425 ave 15 max 0 min
Histogram: 32 3 2 0 0 0 0 1 0 2
Neighs:    0.05 ave 1 max 0 min
Histogram: 38 0 0 0 0 0 0 0 0 2

Total # of neighbors = 2
Ave neighs/atom = 0.00475059
Neighbor list builds = 45036
Dangerous builds = 533
Setting up run at Mon Dec 26 13:32:51 2022

Memory usage per processor = 964.609 Mbytes
    Step    Atoms         KinEng            CPU 
26234487      421     0.21316903              0 
26543128      418      0.1852557      3570.9913 
Loop time of 3570.99 on 40 procs for 308641 steps with 418 atoms, finish time Mon Dec 26 14:32:22 2022


Pair  time (%) = 0.617498 (0.0172921)
Neigh time (%) = 111.238 (3.11503)
Comm  time (%) = 48.5249 (1.35886)
Outpt time (%) = 0.000508549 (1.42411e-05)
Other time (%) = 3410.61 (95.5088)

Nlocal:    10.45 ave 146 max 0 min
Histogram: 35 2 1 0 0 0 0 0 1 1
Nghost:    1.35 ave 16 max 0 min
Histogram: 32 5 0 0 0 1 0 0 0 2
Neighs:    0 ave 0 max 0 min
Histogram: 40 0 0 0 0 0 0 0 0 0

Total # of neighbors = 0
Ave neighs/atom = 0
Neighbor list builds = 40896
Dangerous builds = 87
Setting up run at Mon Dec 26 14:32:22 2022

Memory usage per processor = 964.609 Mbytes
    Step    Atoms         KinEng            CPU 
26543128      418      0.1852557              0 
26851769      409     0.18142381      3577.9717 
Loop time of 3577.97 on 40 procs for 308641 steps with 409 atoms, finish time Mon Dec 26 15:32:00 2022


Pair  time (%) = 0.618042 (0.0172735)
Neigh time (%) = 111.902 (3.12751)
Comm  time (%) = 61.1238 (1.70834)
Outpt time (%) = 0.00631302 (0.000176441)
Other time (%) = 3404.32 (95.1467)

Nlocal:    10.225 ave 140 max 0 min
Histogram: 35 2 1 0 0 0 0 0 0 2
Nghost:    1.075 ave 13 max 0 min
Histogram: 33 4 0 0 0 1 0 0 0 2
Neighs:    0.05 ave 2 max 0 min
Histogram: 39 0 0 0 0 0 0 0 0 1

Total # of neighbors = 2
Ave neighs/atom = 0.00488998
Neighbor list builds = 41148
Dangerous builds = 130
Setting up run at Mon Dec 26 15:32:00 2022

Memory usage per processor = 964.609 Mbytes
    Step    Atoms         KinEng            CPU 
26851769      409     0.18142381              0 
27160410      402      0.1728738      3551.8883 
Loop time of 3551.89 on 40 procs for 308641 steps with 402 atoms, finish time Mon Dec 26 16:31:12 2022


Pair  time (%) = 0.622268 (0.0175193)
Neigh time (%) = 107.607 (3.02957)
Comm  time (%) = 38.9959 (1.09789)
Outpt time (%) = 0.000575335 (1.6198e-05)
Other time (%) = 3404.66 (95.855)

Nlocal:    10.05 ave 139 max 0 min
Histogram: 36 0 2 0 0 0 0 0 0 2
Nghost:    1.275 ave 15 max 0 min
Histogram: 33 2 2 0 1 0 0 0 0 2
Neighs:    0.025 ave 1 max 0 min
Histogram: 39 0 0 0 0 0 0 0 0 1

Total # of neighbors = 1
Ave neighs/atom = 0.00248756
Neighbor list builds = 39563
Dangerous builds = 824
Setting up run at Mon Dec 26 16:31:12 2022

Memory usage per processor = 964.609 Mbytes
    Step    Atoms         KinEng            CPU 
27160410      402      0.1728738              0 
27469051      400     0.11745843      3550.9646 
Loop time of 3550.97 on 40 procs for 308641 steps with 400 atoms, finish time Mon Dec 26 17:30:23 2022


Pair  time (%) = 0.616431 (0.0173595)
Neigh time (%) = 105.897 (2.98219)
Comm  time (%) = 53.2828 (1.50051)
Outpt time (%) = 0.000557427 (1.56979e-05)
Other time (%) = 3391.17 (95.4999)

Nlocal:    10 ave 136 max 0 min
Histogram: 35 3 0 0 0 0 0 0 0 2
Nghost:    1.3 ave 15 max 0 min
Histogram: 33 2 1 1 1 0 0 0 0 2
Neighs:    0.075 ave 2 max 0 min
Histogram: 38 0 0 0 0 1 0 0 0 1

Total # of neighbors = 3
Ave neighs/atom = 0.0075
Neighbor list builds = 38934
Dangerous builds = 2
Setting up run at Mon Dec 26 17:30:23 2022

Memory usage per processor = 964.609 Mbytes
    Step    Atoms         KinEng            CPU 
27469051      400     0.11745843              0 
27777692      393      0.1638168      3494.1225 
Loop time of 3494.12 on 40 procs for 308641 steps with 393 atoms, finish time Mon Dec 26 18:28:37 2022


Pair  time (%) = 0.615646 (0.0176195)
Neigh time (%) = 94.9382 (2.71708)
Comm  time (%) = 40.4386 (1.15733)
Outpt time (%) = 0.00627123 (0.000179479)
Other time (%) = 3358.12 (96.1078)

Nlocal:    9.825 ave 134 max 0 min
Histogram: 36 1 1 0 0 0 0 0 0 2
Nghost:    1.075 ave 15 max 0 min
Histogram: 35 1 0 2 0 0 0 0 0 2
Neighs:    0.025 ave 1 max 0 min
Histogram: 39 0 0 0 0 0 0 0 0 1

Total # of neighbors = 1
Ave neighs/atom = 0.00254453
Neighbor list builds = 34942
Dangerous builds = 3043
Setting up run at Mon Dec 26 18:28:37 2022

Memory usage per processor = 964.609 Mbytes
    Step    Atoms         KinEng            CPU 
27777692      393      0.1638168              0 
28086333      382     0.22295117      3521.2881 
Loop time of 3521.29 on 40 procs for 308641 steps with 382 atoms, finish time Mon Dec 26 19:27:19 2022


Pair  time (%) = 0.618962 (0.0175777)
Neigh time (%) = 99.335 (2.82098)
Comm  time (%) = 30.5147 (0.866578)
Outpt time (%) = 0.0005641 (1.60197e-05)
Other time (%) = 3390.82 (96.2948)

Nlocal:    9.55 ave 133 max 0 min
[...]
Neighbor list builds = 20253
Dangerous builds = 0
Setting up run at Tue Dec 27 18:32:43 2022

Memory usage per processor = 964.609 Mbytes
    Step    Atoms         KinEng            CPU 
35493813      282     0.12986687              0 
35802454      281     0.16833006       3518.957 
Loop time of 3518.96 on 40 procs for 308641 steps with 281 atoms, finish time Tue Dec 27 19:31:22 2022


Pair  time (%) = 0.615825 (0.0175002)
Neigh time (%) = 98.6806 (2.80426)
Comm  time (%) = 37.2135 (1.05751)
Outpt time (%) = 0.000540326 (1.53547e-05)
Other time (%) = 3382.45 (96.1207)

Nlocal:    7.025 ave 103 max 0 min
Histogram: 36 1 1 0 0 0 0 0 0 2
Nghost:    1 ave 18 max 0 min
Histogram: 36 0 1 1 0 0 1 0 0 1
Neighs:    0.05 ave 1 max 0 min
Histogram: 38 0 0 0 0 0 0 0 0 2

Total # of neighbors = 2
Ave neighs/atom = 0.00711744
Neighbor list builds = 36438
Dangerous builds = 0
Setting up run at Tue Dec 27 19:31:22 2022

Memory usage per processor = 964.609 Mbytes
    Step    Atoms         KinEng            CPU 
35802454      281     0.16833006              0 
36111095      274     0.16944779      3669.4118 
Loop time of 3669.42 on 40 procs for 308641 steps with 274 atoms, finish time Tue Dec 27 20:32:31 2022


Pair  time (%) = 0.615156 (0.0167644)
Neigh time (%) = 110.828 (3.02031)
Comm  time (%) = 47.9362 (1.30637)
Outpt time (%) = 0.023579 (0.000642582)
Other time (%) = 3510.02 (95.6559)

Nlocal:    6.85 ave 106 max 0 min
Histogram: 36 1 1 0 0 0 0 0 0 2
Nghost:    1.125 ave 19 max 0 min
Histogram: 35 1 2 0 0 0 1 0 0 1
Neighs:    0.075 ave 3 max 0 min
Histogram: 39 0 0 0 0 0 0 0 0 1

Total # of neighbors = 3
Ave neighs/atom = 0.0109489
Neighbor list builds = 40894
Dangerous builds = 223
Setting up run at Tue Dec 27 20:32:31 2022

Memory usage per processor = 964.609 Mbytes
    Step    Atoms         KinEng            CPU 
36111095      274     0.16944779              0 
36419736      267     0.13468597      3675.8118 
Loop time of 3675.81 on 40 procs for 308641 steps with 267 atoms, finish time Tue Dec 27 21:33:47 2022


Pair  time (%) = 0.633309 (0.0172291)
Neigh time (%) = 135.331 (3.68166)
Comm  time (%) = 39.436 (1.07285)
Outpt time (%) = 0.000549872 (1.49592e-05)
Other time (%) = 3500.41 (95.2282)

Nlocal:    6.675 ave 109 max 0 min
Histogram: 36 1 1 0 0 0 0 0 1 1
Nghost:    0.85 ave 16 max 0 min
Histogram: 36 1 1 0 0 0 1 0 0 1
Neighs:    0.025 ave 1 max 0 min
Histogram: 39 0 0 0 0 0 0 0 0 1

Total # of neighbors = 1
Ave neighs/atom = 0.00374532
Neighbor list builds = 49963
Dangerous builds = 739
Setting up run at Tue Dec 27 21:33:47 2022

Memory usage per processor = 964.609 Mbytes
    Step    Atoms         KinEng            CPU 
36419736      267     0.13468597              0 
36728377      264     0.12384625      3515.9106 
Loop time of 3515.91 on 40 procs for 308641 steps with 264 atoms, finish time Tue Dec 27 22:32:23 2022


Pair  time (%) = 0.611617 (0.0173957)
Neigh time (%) = 98.2493 (2.79442)
Comm  time (%) = 28.6252 (0.814161)
Outpt time (%) = 0.000537173 (1.52783e-05)
Other time (%) = 3388.42 (96.374)

Nlocal:    6.6 ave 110 max 0 min
Histogram: 36 2 0 0 0 0 0 0 1 1
Nghost:    0.8 ave 12 max 0 min
Histogram: 36 0 1 1 0 0 0 0 0 2
Neighs:    0.025 ave 1 max 0 min
Histogram: 39 0 0 0 0 0 0 0 0 1

Total # of neighbors = 1
Ave neighs/atom = 0.00378788
Neighbor list builds = 36212
Dangerous builds = 500
Setting up run at Tue Dec 27 22:32:23 2022

Memory usage per processor = 964.609 Mbytes
    Step    Atoms         KinEng            CPU 
36728377      264     0.12384625              0 
37037018      263     0.10089382      3543.4771 
Loop time of 3543.48 on 40 procs for 308641 steps with 263 atoms, finish time Tue Dec 27 23:31:27 2022


Pair  time (%) = 0.616297 (0.0173924)
Neigh time (%) = 104.175 (2.93991)
Comm  time (%) = 23.7065 (0.669017)
Outpt time (%) = 0.000228441 (6.44681e-06)
Other time (%) = 3414.98 (96.3737)

Nlocal:    6.575 ave 110 max 0 min
Histogram: 35 3 0 0 0 0 0 1 0 1
Nghost:    0.8 ave 12 max 0 min
Histogram: 36 0 0 1 1 0 0 0 1 1
Neighs:    0.025 ave 1 max 0 min
Histogram: 39 0 0 0 0 0 0 0 0 1

Total # of neighbors = 1
Ave neighs/atom = 0.00380228
Neighbor list builds = 38372
Dangerous builds = 0
Setting up run at Tue Dec 27 23:31:27 2022

Memory usage per processor = 964.609 Mbytes
    Step    Atoms         KinEng            CPU 
37037018      263     0.10089382              0 
37345659      257    0.093174398      3545.7167 
Loop time of 3545.72 on 40 procs for 308641 steps with 257 atoms, finish time Wed Dec 28 00:30:33 2022


Pair  time (%) = 0.616088 (0.0173755)
Neigh time (%) = 104.387 (2.94402)
Comm  time (%) = 29.7439 (0.838869)
Outpt time (%) = 0.00055235 (1.5578e-05)
Other time (%) = 3410.97 (96.1997)

Nlocal:    6.425 ave 107 max 0 min
Histogram: 36 2 0 0 0 0 0 0 1 1
Nghost:    0.8 ave 14 max 0 min
Histogram: 36 0 1 1 0 0 0 1 0 1
Neighs:    0.025 ave 1 max 0 min
Histogram: 39 0 0 0 0 0 0 0 0 1

Total # of neighbors = 1
Ave neighs/atom = 0.00389105
Neighbor list builds = 38460
Dangerous builds = 2
Setting up run at Wed Dec 28 00:30:33 2022

Memory usage per processor = 964.609 Mbytes
    Step    Atoms         KinEng            CPU 
37345659      257    0.093174398              0 
37654300      257     0.11042258      3379.0945 
Loop time of 3379.09 on 40 procs for 308641 steps with 257 atoms, finish time Wed Dec 28 01:26:52 2022


Pair  time (%) = 0.671531 (0.0198731)
Neigh time (%) = 68.6733 (2.0323)
Comm  time (%) = 19.0952 (0.565097)
Outpt time (%) = 0.0521591 (0.00154358)
Other time (%) = 3290.6 (97.3812)

Nlocal:    6.425 ave 106 max 0 min
Histogram: 37 1 0 0 0 0 0 0 1 1
Nghost:    0.775 ave 12 max 0 min
Histogram: 36 0 1 1 0 0 0 1 0 1
Neighs:    0.025 ave 1 max 0 min
Histogram: 39 0 0 0 0 0 0 0 0 1

Total # of neighbors = 1
Ave neighs/atom = 0.00389105
Neighbor list builds = 25322
Dangerous builds = 0
Setting up run at Wed Dec 28 01:26:53 2022

Memory usage per processor = 964.609 Mbytes
    Step    Atoms         KinEng            CPU 
37654300      257     0.11042258              0 
37962941      257      0.1283529      3332.0194 
Loop time of 3332.02 on 40 procs for 308641 steps with 257 atoms, finish time Wed Dec 28 02:22:25 2022


Pair  time (%) = 0.593613 (0.0178154)
Neigh time (%) = 56.4347 (1.69371)
Comm  time (%) = 18.5111 (0.555552)
Outpt time (%) = 0.000571688 (1.71574e-05)
Other time (%) = 3256.48 (97.7329)

Nlocal:    6.425 ave 105 max 0 min
Histogram: 36 2 0 0 0 0 0 0 1 1
Nghost:    0.7 ave 12 max 0 min
Histogram: 36 0 2 0 0 0 0 1 0 1
Neighs:    0.05 ave 2 max 0 min
Histogram: 39 0 0 0 0 0 0 0 0 1

Total # of neighbors = 2
Ave neighs/atom = 0.0077821
Neighbor list builds = 20820
Dangerous builds = 0
Setting up run at Wed Dec 28 02:22:25 2022

Memory usage per processor = 964.609 Mbytes
    Step    Atoms         KinEng            CPU 
37962941      257      0.1283529              0 
38271582      255     0.13099434      3336.8659 
Loop time of 3336.87 on 40 procs for 308641 steps with 255 atoms, finish time Wed Dec 28 03:18:02 2022


Pair  time (%) = 0.594975 (0.0178304)
Neigh time (%) = 57.5541 (1.7248)
Comm  time (%) = 16.0876 (0.482117)
Outpt time (%) = 0.000478817 (1.43493e-05)
Other time (%) = 3262.63 (97.7752)

Nlocal:    6.375 ave 108 max 0 min
Histogram: 36 2 0 0 0 0 0 1 0 1
Nghost:    0.725 ave 13 max 0 min
Histogram: 36 0 2 0 0 1 0 0 0 1
Neighs:    0.1 ave 2 max 0 min
Histogram: 37 0 0 0 0 2 0 0 0 1

Total # of neighbors = 4
Ave neighs/atom = 0.0156863
Neighbor list builds = 21231
Dangerous builds = 72
Setting up run at Wed Dec 28 03:18:02 2022

Memory usage per processor = 964.609 Mbytes
    Step    Atoms         KinEng            CPU 
38271582      255     0.13099434              0 
38580223      255     0.15827526      3351.8414 
Loop time of 3351.84 on 40 procs for 308641 steps with 255 atoms, finish time Wed Dec 28 04:13:54 2022


Pair  time (%) = 0.591188 (0.0176377)
Neigh time (%) = 61.855 (1.8454)
Comm  time (%) = 25.7675 (0.768755)
Outpt time (%) = 0.000579573 (1.72912e-05)
Other time (%) = 3263.63 (97.3682)

Nlocal:    6.375 ave 112 max 0 min
Histogram: 36 2 0 0 0 0 0 1 0 1
Nghost:    0.7 ave 13 max 0 min
Histogram: 36 0 2 1 0 0 0 0 0 1
Neighs:    0.05 ave 1 max 0 min
Histogram: 38 0 0 0 0 0 0 0 0 2

Total # of neighbors = 2
Ave neighs/atom = 0.00784314
Neighbor list builds = 22823
Dangerous builds = 0
Setting up run at Wed Dec 28 04:13:54 2022

Memory usage per processor = 964.609 Mbytes
    Step    Atoms         KinEng            CPU 
38580223      255     0.15827526              0 
38888864      252     0.13375326      3462.9102 
Loop time of 3462.92 on 40 procs for 308641 steps with 252 atoms, finish time Wed Dec 28 05:11:37 2022


Pair  time (%) = 0.60541 (0.0174826)
Neigh time (%) = 87.9628 (2.54013)
Comm  time (%) = 30.4573 (0.879526)
Outpt time (%) = 0.00984442 (0.000284281)
Other time (%) = 3343.89 (96.5626)

Nlocal:    6.3 ave 109 max 0 min
Histogram: 36 2 0 0 0 0 0 1 0 1
Nghost:    0.7 ave 9 max 0 min
Histogram: 32 4 0 1 0 1 0 1 0 1
Neighs:    0 ave 0 max 0 min
Histogram: 40 0 0 0 0 0 0 0 0 0

Total # of neighbors = 0
Ave neighs/atom = 0
Neighbor list builds = 32438
Dangerous builds = 54
Setting up run at Wed Dec 28 05:11:37 2022

Memory usage per processor = 964.609 Mbytes
    Step    Atoms         KinEng            CPU 
38888864      252     0.13375326              0 
39197505      251     0.10086479      3435.4449 
Loop time of 3435.45 on 40 procs for 308641 steps with 251 atoms, finish time Wed Dec 28 06:08:53 2022


Pair  time (%) = 0.603921 (0.0175791)
Neigh time (%) = 80.374 (2.33955)
Comm  time (%) = 22.2066 (0.646397)
Outpt time (%) = 0.000513452 (1.49457e-05)
Other time (%) = 3332.26 (96.9965)

Nlocal:    6.275 ave 112 max 0 min
Histogram: 37 1 0 0 0 0 1 0 0 1
Nghost:    0.5 ave 6 max 0 min
Histogram: 32 4 0 1 0 1 0 0 1 1
Neighs:    0.1 ave 3 max 0 min
Histogram: 38 0 0 1 0 0 0 0 0 1

Total # of neighbors = 4
Ave neighs/atom = 0.0159363
Neighbor list builds = 29624
Dangerous builds = 2
Setting up run at Wed Dec 28 06:08:53 2022

Memory usage per processor = 964.609 Mbytes
    Step    Atoms         KinEng            CPU 
39197505      251     0.10086479              0 
39506146      248    0.097238752      3378.6206 
Loop time of 3378.62 on 40 procs for 308641 steps with 248 atoms, finish time Wed Dec 28 07:05:11 2022


Pair  time (%) = 0.598915 (0.0177266)
Neigh time (%) = 67.8663 (2.0087)
Comm  time (%) = 20.517 (0.60726)
Outpt time (%) = 0.000228293 (6.75699e-06)
Other time (%) = 3289.64 (97.3663)

Nlocal:    6.2 ave 111 max 0 min
Histogram: 36 2 0 0 0 0 0 1 0 1
Nghost:    0.6 ave 8 max 0 min
Histogram: 32 4 0 2 0 0 0 1 0 1
Neighs:    0.025 ave 1 max 0 min
Histogram: 39 0 0 0 0 0 0 0 0 1

Total # of neighbors = 1
Ave neighs/atom = 0.00403226
Neighbor list builds = 25038
Dangerous builds = 2
Setting up run at Wed Dec 28 07:05:11 2022

Memory usage per processor = 964.609 Mbytes
    Step    Atoms         KinEng            CPU 
39506146      248    0.097238752              0 
39814787      247    0.066786086      3325.3368 
Loop time of 3325.34 on 40 procs for 308641 steps with 247 atoms, finish time Wed Dec 28 08:00:37 2022


Pair  time (%) = 0.591167 (0.0177776)
Neigh time (%) = 56.9264 (1.7119)
Comm  time (%) = 21.0959 (0.634399)
Outpt time (%) = 0.000527209 (1.58543e-05)
Other time (%) = 3246.72 (97.6359)

Nlocal:    6.175 ave 108 max 0 min
Histogram: 36 2 0 0 0 0 0 1 0 1
Nghost:    0.6 ave 8 max 0 min
Histogram: 33 3 0 2 0 0 0 0 1 1
Neighs:    0.025 ave 1 max 0 min
Histogram: 39 0 0 0 0 0 0 0 0 1

Total # of neighbors = 1
Ave neighs/atom = 0.00404858
Neighbor list builds = 20998
Dangerous builds = 322
Setting up run at Wed Dec 28 08:00:37 2022

Memory usage per processor = 964.609 Mbytes
    Step    Atoms         KinEng            CPU 
39814787      247    0.066786086              0 
40123428      242    0.066655639       3332.543 
Loop time of 3332.55 on 40 procs for 308641 steps with 242 atoms, finish time Wed Dec 28 08:56:10 2022


Pair  time (%) = 0.585059 (0.0175559)
Neigh time (%) = 56.2678 (1.68843)
Comm  time (%) = 25.4949 (0.765027)
Outpt time (%) = 0.000523353 (1.57043e-05)
Other time (%) = 3250.2 (97.529)

Nlocal:    6.05 ave 106 max 0 min
Histogram: 36 2 0 0 0 0 0 1 0 1
Nghost:    0.4 ave 5 max 0 min
Histogram: 34 0 2 0 2 0 0 0 0 2
Neighs:    0.025 ave 1 max 0 min
Histogram: 39 0 0 0 0 0 0 0 0 1

Total # of neighbors = 1
Ave neighs/atom = 0.00413223
Neighbor list builds = 20779
Dangerous builds = 71
Setting up run at Wed Dec 28 08:56:10 2022

Memory usage per processor = 964.609 Mbytes
    Step    Atoms         KinEng            CPU 
40123428      242    0.066655639              0 
40432069      238    0.066958903      3317.3479 
Loop time of 3317.35 on 40 procs for 308641 steps with 238 atoms, finish time Wed Dec 28 09:51:27 2022


Pair  time (%) = 0.592601 (0.0178637)
Neigh time (%) = 56.0007 (1.68812)
Comm  time (%) = 15.8846 (0.478833)
Outpt time (%) = 0.000559977 (1.68802e-05)
Other time (%) = 3244.87 (97.8152)

Nlocal:    5.95 ave 108 max 0 min
Histogram: 36 2 0 0 0 0 0 1 0 1
Nghost:    0.5 ave 9 max 0 min
Histogram: 33 3 2 0 1 0 0 0 0 1
Neighs:    0.05 ave 2 max 0 min
Histogram: 39 0 0 0 0 0 0 0 0 1

Total # of neighbors = 2
Ave neighs/atom = 0.00840336
Neighbor list builds = 20686
Dangerous builds = 58
Setting up run at Wed Dec 28 09:51:27 2022

Memory usage per processor = 964.609 Mbytes
    Step    Atoms         KinEng            CPU 
40432069      238    0.066958903              0 
40740710      233     0.06640668      3319.2477 
Loop time of 3319.25 on 40 procs for 308641 steps with 233 atoms, finish time Wed Dec 28 10:46:46 2022


Pair  time (%) = 0.593294 (0.0178744)
Neigh time (%) = 54.7309 (1.64889)
Comm  time (%) = 14.0586 (0.423547)
Outpt time (%) = 0.000587387 (1.76964e-05)
Other time (%) = 3249.86 (97.9097)

Nlocal:    5.825 ave 110 max 0 min
Histogram: 36 2 0 0 0 0 1 0 0 1
Nghost:    0.525 ave 9 max 0 min
Histogram: 33 3 2 0 0 1 0 0 0 1
Neighs:    0 ave 0 max 0 min
Histogram: 40 0 0 0 0 0 0 0 0 0

Total # of neighbors = 0
Ave neighs/atom = 0
Neighbor list builds = 20221
Dangerous builds = 4
Setting up run at Wed Dec 28 10:46:47 2022

Memory usage per processor = 964.609 Mbytes
    Step    Atoms         KinEng            CPU 
40740710      233     0.06640668              0 
41049351      232    0.079194711      3329.4022 
Loop time of 3329.4 on 40 procs for 308641 steps with 232 atoms, finish time Wed Dec 28 11:42:16 2022


Pair  time (%) = 0.589765 (0.0177138)
Neigh time (%) = 46.8186 (1.40622)
Comm  time (%) = 12.8391 (0.385628)
Outpt time (%) = 0.000553435 (1.66227e-05)
Other time (%) = 3269.15 (98.1904)

Nlocal:    5.8 ave 111 max 0 min
Histogram: 37 1 0 0 0 0 1 0 0 1
Nghost:    0.475 ave 7 max 0 min
Histogram: 35 1 1 0 0 1 0 1 0 1
Neighs:    0 ave 0 max 0 min
Histogram: 40 0 0 0 0 0 0 0 0 0

Total # of neighbors = 0
Ave neighs/atom = 0
Neighbor list builds = 17296
Dangerous builds = 1
Setting up run at Wed Dec 28 11:42:16 2022

Memory usage per processor = 964.609 Mbytes
    Step    Atoms         KinEng            CPU 
41049351      232    0.079194711              0 
41357992      231    0.079341249      3287.2439 
Loop time of 3287.24 on 40 procs for 308641 steps with 231 atoms, finish time Wed Dec 28 12:37:03 2022


Pair  time (%) = 0.589455 (0.0179316)
Neigh time (%) = 48.7797 (1.48391)
Comm  time (%) = 14.838 (0.45138)
Outpt time (%) = 0.000198773 (6.04679e-06)
Other time (%) = 3223.04 (98.0468)

Nlocal:    5.775 ave 111 max 0 min
Histogram: 37 1 0 0 0 0 1 0 0 1
Nghost:    0.45 ave 8 max 0 min
Histogram: 34 2 2 0 0 1 0 0 0 1
Neighs:    0 ave 0 max 0 min
Histogram: 40 0 0 0 0 0 0 0 0 0

Total # of neighbors = 0
Ave neighs/atom = 0
Neighbor list builds = 18013
Dangerous builds = 0
Setting up run at Wed Dec 28 12:37:03 2022

Memory usage per processor = 964.609 Mbytes
    Step    Atoms         KinEng            CPU 
41357992      231    0.079341249              0 
41666633      228     0.06412634      3297.5582 
Loop time of 3297.56 on 40 procs for 308641 steps with 228 atoms, finish time Wed Dec 28 13:32:01 2022


Pair  time (%) = 0.592135 (0.0179568)
Neigh time (%) = 47.8621 (1.45144)
Comm  time (%) = 11.1755 (0.338903)
Outpt time (%) = 0.00057707 (1.74999e-05)
Other time (%) = 3237.93 (98.1917)

Nlocal:    5.7 ave 110 max 0 min
Histogram: 37 1 0 0 0 0 1 0 0 1
Nghost:    0.425 ave 6 max 0 min
Histogram: 34 3 0 0 0 1 0 0 1 1
Neighs:    0 ave 0 max 0 min
Histogram: 40 0 0 0 0 0 0 0 0 0

Total # of neighbors = 0
Ave neighs/atom = 0
Neighbor list builds = 17651
Dangerous builds = 46
Setting up run at Wed Dec 28 13:32:01 2022

Memory usage per processor = 964.609 Mbytes
    Step    Atoms         KinEng            CPU 
41666633      228     0.06412634              0 
41975274      225    0.044746054      3545.1915 
Loop time of 3545.19 on 40 procs for 308641 steps with 225 atoms, finish time Wed Dec 28 14:31:06 2022


Pair  time (%) = 0.690987 (0.0194908)
Neigh time (%) = 41.6557 (1.17499)
Comm  time (%) = 12.2567 (0.345728)
Outpt time (%) = 0.049389 (0.00139313)
Other time (%) = 3490.54 (98.4584)

Nlocal:    5.625 ave 110 max 0 min
Histogram: 37 1 0 0 0 0 1 0 0 1
Nghost:    0.35 ave 5 max 0 min
Histogram: 36 0 1 0 0 0 0 0 2 1
Neighs:    0 ave 0 max 0 min
Histogram: 40 0 0 0 0 0 0 0 0 0

Total # of neighbors = 0
Ave neighs/atom = 0
Neighbor list builds = 15318
Dangerous builds = 2
Setting up run at Wed Dec 28 14:31:08 2022

Memory usage per processor = 964.609 Mbytes
    Step    Atoms         KinEng            CPU 
41975274      225    0.044746054              0 
42283915      224    0.045526712      3278.2218 
Loop time of 3278.22 on 40 procs for 308641 steps with 224 atoms, finish time Wed Dec 28 15:25:47 2022


Pair  time (%) = 0.578237 (0.0176387)
Neigh time (%) = 44.4149 (1.35485)
Comm  time (%) = 9.60482 (0.292989)
Outpt time (%) = 0.000540424 (1.64853e-05)
Other time (%) = 3223.62 (98.3345)

Nlocal:    5.6 ave 105 max 0 min
Histogram: 37 1 0 0 0 0 0 1 0 1
Nghost:    0.525 ave 9 max 0 min
Histogram: 33 4 1 0 0 0 1 0 0 1
Neighs:    0 ave 0 max 0 min
Histogram: 40 0 0 0 0 0 0 0 0 0

Total # of neighbors = 0
Ave neighs/atom = 0
Neighbor list builds = 16395
Dangerous builds = 0
Setting up run at Wed Dec 28 15:25:47 2022

Memory usage per processor = 964.609 Mbytes
    Step    Atoms         KinEng            CPU 
42283915      224    0.045526712              0 
42592556      224    0.043578177      3260.0706 
Loop time of 3260.07 on 40 procs for 308641 steps with 224 atoms, finish time Wed Dec 28 16:20:07 2022


Pair  time (%) = 0.575339 (0.017648)
Neigh time (%) = 42.7513 (1.31136)
Comm  time (%) = 11.9356 (0.366116)
Outpt time (%) = 0.000535671 (1.64313e-05)
Other time (%) = 3204.81 (98.3049)

Nlocal:    5.6 ave 105 max 0 min
Histogram: 37 1 0 0 0 0 0 1 0 1
Nghost:    0.45 ave 7 max 0 min
Histogram: 34 3 1 0 0 0 0 0 1 1
Neighs:    0.025 ave 1 max 0 min
Histogram: 39 0 0 0 0 0 0 0 0 1

Total # of neighbors = 1
Ave neighs/atom = 0.00446429
Neighbor list builds = 15783
Dangerous builds = 0
Setting up run at Wed Dec 28 16:20:07 2022

Memory usage per processor = 964.609 Mbytes
    Step    Atoms         KinEng            CPU 
42592556      224    0.043578177              0 
42901197      224    0.048814176      3317.6689 
Loop time of 3317.67 on 40 procs for 308641 steps with 224 atoms, finish time Wed Dec 28 17:15:25 2022


Pair  time (%) = 0.57886 (0.0174478)
Neigh time (%) = 42.808 (1.2903)
Comm  time (%) = 11.5673 (0.348656)
Outpt time (%) = 0.000502644 (1.51505e-05)
Other time (%) = 3262.71 (98.3436)

Nlocal:    5.6 ave 102 max 0 min
Histogram: 36 2 0 0 0 0 0 1 0 1
Nghost:    0.5 ave 7 max 0 min
Histogram: 33 2 3 0 0 0 0 1 0 1
Neighs:    0.05 ave 1 max 0 min
Histogram: 38 0 0 0 0 0 0 0 0 2

slurmstepd: error: *** JOB 14676708 ON r13c28 CANCELLED AT 2022-12-28T21:02:52 DUE TO TIME LIMIT ***
srun: Job step aborted: Waiting up to 62 seconds for job step to finish.
slurmstepd: error: *** STEP 14676708.0 ON r13c28 CANCELLED AT 2022-12-28T21:02:52 DUE TO TIME LIMIT ***
