ITEM: TIMESTEP
11934140
ITEM: NUMBER OF ATOMS
727
ITEM: BOX BOUNDS ff ff ff
-0.15 0.15
-0.15 0.15
-0.15 0.15
ITEM: ATOMS id type x y z radius vx vy vz density 
525 1 -0.00680041 -0.0184242 -0.0684882 0.000175 -32.2258 0.0711151 3.1998 2650 
1130 1 -0.0127446 -0.0541657 -0.0676348 0.000175 -48.4326 -4.62404 9.12604 2650 
416 1 -0.00377584 -0.0508454 -0.0682644 0.000635 -38.3438 4.69284 2.12005 2650 
144 1 -0.0122409 -0.045557 -0.0672664 0.000635 -42.5897 4.35041 7.74707 2650 
1303 1 -0.0122223 -0.0103068 -0.0672735 0.000635 -50.6507 11.3324 9.19841 2650 
275 1 -0.0158657 -0.0304484 -0.0661452 0.000984 -27.1327 -2.78032 6.50423 2650 
1036 1 -0.0178972 -0.0593886 -0.0656247 0.000984 -26.6243 -2.31058 7.25647 2650 
912 1 -0.0181374 -0.0088359 -0.0659225 0.000635 -42.7242 2.84521 11.7497 2650 
1304 1 -0.0245411 -0.0517569 -0.0638085 0.000635 -16.6709 3.1322 6.41084 2650 
931 1 -0.0238895 -0.0404946 -0.064546 0.000175 -41.9924 -6.47985 15.5416 2650 
329 1 -0.0249626 -0.0208263 -0.0641387 0.000175 -43.51 -7.69641 16.9332 2650 
547 1 -0.0222606 -0.0131885 -0.0646413 0.000635 -12.5819 5.76959 4.4032 2650 
243 1 -0.0230463 -0.00109379 -0.064368 0.000635 -33.8707 1.93673 12.1219 2650 
548 1 -0.00523752 -0.00742965 -0.0630358 0.000635 -23.4215 -7.10733 3.02806 2650 
245 1 -0.0324157 -0.0533069 -0.0602017 0.000635 -38.2645 10.1667 20.5956 2650 
91 1 -0.0118914 -0.0617289 -0.0596114 0.000175 -115.543 3.31382 2.46023 2650 
34 1 -0.0350165 -0.0508352 -0.0589696 6.3e-05 -10.2508 1.62631 3.69802 2650 
585 1 -0.0351647 -0.0352022 -0.0575161 0.000635 -22.6656 7.77803 16.0568 2650 
733 1 -0.0377124 -0.00538815 -0.0575196 0.000175 -42.948 -6.97647 25.1815 2650 
1156 1 -0.0389897 -0.00171108 -0.0567162 0.000175 -30.322 1.02684 20.8426 2650 
675 1 -0.0395617 -0.0313083 -0.0557647 0.000635 28.6405 27.4781 -20.3097 2650 
1128 1 -0.0414608 -0.0424763 -0.054937 0.000175 -43.6447 -2.95984 32.9337 2650 
819 1 -0.0411102 -0.0296099 -0.0546381 0.000635 -35.5435 -7.52593 26.7308 2650 
833 1 -0.0435418 -0.0168113 -0.053301 0.000175 -14.2106 -0.471502 11.6081 2650 
611 1 -0.0546976 -0.0442964 -0.0410268 0.000635 -14.0219 1.04083 18.6837 2650 
919 1 -0.0580193 -0.0549707 -0.0370295 0.000175 -38.1619 7.38827 59.7855 2650 
460 1 -0.060948 -0.0288654 -0.0319787 0.000175 -17.892 -11.1914 34.0949 2650 
10 1 -0.0626069 -0.00400628 -0.0274907 0.000635 -7.16168 -1.39978 16.3003 2650 
522 1 -0.0635022 -0.0594659 -0.0253651 0.000635 -11.9992 2.99453 30.0184 2650 
409 1 -0.063086 -0.00431341 -0.0255047 0.000984 -6.9773 -6.26677 18.0322 2650 
1212 1 -0.0528267 -0.0531311 -0.0220722 0.000635 25.1403 28.3979 24.5322 2650 
643 1 -0.0636181 -0.0018215 -0.0226002 0.000635 -7.99866 -3.59006 26.9219 2650 
632 1 -0.0667052 -0.04185 -0.0169658 0.000175 -11.0078 3.23082 43.2734 2650 
575 1 -0.0660367 -0.0107878 -0.0164103 0.000984 -7.17003 -5.09024 28.83 2650 
817 1 -0.00648728 -0.0022617 -0.0138099 0.000635 -0.0241928 -0.0460675 0.0256739 2650 
899 1 -0.0676608 -0.0413936 -0.012626 0.000175 -6.1718 3.47996 33.0688 2650 
668 1 -0.067928 -0.0423016 -0.0110994 0.000175 -5.51617 1.26874 33.7537 2650 
273 1 -0.0665723 -0.00883263 -0.0110387 0.000984 4.54506 -13.0351 19.7507 2650 
521 1 -0.00484642 -0.00362938 -0.0109465 0.000635 -0.136147 -0.548418 -0.0449806 2650 
751 1 -0.00769269 -0.00156311 -0.0113352 0.000635 -0.156896 -0.41275 0.174116 2650 
1176 1 -0.0675859 -0.0344861 -0.01041 0.000635 -5.01982 5.22893 32.5745 2650 
978 1 -0.0681714 -0.0312258 -0.00540775 0.000635 -3.21464 7.05292 40.5051 2650 
156 1 -0.011102 -0.000185841 -0.00541683 0.000175 -0.248251 0.0466949 -0.103524 2650 
320 1 -0.0104005 -0.000507235 -0.00491595 0.000635 -0.26027 -0.0051404 -0.00509704 2650 
116 1 -0.0682283 -0.0613991 -0.0045521 0.000635 -1.25119 -8.42926 18.8696 2650 
232 1 -0.0304939 -0.0199492 -0.00380594 0.000175 7.55429 -10.4177 -1.02829 2650 
859 1 -0.0415834 -0.00521373 -0.00414073 0.000175 -6.09528 -0.252343 -0.591177 2650 
618 1 -0.0155721 -0.00329228 -0.00412268 0.000635 -0.0284321 -0.0365963 0.110616 2650 
534 1 -0.00297941 -0.00250671 -0.0044144 0.000175 -0.0132597 -0.00635732 0.000873181 2650 
684 1 -0.0566725 -0.0159098 -0.00260413 0.000635 -15.4263 -15.7096 50.9314 2650 
549 1 -0.0132995 -0.000582102 -0.00336103 0.000635 -0.0172484 -0.0469079 -0.0139698 2650 
886 1 -0.008763 -0.00078399 -0.001992 0.000175 0 -0.01175 0 2650 
622 1 -0.0102008 -0.0030688 -5.3496e-05 0.000635 0.00801435 -0.0167874 -0.0151706 2650 
976 1 -0.00719263 -0.00171805 -0.000754548 0.000635 -0.0702454 -0.0105579 0.0656738 2650 
1286 1 -0.00975141 -0.0013339 0.000216198 0.000175 -0.00331993 -0.0080972 0.0615309 2650 
625 1 -0.0127726 -0.000910299 4.24904e-05 0.000175 0.023857 -0.0561999 0.0181285 2650 
1050 1 -0.002884 -0.00202691 0.00121586 0.000635 0.0336245 -0.0179964 0.000655725 2650 
219 1 -0.000968784 -6.74729e-05 0.00187804 0.000635 0.0172316 -0.0243015 -0.0024599 2650 
31 1 -0.000802628 -0.00330349 0.00244514 0.000175 0.00425633 -0.0276403 0.0250826 2650 
968 1 -0.011417 -0.00092399 0.003016 6.3e-05 0 -0.01175 0 2650 
453 1 -0.0025216 -0.000438019 0.00331199 0.000635 0.00879519 -0.0177803 0.0114859 2650 
7 1 -0.0283774 -0.0540586 0.00392642 0.000635 0.215365 -0.241915 -0.778037 2650 
118 1 -0.0143082 -0.00272133 0.00446566 0.000635 -0.0572327 -0.0193605 0.336899 2650 
278 1 -0.0658952 -0.0426697 0.00562979 0.000635 5.75166 -9.86335 63.1189 2650 
986 1 -0.0125454 -0.00332557 0.00481683 0.000175 -0.269541 -0.0316633 0.117558 2650 
265 1 -0.002739 -0.00301238 0.00704374 0.000175 0.0130273 -0.023062 0.0262187 2650 
1166 1 -0.002781 -0.00091599 0.007491 6.3e-05 0 -0.01175 0 2650 
199 1 -0.00711239 -0.00239872 0.00859453 0.000175 -0.0154376 -0.034866 0.0330809 2650 
1271 1 -0.00624943 -0.00144496 0.00850354 0.000635 0.0359492 -0.0136038 -0.00539534 2650 
663 1 -0.00709811 -0.00339583 0.0106315 0.000175 -0.620818 -0.0361773 0.929858 2650 
1051 1 -0.000516 -5.59901e-05 0.009814 0.000175 0 -0.01175 0 2650 
757 1 -0.010129 -0.00269938 0.0124514 0.000175 0.0164511 -0.00894375 -0.0348391 2650 
519 1 -0.0666209 -0.0158697 0.015588 0.000635 26.9101 5.26993 114.971 2650 
1327 1 -0.00623267 -0.0022923 0.0148289 0.000175 0.0119661 -0.0226597 -0.00030106 2650 
307 1 -0.0649714 -0.044453 0.0202727 0.000984 15.4953 2.74686 49.6291 2650 
427 1 -0.0657358 -0.0218751 0.0204014 0.000175 13.5118 7.46236 43.5302 2650 
1136 1 -0.0628548 -0.0317716 0.0260497 0.000984 8.69487 -6.18293 20.9631 2650 
1283 1 -0.0611066 -0.0106159 0.031674 0.000175 13.3984 9.87743 25.8444 2650 
46 1 -0.059918 -0.0421452 0.0329503 0.000635 17.4482 -3.27993 31.7128 2650 
991 1 -0.0578162 -0.0604843 0.0373439 0.000175 25.6543 0.518436 39.7121 2650 
462 1 -0.0552669 -0.0345565 0.0392674 0.000175 11.1405 14.3006 21.4779 2650 
1040 1 -0.0557205 -0.0263248 0.0396223 0.000635 5.501 -4.401 7.73095 2650 
552 1 -0.0550654 -0.0367686 0.0405356 0.000635 17.6559 0.520593 23.972 2650 
523 1 -0.0524118 -0.0441825 0.0439064 0.000635 12.7873 6.70841 15.2559 2650 
543 1 -0.0507384 -0.060162 0.0458538 0.000635 43.0208 -11.3687 47.5838 2650 
149 1 -0.0509261 -0.0533814 0.0456221 0.000635 16.0538 -1.50773 17.9108 2650 
239 1 -0.0500903 -0.0437923 0.0460332 0.000984 14.9832 5.34901 16.2889 2650 
246 1 -0.0500364 -0.0402824 0.0465963 0.000635 17.2939 7.35604 18.561 2650 
348 1 -0.0484025 -0.0520095 0.0482964 0.000635 26.5581 -5.11561 26.6033 2650 
949 1 -0.0412082 -0.00144526 0.0545685 0.000635 32.2073 -5.82139 23.8329 2650 
290 1 -0.039828 -0.0531005 0.0561185 0.000175 39.0754 14.8109 26.4376 2650 
125 1 -0.0252211 -0.0256182 0.057381 0.000175 -1.5876 6.37327 -1.3196 2650 
727 1 -0.0315675 -0.0536262 0.0611586 0.000175 25.4154 0.359057 13.1183 2650 
979 1 -0.0160894 -0.027296 0.0623911 0.000635 15.5241 0.54696 5.47791 2650 
473 1 -0.0306358 -0.0184103 0.0616796 6.3e-05 17.7001 18.867 13.8475 2650 
1167 1 -0.0269977 -0.00166172 0.0624552 0.000984 45.8537 -1.34762 19.8078 2650 
1146 1 -0.0264048 -0.0043189 0.0630363 0.000635 47.3821 -7.93304 16.064 2650 
1258 1 -0.0250606 -0.0473268 0.0641003 0.000175 34.3039 7.00996 13.4113 2650 
41 1 -0.0149603 -0.0226413 0.064586 0.000635 41.1618 -17.986 42.3922 2650 
852 1 -0.0241065 -0.00657963 0.0639858 0.000635 48.0609 -7.38637 18.0989 2650 
109 1 -0.0205024 -0.0376679 0.0652268 0.000635 43.6419 -12.0476 13.7117 2650 
1035 1 -0.010556 -0.0279802 0.0671958 0.000984 26.1215 -11.7295 4.10022 2650 
383 1 -0.0151967 -0.00071124 0.066662 0.000635 43.9694 1.1934 10.0193 2650 
1037 1 -0.00809187 -0.0558578 0.0675499 0.000984 42.7318 5.33538 5.11552 2650 
674 1 -0.00323774 -0.0553025 0.0679569 0.000984 44.4992 -8.28532 2.119 2650 
376 1 -0.00314212 -0.0466723 0.0679568 0.000984 39.5656 6.76521 1.83101 2650 
380 1 -0.00935851 -0.0382745 0.0677241 0.000635 34.1933 5.04638 4.72346 2650 
1201 1 -0.00924455 -0.0337702 0.0674028 0.000984 43.5371 4.17582 5.96736 2650 
235 1 -0.00412544 -0.0337762 0.0680517 6.3e-05 -5.56052 3.25737 6.64188 2650 
786 1 -3.2681e-05 -0.0229849 0.0683651 0.000635 21.5186 5.30092 0.0103383 2650 
261 1 -0.00303252 -0.0175745 0.0687582 0.000175 41.3565 1.55918 1.82398 2650 
482 1 -0.0613617 -0.0398873 0.030183 0.000635 18.6526 -11.6364 37.9027 2650 
914 1 -0.0361427 0.0182597 -0.058076 0.000635 -87.8723 -4.92597 54.6668 2650 
175 1 -0.0362932 0.0399634 -0.0579959 0.000635 -105.555 48.6579 66.0139 2650 
189 1 -0.0513174 0.0729971 -0.04587 0.000175 -65.6919 -5.89049 73.4842 2650 
710 1 -0.00242556 0.00324321 -0.0158971 0.000635 0.139438 -0.0540709 -0.0684833 2650 
343 1 -0.00129297 0.0145267 -0.0156142 0.000984 -0.0108068 0.0126857 0.00267011 2650 
635 1 -0.000233695 0.0164193 -0.0166661 0.000175 -0.202695 -0.0137048 -0.00853309 2650 
905 1 -0.000479949 0.0556839 -0.015826 0.000984 -0.568028 0.436915 -0.0219677 2650 
1211 1 -0.00487177 0.00053627 -0.0152262 0.000635 0.0189748 -0.0134141 -5.39147e-05 2650 
1072 1 -0.00154146 0.0115379 -0.0151397 0.000635 -0.00260512 0.0161855 -0.0401513 2650 
629 1 -0.00196417 0.01292 -0.0155967 0.000175 -0.0218159 0.00171501 0.0140582 2650 
324 1 -0.00816701 0.0132085 -0.014521 0.000175 -0.0260046 0.0233576 0.0311135 2650 
167 1 -0.00452485 0.0218618 -0.0150784 6.3e-05 0.0169805 -0.171428 0.0271505 2650 
1071 1 -0.0021385 0.0265033 -0.0146 0.000635 0.0310802 0.0451292 -0.00564092 2650 
247 1 -0.00590848 0.0538466 -0.0150075 0.000635 -0.837399 0.16663 0.402692 2650 
608 1 -0.00400746 0.0541062 -0.0153444 0.000984 -0.812695 0.0232227 0.150548 2650 
79 1 -0.0046636 0.0569416 -0.0155566 0.000635 -0.816447 0.114828 0.154246 2650 
487 1 -0.00169602 0.00791674 -0.0139015 0.000635 -0.0139345 -0.000212175 0.0130293 2650 
1131 1 -0.0106092 0.0177619 -0.013301 6.3e-05 -0.0216042 -0.211143 0.015698 2650 
1005 1 -0.00419986 0.0248546 -0.0134115 0.000635 -0.0115839 0.0367956 0.0168006 2650 
308 1 -0.00398632 0.0264638 -0.0134998 0.000984 0.0197849 0.0358221 0.00427979 2650 
218 1 -0.00837264 0.00266766 -0.0124171 0.000635 -0.0659337 0.0218562 0.0337227 2650 
1 1 -0.00937174 0.0115432 -0.0121494 0.000984 0.00260036 0.000728796 0.00971292 2650 
378 1 -0.00925845 0.0167326 -0.0124591 0.000984 -0.129678 0.0610331 0.0793922 2650 
1266 1 -0.00652924 0.0178894 -0.0126217 0.000984 -0.0170213 0.0289635 -0.00219031 2650 
805 1 -0.0059326 0.0321395 -0.0127434 0.000984 0.00901095 0.048698 -0.000328599 2650 
450 1 -0.00944268 0.0363976 -0.0123846 0.000635 -0.0404735 0.0708873 0.00309436 2650 
1056 1 -0.0106428 0.0445503 -0.0129623 0.000175 -0.0445461 0.0935158 -0.0057939 2650 
1205 1 -0.00500802 0.0450443 -0.0124962 0.000635 -0.278704 0.31931 -0.342391 2650 
572 1 -0.0034283 0.0567479 -0.0130204 6.3e-05 0.00506827 0.0682336 0.0295527 2650 
289 1 -0.0110947 0.00172959 -0.0116335 0.000635 0.0072991 0.00245956 0.0115376 2650 
1186 1 -0.00827789 0.00440401 -0.0113422 0.000175 -0.224113 -0.0608435 0.0763928 2650 
1297 1 -0.00669509 0.00460476 -0.0112338 6.3e-05 -0.0149136 0.00421127 0.0334985 2650 
1069 1 -0.0105548 0.0135648 -0.0111734 0.000984 -0.124577 0.00773665 0.0852398 2650 
787 1 -0.00426436 0.0145474 -0.0115437 0.000175 0.00830457 0.00756528 0.0038969 2650 
1217 1 -0.0124069 0.0220849 -0.0112738 0.000175 -0.491623 -0.30547 0.567133 2650 
1165 1 -0.00169989 0.00202899 -0.00998699 6.3e-05 0.0077224 -0.018109 0.00484478 2650 
78 1 -0.0063224 0.00250112 -0.0107743 0.000635 0.00636668 -0.0210676 0.0618967 2650 
768 1 -0.00314676 0.00358068 -0.0106386 6.3e-05 0.0485851 0.0121527 -0.0579115 2650 
449 1 -0.000765898 0.00926344 -0.0103767 0.000635 0.0153804 0.00921713 0.0151838 2650 
1139 1 -0.00705197 0.010776 -0.00978445 0.000635 0.000413824 0.0155499 0.0164938 2650 
1214 1 -0.00299048 0.0111664 -0.0107859 0.000635 0.0109284 0.018326 0.0118844 2650 
224 1 -0.0130642 0.0321623 -0.0105191 0.000175 -0.452838 0.141592 0.522267 2650 
373 1 -0.0113735 0.0337996 -0.0104342 6.3e-05 -0.0446079 0.0525691 0.0140328 2650 
358 1 -0.00561534 0.0367097 -0.00997654 0.000175 -0.005144 0.0867732 -0.0582222 2650 
660 1 -0.00957223 0.00196412 -0.00888851 0.000175 -0.00881201 -0.00590314 -0.00252555 2650 
120 1 -0.0135451 0.00430644 -0.00877198 0.000175 0.0585441 -0.0271707 -0.0654724 2650 
868 1 -0.005513 0.00418301 -0.008425 6.3e-05 0 -0.01175 0 2650 
1059 1 -0.00358036 0.0100198 -0.00952417 0.000175 0.0124347 0.013643 0.015467 2650 
1093 1 -0.0114647 0.0247345 -0.00913144 0.000175 -0.0122318 0.0263197 0.039505 2650 
331 1 -0.00836099 0.026373 -0.00888817 0.000175 -0.0493631 0.0312073 0.0174878 2650 
30 1 -0.00729174 0.0277017 -0.00926393 0.000175 -0.00445845 0.00423201 0.01616 2650 
51 1 -0.00491618 0.0291593 -0.00934797 0.000635 0.0304834 0.0408923 -0.022325 2650 
123 1 -0.00356368 0.0294238 -0.00891006 0.000175 -0.0364384 0.0463294 0.0273249 2650 
1263 1 -0.00718302 0.0418457 -0.0085315 6.3e-05 -0.0137252 0.0895463 0.0169239 2650 
153 1 -0.00222816 0.0442802 -0.00946164 0.000635 -0.00617474 0.0652939 -0.0153319 2650 
544 1 -0.0132783 0.0101946 -0.00787454 0.000635 -0.0145912 0.0034644 -0.00410655 2650 
579 1 -0.00456911 0.0141915 -0.00815147 0.000635 0.0138335 0.0214316 0.00356859 2650 
485 1 -0.0142073 0.0152125 -0.00773828 0.000635 0.0219132 0.0106254 -0.00213126 2650 
58 1 -0.0091654 0.0143757 -0.00826439 0.000175 -0.0095569 0.0175092 -0.027906 2650 
797 1 -0.00890437 0.015586 -0.00783622 0.000175 0.00469929 0.0140138 -0.0278607 2650 
714 1 -0.00719246 0.0226667 -0.00773899 0.000635 -0.0147752 0.0270412 0.0188496 2650 
42 1 -0.00855876 0.0246632 -0.00839511 0.000635 -0.0274022 0.0536873 -0.00996453 2650 
1129 1 -0.00787083 0.0490989 -0.00806503 0.000175 -0.00519824 0.106172 -0.0203891 2650 
512 1 -0.0126526 0.0613364 -0.00720211 0.000635 -0.0869164 0.327633 0.205944 2650 
49 1 -0.00868995 0.000943879 -0.00667928 0.000635 -0.0328978 -0.0335944 -0.00780159 2650 
943 1 -0.00612745 0.00108063 -0.00682501 0.000635 -0.0163499 -0.0264875 0.00907043 2650 
1150 1 -0.00695212 0.00533974 -0.0067237 0.000175 -0.0413808 -0.00352608 -0.00180627 2650 
1270 1 -0.0146951 0.00856576 -0.00623595 0.000635 -0.0265576 -0.00583522 -0.00532726 2650 
457 1 -0.0125686 0.0104616 -0.00637471 0.000635 0.0268604 -0.128038 -0.0583159 2650 
686 1 -0.00919551 0.011277 -0.0061147 0.000635 -0.00878804 0.0199662 0.0227815 2650 
476 1 -0.0116636 0.0166491 -0.00719932 0.000984 -0.0156427 0.0103353 0.0121332 2650 
720 1 -0.014962 0.0344396 -0.00643651 0.000635 -0.409321 0.0617049 0.77516 2650 
1047 1 -0.00572869 0.0338442 -0.0071834 0.000635 0.0109138 0.0474931 0.00722191 2650 
589 1 -0.00210179 0.00610522 -0.00559954 0.000635 -0.0175167 -0.00301026 0.0148432 2650 
432 1 -0.0157272 0.0123307 -0.00484228 0.000175 -0.0710463 0.0121983 0.0893164 2650 
1068 1 -0.0121328 0.0139933 -0.00578476 0.000984 -0.0290977 -0.00227305 0.0159608 2650 
410 1 -0.0093812 0.0183296 -0.00563458 0.000984 0.00477487 0.0321071 0.000947141 2650 
102 1 -0.0116987 0.0224897 -0.00494855 6.3e-05 0.00971112 0.0599359 -0.000824985 2650 
408 1 -0.00213404 0.0216629 -0.00528411 0.000984 0.000404017 0.0380461 -0.0094128 2650 
132 1 -0.00960274 0.023665 -0.00482471 0.000175 -0.0214686 0.0415514 -0.0104796 2650 
1173 1 -0.0147284 0.0305339 -0.00505044 0.000635 -0.0123468 0.057568 0.124347 2650 
500 1 -0.011786 0.036223 -0.00501888 0.000175 -0.180441 -0.0683475 -0.276489 2650 
938 1 -0.0148563 0.0552338 -0.0056519 0.000984 -0.0619468 0.10465 0.230058 2650 
403 1 -0.000132 0.00062101 -0.004486 0.000175 0 -0.01175 0 2650 
788 1 -0.006237 0.00184001 -0.003705 0.000175 0 -0.01175 0 2650 
57 1 -0.0159661 0.00981413 -0.00468666 0.000175 -0.0126821 -0.00718848 0.0431434 2650 
771 1 -0.014199 0.0189028 -0.00445233 0.000984 -0.0192907 0.0292741 0.0370115 2650 
1075 1 -0.0071734 0.0180996 -0.00378785 0.000635 0.0248732 -0.0128453 0.055656 2650 
932 1 -0.0158078 0.0421799 -0.00446713 0.000175 -0.0145917 0.0813068 0.0764363 2650 
1048 1 -0.00901692 0.0554205 -0.00476875 0.000635 -0.0362501 0.0467773 -0.0176069 2650 
406 1 -0.003114 0.00234601 -0.002553 6.3e-05 0 -0.01175 0 2650 
1222 1 -0.005802 0.00442701 -0.002479 0.000175 0 -0.01175 0 2650 
935 1 -0.012816 0.00491161 -0.00357268 6.3e-05 -0.0235092 0.0297256 0.0381044 2650 
54 1 -0.0135112 0.00709061 -0.0027539 0.000175 -0.0111447 -0.0127656 0.0400306 2650 
846 1 -0.0122747 0.0064558 -0.00315743 0.000635 0.00897348 0.00165835 -0.00491199 2650 
98 1 -0.0162911 0.0144245 -0.00244597 0.000175 -0.0266247 0.045075 0.0685355 2650 
1061 1 -0.0127152 0.0147303 -0.00324405 0.000175 -0.000755913 0.0287146 -0.007194 2650 
645 1 -0.0114677 0.0205507 -0.00272094 0.000635 0.0118927 0.0494732 0.0190623 2650 
172 1 -0.00439271 0.0246478 -0.00347063 0.000984 -0.0189105 0.0383462 0.0351545 2650 
1008 1 -0.00155708 0.0281226 -0.00326627 0.000635 -0.0270252 0.0402104 -0.00218799 2650 
1265 1 -0.00719495 0.0532034 -0.0027772 6.3e-05 -0.0237117 0.0585808 -0.0669344 2650 
1030 1 -0.0156764 0.0560638 -0.00333509 0.000175 -0.0303303 0.100566 0.0709559 2650 
131 1 -0.00836144 0.0574886 -0.00242377 0.000175 -0.0304792 0.148176 -0.000251089 2650 
820 1 -0.031288 0.0659974 -0.00271002 0.000175 -4.21432 0.621569 -0.181743 2650 
847 1 -0.00472594 0.0657022 -0.00285406 0.000635 -0.0269593 0.142316 0.0158804 2650 
1295 1 -0.002608 0.00146801 -0.002004 0.000175 0 -0.01175 0 2650 
252 1 -0.0158999 0.0119244 -0.00141285 0.000635 0.0293503 -0.0367223 0.00984136 2650 
1225 1 -0.00767792 0.0129827 -0.00136638 0.000175 0.0112418 0.0584262 0.0147774 2650 
984 1 -0.0141412 0.0134231 -0.00227097 0.000635 -0.0418412 0.0533813 -0.0960214 2650 
664 1 -0.00423588 0.0246642 -0.00214409 0.000175 0.0126188 0.0562591 0.0133742 2650 
863 1 -0.004917 0.00400301 -0.000782 0.000175 0 -0.01175 0 2650 
1046 1 -0.00509911 0.00545622 -0.000824164 0.000635 0.0698408 0.0853074 -0.131364 2650 
304 1 -0.0146677 0.00672145 -0.000111201 6.3e-05 -0.02002 0.00465863 -0.0604126 2650 
433 1 -0.009115 0.00621901 -0.000375 0.000175 0 -0.01175 0 2650 
121 1 -0.0112271 0.00945738 -0.00114565 0.000175 0.0351141 0.000913819 0.0311411 2650 
1281 1 -0.0020327 0.00900947 -0.000396882 0.000635 0.00370192 -0.00396683 0.0176194 2650 
309 1 -0.0062765 0.0103905 -0.000350929 0.000984 0.0293029 -0.020542 -0.00323511 2650 
1239 1 -0.0160604 0.0130237 -0.000767876 0.000635 -0.0235737 0.0314572 -0.0724013 2650 
459 1 -0.0102703 0.0134024 -0.000128366 0.000175 -0.00411793 0.00792938 0.0522038 2650 
481 1 -0.00735564 0.016369 -0.000479114 0.000635 -0.00352626 0.0270785 0.0412731 2650 
778 1 -0.00565558 0.0224734 -0.000482582 0.000635 0.00399627 0.0486178 0.0216768 2650 
209 1 -0.00193414 0.0218106 -0.00063802 0.000635 -0.0207037 0.0354086 0.0572698 2650 
17 1 -0.0144904 0.0255016 -2.66458e-05 0.000635 -0.0487651 -0.0153751 0.301378 2650 
1140 1 -0.00220435 0.0283876 -0.00119659 0.000635 0.0112179 0.0524232 -0.00194534 2650 
806 1 -0.00993109 0.0314005 -0.000654681 0.000984 0.00682777 0.0388052 -0.0191923 2650 
1163 1 -0.0166545 0.0426704 -0.000851861 0.000175 0.0286992 -0.224854 0.19732 2650 
1240 1 -0.0162315 0.0432327 -0.00033108 0.000635 0.00487589 0.086407 0.0938957 2650 
707 1 -0.0134415 0.000571242 0.000687582 0.000984 0.0201564 -0.040599 0.0474274 2650 
541 1 -0.0105013 0.00149355 0.000133125 0.000984 0.00333243 -0.0169285 0.010076 2650 
134 1 -0.0167626 0.00555543 0.00014959 6.3e-05 -0.00279629 0.0141033 0.0683853 2650 
558 1 -0.011131 0.00594601 0.000798 0.000175 0 -0.01175 0 2650 
925 1 -0.009738 0.00619301 0.000245 0.000175 0 -0.01175 0 2650 
319 1 -0.0140203 0.0086836 0.00063586 0.000635 -0.00233785 0.00973074 0.0271604 2650 
1224 1 -0.0114261 0.0112393 0.00082884 0.000175 0.0617094 0.0823737 0.0098812 2650 
815 1 -0.0155983 0.0125092 0.000370827 0.000635 -0.113643 0.0185066 0.00275548 2650 
750 1 -0.00025861 0.0164137 0.000355982 0.000635 0.0241324 0.0443384 0.0219119 2650 
1137 1 -0.0119699 0.0233353 8.51705e-05 0.000635 -0.0497043 0.013514 0.0237524 2650 
110 1 -0.00979507 0.026079 0.000287885 0.000635 -0.031535 0.0427706 0.0495042 2650 
1243 1 -0.013883 0.00143554 0.00224512 0.000635 0.0281581 -0.0168665 0.0438283 2650 
670 1 -0.00141088 0.00200903 0.00141055 6.3e-05 0.0411384 -0.0111482 -0.00607165 2650 
1060 1 -0.003566 0.00394101 0.00229 0.000175 0 -0.01175 0 2650 
562 1 -0.000160199 0.00608345 0.00127084 0.000175 0.0325049 -0.0065533 0.0056992 2650 
90 1 -0.0109049 0.0095424 0.00195226 0.000175 0.0143101 -0.000334238 0.00032448 2650 
260 1 -0.0116499 0.0137283 0.00236169 0.000175 0.032143 0.0846401 -0.057944 2650 
1017 1 -0.00713565 0.0155884 0.00216605 0.000635 -0.0179783 0.0277308 0.0622075 2650 
902 1 -0.0122278 0.0188227 0.00164644 6.3e-05 0.0641799 0.0263632 0.00044842 2650 
1204 1 -0.00963767 0.0231542 0.00238708 0.000635 -0.0127415 0.0311845 0.0509298 2650 
719 1 -0.00153157 0.0481277 0.00178381 0.000635 0.0910701 0.125559 -0.0342886 2650 
439 1 -0.00859406 0.0652859 0.00198101 6.3e-05 -0.0243268 0.0803513 -0.0586153 2650 
623 1 -0.0150665 0.000308934 0.00321965 0.000175 -0.0662488 -0.0216878 0.0262121 2650 
1223 1 -0.004473 0.00378501 0.002721 0.000175 0 -0.01175 0 2650 
1276 1 -0.000414506 0.00463138 0.00342007 0.000635 -0.0479097 0.0152084 -0.00252504 2650 
272 1 -0.00824888 0.00931281 0.00329074 6.3e-05 0.0130743 0.00151405 -0.00760195 2650 
799 1 -0.0163054 0.0163123 0.00329121 0.000175 0.142933 0.0697114 0.788621 2650 
1088 1 -0.0121616 0.0231805 0.00301247 0.000175 -0.0225544 0.0571495 0.00345449 2650 
195 1 -0.00594257 0.0259901 0.00296634 0.000175 0.0157341 0.038828 0.0137612 2650 
419 1 -0.0147407 0.0367515 0.00282879 0.000635 -0.0793897 0.327003 0.453094 2650 
927 1 -0.00203747 0.0492394 0.00275371 0.000175 0.0219941 0.0957878 0.0577491 2650 
66 1 -0.006818 0.00341001 0.004587 6.3e-05 0 -0.01175 0 2650 
489 1 -0.0157532 0.00561638 0.00362521 0.000635 0.0510377 0.134171 0.297107 2650 
956 1 -0.0127054 0.00544713 0.00375785 0.000175 -0.0226867 0.00615413 0.016731 2650 
1002 1 -0.000235755 0.00632877 0.00384405 0.000984 0.0477485 0.0257019 -0.0637288 2650 
947 1 -0.0134934 0.0202941 0.00474429 0.000635 -0.034866 0.0230953 0.0142619 2650 
443 1 -0.00552445 0.0223498 0.0044121 0.000984 0.0127122 0.0766293 0.0451517 2650 
179 1 -0.002791 0.0249592 0.00460405 0.000635 0.047254 0.0932186 0.0467733 2650 
206 1 -0.0143284 0.0333533 0.00376299 0.000984 -0.00330743 0.0876467 0.0764406 2650 
478 1 -0.00644406 0.0426695 0.00383532 0.000635 0.0621456 0.164163 0.0635437 2650 
828 1 -0.0127608 0.000546838 0.00485074 0.000175 -0.013832 -0.0143126 0.00115989 2650 
1152 1 -0.004408 0.00091501 0.005639 0.000175 0 -0.01175 0 2650 
1315 1 -0.00944292 0.0018777 0.00521539 0.000175 -0.00239028 -0.0111752 0.0182369 2650 
397 1 -0.00214924 0.00189869 0.00522424 0.000175 0.0186532 0.0629644 -0.141535 2650 
735 1 -0.010003 0.00446501 0.004837 6.3e-05 0 -0.01175 0 2650 
1010 1 -0.0047739 0.0156844 0.00551417 0.000635 0.0170247 0.0232265 0.0249986 2650 
1256 1 -0.00575655 0.0169193 0.00544862 0.000175 0.0203096 0.0158007 0.00110055 2650 
190 1 -0.0158003 0.0203171 0.00522823 0.000175 0.112616 -0.168092 0.222855 2650 
1080 1 -0.00365618 0.0213086 0.00561791 0.000635 0.0413676 0.0332737 0.044039 2650 
804 1 -0.0148319 0.0250375 0.00486462 0.000984 0.162232 -0.144819 0.622517 2650 
414 1 -0.00372142 0.0650995 0.00527539 0.000635 0.0453456 0.145093 0.0761257 2650 
1331 1 -0.014252 0.00146967 0.00652107 6.3e-05 0.0370374 -0.00979059 0.0585621 2650 
822 1 -0.0151805 0.01006 0.0070074 0.000175 0.00434887 0.0109457 -0.00215861 2650 
229 1 -0.0135506 0.0165333 0.00717259 0.000175 0.0354281 0.117464 0.0475962 2650 
772 1 -0.000827729 0.0170534 0.00686036 0.000984 0.0599064 0.0273607 0.0622214 2650 
474 1 -0.0138008 0.0314461 0.00625167 0.000984 0.0281619 -0.0121368 0.0852322 2650 
442 1 -0.00517399 0.0375812 0.00692909 0.000984 0.0617926 0.0813947 0.0273775 2650 
1169 1 -0.0144764 0.0443042 0.00629135 0.000984 0.0473101 0.132778 0.108157 2650 
554 1 -0.00657994 0.0472096 0.00626969 0.000635 -0.295307 0.232839 -0.0262542 2650 
114 1 -0.0112799 0.0704554 0.00626281 0.000635 -0.0828396 0.139805 -0.0223769 2650 
76 1 -0.00492733 0.00134601 0.00780269 0.000635 0.00956755 -0.00447154 0.0363384 2650 
1177 1 -0.00462014 0.00271205 0.00782127 0.000635 -0.056594 0.0508073 -0.0832007 2650 
288 1 -0.000152368 0.00927131 0.00762571 0.000635 0.0588707 -0.0145798 0.0230996 2650 
654 1 -0.0140657 0.0128456 0.0081572 0.000635 0.302863 -0.10039 0.399785 2650 
1007 1 -0.00585437 0.0146799 0.00804689 0.000635 0.0268798 0.0736885 0.0360338 2650 
803 1 -0.0138962 0.0323061 0.00785239 6.3e-05 0.0294184 0.0412458 0.0372037 2650 
1148 1 -0.00285976 0.00394231 0.0084642 0.000635 0.0505522 0.0602245 0.003224 2650 
303 1 -0.00280111 0.0164512 0.00902907 6.3e-05 0.00250987 0.0127205 -0.0489267 2650 
1235 1 -0.0104014 0.0207968 0.00922721 0.000984 0.00715991 -0.00299134 0.0342065 2650 
152 1 -0.0127526 0.000269794 0.00973452 0.000635 0.0255225 -0.0411122 0.0331731 2650 
561 1 -0.0134311 0.00321306 0.00978128 0.000175 0.197943 -0.460137 0.264532 2650 
256 1 -0.00498967 0.0038944 0.0106207 0.000175 0.000970979 -0.0118608 -0.000158841 2650 
981 1 -0.0127704 0.0206193 0.0100964 0.000635 0.313353 0.156669 0.421486 2650 
832 1 -0.00715502 0.0282553 0.00988799 0.000175 -0.019617 0.0476484 0.0611442 2650 
891 1 -0.00139011 0.0318964 0.0106943 0.000175 -0.0459448 0.147922 -0.0354575 2650 
1043 1 -0.0117394 0.059968 0.00964226 0.000635 -0.000765173 0.0943506 0.0443123 2650 
310 1 -0.00776146 0.0691889 0.00965083 0.000984 -0.0843124 0.124215 0.010004 2650 
1278 1 -0.0112186 0.00579817 0.0114444 0.000635 0.0532131 0.0226018 0.0340086 2650 
1193 1 -0.000135 0.00679801 0.010956 0.000175 0 -0.01175 0 2650 
313 1 -0.0116449 0.033077 0.0114448 0.000635 0.0829258 0.0832316 0.110016 2650 
1182 1 -0.00368818 0.0349323 0.0110724 0.000635 -0.0184009 0.0952205 0.0510467 2650 
615 1 -0.0110429 0.0456741 0.0118231 0.000635 0.12406 0.146707 0.106617 2650 
69 1 -0.00652534 0.0608018 0.0111997 0.000984 -0.00487811 0.186844 0.0299086 2650 
1078 1 -0.00101987 0.00217195 0.0123984 0.000635 0.031008 0.0366594 -0.0131823 2650 
1111 1 -0.0107036 0.0076286 0.0120647 0.000635 0.0543712 0.122 0.136665 2650 
1202 1 -0.00918228 0.00770144 0.0126938 0.000984 0.138283 0.0540571 0.0914928 2650 
616 1 -0.00871645 0.0202343 0.0129377 0.000635 0.0524421 0.165287 0.038614 2650 
1210 1 -0.00949571 0.0307696 0.0127091 0.000635 0.0454849 0.0386074 -0.0096209 2650 
16 1 -0.00114514 0.0461097 0.0121367 0.000635 0.158231 0.164201 0.0572945 2650 
1242 1 -0.0102129 0.065751 0.0127569 0.000635 0.0712671 0.180732 0.0820911 2650 
1089 1 -0.00617674 0.00145467 0.0132152 0.000175 0.0823886 -0.050488 -0.0321924 2650 
609 1 -0.00125158 0.00599052 0.0135781 0.000635 0.081973 -0.00667014 -0.0834223 2650 
939 1 -0.00282945 0.0240948 0.0141166 0.000635 -0.0206524 0.034647 0.0132329 2650 
384 1 -0.000739989 0.0390618 0.013781 0.000635 0.26928 0.545899 -0.071285 2650 
607 1 -0.00182103 0.0531744 0.0139271 0.000984 0.142231 0.206392 -0.0409475 2650 
766 1 -0.007586 0.00306501 0.014412 0.000175 0 -0.01175 0 2650 
1279 1 -0.00440495 0.00404559 0.0153995 0.000635 0.0916821 0.0554659 0.0415819 2650 
830 1 -0.00346745 0.0150511 0.0154274 0.000175 0.0214244 0.0100853 0.00143679 2650 
126 1 -0.00573439 0.02069 0.0153814 0.000175 -0.105873 0.0564129 -0.0273684 2650 
341 1 -0.00282356 0.0432733 0.0150094 0.000984 0.180903 0.0143364 0.140236 2650 
258 1 -0.00783349 0.0506897 0.0146318 0.000175 0.521245 0.0240139 0.279797 2650 
466 1 -0.003486 0.00352101 0.016364 0.000175 0 -0.01175 0 2650 
135 1 -0.00206756 0.00288665 0.0166676 6.3e-05 0.222859 -0.00246436 0.00927891 2650 
924 1 -0.00570469 0.00432516 0.0156937 0.000175 0.0965764 -0.00511253 0.0262984 2650 
656 1 -0.00178166 0.00441228 0.0158252 0.000175 0.0738895 0.0681001 -0.00521906 2650 
963 1 -0.0060027 0.0251398 0.0156582 0.000175 0.117243 0.116644 0.0576723 2650 
1033 1 -0.00565151 0.0350564 0.0158648 6.3e-05 0.103675 0.095762 0.0253599 2650 
1187 1 -0.000911323 0.0536934 0.0166028 0.000175 0.443574 0.245185 0.0186851 2650 
396 1 -0.00383798 0.0607329 0.0160238 0.000175 0.377908 0.541055 0.0915724 2650 
506 1 -0.000614083 0.00170037 0.0168469 6.3e-05 -0.00948944 -0.00635906 -0.00297319 2650 
624 1 -0.0633399 0.0145028 0.0269324 0.000175 9.70898 -23.4962 22.774 2650 
526 1 -0.061785 0.0439781 0.0281121 0.000175 9.68374 -40.0569 20.1643 2650 
1237 1 -0.0256049 0.0671971 0.0334303 0.000635 -3.64588 0.159845 4.83189 2650 
642 1 -0.0499245 0.0746398 0.0467088 0.000635 0.139441 0.0816474 0.148929 2650 
644 1 -0.0456534 0.0691834 0.0509045 0.000635 31.9847 -2.75532 28.6731 2650 
139 1 -0.0439528 0.0632983 0.0519981 0.000984 68.4679 0.183351 54.1677 2650 
1058 1 -0.0121491 0.0730784 0.067746 0.000175 84.939 8.19902 15.2306 2650 
728 1 -0.023521 0.0878174 -0.0603369 0.000175 -0.136743 0.0808938 0.115931 2650 
713 1 -0.0579559 0.0925266 -0.0363149 0.000635 -37.5833 2.20391 59.9559 2650 
650 1 -0.0528782 0.126558 -0.0171299 0.000635 8.46493 -0.015205 1.90186 2650 
524 1 -0.0100936 0.0784683 -0.0113864 0.000175 0.0395263 0.150833 -0.0482859 2650 
317 1 -0.0677353 0.114197 -0.00939518 0.000635 -4.88195 19.8863 35.1817 2650 
84 1 -0.012969 0.104778 -0.00848917 0.000635 -1.06753 3.56542 0.492213 2650 
96 1 -0.00430944 0.104336 -0.00858191 0.000175 -0.326402 0.856095 -0.237508 2650 