LIGGGHTS (Version LIGGGHTS-PUBLIC 3.8.0, compiled 2022-11-07-16:55:38 by serperd1, git commit 86544c3f1215bc9744d7929e3eacf53ba086af9e)
units si #
dimension 3 #
newton off #
boundary f f f #
atom_style sphere #
pair_style gran model hertz tangential history #
communicate single vel yes #
region outer_basket cylinder y 0 0 0.15 -0.15 0.15 #
create_box 3 outer_basket #
Created orthogonal box = (-0.15 -0.15 -0.15) to (0.15 0.15 0.15)
  2 by 4 by 5 MPI processor grid
variable my_omega equal 157.0796 #
fix cone_mesh all mesh/surface file cone.stl type 3 scale 1 #
fix rotating_wall_1 all move/mesh mesh cone_mesh rotate/variable origin 0 0 0 axis 0 1 0 omega v_my_omega #
fix filter_mesh_walls all wall/gran model hertz tangential history primitive type 2 ycylinder_filtermesh 0.069 0 0 2 12 -0.0628 0 0.018559 0.01613 0.056059 0.05363 shear x 10.8385 #

fix inlet_cyl_wall_mesh all mesh/surface file in_cyl.stl type 3 scale 1 #
fix top_cyl_wall_mesh all mesh/surface file top_cyl.stl type 3 scale 1 #
fix rotating_wall_4 all move/mesh mesh top_cyl_wall_mesh rotate/variable origin 0 0 0 axis 0 1 0 omega v_my_omega #
fix bot_cyl_wall_mesh all mesh/surface file bot_cyl.stl type 3 scale 1 #
fix rotating_wall_5 all move/mesh mesh bot_cyl_wall_mesh rotate/variable origin 0 0 0 axis 0 1 0 omega v_my_omega #
fix bot_disk_wall_mesh all mesh/surface file bottom_disk.stl type 3 scale 1 #
fix rotating_wall_6 all move/mesh mesh bot_disk_wall_mesh rotate/variable origin 0 0 0 axis 0 1 0 omega v_my_omega #
fix top_disk_wall_mesh all mesh/surface file top_disk.stl type 3 scale 1 #
fix rotating_wall_7 all move/mesh mesh top_disk_wall_mesh rotate/variable origin 0 0 0 axis 0 1 0 omega v_my_omega #
fix GMSH_mesh_walls all wall/gran model hertz tangential history mesh n_meshes 6 meshes cone_mesh top_cyl_wall_mesh bot_cyl_wall_mesh bot_disk_wall_mesh inlet_cyl_wall_mesh top_disk_wall_mesh #
fix Young_mod all property/global youngsModulus peratomtype 375000000 46000000 1000000000 #
fix Poisson_rat all property/global poissonsRatio peratomtype 0.32 0.42 0.29 #
fix Coeff_rest all property/global coefficientRestitution peratomtypepair 3 0.15 0.32 0.475 0.32 0.49 0.645 0.475 0.645 0.8 #
fix Coeff_fric all property/global coefficientFriction peratomtypepair 3 0.04 0.145 0.12 0.145 0.25 0.225 0.12 0.225 0.2 #

neighbor 0.00039366 bin #
neigh_modify delay 0 one 100000 page 5000000 #
fix r_0to10p all particletemplate/sphere 12345787 atom_type 1 density constant 2650 radius constant 6.3e-05 #
fix r_10to50p all particletemplate/sphere 15485863 atom_type 1 density constant 2650 radius constant 0.0001746 #
fix r_50to90p all particletemplate/sphere 15485867 atom_type 1 density constant 2650 radius constant 0.00063495 #
fix r_90to100p all particletemplate/sphere 32452843 atom_type 1 density constant 2650 radius constant 0.00098415 #
fix prob_par all particledistribution/discrete 32452867 4 r_0to10p 0.1 r_10to50p 0.4 r_50to90p 0.4 r_90to100p 0.1 #
pair_coeff * * #
timestep 4.86e-08 #

fix nve_group all nve/sphere #
fix grav_fix all gravity 6.1081 vector 0.017 -0.0033 0 -1 0 #
fix cent_fix all centrifugal 157.0796 0.017 -0.0033 0.069 #

variable step equal step #
variable mycount equal count(all) #
fix print_amount_of_atoms all print 25 "${step} ${mycount}" file numatoms.txt screen no #
run 0 #
Setting up run at Sat Dec 24 20:33:29 2022

Memory usage per processor = 955.842 Mbytes
    Step    Atoms         KinEng            CPU 
       0        0              0              0 
Loop time of 7.82415e-05 on 40 procs for 0 steps with 0 atoms, finish time Sat Dec 24 20:33:29 2022


Pair  time (%) = 0 (0)
Neigh time (%) = 0 (0)
Comm  time (%) = 0 (0)
Outpt time (%) = 0 (0)
Other time (%) = 7.82415e-05 (100)

Nlocal:    0 ave 0 max 0 min
Histogram: 40 0 0 0 0 0 0 0 0 0
Nghost:    0 ave 0 max 0 min
Histogram: 40 0 0 0 0 0 0 0 0 0
Neighs:    0 ave 0 max 0 min
Histogram: 40 0 0 0 0 0 0 0 0 0

Total # of neighbors = 0
Neighbor list builds = 0
Dangerous builds = 0
run 1 #
Setting up run at Sat Dec 24 20:33:29 2022

Memory usage per processor = 955.842 Mbytes
    Step    Atoms         KinEng            CPU 
       0        0              0              0 
       1        0              0    0.009727466 
Loop time of 0.00974398 on 40 procs for 1 steps with 0 atoms, finish time Sat Dec 24 20:33:29 2022


Pair  time (%) = 2.42825e-06 (0.0249205)
Neigh time (%) = 0 (0)
Comm  time (%) = 0.000231452 (2.37533)
Outpt time (%) = 0.000104207 (1.06945)
Other time (%) = 0.0094059 (96.5303)

Nlocal:    0 ave 0 max 0 min
Histogram: 40 0 0 0 0 0 0 0 0 0
Nghost:    0 ave 0 max 0 min
Histogram: 40 0 0 0 0 0 0 0 0 0
Neighs:    0 ave 0 max 0 min
Histogram: 40 0 0 0 0 0 0 0 0 0

Total # of neighbors = 0
Neighbor list builds = 0
Dangerous builds = 0
read_dump dump.atom_info_1 1 x y z radius vx vy vz box no add yes replace no #
  orthogonal box = (-0.15 -0.15 -0.15) to (0.15 0.15 0.15)
  0 atoms before read
  1331 atoms in snapshot
  0 atoms purged
  0 atoms replaced
  0 atoms trimmed
  1331 atoms added
  1331 atoms after read
set atom * type 1 density 2650 vy -0.01175 #
  1331 settings made for type
  1331 settings made for density
  1331 settings made for vy
run 1 #
Setting up run at Sat Dec 24 20:33:29 2022

Memory usage per processor = 960.195 Mbytes
    Step    Atoms         KinEng            CPU 
       1     1331    2.04396e-07              0 
       2     1331  2.5455856e-07    0.009062302 
Loop time of 0.00908255 on 40 procs for 1 steps with 1331 atoms, finish time Sat Dec 24 20:33:29 2022


Pair  time (%) = 2.68095e-06 (0.0295176)
Neigh time (%) = 0 (0)
Comm  time (%) = 6.96825e-06 (0.0767213)
Outpt time (%) = 0.000124429 (1.36998)
Other time (%) = 0.00894847 (98.5238)

Nlocal:    33.275 ave 555 max 0 min
Histogram: 36 0 2 0 0 0 0 0 0 2
Nghost:    13.575 ave 173 max 0 min
Histogram: 36 0 0 0 0 1 1 0 0 2
Neighs:    10.175 ave 168 max 0 min
Histogram: 36 0 2 0 0 0 0 0 0 2

Total # of neighbors = 407
Ave neighs/atom = 0.305785
Neighbor list builds = 0
Dangerous builds = 0
write_dump all custom dump.atom_info_ac_* id type x y z radius vx vy vz density #
run 205761
Setting up run at Sat Dec 24 20:33:29 2022

Memory usage per processor = 960.195 Mbytes
    Step    Atoms         KinEng            CPU 
       2     1331  2.5455856e-07              0 
  205763     1331  6.9273694e-05      2064.7205 
Loop time of 2064.72 on 40 procs for 205761 steps with 1331 atoms, finish time Sat Dec 24 21:07:54 2022


Pair  time (%) = 0.505337 (0.0244748)
Neigh time (%) = 0.414817 (0.0200907)
Comm  time (%) = 1.16225 (0.0562907)
Outpt time (%) = 0.00031584 (1.5297e-05)
Other time (%) = 2062.64 (99.8991)

Nlocal:    33.275 ave 551 max 0 min
Histogram: 36 0 2 0 0 0 0 0 0 2
Nghost:    13.8 ave 171 max 0 min
Histogram: 36 0 0 0 0 1 1 0 0 2
Neighs:    11.175 ave 191 max 0 min
Histogram: 36 1 1 0 0 0 0 0 1 1

Total # of neighbors = 447
Ave neighs/atom = 0.335838
Neighbor list builds = 550
Dangerous builds = 0
write_dump all custom dump.atom_info_ac_* id type x y z radius vx vy vz density #
run 205761
Setting up run at Sat Dec 24 21:07:54 2022

Memory usage per processor = 960.195 Mbytes
    Step    Atoms         KinEng            CPU 
  205763     1331  6.9273694e-05              0 
  411524     1331  0.00040217614      2087.5759 
Loop time of 2087.58 on 40 procs for 205761 steps with 1331 atoms, finish time Sat Dec 24 21:42:42 2022


Pair  time (%) = 0.506133 (0.024245)
Neigh time (%) = 0.416695 (0.0199607)
Comm  time (%) = 1.28201 (0.0614116)
Outpt time (%) = 0.000609287 (2.91863e-05)
Other time (%) = 2085.37 (99.8944)

Nlocal:    33.275 ave 538 max 0 min
Histogram: 36 0 2 0 0 0 0 0 0 2
Nghost:    13.625 ave 169 max 0 min
Histogram: 36 0 0 0 0 1 1 0 0 2
Neighs:    11.725 ave 197 max 0 min
Histogram: 36 1 1 0 0 0 0 0 0 2

Total # of neighbors = 469
Ave neighs/atom = 0.352367
Neighbor list builds = 550
Dangerous builds = 0
write_dump all custom dump.atom_info_ac_* id type x y z radius vx vy vz density #
run 205761
Setting up run at Sat Dec 24 21:42:42 2022

Memory usage per processor = 960.195 Mbytes
    Step    Atoms         KinEng            CPU 
  411524     1331  0.00040217614              0 
  617285     1331  0.00067128357      2069.9018 
Loop time of 2069.9 on 40 procs for 205761 steps with 1331 atoms, finish time Sat Dec 24 22:17:12 2022


Pair  time (%) = 0.503365 (0.0243183)
Neigh time (%) = 0.418001 (0.0201943)
Comm  time (%) = 1.2223 (0.0590512)
Outpt time (%) = 0.000610353 (2.9487e-05)
Other time (%) = 2067.76 (99.8964)

Nlocal:    33.275 ave 522 max 0 min
Histogram: 36 0 2 0 0 0 0 0 0 2
Nghost:    13.05 ave 158 max 0 min
Histogram: 36 0 0 0 0 0 1 1 0 2
Neighs:    11.9 ave 190 max 0 min
Histogram: 36 0 2 0 0 0 0 0 0 2

Total # of neighbors = 476
Ave neighs/atom = 0.357626
Neighbor list builds = 550
Dangerous builds = 0
write_dump all custom dump.atom_info_ac_* id type x y z radius vx vy vz density #
run 205761
Setting up run at Sat Dec 24 22:17:12 2022

Memory usage per processor = 960.195 Mbytes
    Step    Atoms         KinEng            CPU 
  617285     1331  0.00067128357              0 
  823046     1331    0.063440029      2105.0994 
Loop time of 2105.1 on 40 procs for 205761 steps with 1331 atoms, finish time Sat Dec 24 22:52:17 2022


Pair  time (%) = 0.515704 (0.0244978)
Neigh time (%) = 2.80133 (0.133073)
Comm  time (%) = 3.20154 (0.152085)
Outpt time (%) = 0.000354394 (1.6835e-05)
Other time (%) = 2098.58 (99.6903)

Nlocal:    33.275 ave 512 max 0 min
Histogram: 36 0 1 1 0 0 0 0 0 2
Nghost:    12.925 ave 161 max 0 min
Histogram: 36 0 0 0 0 1 1 0 0 2
Neighs:    12.575 ave 203 max 0 min
Histogram: 36 0 2 0 0 0 0 0 0 2

Total # of neighbors = 503
Ave neighs/atom = 0.377911
Neighbor list builds = 3477
Dangerous builds = 0
write_dump all custom dump.atom_info_ac_* id type x y z radius vx vy vz density #
run 205761
Setting up run at Sat Dec 24 22:52:17 2022

Memory usage per processor = 960.195 Mbytes
    Step    Atoms         KinEng            CPU 
  823046     1331    0.063440029              0 
 1028807     1331    0.062176167      2067.2404 
Loop time of 2067.24 on 40 procs for 205761 steps with 1331 atoms, finish time Sat Dec 24 23:26:44 2022


Pair  time (%) = 0.519293 (0.0251201)
Neigh time (%) = 4.41348 (0.213496)
Comm  time (%) = 4.11851 (0.199227)
Outpt time (%) = 0.000637551 (3.08407e-05)
Other time (%) = 2058.19 (99.5621)

Nlocal:    33.275 ave 498 max 0 min
Histogram: 36 0 1 1 0 0 0 0 0 2
Nghost:    12.25 ave 159 max 0 min
Histogram: 36 0 0 0 0 1 1 0 0 2
Neighs:    12.65 ave 194 max 0 min
Histogram: 36 0 1 1 0 0 0 0 0 2

Total # of neighbors = 506
Ave neighs/atom = 0.380165
Neighbor list builds = 5444
Dangerous builds = 0
write_dump all custom dump.atom_info_ac_* id type x y z radius vx vy vz density #
run 205761
Setting up run at Sat Dec 24 23:26:44 2022

Memory usage per processor = 960.195 Mbytes
    Step    Atoms         KinEng            CPU 
 1028807     1331    0.062176167              0 
 1234568     1330    0.041225632       2057.444 
Loop time of 2057.44 on 40 procs for 205761 steps with 1330 atoms, finish time Sun Dec 25 00:01:02 2022


Pair  time (%) = 0.520197 (0.0252836)
Neigh time (%) = 4.11382 (0.199948)
Comm  time (%) = 3.80027 (0.184708)
Outpt time (%) = 0.000312099 (1.51692e-05)
Other time (%) = 2049.01 (99.59)

Nlocal:    33.25 ave 496 max 0 min
Histogram: 36 0 1 1 0 0 0 0 0 2
Nghost:    11.7 ave 155 max 0 min
Histogram: 36 0 0 0 0 2 0 0 1 1
Neighs:    11.9 ave 183 max 0 min
Histogram: 36 0 1 1 0 0 0 0 0 2

Total # of neighbors = 476
Ave neighs/atom = 0.357895
Neighbor list builds = 5049
Dangerous builds = 0
write_dump all custom dump.atom_info_ac_* id type x y z radius vx vy vz density #
run 205761
Setting up run at Sun Dec 25 00:01:02 2022

Memory usage per processor = 960.195 Mbytes
    Step    Atoms         KinEng            CPU 
 1234568     1330    0.041225632              0 
 1440329     1327     0.20432878       2062.149 
Loop time of 2062.15 on 40 procs for 205761 steps with 1327 atoms, finish time Sun Dec 25 00:35:24 2022


Pair  time (%) = 0.513649 (0.0249084)
Neigh time (%) = 3.87762 (0.188038)
Comm  time (%) = 4.47835 (0.217169)
Outpt time (%) = 0.000616454 (2.98938e-05)
Other time (%) = 2053.28 (99.5699)

Nlocal:    33.175 ave 490 max 0 min
Histogram: 36 0 1 1 0 0 0 0 0 2
Nghost:    11.075 ave 140 max 0 min
Histogram: 36 0 0 0 0 1 1 0 0 2
Neighs:    11.925 ave 180 max 0 min
Histogram: 36 0 0 1 1 0 0 0 0 2

Total # of neighbors = 477
Ave neighs/atom = 0.359457
Neighbor list builds = 4773
Dangerous builds = 218
write_dump all custom dump.atom_info_ac_* id type x y z radius vx vy vz density #
run 205761
Setting up run at Sun Dec 25 00:35:24 2022

Memory usage per processor = 960.195 Mbytes
    Step    Atoms         KinEng            CPU 
 1440329     1327     0.20432878              0 
 1646090     1326    0.033083303      2069.7404 
Loop time of 2069.74 on 40 procs for 205761 steps with 1326 atoms, finish time Sun Dec 25 01:09:54 2022


Pair  time (%) = 0.509134 (0.0245989)
Neigh time (%) = 3.97878 (0.192236)
Comm  time (%) = 4.38263 (0.211748)
Outpt time (%) = 0.000350585 (1.69386e-05)
Other time (%) = 2060.87 (99.5714)

Nlocal:    33.15 ave 487 max 0 min
Histogram: 36 0 0 2 0 0 0 0 0 2
Nghost:    10.675 ave 135 max 0 min
Histogram: 36 0 0 0 0 2 0 0 0 2
Neighs:    11.7 ave 178 max 0 min
Histogram: 36 0 0 2 0 0 0 0 0 2

Total # of neighbors = 468
Ave neighs/atom = 0.352941
Neighbor list builds = 4876
Dangerous builds = 0
write_dump all custom dump.atom_info_ac_* id type x y z radius vx vy vz density #
run 205761
Setting up run at Sun Dec 25 01:09:54 2022

Memory usage per processor = 960.195 Mbytes
    Step    Atoms         KinEng            CPU 
 1646090     1326    0.033083303              0 
 1851851     1324     0.17964477       2056.994 
Loop time of 2056.99 on 40 procs for 205761 steps with 1324 atoms, finish time Sun Dec 25 01:44:11 2022


Pair  time (%) = 0.504589 (0.0245304)
Neigh time (%) = 3.31219 (0.161021)
Comm  time (%) = 3.73228 (0.181444)
Outpt time (%) = 0.000651841 (3.1689e-05)
Other time (%) = 2049.44 (99.633)

Nlocal:    33.1 ave 485 max 0 min
Histogram: 36 0 1 1 0 0 0 0 0 2
Nghost:    10.425 ave 139 max 0 min
Histogram: 36 0 0 0 0 2 0 0 1 1
Neighs:    11.625 ave 177 max 0 min
Histogram: 36 0 0 2 0 0 0 0 0 2

Total # of neighbors = 465
Ave neighs/atom = 0.351208
Neighbor list builds = 4059
Dangerous builds = 6
write_dump all custom dump.atom_info_ac_* id type x y z radius vx vy vz density #
run 205761
Setting up run at Sun Dec 25 01:44:11 2022

Memory usage per processor = 960.195 Mbytes
    Step    Atoms         KinEng            CPU 
 1851851     1324     0.17964477              0 
 2057612     1319    0.089506024      2116.6403 
Loop time of 2116.64 on 40 procs for 205761 steps with 1319 atoms, finish time Sun Dec 25 02:19:27 2022


Pair  time (%) = 0.51849 (0.0244959)
Neigh time (%) = 8.97371 (0.42396)
Comm  time (%) = 12.089 (0.571142)
Outpt time (%) = 0.0040239 (0.000190108)
Other time (%) = 2095.06 (98.9802)

Nlocal:    32.975 ave 480 max 0 min
Histogram: 36 0 2 0 0 0 0 0 0 2
Nghost:    10.275 ave 135 max 0 min
Histogram: 36 0 0 0 0 1 1 0 1 1
Neighs:    11.2 ave 175 max 0 min
Histogram: 36 0 0 2 0 0 0 0 0 2

Total # of neighbors = 448
Ave neighs/atom = 0.339651
Neighbor list builds = 11048
Dangerous builds = 936
write_dump all custom dump.atom_info_ac_* id type x y z radius vx vy vz density #
run 205761
Setting up run at Sun Dec 25 02:19:27 2022

Memory usage per processor = 960.195 Mbytes
    Step    Atoms         KinEng            CPU 
 2057612     1319    0.089506024              0 
 2263373     1312     0.12975077      2086.9691 
Loop time of 2086.97 on 40 procs for 205761 steps with 1312 atoms, finish time Sun Dec 25 02:54:14 2022


Pair  time (%) = 0.517144 (0.0247797)
Neigh time (%) = 6.57985 (0.315283)
Comm  time (%) = 7.30923 (0.350232)
Outpt time (%) = 0.000693516 (3.32308e-05)
Other time (%) = 2072.56 (99.3097)

Nlocal:    32.8 ave 475 max 0 min
Histogram: 36 0 1 1 0 0 0 0 0 2
Nghost:    10.025 ave 125 max 0 min
Histogram: 36 0 0 0 0 0 2 0 0 2
Neighs:    10.675 ave 171 max 0 min
Histogram: 36 0 1 1 0 0 0 0 0 2

Total # of neighbors = 427
Ave neighs/atom = 0.325457
Neighbor list builds = 8077
Dangerous builds = 407
write_dump all custom dump.atom_info_ac_* id type x y z radius vx vy vz density #
run 205761
Setting up run at Sun Dec 25 02:54:15 2022

Memory usage per processor = 960.195 Mbytes
    Step    Atoms         KinEng            CPU 
 2263373     1312     0.12975077              0 
 2469134     1305     0.29560369      2154.4665 
Loop time of 2154.47 on 40 procs for 205761 steps with 1305 atoms, finish time Sun Dec 25 03:30:09 2022


Pair  time (%) = 0.521952 (0.0242265)
Neigh time (%) = 9.93186 (0.460989)
Comm  time (%) = 12.5219 (0.581205)
Outpt time (%) = 0.000395087 (1.83381e-05)
Other time (%) = 2131.49 (98.9336)

Nlocal:    32.625 ave 478 max 0 min
Histogram: 36 0 2 0 0 0 0 0 0 2
Nghost:    9.45 ave 124 max 0 min
Histogram: 36 0 0 0 0 1 1 1 0 1
Neighs:    10.9 ave 176 max 0 min
Histogram: 36 1 0 1 0 0 0 0 0 2

Total # of neighbors = 436
Ave neighs/atom = 0.3341
Neighbor list builds = 12231
Dangerous builds = 861
write_dump all custom dump.atom_info_ac_* id type x y z radius vx vy vz density #
run 205761
Setting up run at Sun Dec 25 03:30:09 2022

Memory usage per processor = 960.195 Mbytes
    Step    Atoms         KinEng            CPU 
 2469134     1305     0.29560369              0 
 2674895     1296      0.1885281      2124.4346 
Loop time of 2124.43 on 40 procs for 205761 steps with 1296 atoms, finish time Sun Dec 25 04:05:34 2022


Pair  time (%) = 0.525833 (0.0247517)
Neigh time (%) = 11.0785 (0.521478)
Comm  time (%) = 12.823 (0.603597)
Outpt time (%) = 0.00302869 (0.000142564)
Other time (%) = 2100 (98.85)

Nlocal:    32.4 ave 475 max 0 min
Histogram: 36 0 2 0 0 0 0 0 0 2
Nghost:    9.3 ave 113 max 0 min
Histogram: 36 0 0 0 0 0 2 0 1 1
Neighs:    10.675 ave 177 max 0 min
Histogram: 36 1 1 0 0 0 0 0 0 2

Total # of neighbors = 427
Ave neighs/atom = 0.329475
Neighbor list builds = 13544
Dangerous builds = 337
write_dump all custom dump.atom_info_ac_* id type x y z radius vx vy vz density #
run 205761
Setting up run at Sun Dec 25 04:05:34 2022

Memory usage per processor = 960.195 Mbytes
    Step    Atoms         KinEng            CPU 
 2674895     1296      0.1885281              0 
 2880656     1289     0.15258193       2122.181 
Loop time of 2122.18 on 40 procs for 205761 steps with 1289 atoms, finish time Sun Dec 25 04:40:56 2022


Pair  time (%) = 0.518256 (0.0244209)
Neigh time (%) = 10.0456 (0.473361)
Comm  time (%) = 11.1613 (0.525934)
Outpt time (%) = 0.00426844 (0.000201134)
Other time (%) = 2100.45 (98.9761)

Nlocal:    32.225 ave 477 max 0 min
Histogram: 36 0 2 0 0 0 0 0 0 2
Nghost:    9.45 ave 118 max 0 min
Histogram: 36 0 0 0 0 0 2 0 1 1
Neighs:    10.275 ave 169 max 0 min
Histogram: 36 1 1 0 0 0 0 0 0 2

Total # of neighbors = 411
Ave neighs/atom = 0.318852
Neighbor list builds = 12265
Dangerous builds = 193
write_dump all custom dump.atom_info_ac_* id type x y z radius vx vy vz density #
run 205761
Setting up run at Sun Dec 25 04:40:56 2022

Memory usage per processor = 960.195 Mbytes
    Step    Atoms         KinEng            CPU 
 2880656     1289     0.15258193              0 
 3086417     1279     0.21169738      2136.5049 
Loop time of 2136.51 on 40 procs for 205761 steps with 1279 atoms, finish time Sun Dec 25 05:16:33 2022


Pair  time (%) = 0.517478 (0.0242208)
Neigh time (%) = 11.4249 (0.534745)
Comm  time (%) = 14.3058 (0.669588)
Outpt time (%) = 0.000314691 (1.47292e-05)
Other time (%) = 2110.26 (98.7714)

Nlocal:    31.975 ave 478 max 0 min
Histogram: 36 0 1 1 0 0 0 0 0 2
Nghost:    9.4 ave 123 max 0 min
Histogram: 36 0 0 0 0 1 1 1 0 1
Neighs:    9.3 ave 165 max 0 min
Histogram: 36 1 1 0 0 0 0 0 1 1

Total # of neighbors = 372
Ave neighs/atom = 0.290852
Neighbor list builds = 14004
Dangerous builds = 1252
write_dump all custom dump.atom_info_ac_* id type x y z radius vx vy vz density #
run 205761
Setting up run at Sun Dec 25 05:16:33 2022

Memory usage per processor = 960.195 Mbytes
    Step    Atoms         KinEng            CPU 
 3086417     1279     0.21169738              0 
 3292178     1272     0.15762866      2089.9373 
Loop time of 2089.94 on 40 procs for 205761 steps with 1272 atoms, finish time Sun Dec 25 05:51:22 2022


Pair  time (%) = 0.503907 (0.0241111)
Neigh time (%) = 8.58543 (0.410799)
Comm  time (%) = 13.2074 (0.631953)
Outpt time (%) = 0.000660989 (3.16272e-05)
Other time (%) = 2067.64 (98.9331)

Nlocal:    31.8 ave 469 max 0 min
Histogram: 36 0 1 1 0 0 0 0 0 2
Nghost:    9.25 ave 124 max 0 min
Histogram: 36 0 0 0 0 2 0 1 0 1
Neighs:    9.65 ave 167 max 0 min
Histogram: 37 0 1 0 0 0 0 0 0 2

Total # of neighbors = 386
Ave neighs/atom = 0.303459
Neighbor list builds = 10519
Dangerous builds = 738
write_dump all custom dump.atom_info_ac_* id type x y z radius vx vy vz density #
run 205761
Setting up run at Sun Dec 25 05:51:23 2022

Memory usage per processor = 960.195 Mbytes
    Step    Atoms         KinEng            CPU 
 3292178     1272     0.15762866              0 
 3497939     1260      0.2838914      2323.6228 
Loop time of 2323.62 on 40 procs for 205761 steps with 1260 atoms, finish time Sun Dec 25 06:30:06 2022


Pair  time (%) = 0.50308 (0.0216507)
Neigh time (%) = 9.19412 (0.39568)
Comm  time (%) = 12.5589 (0.540487)
Outpt time (%) = 0.000360165 (1.55002e-05)
Other time (%) = 2301.37 (99.0422)

Nlocal:    31.5 ave 455 max 0 min
Histogram: 36 0 1 1 0 0 0 0 0 2
Nghost:    8.75 ave 113 max 0 min
Histogram: 36 0 0 0 0 2 0 0 1 1
Neighs:    8.725 ave 156 max 0 min
Histogram: 36 1 1 0 0 0 0 0 1 1

Total # of neighbors = 349
Ave neighs/atom = 0.276984
Neighbor list builds = 11230
Dangerous builds = 350
write_dump all custom dump.atom_info_ac_* id type x y z radius vx vy vz density #
run 205761
Setting up run at Sun Dec 25 06:30:06 2022

Memory usage per processor = 960.195 Mbytes
    Step    Atoms         KinEng            CPU 
 3497939     1260      0.2838914              0 
 3703700     1254     0.34256552      2092.9403 
Loop time of 2092.94 on 40 procs for 205761 steps with 1254 atoms, finish time Sun Dec 25 07:04:59 2022


Pair  time (%) = 0.490596 (0.0234405)
Neigh time (%) = 8.50367 (0.406303)
Comm  time (%) = 14.518 (0.693664)
Outpt time (%) = 0.000755101 (3.60785e-05)
Other time (%) = 2069.43 (98.8766)

Nlocal:    31.35 ave 452 max 0 min
Histogram: 36 0 2 0 0 0 0 0 0 2
Nghost:    8.125 ave 110 max 0 min
Histogram: 36 0 0 0 0 2 0 1 0 1
Neighs:    8.425 ave 143 max 0 min
Histogram: 36 1 1 0 0 0 0 0 0 2

Total # of neighbors = 337
Ave neighs/atom = 0.26874
Neighbor list builds = 10399
Dangerous builds = 374
write_dump all custom dump.atom_info_ac_* id type x y z radius vx vy vz density #
run 205761
Setting up run at Sun Dec 25 07:04:59 2022

Memory usage per processor = 960.195 Mbytes
    Step    Atoms         KinEng            CPU 
 3703700     1254     0.34256552              0 
 3909461     1242     0.22560323      2136.6883 
Loop time of 2136.69 on 40 procs for 205761 steps with 1242 atoms, finish time Sun Dec 25 07:40:36 2022


Pair  time (%) = 0.499419 (0.0233735)
Neigh time (%) = 13.0287 (0.609759)
Comm  time (%) = 21.2732 (0.995616)
Outpt time (%) = 0.000313256 (1.46608e-05)
Other time (%) = 2101.89 (98.3712)

Nlocal:    31.05 ave 453 max 0 min
Histogram: 36 0 2 0 0 0 0 0 0 2
Nghost:    7.85 ave 98 max 0 min
Histogram: 36 0 0 0 0 2 0 0 1 1
Neighs:    8.9 ave 167 max 0 min
Histogram: 36 2 0 0 0 0 0 0 1 1

Total # of neighbors = 356
Ave neighs/atom = 0.286634
Neighbor list builds = 15976
Dangerous builds = 504
write_dump all custom dump.atom_info_ac_* id type x y z radius vx vy vz density #
run 205761
Setting up run at Sun Dec 25 07:40:36 2022

Memory usage per processor = 960.195 Mbytes
    Step    Atoms         KinEng            CPU 
 3909461     1242     0.22560323              0 
 4115222     1230     0.33197389      2108.2288 
Loop time of 2108.23 on 40 procs for 205761 steps with 1230 atoms, finish time Sun Dec 25 08:15:44 2022


Pair  time (%) = 0.487407 (0.0231193)
Neigh time (%) = 10.1993 (0.483785)
Comm  time (%) = 16.4276 (0.779215)
Outpt time (%) = 0.000589991 (2.79851e-05)
Other time (%) = 2081.11 (98.7139)

Nlocal:    30.75 ave 449 max 0 min
Histogram: 36 0 1 1 0 0 0 0 0 2
Nghost:    8.15 ave 99 max 0 min
Histogram: 36 0 0 0 0 2 0 0 0 2
Neighs:    8.225 ave 143 max 0 min
Histogram: 36 1 1 0 0 0 0 0 0 2

Total # of neighbors = 329
Ave neighs/atom = 0.26748
Neighbor list builds = 12513
Dangerous builds = 169
write_dump all custom dump.atom_info_ac_* id type x y z radius vx vy vz density #
run 205761
Setting up run at Sun Dec 25 08:15:44 2022

Memory usage per processor = 960.195 Mbytes
    Step    Atoms         KinEng            CPU 
 4115222     1230     0.33197389              0 
 4320983     1218      664.05916      2075.8814 
Loop time of 2075.88 on 40 procs for 205761 steps with 1218 atoms, finish time Sun Dec 25 08:50:20 2022


Pair  time (%) = 0.48214 (0.0232258)
Neigh time (%) = 7.32236 (0.352735)
Comm  time (%) = 11.399 (0.549114)
Outpt time (%) = 0.00403048 (0.000194157)
Other time (%) = 2056.67 (99.0747)

Nlocal:    30.45 ave 452 max 0 min
Histogram: 36 0 2 0 0 0 0 0 0 2
Nghost:    7.825 ave 98 max 0 min
Histogram: 36 0 0 0 0 1 1 0 0 2
Neighs:    7.325 ave 129 max 0 min
Histogram: 36 1 1 0 0 0 0 0 1 1

Total # of neighbors = 293
Ave neighs/atom = 0.240558
Neighbor list builds = 8990
Dangerous builds = 531
write_dump all custom dump.atom_info_ac_* id type x y z radius vx vy vz density #
run 205761
Setting up run at Sun Dec 25 08:50:20 2022

Memory usage per processor = 960.195 Mbytes
    Step    Atoms         KinEng            CPU 
 4320983     1218      664.05916              0 
 4526744     1205      9.8737741      2126.5719 
Loop time of 2126.57 on 40 procs for 205761 steps with 1205 atoms, finish time Sun Dec 25 09:25:47 2022


Pair  time (%) = 0.488768 (0.0229839)
Neigh time (%) = 12.2291 (0.575063)
Comm  time (%) = 21.6792 (1.01944)
Outpt time (%) = 0.000494906 (2.32725e-05)
Other time (%) = 2092.17 (98.3825)

Nlocal:    30.125 ave 455 max 0 min
Histogram: 36 0 2 0 0 0 0 0 1 1
Nghost:    8.05 ave 101 max 0 min
Histogram: 36 0 0 0 1 1 0 0 0 2
Neighs:    7.625 ave 155 max 0 min
Histogram: 36 2 0 0 0 0 1 0 0 1

Total # of neighbors = 305
Ave neighs/atom = 0.253112
Neighbor list builds = 15044
Dangerous builds = 253
write_dump all custom dump.atom_info_ac_* id type x y z radius vx vy vz density #
run 205761
Setting up run at Sun Dec 25 09:25:47 2022

Memory usage per processor = 960.195 Mbytes
    Step    Atoms         KinEng            CPU 
 4526744     1205      9.8737741              0 
 4732505     1190     0.37228558      2098.1717 
Loop time of 2098.17 on 40 procs for 205761 steps with 1190 atoms, finish time Sun Dec 25 10:00:45 2022


Pair  time (%) = 0.479215 (0.0228397)
Neigh time (%) = 8.84759 (0.421681)
Comm  time (%) = 15.7558 (0.750928)
Outpt time (%) = 0.000239026 (1.13921e-05)
Other time (%) = 2073.09 (98.8045)

Nlocal:    29.75 ave 459 max 0 min
Histogram: 36 0 2 0 0 0 0 0 1 1
Nghost:    7.65 ave 95 max 0 min
Histogram: 36 0 0 0 1 0 1 0 0 2
Neighs:    7.1 ave 150 max 0 min
Histogram: 37 1 0 0 0 0 1 0 0 1

Total # of neighbors = 284
Ave neighs/atom = 0.238655
Neighbor list builds = 10878
Dangerous builds = 353
write_dump all custom dump.atom_info_ac_* id type x y z radius vx vy vz density #
run 205761
Setting up run at Sun Dec 25 10:00:45 2022

Memory usage per processor = 960.195 Mbytes
    Step    Atoms         KinEng            CPU 
 4732505     1190     0.37228558              0 
 4938266     1172     0.37689973      2133.9087 
Loop time of 2133.91 on 40 procs for 205761 steps with 1172 atoms, finish time Sun Dec 25 10:36:19 2022


Pair  time (%) = 0.487543 (0.0228474)
Neigh time (%) = 13.1609 (0.616752)
Comm  time (%) = 23.0252 (1.07902)
Outpt time (%) = 0.000497086 (2.32946e-05)
Other time (%) = 2097.23 (98.2814)

Nlocal:    29.3 ave 461 max 0 min
Histogram: 36 0 2 0 0 0 0 1 0 1
Nghost:    7.675 ave 99 max 0 min
Histogram: 36 0 0 0 1 1 0 0 0 2
Neighs:    6.9 ave 147 max 0 min
Histogram: 36 2 0 0 0 1 0 0 0 1

Total # of neighbors = 276
Ave neighs/atom = 0.235495
Neighbor list builds = 16192
Dangerous builds = 937
write_dump all custom dump.atom_info_ac_* id type x y z radius vx vy vz density #
run 205761
Setting up run at Sun Dec 25 10:36:19 2022

Memory usage per processor = 960.195 Mbytes
    Step    Atoms         KinEng            CPU 
 4938266     1172     0.37689973              0 
 5144027     1159     0.38908923      2087.1521 
Loop time of 2087.15 on 40 procs for 205761 steps with 1159 atoms, finish time Sun Dec 25 11:11:06 2022


Pair  time (%) = 0.478601 (0.0229308)
Neigh time (%) = 8.35435 (0.400275)
Comm  time (%) = 13.2778 (0.636169)
Outpt time (%) = 0.000550671 (2.63839e-05)
Other time (%) = 2065.04 (98.9406)

Nlocal:    28.975 ave 461 max 0 min
Histogram: 36 0 2 0 0 0 0 1 0 1
Nghost:    7.25 ave 98 max 0 min
Histogram: 36 0 0 0 1 0 1 0 1 1
Neighs:    6.6 ave 136 max 0 min
Histogram: 36 2 0 0 0 0 1 0 0 1

Total # of neighbors = 264
Ave neighs/atom = 0.227783
Neighbor list builds = 10258
Dangerous builds = 778
write_dump all custom dump.atom_info_ac_* id type x y z radius vx vy vz density #
run 205761
Setting up run at Sun Dec 25 11:11:07 2022

Memory usage per processor = 960.195 Mbytes
    Step    Atoms         KinEng            CPU 
 5144027     1159     0.38908923              0 
 5349788     1143     0.52325857      2145.0541 
Loop time of 2145.05 on 40 procs for 205761 steps with 1143 atoms, finish time Sun Dec 25 11:46:52 2022


Pair  time (%) = 0.487247 (0.0227149)
Neigh time (%) = 13.4803 (0.628435)
Comm  time (%) = 20.737 (0.966735)
Outpt time (%) = 0.000254866 (1.18816e-05)
Other time (%) = 2110.35 (98.3821)

Nlocal:    28.575 ave 469 max 0 min
Histogram: 36 1 1 0 0 0 0 1 0 1
Nghost:    7.275 ave 94 max 0 min
Histogram: 36 0 0 0 0 1 1 0 1 1
Neighs:    6.175 ave 142 max 0 min
Histogram: 37 1 0 0 1 0 0 0 0 1

Total # of neighbors = 247
Ave neighs/atom = 0.216098
Neighbor list builds = 16564
Dangerous builds = 726
write_dump all custom dump.atom_info_ac_* id type x y z radius vx vy vz density #
run 205761
Setting up run at Sun Dec 25 11:46:52 2022

Memory usage per processor = 960.195 Mbytes
    Step    Atoms         KinEng            CPU 
 5349788     1143     0.52325857              0 
 5555549     1126      1.0241619       2148.149 
Loop time of 2148.15 on 40 procs for 205761 steps with 1126 atoms, finish time Sun Dec 25 12:22:40 2022


Pair  time (%) = 0.479946 (0.0223423)
Neigh time (%) = 14.5898 (0.679182)
Comm  time (%) = 27.9972 (1.30332)
Outpt time (%) = 0.00431746 (0.000200985)
Other time (%) = 2105.08 (97.995)

Nlocal:    28.15 ave 461 max 0 min
Histogram: 36 1 1 0 0 0 0 1 0 1
Nghost:    7.225 ave 99 max 0 min
Histogram: 36 0 0 0 1 1 0 1 0 1
Neighs:    5.75 ave 134 max 0 min
Histogram: 37 1 0 0 0 1 0 0 0 1

Total # of neighbors = 230
Ave neighs/atom = 0.204263
Neighbor list builds = 18013
Dangerous builds = 469
write_dump all custom dump.atom_info_ac_* id type x y z radius vx vy vz density #
run 205761
Setting up run at Sun Dec 25 12:22:40 2022

Memory usage per processor = 960.195 Mbytes
    Step    Atoms         KinEng            CPU 
 5555549     1126      1.0241619              0 
 5761310     1108     0.67615931      2140.3049 
Loop time of 2140.31 on 40 procs for 205761 steps with 1108 atoms, finish time Sun Dec 25 12:58:20 2022


Pair  time (%) = 0.484185 (0.0226222)
Neigh time (%) = 13.5772 (0.634359)
Comm  time (%) = 20.4367 (0.954851)
Outpt time (%) = 0.000254233 (1.18783e-05)
Other time (%) = 2105.81 (98.3882)

Nlocal:    27.7 ave 472 max 0 min
Histogram: 36 1 1 0 0 0 1 0 0 1
Nghost:    7.025 ave 96 max 0 min
Histogram: 36 0 0 0 1 1 0 0 1 1
Neighs:    5.4 ave 146 max 0 min
Histogram: 37 1 1 0 0 0 0 0 0 1

Total # of neighbors = 216
Ave neighs/atom = 0.194946
Neighbor list builds = 16685
Dangerous builds = 1091
write_dump all custom dump.atom_info_ac_* id type x y z radius vx vy vz density #
run 205761
Setting up run at Sun Dec 25 12:58:20 2022

Memory usage per processor = 960.195 Mbytes
    Step    Atoms         KinEng            CPU 
 5761310     1108     0.67615931              0 
 5967071     1092      0.5896977      2121.0378 
Loop time of 2121.04 on 40 procs for 205761 steps with 1092 atoms, finish time Sun Dec 25 13:33:41 2022


Pair  time (%) = 0.475222 (0.0224052)
Neigh time (%) = 11.8798 (0.560092)
Comm  time (%) = 21.5866 (1.01774)
Outpt time (%) = 0.0237494 (0.00111971)
Other time (%) = 2087.07 (98.3986)

Nlocal:    27.3 ave 476 max 0 min
Histogram: 36 1 1 0 0 0 1 0 0 1
Nghost:    7.45 ave 105 max 0 min
Histogram: 36 0 0 1 0 1 0 1 0 1
Neighs:    5.125 ave 135 max 0 min
Histogram: 37 1 0 1 0 0 0 0 0 1

Total # of neighbors = 205
Ave neighs/atom = 0.187729
Neighbor list builds = 14637
Dangerous builds = 1053
write_dump all custom dump.atom_info_ac_* id type x y z radius vx vy vz density #
run 205761
Setting up run at Sun Dec 25 13:33:42 2022

Memory usage per processor = 960.195 Mbytes
    Step    Atoms         KinEng            CPU 
 5967071     1092      0.5896977              0 
 6172832     1086     0.61166135      2148.9486 
Loop time of 2148.95 on 40 procs for 205761 steps with 1086 atoms, finish time Sun Dec 25 14:09:31 2022


Pair  time (%) = 0.478703 (0.0222761)
Neigh time (%) = 13.8656 (0.645228)
Comm  time (%) = 27.1948 (1.26549)
Outpt time (%) = 0.000283126 (1.31751e-05)
Other time (%) = 2107.41 (98.067)

Nlocal:    27.15 ave 484 max 0 min
Histogram: 36 1 1 0 0 1 0 0 0 1
Nghost:    7.1 ave 100 max 0 min
Histogram: 36 0 0 1 0 1 0 1 0 1
Neighs:    4.7 ave 133 max 0 min
Histogram: 37 1 1 0 0 0 0 0 0 1

Total # of neighbors = 188
Ave neighs/atom = 0.173112
Neighbor list builds = 17034
Dangerous builds = 51
write_dump all custom dump.atom_info_ac_* id type x y z radius vx vy vz density #
run 205761
Setting up run at Sun Dec 25 14:09:31 2022

Memory usage per processor = 960.195 Mbytes
    Step    Atoms         KinEng            CPU 
 6172832     1086     0.61166135              0 
 6378593     1075      1.5742727      2117.9331 
Loop time of 2117.93 on 40 procs for 205761 steps with 1075 atoms, finish time Sun Dec 25 14:44:49 2022


Pair  time (%) = 0.473429 (0.0223533)
Neigh time (%) = 11.7486 (0.554721)
Comm  time (%) = 19.4927 (0.920363)
Outpt time (%) = 0.000539309 (2.54639e-05)
Other time (%) = 2086.22 (98.5025)

Nlocal:    26.875 ave 485 max 0 min
Histogram: 36 2 0 0 0 1 0 0 0 1
Nghost:    7.15 ave 107 max 0 min
Histogram: 36 0 0 1 1 0 0 1 0 1
Neighs:    5.3 ave 149 max 0 min
Histogram: 37 1 1 0 0 0 0 0 0 1

Total # of neighbors = 212
Ave neighs/atom = 0.197209
Neighbor list builds = 14403
Dangerous builds = 111
write_dump all custom dump.atom_info_ac_* id type x y z radius vx vy vz density #
run 205761
Setting up run at Sun Dec 25 14:44:49 2022

Memory usage per processor = 960.195 Mbytes
    Step    Atoms         KinEng            CPU 
 6378593     1075      1.5742727              0 
 6584354     1064     0.47759204      2137.5731 
Loop time of 2137.57 on 40 procs for 205761 steps with 1064 atoms, finish time Sun Dec 25 15:20:26 2022


Pair  time (%) = 0.48363 (0.0226252)
Neigh time (%) = 13.14 (0.614715)
Comm  time (%) = 17.7719 (0.831405)
Outpt time (%) = 0.000338308 (1.58267e-05)
Other time (%) = 2106.18 (98.5312)

Nlocal:    26.6 ave 492 max 0 min
Histogram: 36 1 1 0 0 1 0 0 0 1
Nghost:    7.175 ave 96 max 0 min
Histogram: 36 0 0 0 1 1 0 0 0 2
Neighs:    5.425 ave 158 max 0 min
Histogram: 37 2 0 0 0 0 0 0 0 1

Total # of neighbors = 217
Ave neighs/atom = 0.203947
Neighbor list builds = 16167
Dangerous builds = 1985
write_dump all custom dump.atom_info_ac_* id type x y z radius vx vy vz density #
run 205761
Setting up run at Sun Dec 25 15:20:26 2022

Memory usage per processor = 960.195 Mbytes
    Step    Atoms         KinEng            CPU 
 6584354     1064     0.47759204              0 
 6790115     1049     0.46075047      2197.4217 
Loop time of 2197.42 on 40 procs for 205761 steps with 1049 atoms, finish time Sun Dec 25 15:57:04 2022


Pair  time (%) = 0.479773 (0.0218335)
Neigh time (%) = 14.437 (0.656997)
Comm  time (%) = 23.197 (1.05565)
Outpt time (%) = 0.000555795 (2.5293e-05)
Other time (%) = 2159.31 (98.2655)

Nlocal:    26.225 ave 489 max 0 min
Histogram: 36 1 1 0 0 1 0 0 0 1
Nghost:    7.25 ave 96 max 0 min
Histogram: 36 0 0 0 1 1 0 0 1 1
Neighs:    5.475 ave 155 max 0 min
Histogram: 37 2 0 0 0 0 0 0 0 1

Total # of neighbors = 219
Ave neighs/atom = 0.20877
Neighbor list builds = 17713
Dangerous builds = 1002
write_dump all custom dump.atom_info_ac_* id type x y z radius vx vy vz density #
run 205761
Setting up run at Sun Dec 25 15:57:04 2022

Memory usage per processor = 960.195 Mbytes
    Step    Atoms         KinEng            CPU 
 6790115     1049     0.46075047              0 
 6995876     1039     0.54578393      2145.5042 
Loop time of 2145.5 on 40 procs for 205761 steps with 1039 atoms, finish time Sun Dec 25 16:32:49 2022


Pair  time (%) = 0.475095 (0.0221437)
Neigh time (%) = 14.2757 (0.665379)
Comm  time (%) = 26.6587 (1.24254)
Outpt time (%) = 0.000279454 (1.30251e-05)
Other time (%) = 2104.09 (98.0699)

Nlocal:    25.975 ave 481 max 0 min
Histogram: 36 1 1 0 0 1 0 0 0 1
Nghost:    6.675 ave 96 max 0 min
Histogram: 36 0 0 1 1 0 0 0 1 1
Neighs:    5.225 ave 151 max 0 min
Histogram: 37 2 0 0 0 0 0 0 0 1

Total # of neighbors = 209
Ave neighs/atom = 0.201155
Neighbor list builds = 17450
Dangerous builds = 462
write_dump all custom dump.atom_info_ac_* id type x y z radius vx vy vz density #
run 205761
Setting up run at Sun Dec 25 16:32:49 2022

Memory usage per processor = 960.195 Mbytes
    Step    Atoms         KinEng            CPU 
 6995876     1039     0.54578393              0 
 7201637     1029      0.7955524      2152.0522 
Loop time of 2152.05 on 40 procs for 205761 steps with 1029 atoms, finish time Sun Dec 25 17:08:41 2022


Pair  time (%) = 0.475359 (0.0220886)
Neigh time (%) = 14.7339 (0.684643)
Comm  time (%) = 22.7125 (1.05539)
Outpt time (%) = 0.0139239 (0.000647007)
Other time (%) = 2114.12 (98.2372)

Nlocal:    25.725 ave 477 max 0 min
Histogram: 36 1 1 0 1 0 0 0 0 1
Nghost:    6.625 ave 92 max 0 min
Histogram: 36 0 0 0 2 0 0 0 1 1
Neighs:    4.7 ave 139 max 0 min
Histogram: 37 2 0 0 0 0 0 0 0 1

Total # of neighbors = 188
Ave neighs/atom = 0.182702
Neighbor list builds = 17986
Dangerous builds = 134
write_dump all custom dump.atom_info_ac_* id type x y z radius vx vy vz density #
run 205761
Setting up run at Sun Dec 25 17:08:42 2022

Memory usage per processor = 960.195 Mbytes
    Step    Atoms         KinEng            CPU 
 7201637     1029      0.7955524              0 
 7407398     1017      0.5219038      2173.1191 
Loop time of 2173.12 on 40 procs for 205761 steps with 1017 atoms, finish time Sun Dec 25 17:44:55 2022


Pair  time (%) = 0.473996 (0.0218118)
Neigh time (%) = 15.1731 (0.698219)
Comm  time (%) = 27.7819 (1.27843)
Outpt time (%) = 0.000500367 (2.30253e-05)
Other time (%) = 2129.69 (98.0015)

Nlocal:    25.425 ave 479 max 0 min
Histogram: 36 1 1 0 1 0 0 0 0 1
Nghost:    6.275 ave 92 max 0 min
Histogram: 36 0 0 1 1 0 0 1 0 1
Neighs:    4.375 ave 127 max 0 min
Histogram: 37 2 0 0 0 0 0 0 0 1

Total # of neighbors = 175
Ave neighs/atom = 0.172075
Neighbor list builds = 18656
Dangerous builds = 1377
write_dump all custom dump.atom_info_ac_* id type x y z radius vx vy vz density #
run 205761
Setting up run at Sun Dec 25 17:44:55 2022

Memory usage per processor = 960.195 Mbytes
    Step    Atoms         KinEng            CPU 
 7407398     1017      0.5219038              0 
 7613159     1010     0.60344582      2180.1575 
Loop time of 2180.16 on 40 procs for 205761 steps with 1010 atoms, finish time Sun Dec 25 18:21:15 2022


Pair  time (%) = 0.465899 (0.0213699)
Neigh time (%) = 13.3174 (0.610846)
Comm  time (%) = 24.4815 (1.12292)
Outpt time (%) = 0.000324466 (1.48827e-05)
Other time (%) = 2141.89 (98.2448)

Nlocal:    25.25 ave 480 max 0 min
Histogram: 36 1 1 0 1 0 0 0 0 1
Nghost:    6.15 ave 90 max 0 min
Histogram: 36 0 0 0 2 0 0 1 0 1
Neighs:    3.925 ave 119 max 0 min
Histogram: 37 2 0 0 0 0 0 0 0 1

Total # of neighbors = 157
Ave neighs/atom = 0.155446
Neighbor list builds = 16316
Dangerous builds = 753
write_dump all custom dump.atom_info_ac_* id type x y z radius vx vy vz density #
run 205761
Setting up run at Sun Dec 25 18:21:15 2022

Memory usage per processor = 960.195 Mbytes
    Step    Atoms         KinEng            CPU 
 7613159     1010     0.60344582              0 
 7818920     1001      1.5537907      2237.7821 
Loop time of 2237.78 on 40 procs for 205761 steps with 1001 atoms, finish time Sun Dec 25 18:58:33 2022


Pair  time (%) = 0.467763 (0.020903)
Neigh time (%) = 13.4765 (0.602224)
Comm  time (%) = 21.3575 (0.954407)
Outpt time (%) = 0.000553242 (2.47228e-05)
Other time (%) = 2202.48 (98.4224)

Nlocal:    25.025 ave 479 max 0 min
Histogram: 36 2 0 0 1 0 0 0 0 1
Nghost:    6.025 ave 88 max 0 min
Histogram: 36 0 0 1 0 1 1 0 0 1
Neighs:    4.025 ave 128 max 0 min
Histogram: 38 1 0 0 0 0 0 0 0 1

Total # of neighbors = 161
Ave neighs/atom = 0.160839
Neighbor list builds = 16510
Dangerous builds = 87
write_dump all custom dump.atom_info_ac_* id type x y z radius vx vy vz density #
run 205761
Setting up run at Sun Dec 25 18:58:33 2022

Memory usage per processor = 960.195 Mbytes
    Step    Atoms         KinEng            CPU 
 7818920     1001      1.5537907              0 
 8024681      991      1.0527781      2170.8395 
Loop time of 2170.84 on 40 procs for 205761 steps with 991 atoms, finish time Sun Dec 25 19:34:44 2022


Pair  time (%) = 0.464003 (0.0213744)
Neigh time (%) = 13.4546 (0.619788)
Comm  time (%) = 20.6362 (0.950609)
Outpt time (%) = 0.000299523 (1.37976e-05)
Other time (%) = 2136.28 (98.4082)

Nlocal:    24.775 ave 477 max 0 min
Histogram: 36 2 0 0 1 0 0 0 0 1
Nghost:    6.05 ave 81 max 0 min
Histogram: 36 0 0 0 1 0 1 1 0 1
Neighs:    3.775 ave 115 max 0 min
Histogram: 38 1 0 0 0 0 0 0 0 1

Total # of neighbors = 151
Ave neighs/atom = 0.152371
Neighbor list builds = 16522
Dangerous builds = 756
write_dump all custom dump.atom_info_ac_* id type x y z radius vx vy vz density #
run 205761
Setting up run at Sun Dec 25 19:34:44 2022

Memory usage per processor = 960.195 Mbytes
    Step    Atoms         KinEng            CPU 
 8024681      991      1.0527781              0 
 8230442      984     0.95111165      2319.3146 
Loop time of 2319.31 on 40 procs for 205761 steps with 984 atoms, finish time Sun Dec 25 20:13:23 2022


Pair  time (%) = 0.464754 (0.0200384)
Neigh time (%) = 12.4092 (0.535037)
Comm  time (%) = 18.7077 (0.806605)
Outpt time (%) = 0.000551675 (2.37861e-05)
Other time (%) = 2287.73 (98.6383)

Nlocal:    24.6 ave 458 max 0 min
Histogram: 36 2 0 0 1 0 0 0 0 1
Nghost:    5.525 ave 76 max 0 min
Histogram: 36 0 0 0 1 0 2 0 0 1
Neighs:    3.95 ave 111 max 0 min
Histogram: 37 2 0 0 0 0 0 0 0 1

Total # of neighbors = 158
Ave neighs/atom = 0.160569
Neighbor list builds = 15173
Dangerous builds = 1206
write_dump all custom dump.atom_info_ac_* id type x y z radius vx vy vz density #
run 205761
Setting up run at Sun Dec 25 20:13:23 2022

Memory usage per processor = 960.195 Mbytes
    Step    Atoms         KinEng            CPU 
 8230442      984     0.95111165              0 
 8436203      973      3.1516031      2152.1594 
Loop time of 2152.16 on 40 procs for 205761 steps with 973 atoms, finish time Sun Dec 25 20:49:15 2022


Pair  time (%) = 0.451957 (0.0210002)
Neigh time (%) = 14.5134 (0.674363)
Comm  time (%) = 25.8539 (1.2013)
Outpt time (%) = 0.000351662 (1.63399e-05)
Other time (%) = 2111.34 (98.1033)

Nlocal:    24.325 ave 445 max 0 min
Histogram: 36 1 1 0 1 0 0 0 0 1
Nghost:    5.375 ave 76 max 0 min
Histogram: 36 0 0 0 1 1 1 0 0 1
Neighs:    3.6 ave 99 max 0 min
Histogram: 37 2 0 0 0 0 0 0 0 1

Total # of neighbors = 144
Ave neighs/atom = 0.147996
Neighbor list builds = 17710
Dangerous builds = 297
write_dump all custom dump.atom_info_ac_* id type x y z radius vx vy vz density #
run 205761
Setting up run at Sun Dec 25 20:49:16 2022

Memory usage per processor = 960.195 Mbytes
    Step    Atoms         KinEng            CPU 
 8436203      973      3.1516031              0 
 8641964      959     0.73496621      2127.9765 
Loop time of 2127.98 on 40 procs for 205761 steps with 959 atoms, finish time Sun Dec 25 21:24:44 2022


Pair  time (%) = 0.448388 (0.0210711)
Neigh time (%) = 12.4938 (0.58712)
Comm  time (%) = 23.043 (1.08286)
Outpt time (%) = 0.000515816 (2.42398e-05)
Other time (%) = 2091.99 (98.3089)

Nlocal:    23.975 ave 440 max 0 min
Histogram: 36 1 1 0 1 0 0 0 0 1
Nghost:    5 ave 72 max 0 min
Histogram: 36 0 0 1 0 1 1 0 0 1
Neighs:    3.225 ave 89 max 0 min
Histogram: 37 1 1 0 0 0 0 0 0 1

Total # of neighbors = 129
Ave neighs/atom = 0.134515
Neighbor list builds = 15177
Dangerous builds = 508
write_dump all custom dump.atom_info_ac_* id type x y z radius vx vy vz density #
run 205761
Setting up run at Sun Dec 25 21:24:44 2022

Memory usage per processor = 960.195 Mbytes
    Step    Atoms         KinEng            CPU 
 8641964      959     0.73496621              0 
 8847725      949     0.48302263      2118.6309 
Loop time of 2118.63 on 40 procs for 205761 steps with 949 atoms, finish time Sun Dec 25 22:00:02 2022


Pair  time (%) = 0.441155 (0.0208226)
Neigh time (%) = 11.5312 (0.544275)
Comm  time (%) = 20.4938 (0.967314)
Outpt time (%) = 0.000151635 (7.1572e-06)
Other time (%) = 2086.17 (98.4676)

Nlocal:    23.725 ave 432 max 0 min
Histogram: 36 1 1 0 1 0 0 0 0 1
Nghost:    5.1 ave 68 max 0 min
Histogram: 36 0 0 0 1 1 0 1 0 1
Neighs:    3.175 ave 90 max 0 min
Histogram: 37 1 1 0 0 0 0 0 0 1

Total # of neighbors = 127
Ave neighs/atom = 0.133825
Neighbor list builds = 13999
Dangerous builds = 289
write_dump all custom dump.atom_info_ac_* id type x y z radius vx vy vz density #
run 205761
Setting up run at Sun Dec 25 22:00:02 2022

Memory usage per processor = 960.195 Mbytes
    Step    Atoms         KinEng            CPU 
 8847725      949     0.48302263              0 
 9053486      935      0.6012663      2118.7774 
Loop time of 2118.78 on 40 procs for 205761 steps with 935 atoms, finish time Sun Dec 25 22:35:21 2022


Pair  time (%) = 0.44022 (0.020777)
Neigh time (%) = 12.2981 (0.580435)
Comm  time (%) = 24.4566 (1.15427)
Outpt time (%) = 0.000593202 (2.79973e-05)
Other time (%) = 2081.59 (98.2445)

Nlocal:    23.375 ave 422 max 0 min
Histogram: 36 1 1 0 1 0 0 0 0 1
Nghost:    4.975 ave 73 max 0 min
Histogram: 36 0 0 1 0 1 1 0 0 1
Neighs:    3.375 ave 95 max 0 min
Histogram: 37 1 1 0 0 0 0 0 0 1

Total # of neighbors = 135
Ave neighs/atom = 0.144385
Neighbor list builds = 14982
Dangerous builds = 980
write_dump all custom dump.atom_info_ac_* id type x y z radius vx vy vz density #
run 205761
Setting up run at Sun Dec 25 22:35:21 2022

Memory usage per processor = 960.195 Mbytes
    Step    Atoms         KinEng            CPU 
 9053486      935      0.6012663              0 
 9259247      928     0.64266404      2118.0173 
Loop time of 2118.02 on 40 procs for 205761 steps with 928 atoms, finish time Sun Dec 25 23:10:39 2022


Pair  time (%) = 0.440746 (0.0208094)
Neigh time (%) = 10.6365 (0.50219)
Comm  time (%) = 20.6939 (0.977041)
Outpt time (%) = 0.000597259 (2.8199e-05)
Other time (%) = 2086.25 (98.4999)

Nlocal:    23.2 ave 406 max 0 min
Histogram: 36 1 1 0 1 0 0 0 0 1
Nghost:    5.05 ave 70 max 0 min
Histogram: 36 0 0 1 0 1 0 1 0 1
Neighs:    3.175 ave 88 max 0 min
Histogram: 37 1 1 0 0 0 0 0 0 1

Total # of neighbors = 127
Ave neighs/atom = 0.136853
Neighbor list builds = 12902
Dangerous builds = 956
write_dump all custom dump.atom_info_ac_* id type x y z radius vx vy vz density #
run 205761
Setting up run at Sun Dec 25 23:10:39 2022

Memory usage per processor = 960.195 Mbytes
    Step    Atoms         KinEng            CPU 
 9259247      928     0.64266404              0 
 9465008      909      3.7973734      2138.3511 
Loop time of 2138.37 on 40 procs for 205761 steps with 909 atoms, finish time Sun Dec 25 23:46:18 2022


Pair  time (%) = 0.441696 (0.0206558)
Neigh time (%) = 14.4105 (0.673904)
Comm  time (%) = 29.0544 (1.35872)
Outpt time (%) = 0.0120853 (0.000565164)
Other time (%) = 2094.45 (97.9462)

Nlocal:    22.725 ave 385 max 0 min
Histogram: 36 1 1 0 0 1 0 0 0 1
Nghost:    5.125 ave 71 max 0 min
Histogram: 36 0 0 1 0 1 1 0 0 1
Neighs:    2.575 ave 65 max 0 min
Histogram: 37 1 0 1 0 0 0 0 0 1

Total # of neighbors = 103
Ave neighs/atom = 0.113311
Neighbor list builds = 17532
Dangerous builds = 958
write_dump all custom dump.atom_info_ac_* id type x y z radius vx vy vz density #
run 205761
Setting up run at Sun Dec 25 23:46:18 2022

Memory usage per processor = 960.195 Mbytes
    Step    Atoms         KinEng            CPU 
 9465008      909      3.7973734              0 
 9670769      898     0.58371343      2122.2959 
Loop time of 2122.3 on 40 procs for 205761 steps with 898 atoms, finish time Mon Dec 26 00:21:40 2022


Pair  time (%) = 0.438257 (0.0206501)
Neigh time (%) = 12.3899 (0.583798)
Comm  time (%) = 23.3878 (1.102)
Outpt time (%) = 0.000607614 (2.863e-05)
Other time (%) = 2086.08 (98.2935)

Nlocal:    22.45 ave 372 max 0 min
Histogram: 36 1 1 0 0 1 0 0 0 1
Nghost:    4.95 ave 69 max 0 min
Histogram: 36 0 0 1 0 1 1 0 0 1
Neighs:    2.375 ave 49 max 0 min
Histogram: 37 1 0 0 0 0 1 0 0 1

Total # of neighbors = 95
Ave neighs/atom = 0.105791
Neighbor list builds = 15026
Dangerous builds = 494
write_dump all custom dump.atom_info_ac_* id type x y z radius vx vy vz density #
run 205761
Setting up run at Mon Dec 26 00:21:40 2022

Memory usage per processor = 960.195 Mbytes
    Step    Atoms         KinEng            CPU 
 9670769      898     0.58371343              0 
 9876530      887      1.3033872      2128.5915 
Loop time of 2128.61 on 40 procs for 205761 steps with 887 atoms, finish time Mon Dec 26 00:57:09 2022


Pair  time (%) = 0.437414 (0.0205493)
Neigh time (%) = 12.0593 (0.566537)
Comm  time (%) = 21.7225 (1.0205)
Outpt time (%) = 0.00416681 (0.000195753)
Other time (%) = 2094.38 (98.3922)

Nlocal:    22.175 ave 354 max 0 min
Histogram: 35 2 0 1 0 1 0 0 0 1
Nghost:    4.675 ave 72 max 0 min
Histogram: 36 0 0 1 1 1 0 0 0 1
Neighs:    2.5 ave 51 max 0 min
Histogram: 37 0 1 0 0 0 1 0 0 1

Total # of neighbors = 100
Ave neighs/atom = 0.11274
Neighbor list builds = 14600
Dangerous builds = 880
write_dump all custom dump.atom_info_ac_* id type x y z radius vx vy vz density #
run 205761
Setting up run at Mon Dec 26 00:57:09 2022

Memory usage per processor = 960.195 Mbytes
    Step    Atoms         KinEng            CPU 
 9876530      887      1.3033872              0 
10082291      868     0.88266399      2134.2783 
Loop time of 2134.28 on 40 procs for 205761 steps with 868 atoms, finish time Mon Dec 26 01:32:43 2022


Pair  time (%) = 0.435564 (0.020408)
Neigh time (%) = 14.0774 (0.659584)
Comm  time (%) = 24.5832 (1.15183)
Outpt time (%) = 0.000555236 (2.60152e-05)
Other time (%) = 2095.18 (98.1682)

Nlocal:    21.7 ave 343 max 0 min
Histogram: 34 3 0 1 0 1 0 0 0 1
Nghost:    4.425 ave 70 max 0 min
Histogram: 36 0 1 1 0 0 1 0 0 1
Neighs:    1.55 ave 36 max 0 min
Histogram: 37 0 1 1 0 0 0 0 0 1

Total # of neighbors = 62
Ave neighs/atom = 0.0714286
Neighbor list builds = 17036
Dangerous builds = 105
write_dump all custom dump.atom_info_ac_* id type x y z radius vx vy vz density #
run 205761
Setting up run at Mon Dec 26 01:32:43 2022

Memory usage per processor = 960.195 Mbytes
    Step    Atoms         KinEng            CPU 
10082291      868     0.88266399              0 
10288052      847     0.69290962      2116.8427 
Loop time of 2116.84 on 40 procs for 205761 steps with 847 atoms, finish time Mon Dec 26 02:08:00 2022


Pair  time (%) = 0.420825 (0.0198798)
Neigh time (%) = 11.3312 (0.535288)
Comm  time (%) = 24.8744 (1.17507)
Outpt time (%) = 0.000335366 (1.58428e-05)
Other time (%) = 2080.22 (98.2697)

Nlocal:    21.175 ave 315 max 0 min
Histogram: 35 1 1 1 0 0 1 0 0 1
Nghost:    4.675 ave 65 max 0 min
Histogram: 36 0 0 1 1 0 0 0 1 1
Neighs:    1.675 ave 33 max 0 min
Histogram: 36 1 1 0 0 1 0 0 0 1

Total # of neighbors = 67
Ave neighs/atom = 0.0791027
Neighbor list builds = 13763
Dangerous builds = 2091
write_dump all custom dump.atom_info_ac_* id type x y z radius vx vy vz density #
run 205761
Setting up run at Mon Dec 26 02:08:00 2022

Memory usage per processor = 960.195 Mbytes
    Step    Atoms         KinEng            CPU 
10288052      847     0.69290962              0 
10493813      832     0.69656579       2121.465 
Loop time of 2121.47 on 40 procs for 205761 steps with 832 atoms, finish time Mon Dec 26 02:43:22 2022


Pair  time (%) = 0.427605 (0.0201561)
Neigh time (%) = 12.6847 (0.597923)
Comm  time (%) = 24.6066 (1.15989)
Outpt time (%) = 0.0241561 (0.00113865)
Other time (%) = 2083.72 (98.2209)

Nlocal:    20.8 ave 289 max 0 min
Histogram: 34 2 1 1 0 0 0 1 0 1
Nghost:    4.875 ave 66 max 0 min
Histogram: 36 0 0 1 1 0 0 0 1 1
Neighs:    1.65 ave 29 max 0 min
Histogram: 36 0 1 1 0 0 1 0 0 1

Total # of neighbors = 66
Ave neighs/atom = 0.0793269
Neighbor list builds = 15378
Dangerous builds = 930
write_dump all custom dump.atom_info_ac_* id type x y z radius vx vy vz density #
run 205761
Setting up run at Mon Dec 26 02:43:22 2022

Memory usage per processor = 960.195 Mbytes
    Step    Atoms         KinEng            CPU 
10493813      832     0.69656579              0 
10699574      820     0.55750603       2138.571 
Loop time of 2138.57 on 40 procs for 205761 steps with 820 atoms, finish time Mon Dec 26 03:19:00 2022


Pair  time (%) = 0.430239 (0.020118)
Neigh time (%) = 13.715 (0.641318)
Comm  time (%) = 26.0154 (1.21649)
Outpt time (%) = 0.000360696 (1.68662e-05)
Other time (%) = 2098.41 (98.1221)

Nlocal:    20.5 ave 275 max 0 min
Histogram: 33 3 2 0 0 0 0 0 1 1
Nghost:    4 ave 55 max 0 min
Histogram: 36 0 0 0 2 0 0 1 0 1
Neighs:    1.3 ave 19 max 0 min
Histogram: 35 1 2 0 0 0 0 0 0 2

Total # of neighbors = 52
Ave neighs/atom = 0.0634146
Neighbor list builds = 16588
Dangerous builds = 676
write_dump all custom dump.atom_info_ac_* id type x y z radius vx vy vz density #
run 205761
Setting up run at Mon Dec 26 03:19:00 2022

Memory usage per processor = 960.195 Mbytes
    Step    Atoms         KinEng            CPU 
10699574      820     0.55750603              0 
10905335      806     0.52153787      2114.7374 
Loop time of 2114.74 on 40 procs for 205761 steps with 806 atoms, finish time Mon Dec 26 03:54:15 2022


Pair  time (%) = 0.420209 (0.0198705)
Neigh time (%) = 11.0935 (0.52458)
Comm  time (%) = 21.2069 (1.00282)
Outpt time (%) = 0.000599839 (2.83647e-05)
Other time (%) = 2082.02 (98.4527)

Nlocal:    20.15 ave 268 max 0 min
Histogram: 33 3 2 0 0 0 0 0 1 1
Nghost:    4.225 ave 51 max 0 min
Histogram: 36 0 0 0 0 2 0 0 0 2
Neighs:    1.025 ave 21 max 0 min
Histogram: 38 0 0 0 0 0 0 1 0 1

Total # of neighbors = 41
Ave neighs/atom = 0.0508685
Neighbor list builds = 13384
Dangerous builds = 734
write_dump all custom dump.atom_info_ac_* id type x y z radius vx vy vz density #
run 205761
Setting up run at Mon Dec 26 03:54:15 2022

Memory usage per processor = 960.195 Mbytes
    Step    Atoms         KinEng            CPU 
10905335      806     0.52153787              0 
11111096      790     0.65729555      2111.6266 
Loop time of 2111.63 on 40 procs for 205761 steps with 790 atoms, finish time Mon Dec 26 04:29:27 2022


Pair  time (%) = 0.424304 (0.0200937)
Neigh time (%) = 11.3679 (0.53835)
Comm  time (%) = 17.9492 (0.850019)
Outpt time (%) = 0.000340686 (1.61338e-05)
Other time (%) = 2081.89 (98.5915)

Nlocal:    19.75 ave 257 max 0 min
Histogram: 33 3 2 0 0 0 0 0 1 1
Nghost:    3.95 ave 47 max 0 min
Histogram: 34 2 0 0 1 1 0 0 0 2
Neighs:    1.25 ave 21 max 0 min
Histogram: 37 0 0 1 0 0 0 0 1 1

Total # of neighbors = 50
Ave neighs/atom = 0.0632911
Neighbor list builds = 13726
Dangerous builds = 33
write_dump all custom dump.atom_info_ac_* id type x y z radius vx vy vz density #
run 205761
Setting up run at Mon Dec 26 04:29:27 2022

Memory usage per processor = 960.195 Mbytes
    Step    Atoms         KinEng            CPU 
11111096      790     0.65729555              0 
11316857      772      1.3003687      2111.7434 
Loop time of 2111.74 on 40 procs for 205761 steps with 772 atoms, finish time Mon Dec 26 05:04:39 2022


Pair  time (%) = 0.416742 (0.0197345)
Neigh time (%) = 10.9025 (0.51628)
Comm  time (%) = 20.1612 (0.954717)
Outpt time (%) = 0.000556757 (2.63648e-05)
Other time (%) = 2080.26 (98.5092)

Nlocal:    19.3 ave 261 max 0 min
Histogram: 32 4 2 0 0 0 0 1 0 1
Nghost:    4.1 ave 52 max 0 min
Histogram: 36 0 0 0 1 0 1 1 0 1
Neighs:    1.025 ave 17 max 0 min
Histogram: 36 1 1 0 0 0 0 0 0 2

Total # of neighbors = 41
Ave neighs/atom = 0.0531088
Neighbor list builds = 13191
Dangerous builds = 1046
write_dump all custom dump.atom_info_ac_* id type x y z radius vx vy vz density #
run 205761
Setting up run at Mon Dec 26 05:04:39 2022

Memory usage per processor = 960.195 Mbytes
    Step    Atoms         KinEng            CPU 
11316857      772      1.3003687              0 
11522618      756     0.74123519      2131.9628 
Loop time of 2131.96 on 40 procs for 205761 steps with 756 atoms, finish time Mon Dec 26 05:40:11 2022


Pair  time (%) = 0.41848 (0.0196289)
Neigh time (%) = 14.243 (0.668069)
Comm  time (%) = 24.0763 (1.1293)
Outpt time (%) = 0.000614276 (2.88127e-05)
Other time (%) = 2093.22 (98.183)

Nlocal:    18.9 ave 251 max 0 min
Histogram: 33 3 2 0 0 0 0 0 1 1
Nghost:    3.875 ave 47 max 0 min
Histogram: 36 0 0 0 1 1 0 0 0 2
Neighs:    0.9 ave 16 max 0 min
Histogram: 37 1 0 0 0 0 0 0 0 2

Total # of neighbors = 36
Ave neighs/atom = 0.047619
Neighbor list builds = 17199
Dangerous builds = 53
write_dump all custom dump.atom_info_ac_* id type x y z radius vx vy vz density #
run 205761
Setting up run at Mon Dec 26 05:40:11 2022

Memory usage per processor = 960.195 Mbytes
    Step    Atoms         KinEng            CPU 
11522618      756     0.74123519              0 
11728379      738     0.97717463      2171.6408 
Loop time of 2171.64 on 40 procs for 205761 steps with 738 atoms, finish time Mon Dec 26 06:16:23 2022


Pair  time (%) = 0.423587 (0.0195054)
Neigh time (%) = 17.9762 (0.827771)
Comm  time (%) = 34.5633 (1.59158)
Outpt time (%) = 0.00039668 (1.82664e-05)
Other time (%) = 2118.68 (97.5611)

Nlocal:    18.45 ave 241 max 0 min
Histogram: 34 2 2 0 0 0 0 0 1 1
Nghost:    3.625 ave 43 max 0 min
Histogram: 35 1 0 0 1 1 0 0 0 2
Neighs:    0.85 ave 14 max 0 min
Histogram: 36 1 0 1 0 0 0 1 0 1

Total # of neighbors = 34
Ave neighs/atom = 0.0460705
Neighbor list builds = 21815
Dangerous builds = 1304
write_dump all custom dump.atom_info_ac_* id type x y z radius vx vy vz density #
run 205761
Setting up run at Mon Dec 26 06:16:23 2022

Memory usage per processor = 960.195 Mbytes
    Step    Atoms         KinEng            CPU 
11728379      738     0.97717463              0 
11934140      727     0.75859745      2136.8189 
Loop time of 2136.82 on 40 procs for 205761 steps with 727 atoms, finish time Mon Dec 26 06:52:00 2022


Pair  time (%) = 0.414888 (0.0194162)
Neigh time (%) = 13.335 (0.62406)
Comm  time (%) = 25.5253 (1.19455)
Outpt time (%) = 0.00062474 (2.92369e-05)
Other time (%) = 2097.54 (98.1619)

Nlocal:    18.175 ave 236 max 0 min
Histogram: 32 4 2 0 0 0 0 0 1 1
Nghost:    3.475 ave 44 max 0 min
Histogram: 36 0 0 0 2 0 0 0 0 2
Neighs:    0.775 ave 16 max 0 min
Histogram: 37 0 1 0 0 0 1 0 0 1

Total # of neighbors = 31
Ave neighs/atom = 0.042641
Neighbor list builds = 16091
Dangerous builds = 11
write_dump all custom dump.atom_info_ac_* id type x y z radius vx vy vz density #
run 205761
Setting up run at Mon Dec 26 06:52:00 2022

Memory usage per processor = 960.195 Mbytes
    Step    Atoms         KinEng            CPU 
11934140      727     0.75859745              0 
12139901      709       0.708438      2122.8665 
Loop time of 2122.87 on 40 procs for 205761 steps with 709 atoms, finish time Mon Dec 26 07:27:22 2022


Pair  time (%) = 0.413351 (0.0194713)
Neigh time (%) = 12.9462 (0.609845)
Comm  time (%) = 21.9646 (1.03467)
Outpt time (%) = 0.000338692 (1.59545e-05)
Other time (%) = 2087.54 (98.336)

Nlocal:    17.725 ave 230 max 0 min
Histogram: 33 3 2 0 0 0 0 0 1 1
Nghost:    3.325 ave 41 max 0 min
Histogram: 36 0 0 0 2 0 0 0 0 2
Neighs:    0.625 ave 9 max 0 min
Histogram: 34 1 2 0 0 1 1 0 0 1

Total # of neighbors = 25
Ave neighs/atom = 0.0352609
Neighbor list builds = 15633
Dangerous builds = 705
write_dump all custom dump.atom_info_ac_* id type x y z radius vx vy vz density #
run 205761
Setting up run at Mon Dec 26 07:27:23 2022

Memory usage per processor = 960.195 Mbytes
    Step    Atoms         KinEng            CPU 
12139901      709       0.708438              0 
12345662      684     0.60603389      2119.8182 
Loop time of 2119.82 on 40 procs for 205761 steps with 684 atoms, finish time Mon Dec 26 08:02:42 2022


Pair  time (%) = 0.412684 (0.0194679)
Neigh time (%) = 12.6542 (0.596946)
Comm  time (%) = 23.6875 (1.11743)
Outpt time (%) = 0.000599542 (2.82827e-05)
Other time (%) = 2083.06 (98.2661)

Nlocal:    17.1 ave 221 max 0 min
Histogram: 33 3 2 0 0 0 0 0 0 2
Nghost:    3.225 ave 44 max 0 min
Histogram: 36 0 0 1 1 0 0 1 0 1
Neighs:    0.675 ave 12 max 0 min
Histogram: 38 0 0 0 0 0 0 0 0 2

Total # of neighbors = 27
Ave neighs/atom = 0.0394737
Neighbor list builds = 15335
Dangerous builds = 2188
write_dump all custom dump.atom_info_ac_* id type x y z radius vx vy vz density #
run 205761
Setting up run at Mon Dec 26 08:02:42 2022

Memory usage per processor = 960.195 Mbytes
    Step    Atoms         KinEng            CPU 
12345662      684     0.60603389              0 
12551423      667     0.76209156      2131.7408 
Loop time of 2131.74 on 40 procs for 205761 steps with 667 atoms, finish time Mon Dec 26 08:38:14 2022


Pair  time (%) = 0.409889 (0.0192279)
Neigh time (%) = 12.8561 (0.603078)
Comm  time (%) = 23.472 (1.10107)
Outpt time (%) = 0.000401089 (1.88151e-05)
Other time (%) = 2095 (98.2766)

Nlocal:    16.675 ave 218 max 0 min
Histogram: 32 4 2 0 0 0 0 0 0 2
Nghost:    3.4 ave 43 max 0 min
Histogram: 36 0 0 1 0 1 0 0 1 1
Neighs:    0.725 ave 13 max 0 min
Histogram: 37 0 1 0 0 0 0 0 1 1

Total # of neighbors = 29
Ave neighs/atom = 0.0434783
Neighbor list builds = 15528
Dangerous builds = 725
write_dump all custom dump.atom_info_ac_* id type x y z radius vx vy vz density #
run 205761
Setting up run at Mon Dec 26 08:38:14 2022

Memory usage per processor = 960.195 Mbytes
    Step    Atoms         KinEng            CPU 
12551423      667     0.76209156              0 
12757184      656     0.81972269      2152.0865 
Loop time of 2152.09 on 40 procs for 205761 steps with 656 atoms, finish time Mon Dec 26 09:14:06 2022


Pair  time (%) = 0.417289 (0.01939)
Neigh time (%) = 15.8385 (0.735959)
Comm  time (%) = 26.2357 (1.21908)
Outpt time (%) = 0.000570221 (2.64962e-05)
Other time (%) = 2109.59 (98.0255)

Nlocal:    16.4 ave 212 max 0 min
Histogram: 32 4 2 0 0 0 0 0 0 2
Nghost:    3.55 ave 47 max 0 min
Histogram: 34 2 1 0 0 1 0 0 1 1
Neighs:    0.625 ave 15 max 0 min
Histogram: 37 0 1 1 0 0 0 0 0 1

Total # of neighbors = 25
Ave neighs/atom = 0.0381098
Neighbor list builds = 19143
Dangerous builds = 538
write_dump all custom dump.atom_info_ac_* id type x y z radius vx vy vz density #
run 205761
Setting up run at Mon Dec 26 09:14:06 2022

Memory usage per processor = 960.195 Mbytes
    Step    Atoms         KinEng            CPU 
12757184      656     0.81972269              0 
12962945      640     0.64516707      2123.8799 
Loop time of 2123.88 on 40 procs for 205761 steps with 640 atoms, finish time Mon Dec 26 09:49:30 2022


Pair  time (%) = 0.411195 (0.0193605)
Neigh time (%) = 13.2441 (0.623579)
Comm  time (%) = 22.5356 (1.06106)
Outpt time (%) = 0.000328044 (1.54455e-05)
Other time (%) = 2087.69 (98.296)

Nlocal:    16 ave 197 max 0 min
Histogram: 32 4 2 0 0 0 0 0 0 2
Nghost:    3.275 ave 41 max 0 min
Histogram: 36 0 0 1 0 1 0 0 1 1
Neighs:    0.6 ave 11 max 0 min
Histogram: 37 0 1 0 0 0 1 0 0 1

Total # of neighbors = 24
Ave neighs/atom = 0.0375
Neighbor list builds = 15996
Dangerous builds = 437
write_dump all custom dump.atom_info_ac_* id type x y z radius vx vy vz density #
run 205761
Setting up run at Mon Dec 26 09:49:30 2022

Memory usage per processor = 960.195 Mbytes
    Step    Atoms         KinEng            CPU 
12962945      640     0.64516707              0 
13168706      635     0.47772867       2118.334 
Loop time of 2118.33 on 40 procs for 205761 steps with 635 atoms, finish time Mon Dec 26 10:24:49 2022


Pair  time (%) = 0.404983 (0.019118)
Neigh time (%) = 11.1479 (0.526259)
Comm  time (%) = 20.578 (0.971423)
Outpt time (%) = 0.000511578 (2.415e-05)
Other time (%) = 2086.2 (98.4832)

Nlocal:    15.875 ave 193 max 0 min
Histogram: 32 3 3 0 0 0 0 0 0 2
Nghost:    3.175 ave 39 max 0 min
Histogram: 35 1 0 0 1 1 0 0 1 1
Neighs:    0.625 ave 9 max 0 min
Histogram: 34 1 1 2 0 0 0 1 0 1

Total # of neighbors = 25
Ave neighs/atom = 0.0393701
Neighbor list builds = 13425
Dangerous builds = 3
write_dump all custom dump.atom_info_ac_* id type x y z radius vx vy vz density #
run 205761
Setting up run at Mon Dec 26 10:24:49 2022

Memory usage per processor = 960.195 Mbytes
    Step    Atoms         KinEng            CPU 
13168706      635     0.47772867              0 
13374467      621     0.88930652      2115.9391 
Loop time of 2115.94 on 40 procs for 205761 steps with 621 atoms, finish time Mon Dec 26 11:00:05 2022


Pair  time (%) = 0.407024 (0.0192361)
Neigh time (%) = 12.4471 (0.588254)
Comm  time (%) = 22.7142 (1.07348)
Outpt time (%) = 0.00381682 (0.000180384)
Other time (%) = 2080.37 (98.3188)

Nlocal:    15.525 ave 189 max 0 min
Histogram: 33 3 1 1 0 0 0 0 0 2
Nghost:    3.175 ave 35 max 0 min
Histogram: 35 1 0 0 0 1 0 1 1 1
Neighs:    0.6 ave 11 max 0 min
Histogram: 35 3 0 0 0 0 1 0 0 1

Total # of neighbors = 24
Ave neighs/atom = 0.0386473
Neighbor list builds = 15021
Dangerous builds = 731
write_dump all custom dump.atom_info_ac_* id type x y z radius vx vy vz density #
run 205761
Setting up run at Mon Dec 26 11:00:05 2022

Memory usage per processor = 960.195 Mbytes
    Step    Atoms         KinEng            CPU 
13374467      621     0.88930652              0 
13580228      605     0.60945719      2138.5082 
Loop time of 2138.51 on 40 procs for 205761 steps with 605 atoms, finish time Mon Dec 26 11:35:43 2022


Pair  time (%) = 0.413571 (0.0193392)
Neigh time (%) = 14.2964 (0.66852)
Comm  time (%) = 21.7365 (1.01643)
Outpt time (%) = 0.000521457 (2.43842e-05)
Other time (%) = 2102.06 (98.2957)

Nlocal:    15.125 ave 187 max 0 min
Histogram: 32 4 2 0 0 0 0 0 0 2
Nghost:    3.525 ave 39 max 0 min
Histogram: 35 1 0 0 1 0 0 1 0 2
Neighs:    0.725 ave 12 max 0 min
Histogram: 35 1 1 0 1 1 0 0 0 1

Total # of neighbors = 29
Ave neighs/atom = 0.0479339
Neighbor list builds = 17340
Dangerous builds = 1332
write_dump all custom dump.atom_info_ac_* id type x y z radius vx vy vz density #
run 205761
Setting up run at Mon Dec 26 11:35:43 2022

Memory usage per processor = 960.195 Mbytes
    Step    Atoms         KinEng            CPU 
13580228      605     0.60945719              0 
13785989      591     0.73578817      2117.1513 
Loop time of 2117.15 on 40 procs for 205761 steps with 591 atoms, finish time Mon Dec 26 12:11:01 2022


Pair  time (%) = 0.41185 (0.019453)
Neigh time (%) = 12.4812 (0.589526)
Comm  time (%) = 16.7298 (0.790205)
Outpt time (%) = 0.00057207 (2.70207e-05)
Other time (%) = 2087.53 (98.6008)

Nlocal:    14.775 ave 185 max 0 min
Histogram: 32 3 3 0 0 0 0 0 0 2
Nghost:    3.075 ave 38 max 0 min
Histogram: 35 1 0 0 1 0 1 1 0 1
Neighs:    0.425 ave 9 max 0 min
Histogram: 33 4 2 0 0 0 0 0 0 1

Total # of neighbors = 17
Ave neighs/atom = 0.0287648
Neighbor list builds = 15033
Dangerous builds = 11
write_dump all custom dump.atom_info_ac_* id type x y z radius vx vy vz density #
run 205761
Setting up run at Mon Dec 26 12:11:01 2022

Memory usage per processor = 960.195 Mbytes
    Step    Atoms         KinEng            CPU 
13785989      591     0.73578817              0 
13991750      581      1.1980061      2128.1766 
Loop time of 2128.18 on 40 procs for 205761 steps with 581 atoms, finish time Mon Dec 26 12:46:29 2022


Pair  time (%) = 0.407552 (0.0191503)
Neigh time (%) = 12.3269 (0.579224)
Comm  time (%) = 19.4282 (0.912903)
Outpt time (%) = 9.72554e-05 (4.56989e-06)
Other time (%) = 2096.01 (98.4887)

Nlocal:    14.525 ave 182 max 0 min
Histogram: 33 3 2 0 0 0 0 0 0 2
Nghost:    3.025 ave 32 max 0 min
Histogram: 35 1 0 0 1 0 0 0 1 2
Neighs:    0.675 ave 14 max 0 min
Histogram: 36 1 1 0 0 1 0 0 0 1

Total # of neighbors = 27
Ave neighs/atom = 0.0464716
Neighbor list builds = 14833
Dangerous builds = 311
write_dump all custom dump.atom_info_ac_* id type x y z radius vx vy vz density #
run 205761
Setting up run at Mon Dec 26 12:46:29 2022

Memory usage per processor = 960.195 Mbytes
    Step    Atoms         KinEng            CPU 
13991750      581      1.1980061              0 
14197511      560     0.44185968      2119.7821 
Loop time of 2119.78 on 40 procs for 205761 steps with 560 atoms, finish time Mon Dec 26 13:21:49 2022


Pair  time (%) = 0.404894 (0.0191007)
Neigh time (%) = 12.7261 (0.600349)
Comm  time (%) = 24.3502 (1.14871)
Outpt time (%) = 0.000535845 (2.52783e-05)
Other time (%) = 2082.3 (98.2318)

Nlocal:    14 ave 181 max 0 min
Histogram: 33 3 2 0 0 0 0 0 1 1
Nghost:    2.75 ave 29 max 0 min
Histogram: 34 2 0 0 0 1 0 0 2 1
Neighs:    0.55 ave 14 max 0 min
Histogram: 37 1 0 0 1 0 0 0 0 1

Total # of neighbors = 22
Ave neighs/atom = 0.0392857
Neighbor list builds = 15402
Dangerous builds = 1339
write_dump all custom dump.atom_info_ac_* id type x y z radius vx vy vz density #
run 205761
Setting up run at Mon Dec 26 13:21:49 2022

Memory usage per processor = 960.195 Mbytes
    Step    Atoms         KinEng            CPU 
14197511      560     0.44185968              0 
14403272      549     0.57502694      2101.0089 
Loop time of 2101.01 on 40 procs for 205761 steps with 549 atoms, finish time Mon Dec 26 13:56:50 2022


Pair  time (%) = 0.397156 (0.0189031)
Neigh time (%) = 10.0472 (0.478209)
Comm  time (%) = 17.8816 (0.851095)
Outpt time (%) = 0.000366818 (1.74591e-05)
Other time (%) = 2072.68 (98.6518)

Nlocal:    13.725 ave 175 max 0 min
Histogram: 32 4 2 0 0 0 0 0 1 1
Nghost:    2.75 ave 31 max 0 min
Histogram: 35 1 0 0 1 0 0 1 0 2
Neighs:    0.425 ave 11 max 0 min
Histogram: 38 1 0 0 0 0 0 0 0 1

Total # of neighbors = 17
Ave neighs/atom = 0.0309654
Neighbor list builds = 12106
Dangerous builds = 565
write_dump all custom dump.atom_info_ac_* id type x y z radius vx vy vz density #
run 205761
Setting up run at Mon Dec 26 13:56:50 2022

Memory usage per processor = 960.195 Mbytes
    Step    Atoms         KinEng            CPU 
14403272      549     0.57502694              0 
14609033      535     0.61598147      2170.7167 
Loop time of 2170.72 on 40 procs for 205761 steps with 535 atoms, finish time Mon Dec 26 14:33:01 2022


Pair  time (%) = 0.419453 (0.0193232)
Neigh time (%) = 17.955 (0.827146)
Comm  time (%) = 22.2168 (1.02348)
Outpt time (%) = 0.000645416 (2.97329e-05)
Other time (%) = 2130.12 (98.13)

Nlocal:    13.375 ave 171 max 0 min
Histogram: 32 5 1 0 0 0 0 0 0 2
Nghost:    2.5 ave 31 max 0 min
Histogram: 35 1 0 1 0 1 0 0 1 1
Neighs:    0.55 ave 11 max 0 min
Histogram: 38 0 0 0 0 1 0 0 0 1

Total # of neighbors = 22
Ave neighs/atom = 0.0411215
Neighbor list builds = 21604
Dangerous builds = 1
write_dump all custom dump.atom_info_ac_* id type x y z radius vx vy vz density #
run 205761
Setting up run at Mon Dec 26 14:33:01 2022

Memory usage per processor = 960.195 Mbytes
    Step    Atoms         KinEng            CPU 
14609033      535     0.61598147              0 
14814794      525     0.69667784      2134.9156 
Loop time of 2134.92 on 40 procs for 205761 steps with 525 atoms, finish time Mon Dec 26 15:08:35 2022


Pair  time (%) = 0.40354 (0.0189019)
Neigh time (%) = 14.0009 (0.655804)
Comm  time (%) = 24.2763 (1.13711)
Outpt time (%) = 0.00409772 (0.000191938)
Other time (%) = 2096.23 (98.188)

Nlocal:    13.125 ave 163 max 0 min
Histogram: 32 4 2 0 0 0 0 0 0 2
Nghost:    2.4 ave 28 max 0 min
Histogram: 33 3 0 1 0 0 1 0 1 1
Neighs:    0.4 ave 10 max 0 min
Histogram: 37 1 0 0 0 1 0 0 0 1

Total # of neighbors = 16
Ave neighs/atom = 0.0304762
Neighbor list builds = 16834
Dangerous builds = 592
write_dump all custom dump.atom_info_ac_* id type x y z radius vx vy vz density #
run 205761
Setting up run at Mon Dec 26 15:08:36 2022

Memory usage per processor = 960.195 Mbytes
    Step    Atoms         KinEng            CPU 
14814794      525     0.69667784              0 
15020555      517     0.58228996      2111.4271 
Loop time of 2111.43 on 40 procs for 205761 steps with 517 atoms, finish time Mon Dec 26 15:43:47 2022


Pair  time (%) = 0.405204 (0.019191)
Neigh time (%) = 12.1342 (0.574693)
Comm  time (%) = 18.1516 (0.859685)
Outpt time (%) = 0.000575581 (2.72603e-05)
Other time (%) = 2080.74 (98.5464)

Nlocal:    12.925 ave 162 max 0 min
Histogram: 34 1 2 1 0 0 0 0 0 2
Nghost:    2.175 ave 26 max 0 min
Histogram: 36 0 0 1 0 0 0 0 2 1
Neighs:    0.375 ave 6 max 0 min
Histogram: 36 1 0 0 0 1 0 0 1 1

Total # of neighbors = 15
Ave neighs/atom = 0.0290135
Neighbor list builds = 14572
Dangerous builds = 373
write_dump all custom dump.atom_info_ac_* id type x y z radius vx vy vz density #
run 205761
Setting up run at Mon Dec 26 15:43:47 2022

Memory usage per processor = 960.195 Mbytes
    Step    Atoms         KinEng            CPU 
15020555      517     0.58228996              0 
15226316      506     0.53737072      2134.2728 
Loop time of 2134.27 on 40 procs for 205761 steps with 506 atoms, finish time Mon Dec 26 16:19:21 2022


Pair  time (%) = 0.402429 (0.0188555)
Neigh time (%) = 12.4869 (0.585064)
Comm  time (%) = 20.2796 (0.950189)
Outpt time (%) = 0.000383751 (1.79804e-05)
Other time (%) = 2101.1 (98.4459)

Nlocal:    12.65 ave 161 max 0 min
Histogram: 33 3 2 0 0 0 0 0 0 2
Nghost:    2.275 ave 25 max 0 min
Histogram: 36 0 0 0 1 0 0 0 1 2
Neighs:    0.5 ave 8 max 0 min
Histogram: 35 1 2 0 0 0 0 0 1 1

Total # of neighbors = 20
Ave neighs/atom = 0.0395257
Neighbor list builds = 15006
Dangerous builds = 314
write_dump all custom dump.atom_info_ac_* id type x y z radius vx vy vz density #
run 205761
Setting up run at Mon Dec 26 16:19:21 2022

Memory usage per processor = 960.195 Mbytes
    Step    Atoms         KinEng            CPU 
15226316      506     0.53737072              0 
15432077      499     0.55860183      2120.7032 
Loop time of 2120.7 on 40 procs for 205761 steps with 499 atoms, finish time Mon Dec 26 16:54:42 2022


Pair  time (%) = 0.404163 (0.019058)
Neigh time (%) = 12.7768 (0.602478)
Comm  time (%) = 20.1912 (0.952098)
Outpt time (%) = 0.000605259 (2.85405e-05)
Other time (%) = 2087.33 (98.4263)

Nlocal:    12.475 ave 158 max 0 min
Histogram: 33 2 3 0 0 0 0 0 0 2
Nghost:    2.25 ave 31 max 0 min
Histogram: 36 0 0 1 0 1 1 0 0 1
Neighs:    0.275 ave 6 max 0 min
Histogram: 36 2 0 0 0 1 0 0 0 1

Total # of neighbors = 11
Ave neighs/atom = 0.0220441
Neighbor list builds = 15332
Dangerous builds = 0
write_dump all custom dump.atom_info_ac_* id type x y z radius vx vy vz density #
run 205761
Setting up run at Mon Dec 26 16:54:42 2022

Memory usage per processor = 960.195 Mbytes
    Step    Atoms         KinEng            CPU 
15432077      499     0.55860183              0 
15637838      489     0.51129022      2124.4273 
Loop time of 2124.43 on 40 procs for 205761 steps with 489 atoms, finish time Mon Dec 26 17:30:07 2022


Pair  time (%) = 0.403251 (0.0189816)
Neigh time (%) = 13.1744 (0.62014)
Comm  time (%) = 19.9076 (0.937079)
Outpt time (%) = 0.00391911 (0.000184479)
Other time (%) = 2090.94 (98.4236)

Nlocal:    12.225 ave 156 max 0 min
Histogram: 32 4 2 0 0 0 0 0 0 2
Nghost:    2.25 ave 29 max 0 min
Histogram: 34 2 0 0 1 1 1 0 0 1
Neighs:    0.175 ave 4 max 0 min
Histogram: 37 0 1 0 0 1 0 0 0 1

Total # of neighbors = 7
Ave neighs/atom = 0.0143149
Neighbor list builds = 15860
Dangerous builds = 1122
write_dump all custom dump.atom_info_ac_* id type x y z radius vx vy vz density #
run 205761
Setting up run at Mon Dec 26 17:30:07 2022

Memory usage per processor = 960.195 Mbytes
    Step    Atoms         KinEng            CPU 
15637838      489     0.51129022              0 
15843599      481     0.74218212      2123.3499 
Loop time of 2123.35 on 40 procs for 205761 steps with 481 atoms, finish time Mon Dec 26 18:05:30 2022


Pair  time (%) = 0.400259 (0.0188503)
Neigh time (%) = 12.9539 (0.61007)
Comm  time (%) = 20.1316 (0.948106)
Outpt time (%) = 0.0135016 (0.000635863)
Other time (%) = 2089.85 (98.4223)

Nlocal:    12.025 ave 152 max 0 min
Histogram: 32 4 2 0 0 0 0 0 0 2
Nghost:    2.4 ave 32 max 0 min
Histogram: 35 1 0 0 2 0 1 0 0 1
Neighs:    0.35 ave 6 max 0 min
Histogram: 35 2 0 1 0 0 1 0 0 1

Total # of neighbors = 14
Ave neighs/atom = 0.029106
Neighbor list builds = 15567
Dangerous builds = 3
write_dump all custom dump.atom_info_ac_* id type x y z radius vx vy vz density #
run 205761
Setting up run at Mon Dec 26 18:05:30 2022

Memory usage per processor = 960.195 Mbytes
    Step    Atoms         KinEng            CPU 
15843599      481     0.74218212              0 
16049360      468      0.6073048      2126.2515 
Loop time of 2126.25 on 40 procs for 205761 steps with 468 atoms, finish time Mon Dec 26 18:40:56 2022


Pair  time (%) = 0.399552 (0.0187914)
Neigh time (%) = 13.0889 (0.615587)
Comm  time (%) = 21.1787 (0.996059)
Outpt time (%) = 0.000587924 (2.76507e-05)
Other time (%) = 2091.58 (98.3695)

Nlocal:    11.7 ave 150 max 0 min
Histogram: 32 4 2 0 0 0 0 0 0 2
Nghost:    2.425 ave 27 max 0 min
Histogram: 34 2 0 0 1 1 0 0 1 1
Neighs:    0.3 ave 5 max 0 min
Histogram: 35 0 2 0 1 0 1 0 0 1

Total # of neighbors = 12
Ave neighs/atom = 0.025641
Neighbor list builds = 15784
Dangerous builds = 874
write_dump all custom dump.atom_info_ac_* id type x y z radius vx vy vz density #
run 205761
Setting up run at Mon Dec 26 18:40:56 2022

Memory usage per processor = 960.195 Mbytes
    Step    Atoms         KinEng            CPU 
16049360      468      0.6073048              0 
16255121      462     0.55927414      2107.2941 
Loop time of 2107.29 on 40 procs for 205761 steps with 462 atoms, finish time Mon Dec 26 19:16:04 2022


Pair  time (%) = 0.395625 (0.0187741)
Neigh time (%) = 11.2202 (0.532445)
Comm  time (%) = 17.0731 (0.81019)
Outpt time (%) = 0.000332303 (1.57692e-05)
Other time (%) = 2078.61 (98.6386)

Nlocal:    11.55 ave 152 max 0 min
Histogram: 34 2 2 0 0 0 0 0 1 1
Nghost:    2.525 ave 30 max 0 min
Histogram: 34 2 0 0 0 1 1 0 1 1
Neighs:    0.4 ave 9 max 0 min
Histogram: 36 1 0 2 0 0 0 0 0 1

Total # of neighbors = 16
Ave neighs/atom = 0.034632
Neighbor list builds = 13532
Dangerous builds = 54
write_dump all custom dump.atom_info_ac_* id type x y z radius vx vy vz density #
run 205761
Setting up run at Mon Dec 26 19:16:04 2022

Memory usage per processor = 960.195 Mbytes
    Step    Atoms         KinEng            CPU 
16255121      462     0.55927414              0 
16460882      451     0.68798114      2122.4092 
Loop time of 2122.41 on 40 procs for 205761 steps with 451 atoms, finish time Mon Dec 26 19:51:26 2022


Pair  time (%) = 0.405952 (0.0191269)
Neigh time (%) = 13.234 (0.623538)
Comm  time (%) = 14.0877 (0.663758)
Outpt time (%) = 0.00425656 (0.000200553)
Other time (%) = 2094.68 (98.6934)

Nlocal:    11.275 ave 148 max 0 min
Histogram: 32 6 0 0 0 0 0 0 0 2
Nghost:    2.7 ave 33 max 0 min
Histogram: 36 0 0 0 0 1 1 0 1 1
Neighs:    0.4 ave 9 max 0 min
Histogram: 35 2 1 1 0 0 0 0 0 1

Total # of neighbors = 16
[...]
29218094      191     0.27409341      2104.7771 
Loop time of 2104.78 on 40 procs for 205761 steps with 191 atoms, finish time Wed Dec 28 08:22:40 2022


Pair  time (%) = 0.381608 (0.0181305)
Neigh time (%) = 10.6608 (0.506504)
Comm  time (%) = 12.2458 (0.581812)
Outpt time (%) = 0.000240455 (1.14242e-05)
Other time (%) = 2081.49 (98.8935)

Nlocal:    4.775 ave 74 max 0 min
Histogram: 36 2 0 0 0 0 0 0 1 1
Nghost:    1.025 ave 16 max 0 min
Histogram: 34 2 1 0 1 1 0 0 0 1
Neighs:    0.05 ave 2 max 0 min
Histogram: 39 0 0 0 0 0 0 0 0 1

Total # of neighbors = 2
Ave neighs/atom = 0.0104712
Neighbor list builds = 12825
Dangerous builds = 45
write_dump all custom dump.atom_info_ac_* id type x y z radius vx vy vz density #
run 205761
Setting up run at Wed Dec 28 08:22:40 2022

Memory usage per processor = 960.195 Mbytes
    Step    Atoms         KinEng            CPU 
29218094      191     0.27409341              0 
29423855      187      0.1983593      2098.2187 
Loop time of 2098.22 on 40 procs for 205761 steps with 187 atoms, finish time Wed Dec 28 08:57:38 2022


Pair  time (%) = 0.380596 (0.018139)
Neigh time (%) = 10.5523 (0.502919)
Comm  time (%) = 12.0273 (0.573213)
Outpt time (%) = 0.000645679 (3.07727e-05)
Other time (%) = 2075.26 (98.9057)

Nlocal:    4.675 ave 69 max 0 min
Histogram: 35 3 0 0 0 0 0 0 0 2
Nghost:    1 ave 12 max 0 min
Histogram: 33 3 0 1 0 1 0 0 1 1
Neighs:    0.05 ave 2 max 0 min
Histogram: 39 0 0 0 0 0 0 0 0 1

Total # of neighbors = 2
Ave neighs/atom = 0.0106952
Neighbor list builds = 12723
Dangerous builds = 48
write_dump all custom dump.atom_info_ac_* id type x y z radius vx vy vz density #
run 205761
Setting up run at Wed Dec 28 08:57:38 2022

Memory usage per processor = 960.195 Mbytes
    Step    Atoms         KinEng            CPU 
29423855      187      0.1983593              0 
29629616      187     0.32544574      2105.4511 
Loop time of 2105.45 on 40 procs for 205761 steps with 187 atoms, finish time Wed Dec 28 09:32:44 2022


Pair  time (%) = 0.38175 (0.0181315)
Neigh time (%) = 11.7184 (0.556572)
Comm  time (%) = 14.2493 (0.676779)
Outpt time (%) = 0.000244296 (1.1603e-05)
Other time (%) = 2079.1 (98.7485)

Nlocal:    4.675 ave 68 max 0 min
Histogram: 35 3 0 0 0 0 0 0 0 2
Nghost:    0.8 ave 11 max 0 min
Histogram: 34 0 2 1 1 1 0 0 0 1
Neighs:    0.075 ave 2 max 0 min
Histogram: 38 0 0 0 0 1 0 0 0 1

Total # of neighbors = 3
Ave neighs/atom = 0.0160428
Neighbor list builds = 14090
Dangerous builds = 0
write_dump all custom dump.atom_info_ac_* id type x y z radius vx vy vz density #
run 205761
Setting up run at Wed Dec 28 09:32:44 2022

Memory usage per processor = 960.195 Mbytes
    Step    Atoms         KinEng            CPU 
29629616      187     0.32544574              0 
29835377      185      0.1468369      2106.5828 
Loop time of 2106.58 on 40 procs for 205761 steps with 185 atoms, finish time Wed Dec 28 10:07:50 2022


Pair  time (%) = 0.385454 (0.0182976)
Neigh time (%) = 11.848 (0.562429)
Comm  time (%) = 12.7616 (0.605798)
Outpt time (%) = 0.000580068 (2.75359e-05)
Other time (%) = 2081.59 (98.8134)

Nlocal:    4.625 ave 68 max 0 min
Histogram: 35 3 0 0 0 0 0 0 0 2
Nghost:    0.875 ave 9 max 0 min
Histogram: 32 2 0 1 2 1 0 0 1 1
Neighs:    0.15 ave 4 max 0 min
Histogram: 37 0 2 0 0 0 0 0 0 1

Total # of neighbors = 6
Ave neighs/atom = 0.0324324
Neighbor list builds = 14242
Dangerous builds = 27
write_dump all custom dump.atom_info_ac_* id type x y z radius vx vy vz density #
run 205761
Setting up run at Wed Dec 28 10:07:50 2022

Memory usage per processor = 960.195 Mbytes
    Step    Atoms         KinEng            CPU 
29835377      185      0.1468369              0 
30041138      184     0.18520527      2104.2472 
Loop time of 2104.25 on 40 procs for 205761 steps with 184 atoms, finish time Wed Dec 28 10:42:54 2022


Pair  time (%) = 0.382112 (0.0181591)
Neigh time (%) = 11.0241 (0.523897)
Comm  time (%) = 12.5587 (0.596825)
Outpt time (%) = 0.000610112 (2.89943e-05)
Other time (%) = 2080.28 (98.8611)

Nlocal:    4.6 ave 69 max 0 min
Histogram: 35 3 0 0 0 0 0 0 0 2
Nghost:    0.725 ave 9 max 0 min
Histogram: 31 3 1 2 1 1 0 0 0 1
Neighs:    0.075 ave 3 max 0 min
Histogram: 39 0 0 0 0 0 0 0 0 1

Total # of neighbors = 3
Ave neighs/atom = 0.0163043
Neighbor list builds = 13257
Dangerous builds = 1
write_dump all custom dump.atom_info_ac_* id type x y z radius vx vy vz density #
run 205761
Setting up run at Wed Dec 28 10:42:55 2022

Memory usage per processor = 960.195 Mbytes
    Step    Atoms         KinEng            CPU 
30041138      184     0.18520527              0 
30246899      180     0.21931058      2095.3354 
Loop time of 2095.34 on 40 procs for 205761 steps with 180 atoms, finish time Wed Dec 28 11:17:50 2022


Pair  time (%) = 0.380661 (0.0181671)
Neigh time (%) = 10.6936 (0.510352)
Comm  time (%) = 10.7762 (0.514293)
Outpt time (%) = 0.000284176 (1.35623e-05)
Other time (%) = 2073.48 (98.9572)

Nlocal:    4.5 ave 65 max 0 min
Histogram: 35 3 0 0 0 0 0 0 0 2
Nghost:    0.775 ave 10 max 0 min
Histogram: 31 4 1 2 0 0 0 0 0 2
Neighs:    0.1 ave 3 max 0 min
Histogram: 38 0 0 1 0 0 0 0 0 1

Total # of neighbors = 4
Ave neighs/atom = 0.0222222
Neighbor list builds = 12854
Dangerous builds = 180
write_dump all custom dump.atom_info_ac_* id type x y z radius vx vy vz density #
run 205761
Setting up run at Wed Dec 28 11:18:01 2022

Memory usage per processor = 960.195 Mbytes
    Step    Atoms         KinEng            CPU 
30246899      180     0.21931058              0 
30452660      179     0.16387101      2103.9783 
Loop time of 2103.99 on 40 procs for 205761 steps with 179 atoms, finish time Wed Dec 28 11:53:05 2022


Pair  time (%) = 0.384944 (0.0182959)
Neigh time (%) = 11.2661 (0.535462)
Comm  time (%) = 8.32526 (0.39569)
Outpt time (%) = 0.0220531 (0.00104816)
Other time (%) = 2083.99 (99.0495)

Nlocal:    4.475 ave 68 max 0 min
Histogram: 35 3 0 0 0 0 0 0 1 1
Nghost:    1 ave 13 max 0 min
Histogram: 35 0 1 1 1 0 0 0 1 1
Neighs:    0.125 ave 3 max 0 min
Histogram: 38 0 0 0 0 0 1 0 0 1

Total # of neighbors = 5
Ave neighs/atom = 0.027933
Neighbor list builds = 13563
Dangerous builds = 0
write_dump all custom dump.atom_info_ac_* id type x y z radius vx vy vz density #
run 205761
Setting up run at Wed Dec 28 11:53:05 2022

Memory usage per processor = 960.195 Mbytes
    Step    Atoms         KinEng            CPU 
30452660      179     0.16387101              0 
30658421      178     0.18098303       2098.521 
Loop time of 2098.52 on 40 procs for 205761 steps with 178 atoms, finish time Wed Dec 28 12:28:04 2022


Pair  time (%) = 0.37802 (0.0180137)
Neigh time (%) = 9.87625 (0.470629)
Comm  time (%) = 10.5394 (0.502229)
Outpt time (%) = 0.000322224 (1.53548e-05)
Other time (%) = 2077.73 (99.0091)

Nlocal:    4.45 ave 72 max 0 min
Histogram: 35 3 0 0 0 0 0 0 1 1
Nghost:    0.875 ave 12 max 0 min
Histogram: 34 1 2 0 1 0 1 0 0 1
Neighs:    0.15 ave 3 max 0 min
Histogram: 38 0 0 0 0 0 0 0 0 2

Total # of neighbors = 6
Ave neighs/atom = 0.0337079
Neighbor list builds = 11872
Dangerous builds = 0
write_dump all custom dump.atom_info_ac_* id type x y z radius vx vy vz density #
run 205761
Setting up run at Wed Dec 28 12:28:04 2022

Memory usage per processor = 960.195 Mbytes
    Step    Atoms         KinEng            CPU 
30658421      178     0.18098303              0 
30864182      176     0.26076646      2110.2516 
Loop time of 2110.25 on 40 procs for 205761 steps with 176 atoms, finish time Wed Dec 28 13:03:14 2022


Pair  time (%) = 0.381521 (0.0180794)
Neigh time (%) = 11.2162 (0.531508)
Comm  time (%) = 10.858 (0.514538)
Outpt time (%) = 0.000571531 (2.70835e-05)
Other time (%) = 2087.8 (98.9358)

Nlocal:    4.4 ave 71 max 0 min
Histogram: 37 1 0 0 0 0 0 0 1 1
Nghost:    0.825 ave 11 max 0 min
Histogram: 34 2 1 0 0 1 0 1 0 1
Neighs:    0.175 ave 4 max 0 min
Histogram: 38 0 0 0 0 0 0 1 0 1

Total # of neighbors = 7
Ave neighs/atom = 0.0397727
Neighbor list builds = 13479
Dangerous builds = 1
write_dump all custom dump.atom_info_ac_* id type x y z radius vx vy vz density #
run 205761
Setting up run at Wed Dec 28 13:03:14 2022

Memory usage per processor = 960.195 Mbytes
    Step    Atoms         KinEng            CPU 
30864182      176     0.26076646              0 
31069943      174     0.15617337      2191.3832 
Loop time of 2191.38 on 40 procs for 205761 steps with 174 atoms, finish time Wed Dec 28 13:39:46 2022


Pair  time (%) = 0.387039 (0.0176619)
Neigh time (%) = 12.0074 (0.547935)
Comm  time (%) = 7.13845 (0.325751)
Outpt time (%) = 0.000291115 (1.32845e-05)
Other time (%) = 2171.85 (99.1086)

Nlocal:    4.35 ave 72 max 0 min
Histogram: 37 1 0 0 0 0 0 0 1 1
Nghost:    0.775 ave 10 max 0 min
Histogram: 34 2 0 0 1 0 1 0 0 2
Neighs:    0.1 ave 3 max 0 min
Histogram: 38 0 0 1 0 0 0 0 0 1

Total # of neighbors = 4
Ave neighs/atom = 0.0229885
Neighbor list builds = 14452
Dangerous builds = 587
write_dump all custom dump.atom_info_ac_* id type x y z radius vx vy vz density #
run 205761
Setting up run at Wed Dec 28 13:39:46 2022

Memory usage per processor = 960.195 Mbytes
    Step    Atoms         KinEng            CPU 
31069943      174     0.15617337              0 
31275704      171     0.13332859       2129.762 
Loop time of 2129.76 on 40 procs for 205761 steps with 171 atoms, finish time Wed Dec 28 14:15:16 2022


Pair  time (%) = 0.390692 (0.0183444)
Neigh time (%) = 13.31 (0.624951)
Comm  time (%) = 7.4877 (0.351574)
Outpt time (%) = 0.000555081 (2.60631e-05)
Other time (%) = 2108.57 (99.0051)

Nlocal:    4.275 ave 71 max 0 min
Histogram: 37 1 0 0 0 0 0 0 1 1
Nghost:    0.55 ave 6 max 0 min
Histogram: 33 3 0 0 0 1 0 0 2 1
Neighs:    0.075 ave 3 max 0 min
Histogram: 39 0 0 0 0 0 0 0 0 1

Total # of neighbors = 3
Ave neighs/atom = 0.0175439
Neighbor list builds = 16001
Dangerous builds = 3
write_dump all custom dump.atom_info_ac_* id type x y z radius vx vy vz density #
run 205761
Setting up run at Wed Dec 28 14:15:16 2022

Memory usage per processor = 960.195 Mbytes
    Step    Atoms         KinEng            CPU 
31275704      171     0.13332859              0 
31481465      168     0.11778303      2102.6375 
Loop time of 2102.64 on 40 procs for 205761 steps with 168 atoms, finish time Wed Dec 28 14:50:19 2022


Pair  time (%) = 0.380721 (0.0181068)
Neigh time (%) = 10.1883 (0.484547)
Comm  time (%) = 6.34678 (0.301849)
Outpt time (%) = 0.000257506 (1.22468e-05)
Other time (%) = 2085.72 (99.1955)

Nlocal:    4.2 ave 71 max 0 min
Histogram: 37 1 0 0 0 0 0 0 1 1
Nghost:    0.575 ave 6 max 0 min
Histogram: 34 1 0 1 0 0 1 0 2 1
Neighs:    0.1 ave 2 max 0 min
Histogram: 37 0 0 0 0 2 0 0 0 1

Total # of neighbors = 4
Ave neighs/atom = 0.0238095
Neighbor list builds = 12248
Dangerous builds = 1
write_dump all custom dump.atom_info_ac_* id type x y z radius vx vy vz density #
run 205761
Setting up run at Wed Dec 28 14:50:19 2022

Memory usage per processor = 960.195 Mbytes
    Step    Atoms         KinEng            CPU 
31481465      168     0.11778303              0 
31687226      168     0.12490531      2118.2924 
Loop time of 2118.29 on 40 procs for 205761 steps with 168 atoms, finish time Wed Dec 28 15:25:37 2022


Pair  time (%) = 0.385837 (0.0182145)
Neigh time (%) = 12.1514 (0.573639)
Comm  time (%) = 7.40715 (0.349676)
Outpt time (%) = 0.000555546 (2.62261e-05)
Other time (%) = 2098.35 (99.0584)

Nlocal:    4.2 ave 70 max 0 min
Histogram: 36 2 0 0 0 0 0 0 1 1
Nghost:    0.575 ave 8 max 0 min
Histogram: 35 0 1 1 0 0 2 0 0 1
Neighs:    0.075 ave 3 max 0 min
Histogram: 39 0 0 0 0 0 0 0 0 1

Total # of neighbors = 3
Ave neighs/atom = 0.0178571
Neighbor list builds = 14595
Dangerous builds = 0
write_dump all custom dump.atom_info_ac_* id type x y z radius vx vy vz density #
run 205761
Setting up run at Wed Dec 28 15:25:37 2022

Memory usage per processor = 960.195 Mbytes
    Step    Atoms         KinEng            CPU 
31687226      168     0.12490531              0 
31892987      168     0.11816176      2093.1668 
Loop time of 2093.17 on 40 procs for 205761 steps with 168 atoms, finish time Wed Dec 28 16:00:30 2022


Pair  time (%) = 0.382252 (0.0182619)
Neigh time (%) = 10.3144 (0.492766)
Comm  time (%) = 8.04748 (0.384464)
Outpt time (%) = 0.000183132 (8.74906e-06)
Other time (%) = 2074.42 (99.1045)

Nlocal:    4.2 ave 72 max 0 min
Histogram: 37 1 0 0 0 0 0 1 0 1
Nghost:    0.5 ave 5 max 0 min
Histogram: 35 0 1 0 0 0 0 0 1 3
Neighs:    0.125 ave 5 max 0 min
Histogram: 39 0 0 0 0 0 0 0 0 1

Total # of neighbors = 5
Ave neighs/atom = 0.0297619
Neighbor list builds = 12397
Dangerous builds = 0
write_dump all custom dump.atom_info_ac_* id type x y z radius vx vy vz density #
run 205761
Setting up run at Wed Dec 28 16:00:30 2022

Memory usage per processor = 960.195 Mbytes
    Step    Atoms         KinEng            CPU 
31892987      168     0.11816176              0 
32098748      164     0.13112032      2088.0575 
Loop time of 2088.06 on 40 procs for 205761 steps with 164 atoms, finish time Wed Dec 28 16:35:18 2022


Pair  time (%) = 0.380647 (0.0182297)
Neigh time (%) = 9.59945 (0.459731)
Comm  time (%) = 6.95557 (0.333112)
Outpt time (%) = 0.000585831 (2.80563e-05)
Other time (%) = 2071.12 (99.1889)

Nlocal:    4.1 ave 74 max 0 min
Histogram: 37 1 0 0 0 0 0 1 0 1
Nghost:    0.575 ave 8 max 0 min
Histogram: 35 1 0 0 0 2 0 1 0 1
Neighs:    0.075 ave 3 max 0 min
Histogram: 39 0 0 0 0 0 0 0 0 1

Total # of neighbors = 3
Ave neighs/atom = 0.0182927
Neighbor list builds = 11551
Dangerous builds = 2
write_dump all custom dump.atom_info_ac_* id type x y z radius vx vy vz density #
run 205761
Setting up run at Wed Dec 28 16:35:18 2022

Memory usage per processor = 960.195 Mbytes
    Step    Atoms         KinEng            CPU 
32098748      164     0.13112032              0 
32304509      163      0.1784872      2088.9988 
Loop time of 2089.01 on 40 procs for 205761 steps with 163 atoms, finish time Wed Dec 28 17:10:07 2022


Pair  time (%) = 0.379371 (0.0181603)
Neigh time (%) = 8.83795 (0.423069)
Comm  time (%) = 5.69527 (0.27263)
Outpt time (%) = 0.0100287 (0.000480069)
Other time (%) = 2074.09 (99.2857)

Nlocal:    4.075 ave 73 max 0 min
Histogram: 37 1 0 0 0 0 0 1 0 1
Nghost:    0.6 ave 9 max 0 min
Histogram: 35 1 0 1 0 1 1 0 0 1
Neighs:    0.125 ave 5 max 0 min
Histogram: 39 0 0 0 0 0 0 0 0 1

Total # of neighbors = 5
Ave neighs/atom = 0.0306748
Neighbor list builds = 10624
Dangerous builds = 22
write_dump all custom dump.atom_info_ac_* id type x y z radius vx vy vz density #
run 205761
Setting up run at Wed Dec 28 17:10:07 2022

Memory usage per processor = 960.195 Mbytes
    Step    Atoms         KinEng            CPU 
32304509      163      0.1784872              0 
32510270      161     0.19291556      2084.1124 
Loop time of 2084.11 on 40 procs for 205761 steps with 161 atoms, finish time Wed Dec 28 17:44:52 2022


Pair  time (%) = 0.376594 (0.0180698)
Neigh time (%) = 8.78198 (0.421377)
Comm  time (%) = 4.86283 (0.233328)
Outpt time (%) = 0.000569795 (2.734e-05)
Other time (%) = 2070.09 (99.3272)

Nlocal:    4.025 ave 75 max 0 min
Histogram: 37 1 0 0 0 0 1 0 0 1
Nghost:    0.575 ave 7 max 0 min
Histogram: 35 1 0 0 0 1 0 1 1 1
Neighs:    0.1 ave 4 max 0 min
Histogram: 39 0 0 0 0 0 0 0 0 1

Total # of neighbors = 4
Ave neighs/atom = 0.0248447
Neighbor list builds = 10594
Dangerous builds = 0
write_dump all custom dump.atom_info_ac_* id type x y z radius vx vy vz density #
run 205761
Setting up run at Wed Dec 28 17:44:52 2022

Memory usage per processor = 960.195 Mbytes
    Step    Atoms         KinEng            CPU 
32510270      161     0.19291556              0 
32716031      161     0.19677085      2080.4623 
Loop time of 2080.46 on 40 procs for 205761 steps with 161 atoms, finish time Wed Dec 28 18:19:32 2022


Pair  time (%) = 0.375729 (0.0180599)
Neigh time (%) = 8.27056 (0.397535)
Comm  time (%) = 5.25078 (0.252385)
Outpt time (%) = 0.000625987 (3.00889e-05)
Other time (%) = 2066.57 (99.332)

Nlocal:    4.025 ave 75 max 0 min
Histogram: 36 2 0 0 0 0 1 0 0 1
Nghost:    0.6 ave 9 max 0 min
Histogram: 35 1 0 0 1 2 0 0 0 1
Neighs:    0.075 ave 2 max 0 min
Histogram: 38 0 0 0 0 1 0 0 0 1

Total # of neighbors = 3
Ave neighs/atom = 0.0186335
Neighbor list builds = 9936
Dangerous builds = 0
write_dump all custom dump.atom_info_ac_* id type x y z radius vx vy vz density #
run 205761
Setting up run at Wed Dec 28 18:19:32 2022

Memory usage per processor = 960.195 Mbytes
    Step    Atoms         KinEng            CPU 
32716031      161     0.19677085              0 
32921792      160     0.14896579      2072.5841 
Loop time of 2072.59 on 40 procs for 205761 steps with 160 atoms, finish time Wed Dec 28 18:54:05 2022


Pair  time (%) = 0.374515 (0.01807)
Neigh time (%) = 8.3137 (0.401127)
Comm  time (%) = 5.40797 (0.260929)
Outpt time (%) = 0.00036629 (1.76731e-05)
Other time (%) = 2058.49 (99.3199)

Nlocal:    4 ave 72 max 0 min
Histogram: 36 2 0 0 0 0 0 1 0 1
Nghost:    0.7 ave 9 max 0 min
Histogram: 33 3 0 0 0 2 1 0 0 1
Neighs:    0.075 ave 3 max 0 min
Histogram: 39 0 0 0 0 0 0 0 0 1

Total # of neighbors = 3
Ave neighs/atom = 0.01875
Neighbor list builds = 10004
Dangerous builds = 0
write_dump all custom dump.atom_info_ac_* id type x y z radius vx vy vz density #
run 205761
Setting up run at Wed Dec 28 18:54:05 2022

Memory usage per processor = 960.195 Mbytes
    Step    Atoms         KinEng            CPU 
32921792      160     0.14896579              0 
33127553      158     0.14484729      2093.5657 
Loop time of 2093.57 on 40 procs for 205761 steps with 158 atoms, finish time Wed Dec 28 19:28:59 2022


Pair  time (%) = 0.376315 (0.0179748)
Neigh time (%) = 9.10745 (0.435021)
Comm  time (%) = 7.61348 (0.363661)
Outpt time (%) = 0.000597622 (2.85457e-05)
Other time (%) = 2076.47 (99.1833)

Nlocal:    3.95 ave 72 max 0 min
Histogram: 38 0 0 0 0 0 0 1 0 1
Nghost:    0.65 ave 7 max 0 min
Histogram: 35 1 0 0 0 0 0 1 1 2
Neighs:    0.1 ave 4 max 0 min
Histogram: 39 0 0 0 0 0 0 0 0 1

Total # of neighbors = 4
Ave neighs/atom = 0.0253165
Neighbor list builds = 11002
Dangerous builds = 1
write_dump all custom dump.atom_info_ac_* id type x y z radius vx vy vz density #
run 205761
Setting up run at Wed Dec 28 19:28:59 2022

Memory usage per processor = 960.195 Mbytes
    Step    Atoms         KinEng            CPU 
33127553      158     0.14484729              0 
33333314      158     0.14422547      2078.4585 
Loop time of 2078.46 on 40 procs for 205761 steps with 158 atoms, finish time Wed Dec 28 20:03:37 2022


Pair  time (%) = 0.374062 (0.0179971)
Neigh time (%) = 8.14146 (0.391706)
Comm  time (%) = 7.0964 (0.341426)
Outpt time (%) = 0.000247528 (1.19092e-05)
Other time (%) = 2062.85 (99.2489)

Nlocal:    3.95 ave 70 max 0 min
Histogram: 37 1 0 0 0 0 0 1 0 1
Nghost:    0.7 ave 10 max 0 min
Histogram: 34 1 1 0 2 0 0 1 0 1
Neighs:    0.15 ave 5 max 0 min
Histogram: 38 0 1 0 0 0 0 0 0 1

Total # of neighbors = 6
Ave neighs/atom = 0.0379747
Neighbor list builds = 9798
Dangerous builds = 0
write_dump all custom dump.atom_info_ac_* id type x y z radius vx vy vz density #
run 205761
Setting up run at Wed Dec 28 20:03:37 2022

Memory usage per processor = 960.195 Mbytes
    Step    Atoms         KinEng            CPU 
33333314      158     0.14422547              0 
WARNING: Forced restart written (../output.cpp:427)
33511799      156     0.13483965       1808.799 
Loop time of 1808.8 on 40 procs for 205761 steps with 156 atoms, finish time Wed Dec 28 20:33:46 2022


Pair  time (%) = 0.323714 (0.0178966)
Neigh time (%) = 7.06047 (0.39034)
Comm  time (%) = 7.26769 (0.401796)
Outpt time (%) = 0.0524983 (0.00290238)
Other time (%) = 1794.09 (99.1871)

Nlocal:    3.9 ave 70 max 0 min
Histogram: 37 1 0 0 0 0 0 1 0 1
Nghost:    0.85 ave 10 max 0 min
Histogram: 30 5 1 0 1 1 0 0 1 1
Neighs:    0.15 ave 5 max 0 min
Histogram: 38 0 1 0 0 0 0 0 0 1

Total # of neighbors = 6
Ave neighs/atom = 0.0384615
Neighbor list builds = 8501
Dangerous builds = 1
