ITEM: TIMESTEP
7561682
ITEM: NUMBER OF ATOMS
379
ITEM: BOX BOUNDS ff ff ff
-0.15 0.15
-0.15 0.15
-0.15 0.15
ITEM: ATOMS id type x y z radius vx vy vz density 
269 1 -0.00442335 -0.0225207 -0.0680268 0.000847 -51.0358 4.54776 3.31674 2650 
380 1 -0.00193634 -0.0112891 -0.0676669 0.001312 -24.2228 -0.473747 0.692598 2650 
44 1 -0.0210407 -0.0405321 -0.0648528 0.000847 -59.562 1.77545 19.314 2650 
276 1 -0.0189891 -0.028518 -0.0650058 0.001312 -42.5118 -3.72008 12.4079 2650 
433 1 -0.0284064 -0.0161994 -0.061964 0.000847 -34.9808 3.36931 16.0268 2650 
118 1 -0.0358354 -0.0536812 -0.0586949 0.000233 -53.9557 -0.768895 32.9361 2650 
436 1 -0.0377561 -0.0615946 -0.0567277 0.000847 -25.5215 4.19093 16.2518 2650 
347 1 -0.0361218 -0.0493177 -0.0578009 0.000847 -22.0569 1.92097 13.7751 2650 
460 1 -0.0434674 -0.0408119 -0.0525178 0.000847 -33.358 -2.86794 27.5928 2650 
439 1 -0.0485266 -0.0288325 -0.0487252 0.000233 -7.69394 -0.893709 7.66033 2650 
424 1 -0.0462209 -0.00686127 -0.0501004 0.000847 19.9828 1.07134 -18.4209 2650 
248 1 -0.0490614 -0.0129303 -0.0481867 0.000233 -5.31839 -1.10055 5.41325 2650 
185 1 -0.0476587 -0.0169203 -0.0481064 0.001312 21.1101 -5.54503 -20.8964 2650 
378 1 -0.0573229 -0.00332161 -0.037991 0.000233 -5.52917 0.271297 8.34066 2650 
487 1 -0.0578575 -0.0311453 -0.0360404 0.000847 -9.48134 -5.07557 16.0385 2650 
266 1 -0.0618614 -0.0339281 -0.0286496 0.000847 -11.9773 1.28187 25.8445 2650 
402 1 -0.0633929 -0.0230282 -0.0266612 0.000233 -11.204 -4.45105 26.6393 2650 
337 1 -0.0674051 -0.0197124 -0.0136472 0.000233 -8.7204 -0.943096 43.0629 2650 
242 1 -0.0669028 -0.0341715 -0.0130904 0.000847 -2.5254 3.97953 12.8974 2650 
373 1 -0.0268431 -0.0375712 -0.0103631 0.000847 11.0166 16.8371 27.3996 2650 
287 1 -0.00852892 -0.000814218 -0.011322 0.000233 -0.0244942 -0.0167275 -0.0034175 2650 
85 1 -0.0104043 -0.0005607 -0.0109924 0.000847 0.0461843 -0.0338788 -0.0772385 2650 
449 1 -0.000785092 -0.000352597 -0.0107663 0.000847 -0.0237735 0.009141 -0.0578988 2650 
489 1 -0.0070289 -0.00326823 -0.00761854 0.000847 -0.0221485 -0.0161175 0.00803891 2650 
505 1 -0.00956433 -0.00260223 -0.00521338 0.000233 0.127168 -0.0735507 -0.0753626 2650 
125 1 -0.003357 -0.00279546 -0.006037 0.000847 0 -0.01175 0 2650 
192 1 -0.0687276 -0.055933 -0.00246298 0.000233 -0.0259021 -2.58516 0.722624 2650 
84 1 -0.004923 -0.000908464 -0.002038 0.000847 0 -0.01175 0 2650 
320 1 -0.0681773 -0.0518257 0.000125639 0.000847 0.0517673 -12.2858 27.8411 2650 
448 1 -0.068148 -0.0400665 0.00217578 0.000847 1.23807 -1.85673 38.7561 2650 
162 1 -0.0681698 -0.00464358 0.000568111 0.000847 0.104871 -2.76593 12.5813 2650 
120 1 -0.0676553 -0.00197947 0.00295188 0.001312 0.548757 0.25637 12.541 2650 
323 1 -0.008651 -0.000588464 0.002916 0.000233 0 -0.01175 0 2650 
509 1 -0.00925986 -0.00143043 0.00289676 8.4e-05 0.0460388 -0.063277 -0.0782142 2650 
218 1 -0.012593 -0.00320946 0.003611 0.000233 0 -0.01175 0 2650 
441 1 -0.014312 -0.000450464 0.004679 0.000233 0 -0.01175 0 2650 
302 1 -0.0115347 -0.000889247 0.00369143 0.001312 -0.0126622 -0.023474 -0.0235384 2650 
483 1 -0.0685327 -0.0526427 0.00727458 8.4e-05 2.84262 0.381781 26.7779 2650 
264 1 -0.003065 -0.00247046 0.00492 0.000847 0 -0.01175 0 2650 
78 1 -0.0151169 -0.00114462 0.00474896 0.000233 -0.0659219 0.00243137 -0.021731 2650 
384 1 -0.0110748 -0.0002062 0.00596967 0.000847 -0.0427505 -0.035014 0.0158307 2650 
274 1 -0.005863 -0.000675464 0.005228 0.000233 0 -0.01175 0 2650 
379 1 -0.013624 -0.00313948 0.00639937 8.4e-05 -0.103351 -0.123671 -0.114868 2650 
372 1 -0.0137263 -0.00236974 0.00815005 0.000847 -0.0421754 -0.0489852 -0.129685 2650 
108 1 -0.0114364 -0.00183755 0.00992463 0.001312 -0.108501 -0.0637673 -0.101882 2650 
41 1 -0.008377 -0.000401464 0.009542 8.4e-05 0 -0.01175 0 2650 
90 1 -0.0103182 -0.00416527 0.0126343 0.000233 -1.13267 -0.170447 1.44106 2650 
350 1 -0.001594 -0.00223846 0.011915 0.000233 0 -0.01175 0 2650 
458 1 -0.0661918 -0.0407802 0.0143837 0.001312 7.26833 -5.4908 33.4176 2650 
450 1 -0.0664678 -0.0100125 0.0151362 0.000847 -0.0252295 -0.375634 -0.111221 2650 
440 1 -0.0668699 -0.00863656 0.0160596 0.000233 -0.0234011 -0.219094 -0.0974179 2650 
419 1 -0.00105358 -0.00541143 0.0190985 0.001312 -0.0473893 -0.387764 1.68899 2650 
282 1 -0.0623543 -0.0298636 0.0275801 0.000847 17.1865 -6.85708 38.8327 2650 
117 1 -0.0626498 -0.0360641 0.0283618 0.000233 5.0618 -0.273317 11.1787 2650 
259 1 -0.0562424 -0.0189569 0.0395727 0.000233 -7.4855 6.54106 -10.636 2650 
466 1 -0.0415041 -0.00712323 0.0548298 0.000233 -0.169857 -0.132413 -0.128575 2650 
493 1 -0.0334777 -0.0170093 0.0600678 0.000233 17.1923 -4.47083 9.5818 2650 
33 1 -0.0339284 -0.0026615 0.0591095 0.000847 15.2817 -2.31311 8.77155 2650 
446 1 -0.0148816 -0.041228 0.0665582 0.000847 87.081 -2.72434 19.461 2650 
21 1 -0.0041653 -0.026424 0.0680258 0.000847 18.3475 0.673585 1.12339 2650 
9 1 -0.00323326 -0.0171995 0.0686909 0.000233 -0.0178262 -0.456513 -0.000813712 2650 
42 1 -0.00315679 0.00302416 -0.0619292 0.001312 -20.4685 1.39356 10.1532 2650 
37 1 -0.007724 0.00447954 -0.014299 0.000233 0 -0.01175 0 2650 
495 1 -0.00792462 0.0155858 -0.014601 0.000233 0.502449 -0.0604934 -0.266375 2650 
514 1 -0.00314411 0.0210774 -0.0156931 0.000847 1.25561 -0.0514249 -0.311808 2650 
198 1 -0.00338727 0.00618641 -0.0129244 0.001312 0.00766082 -0.0147944 -0.00459107 2650 
251 1 -0.00498866 0.0109021 -0.0139442 0.000847 0.00906505 0.0288128 -0.0271444 2650 
94 1 -0.0089782 0.014156 -0.0127743 0.001312 0.690555 -0.152496 -0.597322 2650 
399 1 -0.00799245 0.0229696 -0.0138788 0.000847 0.939523 0.276148 -0.490423 2650 
370 1 -0.00854547 0.0359835 -0.0135973 0.000847 1.55352 -0.108067 -0.822086 2650 
51 1 -0.00879599 0.00354682 -0.011945 0.000233 -0.0151893 -0.0045765 -0.0283188 2650 
76 1 -0.005578 0.00490554 -0.011829 0.000233 0 -0.01175 0 2650 
407 1 -0.00654871 0.00776865 -0.0120398 0.000847 0.0231316 0.0263994 0.0143772 2650 
164 1 -0.0111145 0.00998581 -0.011456 0.000847 -0.00684229 0.0512902 0.0158353 2650 
107 1 -0.00954162 0.0187408 -0.0118891 0.001312 0.528533 0.0511413 -0.379376 2650 
144 1 -0.0677076 0.0747955 -0.0120496 0.000233 0.0705411 -0.000419028 -0.396292 2650 
468 1 -0.0101386 0.000157475 -0.00918467 0.000233 0.00112078 -0.0133423 -0.00397386 2650 
336 1 -0.000699 0.00199254 -0.008095 0.000233 0 -0.01175 0 2650 
54 1 -0.0091071 0.0125158 -0.00813398 8.4e-05 -0.465016 -0.391628 0.378624 2650 
200 1 -0.000817015 0.0151106 -0.0082398 0.000847 0.00588505 -0.0489146 0.18543 2650 
66 1 -0.0121657 0.0274849 -0.0087024 0.000233 -0.00952687 0.0365334 -0.00433662 2650 
374 1 -0.0125528 0.0521164 -0.00813472 0.000233 -0.0923401 0.0797361 0.10666 2650 
75 1 -0.0144844 0.0544568 -0.00801413 0.000233 -0.104862 0.0584724 0.195288 2650 
197 1 -0.0224294 0.0683488 -0.00853847 8.4e-05 -2.4504 2.40855 -3.17803 2650 
413 1 -0.000781379 0.00864517 -0.00637251 0.000233 0.00496688 0.0120289 -0.00917837 2650 
216 1 -0.00533109 0.0159383 -0.00667763 0.000847 0.0240415 0.0164636 0.0364774 2650 
299 1 -0.00341729 0.0677056 -0.00680922 0.000233 -0.0599311 0.202143 -0.0393555 2650 
114 1 -0.0157007 0.0015196 -0.00547063 0.000233 0.0460105 0.00934661 -0.105434 2650 
512 1 -0.00702558 0.00319326 -0.0063038 0.000847 -0.0148469 -0.0189129 0.00455788 2650 
2 1 -0.0106812 0.0058759 -0.00603305 0.001312 0.00863009 -0.00562463 -0.00842506 2650 
79 1 -0.00913362 0.00618101 -0.00606568 0.000233 0.0116224 -0.00870638 -0.00201173 2650 
421 1 -0.000161276 0.0101791 -0.00617711 0.000847 0.00860163 0.0215508 -0.0445034 2650 
351 1 -0.00468426 0.0432461 -0.00526913 0.000233 -0.159637 0.356025 0.0156487 2650 
310 1 -0.0141536 0.00136367 -0.00365661 0.000233 0.0464158 -0.00517575 0.00735932 2650 
486 1 -0.012908 0.000520556 -0.00395245 0.000847 0.0286384 0.00444215 0.00404356 2650 
478 1 -0.010102 0.00264054 -0.003546 0.000233 0 -0.01175 0 2650 
467 1 -0.00951505 0.00506359 -0.00328479 0.000233 0.0050306 -0.0120246 0.00624024 2650 
112 1 -0.00883561 0.00544979 -0.0045398 0.000847 0.00623439 -0.0114497 0.0016107 2650 
145 1 -0.007489 0.00563854 -0.00326 8.4e-05 0 -0.01175 0 2650 
225 1 -0.00641877 0.00617051 -0.0044861 0.001312 -0.0277668 0.0098261 -0.00134921 2650 
149 1 -0.0114671 0.00876921 -0.00412223 0.000847 0.00364223 -0.00195496 -0.000131579 2650 
6 1 -0.0155656 0.0220367 -0.00375156 0.000847 0.279921 0.117106 -1.59263 2650 
332 1 -0.0137765 0.0423081 -0.0043148 0.000847 0.0332415 0.359698 -0.0580692 2650 
312 1 -0.006897 0.00414654 -0.002463 0.000233 0 -0.01175 0 2650 
301 1 -0.000431 0.00437954 -0.003081 8.4e-05 0 -0.01175 0 2650 
313 1 -0.011686 0.00731359 -0.00199732 0.000233 -0.100181 -0.0135137 -0.186859 2650 
502 1 -0.0156326 0.0154792 -0.00312453 0.000847 0.0282661 -0.0338495 -0.704483 2650 
71 1 -0.00125969 0.0395841 -0.00235796 0.000847 -0.0379155 0.0777899 -0.010677 2650 
306 1 -0.0120579 0.000764258 -0.00137288 0.000847 -0.00405566 0.0094894 0.039523 2650 
168 1 -0.0104456 0.000714996 -0.00143585 0.000233 0.0211554 -0.00251169 0.0178672 2650 
201 1 -0.005857 0.000825536 -0.001367 0.000847 0 -0.01175 0 2650 
462 1 -0.0157928 0.0018936 -0.00113014 0.000847 -0.00168159 -0.0924257 -0.250518 2650 
208 1 -0.003072 0.00226454 -0.000554 0.000233 0 -0.01175 0 2650 
36 1 -0.0166499 0.0260763 -0.00110161 0.000233 0.556895 -0.0938385 -3.18961 2650 
213 1 -0.00110581 0.0326281 -0.00051749 0.000847 -0.0341018 0.0420652 -0.00866031 2650 
204 1 -0.00713504 0.037009 -0.00101137 0.000847 0.0420776 0.0776041 0.0111685 2650 
365 1 -0.0103099 0.0402698 -0.00120768 0.000233 -0.0825246 0.0958584 0.0723795 2650 
223 1 -0.0119681 0.00464282 0.00117161 8.4e-05 0.0887197 0.00197115 -0.14028 2650 
45 1 -0.00385889 0.00497167 0.00130239 0.000847 -0.0300929 -0.00484125 -0.103961 2650 
77 1 -0.0164418 0.00690738 0.000202313 0.000233 0.0283153 0.0419597 0.0704202 2650 
345 1 -0.0128046 0.00713697 0.00119341 0.000847 0.0554443 0.0399406 -0.00687398 2650 
174 1 -0.00102368 0.0162331 0.000256113 0.000847 0.00404523 0.0418625 -0.0134125 2650 
389 1 -0.0165782 0.0220508 0.000930603 0.000233 -0.0791413 -0.292336 -2.0082 2650 
383 1 -0.0119695 0.0284125 0.000531502 0.000847 0.0789956 0.163153 -0.149031 2650 
364 1 -0.0139 7.35361e-05 0.002152 0.000233 0 -0.01175 0 2650 
256 1 -0.00486353 0.00315815 0.00295419 0.000847 -0.00758787 -0.0192159 -0.0850477 2650 
238 1 -0.015313 0.00340134 0.00289902 0.001312 -0.00184918 -0.0544572 -0.170105 2650 
270 1 -0.000362091 0.00399603 0.00236862 0.000233 -0.0377887 -0.0230306 0.00455896 2650 
376 1 -0.005395 0.00512254 0.002758 0.000233 0 -0.01175 0 2650 
504 1 -0.0116716 0.00719174 0.00175945 0.000233 0.0674181 0.016671 0.0173623 2650 
295 1 -0.0156245 0.00891366 0.00309191 0.000847 -0.0385249 0.034706 -0.14899 2650 
394 1 -0.00435367 0.00802144 0.00291548 0.000847 -0.0289511 0.0195384 0.0327486 2650 
130 1 -0.0150157 0.0118505 0.00294785 0.000233 -0.138853 0.078249 -0.109033 2650 
175 1 -0.00945717 0.0126552 0.00270909 0.000847 -0.0194559 -0.0434486 -0.072786 2650 
128 1 -0.00213149 0.0113881 0.00233368 0.000233 0.0410528 0.129797 -0.0237353 2650 
392 1 -0.0106393 0.013075 0.00306253 8.4e-05 0.0374307 0.0532177 0.15921 2650 
499 1 -0.000409801 0.0137776 0.00209969 0.000847 -0.0158688 0.0358832 -0.0357873 2650 
517 1 -0.00283677 0.0177366 0.00227905 0.000233 0.0308496 0.037053 0.00878162 2650 
209 1 -0.016543 0.0231049 0.00181441 0.000233 -0.114631 -0.0186053 -2.86337 2650 
188 1 -0.00296557 0.0256913 0.00236794 0.000847 0.00797073 0.0304807 0.00488408 2650 
417 1 -0.00291073 0.000850585 0.0032855 0.000233 -0.015416 -0.0520007 -0.0865511 2650 
135 1 -0.0090097 0.00188966 0.00458975 0.000847 -0.0508901 -0.035967 -0.0728241 2650 
156 1 -0.015257 0.00623154 0.00371 0.000233 0 -0.01175 0 2650 
131 1 -0.00879619 0.00537892 0.00363958 0.000233 0.0174012 -0.00571 -0.0100087 2650 
470 1 -0.008539 0.00787054 0.004033 8.4e-05 0 -0.01175 0 2650 
267 1 -0.00631964 0.00689526 0.00360458 0.000847 -0.0055481 0.0260866 -0.0682429 2650 
296 1 -0.002285 0.00681154 0.004233 0.000233 0 -0.01175 0 2650 
80 1 -0.0112492 0.0210423 0.00416444 8.4e-05 0.0740907 0.0123225 -0.0213752 2650 
49 1 -0.0160924 0.0403632 0.00399004 0.000233 -0.525686 -0.107135 -2.028 2650 
82 1 -0.00177442 0.0423693 0.00457903 0.001312 0.0791763 0.278274 -0.174936 2650 
195 1 -0.014509 0.000530536 0.005621 0.000233 0 -0.01175 0 2650 
431 1 -0.007173 0.00159354 0.006023 8.4e-05 0 -0.01175 0 2650 
96 1 -0.000845991 0.000696126 0.00598586 0.000847 -0.0186444 -0.0138771 -0.0179742 2650 
283 1 -0.0096022 0.00343986 0.00510748 0.000233 -0.100668 -0.00487305 -0.0740931 2650 
469 1 -0.012765 0.00551154 0.005129 0.000233 0 -0.01175 0 2650 
219 1 -0.00849239 0.00485026 0.00506566 0.000233 -0.015052 0.0245806 -0.0535589 2650 
172 1 -0.000515319 0.00589619 0.00572719 0.001312 0.00339296 -0.0128068 -0.00203407 2650 
361 1 -0.012031 0.00712954 0.0053 0.000233 0 -0.01175 0 2650 
56 1 -0.0100746 0.00678302 0.00574833 0.001312 0.0160715 0.0224243 0.0121499 2650 
244 1 -0.002251 0.00733254 0.006118 0.000233 0 -0.01175 0 2650 
303 1 -0.00594568 0.0162618 0.00571334 0.000847 -0.0573652 0.0352147 0.0134972 2650 
474 1 -0.00317799 0.0238515 0.00523834 0.000847 0.162713 0.108485 0.000849876 2650 
191 1 -0.0149823 0.0433682 0.00579524 0.000847 -0.383186 -0.166299 -1.45047 2650 
286 1 -0.0151794 0.00152614 0.00692313 0.000233 0.0167954 -0.00880594 -0.0467072 2650 
451 1 -0.0137612 0.00102848 0.00685799 0.000847 -0.0101864 -0.0469396 -0.0998585 2650 
1 1 -0.00814625 0.00264077 0.00662872 0.001312 -0.0852822 -0.0290345 -0.0321836 2650 
268 1 -0.0141646 0.00372278 0.00733607 0.000847 -0.062709 -0.0395417 -0.116694 2650 
88 1 -0.0106748 0.00355081 0.00739571 0.000233 -0.0103483 0.00815916 -0.0327296 2650 
329 1 -0.000212 0.00368354 0.006779 0.000847 0 -0.01175 0 2650 
369 1 -0.008047 0.00566954 0.006729 0.000847 0 -0.01175 0 2650 
355 1 -0.012705 0.00670754 0.006672 0.000847 0 -0.01175 0 2650 
22 1 -0.00330659 0.00678875 0.00728988 0.000233 0.00421701 -0.00826549 -0.0211599 2650 
89 1 -0.00038566 0.0104057 0.00712238 0.000233 -0.0121781 0.00385884 -0.0313331 2650 
426 1 -0.0036333 0.0137975 0.00649176 0.000233 -0.0271107 0.0359659 0.0072494 2650 
316 1 -0.0133428 0.0256254 0.00660749 0.000847 -0.0540163 0.0903972 0.0718792 2650 
87 1 -0.0012593 0.028232 0.00778033 0.000847 -0.0284966 0.0364342 0.00984131 2650 
25 1 -0.014706 0.0555532 0.00761646 0.000233 -0.100292 0.0979763 -0.186865 2650 
518 1 -0.0141282 0.00149858 0.00837729 0.000233 -0.0423487 -0.0780519 -0.08547 2650 
484 1 -0.0122553 0.00138504 0.00837537 0.001312 -0.108452 -0.0592291 -0.0463478 2650 
447 1 -0.000616221 0.00054327 0.00846182 0.000847 -0.0406505 -0.0189964 0.0116007 2650 
475 1 -0.00365851 0.0067327 0.00840721 0.000847 0.0144127 -0.00934921 -0.0120767 2650 
291 1 -0.00214258 0.00733083 0.00909405 0.000847 -0.00510663 0.0234828 -0.0169713 2650 
152 1 -0.000863382 0.00675549 0.00794166 0.000847 0.00986184 -0.011144 -0.00282475 2650 
178 1 -0.00249381 0.0139813 0.00942783 0.000847 -0.0116177 0.033498 0.0016779 2650 
214 1 -0.000423103 0.0188254 0.00817502 0.000847 -0.0247484 0.0208321 -0.04683 2650 
98 1 -0.00148698 0.00599698 0.00992282 0.000847 -0.03345 0.00311978 -0.00758516 2650 
297 1 -0.00478013 0.0101193 0.0100332 0.000233 -0.079051 -0.0442731 0.030957 2650 
55 1 -0.000846107 0.0104038 0.0105826 0.001312 -0.0193247 0.00258453 -0.0143672 2650 
196 1 -0.00811417 0.0114133 0.0109559 0.000233 -0.000496307 0.0280491 0.0192263 2650 
321 1 -0.00604839 0.0122557 0.0109817 0.000847 0.0158118 0.00426727 -0.00255584 2650 
261 1 -0.0026476 0.0122135 0.0105909 0.000233 -0.0411319 0.0891729 0.0669731 2650 
222 1 -0.0138149 0.030182 0.00950457 0.000233 -0.550062 0.042377 -1.04505 2650 
331 1 -0.0119998 0.0305982 0.0107304 0.000847 -0.845826 -0.135958 -0.971768 2650 
255 1 -0.0116323 0.0529438 0.0107426 0.000847 -0.318222 0.653952 -0.385024 2650 
235 1 -0.00998785 0.00156864 0.0114921 0.000233 -0.0180356 -0.0425516 -0.0649747 2650 
150 1 -0.000358662 0.000529883 0.0125609 0.000847 -0.00146951 -0.012575 0.00555315 2650 
348 1 -0.0103266 0.0122298 0.0125363 0.000233 0.0487156 0.00804967 0.012519 2650 
176 1 -0.00182617 0.00106444 0.0134431 0.000847 0.00375943 -0.0126945 0.0360273 2650 
180 1 -0.005697 0.00212454 0.013052 0.000233 0 -0.01175 0 2650 
443 1 -0.004264 0.00360354 0.013262 0.000233 0 -0.01175 0 2650 
206 1 -0.00525613 0.00636674 0.0135656 0.000233 0.0132996 0.0298889 -0.0282507 2650 
516 1 -0.00837185 0.0125699 0.0136378 0.000233 0.0191271 0.0341735 0.00536581 2650 
73 1 -0.00655853 0.0135185 0.0129936 0.000847 0.021003 0.0625494 0.0154745 2650 
311 1 -0.002572 0.000623536 0.015752 0.000233 0 -0.01175 0 2650 
151 1 -0.00631293 0.00764186 0.014639 0.000847 0.0103654 0.0815884 -0.00235344 2650 
91 1 -0.00534558 0.0258507 0.0157844 0.000233 -0.0242878 0.0872335 0.106452 2650 
211 1 -0.0041883 0.0333291 0.0150104 0.001312 -1.02712 -0.0526621 -0.183046 2650 
237 1 -1.97122e-07 0.0140632 0.0116033 0.001312 -0.0408097 0.0385838 0.00495926 2650 
418 1 -0.0382767 0.0702262 0.0573089 8.4e-05 -0.641886 -0.00137533 -0.428295 2650 
416 1 -0.0260033 0.106764 -0.063661 0.000233 -0.0401167 0.542729 0.0161401 2650 
395 1 -0.0681643 0.126038 0.000938472 0.000847 0.0288108 2.08063 2.09107 2650 
38 1 0.00833374 -0.0440842 -0.0682612 0.000233 -59.8184 -4.2276 -7.30208 2650 
415 1 0.00351639 -0.0108363 -0.068677 0.000233 -22.9423 -0.211014 -1.17469 2650 
101 1 0.0096325 -0.0603619 -0.0681064 0.000233 -201.52 5.37243 -28.498 2650 
278 1 0.0191524 -0.0495419 -0.0654165 0.000847 -35.9859 -1.19521 -10.5287 2650 
160 1 0.0167368 -0.0296263 -0.0656207 0.001312 -53.899 1.10768 -14.5508 2650 
434 1 0.0185581 -0.00574885 -0.0655812 0.000847 -26.3468 1.29453 -7.45208 2650 
179 1 0.0142023 -0.0266253 -0.0673082 0.000233 -243.283 1.98754 -51.3099 2650 
445 1 0.0198066 -0.0219153 -0.0647541 0.001312 -37.1055 -0.987268 -11.3397 2650 
465 1 0.0260439 -0.0577362 -0.0636446 0.000233 -34.2766 5.82707 -14.0257 2650 
18 1 0.026732 -0.0515808 -0.0627155 0.000847 -49.0159 -0.506323 -20.881 2650 
65 1 0.0325734 -0.00121429 -0.0605543 0.000233 -16.329 -3.11596 -8.47681 2650 
186 1 0.0342455 -0.0556195 -0.0583862 0.001312 5.21911 0.782788 3.06064 2650 
513 1 0.0335267 -0.0181722 -0.0593376 0.000847 -13.9308 -0.489754 -7.86808 2650 
253 1 0.0377408 -0.00824515 -0.0567555 0.000847 -18.5091 0.407471 -12.2996 2650 
344 1 0.0161902 -0.061185 -0.0507419 0.000847 -145.696 1.31491 -55.4548 2650 
115 1 0.0577742 -0.0615282 -0.0371901 0.000233 -10.6548 4.45342 -17.8364 2650 
327 1 0.0590095 -0.00791502 -0.0356009 8.4e-05 0.255013 -0.235006 0.422653 2650 
232 1 0.0596983 -0.0473723 -0.0341387 0.000233 -10.0066 5.02603 -17.4945 2650 
177 1 0.0633628 -0.0507506 -0.0251429 0.000847 -4.8514 -3.59974 -12.2169 2650 
229 1 0.0643378 -0.0180134 -0.0226219 0.000847 -59.5583 -24.0775 -49.3673 2650 
423 1 0.0118908 -0.00539972 -0.0143638 0.000847 1.1195 -0.368966 -1.15942 2650 
133 1 0.00254778 -0.00161853 -0.0112382 0.001312 0.0654765 0.0381639 0.166116 2650 
67 1 0.00632105 -0.00313413 -0.0115447 8.4e-05 -0.0117748 -0.0172064 0.0127814 2650 
522 1 0.00679 -7.54639e-05 -0.01028 8.4e-05 0 -0.01175 0 2650 
202 1 0.000147503 -0.00088538 -0.009114 0.000847 -0.00829165 -0.0196143 -0.0424728 2650 
339 1 0.001696 -0.00264746 -0.005869 0.000233 0 -0.01175 0 2650 
342 1 0.0437899 -0.00885032 -0.00117 0.000847 6.38467 -0.53814 -0.191937 2650 
480 1 0.00564 -0.00214346 0.00063 0.000233 0 -0.01175 0 2650 
271 1 0.0165935 -0.00228894 0.000159817 0.000233 -0.0632319 -0.0673313 0.028413 2650 
187 1 0.0159434 -0.00195068 0.00121159 0.000847 0.00193294 -0.0183445 0.033965 2650 
471 1 0.0107897 -5.00763e-05 0.00114557 0.001312 -0.0139383 -0.0180111 0.0297927 2650 
189 1 0.000992699 -0.00204398 0.00300834 0.000847 0.00883009 -0.0154017 -0.00701291 2650 
408 1 0.0149505 -0.00155991 0.0027462 0.000847 -0.0234697 -0.0239746 0.0252834 2650 
304 1 0.00694658 -0.00211711 0.00403279 0.000847 -0.0538505 -0.0874676 0.119601 2650 
284 1 0.0135221 -0.00256058 0.00465416 0.000233 -0.00622704 -0.00841947 0.0424126 2650 
427 1 0.0153329 -0.00150275 0.00441739 0.000233 0.0202503 -0.00551426 0.0299343 2650 
106 1 0.00181 -0.00242746 0.00562 8.4e-05 0 -0.01175 0 2650 
34 1 0.013662 -0.00248446 0.00580396 0.000847 -0.0207141 -0.00633941 -0.00252305 2650 
428 1 0.013534 -0.00134246 0.00562 0.000233 0 -0.01175 0 2650 
485 1 0.0142047 -0.00115576 0.00476336 0.000847 -0.00309889 -0.0305751 0.0104027 2650 
437 1 0.0679185 -0.0195469 0.00590851 0.000847 1.95178 11.4135 -22.4137 2650 
24 1 0.004515 -0.00184746 0.007639 0.000233 0 -0.01175 0 2650 
70 1 0.01401 -0.000706387 0.00689406 0.000847 -0.00275615 -0.0244882 0.0166388 2650 
249 1 0.0107117 -0.00343768 0.00833635 8.4e-05 1.11253 -0.0426618 0.865824 2650 
10 1 0.00074 -0.00242946 0.009007 0.000233 0 -0.01175 0 2650 
134 1 0.00898276 -0.00237676 0.00835166 0.001312 0.0214135 -0.0772907 -0.05045 2650 
298 1 0.011042 -0.00180746 0.009111 0.000233 0 -0.01175 0 2650 
111 1 0.0115698 -0.0029071 0.00888663 0.000847 -0.0212857 -0.0130406 0.0056005 2650 
203 1 0.005033 -2.64639e-05 0.009185 0.000847 0 -0.01175 0 2650 
410 1 0.0669435 -0.0384245 0.0129077 0.000847 5.29799 4.45992 -27.4587 2650 
307 1 0.0665012 -0.0358116 0.0149908 0.000847 1.48077 -10.7772 -6.56334 2650 
43 1 0.00221346 -0.00320311 0.0153982 0.001312 -0.0357716 -0.0622084 0.000856864 2650 
263 1 0.000260708 -0.00153326 0.0147397 0.001312 -0.0182713 -0.0395506 -0.00878793 2650 
81 1 0.00477277 -0.000757142 0.0146463 0.001312 -0.170747 -0.159458 -0.0325849 2650 
11 1 0.00422936 -0.00426225 0.020051 0.000233 0.115143 -0.234027 1.94562 2650 
322 1 0.0568459 -0.0534508 0.0387008 0.000233 4.22863 -0.0569962 -6.20971 2650 
454 1 0.0240352 -0.0616232 0.0409608 0.000233 -33.987 -0.932142 -4.993 2650 
246 1 0.0551634 -0.0104135 0.0410634 0.000233 11.178 -3.05287 -15.0126 2650 
250 1 0.0414123 -0.0362797 0.0535782 0.001312 26.5644 6.08892 -20.5133 2650 
393 1 0.0230302 -0.027654 0.0528485 0.001312 63.5537 13.1924 -43.1292 2650 
173 1 0.0389017 -0.0110494 0.0553953 0.001312 14.0042 -5.67094 -10.1461 2650 
129 1 0.041652 -0.00147946 0.054718 0.000233 20.5673 5.83649 -15.6537 2650 
277 1 0.0265301 -0.0408797 0.0575597 0.000847 24.8645 -12.5562 -11.9252 2650 
139 1 0.0347446 -0.0267237 0.0586316 0.000847 -8.24273 0.0857395 4.88411 2650 
155 1 0.038303 -0.00536379 0.0571124 0.000233 24.9784 -3.83502 -16.7501 2650 
358 1 0.0381337 -0.00181181 0.0565059 0.000847 15.8187 0.976678 -11.114 2650 
338 1 0.0434863 -0.0624127 0.0533142 0.000233 175.385 -0.175179 -137.593 2650 
226 1 0.0290737 -0.0357781 0.0593181 0.000847 26.1161 -4.81142 -9.18403 2650 
7 1 0.0343047 -0.0156738 0.0588973 0.000847 23.088 -0.876634 -13.439 2650 
367 1 0.0305681 -0.0598175 0.0604019 0.001312 18.3038 0.698458 -9.25447 2650 
334 1 0.0221383 -0.0511937 0.064484 0.000847 56.1234 -0.0542847 -19.2577 2650 
61 1 0.0221447 -0.0394853 0.0644564 0.000847 20.3422 -6.71698 -6.98674 2650 
396 1 0.0208924 -0.0078927 0.064873 0.000847 20.5822 -2.94623 -6.62698 2650 
100 1 0.0140428 -0.0354298 0.0666975 0.000847 33.7275 3.59717 -7.09611 2650 
289 1 0.00409505 -0.0157115 0.067605 0.001312 49.9199 0.797023 -3.02145 2650 
290 1 0.0100403 -0.00909413 0.0674127 0.000847 28.661 -0.964991 -4.26681 2650 
360 1 0.00836167 0.00250794 -0.0135161 0.000847 0.128026 0.0547833 0.112431 2650 
210 1 0.0100207 0.0039756 -0.0123862 8.4e-05 -0.00922625 -0.00673505 -0.00563896 2650 
157 1 0.006689 0.000531536 -0.009595 0.000233 0 -0.01175 0 2650 
163 1 0.0115309 0.00227234 -0.0106108 0.000847 -0.00359934 -0.0124521 -0.000675507 2650 
58 1 0.0060956 0.0044092 -0.0102055 0.000847 -0.0370193 -0.0228395 0.0206565 2650 
464 1 0.00167251 0.0204214 -0.0106204 0.000233 0.0268217 0.217593 -0.0485505 2650 
158 1 0.0071659 0.0144736 -0.00927996 8.4e-05 0.0657941 0.138875 0.185263 2650 
136 1 0.0119462 0.0161247 -0.00822176 0.000847 -0.0610546 0.134193 0.119355 2650 
30 1 0.00248936 0.0190944 -0.00876305 0.001312 -0.0064783 0.0203143 -0.00366717 2650 
63 1 0.0030412 0.0354331 -0.00846196 0.000233 -0.0127288 0.0818231 -0.0151364 2650 
400 1 0.008609 0.00811154 -0.006808 0.000233 0 -0.01175 0 2650 
31 1 0.0132336 0.0148433 -0.00523679 0.000847 0.233486 0.153312 0.0259464 2650 
511 1 0.0143858 0.0329923 -0.00596409 0.000847 0.0136021 0.0643136 -0.0276631 2650 
215 1 0.0016651 0.00630245 -0.0044153 0.000847 -0.00285515 0.00806101 0.0151955 2650 
105 1 0.00021 0.00760754 -0.003991 0.000233 0 -0.01175 0 2650 
377 1 0.00882185 0.0203971 -0.00471903 0.000233 0.130051 0.250627 0.0327127 2650 
14 1 0.00982587 0.00479089 -0.00179905 8.4e-05 0.0142803 -0.000311394 0.0281955 2650 
74 1 0.00706916 0.0098959 -0.00200249 0.000847 -0.00407336 0.00962058 0.0040593 2650 
391 1 0.00518136 0.0130148 -0.00308159 0.000233 0.0318928 0.0255059 0.0229471 2650 
227 1 0.0158218 0.0218734 -0.00179433 0.000847 0.01588 -0.160167 0.702631 2650 
17 1 0.00401085 0.00502394 -0.00121311 0.000847 -0.000232265 -0.01105 -0.00146143 2650 
371 1 0.0159788 0.0150209 -5.62683e-05 0.000847 0.0280864 -0.297895 0.827585 2650 
435 1 0.0154493 0.0248535 -0.00148468 0.000847 0.0853215 0.245018 0.453857 2650 
15 1 0.0107615 0.0330827 -0.00149599 0.001312 0.214742 0.200344 -0.204886 2650 
234 1 0.0166487 0.00438193 0.000562938 0.000233 -0.20748 0.0508594 0.109113 2650 
492 1 0.0111325 0.00509781 0.00130797 0.000233 0.234444 0.208435 0.104861 2650 
515 1 0.000950683 0.00988238 0.000859327 0.000847 -0.0380447 0.00376548 -0.00328632 2650 
142 1 0.00371282 0.0227087 0.000571308 0.000233 0.0106789 0.0576264 0.00724071 2650 
494 1 0.0157363 0.0529545 0.000813558 0.000233 0.230963 0.601552 0.263167 2650 
62 1 0.0154422 0.0652158 0.000728231 0.000233 0.0852256 0.355922 -0.173906 2650 
116 1 8e-05 0.00309654 0.00308 0.000233 0 -0.01175 0 2650 
438 1 0.0120055 0.00282351 0.00227657 0.000847 -0.00569989 -0.00410706 0.0151954 2650 
50 1 0.011166 0.00277263 0.00313939 0.000233 0.00432863 0.00920913 0.0107399 2650 
319 1 0.0105543 0.00376337 0.00167773 0.000847 0.27423 0.0428083 0.290339 2650 
132 1 0.0136271 0.00374894 0.00241585 8.4e-05 0.00152559 -0.0112666 0.00192483 2650 
8 1 0.000174465 0.00716802 0.00203324 0.000233 -0.0367203 -0.00967433 0.00319736 2650 
425 1 0.00728718 0.00833741 0.00165334 0.000847 0.0983141 -0.269574 0.106726 2650 
86 1 0.0159078 0.0164736 0.00165965 0.000847 -0.176588 0.263406 0.80462 2650 
497 1 0.00668398 0.00125287 0.00364202 0.001312 -0.0110374 -0.00351005 0.00262165 2650 
432 1 0.0101808 0.0015886 0.00329044 0.001312 0.00484988 0.000242106 -0.0193041 2650 
398 1 0.0126915 0.000247143 0.00326555 0.000847 -0.0943362 -0.0512948 0.0682116 2650 
231 1 0.000510763 0.00513026 0.00461483 0.000233 0.00543903 0.0112999 -0.0536534 2650 
390 1 0.000496933 0.00773917 0.00435032 0.000233 -0.00161341 0.022217 -0.07298 2650 
510 1 0.0146842 0.00674497 0.00361931 0.001312 0.00227099 -0.00967195 0.0416357 2650 
472 1 0.00598685 0.0106002 0.00342136 0.000847 -0.0366304 0.00810376 0.117555 2650 
39 1 0.0161329 0.0113881 0.00433159 0.000233 -0.00569377 0.0197063 0.0360567 2650 
354 1 0.0120819 0.015917 0.00356135 0.001312 0.0203545 0.0134182 0.018 2650 
99 1 0.0150073 0.00141689 0.00555234 0.000847 -0.0387582 -0.00681978 0.0743821 2650 
353 1 0.00399628 0.00296496 0.00476433 8.4e-05 0.00908281 0.00118574 -0.0158319 2650 
122 1 0.0128276 0.00267982 0.00477174 0.000847 -0.0273883 -0.00308757 0.0104566 2650 
387 1 0.002106 0.00408254 0.004988 0.000233 0 -0.01175 0 2650 
503 1 0.00719361 0.00568797 0.00560245 0.000233 -0.00880775 0.0020624 0.0268134 2650 
456 1 0.00706087 0.00490648 0.00545308 0.000233 -0.0105677 -0.0103645 0.00943489 2650 
333 1 0.00725925 0.00833334 0.00570095 0.000847 0.00473152 -0.00372576 0.00493378 2650 
375 1 0.0113313 0.00800701 0.00589084 0.000233 0.0537087 -0.00132262 -0.0043173 2650 
35 1 0.00874846 0.0130782 0.00515523 0.000847 -0.00675851 0.0233066 0.011426 2650 
368 1 0.00618518 0.0292676 0.00587376 0.000847 -0.426254 0.194274 -0.0707252 2650 
217 1 0.00763958 0.0583789 0.00526764 0.000847 0.0426932 0.248074 0.19082 2650 
359 1 0.0054093 0.00290826 0.00764926 0.000847 0.0160387 0.00288881 -0.00727752 2650 
167 1 0.009498 0.00252154 0.007687 0.000233 0 -0.01175 0 2650 
406 1 0.00563119 0.0060017 0.00707251 0.001312 0.0323545 0.0106027 -0.0400898 2650 
104 1 0.00390337 0.00665434 0.0078427 0.000233 0.0118696 -0.0106674 -0.00294035 2650 
420 1 0.00246571 0.00879116 0.0077396 0.000847 0.00902894 0.00474567 -0.00576014 2650 
147 1 0.00318899 0.0655457 0.00718019 0.001312 -0.058659 0.155486 -0.0341266 2650 
254 1 0.0114318 0.00118364 0.00867092 0.000847 0.0164423 -0.10563 0.0369799 2650 
385 1 0.000901494 0.00297448 0.00855205 0.000847 -0.0193718 0.00370029 -0.0156105 2650 
252 1 0.00106239 0.00467098 0.00804064 0.000847 -0.000260083 0.0146763 -0.00760083 2650 
165 1 0.0127727 0.00421594 0.0092846 0.000847 0.0364053 -0.0577807 0.0750742 2650 
220 1 0.0145109 0.00450742 0.00815461 0.000233 -0.000112366 0.0318405 0.0466054 2650 
476 1 0.00559692 0.00942032 0.00814345 0.000847 0.0248318 0.00537313 -0.0147623 2650 
103 1 0.00874093 0.0097992 0.0082794 0.000233 0.00887738 -0.00588662 0.0279114 2650 
293 1 0.0017416 0.011422 0.00822826 0.000847 0.005264 0.0118005 0.000284267 2650 
83 1 0.00954566 0.0127438 0.00791662 0.000847 -0.02451 0.0215464 0.0246017 2650 
363 1 0.00295248 0.0160573 0.00915287 0.000233 0.00135531 0.101455 -0.0274781 2650 
72 1 0.0117075 0.0302103 0.00874951 0.000847 -0.228813 0.078803 0.115803 2650 
328 1 0.00946165 0.0015237 0.00994655 0.001312 -0.0238193 -0.0159475 0.0242635 2650 
119 1 0.0105775 0.000971308 0.0107515 8.4e-05 0.00410107 -0.00785634 -0.0276744 2650 
352 1 0.007774 0.00750028 0.0101374 0.000233 -0.0567262 -0.02378 0.0138144 2650 
404 1 0.0115766 0.00732153 0.00956501 0.000233 -0.052485 0.0149747 0.0252969 2650 
405 1 0.00717724 0.0563379 0.0108955 8.4e-05 -0.0599292 0.144067 0.0111027 2650 
412 1 0.00939661 0.00244031 0.0122123 0.000847 -0.0638354 -0.00695587 0.0361642 2650 
388 1 0.0114743 0.00306256 0.011349 0.000233 -0.0215449 -0.0145493 0.0397008 2650 