LIGGGHTS (Version LIGGGHTS-PUBLIC 3.8.0, compiled 2022-11-07-16:55:38 by serperd1, git commit 86544c3f1215bc9744d7929e3eacf53ba086af9e)
Created orthogonal box = (-0.15 -0.15 -0.15) to (0.15 0.15 0.15)
  2 by 4 by 5 MPI processor grid

Reading STL file 'cone.stl' (mesh processing step 1/3) 

Reading STL file 'in_cyl.stl' (mesh processing step 1/3) 

Reading STL file 'top_cyl.stl' (mesh processing step 1/3) 

Reading STL file 'bot_cyl.stl' (mesh processing step 1/3) 

Reading STL file 'bottom_disk.stl' (mesh processing step 1/3) 

Reading STL file 'top_disk.stl' (mesh processing step 1/3) 
Fix particledistribution/discrete (id prob_par): distribution based on mass%:
    r_0to10p: d=1.680000e-04 (max. bounding sphere) mass%=10.000000%
    r_10to50p: d=4.656000e-04 (max. bounding sphere) mass%=40.000000%
    r_50to90p: d=1.693200e-03 (max. bounding sphere) mass%=40.000000%
    r_90to100p: d=2.624400e-03 (max. bounding sphere) mass%=10.000000%
Fix particledistribution/discrete (id prob_par): distribution based on number%:
    r_0to10p: d=1.680000e-04 (max. bounding sphere) number%=83.887052%
    r_10to50p: d=4.656000e-04 (max. bounding sphere) number%=15.763181%
    r_50to90p: d=1.693200e-03 (max. bounding sphere) number%=0.327762%
    r_90to100p: d=2.624400e-03 (max. bounding sphere) number%=0.022006%
Setting up run at Mon Jan  2 23:11:15 2023

Import and parallelization of mesh cone_mesh containing 868 triangle(s) successful
Import and parallelization of mesh inlet_cyl_wall_mesh containing 1064 triangle(s) successful
Import and parallelization of mesh top_cyl_wall_mesh containing 682 triangle(s) successful
Import and parallelization of mesh bot_cyl_wall_mesh containing 1280 triangle(s) successful
Import and parallelization of mesh bot_disk_wall_mesh containing 1682 triangle(s) successful
Import and parallelization of mesh top_disk_wall_mesh containing 1144 triangle(s) successful
Memory usage per processor = 954.637 Mbytes
    Step    Atoms         KinEng            CPU 
       0        0              0              0 
Loop time of 6.79576e-05 on 40 procs for 0 steps with 0 atoms, finish time Mon Jan  2 23:11:15 2023


Pair  time (%) = 0 (0)
Neigh time (%) = 0 (0)
Comm  time (%) = 0 (0)
Outpt time (%) = 0 (0)
Other time (%) = 6.79576e-05 (100)

Nlocal:    0 ave 0 max 0 min
Histogram: 40 0 0 0 0 0 0 0 0 0
Nghost:    0 ave 0 max 0 min
Histogram: 40 0 0 0 0 0 0 0 0 0
Neighs:    0 ave 0 max 0 min
Histogram: 40 0 0 0 0 0 0 0 0 0

Total # of neighbors = 0
Neighbor list builds = 0
Dangerous builds = 0
Setting up run at Mon Jan  2 23:11:15 2023

Memory usage per processor = 954.637 Mbytes
    Step    Atoms         KinEng            CPU 
       0        0              0              0 
       1        0              0    0.009699354 
Loop time of 0.00970969 on 40 procs for 1 steps with 0 atoms, finish time Mon Jan  2 23:11:15 2023


Pair  time (%) = 2.52512e-06 (0.0260062)
Neigh time (%) = 0 (0)
Comm  time (%) = 0.00019782 (2.03734)
Outpt time (%) = 0.000110869 (1.14184)
Other time (%) = 0.00939848 (96.7948)

Nlocal:    0 ave 0 max 0 min
Histogram: 40 0 0 0 0 0 0 0 0 0
Nghost:    0 ave 0 max 0 min
Histogram: 40 0 0 0 0 0 0 0 0 0
Neighs:    0 ave 0 max 0 min
Histogram: 40 0 0 0 0 0 0 0 0 0

Total # of neighbors = 0
Neighbor list builds = 0
Dangerous builds = 0
Scanning dump file ...
Reading snapshot from dump file ...
  orthogonal box = (-0.15 -0.15 -0.15) to (0.15 0.15 0.15)
  0 atoms before read
  522 atoms in snapshot
  0 atoms purged
  0 atoms replaced
  0 atoms trimmed
  522 atoms added
  522 atoms after read
Setting atom values ...
  522 settings made for type
  522 settings made for density
  522 settings made for vy
Setting up run at Mon Jan  2 23:11:15 2023

Memory usage per processor = 958.989 Mbytes
    Step    Atoms         KinEng            CPU 
       1      522  2.0467238e-07              0 
       2      522  2.2321206e-07    0.009177816 
Loop time of 0.00919153 on 40 procs for 1 steps with 522 atoms, finish time Mon Jan  2 23:11:15 2023


Pair  time (%) = 2.27797e-06 (0.0247834)
Neigh time (%) = 0 (0)
Comm  time (%) = 6.0048e-06 (0.0653297)
Outpt time (%) = 0.000125844 (1.36913)
Other time (%) = 0.00905741 (98.5408)

Nlocal:    13.05 ave 230 max 0 min
Histogram: 36 2 0 0 0 0 0 0 1 1
Nghost:    6.9 ave 88 max 0 min
Histogram: 36 0 0 0 0 1 1 0 0 2
Neighs:    4.05 ave 71 max 0 min
Histogram: 36 2 0 0 0 0 0 0 0 2

Total # of neighbors = 162
Ave neighs/atom = 0.310345
Neighbor list builds = 0
Dangerous builds = 0
Setting up run at Mon Jan  2 23:11:15 2023

Memory usage per processor = 958.989 Mbytes
    Step    Atoms         KinEng            CPU 
       2      522  2.2321206e-07              0 
  154322      522  2.5096779e-05      1467.8909 
Loop time of 1467.89 on 40 procs for 154320 steps with 522 atoms, finish time Mon Jan  2 23:35:43 2023


Pair  time (%) = 0.322208 (0.0219504)
Neigh time (%) = 0.119124 (0.00811531)
Comm  time (%) = 0.8122 (0.0553311)
Outpt time (%) = 0.000886644 (6.04026e-05)
Other time (%) = 1466.64 (99.9145)

Nlocal:    13.05 ave 225 max 0 min
Histogram: 36 0 2 0 0 0 0 0 0 2
Nghost:    6.975 ave 93 max 0 min
Histogram: 36 0 0 0 1 1 0 0 0 2
Neighs:    4.4 ave 82 max 0 min
Histogram: 36 2 0 0 0 0 0 0 1 1

Total # of neighbors = 176
Ave neighs/atom = 0.337165
Neighbor list builds = 412
Dangerous builds = 0
Setting up run at Mon Jan  2 23:35:43 2023

Memory usage per processor = 958.989 Mbytes
    Step    Atoms         KinEng            CPU 
  154322      522  2.5096779e-05              0 
  308642      522  0.00014274771      1473.1808 
Loop time of 1473.18 on 40 procs for 154320 steps with 522 atoms, finish time Tue Jan  3 00:00:16 2023


Pair  time (%) = 0.316547 (0.0214873)
Neigh time (%) = 0.121539 (0.00825014)
Comm  time (%) = 0.757948 (0.0514498)
Outpt time (%) = 0.000652587 (4.42979e-05)
Other time (%) = 1471.98 (99.9188)

Nlocal:    13.05 ave 215 max 0 min
Histogram: 36 0 2 0 0 0 0 0 0 2
Nghost:    7.05 ave 94 max 0 min
Histogram: 36 0 0 0 0 2 0 0 0 2
Neighs:    4.375 ave 75 max 0 min
Histogram: 36 1 1 0 0 0 0 0 0 2

Total # of neighbors = 175
Ave neighs/atom = 0.335249
Neighbor list builds = 412
Dangerous builds = 0
Setting up run at Tue Jan  3 00:00:16 2023

Memory usage per processor = 958.989 Mbytes
    Step    Atoms         KinEng            CPU 
  308642      522  0.00014274771              0 
  462962      522  0.00014423352      1481.4533 
Loop time of 1481.47 on 40 procs for 154320 steps with 522 atoms, finish time Tue Jan  3 00:24:58 2023


Pair  time (%) = 0.312631 (0.0211027)
Neigh time (%) = 0.121339 (0.0081904)
Comm  time (%) = 0.894794 (0.060399)
Outpt time (%) = 0.000497044 (3.35507e-05)
Other time (%) = 1480.14 (99.9103)

Nlocal:    13.05 ave 210 max 0 min
Histogram: 36 0 2 0 0 0 0 0 0 2
Nghost:    6.9 ave 92 max 0 min
Histogram: 36 0 0 0 1 1 0 0 0 2
Neighs:    4.275 ave 72 max 0 min
Histogram: 36 0 2 0 0 0 0 0 0 2

Total # of neighbors = 171
Ave neighs/atom = 0.327586
Neighbor list builds = 412
Dangerous builds = 0
Setting up run at Tue Jan  3 00:24:58 2023

Memory usage per processor = 958.989 Mbytes
    Step    Atoms         KinEng            CPU 
  462962      522  0.00014423352              0 
  617282      522  7.6652719e-05      1466.0098 
Loop time of 1466.01 on 40 procs for 154320 steps with 522 atoms, finish time Tue Jan  3 00:49:24 2023


Pair  time (%) = 0.307585 (0.0209811)
Neigh time (%) = 0.11869 (0.00809616)
Comm  time (%) = 0.824008 (0.0562075)
Outpt time (%) = 0.0129321 (0.000882126)
Other time (%) = 1464.75 (99.9138)

Nlocal:    13.05 ave 207 max 0 min
Histogram: 36 0 2 0 0 0 0 0 0 2
Nghost:    6.925 ave 90 max 0 min
Histogram: 36 0 0 0 0 1 1 0 0 2
Neighs:    4.1 ave 74 max 0 min
Histogram: 36 1 1 0 0 0 0 1 0 1

Total # of neighbors = 164
Ave neighs/atom = 0.314176
Neighbor list builds = 412
Dangerous builds = 0
Setting up run at Tue Jan  3 00:49:24 2023

Memory usage per processor = 958.989 Mbytes
    Step    Atoms         KinEng            CPU 
  617282      522  7.6652719e-05              0 
  771602      522   0.0003105504      1478.7636 
Loop time of 1478.76 on 40 procs for 154320 steps with 522 atoms, finish time Tue Jan  3 01:14:03 2023


Pair  time (%) = 0.306646 (0.0207367)
Neigh time (%) = 0.119938 (0.00811071)
Comm  time (%) = 0.829367 (0.0560852)
Outpt time (%) = 0.000503965 (3.40802e-05)
Other time (%) = 1477.51 (99.915)

Nlocal:    13.05 ave 208 max 0 min
Histogram: 36 0 2 0 0 0 0 0 0 2
Nghost:    6.9 ave 91 max 0 min
Histogram: 36 0 0 0 0 1 1 0 1 1
Neighs:    4 ave 70 max 0 min
Histogram: 36 1 1 0 0 0 0 0 1 1

Total # of neighbors = 160
Ave neighs/atom = 0.306513
Neighbor list builds = 412
Dangerous builds = 0
Setting up run at Tue Jan  3 01:14:03 2023

Memory usage per processor = 958.989 Mbytes
    Step    Atoms         KinEng            CPU 
  771602      522   0.0003105504              0 
  925922      522   0.0034537071      1476.1933 
Loop time of 1476.19 on 40 procs for 154320 steps with 522 atoms, finish time Tue Jan  3 01:38:39 2023


Pair  time (%) = 0.309587 (0.020972)
Neigh time (%) = 0.209272 (0.0141764)
Comm  time (%) = 0.963576 (0.0652744)
Outpt time (%) = 0.000479852 (3.2506e-05)
Other time (%) = 1474.71 (99.8995)

Nlocal:    13.05 ave 206 max 0 min
Histogram: 36 0 2 0 0 0 0 0 0 2
Nghost:    6.775 ave 86 max 0 min
Histogram: 36 0 0 0 0 1 1 0 1 1
Neighs:    3.975 ave 74 max 0 min
Histogram: 36 2 0 0 0 0 0 1 0 1

Total # of neighbors = 159
Ave neighs/atom = 0.304598
Neighbor list builds = 690
Dangerous builds = 0
Setting up run at Tue Jan  3 01:38:39 2023

Memory usage per processor = 958.989 Mbytes
    Step    Atoms         KinEng            CPU 
  925922      522   0.0034537071              0 
 1080242      522   0.0029953858      1479.8894 
Loop time of 1479.89 on 40 procs for 154320 steps with 522 atoms, finish time Tue Jan  3 02:03:19 2023


Pair  time (%) = 0.309945 (0.0209438)
Neigh time (%) = 0.416817 (0.0281654)
Comm  time (%) = 1.28684 (0.0869549)
Outpt time (%) = 0.000541327 (3.65789e-05)
Other time (%) = 1477.88 (99.8639)

Nlocal:    13.05 ave 204 max 0 min
Histogram: 36 0 2 0 0 0 0 0 0 2
Nghost:    6.825 ave 84 max 0 min
Histogram: 36 0 0 0 0 0 2 0 0 2
Neighs:    4.05 ave 72 max 0 min
Histogram: 36 0 2 0 0 0 0 1 0 1

Total # of neighbors = 162
Ave neighs/atom = 0.310345
Neighbor list builds = 1318
Dangerous builds = 0
Setting up run at Tue Jan  3 02:03:19 2023

Memory usage per processor = 958.989 Mbytes
    Step    Atoms         KinEng            CPU 
 1080242      522   0.0029953858              0 
 1234562      522    0.089005844       1487.883 
Loop time of 1487.88 on 40 procs for 154320 steps with 522 atoms, finish time Tue Jan  3 02:28:07 2023


Pair  time (%) = 0.314679 (0.0211494)
Neigh time (%) = 1.00963 (0.0678568)
Comm  time (%) = 1.68277 (0.113098)
Outpt time (%) = 0.000523293 (3.51703e-05)
Other time (%) = 1484.88 (99.7979)

Nlocal:    13.05 ave 203 max 0 min
Histogram: 36 0 2 0 0 0 0 0 0 2
Nghost:    6.575 ave 85 max 0 min
Histogram: 36 0 0 0 0 2 0 0 0 2
Neighs:    4.35 ave 76 max 0 min
Histogram: 36 0 2 0 0 0 0 1 0 1

Total # of neighbors = 174
Ave neighs/atom = 0.333333
Neighbor list builds = 3108
Dangerous builds = 0
Setting up run at Tue Jan  3 02:28:07 2023

Memory usage per processor = 958.989 Mbytes
    Step    Atoms         KinEng            CPU 
 1234562      522    0.089005844              0 
 1388882      519    0.095134812      1497.4651 
Loop time of 1497.48 on 40 procs for 154320 steps with 519 atoms, finish time Tue Jan  3 02:53:05 2023


Pair  time (%) = 0.318012 (0.0212364)
Neigh time (%) = 1.43883 (0.096083)
Comm  time (%) = 2.66393 (0.177894)
Outpt time (%) = 0.000454271 (3.03356e-05)
Other time (%) = 1493.06 (99.7048)

Nlocal:    12.975 ave 200 max 0 min
Histogram: 36 0 2 0 0 0 0 0 0 2
Nghost:    6.425 ave 84 max 0 min
Histogram: 36 0 0 0 0 2 0 0 1 1
Neighs:    4.275 ave 78 max 0 min
Histogram: 36 0 2 0 0 0 1 0 0 1

Total # of neighbors = 171
Ave neighs/atom = 0.32948
Neighbor list builds = 4508
Dangerous builds = 357
Setting up run at Tue Jan  3 02:53:05 2023

Memory usage per processor = 958.989 Mbytes
    Step    Atoms         KinEng            CPU 
 1388882      519    0.095134812              0 
 1543202      516     0.14446691      1491.8846 
Loop time of 1491.88 on 40 procs for 154320 steps with 516 atoms, finish time Tue Jan  3 03:17:57 2023


Pair  time (%) = 0.312946 (0.0209766)
Neigh time (%) = 1.16655 (0.0781929)
Comm  time (%) = 2.22929 (0.149428)
Outpt time (%) = 0.00050649 (3.39497e-05)
Other time (%) = 1488.18 (99.7514)

Nlocal:    12.9 ave 196 max 0 min
Histogram: 36 0 1 1 0 0 0 0 0 2
Nghost:    6.275 ave 85 max 0 min
Histogram: 36 0 0 0 0 2 0 0 1 1
Neighs:    4.2 ave 74 max 0 min
Histogram: 36 0 2 0 0 0 0 1 0 1

Total # of neighbors = 168
Ave neighs/atom = 0.325581
Neighbor list builds = 3737
Dangerous builds = 519
Setting up run at Tue Jan  3 03:17:57 2023

Memory usage per processor = 958.989 Mbytes
    Step    Atoms         KinEng            CPU 
 1543202      516     0.14446691              0 
 1697522      515     0.13975353      1496.1992 
Loop time of 1496.2 on 40 procs for 154320 steps with 515 atoms, finish time Tue Jan  3 03:42:53 2023


Pair  time (%) = 0.315083 (0.0210588)
Neigh time (%) = 1.42729 (0.0953941)
Comm  time (%) = 2.44071 (0.163127)
Outpt time (%) = 0.0073275 (0.00048974)
Other time (%) = 1492.01 (99.7199)

Nlocal:    12.875 ave 196 max 0 min
Histogram: 36 0 1 1 0 0 0 0 0 2
Nghost:    6.375 ave 85 max 0 min
Histogram: 36 0 0 0 0 2 0 0 1 1
Neighs:    4.175 ave 71 max 0 min
Histogram: 36 0 1 1 0 0 0 1 0 1

Total # of neighbors = 167
Ave neighs/atom = 0.324272
Neighbor list builds = 4496
Dangerous builds = 358
Setting up run at Tue Jan  3 03:42:53 2023

Memory usage per processor = 958.989 Mbytes
    Step    Atoms         KinEng            CPU 
 1697522      515     0.13975353              0 
 1851842      515     0.15199737      1490.1361 
Loop time of 1490.14 on 40 procs for 154320 steps with 515 atoms, finish time Tue Jan  3 04:07:43 2023


Pair  time (%) = 0.312754 (0.0209883)
Neigh time (%) = 1.23153 (0.0826456)
Comm  time (%) = 2.69616 (0.180934)
Outpt time (%) = 0.000481516 (3.23135e-05)
Other time (%) = 1485.9 (99.7154)

Nlocal:    12.875 ave 195 max 0 min
Histogram: 36 0 1 1 0 0 0 0 0 2
Nghost:    6.4 ave 87 max 0 min
Histogram: 36 0 0 0 0 2 0 0 1 1
Neighs:    4.05 ave 68 max 0 min
Histogram: 36 0 1 1 0 0 0 1 0 1

Total # of neighbors = 162
Ave neighs/atom = 0.314563
Neighbor list builds = 3763
Dangerous builds = 0
Setting up run at Tue Jan  3 04:07:43 2023

Memory usage per processor = 958.989 Mbytes
    Step    Atoms         KinEng            CPU 
 1851842      515     0.15199737              0 
 2006162      514     0.26371093      1530.5678 
Loop time of 1530.57 on 40 procs for 154320 steps with 514 atoms, finish time Tue Jan  3 04:33:14 2023


Pair  time (%) = 0.327342 (0.021387)
Neigh time (%) = 2.86696 (0.187313)
Comm  time (%) = 4.73139 (0.309126)
Outpt time (%) = 0.000435998 (2.84861e-05)
Other time (%) = 1522.64 (99.4821)

Nlocal:    12.85 ave 197 max 0 min
Histogram: 36 0 1 1 0 0 0 0 0 2
Nghost:    6.375 ave 84 max 0 min
Histogram: 36 0 0 0 0 1 1 0 1 1
Neighs:    4.2 ave 68 max 0 min
Histogram: 36 0 1 0 1 0 0 1 0 1

Total # of neighbors = 168
Ave neighs/atom = 0.326848
Neighbor list builds = 8897
Dangerous builds = 497
Setting up run at Tue Jan  3 04:33:14 2023

Memory usage per processor = 958.989 Mbytes
    Step    Atoms         KinEng            CPU 
 2006162      514     0.26371093              0 
 2160482      514     0.18902031      1500.9611 
Loop time of 1500.96 on 40 procs for 154320 steps with 514 atoms, finish time Tue Jan  3 04:58:15 2023


Pair  time (%) = 0.318047 (0.0211895)
Neigh time (%) = 1.64694 (0.109726)
Comm  time (%) = 3.46566 (0.230896)
Outpt time (%) = 0.000485675 (3.23576e-05)
Other time (%) = 1495.53 (99.6382)

Nlocal:    12.85 ave 194 max 0 min
Histogram: 36 0 1 1 0 0 0 0 0 2
Nghost:    6.6 ave 90 max 0 min
Histogram: 36 0 0 0 1 1 0 0 1 1
Neighs:    4.375 ave 75 max 0 min
Histogram: 36 0 1 1 0 0 0 1 0 1

Total # of neighbors = 175
Ave neighs/atom = 0.340467
Neighbor list builds = 5025
Dangerous builds = 0
Setting up run at Tue Jan  3 04:58:15 2023

Memory usage per processor = 958.989 Mbytes
    Step    Atoms         KinEng            CPU 
 2160482      514     0.18902031              0 
 2314802      513     0.15414993      1553.0472 
Loop time of 1553.05 on 40 procs for 154320 steps with 513 atoms, finish time Tue Jan  3 05:24:08 2023


Pair  time (%) = 0.336269 (0.0216522)
Neigh time (%) = 4.22941 (0.27233)
Comm  time (%) = 6.16106 (0.396708)
Outpt time (%) = 0.00446069 (0.000287221)
Other time (%) = 1542.32 (99.309)

Nlocal:    12.825 ave 195 max 0 min
Histogram: 36 0 2 0 0 0 0 0 0 2
Nghost:    6.475 ave 83 max 0 min
Histogram: 36 0 0 0 0 1 1 0 1 1
Neighs:    4.1 ave 74 max 0 min
Histogram: 36 0 2 0 0 0 1 0 0 1

Total # of neighbors = 164
Ave neighs/atom = 0.319688
Neighbor list builds = 13212
Dangerous builds = 453
Setting up run at Tue Jan  3 05:24:08 2023

Memory usage per processor = 958.989 Mbytes
    Step    Atoms         KinEng            CPU 
 2314802      513     0.15414993              0 
 2469122      513     0.63746187      1546.5575 
Loop time of 1546.56 on 40 procs for 154320 steps with 513 atoms, finish time Tue Jan  3 05:49:55 2023


Pair  time (%) = 0.337212 (0.021804)
Neigh time (%) = 3.97779 (0.257203)
Comm  time (%) = 6.06861 (0.392395)
Outpt time (%) = 0.00174054 (0.000112543)
Other time (%) = 1536.17 (99.3285)

Nlocal:    12.825 ave 196 max 0 min
Histogram: 36 0 2 0 0 0 0 0 0 2
Nghost:    6.6 ave 81 max 0 min
Histogram: 36 0 0 0 1 0 0 1 0 2
Neighs:    4.275 ave 73 max 0 min
Histogram: 36 0 1 1 0 0 0 1 0 1

Total # of neighbors = 171
Ave neighs/atom = 0.333333
Neighbor list builds = 12175
Dangerous builds = 0
Setting up run at Tue Jan  3 05:49:55 2023

Memory usage per processor = 958.989 Mbytes
    Step    Atoms         KinEng            CPU 
 2469122      513     0.63746187              0 
 2623442      513     0.48113847      1518.6415 
Loop time of 1518.64 on 40 procs for 154320 steps with 513 atoms, finish time Tue Jan  3 06:15:13 2023


Pair  time (%) = 0.321609 (0.0211774)
Neigh time (%) = 2.35499 (0.155072)
Comm  time (%) = 4.06436 (0.267632)
Outpt time (%) = 0.00053431 (3.51834e-05)
Other time (%) = 1511.9 (99.5561)

Nlocal:    12.825 ave 196 max 0 min
Histogram: 36 0 2 0 0 0 0 0 1 1
Nghost:    6.675 ave 82 max 0 min
Histogram: 36 0 0 0 1 0 0 1 0 2
Neighs:    4.55 ave 71 max 0 min
Histogram: 36 0 1 1 0 0 0 0 0 2

Total # of neighbors = 182
Ave neighs/atom = 0.354776
Neighbor list builds = 7173
Dangerous builds = 0
Setting up run at Tue Jan  3 06:15:14 2023

Memory usage per processor = 958.989 Mbytes
    Step    Atoms         KinEng            CPU 
 2623442      513     0.48113847              0 
 2777762      510     0.32994531      1506.4939 
Loop time of 1506.49 on 40 procs for 154320 steps with 510 atoms, finish time Tue Jan  3 06:40:20 2023


Pair  time (%) = 0.317862 (0.0210995)
Neigh time (%) = 1.75923 (0.116776)
Comm  time (%) = 3.63296 (0.241153)
Outpt time (%) = 0.000472929 (3.13927e-05)
Other time (%) = 1500.78 (99.6209)

Nlocal:    12.75 ave 202 max 0 min
Histogram: 36 0 2 0 0 0 0 0 1 1
Nghost:    6.375 ave 82 max 0 min
Histogram: 36 0 0 0 1 0 1 0 1 1
Neighs:    4.15 ave 82 max 0 min
Histogram: 36 1 0 1 0 1 0 0 0 1

Total # of neighbors = 166
Ave neighs/atom = 0.32549
Neighbor list builds = 5440
Dangerous builds = 3
Setting up run at Tue Jan  3 06:40:20 2023

Memory usage per processor = 958.989 Mbytes
    Step    Atoms         KinEng            CPU 
 2777762      510     0.32994531              0 
 2932082      509      0.2778986      1510.2908 
Loop time of 1510.29 on 40 procs for 154320 steps with 509 atoms, finish time Tue Jan  3 07:05:30 2023


Pair  time (%) = 0.317071 (0.020994)
Neigh time (%) = 1.51429 (0.100265)
Comm  time (%) = 3.40727 (0.225603)
Outpt time (%) = 0.000379658 (2.5138e-05)
Other time (%) = 1505.05 (99.6531)

Nlocal:    12.725 ave 205 max 0 min
Histogram: 36 0 2 0 0 0 0 1 0 1
Nghost:    6.075 ave 81 max 0 min
Histogram: 36 0 0 0 1 0 1 1 0 1
Neighs:    3.625 ave 75 max 0 min
Histogram: 36 1 1 0 0 1 0 0 0 1

Total # of neighbors = 145
Ave neighs/atom = 0.284872
Neighbor list builds = 4684
Dangerous builds = 185
Setting up run at Tue Jan  3 07:05:31 2023

Memory usage per processor = 958.989 Mbytes
    Step    Atoms         KinEng            CPU 
 2932082      509      0.2778986              0 
 3086402      507     0.27693515       1503.534 
Loop time of 1503.53 on 40 procs for 154320 steps with 507 atoms, finish time Tue Jan  3 07:30:34 2023


Pair  time (%) = 0.315949 (0.0210138)
Neigh time (%) = 1.56475 (0.104071)
Comm  time (%) = 3.51718 (0.233928)
Outpt time (%) = 0.000463425 (3.08224e-05)
Other time (%) = 1498.14 (99.641)

Nlocal:    12.675 ave 203 max 0 min
Histogram: 36 0 2 0 0 0 0 1 0 1
Nghost:    6.025 ave 76 max 0 min
Histogram: 36 0 0 0 1 0 0 1 0 2
Neighs:    3.575 ave 78 max 0 min
Histogram: 36 2 0 0 0 1 0 0 0 1

Total # of neighbors = 143
Ave neighs/atom = 0.282051
Neighbor list builds = 4780
Dangerous builds = 0
Setting up run at Tue Jan  3 07:30:34 2023

Memory usage per processor = 958.989 Mbytes
    Step    Atoms         KinEng            CPU 
 3086402      507     0.27693515              0 
 3240722      504     0.56118035      1503.7666 
Loop time of 1503.77 on 40 procs for 154320 steps with 504 atoms, finish time Tue Jan  3 07:55:38 2023


Pair  time (%) = 0.315078 (0.0209526)
Neigh time (%) = 1.70983 (0.113703)
Comm  time (%) = 3.39722 (0.225914)
Outpt time (%) = 0.00053174 (3.53605e-05)
Other time (%) = 1498.34 (99.6394)

Nlocal:    12.6 ave 203 max 0 min
Histogram: 36 0 2 0 0 0 0 1 0 1
Nghost:    5.675 ave 72 max 0 min
Histogram: 36 0 0 0 1 0 1 0 0 2
Neighs:    3.55 ave 75 max 0 min
Histogram: 36 1 1 0 1 0 0 0 0 1

Total # of neighbors = 142
Ave neighs/atom = 0.281746
Neighbor list builds = 5282
Dangerous builds = 312
Setting up run at Tue Jan  3 07:55:38 2023

Memory usage per processor = 958.989 Mbytes
    Step    Atoms         KinEng            CPU 
 3240722      504     0.56118035              0 
 3395042      501     0.35225219      1526.9979 
Loop time of 1527 on 40 procs for 154320 steps with 501 atoms, finish time Tue Jan  3 08:21:05 2023


Pair  time (%) = 0.322349 (0.02111)
Neigh time (%) = 2.40025 (0.157187)
Comm  time (%) = 4.5043 (0.294977)
Outpt time (%) = 0.000486944 (3.1889e-05)
Other time (%) = 1519.77 (99.5267)

Nlocal:    12.525 ave 202 max 0 min
Histogram: 36 0 2 0 0 0 0 1 0 1
Nghost:    5.675 ave 74 max 0 min
Histogram: 36 0 0 0 1 0 1 0 1 1
Neighs:    3.525 ave 79 max 0 min
Histogram: 36 2 0 0 1 0 0 0 0 1

Total # of neighbors = 141
Ave neighs/atom = 0.281437
Neighbor list builds = 7398
Dangerous builds = 180
Setting up run at Tue Jan  3 08:21:05 2023

Memory usage per processor = 958.989 Mbytes
    Step    Atoms         KinEng            CPU 
 3395042      501     0.35225219              0 
 3549362      499     0.30490151      1527.7632 
Loop time of 1527.76 on 40 procs for 154320 steps with 499 atoms, finish time Tue Jan  3 08:46:33 2023


Pair  time (%) = 0.324607 (0.0212472)
Neigh time (%) = 2.88098 (0.188575)
Comm  time (%) = 6.39905 (0.418851)
Outpt time (%) = 0.00055647 (3.64238e-05)
Other time (%) = 1518.16 (99.3713)

Nlocal:    12.475 ave 202 max 0 min
Histogram: 36 0 2 0 0 0 0 1 0 1
Nghost:    5.7 ave 77 max 0 min
Histogram: 36 0 0 0 1 1 0 0 1 1
Neighs:    3.175 ave 72 max 0 min
Histogram: 36 2 0 0 1 0 0 0 0 1

Total # of neighbors = 127
Ave neighs/atom = 0.254509
Neighbor list builds = 8872
Dangerous builds = 3
Setting up run at Tue Jan  3 08:46:33 2023

Memory usage per processor = 958.989 Mbytes
    Step    Atoms         KinEng            CPU 
 3549362      499     0.30490151              0 
 3703682      498     0.48427227      1513.0803 
Loop time of 1513.08 on 40 procs for 154320 steps with 498 atoms, finish time Tue Jan  3 09:11:46 2023


Pair  time (%) = 0.320946 (0.0212114)
Neigh time (%) = 2.11352 (0.139683)
Comm  time (%) = 5.13324 (0.339257)
Outpt time (%) = 0.000573653 (3.79129e-05)
Other time (%) = 1505.51 (99.4998)

Nlocal:    12.45 ave 198 max 0 min
Histogram: 36 0 2 0 0 0 0 1 0 1
Nghost:    5.75 ave 76 max 0 min
Histogram: 36 0 0 0 0 2 0 0 1 1
Neighs:    3.15 ave 69 max 0 min
Histogram: 36 2 0 0 0 1 0 0 0 1

Total # of neighbors = 126
Ave neighs/atom = 0.253012
Neighbor list builds = 6540
Dangerous builds = 0
Setting up run at Tue Jan  3 09:11:46 2023

Memory usage per processor = 958.989 Mbytes
    Step    Atoms         KinEng            CPU 
 3703682      498     0.48427227              0 
 3858002      494      0.3412932      1529.4399 
Loop time of 1529.44 on 40 procs for 154320 steps with 494 atoms, finish time Tue Jan  3 09:37:16 2023


Pair  time (%) = 0.328153 (0.0214557)
Neigh time (%) = 2.86482 (0.187312)
Comm  time (%) = 6.81211 (0.445399)
Outpt time (%) = 0.000489925 (3.20329e-05)
Other time (%) = 1519.43 (99.3458)

Nlocal:    12.35 ave 190 max 0 min
Histogram: 36 0 2 0 0 0 0 0 1 1
Nghost:    5.675 ave 70 max 0 min
Histogram: 36 0 0 0 0 1 1 0 0 2
Neighs:    3.225 ave 71 max 0 min
Histogram: 37 1 0 0 0 1 0 0 0 1

Total # of neighbors = 129
Ave neighs/atom = 0.261134
Neighbor list builds = 9088
Dangerous builds = 855
Setting up run at Tue Jan  3 09:37:16 2023

Memory usage per processor = 958.989 Mbytes
    Step    Atoms         KinEng            CPU 
 3858002      494      0.3412932              0 
 4012322      489     0.44929401       1515.946 
Loop time of 1515.95 on 40 procs for 154320 steps with 489 atoms, finish time Tue Jan  3 10:02:32 2023


Pair  time (%) = 0.319637 (0.021085)
Neigh time (%) = 1.92534 (0.127006)
Comm  time (%) = 4.73761 (0.312518)
Outpt time (%) = 0.000520615 (3.43426e-05)
Other time (%) = 1508.96 (99.5394)

Nlocal:    12.225 ave 185 max 0 min
Histogram: 35 1 2 0 0 0 0 0 1 1
Nghost:    5.525 ave 66 max 0 min
Histogram: 36 0 0 0 0 1 0 1 0 2
Neighs:    3.025 ave 62 max 0 min
Histogram: 36 2 0 0 0 0 1 0 0 1

Total # of neighbors = 121
Ave neighs/atom = 0.247444
Neighbor list builds = 6115
Dangerous builds = 766
Setting up run at Tue Jan  3 10:02:32 2023

Memory usage per processor = 958.989 Mbytes
    Step    Atoms         KinEng            CPU 
 4012322      489     0.44929401              0 
 4166642      483     0.44306991      1515.5503 
Loop time of 1515.55 on 40 procs for 154320 steps with 483 atoms, finish time Tue Jan  3 10:27:47 2023


Pair  time (%) = 0.320289 (0.0211335)
Neigh time (%) = 2.28945 (0.151064)
Comm  time (%) = 5.31899 (0.350961)
Outpt time (%) = 0.000546587 (3.60652e-05)
Other time (%) = 1507.62 (99.4768)

Nlocal:    12.075 ave 177 max 0 min
Histogram: 36 0 2 0 0 0 0 0 1 1
Nghost:    5.5 ave 64 max 0 min
Histogram: 36 0 0 0 0 1 0 1 0 2
Neighs:    3.05 ave 63 max 0 min
Histogram: 36 2 0 0 0 0 1 0 0 1

Total # of neighbors = 122
Ave neighs/atom = 0.252588
Neighbor list builds = 7104
Dangerous builds = 9
Setting up run at Tue Jan  3 10:27:48 2023

Memory usage per processor = 958.989 Mbytes
    Step    Atoms         KinEng            CPU 
 4166642      483     0.44306991              0 
 4320962      483     0.64846627      1502.4208 
Loop time of 1502.42 on 40 procs for 154320 steps with 483 atoms, finish time Tue Jan  3 10:52:50 2023


Pair  time (%) = 0.31268 (0.0208117)
Neigh time (%) = 1.73943 (0.115775)
Comm  time (%) = 4.22644 (0.281309)
Outpt time (%) = 0.0204538 (0.00136139)
Other time (%) = 1496.12 (99.5807)

Nlocal:    12.075 ave 172 max 0 min
Histogram: 35 1 2 0 0 0 0 0 1 1
Nghost:    5.55 ave 66 max 0 min
Histogram: 36 0 0 0 0 1 0 1 0 2
Neighs:    2.95 ave 52 max 0 min
Histogram: 36 1 1 0 0 0 0 0 1 1

Total # of neighbors = 118
Ave neighs/atom = 0.244306
Neighbor list builds = 5229
Dangerous builds = 0
Setting up run at Tue Jan  3 10:52:50 2023

Memory usage per processor = 958.989 Mbytes
    Step    Atoms         KinEng            CPU 
 4320962      483     0.64846627              0 
 4475282      479     0.42701213      1506.2773 
Loop time of 1506.28 on 40 procs for 154320 steps with 479 atoms, finish time Tue Jan  3 11:17:56 2023


Pair  time (%) = 0.310784 (0.0206326)
Neigh time (%) = 2.03964 (0.135409)
Comm  time (%) = 4.92464 (0.326941)
Outpt time (%) = 0.00311073 (0.000206517)
Other time (%) = 1499 (99.5168)

Nlocal:    11.975 ave 166 max 0 min
Histogram: 36 0 1 1 0 0 0 0 0 2
Nghost:    5.35 ave 67 max 0 min
Histogram: 36 0 0 0 0 2 0 0 0 2
Neighs:    3.025 ave 54 max 0 min
Histogram: 36 1 1 0 0 0 0 0 1 1

Total # of neighbors = 121
Ave neighs/atom = 0.25261
Neighbor list builds = 6454
Dangerous builds = 934
Setting up run at Tue Jan  3 11:17:56 2023

Memory usage per processor = 958.989 Mbytes
    Step    Atoms         KinEng            CPU 
 4475282      479     0.42701213              0 
 4629602      475      0.7387891      1536.5671 
Loop time of 1536.57 on 40 procs for 154320 steps with 475 atoms, finish time Tue Jan  3 11:43:33 2023


Pair  time (%) = 0.326103 (0.0212228)
Neigh time (%) = 3.27926 (0.213415)
Comm  time (%) = 7.14308 (0.464873)
Outpt time (%) = 0.000470287 (3.06063e-05)
Other time (%) = 1525.82 (99.3005)

Nlocal:    11.875 ave 164 max 0 min
Histogram: 35 1 2 0 0 0 0 0 0 2
Nghost:    5.325 ave 63 max 0 min
Histogram: 36 0 0 0 0 0 2 0 0 2
Neighs:    3.075 ave 52 max 0 min
Histogram: 36 0 2 0 0 0 0 0 1 1

Total # of neighbors = 123
Ave neighs/atom = 0.258947
Neighbor list builds = 10144
Dangerous builds = 231
Setting up run at Tue Jan  3 11:43:33 2023

Memory usage per processor = 958.989 Mbytes
    Step    Atoms         KinEng            CPU 
 4629602      475      0.7387891              0 
 4783922      473     0.72966588      1521.7334 
Loop time of 1521.73 on 40 procs for 154320 steps with 473 atoms, finish time Tue Jan  3 12:08:55 2023


Pair  time (%) = 0.320303 (0.0210486)
Neigh time (%) = 2.83287 (0.186161)
Comm  time (%) = 7.72546 (0.507675)
Outpt time (%) = 0.000580279 (3.81327e-05)
Other time (%) = 1510.86 (99.2851)

Nlocal:    11.825 ave 160 max 0 min
Histogram: 35 1 1 1 0 0 0 0 0 2
Nghost:    5.175 ave 64 max 0 min
Histogram: 36 0 0 0 0 1 1 0 0 2
Neighs:    3.275 ave 60 max 0 min
Histogram: 36 1 1 0 0 0 0 0 1 1

Total # of neighbors = 131
Ave neighs/atom = 0.276956
Neighbor list builds = 8730
Dangerous builds = 1
Setting up run at Tue Jan  3 12:08:55 2023

Memory usage per processor = 958.989 Mbytes
    Step    Atoms         KinEng            CPU 
 4783922      473     0.72966588              0 
 4938242      471     0.45242459      1527.7429 
Loop time of 1527.74 on 40 procs for 154320 steps with 471 atoms, finish time Tue Jan  3 12:34:23 2023


Pair  time (%) = 0.322393 (0.0211025)
Neigh time (%) = 2.79027 (0.18264)
Comm  time (%) = 7.6856 (0.503069)
Outpt time (%) = 0.000481357 (3.15077e-05)
Other time (%) = 1516.94 (99.2932)

Nlocal:    11.775 ave 161 max 0 min
Histogram: 35 1 2 0 0 0 0 0 0 2
Nghost:    5.225 ave 61 max 0 min
Histogram: 36 0 0 0 0 1 0 1 0 2
Neighs:    3.125 ave 61 max 0 min
Histogram: 36 2 0 0 0 0 0 1 0 1

Total # of neighbors = 125
Ave neighs/atom = 0.265393
Neighbor list builds = 8997
Dangerous builds = 1788
Setting up run at Tue Jan  3 12:34:23 2023

Memory usage per processor = 958.989 Mbytes
    Step    Atoms         KinEng            CPU 
 4938242      471     0.45242459              0 
 5092562      469     0.44634849      1538.6602 
Loop time of 1538.66 on 40 procs for 154320 steps with 469 atoms, finish time Tue Jan  3 13:00:01 2023


Pair  time (%) = 0.327275 (0.0212701)
Neigh time (%) = 3.76355 (0.244599)
Comm  time (%) = 7.53583 (0.489765)
Outpt time (%) = 0.000570056 (3.70488e-05)
Other time (%) = 1527.03 (99.2443)

Nlocal:    11.725 ave 160 max 0 min
Histogram: 34 2 2 0 0 0 0 0 0 2
Nghost:    4.975 ave 54 max 0 min
Histogram: 36 0 0 0 0 0 1 0 1 2
Neighs:    3.25 ave 60 max 0 min
Histogram: 36 2 0 0 0 0 0 0 1 1

Total # of neighbors = 130
Ave neighs/atom = 0.277186
Neighbor list builds = 11636
Dangerous builds = 566
Setting up run at Tue Jan  3 13:00:01 2023

Memory usage per processor = 958.989 Mbytes
    Step    Atoms         KinEng            CPU 
 5092562      469     0.44634849              0 
 5246882      467     0.55206888      1518.1103 
Loop time of 1518.27 on 40 procs for 154320 steps with 467 atoms, finish time Tue Jan  3 13:25:20 2023


Pair  time (%) = 0.319045 (0.0210137)
Neigh time (%) = 2.65629 (0.174955)
Comm  time (%) = 5.7954 (0.38171)
Outpt time (%) = 0.000468182 (3.08365e-05)
Other time (%) = 1509.5 (99.4223)

Nlocal:    11.675 ave 163 max 0 min
Histogram: 35 1 2 0 0 0 0 0 0 2
Nghost:    4.975 ave 56 max 0 min
Histogram: 36 0 0 0 0 1 0 0 1 2
Neighs:    3.525 ave 63 max 0 min
Histogram: 36 2 0 0 0 0 0 0 0 2

Total # of neighbors = 141
Ave neighs/atom = 0.301927
Neighbor list builds = 8367
Dangerous builds = 1118
Setting up run at Tue Jan  3 13:25:20 2023

Memory usage per processor = 958.989 Mbytes
    Step    Atoms         KinEng            CPU 
 5246882      467     0.55206888              0 
 5401202      462     0.57835312      1512.7095 
Loop time of 1512.71 on 40 procs for 154320 steps with 462 atoms, finish time Tue Jan  3 13:50:33 2023


Pair  time (%) = 0.316874 (0.0209475)
Neigh time (%) = 2.3458 (0.155073)
Comm  time (%) = 5.44877 (0.360199)
Outpt time (%) = 0.00312961 (0.000206888)
Other time (%) = 1504.59 (99.4636)

Nlocal:    11.55 ave 161 max 0 min
Histogram: 35 1 2 0 0 0 0 0 0 2
Nghost:    4.85 ave 54 max 0 min
Histogram: 36 0 0 0 0 0 1 0 1 2
Neighs:    3.25 ave 55 max 0 min
Histogram: 36 2 0 0 0 0 0 0 0 2

Total # of neighbors = 130
Ave neighs/atom = 0.281385
Neighbor list builds = 7321
Dangerous builds = 443
Setting up run at Tue Jan  3 13:50:33 2023

Memory usage per processor = 958.989 Mbytes
    Step    Atoms         KinEng            CPU 
 5401202      462     0.57835312              0 
 5555522      457      0.4863512      1529.3511 
Loop time of 1529.35 on 40 procs for 154320 steps with 457 atoms, finish time Tue Jan  3 14:16:02 2023


Pair  time (%) = 0.31841 (0.0208199)
Neigh time (%) = 3.00244 (0.196321)
Comm  time (%) = 6.92135 (0.452568)
Outpt time (%) = 0.000498552 (3.25989e-05)
Other time (%) = 1519.11 (99.3303)

Nlocal:    11.425 ave 160 max 0 min
Histogram: 35 1 1 1 0 0 0 0 0 2
Nghost:    4.525 ave 53 max 0 min
Histogram: 36 0 0 0 0 1 0 1 0 2
Neighs:    2.675 ave 49 max 0 min
Histogram: 37 1 0 0 0 0 0 0 0 2

Total # of neighbors = 107
Ave neighs/atom = 0.234136
Neighbor list builds = 9186
Dangerous builds = 308
Setting up run at Tue Jan  3 14:16:02 2023

Memory usage per processor = 958.989 Mbytes
    Step    Atoms         KinEng            CPU 
 5555522      457      0.4863512              0 
 5709842      450     0.40386017      1532.9639 
Loop time of 1532.96 on 40 procs for 154320 steps with 450 atoms, finish time Tue Jan  3 14:41:35 2023


Pair  time (%) = 0.317749 (0.0207277)
Neigh time (%) = 3.48964 (0.22764)
Comm  time (%) = 8.71994 (0.568828)
Outpt time (%) = 0.000457411 (2.98384e-05)
Other time (%) = 1520.44 (99.1828)

Nlocal:    11.25 ave 160 max 0 min
Histogram: 35 1 2 0 0 0 0 0 0 2
Nghost:    4.475 ave 51 max 0 min
Histogram: 36 0 0 0 0 0 1 1 0 2
Neighs:    2.4 ave 44 max 0 min
Histogram: 37 1 0 0 0 0 0 0 0 2

Total # of neighbors = 96
Ave neighs/atom = 0.213333
Neighbor list builds = 10935
Dangerous builds = 796
Setting up run at Tue Jan  3 14:41:35 2023

Memory usage per processor = 958.989 Mbytes
    Step    Atoms         KinEng            CPU 
 5709842      450     0.40386017              0 
 5864162      445     0.45436157      1526.0377 
Loop time of 1526.04 on 40 procs for 154320 steps with 445 atoms, finish time Tue Jan  3 15:07:01 2023


Pair  time (%) = 0.317264 (0.02079)
Neigh time (%) = 3.25661 (0.213403)
Comm  time (%) = 6.71278 (0.439883)
Outpt time (%) = 0.000519965 (3.40729e-05)
Other time (%) = 1515.75 (99.3259)

Nlocal:    11.125 ave 158 max 0 min
Histogram: 35 1 2 0 0 0 0 0 1 1
Nghost:    4.3 ave 52 max 0 min
Histogram: 36 0 0 0 0 1 1 0 0 2
Neighs:    2.25 ave 48 max 0 min
Histogram: 37 1 0 0 0 0 0 1 0 1

Total # of neighbors = 90
Ave neighs/atom = 0.202247
Neighbor list builds = 9861
Dangerous builds = 0
Setting up run at Tue Jan  3 15:07:01 2023

Memory usage per processor = 958.989 Mbytes
    Step    Atoms         KinEng            CPU 
 5864162      445     0.45436157              0 
 6018482      435     0.79695177      1532.1011 
Loop time of 1532.1 on 40 procs for 154320 steps with 435 atoms, finish time Tue Jan  3 15:32:33 2023


Pair  time (%) = 0.314822 (0.0205484)
Neigh time (%) = 3.53181 (0.23052)
Comm  time (%) = 8.19029 (0.534579)
Outpt time (%) = 0.000514885 (3.36064e-05)
Other time (%) = 1520.06 (99.2143)

Nlocal:    10.875 ave 149 max 0 min
Histogram: 35 1 1 1 0 0 0 0 0 2
Nghost:    4.45 ave 54 max 0 min
Histogram: 36 0 0 0 0 1 1 0 1 1
Neighs:    2.275 ave 42 max 0 min
Histogram: 37 1 0 0 0 0 0 0 0 2

Total # of neighbors = 91
Ave neighs/atom = 0.209195
Neighbor list builds = 11082
Dangerous builds = 842
Setting up run at Tue Jan  3 15:32:33 2023

Memory usage per processor = 958.989 Mbytes
    Step    Atoms         KinEng            CPU 
 6018482      435     0.79695177              0 
 6172802      429     0.49497184      1518.4671 
Loop time of 1518.47 on 40 procs for 154320 steps with 429 atoms, finish time Tue Jan  3 15:57:52 2023


Pair  time (%) = 0.302995 (0.019954)
Neigh time (%) = 2.77422 (0.182699)
Comm  time (%) = 6.82562 (0.449507)
Outpt time (%) = 0.00305453 (0.000201159)
Other time (%) = 1508.56 (99.3476)

Nlocal:    10.725 ave 152 max 0 min
Histogram: 36 0 2 0 0 0 0 0 1 1
Nghost:    4.3 ave 54 max 0 min
Histogram: 36 0 0 0 0 1 1 0 1 1
Neighs:    2.475 ave 48 max 0 min
Histogram: 37 1 0 0 0 0 0 0 1 1

Total # of neighbors = 99
Ave neighs/atom = 0.230769
Neighbor list builds = 8444
Dangerous builds = 2
Setting up run at Tue Jan  3 15:57:52 2023

Memory usage per processor = 958.989 Mbytes
    Step    Atoms         KinEng            CPU 
 6172802      429     0.49497184              0 
 6327122      423     0.34901034      1542.3198 
Loop time of 1542.32 on 40 procs for 154320 steps with 423 atoms, finish time Tue Jan  3 16:23:34 2023


Pair  time (%) = 0.309639 (0.0200762)
Neigh time (%) = 4.21579 (0.273341)
Comm  time (%) = 9.08966 (0.58935)
Outpt time (%) = 0.00051083 (3.31209e-05)
Other time (%) = 1528.7 (99.1172)

Nlocal:    10.575 ave 166 max 0 min
Histogram: 35 2 1 0 0 0 1 0 0 1
Nghost:    4.5 ave 56 max 0 min
Histogram: 36 0 0 0 0 1 1 0 1 1
Neighs:    2.1 ave 48 max 0 min
Histogram: 37 1 0 0 0 1 0 0 0 1

Total # of neighbors = 84
Ave neighs/atom = 0.198582
Neighbor list builds = 13172
Dangerous builds = 415
Setting up run at Tue Jan  3 16:23:34 2023

Memory usage per processor = 958.989 Mbytes
    Step    Atoms         KinEng            CPU 
 6327122      423     0.34901034              0 
 6481442      408     0.65498172      1516.5812 
Loop time of 1516.58 on 40 procs for 154320 steps with 408 atoms, finish time Tue Jan  3 16:48:51 2023


Pair  time (%) = 0.300247 (0.0197976)
Neigh time (%) = 2.956 (0.194912)
Comm  time (%) = 6.29412 (0.41502)
Outpt time (%) = 0.00054049 (3.56387e-05)
Other time (%) = 1507.03 (99.3702)

Nlocal:    10.2 ave 163 max 0 min
Histogram: 35 2 1 0 0 0 0 1 0 1
Nghost:    4.125 ave 50 max 0 min
Histogram: 36 0 0 0 1 0 0 1 0 2
Neighs:    2.025 ave 47 max 0 min
Histogram: 37 1 0 0 0 1 0 0 0 1

Total # of neighbors = 81
Ave neighs/atom = 0.198529
Neighbor list builds = 9482
Dangerous builds = 1779
Setting up run at Tue Jan  3 16:48:51 2023

Memory usage per processor = 958.989 Mbytes
    Step    Atoms         KinEng            CPU 
 6481442      408     0.65498172              0 
 6635762      405     0.59712851      1515.8535 
Loop time of 1515.85 on 40 procs for 154320 steps with 405 atoms, finish time Tue Jan  3 17:14:07 2023


Pair  time (%) = 0.302325 (0.0199442)
Neigh time (%) = 3.05288 (0.201397)
Comm  time (%) = 7.14202 (0.471155)
Outpt time (%) = 0.000485599 (3.20347e-05)
Other time (%) = 1505.36 (99.3075)

Nlocal:    10.125 ave 153 max 0 min
Histogram: 35 1 2 0 0 0 0 1 0 1
Nghost:    4.4 ave 51 max 0 min
Histogram: 36 0 0 0 0 1 0 0 1 2
Neighs:    2.2 ave 45 max 0 min
Histogram: 36 2 0 0 0 0 1 0 0 1

Total # of neighbors = 88
Ave neighs/atom = 0.217284
Neighbor list builds = 9247
Dangerous builds = 7
Setting up run at Tue Jan  3 17:14:07 2023

Memory usage per processor = 958.989 Mbytes
    Step    Atoms         KinEng            CPU 
 6635762      405     0.59712851              0 
 6790082      401     0.57331113      1516.6998 
Loop time of 1516.7 on 40 procs for 154320 steps with 401 atoms, finish time Tue Jan  3 17:39:24 2023


Pair  time (%) = 0.298061 (0.0196519)
Neigh time (%) = 2.78175 (0.183408)
Comm  time (%) = 6.89818 (0.454815)
Outpt time (%) = 0.000468301 (3.08763e-05)
Other time (%) = 1506.72 (99.3421)

Nlocal:    10.025 ave 146 max 0 min
Histogram: 35 1 2 0 0 0 0 0 1 1
Nghost:    4.125 ave 53 max 0 min
Histogram: 36 0 0 0 0 1 1 1 0 1
Neighs:    1.7 ave 37 max 0 min
Histogram: 36 2 0 0 0 1 0 0 0 1

Total # of neighbors = 68
Ave neighs/atom = 0.169576
Neighbor list builds = 8335
Dangerous builds = 1
Setting up run at Tue Jan  3 17:39:24 2023

Memory usage per processor = 958.989 Mbytes
    Step    Atoms         KinEng            CPU 
 6790082      401     0.57331113              0 
 6944402      398     0.53027106      1505.3798 
Loop time of 1505.38 on 40 procs for 154320 steps with 398 atoms, finish time Tue Jan  3 18:04:29 2023


Pair  time (%) = 0.304194 (0.0202071)
Neigh time (%) = 2.82911 (0.187933)
Comm  time (%) = 5.56473 (0.369656)
Outpt time (%) = 0.000446375 (2.9652e-05)
Other time (%) = 1496.68 (99.4222)

Nlocal:    9.95 ave 135 max 0 min
Histogram: 33 3 2 0 0 0 0 0 0 2
Nghost:    4.125 ave 51 max 0 min
Histogram: 36 0 0 0 0 1 1 1 0 1
Neighs:    1.625 ave 31 max 0 min
Histogram: 36 2 0 0 0 0 0 1 0 1

Total # of neighbors = 65
Ave neighs/atom = 0.163317
Neighbor list builds = 8502
Dangerous builds = 0
Setting up run at Tue Jan  3 18:04:29 2023

Memory usage per processor = 958.989 Mbytes
    Step    Atoms         KinEng            CPU 
 6944402      398     0.53027106              0 
 7098722      395     0.47735358      1515.9049 
Loop time of 1515.9 on 40 procs for 154320 steps with 395 atoms, finish time Tue Jan  3 18:29:45 2023


Pair  time (%) = 0.302248 (0.0199384)
Neigh time (%) = 2.92166 (0.192734)
Comm  time (%) = 6.31771 (0.416761)
Outpt time (%) = 0.000450334 (2.97073e-05)
Other time (%) = 1506.36 (99.3705)

Nlocal:    9.875 ave 139 max 0 min
Histogram: 33 3 2 0 0 0 0 0 1 1
Nghost:    3.825 ave 44 max 0 min
Histogram: 36 0 0 0 0 1 0 0 1 2
Neighs:    1.825 ave 35 max 0 min
Histogram: 36 1 1 0 0 0 1 0 0 1

Total # of neighbors = 73
Ave neighs/atom = 0.18481
Neighbor list builds = 8889
Dangerous builds = 1
Setting up run at Tue Jan  3 18:29:45 2023

Memory usage per processor = 958.989 Mbytes
    Step    Atoms         KinEng            CPU 
 7098722      395     0.47735358              0 
 7253042      389     0.52287461      1514.5158 
Loop time of 1514.52 on 40 procs for 154320 steps with 389 atoms, finish time Tue Jan  3 18:55:00 2023


Pair  time (%) = 0.295192 (0.0194908)
Neigh time (%) = 2.58182 (0.170472)
Comm  time (%) = 6.723 (0.443904)
Outpt time (%) = 0.000529668 (3.49728e-05)
Other time (%) = 1504.92 (99.3661)

Nlocal:    9.725 ave 134 max 0 min
Histogram: 33 3 2 0 0 0 0 0 1 1
Nghost:    4.125 ave 50 max 0 min
Histogram: 36 0 0 0 0 1 1 0 1 1
Neighs:    1.525 ave 27 max 0 min
Histogram: 36 1 0 0 1 0 1 0 0 1

Total # of neighbors = 61
Ave neighs/atom = 0.156812
Neighbor list builds = 7871
Dangerous builds = 148
Setting up run at Tue Jan  3 18:55:00 2023

Memory usage per processor = 958.989 Mbytes
    Step    Atoms         KinEng            CPU 
 7253042      389     0.52287461              0 
 7407362      385     0.48980592      1515.4356 
Loop time of 1515.44 on 40 procs for 154320 steps with 385 atoms, finish time Tue Jan  3 19:20:15 2023


Pair  time (%) = 0.29511 (0.0194736)
Neigh time (%) = 2.55691 (0.168724)
Comm  time (%) = 6.78472 (0.447708)
Outpt time (%) = 0.000505008 (3.33243e-05)
Other time (%) = 1505.8 (99.3641)

Nlocal:    9.625 ave 142 max 0 min
Histogram: 33 3 2 0 0 0 0 1 0 1
Nghost:    3.825 ave 45 max 0 min
Histogram: 36 0 0 0 0 1 0 1 1 1
Neighs:    1.725 ave 33 max 0 min
Histogram: 36 0 1 1 1 0 0 0 0 1

Total # of neighbors = 69
Ave neighs/atom = 0.179221
Neighbor list builds = 8017
Dangerous builds = 616
Setting up run at Tue Jan  3 19:20:15 2023

Memory usage per processor = 958.989 Mbytes
    Step    Atoms         KinEng            CPU 
 7407362      385     0.48980592              0 
 7561682      379     0.52585024      1516.9735 
Loop time of 1516.97 on 40 procs for 154320 steps with 379 atoms, finish time Tue Jan  3 19:45:32 2023


Pair  time (%) = 0.298745 (0.0196935)
Neigh time (%) = 3.46277 (0.228268)
Comm  time (%) = 7.66137 (0.505043)
Outpt time (%) = 0.000488976 (3.22337e-05)
Other time (%) = 1505.55 (99.247)

Nlocal:    9.475 ave 146 max 0 min
Histogram: 33 3 2 0 0 0 1 0 0 1
Nghost:    3.7 ave 46 max 0 min
Histogram: 36 0 0 0 1 0 0 2 0 1
Neighs:    1.6 ave 29 max 0 min
Histogram: 36 1 0 0 0 2 0 0 0 1

Total # of neighbors = 64
Ave neighs/atom = 0.168865
Neighbor list builds = 10505
Dangerous builds = 74
Setting up run at Tue Jan  3 19:45:32 2023

Memory usage per processor = 958.989 Mbytes
    Step    Atoms         KinEng            CPU 
 7561682      379     0.52585024              0 
 7716002      377      1.0808409        1542.02 
Loop time of 1542.02 on 40 procs for 154320 steps with 377 atoms, finish time Tue Jan  3 20:11:14 2023


Pair  time (%) = 0.29795 (0.0193221)
Neigh time (%) = 3.31423 (0.214928)
Comm  time (%) = 8.31841 (0.539449)
Outpt time (%) = 0.000434888 (2.82025e-05)
Other time (%) = 1530.09 (99.2263)

Nlocal:    9.425 ave 142 max 0 min
Histogram: 33 3 2 0 0 0 1 0 0 1
Nghost:    3.825 ave 51 max 0 min
Histogram: 36 0 0 0 1 0 1 1 0 1
Neighs:    1.625 ave 28 max 0 min
Histogram: 36 1 0 0 0 2 0 0 0 1

Total # of neighbors = 65
Ave neighs/atom = 0.172414
Neighbor list builds = 10190
Dangerous builds = 487
Setting up run at Tue Jan  3 20:11:14 2023

Memory usage per processor = 958.989 Mbytes
    Step    Atoms         KinEng            CPU 
 7716002      377      1.0808409              0 
 7870322      368     0.49011849      1521.6666 
Loop time of 1521.67 on 40 procs for 154320 steps with 368 atoms, finish time Tue Jan  3 20:36:36 2023


Pair  time (%) = 0.301014 (0.0197818)
Neigh time (%) = 3.16001 (0.207667)
Comm  time (%) = 8.80427 (0.578594)
Outpt time (%) = 0.000536358 (3.5248e-05)
Other time (%) = 1509.4 (99.1939)

Nlocal:    9.2 ave 131 max 0 min
Histogram: 35 1 0 2 0 0 0 1 0 1
Nghost:    3.625 ave 47 max 0 min
Histogram: 36 0 0 0 1 0 1 0 1 1
Neighs:    1.475 ave 25 max 0 min
Histogram: 36 0 1 0 1 0 1 0 0 1

Total # of neighbors = 59
Ave neighs/atom = 0.160326
Neighbor list builds = 9892
Dangerous builds = 501
Setting up run at Tue Jan  3 20:36:36 2023

Memory usage per processor = 958.989 Mbytes
    Step    Atoms         KinEng            CPU 
 7870322      368     0.49011849              0 
 8024642      365     0.65254985      1531.2388 
Loop time of 1531.24 on 40 procs for 154320 steps with 365 atoms, finish time Tue Jan  3 21:02:07 2023


Pair  time (%) = 0.304836 (0.0199078)
Neigh time (%) = 3.75134 (0.244987)
Comm  time (%) = 10.0305 (0.655058)
Outpt time (%) = 0.000765496 (4.99919e-05)
Other time (%) = 1517.15 (99.08)

Nlocal:    9.125 ave 124 max 0 min
Histogram: 34 2 1 1 0 0 0 0 1 1
Nghost:    3.675 ave 46 max 0 min
Histogram: 36 0 0 0 0 1 1 0 1 1
Neighs:    1.375 ave 24 max 0 min
Histogram: 36 0 1 1 0 0 1 0 0 1

Total # of neighbors = 55
Ave neighs/atom = 0.150685
Neighbor list builds = 11488
Dangerous builds = 181
Setting up run at Tue Jan  3 21:02:08 2023

Memory usage per processor = 958.989 Mbytes
    Step    Atoms         KinEng            CPU 
 8024642      365     0.65254985              0 
 8178962      357     0.51236908      1513.0056 
Loop time of 1513.01 on 40 procs for 154320 steps with 357 atoms, finish time Tue Jan  3 21:27:21 2023


Pair  time (%) = 0.295049 (0.0195009)
Neigh time (%) = 2.85548 (0.188729)
Comm  time (%) = 7.44776 (0.492249)
Outpt time (%) = 0.0004815 (3.18241e-05)
Other time (%) = 1502.41 (99.2995)

Nlocal:    8.925 ave 126 max 0 min
Histogram: 33 3 2 0 0 0 0 1 0 1
Nghost:    3.6 ave 46 max 0 min
Histogram: 36 0 0 0 1 0 1 0 1 1
Neighs:    1.425 ave 22 max 0 min
Histogram: 36 0 1 0 1 0 0 1 0 1

Total # of neighbors = 57
Ave neighs/atom = 0.159664
Neighbor list builds = 8737
Dangerous builds = 42
Setting up run at Tue Jan  3 21:27:21 2023

Memory usage per processor = 958.989 Mbytes
    Step    Atoms         KinEng            CPU 
 8178962      357     0.51236908              0 
 8333282      351     0.54875152      1520.7761 
Loop time of 1520.78 on 40 procs for 154320 steps with 351 atoms, finish time Tue Jan  3 21:52:41 2023


Pair  time (%) = 0.296025 (0.0194654)
Neigh time (%) = 2.86718 (0.188534)
Comm  time (%) = 8.52497 (0.560567)
Outpt time (%) = 0.000471873 (3.10285e-05)
Other time (%) = 1509.09 (99.2314)

Nlocal:    8.775 ave 126 max 0 min
Histogram: 34 2 1 1 0 0 0 1 0 1
Nghost:    3.4 ave 38 max 0 min
Histogram: 36 0 0 0 0 0 1 1 0 2
Neighs:    1.3 ave 26 max 0 min
Histogram: 36 0 1 2 0 0 0 0 0 1

Total # of neighbors = 52
Ave neighs/atom = 0.148148
Neighbor list builds = 8987
Dangerous builds = 158
Setting up run at Tue Jan  3 21:52:41 2023

Memory usage per processor = 958.989 Mbytes
    Step    Atoms         KinEng            CPU 
 8333282      351     0.54875152              0 
 8487602      346     0.40644525      1519.0525 
Loop time of 1519.05 on 40 procs for 154320 steps with 346 atoms, finish time Tue Jan  3 22:18:01 2023


Pair  time (%) = 0.298427 (0.0196456)
Neigh time (%) = 2.9746 (0.19582)
Comm  time (%) = 9.32554 (0.613905)
Outpt time (%) = 0.000466127 (3.06854e-05)
Other time (%) = 1506.45 (99.1706)

Nlocal:    8.65 ave 127 max 0 min
Histogram: 33 3 1 1 0 0 1 0 0 1
Nghost:    3.275 ave 38 max 0 min
Histogram: 36 0 0 0 0 1 0 0 2 1
Neighs:    1.375 ave 24 max 0 min
Histogram: 36 0 0 1 2 0 0 0 0 1

Total # of neighbors = 55
Ave neighs/atom = 0.15896
Neighbor list builds = 9104
Dangerous builds = 25
Setting up run at Tue Jan  3 22:18:01 2023

Memory usage per processor = 958.989 Mbytes
    Step    Atoms         KinEng            CPU 
 8487602      346     0.40644525              0 
 8641922      345     0.44886554      1523.2039 
Loop time of 1523.2 on 40 procs for 154320 steps with 345 atoms, finish time Tue Jan  3 22:43:24 2023


Pair  time (%) = 0.300606 (0.0197351)
Neigh time (%) = 2.76685 (0.181647)
Comm  time (%) = 6.42792 (0.422)
Outpt time (%) = 0.000506396 (3.32454e-05)
Other time (%) = 1513.71 (99.3766)

Nlocal:    8.625 ave 121 max 0 min
Histogram: 36 0 1 0 1 0 1 0 0 1
Nghost:    3.175 ave 38 max 0 min
Histogram: 36 0 0 0 0 1 1 0 1 1
Neighs:    1.275 ave 26 max 0 min
Histogram: 36 0 1 2 0 0 0 0 0 1

Total # of neighbors = 51
Ave neighs/atom = 0.147826
Neighbor list builds = 8270
Dangerous builds = 0
Setting up run at Tue Jan  3 22:43:24 2023

Memory usage per processor = 958.989 Mbytes
    Step    Atoms         KinEng            CPU 
 8641922      345     0.44886554              0 
 8796242      344     0.46501674      1496.0374 
Loop time of 1496.04 on 40 procs for 154320 steps with 344 atoms, finish time Tue Jan  3 23:08:20 2023


Pair  time (%) = 0.291192 (0.0194642)
Neigh time (%) = 1.90609 (0.127409)
Comm  time (%) = 5.17162 (0.345688)
Outpt time (%) = 0.000473287 (3.1636e-05)
Other time (%) = 1488.67 (99.5074)

Nlocal:    8.6 ave 122 max 0 min
Histogram: 33 3 2 0 0 0 1 0 0 1
Nghost:    3.025 ave 36 max 0 min
Histogram: 36 0 0 0 0 1 1 0 0 2
Neighs:    1.15 ave 27 max 0 min
Histogram: 36 1 2 0 0 0 0 0 0 1

Total # of neighbors = 46
Ave neighs/atom = 0.133721
Neighbor list builds = 5843
Dangerous builds = 342
Setting up run at Tue Jan  3 23:08:20 2023

Memory usage per processor = 958.989 Mbytes
    Step    Atoms         KinEng            CPU 
 8796242      344     0.46501674              0 
 8950562      342     0.42603328      1505.6374 
Loop time of 1505.64 on 40 procs for 154320 steps with 342 atoms, finish time Tue Jan  3 23:33:26 2023


Pair  time (%) = 0.294897 (0.0195862)
Neigh time (%) = 1.78232 (0.118377)
Comm  time (%) = 5.60541 (0.372295)
Outpt time (%) = 0.000492158 (3.26877e-05)
Other time (%) = 1497.95 (99.4897)

Nlocal:    8.55 ave 123 max 0 min
Histogram: 34 1 2 1 0 0 1 0 0 1
Nghost:    3.175 ave 35 max 0 min
Histogram: 36 0 0 0 0 0 2 0 0 2
Neighs:    1.075 ave 24 max 0 min
Histogram: 36 1 0 2 0 0 0 0 0 1

Total # of neighbors = 43
Ave neighs/atom = 0.125731
Neighbor list builds = 5401
Dangerous builds = 165
Setting up run at Tue Jan  3 23:33:26 2023

Memory usage per processor = 958.989 Mbytes
    Step    Atoms         KinEng            CPU 
 8950562      342     0.42603328              0 
 9104882      337     0.44260026      1511.6488 
Loop time of 1511.65 on 40 procs for 154320 steps with 337 atoms, finish time Tue Jan  3 23:58:37 2023


Pair  time (%) = 0.290781 (0.019236)
Neigh time (%) = 2.56819 (0.169893)
Comm  time (%) = 7.20313 (0.476508)
Outpt time (%) = 0.000461712 (3.05436e-05)
Other time (%) = 1501.59 (99.3343)

Nlocal:    8.425 ave 121 max 0 min
Histogram: 34 1 3 0 0 0 1 0 0 1
Nghost:    2.7 ave 35 max 0 min
Histogram: 36 0 0 0 1 0 1 0 1 1
Neighs:    0.975 ave 21 max 0 min
Histogram: 37 0 0 2 0 0 0 0 0 1

Total # of neighbors = 39
Ave neighs/atom = 0.115727
Neighbor list builds = 7618
Dangerous builds = 34
Setting up run at Tue Jan  3 23:58:37 2023

Memory usage per processor = 958.989 Mbytes
    Step    Atoms         KinEng            CPU 
 9104882      337     0.44260026              0 
 9259202      336      1.2316291      1528.4273 
Loop time of 1528.43 on 40 procs for 154320 steps with 336 atoms, finish time Wed Jan  4 00:24:06 2023


Pair  time (%) = 0.303141 (0.0198335)
Neigh time (%) = 3.39406 (0.222062)
Comm  time (%) = 8.49238 (0.555629)
Outpt time (%) = 0.000555622 (3.63525e-05)
Other time (%) = 1516.24 (99.2024)

Nlocal:    8.4 ave 123 max 0 min
Histogram: 33 3 2 0 0 1 0 0 0 1
Nghost:    2.675 ave 34 max 0 min
Histogram: 36 0 0 1 0 0 1 0 0 2
Neighs:    1.075 ave 26 max 0 min
Histogram: 37 1 0 0 1 0 0 0 0 1

Total # of neighbors = 43
Ave neighs/atom = 0.127976
Neighbor list builds = 10126
Dangerous builds = 1
Setting up run at Wed Jan  4 00:24:06 2023

Memory usage per processor = 958.989 Mbytes
    Step    Atoms         KinEng            CPU 
 9259202      336      1.2316291              0 
 9413522      331      1.0706262      1523.1138 
Loop time of 1523.11 on 40 procs for 154320 steps with 331 atoms, finish time Wed Jan  4 00:49:29 2023


Pair  time (%) = 0.295225 (0.019383)
Neigh time (%) = 2.98988 (0.196301)
Comm  time (%) = 8.19492 (0.538037)
Outpt time (%) = 0.000521226 (3.42211e-05)
Other time (%) = 1511.63 (99.2462)

Nlocal:    8.275 ave 125 max 0 min
Histogram: 33 3 2 0 0 1 0 0 0 1
Nghost:    2.55 ave 31 max 0 min
Histogram: 36 0 0 1 0 0 1 0 0 2
Neighs:    1.125 ave 24 max 0 min
Histogram: 37 0 0 1 0 1 0 0 0 1

Total # of neighbors = 45
Ave neighs/atom = 0.135952
Neighbor list builds = 9180
Dangerous builds = 3
Setting up run at Wed Jan  4 00:49:29 2023

Memory usage per processor = 958.989 Mbytes
    Step    Atoms         KinEng            CPU 
 9413522      331      1.0706262              0 
 9567842      328     0.98045987      1525.9188 
Loop time of 1525.92 on 40 procs for 154320 steps with 328 atoms, finish time Wed Jan  4 01:14:55 2023


Pair  time (%) = 0.298346 (0.0195519)
Neigh time (%) = 3.32219 (0.217717)
Comm  time (%) = 9.42065 (0.617375)
Outpt time (%) = 0.000381073 (2.49733e-05)
Other time (%) = 1512.88 (99.1453)

Nlocal:    8.2 ave 121 max 0 min
Histogram: 33 4 0 1 0 1 0 0 0 1
Nghost:    2.475 ave 32 max 0 min
Histogram: 36 0 0 1 0 0 1 0 1 1
Neighs:    0.8 ave 20 max 0 min
Histogram: 37 0 1 1 0 0 0 0 0 1

Total # of neighbors = 32
Ave neighs/atom = 0.097561
Neighbor list builds = 10036
Dangerous builds = 0
Setting up run at Wed Jan  4 01:14:55 2023

Memory usage per processor = 958.989 Mbytes
    Step    Atoms         KinEng            CPU 
 9567842      328     0.98045987              0 
 9722162      320     0.90576171      1678.9816 
Loop time of 1678.98 on 40 procs for 154320 steps with 320 atoms, finish time Wed Jan  4 01:42:54 2023


Pair  time (%) = 0.303881 (0.0180991)
Neigh time (%) = 4.66702 (0.277967)
Comm  time (%) = 8.69921 (0.518124)
Outpt time (%) = 0.000456966 (2.72169e-05)
Other time (%) = 1665.31 (99.1858)

Nlocal:    8 ave 120 max 0 min
Histogram: 33 4 0 1 0 1 0 0 0 1
Nghost:    2.55 ave 32 max 0 min
Histogram: 34 2 1 0 0 0 1 1 0 1
Neighs:    0.6 ave 18 max 0 min
Histogram: 37 2 0 0 0 0 0 0 0 1

Total # of neighbors = 24
Ave neighs/atom = 0.075
Neighbor list builds = 14091
Dangerous builds = 2
Setting up run at Wed Jan  4 01:42:54 2023

Memory usage per processor = 958.989 Mbytes
    Step    Atoms         KinEng            CPU 
 9722162      320     0.90576171              0 
 9876482      316     0.87615268      1540.8852 
Loop time of 1540.89 on 40 procs for 154320 steps with 316 atoms, finish time Wed Jan  4 02:08:35 2023


Pair  time (%) = 0.302503 (0.0196318)
Neigh time (%) = 4.22406 (0.274132)
Comm  time (%) = 11.0915 (0.719812)
Outpt time (%) = 0.000489283 (3.17534e-05)
Other time (%) = 1525.27 (98.9864)

Nlocal:    7.9 ave 114 max 0 min
Histogram: 33 4 1 0 0 0 1 0 0 1
Nghost:    2.275 ave 30 max 0 min
Histogram: 35 1 0 1 0 1 0 0 1 1
Neighs:    0.425 ave 13 max 0 min
Histogram: 38 1 0 0 0 0 0 0 0 1

Total # of neighbors = 17
Ave neighs/atom = 0.0537975
Neighbor list builds = 12691
Dangerous builds = 296
Setting up run at Wed Jan  4 02:08:35 2023

Memory usage per processor = 958.989 Mbytes
    Step    Atoms         KinEng            CPU 
 9876482      316     0.87615268              0 
10030802      313      1.2355801       1555.297 
Loop time of 1555.3 on 40 procs for 154320 steps with 313 atoms, finish time Wed Jan  4 02:34:31 2023


Pair  time (%) = 0.305975 (0.0196731)
Neigh time (%) = 4.94554 (0.317981)
Comm  time (%) = 11.551 (0.742688)
Outpt time (%) = 0.000490343 (3.15273e-05)
Other time (%) = 1538.49 (98.9196)

Nlocal:    7.825 ave 110 max 0 min
Histogram: 33 2 3 0 0 0 1 0 0 1
Nghost:    2 ave 30 max 0 min
Histogram: 36 0 1 0 0 1 0 1 0 1
Neighs:    0.5 ave 11 max 0 min
Histogram: 37 1 0 0 1 0 0 0 0 1

Total # of neighbors = 20
Ave neighs/atom = 0.0638978
Neighbor list builds = 14973
Dangerous builds = 4
Setting up run at Wed Jan  4 02:34:31 2023

Memory usage per processor = 958.989 Mbytes
    Step    Atoms         KinEng            CPU 
10030802      313      1.2355801              0 
10185122      308     0.95755204      1525.6097 
Loop time of 1525.63 on 40 procs for 154320 steps with 308 atoms, finish time Wed Jan  4 02:59:56 2023


Pair  time (%) = 0.295341 (0.0193586)
Neigh time (%) = 3.4155 (0.223874)
Comm  time (%) = 6.98568 (0.457887)
Outpt time (%) = 0.00307815 (0.000201762)
Other time (%) = 1514.93 (99.2987)

Nlocal:    7.7 ave 107 max 0 min
Histogram: 33 3 2 0 0 0 1 0 0 1
Nghost:    2.175 ave 33 max 0 min
Histogram: 36 0 1 0 1 0 1 0 0 1
Neighs:    0.6 ave 12 max 0 min
Histogram: 36 1 1 0 1 0 0 0 0 1

Total # of neighbors = 24
Ave neighs/atom = 0.0779221
Neighbor list builds = 10519
Dangerous builds = 656
Setting up run at Wed Jan  4 02:59:56 2023

Memory usage per processor = 958.989 Mbytes
    Step    Atoms         KinEng            CPU 
10185122      308     0.95755204              0 
10339442      303     0.78023749      1567.6871 
Loop time of 1567.69 on 40 procs for 154320 steps with 303 atoms, finish time Wed Jan  4 03:26:04 2023


Pair  time (%) = 0.308106 (0.0196535)
Neigh time (%) = 5.17194 (0.329909)
Comm  time (%) = 11.0575 (0.705338)
Outpt time (%) = 0.000424577 (2.7083e-05)
Other time (%) = 1551.15 (98.9451)

Nlocal:    7.575 ave 108 max 0 min
Histogram: 35 2 0 0 1 0 1 0 0 1
Nghost:    2.175 ave 31 max 0 min
Histogram: 36 0 0 1 0 0 2 0 0 1
Neighs:    0.675 ave 15 max 0 min
Histogram: 36 1 2 0 0 0 0 0 0 1

Total # of neighbors = 27
Ave neighs/atom = 0.0891089
Neighbor list builds = 15469
Dangerous builds = 1
Setting up run at Wed Jan  4 03:26:04 2023

Memory usage per processor = 958.989 Mbytes
    Step    Atoms         KinEng            CPU 
10339442      303     0.78023749              0 
10493762      300     0.68525471        1531.12 
Loop time of 1531.12 on 40 procs for 154320 steps with 300 atoms, finish time Wed Jan  4 03:51:35 2023


Pair  time (%) = 0.304569 (0.0198919)
Neigh time (%) = 3.92126 (0.256104)
Comm  time (%) = 7.97532 (0.520881)
Outpt time (%) = 0.000508477 (3.32095e-05)
Other time (%) = 1518.92 (99.2031)

Nlocal:    7.5 ave 105 max 0 min
Histogram: 32 4 2 0 0 0 1 0 0 1
Nghost:    2.05 ave 28 max 0 min
Histogram: 36 0 0 1 0 0 1 1 0 1
Neighs:    0.425 ave 12 max 0 min
Histogram: 38 0 1 0 0 0 0 0 0 1

Total # of neighbors = 17
Ave neighs/atom = 0.0566667
Neighbor list builds = 11755
Dangerous builds = 356
Setting up run at Wed Jan  4 03:51:35 2023

Memory usage per processor = 958.989 Mbytes
    Step    Atoms         KinEng            CPU 
10493762      300     0.68525471              0 
10648082      295     0.65568799      1528.2657 
Loop time of 1528.27 on 40 procs for 154320 steps with 295 atoms, finish time Wed Jan  4 04:17:04 2023


Pair  time (%) = 0.293049 (0.0191752)
Neigh time (%) = 3.16392 (0.207027)
Comm  time (%) = 6.88999 (0.450837)
Outpt time (%) = 0.000437823 (2.86483e-05)
Other time (%) = 1517.92 (99.3229)

Nlocal:    7.375 ave 106 max 0 min
Histogram: 33 3 1 1 0 1 0 0 0 1
Nghost:    2.075 ave 33 max 0 min
Histogram: 36 0 0 1 1 0 1 0 0 1
Neighs:    0.425 ave 10 max 0 min
Histogram: 36 1 1 0 1 0 0 0 0 1

Total # of neighbors = 17
Ave neighs/atom = 0.0576271
Neighbor list builds = 9627
Dangerous builds = 608
Setting up run at Wed Jan  4 04:17:04 2023

Memory usage per processor = 958.989 Mbytes
    Step    Atoms         KinEng            CPU 
10648082      295     0.65568799              0 
10802402      290     0.66067727      1527.9283 
Loop time of 1527.93 on 40 procs for 154320 steps with 290 atoms, finish time Wed Jan  4 04:42:32 2023


Pair  time (%) = 0.294733 (0.0192897)
Neigh time (%) = 3.51221 (0.229867)
Comm  time (%) = 6.93433 (0.453838)
Outpt time (%) = 0.000454453 (2.97431e-05)
Other time (%) = 1517.19 (99.297)

Nlocal:    7.25 ave 100 max 0 min
Histogram: 33 2 2 1 0 0 1 0 0 1
Nghost:    2.35 ave 34 max 0 min
Histogram: 35 1 1 0 1 0 1 0 0 1
Neighs:    0.5 ave 12 max 0 min
Histogram: 38 0 0 1 0 0 0 0 0 1

Total # of neighbors = 20
Ave neighs/atom = 0.0689655
Neighbor list builds = 10575
Dangerous builds = 286
Setting up run at Wed Jan  4 04:42:32 2023

Memory usage per processor = 958.989 Mbytes
    Step    Atoms         KinEng            CPU 
10802402      290     0.66067727              0 
10956722      286     0.91050227      1516.8911 
Loop time of 1516.89 on 40 procs for 154320 steps with 286 atoms, finish time Wed Jan  4 05:07:49 2023


Pair  time (%) = 0.28792 (0.0189809)
Neigh time (%) = 3.01863 (0.199001)
Comm  time (%) = 7.03606 (0.463847)
Outpt time (%) = 0.000462364 (3.04811e-05)
Other time (%) = 1506.55 (99.3181)

Nlocal:    7.15 ave 100 max 0 min
Histogram: 34 2 1 1 0 0 1 0 0 1
Nghost:    2.225 ave 30 max 0 min
Histogram: 36 0 0 1 1 0 0 0 0 2
Neighs:    0.45 ave 11 max 0 min
Histogram: 37 1 1 0 0 0 0 0 0 1

Total # of neighbors = 18
Ave neighs/atom = 0.0629371
Neighbor list builds = 9030
Dangerous builds = 1
Setting up run at Wed Jan  4 05:07:49 2023

Memory usage per processor = 958.989 Mbytes
    Step    Atoms         KinEng            CPU 
10956722      286     0.91050227              0 
11111042      284      1.2341255      1522.0986 
Loop time of 1522.1 on 40 procs for 154320 steps with 284 atoms, finish time Wed Jan  4 05:33:11 2023


Pair  time (%) = 0.288027 (0.018923)
Neigh time (%) = 3.03064 (0.199109)
Comm  time (%) = 6.92583 (0.455019)
Outpt time (%) = 0.00049163 (3.22995e-05)
Other time (%) = 1511.85 (99.3269)

Nlocal:    7.1 ave 101 max 0 min
Histogram: 33 4 0 1 0 1 0 0 0 1
Nghost:    2.175 ave 27 max 0 min
Histogram: 36 0 0 0 1 1 0 0 1 1
Neighs:    0.45 ave 11 max 0 min
Histogram: 36 2 1 0 0 0 0 0 0 1

Total # of neighbors = 18
Ave neighs/atom = 0.0633803
Neighbor list builds = 8993
Dangerous builds = 0
Setting up run at Wed Jan  4 05:33:11 2023

Memory usage per processor = 958.989 Mbytes
    Step    Atoms         KinEng            CPU 
11111042      284      1.2341255              0 
11265362      278     0.84345443      1535.5451 
Loop time of 1535.55 on 40 procs for 154320 steps with 278 atoms, finish time Wed Jan  4 05:58:46 2023


Pair  time (%) = 0.299015 (0.0194729)
Neigh time (%) = 4.26103 (0.277493)
Comm  time (%) = 10.7111 (0.697547)
Outpt time (%) = 0.000496855 (3.23569e-05)
Other time (%) = 1520.27 (99.0055)

Nlocal:    6.95 ave 97 max 0 min
Histogram: 32 4 1 1 0 0 1 0 0 1
Nghost:    2.325 ave 27 max 0 min
Histogram: 34 2 0 0 1 0 1 0 0 2
Neighs:    0.35 ave 9 max 0 min
Histogram: 36 1 2 0 0 0 0 0 0 1

Total # of neighbors = 14
Ave neighs/atom = 0.0503597
Neighbor list builds = 13065
Dangerous builds = 578
Setting up run at Wed Jan  4 05:58:46 2023

Memory usage per processor = 958.989 Mbytes
    Step    Atoms         KinEng            CPU 
11265362      278     0.84345443              0 
11419682      276     0.79806696      1513.0141 
Loop time of 1513.01 on 40 procs for 154320 steps with 276 atoms, finish time Wed Jan  4 06:23:59 2023


Pair  time (%) = 0.28701 (0.0189694)
Neigh time (%) = 2.46578 (0.162971)
Comm  time (%) = 6.4043 (0.423281)
Outpt time (%) = 0.00049723 (3.28636e-05)
Other time (%) = 1503.86 (99.3947)

Nlocal:    6.9 ave 96 max 0 min
Histogram: 33 3 2 0 0 0 1 0 0 1
Nghost:    2.275 ave 27 max 0 min
Histogram: 36 0 0 0 0 1 1 0 0 2
Neighs:    0.4 ave 6 max 0 min
Histogram: 35 2 0 1 0 0 0 0 0 2

Total # of neighbors = 16
Ave neighs/atom = 0.057971
Neighbor list builds = 7371
Dangerous builds = 0
Setting up run at Wed Jan  4 06:24:00 2023

Memory usage per processor = 958.989 Mbytes
    Step    Atoms         KinEng            CPU 
11419682      276     0.79806696              0 
11574002      272      1.0132621      1511.7231 
Loop time of 1511.72 on 40 procs for 154320 steps with 272 atoms, finish time Wed Jan  4 06:49:11 2023


Pair  time (%) = 0.28359 (0.0187594)
Neigh time (%) = 2.64772 (0.175146)
Comm  time (%) = 5.58172 (0.369229)
Outpt time (%) = 0.000506609 (3.3512e-05)
Other time (%) = 1503.21 (99.4368)

Nlocal:    6.8 ave 88 max 0 min
Histogram: 32 4 2 0 0 0 0 1 0 1
Nghost:    2.475 ave 29 max 0 min
Histogram: 36 0 0 0 0 1 0 2 0 1
Neighs:    0.2 ave 5 max 0 min
Histogram: 37 0 1 0 1 0 0 0 0 1

Total # of neighbors = 8
Ave neighs/atom = 0.0294118
Neighbor list builds = 8003
Dangerous builds = 295
Setting up run at Wed Jan  4 06:49:11 2023

Memory usage per processor = 958.989 Mbytes
    Step    Atoms         KinEng            CPU 
11574002      272      1.0132621              0 
11728322      268     0.84046009      1558.8645 
Loop time of 1558.86 on 40 procs for 154320 steps with 268 atoms, finish time Wed Jan  4 07:15:10 2023


Pair  time (%) = 0.303359 (0.0194602)
Neigh time (%) = 5.10907 (0.327743)
Comm  time (%) = 10.0999 (0.647901)
Outpt time (%) = 0.000190167 (1.2199e-05)
Other time (%) = 1543.35 (99.0049)

Nlocal:    6.7 ave 88 max 0 min
Histogram: 32 4 2 0 0 0 0 1 0 1
Nghost:    2.275 ave 27 max 0 min
Histogram: 35 1 0 0 1 0 0 2 0 1
Neighs:    0.225 ave 4 max 0 min
Histogram: 37 0 1 0 0 0 0 0 0 2

Total # of neighbors = 9
Ave neighs/atom = 0.0335821
Neighbor list builds = 15282
Dangerous builds = 156
Setting up run at Wed Jan  4 07:15:10 2023

Memory usage per processor = 958.989 Mbytes
    Step    Atoms         KinEng            CPU 
11728322      268     0.84046009              0 
11882642      263     0.58573438      1524.7455 
Loop time of 1524.75 on 40 procs for 154320 steps with 263 atoms, finish time Wed Jan  4 07:40:35 2023


Pair  time (%) = 0.28779 (0.0188745)
Neigh time (%) = 3.05066 (0.200076)
Comm  time (%) = 6.40643 (0.420162)
Outpt time (%) = 0.000520112 (3.41113e-05)
Other time (%) = 1515 (99.3609)

Nlocal:    6.575 ave 84 max 0 min
Histogram: 32 4 1 1 0 0 0 0 1 1
Nghost:    2.25 ave 29 max 0 min
Histogram: 36 0 0 0 0 1 2 0 0 1
Neighs:    0.25 ave 4 max 0 min
Histogram: 36 0 1 0 0 1 0 1 0 1

Total # of neighbors = 10
Ave neighs/atom = 0.0380228
Neighbor list builds = 9437
Dangerous builds = 1027
Setting up run at Wed Jan  4 07:40:35 2023

Memory usage per processor = 958.989 Mbytes
    Step    Atoms         KinEng            CPU 
11882642      263     0.58573438              0 
12036962      258     0.70368021      1543.7658 
Loop time of 1543.78 on 40 procs for 154320 steps with 258 atoms, finish time Wed Jan  4 08:06:19 2023


Pair  time (%) = 0.294811 (0.0190967)
Neigh time (%) = 4.29676 (0.278328)
Comm  time (%) = 8.4766 (0.549082)
Outpt time (%) = 0.000205221 (1.32934e-05)
Other time (%) = 1530.71 (99.1535)

Nlocal:    6.45 ave 79 max 0 min
Histogram: 33 3 0 2 0 0 0 0 1 1
Nghost:    2.225 ave 31 max 0 min
Histogram: 36 0 0 0 0 3 0 0 0 1
Neighs:    0.225 ave 3 max 0 min
Histogram: 36 0 0 0 0 0 3 0 0 1

Total # of neighbors = 9
Ave neighs/atom = 0.0348837
Neighbor list builds = 13037
Dangerous builds = 259
Setting up run at Wed Jan  4 08:06:19 2023

Memory usage per processor = 958.989 Mbytes
    Step    Atoms         KinEng            CPU 
12036962      258     0.70368021              0 
12191282      255     0.54557541      1507.6073 
Loop time of 1507.61 on 40 procs for 154320 steps with 255 atoms, finish time Wed Jan  4 08:31:27 2023


Pair  time (%) = 0.280597 (0.0186121)
Neigh time (%) = 2.68383 (0.178019)
Comm  time (%) = 5.65098 (0.374831)
Outpt time (%) = 0.000285861 (1.89613e-05)
Other time (%) = 1498.99 (99.4285)

Nlocal:    6.375 ave 75 max 0 min
Histogram: 32 4 1 0 1 0 0 0 1 1
Nghost:    2.425 ave 30 max 0 min
Histogram: 36 0 0 0 0 1 1 1 0 1
Neighs:    0.2 ave 3 max 0 min
Histogram: 36 0 0 1 0 0 2 0 0 1

Total # of neighbors = 8
Ave neighs/atom = 0.0313725
Neighbor list builds = 7910
Dangerous builds = 0
Setting up run at Wed Jan  4 08:31:27 2023

Memory usage per processor = 958.989 Mbytes
    Step    Atoms         KinEng            CPU 
12191282      255     0.54557541              0 
12345602      251     0.51423398        1525.05 
Loop time of 1525.05 on 40 procs for 154320 steps with 251 atoms, finish time Wed Jan  4 08:56:52 2023


Pair  time (%) = 0.285463 (0.0187182)
Neigh time (%) = 3.2335 (0.212026)
Comm  time (%) = 6.08566 (0.399046)
Outpt time (%) = 0.000543558 (3.5642e-05)
Other time (%) = 1515.44 (99.3702)

Nlocal:    6.275 ave 71 max 0 min
Histogram: 32 3 2 1 0 0 0 0 0 2
Nghost:    2.325 ave 31 max 0 min
Histogram: 36 0 0 0 0 2 1 0 0 1
Neighs:    0.225 ave 3 max 0 min
Histogram: 36 0 0 1 0 0 1 0 0 2

Total # of neighbors = 9
Ave neighs/atom = 0.0358566
Neighbor list builds = 9665
Dangerous builds = 0
Setting up run at Wed Jan  4 08:56:52 2023

Memory usage per processor = 958.989 Mbytes
    Step    Atoms         KinEng            CPU 
12345602      251     0.51423398              0 
12499922      248     0.58894126      1509.7146 
Loop time of 1509.71 on 40 procs for 154320 steps with 248 atoms, finish time Wed Jan  4 09:22:02 2023


Pair  time (%) = 0.282278 (0.0186974)
Neigh time (%) = 2.70709 (0.179312)
Comm  time (%) = 5.07757 (0.336326)
Outpt time (%) = 0.000288332 (1.90984e-05)
Other time (%) = 1501.65 (99.4656)

Nlocal:    6.2 ave 71 max 0 min
Histogram: 32 4 1 0 1 0 0 0 0 2
Nghost:    2.35 ave 27 max 0 min
Histogram: 36 0 0 0 0 1 1 0 1 1
Neighs:    0.25 ave 4 max 0 min
Histogram: 36 0 1 0 0 1 0 1 0 1

Total # of neighbors = 10
Ave neighs/atom = 0.0403226
Neighbor list builds = 8102
Dangerous builds = 264
Setting up run at Wed Jan  4 09:22:02 2023

Memory usage per processor = 958.989 Mbytes
    Step    Atoms         KinEng            CPU 
12499922      248     0.58894126              0 
12654242      246     0.58202602      1510.8679 
Loop time of 1510.87 on 40 procs for 154320 steps with 246 atoms, finish time Wed Jan  4 09:47:13 2023


Pair  time (%) = 0.285697 (0.0189095)
Neigh time (%) = 2.94669 (0.195033)
Comm  time (%) = 5.79602 (0.383622)
Outpt time (%) = 0.00032428 (2.14631e-05)
Other time (%) = 1501.84 (99.4024)

Nlocal:    6.15 ave 72 max 0 min
Histogram: 33 2 2 0 1 0 0 0 1 1
Nghost:    2.325 ave 29 max 0 min
Histogram: 36 0 0 0 0 0 2 1 0 1
Neighs:    0.225 ave 5 max 0 min
Histogram: 37 0 0 0 2 0 0 0 0 1

Total # of neighbors = 9
Ave neighs/atom = 0.0365854
Neighbor list builds = 8760
Dangerous builds = 0
Setting up run at Wed Jan  4 09:47:13 2023

Memory usage per processor = 958.989 Mbytes
    Step    Atoms         KinEng            CPU 
12654242      246     0.58202602              0 
12808562      241     0.69515714      1509.3692 
Loop time of 1509.37 on 40 procs for 154320 steps with 241 atoms, finish time Wed Jan  4 10:12:22 2023


Pair  time (%) = 0.28041 (0.018578)
Neigh time (%) = 2.69598 (0.178616)
Comm  time (%) = 4.80652 (0.318446)
Outpt time (%) = 0.000440928 (2.92127e-05)
Other time (%) = 1501.59 (99.4843)

Nlocal:    6.025 ave 70 max 0 min
Histogram: 32 3 2 1 0 0 0 0 1 1
Nghost:    2.175 ave 31 max 0 min
Histogram: 36 0 0 0 1 1 1 0 0 1
Neighs:    0.2 ave 5 max 0 min
Histogram: 37 0 1 0 1 0 0 0 0 1

Total # of neighbors = 8
Ave neighs/atom = 0.033195
Neighbor list builds = 8049
Dangerous builds = 1
Setting up run at Wed Jan  4 10:12:22 2023

Memory usage per processor = 958.989 Mbytes
    Step    Atoms         KinEng            CPU 
12808562      241     0.69515714              0 
12962882      233     0.75406552      1526.3069 
Loop time of 1526.31 on 40 procs for 154320 steps with 233 atoms, finish time Wed Jan  4 10:37:48 2023


Pair  time (%) = 0.278104 (0.0182207)
Neigh time (%) = 2.57968 (0.169015)
Comm  time (%) = 6.59924 (0.432367)
Outpt time (%) = 0.000161352 (1.05714e-05)
Other time (%) = 1516.85 (99.3804)

Nlocal:    5.825 ave 71 max 0 min
Histogram: 33 1 4 0 0 0 0 1 0 1
Nghost:    2.15 ave 28 max 0 min
Histogram: 35 1 0 0 1 1 0 1 0 1
Neighs:    0.175 ave 5 max 0 min
Histogram: 38 0 0 0 1 0 0 0 0 1

Total # of neighbors = 7
Ave neighs/atom = 0.0300429
Neighbor list builds = 7822
Dangerous builds = 320
Setting up run at Wed Jan  4 10:37:48 2023

Memory usage per processor = 958.989 Mbytes
    Step    Atoms         KinEng            CPU 
12962882      233     0.75406552              0 
13117202      231     0.81791423      1513.4971 
Loop time of 1513.5 on 40 procs for 154320 steps with 231 atoms, finish time Wed Jan  4 11:03:02 2023


Pair  time (%) = 0.277698 (0.0183481)
Neigh time (%) = 2.36283 (0.156117)
Comm  time (%) = 4.0353 (0.266621)
Outpt time (%) = 0.000553541 (3.65736e-05)
Other time (%) = 1506.82 (99.5589)

Nlocal:    5.775 ave 74 max 0 min
Histogram: 33 2 2 1 0 0 1 0 0 1
Nghost:    1.975 ave 28 max 0 min
Histogram: 36 0 0 1 0 1 1 0 0 1
Neighs:    0.175 ave 4 max 0 min
Histogram: 37 0 1 0 0 1 0 0 0 1

Total # of neighbors = 7
Ave neighs/atom = 0.030303
Neighbor list builds = 7054
Dangerous builds = 269
Setting up run at Wed Jan  4 11:03:02 2023

Memory usage per processor = 958.989 Mbytes
    Step    Atoms         KinEng            CPU 
13117202      231     0.81791423              0 
13271522      224     0.67359482      1517.5812 
Loop time of 1517.59 on 40 procs for 154320 steps with 224 atoms, finish time Wed Jan  4 11:28:20 2023


Pair  time (%) = 0.283285 (0.0186667)
Neigh time (%) = 3.142 (0.207039)
Comm  time (%) = 6.56383 (0.432516)
Outpt time (%) = 0.0101343 (0.00066779)
Other time (%) = 1507.59 (99.3411)

Nlocal:    5.6 ave 69 max 0 min
Histogram: 32 4 1 0 1 0 0 1 0 1
Nghost:    2.05 ave 24 max 0 min
Histogram: 36 0 0 0 0 1 1 0 1 1
Neighs:    0.225 ave 5 max 0 min
Histogram: 37 0 0 0 2 0 0 0 0 1

Total # of neighbors = 9
Ave neighs/atom = 0.0401786
Neighbor list builds = 9443
Dangerous builds = 0
Setting up run at Wed Jan  4 11:28:20 2023

Memory usage per processor = 958.989 Mbytes
    Step    Atoms         KinEng            CPU 
13271522      224     0.67359482              0 
13425842      221     0.72613151      1503.8836 
Loop time of 1503.88 on 40 procs for 154320 steps with 221 atoms, finish time Wed Jan  4 11:53:24 2023


Pair  time (%) = 0.276258 (0.0183696)
Neigh time (%) = 2.0878 (0.138827)
Comm  time (%) = 4.65863 (0.309774)
Outpt time (%) = 0.000230304 (1.5314e-05)
Other time (%) = 1496.86 (99.533)

Nlocal:    5.525 ave 66 max 0 min
Histogram: 33 3 0 2 0 0 0 1 0 1
Nghost:    2.1 ave 26 max 0 min
Histogram: 35 1 0 0 1 1 0 0 1 1
Neighs:    0.325 ave 5 max 0 min
Histogram: 34 0 3 0 1 0 1 0 0 1

Total # of neighbors = 13
Ave neighs/atom = 0.0588235
Neighbor list builds = 6228
Dangerous builds = 140
Setting up run at Wed Jan  4 11:53:24 2023

Memory usage per processor = 958.989 Mbytes
    Step    Atoms         KinEng            CPU 
13425842      221     0.72613151              0 
13580162      213     0.67113405       1567.696 
Loop time of 1567.7 on 40 procs for 154320 steps with 213 atoms, finish time Wed Jan  4 12:19:31 2023


Pair  time (%) = 0.270997 (0.0172863)
Neigh time (%) = 2.10632 (0.134358)
Comm  time (%) = 3.65516 (0.233155)
Outpt time (%) = 0.00057483 (3.66672e-05)
Other time (%) = 1561.66 (99.6152)

Nlocal:    5.325 ave 67 max 0 min
Histogram: 32 4 0 2 0 0 0 1 0 1
Nghost:    2.1 ave 23 max 0 min
Histogram: 35 1 0 0 1 0 1 0 0 2
Neighs:    0.275 ave 5 max 0 min
Histogram: 36 0 1 0 1 0 1 0 0 1

Total # of neighbors = 11
Ave neighs/atom = 0.0516432
Neighbor list builds = 6169
Dangerous builds = 2
Setting up run at Wed Jan  4 12:19:31 2023

Memory usage per processor = 958.989 Mbytes
    Step    Atoms         KinEng            CPU 
13580162      213     0.67113405              0 
13734482      213      1.0510076      1533.9237 
Loop time of 1533.92 on 40 procs for 154320 steps with 213 atoms, finish time Wed Jan  4 12:45:05 2023


Pair  time (%) = 0.275239 (0.0179435)
Neigh time (%) = 2.54957 (0.166212)
Comm  time (%) = 4.90008 (0.319447)
Outpt time (%) = 0.000511264 (3.33305e-05)
Other time (%) = 1526.2 (99.4964)

Nlocal:    5.325 ave 65 max 0 min
Histogram: 33 2 1 2 0 0 0 0 1 1
Nghost:    1.9 ave 24 max 0 min
Histogram: 35 1 0 0 1 0 1 0 1 1
Neighs:    0.2 ave 4 max 0 min
Histogram: 36 0 2 0 0 1 0 0 0 1

Total # of neighbors = 8
Ave neighs/atom = 0.0375587
Neighbor list builds = 7505
Dangerous builds = 0
Setting up run at Wed Jan  4 12:45:05 2023

Memory usage per processor = 958.989 Mbytes
    Step    Atoms         KinEng            CPU 
13734482      213      1.0510076              0 
13888802      210     0.94175748      1548.0244 
Loop time of 1548.02 on 40 procs for 154320 steps with 210 atoms, finish time Wed Jan  4 13:10:53 2023


Pair  time (%) = 0.281623 (0.0181924)
Neigh time (%) = 3.20789 (0.207225)
Comm  time (%) = 5.39143 (0.348278)
Outpt time (%) = 0.000565016 (3.64992e-05)
Other time (%) = 1539.14 (99.4263)

Nlocal:    5.25 ave 60 max 0 min
Histogram: 33 1 3 0 1 0 0 0 0 2
Nghost:    1.975 ave 25 max 0 min
Histogram: 35 1 0 0 1 0 1 0 1 1
Neighs:    0.2 ave 3 max 0 min
Histogram: 35 0 0 3 0 0 1 0 0 1

Total # of neighbors = 8
Ave neighs/atom = 0.0380952
Neighbor list builds = 9654
Dangerous builds = 401
Setting up run at Wed Jan  4 13:10:54 2023

Memory usage per processor = 958.989 Mbytes
    Step    Atoms         KinEng            CPU 
13888802      210     0.94175748              0 
14043122      209     0.78135936      1538.0324 
Loop time of 1538.03 on 40 procs for 154320 steps with 209 atoms, finish time Wed Jan  4 13:36:32 2023


Pair  time (%) = 0.2855 (0.0185627)
Neigh time (%) = 3.63372 (0.236258)
Comm  time (%) = 5.71328 (0.371466)
Outpt time (%) = 0.000292465 (1.90155e-05)
Other time (%) = 1528.4 (99.3737)

Nlocal:    5.225 ave 59 max 0 min
Histogram: 33 1 2 2 0 0 0 0 0 2
Nghost:    1.85 ave 22 max 0 min
Histogram: 36 0 0 0 1 0 1 0 0 2
Neighs:    0.225 ave 3 max 0 min
Histogram: 35 0 0 2 0 0 2 0 0 1

Total # of neighbors = 9
Ave neighs/atom = 0.0430622
Neighbor list builds = 10721
Dangerous builds = 0
[...]
Histogram: 35 2 0 1 0 0 0 0 0 2
Nghost:    0.725 ave 11 max 0 min
Histogram: 36 1 0 0 0 1 0 0 1 1
Neighs:    0.025 ave 1 max 0 min
Histogram: 39 0 0 0 0 0 0 0 0 1

Total # of neighbors = 1
Ave neighs/atom = 0.0136986
Neighbor list builds = 6305
Dangerous builds = 0
Setting up run at Fri Jan  6 02:15:35 2023

Memory usage per processor = 958.989 Mbytes
    Step    Atoms         KinEng            CPU 
27314739       73     0.86636832              0 
27469059       72     0.42363987      1504.4305 
Loop time of 1504.43 on 40 procs for 154320 steps with 72 atoms, finish time Fri Jan  6 02:40:40 2023


Pair  time (%) = 0.268414 (0.0178416)
Neigh time (%) = 2.1219 (0.141043)
Comm  time (%) = 2.55615 (0.169908)
Outpt time (%) = 0.000472396 (3.14003e-05)
Other time (%) = 1499.48 (99.6712)

Nlocal:    1.8 ave 26 max 0 min
Histogram: 35 2 0 1 0 0 0 0 1 1
Nghost:    0.775 ave 11 max 0 min
Histogram: 36 0 0 1 0 1 0 1 0 1
Neighs:    0.025 ave 1 max 0 min
Histogram: 39 0 0 0 0 0 0 0 0 1

Total # of neighbors = 1
Ave neighs/atom = 0.0138889
Neighbor list builds = 6233
Dangerous builds = 0
Setting up run at Fri Jan  6 02:40:40 2023

Memory usage per processor = 958.989 Mbytes
    Step    Atoms         KinEng            CPU 
27469059       72     0.42363987              0 
27623379       72      0.4580527      1502.7106 
Loop time of 1502.71 on 40 procs for 154320 steps with 72 atoms, finish time Fri Jan  6 03:05:43 2023


Pair  time (%) = 0.271618 (0.0180752)
Neigh time (%) = 2.04433 (0.136042)
Comm  time (%) = 2.5694 (0.170985)
Outpt time (%) = 0.000184906 (1.23048e-05)
Other time (%) = 1497.83 (99.6749)

Nlocal:    1.8 ave 27 max 0 min
Histogram: 35 2 1 0 0 0 0 1 0 1
Nghost:    0.7 ave 11 max 0 min
Histogram: 36 0 1 1 0 0 0 0 1 1
Neighs:    0 ave 0 max 0 min
Histogram: 40 0 0 0 0 0 0 0 0 0

Total # of neighbors = 0
Ave neighs/atom = 0
Neighbor list builds = 5993
Dangerous builds = 0
Setting up run at Fri Jan  6 03:05:43 2023

Memory usage per processor = 958.989 Mbytes
    Step    Atoms         KinEng            CPU 
27623379       72      0.4580527              0 
27777699       71     0.50489033      1528.4312 
Loop time of 1528.43 on 40 procs for 154320 steps with 71 atoms, finish time Fri Jan  6 03:31:11 2023


Pair  time (%) = 0.277631 (0.0181644)
Neigh time (%) = 3.10364 (0.203061)
Comm  time (%) = 3.87966 (0.253833)
Outpt time (%) = 0.000201793 (1.32026e-05)
Other time (%) = 1521.17 (99.5249)

Nlocal:    1.775 ave 26 max 0 min
Histogram: 35 2 1 0 0 0 0 0 1 1
Nghost:    0.725 ave 11 max 0 min
Histogram: 36 0 1 1 0 0 0 1 0 1
Neighs:    0 ave 0 max 0 min
Histogram: 40 0 0 0 0 0 0 0 0 0

Total # of neighbors = 0
Ave neighs/atom = 0
Neighbor list builds = 9123
Dangerous builds = 0
Setting up run at Fri Jan  6 03:31:11 2023

Memory usage per processor = 958.989 Mbytes
    Step    Atoms         KinEng            CPU 
27777699       71     0.50489033              0 
27932019       71     0.50789522      1517.6773 
Loop time of 1517.68 on 40 procs for 154320 steps with 71 atoms, finish time Fri Jan  6 03:56:29 2023


Pair  time (%) = 0.272775 (0.0179732)
Neigh time (%) = 3.05417 (0.20124)
Comm  time (%) = 3.70508 (0.244128)
Outpt time (%) = 0.003063 (0.000201822)
Other time (%) = 1510.64 (99.5365)

Nlocal:    1.775 ave 25 max 0 min
Histogram: 33 4 1 0 0 0 0 0 1 1
Nghost:    0.875 ave 10 max 0 min
Histogram: 31 3 1 1 2 0 0 0 0 2
Neighs:    0 ave 0 max 0 min
Histogram: 40 0 0 0 0 0 0 0 0 0

Total # of neighbors = 0
Ave neighs/atom = 0
Neighbor list builds = 8957
Dangerous builds = 0
Setting up run at Fri Jan  6 03:56:29 2023

Memory usage per processor = 958.989 Mbytes
    Step    Atoms         KinEng            CPU 
27932019       71     0.50789522              0 
28086339       70     0.48262585      1508.3654 
Loop time of 1508.37 on 40 procs for 154320 steps with 70 atoms, finish time Fri Jan  6 04:21:37 2023


Pair  time (%) = 0.267988 (0.0177668)
Neigh time (%) = 2.04589 (0.135636)
Comm  time (%) = 2.41418 (0.160053)
Outpt time (%) = 0.000239771 (1.58961e-05)
Other time (%) = 1503.64 (99.6865)

Nlocal:    1.75 ave 25 max 0 min
Histogram: 36 1 0 0 1 0 0 0 1 1
Nghost:    0.65 ave 10 max 0 min
Histogram: 34 2 0 1 1 0 0 1 0 1
Neighs:    0 ave 0 max 0 min
Histogram: 40 0 0 0 0 0 0 0 0 0

Total # of neighbors = 0
Ave neighs/atom = 0
Neighbor list builds = 6005
Dangerous builds = 34
Setting up run at Fri Jan  6 04:21:37 2023

Memory usage per processor = 958.989 Mbytes
    Step    Atoms         KinEng            CPU 
28086339       70     0.48262585              0 
28240659       69     0.46031476      1499.9262 
Loop time of 1499.95 on 40 procs for 154320 steps with 69 atoms, finish time Fri Jan  6 04:46:37 2023


Pair  time (%) = 0.26604 (0.0177366)
Neigh time (%) = 2.06459 (0.137644)
Comm  time (%) = 2.69967 (0.179984)
Outpt time (%) = 0.00044864 (2.99103e-05)
Other time (%) = 1494.92 (99.6646)

Nlocal:    1.725 ave 26 max 0 min
Histogram: 34 3 1 0 0 0 0 1 0 1
Nghost:    0.65 ave 10 max 0 min
Histogram: 34 2 0 1 1 0 0 1 0 1
Neighs:    0 ave 0 max 0 min
Histogram: 40 0 0 0 0 0 0 0 0 0

Total # of neighbors = 0
Ave neighs/atom = 0
Neighbor list builds = 6048
Dangerous builds = 3
Setting up run at Fri Jan  6 04:46:38 2023

Memory usage per processor = 958.989 Mbytes
    Step    Atoms         KinEng            CPU 
28240659       69     0.46031476              0 
28394979       67     0.81035417      1502.9158 
Loop time of 1502.92 on 40 procs for 154320 steps with 67 atoms, finish time Fri Jan  6 05:11:40 2023


Pair  time (%) = 0.266791 (0.0177516)
Neigh time (%) = 2.20551 (0.146749)
Comm  time (%) = 2.63698 (0.175457)
Outpt time (%) = 0.00017087 (1.13693e-05)
Other time (%) = 1497.81 (99.66)

Nlocal:    1.675 ave 25 max 0 min
Histogram: 34 3 1 0 0 0 0 0 1 1
Nghost:    0.65 ave 7 max 0 min
Histogram: 32 4 0 0 1 0 0 1 0 2
Neighs:    0.025 ave 1 max 0 min
Histogram: 39 0 0 0 0 0 0 0 0 1

Total # of neighbors = 1
Ave neighs/atom = 0.0149254
Neighbor list builds = 6545
Dangerous builds = 266
Setting up run at Fri Jan  6 05:11:41 2023

Memory usage per processor = 958.989 Mbytes
    Step    Atoms         KinEng            CPU 
28394979       67     0.81035417              0 
28549299       66     0.52750449        1526.96 
Loop time of 1526.96 on 40 procs for 154320 steps with 66 atoms, finish time Fri Jan  6 05:37:07 2023


Pair  time (%) = 0.274431 (0.0179724)
Neigh time (%) = 2.91286 (0.190762)
Comm  time (%) = 3.15848 (0.206847)
Outpt time (%) = 0.000190056 (1.24467e-05)
Other time (%) = 1520.61 (99.5844)

Nlocal:    1.65 ave 25 max 0 min
Histogram: 36 1 0 1 0 0 0 0 1 1
Nghost:    0.55 ave 8 max 0 min
Histogram: 35 1 0 1 0 1 0 1 0 1
Neighs:    0.025 ave 1 max 0 min
Histogram: 39 0 0 0 0 0 0 0 0 1

Total # of neighbors = 1
Ave neighs/atom = 0.0151515
Neighbor list builds = 8644
Dangerous builds = 0
Setting up run at Fri Jan  6 05:37:08 2023

Memory usage per processor = 958.989 Mbytes
    Step    Atoms         KinEng            CPU 
28549299       66     0.52750449              0 
28703619       66     0.50676405      1507.2948 
Loop time of 1507.3 on 40 procs for 154320 steps with 66 atoms, finish time Fri Jan  6 06:02:15 2023


Pair  time (%) = 0.267915 (0.0177745)
Neigh time (%) = 2.18251 (0.144796)
Comm  time (%) = 2.88226 (0.191221)
Outpt time (%) = 0.00295959 (0.000196351)
Other time (%) = 1501.96 (99.646)

Nlocal:    1.65 ave 24 max 0 min
Histogram: 36 1 1 0 0 0 0 0 1 1
Nghost:    0.575 ave 8 max 0 min
Histogram: 34 2 0 1 0 1 0 1 0 1
Neighs:    0.05 ave 2 max 0 min
Histogram: 39 0 0 0 0 0 0 0 0 1

Total # of neighbors = 2
Ave neighs/atom = 0.030303
Neighbor list builds = 6406
Dangerous builds = 0
Setting up run at Fri Jan  6 06:02:15 2023

Memory usage per processor = 958.989 Mbytes
    Step    Atoms         KinEng            CPU 
28703619       66     0.50676405              0 
28857939       63     0.40494106      1510.4068 
Loop time of 1510.41 on 40 procs for 154320 steps with 63 atoms, finish time Fri Jan  6 06:27:25 2023


Pair  time (%) = 0.268541 (0.0177794)
Neigh time (%) = 2.16079 (0.14306)
Comm  time (%) = 3.16605 (0.209616)
Outpt time (%) = 0.000198582 (1.31476e-05)
Other time (%) = 1504.81 (99.6295)

Nlocal:    1.575 ave 25 max 0 min
Histogram: 35 2 1 0 0 0 0 0 1 1
Nghost:    0.575 ave 8 max 0 min
Histogram: 34 2 0 1 0 1 0 1 0 1
Neighs:    0.025 ave 1 max 0 min
Histogram: 39 0 0 0 0 0 0 0 0 1

Total # of neighbors = 1
Ave neighs/atom = 0.015873
Neighbor list builds = 6331
Dangerous builds = 0
Setting up run at Fri Jan  6 06:27:25 2023

Memory usage per processor = 958.989 Mbytes
    Step    Atoms         KinEng            CPU 
28857939       63     0.40494106              0 
29012259       63     0.45962677       1495.776 
Loop time of 1495.78 on 40 procs for 154320 steps with 63 atoms, finish time Fri Jan  6 06:52:21 2023


Pair  time (%) = 0.265751 (0.0177668)
Neigh time (%) = 2.07071 (0.138437)
Comm  time (%) = 3.92245 (0.262235)
Outpt time (%) = 0.000260495 (1.74154e-05)
Other time (%) = 1489.52 (99.5815)

Nlocal:    1.575 ave 23 max 0 min
Histogram: 36 1 0 1 0 0 0 0 0 2
Nghost:    0.65 ave 9 max 0 min
Histogram: 31 5 1 0 1 0 1 0 0 1
Neighs:    0.025 ave 1 max 0 min
Histogram: 39 0 0 0 0 0 0 0 0 1

Total # of neighbors = 1
Ave neighs/atom = 0.015873
Neighbor list builds = 6080
Dangerous builds = 0
Setting up run at Fri Jan  6 06:52:21 2023

Memory usage per processor = 958.989 Mbytes
    Step    Atoms         KinEng            CPU 
29012259       63     0.45962677              0 
29166579       63     0.38974144       1500.086 
Loop time of 1500.09 on 40 procs for 154320 steps with 63 atoms, finish time Fri Jan  6 07:17:21 2023


Pair  time (%) = 0.262627 (0.0175075)
Neigh time (%) = 2.05412 (0.136933)
Comm  time (%) = 4.0608 (0.270704)
Outpt time (%) = 0.000482853 (3.21883e-05)
Other time (%) = 1493.71 (99.5748)

Nlocal:    1.575 ave 24 max 0 min
Histogram: 36 0 2 0 0 0 0 0 1 1
Nghost:    0.65 ave 8 max 0 min
Histogram: 31 5 1 0 0 1 0 0 1 1
Neighs:    0.025 ave 1 max 0 min
Histogram: 39 0 0 0 0 0 0 0 0 1

Total # of neighbors = 1
Ave neighs/atom = 0.015873
Neighbor list builds = 6023
Dangerous builds = 0
Setting up run at Fri Jan  6 07:17:21 2023

Memory usage per processor = 958.989 Mbytes
    Step    Atoms         KinEng            CPU 
29166579       63     0.38974144              0 
29320899       62     0.39375723       1503.719 
Loop time of 1503.72 on 40 procs for 154320 steps with 62 atoms, finish time Fri Jan  6 07:42:25 2023


Pair  time (%) = 0.261399 (0.0173835)
Neigh time (%) = 2.02833 (0.134887)
Comm  time (%) = 3.89368 (0.258937)
Outpt time (%) = 0.000187866 (1.24934e-05)
Other time (%) = 1497.54 (99.5888)

Nlocal:    1.55 ave 25 max 0 min
Histogram: 36 1 1 0 0 0 0 0 1 1
Nghost:    0.6 ave 9 max 0 min
Histogram: 34 2 1 0 1 0 0 1 0 1
Neighs:    0.05 ave 2 max 0 min
Histogram: 39 0 0 0 0 0 0 0 0 1

Total # of neighbors = 2
Ave neighs/atom = 0.0322581
Neighbor list builds = 5944
Dangerous builds = 0
Setting up run at Fri Jan  6 07:42:25 2023

Memory usage per processor = 958.989 Mbytes
    Step    Atoms         KinEng            CPU 
29320899       62     0.39375723              0 
29475219       62     0.36901747      1502.7595 
Loop time of 1502.76 on 40 procs for 154320 steps with 62 atoms, finish time Fri Jan  6 08:07:28 2023


Pair  time (%) = 0.264258 (0.0175848)
Neigh time (%) = 1.99553 (0.132791)
Comm  time (%) = 3.77816 (0.251415)
Outpt time (%) = 0.0113032 (0.000752165)
Other time (%) = 1496.71 (99.5975)

Nlocal:    1.55 ave 24 max 0 min
Histogram: 36 1 0 1 0 0 0 0 1 1
Nghost:    0.65 ave 10 max 0 min
Histogram: 33 3 1 0 1 0 0 1 0 1
Neighs:    0.05 ave 2 max 0 min
Histogram: 39 0 0 0 0 0 0 0 0 1

Total # of neighbors = 2
Ave neighs/atom = 0.0322581
Neighbor list builds = 5840
Dangerous builds = 0
Setting up run at Fri Jan  6 08:07:28 2023

Memory usage per processor = 958.989 Mbytes
    Step    Atoms         KinEng            CPU 
29475219       62     0.36901747              0 
29629539       61     0.36050213      1518.7339 
Loop time of 1518.73 on 40 procs for 154320 steps with 61 atoms, finish time Fri Jan  6 08:32:47 2023


Pair  time (%) = 0.27055 (0.0178142)
Neigh time (%) = 3.04867 (0.200737)
Comm  time (%) = 5.51673 (0.363245)
Outpt time (%) = 0.000195191 (1.28522e-05)
Other time (%) = 1509.9 (99.4182)

Nlocal:    1.525 ave 24 max 0 min
Histogram: 35 3 0 0 0 0 0 0 1 1
Nghost:    0.65 ave 9 max 0 min
Histogram: 32 4 1 0 1 0 0 1 0 1
Neighs:    0.05 ave 2 max 0 min
Histogram: 39 0 0 0 0 0 0 0 0 1

Total # of neighbors = 2
Ave neighs/atom = 0.0327869
Neighbor list builds = 9068
Dangerous builds = 0
Setting up run at Fri Jan  6 08:32:47 2023

Memory usage per processor = 958.989 Mbytes
    Step    Atoms         KinEng            CPU 
29629539       61     0.36050213              0 
29783859       61     0.34702229      1510.5217 
Loop time of 1510.52 on 40 procs for 154320 steps with 61 atoms, finish time Fri Jan  6 08:57:57 2023


Pair  time (%) = 0.266185 (0.017622)
Neigh time (%) = 2.40444 (0.159179)
Comm  time (%) = 4.58853 (0.303771)
Outpt time (%) = 0.00270457 (0.000179049)
Other time (%) = 1503.26 (99.5192)

Nlocal:    1.525 ave 24 max 0 min
Histogram: 36 1 1 0 0 0 0 0 1 1
Nghost:    0.6 ave 9 max 0 min
Histogram: 34 3 0 0 0 1 0 1 0 1
Neighs:    0.025 ave 1 max 0 min
Histogram: 39 0 0 0 0 0 0 0 0 1

Total # of neighbors = 1
Ave neighs/atom = 0.0163934
Neighbor list builds = 7043
Dangerous builds = 0
Setting up run at Fri Jan  6 08:57:57 2023

Memory usage per processor = 958.989 Mbytes
    Step    Atoms         KinEng            CPU 
29783859       61     0.34702229              0 
29938179       61      0.6496598      1500.8358 
Loop time of 1500.84 on 40 procs for 154320 steps with 61 atoms, finish time Fri Jan  6 09:22:58 2023


Pair  time (%) = 0.264514 (0.0176245)
Neigh time (%) = 2.06797 (0.137788)
Comm  time (%) = 3.79164 (0.252635)
Outpt time (%) = 0.000524928 (3.49757e-05)
Other time (%) = 1494.71 (99.5919)

Nlocal:    1.525 ave 24 max 0 min
Histogram: 36 1 1 0 0 0 0 0 1 1
Nghost:    0.55 ave 9 max 0 min
Histogram: 34 3 0 0 1 0 1 0 0 1
Neighs:    0.025 ave 1 max 0 min
Histogram: 39 0 0 0 0 0 0 0 0 1

Total # of neighbors = 1
Ave neighs/atom = 0.0163934
Neighbor list builds = 6063
Dangerous builds = 0
Setting up run at Fri Jan  6 09:22:58 2023

Memory usage per processor = 958.989 Mbytes
    Step    Atoms         KinEng            CPU 
29938179       61      0.6496598              0 
30092499       61     0.65101162      1501.8728 
Loop time of 1501.87 on 40 procs for 154320 steps with 61 atoms, finish time Fri Jan  6 09:48:00 2023


Pair  time (%) = 0.264797 (0.0176311)
Neigh time (%) = 2.0283 (0.135052)
Comm  time (%) = 3.70718 (0.246837)
Outpt time (%) = 0.000183186 (1.21972e-05)
Other time (%) = 1495.87 (99.6005)

Nlocal:    1.525 ave 24 max 0 min
Histogram: 35 2 1 0 0 0 0 0 1 1
Nghost:    0.625 ave 10 max 0 min
Histogram: 33 3 1 0 1 0 1 0 0 1
Neighs:    0.025 ave 1 max 0 min
Histogram: 39 0 0 0 0 0 0 0 0 1

Total # of neighbors = 1
Ave neighs/atom = 0.0163934
Neighbor list builds = 5942
Dangerous builds = 0
Setting up run at Fri Jan  6 09:48:00 2023

Memory usage per processor = 958.989 Mbytes
    Step    Atoms         KinEng            CPU 
30092499       61     0.65101162              0 
30246819       61     0.67655314      1490.9896 
Loop time of 1490.99 on 40 procs for 154320 steps with 61 atoms, finish time Fri Jan  6 10:12:51 2023


Pair  time (%) = 0.263777 (0.0176914)
Neigh time (%) = 1.93888 (0.13004)
Comm  time (%) = 3.88522 (0.26058)
Outpt time (%) = 0.000527645 (3.53889e-05)
Other time (%) = 1484.9 (99.5917)

Nlocal:    1.525 ave 25 max 0 min
Histogram: 35 2 1 0 0 0 0 1 0 1
Nghost:    0.625 ave 10 max 0 min
Histogram: 34 2 1 0 1 0 0 1 0 1
Neighs:    0.025 ave 1 max 0 min
Histogram: 39 0 0 0 0 0 0 0 0 1

Total # of neighbors = 1
Ave neighs/atom = 0.0163934
Neighbor list builds = 5695
Dangerous builds = 0
Setting up run at Fri Jan  6 10:12:51 2023

Memory usage per processor = 958.989 Mbytes
    Step    Atoms         KinEng            CPU 
30246819       61     0.67655314              0 
30401139       60     0.42983755      1502.8225 
Loop time of 1502.82 on 40 procs for 154320 steps with 60 atoms, finish time Fri Jan  6 10:37:54 2023


Pair  time (%) = 0.265872 (0.0176915)
Neigh time (%) = 2.15932 (0.143685)
Comm  time (%) = 4.04525 (0.269177)
Outpt time (%) = 0.000174189 (1.15908e-05)
Other time (%) = 1496.35 (99.5694)

Nlocal:    1.5 ave 24 max 0 min
Histogram: 36 0 2 0 0 0 0 1 0 1
Nghost:    0.625 ave 10 max 0 min
Histogram: 34 2 1 1 0 0 0 0 1 1
Neighs:    0.05 ave 2 max 0 min
Histogram: 39 0 0 0 0 0 0 0 0 1

Total # of neighbors = 2
Ave neighs/atom = 0.0333333
Neighbor list builds = 6344
Dangerous builds = 0
Setting up run at Fri Jan  6 10:37:54 2023

Memory usage per processor = 958.989 Mbytes
    Step    Atoms         KinEng            CPU 
30401139       60     0.42983755              0 
30555459       60      0.4219632      1508.4828 
Loop time of 1508.48 on 40 procs for 154320 steps with 60 atoms, finish time Fri Jan  6 11:03:03 2023


Pair  time (%) = 0.268737 (0.017815)
Neigh time (%) = 2.41529 (0.160114)
Comm  time (%) = 4.31456 (0.28602)
Outpt time (%) = 0.000198863 (1.3183e-05)
Other time (%) = 1501.48 (99.536)

Nlocal:    1.5 ave 26 max 0 min
Histogram: 36 2 0 0 0 0 1 0 0 1
Nghost:    0.725 ave 10 max 0 min
Histogram: 33 2 2 0 1 0 0 0 0 2
Neighs:    0.05 ave 2 max 0 min
Histogram: 39 0 0 0 0 0 0 0 0 1

Total # of neighbors = 2
Ave neighs/atom = 0.0333333
Neighbor list builds = 7092
Dangerous builds = 0
Setting up run at Fri Jan  6 11:03:03 2023

Memory usage per processor = 958.989 Mbytes
    Step    Atoms         KinEng            CPU 
30555459       60      0.4219632              0 
30709779       60     0.41428467      1504.9196 
Loop time of 1504.92 on 40 procs for 154320 steps with 60 atoms, finish time Fri Jan  6 11:28:08 2023


Pair  time (%) = 0.264979 (0.0176075)
Neigh time (%) = 2.00525 (0.133246)
Comm  time (%) = 3.67094 (0.243929)
Outpt time (%) = 0.00049969 (3.32037e-05)
Other time (%) = 1498.98 (99.6052)

Nlocal:    1.5 ave 25 max 0 min
Histogram: 34 4 0 0 0 0 1 0 0 1
Nghost:    0.65 ave 10 max 0 min
Histogram: 33 4 0 1 0 0 0 0 0 2
Neighs:    0.05 ave 2 max 0 min
Histogram: 39 0 0 0 0 0 0 0 0 1

Total # of neighbors = 2
Ave neighs/atom = 0.0333333
Neighbor list builds = 5885
Dangerous builds = 0
Setting up run at Fri Jan  6 11:28:08 2023

Memory usage per processor = 958.989 Mbytes
    Step    Atoms         KinEng            CPU 
30709779       60     0.41428467              0 
30864099       59     0.56975423      1492.9819 
Loop time of 1492.98 on 40 procs for 154320 steps with 59 atoms, finish time Fri Jan  6 11:53:01 2023


Pair  time (%) = 0.265352 (0.0177733)
Neigh time (%) = 1.95868 (0.131192)
Comm  time (%) = 2.2168 (0.148481)
Outpt time (%) = 0.000276109 (1.84938e-05)
Other time (%) = 1488.54 (99.7025)

Nlocal:    1.475 ave 27 max 0 min
Histogram: 35 3 0 0 0 1 0 0 0 1
Nghost:    0.625 ave 11 max 0 min
Histogram: 37 0 1 0 0 0 1 0 0 1
Neighs:    0.05 ave 2 max 0 min
Histogram: 39 0 0 0 0 0 0 0 0 1

Total # of neighbors = 2
Ave neighs/atom = 0.0338983
Neighbor list builds = 5752
Dangerous builds = 2
Setting up run at Fri Jan  6 11:53:01 2023

Memory usage per processor = 958.989 Mbytes
    Step    Atoms         KinEng            CPU 
30864099       59     0.56975423              0 
30864196       59     0.56974456     0.91843296 
Loop time of 0.918455 on 40 procs for 97 steps with 59 atoms, finish time Fri Jan  6 11:53:02 2023


Pair  time (%) = 0.000166848 (0.0181662)
Neigh time (%) = 0.00101205 (0.11019)
Comm  time (%) = 0.00118642 (0.129175)
Outpt time (%) = 0.000211183 (0.0229933)
Other time (%) = 0.915878 (99.7195)

Nlocal:    1.475 ave 27 max 0 min
Histogram: 35 3 0 0 0 1 0 0 0 1
Nghost:    0.625 ave 11 max 0 min
Histogram: 37 0 1 0 0 0 1 0 0 1
Neighs:    0.05 ave 2 max 0 min
Histogram: 39 0 0 0 0 0 0 0 0 1

Total # of neighbors = 2
Ave neighs/atom = 0.0338983
Neighbor list builds = 3
Dangerous builds = 0
