ITEM: TIMESTEP
6914770
ITEM: NUMBER OF ATOMS
299
ITEM: BOX BOUNDS ff ff ff
-0.15 0.15
-0.15 0.15
-0.15 0.15
ITEM: ATOMS id type x y z radius vx vy vz density 
302 1 -0.00625107 -0.0270396 -0.0684172 0.000291 -5.55988 -0.481376 0.646629 2650 
93 1 -0.00319196 -0.0273463 -0.0686299 0.000291 -9.65122 -0.362176 0.471202 2650 
32 1 -0.0049632 -0.0143177 -0.0686876 0.000105 -3.89566 0.199023 0.421042 2650 
267 1 -0.00621119 -0.00135489 -0.0684265 0.000291 -6.56664 -0.188227 0.617844 2650 
288 1 -0.0174366 -0.0515158 -0.066474 0.000291 -7.23567 0.0942748 1.87557 2650 
243 1 -0.00458644 -0.0407553 -0.0677915 0.001058 -8.96079 0.0718562 0.59828 2650 
20 1 -0.00246884 -0.0406818 -0.0679009 0.001058 -9.09346 -0.165908 0.337885 2650 
49 1 -0.00584911 -0.0365663 -0.0671117 0.00164 -6.57427 -0.188618 0.567584 2650 
83 1 -0.0222516 -0.0329608 -0.0641942 0.001058 -8.02853 -0.164743 2.77619 2650 
151 1 -0.020251 -0.0135398 -0.065677 0.000291 -6.67686 -0.0967308 2.08328 2650 
280 1 -0.021782 -0.0114843 -0.0643822 0.001058 -6.14768 -0.0888479 2.12876 2650 
172 1 -0.0248579 -0.0412104 -0.0632527 0.001058 -7.82602 -0.40497 3.03561 2650 
42 1 -0.0259374 -0.0393299 -0.062808 0.001058 -6.84192 0.41488 2.81115 2650 
264 1 -0.0259664 -0.0315673 -0.0627889 0.001058 -6.95528 -0.907145 2.90482 2650 
185 1 -0.0228251 -0.0287207 -0.063385 0.00164 -8.2528 0.0386318 2.91672 2650 
2 1 -0.0273115 -0.0251924 -0.0622156 0.001058 -7.82678 -0.032624 3.44824 2650 
133 1 -0.0332997 -0.0205525 -0.0601147 0.000291 -6.54485 0.407826 3.64064 2650 
188 1 -0.0392465 -0.06164 -0.0554667 0.001058 -7.71992 0.0712332 5.45194 2650 
225 1 -0.0441751 -0.0289937 -0.0516268 0.001058 -5.56253 -0.133996 4.73221 2650 
184 1 -0.0645483 -0.00139606 -0.0240715 0.000105 -1.50773 -0.153658 3.94123 2650 
23 1 -0.0648767 -0.0317999 -0.0226233 0.000291 -2.8998 0.432491 8.31733 2650 
36 1 -0.0654023 -0.0294492 -0.0184127 0.001058 -2.45695 -0.0694125 8.71455 2650 
131 1 -0.0651971 -0.0265312 -0.0191142 0.001058 -2.27045 -0.0204465 7.88634 2650 
111 1 -0.0660144 -0.0207726 -0.0190758 0.000291 -2.27354 -0.892949 7.73783 2650 
5 1 -0.0661708 -0.0206982 -0.0185023 0.000291 -2.18745 -0.70379 7.79409 2650 
218 1 -0.0661854 -0.0311746 -0.0154081 0.001058 -2.00509 0.0899884 8.64288 2650 
295 1 -0.006507 -0.00321371 -0.01264 0.000291 0 -0.011755 0 2650 
108 1 -0.00648744 -0.00309989 -0.00940527 0.001058 0.00190399 -0.0137697 -0.00130751 2650 
148 1 -0.0676386 -0.0391085 -0.00636774 0.001058 -0.862832 0.0271357 9.28739 2650 
135 1 -0.00578018 -0.000278557 -0.00608381 0.000291 -0.0060505 -0.00140209 -0.0140303 2650 
76 1 -0.00137964 -0.00182245 -0.00548541 0.001058 0.00563223 -0.0106236 0.000699054 2650 
236 1 -0.0678113 -0.0494598 -0.00342467 0.001058 -0.473161 -0.0716159 9.59014 2650 
181 1 -0.0686747 -0.0380089 0.00213839 0.000291 0.133789 0.0960625 5.11145 2650 
6 1 -0.0687058 -0.020253 0.000609782 0.000291 0.023382 -0.523285 5.45365 2650 
282 1 -0.0687052 -0.0191425 0.000657474 0.000291 0.0204933 -0.0848771 5.1906 2650 
191 1 -0.0108 -0.000557713 0.001549 0.000291 0 -0.011755 0 2650 
14 1 -0.006378 -0.00188971 0.001478 0.000291 0 -0.011755 0 2650 
296 1 -0.005879 -0.00141171 0.000521 0.000291 0 -0.011755 0 2650 
97 1 -0.013724 -0.000320554 0.00365276 0.00164 0.00016333 0.00117645 -0.00616736 2650 
18 1 -0.005138 -0.000352713 0.00212 0.001058 0 -0.011755 0 2650 
98 1 -0.00195174 -0.00025421 0.00333978 0.001058 -0.000872989 -0.0147225 -0.00989819 2650 
86 1 -0.0680346 -0.0129605 0.00965537 0.000291 0.727765 -0.299551 5.15419 2650 
251 1 -0.00730891 -0.00314791 0.0111509 0.001058 0.00250988 -0.0244938 -0.0113208 2650 
233 1 -0.001796 -0.00197271 0.010436 0.000291 0 -0.011755 0 2650 
226 1 -0.009224 -0.00100071 0.012787 0.000291 0 -0.011755 0 2650 
283 1 -0.0658325 -0.00877141 0.0197066 0.000291 1.90763 -0.474646 6.42126 2650 
297 1 -0.0639163 -0.0374185 0.0252116 0.000291 2.91614 0.113004 7.38455 2650 
165 1 -0.0601596 -0.0366581 0.0331905 0.000291 3.68073 0.259878 6.65321 2650 
169 1 -0.0567555 -0.0582107 0.0362935 0.00164 5.45553 0.297149 8.49815 2650 
146 1 -0.0569652 -0.0485909 0.0370681 0.001058 5.06811 0.00363592 7.77423 2650 
125 1 -0.0578682 -0.0215964 0.0370494 0.000291 3.11025 -0.581458 4.89344 2650 
167 1 -0.0580224 -0.0118845 0.0367994 0.000291 4.1597 -0.162359 6.55824 2650 
179 1 -0.055466 -0.048229 0.0392698 0.001058 5.38204 0.044594 7.59686 2650 
248 1 -0.0538705 -0.00706156 0.0426392 0.000291 3.56382 -0.0666345 4.60979 2650 
109 1 -0.0483106 -0.0589569 0.0488576 0.000291 7.25758 -0.564562 7.17088 2650 
39 1 -0.0480055 -0.0260758 0.0491558 0.000291 5.64408 0.415712 5.51662 2650 
90 1 -0.0382325 -0.0540717 0.0561722 0.001058 7.69145 0.00276185 5.20012 2650 
138 1 -0.033471 -0.0433701 0.0591503 0.001058 7.72229 0.107551 4.38047 2650 
272 1 -0.0320913 -0.0170313 0.0599145 0.001058 5.81138 -0.422133 3.14688 2650 
22 1 -0.0261863 -0.0299018 0.0635213 0.000291 7.70017 0.565296 3.1702 2650 
141 1 -0.0228207 -0.0157176 0.0648329 0.000291 6.72149 1.18888 2.36898 2650 
206 1 -0.0105112 -0.0341371 0.0678981 0.000291 7.75042 0.125304 1.19718 2650 
219 1 -0.0159464 -0.000290992 0.0668319 0.000291 6.79192 0.00156925 1.63718 2650 
192 1 -0.0126099 -0.000104998 0.0677293 0.000105 6.99854 0.00150728 1.31515 2650 
213 1 -0.00154894 -0.0153833 0.0686903 0.000291 3.77786 -0.225347 0.0522616 2650 
29 1 -0.00666286 -0.00996096 0.0683838 0.000291 3.27877 -0.326835 0.348368 2650 
85 1 -0.003548 0.000269287 -0.015444 0.000291 0 -0.011755 0 2650 
70 1 -0.002345 0.00207129 -0.015511 0.000291 0 -0.011755 0 2650 
157 1 -0.00822167 0.01885 -0.0144528 0.000291 -0.00207055 0.0624285 -0.0124977 2650 
203 1 -0.0034531 0.00169729 -0.0124857 0.001058 0.0218056 -0.0245903 0.045373 2650 
33 1 -0.00344942 0.00806587 -0.0137572 0.00164 0.00499126 0.02337 -0.00956389 2650 
180 1 -0.00165454 0.0170759 -0.0127942 0.001058 0.0584365 0.0813871 -0.0401553 2650 
127 1 -0.00774088 0.0264716 -0.0130288 0.000291 0.0331404 0.0647284 -0.0037516 2650 
47 1 -0.0123833 0.00276894 -0.0107839 0.000291 -0.00617568 -0.0113964 -0.000259454 2650 
94 1 -0.0115808 0.00719633 -0.0118798 0.000291 8.5498e-05 -0.0117385 8.5498e-05 2650 
234 1 -0.0092499 0.0065633 -0.0110306 0.000291 -0.02134 0.00563614 -0.0027496 2650 
155 1 -0.00569477 0.0245371 -0.0118584 0.001058 0.04057 0.188533 0.00265111 2650 
175 1 -0.013247 0.00275929 -0.008751 0.000291 0 -0.011755 0 2650 
115 1 -0.0139025 0.00957114 -0.00723947 0.001058 -0.00655704 0.00527716 0.0172016 2650 
187 1 -0.0145478 0.0116084 -0.00629142 0.001058 -0.00403483 0.0166064 0.0136562 2650 
144 1 -0.0119536 0.0100498 -0.00613663 0.000105 0.00807853 0.0136784 0.0281765 2650 
250 1 -0.0113188 0.00231147 -0.00409762 0.001058 0.00273404 -0.00245883 0.0388004 2650 
240 1 -0.010392 0.00336129 -0.005262 0.000291 0 -0.011755 0 2650 
276 1 -0.013674 0.00430329 -0.004231 0.000291 0 -0.011755 0 2650 
74 1 -0.012062 0.00537975 -0.00556057 0.001058 0.00156258 -0.00569596 -0.00749774 2650 
159 1 -0.012707 0.00729729 -0.00588 0.000291 0 -0.011755 0 2650 
256 1 -0.0156482 0.0108102 -0.00555132 0.000291 -0.00333023 -0.00208616 0.0103813 2650 
274 1 -0.016349 0.00116829 -0.002509 0.000291 0 -0.011755 0 2650 
13 1 -0.014201 0.00340329 -0.003882 0.000291 0 -0.011755 0 2650 
104 1 -0.014089 0.00408529 -0.003012 0.000105 0 -0.011755 0 2650 
114 1 -0.0122399 0.00481816 -0.00303273 0.001058 0.00263798 -7.05089e-05 -0.000306371 2650 
10 1 -0.0147298 0.00737806 -0.00268364 0.001058 -0.00603352 -0.00346171 -0.00631144 2650 
123 1 -0.000951778 0.00816248 -0.00201556 0.001058 0.0354386 0.020018 -0.000637314 2650 
17 1 -0.0101147 0.0110781 -0.00237457 0.00164 -0.00279267 0.0548111 0.0673045 2650 
41 1 -0.0066399 0.0124288 -0.00322474 0.00164 0.0102042 0.00860529 0.0210319 2650 
220 1 -0.0141152 0.0171616 -0.00395122 0.000291 0.00605419 0.00724476 0.0145131 2650 
7 1 -0.00682182 0.0181041 -0.00308588 0.000291 0.00378858 0.0136367 -0.000251809 2650 
75 1 -0.0119368 0.0244942 -0.00376376 0.001058 0.0206685 0.0556886 -0.0248334 2650 
136 1 -0.00290532 0.0666343 -0.00256138 0.000105 0.0375902 0.10168 0.0199891 2650 
211 1 -0.0132376 0.00376668 -0.000914164 0.001058 0.000982608 0.00314487 0.00709992 2650 
209 1 -0.013385 0.00584225 -0.00028585 0.001058 -0.00415633 0.00564878 0.00501433 2650 
61 1 -0.016439 0.00701529 -0.001038 0.000291 0 -0.011755 0 2650 
87 1 -0.00648978 0.00727485 -0.00132074 0.000291 0.0457248 -0.00314239 -0.013726 2650 
65 1 -0.0104315 0.0154842 -0.00147111 0.00164 -0.00454877 0.0138432 0.000335664 2650 
168 1 -0.007536 0.000453287 0.001389 0.000105 0 -0.011755 0 2650 
120 1 -0.016055 0.00265529 0.000189 0.000105 0 -0.011755 0 2650 
80 1 -0.014935 0.00535329 0.00039 0.000105 0 -0.011755 0 2650 
268 1 -0.011054 0.00587729 0.000789 0.000291 0 -0.011755 0 2650 
129 1 -0.00723502 0.00730659 0.00118498 0.00164 0.00886763 0.000928435 -0.00531986 2650 
77 1 -0.00675484 0.0103159 0.00155265 0.000291 0.0279429 0.00178097 -0.016803 2650 
52 1 -0.00923513 0.0144661 0.000775703 0.001058 0.0258261 0.0380708 0.00407144 2650 
273 1 -0.00147183 0.0171943 0.00034808 0.001058 -0.00402366 0.037385 0.0311551 2650 
99 1 -0.00690583 0.00388736 0.00269492 0.001058 0.024382 -0.0114171 0.00238034 2650 
176 1 -0.003983 0.00399229 0.002552 0.000105 0 -0.011755 0 2650 
53 1 -0.000389 0.000730287 0.004762 0.000291 0 -0.011755 0 2650 
164 1 -0.003894 0.00302829 0.005467 0.001058 0 -0.011755 0 2650 
38 1 -0.000522722 0.00581449 0.00489893 0.000291 -0.0300402 0.0227875 -0.0736261 2650 
291 1 -0.008194 0.00740229 0.004767 0.000291 0 -0.011755 0 2650 
106 1 -0.0113556 0.0103122 0.00522506 0.001058 0.0124054 0.0227789 -0.00267195 2650 
124 1 -0.0150252 0.0130767 0.00489338 0.001058 -0.00213209 0.0400723 0.00755044 2650 
242 1 -0.00832275 0.01246 0.00493098 0.000291 -0.00954886 0.00781474 0.00295974 2650 
28 1 -0.0133765 0.0143784 0.00521104 0.001058 0.00667276 0.0347111 0.000214972 2650 
126 1 -0.00149558 0.00365732 0.00746407 0.000291 -0.00909177 -0.0182309 -0.0255133 2650 
186 1 -0.0061802 0.0053598 0.0065497 0.001058 -4.15282e-05 -0.0115536 6.1062e-05 2650 
266 1 -0.0143263 0.00660128 0.00652545 0.001058 -0.00293207 0.00740435 -0.00807451 2650 
58 1 -0.0112059 0.00137312 0.00935733 0.001058 0.00939797 -0.00814862 -0.00719036 2650 
170 1 -0.0104457 0.00373173 0.00805386 0.001058 0.00672221 -0.00141463 0.0184147 2650 
4 1 -0.0130391 0.00776598 0.00889587 0.001058 0.00473149 0.00103266 0.00625096 2650 
304 1 -0.012709 0.00668329 0.009818 0.000291 0 -0.011755 0 2650 
71 1 -0.0014633 0.0075532 0.00904832 0.000291 0.000861808 -0.00718564 -0.0173142 2650 
249 1 -0.00359416 0.0173531 0.0095309 0.000291 0.00987628 0.0185258 -0.0129358 2650 
245 1 -0.00339367 0.0446304 0.00892967 0.001058 0.013355 0.0538623 -0.0223836 2650 
300 1 -0.0112405 0.00296276 0.0110784 0.001058 -0.00170937 -0.00549007 -0.002586 2650 
299 1 -0.010562 0.00512429 0.010709 0.001058 0 -0.011755 0 2650 
55 1 -0.01171 0.00715129 0.01034 0.000291 0 -0.011755 0 2650 
68 1 -0.00358234 0.00964443 0.0101491 0.001058 0.00272783 -0.00342387 -0.00169301 2650 
217 1 -0.0099289 0.0213853 0.01097 0.001058 0.000747792 0.0265619 -0.00553463 2650 
54 1 -0.00740202 0.0273393 0.0102813 0.000291 0.0409131 0.0218291 0.0638832 2650 
285 1 -0.00954041 0.00247937 0.0125551 0.001058 -0.00798287 -0.013356 -0.00552209 2650 
224 1 -0.00714426 0.0114339 0.0134639 0.001058 -0.00376938 0.00554818 0.00221201 2650 
238 1 -0.0055323 0.0183575 0.0144494 0.001058 0.0207771 0.0325148 -0.00733364 2650 
214 1 0.00433441 -0.0307528 -0.0685716 0.000291 -6.3068 1.27075 -0.406749 2650 
72 1 0.00628167 -0.00114483 -0.068607 0.000105 -9.62104 -0.370853 -0.886533 2650 
229 1 0.00862037 -0.0486413 -0.0674037 0.001058 -9.6846 -0.0480398 -1.28886 2650 
239 1 0.0117463 -0.0458718 -0.0669358 0.001058 -8.74117 -0.0582318 -1.5751 2650 
21 1 0.01112 -0.044165 -0.0678137 0.000291 -9.16293 0.0507691 -1.51027 2650 
64 1 0.0122421 -0.0182744 -0.0678087 0.000105 -3.47325 -0.153991 -0.646607 2650 
8 1 0.0175925 -0.0170059 -0.0666302 0.000105 -4.33515 -0.212858 -1.15012 2650 
241 1 0.0132927 -0.0099395 -0.06742 0.000291 -5.73442 1.14568 -1.14506 2650 
193 1 0.0189748 -0.0425289 -0.0646594 0.00164 -9.38604 -0.102572 -2.75064 2650 
140 1 0.0225365 -0.0320177 -0.0640996 0.001058 -7.99906 0.181955 -2.80468 2650 
149 1 0.0253405 -0.0167389 -0.0638917 0.000291 -5.66783 0.107672 -2.28311 2650 
56 1 0.0293169 -0.0177388 -0.0623698 0.000105 -3.65333 0.254326 -1.72987 2650 
122 1 0.0246664 -0.0112087 -0.0633298 0.001058 -4.51765 -0.257206 -1.80839 2650 
173 1 0.0344827 -0.0119912 -0.0594486 0.000291 -3.74315 -0.013723 -2.06174 2650 
290 1 0.0388195 -0.0414547 -0.0566897 0.000291 -7.05215 -0.273017 -4.73383 2650 
63 1 0.0444361 -0.019215 -0.0523134 0.000291 -7.25684 0.135581 -6.136 2650 
247 1 0.0462082 -0.0413652 -0.0507136 0.000291 -6.21881 -0.0201622 -5.72134 2650 
257 1 0.049053 -0.042803 -0.0470159 0.001058 -6.42795 -0.0892031 -6.77331 2650 
215 1 0.0506469 -0.0447462 -0.0452933 0.001058 -6.26922 -0.10835 -6.93765 2650 
15 1 0.0576474 -0.0229911 -0.0373951 0.000291 -3.26203 0.24891 -4.94268 2650 
40 1 0.058355 -0.0139221 -0.0366517 0.000105 -2.3526 -0.243594 -3.73381 2650 
230 1 0.0591228 -0.0480902 -0.0335267 0.001058 -4.7936 0.120149 -8.43872 2650 
281 1 0.0603485 -0.0384335 -0.0328573 0.000291 -4.28409 -0.0229995 -7.85939 2650 
69 1 0.0601491 -0.0259282 -0.0332069 0.000291 -4.33029 -0.367602 -7.82479 2650 
89 1 0.0593326 -0.0524506 -0.0319321 0.00164 -4.57026 -0.167826 -8.58923 2650 
121 1 0.063056 -0.031713 -0.0237217 0.00164 -3.13192 0.00752144 -8.43904 2650 
30 1 0.0655018 -0.0300324 -0.0207421 0.000291 -2.6266 -1.10475 -8.31787 2650 
107 1 0.0651546 -0.0261981 -0.0192635 0.001058 -2.46456 -0.0733997 -8.33713 2650 
119 1 0.0663396 -0.0506699 -0.0179253 0.000291 -1.97915 -0.713221 -7.28861 2650 
303 1 0.001598 -0.00131071 -0.015917 0.000291 0 -0.011755 0 2650 
160 1 0.004468 -0.000187713 -0.014641 0.000105 0 -0.011755 0 2650 
46 1 0.007499 -0.00187371 -0.014091 0.000291 0 -0.011755 0 2650 
171 1 0.00221129 -0.00409782 -0.0134074 0.001058 0.339783 -0.0994212 -2.06016 2650 
237 1 0.005321 -0.00261071 -0.012467 0.001058 0 -0.011755 0 2650 
259 1 0.00619039 -0.00311166 -0.0105649 0.001058 -0.000549325 -0.010947 -0.00390661 2650 
196 1 0.002599 -0.00131771 -0.011929 0.001058 0 -0.011755 0 2650 
44 1 0.0676503 -0.0092771 -0.00633888 0.001058 -0.606214 -0.0737569 -6.53543 2650 
255 1 0.0685673 -0.0159107 -0.00439977 0.000291 -0.44751 -0.4728 -6.27801 2650 
178 1 0.00351519 -0.00249003 -0.00505033 0.001058 -0.000609858 -0.0102344 0.00251423 2650 
246 1 0.001376 -0.000384713 -0.005453 0.001058 0 -0.011755 0 2650 
270 1 0.001837 -0.00103528 -0.00293513 0.000291 0.0186853 -0.00788795 0.00123148 2650 
88 1 0.002864 -0.00175871 -0.002457 0.000105 0 -0.011755 0 2650 
177 1 0.00439215 -0.000188278 -0.00232215 0.00164 -0.00977706 -0.00608305 0.00419202 2650 
183 1 0.0194493 -0.00518068 -0.00038403 0.000291 1.63773 -0.380159 -0.142132 2650 
205 1 0.00243535 -0.000821376 -0.000804062 0.000291 -0.0110629 -0.00953223 0.00618698 2650 
277 1 0.015014 -0.00301771 0.001212 0.000291 0 -0.011755 0 2650 
81 1 0.007451 -0.000265713 7.8e-05 0.00164 0 -0.011755 0 2650 
96 1 0.009869 -0.00162871 0.000788 0.000105 0 -0.011755 0 2650 
261 1 0.011218 -8.97126e-05 0.000328 0.000291 0 -0.011755 0 2650 
221 1 0.0686455 -0.0255474 0.00259725 0.000291 0.332787 -0.0812487 -8.34598 2650 
143 1 0.013105 -0.00292871 0.003332 0.000291 0 -0.011755 0 2650 
223 1 0.00756422 -0.000880163 0.00381728 0.001058 0.0245989 -0.00855677 0.00804702 2650 
210 1 0.010971 -0.000935713 0.002357 0.001058 0 -0.011755 0 2650 
25 1 0.0671465 -0.0611597 0.00549957 0.00164 0.779445 0.00387092 -9.08396 2650 
305 1 0.007934 -0.00308971 0.005234 0.000105 0 -0.011755 0 2650 
50 1 0.006699 -0.00184871 0.005883 0.001058 0 -0.011755 0 2650 
150 1 0.010064 -0.00174771 0.004311 0.000291 0 -0.011755 0 2650 
174 1 0.002361 -0.00209571 0.006466 0.000291 0 -0.011755 0 2650 
207 1 0.000324 -0.000409713 0.006532 0.000291 0 -0.011755 0 2650 
59 1 0.00364074 -0.00126342 0.00613313 0.001058 -0.0200783 -0.00967864 -0.0506056 2650 
228 1 0.010294 -0.00258671 0.01009 0.000291 0 -0.011755 0 2650 
3 1 0.00943172 -0.000369241 0.0126754 0.001058 -0.00211489 -0.0052299 0.000123346 2650 
82 1 0.000755 -0.000422713 0.014898 0.001058 0 -0.011755 0 2650 
182 1 0.0634536 -0.0191302 0.0264051 0.000291 2.14164 -0.11621 -5.16023 2650 
16 1 0.0632502 -0.00265699 0.0272951 0.000105 2.9971 0.246304 -6.9003 2650 
34 1 0.0588031 -0.0251197 0.0340412 0.001058 4.57735 0.0416944 -7.97273 2650 
137 1 0.0552298 -0.0569091 0.0385773 0.00164 4.85882 -0.0134247 -6.97817 2650 
26 1 0.0554899 -0.0335971 0.0392113 0.001058 4.77256 0.395762 -6.73975 2650 
132 1 0.0530357 -0.0182449 0.0424747 0.001058 4.44569 0.111324 -5.58447 2650 
73 1 0.0474279 -0.0479926 0.0478512 0.00164 6.96533 0.0916409 -6.90012 2650 
43 1 0.0472891 -0.0288998 0.048782 0.001058 6.41153 -0.0976387 -6.2463 2650 
254 1 0.0484609 -0.0151109 0.0487062 0.000291 3.95992 -0.556142 -3.93136 2650 
118 1 0.0478029 -0.00632004 0.0493403 0.000291 2.30929 -0.172412 -2.43821 2650 
235 1 0.0456198 -0.0223522 0.0513229 0.000291 6.33828 0.87007 -5.62591 2650 
204 1 0.0446419 -0.0163061 0.0511823 0.001058 5.68229 -0.00180049 -4.91022 2650 
189 1 0.037764 -0.0379254 0.0574029 0.000291 6.62583 -0.988701 -4.32339 2650 
152 1 0.0313439 -0.0348345 0.0613466 0.000105 4.72968 -0.557074 -2.39781 2650 
84 1 0.0293714 -0.0185764 0.0612929 0.001058 8.04554 -0.0108572 -3.88357 2650 
166 1 0.0334254 -0.00925739 0.0600325 0.000291 6.10472 0.216231 -3.3719 2650 
62 1 0.0268823 -0.0247232 0.0632308 0.000291 6.54745 -0.678553 -2.79107 2650 
197 1 0.0250438 -0.00536363 0.0639815 0.000291 7.41585 1.84135 -2.9297 2650 
162 1 0.0151687 -0.0210936 0.0662424 0.001058 7.67771 0.184851 -1.7712 2650 
158 1 0.0115811 -0.0179502 0.0677358 0.000291 8.58188 -0.00551336 -1.47722 2650 
130 1 1.4e-05 0.000780287 -0.015674 0.001058 0 -0.011755 0 2650 
269 1 0.002277 0.000953287 -0.015181 0.000291 0 -0.011755 0 2650 
198 1 0.00472463 0.00758482 -0.0159315 0.000291 0.0853555 0.0232466 0.0369098 2650 
37 1 0.006156 0.00671529 -0.015157 0.000291 0 -0.011755 0 2650 
147 1 0.00577239 0.0139115 -0.0147699 0.001058 -0.0600416 0.0426775 -0.0153551 2650 
289 1 0.001465 0.00137629 -0.012477 0.000291 0 -0.011755 0 2650 
142 1 0.002378 0.00179129 -0.013184 0.000291 0 -0.011755 0 2650 
263 1 0.006877 0.000209287 -0.012319 0.000291 0 -0.011755 0 2650 
252 1 0.00245 0.00508629 -0.01336 0.001058 0 -0.011755 0 2650 
78 1 0.001258 0.00670129 -0.012517 0.000291 0 -0.011755 0 2650 
201 1 0.00914846 0.000283207 -0.0112449 0.00164 0.00137105 -0.0114185 -0.003869 2650 
275 1 0.012705 0.00444829 -0.010476 0.000291 0 -0.011755 0 2650 
67 1 0.00295773 0.00616126 -0.010099 0.001058 -0.020884 0.0142907 -0.00966941 2650 
105 1 0.00777829 0.00819889 -0.0108286 0.00164 0.00327959 0.00625975 0.0321714 2650 
154 1 0.00335026 0.0456716 -0.0112135 0.001058 0.00678339 0.101014 -0.0544466 2650 
102 1 0.003423 0.000114287 -0.006065 0.000291 0 -0.011755 0 2650 
117 1 0.004754 0.000376287 -0.007063 0.000291 0 -0.011755 0 2650 
60 1 0.007579 0.00301729 -0.006312 0.001058 0 -0.011755 0 2650 
134 1 0.00913065 0.00353621 -0.00778152 0.000291 -0.0128132 0.00355392 -0.00692922 2650 
45 1 0.010575 0.00293729 -0.007722 0.000291 0 -0.011755 0 2650 
260 1 0.0105123 0.00245422 -0.00608434 0.000291 -0.00392275 0.00411325 -0.00447499 2650 
110 1 0.00707922 0.00675558 -0.00787359 0.000291 -0.0169259 -0.0135844 0.0488079 2650 
284 1 0.0144763 0.00734427 -0.00623675 0.000291 0.00515653 0.00696942 -0.00520094 2650 
139 1 0.00780816 0.0172326 -0.00747206 0.001058 0.0127696 0.00849352 0.0230521 2650 
161 1 0.0133446 0.00326644 -0.00482876 0.00164 0.000907452 0.00399164 0.00334652 2650 
278 1 7.4e-05 0.00552829 -0.004448 0.001058 0 -0.011755 0 2650 
92 1 0.01032 0.00424949 -0.00455078 0.001058 -0.00203413 0.0102084 -0.00112028 2650 
279 1 0.00998369 0.00588046 -0.00587899 0.001058 -0.00964963 0.00898182 -0.00219277 2650 
199 1 0.0151487 0.00438127 -0.00427396 0.000291 0.00855734 0.000154616 0.00359965 2650 
19 1 0.0139878 0.00603694 -0.00567331 0.001058 0.0022695 0.00565847 -0.00282567 2650 
253 1 0.014729 0.00178629 -0.002617 0.000291 0 -0.011755 0 2650 
227 1 0.00944 0.00361529 -0.002109 0.000291 0 -0.011755 0 2650 
271 1 0.00510706 0.00518048 -0.00376898 0.001058 0.0150184 -0.010407 0.010297 2650 
116 1 0.00753679 0.0140588 -0.00332031 0.001058 0.0382435 0.0489782 0.0372506 2650 
163 1 0.00928067 0.0227354 -0.00343457 0.001058 0.164238 0.19616 0.0792721 2650 
113 1 0.0103097 0.0014711 -0.00124474 0.00164 -0.000152922 -0.0104668 0.00259679 2650 
190 1 0.005899 0.00631729 -0.000534 0.000291 0 -0.011755 0 2650 
128 1 0.00361 0.00591629 0.000511 0.000105 0 -0.011755 0 2650 
48 1 0.009671 0.00420929 0.000233 0.000105 0 -0.011755 0 2650 
9 1 0.012984 0.00595429 0.000468 0.00164 0 -0.011755 0 2650 
286 1 0.015584 0.00662229 0.000132 0.001058 0 -0.011755 0 2650 
294 1 0.006997 0.00392329 0.003581 0.001058 0 -0.011755 0 2650 
101 1 0.004812 0.00463929 0.002517 0.000291 0 -0.011755 0 2650 
292 1 0.00242204 0.0127727 0.00261739 0.001058 0.0469404 0.0480946 0.0370303 2650 
35 1 0.000489527 0.00158899 0.00540607 0.001058 0.00654177 -0.0105187 -0.00962265 2650 
212 1 0.001087 0.00443329 0.005915 0.000291 0 -0.011755 0 2650 
24 1 0.005464 0.00400529 0.005551 0.000105 0 -0.011755 0 2650 
51 1 0.009662 0.00507829 0.004577 0.001058 0 -0.011755 0 2650 
232 1 0.0127895 0.00436751 0.00475691 0.001058 0.0434091 0.0179211 -0.0164673 2650 
244 1 0.014869 0.00449129 0.00421 0.001058 0 -0.011755 0 2650 
79 1 0.014214 0.00691829 0.005058 0.000291 0 -0.011755 0 2650 
301 1 0.00540336 0.0218407 0.00524123 0.001058 0.00272587 0.0220862 -0.0290146 2650 
200 1 0.0100972 0.000516467 0.00684667 0.000105 0.135174 -0.0815406 -0.226989 2650 
208 1 0.0133878 0.00194362 0.0065763 0.001058 0.0385375 0.00604984 -0.0140106 2650 
202 1 0.00142698 0.00309101 0.00707968 0.001058 0.00953014 -0.00871599 -0.0138173 2650 
231 1 0.00659364 0.00353926 0.00738389 0.001058 0.00167534 -0.0128877 -0.000760445 2650 
153 1 0.000303693 0.00787845 0.00672512 0.00164 0.00905173 -0.00370467 -0.0193596 2650 
222 1 0.009219 0.00627729 0.006833 0.001058 0 -0.011755 0 2650 
112 1 0.013668 0.00724129 0.007002 0.000105 0 -0.011755 0 2650 
57 1 0.002633 0.0195945 0.00693361 0.00164 0.0230994 0.0154402 0.0436737 2650 
1 1 0.0115649 0.00109113 0.00966765 0.00164 0.00588729 0.00743877 -0.0258753 2650 
145 1 0.00443794 0.00506836 0.00806093 0.00164 0.00142123 -0.0121074 -0.00172265 2650 
194 1 0.0084815 0.00441751 0.00942251 0.001058 0.101532 -0.00908308 -0.0774809 2650 
103 1 0.005979 0.000608287 0.01127 0.000291 0 -0.011755 0 2650 
100 1 0.00685506 0.00231094 0.0101365 0.001058 0.00912399 -0.0117578 -0.00681185 2650 
287 1 0.00936221 0.00326625 0.0111876 0.001058 0.0292235 -0.0161292 0.0100769 2650 
293 1 0.00676635 0.00535625 0.0108492 0.001058 0.112341 0.0799209 -0.0331479 2650 
258 1 0.0119774 0.00486817 0.010015 0.001058 0.0264096 0.0259063 -0.000659148 2650 
66 1 0.00546787 0.00871035 0.0116231 0.001058 0.00846641 -0.000759158 0.00162513 2650 
156 1 0.00361248 0.0119047 0.0118648 0.001058 0.00957299 -0.000303602 -0.00985815 2650 
95 1 0.00684847 0.00378739 0.0135894 0.000291 -0.000366951 -0.00495937 0.00220646 2650 
298 1 0.00784508 0.00727852 0.0129257 0.000105 0.012752 -0.00608362 0.00360111 2650 
195 1 0.00243455 0.00226281 0.0152126 0.001058 0.0422505 -0.00642479 -0.0231176 2650 
265 1 0.00106523 0.00611057 0.0153843 0.001058 0.011667 0.00657701 -0.00499144 2650 
11 1 0.00878584 0.0773852 0.0106745 0.001058 0.0558568 0.128502 0.0118077 2650 
