ITEM: TIMESTEP
14076593
ITEM: NUMBER OF ATOMS
274
ITEM: BOX BOUNDS ff ff ff
-0.15 0.15
-0.15 0.15
-0.15 0.15
ITEM: ATOMS id type x y z radius vx vy vz density 
200 1 -0.00663053 -0.0129009 -0.0685765 0.000105 -7.8386 -0.51157 0.7605 2650 
14 1 -0.0171109 -0.0287619 -0.0665416 0.000291 -10.7005 0.649038 2.75202 2650 
60 1 -0.00171639 -0.0257965 -0.0679212 0.001058 -3.68816 -0.572234 0.111963 2650 
22 1 -0.0125171 -0.0152801 -0.0675723 0.000291 -8.1756 -0.235952 1.52776 2650 
158 1 -0.0108057 -0.0104587 -0.0678612 0.000291 -7.88973 0.0912457 1.27525 2650 
26 1 -0.0232167 -0.0441648 -0.0638832 0.001058 -9.8959 0.0414126 3.59605 2650 
251 1 -0.0236039 -0.0284679 -0.0637108 0.001058 -9.31831 0.0144296 3.44995 2650 
108 1 -0.029144 -0.0335927 -0.0613754 0.001058 -9.15309 0.125398 4.34348 2650 
30 1 -0.0439055 -0.0274582 -0.0528448 0.000291 -7.43816 0.285856 6.1872 2650 
184 1 -0.0469608 -0.0214451 -0.0503524 0.000105 -5.52701 -0.0617503 5.23042 2650 
23 1 -0.0511843 -0.0379858 -0.045835 0.000291 -6.95193 0.120823 7.76254 2650 
42 1 -0.0556783 -0.0511584 -0.0389635 0.001058 -6.11399 0.00109892 8.73629 2650 
193 1 -0.0562463 -0.0491289 -0.0371158 0.00164 -5.82672 -0.00194692 8.82963 2650 
185 1 -0.0571109 -0.0460157 -0.035778 0.00164 -5.62072 0.00529203 8.97192 2650 
148 1 -0.0584493 -0.0482215 -0.0346887 0.001058 -5.46227 0.0330453 9.20322 2650 
20 1 -0.061012 -0.0469209 -0.0299624 0.001058 -4.70027 -0.000726493 9.57114 2650 
119 1 -0.0626495 -0.0461597 -0.0282736 0.000291 -4.51399 0.211006 10.0028 2650 
188 1 -0.0624517 -0.0616435 -0.0267698 0.001058 -4.20846 -0.00471536 9.81844 2650 
229 1 -0.0637069 -0.0493733 -0.0236943 0.001058 -3.71562 0.047429 9.99035 2650 
45 1 -0.0650292 -0.0112395 -0.0222378 0.000291 -1.78661 0.414453 5.12066 2650 
218 1 -0.0653595 -0.0447835 -0.0186455 0.001058 -2.89656 -0.0618496 10.1552 2650 
259 1 -0.065955 -0.030736 -0.0163899 0.001058 -2.43861 -0.0300084 9.89107 2650 
181 1 -0.0672848 -0.0442474 -0.0139907 0.000291 -1.98924 -0.0721123 9.57307 2650 
280 1 -0.0667499 -0.026171 -0.012687 0.001058 -1.76572 -0.0780043 9.2192 2650 
240 1 -0.0269125 -0.0118824 -0.0122283 0.000291 -3.5172 -1.13441 -1.51631 2650 
135 1 -0.00904301 -0.00112458 -0.0136837 0.000291 0.00330025 -0.00264717 0.00636962 2650 
81 1 -0.0664453 -0.0414262 -0.0111538 0.00164 -1.59857 -0.0975384 9.59054 2650 
47 1 -0.0152243 -0.00385193 -0.00975397 0.000291 -0.991949 -0.15089 -0.640102 2650 
8 1 -0.0684983 -0.0579652 -0.0073666 0.000105 -1.02232 0.00278202 9.42857 2650 
13 1 -0.0218759 -0.00586338 -0.00522601 0.000291 -2.37278 -0.402363 -0.495121 2650 
276 1 -0.013674 -0.00251462 -0.004231 0.000291 0 -0.011755 0 2650 
76 1 -0.0678657 -0.0246775 -0.00283818 0.001058 -0.41393 0.0891982 10.0815 2650 
15 1 -0.0686163 -0.0159948 -0.00262671 0.000291 -0.3356 -0.12304 9.05813 2650 
104 1 -0.014089 -0.00273262 -0.003012 0.000105 0 -0.011755 0 2650 
150 1 -0.0687076 -0.028374 -0.000319009 0.000291 -0.0499967 0.175135 10.695 2650 
210 1 -0.0679431 -0.0323787 0.000620231 0.001058 0.0948019 -0.135091 10.5712 2650 
268 1 -0.011054 -0.000940615 0.000789 0.000291 0 -0.011755 0 2650 
172 1 -0.0677 -0.0489299 0.00537967 0.001058 0.800567 0.532914 10.1138 2650 
58 1 -0.00929689 -0.00287735 0.0051005 0.001058 -0.0794454 0.0037842 -0.00935721 2650 
236 1 -0.0674613 -0.0551036 0.00811095 0.001058 1.27885 -0.0506785 10.6359 2650 
140 1 -0.0675382 -0.0385139 0.00734443 0.001058 1.14959 0.0987592 10.5633 2650 
186 1 -0.00620429 -0.00134128 0.00658512 0.001058 -4.15282e-05 -0.0115536 6.1062e-05 2650 
93 1 -0.0680189 -0.0482969 0.00970006 0.000291 1.50766 -0.0400443 10.5343 2650 
254 1 -0.0681442 -0.044758 0.00878006 0.000291 1.36846 0.529771 10.5738 2650 
300 1 -0.0130928 -0.00140058 0.00870851 0.001058 -0.00246489 -0.00748443 -0.0047401 2650 
304 1 -0.012709 -0.000134615 0.009818 0.000291 0 -0.011755 0 2650 
138 1 -0.0668633 -0.0493708 0.0120801 0.001058 1.84308 -0.0446118 10.1812 2650 
35 1 -0.0671274 -0.0461502 0.0104622 0.001058 1.54698 -0.313817 9.95824 2650 
59 1 -0.0668156 -0.0472625 0.0123969 0.001058 1.89446 -0.00840028 10.1841 2650 
49 1 -0.0657265 -0.0488732 0.0148394 0.00164 2.27459 0.0420554 10.0281 2650 
146 1 -0.0663945 -0.0462877 0.0144551 0.001058 2.20586 0.0381516 10.1234 2650 
269 1 -0.0669527 -0.0159884 0.0155199 0.000291 1.60204 -0.246846 6.80124 2650 
110 1 -0.00169409 -0.00070787 0.0145982 0.000291 -0.00381615 -0.00836552 -0.0245093 2650 
247 1 -0.0662738 -0.0512906 0.0181513 0.000291 2.71256 -0.859343 9.86836 2650 
117 1 -0.0666902 -0.015358 0.0166104 0.000291 1.69594 -0.171759 6.83249 2650 
179 1 -0.0640501 -0.0497246 0.0227454 0.001058 3.60639 0.0855348 10.1599 2650 
64 1 -0.0640276 -0.0176207 0.025498 0.000105 2.99387 -0.193553 7.50476 2650 
214 1 -0.0627712 -0.0497889 0.0279927 0.000291 4.27017 0.031383 9.57056 2650 
219 1 -0.0627412 -0.000290971 0.0280045 0.000291 3.54545 -7.41879e-06 7.96601 2650 
167 1 -0.055158 -0.00444849 0.0409691 0.000291 4.99606 0.00313991 6.73816 2650 
151 1 -0.0879541 -0.0282861 0.0439167 0.000291 -3.21361 0.404677 9.25302 2650 
96 1 -0.0533606 -0.0221783 0.0435786 0.000105 4.95369 0.330275 6.07159 2650 
162 1 -0.0501423 -0.035417 0.0458534 0.001058 6.60563 -0.0393614 7.21874 2650 
34 1 -0.0498655 -0.0325369 0.0461511 0.001058 6.89494 -0.156966 7.44675 2650 
270 1 -0.0512529 -0.0158429 0.0457588 0.000291 5.74434 -0.132151 6.42972 2650 
289 1 -0.0504976 -0.0394862 0.0465908 0.000291 7.15322 -0.504219 7.75081 2650 
204 1 -0.0483072 -0.0312703 0.0477974 0.001058 7.59099 -0.166996 7.64702 2650 
213 1 -0.0476382 -0.0265161 0.0494949 0.000291 6.02499 0.153304 5.83039 2650 
43 1 -0.0417244 -0.0416627 0.0536297 0.001058 8.48191 -0.0555939 6.59926 2650 
107 1 -0.0388972 -0.0387982 0.055715 0.001058 8.905 0.148231 6.25903 2650 
86 1 -0.0396366 -0.0171361 0.0561187 0.000291 7.10323 0.0038937 5.01097 2650 
46 1 -0.0416045 -0.00872847 0.0546671 0.000291 6.32053 0.261775 4.78239 2650 
182 1 -0.0370525 -0.0128884 0.0578701 0.000291 6.86133 0.352891 4.38198 2650 
16 1 -0.0354532 -0.00923755 0.0590826 0.000105 7.23244 -0.169557 4.31581 2650 
173 1 -0.0366276 -0.0053151 0.0581287 0.000291 6.67941 -0.0508375 4.19694 2650 
90 1 -0.0283905 -0.0537166 0.0617425 0.001058 9.53095 -0.188484 4.38537 2650 
165 1 -0.031185 -0.0514461 0.0612388 0.000291 8.46976 0.253142 4.30808 2650 
257 1 -0.0308957 -0.0485988 0.0605404 0.001058 9.21659 -0.0371386 4.70439 2650 
171 1 -0.0311724 -0.0459715 0.0604012 0.001058 9.42385 0.168891 4.86372 2650 
82 1 -0.024363 -0.031525 0.0634281 0.001058 9.28672 0.0384458 3.54744 2650 
21 1 -0.020673 -0.0457271 0.0655503 0.000291 10.217 -0.0807256 3.22288 2650 
225 1 -0.0168873 -0.0473533 0.0658376 0.001058 10.2816 -0.075477 2.63748 2650 
201 1 -0.0163761 -0.030301 0.0653467 0.00164 9.65618 -0.0676998 2.41844 2650 
221 1 -0.0233956 -0.0280354 0.0645974 0.000291 8.46732 -0.246633 3.0663 2650 
282 1 -0.0198328 -0.0283195 0.0657799 0.000291 9.17725 -0.0318178 2.76171 2650 
277 1 -0.0203621 -0.0219234 0.0656323 0.000291 8.44485 0.039168 2.6319 2650 
302 1 -0.0210192 -0.0180964 0.0654361 0.000291 8.07065 -0.371553 2.59256 2650 
272 1 -0.0140439 -0.03181 0.066478 0.001058 9.81169 0.146912 2.08598 2650 
29 1 -0.0137224 -0.0141345 0.0673413 0.000291 9.21481 0.0289512 1.87839 2650 
235 1 -0.0138845 -0.00693443 0.0672954 0.000291 8.66339 -0.0303318 1.80229 2650 
197 1 -0.0112406 -0.00478553 0.0677822 0.000291 8.21083 -0.100328 1.35448 2650 
192 1 -0.0173807 -0.000105148 0.0666662 0.000105 8.42812 -0.00348539 2.19211 2650 
255 1 -0.00889509 -0.0231812 0.0681325 0.000291 8.72771 0.383857 1.13061 2650 
261 1 -0.000568115 -0.0172334 0.0687072 0.000291 8.73549 0.493545 0.0868617 2650 
157 1 -0.00370075 0.0540416 -0.014009 0.000291 0.0079085 0.0606548 0.000918149 2650 
130 1 -0.00359158 0.00138428 -0.0131655 0.001058 -0.00692202 0.00347734 0.00595777 2650 
244 1 -0.00879477 0.00787723 -0.0130625 0.001058 -0.0791986 0.0211617 0.058793 2650 
67 1 -0.00787126 0.0142793 -0.0130981 0.001058 -0.0104976 0.0129104 0.0114407 2650 
33 1 -8.71481e-05 0.0208151 -0.0134702 0.00164 0.00603998 0.0215627 0.00352792 2650 
94 1 -0.0115312 0.00038797 -0.0118302 0.000291 8.5498e-05 -0.0117385 8.5498e-05 2650 
205 1 -0.00510524 0.0014051 -0.0115849 0.000291 -0.00881861 0.00364628 0.0236275 2650 
74 1 -0.0111557 0.00207609 -0.00990926 0.001058 0.00156258 -0.00569596 -0.00749774 2650 
80 1 -0.0145317 0.00958812 -0.00739553 0.000105 0.0137546 0.0232676 -0.0199154 2650 
159 1 -0.012707 0.000479385 -0.00588 0.000291 0 -0.011755 0 2650 
97 1 -0.0118134 0.00486099 -0.00546001 0.00164 0.0106628 0.00973926 -0.0203866 2650 
10 1 -0.0144656 0.00657291 -0.00587712 0.001058 -0.00348814 0.00760519 -0.0107431 2650 
114 1 -0.00841652 0.00646235 -0.00424108 0.001058 0.0187062 0.0117361 -0.00752779 2650 
234 1 -0.0126568 0.00924111 -0.00571528 0.000291 -0.00131366 0.00431637 0.0126772 2650 
7 1 -0.00462444 0.0260134 -0.00323193 0.000291 0.00378858 0.0136367 -0.000251809 2650 
293 1 -0.0156948 0.0371451 -0.00209992 0.001058 -0.00462377 0.0247322 0.112673 2650 
61 1 -0.016439 0.000197385 -0.001038 0.000291 0 -0.011755 0 2650 
71 1 -0.000963454 0.00338552 -0.000993921 0.000291 0.000861808 -0.00718564 -0.0173142 2650 
129 1 -0.00223544 0.00797257 -0.00137601 0.00164 0.00825627 0.00147102 -0.0030875 2650 
65 1 -0.0130391 0.0235047 -0.00127354 0.00164 -0.00447342 0.0138222 0.00034274 2650 
187 1 -0.0157476 0.0211098 0.00165591 0.001058 -0.000280938 0.0161775 0.0137442 2650 
211 1 -0.0126677 0.0055907 0.00320379 0.001058 0.000982608 0.00314487 0.00709992 2650 
209 1 -0.0156348 0.00860735 0.00203832 0.001058 -0.0032116 0.00264672 0.00158384 2650 
266 1 -0.0153379 0.0107199 0.00290171 0.001058 0.00237332 0.00196815 0.00196827 2650 
115 1 -0.015656 0.0130679 0.00203012 0.001058 0.00236141 0.0122312 0.0092361 2650 
256 1 -0.0161277 0.013943 0.00303034 0.000291 0.000881351 0.0216623 0.00465977 2650 
220 1 -0.0160992 0.0228943 0.00395036 0.000291 -0.00743392 0.0110018 0.0132466 2650 
106 1 -0.00437713 0.023333 0.00363436 0.001058 0.0119634 0.0223893 -0.0027555 2650 
147 1 -0.0153086 0.0337102 0.00396084 0.001058 0.0100857 0.0256255 0.0572437 2650 
291 1 -0.008194 0.000584385 0.004767 0.000291 0 -0.011755 0 2650 
124 1 -0.0128366 0.0335393 0.00738431 0.001058 0.00450723 0.0342902 0.00378394 2650 
217 1 -0.00949518 0.0367912 0.00775988 0.001058 0.000747792 0.0265619 -0.00553463 2650 
28 1 -0.0122574 0.0424391 0.00788567 0.001058 0.00734507 0.0503926 0.00344867 2650 
68 1 -0.00200021 0.00765859 0.00916711 0.001058 0.00272783 -0.00342387 -0.00169301 2650 
41 1 -0.000721489 0.0174198 0.00897378 0.00164 0.0102042 0.00860529 0.0210319 2650 
242 1 -0.00344809 0.02617 0.00861602 0.000291 0.0116924 0.0265357 0.00697501 2650 
55 1 -0.01171 0.000333385 0.01034 0.000291 0 -0.011755 0 2650 
144 1 -0.007268 0.0179832 0.0102058 0.000105 0.00807853 0.0136784 0.0281765 2650 
250 1 -0.00712208 0.000619026 0.0134928 0.001058 0.0155527 -0.0042124 0.00795816 2650 
170 1 -0.00472532 0.000492849 0.0135896 0.001058 0.0182293 -0.00571122 0.00927168 2650 
299 1 -0.00816074 0.00280522 0.0122734 0.001058 0.00581403 -0.00322581 0.00124072 2650 
4 1 -0.0100214 0.008348 0.0121625 0.001058 0.00569435 0.00097307 0.00498712 2650 
224 1 -0.00825119 0.014394 0.0126959 0.001058 -0.00111942 0.00491513 -0.00282362 2650 
273 1 -0.00334076 0.0399191 0.0150075 0.001058 0.00511 0.0387776 -0.00978519 2650 
198 1 -0.00295184 0.0125574 0.0162424 0.000291 -0.0815361 -0.00723373 -0.0150615 2650 
154 1 -0.00880592 0.0994599 -0.00631151 0.001058 -0.025218 0.0914679 0.0181079 2650 
253 1 0.00423772 -0.0236772 -0.0685767 0.000291 -9.50487 -0.328446 -0.596152 2650 
131 1 0.00326476 -0.046111 -0.067868 0.001058 -10.5558 0.0280571 -0.505073 2650 
288 1 0.0186621 -0.046294 -0.0661485 0.000291 -10.2239 0.0591558 -2.88341 2650 
122 1 0.011988 -0.0262297 -0.0668821 0.001058 -9.52707 -0.0137826 -1.68382 2650 
133 1 0.0168031 -0.0205455 -0.0666362 0.000291 -8.81699 -0.582341 -2.23342 2650 
132 1 0.00627362 -0.0100738 -0.0676573 0.001058 -7.47929 0.413206 -0.66513 2650 
239 1 0.0215291 -0.0485517 -0.0644707 0.001058 -10.1464 -0.00856848 -3.38842 2650 
36 1 0.0199583 -0.0443137 -0.0649738 0.001058 -9.92476 0.100752 -3.04511 2650 
296 1 0.0192703 -0.00919959 -0.0659622 0.000291 -5.86344 -0.00670545 -1.71731 2650 
230 1 0.0235334 -0.0494534 -0.0637621 0.001058 -10.1714 0.061973 -3.75438 2650 
196 1 0.0266685 -0.0414279 -0.0625136 0.001058 -9.63578 -0.1778 -4.11208 2650 
2 1 0.0240153 -0.0392643 -0.0635712 0.001058 -9.79544 -0.083755 -3.70085 2650 
125 1 0.0271703 -0.0386275 -0.0631145 0.000291 -6.84011 -1.14236 -2.94646 2650 
231 1 0.0250319 -0.0347424 -0.0631609 0.001058 -5.53938 -0.822639 -2.22298 2650 
243 1 0.0278092 -0.0475169 -0.0620237 0.001058 -9.81624 -0.0118209 -4.40378 2650 
191 1 0.0317245 -0.0484545 -0.0609715 0.000291 -9.61005 0.016952 -5.00063 2650 
121 1 0.0299725 -0.0465504 -0.0603667 0.00164 -9.48011 -0.00667676 -4.70682 2650 
285 1 0.0293756 -0.0260127 -0.0612659 0.001058 -6.84202 -0.397162 -3.31501 2650 
50 1 0.0283865 -0.02211 -0.0617445 0.001058 -7.34157 -0.106914 -3.34483 2650 
126 1 0.0300516 -0.021075 -0.0618021 0.000291 -7.3069 -0.0206403 -3.55353 2650 
102 1 0.033133 -0.0109809 -0.0602103 0.000291 -7.51257 0.170409 -4.14251 2650 
228 1 0.0302742 -0.000939645 -0.0616761 0.000291 -6.09439 -0.153789 -2.99588 2650 
281 1 0.0364146 -0.056894 -0.0582587 0.000291 -9.19457 -0.0502853 -5.74715 2650 
73 1 0.038605 -0.0544476 -0.0552184 0.00164 -8.62956 -0.0275942 -6.03351 2650 
88 1 0.0406431 -0.0339247 -0.0556246 0.000105 -4.93881 -0.880235 -3.65042 2650 
267 1 0.0433821 -0.0115681 -0.0532848 0.000291 -4.84739 -0.00800857 -3.97752 2650 
287 1 0.0449057 -0.0412151 -0.0509203 0.001058 -7.9033 1.21511 -6.98252 2650 
18 1 0.0466838 -0.0199723 -0.0493688 0.001058 -5.78199 -0.0887027 -5.49075 2650 
89 1 0.0485849 -0.060551 -0.0466728 0.00164 -6.9066 -0.0917688 -7.19901 2650 
206 1 0.0586169 -0.0573807 -0.0358441 0.000291 -4.93504 0.328846 -8.04868 2650 
44 1 0.0618072 -0.018064 -0.0282803 0.001058 -4.06766 -0.0614751 -8.89705 2650 
226 1 0.0631537 -0.061684 -0.0270623 0.000291 -3.90733 -0.278063 -9.12596 2650 
83 1 0.0621505 -0.044238 -0.0275208 0.001058 -4.34943 -0.0244778 -9.8225 2650 
109 1 0.0643477 -0.0495735 -0.0241501 0.000291 -3.75853 0.180722 -10.0151 2650 
215 1 0.0644632 -0.0506667 -0.0215337 0.001058 -3.41703 0.00307721 -10.2279 2650 
264 1 0.0648668 -0.0478911 -0.020302 0.001058 -3.18469 0.0158395 -10.1782 2650 
290 1 0.0655323 -0.048988 -0.0207245 0.000291 -3.13276 -0.0929789 -9.90919 2650 
241 1 0.0656949 -0.0278557 -0.0201085 0.000291 -3.17552 0.641786 -10.3677 2650 
84 1 0.0655283 -0.0514317 -0.0180263 0.001058 -2.82754 0.036727 -10.2788 2650 
37 1 0.006156 -0.000102615 -0.015157 0.000291 0 -0.011755 0 2650 
78 1 0.001258 -0.000116615 -0.012517 0.000291 0 -0.011755 0 2650 
252 1 0.00245 -0.00173162 -0.01336 0.001058 0 -0.011755 0 2650 
275 1 0.012705 -0.00236962 -0.010476 0.000291 0 -0.011755 0 2650 
278 1 7.4e-05 -0.00128962 -0.004448 0.001058 0 -0.011755 0 2650 
227 1 0.00944 -0.00320262 -0.002109 0.000291 0 -0.011755 0 2650 
202 1 0.00688599 -0.00203077 -0.000872377 0.001058 0.0093109 -0.00893593 -0.0136131 2650 
190 1 0.005899 -0.000500615 -0.000534 0.000291 0 -0.011755 0 2650 
48 1 0.009671 -0.00260862 0.000233 0.000105 0 -0.011755 0 2650 
128 1 0.00361 -0.000901615 0.000511 0.000105 0 -0.011755 0 2650 
294 1 0.00829247 -0.00288742 0.00345473 0.001058 0.0102413 -0.0140675 -0.0036306 2650 
271 1 0.0138177 -0.000855566 0.00220329 0.001058 0.0150184 -0.010407 0.010297 2650 
212 1 0.001087 -0.00238462 0.005915 0.000291 0 -0.011755 0 2650 
24 1 0.005464 -0.00281262 0.005551 0.000105 0 -0.011755 0 2650 
99 1 0.00592218 -0.00274737 0.00420088 0.001058 0.0107016 -0.0115374 0.00367132 2650 
51 1 0.00966755 -0.00173566 0.00458082 0.001058 0.00341431 -0.00932545 0.00234536 2650 
145 1 0.00526226 -0.00195393 0.00706179 0.00164 0.00142123 -0.0121074 -0.00172265 2650 
222 1 0.009219 -0.000540615 0.006833 0.001058 0 -0.011755 0 2650 
100 1 0.0666635 -0.0131875 0.0131827 0.001058 1.34233 -0.227772 -6.52226 2650 
39 1 0.0671162 -0.0351178 0.0146948 0.000291 2.15393 0.00735971 -9.85805 2650 
85 1 0.0670253 -0.0153982 0.0151426 0.000291 1.67129 0.41244 -7.22489 2650 
137 1 0.0653342 -0.0611601 0.0164491 0.00164 2.58372 -7.00661e-07 -10.2623 2650 
207 1 0.0660729 -0.00955127 0.0188921 0.000291 1.78572 -0.20726 -6.18777 2650 
303 1 0.0662264 -0.00408476 0.0182944 0.000291 2.44074 -0.492279 -8.86058 2650 
118 1 0.063813 -0.0168086 0.0255374 0.000291 3.15708 0.0792735 -7.84971 2650 
141 1 0.0635999 -0.031732 0.0259971 0.000291 3.77343 0.17465 -9.23672 2650 
274 1 0.140088 -0.0629535 0.028509 0.000291 9.08634 -0.073758 -2.78682 2650 
120 1 0.0629432 -0.02893 0.0280018 0.000105 1.33668 -0.182755 -3.21033 2650 
295 1 0.0617994 -0.0322893 0.0300223 0.000291 4.13408 0.94722 -8.50916 2650 
174 1 0.0610992 -0.0178208 0.0314758 0.000291 4.36252 -0.0182024 -8.47693 2650 
223 1 0.059655 -0.0167246 0.0325765 0.001058 4.52817 -0.152995 -8.30406 2650 
175 1 0.0567951 -0.00108911 0.038664 0.000291 4.96645 -0.257814 -7.29669 2650 
25 1 0.0512134 -0.0586518 0.043773 0.00164 6.87325 -0.00663239 -8.04135 2650 
178 1 0.052811 -0.0566551 0.0427544 0.001058 6.69869 0.0884074 -8.27464 2650 
103 1 0.0531954 -0.046829 0.0434926 0.000291 6.95682 0.53916 -8.50646 2650 
152 1 0.0530229 -0.0228337 0.0439868 0.000105 5.29465 -0.284688 -6.37748 2650 
169 1 0.0491604 -0.0611601 0.046071 0.00164 7.23729 1.44508e-05 -7.72263 2650 
246 1 0.0496826 -0.0585281 0.0463517 0.001058 7.27995 0.000141534 -7.80304 2650 
3 1 0.0333867 -0.00842703 0.0497672 0.001058 5.05997 -0.404788 7.52871 2650 
168 1 0.0373594 -0.00778809 0.0578925 0.000105 4.5044 -0.20199 -2.90286 2650 
98 1 0.0305994 -0.0178297 0.0606922 0.001058 8.38497 -0.0383141 -4.25211 2650 
164 1 0.0269664 -0.0355943 0.0623607 0.001058 3.71044 -0.811866 -1.60824 2650 
6 1 0.0258771 -0.0203152 0.0636664 0.000291 8.21176 0.210888 -3.33531 2650 
40 1 0.0233548 -0.00443106 0.0648113 0.000105 4.76263 -0.0520214 -1.75367 2650 
248 1 0.0182579 -0.0267787 0.0662329 0.000291 7.94308 0.439934 -2.1953 2650 
208 1 0.0102804 -0.0179619 0.0671623 0.001058 9.21623 0.127726 -1.39732 2650 
177 1 0.00729507 -0.011005 0.0669562 0.00164 4.61543 -0.213282 -0.407041 2650 
75 1 0.000382287 0.0563346 -0.0149278 0.001058 0.0240155 0.0510522 0.00788599 2650 
87 1 0.00574864 0.00124625 -0.0122232 0.000291 -0.00318762 -0.017547 -0.0237996 2650 
232 1 0.00811429 0.0226711 -0.0131946 0.001058 -0.0291023 0.0299794 -0.00774462 2650 
127 1 0.00937995 0.0636804 -0.0124749 0.000291 0.0147798 0.0618117 0.0201086 2650 
134 1 0.00169902 0.00559748 -0.0118005 0.000291 -0.0128132 0.00355392 -0.00692922 2650 
301 1 0.00698436 0.0346507 -0.0115873 0.001058 0.00272587 0.0220862 -0.0290146 2650 
260 1 0.00823706 0.0048399 -0.00867983 0.000291 -0.00392275 0.00411325 -0.00447499 2650 
77 1 0.00945206 0.0113488 -0.00819311 0.000291 0.0279429 0.00178097 -0.016803 2650 
286 1 0.0134363 0.0198924 -0.00850532 0.001058 -0.0144844 0.0497942 -0.0202744 2650 
19 1 0.0139197 0.00912683 -0.00674972 0.001058 -0.00189711 0.0050805 -0.00113271 2650 
284 1 0.0135179 0.0108929 -0.00751344 0.000291 -0.00371053 0.00586111 -0.00129449 2650 
38 1 0.000852446 0.0149409 -0.00628053 0.000291 0.0290333 0.00993382 0.0254358 2650 
153 1 0.0055537 0.00572974 -0.00450344 0.00164 0.00905173 -0.00370467 -0.0193596 2650 
203 1 0.00728587 0.0130507 -0.00414532 0.001058 0.0105265 0.0334803 0.00411967 2650 
113 1 0.00847834 0.00343702 -0.00209696 0.00164 -0.0251958 0.00978061 -0.000134024 2650 
161 1 0.0138072 0.00566055 -0.00323941 0.00164 -0.000454856 0.00568005 -0.00417258 2650 
199 1 0.0161907 0.00471742 -0.00211781 0.000291 0.0109742 0.00200452 -0.0116559 2650 
279 1 0.00867654 0.0064532 -0.00317789 0.001058 0.00690887 -0.00122776 0.0071413 2650 
92 1 0.0114875 0.00676504 -0.00212023 0.001058 0.00298746 0.00292354 0.00546929 2650 
123 1 0.0152994 0.0228167 -0.0037634 0.001058 -0.0069266 0.0381635 -0.00768552 2650 
176 1 0.00803186 0.000151821 -0.00140307 0.000105 0.0200199 0.000256501 -0.0124767 2650 
101 1 0.00813978 0.000956924 -0.000415546 0.000291 0.0107852 -0.0015929 -0.0095042 2650 
1 1 0.0149072 0.00472543 -0.000170954 0.00164 0.00679448 0.00399547 -0.00426821 2650 
194 1 0.0147309 0.0206999 -0.00122586 0.001058 -0.00717738 0.0355954 0.00284246 2650 
263 1 0.000503646 0.0292022 -0.00172149 0.000291 0.0807781 0.0834583 0.0461979 2650 
292 1 0.00833682 0.036773 -0.000484321 0.001058 -0.0104367 0.0376087 -0.0291473 2650 
195 1 0.0157741 0.000326416 0.000865977 0.001058 0.0016716 3.41696e-05 -0.031197 2650 
258 1 0.015049 0.021436 0.0011859 0.001058 -0.00702738 0.0458888 -0.00817646 2650 
54 1 0.0161369 0.0330163 0.00140045 0.000291 0.0125428 0.00255638 -0.0492536 2650 
9 1 0.0137635 0.0191798 0.00219731 0.00164 -0.00067168 0.0470366 0.00650688 2650 
57 1 0.0059948 0.0246741 0.00396517 0.00164 -0.000919831 0.00616449 -0.024056 2650 
249 1 0.00213409 0.0280981 0.00202813 0.000291 0.00987628 0.0185258 -0.0129358 2650 
52 1 0.00574403 0.0365472 0.00313714 0.001058 0.0258261 0.0380708 0.00407144 2650 
79 1 0.014214 0.000100385 0.005058 0.000291 0 -0.011755 0 2650 
105 1 0.00852803 0.01411 0.0057898 0.00164 0.000597876 0.0137471 0.023702 2650 
139 1 0.0146586 0.0221234 0.00567759 0.001058 -0.0138539 0.00679752 0.0124887 2650 
112 1 0.013668 0.000423385 0.007002 0.000105 0 -0.011755 0 2650 
156 1 0.009227 0.0111206 0.00708441 0.001058 0.0107441 -0.0117541 0.0077951 2650 
180 1 0.0143139 0.0567017 0.00675454 0.001058 -0.021353 0.059502 0.0510683 2650 
116 1 0.00486601 0.0411327 0.00860931 0.001058 -0.0278213 0.0454338 0.0115295 2650 
298 1 0.0115427 0.00443175 0.0102372 0.000105 0.00377194 -0.00442838 -0.00799766 2650 
238 1 0.00651841 0.0372161 0.0101959 0.001058 0.0207771 0.0325148 -0.00733364 2650 
66 1 0.0100569 0.00826575 0.0121891 0.001058 0.00274751 -0.000835425 -0.00507484 2650 
265 1 0.00783211 0.00992524 0.0124892 0.001058 0.011667 0.00657701 -0.00499144 2650 
70 1 0.00378846 0.0313876 0.0128892 0.000291 0.000986621 0.0559838 -0.0454673 2650 
95 1 0.00663564 0.000910957 0.0148691 0.000291 -0.000366951 -0.00495937 0.00220646 2650 
17 1 0.0056762 0.0381412 0.0140321 0.00164 0.0376416 0.0401338 -0.0168703 2650 
245 1 0.00435225 0.0758705 -0.00405284 0.001058 0.013355 0.0538623 -0.0223836 2650 
