ITEM: TIMESTEP
21238317
ITEM: NUMBER OF ATOMS
261
ITEM: BOX BOUNDS ff ff ff
-0.15 0.15
-0.15 0.15
-0.15 0.15
ITEM: ATOMS id type x y z radius vx vy vz density 
227 1 -0.0145107 -0.0459411 -0.0671774 0.000291 -10.3217 -0.0245818 2.22901 2650 
253 1 -0.013902 -0.023417 -0.067287 0.000291 -10.4381 -0.253927 2.15656 2650 
235 1 -0.0180804 -0.0187305 -0.0663018 0.000291 -10.638 0.350462 2.89765 2650 
212 1 -0.0174124 -0.0182998 -0.0664827 0.000291 -10.5026 0.315195 2.74917 2650 
100 1 -0.0161815 -0.0187475 -0.0660093 0.001058 -10.4641 0.0107356 2.55582 2650 
98 1 -0.0126101 -0.0186646 -0.0667732 0.001058 -10.6152 -0.0346103 2.00218 2650 
94 1 -0.0149887 -0.0172813 -0.0670642 0.000291 -10.4578 -0.126389 2.33822 2650 
177 1 -0.0142216 -0.0158457 -0.0658565 0.00164 -10.3161 -0.0225977 2.22908 2650 
173 1 -0.0149187 -0.00876536 -0.0670768 0.000291 -10.307 0.404649 2.29508 2650 
107 1 -0.0203956 -0.0489206 -0.0648372 0.001058 -10.1841 0.044924 3.2036 2650 
252 1 -0.0173373 -0.0163524 -0.0657191 0.001058 -10.3698 0.150196 2.73451 2650 
22 1 -0.0210539 -0.0146419 -0.0654248 0.000291 -9.41913 -0.036994 3.03103 2650 
268 1 -0.0293994 -0.0151977 -0.0621292 0.000291 -9.4888 0.481698 4.49086 2650 
158 1 -0.0332324 -0.0134717 -0.0601604 0.000291 -7.89221 -0.0419844 4.3499 2650 
39 1 -0.0379194 -0.0411751 -0.0573075 0.000291 -8.92759 0.332643 5.90354 2650 
275 1 -0.0398436 -0.0120146 -0.0559896 0.000291 -7.59886 -0.266916 5.41094 2650 
207 1 -0.0382753 -0.0129033 -0.0570758 0.000291 -7.72615 -0.133972 5.18138 2650 
276 1 -0.0434413 -0.0334716 -0.0532232 0.000291 -8.3785 -0.0187521 6.83856 2650 
210 1 -0.0456163 -0.0340292 -0.0503569 0.001058 -7.89626 -0.064968 7.15237 2650 
241 1 -0.0487172 -0.0334554 -0.0484513 0.000291 -7.22648 -0.148244 7.2701 2650 
261 1 -0.0496326 -0.0303031 -0.0475142 0.000291 -7.13657 0.350793 7.45175 2650 
251 1 -0.0480273 -0.030875 -0.0482578 0.001058 -7.58032 -2.07148e-08 7.54411 2650 
206 1 -0.0504067 -0.062509 -0.0466924 0.000291 -7.3344 1.86281e-09 7.91784 2650 
169 1 -0.0491045 -0.0611601 -0.0461305 0.00164 -7.24612 4.57202e-07 7.71325 2650 
246 1 -0.0496205 -0.0585276 -0.0464184 0.001058 -7.29156 -1.66622e-05 7.79457 2650 
145 1 -0.0489627 -0.0392603 -0.0462786 0.00164 -7.21507 0.0693265 7.63322 2650 
117 1 -0.0499592 -0.0137802 -0.047167 0.000291 -7.22346 -0.0462469 7.64976 2650 
29 1 -0.0497854 -0.0100185 -0.0473497 0.000291 -6.46656 -0.202073 6.79903 2650 
25 1 -0.0511309 -0.0588111 -0.0438711 0.00164 -6.89129 -5.07087e-05 8.03167 2650 
190 1 -0.0527141 -0.0101498 -0.0440692 0.000291 -5.43841 0.237455 6.49338 2650 
178 1 -0.0526156 -0.0567366 -0.0429931 0.001058 -6.75338 -5.71462e-05 8.26488 2650 
16 1 -0.0539508 -0.0101686 -0.0428509 0.000105 -5.63067 -0.229023 7.08491 2650 
47 1 -0.0583216 -0.0158945 -0.0363613 0.000291 -4.64701 0.274753 7.45108 2650 
200 1 -0.0579625 -0.0110745 -0.0372642 0.000105 -5.08916 -0.0445623 7.92447 2650 
231 1 -0.0593692 -0.0443495 -0.033092 0.001058 -5.22142 0.0843606 9.36709 2650 
133 1 -0.0610357 -0.0244147 -0.0315533 0.000291 -4.84857 0.116878 9.37795 2650 
46 1 -0.0601947 -0.0160988 -0.0331732 0.000291 -4.41999 -0.0970084 8.02159 2650 
164 1 -0.0634268 -0.0455763 -0.0244388 0.001058 -3.92592 -0.063208 10.1912 2650 
226 1 -0.0648891 -0.0442309 -0.0226553 0.000291 -3.66018 0.046643 10.481 2650 
37 1 -0.0659317 -0.0246305 -0.0193424 0.000291 -2.98185 0.515378 10.1753 2650 
137 1 -0.0653137 -0.0611601 -0.0165303 0.00164 -2.59643 -8.16432e-07 10.259 2650 
103 1 -0.0674662 -0.0494392 -0.0130409 0.000291 -2.03215 -0.307982 10.5086 2650 
74 1 -0.00881252 -0.000985946 -0.01253 0.001058 0.00552843 -0.00502923 -0.00272883 2650 
202 1 -0.0671946 -0.0311002 -0.0101274 0.001058 -1.59611 -0.018481 10.5928 2650 
58 1 -0.00426661 -0.000616421 -0.011039 0.001058 0.020455 0.00490158 -0.0306807 2650 
71 1 -0.000463612 -0.000782091 -0.011036 0.000291 0.000861808 -0.00718564 -0.0173142 2650 
3 1 -0.0673722 -0.0270918 -0.00879424 0.001058 -1.37179 0.00167622 10.5023 2650 
102 1 -0.0681365 -0.00852148 -0.00875965 0.000291 -1.27074 -0.223343 9.90948 2650 
135 1 -0.00712889 -0.00265992 -0.00998937 0.000291 0.00330025 -0.00264717 0.00636962 2650 
221 1 -0.0683123 -0.0201082 -0.00671677 0.000291 -0.973591 -0.0686088 9.51485 2650 
132 1 -0.0677886 -0.0233021 -0.00403533 0.001058 -0.625018 -0.389761 10.4224 2650 
150 1 -0.0687068 -0.0319048 0.000555408 0.000291 0.0868247 -0.0127213 10.7543 2650 
285 1 -0.0680838 -0.030875 -0.000162982 0.001058 -0.0256013 -2.13127e-08 10.6946 2650 
109 1 -0.0669776 -0.051727 0.0153843 0.000291 2.41766 -0.00896343 10.5256 2650 
84 1 -0.0656471 -0.0510123 0.0175931 0.001058 2.76222 0.00776927 10.3065 2650 
290 1 -0.0664644 -0.0487606 0.0174989 0.000291 2.74869 0.000663399 10.4401 2650 
264 1 -0.0654732 -0.0482419 0.0182527 0.001058 2.86716 0.000110337 10.2846 2650 
287 1 -0.0651103 -0.0499114 0.0195011 0.001058 3.06326 6.84469e-05 10.2276 2650 
304 1 -0.0654282 -0.0178073 0.0210453 0.000291 3.11835 -0.0434566 9.70336 2650 
215 1 -0.0639072 -0.0485436 0.023151 0.001058 3.63641 0.000152554 10.0382 2650 
181 1 -0.064364 -0.0475593 0.0241185 0.000291 3.77765 -0.0639141 10.0806 2650 
55 1 -0.0629074 -0.0150537 0.0276943 0.000291 2.40154 -0.096085 5.43006 2650 
291 1 -0.0621606 -0.0436583 -0.0293253 0.000291 -4.63177 0.244134 9.82032 2650 
83 1 -0.0595506 -0.0498859 0.0327607 0.001058 5.14566 -0.000589939 9.35354 2650 
272 1 -0.0591002 -0.0475721 0.0335716 0.001058 5.33951 -0.110655 9.39556 2650 
89 1 -0.0558652 -0.0611601 0.0376599 0.00164 5.91577 2.87157e-07 8.77551 2650 
229 1 -0.0491545 -0.0616309 0.0469123 0.001058 7.36896 6.90552e-05 7.72116 2650 
280 1 -0.0482587 -0.0308793 0.048028 0.001058 7.54421 1.03337e-05 7.58046 2650 
126 1 -0.0493344 -0.0281674 0.0478148 0.000291 6.86966 0.303154 7.06917 2650 
15 1 -0.0468237 -0.0255822 0.0502812 0.000291 8.00868 -0.254198 7.45727 2650 
204 1 -0.0449762 -0.0312156 0.0509317 0.001058 8.01421 0.00630072 7.07711 2650 
18 1 -0.0445024 -0.0209218 0.0513434 0.001058 7.97535 -0.060977 6.91242 2650 
152 1 -0.0439972 -0.0059234 0.0530149 0.000105 8.71936 -0.588517 7.23971 2650 
73 1 -0.039411 -0.0581488 0.0546373 0.00164 8.58288 -0.000950798 6.191 2650 
141 1 -0.0399998 -0.0346434 0.0558637 0.000291 8.75558 -0.0236306 6.2692 2650 
196 1 -0.035881 -0.0476322 0.0577216 0.001058 9.08018 -0.0441908 5.64459 2650 
281 1 -0.0345186 -0.0622793 0.0594338 0.000291 9.33264 -1.78656e-06 5.42032 2650 
2 1 -0.0311547 -0.0493573 0.0604088 0.001058 9.48888 -0.000372394 4.89371 2650 
99 1 -0.0339116 -0.0484587 0.0589041 0.001058 9.2561 0.0143133 5.3291 2650 
121 1 -0.031203 -0.0458138 0.0597374 0.00164 9.38138 -0.0039889 4.90014 2650 
86 1 -0.0352005 -0.0299106 0.0590055 0.000291 9.48559 0.297922 5.65946 2650 
192 1 -0.035216 -0.000105261 0.0592134 0.000105 7.83755 -0.000231409 4.65081 2650 
243 1 -0.029804 -0.0508399 0.0610831 0.001058 9.59485 -0.000318874 4.68157 2650 
201 1 -0.0281357 -0.0455169 0.0612435 0.00164 9.6216 0.00556914 4.42033 2650 
79 1 -0.0307291 -0.0431333 0.0614747 0.000291 9.68106 -0.196587 4.84018 2650 
60 1 -0.027371 -0.0431185 0.062214 0.001058 9.76646 0.00930687 4.29698 2650 
259 1 -0.0292125 -0.0308992 0.0613709 0.001058 9.63816 -0.000182756 4.58776 2650 
122 1 -0.0293108 -0.0287871 0.0612956 0.001058 9.62857 -3.98499e-05 4.60427 2650 
174 1 -0.0321808 -0.0263462 0.0607026 0.000291 9.45765 0.0985958 5.01416 2650 
36 1 -0.0224628 -0.0484849 0.064153 0.001058 10.0782 -0.00185627 3.52881 2650 
213 1 -0.0286284 -0.0470123 0.0624878 0.000291 9.85785 -0.0278764 4.5164 2650 
108 1 -0.026068 -0.0463269 0.0627754 0.001058 9.85182 -0.0294332 4.09106 2650 
140 1 -0.0236682 -0.0465571 0.0637183 0.001058 9.96938 -0.0228735 3.70198 2650 
50 1 -0.0261206 -0.0390053 0.0627316 0.001058 9.97517 -0.106367 4.16147 2650 
125 1 -0.0242755 -0.0378888 0.0642808 0.000291 10.3757 0.00832218 3.91782 2650 
278 1 -0.0246073 -0.0336183 0.0633308 0.001058 9.81918 0.0884957 3.81612 2650 
240 1 -0.0282457 -0.0322754 0.0626308 0.000291 8.81089 -0.179482 3.97399 2650 
119 1 -0.0211797 -0.0503178 0.065383 0.000291 10.2698 -0.00416323 3.32671 2650 
239 1 -0.0182951 -0.0499836 0.0654583 0.001058 10.2811 -0.0142429 2.87347 2650 
191 1 -0.0237676 -0.0484366 0.0644921 0.000291 10.132 0.0120006 3.73404 2650 
230 1 -0.0204698 -0.048747 0.0648137 0.001058 10.1815 -0.00539295 3.21558 2650 
288 1 -0.0199726 -0.0477272 0.0657666 0.000291 10.3734 -0.0421762 3.1513 2650 
131 1 -0.00874053 -0.0484625 0.06739 0.001058 10.585 -0.00322118 1.37284 2650 
82 1 -0.0014073 -0.0407293 0.0679329 0.001058 10.6946 -0.0321023 0.222272 2650 
24 1 -0.0131502 -0.0331029 0.0676249 0.000105 10.5002 -0.658974 2.03868 2650 
167 1 -0.0163407 -0.0188825 0.0667533 0.000291 8.36422 0.00293949 2.04741 2650 
294 1 -0.000162982 -0.030875 0.0680838 0.001058 10.6946 5.63098e-08 0.0256013 2650 
198 1 -0.00286247 0.00354687 -0.0163275 0.000291 0.0742307 -0.0177771 -0.0201181 2650 
54 1 -0.00028994 0.0324326 -0.0165244 0.000291 -0.0465548 -0.00183561 -0.00180929 2650 
134 1 -0.00558295 0.00765816 -0.0155306 0.000291 -0.00544633 0.00352621 0.00729171 2650 
97 1 -0.00393937 0.0103681 -0.0142628 0.00164 0.0189231 0.00904729 -0.00561719 2650 
80 1 -0.00479956 0.0227391 -0.0154963 0.000105 0.0200167 0.0220396 -0.007602 2650 
232 1 -0.00795583 0.0395888 -0.0137185 0.001058 -0.0196298 0.0266647 0.016804 2650 
301 1 -0.00139175 0.0446396 -0.0124242 0.001058 -0.0176549 0.0163122 0.00371725 2650 
10 1 -0.0116735 0.0101936 -0.0101041 0.001058 0.0053433 0.0061558 -0.0070677 2650 
51 1 -0.00685527 0.0219124 -0.0104739 0.001058 -0.0414136 0.0415048 -0.0353246 2650 
130 1 -0.0076063 0.00340111 -0.00971006 0.001058 -0.00692202 0.00347734 0.00595777 2650 
67 1 -0.0139598 0.0217672 -0.0064626 0.001058 -0.0104976 0.0129104 0.0114407 2650 
113 1 -0.00222516 0.0054135 -0.00224089 0.00164 -0.0131936 -0.00156564 -0.00033725 2650 
129 1 -0.00135672 0.012522 -0.00310053 0.00164 -0.00374589 0.0128173 -0.00288427 2650 
7 1 -0.0024271 0.0339226 -0.00337798 0.000291 0.00378858 0.0136367 -0.000251809 2650 
65 1 -0.0150574 0.0314384 -0.00101314 0.00164 0.00199904 0.0128894 0.00103488 2650 
234 1 -0.0134187 0.0117446 0.0016374 0.000291 -0.00131366 0.00431637 0.0126772 2650 
205 1 -0.01022 0.00351991 0.00211882 0.000291 -0.00881861 0.00364628 0.0236275 2650 
256 1 -0.0156165 0.0265069 0.00573297 0.000291 0.000881351 0.0216623 0.00465977 2650 
217 1 -0.00906147 0.0521968 0.00454983 0.001058 0.000747792 0.0265619 -0.00553463 2650 
211 1 -0.0120978 0.00741471 0.00732169 0.001058 0.000982608 0.00314487 0.00709992 2650 
115 1 -0.0141589 0.0201413 0.00730852 0.001058 0.0059455 0.0116516 0.00703082 2650 
209 1 -0.0127395 0.00127998 0.00921325 0.001058 0.0110369 -0.0181584 0.0135773 2650 
68 1 -0.000418088 0.00567277 0.00818518 0.001058 0.00272783 -0.00342387 -0.00169301 2650 
187 1 -0.0132797 0.0301512 0.00872905 0.001058 0.00749407 0.0151236 0.010031 2650 
273 1 -0.000377003 0.0624098 0.00933213 0.001058 0.00511 0.0387776 -0.00978519 2650 
28 1 -0.00799734 0.0716664 0.00988587 0.001058 0.00734507 0.0503926 0.00344867 2650 
222 1 -0.00493988 0.00137086 0.0102444 0.001058 -0.0324875 0.00467874 -0.0112895 2650 
224 1 -0.00836204 0.0169543 0.0109651 0.001058 0.0046856 0.00178326 -0.00382818 2650 
220 1 -0.0109438 0.0298218 0.0101195 0.000291 0.00991537 0.0130183 0.0124552 2650 
299 1 -0.00478865 0.000934275 0.012993 0.001058 0.00581403 -0.00322581 0.00124072 2650 
244 1 -0.00783111 0.0199999 0.0135437 0.001058 0.0327341 0.0229953 0.0151094 2650 
4 1 -0.00642662 0.00888882 0.0144162 0.001058 0.0064118 0.000915196 0.00341804 2650 
266 1 -0.00392465 0.014991 0.0153897 0.001058 0.0362563 0.0106261 0.00758509 2650 
124 1 -0.000568059 0.0553674 0.015691 0.001058 0.0237177 0.0354635 -0.00375445 2650 
44 1 0.000162982 -0.030875 -0.0680838 0.001058 -10.6946 -2.12522e-08 -0.0256013 2650 
282 1 0.00345963 -0.0292089 -0.0686214 0.000291 -9.49957 -0.209425 -0.486946 2650 
128 1 0.000592686 -0.0034039 -0.0688919 0.000105 -8.47499 -0.163516 -0.0874757 2650 
40 1 0.00591444 -0.000104993 -0.0686388 0.000105 -7.77147 -3.91304e-05 -0.676281 2650 
14 1 0.0131776 -0.0322884 -0.0674311 0.000291 -10.663 -0.259947 -2.08405 2650 
23 1 0.0219323 -0.0501298 -0.0651352 0.000291 -10.2277 -0.036008 -3.44372 2650 
76 1 0.0166052 -0.0450274 -0.0659067 0.001058 -10.2958 -0.0143037 -2.595 2650 
90 1 0.023214 -0.0494813 -0.0638835 0.001058 -10.0359 -0.00743344 -3.64685 2650 
171 1 0.0252515 -0.0495285 -0.0631055 0.001058 -9.94236 -0.0364923 -3.97709 2650 
225 1 0.0242058 -0.0476485 -0.063517 0.001058 -9.98075 -0.00587475 -3.80373 2650 
302 1 0.0262886 -0.0386942 -0.063487 0.000291 -9.77189 0.428211 -4.04364 2650 
267 1 0.0278027 -0.0258964 -0.0628287 0.000291 -9.25795 0.0695013 -4.09424 2650 
223 1 0.0229924 -0.0194552 -0.0639598 0.001058 -9.54416 0.127939 -3.43293 2650 
197 1 0.0287528 -0.00531428 -0.0624018 0.000291 -6.70926 0.058961 -3.07147 2650 
21 1 0.0295281 -0.0483873 -0.0620673 0.000291 -9.75365 -0.0279391 -4.64017 2650 
277 1 0.0325424 -0.0378378 -0.0605168 0.000291 -9.02935 0.130293 -4.85409 2650 
182 1 0.0320713 -0.0211337 -0.0607737 0.000291 -7.86635 0.202639 -4.1519 2650 
186 1 0.0270654 -0.0197089 -0.0623421 0.001058 -9.40458 0.207643 -4.09185 2650 
175 1 0.0325372 -0.00911169 -0.0605303 0.000291 -7.95004 -0.172555 -4.26353 2650 
6 1 0.036712 -0.0141155 -0.0580858 0.000291 -7.54561 0.171012 -4.73603 2650 
296 1 0.0381978 -0.0140687 -0.0571204 0.000291 -7.65272 0.0516498 -5.1451 2650 
110 1 0.0393045 -0.00382064 -0.0563513 0.000291 -7.26727 -0.328487 -5.06882 2650 
112 1 0.0442567 -0.0327238 -0.0527962 0.000105 -7.48976 0.708538 -6.27842 2650 
295 1 0.0450688 -0.0286717 -0.0518541 0.000291 -7.7406 -0.0945797 -6.71953 2650 
214 1 0.0478097 -0.0597428 -0.049334 0.000291 -7.53891 -0.148955 -7.30968 2650 
45 1 0.0470835 -0.0138838 -0.0499865 0.000291 -6.63902 -0.634485 -6.27903 2650 
208 1 0.0482586 -0.0308698 -0.0480279 0.001058 -7.5442 6.35503e-08 -7.58044 2650 
271 1 0.0523395 -0.0143366 -0.0433323 0.001058 -6.33636 -0.18712 -7.65194 2650 
257 1 0.0590126 -0.0487832 -0.0337211 0.001058 -5.29844 -0.0141209 -9.27287 2650 
49 1 0.0600383 -0.0490859 -0.0306195 0.00164 -4.80967 -0.000283827 -9.43073 2650 
300 1 0.0620649 -0.0269867 0.0276448 0.001058 3.87013 -0.0443704 -8.67336 2650 
93 1 0.0622377 -0.0493045 -0.0291633 0.000291 -4.57927 0.0309274 -9.77279 2650 
165 1 0.062174 -0.0457058 -0.0293047 0.000291 -4.6032 0.000154481 -9.76631 2650 
179 1 0.0619676 -0.0488233 -0.0279308 0.001058 -4.38278 0.00853877 -9.72309 2650 
59 1 0.0617666 -0.0465966 -0.0283772 0.001058 -4.45747 0.000204338 -9.70226 2650 
255 1 0.0649896 -0.015332 -0.0223752 0.000291 -3.06709 0.195323 -8.90147 2650 
248 1 0.0658319 -0.0231521 -0.0196942 0.000291 -2.99544 -0.508025 -10.0019 2650 
61 1 0.0669692 -0.0206847 -0.0154137 0.000291 -2.14161 -0.0830472 -9.29569 2650 
146 1 0.0672249 -0.0488614 -0.00993041 0.001058 -1.55981 -0.000149913 -10.5593 2650 
138 1 0.0674654 -0.0559289 -0.0080742 0.001058 -1.26874 -0.0120779 -10.6017 2650 
88 1 0.0681831 -0.016813 0.00983643 0.000105 1.36309 -0.121191 -9.10551 2650 
184 1 0.0676479 -0.0130302 0.0130676 0.000105 1.82881 0.876408 -9.47143 2650 
95 1 9.71136e-05 -0.00020705 0.0122007 0.000291 -0.0190214 0.000188354 -0.00919676 2650 
250 1 0.0020729 -0.00220739 0.0152418 0.001058 0.0161046 -0.00542442 -0.00110725 2650 
170 1 0.00545313 -0.0025613 0.0146591 0.001058 0.0153298 -0.00470662 -0.00726617 2650 
236 1 0.0656731 -0.0616435 0.0174316 0.001058 2.73844 -0.000673551 -10.3171 2650 
85 1 0.0657172 -0.00824419 0.0200858 0.000291 2.56655 -0.0531204 -8.41663 2650 
159 1 0.0650544 -0.041442 0.0221542 0.000291 3.5594 -0.744479 -10.4531 2650 
188 1 0.0615298 -0.0616389 0.0288268 0.001058 4.52695 0.00205741 -9.66243 2650 
247 1 0.0631069 -0.0498971 0.027228 0.000291 4.27206 0.0105592 -9.90141 2650 
254 1 0.0626232 -0.0503276 0.0283198 0.000291 4.48059 0.0101672 -9.90657 2650 
218 1 0.0619327 -0.0492081 0.028007 0.001058 4.39918 0.00055928 -9.72807 2650 
148 1 0.0595377 -0.0531342 0.0327664 0.001058 5.14701 0.000704854 -9.35224 2650 
35 1 0.0599691 -0.0508735 0.0319843 0.001058 5.02402 -3.4774e-05 -9.41979 2650 
219 1 0.0609504 -0.000290973 0.0317138 0.000291 4.13246 5.68322e-05 -7.9314 2650 
43 1 0.0585923 -0.0497738 0.0344427 0.001058 5.40723 -0.00788996 -9.19853 2650 
20 1 0.0571119 -0.0555138 0.0368186 0.001058 5.78366 -0.00421807 -8.97146 2650 
172 1 0.0560316 -0.0546988 0.0384452 0.001058 6.03923 -0.00385869 -8.80191 2650 
193 1 0.0555508 -0.0498676 0.0381442 0.00164 5.99109 -0.000263756 -8.725 2650 
42 1 0.0542024 -0.0548087 0.0409802 0.001058 6.43662 -0.002547 -8.51346 2650 
118 1 0.0555794 -0.0213255 0.0404068 0.000291 5.58001 0.248287 -7.68444 2650 
303 1 0.0550675 -0.0162956 0.0411054 0.000291 5.6814 0.00116652 -7.61251 2650 
81 1 0.0527607 -0.050012 0.0419055 0.00164 6.58259 0.00044239 -8.28773 2650 
162 1 0.053331 -0.0473832 0.042113 0.001058 6.61508 0.000458459 -8.3772 2650 
185 1 0.0502157 -0.0518693 0.0449165 0.00164 7.05578 -0.000390337 -7.88822 2650 
104 1 0.050086 -0.0119015 0.0473037 0.000105 6.23964 -0.0788487 -6.61229 2650 
34 1 0.0480273 -0.030875 0.0482578 0.001058 7.58032 -2.12564e-08 -7.54411 2650 
269 1 0.0419797 -0.0175291 0.054384 0.000291 7.92081 0.271023 -6.11279 2650 
87 1 0.0429686 -0.017666 0.053601 0.000291 7.38804 -0.0219812 -5.92315 2650 
168 1 0.0393743 -0.0153432 0.0565296 0.000105 8.17179 0.194596 -5.67599 2650 
270 1 0.0236156 -0.0107282 0.0645401 0.000291 7.91418 -0.0309094 -2.89985 2650 
26 1 0.0170861 -0.0495443 0.0657842 0.001058 10.3334 0.000373575 -2.68389 2650 
78 1 0.0127579 -0.0415665 0.0675237 0.000291 10.3403 -0.740046 -1.95085 2650 
48 1 0.00319777 -0.048675 0.0688187 0.000105 10.8261 0.168246 -0.503148 2650 
64 1 0.00326234 -0.0108793 0.068815 0.000105 8.64455 0.172472 -0.417935 2650 
96 1 0.01068 -0.0101851 0.068068 0.000105 8.57527 -0.0103984 -1.35641 2650 
228 1 0.0099673 -0.00911787 0.0679877 0.000291 8.81991 -0.0366112 -1.28442 2650 
286 1 0.00205534 0.0480537 -0.0156916 0.001058 -0.0227563 0.047494 -0.00559967 2650 
292 1 0.00170625 0.0583915 -0.0149352 0.001058 -0.0198756 0.0344324 0.0109755 2650 
195 1 0.00746879 0.00148894 -0.0138421 0.001058 -0.0267287 0.00320605 -0.0143667 2650 
260 1 0.00630881 0.00784755 -0.0135075 0.000291 -0.00996736 0.00469349 0.00488237 2650 
70 1 0.00436069 0.0638577 -0.0134815 0.000291 0.000986621 0.0559838 -0.0454673 2650 
153 1 0.00779523 0.00398368 -0.0109635 0.00164 -0.00763413 -0.0014489 0.00703428 2650 
33 1 0.003416 0.0333213 -0.011424 0.00164 0.00603998 0.0215627 0.00352792 2650 
263 1 0.00346074 0.0717216 -0.0114171 0.000291 -0.0276857 0.0691876 -0.0511194 2650 
114 1 0.0024329 0.0132692 -0.00860714 0.001058 0.0187062 0.0117361 -0.00752779 2650 
284 1 0.0113658 0.0142923 -0.00826423 0.000291 -0.00371053 0.00586111 -0.00129449 2650 
57 1 0.00546131 0.0282495 -0.00998711 0.00164 -0.000919831 0.00616449 -0.024056 2650 
293 1 0.0123342 0.042444 -0.00980629 0.001058 -0.0609833 -0.00982811 -0.0818063 2650 
123 1 0.011282 0.0449513 -0.00822094 0.001058 -0.0069266 0.0381635 -0.00768552 2650 
199 1 0.0127306 0.00589725 -0.00631502 0.000291 -0.0066469 0.00203541 -0.00705897 2650 
19 1 0.0128194 0.0120735 -0.00740669 0.001058 -0.00189711 0.0050805 -0.00113271 2650 
176 1 0.013353 0.000586344 -0.00599202 0.000105 -0.0113334 0.00168079 0.000719247 2650 
101 1 0.0143951 3.30567e-05 -0.00592791 0.000291 0.0107852 -0.0015929 -0.0095042 2650 
161 1 0.0135434 0.00895494 -0.00565947 0.00164 -0.000454856 0.00568005 -0.00417258 2650 
77 1 0.00783293 0.0119919 -0.00573726 0.000291 -0.0117356 0.000913058 0.0103562 2650 
249 1 0.00786225 0.0388429 -0.00547453 0.000291 0.00987628 0.0185258 -0.0129358 2650 
1 1 0.013235 0.00679646 -0.00273461 0.00164 -0.00396175 0.00352346 -0.00443708 2650 
258 1 0.0109731 0.0480511 -0.00355639 0.001058 -0.00702738 0.0458888 -0.00817646 2650 
17 1 0.0160329 0.0609036 -0.00308098 0.00164 0.00701424 0.0397619 -0.0326359 2650 
203 1 0.0133911 0.032469 -0.00175594 0.001058 0.0105265 0.0334803 0.00411967 2650 
52 1 0.0144563 0.0534975 -0.000737599 0.001058 -0.00702953 0.0194323 -0.0174178 2650 
279 1 0.0126836 0.00574112 0.000964004 0.001058 0.00690887 -0.00122776 0.0071413 2650 
92 1 0.0132202 0.00846067 0.00105192 0.001058 0.00298746 0.00292354 0.00546929 2650 
194 1 0.0105681 0.041345 0.000422746 0.001058 -0.00717738 0.0355954 0.00284246 2650 
106 1 0.00256155 0.0363186 0.0020362 0.001058 0.0119634 0.0223893 -0.0027555 2650 
238 1 0.0143057 0.0539551 0.00358999 0.001058 -0.00137728 0.0257105 -0.0165728 2650 
298 1 0.0137303 0.00186333 0.00559862 0.000105 0.00377194 -0.00442838 -0.00799766 2650 
9 1 0.013374 0.0464606 0.00597125 0.00164 -0.00067168 0.0470366 0.00650688 2650 
156 1 0.011741 0.00506157 0.00788821 0.001058 -0.00386139 -0.00886559 -0.00604091 2650 
38 1 0.0137885 0.0201962 0.00708358 0.000291 -0.0203804 0.00352473 0.00785771 2650 
66 1 0.0111331 0.00774479 0.00993301 0.001058 0.00109107 -0.000952032 -0.00287426 2650 
265 1 0.0131864 0.0135717 0.00843943 0.001058 0.00631372 0.00593974 -0.00936806 2650 
105 1 0.00571536 0.0204052 0.0116613 0.00164 -0.00344466 0.00582004 -0.00613861 2650 
41 1 0.00226736 0.021812 0.0126693 0.00164 -0.00672013 0.00866437 -0.0057422 2650 
144 1 0.000147988 0.0248884 0.0132377 0.000105 0.0152864 0.0109644 -0.00695946 2650 
139 1 0.00662347 0.0260659 0.012921 0.001058 -0.0138539 0.00679752 0.0124887 2650 
242 1 0.00333341 0.0415605 0.0126615 0.000291 0.0116924 0.0265357 0.00697501 2650 
147 1 0.00258097 0.042585 0.0155345 0.001058 0.0379252 0.0108537 -0.00699358 2650 
157 1 0.00088612 0.0892209 -0.0134765 0.000291 0.0079085 0.0606548 0.000918149 2650 
