ITEM: TIMESTEP
16669631
ITEM: NUMBER OF ATOMS
270
ITEM: BOX BOUNDS ff ff ff
-0.15 0.15
-0.15 0.15
-0.15 0.15
ITEM: ATOMS id type x y z radius vx vy vz density 
109 1 -0.0147292 -0.0532568 -0.0671194 0.000291 -10.5314 -0.0474977 2.31115 2650 
290 1 -0.0183512 -0.0469519 -0.0662359 0.000291 -10.4735 0.0267482 2.90189 2650 
181 1 -0.0164548 -0.04621 -0.0667299 0.000291 -10.3381 0.250964 2.55026 2650 
241 1 -0.0137708 -0.0425956 -0.0673285 0.000291 -10.6061 0.440821 2.17633 2650 
76 1 -0.00709236 -0.0378391 -0.0675748 0.001058 -9.76073 0.192605 1.05555 2650 
164 1 -0.0123227 -0.0374509 -0.066824 0.001058 -9.81081 -0.13992 1.79547 2650 
30 1 -0.0140509 -0.0308754 -0.0672642 0.000291 -10.1144 0.00440737 2.12671 2650 
84 1 -0.0176708 -0.0511397 -0.0656262 0.001058 -10.3094 0.0014978 2.77593 2650 
215 1 -0.0231484 -0.048426 -0.0639079 0.001058 -10.0513 -0.0268864 3.64067 2650 
264 1 -0.019705 -0.0469022 -0.0650501 0.001058 -10.2034 -0.001201 3.09066 2650 
287 1 -0.027872 -0.0471959 -0.0619942 0.001058 -9.7433 0.181928 4.38095 2650 
208 1 -0.0236874 -0.0249311 -0.0636843 0.001058 -8.75215 0.787329 3.22368 2650 
83 1 -0.0300904 -0.0509343 -0.0609389 0.001058 -9.5773 0.105077 4.72629 2650 
89 1 -0.0376911 -0.0609274 -0.0558437 0.00164 -8.85707 0.00612607 5.97635 2650 
175 1 -0.0409215 -0.0131272 -0.0551965 0.000291 -7.21887 -0.0461848 5.26701 2650 
117 1 -0.0415671 -0.0137324 -0.0546879 0.000291 -7.19501 -0.235619 5.41222 2650 
280 1 -0.0480662 -0.0308793 -0.0482206 0.001058 -7.57448 1.03338e-05 7.55021 2650 
289 1 -0.0511887 -0.0194404 -0.0458299 0.000291 -6.41976 -0.600828 7.16684 2650 
119 1 -0.052748 -0.056225 -0.0440187 0.000291 -6.86088 -0.00312441 8.22007 2650 
251 1 -0.0509097 -0.03205 -0.0450014 0.001058 -6.8381 0.146169 7.73521 2650 
126 1 -0.0528094 -0.0305201 -0.0439569 0.000291 -6.00447 -0.398057 7.19724 2650 
276 1 -0.052179 -0.0238219 -0.0447006 0.000291 -6.69494 0.491891 7.81515 2650 
231 1 -0.0523279 -0.0322267 -0.0433413 0.001058 -6.60864 0.0372823 7.98642 2650 
73 1 -0.0545595 -0.0580482 -0.0395229 0.00164 -6.20429 -0.0152261 8.56444 2650 
14 1 -0.0576503 -0.0367075 -0.037382 0.000291 -5.2076 -0.593531 8.00233 2650 
122 1 -0.0572694 -0.0256088 -0.0365649 0.001058 -4.13428 0.0998478 6.46821 2650 
22 1 -0.0574016 -0.0232217 -0.0377711 0.000291 -4.83912 0.0503945 7.33682 2650 
281 1 -0.0594591 -0.0622988 -0.0344741 0.000291 -5.33881 -0.0459255 9.21558 2650 
278 1 -0.0584272 -0.0256964 -0.0346844 0.001058 -3.80902 0.215756 6.46451 2650 
102 1 -0.0602239 -0.0155906 -0.0331225 0.000291 -4.27907 -0.250709 7.77596 2650 
212 1 -0.0608473 -0.00186457 -0.0319045 0.000291 -3.27611 -0.146935 6.23911 2650 
121 1 -0.0603496 -0.0465582 -0.0300064 0.00164 -4.7137 0.00035948 9.48028 2650 
196 1 -0.0605263 -0.0427332 -0.0309183 0.001058 -4.86057 0.00530508 9.51483 2650 
229 1 -0.0618922 -0.0598492 -0.0280325 0.001058 -4.07196 -0.0175774 8.96264 2650 
243 1 -0.0620519 -0.0480181 -0.0277462 0.001058 -4.35938 0.00984028 9.74897 2650 
36 1 -0.0618919 -0.0454345 -0.0280991 0.001058 -4.41727 -0.0159955 9.72964 2650 
191 1 -0.0622522 -0.0473475 -0.0291384 0.000291 -4.56432 -0.0409122 9.75252 2650 
2 1 -0.0615164 -0.0433824 -0.0289059 0.001058 -4.5395 -0.00698243 9.66105 2650 
288 1 -0.0633559 -0.0457421 -0.0266517 0.000291 -4.19575 0.109919 9.97454 2650 
200 1 -0.0636865 -0.0110398 -0.0263255 0.000105 -3.49449 -0.157633 8.46056 2650 
99 1 -0.0632055 -0.040314 -0.024968 0.001058 -3.774 -0.0992101 9.47385 2650 
108 1 -0.0629455 -0.0370168 -0.025586 0.001058 -3.89716 0.255096 9.58978 2650 
40 1 -0.0644728 -0.00348688 -0.0242721 0.000105 -2.00913 -0.0168588 5.41104 2650 
230 1 -0.06421 -0.0487622 -0.0222947 0.001058 -3.49871 0.0197223 10.0759 2650 
282 1 -0.0647022 -0.0203413 -0.0231652 0.000291 -3.34326 0.193903 9.31806 2650 
24 1 -0.0648666 -0.00129256 -0.0232012 0.000105 -3.07455 0.39777 8.59921 2650 
272 1 -0.0647955 -0.0435738 -0.0205202 0.001058 -2.44294 -1.2311 7.56577 2650 
239 1 -0.0654528 -0.0500031 -0.0183142 0.001058 -2.88315 -0.0160276 10.3038 2650 
150 1 -0.066127 -0.0342489 -0.0186414 0.000291 -2.65617 0.136363 9.44314 2650 
259 1 -0.0653583 -0.0307917 -0.0186381 0.001058 -2.80719 -0.0690474 9.90348 2650 
23 1 -0.0671721 -0.0488516 -0.0145263 0.000291 -1.97522 -1.98641 9.15907 2650 
104 1 -0.0674078 -0.000493436 -0.014231 0.000105 -1.64255 0.872248 7.72316 2650 
135 1 -0.00834997 -0.00168048 -0.0123461 0.000291 0.00330025 -0.00264717 0.00636962 2650 
94 1 -0.0115133 -0.00207709 -0.0118123 0.000291 8.5498e-05 -0.0117385 8.5498e-05 2650 
131 1 -0.0673839 -0.0485041 -0.008794 0.001058 -1.38777 -0.0124764 10.6323 2650 
177 1 -0.0666875 -0.0190769 -0.0096195 0.00164 -1.32354 -0.0577667 9.33606 2650 
3 1 -0.0675742 -0.0269916 -0.00707324 0.001058 -1.0372 0.437065 9.89356 2650 
133 1 -0.0684355 -0.0265147 -0.00610705 0.000291 -0.848922 -0.247484 9.57137 2650 
159 1 -0.012707 -0.00198913 -0.00588 0.000291 0 -0.011755 0 2650 
214 1 -0.0686249 -0.0529564 -0.00335492 0.000291 -0.484621 -0.555786 9.86773 2650 
60 1 -0.0678612 -0.0396005 -0.00334696 0.001058 -0.489369 0.145099 9.99691 2650 
61 1 -0.016439 -0.00227113 -0.001038 0.000291 0 -0.011755 0 2650 
98 1 -0.0679251 -0.0165945 0.00167031 0.001058 0.214647 0.0347796 9.48467 2650 
132 1 -0.0679172 -0.0144668 0.00197475 0.001058 0.268064 0.0608196 9.43632 2650 
58 1 -0.0118348 -0.00242998 0.000312742 0.001058 0.020455 0.00490158 -0.0306807 2650 
204 1 -0.0678153 -0.0312718 0.0042332 0.001058 0.610024 -0.1286 9.7722 2650 
269 1 -0.0685838 -0.0138409 0.00412721 0.000291 0.571081 0.0832114 9.50199 2650 
268 1 -0.0335306 -0.00608145 0.00312789 0.000291 -4.97073 -0.279756 0.477306 2650 
291 1 -0.008194 -0.00188413 0.004767 0.000291 0 -0.011755 0 2650 
210 1 -0.0676244 -0.0321875 0.00661679 0.001058 0.9851 0.310038 10.0332 2650 
45 1 -0.0684015 -0.0144031 0.00651181 0.000291 0.892128 -0.522939 9.37893 2650 
300 1 -0.0136104 -0.00297229 0.0077131 0.001058 -0.00246489 -0.00748443 -0.0047401 2650 
213 1 -0.0681771 -0.0499898 0.00856504 0.000291 1.19774 -0.122353 9.49489 2650 
304 1 -0.012709 -0.00260313 0.009818 0.000291 0 -0.011755 0 2650 
110 1 -0.00249547 -0.00246461 0.00945129 0.000291 -0.00381615 -0.00836552 -0.0245093 2650 
55 1 -0.01171 -0.00213513 0.01034 0.000291 0 -0.011755 0 2650 
96 1 -0.0677227 -0.00951894 0.0126979 0.000105 1.51314 0.245408 8.09662 2650 
250 1 -0.00385605 -0.000265566 0.015164 0.001058 0.0155527 -0.0042124 0.00795816 2650 
170 1 -0.00089722 -0.000706492 0.0155366 0.001058 0.0182293 -0.00571122 0.00927168 2650 
26 1 -0.065724 -0.0493014 0.0173155 0.001058 2.71399 0.0228099 10.3013 2650 
303 1 -0.065585 -0.0213859 0.0205201 0.000291 2.8455 0.0858864 9.11912 2650 
202 1 -0.0629818 -0.0342717 0.0254822 0.001058 2.62639 0.536069 6.42537 2650 
64 1 -0.0641162 -0.0127205 0.0252722 0.000105 3.06629 0.342564 7.79353 2650 
18 1 -0.0584497 -0.0245093 0.0346465 0.001058 4.94884 -0.00563835 8.35444 2650 
275 1 -0.0595475 -0.0131641 0.0343123 0.000291 2.64781 -0.443347 4.78389 2650 
295 1 -0.0577155 -0.0282418 0.0372757 0.000291 5.30612 0.209773 8.22954 2650 
44 1 -0.0561263 -0.0217654 0.0382941 0.001058 5.29279 0.202076 7.69468 2650 
223 1 -0.0532175 -0.0215232 0.0422356 0.001058 6.10593 -0.123914 7.65378 2650 
34 1 -0.0482197 -0.030875 0.0480655 0.001058 7.55011 -1.52849e-07 7.57434 2650 
140 1 -0.0471223 -0.0414913 0.0489533 0.001058 7.51496 0.0141394 7.23851 2650 
50 1 -0.0470255 -0.0360006 0.0490454 0.001058 7.41544 -0.128147 7.11077 2650 
285 1 -0.0467151 -0.0286014 0.0493419 0.001058 7.5957 0.428987 7.1913 2650 
277 1 -0.0453978 -0.0551483 0.0515722 0.000291 4.01383 1.10047 3.55664 2650 
185 1 -0.0448459 -0.0487154 0.050279 0.00164 7.9622 -0.106248 7.10205 2650 
240 1 -0.0442958 -0.0387056 0.0525237 0.000291 6.93376 0.451591 5.84464 2650 
42 1 -0.0400863 -0.0545293 0.0548677 0.001058 8.62989 0.0324164 6.30503 2650 
193 1 -0.0385183 -0.0503424 0.0552874 0.00164 8.66107 -0.0346026 6.03287 2650 
81 1 -0.038788 -0.046397 0.0551017 0.00164 8.38814 0.0772789 5.91882 2650 
13 1 -0.0420796 -0.0310175 0.0543221 0.000291 7.91283 0.587487 6.1323 2650 
188 1 -0.0373524 -0.0614979 0.0567602 0.001058 8.97568 -0.0112194 5.90924 2650 
20 1 -0.0360428 -0.0559037 0.0576021 0.001058 9.0602 -0.0358907 5.66813 2650 
172 1 -0.0376243 -0.0544454 0.0565833 0.001058 8.77357 -0.0814739 5.82944 2650 
43 1 -0.0360602 -0.0528506 0.0576004 0.001058 9.02214 -0.113852 5.64778 2650 
162 1 -0.0367346 -0.0494549 0.0571808 0.001058 8.96144 0.0705466 5.75723 2650 
48 1 -0.0353103 -0.0614265 0.0591562 0.000105 9.64475 0.293314 5.75864 2650 
148 1 -0.0340217 -0.0525849 0.0588308 0.001058 9.279 -0.196406 5.36527 2650 
35 1 -0.0324422 -0.0511141 0.0597225 0.001058 9.33632 0.0434519 5.07197 2650 
174 1 -0.0354886 -0.0353305 0.0588321 0.000291 8.54547 0.331857 5.15871 2650 
82 1 -0.0328186 -0.0343575 0.0594922 0.001058 8.89516 -0.0610045 4.90968 2650 
88 1 -0.0368546 -0.0021595 0.0582041 0.000105 6.26582 -0.296074 3.97579 2650 
254 1 -0.0312076 -0.0517571 0.0612278 0.000291 9.11246 0.26704 4.64733 2650 
218 1 -0.02794 -0.049223 0.0619631 0.001058 9.74044 0.00744365 4.39207 2650 
46 1 -0.0298571 -0.0174394 0.0619069 0.000291 7.65162 -0.278836 3.68916 2650 
207 1 -0.030644 -0.0129975 0.0615219 0.000291 7.54463 -0.0667461 3.73441 2650 
15 1 -0.0263639 -0.0176196 0.0634736 0.000291 8.05168 -0.0585653 3.34627 2650 
219 1 -0.0280853 -0.000290998 0.0627062 0.000291 7.50797 -0.00547832 3.36598 2650 
236 1 -0.0213373 -0.0616569 0.0645092 0.001058 10.2858 0.0646439 3.40452 2650 
247 1 -0.023487 -0.0476467 0.0645945 0.000291 10.3089 0.0558174 3.74836 2650 
145 1 -0.00305594 -0.0267711 0.0672924 0.00164 7.65986 0.34382 0.33913 2650 
182 1 -0.0105119 -0.0186205 0.0678866 0.000291 8.42173 -0.00373225 1.28293 2650 
173 1 -0.0122795 -0.00739456 0.0675983 0.000291 9.00621 0.117493 1.62747 2650 
86 1 -0.00221919 -0.048297 0.0686713 0.000291 9.42322 -1.00847 0.302213 2650 
29 1 -0.000487136 -0.0118125 0.0687069 0.000291 5.6735 -0.0723956 0.0692885 2650 
134 1 -0.000991711 0.0063438 -0.0132556 0.000291 -0.0128132 0.00355392 -0.00692922 2650 
157 1 -0.00203998 0.0667789 -0.0138162 0.000291 0.0079085 0.0606548 0.000918149 2650 
74 1 -0.0108276 0.000879958 -0.0114838 0.001058 0.00156258 -0.00569596 -0.00749774 2650 
130 1 -0.00504518 0.00211451 -0.0119144 0.001058 -0.00692202 0.00347734 0.00595777 2650 
80 1 -0.0116433 0.0144742 -0.0115777 0.000105 0.0137546 0.0232676 -0.0199154 2650 
67 1 -0.0100757 0.0169904 -0.0106956 0.001058 -0.0104976 0.0129104 0.0114407 2650 
97 1 -0.00957424 0.00690621 -0.00974113 0.00164 0.0106628 0.00973926 -0.0203866 2650 
205 1 -0.00695713 0.00217081 -0.00662323 0.000291 -0.00881861 0.00364628 0.0236275 2650 
10 1 -0.0136505 0.00791599 -0.00748907 0.001058 0.0053433 0.0061558 -0.0070677 2650 
71 1 -0.000782477 0.00187656 -0.00462985 0.000291 0.000861808 -0.00718564 -0.0173142 2650 
114 1 -0.00448828 0.00892691 -0.00582189 0.001058 0.0187062 0.0117361 -0.00752779 2650 
129 1 -0.000501648 0.00828148 -0.00202437 0.00164 0.00825627 0.00147102 -0.0030875 2650 
234 1 -0.0129326 0.0101475 -0.0030531 0.000291 -0.00131366 0.00431637 0.0126772 2650 
7 1 -0.00382885 0.0288771 -0.00328481 0.000291 0.00378858 0.0136367 -0.000251809 2650 
65 1 -0.0139785 0.0264073 -0.00120157 0.00164 -0.00447342 0.0138222 0.00034274 2650 
209 1 -0.0152082 0.008229 0.00296998 0.001058 0.00584419 -0.0188996 0.0174994 2650 
244 1 -0.015552 0.0116382 0.00267647 0.001058 0.00660951 0.0230683 0.0366896 2650 
115 1 -0.0151601 0.0156364 0.00396968 0.001058 0.00236141 0.0122312 0.0092361 2650 
106 1 -0.00186485 0.0280347 0.00305572 0.001058 0.0119634 0.0223893 -0.0027555 2650 
211 1 -0.0124613 0.00625112 0.00469475 0.001058 0.000982608 0.00314487 0.00709992 2650 
266 1 -0.0142975 0.0113936 0.00484174 0.001058 0.0170435 0.00901701 0.0432948 2650 
198 1 -0.015547 0.0101255 0.00580842 0.000291 -0.020544 -0.0158503 -0.0776663 2650 
256 1 -0.0159426 0.018492 0.00400888 0.000291 0.000881351 0.0216623 0.00465977 2650 
187 1 -0.0152642 0.0244433 0.00442401 0.001058 0.00500069 0.0154788 0.0119088 2650 
220 1 -0.0146124 0.025005 0.0055111 0.000291 0.00991537 0.0130183 0.0124552 2650 
217 1 -0.00933815 0.0423691 0.00659762 0.001058 0.000747792 0.0265619 -0.00553463 2650 
68 1 -0.00142737 0.00693959 0.00881159 0.001058 0.00272783 -0.00342387 -0.00169301 2650 
28 1 -0.010715 0.0530214 0.00860988 0.001058 0.00734507 0.0503926 0.00344867 2650 
242 1 -0.000992722 0.0317424 0.0100807 0.000291 0.0116924 0.0265357 0.00697501 2650 
147 1 -0.0102378 0.0375374 0.0111721 0.001058 0.0275772 0.016189 0.0275411 2650 
124 1 -0.00894248 0.0413569 0.010224 0.001058 0.0225448 0.0380641 0.0162983 2650 
116 1 -0.000976392 0.0506737 0.0110305 0.001058 -0.0278213 0.0454338 0.0115295 2650 
299 1 -0.00693981 0.00212781 0.012534 0.001058 0.00581403 -0.00322581 0.00124072 2650 
4 1 -0.00879896 0.0085502 0.0131515 0.001058 0.0064118 0.000915196 0.00341804 2650 
224 1 -0.00848626 0.0154262 0.012103 0.001058 -0.00111942 0.00491513 -0.00282362 2650 
273 1 -0.00226768 0.0480623 0.0129526 0.001058 0.00511 0.0387776 -0.00978519 2650 
144 1 -0.00550792 0.0208317 0.0158127 0.000105 0.0152864 0.0109644 -0.00695946 2650 
293 1 -0.00352954 0.0414818 0.0153555 0.001058 0.105973 0.0158555 0.0273021 2650 
154 1 -0.0141016 0.118668 -0.00250891 0.001058 -0.025218 0.0914679 0.0181079 2650 
8 1 0.125047 -0.0618935 -0.0865252 0.000105 4.88702 -0.0257061 -9.02798 2650 
103 1 0.0067469 -0.0495351 -0.068357 0.000291 -10.8836 0.353393 -1.0773 2650 
47 1 0.0185137 -0.0153595 -0.0661864 0.000291 -7.27792 -0.365919 -2.0534 2650 
137 1 0.0164785 -0.0611601 -0.0653268 0.00164 -10.261 -8.16694e-07 -2.58831 2650 
226 1 0.0231816 -0.0345945 -0.0646752 0.000291 -10.2716 -0.634147 -3.67942 2650 
184 1 0.0406027 -0.0234293 -0.0556619 0.000105 -6.45094 0.279137 -4.70136 2650 
178 1 0.043287 -0.0564516 -0.0523748 0.001058 -8.22711 0.000334686 -6.79958 2650 
100 1 0.0435166 -0.0153025 -0.0521871 0.001058 -7.16856 0.0883723 -5.98023 2650 
206 1 0.0466523 -0.062509 -0.0504439 0.000291 -7.9102 -1.71185e-06 -7.31528 2650 
25 1 0.0438326 -0.0588002 -0.0511643 0.00164 -8.03679 0.000435601 -6.88515 2650 
169 1 0.0460917 -0.0611601 -0.049141 0.00164 -7.71899 4.48815e-07 -7.24001 2650 
246 1 0.0463791 -0.0585276 -0.0496572 0.001058 -7.80034 -1.67364e-05 -7.28539 2650 
228 1 0.0478833 -0.00473372 -0.0492744 0.000291 -6.58341 0.759025 -6.39565 2650 
270 1 0.0581476 -0.00448165 -0.0365975 0.000291 -3.98954 -0.244321 -6.31782 2650 
255 1 0.062459 -0.0237937 -0.0286387 0.000291 -3.66178 -0.734636 -7.99284 2650 
302 1 0.0647891 -0.020107 -0.0229216 0.000291 -3.02608 -0.263892 -8.55108 2650 
107 1 0.0663126 -0.0441033 -0.0148851 0.001058 -2.39377 -0.130048 -10.6893 2650 
87 1 0.00427258 -0.0022235 -0.0154299 0.000291 -0.0161388 -0.0140939 0.00495742 2650 
37 1 0.006156 -0.00257113 -0.015157 0.000291 0 -0.011755 0 2650 
78 1 0.001258 -0.00258513 -0.012517 0.000291 0 -0.011755 0 2650 
118 1 0.0685804 -0.0185526 -0.00309676 0.000291 -0.370112 0.00678735 -8.89043 2650 
190 1 0.005899 -0.00296913 -0.000534 0.000291 0 -0.011755 0 2650 
158 1 0.0687075 -0.0142285 0.000178916 0.000291 0.0230798 0.353207 -8.01473 2650 
128 1 0.00531479 -0.00347884 0.000752315 0.000105 0.612708 -0.0481972 0.0867296 2650 
192 1 0.0688734 -0.000105035 0.0017263 0.000105 0.213835 -0.00531273 -8.9607 2650 
112 1 0.0100786 -0.0029087 0.00344226 0.000105 -0.0366004 -0.016139 -0.0311832 2650 
271 1 0.014763 -0.00275911 0.00396402 0.001058 -0.00825163 -0.00748357 0.00585912 2650 
79 1 0.0141797 -0.00234809 0.00512077 0.000291 -0.00529203 -0.00866348 0.00968208 2650 
168 1 0.0680262 -0.00224486 0.0108929 0.000105 1.39245 -0.145468 -8.63748 2650 
222 1 0.00651892 -0.000324583 0.0129064 0.001058 -0.0154393 0.00359566 0.0347287 2650 
227 1 0.0671155 -0.0443486 0.0147873 0.000291 2.38819 0.154584 -10.843 2650 
95 1 0.00653639 -0.000120301 0.0152634 0.000291 -0.00125124 -0.00455303 -0.000545416 2650 
152 1 0.0668158 -0.0226224 0.0168214 0.000105 2.06963 -0.0303671 -8.21884 2650 
225 1 0.0654008 -0.0450109 0.0185041 0.001058 2.91411 0.00464607 -10.2982 2650 
39 1 0.0657198 -0.0428441 0.0201086 0.000291 3.00305 0.308086 -9.82563 2650 
90 1 0.0641806 -0.0501367 0.02237 0.001058 3.49192 0.0143834 -10.0182 2650 
171 1 0.0640365 -0.0479928 0.0227946 0.001058 3.62586 0.0526782 -10.1876 2650 
253 1 0.0647802 -0.0201787 0.0229473 0.000291 3.26156 0.212179 -9.20919 2650 
21 1 0.0633858 -0.0462145 0.0265814 0.000291 4.21248 -0.0150992 -10.0439 2650 
125 1 0.0635648 -0.032743 0.0260734 0.000291 3.98211 0.691793 -9.70719 2650 
221 1 0.0606963 -0.028652 0.0321897 0.000291 3.75322 0.0624663 -7.09322 2650 
6 1 0.0518441 -0.00127997 0.0450866 0.000291 5.08852 -0.244557 -5.84055 2650 
257 1 0.0335807 -0.0472405 0.0590959 0.001058 9.21513 -0.0358207 -5.23896 2650 
49 1 0.0305458 -0.0489996 0.0600724 0.00164 9.43588 0.0126878 -4.79786 2650 
59 1 0.0287907 -0.0462506 0.0615732 0.001058 9.64941 -0.00459528 -4.51148 2650 
141 1 0.0332487 -0.0336691 0.0601229 0.000291 8.90564 -0.197446 -4.92492 2650 
267 1 0.0256895 -0.020029 0.063744 0.000291 8.21357 -0.391919 -3.31339 2650 
167 1 0.0289479 -0.0119944 0.0623362 0.000291 8.08453 -0.024217 -3.74586 2650 
16 1 0.0271708 -0.00937563 0.0633241 0.000105 7.96007 0.106289 -3.4204 2650 
179 1 0.0219751 -0.049361 0.0643198 0.001058 10.1601 0.123642 -3.47065 2650 
93 1 0.0198977 -0.0486649 0.065786 0.000291 10.3537 -0.025512 -3.1318 2650 
165 1 0.0222005 -0.0471761 0.0650485 0.000291 10.1578 0.411002 -3.46735 2650 
294 1 0.019565 -0.0248189 0.0650714 0.001058 9.75552 -0.109142 -2.9318 2650 
248 1 0.0232116 -0.0183353 0.0646924 0.000291 9.88162 0.236032 -3.54648 2650 
235 1 0.0205618 -0.0159263 0.0655844 0.000291 7.94118 -0.138467 -2.48696 2650 
252 1 0.0177772 -0.00658195 0.0655838 0.001058 4.97332 -0.159834 -1.35293 2650 
138 1 0.00835774 -0.0509805 0.0674277 0.001058 10.4885 -0.0377274 -1.30067 2650 
146 1 0.00998934 -0.0488801 0.0672164 0.001058 10.5948 -0.0529158 -1.57375 2650 
201 1 0.001708 -0.0360618 0.0673386 0.00164 8.62882 -0.491155 -0.228232 2650 
186 1 0.00663288 -0.0224368 0.0676211 0.001058 3.54535 -0.459458 -0.299595 2650 
296 1 0.0108789 -0.00805426 0.0678472 0.000291 8.01894 -0.182247 -1.29475 2650 
197 1 0.0161263 -0.00299411 0.0667864 0.000291 5.00756 0.163944 -1.25076 2650 
85 1 0.00340822 -0.0180737 0.0686231 0.000291 2.94616 1.7565 -0.162524 2650 
261 1 0.00245702 -0.00718339 0.0686626 0.000291 8.56675 0.291808 -0.302396 2650 
232 1 0.00200288 0.0289667 -0.0148209 0.001058 -0.0291023 0.0299794 -0.00774462 2650 
33 1 0.00118123 0.0253432 -0.0127293 0.00164 0.00603998 0.0215627 0.00352792 2650 
286 1 0.00999094 0.0302751 -0.0122904 0.001058 -0.0184193 0.0490737 -0.0156693 2650 
301 1 0.00514046 0.0386042 -0.0137996 0.001058 -0.0176549 0.0163122 0.00371725 2650 
75 1 0.00542547 0.0670554 -0.0132718 0.001058 0.0240155 0.0510522 0.00788599 2650 
260 1 0.00774245 0.00581558 -0.0105003 0.000291 0.00264513 0.00634623 -0.0220501 2650 
153 1 0.0074527 0.00495114 -0.00856398 0.00164 0.00901504 -0.00371715 -0.0192614 2650 
77 1 0.012175 0.011654 -0.009569 0.000291 -0.0117356 0.000913058 0.0103562 2650 
54 1 0.0143284 0.0329905 -0.00855339 0.000291 -0.0306339 -0.00115888 -0.0366828 2650 
19 1 0.0135213 0.0101937 -0.00698759 0.001058 -0.00189711 0.0050805 -0.00113271 2650 
284 1 0.0127387 0.0121237 -0.00778528 0.000291 -0.00371053 0.00586111 -0.00129449 2650 
292 1 0.00614515 0.0446707 -0.00660517 0.001058 -0.0104367 0.0376087 -0.0291473 2650 
176 1 0.012236 0.000205686 -0.00402315 0.000105 0.0200199 0.000256501 -0.0124767 2650 
195 1 0.0147877 0.00052376 -0.00553218 0.001058 -0.0122984 0.00202165 -0.0283738 2650 
161 1 0.0137117 0.00685335 -0.00411564 0.00164 -0.000454856 0.00568005 -0.00417258 2650 
123 1 0.0138448 0.030831 -0.00537734 0.001058 -0.0069266 0.0381635 -0.00768552 2650 
101 1 0.0104046 0.000622421 -0.0024114 0.000291 0.0107852 -0.0015929 -0.0095042 2650 
113 1 0.0031873 0.00549092 -0.00212511 0.00164 -0.0251958 0.00978061 -0.000134024 2650 
199 1 0.0151899 0.00514416 -0.00370324 0.000291 -0.0066469 0.00203541 -0.00705897 2650 
203 1 0.0094964 0.0200815 -0.0032802 0.001058 0.0105265 0.0334803 0.00411967 2650 
1 1 0.0147008 0.00549279 -0.00109291 0.00164 -0.00396175 0.00352346 -0.00443708 2650 
279 1 0.0101274 0.00619538 -0.00167824 0.001058 0.00690887 -0.00122776 0.0071413 2650 
92 1 0.0121149 0.00737897 -0.000971691 0.001058 0.00298746 0.00292354 0.00546929 2650 
38 1 0.00694935 0.017027 -0.000939089 0.000291 0.0290333 0.00993382 0.0254358 2650 
57 1 0.00580164 0.0259687 -0.00108652 0.00164 -0.000919831 0.00616449 -0.024056 2650 
194 1 0.0132237 0.0281748 -0.000628952 0.001058 -0.00717738 0.0355954 0.00284246 2650 
258 1 0.0135732 0.0310725 -0.000531136 0.001058 -0.00702738 0.0458888 -0.00817646 2650 
249 1 0.00420808 0.0319884 -0.000688349 0.000291 0.00987628 0.0185258 -0.0129358 2650 
51 1 0.00846756 0.00655583 0.00259607 0.001058 -0.0414136 0.0415048 -0.0353246 2650 
9 1 0.0136225 0.0290573 0.00356374 0.00164 -0.00067168 0.0470366 0.00650688 2650 
70 1 0.00399564 0.043144 0.0033412 0.000291 0.000986621 0.0559838 -0.0454673 2650 
52 1 0.0111674 0.0445419 0.00399213 0.001058 0.0258261 0.0380708 0.00407144 2650 
263 1 0.0140016 0.0462033 0.00667444 0.000291 -0.0456471 0.0643068 -0.00143193 2650 
298 1 0.0123348 0.0035018 0.00855771 0.000105 0.00377194 -0.00442838 -0.00799766 2650 
156 1 0.0114832 0.00865227 0.00872136 0.001058 0.0107441 -0.0117541 0.0077951 2650 
139 1 0.0117494 0.0235508 0.00830019 0.001058 -0.0138539 0.00679752 0.0124887 2650 
238 1 0.0107751 0.0438538 0.00849968 0.001058 0.0185997 0.0286204 -0.0105297 2650 
17 1 0.0122869 0.0463458 0.00899052 0.00164 0.0262036 0.0387213 -0.0293135 2650 
66 1 0.0106339 0.00809031 0.0111234 0.001058 0.00274751 -0.000835425 -0.00507484 2650 
265 1 0.0102821 0.0113064 0.0114411 0.001058 0.011667 0.00657701 -0.00499144 2650 
105 1 0.00865358 0.0169969 0.0107672 0.00164 0.000597876 0.0137471 0.023702 2650 
41 1 0.00142136 0.0192269 0.0133904 0.00164 0.0102042 0.00860529 0.0210319 2650 
127 1 0.0124837 0.0766607 -0.00825219 0.000291 0.0147798 0.0618117 0.0201086 2650 
245 1 0.00715677 0.0871814 -0.00875334 0.001058 0.013355 0.0538623 -0.0223836 2650 
