ITEM: TIMESTEP
12718335
ITEM: NUMBER OF ATOMS
282
ITEM: BOX BOUNDS ff ff ff
-0.15 0.15
-0.15 0.15
-0.15 0.15
ITEM: ATOMS id type x y z radius vx vy vz density 
109 1 -0.0190737 -0.0561888 -0.0660081 0.000291 -10.4758 -0.146771 3.02743 2650 
264 1 -0.0147936 -0.0490517 -0.0663342 0.001058 -10.432 0.000314895 2.3268 2650 
165 1 -0.0112224 -0.0408799 -0.0677918 0.000291 -9.2096 -0.792017 1.51262 2650 
158 1 -0.0162871 -0.0128458 -0.0667681 0.000291 -7.36303 0.397715 1.79289 2650 
200 1 -0.0187866 -0.00701245 -0.0662882 0.000105 -7.34693 -0.543093 2.08873 2650 
215 1 -0.0190605 -0.0504377 -0.0652378 0.001058 -10.2731 -0.0819006 3.00198 2650 
282 1 -0.0222521 -0.0219275 -0.065016 0.000291 -8.79244 -0.12888 3.00853 2650 
83 1 -0.0278331 -0.0436226 -0.0620081 0.001058 -9.87179 -0.0598195 4.4309 2650 
228 1 -0.028308 -0.0197033 -0.0626252 0.000291 -6.53941 -0.0200598 2.94964 2650 
29 1 -0.0316328 -0.0160637 -0.0610193 0.000291 -8.23552 0.216659 4.28119 2650 
290 1 -0.0432264 -0.044239 -0.0534099 0.000291 -8.70586 -0.110043 7.04764 2650 
168 1 -0.0465291 -0.0106226 -0.050701 0.000105 -4.57957 -0.0301515 4.33205 2650 
219 1 -0.0539039 -0.000291226 -0.0426049 0.000291 -5.1589 0.00289617 6.53376 2650 
191 1 -0.054429 -0.0500749 -0.0419182 0.000291 -6.64376 -0.102481 8.62276 2650 
274 1 -0.0571517 -0.0624407 -0.0381585 0.000291 -6.00021 0.043684 8.98645 2650 
73 1 -0.0555021 -0.0539164 -0.0381983 0.00164 -6.02144 0.0367447 8.75233 2650 
89 1 -0.0559424 -0.0610666 -0.037544 0.00164 -5.88261 0.0389203 8.76757 2650 
281 1 -0.0579288 -0.056895 -0.036945 0.000291 -5.80096 0.00983121 9.09572 2650 
221 1 -0.0599459 -0.0213165 -0.0335998 0.000291 -4.31826 -0.149943 7.6798 2650 
241 1 -0.0613038 -0.0399634 -0.031048 0.000291 -3.78929 -0.609976 7.4798 2650 
230 1 -0.0611813 -0.0505052 -0.0296015 0.001058 -4.61816 0.0480051 9.5402 2650 
121 1 -0.0606228 -0.0464521 -0.0294446 0.00164 -4.62256 -0.0270259 9.51774 2650 
239 1 -0.0623308 -0.0488897 -0.0271074 0.001058 -4.28856 0.0176506 9.86102 2650 
243 1 -0.0624698 -0.0466659 -0.0267957 0.001058 -4.23687 0.0388212 9.87727 2650 
288 1 -0.0629533 -0.0432299 -0.0275806 0.000291 -4.40825 -0.094815 10.0583 2650 
126 1 -0.063421 -0.0268515 -0.0264208 0.000291 -4.13391 1.94135 9.93987 2650 
141 1 -0.0644636 -0.0336297 -0.0237642 0.000291 -3.33901 0.0869811 9.03775 2650 
270 1 -0.0664436 -0.0115348 -0.0175644 0.000291 -2.12645 -0.0335331 8.0174 2650 
277 1 -0.066986 -0.018399 -0.0153619 0.000291 -2.12671 0.0269692 9.27289 2650 
184 1 -0.0675769 -0.0236509 -0.0134196 0.000105 -1.44113 -0.251342 7.2373 2650 
86 1 -0.0674474 -0.0161551 -0.0131761 0.000291 -1.61677 -0.107695 8.2631 2650 
135 1 -0.00862392 -0.000937541 -0.0126781 0.000291 -0.0060505 -0.00140209 -0.0140303 2650 
208 1 -0.0670529 -0.0182335 -0.0110554 0.001058 -1.38829 -0.179688 8.3437 2650 
175 1 -0.013247 -0.00276558 -0.008751 0.000291 0 -0.011755 0 2650 
47 1 -0.0131804 -0.00220498 -0.0089666 0.000291 -0.00125586 -0.0105028 0.00427205 2650 
131 1 -0.0676856 -0.0463554 -0.00597947 0.001058 -0.94348 0.234132 10.6855 2650 
14 1 -0.0685903 -0.0405387 -0.00401716 0.000291 -0.642708 -0.742964 10.9618 2650 
98 1 -0.0678274 -0.0165825 -0.00398112 0.001058 -0.485443 -0.0871568 8.65152 2650 
240 1 -0.010392 -0.00216358 -0.005262 0.000291 0 -0.011755 0 2650 
276 1 -0.013674 -0.00122158 -0.004231 0.000291 0 -0.011755 0 2650 
142 1 -0.0686483 -0.0211797 -0.00283923 0.000291 -0.365669 -0.80604 8.71125 2650 
13 1 -0.014201 -0.00212158 -0.003882 0.000291 0 -0.011755 0 2650 
104 1 -0.014089 -0.00143958 -0.003012 0.000105 0 -0.011755 0 2650 
196 1 -0.0679485 -0.0332692 -0.000230415 0.001058 -0.0308682 0.179058 10.3341 2650 
177 1 -0.000154416 -0.00302203 -0.000333482 0.00164 -0.00966503 -0.00602483 0.00423439 2650 
120 1 -0.016055 -0.00286958 0.000189 0.000105 0 -0.011755 0 2650 
261 1 -0.0686495 -0.0121146 0.00282177 0.000291 0.367735 -0.309824 8.60347 2650 
213 1 -0.0686001 -0.00801059 0.00382615 0.000291 0.461722 0.0628988 8.36692 2650 
167 1 -0.0686752 -0.00501463 0.00209584 0.000291 0.254765 0.555886 8.0121 2650 
174 1 -0.06851 -0.0353508 0.00520321 0.000291 0.710448 0.802437 9.34818 2650 
255 1 -0.0684617 -0.015703 0.00584109 0.000291 0.764441 0.00197151 8.72468 2650 
58 1 -0.00678879 -0.00245674 0.00597785 0.001058 0.00939797 -0.00814862 -0.00719036 2650 
164 1 -0.003894 -0.00249658 0.005467 0.001058 0 -0.011755 0 2650 
36 1 -0.0675706 -0.0396643 0.00716463 0.001058 1.10128 -0.0122831 10.3913 2650 
192 1 -0.0685456 -0.000105119 0.00691321 0.000105 0.866745 0.00496945 8.51005 2650 
186 1 -0.00619972 -7.0405e-05 0.0065784 0.001058 -4.15282e-05 -0.0115536 6.1062e-05 2650 
300 1 -0.0128216 -0.000577304 0.00922991 0.001058 -0.00246489 -0.00748443 -0.0047401 2650 
64 1 -0.0680195 -0.0126289 0.0110086 0.000105 1.25802 -0.502718 7.81903 2650 
302 1 -0.0675437 -0.0243024 0.0126107 0.000291 1.48352 0.274805 7.96048 2650 
223 1 -0.0668051 -0.0204645 0.0124596 0.001058 1.58986 0.520197 8.73034 2650 
235 1 -0.0671426 -0.00947087 0.0146251 0.000291 1.74886 0.0723593 8.05334 2650 
16 1 -0.0666781 -0.00615281 0.0173392 0.000105 2.07667 -0.19621 8.01221 2650 
26 1 -0.0651071 -0.0396942 0.0194692 0.001058 3.10533 -0.0114698 10.3899 2650 
2 1 -0.0627374 -0.0330503 0.0260814 0.001058 3.84697 -0.0327603 9.25264 2650 
197 1 -0.0627263 -0.00461335 0.0280337 0.000291 3.52679 0.0166808 7.8711 2650 
96 1 -0.060618 -0.00675204 0.0327476 0.000105 4.01955 0.199431 7.47532 2650 
6 1 -0.059473 -0.0182381 0.0344386 0.000291 4.2893 -0.505081 7.44997 2650 
44 1 -0.0562518 -0.0170336 0.0381245 0.001058 5.22278 -0.0543772 7.71473 2650 
295 1 -0.0544654 -0.0425709 0.0418438 0.000291 5.75016 -0.06231 7.48873 2650 
267 1 -0.0478655 -0.00771691 0.0492928 0.000291 4.03354 0.0996523 3.89826 2650 
119 1 -0.046302 -0.0560656 0.0507626 0.000291 8.12719 0.297413 7.41254 2650 
42 1 -0.0377481 -0.0533994 0.0565033 0.001058 8.7936 -0.0846305 5.87808 2650 
193 1 -0.0374247 -0.0493116 0.0560403 0.00164 8.79784 0.0273434 5.87545 2650 
185 1 -0.0357705 -0.0460367 0.0571151 0.00164 8.98957 0.0587329 5.63156 2650 
206 1 -0.0381017 -0.0182938 0.0571935 0.000291 8.76376 0.303504 5.83892 2650 
148 1 -0.0353331 -0.0487368 0.058059 0.001058 9.07769 0.0384714 5.52552 2650 
20 1 -0.0300321 -0.0470218 0.0609784 0.001058 9.60453 -0.011307 4.73081 2650 
218 1 -0.0295585 -0.043699 0.0612064 0.001058 9.79058 -0.123872 4.72809 2650 
188 1 -0.0268066 -0.061616 0.0624365 0.001058 9.81068 -0.00503794 4.21216 2650 
182 1 -0.0273541 -0.00773878 0.0630368 0.000291 6.78156 -0.243908 2.95077 2650 
229 1 -0.0190102 -0.047647 0.0652561 0.001058 10.3813 0.0420874 3.02409 2650 
108 1 -0.00634345 -0.0337254 0.0676486 0.001058 9.77607 -0.19761 0.903117 2650 
50 1 -0.00833359 -0.0314676 0.0674343 0.001058 9.75163 -0.0195056 1.256 2650 
53 1 -0.00160323 -0.0309631 0.0679 0.000291 8.70678 -0.605899 -0.497392 2650 
226 1 -0.000509914 -0.0275713 0.0687073 0.000291 7.83758 0.352217 0.0773606 2650 
296 1 -0.00694573 -0.00860671 0.0683489 0.000291 5.40297 0.0607076 0.528255 2650 
205 1 -0.00455194 0.00100169 -0.0142028 0.000291 0.00945843 0.00374827 0.0244543 2650 
67 1 -0.00671654 0.0128591 -0.0143566 0.001058 -0.0104976 0.0129104 0.0114407 2650 
157 1 -0.00457067 0.0473696 -0.01411 0.000291 0.0079085 0.0606548 0.000918149 2650 
75 1 -0.00222257 0.0506679 -0.0154355 0.001058 0.0206685 0.0556886 -0.0248334 2650 
130 1 -0.0028215 0.00100183 -0.0138205 0.001058 -0.00730232 0.00347522 0.00594057 2650 
33 1 -0.000751537 0.0184432 -0.0138582 0.00164 0.00603998 0.0215627 0.00352792 2650 
293 1 -0.009781 0.0336451 -0.012439 0.001058 -0.0884763 0.0379903 0.0661001 2650 
94 1 -0.0115406 0.00167919 -0.0118396 0.000291 8.5498e-05 -0.0117385 8.5498e-05 2650 
74 1 -0.0113276 0.00270264 -0.00908452 0.001058 0.00156258 -0.00569596 -0.00749774 2650 
38 1 -0.00234117 0.0138482 -0.00907843 0.000291 0.0290333 0.00993382 0.0254358 2650 
234 1 -0.0125123 0.00876631 -0.00710975 0.000291 -0.00131366 0.00431637 0.0126772 2650 
263 1 -0.00838183 0.020022 -0.00680319 0.000291 0.0807781 0.0834583 0.0461979 2650 
159 1 -0.012707 0.00177242 -0.00588 0.000291 0 -0.011755 0 2650 
80 1 -0.0158241 0.0070056 -0.00510421 0.000105 -0.00457687 0.0251897 -0.0282816 2650 
10 1 -0.0143019 0.00604937 -0.0049002 0.001058 0.00366734 -0.00257496 -0.00408264 2650 
97 1 -0.0129272 0.00370564 -0.00316252 0.00164 0.00874168 0.0124725 -0.0221748 2650 
114 1 -0.0104742 0.0051714 -0.00341303 0.001058 0.0187062 0.0117361 -0.00752779 2650 
7 1 -0.00504118 0.0245134 -0.00320423 0.000291 0.00378858 0.0136367 -0.000251809 2650 
147 1 -0.0156542 0.0307823 -0.00240313 0.001058 -0.0140684 0.029094 0.0571716 2650 
61 1 -0.016439 0.00149042 -0.001038 0.000291 0 -0.011755 0 2650 
129 1 -0.00314362 0.00781076 -0.00103639 0.00164 0.00825627 0.00147102 -0.0030875 2650 
65 1 -0.012547 0.0219843 -0.00131124 0.00164 -0.00447342 0.0138222 0.00034274 2650 
268 1 -0.011054 0.000352417 0.000789 0.000291 0 -0.011755 0 2650 
71 1 -0.00105825 0.00417593 0.000910616 0.000291 0.000861808 -0.00718564 -0.0173142 2650 
209 1 -0.0152815 0.00831622 0.0018641 0.001058 -0.0032116 0.00264672 0.00158384 2650 
115 1 -0.0156887 0.0119425 0.000750709 0.001058 -9.57324e-05 0.0046985 0.0169075 2650 
187 1 -0.0157167 0.0193303 0.000144069 0.001058 -0.000280938 0.0161775 0.0137442 2650 
211 1 -0.0127758 0.00524477 0.00242281 0.001058 0.000982608 0.00314487 0.00709992 2650 
256 1 -0.0162966 0.0116327 0.00267612 0.000291 0.00184238 0.020694 0.00254716 2650 
266 1 -0.0155474 0.0102422 0.00291679 0.001058 0.000769948 0.0100988 -0.00524247 2650 
220 1 -0.0152815 0.0216841 0.00249325 0.000291 -0.00743392 0.0110018 0.0132466 2650 
106 1 -0.00569309 0.0208702 0.00393747 0.001058 0.0119634 0.0223893 -0.0027555 2650 
237 1 -0.0159727 0.0741936 0.00384761 0.001058 -0.00654936 0.22686 0.0745762 2650 
291 1 -0.008194 0.00187742 0.004767 0.000291 0 -0.011755 0 2650 
144 1 -0.00815663 0.0164786 0.00710639 0.000105 0.00807853 0.0136784 0.0281765 2650 
41 1 -0.00184393 0.0164733 0.0066603 0.00164 0.0102042 0.00860529 0.0210319 2650 
242 1 -0.00473424 0.0232511 0.00784878 0.000291 0.0116924 0.0265357 0.00697501 2650 
124 1 -0.0133324 0.0297675 0.00696808 0.001058 0.00450723 0.0342902 0.00378394 2650 
28 1 -0.0130654 0.036896 0.00750632 0.001058 0.00734507 0.0503926 0.00344867 2650 
304 1 -0.012709 0.00115842 0.009818 0.000291 0 -0.011755 0 2650 
68 1 -0.00230026 0.00803521 0.00935334 0.001058 0.00272783 -0.00342387 -0.00169301 2650 
217 1 -0.00957744 0.0338694 0.00836868 0.001058 0.000747792 0.0265619 -0.00553463 2650 
55 1 -0.01171 0.00162642 0.01034 0.000291 0 -0.011755 0 2650 
4 1 -0.0106478 0.00824097 0.0116139 0.001058 0.00569435 0.00097307 0.00498712 2650 
250 1 -0.00888056 0.00108111 0.0126147 0.001058 0.0256429 -0.00394298 0.00852814 2650 
170 1 -0.00668282 0.00112235 0.0125724 0.001058 0.00813908 -0.00598064 0.0087017 2650 
299 1 -0.00880028 0.00316005 0.012137 0.001058 0.00581403 -0.00322581 0.00124072 2650 
224 1 -0.00812805 0.0138534 0.0130065 0.001058 -0.00111942 0.00491513 -0.00282362 2650 
110 1 -0.000875963 0.000370891 0.0150662 0.000291 -0.0169259 -0.0135844 0.0488079 2650 
273 1 -0.00337857 0.03536 0.0142446 0.001058 -0.00419695 0.043991 0.0228631 2650 
154 1 -0.00603198 0.0893986 -0.00830335 0.001058 -0.025218 0.0914679 0.0181079 2650 
39 1 0.000771759 -0.0411934 -0.0687004 0.000291 -10.806 -0.583408 -0.117382 2650 
88 1 0.00220805 -0.0240653 -0.0688408 0.000105 -7.53491 -0.394705 -0.180919 2650 
15 1 0.00715304 -0.0179972 -0.0683173 0.000291 -8.72455 0.159835 -0.888976 2650 
289 1 0.00595325 -0.0154572 -0.068443 0.000291 -9.23308 -0.160625 -0.768589 2650 
84 1 0.000680644 -0.0493439 -0.0679416 0.001058 -10.3712 0.0406796 -0.0982469 2650 
272 1 0.00350316 -0.0357577 -0.0678443 0.001058 -9.25415 -0.222874 -0.478998 2650 
207 1 0.0156199 -0.00994844 -0.0669208 0.000291 -6.58486 -0.276339 -1.5529 2650 
137 1 0.0164371 -0.0611601 -0.0653371 0.00164 -10.2646 4.01223e-06 -2.58233 2650 
201 1 0.0155821 -0.0300339 -0.0655449 0.00164 -8.87092 -0.0783144 -2.10855 2650 
82 1 0.0203879 -0.0314072 -0.0648155 0.001058 -8.82249 0.0527034 -2.82233 2650 
253 1 0.0244571 -0.0148138 -0.0642333 0.000291 -3.33751 -0.385874 -1.27855 2650 
305 1 0.0215408 -0.0105139 -0.0654559 0.000105 -8.4612 -0.940546 -2.80364 2650 
22 1 0.0221333 -0.00876998 -0.0650574 0.000291 -7.56352 0.0811914 -2.5433 2650 
204 1 0.0268216 -0.0271267 -0.0624252 0.001058 -8.11625 -0.410065 -3.49034 2650 
40 1 0.0326673 -0.00905827 -0.06067 0.000105 -6.75677 0.304871 -3.64541 2650 
178 1 0.0354021 -0.0575962 -0.0579936 0.001058 -8.81889 -0.0371647 -5.39631 2650 
162 1 0.0378484 -0.0316294 -0.056429 0.001058 -7.71385 -0.0837479 -5.17635 2650 
76 1 0.0360064 -0.0258326 -0.0576227 0.001058 -7.33236 -0.10507 -4.58482 2650 
280 1 0.042184 -0.025357 -0.0532626 0.001058 -6.75928 -0.0717053 -5.29668 2650 
85 1 0.0442812 -0.0154489 -0.0525378 0.000291 -5.28456 0.523801 -4.44947 2650 
25 1 0.0435782 -0.0583561 -0.0513783 0.00164 -8.13301 0.0728586 -6.89325 2650 
169 1 0.0467178 -0.0611151 -0.0485384 0.00164 -7.67257 0.0257962 -7.38747 2650 
103 1 0.0482047 -0.0580504 -0.0489622 0.000291 -7.79657 -0.373485 -7.6749 2650 
257 1 0.0472055 -0.0502907 -0.0488725 0.001058 -7.21636 0.0152881 -6.93502 2650 
246 1 0.0481544 -0.057083 -0.0479379 0.001058 -7.72598 -0.235664 -7.76034 2650 
81 1 0.0573807 -0.0396971 -0.0353115 0.00164 -4.42389 -0.0112675 -7.13699 2650 
269 1 0.0652602 -0.00449905 -0.0214852 0.000291 -1.39783 0.045906 -4.33024 2650 
18 1 0.0656165 -0.0170874 -0.017721 0.001058 -2.19489 -0.0125525 -8.07383 2650 
132 1 0.0667306 -0.0173444 -0.0128605 0.001058 -1.60217 -0.0205616 -8.20859 2650 
252 1 0.00245 -0.000438583 -0.01336 0.001058 0 -0.011755 0 2650 
133 1 0.0677695 -0.0227941 -0.0112523 0.000291 -1.3001 -0.410878 -7.65662 2650 
102 1 0.0679526 -0.0155604 -0.0101546 0.000291 -1.19328 0.258168 -8.1761 2650 
275 1 0.012705 -0.00107658 -0.010476 0.000291 0 -0.011755 0 2650 
150 1 0.0679952 -0.0265968 -0.00982515 0.000291 -1.25419 0.0105269 -8.72605 2650 
125 1 0.068315 -0.0212342 -0.00690795 0.000291 -0.938627 -0.0766775 -8.51111 2650 
60 1 0.007579 -0.00250758 -0.006312 0.001058 0 -0.011755 0 2650 
45 1 0.010575 -0.00258758 -0.007722 0.000291 0 -0.011755 0 2650 
151 1 0.0686113 -0.0363831 -0.00363213 0.000291 -0.591363 1.90446 -11.0848 2650 
227 1 0.00944 -0.00190958 -0.002109 0.000291 0 -0.011755 0 2650 
35 1 0.0048191 -0.00343782 0.00120845 0.001058 0.515356 -0.0423586 0.120916 2650 
287 1 0.0130838 -0.00309769 0.000475241 0.001058 0.00844674 -0.013594 -0.029996 2650 
202 1 0.00586181 -0.00104783 0.000625042 0.001058 0.0093109 -0.00893593 -0.0136131 2650 
48 1 0.009671 -0.00131558 0.000233 0.000105 0 -0.011755 0 2650 
99 1 0.00454394 -0.00148 0.00381596 0.001058 0.0243572 -0.0114204 0.00238608 2650 
294 1 0.006997 -0.00160158 0.003581 0.001058 0 -0.011755 0 2650 
212 1 0.001087 -0.00109158 0.005915 0.000291 0 -0.011755 0 2650 
24 1 0.005464 -0.00151958 0.005551 0.000105 0 -0.011755 0 2650 
51 1 0.009662 -0.000446583 0.004577 0.001058 0 -0.011755 0 2650 
231 1 0.00738105 -0.00251797 0.00702648 0.001058 0.00167534 -0.0128877 -0.000760445 2650 
100 1 0.0111434 -0.00321526 0.00693487 0.001058 0.00912399 -0.0117578 -0.00681185 2650 
145 1 0.00510592 -0.000622135 0.00725128 0.00164 0.00142123 -0.0121074 -0.00172265 2650 
107 1 0.0667746 -0.0364075 0.012576 0.001058 1.89824 -0.000764798 -10.0686 2650 
3 1 0.00843772 -0.0028273 0.0127334 0.001058 -0.00211489 -0.0052299 0.000123346 2650 
34 1 0.066435 -0.0311066 0.0143052 0.001058 2.13543 -0.0662086 -9.92707 2650 
171 1 0.064881 -0.0462212 0.0202572 0.001058 2.95219 0.0430199 -9.50185 2650 
225 1 0.0626963 -0.0442129 0.0262541 0.001058 4.25147 -0.0573828 -10.1532 2650 
90 1 0.0600713 -0.0505603 0.0317899 0.001058 4.99214 0.0601543 -9.43338 2650 
21 1 0.061168 -0.0444808 0.0313443 0.000291 5.03957 -0.0591997 -9.83443 2650 
43 1 0.0607716 -0.0425967 0.0304373 0.001058 4.77466 -0.114208 -9.53219 2650 
149 1 0.0616454 -0.0308554 0.0303934 0.000291 4.35894 0.207294 -8.73098 2650 
254 1 0.0590157 -0.0586773 0.0351769 0.000291 5.04434 -0.128398 -8.44173 2650 
210 1 0.0578762 -0.0293944 0.0355927 0.001058 4.63149 -0.0953146 -7.47 2650 
117 1 0.0590087 -0.0101346 0.0352206 0.000291 3.08805 0.136364 -5.12077 2650 
189 1 0.0576215 -0.0361395 0.0374179 0.000291 4.7856 -0.277563 -7.38607 2650 
303 1 0.0535027 -0.0213378 0.0430697 0.000291 3.70234 -0.21395 -4.86115 2650 
173 1 0.052479 -0.00712803 0.0443383 0.000291 3.97994 -0.106095 -4.59728 2650 
8 1 0.0500451 -0.0466782 0.0472955 0.000105 7.33447 0.152716 -7.75793 2650 
259 1 0.0487067 -0.0311484 0.0473763 0.001058 7.00217 0.0866898 -7.24364 2650 
30 1 0.0501345 -0.0277031 0.0469611 0.000291 6.9586 0.20109 -7.43232 2650 
146 1 0.0466214 -0.0516033 0.0494292 0.001058 7.91396 -0.0523929 -7.46396 2650 
247 1 0.0479801 -0.0509162 0.0491813 0.000291 7.87091 -0.00496455 -7.67798 2650 
59 1 0.0474446 -0.0460544 0.0486387 0.001058 7.10774 -0.310842 -6.87018 2650 
285 1 0.0442596 -0.0195216 0.0515509 0.001058 2.93712 -0.254281 -2.53039 2650 
179 1 0.0428344 -0.0495228 0.0527495 0.001058 8.2438 -0.000250065 -6.69393 2650 
214 1 0.0435476 -0.0508945 0.0531473 0.000291 8.39651 -0.0695271 -6.88038 2650 
181 1 0.0379161 -0.0478429 0.0573189 0.000291 9.37203 -0.416614 -6.19764 2650 
93 1 0.0380047 -0.0485982 0.0572589 0.000291 9.10705 0.013484 -6.04411 2650 
172 1 0.0385497 -0.0463232 0.0559699 0.001058 8.79948 0.0343256 -6.06063 2650 
248 1 0.0356284 -0.0318465 0.0587478 0.000291 5.73351 0.679072 -3.4846 2650 
138 1 0.0303235 -0.0507836 0.0608277 0.001058 9.56052 0.069566 -4.76603 2650 
49 1 0.0302544 -0.0468301 0.060226 0.00164 9.43421 -0.101 -4.73906 2650 
118 1 0.0297998 -0.0189424 0.0619308 0.000291 7.31889 0.0111238 -3.54384 2650 
140 1 0.024351 -0.0365157 0.0634333 0.001058 9.64778 -0.144091 -3.70134 2650 
251 1 0.0250083 -0.0253815 0.0631767 0.001058 8.71625 -0.0309464 -3.41654 2650 
122 1 0.0174433 -0.0244449 0.065673 0.001058 8.92586 0.00575314 -2.3668 2650 
152 1 0.0226894 -0.016503 0.0650768 0.000105 7.6545 -0.621258 -2.65786 2650 
46 1 0.0206819 -0.000748866 0.0655198 0.000291 6.35903 0.0825301 -2.02264 2650 
236 1 0.00881748 -0.0506206 0.067371 0.001058 10.5858 0.0600276 -1.38597 2650 
23 1 0.00129022 -0.0405302 0.0686758 0.000291 10.4153 -0.0665528 -0.185253 2650 
37 1 0.006156 0.00119042 -0.015157 0.000291 0 -0.011755 0 2650 
244 1 0.00159967 0.00527664 -0.015709 0.001058 -0.100578 0.0252153 -0.00424818 2650 
127 1 0.00775419 0.0568812 -0.0146869 0.000291 0.0147798 0.0618117 0.0201086 2650 
78 1 0.001258 0.00117642 -0.012517 0.000291 0 -0.011755 0 2650 
134 1 0.00310845 0.00520656 -0.0110383 0.000291 -0.0128132 0.00355392 -0.00692922 2650 
232 1 0.0105721 0.0192253 -0.0108127 0.001058 -0.0167248 0.0324446 -0.0332171 2650 
87 1 0.00609928 0.0031764 -0.0096053 0.000291 -0.00318762 -0.017547 -0.0237996 2650 
260 1 0.00866856 0.00438745 -0.00818759 0.000291 -0.00392275 0.00411325 -0.00447499 2650 
301 1 0.00668452 0.0322213 -0.0083957 0.001058 0.00272587 0.0220862 -0.0290146 2650 
19 1 0.0141284 0.00856798 -0.00662513 0.001058 -0.00189711 0.0050805 -0.00113271 2650 
77 1 0.00637838 0.0111529 -0.0063448 0.000291 0.0279429 0.00178097 -0.016803 2650 
284 1 0.013926 0.0102482 -0.00737104 0.000291 -0.00371053 0.00586111 -0.00129449 2650 
278 1 7.4e-05 3.41725e-06 -0.004448 0.001058 0 -0.011755 0 2650 
203 1 0.00612798 0.00936791 -0.00459848 0.001058 0.0105265 0.0334803 0.00411967 2650 
286 1 0.0146006 0.0143638 -0.00594181 0.001058 -0.0100351 0.050326 -0.0237317 2650 
113 1 0.0112498 0.00236117 -0.00208222 0.00164 -0.0251958 0.00978061 -0.000134024 2650 
161 1 0.0137711 0.00514252 -0.00325589 0.00164 0.000907452 0.00399164 0.00334652 2650 
153 1 0.00455802 0.00613725 -0.00237392 0.00164 0.00905173 -0.00370467 -0.0193596 2650 
279 1 0.00791658 0.00658826 -0.00396342 0.001058 0.00690887 -0.00122776 0.0071413 2650 
92 1 0.0111589 0.00644345 -0.00272184 0.001058 0.00298746 0.00292354 0.00546929 2650 
123 1 0.0147246 0.0184351 -0.00272328 0.001058 0.0119273 0.0407543 -0.0104321 2650 
190 1 0.005899 0.000792417 -0.000534 0.000291 0 -0.011755 0 2650 
176 1 0.0058297 0.000123607 -3.06507e-05 0.000105 0.0200199 0.000256501 -0.0124767 2650 
199 1 0.0157409 0.00458584 -0.00188641 0.000291 -0.00149126 0.000541054 0.0056379 2650 
194 1 0.0155204 0.0167845 -0.00153853 0.001058 -0.00717738 0.0355954 0.00284246 2650 
245 1 0.00288322 0.0699457 -0.00159067 0.001058 0.013355 0.0538623 -0.0223836 2650 
128 1 0.00361 0.000391417 0.000511 0.000105 0 -0.011755 0 2650 
101 1 0.00695343 0.00113214 0.000629902 0.000291 0.0107852 -0.0015929 -0.0095042 2650 
271 1 0.0121657 0.000289186 0.00107064 0.001058 0.0150184 -0.010407 0.010297 2650 
1 1 0.0142418 0.00417868 0.000779878 0.00164 0.00550181 0.00569205 -0.0118839 2650 
9 1 0.0138374 0.0140058 0.00148156 0.00164 -0.00067168 0.0470366 0.00650688 2650 
180 1 0.0157844 0.0500306 0.000832851 0.001058 -0.0108614 0.0610072 0.0547024 2650 
105 1 0.00844437 0.0127728 0.00291294 0.00164 0.00091231 0.0106728 0.0284417 2650 
258 1 0.0154775 0.0163393 0.00205434 0.001058 0.0173177 0.0493518 -0.00598843 2650 
139 1 0.0138099 0.0212246 0.00336248 0.001058 0.0127696 0.00849352 0.0230521 2650 
249 1 0.00104771 0.0260603 0.00345105 0.000291 0.00987628 0.0185258 -0.0129358 2650 
52 1 0.00290319 0.0323594 0.00268929 0.001058 0.0258261 0.0380708 0.00407144 2650 
292 1 0.00948484 0.0326361 0.00272184 0.001058 -0.0104367 0.0376087 -0.0291473 2650 
195 1 0.0151504 0.000385725 0.0042407 0.001058 0.00741724 -0.000789799 -0.0304536 2650 
79 1 0.014214 0.00139342 0.005058 0.000291 0 -0.011755 0 2650 
222 1 0.009219 0.000752417 0.006833 0.001058 0 -0.011755 0 2650 
112 1 0.013668 0.00171642 0.007002 0.000105 0 -0.011755 0 2650 
156 1 0.0081118 0.011762 0.00723141 0.001058 0.00957299 -0.000303602 -0.00985815 2650 
57 1 0.00609598 0.0239961 0.0066113 0.00164 -0.000919831 0.00616449 -0.024056 2650 
54 1 0.0147572 0.0327351 0.00681827 0.000291 0.0125428 0.00255638 -0.0492536 2650 
116 1 0.00792632 0.0361351 0.00734108 0.001058 -0.0278213 0.0454338 0.0115295 2650 
298 1 0.0111277 0.00491887 0.0111169 0.000105 0.00377194 -0.00442838 -0.00799766 2650 
238 1 0.00423296 0.0336395 0.0110026 0.001058 0.0207771 0.0325148 -0.00733364 2650 
265 1 0.00654875 0.00920177 0.0130383 0.001058 0.011667 0.00657701 -0.00499144 2650 
66 1 0.0094471 0.00835354 0.012387 0.001058 0.00846641 -0.000759158 0.00162513 2650 
70 1 0.00310954 0.0245465 0.0130758 0.000291 0.0174831 0.0757361 0.0937803 2650 
95 1 0.006676 0.00145648 0.0146264 0.000291 -0.000366951 -0.00495937 0.00220646 2650 
198 1 0.00607734 0.0130434 0.0154908 0.000291 -0.0811964 -0.00254256 0.0210003 2650 
17 1 0.00122227 0.0336489 0.0152004 0.00164 0.0425829 0.0413566 -0.00603146 2650 
155 1 0.0143353 0.11313 -0.01138 0.001058 0.850664 0.173834 -0.642783 2650 
136 1 0.0147621 0.114424 0.00683354 0.000105 0.0375902 0.10168 0.0199891 2650 
