ITEM: TIMESTEP
7038248
ITEM: NUMBER OF ATOMS
299
ITEM: BOX BOUNDS ff ff ff
-0.15 0.15
-0.15 0.15
-0.15 0.15
ITEM: ATOMS id type x y z radius vx vy vz density 
30 1 -0.000556158 -0.0376752 -0.0687053 0.000291 -8.73538 -0.348525 0.0337485 2650 
56 1 -0.010473 -0.0149493 -0.0681031 0.000105 -4.05515 0.291944 0.631979 2650 
173 1 -0.00699681 -0.0123909 -0.0683535 0.000291 -4.32449 -0.0605266 0.464515 2650 
281 1 -0.015831 -0.0395831 -0.0668626 0.000291 -8.74182 -0.198591 2.06512 2650 
69 1 -0.0161714 -0.0311163 -0.0667835 0.000291 -8.71346 -0.657316 2.17252 2650 
121 1 -0.00906774 -0.0315589 -0.0667585 0.00164 -9.03522 0.0263415 1.28621 2650 
107 1 -0.000172206 -0.0272297 -0.0679477 0.001058 -8.79275 -0.131476 0.0185506 2650 
64 1 -0.0229113 -0.0193405 -0.0649909 0.000105 -3.3953 -0.0542621 1.16903 2650 
89 1 -0.0244772 -0.0529556 -0.0627786 0.00164 -9.12515 0.0874022 3.56075 2650 
230 1 -0.024911 -0.0463922 -0.063244 0.001058 -9.06414 0.248895 3.5698 2650 
8 1 -0.026649 -0.0186956 -0.0635525 0.000105 -4.1968 -0.118452 1.72027 2650 
122 1 -0.023748 -0.0138398 -0.0636858 0.001058 -4.71135 -0.253627 1.76145 2650 
247 1 -0.031818 -0.0427383 -0.0609179 0.000291 -7.4424 -0.307084 3.87525 2650 
215 1 -0.0348968 -0.0449113 -0.0583246 0.001058 -8.0639 0.0668082 4.83527 2650 
149 1 -0.0339507 -0.0166362 -0.0597594 0.000291 -5.33777 -0.0892689 3.08904 2650 
257 1 -0.0368419 -0.0435782 -0.0571086 0.001058 -7.92122 -0.106784 5.05394 2650 
290 1 -0.0411137 -0.0452032 -0.0550613 0.000291 -6.83019 -0.421413 5.09881 2650 
32 1 -0.041309 -0.0123166 -0.0551452 0.000105 -3.15455 0.192511 2.39711 2650 
241 1 -0.0421605 -0.000333331 -0.0542528 0.000291 -4.64609 0.759879 3.64144 2650 
63 1 -0.0427121 -0.0192001 -0.0538242 0.000291 -7.37756 -0.215832 5.84866 2650 
214 1 -0.0520766 -0.0190865 -0.0447085 0.000291 -4.14304 1.04177 4.88321 2650 
140 1 -0.0540225 -0.0296324 -0.041211 0.001058 -5.20723 0.213494 6.85038 2650 
267 1 -0.0597349 -0.00394951 -0.0339445 0.000291 -3.30894 -0.329138 5.76208 2650 
49 1 -0.0596707 -0.0375484 -0.0312807 0.00164 -3.23242 -0.0221186 6.05675 2650 
302 1 -0.0616822 -0.0241566 -0.0302737 0.000291 -3.09947 0.427441 6.40718 2650 
239 1 -0.0616961 -0.0465293 -0.0285289 0.001058 -3.75315 -0.0879095 8.12648 2650 
193 1 -0.0620615 -0.0438208 -0.0262661 0.00164 -3.83374 -0.120782 9.06461 2650 
21 1 -0.0638387 -0.0439486 -0.0254674 0.000291 -3.77133 -0.111223 9.45744 2650 
93 1 -0.0656814 -0.0381817 -0.0201846 0.000291 -2.47943 -1.17889 8.04231 2650 
280 1 -0.06535 -0.0132805 -0.0186737 0.001058 -1.83001 -0.249938 6.37255 2650 
229 1 -0.0656983 -0.0490907 -0.0174095 0.001058 -2.49199 -0.0137858 9.46016 2650 
151 1 -0.0665965 -0.0155002 -0.0169877 0.000291 -1.74986 -0.284588 6.81696 2650 
72 1 -0.0666012 -0.00813082 -0.0176594 0.000105 -2.47688 -0.981931 9.34526 2650 
288 1 -0.0670362 -0.0476682 -0.0151514 0.000291 -1.66754 0.65522 7.33171 2650 
20 1 -0.0666847 -0.0422368 -0.0130976 0.001058 -1.76033 -0.14487 8.97033 2650 
295 1 -0.00708303 -0.00335286 -0.013759 0.000291 -0.439494 -0.0279985 -0.853727 2650 
243 1 -0.0670696 -0.0398624 -0.0109239 0.001058 -1.48143 0.108331 9.03241 2650 
108 1 -0.0064684 -0.00323759 -0.00941835 0.001058 0.00190399 -0.0137697 -0.00130751 2650 
135 1 -0.00584068 -0.000292577 -0.00622412 0.000291 -0.0060505 -0.00140209 -0.0140303 2650 
42 1 -0.0677442 -0.0362461 -0.00523299 0.001058 -0.561349 0.203358 7.56117 2650 
76 1 -0.00132332 -0.00192868 -0.00547842 0.001058 0.00563223 -0.0106236 0.000699054 2650 
264 1 -0.0679414 -0.0419409 -0.000753684 0.001058 -0.104547 -1.08913 8.07911 2650 
83 1 -0.0679322 -0.0340477 -0.00146016 0.001058 -0.176702 -0.0567617 8.26117 2650 
133 1 -0.0686421 -0.0160722 0.00199609 0.000291 0.176731 0.452606 7.55647 2650 
14 1 -0.006378 -0.00200726 0.001478 0.000291 0 -0.011755 0 2650 
191 1 -0.0108 -0.000675261 0.001549 0.000291 0 -0.011755 0 2650 
296 1 -0.005879 -0.00152926 0.000521 0.000291 0 -0.011755 0 2650 
172 1 -0.0678588 -0.045065 0.00344008 0.001058 0.445136 -0.332543 8.52837 2650 
97 1 -0.0137224 -0.00030879 0.00359108 0.00164 0.00016333 0.00117645 -0.00616736 2650 
18 1 -0.005138 -0.000470261 0.00212 0.001058 0 -0.011755 0 2650 
98 1 -0.00196047 -0.000401433 0.0032408 0.001058 -0.000872989 -0.0147225 -0.00989819 2650 
185 1 -0.0671325 -0.0288458 0.00566512 0.00164 0.731888 -0.061349 8.8441 2650 
2 1 -0.0675504 -0.0255351 0.00727772 0.001058 0.950137 -0.0512769 8.57237 2650 
233 1 -0.001796 -0.00209026 0.010436 0.000291 0 -0.011755 0 2650 
251 1 -0.00861471 -0.00343673 0.013058 0.001058 -0.720186 -0.0476468 1.08529 2650 
226 1 -0.009224 -0.00111826 0.012787 0.000291 0 -0.011755 0 2650 
225 1 -0.0662597 -0.0308332 0.0151047 0.001058 1.78623 -0.29074 7.27998 2650 
184 1 -0.0665957 -0.00338441 0.0176256 0.000105 1.10316 -0.242383 4.12031 2650 
188 1 -0.0614417 -0.0613679 0.0290102 0.001058 4.07061 -0.0263792 8.60094 2650 
282 1 -0.0492944 -0.0195769 0.0478629 0.000291 3.6647 -0.030599 3.77621 2650 
181 1 -0.0488478 -0.0366502 0.0483187 0.000291 3.62636 0.16345 3.69628 2650 
6 1 -0.0474757 -0.0247353 0.0496672 0.000291 3.9961 -0.311233 3.80599 2650 
111 1 -0.0430412 -0.0292637 0.053556 0.000291 6.30737 -0.773736 5.06758 2650 
86 1 -0.0424987 -0.0154546 0.0539955 0.000291 4.16824 -0.193262 3.23777 2650 
5 1 -0.0423878 -0.0267153 0.0540741 0.000291 6.41048 -0.479077 4.97905 2650 
131 1 -0.0406247 -0.0265941 0.0544588 0.001058 6.66082 0.00411283 4.98013 2650 
23 1 -0.0395953 -0.0275503 0.0561498 0.000291 7.34854 0.0973929 5.17017 2650 
36 1 -0.0330789 -0.0309759 0.0593722 0.001058 7.92889 -0.255162 4.42528 2650 
218 1 -0.0311556 -0.0310804 0.0603999 0.001058 8.11338 -0.119931 4.17385 2650 
148 1 -0.0195941 -0.0389988 0.0650661 0.001058 8.93051 -0.0142364 2.69577 2650 
283 1 -0.0203446 -0.0150159 0.0656505 0.000291 6.43116 -0.741708 2.02469 2650 
236 1 -0.0146126 -0.0490569 0.0663639 0.001058 9.27511 0.0570592 2.05009 2650 
125 1 -0.0104747 -0.0263902 0.0678985 0.000291 5.78709 -0.375334 0.909775 2650 
297 1 -0.0025243 -0.0354887 0.0686524 0.000291 7.97556 0.273511 0.316596 2650 
248 1 -0.00338111 -0.00828204 0.0685799 0.000291 5.89147 -0.161325 0.272453 2650 
85 1 -0.003548 0.000151739 -0.015444 0.000291 0 -0.011755 0 2650 
70 1 -0.002345 0.00195374 -0.015511 0.000291 0 -0.011755 0 2650 
157 1 -0.00820859 0.0194683 -0.0145323 0.000291 0.0079085 0.0606548 0.000918149 2650 
203 1 -0.00323505 0.00145138 -0.012032 0.001058 0.0218056 -0.0245903 0.045373 2650 
33 1 -0.00339951 0.00829957 -0.0138528 0.00164 0.00499126 0.02337 -0.00956389 2650 
180 1 -0.00107018 0.0178898 -0.0131957 0.001058 0.0584365 0.0813871 -0.0401553 2650 
127 1 -0.00740948 0.0271189 -0.0130664 0.000291 0.0331404 0.0647284 -0.0037516 2650 
47 1 -0.012445 0.00265498 -0.0107865 0.000291 -0.00617568 -0.0113964 -0.000259454 2650 
94 1 -0.0115799 0.00707894 -0.0118789 0.000291 8.5498e-05 -0.0117385 8.5498e-05 2650 
234 1 -0.0094633 0.00661966 -0.0110581 0.000291 -0.02134 0.00563614 -0.0027496 2650 
155 1 -0.00528907 0.0264224 -0.0118319 0.001058 0.04057 0.188533 0.00265111 2650 
175 1 -0.013247 0.00264174 -0.008751 0.000291 0 -0.011755 0 2650 
115 1 -0.0139681 0.00962391 -0.00706746 0.001058 -0.00655704 0.00527716 0.0172016 2650 
187 1 -0.0145882 0.0117744 -0.00615486 0.001058 -0.00403483 0.0166064 0.0136562 2650 
240 1 -0.010392 0.00324374 -0.005262 0.000291 0 -0.011755 0 2650 
276 1 -0.013674 0.00418574 -0.004231 0.000291 0 -0.011755 0 2650 
74 1 -0.0120464 0.00532279 -0.00563555 0.001058 0.00156258 -0.00569596 -0.00749774 2650 
159 1 -0.012707 0.00717974 -0.00588 0.000291 0 -0.011755 0 2650 
256 1 -0.0156815 0.0107894 -0.00544751 0.000291 -0.00333023 -0.00208616 0.0103813 2650 
144 1 -0.0118728 0.0101865 -0.00585487 0.000105 0.00807853 0.0136784 0.0281765 2650 
75 1 -0.0117301 0.0250511 -0.00401209 0.001058 0.0206685 0.0556886 -0.0248334 2650 
274 1 -0.016349 0.00105074 -0.002509 0.000291 0 -0.011755 0 2650 
13 1 -0.014201 0.00328574 -0.003882 0.000291 0 -0.011755 0 2650 
250 1 -0.0112915 0.00228688 -0.00370963 0.001058 0.00273404 -0.00245883 0.0388004 2650 
104 1 -0.014089 0.00396774 -0.003012 0.000105 0 -0.011755 0 2650 
114 1 -0.0122135 0.00481745 -0.00303579 0.001058 0.00263798 -7.05089e-05 -0.000306371 2650 
10 1 -0.0147902 0.00734344 -0.00274676 0.001058 -0.00603352 -0.00346171 -0.00631144 2650 
123 1 -0.000597397 0.00836265 -0.00202193 0.001058 0.0354386 0.020018 -0.000637314 2650 
41 1 -0.00653786 0.0125148 -0.00301443 0.00164 0.0102042 0.00860529 0.0210319 2650 
220 1 -0.0140546 0.017234 -0.00380609 0.000291 0.00605419 0.00724476 0.0145131 2650 
7 1 -0.00678393 0.0182405 -0.0030884 0.000291 0.00378858 0.0136367 -0.000251809 2650 
136 1 -0.00252942 0.0676511 -0.00236149 0.000105 0.0375902 0.10168 0.0199891 2650 
211 1 -0.0132278 0.00379812 -0.000843166 0.001058 0.000982608 0.00314487 0.00709992 2650 
209 1 -0.0134265 0.00589873 -0.000235708 0.001058 -0.00415633 0.00564878 0.00501433 2650 
61 1 -0.016439 0.00689774 -0.001038 0.000291 0 -0.011755 0 2650 
87 1 -0.00603254 0.00724343 -0.001458 0.000291 0.0457248 -0.00314239 -0.013726 2650 
17 1 -0.0101426 0.0116262 -0.00170153 0.00164 -0.00279267 0.0548111 0.0673045 2650 
65 1 -0.010477 0.0156226 -0.00146776 0.00164 -0.00454877 0.0138432 0.000335664 2650 
168 1 -0.007536 0.000335739 0.001389 0.000105 0 -0.011755 0 2650 
120 1 -0.016055 0.00253774 0.000189 0.000105 0 -0.011755 0 2650 
80 1 -0.014935 0.00523574 0.00039 0.000105 0 -0.011755 0 2650 
268 1 -0.011054 0.00575974 0.000789 0.000291 0 -0.011755 0 2650 
129 1 -0.00714634 0.00731587 0.00113178 0.00164 0.00886763 0.000928435 -0.00531986 2650 
77 1 -0.00647541 0.0103337 0.00138462 0.000291 0.0279429 0.00178097 -0.016803 2650 
52 1 -0.00897687 0.0148468 0.000816417 0.001058 0.0258261 0.0380708 0.00407144 2650 
273 1 -0.00151207 0.0175682 0.000659627 0.001058 -0.00402366 0.037385 0.0311551 2650 
99 1 -0.00666201 0.00377319 0.00271872 0.001058 0.024382 -0.0114171 0.00238034 2650 
176 1 -0.003983 0.00387474 0.002552 0.000105 0 -0.011755 0 2650 
53 1 -0.000389 0.000612739 0.004762 0.000291 0 -0.011755 0 2650 
164 1 -0.003894 0.00291074 0.005467 0.001058 0 -0.011755 0 2650 
291 1 -0.008194 0.00728474 0.004767 0.000291 0 -0.011755 0 2650 
38 1 -0.00082312 0.00604236 0.00416268 0.000291 -0.0300402 0.0227875 -0.0736261 2650 
106 1 -0.0112315 0.01054 0.00519834 0.001058 0.0124054 0.0227789 -0.00267195 2650 
124 1 -0.0150465 0.0134774 0.00496889 0.001058 -0.00213209 0.0400723 0.00755044 2650 
242 1 -0.00841823 0.0125381 0.00496058 0.000291 -0.00954886 0.00781474 0.00295974 2650 
28 1 -0.0133098 0.0147255 0.00521319 0.001058 0.00667276 0.0347111 0.000214972 2650 
126 1 -0.0015865 0.00347502 0.00720894 0.000291 -0.00909177 -0.0182309 -0.0255133 2650 
186 1 -0.00618061 0.00524427 0.00655031 0.001058 -4.15282e-05 -0.0115536 6.1062e-05 2650 
266 1 -0.0143556 0.00667532 0.00644471 0.001058 -0.00293207 0.00740435 -0.00807451 2650 
58 1 -0.0111119 0.00129164 0.00928543 0.001058 0.00939797 -0.00814862 -0.00719036 2650 
170 1 -0.0103784 0.00371758 0.00823801 0.001058 0.00672221 -0.00141463 0.0184147 2650 
4 1 -0.0129918 0.00777631 0.00895838 0.001058 0.00473149 0.00103266 0.00625096 2650 
304 1 -0.012709 0.00656574 0.009818 0.000291 0 -0.011755 0 2650 
71 1 -0.00145469 0.00748134 0.00887518 0.000291 0.000861808 -0.00718564 -0.0173142 2650 
249 1 -0.0034954 0.0175384 0.00940154 0.000291 0.00987628 0.0185258 -0.0129358 2650 
245 1 -0.00326012 0.045169 0.00870583 0.001058 0.013355 0.0538623 -0.0223836 2650 
300 1 -0.0112576 0.00290786 0.0110525 0.001058 -0.00170937 -0.00549007 -0.002586 2650 
299 1 -0.010562 0.00500674 0.010709 0.001058 0 -0.011755 0 2650 
55 1 -0.01171 0.00703374 0.01034 0.000291 0 -0.011755 0 2650 
68 1 -0.00355507 0.00961019 0.0101321 0.001058 0.00272783 -0.00342387 -0.00169301 2650 
217 1 -0.00992142 0.0216509 0.0109146 0.001058 0.000747792 0.0265619 -0.00553463 2650 
54 1 -0.0069929 0.0275576 0.0109202 0.000291 0.0409131 0.0218291 0.0638832 2650 
285 1 -0.00962024 0.00234581 0.0124999 0.001058 -0.00798287 -0.013356 -0.00552209 2650 
224 1 -0.00718195 0.0114894 0.013486 0.001058 -0.00376938 0.00554818 0.00221201 2650 
238 1 -0.00532454 0.0186826 0.0143761 0.001058 0.0207771 0.0325148 -0.00733364 2650 
15 1 0.00882194 -0.0197819 -0.0681389 0.000291 -5.92622 0.389128 -0.818798 2650 
119 1 0.013791 -0.056768 -0.06731 0.000291 -7.45601 -0.445049 -1.53263 2650 
25 1 0.0191868 -0.0611602 -0.0645821 0.00164 -8.87577 -5.14224e-05 -2.60992 2650 
40 1 0.0246721 -0.0162141 -0.064352 0.000105 -4.19384 -0.207348 -1.53859 2650 
221 1 0.0262848 -0.0253141 -0.0634813 0.000291 -7.72064 0.150028 -3.21684 2650 
44 1 0.0326892 -0.0108778 -0.0595855 0.001058 -5.87014 -0.260945 -3.22774 2650 
255 1 0.0380852 -0.0199482 -0.0571998 0.000291 -5.29249 -0.313314 -3.49515 2650 
171 1 0.00920808 -0.0162937 -0.0534441 0.001058 1.41665 -1.40373 -8.16357 2650 
34 1 0.0456814 -0.0246733 -0.0502979 0.001058 -6.8609 0.0125588 -6.2241 2650 
73 1 0.0523399 -0.0480178 -0.0423713 0.00164 -6.25556 -0.0939402 -7.71093 2650 
16 1 0.0533141 -0.000625811 -0.0436343 0.000105 -4.77464 0.148947 -5.83748 2650 
137 1 0.053072 -0.0570029 -0.0414994 0.00164 -5.30409 -0.0193605 -6.79719 2650 
26 1 0.0556831 -0.030091 -0.03894 0.001058 -4.80892 0.27475 -6.88514 2650 
43 1 0.0589433 -0.0302166 -0.0337997 0.001058 -4.48288 -0.158932 -7.82681 2650 
182 1 0.0626284 -0.0193885 -0.0283048 0.000291 -2.35119 0.0634618 -5.14289 2650 
132 1 0.0630383 -0.0172469 -0.0254241 0.001058 -2.71389 0.0849337 -6.70355 2650 
235 1 0.0637386 -0.0130923 -0.0257193 0.000291 -3.15429 0.935757 -7.82213 2650 
254 1 0.0661486 -0.0169279 -0.0186533 0.000291 -2.08974 -0.0678163 -7.37112 2650 
204 1 0.0658753 -0.0161781 -0.0167346 0.001058 -1.91266 0.0376804 -7.30023 2650 
46 1 0.007499 -0.00199126 -0.014091 0.000291 0 -0.011755 0 2650 
303 1 0.001598 -0.00142826 -0.015917 0.000291 0 -0.011755 0 2650 
160 1 0.004468 -0.000305261 -0.014641 0.000105 0 -0.011755 0 2650 
84 1 0.0666374 -0.0184724 -0.0133405 0.001058 -1.77091 0.00917429 -8.857 2650 
237 1 0.00532022 -0.00272776 -0.0124691 0.001058 -0.000758441 -0.0112642 -0.00203415 2650 
189 1 0.0677846 -0.0459669 -0.0112994 0.000291 -1.31206 -0.556333 -7.84852 2650 
259 1 0.00618568 -0.00322164 -0.0106018 0.001058 0.000209116 -0.0114378 -0.00187247 2650 
196 1 0.002599 -0.00143526 -0.011929 0.001058 0 -0.011755 0 2650 
102 1 0.003423 -3.26105e-06 -0.006065 0.000291 0 -0.011755 0 2650 
183 1 0.0675572 -0.00927891 -0.00403568 0.000291 -2.70439 -0.418207 -3.12217 2650 
178 1 0.00350909 -0.00259238 -0.00502519 0.001058 -0.000609858 -0.0102344 0.00251423 2650 
246 1 0.001376 -0.000502261 -0.005453 0.001058 0 -0.011755 0 2650 
270 1 0.00202385 -0.00111416 -0.00292281 0.000291 0.0186853 -0.00788795 0.00123148 2650 
88 1 0.002864 -0.00187626 -0.002457 0.000105 0 -0.011755 0 2650 
177 1 0.00429438 -0.000249107 -0.00228023 0.00164 -0.00977706 -0.00608305 0.00419202 2650 
205 1 0.00232472 -0.000916697 -0.000742193 0.000291 -0.0110629 -0.00953223 0.00618698 2650 
277 1 0.015014 -0.00313526 0.001212 0.000291 0 -0.011755 0 2650 
197 1 0.0687067 -0.00283905 0.00065433 0.000291 0.0710629 -0.406383 -8.24242 2650 
81 1 0.007451 -0.000383261 7.8e-05 0.00164 0 -0.011755 0 2650 
96 1 0.009869 -0.00174626 0.000788 0.000105 0 -0.011755 0 2650 
261 1 0.011218 -0.000207261 0.000328 0.000291 0 -0.011755 0 2650 
166 1 0.0686381 -0.00733949 0.00307273 0.000291 0.329861 0.172048 -7.01572 2650 
143 1 0.013105 -0.00304626 0.003332 0.000291 0 -0.011755 0 2650 
223 1 0.00781021 -0.00096573 0.00389775 0.001058 0.0245989 -0.00855677 0.00804702 2650 
210 1 0.010971 -0.00105326 0.002357 0.001058 0 -0.011755 0 2650 
305 1 0.007934 -0.00320726 0.005234 0.000105 0 -0.011755 0 2650 
59 1 0.00343996 -0.00136021 0.00562708 0.001058 -0.0200783 -0.00967864 -0.0506056 2650 
50 1 0.006699 -0.00196626 0.005883 0.001058 0 -0.011755 0 2650 
150 1 0.010064 -0.00186526 0.004311 0.000291 0 -0.011755 0 2650 
200 1 0.011449 -0.000298928 0.00457681 0.000105 0.135174 -0.0815406 -0.226989 2650 
174 1 0.002361 -0.00221326 0.006466 0.000291 0 -0.011755 0 2650 
207 1 0.000324 -0.000527261 0.006532 0.000291 0 -0.011755 0 2650 
62 1 0.0681393 -0.0309723 0.00886748 0.000291 0.970425 -0.549826 -7.09935 2650 
158 1 0.0681304 -0.017268 0.00894922 0.000291 1.13755 0.13256 -8.66763 2650 
162 1 0.0669378 -0.0194869 0.0117203 0.001058 1.40527 0.132744 -7.92112 2650 
228 1 0.010294 -0.00270426 0.01009 0.000291 0 -0.011755 0 2650 
3 1 0.00941057 -0.00042154 0.0126766 0.001058 -0.00211489 -0.0052299 0.000123346 2650 
82 1 0.000755 -0.000540261 0.014898 0.001058 0 -0.011755 0 2650 
118 1 0.0655037 -0.00821993 0.0207719 0.000291 1.01577 -0.214359 -3.28608 2650 
152 1 0.0652641 -0.0389473 0.022092 0.000105 1.73618 -0.251608 -5.04345 2650 
206 1 0.0575019 -0.0303338 0.0376076 0.000291 4.35468 0.611426 -6.60919 2650 
192 1 0.0520831 -0.000105041 0.0450985 0.000105 4.73923 -0.00313434 -5.45636 2650 
138 1 0.0487342 -0.0425208 0.0473239 0.001058 6.27319 0.037674 -6.37958 2650 
22 1 0.0503893 -0.0242062 0.0467075 0.000291 5.68319 0.542136 -6.13116 2650 
90 1 0.0475932 -0.0549168 0.0484924 0.001058 6.65657 -0.184605 -6.52704 2650 
219 1 0.0486617 -0.000291104 0.0485075 0.000291 4.97041 -0.00085647 -4.9955 2650 
109 1 0.0445833 -0.062199 0.0522814 0.000291 7.7707 -0.0523675 -6.6251 2650 
141 1 0.0444104 -0.00479312 0.0524166 0.000291 5.4973 0.949841 -4.63084 2650 
169 1 0.0323905 -0.0554668 0.0590739 0.00164 8.88456 0.214427 -4.86231 2650 
272 1 0.0322493 -0.0210835 0.0598209 0.001058 5.94495 -0.382391 -3.20841 2650 
213 1 0.034922 -0.017419 0.0591864 0.000291 3.34459 -0.178096 -1.93024 2650 
146 1 0.0250096 -0.0486942 0.0632026 0.001058 8.69232 -0.00436676 -3.4308 2650 
179 1 0.0275947 -0.0480355 0.0621169 0.001058 8.5737 0.00121989 -3.76774 2650 
39 1 0.0252827 -0.0213717 0.0639002 0.000291 7.36307 0.518715 -2.90247 2650 
29 1 0.0260703 -0.0134165 0.0635977 0.000291 3.124 -0.358593 -1.3219 2650 
165 1 0.0029593 -0.0330869 0.068644 0.000291 7.63667 0.435199 -0.328473 2650 
167 1 0.00857271 -0.0144411 0.0681777 0.000291 7.73633 -0.324026 -0.983876 2650 
130 1 1.4e-05 0.000662739 -0.015674 0.001058 0 -0.011755 0 2650 
269 1 0.002277 0.000835739 -0.015181 0.000291 0 -0.011755 0 2650 
198 1 0.00557817 0.00781728 -0.0155624 0.000291 0.0853555 0.0232466 0.0369098 2650 
37 1 0.006156 0.00659774 -0.015157 0.000291 0 -0.011755 0 2650 
147 1 0.00517198 0.0143383 -0.0149234 0.001058 -0.0600416 0.0426775 -0.0153551 2650 
289 1 0.001465 0.00125874 -0.012477 0.000291 0 -0.011755 0 2650 
142 1 0.002378 0.00167374 -0.013184 0.000291 0 -0.011755 0 2650 
263 1 0.006877 9.17389e-05 -0.012319 0.000291 0 -0.011755 0 2650 
252 1 0.00245 0.00496874 -0.01336 0.001058 0 -0.011755 0 2650 
78 1 0.001258 0.00658374 -0.012517 0.000291 0 -0.011755 0 2650 
201 1 0.00916217 0.000169023 -0.0112835 0.00164 0.00137105 -0.0114185 -0.003869 2650 
275 1 0.012705 0.00433074 -0.010476 0.000291 0 -0.011755 0 2650 
67 1 0.0027489 0.00630417 -0.0101957 0.001058 -0.020884 0.0142907 -0.00966941 2650 
105 1 0.00781108 0.00826149 -0.0105069 0.00164 0.00327959 0.00625975 0.0321714 2650 
154 1 0.00341809 0.0466817 -0.0117579 0.001058 0.00678339 0.101014 -0.0544466 2650 
117 1 0.004754 0.000258739 -0.007063 0.000291 0 -0.011755 0 2650 
60 1 0.007579 0.00289974 -0.006312 0.001058 0 -0.011755 0 2650 
134 1 0.00900252 0.00357175 -0.00785081 0.000291 -0.0128132 0.00355392 -0.00692922 2650 
45 1 0.010575 0.00281974 -0.007722 0.000291 0 -0.011755 0 2650 
260 1 0.010473 0.00249535 -0.00612909 0.000291 -0.00392275 0.00411325 -0.00447499 2650 
110 1 0.00690997 0.00661973 -0.00738552 0.000291 -0.0169259 -0.0135844 0.0488079 2650 
284 1 0.0145279 0.00741396 -0.00628876 0.000291 0.00515653 0.00696942 -0.00520094 2650 
139 1 0.00793585 0.0173175 -0.00724154 0.001058 0.0127696 0.00849352 0.0230521 2650 
161 1 0.0133537 0.00330635 -0.0047953 0.00164 0.000907452 0.00399164 0.00334652 2650 
278 1 7.4e-05 0.00541074 -0.004448 0.001058 0 -0.011755 0 2650 
92 1 0.0102996 0.00435157 -0.00456199 0.001058 -0.00203413 0.0102084 -0.00112028 2650 
199 1 0.0152343 0.00438282 -0.00423796 0.000291 0.00855734 0.000154616 0.00359965 2650 
279 1 0.0098872 0.00597027 -0.00590092 0.001058 -0.00964963 0.00898182 -0.00219277 2650 
19 1 0.0140104 0.00609353 -0.00570157 0.001058 0.0022695 0.00565847 -0.00282567 2650 
253 1 0.014729 0.00166874 -0.002617 0.000291 0 -0.011755 0 2650 
227 1 0.00944 0.00349774 -0.002109 0.000291 0 -0.011755 0 2650 
271 1 0.00525724 0.00507641 -0.00366601 0.001058 0.0150184 -0.010407 0.010297 2650 
116 1 0.00791922 0.0145485 -0.00294781 0.001058 0.0382435 0.0489782 0.0372506 2650 
163 1 0.010923 0.024697 -0.00264186 0.001058 0.164238 0.19616 0.0792721 2650 
113 1 0.0103082 0.00136644 -0.00121877 0.00164 -0.000152922 -0.0104668 0.00259679 2650 
190 1 0.005899 0.00619974 -0.000534 0.000291 0 -0.011755 0 2650 
128 1 0.00361 0.00579874 0.000511 0.000105 0 -0.011755 0 2650 
48 1 0.009671 0.00409174 0.000233 0.000105 0 -0.011755 0 2650 
9 1 0.012984 0.00583674 0.000468 0.00164 0 -0.011755 0 2650 
286 1 0.015584 0.00650474 0.000132 0.001058 0 -0.011755 0 2650 
294 1 0.006997 0.00380574 0.003581 0.001058 0 -0.011755 0 2650 
101 1 0.004812 0.00452174 0.002517 0.000291 0 -0.011755 0 2650 
292 1 0.00289144 0.0132537 0.00298768 0.001058 0.0469404 0.0480946 0.0370303 2650 
35 1 0.000554943 0.00148381 0.00530984 0.001058 0.00654177 -0.0105187 -0.00962265 2650 
24 1 0.005464 0.00388774 0.005551 0.000105 0 -0.011755 0 2650 
212 1 0.001087 0.00431574 0.005915 0.000291 0 -0.011755 0 2650 
51 1 0.009662 0.00496074 0.004577 0.001058 0 -0.011755 0 2650 
232 1 0.0129841 0.00451808 0.00466425 0.001058 0.0173559 0.0148037 -0.0086303 2650 
244 1 0.0151084 0.00440237 0.00413799 0.001058 0.0260532 -0.00863761 -0.00783703 2650 
79 1 0.014214 0.00680074 0.005058 0.000291 0 -0.011755 0 2650 
301 1 0.00543061 0.0220616 0.00495108 0.001058 0.00272587 0.0220862 -0.0290146 2650 
202 1 0.00152228 0.00300386 0.0069415 0.001058 0.00953014 -0.00871599 -0.0138173 2650 
231 1 0.00661039 0.00341039 0.00737629 0.001058 0.00167534 -0.0128877 -0.000760445 2650 
208 1 0.0137732 0.00200412 0.00643619 0.001058 0.0385375 0.00604984 -0.0140106 2650 
153 1 0.000394209 0.0078414 0.00653153 0.00164 0.00905173 -0.00370467 -0.0193596 2650 
222 1 0.009219 0.00615974 0.006833 0.001058 0 -0.011755 0 2650 
112 1 0.013668 0.00712374 0.007002 0.000105 0 -0.011755 0 2650 
57 1 0.00286399 0.0197489 0.00737034 0.00164 0.0230994 0.0154402 0.0436737 2650 
1 1 0.0116238 0.00116551 0.0094089 0.00164 0.00588729 0.00743877 -0.0258753 2650 
145 1 0.00445215 0.00494728 0.0080437 0.00164 0.00142123 -0.0121074 -0.00172265 2650 
194 1 0.00949681 0.00432668 0.00864771 0.001058 0.101532 -0.00908308 -0.0774809 2650 
103 1 0.005979 0.000490739 0.01127 0.000291 0 -0.011755 0 2650 
100 1 0.0069463 0.00219336 0.0100683 0.001058 0.00912399 -0.0117578 -0.00681185 2650 
287 1 0.00965444 0.00310496 0.0112884 0.001058 0.0292235 -0.0161292 0.0100769 2650 
258 1 0.0122415 0.00512723 0.0100084 0.001058 0.0264096 0.0259063 -0.000659148 2650 
293 1 0.00788975 0.00615545 0.0105178 0.001058 0.112341 0.0799209 -0.0331479 2650 
66 1 0.00555254 0.00870276 0.0116394 0.001058 0.00846641 -0.000759158 0.00162513 2650 
156 1 0.00370821 0.0119017 0.0117662 0.001058 0.00957299 -0.000303602 -0.00985815 2650 
95 1 0.0068448 0.0037378 0.0136115 0.000291 -0.000366951 -0.00495937 0.00220646 2650 
298 1 0.0079726 0.00721768 0.0129617 0.000105 0.012752 -0.00608362 0.00360111 2650 
195 1 0.00285705 0.00219857 0.0149814 0.001058 0.0422505 -0.00642479 -0.0231176 2650 
265 1 0.0011819 0.00617634 0.0153344 0.001058 0.011667 0.00657701 -0.00499144 2650 
11 1 0.0093444 0.0786702 0.0107926 0.001058 0.0558568 0.128502 0.0118077 2650 
