ITEM: TIMESTEP
493914
ITEM: NUMBER OF ATOMS
305
ITEM: BOX BOUNDS ff ff ff
-0.15 0.15
-0.15 0.15
-0.15 0.15
ITEM: ATOMS id type x y z radius vx vy vz density 
152 1 -0.0391211 -0.00919264 -0.0534694 0.000105 -3.14933 -0.279276 0.619203 2650 
151 1 -0.005422 -0.00299719 -0.014895 0.000291 0 -0.011755 0 2650 
241 1 -0.008593 -0.000494195 -0.012306 0.000291 0 -0.011755 0 2650 
93 1 -0.009903 -0.000580195 -0.011082 0.000291 0 -0.011755 0 2650 
215 1 -0.00232 -0.00264019 -0.00968 0.001058 0 -0.011755 0 2650 
86 1 -0.013851 -0.00299519 -0.006364 0.000291 0 -0.011755 0 2650 
219 1 -0.000437 -0.00326619 -0.006263 0.000291 0 -0.011755 0 2650 
167 1 -0.007283 -0.00235419 -0.00514 0.000291 0 -0.011755 0 2650 
59 1 -0.0068122 -0.00100045 -0.00456597 0.001058 0.00115799 -0.0116141 0.00139237 2650 
25 1 -0.0153059 -0.00519895 -0.00336625 0.00164 -0.345744 -0.801547 -0.199313 2650 
23 1 -0.005085 -0.00146019 -0.002724 0.000291 0 -0.011755 0 2650 
107 1 -0.003706 -0.00113919 -0.003027 0.001058 0 -0.011755 0 2650 
282 1 -0.001816 -0.000198195 -0.002164 0.000291 0 -0.011755 0 2650 
135 1 -0.00429812 -0.000263943 0.00119642 0.000291 0.018454 0.00911816 -0.0138033 2650 
127 1 -0.006868 -0.000957195 0.0035 0.000291 0 -0.011755 0 2650 
229 1 -0.00462469 -0.00154447 0.00241216 0.001058 9.1281e-05 -0.0149163 0.00350247 2650 
89 1 -0.00129024 -0.00167424 0.00278857 0.00164 -0.0058431 -0.0117287 -0.0183195 2650 
169 1 -0.0138196 -0.00416979 0.00529648 0.00164 -1.66 -0.159109 0.71382 2650 
2 1 -0.013701 -0.00115519 0.005224 0.001058 0 -0.011755 0 2650 
63 1 -0.010157 -0.00114619 0.004282 0.000291 0 -0.011755 0 2650 
157 1 -0.011403 -0.00120519 0.006122 0.000291 0 -0.011755 0 2650 
146 1 -0.0062536 -0.0012572 0.00660003 0.001058 -0.0691175 -0.136436 0.056497 2650 
36 1 -0.012004 -0.00167219 0.009853 0.001058 0 -0.011755 0 2650 
257 1 -0.009847 -0.00123519 0.008559 0.001058 0 -0.011755 0 2650 
230 1 -0.003926 -0.000444195 0.009687 0.001058 0 -0.011755 0 2650 
119 1 -0.002296 -0.00321419 0.011353 0.000291 0 -0.011755 0 2650 
204 1 -0.00156 -8.71946e-05 0.010678 0.001058 0 -0.011755 0 2650 
84 1 -0.000959 -0.00201119 0.012417 0.001058 0 -0.011755 0 2650 
147 1 -0.000208 -0.000602195 0.014718 0.001058 0 -0.011755 0 2650 
69 1 -0.00140767 -0.00405324 0.0189805 0.000291 -0.0828306 -0.195364 1.44321 2650 
148 1 -0.015034 -0.00936391 0.0662724 0.001058 3.10409 -0.237428 0.757368 2650 
290 1 -0.00918232 -0.0182789 0.0680967 0.000291 2.84564 -0.176782 0.39597 2650 
17 1 -0.004286 0.00408781 -0.01432 0.00164 0 -0.011755 0 2650 
85 1 -0.003548 0.00638181 -0.015444 0.000291 0 -0.011755 0 2650 
70 1 -0.002345 0.00818381 -0.015511 0.000291 0 -0.011755 0 2650 
26 1 -0.001687 0.00151181 -0.013653 0.001058 0 -0.011755 0 2650 
295 1 -0.006507 0.00289881 -0.01264 0.000291 0 -0.011755 0 2650 
189 1 -0.004115 0.00257681 -0.01297 0.000291 0 -0.011755 0 2650 
115 1 -0.009032 0.00823081 -0.012506 0.001058 0 -0.011755 0 2650 
33 1 -0.003866 0.0112468 -0.012959 0.00164 0 -0.011755 0 2650 
163 1 -0.005911 0.00135381 -0.010628 0.001058 0 -0.011755 0 2650 
280 1 -0.002975 0.00386081 -0.011733 0.001058 0 -0.011755 0 2650 
198 1 -0.01006 0.00752781 -0.011926 0.000291 0 -0.011755 0 2650 
234 1 -0.003052 0.00762481 -0.010232 0.000291 0 -0.011755 0 2650 
273 1 -0.00119 0.00758681 -0.010246 0.001058 0 -0.011755 0 2650 
47 1 -0.011528 0.00883181 -0.010748 0.000291 0 -0.011755 0 2650 
94 1 -0.011581 0.0133088 -0.01188 0.000291 0 -0.011755 0 2650 
166 1 -0.005567 0.000848805 -0.009051 0.000291 0 -0.011755 0 2650 
108 1 -0.007031 0.00358781 -0.009032 0.001058 0 -0.011755 0 2650 
41 1 -0.004963 0.00745681 -0.00808 0.00164 0 -0.011755 0 2650 
175 1 -0.013247 0.00887181 -0.008751 0.000291 0 -0.011755 0 2650 
32 1 -0.005217 0.0105588 -0.009972 0.000105 0 -0.011755 0 2650 
144 1 -0.011054 0.0134298 -0.008779 0.000105 0 -0.011755 0 2650 
220 1 -0.007471 0.0132548 -0.009174 0.000291 0 -0.011755 0 2650 
139 1 -0.00154615 0.0122299 -0.00840143 0.001058 0.0288724 0.0119708 -0.0425505 2650 
293 1 -0.009422 0.00141881 -0.006923 0.001058 0 -0.011755 0 2650 
137 1 -0.001323 0.000921805 -0.006126 0.00164 0 -0.011755 0 2650 
200 1 -0.012172 0.00213181 -0.006974 0.000105 0 -0.011755 0 2650 
218 1 -0.005846 0.00243281 -0.007271 0.001058 0 -0.011755 0 2650 
250 1 -0.013194 0.00452481 -0.006197 0.001058 0 -0.011755 0 2650 
5 1 -0.00824247 0.0083745 -0.0065184 0.000291 -0.0251535 -0.193768 -0.0880954 2650 
57 1 -0.00472266 0.0112763 -0.0074603 0.00164 -0.0520685 0.0201742 -0.0904283 2650 
214 1 -0.008446 0.00184181 -0.004092 0.000291 0 -0.011755 0 2650 
203 1 -0.007542 0.00360281 -0.005618 0.001058 0 -0.011755 0 2650 
76 1 -0.003173 0.00392981 -0.005708 0.001058 0 -0.011755 0 2650 
90 1 -0.0113566 0.00483578 -0.00490614 0.001058 0.040091 -0.0854205 0.0371687 2650 
43 1 -0.00939398 0.00410179 -0.00461499 0.001058 0.0055255 -0.0151871 0.00128349 2650 
195 1 -0.0121202 0.00677068 -0.00548611 0.001058 0.16889 0.0544606 0.16104 2650 
240 1 -0.010392 0.00947381 -0.005262 0.000291 0 -0.011755 0 2650 
276 1 -0.013674 0.0104158 -0.004231 0.000291 0 -0.011755 0 2650 
74 1 -0.012237 0.0108138 -0.004721 0.001058 0 -0.011755 0 2650 
159 1 -0.012707 0.0134098 -0.00588 0.000291 0 -0.011755 0 2650 
187 1 -0.00902919 0.0126981 -0.00518271 0.001058 -0.0112156 -0.0033076 -0.00319333 2650 
216 1 -0.00552773 0.0411788 -0.00427866 0.001058 -0.140372 0.685008 -0.794107 2650 
116 1 -0.013496 0.00194181 -0.003353 0.001058 0 -0.011755 0 2650 
270 1 -0.006476 0.00335681 -0.003483 0.000291 0 -0.011755 0 2650 
211 1 -0.013621 0.00515581 -0.002856 0.001058 0 -0.011755 0 2650 
274 1 -0.016349 0.00728081 -0.002509 0.000291 0 -0.011755 0 2650 
114 1 -0.012867 0.00781181 -0.002401 0.001058 0 -0.011755 0 2650 
138 1 -0.000244719 0.00606648 -0.00262477 0.001058 -0.165908 -0.0136297 -0.281035 2650 
13 1 -0.014201 0.00951581 -0.003882 0.000291 0 -0.011755 0 2650 
65 1 -0.00823046 0.00968331 -0.00307799 0.00164 -0.0391602 -0.0275251 -0.0115553 2650 
104 1 -0.014089 0.0101978 -0.003012 0.000105 0 -0.011755 0 2650 
256 1 -0.010193 0.0115168 -0.003721 0.000291 0 -0.011755 0 2650 
7 1 -0.008475 0.0131368 -0.002976 0.000291 0 -0.011755 0 2650 
180 1 -0.015098 0.00119081 -0.001623 0.001058 0 -0.011755 0 2650 
123 1 -0.014683 0.00268581 -0.000117 0.001058 0 -0.011755 0 2650 
140 1 -0.008912 0.00380781 -0.000862 0.001058 0 -0.011755 0 2650 
131 1 -0.011237 0.00518281 -0.00144 0.001058 0 -0.011755 0 2650 
223 1 -0.0079349 0.00630503 -0.00192351 0.001058 -0.00296728 -0.012011 -0.00268344 2650 
10 1 -0.012845 0.0108998 -0.000712 0.001058 0 -0.011755 0 2650 
61 1 -0.016439 0.0131278 -0.001038 0.000291 0 -0.011755 0 2650 
11 1 -0.00650425 0.0124799 -0.0010397 0.001058 -0.086582 0.108675 0.069531 2650 
262 1 -0.0127746 0.0291488 -0.000744927 0.000291 0.355793 0.466335 -0.0703264 2650 
99 1 -0.011672 0.000803805 9.8e-05 0.001058 0 -0.011755 0 2650 
75 1 -0.008381 0.000893805 0.001024 0.001058 0 -0.011755 0 2650 
122 1 -0.001782 0.00161981 0.000344 0.001058 0 -0.011755 0 2650 
206 1 -0.013164 0.00318781 0.001584 0.000291 0 -0.011755 0 2650 
191 1 -0.0108 0.00555481 0.001549 0.000291 0 -0.011755 0 2650 
14 1 -0.006378 0.00422281 0.001478 0.000291 0 -0.011755 0 2650 
296 1 -0.005879 0.00470081 0.000521 0.000291 0 -0.011755 0 2650 
168 1 -0.007536 0.00656581 0.001389 0.000105 0 -0.011755 0 2650 
120 1 -0.016055 0.00876781 0.000189 0.000105 0 -0.011755 0 2650 
209 1 -0.010932 0.00867981 0.001176 0.001058 0 -0.011755 0 2650 
80 1 -0.014935 0.0114658 0.00039 0.000105 0 -0.011755 0 2650 
129 1 -0.008713 0.0118038 0.001908 0.00164 0 -0.011755 0 2650 
268 1 -0.011054 0.0119898 0.000789 0.000291 0 -0.011755 0 2650 
245 1 -0.00435121 0.0136542 6.86961e-05 0.001058 -0.00877598 0.0648343 0.053396 2650 
132 1 -0.01481 0.00162181 0.003327 0.001058 0 -0.011755 0 2650 
106 1 -0.009716 0.00122181 0.002779 0.001058 0 -0.011755 0 2650 
158 1 -0.007297 0.000764805 0.003049 0.000291 0 -0.011755 0 2650 
149 1 -0.004792 0.000718805 0.002724 0.000291 0 -0.011755 0 2650 
272 1 -0.001203 0.00162581 0.002609 0.001058 0 -0.011755 0 2650 
124 1 -0.014115 0.00425881 0.003875 0.001058 0 -0.011755 0 2650 
302 1 -0.008928 0.00445281 0.003809 0.000291 0 -0.011755 0 2650 
18 1 -0.005138 0.00575981 0.00212 0.001058 0 -0.011755 0 2650 
77 1 -0.00293 0.00876281 0.00386 0.000291 0 -0.011755 0 2650 
242 1 -0.003848 0.00940181 0.003544 0.000291 0 -0.011755 0 2650 
176 1 -0.003983 0.0101048 0.002552 0.000105 0 -0.011755 0 2650 
49 1 -0.007469 0.00188881 0.004859 0.00164 0 -0.011755 0 2650 
283 1 -0.0125301 0.00311638 0.00535004 0.000291 -0.248413 -0.15575 0.277058 2650 
58 1 -0.009725 0.00571981 0.005089 0.001058 0 -0.011755 0 2650 
182 1 -0.007428 0.00403881 0.005665 0.000291 0 -0.011755 0 2650 
53 1 -0.000389 0.00684281 0.004762 0.000291 0 -0.011755 0 2650 
28 1 -0.013611 0.00810281 0.005538 0.001058 0 -0.011755 0 2650 
170 1 -0.01149 0.00823781 0.005193 0.001058 0 -0.011755 0 2650 
238 1 -0.009207 0.00899081 0.004742 0.001058 0 -0.011755 0 2650 
164 1 -0.003894 0.00914081 0.005467 0.001058 0 -0.011755 0 2650 
291 1 -0.008194 0.0135148 0.004767 0.000291 0 -0.011755 0 2650 
27 1 -0.0132497 0.0305611 0.0049589 0.001058 0.284186 0.519902 -0.0815966 2650 
31 1 -0.0118533 0.0575691 0.005809 0.000291 -0.50313 1.43511 0.0848153 2650 
42 1 -0.008546 9.88054e-05 0.006756 0.001058 0 -0.011755 0 2650 
235 1 -0.001066 0.00138181 0.007831 0.000291 0 -0.011755 0 2650 
64 1 -0.001837 0.00180681 0.007035 0.000105 0 -0.011755 0 2650 
266 1 -0.012878 0.00250481 0.007692 0.001058 0 -0.011755 0 2650 
254 1 -0.006211 0.00437781 0.006905 0.000291 0 -0.011755 0 2650 
98 1 -0.001703 0.00670381 0.00616 0.001058 0 -0.011755 0 2650 
186 1 -0.006177 0.0114568 0.006545 0.001058 0 -0.011755 0 2650 
251 1 -0.00207709 0.0107877 0.00756816 0.001058 -0.031714 -0.0278746 0.036794 2650 
71 1 -6.84749e-06 0.0121631 0.00742886 0.000291 -0.0104586 -0.0101041 0.055119 2650 
111 1 -0.009474 0.00145181 0.008964 0.000291 0 -0.011755 0 2650 
44 1 -0.007195 0.00359381 0.008791 0.001058 0 -0.011755 0 2650 
73 1 -0.00469705 0.0023114 0.00867327 0.00164 -0.0493332 -0.0842276 0.176781 2650 
285 1 -0.0053854 0.00608449 0.00909147 0.001058 -0.00795457 0.0243574 0.0656623 2650 
304 1 -0.012709 0.0127958 0.009818 0.000291 0 -0.011755 0 2650 
4 1 -0.013492 0.0126748 0.008313 0.001058 0 -0.011755 0 2650 
154 1 -0.004844 0.000906805 0.011798 0.001058 0 -0.011755 0 2650 
38 1 -0.000348 0.00121481 0.010029 0.000291 0 -0.011755 0 2650 
202 1 -0.00450961 0.0041833 0.010788 0.001058 -0.00126574 0.0494208 0.122388 2650 
233 1 -0.001796 0.00413981 0.010436 0.000291 0 -0.011755 0 2650 
217 1 -0.00666253 0.00728502 0.0104869 0.001058 -0.0433867 0.0401806 0.0610848 2650 
35 1 -0.002198 0.00760081 0.010984 0.001058 0 -0.011755 0 2650 
224 1 -0.005732 0.00925081 0.011304 0.001058 0 -0.011755 0 2650 
299 1 -0.010562 0.0112368 0.010709 0.001058 0 -0.011755 0 2650 
68 1 -0.004897 0.0117418 0.010965 0.001058 0 -0.011755 0 2650 
153 1 -0.00206688 0.0109513 0.0105872 0.00164 -0.013055 -0.0153273 0.0504682 2650 
55 1 -0.01171 0.0132638 0.01034 0.000291 0 -0.011755 0 2650 
97 1 -0.008835 0.00125081 0.012395 0.00164 0 -0.011755 0 2650 
226 1 -0.009224 0.00511181 0.012787 0.000291 0 -0.011755 0 2650 
300 1 -0.008361 0.00762481 0.012594 0.001058 0 -0.011755 0 2650 
249 1 -0.007109 0.00892381 0.012591 0.000291 0 -0.011755 0 2650 
100 1 -0.001096 0.00856381 0.01281 0.001058 0 -0.011755 0 2650 
156 1 -0.001251 0.0121748 0.01374 0.001058 0 -0.011755 0 2650 
12 1 -0.00325085 0.0323193 0.0129487 0.001058 -0.108989 0.630803 0.362095 2650 
29 1 -0.0052 0.00891481 0.014245 0.000291 0 -0.011755 0 2650 
265 1 -0.000465 0.00976781 0.015551 0.001058 0 -0.011755 0 2650 
34 1 0.00304899 -0.00382874 -0.0678756 0.001058 -3.81942 -0.0680025 -0.166838 2650 
172 1 0.001341 -0.00209219 -0.014713 0.001058 0 -0.011755 0 2650 
297 1 0.008771 -0.00300819 -0.012385 0.000291 0 -0.011755 0 2650 
292 1 0.002958 -0.000645195 -0.012416 0.001058 0 -0.011755 0 2650 
165 1 0.001742 -0.00273119 -0.011536 0.000291 0 -0.011755 0 2650 
188 1 0.003247 -0.00169119 -0.009042 0.001058 0 -0.011755 0 2650 
162 1 0.010619 -0.000139195 -0.009864 0.001058 0 -0.011755 0 2650 
185 1 0.007006 -0.000452195 -0.006884 0.00164 0 -0.011755 0 2650 
109 1 0.0089 -0.00187519 -0.006999 0.000291 0 -0.011755 0 2650 
62 1 0.005002 -0.00106819 -0.004312 0.000291 0 -0.011755 0 2650 
221 1 0.006551 -0.00191519 -0.004504 0.000291 0 -0.011755 0 2650 
39 1 0.011011 -0.000112195 -0.005294 0.000291 0 -0.011755 0 2650 
133 1 0.005559 -0.00323519 -0.003229 0.000291 0 -0.011755 0 2650 
8 1 0.000989 -7.41946e-05 -0.00369 0.000105 0 -0.011755 0 2650 
20 1 0.013152 -0.00104319 -0.002682 0.001058 0 -0.011755 0 2650 
125 1 0.0451525 -0.0111127 -0.00178478 0.000291 6.78982 -1.03496 -0.259031 2650 
239 1 0.008697 -0.00125619 -0.000945 0.001058 0 -0.011755 0 2650 
248 1 0.008036 -0.000205195 -0.000368 0.000291 0 -0.011755 0 2650 
87 1 0.010454 -0.00107419 -0.001717 0.000291 0 -0.011755 0 2650 
288 1 0.006653 -0.00124919 0.001326 0.000291 0 -0.011755 0 2650 
21 1 0.010034 -0.00285019 0.002765 0.000291 0 -0.011755 0 2650 
179 1 0.002629 -0.00155419 0.002938 0.001058 0 -0.011755 0 2650 
121 1 0.013566 -0.000627195 0.003132 0.00164 0 -0.011755 0 2650 
247 1 0.001401 -5.31946e-05 0.005706 0.000291 0 -0.011755 0 2650 
192 1 0.012227 -0.00229819 0.006398 0.000105 0 -0.011755 0 2650 
236 1 0.00664903 -0.00129609 0.0095648 0.001058 -0.00254317 -0.0480338 -0.00128433 2650 
15 1 0.012888 -0.00185419 0.009988 0.000291 0 -0.011755 0 2650 
281 1 0.006175 -0.00235719 0.011215 0.000291 0 -0.011755 0 2650 
181 1 0.012465 -0.00111419 0.010211 0.000291 0 -0.011755 0 2650 
22 1 0.00476338 -0.00343459 0.0158942 0.000291 -0.193079 -0.494536 -0.413439 2650 
155 1 0.005921 0.00103481 -0.01427 0.001058 0 -0.011755 0 2650 
303 1 0.001598 0.00480181 -0.015917 0.000291 0 -0.011755 0 2650 
46 1 0.007499 0.00423881 -0.014091 0.000291 0 -0.011755 0 2650 
130 1 1.4e-05 0.00689281 -0.015674 0.001058 0 -0.011755 0 2650 
269 1 0.002277 0.00706581 -0.015181 0.000291 0 -0.011755 0 2650 
160 1 0.004468 0.00592481 -0.014641 0.000105 0 -0.011755 0 2650 
37 1 0.006156 0.0128278 -0.015157 0.000291 0 -0.011755 0 2650 
237 1 0.005321 0.00350181 -0.012467 0.001058 0 -0.011755 0 2650 
289 1 0.001465 0.00748881 -0.012477 0.000291 0 -0.011755 0 2650 
263 1 0.006877 0.00632181 -0.012319 0.000291 0 -0.011755 0 2650 
142 1 0.002378 0.00790381 -0.013184 0.000291 0 -0.011755 0 2650 
252 1 0.00245 0.0111988 -0.01336 0.001058 0 -0.011755 0 2650 
78 1 0.001258 0.0128138 -0.012517 0.000291 0 -0.011755 0 2650 
141 1 0.004693 0.000989805 -0.010381 0.000291 0 -0.011755 0 2650 
83 1 0.007342 0.000166805 -0.011981 0.001058 0 -0.011755 0 2650 
196 1 0.002599 0.00479481 -0.011929 0.001058 0 -0.011755 0 2650 
201 1 0.008831 0.00631781 -0.010349 0.00164 0 -0.011755 0 2650 
105 1 0.003632 0.0114818 -0.010703 0.00164 0 -0.011755 0 2650 
275 1 0.012705 0.0105608 -0.010476 0.000291 0 -0.011755 0 2650 
110 1 0.010451 0.0131048 -0.010748 0.000291 0 -0.011755 0 2650 
213 1 0.001757 0.00182681 -0.008127 0.000291 0 -0.011755 0 2650 
259 1 0.006357 0.00275581 -0.00938 0.001058 0 -0.011755 0 2650 
40 1 0.002884 7.28054e-05 -0.006462 0.000105 0 -0.011755 0 2650 
30 1 0.005625 0.00150481 -0.00604 0.000291 0 -0.011755 0 2650 
67 1 0.00898 0.00418981 -0.006049 0.001058 0 -0.011755 0 2650 
102 1 0.003423 0.00622681 -0.006065 0.000291 0 -0.011755 0 2650 
117 1 0.004754 0.00648881 -0.007063 0.000291 0 -0.011755 0 2650 
134 1 0.011983 0.00624081 -0.006239 0.000291 0 -0.011755 0 2650 
60 1 0.007579 0.00912981 -0.006312 0.001058 0 -0.011755 0 2650 
45 1 0.010575 0.00904981 -0.007722 0.000291 0 -0.011755 0 2650 
271 1 0.001328 0.0109538 -0.00636 0.001058 0 -0.011755 0 2650 
16 1 0.006364 0.000200805 -0.005251 0.000105 0 -0.011755 0 2650 
197 1 0.007512 0.00164281 -0.004043 0.000291 0 -0.011755 0 2650 
92 1 0.010471 0.00169381 -0.004542 0.001058 0 -0.011755 0 2650 
178 1 0.003641 0.00330881 -0.005569 0.001058 0 -0.011755 0 2650 
260 1 0.010685 0.00383681 -0.004932 0.000291 0 -0.011755 0 2650 
161 1 0.013129 0.00391981 -0.005759 0.00164 0 -0.011755 0 2650 
246 1 0.001376 0.00572781 -0.005453 0.001058 0 -0.011755 0 2650 
279 1 0.011818 0.00818381 -0.00556 0.001058 0 -0.011755 0 2650 
199 1 0.014464 0.00954081 -0.004562 0.000291 0 -0.011755 0 2650 
278 1 7.4e-05 0.0116408 -0.004448 0.001058 0 -0.011755 0 2650 
19 1 0.013799 0.0107128 -0.005439 0.001058 0 -0.011755 0 2650 
284 1 0.014191 0.0124208 -0.005949 0.000291 0 -0.011755 0 2650 
173 1 0.002644 0.00114981 -0.002982 0.000291 0 -0.011755 0 2650 
171 1 0.000459 0.00264381 -0.002783 0.001058 0 -0.011755 0 2650 
88 1 0.002864 0.00435381 -0.002457 0.000105 0 -0.011755 0 2650 
205 1 0.005264 0.00472281 -0.002386 0.000291 0 -0.011755 0 2650 
177 1 0.007332 0.00421981 -0.003583 0.00164 0 -0.011755 0 2650 
227 1 0.00944 0.00972781 -0.002109 0.000291 0 -0.011755 0 2650 
253 1 0.014729 0.00789881 -0.002617 0.000291 0 -0.011755 0 2650 
72 1 0.013289 0.000829805 -0.000624 0.000105 0 -0.011755 0 2650 
6 1 0.004141 0.00207581 -0.001643 0.000291 0 -0.011755 0 2650 
113 1 0.010337 0.00735381 -0.001708 0.00164 0 -0.011755 0 2650 
54 1 0.00512145 0.00956081 -1.99106e-05 0.000291 0.0454566 0.0504589 -0.210549 2650 
190 1 0.005899 0.0124298 -0.000534 0.000291 0 -0.011755 0 2650 
255 1 0.005303 9.78054e-05 0.000727 0.000291 0 -0.011755 0 2650 
56 1 0.00459 0.000854805 0.000864 0.000105 0 -0.011755 0 2650 
277 1 0.015014 0.00309481 0.001212 0.000291 0 -0.011755 0 2650 
183 1 0.01481 0.00271681 0.000242 0.000291 0 -0.011755 0 2650 
81 1 0.007451 0.00584681 7.8e-05 0.00164 0 -0.011755 0 2650 
96 1 0.009869 0.00448381 0.000788 0.000105 0 -0.011755 0 2650 
261 1 0.011218 0.00602281 0.000328 0.000291 0 -0.011755 0 2650 
136 1 0.00106128 0.00969067 0.0016152 0.000105 -0.0729053 0.12081 -0.0484832 2650 
91 1 0.0025085 0.0108546 0.0013709 0.001058 -0.0674224 0.148351 -0.200163 2650 
48 1 0.009671 0.0103218 0.000233 0.000105 0 -0.011755 0 2650 
128 1 0.00361 0.0120288 0.000511 0.000105 0 -0.011755 0 2650 
9 1 0.012984 0.0120668 0.000468 0.00164 0 -0.011755 0 2650 
286 1 0.015584 0.0127348 0.000132 0.001058 0 -0.011755 0 2650 
225 1 0.001446 0.00291381 0.002203 0.001058 0 -0.011755 0 2650 
264 1 0.003305 0.00205981 0.003449 0.001058 0 -0.011755 0 2650 
143 1 0.013105 0.00318381 0.003332 0.000291 0 -0.011755 0 2650 
210 1 0.010971 0.00517681 0.002357 0.001058 0 -0.011755 0 2650 
52 1 0.000346074 0.00847384 0.00375605 0.001058 -0.072503 -0.0176047 -0.00772499 2650 
101 1 0.004812 0.0107518 0.002517 0.000291 0 -0.011755 0 2650 
294 1 0.006997 0.0100358 0.003581 0.001058 0 -0.011755 0 2650 
267 1 0.007574 0.00228081 0.005778 0.000291 0 -0.011755 0 2650 
305 1 0.007934 0.00302281 0.005234 0.000105 0 -0.011755 0 2650 
50 1 0.006699 0.00426381 0.005883 0.001058 0 -0.011755 0 2650 
150 1 0.010064 0.00436481 0.004311 0.000291 0 -0.011755 0 2650 
212 1 0.001087 0.0105458 0.005915 0.000291 0 -0.011755 0 2650 
24 1 0.005464 0.0101178 0.005551 0.000105 0 -0.011755 0 2650 
51 1 0.009662 0.0111908 0.004577 0.001058 0 -0.011755 0 2650 
244 1 0.014869 0.0106038 0.00421 0.001058 0 -0.011755 0 2650 
79 1 0.014214 0.0130308 0.005058 0.000291 0 -0.011755 0 2650 
118 1 0.001179 0.00244581 0.007467 0.000291 0 -0.011755 0 2650 
207 1 0.000324 0.00570281 0.006532 0.000291 0 -0.011755 0 2650 
232 1 0.003256 0.00501481 0.007333 0.001058 0 -0.011755 0 2650 
174 1 0.002361 0.00401681 0.006466 0.000291 0 -0.011755 0 2650 
208 1 0.009461 0.00637881 0.007837 0.001058 0 -0.011755 0 2650 
231 1 0.006459 0.00974281 0.007445 0.001058 0 -0.011755 0 2650 
301 1 0.00033847 0.0120663 0.00611081 0.001058 0.0261893 0.0102774 0.0529802 2650 
222 1 0.009219 0.0123898 0.006833 0.001058 0 -0.011755 0 2650 
112 1 0.013668 0.0133538 0.007002 0.000105 0 -0.011755 0 2650 
193 1 0.00667476 0.0014982 0.00941055 0.00164 -0.00920003 -0.0416499 -0.0118576 2650 
243 1 0.01084 0.000514805 0.008454 0.001058 0 -0.011755 0 2650 
145 1 0.003739 0.0114748 0.008626 0.00164 0 -0.011755 0 2650 
194 1 0.007709 0.0105218 0.009989 0.001058 0 -0.011755 0 2650 
1 1 0.002172 0.00301881 0.010007 0.00164 0 -0.011755 0 2650 
228 1 0.010294 0.00352581 0.01009 0.000291 0 -0.011755 0 2650 
103 1 0.005979 0.00672081 0.01127 0.000291 0 -0.011755 0 2650 
258 1 0.009255 0.00781181 0.010506 0.001058 0 -0.011755 0 2650 
66 1 0.001767 0.0104028 0.01167 0.001058 0 -0.011755 0 2650 
298 1 0.003487 0.0114528 0.011695 0.000105 0 -0.011755 0 2650 
126 1 0.001803 0.0131668 0.01041 0.000291 0 -0.011755 0 2650 
184 1 0.009563 0.00132281 0.012192 0.000105 0 -0.011755 0 2650 
3 1 0.001912 0.00310581 0.013741 0.001058 0 -0.011755 0 2650 
287 1 0.006558 0.00610681 0.013233 0.001058 0 -0.011755 0 2650 
95 1 0.006942 0.00816781 0.013027 0.000291 0 -0.011755 0 2650 
82 1 0.000755 0.00568981 0.014898 0.001058 0 -0.011755 0 2650 
