ITEM: TIMESTEP
5062600
ITEM: NUMBER OF ATOMS
300
ITEM: BOX BOUNDS ff ff ff
-0.15 0.15
-0.15 0.15
-0.15 0.15
ITEM: ATOMS id type x y z radius vx vy vz density 
23 1 -0.0031572 -0.020076 -0.0686342 0.000291 -4.64798 -0.273861 0.202452 2650 
189 1 -0.00498714 -0.013682 -0.0685255 0.000291 -6.36129 1.74592 0.474115 2650 
188 1 -0.00172734 -0.0599083 -0.0679097 0.001058 -8.08218 -0.112977 0.194205 2650 
21 1 -0.030025 -0.0446135 -0.061826 0.000291 -6.58962 0.196816 3.20769 2650 
236 1 -0.0354591 -0.048353 -0.0579821 0.001058 -7.16153 -0.0196539 4.33479 2650 
239 1 -0.0413206 -0.040729 -0.0539418 0.001058 -5.77423 0.0300718 4.42563 2650 
5 1 -0.0465963 -0.0160046 -0.0504924 0.000291 -4.04999 0.134133 3.73334 2650 
247 1 -0.0512105 -0.0413311 -0.0456434 0.000291 -3.24032 -1.57724 3.63468 2650 
221 1 -0.053887 -0.0249523 -0.0426231 0.000291 -3.39404 -0.484363 4.42788 2650 
172 1 -0.0536562 -0.0347186 -0.0416798 0.001058 -4.52914 -0.071978 5.94094 2650 
290 1 -0.0562399 -0.0427901 -0.0394443 0.000291 -4.29982 0.041483 6.20751 2650 
241 1 -0.06003 -0.015106 -0.0334668 0.000291 -2.13021 0.262649 3.98375 2650 
148 1 -0.0607762 -0.0334951 -0.0303665 0.001058 -3.59777 -0.488005 7.14361 2650 
185 1 -0.0594259 -0.0280933 -0.0317282 0.00164 -3.39001 0.116314 6.41136 2650 
107 1 -0.0606257 -0.0171265 -0.0307308 0.001058 -3.09134 -0.04406 6.05129 2650 
219 1 -0.0622815 -0.000291017 -0.0290142 0.000291 -2.60419 0.000271487 5.61975 2650 
162 1 -0.0646378 -0.0220855 -0.0209729 0.001058 -1.5259 -0.019971 4.5795 2650 
255 1 -0.0656198 -0.0178195 -0.0204411 0.000291 -1.03853 -0.203637 3.53481 2650 
140 1 -0.0663394 -0.0255947 -0.0146852 0.001058 -1.18609 -0.161646 5.48183 2650 
32 1 -0.00123034 -0.00285772 -0.0142743 0.000105 0.0177891 -0.0340422 0.0104261 2650 
63 1 -0.0674253 -0.00282039 -0.0132074 0.000291 -1.24652 -0.473231 6.30635 2650 
295 1 -0.006507 -0.00145049 -0.01264 0.000291 0 -0.011755 0 2650 
163 1 -0.00595832 -0.00283864 -0.0108587 0.001058 -0.193298 0.0408392 -0.115155 2650 
218 1 -0.00407343 -0.00336458 -0.0100392 0.001058 -0.0315784 -0.0795798 -0.459182 2650 
108 1 -0.00677304 -0.00103446 -0.00920915 0.001058 0.00190399 -0.0137697 -0.00130751 2650 
200 1 -0.012172 -0.00221749 -0.006974 0.000105 0 -0.011755 0 2650 
293 1 -0.009422 -0.00293049 -0.006923 0.001058 0 -0.011755 0 2650 
203 1 -0.00431854 -0.00111813 -0.0064701 0.001058 0.00519762 -0.0130265 -0.00216702 2650 
214 1 -0.008446 -0.00250749 -0.004092 0.000291 0 -0.011755 0 2650 
137 1 -0.0030072 -0.00315728 -0.00468371 0.00164 -0.0306173 -0.00684318 0.0262193 2650 
76 1 -0.00222446 -0.000228936 -0.00559027 0.001058 0.00563223 -0.0106236 0.000699054 2650 
135 1 -0.00487262 -6.82461e-05 -0.0039793 0.000291 -0.0060505 -0.00140209 -0.0140303 2650 
122 1 -0.00162797 -0.00266336 0.000345427 0.001058 0.000509879 -0.0115361 4.72204e-06 2650 
14 1 -0.006378 -0.000126486 0.001478 0.000291 0 -0.011755 0 2650 
181 1 -0.0685548 -0.0193808 0.00321713 0.000291 0.149197 0.0492663 5.08611 2650 
272 1 -0.001203 -0.00272349 0.002609 0.001058 0 -0.011755 0 2650 
49 1 -0.00739099 -0.00251435 0.00507624 0.00164 -0.00117613 -0.0103924 0.00305129 2650 
97 1 -0.0137485 -0.000497019 0.00457785 0.00164 0.00016333 0.00117645 -0.00616736 2650 
206 1 -0.0186488 -0.00516016 0.00738947 0.000291 -1.63884 -0.391638 0.68958 2650 
235 1 -0.001066 -0.00296749 0.007831 0.000291 0 -0.011755 0 2650 
64 1 -0.001837 -0.00254249 0.007035 0.000105 0 -0.011755 0 2650 
111 1 -0.009474 -0.00289749 0.008964 0.000291 0 -0.011755 0 2650 
146 1 -0.0670539 -0.0492834 0.0110479 0.001058 1.30859 -0.049008 7.86871 2650 
16 1 -0.0678983 -0.0160795 0.0116674 0.000105 0.594367 -0.240093 3.45138 2650 
233 1 -0.001796 -0.000209486 0.010436 0.000291 0 -0.011755 0 2650 
44 1 -0.00781371 -0.00273228 0.0121964 0.001058 -0.00404063 -0.0246456 0.0210529 2650 
29 1 -0.00747399 -0.00142313 0.0132442 0.000291 -0.00299886 -0.0148378 0.021138 2650 
179 1 -0.0663737 -0.0483895 0.0146142 0.001058 1.7084 -0.0540596 7.80352 2650 
192 1 -0.0661539 -0.000105055 0.0192352 0.000105 1.37485 -0.00131186 4.56709 2650 
36 1 -0.0634175 -0.0236239 0.0244034 0.001058 2.80332 0.00889898 7.32585 2650 
62 1 -0.0625274 -0.0203646 0.0285182 0.000291 1.96847 0.061342 4.38613 2650 
166 1 -0.0583211 -0.0234994 0.0363318 0.000291 2.0663 -0.321299 3.31378 2650 
90 1 -0.0561012 -0.0506985 0.0383208 0.001058 4.45614 0.275996 6.64564 2650 
149 1 -0.0547034 -0.0134694 0.0415844 0.000291 1.95004 -0.414925 2.51341 2650 
158 1 -0.0539776 -0.00517603 0.0425092 0.000291 1.95703 -0.110858 2.53953 2650 
83 1 -0.0469861 -0.0410061 0.0490809 0.001058 4.34499 0.73985 4.17362 2650 
86 1 -0.0471197 -0.0105697 0.0500037 0.000291 3.95015 -0.175901 3.75461 2650 
2 1 -0.0416733 -0.0225831 0.0536705 0.001058 4.68394 -0.0696622 3.62547 2650 
73 1 -0.0395446 -0.0470596 0.054552 0.00164 6.75078 -0.0937865 4.85863 2650 
40 1 -0.0253268 -0.01762 0.0640932 0.000105 3.37005 -0.183456 1.33498 2650 
25 1 -0.00648009 -0.0547091 0.0670498 0.00164 9.1908 -0.0375046 0.93495 2650 
89 1 -0.0122815 -0.0509068 0.0662287 0.00164 8.82119 -0.0775118 1.66925 2650 
85 1 -0.003548 0.00203251 -0.015444 0.000291 0 -0.011755 0 2650 
70 1 -0.002345 0.00383451 -0.015511 0.000291 0 -0.011755 0 2650 
198 1 -0.00980639 0.00355287 -0.0130649 0.000291 0.0955329 0.0282268 -0.0505515 2650 
155 1 -0.00858164 0.00202338 -0.0132481 0.001058 -0.0411708 -0.00135317 0.0274226 2650 
33 1 -0.003866 0.00689751 -0.012959 0.00164 0 -0.011755 0 2650 
157 1 -0.00791109 0.00948587 -0.0125782 0.000291 -0.00207055 0.0624285 -0.0124977 2650 
47 1 -0.011528 0.00448251 -0.010748 0.000291 0 -0.011755 0 2650 
17 1 -0.00951633 0.00408797 -0.0109092 0.00164 -0.00748882 0.0226744 0.0266386 2650 
234 1 -0.00604895 0.00571789 -0.0106181 0.000291 -0.02134 0.00563614 -0.0027496 2650 
115 1 -0.0113029 0.0064521 -0.0109925 0.001058 -0.022819 0.0251815 0.025778 2650 
94 1 -0.011581 0.00895951 -0.01188 0.000291 0 -0.011755 0 2650 
250 1 -0.0117289 0.00268029 -0.0099176 0.001058 0.00273404 -0.00245883 0.0388004 2650 
175 1 -0.013247 0.00452251 -0.008751 0.000291 0 -0.011755 0 2650 
144 1 -0.0119933 0.00967695 -0.00836397 0.000105 -0.0067045 -0.00749758 0.00296249 2650 
127 1 -0.010481 0.0164405 -0.00974669 0.000291 -0.00885864 0.0707893 -0.0549482 2650 
180 1 -0.0104199 0.004868 -0.00677095 0.001058 0.0584365 0.0813871 -0.0401553 2650 
187 1 -0.0131789 0.0114743 -0.00636422 0.001058 -0.0112156 -0.0033076 -0.00319333 2650 
41 1 -0.00817051 0.011138 -0.00637949 0.00164 0.0102042 0.00860529 0.0210319 2650 
220 1 -0.0150233 0.0160749 -0.00612816 0.000291 0.00605419 0.00724476 0.0145131 2650 
240 1 -0.010392 0.00512451 -0.005262 0.000291 0 -0.011755 0 2650 
276 1 -0.013674 0.00606651 -0.004231 0.000291 0 -0.011755 0 2650 
74 1 -0.012237 0.00646451 -0.004721 0.001058 0 -0.011755 0 2650 
159 1 -0.012707 0.00906051 -0.00588 0.000291 0 -0.011755 0 2650 
256 1 -0.0142016 0.0109263 -0.00548548 0.000291 -0.0123982 -0.000129637 -0.00545733 2650 
273 1 -0.000868292 0.0115867 -0.00432512 0.001058 -0.00402366 0.037385 0.0311551 2650 
136 1 -0.00854378 0.0513825 -0.00555971 0.000105 0.0375902 0.10168 0.0199891 2650 
270 1 -0.000965764 0.000147895 -0.00311984 0.000291 0.0186853 -0.00788795 0.00123148 2650 
274 1 -0.016349 0.00293151 -0.002509 0.000291 0 -0.011755 0 2650 
211 1 -0.0134163 0.0025904 -0.00227795 0.001058 0.00124469 0.00903567 0.0095983 2650 
13 1 -0.014201 0.00516651 -0.003882 0.000291 0 -0.011755 0 2650 
104 1 -0.014089 0.00584851 -0.003012 0.000105 0 -0.011755 0 2650 
114 1 -0.012695 0.00459835 -0.0027017 0.001058 0.00420056 0.00598853 -0.00780411 2650 
292 1 -0.00350488 0.00619678 -0.00318655 0.001058 -0.0106891 0.0150856 0.0499339 2650 
7 1 -0.0073901 0.0160587 -0.00304811 0.000291 0.00378858 0.0136367 -0.000251809 2650 
209 1 -0.0127302 0.00569949 -0.000739173 0.001058 -0.00441841 -0.000242019 0.00251594 2650 
123 1 -0.00738154 0.00452169 -0.0016705 0.001058 0.093068 0.053027 -0.013541 2650 
87 1 -0.0137021 0.00741168 -0.000136076 0.000291 0.080261 0.0295186 0.071622 2650 
61 1 -0.016439 0.00877851 -0.001038 0.000291 0 -0.011755 0 2650 
10 1 -0.0138248 0.00789731 -0.00173694 0.001058 -0.00603352 -0.00346171 -0.00631144 2650 
65 1 -0.00989978 0.0136806 -0.00196101 0.00164 -0.00348018 0.0119066 0.00345508 2650 
75 1 -0.0150371 0.016141 -3.88063e-05 0.001058 0.0206685 0.0556886 -0.0248334 2650 
191 1 -0.0108 0.00120551 0.001549 0.000291 0 -0.011755 0 2650 
296 1 -0.005879 0.000351514 0.000521 0.000291 0 -0.011755 0 2650 
168 1 -0.007536 0.00221651 0.001389 0.000105 0 -0.011755 0 2650 
120 1 -0.016055 0.00441851 0.000189 0.000105 0 -0.011755 0 2650 
80 1 -0.014935 0.00711651 0.00039 0.000105 0 -0.011755 0 2650 
52 1 -0.0125408 0.00774617 0.00182031 0.001058 0.0211275 0.044604 -0.00932287 2650 
268 1 -0.011054 0.00764051 0.000789 0.000291 0 -0.011755 0 2650 
129 1 -0.00822953 0.00780768 0.00172899 0.00164 0.0035976 -0.00912701 -0.00133207 2650 
57 1 -0.000831869 0.0172785 0.000382636 0.00164 0.0230994 0.0154402 0.0436737 2650 
54 1 -0.0135389 0.024065 0.000698992 0.000291 0.0409131 0.0218291 0.0638832 2650 
18 1 -0.005138 0.00141051 0.00212 0.001058 0 -0.011755 0 2650 
99 1 -0.0118131 0.00321488 0.00328374 0.001058 0.0440105 0.0260349 -0.0124724 2650 
176 1 -0.003983 0.00575551 0.002552 0.000105 0 -0.011755 0 2650 
124 1 -0.015393 0.00620301 0.00350125 0.001058 0.000949956 0.0462071 0.00992246 2650 
98 1 -0.0018208 0.00195413 0.00482449 0.001058 -0.000872989 -0.0147225 -0.00989819 2650 
170 1 -0.011454 0.00394392 0.00529169 0.001058 0.00672221 -0.00141463 0.0184147 2650 
53 1 -0.000389 0.00249351 0.004762 0.000291 0 -0.011755 0 2650 
164 1 -0.003894 0.00479151 0.005467 0.001058 0 -0.011755 0 2650 
106 1 -0.0132164 0.00689542 0.00562584 0.001058 0.0124054 0.0227789 -0.00267195 2650 
291 1 -0.008194 0.00916551 0.004767 0.000291 0 -0.011755 0 2650 
28 1 -0.013504 0.0100082 0.00537009 0.001058 0.00069719 0.0289887 -0.00109375 2650 
77 1 -0.0109462 0.0100487 0.00407306 0.000291 0.0279429 0.00178097 -0.016803 2650 
242 1 -0.00689044 0.0112878 0.00448703 0.000291 -0.00954886 0.00781474 0.00295974 2650 
35 1 -0.000491726 0.00316678 0.00684945 0.001058 0.00654177 -0.0105187 -0.00962265 2650 
266 1 -0.014058 0.00476882 0.00730774 0.001058 0.000122601 0.0202575 -0.000437866 2650 
186 1 -0.006177 0.00710751 0.006545 0.001058 0 -0.011755 0 2650 
58 1 -0.0119323 0.00237218 0.0091715 0.001058 -0.0110314 -0.00690385 0.0214168 2650 
202 1 -2.52262e-06 0.0043984 0.00915224 0.001058 0.00953014 -0.00871599 -0.0138173 2650 
4 1 -0.0134799 0.00832766 0.00830533 0.001058 0.000108003 -0.0117359 -6.84365e-05 2650 
304 1 -0.012709 0.00844651 0.009818 0.000291 0 -0.011755 0 2650 
153 1 -0.00105405 0.00843414 0.00962902 0.00164 0.00905173 -0.00370467 -0.0193596 2650 
300 1 -0.0106511 0.0041328 0.0116064 0.001058 -0.00517848 -0.00941929 -0.00460978 2650 
299 1 -0.010562 0.00688751 0.010709 0.001058 0 -0.011755 0 2650 
126 1 -0.000131833 0.00639193 0.011291 0.000291 -0.00909177 -0.0182309 -0.0255133 2650 
55 1 -0.01171 0.00891451 0.01034 0.000291 0 -0.011755 0 2650 
71 1 -0.00159257 0.00863103 0.0116454 0.000291 0.000861808 -0.00718564 -0.0173142 2650 
68 1 -0.00399151 0.010158 0.010403 0.001058 0.00272783 -0.00342387 -0.00169301 2650 
238 1 -0.0074277 0.0129244 0.0105757 0.001058 0.0105136 0.0371874 0.0344704 2650 
249 1 -0.00507559 0.0145743 0.0114712 0.000291 0.00987628 0.0185258 -0.0129358 2650 
217 1 -0.0100411 0.017401 0.0118002 0.001058 0.000747792 0.0265619 -0.00553463 2650 
226 1 -0.009224 0.000762514 0.012787 0.000291 0 -0.011755 0 2650 
251 1 -0.00768539 0.000526112 0.012849 0.001058 0.00250988 -0.0244938 -0.0113208 2650 
195 1 -0.00192365 0.00341857 0.0137687 0.001058 0.0313239 0.00714568 0.0424302 2650 
285 1 -0.008343 0.00448274 0.0133834 0.001058 -0.00798287 -0.013356 -0.00552209 2650 
224 1 -0.00657886 0.0106017 0.0131321 0.001058 -0.00376938 0.00554818 0.00221201 2650 
245 1 -0.0053969 0.0365512 0.0122872 0.001058 0.013355 0.0538623 -0.0223836 2650 
91 1 -0.00894457 0.0608174 0.0130273 0.001058 -0.0201117 0.131078 0.100392 2650 
265 1 -0.000465 0.00541851 0.015551 0.001058 0 -0.011755 0 2650 
121 1 0.00509829 -0.0239165 -0.0671591 0.00164 -6.64617 0.0123648 -0.592404 2650 
182 1 0.0115418 -0.011205 -0.0677346 0.000291 -3.99445 0.0246159 -0.516082 2650 
42 1 0.0300485 -0.0291746 -0.060938 0.001058 -4.08818 -0.110669 -2.06133 2650 
15 1 0.0367338 -0.022306 -0.0580733 0.000291 -4.35385 0.0114613 -2.71525 2650 
184 1 0.0408316 -0.00588529 -0.0533 0.000105 -1.02018 -0.195608 -3.58525 2650 
93 1 0.0459174 -0.0426414 -0.0511102 0.000291 -5.48798 -0.172216 -4.93978 2650 
243 1 0.054751 -0.0181133 -0.0402405 0.001058 -2.23974 -0.321046 -3.20695 2650 
230 1 0.0581433 -0.0375575 -0.0351639 0.001058 -3.89902 0.110788 -6.44905 2650 
26 1 0.0597262 -0.024492 -0.032396 0.001058 -3.58296 0.0451555 -6.58105 2650 
169 1 0.0595196 -0.0539694 -0.0315813 0.00164 -4.46291 0.143441 -8.37179 2650 
43 1 0.0618217 -0.0294751 -0.028184 0.001058 -1.81348 -0.219388 -4.06667 2650 
257 1 0.0632756 -0.0342079 -0.0247438 0.001058 -2.92647 -0.0761798 -7.4017 2650 
22 1 0.0669953 -0.0467957 -0.0153353 0.000291 -1.61909 -0.158477 -6.99604 2650 
72 1 0.0670399 -0.020531 -0.0156651 0.000105 -1.28254 -1.09934 -7.00774 2650 
165 1 0.067009 -0.0199502 -0.0152465 0.000291 -1.53426 0.108496 -6.79687 2650 
167 1 0.0669149 -0.0157932 -0.0156793 0.000291 -1.13351 0.044776 -4.79415 2650 
46 1 0.007499 -0.000110486 -0.014091 0.000291 0 -0.011755 0 2650 
237 1 0.005321 -0.000847486 -0.012467 0.001058 0 -0.011755 0 2650 
213 1 0.001757 -0.00252249 -0.008127 0.000291 0 -0.011755 0 2650 
259 1 0.00627279 -0.00146963 -0.00997888 0.001058 -0.000549325 -0.010947 -0.00390661 2650 
30 1 0.005625 -0.00284449 -0.00604 0.000291 0 -0.011755 0 2650 
141 1 0.00444139 -0.00295563 -0.00686079 0.000291 0.00768775 -0.0334649 -0.00346465 2650 
281 1 0.0685695 -0.0441351 -0.00434915 0.000291 -0.56067 -0.591967 -8.79427 2650 
197 1 0.007512 -0.00270649 -0.004043 0.000291 0 -0.011755 0 2650 
178 1 0.00360667 -0.000954887 -0.00542746 0.001058 -0.000609858 -0.0102344 0.00251423 2650 
173 1 0.002644 -0.00319949 -0.002982 0.000291 0 -0.011755 0 2650 
171 1 0.000459 -0.00170549 -0.002783 0.001058 0 -0.011755 0 2650 
39 1 0.0687036 -0.0162895 -0.000759784 0.000291 -0.0757783 -0.892907 -7.08087 2650 
6 1 0.004141 -0.00227349 -0.001643 0.000291 0 -0.011755 0 2650 
183 1 0.01481 -0.00163249 0.000242 0.000291 0 -0.011755 0 2650 
277 1 0.015014 -0.00125449 0.001212 0.000291 0 -0.011755 0 2650 
282 1 0.068645 -0.0242173 0.00291342 0.000291 0.177194 -0.164343 -3.72042 2650 
225 1 0.00267064 -0.0028405 0.0026613 0.001058 0.00708761 -0.0203745 0.00240761 2650 
143 1 0.013105 -0.00116549 0.003332 0.000291 0 -0.011755 0 2650 
56 1 0.0310352 -0.00433049 0.00584191 0.000105 4.82138 -0.112813 0.907554 2650 
264 1 0.00471892 -0.00302688 0.0044218 0.001058 0.00986357 -0.0168992 0.00678629 2650 
267 1 0.007574 -0.00206849 0.005778 0.000291 0 -0.011755 0 2650 
50 1 0.006699 -8.54863e-05 0.005883 0.001058 0 -0.011755 0 2650 
305 1 0.007934 -0.00132649 0.005234 0.000105 0 -0.011755 0 2650 
118 1 0.001179 -0.00190349 0.007467 0.000291 0 -0.011755 0 2650 
174 1 0.002361 -0.000332486 0.006466 0.000291 0 -0.011755 0 2650 
1 1 0.00515985 -0.00139388 0.00823191 0.00164 0.0524342 0.0261576 0.025961 2650 
228 1 0.010294 -0.000823486 0.01009 0.000291 0 -0.011755 0 2650 
69 1 0.0673636 -0.0346687 0.0135159 0.000291 1.97609 -0.127675 -9.86191 2650 
152 1 0.0678402 -0.0189973 0.01206 0.000105 0.921112 -0.226846 -5.03855 2650 
254 1 0.00216086 -0.00260219 0.0140408 0.000291 0.0485398 -0.0270077 0.0413731 2650 
151 1 0.0662384 -0.0193375 0.018322 0.000291 1.79203 0.0683124 -6.39434 2650 
20 1 0.0629818 -0.0499435 0.0255562 0.001058 3.5346 -0.392326 -8.7172 2650 
204 1 0.010431 -0.0060001 0.0297593 0.001058 1.57834 -0.243584 4.55788 2650 
193 1 0.0600285 -0.0292475 0.0305774 0.00164 4.23837 -0.160978 -8.25032 2650 
229 1 0.05995 -0.0478155 0.0320252 0.001058 4.22681 0.139808 -7.92763 2650 
125 1 0.0584152 -0.0417365 0.0361933 0.000291 4.77379 0.281097 -7.71954 2650 
131 1 0.0572573 -0.0207276 0.0366027 0.001058 3.30969 0.0411905 -5.15702 2650 
297 1 0.0573245 -0.0253941 0.0378796 0.000291 3.97866 -0.518686 -6.06695 2650 
283 1 0.0550053 -0.0189503 0.0411856 0.000291 4.08094 0.0719993 -5.53639 2650 
215 1 0.0458291 -0.0381629 0.0501611 0.001058 6.44892 0.131807 -5.93749 2650 
288 1 0.045766 -0.026048 0.0512327 0.000291 4.46787 -0.250611 -3.94739 2650 
34 1 0.0447535 -0.0138068 0.0510898 0.001058 6.14871 0.279518 -5.3132 2650 
280 1 0.0375141 -0.022384 0.0566598 0.001058 5.62737 -0.488716 -3.64809 2650 
84 1 0.0359638 -0.0181325 0.0576613 0.001058 6.61165 -0.0777556 -4.12615 2650 
109 1 0.0369916 -0.0588053 0.0578979 0.000291 5.86546 0.376495 -3.72159 2650 
119 1 0.0346428 -0.0523407 0.0593488 0.000291 4.57467 0.199163 -2.66056 2650 
138 1 0.0328478 -0.0386178 0.0594862 0.001058 6.74211 -0.0737657 -3.74063 2650 
133 1 0.0367443 -0.0226892 0.0580645 0.000291 6.59855 -0.399365 -4.14529 2650 
302 1 0.0365016 -0.0194358 0.0582183 0.000291 2.80897 -0.393093 -1.76937 2650 
132 1 0.0236868 -0.0248537 0.0636845 0.001058 4.28591 -0.35116 -1.58679 2650 
8 1 0.0160046 -0.0201493 0.0670233 0.000105 3.57997 -0.0852328 -0.827661 2650 
248 1 0.000471823 -0.000680094 0.0687079 0.000291 4.82661 -0.177711 -0.01275 2650 
303 1 0.001598 0.000452514 -0.015917 0.000291 0 -0.011755 0 2650 
160 1 0.004468 0.00157551 -0.014641 0.000105 0 -0.011755 0 2650 
130 1 1.4e-05 0.00254351 -0.015674 0.001058 0 -0.011755 0 2650 
269 1 0.002277 0.00271651 -0.015181 0.000291 0 -0.011755 0 2650 
37 1 0.006156 0.00847851 -0.015157 0.000291 0 -0.011755 0 2650 
263 1 0.006877 0.00197251 -0.012319 0.000291 0 -0.011755 0 2650 
289 1 0.001465 0.00313951 -0.012477 0.000291 0 -0.011755 0 2650 
142 1 0.002378 0.00355451 -0.013184 0.000291 0 -0.011755 0 2650 
252 1 0.00245 0.00684951 -0.01336 0.001058 0 -0.011755 0 2650 
78 1 0.001258 0.00846451 -0.012517 0.000291 0 -0.011755 0 2650 
196 1 0.002599 0.000445514 -0.011929 0.001058 0 -0.011755 0 2650 
201 1 0.00894281 0.00199595 -0.0106645 0.00164 0.00137105 -0.0114185 -0.003869 2650 
105 1 0.00390006 0.00723251 -0.010881 0.00164 0.0492897 0.00663295 -0.0327282 2650 
275 1 0.012705 0.00621151 -0.010476 0.000291 0 -0.011755 0 2650 
110 1 0.010451 0.00875551 -0.010748 0.000291 0 -0.011755 0 2650 
139 1 0.00589275 0.0159586 -0.0109298 0.001058 0.0127696 0.00849352 0.0230521 2650 
67 1 0.00609029 0.00401769 -0.00864861 0.001058 -0.020884 0.0142907 -0.00966941 2650 
116 1 0.00180035 0.00671214 -0.00890783 0.001058 0.0382435 0.0489782 0.0372506 2650 
147 1 0.0130083 0.00695591 -0.00882378 0.001058 -0.0386576 0.0485348 -0.0524987 2650 
102 1 0.003423 0.00187751 -0.006065 0.000291 0 -0.011755 0 2650 
117 1 0.004754 0.00213951 -0.007063 0.000291 0 -0.011755 0 2650 
134 1 0.0110526 0.00300313 -0.00674215 0.000291 -0.0128132 0.00355392 -0.00692922 2650 
60 1 0.007579 0.00478051 -0.006312 0.001058 0 -0.011755 0 2650 
45 1 0.010575 0.00470051 -0.007722 0.000291 0 -0.011755 0 2650 
246 1 0.001376 0.00137851 -0.005453 0.001058 0 -0.011755 0 2650 
260 1 0.0111007 0.00183724 -0.0054131 0.000291 -0.00392275 0.00411325 -0.00447499 2650 
92 1 0.0106258 0.00261598 -0.00430837 0.001058 -0.00204015 0.0110184 -0.00170939 2650 
161 1 0.0131617 0.00233758 -0.0052785 0.00164 0.0015934 0.00883809 0.00257892 2650 
279 1 0.0114304 0.00463547 -0.00562446 0.001058 -0.00964361 0.0081718 -0.00160366 2650 
199 1 0.014464 0.00519151 -0.004562 0.000291 0 -0.011755 0 2650 
278 1 7.4e-05 0.00729151 -0.004448 0.001058 0 -0.011755 0 2650 
271 1 0.00285433 0.00674151 -0.00531351 0.001058 0.0150184 -0.010407 0.010297 2650 
19 1 0.013799 0.00636351 -0.005439 0.001058 0 -0.011755 0 2650 
284 1 0.014191 0.00807151 -0.005949 0.000291 0 -0.011755 0 2650 
88 1 0.002864 4.51371e-06 -0.002457 0.000105 0 -0.011755 0 2650 
177 1 0.00585869 0.000724168 -0.00295094 0.00164 -0.00977706 -0.00608305 0.00419202 2650 
253 1 0.014729 0.00354951 -0.002617 0.000291 0 -0.011755 0 2650 
227 1 0.00944 0.00537851 -0.002109 0.000291 0 -0.011755 0 2650 
154 1 0.00233276 0.0305197 -0.00304661 0.001058 0.00678339 0.101014 -0.0544466 2650 
205 1 0.00409476 0.00060844 -0.0017321 0.000291 -0.0110629 -0.00953223 0.00618698 2650 
113 1 0.0103327 0.0030411 -0.00163425 0.00164 -0.000152922 -0.0104668 0.00259679 2650 
190 1 0.005899 0.00808051 -0.000534 0.000291 0 -0.011755 0 2650 
81 1 0.007451 0.00149751 7.8e-05 0.00164 0 -0.011755 0 2650 
96 1 0.009869 0.000134514 0.000788 0.000105 0 -0.011755 0 2650 
261 1 0.011218 0.00167351 0.000328 0.000291 0 -0.011755 0 2650 
128 1 0.00361 0.00767951 0.000511 0.000105 0 -0.011755 0 2650 
48 1 0.009671 0.00597251 0.000233 0.000105 0 -0.011755 0 2650 
9 1 0.012984 0.00771751 0.000468 0.00164 0 -0.011755 0 2650 
286 1 0.015584 0.00838551 0.000132 0.001058 0 -0.011755 0 2650 
223 1 0.00387443 0.000403335 0.00261024 0.001058 0.0245989 -0.00855677 0.00804702 2650 
210 1 0.010971 0.000827514 0.002357 0.001058 0 -0.011755 0 2650 
294 1 0.006997 0.00568651 0.003581 0.001058 0 -0.011755 0 2650 
101 1 0.004812 0.00640251 0.002517 0.000291 0 -0.011755 0 2650 
150 1 0.010064 1.55137e-05 0.004311 0.000291 0 -0.011755 0 2650 
24 1 0.005464 0.00576851 0.005551 0.000105 0 -0.011755 0 2650 
212 1 0.001087 0.00619651 0.005915 0.000291 0 -0.011755 0 2650 
51 1 0.009662 0.00684151 0.004577 0.001058 0 -0.011755 0 2650 
244 1 0.014869 0.00625451 0.00421 0.001058 0 -0.011755 0 2650 
79 1 0.014214 0.00868151 0.005058 0.000291 0 -0.011755 0 2650 
207 1 0.000324 0.00135351 0.006532 0.000291 0 -0.011755 0 2650 
232 1 0.00585408 0.00185735 0.00692517 0.001058 0.0545234 0.0132569 -0.0085581 2650 
208 1 0.009461 0.00202951 0.007837 0.001058 0 -0.011755 0 2650 
231 1 0.006459 0.00539351 0.007445 0.001058 0 -0.011755 0 2650 
222 1 0.009219 0.00804051 0.006833 0.001058 0 -0.011755 0 2650 
112 1 0.013668 0.00900451 0.007002 0.000105 0 -0.011755 0 2650 
145 1 0.00419344 0.00690561 0.00833354 0.00164 0.00187104 -0.0124115 -0.00192682 2650 
194 1 0.007709 0.00617251 0.009989 0.001058 0 -0.011755 0 2650 
301 1 0.00499448 0.0185278 0.00959336 0.001058 0.00272587 0.0220862 -0.0290146 2650 
11 1 0.000407425 0.0581102 0.00890335 0.001058 0.0558568 0.128502 0.0118077 2650 
103 1 0.005979 0.00237151 0.01127 0.000291 0 -0.011755 0 2650 
287 1 0.00762232 0.00373934 0.0116086 0.001058 0.00168371 -0.00107425 -0.00571495 2650 
258 1 0.00941866 0.00348262 0.0103734 0.001058 0.00530579 -0.0111032 -0.00429955 2650 
100 1 0.00536843 0.00409514 0.0111362 0.001058 0.019732 -0.0136041 -0.00483564 2650 
66 1 0.00419793 0.00882422 0.0113794 0.001058 0.00846641 -0.000759158 0.00162513 2650 
3 1 0.00832761 0.000682777 0.0129032 0.001058 0.0142352 -0.00932944 -0.0092621 2650 
95 1 0.00690351 0.00453129 0.0132584 0.000291 -0.000366951 -0.00495937 0.00220646 2650 
298 1 0.0059323 0.00819105 0.0123855 0.000105 0.012752 -0.00608362 0.00360111 2650 
156 1 0.00217655 0.0119503 0.0133435 0.001058 0.00957299 -0.000303602 -0.00985815 2650 
82 1 0.000755 0.00134051 0.014898 0.001058 0 -0.011755 0 2650 
59 1 0.00524184 0.000170195 0.0143635 0.001058 0.0809307 -0.00391317 0.137802 2650 
38 1 0.00398324 0.00239641 0.0159427 0.000291 -0.0300402 0.0227875 -0.0736261 2650 
