ITEM: TIMESTEP
20497449
ITEM: NUMBER OF ATOMS
264
ITEM: BOX BOUNDS ff ff ff
-0.15 0.15
-0.15 0.15
-0.15 0.15
ITEM: ATOMS id type x y z radius vx vy vz density 
294 1 -0.00287415 -0.0299536 -0.0678877 0.001058 -10.483 0.0370499 0.44114 2650 
26 1 -0.0170943 -0.0495455 -0.0657821 0.001058 -10.333 0.000161351 2.68517 2650 
78 1 -0.0259555 -0.049289 -0.0636416 0.000291 -9.77557 0.109442 3.98577 2650 
126 1 -0.0255746 -0.0346978 -0.0637663 0.000291 -8.67792 0.607087 3.48154 2650 
240 1 -0.0397057 -0.0342436 -0.0560715 0.000291 -7.79273 0.0485678 5.51091 2650 
34 1 -0.0480335 -0.030875 -0.0482516 0.001058 -7.57935 -2.12564e-08 7.54508 2650 
185 1 -0.0502227 -0.0518708 -0.0449086 0.00164 -7.05455 -0.000580011 7.88936 2650 
81 1 -0.0527661 -0.0500123 -0.0418987 0.00164 -6.58157 0.000690078 8.2886 2650 
162 1 -0.0533362 -0.0473835 -0.0421065 0.001058 -6.61307 0.000821045 8.37671 2650 
42 1 -0.0542069 -0.0548166 -0.0409739 0.001058 -6.43694 0.000741847 8.51578 2650 
172 1 -0.0560538 -0.0546126 -0.0384132 0.001058 -6.031 -0.00961439 8.80059 2650 
193 1 -0.0555561 -0.04987 -0.0381363 0.00164 -5.98907 0.000683806 8.72463 2650 
192 1 -0.0571598 -0.000104996 -0.0384577 0.000105 -5.05431 2.08975e-07 7.51022 2650 
20 1 -0.0571145 -0.055509 -0.0368143 0.001058 -5.78252 -0.0022657 8.97117 2650 
159 1 -0.0584305 -0.0501951 -0.0361804 0.000291 -5.8023 -0.384864 9.37183 2650 
43 1 -0.0584952 -0.050134 -0.0346051 0.001058 -5.41751 -0.0222347 9.15791 2650 
148 1 -0.0595413 -0.053137 -0.0327597 0.001058 -5.14578 -0.000685493 9.35258 2650 
35 1 -0.0599713 -0.0508746 -0.0319803 0.001058 -5.0241 0.000393446 9.42154 2650 
188 1 -0.0615319 -0.061636 -0.0288226 0.001058 -4.52497 0.00430113 9.65974 2650 
254 1 -0.0628634 -0.0507037 -0.0277789 0.000291 -4.38091 -0.00371838 9.91419 2650 
218 1 -0.0619361 -0.0492078 -0.0279994 0.001058 -4.39805 0.000320056 9.72872 2650 
247 1 -0.063191 -0.049854 -0.0270333 0.000291 -4.2733 -0.00772321 9.98843 2650 
236 1 -0.0656756 -0.0616441 -0.0174218 0.001058 -2.73582 0.00119213 10.3131 2650 
168 1 -0.0678023 -0.0219802 -0.0121736 0.000105 -1.77076 -0.61909 9.72587 2650 
74 1 -0.00914422 -0.000684196 -0.0123663 0.001058 0.00552843 -0.00502923 -0.00272883 2650 
269 1 -0.0678166 -0.0133684 -0.010995 0.000291 -1.58879 0.282486 9.78864 2650 
135 1 -0.0073269 -0.0025011 -0.0103715 0.000291 0.00330025 -0.00264717 0.00636962 2650 
58 1 -0.00549389 -0.000910512 -0.00919814 0.001058 0.020455 0.00490158 -0.0306807 2650 
71 1 -0.00051532 -0.000350959 -0.00999718 0.000291 0.000861808 -0.00718564 -0.0173142 2650 
138 1 -0.0674632 -0.0559971 0.00809027 0.001058 1.26842 0.00571846 10.5775 2650 
146 1 -0.0672236 -0.0488612 0.00993902 0.001058 1.56113 0.000530416 10.5588 2650 
167 1 -0.0678105 -0.0127818 0.0111363 0.000291 1.36578 0.291126 8.33657 2650 
248 1 -0.0672791 -0.0232894 0.0139673 0.000291 2.23418 -0.235421 10.7543 2650 
228 1 -0.0665182 -0.0125609 0.0172827 0.000291 2.21531 -0.384332 8.50981 2650 
87 1 -0.0653087 -0.0163323 0.0214233 0.000291 2.90503 -0.0196609 8.86528 2650 
179 1 -0.0619747 -0.0493111 0.027913 0.001058 4.38894 0.0220675 9.74513 2650 
64 1 -0.0634588 -0.0111354 0.0268717 0.000105 3.33211 -0.223909 7.8898 2650 
93 1 -0.0622154 -0.0495983 0.0292088 0.000291 4.58607 0.00886907 9.77626 2650 
59 1 -0.061763 -0.0465969 0.0283851 0.001058 4.45875 0.000844138 9.70181 2650 
165 1 -0.0621701 -0.0457062 0.0293129 0.000291 4.60453 0.000836717 9.76578 2650 
49 1 -0.0600342 -0.0490846 0.0306275 0.00164 4.81107 0.000755345 9.43041 2650 
96 1 -0.0616836 -0.00651588 0.0306926 0.000105 3.83546 0.271744 7.73581 2650 
257 1 -0.0589399 -0.0485933 0.0338487 0.001058 5.31863 -0.0169099 9.26113 2650 
118 1 -0.0589964 -0.0191247 0.0352491 0.000291 4.81336 -0.223064 8.05249 2650 
303 1 -0.0592471 -0.0167443 0.0348358 0.000291 4.75314 -0.0355277 8.09379 2650 
104 1 -0.0541758 -0.0172371 0.042569 0.000105 6.20495 -0.310927 7.90626 2650 
208 1 -0.0482524 -0.0308698 0.0480341 0.001058 7.54518 6.35466e-08 7.57947 2650 
300 1 -0.0489213 -0.0198379 0.0471542 0.001058 6.32067 0.147773 6.54674 2650 
184 1 -0.0468963 -0.00979293 0.0503937 0.000105 7.12142 -0.8116 6.63497 2650 
270 1 -0.0432521 -0.0183459 0.053365 0.000291 6.45006 -0.577374 5.26315 2650 
21 1 -0.029515 -0.0480074 0.0620738 0.000291 9.77018 -0.0526818 4.64549 2650 
214 1 -0.0261296 -0.0553916 0.0635487 0.000291 9.48393 0.168722 3.90297 2650 
171 1 -0.0252518 -0.049515 0.0631058 0.001058 9.91321 -0.00405951 3.96668 2650 
90 1 -0.0232335 -0.0493921 0.0638765 0.001058 10.0336 -0.00231925 3.64949 2650 
23 1 -0.0203979 -0.0518629 0.0656258 0.000291 10.0341 0.199975 3.12027 2650 
225 1 -0.0218849 -0.0452279 0.0643518 0.001058 10.0024 -0.0489276 3.40185 2650 
76 1 -0.0195761 -0.0452289 0.0650894 0.001058 10.1099 -0.0300107 3.03826 2650 
219 1 -0.0241232 -0.000290926 0.0643336 0.000291 8.20815 0.000834316 3.07483 2650 
14 1 -0.016642 -0.0411024 0.0666763 0.000291 10.3862 -0.660667 2.59334 2650 
295 1 -0.0146936 -0.0276181 0.0671166 0.000291 9.95306 0.0760379 2.17883 2650 
88 1 -0.0157973 -0.0191787 0.0670738 0.000105 8.77222 0.854455 2.08125 2650 
271 1 -0.00770707 -0.0177651 0.067512 0.001058 9.56588 -0.175941 1.0521 2650 
277 1 -0.00104258 -0.0360347 0.0687002 0.000291 10.2507 -0.213846 0.154416 2650 
302 1 8.40224e-06 -0.0353388 0.0687094 0.000291 10.2624 -0.168633 -0.000505065 2650 
44 1 -0.000154239 -0.030875 0.0680839 0.001058 10.6946 -1.21711e-09 0.024228 2650 
85 1 -0.00491841 -0.0147106 0.0685322 0.000291 8.64449 -0.237497 0.6269 2650 
255 1 -0.0009755 -0.0114948 0.0687012 0.000291 9.34479 0.0685924 0.128013 2650 
198 1 -0.00721461 0.00462233 -0.0148423 0.000291 0.0682294 -0.0183 -0.0365391 2650 
134 1 -0.00496374 0.00744549 -0.0154036 0.000291 -0.0128132 0.00355392 -0.00692922 2650 
80 1 -0.00600055 0.0214167 -0.0150402 0.000105 0.0200167 0.0220396 -0.007602 2650 
232 1 -0.00645103 0.0379143 -0.0142779 0.001058 -0.0260744 0.0281349 0.00795724 2650 
97 1 -0.00507474 0.00982527 -0.0139258 0.00164 0.0189231 0.00904729 -0.00561719 2650 
301 1 -0.000332468 0.0436609 -0.0126473 0.001058 -0.0176549 0.0163122 0.00371725 2650 
130 1 -0.00719098 0.00319247 -0.0100675 0.001058 -0.00692202 0.00347734 0.00595777 2650 
10 1 -0.0119941 0.00982426 -0.00968003 0.001058 0.0053433 0.0061558 -0.0070677 2650 
51 1 -0.00437048 0.0194221 -0.00835442 0.001058 -0.0414136 0.0415048 -0.0353246 2650 
67 1 -0.0133299 0.0209926 -0.00714903 0.001058 -0.0104976 0.0129104 0.0114407 2650 
113 1 -0.00143356 0.00550744 -0.00222066 0.00164 -0.0131936 -0.00156564 -0.00033725 2650 
129 1 -0.00113197 0.0117529 -0.00292748 0.00164 -0.00374589 0.0128173 -0.00288427 2650 
7 1 -0.00265441 0.0331044 -0.00336287 0.000291 0.00378858 0.0136367 -0.000251809 2650 
65 1 -0.0151774 0.0306651 -0.00107523 0.00164 0.00199904 0.0128894 0.00103488 2650 
205 1 -0.00969086 0.00330114 0.000701188 0.000291 -0.00881861 0.00364628 0.0236275 2650 
234 1 -0.0133399 0.0114856 0.000876779 0.000291 -0.00131366 0.00431637 0.0126772 2650 
256 1 -0.0156694 0.0252072 0.00545339 0.000291 0.000881351 0.0216623 0.00465977 2650 
217 1 -0.00910634 0.0506031 0.00488191 0.001058 0.000747792 0.0265619 -0.00553463 2650 
211 1 -0.0121567 0.00722602 0.0068957 0.001058 0.000982608 0.00314487 0.00709992 2650 
115 1 -0.0144281 0.019428 0.00683283 0.001058 0.00236141 0.0122312 0.0092361 2650 
209 1 -0.0133966 0.00237022 0.00839471 0.001058 0.00584419 -0.0188996 0.0174994 2650 
68 1 -0.000581755 0.0058782 0.00828676 0.001058 0.00272783 -0.00342387 -0.00169301 2650 
187 1 -0.013714 0.0292417 0.00811568 0.001058 0.00500069 0.0154788 0.0119088 2650 
220 1 -0.0115387 0.0290407 0.00937215 0.000291 0.00991537 0.0130183 0.0124552 2650 
273 1 -0.000683599 0.0600832 0.00991923 0.001058 0.00511 0.0387776 -0.00978519 2650 
28 1 -0.00843804 0.0686429 0.00967896 0.001058 0.00734507 0.0503926 0.00344867 2650 
222 1 -0.00299065 0.00109014 0.0109218 0.001058 -0.0324875 0.00467874 -0.0112895 2650 
224 1 -0.00864317 0.0168473 0.0111947 0.001058 0.0046856 0.00178326 -0.00382818 2650 
299 1 -0.00513748 0.00112782 0.0129186 0.001058 0.00581403 -0.00322581 0.00124072 2650 
244 1 -0.00979513 0.0186202 0.0126372 0.001058 0.0327341 0.0229953 0.0151094 2650 
144 1 -0.000769186 0.0242306 0.0136553 0.000105 0.0152864 0.0109644 -0.00695946 2650 
4 1 -0.00681133 0.0088339 0.0142111 0.001058 0.0064118 0.000915196 0.00341804 2650 
266 1 -0.00596153 0.0143826 0.0142159 0.001058 0.0336072 0.0100687 0.0213347 2650 
124 1 -0.00195368 0.0531566 0.0152764 0.001058 0.0225448 0.0380641 0.0162983 2650 
116 1 -0.0718193 0.0636205 0.112345 0.001058 -5.65978 -0.0724445 8.84934 2650 
48 1 0.0018767 -0.0466128 -0.0688675 0.000105 -10.9095 0.0635442 -0.297055 2650 
24 1 0.00923514 -0.033366 -0.0682705 0.000105 -10.7352 0.654804 -1.45293 2650 
190 1 0.0049267 -0.00678057 -0.0685305 0.000291 -8.06191 -0.111677 -0.585407 2650 
131 1 0.00873215 -0.048465 -0.067391 0.001058 -10.5848 -0.00524048 -1.37144 2650 
288 1 0.0177268 -0.0483181 -0.0664034 0.000291 -10.3654 -0.0100481 -2.76715 2650 
82 1 0.000637257 -0.0394599 -0.0679464 0.001058 -10.6224 -0.0749179 -0.0997894 2650 
278 1 0.00991439 -0.033616 -0.0672186 0.001058 -10.1993 -0.0306149 -1.51374 2650 
174 1 0.0188526 -0.0306355 -0.0660845 0.000291 -9.76947 -0.343842 -2.80263 2650 
119 1 0.0210391 -0.0498442 -0.0654294 0.000291 -10.2596 -0.0173171 -3.2991 2650 
239 1 0.0182558 -0.049332 -0.0654703 0.001058 -10.2841 -0.00710999 -2.8676 2650 
230 1 0.0204324 -0.0487529 -0.064825 0.001058 -10.1922 0.00536684 -3.21245 2650 
36 1 0.0224319 -0.0485494 -0.0641637 0.001058 -10.0866 -0.0118316 -3.52631 2650 
191 1 0.0274844 -0.0493507 -0.062996 0.000291 -9.98447 -0.0161149 -4.35611 2650 
140 1 0.0229652 -0.0464828 -0.0639765 0.001058 -9.98566 -0.0524922 -3.58289 2650 
108 1 0.0260732 -0.0463661 -0.0627733 0.001058 -9.82345 -0.111588 -4.08034 2650 
60 1 0.0273334 -0.0431064 -0.0622298 0.001058 -9.81205 -0.0252635 -4.30848 2650 
79 1 0.0263151 -0.0399923 -0.0634816 0.000291 -9.88258 0.472607 -4.09535 2650 
47 1 0.0266259 -0.0115778 -0.0633623 0.000291 -8.12449 0.0950979 -3.38751 2650 
40 1 0.0271534 -0.000105139 -0.0633173 0.000105 -6.71496 -0.00278439 -2.85355 2650 
243 1 0.0297961 -0.0508395 -0.061087 0.001058 -9.59587 -1.78448e-06 -4.68052 2650 
2 1 0.0311467 -0.0493568 -0.0604129 0.001058 -9.48989 -8.39244e-05 -4.89265 2650 
201 1 0.0281218 -0.0454935 -0.0612503 0.00164 -9.61885 -0.005664 -4.41625 2650 
213 1 0.0306768 -0.0471168 -0.0615071 0.000291 -9.6122 -0.00222838 -4.79349 2650 
259 1 0.0292066 -0.0308963 -0.0613737 0.001058 -9.60125 -0.03378 -4.56888 2650 
122 1 0.0292985 -0.0287837 -0.0613014 0.001058 -9.61951 -0.0339791 -4.59832 2650 
221 1 0.0315467 -0.0273512 -0.061033 0.000291 -8.33666 0.0253065 -4.30894 2650 
197 1 0.0311915 -0.01361 -0.0612475 0.000291 -6.32589 -0.202332 -3.21579 2650 
281 1 0.034511 -0.0622793 -0.0594382 0.000291 -9.3333 -2.24416e-06 -5.4191 2650 
99 1 0.0339201 -0.0483627 -0.0588994 0.001058 -9.26185 -0.033393 -5.33411 2650 
121 1 0.031193 -0.0458029 -0.0597428 0.00164 -9.38496 -0.00723471 -4.90016 2650 
125 1 0.0358772 -0.034631 -0.0585939 0.000291 -9.33588 0.00932506 -5.71644 2650 
196 1 0.035884 -0.0472148 -0.0577226 0.001058 -9.05515 0.0128475 -5.61139 2650 
50 1 0.0371173 -0.0348051 -0.0569117 0.001058 -9.14778 -0.0383666 -5.95683 2650 
141 1 0.0395581 -0.0335591 -0.056177 0.000291 -8.79807 -0.0359706 -6.19558 2650 
73 1 0.0394041 -0.0581399 -0.0546423 0.00164 -8.5836 0.00173127 -6.18987 2650 
86 1 0.0397217 -0.0275052 -0.0560613 0.000291 -8.86996 -0.171319 -6.28447 2650 
46 1 0.0398642 -0.0178047 -0.0559754 0.000291 -7.38118 -0.118338 -5.25935 2650 
18 1 0.043033 -0.0247539 -0.0525833 0.001058 -8.29899 0.229883 -6.79107 2650 
15 1 0.0444004 -0.0253437 -0.0524344 0.000291 -8.11683 0.394145 -6.87349 2650 
16 1 0.0430065 -0.00874444 -0.0538239 0.000105 -7.02238 0.161603 -5.6069 2650 
204 1 0.0448687 -0.0309734 -0.0510237 0.001058 -8.01207 -0.0285107 -7.04553 2650 
229 1 0.0491506 -0.0616324 -0.0469164 0.001058 -7.36939 0.000101456 -7.72032 2650 
280 1 0.0482525 -0.0308793 -0.0480342 0.001058 -7.54519 1.03337e-05 -7.57949 2650 
304 1 0.0506501 -0.00597245 -0.0463877 0.000291 -7.13759 -0.10096 -7.78847 2650 
152 1 0.0510653 -0.0205132 -0.0461553 0.000105 -7.22063 -1.07627 -8.00498 2650 
102 1 0.054942 -0.0232906 -0.0412399 0.000291 -5.92398 -0.679145 -7.89284 2650 
200 1 0.054928 -0.00995044 -0.0415488 0.000105 -5.72857 0.167614 -7.51039 2650 
89 1 0.0558603 -0.0611601 -0.0376671 0.00164 -5.9169 2.87182e-07 -8.77476 2650 
132 1 0.0575621 -0.0193973 -0.0361178 0.001058 -5.22558 -0.104828 -8.32319 2650 
158 1 0.0590007 -0.0151187 -0.0352385 0.000291 -4.55588 -0.118438 -7.62862 2650 
29 1 0.0593404 -0.0117768 -0.0346654 0.000291 -4.65611 0.0515114 -7.99261 2650 
83 1 0.0595467 -0.0498865 -0.0327677 0.001058 -5.1477 0.00100724 -9.35456 2650 
128 1 0.0607864 -0.0148139 -0.0324681 0.000105 -3.95942 -0.134223 -7.41336 2650 
181 1 0.0642863 -0.0479544 -0.0243227 0.000291 -3.81228 0.0348888 -10.0763 2650 
275 1 0.0641259 -0.0251597 -0.0246683 0.000291 -3.31781 -0.384802 -8.63402 2650 
207 1 0.0642573 -0.0163839 -0.0243971 0.000291 -3.25795 -0.0993903 -8.58294 2650 
215 1 0.0639037 -0.0485444 -0.0231606 0.001058 -3.63839 0.000448787 -10.0388 2650 
272 1 0.0635614 -0.0454716 -0.024087 0.001058 -3.84686 -0.13203 -10.1539 2650 
261 1 0.0653362 -0.0339988 -0.0212475 0.000291 -2.5301 0.531019 -7.72198 2650 
287 1 0.0651078 -0.04991 -0.0195093 0.001058 -3.06489 0.000340047 -10.2283 2650 
212 1 0.0657436 -0.00309789 -0.0199543 0.000291 -2.52884 0.0367438 -8.34044 2650 
84 1 0.0656404 -0.0510862 -0.0176183 0.001058 -2.76749 -0.0130207 -10.3105 2650 
264 1 0.0654709 -0.0482407 -0.0182607 0.001058 -2.86827 -0.000985027 -10.2837 2650 
290 1 0.0664628 -0.0487691 -0.0175052 0.000291 -2.74927 0.00403698 -10.4382 2650 
109 1 0.0669776 -0.0514375 -0.015386 0.000291 -2.42799 -0.0327114 -10.5673 2650 
94 1 0.0675425 -0.0100658 -0.0126604 0.000291 -1.49681 -0.316085 -7.99668 2650 
150 1 0.0686642 -0.0320082 -0.00247605 0.000291 -0.383623 -0.014791 -10.6526 2650 
285 1 0.0680839 -0.030875 0.000154239 0.001058 0.024228 -2.12566e-08 -10.6946 2650 
173 1 0.068341 -0.00446365 0.00701632 0.000291 0.884986 -0.457149 -8.52979 2650 
3 1 0.0672816 -0.0272302 0.00946301 0.001058 1.49024 0.04434 -10.5953 2650 
37 1 0.0681581 -0.0183872 0.00854249 0.000291 1.36014 0.0742465 -10.8669 2650 
202 1 0.0672293 -0.0306059 0.00987659 0.001058 1.55287 -0.0227856 -10.5712 2650 
95 1 0.00123838 -0.000218351 0.0127525 0.000291 -0.0190214 0.000188354 -0.00919676 2650 
170 1 0.00453336 -0.00227891 0.0150951 0.001058 0.0153298 -0.00470662 -0.00726617 2650 
250 1 0.00110664 -0.00188193 0.0153083 0.001058 0.0161046 -0.00542442 -0.00110725 2650 
137 1 0.0653158 -0.0611601 0.0165219 0.00164 2.59512 -8.16431e-07 -10.2593 2650 
103 1 0.0666119 -0.0514636 0.0168973 0.000291 2.73698 -0.144647 -10.8045 2650 
133 1 0.0664212 -0.0262725 0.0175706 0.000291 2.68741 -0.153224 -10.1615 2650 
235 1 0.066638 -0.00597177 0.0167387 0.000291 2.09269 0.232672 -8.35644 2650 
110 1 0.0656599 -0.00999351 0.0202913 0.000291 2.32146 -0.150082 -7.42698 2650 
182 1 0.0648275 -0.0161458 0.0228386 0.000291 2.89388 -0.170485 -8.24122 2650 
117 1 0.0617569 -0.0177204 0.0301656 0.000291 4.57044 -0.572812 -9.35731 2650 
231 1 0.0594542 -0.0445518 0.0329371 0.001058 5.23591 -0.0912104 -9.45494 2650 
175 1 0.0598571 -0.0133185 0.0337742 0.000291 4.49604 0.12735 -7.9698 2650 
6 1 0.0607925 -0.0115747 0.0320594 0.000291 4.31832 0.116557 -8.20295 2650 
226 1 0.0589958 -0.0439007 0.0352553 0.000291 5.5748 -0.0725779 -9.33146 2650 
291 1 0.0594513 -0.04289 0.0344789 0.000291 5.4589 -0.091536 -9.41225 2650 
253 1 0.0590833 -0.0208114 0.0350944 0.000291 4.89007 -0.43224 -8.24286 2650 
252 1 0.0569069 -0.0165375 0.0371575 0.001058 5.20324 0.120462 -7.92326 2650 
164 1 0.0564315 -0.0440927 0.0378702 0.001058 6.08154 -0.0159722 -9.07071 2650 
22 1 0.0557665 -0.0246271 0.0401387 0.000291 5.90392 -0.442993 -8.2008 2650 
178 1 0.0526185 -0.0567327 0.0429897 0.001058 6.75342 -0.000985067 -8.26606 2650 
241 1 0.0530565 -0.0382147 0.0436572 0.000291 6.94603 -0.1084 -8.44208 2650 
25 1 0.0511366 -0.0588104 0.0438646 0.00164 6.89014 -0.000103683 -8.0324 2650 
206 1 0.0504127 -0.062509 0.046686 0.000291 7.33338 1.86285e-09 -7.91878 2650 
169 1 0.0491104 -0.0611601 0.0461242 0.00164 7.24513 4.57202e-07 -7.71418 2650 
246 1 0.0496265 -0.0585276 0.046412 0.001058 7.29056 -1.66622e-05 -7.7955 2650 
145 1 0.0491014 -0.0400146 0.0461226 0.00164 7.19927 0.047774 -7.66516 2650 
45 1 0.0508965 -0.0244039 0.0461546 0.000291 5.90388 0.540993 -6.50971 2650 
296 1 0.050765 -0.00459603 0.0462991 0.000291 6.15817 0.360275 -6.7101 2650 
251 1 0.0480334 -0.0308752 0.0482517 0.001058 7.57952 0.000412897 -7.54524 2650 
210 1 0.0460261 -0.0350946 0.0499755 0.001058 7.84639 -0.0599513 -7.22626 2650 
276 1 0.0468751 -0.0339809 0.0502201 0.000291 7.86233 0.00540094 -7.33839 2650 
268 1 0.042708 -0.0110723 0.0538277 0.000291 8.30559 0.0652126 -6.58914 2650 
282 1 0.0390332 -0.0218928 0.0565522 0.000291 8.65938 0.535898 -5.97786 2650 
100 1 0.0367084 -0.0185933 0.0571944 0.001058 7.86732 -0.138339 -5.04269 2650 
177 1 0.0311124 -0.0187361 0.0597749 0.00164 9.09944 0.034169 -4.71455 2650 
227 1 0.0310333 -0.0454952 0.0613234 0.000291 9.3757 -0.00912337 -4.74495 2650 
107 1 0.0213074 -0.0489791 0.0645438 0.001058 10.1033 0.00527018 -3.33532 2650 
39 1 0.0242623 -0.0388961 0.0642888 0.000291 10.3905 0.185074 -3.92157 2650 
98 1 0.0203628 -0.0201775 0.0648406 0.001058 9.79954 0.174601 -3.06725 2650 
223 1 0.0118057 -0.0184401 0.0669089 0.001058 9.84707 0.174234 -1.74218 2650 
112 1 0.0168688 -0.019701 0.0668115 0.000105 9.33517 0.11326 -2.34456 2650 
186 1 0.00135953 -0.0161264 0.0679065 0.001058 10.2265 0.129001 -0.195383 2650 
61 1 0.00947755 -0.0267231 0.0680457 0.000291 8.96241 0.815753 -1.23458 2650 
267 1 0.00667925 -0.0195673 0.068338 0.000291 10.1998 -0.00749149 -1.01669 2650 
55 1 0.0069105 -0.00692002 0.0683445 0.000291 5.54517 -0.011455 -0.573517 2650 
54 1 0.00250331 0.0325427 -0.0164158 0.000291 -0.0465548 -0.00183561 -0.00180929 2650 
286 1 0.0034207 0.045204 -0.0153557 0.001058 -0.0227563 0.047494 -0.00559967 2650 
292 1 0.00289877 0.0563255 -0.0155937 0.001058 -0.0198756 0.0344324 0.0109755 2650 
195 1 0.0090645 0.00129731 -0.0129678 0.001058 -0.023068 0.0028628 -0.0200038 2650 
260 1 0.00690684 0.00756594 -0.0138005 0.000291 -0.00996736 0.00469349 0.00488237 2650 
153 1 0.00825327 0.00407061 -0.0113855 0.00164 -0.00763413 -0.0014489 0.00703428 2650 
33 1 0.0030536 0.0320275 -0.0116357 0.00164 0.00603998 0.0215627 0.00352792 2650 
70 1 0.00430149 0.0604987 -0.0107535 0.000291 0.000986621 0.0559838 -0.0454673 2650 
114 1 0.00131055 0.0125651 -0.00815548 0.001058 0.0187062 0.0117361 -0.00752779 2650 
284 1 0.0115884 0.0139406 -0.00818656 0.000291 -0.00371053 0.00586111 -0.00129449 2650 
57 1 0.0055165 0.0278796 -0.00854377 0.00164 -0.000919831 0.00616449 -0.024056 2650 
263 1 0.00512186 0.0675704 -0.00834999 0.000291 -0.0276857 0.0691876 -0.0511194 2650 
176 1 0.014033 0.000485498 -0.00603517 0.000105 -0.0113334 0.00168079 0.000719247 2650 
19 1 0.0129332 0.0117687 -0.00733873 0.001058 -0.00189711 0.0050805 -0.00113271 2650 
77 1 0.00853705 0.0119371 -0.00635862 0.000291 -0.0117356 0.000913058 0.0103562 2650 
123 1 0.0116976 0.0426615 -0.00775982 0.001058 -0.0069266 0.0381635 -0.00768552 2650 
101 1 0.013748 0.000128629 -0.00535766 0.000291 0.0107852 -0.0015929 -0.0095042 2650 
199 1 0.0131294 0.00577513 -0.00589149 0.000291 -0.0066469 0.00203541 -0.00705897 2650 
161 1 0.0135707 0.00861414 -0.00540912 0.00164 -0.000454856 0.00568005 -0.00417258 2650 
249 1 0.00726968 0.0377313 -0.00469839 0.000291 0.00987628 0.0185258 -0.0129358 2650 
293 1 0.0151852 0.0429466 -0.00442188 0.001058 -0.0190409 -0.00539533 -0.101564 2650 
1 1 0.0134727 0.00658505 -0.00246839 0.00164 -0.00396175 0.00352346 -0.00443708 2650 
203 1 0.0127596 0.0304602 -0.00200312 0.001058 0.0105265 0.0334803 0.00411967 2650 
258 1 0.0113948 0.0452979 -0.00306581 0.001058 -0.00702738 0.0458888 -0.00817646 2650 
17 1 0.0156121 0.058518 -0.00112285 0.00164 0.00701424 0.0397619 -0.0326359 2650 
279 1 0.0122691 0.00581478 0.000535532 0.001058 0.00690887 -0.00122776 0.0071413 2650 
92 1 0.013041 0.00828526 0.000723767 0.001058 0.00298746 0.00292354 0.00546929 2650 
194 1 0.0109987 0.0392093 0.0002522 0.001058 -0.00717738 0.0355954 0.00284246 2650 
52 1 0.0148781 0.0523316 0.000307453 0.001058 -0.00702953 0.0194323 -0.0174178 2650 
106 1 0.00184376 0.0349753 0.00220152 0.001058 0.0119634 0.0223893 -0.0027555 2650 
9 1 0.0134143 0.0436385 0.00558084 0.00164 -0.00067168 0.0470366 0.00650688 2650 
238 1 0.0143884 0.0524125 0.00458434 0.001058 -0.00137728 0.0257105 -0.0165728 2650 
298 1 0.013504 0.00212903 0.00607847 0.000105 0.00377194 -0.00442838 -0.00799766 2650 
38 1 0.0150113 0.0199847 0.00661212 0.000291 -0.0203804 0.00352473 0.00785771 2650 
156 1 0.0119727 0.0055935 0.00825066 0.001058 -0.00386139 -0.00886559 -0.00604091 2650 
265 1 0.0128075 0.0132153 0.0090015 0.001058 0.00631372 0.00593974 -0.00936806 2650 
66 1 0.0110677 0.00780191 0.0101055 0.001058 0.00109107 -0.000952032 -0.00287426 2650 
41 1 0.00267056 0.0212921 0.0130138 0.00164 -0.00672013 0.00866437 -0.0057422 2650 
105 1 0.00592204 0.020056 0.0120296 0.00164 -0.00344466 0.00582004 -0.00613861 2650 
139 1 0.00745469 0.025658 0.0121716 0.001058 -0.0138539 0.00679752 0.0124887 2650 
242 1 0.00263187 0.0399683 0.012243 0.000291 0.0116924 0.0265357 0.00697501 2650 
147 1 0.000292445 0.0419112 0.0157916 0.001058 0.0386005 0.0120241 0.00142267 2650 
157 1 0.000411617 0.0855817 -0.0135316 0.000291 0.0079085 0.0606548 0.000918149 2650 
75 1 0.0128702 0.0828813 -0.0108272 0.001058 0.0240155 0.0510522 0.00788599 2650 
127 1 0.0895207 0.0951137 -0.0116251 0.000291 10.4175 -0.0312072 -1.34864 2650 
