ITEM: TIMESTEP
8149550
ITEM: NUMBER OF ATOMS
296
ITEM: BOX BOUNDS ff ff ff
-0.15 0.15
-0.15 0.15
-0.15 0.15
ITEM: ATOMS id type x y z radius vx vy vz density 
25 1 -0.0120484 -0.0611603 -0.0662806 0.00164 -9.96552 -0.00194824 1.81652 2650 
247 1 -0.0177439 -0.0444796 -0.066399 0.000291 -9.204 0.556898 2.46225 2650 
225 1 -0.0132253 -0.0357873 -0.0666473 0.001058 -8.61967 -0.012773 1.68857 2650 
264 1 -0.0209836 -0.0430716 -0.0646464 0.001058 -8.50159 -0.619379 2.75182 2650 
140 1 -0.0225352 -0.0309686 -0.0641155 0.001058 -8.91674 0.224025 3.18663 2650 
8 1 -0.021993 -0.0101225 -0.0653046 0.000105 -4.69873 -0.0664704 1.58167 2650 
121 1 -0.0299656 -0.03285 -0.0603385 0.00164 -8.79449 -0.0158949 4.36195 2650 
83 1 -0.03234 -0.0345589 -0.0597523 0.001058 -8.67972 -0.0893861 4.6909 2650 
63 1 -0.0343273 -0.0237949 -0.0595176 0.000291 -8.27475 -0.33585 4.7647 2650 
171 1 -0.0387097 -0.0338713 -0.0558387 0.001058 -7.13392 0.178867 4.99399 2650 
72 1 -0.042433 -0.0260988 -0.0542672 0.000105 -7.7824 0.364684 6.09056 2650 
290 1 -0.0456724 -0.0518998 -0.0511904 0.000291 -7.48 0.692755 6.70871 2650 
93 1 -0.0468388 -0.0457724 -0.0502148 0.000291 -7.2529 0.113193 6.77727 2650 
283 1 -0.0461891 -0.019059 -0.0507882 0.000291 -6.28919 -0.136895 5.74166 2650 
230 1 -0.0479473 -0.0466366 -0.048144 0.001058 -6.79143 -0.00306492 6.76326 2650 
215 1 -0.0468949 -0.0449374 -0.0491331 0.001058 -7.19804 0.00259201 6.89119 2650 
239 1 -0.0480466 -0.0432236 -0.0480451 0.001058 -6.71194 -0.0474675 6.70829 2650 
6 1 -0.0484 -0.0278659 -0.048767 0.000291 -6.38696 -0.0701237 6.33284 2650 
111 1 -0.0475393 -0.0232674 -0.0495932 0.000291 -6.08682 -0.331151 5.85905 2650 
272 1 -0.0487918 -0.0230867 -0.0472845 0.001058 -5.46961 -0.0995733 5.66046 2650 
125 1 -0.051121 -0.017197 -0.0459066 0.000291 -6.07255 -0.36314 6.76211 2650 
165 1 -0.0541344 -0.0344222 -0.0423115 0.000291 -4.98927 0.104451 6.3461 2650 
2 1 -0.052312 -0.0280881 -0.0433613 0.001058 -5.83967 -0.0789657 7.06598 2650 
295 1 -0.0549024 -0.0146597 -0.0413231 0.000291 -4.72854 -0.227165 6.33215 2650 
89 1 -0.0555299 -0.0597059 -0.0381399 0.00164 -5.48354 0.0719657 7.98037 2650 
219 1 -0.056754 -0.000291103 -0.0387274 0.000291 -4.30583 0.000162047 6.3169 2650 
305 1 -0.0594088 -0.0171453 -0.0349233 0.000105 -1.83735 -0.185709 3.0958 2650 
257 1 -0.0600086 -0.0469982 -0.0319229 0.001058 -4.73698 0.0455899 8.89875 2650 
167 1 -0.0635961 -0.000725634 -0.0260028 0.000291 -3.15539 -0.202065 7.74666 2650 
21 1 -0.0641092 -0.0410411 -0.0247559 0.000291 -3.42628 0.345654 8.86616 2650 
200 1 -0.0639029 -0.0339551 -0.0257294 0.000105 -1.7242 -0.473465 4.30705 2650 
214 1 -0.0654373 -0.061783 -0.0209499 0.000291 -1.61301 0.105802 5.07373 2650 
192 1 -0.0654773 -0.000104993 -0.0214244 0.000105 -2.39036 4.28453e-05 7.26405 2650 
243 1 -0.0662025 -0.0413732 -0.0153418 0.001058 -2.17754 0.0490404 9.41469 2650 
85 1 -0.003548 -0.000906197 -0.015444 0.000291 0 -0.011755 0 2650 
130 1 -4.80334e-05 -0.000304076 -0.0157271 0.001058 -0.0110942 0.00453772 -0.00949661 2650 
184 1 -0.0680325 -0.0153208 -0.0108153 0.000105 -0.712634 0.343589 4.67146 2650 
143 1 -0.0684474 -0.00474235 -0.00590483 0.000291 -0.360401 -0.51247 5.05624 2650 
135 1 -0.00638522 -0.000418764 -0.00748682 0.000291 -0.0060505 -0.00140209 -0.0140303 2650 
203 1 -0.00127257 -0.000761715 -0.00794849 0.001058 0.0218056 -0.0245903 0.045373 2650 
39 1 -0.068537 -0.0159517 -0.00439312 0.000291 -0.6292 -1.19242 9.41313 2650 
76 1 -0.000816424 -0.00288479 -0.00541551 0.001058 0.00563223 -0.0106236 0.000699054 2650 
131 1 -0.0679112 -0.0274504 -0.0017275 0.001058 -0.22857 0.220824 9.28858 2650 
274 1 -0.016349 -7.19686e-06 -0.002509 0.000291 0 -0.011755 0 2650 
185 1 -0.067333 -0.032983 0.00211653 0.00164 0.322576 -0.0554877 9.71599 2650 
14 1 -0.006378 -0.0030652 0.001478 0.000291 0 -0.011755 0 2650 
296 1 -0.005879 -0.0025872 0.000521 0.000291 0 -0.011755 0 2650 
191 1 -0.0108 -0.0017332 0.001549 0.000291 0 -0.011755 0 2650 
168 1 -0.007536 -0.000722197 0.001389 0.000105 0 -0.011755 0 2650 
97 1 -0.0137077 -0.00020291 0.00303603 0.00164 0.00016333 0.00117645 -0.00616736 2650 
18 1 -0.005138 -0.0015282 0.00212 0.001058 0 -0.011755 0 2650 
98 1 -0.00203904 -0.00172644 0.00234998 0.001058 -0.000872989 -0.0147225 -0.00989819 2650 
166 1 -0.068467 -0.00913277 0.00576002 0.000291 0.624666 -0.081745 7.50427 2650 
53 1 -0.000389 -0.000445197 0.004762 0.000291 0 -0.011755 0 2650 
62 1 -0.068125 -0.0212832 0.00895793 0.000291 1.00488 -0.258074 7.52844 2650 
288 1 -0.0678294 -0.0458955 0.0108771 0.000291 1.59369 -0.0596216 9.94342 2650 
229 1 -0.0668903 -0.0467629 0.011956 0.001058 1.77383 -0.103977 9.8687 2650 
32 1 -0.0679619 -0.0395278 0.0113208 0.000105 1.42928 0.458329 8.73582 2650 
233 1 -0.001796 -0.0031482 0.010436 0.000291 0 -0.011755 0 2650 
15 1 -0.067457 -0.0204598 0.0131055 0.000291 1.23252 -0.122596 6.35473 2650 
226 1 -0.009224 -0.0021762 0.012787 0.000291 0 -0.011755 0 2650 
193 1 -0.0654298 -0.0471932 0.0161109 0.00164 2.37797 -0.0469642 9.702 2650 
23 1 -0.0660865 -0.0439653 0.0188644 0.000291 2.82964 0.480344 9.8994 2650 
20 1 -0.0648996 -0.0442485 0.0201887 0.001058 2.98944 0.125986 9.7384 2650 
172 1 -0.062635 -0.0473484 0.0263969 0.001058 3.92784 0.0584975 9.31281 2650 
122 1 -0.0620158 -0.00814366 0.0277827 0.001058 2.83211 -0.175414 6.28943 2650 
206 1 -0.0613042 -0.0318389 0.0310249 0.000291 3.65158 0.248727 7.23983 2650 
188 1 -0.0462573 -0.0615475 0.0497696 0.001058 7.31721 0.0237853 6.7958 2650 
251 1 -0.0449016 -0.0141204 0.0509519 0.001058 5.41786 -0.021233 4.70985 2650 
204 1 -0.0429331 -0.0225831 0.05265 0.001058 5.65612 -0.0406814 4.60254 2650 
254 1 -0.0431061 -0.00882253 0.0534995 0.000291 5.72895 -0.047686 4.55801 2650 
36 1 -0.0399213 -0.0315917 0.0549833 0.001058 7.82008 0.0167323 5.68314 2650 
197 1 -0.0381809 -0.00778268 0.0571278 0.000291 6.40549 -0.262351 4.21856 2650 
218 1 -0.0320098 -0.0319338 0.0599346 0.001058 8.56841 0.0615218 4.6155 2650 
22 1 -0.0355738 -0.025535 0.0587819 0.000291 7.94923 0.695182 4.79505 2650 
241 1 -0.0354129 -0.0218045 0.0588828 0.000291 5.60485 0.514745 3.33677 2650 
173 1 -0.0220259 -0.00649272 0.0650862 0.000291 7.74387 0.58277 2.6232 2650 
16 1 -0.0229681 -0.00511423 0.0649519 0.000105 7.26501 0.203343 2.58062 2650 
148 1 -0.0118989 -0.0428345 0.0669085 0.001058 9.67768 -0.0234965 1.71495 2650 
189 1 -0.014023 -0.0359559 0.0672613 0.000291 8.0831 -0.678586 1.68762 2650 
162 1 -0.00391232 -0.0246689 0.0678319 0.001058 8.64727 0.0456356 0.532186 2650 
44 1 -0.0118654 -0.0175276 0.0669152 0.001058 7.80765 0.16793 1.38118 2650 
213 1 -0.014341 -0.0106777 0.0672087 0.000291 4.48665 -0.00506779 0.978016 2650 
149 1 -0.000175958 -0.0296316 0.0687076 0.000291 8.15118 0.0374525 0.0236901 2650 
70 1 -0.002345 0.000895803 -0.015511 0.000291 0 -0.011755 0 2650 
33 1 -0.0029503 0.0104028 -0.0147136 0.00164 0.00499126 0.02337 -0.00956389 2650 
147 1 -0.000292137 0.0181071 -0.0158046 0.001058 -0.0615939 0.0408262 -0.0024945 2650 
157 1 -0.00749684 0.0249271 -0.0144497 0.000291 0.0079085 0.0606548 0.000918149 2650 
127 1 -0.00442688 0.0329443 -0.013404 0.000291 0.0331404 0.0647284 -0.0037516 2650 
47 1 -0.0127157 0.0016811 -0.0105473 0.000291 -0.00125586 -0.0105028 0.00427205 2650 
94 1 -0.0115722 0.00602249 -0.0118712 0.000291 8.5498e-05 -0.0117385 8.5498e-05 2650 
234 1 -0.0113839 0.00712691 -0.0113055 0.000291 -0.02134 0.00563614 -0.0027496 2650 
155 1 -0.00163782 0.0433902 -0.0115933 0.001058 0.04057 0.188533 0.00265111 2650 
175 1 -0.013247 0.0015838 -0.008751 0.000291 0 -0.011755 0 2650 
74 1 -0.0119058 0.00481016 -0.00631034 0.001058 0.00156258 -0.00569596 -0.00749774 2650 
75 1 -0.00987 0.030063 -0.00624707 0.001058 0.0206685 0.0556886 -0.0248334 2650 
276 1 -0.013674 0.0031278 -0.004231 0.000291 0 -0.011755 0 2650 
240 1 -0.010392 0.0021858 -0.005262 0.000291 0 -0.011755 0 2650 
159 1 -0.012707 0.0061218 -0.00588 0.000291 0 -0.011755 0 2650 
256 1 -0.0159812 0.0106016 -0.00451321 0.000291 -0.00333023 -0.00208616 0.0103813 2650 
115 1 -0.0145582 0.0100988 -0.00551934 0.001058 -0.00655704 0.00527716 0.0172016 2650 
187 1 -0.0149513 0.013269 -0.00492582 0.001058 -0.00403483 0.0166064 0.0136562 2650 
13 1 -0.014201 0.0022278 -0.003882 0.000291 0 -0.011755 0 2650 
104 1 -0.014089 0.0029098 -0.003012 0.000105 0 -0.011755 0 2650 
114 1 -0.0119761 0.00481111 -0.00306336 0.001058 0.00263798 -7.05089e-05 -0.000306371 2650 
10 1 -0.0153332 0.00703189 -0.00331478 0.001058 -0.00603352 -0.00346171 -0.00631144 2650 
87 1 -0.00191736 0.00696062 -0.00269332 0.000291 0.0457248 -0.00314239 -0.013726 2650 
38 1 -0.0035267 0.00809321 -0.00246358 0.000291 -0.0300402 0.0227875 -0.0736261 2650 
144 1 -0.0111457 0.0114176 -0.00331901 0.000105 0.00807853 0.0136784 0.0281765 2650 
220 1 -0.0135097 0.0178861 -0.00249993 0.000291 0.00605419 0.00724476 0.0145131 2650 
7 1 -0.00644296 0.0194678 -0.00311106 0.000291 0.00378858 0.0136367 -0.000251809 2650 
250 1 -0.0110454 0.00206559 -0.00021764 0.001058 0.00273404 -0.00245883 0.0388004 2650 
61 1 -0.016439 0.0058398 -0.001038 0.000291 0 -0.011755 0 2650 
211 1 -0.0131393 0.00408116 -0.000204182 0.001058 0.000982608 0.00314487 0.00709992 2650 
77 1 -0.00396058 0.010494 -0.000127633 0.000291 0.0279429 0.00178097 -0.016803 2650 
41 1 -0.0056195 0.0132893 -0.00112158 0.00164 0.0102042 0.00860529 0.0210319 2650 
65 1 -0.0108864 0.0168685 -0.00143755 0.00164 -0.00454877 0.0138432 0.000335664 2650 
120 1 -0.016055 0.0014798 0.000189 0.000105 0 -0.011755 0 2650 
80 1 -0.014935 0.0041778 0.00039 0.000105 0 -0.011755 0 2650 
268 1 -0.011054 0.0047018 0.000789 0.000291 0 -0.011755 0 2650 
209 1 -0.0138006 0.00640712 0.000215576 0.001058 -0.00415633 0.00564878 0.00501433 2650 
129 1 -0.00634827 0.00739943 0.000652996 0.00164 0.00886763 0.000928435 -0.00531986 2650 
52 1 -0.00665255 0.0182731 0.00118284 0.001058 0.0258261 0.0380708 0.00407144 2650 
99 1 -0.00446831 0.00274558 0.0029331 0.001058 0.0243572 -0.0114204 0.00238608 2650 
176 1 -0.00332825 0.00290278 0.00240015 0.000105 0.0253113 -0.0084311 -0.00587015 2650 
273 1 -0.00187419 0.0209328 0.00346355 0.001058 -0.00402366 0.037385 0.0311551 2650 
164 1 -0.003894 0.0018528 0.005467 0.001058 0 -0.011755 0 2650 
126 1 -0.00240475 0.00183425 0.00491277 0.000291 -0.00909177 -0.0182309 -0.0255133 2650 
266 1 -0.0146195 0.0073417 0.00571801 0.001058 -0.00293207 0.00740435 -0.00807451 2650 
291 1 -0.008194 0.0062268 0.004767 0.000291 0 -0.011755 0 2650 
106 1 -0.0101196 0.0125861 0.00495701 0.001058 0.0119634 0.0223893 -0.0027555 2650 
242 1 -0.00906046 0.0134328 0.005268 0.000291 0.0116924 0.0265357 0.00697501 2650 
124 1 -0.0147128 0.0170062 0.00546553 0.001058 0.00394217 0.0391742 0.00543717 2650 
17 1 -0.010394 0.0165591 0.00435579 0.00164 -0.00279267 0.0548111 0.0673045 2650 
28 1 -0.0127092 0.0178495 0.00523253 0.001058 0.00667276 0.0347111 0.000214972 2650 
186 1 -0.00618435 0.00420446 0.00655581 0.001058 -4.15282e-05 -0.0115536 6.1062e-05 2650 
71 1 -0.00137712 0.00683464 0.00731692 0.000291 0.000861808 -0.00718564 -0.0173142 2650 
245 1 -0.00205819 0.0500165 0.00669133 0.001058 0.013355 0.0538623 -0.0223836 2650 
58 1 -0.0102661 0.000558273 0.00863831 0.001058 0.00939797 -0.00814862 -0.00719036 2650 
170 1 -0.0096943 0.00333521 0.00935274 0.001058 0.00813908 -0.00598064 0.0087017 2650 
304 1 -0.012709 0.0055078 0.009818 0.000291 0 -0.011755 0 2650 
4 1 -0.012566 0.00786925 0.00952096 0.001058 0.00473149 0.00103266 0.00625096 2650 
68 1 -0.00330957 0.00930205 0.00997976 0.001058 0.00272783 -0.00342387 -0.00169301 2650 
249 1 -0.00260655 0.0192057 0.00823733 0.000291 0.00987628 0.0185258 -0.0129358 2650 
300 1 -0.0115622 0.00224786 0.0107743 0.001058 -0.00420381 -0.00777568 -0.00354571 2650 
299 1 -0.0105768 0.00441021 0.0112097 0.001058 -0.000477082 -0.00417598 0.00910156 2650 
55 1 -0.01171 0.0059758 0.01034 0.000291 0 -0.011755 0 2650 
217 1 -0.00985412 0.0240414 0.0104165 0.001058 0.000747792 0.0265619 -0.00553463 2650 
285 1 -0.0102523 0.00110335 0.0120903 0.001058 -0.00642821 -0.0140834 -0.00395094 2650 
224 1 -0.00752119 0.0119887 0.0136851 0.001058 -0.00376938 0.00554818 0.00221201 2650 
238 1 -0.00345462 0.0216089 0.0137161 0.001058 0.0207771 0.0325148 -0.00733364 2650 
54 1 -0.00324961 0.0294583 0.0162188 0.000291 0.0526685 0.00955407 -0.0227648 2650 
73 1 0.00380345 -0.0520397 -0.0672646 0.00164 -10.3011 -0.127266 -0.575999 2650 
42 1 0.0220668 -0.0434298 -0.0642867 0.001058 -8.11887 0.0400988 -2.7812 2650 
181 1 0.0229578 -0.041084 -0.0647736 0.000291 -7.66575 -0.101713 -2.69912 2650 
69 1 0.0298585 -0.0408005 -0.0618948 0.000291 -8.22469 -0.668885 -3.96191 2650 
107 1 0.0285846 -0.0306037 -0.0616459 0.001058 -8.68892 0.196523 -3.96711 2650 
56 1 0.0309567 -0.0153972 -0.0615743 0.000105 -4.07381 -0.26048 -2.02402 2650 
40 1 0.0352527 -0.0086059 -0.0592014 0.000105 -4.20697 0.0275502 -2.48353 2650 
133 1 0.0524727 -0.019361 -0.0443081 0.000291 -5.03592 0.383657 -6.10264 2650 
64 1 0.0541078 -0.0076324 -0.0426415 0.000105 -2.45605 0.0288008 -3.28914 2650 
228 1 0.0573383 -0.0226862 -0.0378686 0.000291 -2.3617 -0.475827 -3.77727 2650 
49 1 0.0597255 -0.0397592 -0.0311982 0.00164 -4.01039 -0.0767054 -7.56916 2650 
281 1 0.0607974 -0.0328131 -0.0320001 0.000291 -3.46997 0.14197 -6.49619 2650 
43 1 0.0617227 -0.0304898 -0.0284155 0.001058 -4.01232 -0.134607 -8.8601 2650 
178 1 0.0213255 -0.0154973 -0.0262203 0.001058 3.02116 -1.1644 -3.6151 2650 
137 1 0.0634507 -0.0611604 -0.0226393 0.00164 -3.26172 -0.00215894 -9.16223 2650 
303 1 0.000308359 -0.00230187 -0.0166085 0.000291 -0.0398004 -0.00495339 0.00662732 2650 
237 1 0.000647825 -0.00198094 -0.01454 0.001058 -0.0539027 -0.00636539 0.0249699 2650 
46 1 0.007499 -0.0030492 -0.014091 0.000291 0 -0.011755 0 2650 
269 1 0.002277 -0.000222197 -0.015181 0.000291 0 -0.011755 0 2650 
160 1 0.004468 -0.0013632 -0.014641 0.000105 0 -0.011755 0 2650 
263 1 0.006877 -0.000966197 -0.012319 0.000291 0 -0.011755 0 2650 
196 1 0.002599 -0.0024932 -0.011929 0.001058 0 -0.011755 0 2650 
201 1 0.00928557 -0.000858626 -0.0116317 0.00164 0.00137105 -0.0114185 -0.003869 2650 
102 1 0.003423 -0.0010612 -0.006065 0.000291 0 -0.011755 0 2650 
117 1 0.004754 -0.000799197 -0.007063 0.000291 0 -0.011755 0 2650 
141 1 0.0685634 -0.0556247 -0.00444027 0.000291 -0.383414 0.066432 -6.03692 2650 
246 1 0.001376 -0.0015602 -0.005453 0.001058 0 -0.011755 0 2650 
88 1 0.002864 -0.0029342 -0.002457 0.000105 0 -0.011755 0 2650 
270 1 0.00241302 -0.00249577 -0.00330087 0.000291 -0.00136788 -0.0183096 -0.00635377 2650 
205 1 0.00132907 -0.00177459 -0.000185372 0.000291 -0.0110629 -0.00953223 0.00618698 2650 
177 1 0.00342167 -0.000792822 -0.00190022 0.00164 -0.00966503 -0.00602483 0.00423439 2650 
109 1 0.0686916 -0.0590388 0.00111295 0.000291 0.170143 -0.165926 -10.6389 2650 
59 1 0.00163293 -0.00223127 0.00107264 0.001058 -0.0200783 -0.00967864 -0.0506056 2650 
96 1 0.009869 -0.0028042 0.000788 0.000105 0 -0.011755 0 2650 
81 1 0.007451 -0.0014412 7.8e-05 0.00164 0 -0.011755 0 2650 
261 1 0.011218 -0.0012652 0.000328 0.000291 0 -0.011755 0 2650 
169 1 0.0673355 -0.0577748 0.00178515 0.00164 0.274004 -0.0621343 -10.3676 2650 
152 1 0.0687683 -0.0091889 0.00315634 0.000105 0.174346 -0.448049 -4.77509 2650 
210 1 0.010971 -0.0021112 0.002357 0.001058 0 -0.011755 0 2650 
280 1 0.0677294 -0.0175022 0.00487682 0.001058 0.587445 0.0542084 -7.87897 2650 
50 1 0.006699 -0.0030242 0.005883 0.001058 0 -0.011755 0 2650 
150 1 0.0103194 -0.00322629 0.00429812 0.000291 0.00834717 -0.0216593 -0.000420923 2650 
223 1 0.0100188 -0.00172952 0.00462224 0.001058 0.0244252 -0.00835069 0.00805578 2650 
174 1 0.002361 -0.0032712 0.006466 0.000291 0 -0.011755 0 2650 
207 1 0.000324 -0.0015852 0.006532 0.000291 0 -0.011755 0 2650 
34 1 0.0675043 -0.0328538 0.00773651 0.001058 0.943909 -0.0495009 -7.69602 2650 
108 1 0.067317 -0.0270447 0.00921703 0.001058 0.643147 -0.0439366 -4.87999 2650 
30 1 0.0681095 -0.0178604 0.00891393 0.000291 0.732654 0.611928 -5.05868 2650 
259 1 0.0672288 -0.0247513 0.00976204 0.001058 1.08782 0.0898701 -7.44616 2650 
103 1 0.005979 -0.000567197 0.01127 0.000291 0 -0.011755 0 2650 
26 1 0.0665886 -0.0328382 0.0135087 0.001058 1.81509 0.0259325 -9.06484 2650 
151 1 0.0673657 -0.0174161 0.0135628 0.000291 1.43579 0.095792 -7.28589 2650 
3 1 0.00922024 -0.000892224 0.0126877 0.001058 -0.00211489 -0.0052299 0.000123346 2650 
82 1 0.000755 -0.0015982 0.014898 0.001058 0 -0.011755 0 2650 
221 1 0.0663059 -0.0231695 0.0180185 0.000291 2.28043 -0.0637368 -8.30233 2650 
302 1 0.0653082 -0.0252972 0.0213449 0.000291 2.34619 0.05146 -7.1125 2650 
29 1 0.0655007 -0.0208115 0.0207871 0.000291 2.39052 -0.659566 -7.4899 2650 
183 1 0.0640443 -0.0191877 0.0249368 0.000291 3.40106 0.125549 -8.73651 2650 
84 1 0.0619604 -0.0197377 0.027929 0.001058 3.72711 -0.01456 -8.34076 2650 
90 1 0.0584011 -0.0551149 0.034736 0.001058 5.06525 0.0427304 -8.46617 2650 
255 1 0.0571678 -0.0218614 0.0381286 0.000291 5.00102 -0.00142316 -7.51467 2650 
267 1 0.0404802 -0.00499849 0.0555177 0.000291 5.73188 0.123367 -4.17677 2650 
179 1 0.0362731 -0.0484856 0.057466 0.001058 8.19955 -0.0420913 -5.16163 2650 
119 1 0.0375733 -0.0476253 0.0575287 0.000291 6.66142 -0.689334 -4.3617 2650 
235 1 0.0386387 -0.0170754 0.0568312 0.000291 7.16919 0.690468 -4.87051 2650 
146 1 0.0336379 -0.0486921 0.0590581 0.001058 8.4115 -0.0177954 -4.79919 2650 
248 1 0.0342092 -0.0402109 0.0595965 0.000291 7.27073 2.429 -4.18663 2650 
138 1 0.0310289 -0.0447431 0.0604742 0.001058 8.38307 0.00909484 -4.31768 2650 
86 1 0.0233098 -0.00693112 0.064639 0.000291 5.51164 -0.110145 -1.96249 2650 
236 1 0.00162384 -0.0484273 0.0679273 0.001058 9.85141 0.00626426 -0.233613 2650 
282 1 0.0124588 -0.0198408 0.0675596 0.000291 5.63728 -0.279215 -1.15848 2650 
158 1 0.01478 -0.02099 0.0671029 0.000291 8.40512 0.548748 -1.84808 2650 
132 1 0.00830701 -0.0183162 0.0674202 0.001058 8.48094 0.15906 -1.06423 2650 
182 1 0.0124385 -0.0118657 0.0675702 0.000291 8.45058 0.124879 -1.55385 2650 
118 1 0.00243739 -0.0147088 0.0686231 0.000291 4.36489 0.34592 -0.111722 2650 
277 1 0.00120542 -0.00221673 0.0686882 0.000291 8.20124 -0.0294485 -0.122379 2650 
37 1 0.006156 0.0055398 -0.015157 0.000291 0 -0.011755 0 2650 
180 1 0.00401665 0.02494 -0.0148892 0.001058 0.0523606 0.0717115 0.0275313 2650 
154 1 0.00329875 0.0555552 -0.0150033 0.001058 -0.025218 0.0914679 0.0181079 2650 
289 1 0.001465 0.000200803 -0.012477 0.000291 0 -0.011755 0 2650 
142 1 0.002378 0.000615803 -0.013184 0.000291 0 -0.011755 0 2650 
252 1 0.00245 0.0039108 -0.01336 0.001058 0 -0.011755 0 2650 
78 1 0.001258 0.0055258 -0.012517 0.000291 0 -0.011755 0 2650 
275 1 0.012705 0.0032728 -0.010476 0.000291 0 -0.011755 0 2650 
67 1 0.000869362 0.00759031 -0.0110659 0.001058 -0.020884 0.0142907 -0.00966941 2650 
198 1 0.012293 0.00973378 -0.0110477 0.000291 0.0585511 0.0183945 0.0670621 2650 
134 1 0.00784935 0.0038916 -0.00847443 0.000291 -0.0128132 0.00355392 -0.00692922 2650 
60 1 0.007579 0.0018418 -0.006312 0.001058 0 -0.011755 0 2650 
45 1 0.010575 0.0017618 -0.007722 0.000291 0 -0.011755 0 2650 
260 1 0.01012 0.00286554 -0.00653183 0.000291 -0.00392275 0.00411325 -0.00447499 2650 
279 1 0.00901874 0.00677863 -0.00609826 0.001058 -0.00964963 0.00898182 -0.00219277 2650 
105 1 0.00810624 0.00882486 -0.00761146 0.00164 0.00327959 0.00625975 0.0321714 2650 
284 1 0.0149919 0.0080412 -0.00675684 0.000291 0.00515653 0.00696942 -0.00520094 2650 
161 1 0.0134353 0.0036656 -0.00449412 0.00164 0.000907452 0.00399164 0.00334652 2650 
278 1 7.4e-05 0.0043528 -0.004448 0.001058 0 -0.011755 0 2650 
92 1 0.0101166 0.00527032 -0.00466281 0.001058 -0.00203413 0.0102084 -0.00112028 2650 
19 1 0.0142147 0.00660278 -0.00595588 0.001058 0.0022695 0.00565847 -0.00282567 2650 
139 1 0.0090851 0.0180819 -0.00516688 0.001058 0.0127696 0.00849352 0.0230521 2650 
253 1 0.014729 0.000610803 -0.002617 0.000291 0 -0.011755 0 2650 
227 1 0.00944 0.0024398 -0.002109 0.000291 0 -0.011755 0 2650 
110 1 0.00538666 0.00539716 -0.00299287 0.000291 -0.0169259 -0.0135844 0.0488079 2650 
271 1 0.00660887 0.0041398 -0.00273929 0.001058 0.0150184 -0.010407 0.010297 2650 
199 1 0.0160045 0.00439673 -0.003914 0.000291 0.00855734 0.000154616 0.00359965 2650 
123 1 0.00259203 0.0101643 -0.00207929 0.001058 0.0354386 0.020018 -0.000637314 2650 
113 1 0.0102944 0.000424439 -0.000985062 0.00164 -0.000152922 -0.0104668 0.00259679 2650 
190 1 0.005899 0.0051418 -0.000534 0.000291 0 -0.011755 0 2650 
48 1 0.009671 0.0030338 0.000233 0.000105 0 -0.011755 0 2650 
128 1 0.00361 0.0047408 0.000511 0.000105 0 -0.011755 0 2650 
9 1 0.012984 0.0047788 0.000468 0.00164 0 -0.011755 0 2650 
286 1 0.015584 0.0054468 0.000132 0.001058 0 -0.011755 0 2650 
232 1 0.0147695 0.00706261 0.00194692 0.001058 0.0225908 0.0355672 -0.0424833 2650 
116 1 0.0113611 0.0189565 0.000404705 0.001058 0.0382435 0.0489782 0.0372506 2650 
101 1 0.004812 0.0034638 0.002517 0.000291 0 -0.011755 0 2650 
294 1 0.006997 0.0027478 0.003581 0.001058 0 -0.011755 0 2650 
244 1 0.0156024 0.00365734 0.00215465 0.001058 -0.00121335 -0.0094075 -0.0354574 2650 
301 1 0.00567594 0.0240493 0.0023398 0.001058 0.00272587 0.0220862 -0.0290146 2650 
35 1 0.0011437 0.000537133 0.00444382 0.001058 0.00654177 -0.0105187 -0.00962265 2650 
208 1 0.0151095 0.000682986 0.00411147 0.001058 0.00528618 -0.0283184 -0.0333125 2650 
212 1 0.001087 0.0032578 0.005915 0.000291 0 -0.011755 0 2650 
202 1 0.00237998 0.00221943 0.00569796 0.001058 0.00953014 -0.00871599 -0.0138173 2650 
24 1 0.005464 0.0028298 0.005551 0.000105 0 -0.011755 0 2650 
51 1 0.009662 0.0039028 0.004577 0.001058 0 -0.011755 0 2650 
194 1 0.0149477 0.00441176 0.0043759 0.001058 -0.00784002 0.0113692 -0.028755 2650 
79 1 0.014214 0.0057428 0.005058 0.000291 0 -0.011755 0 2650 
153 1 0.00120885 0.00750799 0.00478919 0.00164 0.00905173 -0.00370467 -0.0193596 2650 
293 1 0.0141106 0.012958 0.00440421 0.001058 0.0237572 0.0710344 -0.104438 2650 
163 1 0.0120629 0.0406061 0.00506529 0.001058 -0.0646454 0.16688 0.0888818 2650 
1 1 0.0121536 0.00183499 0.00708015 0.00164 0.00588729 0.00743877 -0.0258753 2650 
145 1 0.00458006 0.00385763 0.00788866 0.00164 0.00142123 -0.0121074 -0.00172265 2650 
231 1 0.00676117 0.00225051 0.00730785 0.001058 0.00167534 -0.0128877 -0.000760445 2650 
222 1 0.009219 0.0051018 0.006833 0.001058 0 -0.011755 0 2650 
112 1 0.013668 0.0060658 0.007002 0.000105 0 -0.011755 0 2650 
292 1 0.00711601 0.0175821 0.00632036 0.001058 0.0469404 0.0480946 0.0370303 2650 
100 1 0.00776745 0.00113517 0.00945528 0.001058 0.00912399 -0.0117578 -0.00681185 2650 
258 1 0.0128836 0.00718349 0.00844583 0.001058 0.00615004 0.0226911 -0.0182162 2650 
287 1 0.0106061 0.00185584 0.0107407 0.001058 -0.001802 -0.0123869 -0.0168129 2650 
66 1 0.0063145 0.00863443 0.0117857 0.001058 0.00846641 -0.000759158 0.00162513 2650 
156 1 0.00456977 0.0118744 0.010879 0.001058 0.00957299 -0.000303602 -0.00985815 2650 
57 1 0.00494291 0.0211385 0.0113009 0.00164 0.0230994 0.0154402 0.0436737 2650 
195 1 0.00665954 0.00162034 0.0129009 0.001058 0.0422505 -0.00642479 -0.0231176 2650 
95 1 0.00681177 0.00329146 0.01381 0.000291 -0.000366951 -0.00495937 0.00220646 2650 
298 1 0.00912026 0.00667016 0.0132858 0.000105 0.012752 -0.00608362 0.00360111 2650 
265 1 0.00223192 0.00676826 0.0148851 0.001058 0.011667 0.00657701 -0.00499144 2650 
136 1 0.00085365 0.0768021 -0.000562493 0.000105 0.0375902 0.10168 0.0199891 2650 
