ITEM: TIMESTEP
23460921
ITEM: NUMBER OF ATOMS
258
ITEM: BOX BOUNDS ff ff ff
-0.15 0.15
-0.15 0.15
-0.15 0.15
ITEM: ATOMS id type x y z radius vx vy vz density 
78 1 -0.0182336 -0.0429515 -0.0662641 0.000291 -10.6703 0.462965 2.93756 2650 
26 1 -0.0170608 -0.0495443 -0.0657908 0.001058 -10.3344 -3.18277e-05 2.6799 2650 
125 1 -0.025583 -0.0369099 -0.0637668 0.000291 -10.2318 0.0461613 4.1055 2650 
48 1 -0.0379703 -0.0486225 -0.0574947 0.000105 -8.84073 -0.0647893 5.84118 2650 
158 1 -0.0436781 -0.0144092 -0.0530114 0.000291 -7.67952 -0.0850526 6.34407 2650 
267 1 -0.0467658 -0.0219432 -0.0502876 0.000291 -7.35623 0.187611 6.85859 2650 
282 1 -0.0468 -0.0166873 -0.0502516 0.000291 -7.49955 -0.227688 6.99232 2650 
200 1 -0.0456335 -0.0143105 -0.0515654 0.000105 -7.25562 -0.240016 6.39871 2650 
34 1 -0.0480087 -0.030875 -0.0482763 0.001058 -7.58322 -2.12563e-08 7.54119 2650 
185 1 -0.0501984 -0.0518693 -0.0449359 0.00164 -7.05844 6.27218e-05 7.88505 2650 
81 1 -0.0527446 -0.050012 -0.0419258 0.00164 -6.58577 0.000390866 8.28518 2650 
162 1 -0.053315 -0.0473832 -0.0421333 0.001058 -6.61827 0.000405059 8.37467 2650 
42 1 -0.0541871 -0.0548058 -0.0410004 0.001058 -6.44031 -1.66835e-05 8.51167 2650 
172 1 -0.0560169 -0.0547006 -0.0384667 0.001058 -6.04239 -0.000350842 8.7992 2650 
193 1 -0.0555357 -0.0498677 -0.0381661 0.00164 -5.99504 -5.15291e-05 8.72341 2650 
197 1 -0.0572068 -0.0122867 -0.0380803 0.000291 -4.45815 0.169645 6.71712 2650 
20 1 -0.0570969 -0.0555194 -0.0368417 0.001058 -5.78705 -0.000747383 8.96871 2650 
43 1 -0.0584696 -0.0500941 -0.0346505 0.001058 -5.4427 -0.00316832 9.18421 2650 
148 1 -0.0595251 -0.0531334 -0.0327894 0.001058 -5.15056 -5.56997e-05 9.3502 2650 
35 1 -0.0599561 -0.0508738 -0.0320088 0.001058 -5.02788 -6.13585e-06 9.41778 2650 
96 1 -0.0618541 -0.00976066 -0.0303716 0.000105 -3.89824 -0.203352 7.96521 2650 
188 1 -0.0615188 -0.0616392 -0.0288502 0.001058 -4.53173 4.70907e-05 9.66324 2650 
254 1 -0.0626492 -0.0503191 -0.0282637 0.000291 -4.45282 -0.00397077 9.83498 2650 
218 1 -0.0619215 -0.049207 -0.0280317 0.001058 -4.40323 0.000178221 9.72663 2650 
247 1 -0.063029 -0.0496605 -0.0274091 0.000291 -4.30533 -0.000293834 9.90037 2650 
112 1 -0.0635569 -0.0218155 -0.0266166 0.000105 -4.09931 0.103056 9.7854 2650 
236 1 -0.0656639 -0.0616394 -0.0174666 0.001058 -2.74374 -0.000290981 10.3148 2650 
71 1 -0.000308489 -0.00207549 -0.0141525 0.000291 0.000861808 -0.00718564 -0.0173142 2650 
74 1 -0.00781742 -0.00189119 -0.0130212 0.001058 0.00552843 -0.00502923 -0.00272883 2650 
135 1 -0.00653485 -0.00313641 -0.00884285 0.000291 0.00330025 -0.00264717 0.00636962 2650 
221 1 -0.0683269 -0.0234246 -0.00712476 0.000291 -1.01082 -0.276954 9.69625 2650 
159 1 -0.0684977 -0.043889 -0.00538416 0.000291 -0.840276 0.525643 10.6965 2650 
192 1 -0.0687407 -0.000104996 -0.00457903 0.000105 -0.615016 1.10864e-06 9.26114 2650 
214 1 -0.0684697 -0.0591841 0.00553261 0.000291 0.866407 0.0313088 10.7123 2650 
138 1 -0.067469 -0.0559785 0.00804317 0.001058 1.26356 0.00114895 10.5993 2650 
277 1 -0.0682951 -0.0374678 0.00744265 0.000291 1.1655 0.376979 10.7088 2650 
146 1 -0.0672287 -0.0488611 0.00990437 0.001058 1.55571 -2.51506e-05 10.5598 2650 
295 1 -0.0679545 -0.0285665 0.0101459 0.000291 1.60338 0.327683 10.7375 2650 
270 1 -0.068092 -0.0204985 0.00921031 0.000291 1.29403 -0.628978 9.56065 2650 
209 1 -0.0107323 -0.001985 0.0116329 0.001058 0.0126255 -0.0178894 0.0117147 2650 
95 1 -0.0033267 -0.000173146 0.0105453 0.000291 -0.0190214 0.000188354 -0.00919676 2650 
248 1 -0.0671151 -0.0274021 0.0147019 0.000291 2.33254 0.191616 10.6494 2650 
29 1 -0.0665546 -0.0152618 0.0171544 0.000291 2.54523 -0.166841 9.85099 2650 
179 1 -0.0619795 -0.0488281 0.0279045 0.001058 4.38328 4.7898e-05 9.73584 2650 
59 1 -0.0617776 -0.0465968 0.0283534 0.001058 4.45371 1.42794e-05 9.70394 2650 
271 1 -0.0620685 -0.0159508 0.0277053 0.001058 4.50693 0.0107041 10.0667 2650 
55 1 -0.0633408 -0.00562788 0.0266258 0.000291 3.88362 -0.0295457 9.23886 2650 
93 1 -0.0622574 -0.049341 0.0291209 0.000291 4.5742 -0.000645129 9.77915 2650 
165 1 -0.0621853 -0.045706 0.0292807 0.000291 4.5995 -0.000188559 9.76822 2650 
49 1 -0.0600501 -0.0490853 0.0305964 0.00164 4.80606 -0.000142507 9.43262 2650 
257 1 -0.0590574 -0.0488812 0.0336423 0.001058 5.28197 -0.00329787 9.27206 2650 
208 1 -0.0482771 -0.0308698 0.0480093 0.001058 7.54128 6.35535e-08 7.58335 2650 
117 1 -0.0445731 -0.0192325 0.0521946 0.000291 8.23223 0.0875439 7.03387 2650 
186 1 -0.0419931 -0.0240222 0.0534176 0.001058 8.4124 -0.0421387 6.61369 2650 
223 1 -0.0380683 -0.0195718 0.0562931 0.001058 8.84091 0.0170791 5.97866 2650 
173 1 -0.0417512 -0.0114562 0.0545424 0.000291 8.71084 -0.399934 6.67515 2650 
22 1 -0.0374411 -0.0243662 0.0576129 0.000291 9.30625 -0.135982 6.04197 2650 
46 1 -0.0377121 -0.0206203 0.057439 0.000291 9.16589 0.120141 6.01982 2650 
21 1 -0.0294276 -0.0494301 0.062113 0.000291 9.73923 0.0230058 4.61443 2650 
171 1 -0.0252828 -0.0495877 0.0630915 0.001058 9.90509 0.00767837 3.96949 2650 
90 1 -0.0232171 -0.0495259 0.063882 0.001058 10.0363 -0.00449777 3.64754 2650 
225 1 -0.0243016 -0.0477539 0.0634803 0.001058 9.97912 -0.000310774 3.82024 2650 
76 1 -0.0228671 -0.0462917 0.0640103 0.001058 10.113 -0.0558344 3.61077 2650 
14 1 -0.0272133 -0.0432551 0.0631133 0.000291 9.73466 -0.268403 4.19938 2650 
23 1 -0.0220969 -0.0486739 0.0650827 0.000291 10.2099 -0.014724 3.46645 2650 
261 1 -0.0230235 -0.03146 0.0647359 0.000291 9.90907 -0.314212 3.52266 2650 
302 1 -0.00769558 -0.0467602 0.0682811 0.000291 11.1463 -0.0445755 1.25608 2650 
44 1 -0.00018921 -0.030875 0.0680838 0.001058 10.6946 -2.12563e-08 0.0297213 2650 
228 1 -0.00811311 -0.014122 0.0682327 0.000291 10.1161 0.00491523 1.20402 2650 
219 1 -0.00347734 -0.000290984 0.0686204 0.000291 9.32551 -0.000665747 0.471581 2650 
40 1 -0.0031815 -0.000104995 0.0688206 0.000105 9.35127 -0.000954018 0.425244 2650 
80 1 -0.00119543 0.0266921 -0.0167236 0.000105 0.0200839 0.0212335 0.00050358 2650 
58 1 -0.000539422 0.000247349 -0.015546 0.001058 0.0223166 0.00414419 0.0109308 2650 
134 1 -0.00656328 0.00829287 -0.0142182 0.000291 -0.00544633 0.00352621 0.00729171 2650 
97 1 -0.000533264 0.0119966 -0.0152739 0.00164 0.0189231 0.00904729 -0.00561719 2650 
54 1 -0.00827273 0.0320825 -0.0145226 0.000291 -0.0366831 -0.00207303 0.0272445 2650 
293 1 -0.00375937 0.0398592 -0.0153137 0.001058 -0.0970922 -0.017198 0.0179615 2650 
286 1 -0.00207172 0.0564459 -0.0155972 0.001058 -0.0224686 0.0460898 0.00428948 2650 
292 1 -0.00187132 0.0645892 -0.0129596 0.001058 -0.0198756 0.0344324 0.0109755 2650 
10 1 -0.0107117 0.0113016 -0.0113763 0.001058 0.0053433 0.0061558 -0.0070677 2650 
232 1 -0.0114891 0.0443884 -0.0106939 0.001058 -0.0196298 0.0266647 0.016804 2650 
301 1 -0.00456958 0.0475758 -0.0117551 0.001058 -0.0176549 0.0163122 0.00371725 2650 
130 1 -0.00885225 0.00402703 -0.00863768 0.001058 -0.00692202 0.00347734 0.00595777 2650 
51 1 -0.00959033 0.0281668 -0.00951813 0.001058 2.58043e-05 0.0308241 0.0288994 2650 
67 1 -0.0150944 0.0239817 -0.00417838 0.001058 -0.00153648 0.0116126 0.0141107 2650 
113 1 -0.00459998 0.00513169 -0.0023016 0.00164 -0.0131936 -0.00156564 -0.00033725 2650 
129 1 -0.00203097 0.014829 -0.00361969 0.00164 -0.00374589 0.0128173 -0.00288427 2650 
7 1 -0.00174516 0.0363771 -0.0034233 0.000291 0.00378858 0.0136367 -0.000251809 2650 
65 1 -0.0146976 0.0337585 -0.000826862 0.00164 0.00199904 0.0128894 0.00103488 2650 
234 1 -0.0136552 0.0125215 0.00391927 0.000291 -0.00131366 0.00431637 0.0126772 2650 
217 1 -0.00892687 0.0569779 0.00355361 0.001058 0.000747792 0.0265619 -0.00553463 2650 
205 1 -0.0118073 0.00417623 0.00637171 0.000291 -0.00881861 0.00364628 0.0236275 2650 
256 1 -0.0153497 0.0303916 0.00654152 0.000291 0.00177718 0.0215424 0.00440949 2650 
222 1 -0.0107876 0.00221302 0.00821234 0.001058 -0.0324875 0.00467874 -0.0112895 2650 
211 1 -0.0119209 0.00798078 0.00859966 0.001058 0.000982608 0.00314487 0.00709992 2650 
115 1 -0.0130887 0.0222385 0.00857405 0.001058 0.0059455 0.0116516 0.00703082 2650 
224 1 -0.00751864 0.0172753 0.010276 0.001058 0.0046856 0.00178326 -0.00382818 2650 
187 1 -0.0119308 0.0328734 0.0105346 0.001058 0.00749407 0.0151236 0.010031 2650 
299 1 -0.00374213 0.000353637 0.0132164 0.001058 0.00581403 -0.00322581 0.00124072 2650 
220 1 -0.00915906 0.032165 0.0123614 0.000291 0.00991537 0.0130183 0.0124552 2650 
4 1 -0.00524743 0.0090496 0.0149048 0.001058 0.00673868 0.000863758 0.00176759 2650 
244 1 -0.001791 0.0240516 0.0154976 0.001058 0.0359853 0.021076 -0.00170709 2650 
28 1 -0.00667524 0.0807369 0.0105066 0.001058 0.00734507 0.0503926 0.00344867 2650 
294 1 0.00018921 -0.030875 -0.0680838 0.001058 -10.6946 -2.12563e-08 -0.0297213 2650 
131 1 0.00876662 -0.0484633 -0.0673866 0.001058 -10.5849 -0.000254408 -1.37704 2650 
82 1 0.00120486 -0.0420469 -0.0679373 0.001058 -10.6708 -0.00517751 -0.189122 2650 
50 1 0.013283 -0.0430933 -0.0666506 0.001058 -10.4516 -0.0741209 -2.08284 2650 
184 1 0.0188267 -0.0207078 -0.0662859 0.000105 -10.6161 -0.0161715 -3.0136 2650 
239 1 0.0183248 -0.0500646 -0.0654499 0.001058 -10.28 0.00140199 -2.87824 2650 
119 1 0.0208861 -0.0504517 -0.0654773 0.000291 -10.2707 0.00815025 -3.27619 2650 
288 1 0.0195172 -0.0488414 -0.0659013 0.000291 -10.362 0.0253605 -3.06866 2650 
230 1 0.0204821 -0.0487438 -0.0648096 0.001058 -10.1801 5.06471e-05 -3.21728 2650 
191 1 0.0236762 -0.0479724 -0.0645273 0.000291 -10.137 0.000324275 -3.71947 2650 
15 1 0.0239818 -0.0221752 -0.0643976 0.000291 -10.1987 0.0568278 -3.79864 2650 
24 1 0.0248151 -0.0222015 -0.0642799 0.000105 -9.96677 0.143894 -3.8487 2650 
36 1 0.0224717 -0.0484554 -0.0641498 0.001058 -10.0765 2.15512e-05 -3.5298 2650 
108 1 0.0251476 -0.0480215 -0.06315 0.001058 -9.9223 -0.00724933 -3.95122 2650 
213 1 0.0272621 -0.0477028 -0.0630963 0.000291 -9.85786 -0.0313917 -4.25973 2650 
140 1 0.0236333 -0.0465898 -0.0637328 0.001058 -10.0115 0.000913473 -3.71247 2650 
79 1 0.0265251 -0.0363885 -0.0633811 0.000291 -9.90343 0.149609 -4.14379 2650 
243 1 0.0298276 -0.0508399 -0.0610716 0.001058 -9.59304 -0.000288133 -4.68527 2650 
2 1 0.0311779 -0.0493573 -0.0603968 0.001058 -9.48699 -0.000335801 -4.89737 2650 
201 1 0.0281512 -0.0455107 -0.0612366 0.00164 -9.61901 2.0491e-05 -4.42198 2650 
60 1 0.0273892 -0.0431111 -0.0622059 0.001058 -9.77119 5.72393e-05 -4.30224 2650 
278 1 0.0282588 -0.0328773 -0.0617895 0.001058 -9.67177 -0.0128102 -4.42344 2650 
259 1 0.0292359 -0.0308993 -0.0613598 0.001058 -9.63782 -8.35137e-05 -4.5921 2650 
122 1 0.0293342 -0.0287871 -0.0612844 0.001058 -9.62664 -4.19866e-05 -4.60786 2650 
281 1 0.0345415 -0.0622793 -0.0594205 0.000291 -9.33055 -1.83052e-06 -5.42391 2650 
99 1 0.0339358 -0.0484463 -0.0588904 0.001058 -9.25049 0.000467728 -5.33064 2650 
121 1 0.0312307 -0.0458208 -0.0597227 0.00164 -9.38104 -0.000376979 -4.9056 2650 
47 1 0.0355673 -0.0135829 -0.0588086 0.000291 -7.85803 0.160952 -4.7479 2650 
196 1 0.0358724 -0.0477857 -0.0577278 0.001058 -9.06698 -0.0309976 -5.63433 2650 
73 1 0.0394319 -0.058149 -0.0546222 0.00164 -8.58066 -0.000977484 -6.19438 2650 
141 1 0.039678 -0.0378518 -0.0560959 0.000291 -8.81708 0.00350132 -6.23646 2650 
86 1 0.0396344 -0.0342982 -0.0561211 0.000291 -8.85951 -0.0196413 -6.25651 2650 
204 1 0.0451927 -0.031293 -0.0507391 0.001058 -7.97115 0.00442293 -7.09988 2650 
174 1 0.0475106 -0.031247 -0.0496354 0.000291 -7.73014 0.00751117 -7.39948 2650 
152 1 0.0473453 -0.0281756 -0.0500486 0.000105 -7.96414 0.16229 -7.53285 2650 
18 1 0.0470381 -0.0214826 -0.0490332 0.001058 -7.62664 -0.0817074 -7.31643 2650 
229 1 0.0491701 -0.0616289 -0.0468961 0.001058 -7.36648 0.00012314 -7.72368 2650 
280 1 0.0482772 -0.0308793 -0.0480094 0.001058 -7.54129 1.03337e-05 -7.58336 2650 
300 1 0.0496612 -0.0257061 -0.0463592 0.001058 -7.17967 0.0601171 -7.69199 2650 
89 1 0.0558797 -0.0611601 -0.0376384 0.00164 -5.91239 2.87158e-07 -8.77779 2650 
272 1 0.0584795 -0.0491953 -0.0346356 0.001058 -5.45914 -0.0665598 -9.21892 2650 
61 1 0.05915 -0.0202541 -0.0349829 0.000291 -4.98551 -0.208979 -8.41857 2650 
83 1 0.0598477 -0.0499944 -0.0322156 0.001058 -5.05953 -0.00398649 -9.39903 2650 
181 1 0.0643362 -0.0478308 -0.0241912 0.000291 -3.79977 0.000644241 -10.1055 2650 
215 1 0.0639168 -0.0485426 -0.0231248 0.001058 -3.63247 -5.55998e-05 -10.0401 2650 
287 1 0.0651178 -0.0499115 -0.019476 0.001058 -3.05931 1.36748e-05 -10.2288 2650 
255 1 0.0660979 -0.0141531 -0.0188403 0.000291 -2.64646 -0.0533299 -9.299 2650 
84 1 0.0656512 -0.0510323 -0.0175788 0.001058 -2.76154 -0.00226831 -10.3135 2650 
264 1 0.0654802 -0.048242 -0.0182275 0.001058 -2.8632 2.41342e-05 -10.2857 2650 
290 1 0.0664712 -0.0487606 -0.0174733 0.000291 -2.74466 0.000552345 -10.4411 2650 
109 1 0.0669545 -0.0508337 -0.0154936 0.000291 -2.43514 0.0213874 -10.5234 2650 
269 1 0.0673427 -0.0121131 -0.0137058 0.000291 -1.99576 0.00554085 -9.80586 2650 
190 1 0.0680805 -0.0131327 -0.00933171 0.000291 -1.21759 0.259195 -8.86109 2650 
6 1 0.0682467 -0.0138723 -0.00800139 0.000291 -1.10142 -0.0155556 -9.40999 2650 
101 1 0.0145271 -0.000164049 -0.00676012 0.000291 -0.00701612 -0.000711223 -0.000860441 2650 
175 1 0.068577 -0.0113082 -0.00424101 0.000291 -0.577668 0.0789461 -9.35956 2650 
296 1 0.06867 -0.0110549 -0.00225427 0.000291 -0.311979 -0.0873049 -9.37864 2650 
150 1 0.0687082 -0.0338108 -0.00041863 0.000291 -0.0660283 -0.0023163 -10.8183 2650 
285 1 0.0680838 -0.030875 0.00018921 0.001058 0.0297213 -2.12563e-08 -10.6946 2650 
168 1 0.0688631 -0.0187798 0.00132518 0.000105 0.179509 -0.592996 -10.1995 2650 
45 1 0.0683341 -0.0187286 0.00684717 0.000291 0.987571 0.0511263 -9.38596 2650 
132 1 0.0673505 -0.0206631 0.00891886 0.001058 1.37641 0.00745542 -10.424 2650 
303 1 0.0680573 -0.0183334 0.0093842 0.000291 1.44865 0.178635 -10.491 2650 
202 1 0.0671902 -0.0308737 0.0101626 0.001058 1.61051 -0.0586779 -10.5772 2650 
3 1 0.066831 -0.0309191 0.0123256 0.001058 1.93051 0.0234163 -10.467 2650 
118 1 0.0676074 -0.0154902 0.0122618 0.000291 1.80419 -0.0503749 -9.8805 2650 
182 1 0.0670326 -0.0176016 0.015116 0.000291 2.0406 0.245602 -9.04667 2650 
250 1 0.00496891 -0.00318419 0.0150346 0.001058 0.0140228 -0.00572362 -0.00701528 2650 
137 1 0.0653073 -0.0611601 0.0165554 0.00164 2.60039 -8.16432e-07 -10.258 2650 
164 1 0.0660281 -0.0471771 0.0161069 0.001058 2.53552 0.0336169 -10.3931 2650 
226 1 0.0668128 -0.0456656 0.016111 0.000291 2.54741 0.0669253 -10.566 2650 
268 1 0.0636818 -0.0145242 0.0258659 0.000291 4.10796 0.203672 -10.1152 2650 
291 1 0.0622129 -0.0512437 0.0292013 0.000291 4.52584 0.237211 -9.64158 2650 
87 1 0.062215 -0.0172934 0.0292126 0.000291 4.45926 -0.0154901 -9.4939 2650 
110 1 0.0612343 -0.00395175 0.0311579 0.000291 4.19532 -0.0447186 -8.22673 2650 
231 1 0.0594062 -0.0447038 0.033027 0.001058 5.21745 0.00493777 -9.38483 2650 
103 1 0.0576891 -0.0473977 0.0373522 0.000291 5.81155 0.211681 -8.98223 2650 
178 1 0.052599 -0.0567366 0.0430134 0.001058 6.75655 -4.15845e-05 -8.26226 2650 
25 1 0.051114 -0.0588111 0.0438908 0.00164 6.89439 -5.78551e-05 -8.02901 2650 
275 1 0.0521869 -0.0184216 0.0446935 0.000291 7.19116 0.354143 -8.39338 2650 
206 1 0.0503887 -0.062509 0.0467119 0.000291 7.33745 1.86285e-09 -7.91501 2650 
169 1 0.0490867 -0.0611601 0.0461495 0.00164 7.24909 4.57202e-07 -7.71046 2650 
246 1 0.0496026 -0.0585276 0.0464375 0.001058 7.29456 -1.66622e-05 -7.79176 2650 
145 1 0.0489234 -0.039286 0.0463201 0.00164 7.27662 0.00461585 -7.68554 2650 
207 1 0.0512895 -0.015962 0.0457177 0.000291 7.25045 0.0563212 -8.1341 2650 
241 1 0.0487553 -0.0406023 0.0484137 0.000291 7.60593 -0.0601683 -7.65958 2650 
251 1 0.0480087 -0.030875 0.0482763 0.001058 7.58322 -2.12563e-08 -7.54119 2650 
210 1 0.0457568 -0.0342448 0.0502285 0.001058 7.87576 0.0401402 -7.17418 2650 
276 1 0.0441982 -0.0318649 0.052606 0.000291 8.19297 -0.0163812 -6.8832 2650 
240 1 0.0425527 -0.0293929 0.0539456 0.000291 8.25022 -0.0873756 -6.50943 2650 
253 1 0.041279 -0.0214063 0.0549317 0.000291 8.85323 -0.0516274 -6.65887 2650 
102 1 0.0382049 -0.0222486 0.0571147 0.000291 8.87965 -0.100281 -5.94018 2650 
252 1 0.0359356 -0.0158114 0.0576888 0.001058 9.04964 0.0164464 -5.63707 2650 
235 1 0.0375052 -0.0156279 0.057589 0.000291 9.08593 -0.05264 -5.91753 2650 
170 1 0.0385555 -0.00955403 0.0559576 0.001058 2.59554 -0.359806 -1.84713 2650 
126 1 0.0352409 -0.0284011 0.0589796 0.000291 8.79318 0.122337 -5.26242 2650 
177 1 0.0337885 -0.018004 0.0583092 0.00164 9.09546 -0.0106369 -5.27295 2650 
304 1 0.0343879 -0.0139175 0.0595072 0.000291 8.83632 -0.18421 -5.10629 2650 
88 1 0.0347708 -0.0128581 0.0594982 0.000105 8.04645 0.117749 -4.69668 2650 
227 1 0.0323978 -0.0462588 0.0606139 0.000291 9.69931 -0.0840841 -5.18424 2650 
39 1 0.0335695 -0.0419435 0.0599658 0.000291 9.25679 -0.263678 -5.18147 2650 
167 1 0.0310855 -0.00740668 0.0612823 0.000291 10.1291 -0.139278 -5.13418 2650 
133 1 0.0273013 -0.023803 0.0630558 0.000291 9.66143 -0.00337402 -4.18509 2650 
37 1 0.0267684 -0.0191806 0.0633013 0.000291 9.68665 0.0605824 -4.09522 2650 
104 1 0.0303561 -0.0104889 0.0618647 0.000105 8.92905 -0.347545 -4.38238 2650 
128 1 0.030287 -0.0029183 0.0618732 0.000105 7.82512 0.103894 -3.83669 2650 
107 1 0.0207969 -0.0488833 0.0647105 0.001058 10.1674 0.0012577 -3.2677 2650 
94 1 0.0201876 -0.0164489 0.0656995 0.000291 10.4851 -0.074895 -3.22027 2650 
64 1 0.0225364 -0.00882782 0.065114 0.000105 10.6209 0.236636 -3.67568 2650 
98 1 0.0137175 -0.0187618 0.0665524 0.001058 10.4689 -0.00159761 -2.15806 2650 
100 1 0.0163941 -0.0194336 0.0659539 0.001058 10.4322 0.00322368 -2.59212 2650 
16 1 0.015968 -0.0159046 0.0670341 0.000105 10.5408 0.0978272 -2.51086 2650 
85 1 0.0145743 -0.0156246 0.0671488 0.000291 9.84942 -0.270322 -2.14231 2650 
212 1 0.015331 -0.0136173 0.0669867 0.000291 10.0298 -0.061264 -2.3036 2650 
198 1 0.00168659 0.00273693 -0.0163589 0.000291 -0.0296253 0.00903644 -0.00211577 2650 
195 1 0.00253521 0.00205524 -0.015468 0.001058 -0.0272585 0.00295666 -0.00563484 2650 
57 1 0.00529574 0.0293591 -0.0143171 0.00164 -0.000919831 0.00616449 -0.024056 2650 
260 1 0.00451471 0.00869236 -0.0126287 0.000291 -0.00996736 0.00469349 0.00488237 2650 
33 1 0.00450318 0.0372025 -0.010789 0.00164 0.00603998 0.0215627 0.00352792 2650 
153 1 0.0064211 0.00372288 -0.00969732 0.00164 -0.00763413 -0.0014489 0.00703428 2650 
114 1 0.00579997 0.0153817 -0.00996212 0.001058 0.0187062 0.0117361 -0.00752779 2650 
284 1 0.0106979 0.0153473 -0.00849723 0.000291 -0.00371053 0.00586111 -0.00129449 2650 
123 1 0.0100353 0.0518206 -0.00960432 0.001058 -0.0069266 0.0381635 -0.00768552 2650 
199 1 0.0115342 0.00626362 -0.00758562 0.000291 -0.0066469 0.00203541 -0.00705897 2650 
161 1 0.0134615 0.00997733 -0.00641052 0.00164 -0.000454856 0.00568005 -0.00417258 2650 
19 1 0.0124779 0.012988 -0.00761057 0.001058 -0.00189711 0.0050805 -0.00113271 2650 
249 1 0.00963996 0.0421775 -0.00780294 0.000291 0.00987628 0.0185258 -0.0129358 2650 
176 1 0.011313 0.000888882 -0.00586256 0.000105 -0.0113334 0.00168079 0.000719247 2650 
258 1 0.00970822 0.056311 -0.00502813 0.001058 -0.00702738 0.0458888 -0.00817646 2650 
1 1 0.0125219 0.00743067 -0.00353328 0.00164 -0.00396175 0.00352346 -0.00443708 2650 
77 1 0.00572056 0.0121562 -0.00387317 0.000291 -0.0117356 0.000913058 0.0103562 2650 
52 1 0.013191 0.0569953 -0.00387275 0.001058 -0.00702953 0.0194323 -0.0174178 2650 
203 1 0.0152859 0.0384954 -0.00101441 0.001058 0.0105265 0.0334803 0.00411967 2650 
106 1 0.00471494 0.0403487 0.00154021 0.001058 0.0119634 0.0223893 -0.0027555 2650 
194 1 0.0092762 0.047752 0.000934382 0.001058 -0.00717738 0.0355954 0.00284246 2650 
238 1 0.0140578 0.0585829 0.000606934 0.001058 -0.00137728 0.0257105 -0.0165728 2650 
279 1 0.0139272 0.00552012 0.00224942 0.001058 0.00690887 -0.00122776 0.0071413 2650 
92 1 0.013758 0.0089869 0.00203638 0.001058 0.00298746 0.00292354 0.00546929 2650 
298 1 0.0144093 0.00106623 0.00415906 0.000105 0.00377194 -0.00442838 -0.00799766 2650 
156 1 0.011046 0.00346578 0.00680086 0.001058 -0.00386139 -0.00886559 -0.00604091 2650 
68 1 7.29144e-05 0.00505648 0.00788044 0.001058 0.00272783 -0.00342387 -0.00169301 2650 
265 1 0.0143228 0.0146408 0.0067532 0.001058 0.00631372 0.00593974 -0.00936806 2650 
9 1 0.0132531 0.0549271 0.00714247 0.00164 -0.00067168 0.0470366 0.00650688 2650 
273 1 0.000542785 0.0693897 0.00757082 0.001058 0.00511 0.0387776 -0.00978519 2650 
66 1 0.0113295 0.00757343 0.00941565 0.001058 0.00109107 -0.000952032 -0.00287426 2650 
38 1 0.01012 0.0208306 0.00849794 0.000291 -0.0203804 0.00352473 0.00785771 2650 
105 1 0.00509533 0.0214528 0.0105564 0.00164 -0.00344466 0.00582004 -0.00613861 2650 
41 1 0.00105775 0.0233715 0.0116357 0.00164 -0.00672013 0.00866437 -0.0057422 2650 
144 1 0.00289951 0.026862 0.011985 0.000105 0.0152864 0.0109644 -0.00695946 2650 
147 1 0.00892913 0.0443412 0.0129741 0.001058 0.030812 0.00832408 -0.0230623 2650 
242 1 0.00543801 0.0463368 0.013917 0.000291 0.0116924 0.0265357 0.00697501 2650 
266 1 0.00247091 0.0169485 0.0155295 0.001058 0.0339312 0.0111352 -0.00649733 2650 
139 1 0.0041298 0.0272894 0.0151689 0.001058 -0.0138539 0.00679752 0.0124887 2650 
124 1 0.00370108 0.0617507 0.0150152 0.001058 0.0237177 0.0354635 -0.00375445 2650 
157 1 0.00230963 0.100139 -0.0133112 0.000291 0.0079085 0.0606548 0.000918149 2650 
