ITEM: TIMESTEP
16422675
ITEM: NUMBER OF ATOMS
270
ITEM: BOX BOUNDS ff ff ff
-0.15 0.15
-0.15 0.15
-0.15 0.15
ITEM: ATOMS id type x y z radius vx vy vz density 
138 1 -0.00870682 -0.0513983 -0.067383 0.001058 -10.7386 0.0646299 1.39148 2650 
93 1 -0.0186895 -0.0500539 -0.0661368 0.000291 -10.9069 0.130009 3.08234 2650 
146 1 -0.0100079 -0.0489128 -0.0672139 0.001058 -10.5087 0.0631367 1.56436 2650 
202 1 -0.0074997 -0.0381769 -0.0675166 0.001058 -4.02838 -0.795471 0.704797 2650 
15 1 -0.0142708 -0.016593 -0.0672267 0.000291 -8.49455 -0.0154178 1.80066 2650 
207 1 -0.0163197 -0.0118628 -0.0667594 0.000291 -7.87639 -0.122277 1.93308 2650 
46 1 -0.0146983 -0.0120979 -0.0671334 0.000291 -8.47836 -0.0920395 1.86325 2650 
48 1 -0.0237287 -0.0578604 -0.0646736 0.000105 -4.63535 0.683105 1.69818 2650 
179 1 -0.0201439 -0.0497668 -0.0649134 0.001058 -10.2493 -0.0237106 3.18039 2650 
165 1 -0.0230423 -0.0480086 -0.0647548 0.000291 -10.1387 -0.374269 3.60792 2650 
86 1 -0.0246914 -0.0205587 -0.0641354 0.000291 -8.75633 -1.29147 3.37568 2650 
173 1 -0.0205504 -0.0100298 -0.0655789 0.000291 -8.67418 0.150814 2.71976 2650 
219 1 -0.0227616 -0.000290967 -0.0648282 0.000291 -7.68773 -3.06115e-05 2.68704 2650 
201 1 -0.0240201 -0.0292397 -0.0629421 0.00164 -9.48536 -0.0870828 3.61766 2650 
294 1 -0.0273801 -0.0256546 -0.0621855 0.001058 -9.42753 0.144233 4.1477 2650 
88 1 -0.0271192 -0.00464142 -0.0633298 0.000105 -7.62155 -0.201307 3.27399 2650 
49 1 -0.0305832 -0.0492905 -0.0600509 0.00164 -9.43146 -0.00936999 4.80352 2650 
59 1 -0.0288908 -0.0461665 -0.0615261 0.001058 -9.67137 -0.00676566 4.54166 2650 
248 1 -0.032051 -0.0253805 -0.0607745 0.000291 -7.42403 0.0659675 3.9147 2650 
257 1 -0.0338511 -0.0472804 -0.0589404 0.001058 -9.30904 0.112474 5.34637 2650 
182 1 -0.0341719 -0.0167196 -0.0596324 0.000291 -7.32074 -0.103118 4.1828 2650 
275 1 -0.0343637 -0.00466508 -0.0594968 0.000291 -4.58125 -0.31846 2.61613 2650 
141 1 -0.0436449 -0.0332731 -0.053065 0.000291 -7.83509 0.19151 6.45371 2650 
261 1 -0.0439452 -0.0237029 -0.0528163 0.000291 -6.53944 1.09666 5.44447 2650 
267 1 -0.055775 -0.0155196 -0.0401143 0.000291 -5.16108 0.0326726 7.18438 2650 
296 1 -0.0557663 -0.00525546 -0.0401226 0.000291 -4.70289 -0.103791 6.54508 2650 
277 1 -0.0567044 -0.0590078 -0.0387942 0.000291 -2.54778 -1.13402 3.81737 2650 
167 1 -0.0571772 -0.0111988 -0.0381043 0.000291 -4.90122 -0.00616063 7.41216 2650 
235 1 -0.0588853 -0.0121868 -0.0354295 0.000291 -4.27286 -0.169899 7.0786 2650 
16 1 -0.059069 -0.0086836 -0.0354706 0.000105 -4.43942 -0.220895 7.42742 2650 
21 1 -0.0627789 -0.0460796 -0.0279828 0.000291 -4.42521 0.00679642 9.92841 2650 
171 1 -0.0630085 -0.0485946 -0.0254931 0.001058 -4.06955 0.0143274 10.051 2650 
145 1 -0.0627313 -0.0286429 -0.0245501 0.00164 -1.98388 -0.157982 4.90513 2650 
278 1 -0.000896871 -0.013406 -0.0253499 0.001058 -0.218329 -1.48365 -3.06962 2650 
90 1 -0.0643939 -0.0510349 -0.0217354 0.001058 -3.43573 0.0171864 10.1802 2650 
227 1 -0.0657941 -0.0509803 -0.0198607 0.000291 -3.17898 0.326877 10.5316 2650 
125 1 -0.065626 -0.0459982 -0.0204287 0.000291 -3.1232 0.326914 10.0303 2650 
225 1 -0.0653976 -0.0450214 -0.0185141 0.001058 -2.91615 -0.0151737 10.3002 2650 
135 1 -0.00841597 -0.00162754 -0.0124735 0.000291 0.00330025 -0.00264717 0.00636962 2650 
39 1 -0.0679595 -0.0433751 -0.0101773 0.000291 -1.52102 -0.2779 10.2007 2650 
94 1 -0.011515 -0.00184232 -0.011814 0.000291 8.5498e-05 -0.0117385 8.5498e-05 2650 
29 1 -0.0685436 -0.00861241 -0.0047463 0.000291 -0.382791 -0.226616 5.53663 2650 
159 1 -0.012707 -0.00175404 -0.00588 0.000291 0 -0.011755 0 2650 
253 1 -0.0686472 -0.0236204 -0.00286103 0.000291 -0.404842 0.0890662 9.75759 2650 
61 1 -0.016439 -0.00203604 -0.001038 0.000291 0 -0.011755 0 2650 
197 1 -0.0686705 -0.00540705 0.00189421 0.000291 0.246285 -0.0675542 8.83882 2650 
58 1 -0.0122872 -0.00249363 0.000921889 0.001058 0.0256091 0.000874311 -0.0301938 2650 
268 1 -0.011054 -0.00317404 0.000789 0.000291 0 -0.011755 0 2650 
291 1 -0.008194 -0.00164904 0.004767 0.000291 0 -0.011755 0 2650 
6 1 -0.0682304 -0.0158981 0.00784587 0.000291 0.990392 0.0902835 8.4992 2650 
300 1 -0.0135611 -0.0028226 0.0078079 0.001058 -0.00246489 -0.00748443 -0.0047401 2650 
107 1 -0.067347 -0.0435825 0.00905537 0.001058 1.45817 0.0853155 10.8649 2650 
304 1 -0.012709 -0.00236804 0.009818 0.000291 0 -0.011755 0 2650 
110 1 -0.00241915 -0.0022973 0.00994147 0.000291 -0.00381615 -0.00836552 -0.0245093 2650 
55 1 -0.01171 -0.00190004 0.01034 0.000291 0 -0.011755 0 2650 
85 1 -0.0672374 -0.0160384 0.0141542 0.000291 1.74015 -0.00291037 8.26611 2650 
250 1 -0.0041671 -0.000181319 0.0150048 0.001058 0.0155527 -0.0042124 0.00795816 2650 
170 1 -0.0012618 -0.000592269 0.0153512 0.001058 0.0182293 -0.00571122 0.00927168 2650 
221 1 -0.0650293 -0.0257989 0.0221779 0.000291 2.57906 -0.33971 7.52758 2650 
252 1 -0.0630132 -0.00642915 0.0254219 0.001058 1.79265 0.145056 4.33857 2650 
152 1 -0.0624274 -0.0188643 0.0291827 0.000105 3.57554 -0.301103 7.6315 2650 
168 1 -0.0621773 -0.00478643 0.0296675 0.000105 3.75362 0.380518 7.88336 2650 
186 1 -0.0283141 -0.0121014 0.0324835 0.001058 -4.14933 -0.694513 4.79858 2650 
192 1 -0.0597931 -0.000104995 0.0342205 0.000105 4.43601 -3.39561e-06 7.76016 2650 
118 1 -0.0558788 -0.017876 0.039998 0.000291 5.11709 0.0213501 7.1429 2650 
169 1 -0.0460896 -0.0611601 0.049143 0.00164 7.71929 4.75604e-07 7.23967 2650 
246 1 -0.046377 -0.0585276 0.0496592 0.001058 7.80065 -1.74491e-05 7.28506 2650 
158 1 -0.0470478 -0.017986 0.0500721 0.000291 5.79053 -0.0340686 5.44006 2650 
206 1 -0.0466748 -0.0625047 0.0504231 0.000291 7.91721 -0.00897495 7.32863 2650 
25 1 -0.04383 -0.0588016 0.0511664 0.00164 8.03725 -1.63437e-05 6.88484 2650 
302 1 -0.0456168 -0.0153378 0.051379 0.000291 6.77468 -0.0958545 6.00518 2650 
178 1 -0.0432851 -0.0564526 0.0523764 0.001058 8.2272 6.79711e-05 6.79914 2650 
255 1 -0.036083 -0.00546947 0.0584714 0.000291 7.4444 -0.764719 4.59119 2650 
226 1 -0.0250592 -0.0384242 0.0639816 0.000291 10.1292 0.972226 3.96526 2650 
137 1 -0.0164757 -0.0611601 0.0653275 0.00164 10.2611 -8.16361e-07 2.58787 2650 
228 1 -0.0196271 -0.0233094 0.0658498 0.000291 8.72976 0.736908 2.61642 2650 
100 1 -0.0179422 -0.0168128 0.0655572 0.001058 8.82096 0.00675076 2.42422 2650 
103 1 -0.011159 -0.0543131 0.0677838 0.000291 10.7869 0.196033 1.77321 2650 
270 1 -0.00195405 -0.00398785 0.0686686 0.000291 7.38567 0.203646 0.208913 2650 
130 1 -0.00490675 0.00204497 -0.0120336 0.001058 -0.00692202 0.00347734 0.00595777 2650 
134 1 -0.000735451 0.00627272 -0.013117 0.000291 -0.0128132 0.00355392 -0.00692922 2650 
157 1 -0.00219815 0.0655658 -0.0138346 0.000291 0.0079085 0.0606548 0.000918149 2650 
74 1 -0.0108589 0.000993876 -0.0113338 0.001058 0.00156258 -0.00569596 -0.00749774 2650 
80 1 -0.0119183 0.0140089 -0.0111794 0.000105 0.0137546 0.0232676 -0.0199154 2650 
67 1 -0.00986577 0.0167322 -0.0109244 0.001058 -0.0104976 0.0129104 0.0114407 2650 
97 1 -0.0097875 0.00671143 -0.00933341 0.00164 0.0106628 0.00973926 -0.0203866 2650 
205 1 -0.00678076 0.00209788 -0.00709578 0.000291 -0.00881861 0.00364628 0.0236275 2650 
10 1 -0.0137574 0.00779288 -0.00734771 0.001058 0.0053433 0.0061558 -0.0070677 2650 
71 1 -0.000799713 0.00202027 -0.00428357 0.000291 0.000861808 -0.00718564 -0.0173142 2650 
114 1 -0.0048624 0.00869219 -0.00567134 0.001058 0.0187062 0.0117361 -0.00752779 2650 
234 1 -0.0129064 0.0100612 -0.00330664 0.000291 -0.00131366 0.00431637 0.0126772 2650 
7 1 -0.00390462 0.0286043 -0.00327977 0.000291 0.00378858 0.0136367 -0.000251809 2650 
129 1 -0.000666771 0.00825206 -0.00196262 0.00164 0.00825627 0.00147102 -0.0030875 2650 
65 1 -0.013889 0.0261309 -0.00120842 0.00164 -0.00447342 0.0138222 0.00034274 2650 
244 1 -0.0156842 0.0111768 0.00194268 0.001058 0.00660951 0.0230683 0.0366896 2650 
209 1 -0.0153251 0.00860699 0.00262 0.001058 0.00584419 -0.0188996 0.0174994 2650 
266 1 -0.0146384 0.0112132 0.00397586 0.001058 0.0170435 0.00901701 0.0432948 2650 
115 1 -0.0152073 0.0153918 0.00378496 0.001058 0.00236141 0.0122312 0.0092361 2650 
256 1 -0.0159602 0.0180587 0.00391569 0.000291 0.000881351 0.0216623 0.00465977 2650 
106 1 -0.00210411 0.0275869 0.00311083 0.001058 0.0119634 0.0223893 -0.0027555 2650 
211 1 -0.012481 0.00618822 0.00455276 0.001058 0.000982608 0.00314487 0.00709992 2650 
187 1 -0.0153501 0.024132 0.00417974 0.001058 0.00214171 0.0158257 0.0131405 2650 
220 1 -0.0148107 0.0247447 0.005262 0.000291 0.00991537 0.0130183 0.0124552 2650 
198 1 -0.0148468 0.0104198 0.00725694 0.000291 -0.0379681 -0.0144782 -0.071356 2650 
217 1 -0.0093531 0.0418378 0.00670831 0.001058 0.000747792 0.0265619 -0.00553463 2650 
68 1 -0.00148193 0.00700806 0.00884545 0.001058 0.00272783 -0.00342387 -0.00169301 2650 
242 1 -0.00122657 0.0312117 0.00994125 0.000291 0.0116924 0.0265357 0.00697501 2650 
124 1 -0.00939337 0.0405956 0.009898 0.001058 0.0225448 0.0380641 0.0162983 2650 
28 1 -0.0108619 0.0520135 0.00854091 0.001058 0.00734507 0.0503926 0.00344867 2650 
147 1 -0.0107894 0.0372137 0.0106213 0.001058 0.0275772 0.016189 0.0275411 2650 
116 1 -0.000419973 0.049765 0.0107999 0.001058 -0.0278213 0.0454338 0.0115295 2650 
299 1 -0.00705609 0.00219232 0.0125092 0.001058 0.00581403 -0.00322581 0.00124072 2650 
4 1 -0.00892719 0.00853189 0.0130832 0.001058 0.0064118 0.000915196 0.00341804 2650 
224 1 -0.00846387 0.0153279 0.0121594 0.001058 -0.00111942 0.00491513 -0.00282362 2650 
273 1 -0.00236988 0.0472868 0.0131483 0.001058 0.00511 0.0387776 -0.00978519 2650 
144 1 -0.0057331 0.0205821 0.0155592 0.000105 0.00807853 0.0136784 0.0281765 2650 
293 1 -0.00564898 0.0411647 0.0148094 0.001058 0.105973 0.0158555 0.0273021 2650 
154 1 -0.0135973 0.116839 -0.00287106 0.001058 -0.025218 0.0914679 0.0181079 2650 
240 1 0.0128395 -0.0321851 -0.0674981 0.000291 -8.84341 -1.00744 -1.6874 2650 
254 1 0.0205433 -0.0536249 -0.0655741 0.000291 -9.74208 -0.121655 -3.05519 2650 
174 1 0.0206035 -0.0327906 -0.0655435 0.000291 -9.50065 -0.555179 -2.98676 2650 
236 1 0.0235856 -0.0613149 -0.063723 0.001058 -10.1349 0.0340286 -3.75017 2650 
247 1 0.0266597 -0.0508619 -0.0633455 0.000291 -10.0987 0.16038 -4.25009 2650 
162 1 0.0227646 -0.0414765 -0.0640369 0.001058 -10.0821 -0.16887 -3.59098 2650 
13 1 0.0284664 -0.0386729 -0.0625406 0.000291 -9.08724 0.0765353 -4.13575 2650 
82 1 0.0230044 -0.0317606 -0.063934 0.001058 -9.49793 -0.172125 -3.41732 2650 
218 1 0.027959 -0.0492145 -0.0619542 0.001058 -9.73281 0.0284258 -4.39256 2650 
64 1 0.0321609 -0.0174569 -0.0609516 0.000105 -7.38129 0.0412514 -3.90373 2650 
40 1 0.0303319 -0.0031064 -0.061851 0.000105 -5.12245 -0.0237172 -2.52437 2650 
35 1 0.0328313 -0.0504602 -0.0595105 0.001058 -9.40935 -0.0829801 -5.19099 2650 
148 1 0.0346554 -0.0502134 -0.0584669 0.001058 -9.24842 -0.041551 -5.48211 2650 
188 1 0.0370342 -0.0614592 -0.0569675 0.001058 -8.90952 -0.0124959 -5.79212 2650 
20 1 0.0362474 -0.0549691 -0.0574774 0.001058 -9.03875 -0.0285357 -5.70016 2650 
43 1 0.035611 -0.0520194 -0.0578825 0.001058 -9.07955 0.0280069 -5.5857 2650 
172 1 0.0372743 -0.0532385 -0.0568204 0.001058 -8.97128 -0.00196658 -5.88704 2650 
81 1 0.0354813 -0.047729 -0.05729 0.00164 -8.94492 -0.0277619 -5.54006 2650 
50 1 0.037803 -0.0340521 -0.0564575 0.001058 -8.1796 -0.0460724 -5.45861 2650 
44 1 0.0370234 -0.0257528 -0.0569732 0.001058 -7.78145 0.0852651 -5.04465 2650 
42 1 0.0397806 -0.0534025 -0.05509 0.001058 -8.63457 -0.146704 -6.23517 2650 
193 1 0.0382311 -0.0497472 -0.0554907 0.00164 -8.72971 -0.0384431 -6.01537 2650 
223 1 0.040518 -0.0228416 -0.0545488 0.001058 -7.77627 0.172746 -5.77561 2650 
96 1 0.0408268 -0.0129123 -0.0555034 0.000105 -6.62137 0.0363358 -4.87226 2650 
295 1 0.0444561 -0.0290274 -0.0523873 0.000291 -7.44784 -0.165132 -6.32355 2650 
140 1 0.0441552 -0.0410532 -0.0516443 0.001058 -7.9339 -0.0940486 -6.78958 2650 
104 1 0.0454053 -0.0139456 -0.0518136 0.000105 -4.61201 -0.00160594 -4.05089 2650 
185 1 0.045752 -0.0482008 -0.0494529 0.00164 -7.89184 0.0531172 -7.30925 2650 
285 1 0.0459098 -0.0351937 -0.0500916 0.001058 -7.97057 0.0193671 -7.30613 2650 
18 1 0.0464268 -0.0198965 -0.0496112 0.001058 -7.05308 -0.289718 -6.57956 2650 
34 1 0.0482177 -0.030875 -0.0480676 0.001058 -7.55043 -2.22234e-06 -7.57402 2650 
303 1 0.0540453 -0.0158998 -0.0424019 0.000291 -5.90356 -0.476201 -7.54942 2650 
212 1 0.0556957 -0.00179074 -0.0402282 0.000291 -4.047 0.43617 -5.57469 2650 
213 1 0.0605338 -0.0406217 -0.0325297 0.000291 -4.50034 -0.605721 -8.37991 2650 
45 1 0.0600795 -0.010737 -0.0333637 0.000291 -4.53223 0.256637 -8.19447 2650 
269 1 0.0613494 -0.0143868 -0.0309884 0.000291 -3.76923 -0.446575 -7.48464 2650 
132 1 0.0618848 -0.0158345 -0.028112 0.001058 -3.82873 0.0790104 -8.4131 2650 
98 1 0.0626645 -0.0181255 -0.0263225 0.001058 -3.58157 0.0166639 -8.60585 2650 
204 1 0.0641438 -0.0282508 -0.0223947 0.001058 -3.20092 -0.140284 -9.15653 2650 
210 1 0.0653875 -0.0399915 -0.0185082 0.001058 -2.6998 0.314612 -9.66366 2650 
26 1 0.0657318 -0.0493644 -0.017286 0.001058 -2.70146 0.0103567 -10.2725 2650 
133 1 0.0663714 -0.0220374 -0.0178025 0.000291 -2.48002 -0.138377 -9.23397 2650 
214 1 0.0669365 -0.0469376 -0.0155878 0.000291 -2.21924 0.0743832 -9.5352 2650 
177 1 0.0656055 -0.0189268 -0.0153875 0.00164 -2.13672 0.0902698 -8.96592 2650 
37 1 0.006156 -0.00233604 -0.015157 0.000291 0 -0.011755 0 2650 
87 1 0.00459535 -0.00194162 -0.0155291 0.000291 -0.0161388 -0.0140939 0.00495742 2650 
272 1 0.0664194 -0.0315471 -0.014326 0.001058 -2.08491 0.0570894 -9.6869 2650 
78 1 0.001258 -0.00235004 -0.012517 0.000291 0 -0.011755 0 2650 
60 1 0.067111 -0.0409047 -0.010677 0.001058 -1.55746 -0.0888602 -9.78638 2650 
3 1 0.0671355 -0.0304265 -0.0104714 0.001058 -1.49215 -0.156954 -9.53435 2650 
24 1 0.0681261 -0.0229486 -0.0102783 0.000105 -1.35488 1.3974 -9.00426 2650 
200 1 0.0686054 -0.00793741 -0.00630072 0.000105 -0.833519 -0.132029 -9.11883 2650 
102 1 0.0685797 -0.0111841 -0.0042017 0.000291 -0.535502 -0.120204 -8.82492 2650 
150 1 0.0686985 -0.0340811 -0.00119173 0.000291 -0.168346 -0.170349 -9.7698 2650 
22 1 0.068706 -0.0220638 -0.000635346 0.000291 -0.0782202 -0.123529 -8.73491 2650 
190 1 0.005899 -0.00273404 -0.000534 0.000291 0 -0.011755 0 2650 
128 1 0.00361 -0.00313504 0.000511 0.000105 0 -0.011755 0 2650 
23 1 0.0686442 -0.0385047 0.00293099 0.000291 0.449791 0.141478 -10.5174 2650 
271 1 0.0149295 -0.00261031 0.00384412 0.001058 -0.00836175 -0.00741924 0.00606058 2650 
112 1 0.0108106 -0.00258592 0.00406591 0.000105 -0.0366004 -0.016139 -0.0311832 2650 
79 1 0.014214 -0.00213304 0.005058 0.000291 0 -0.011755 0 2650 
122 1 0.0675878 -0.0256911 0.00696969 0.001058 0.914131 0.02771 -9.03724 2650 
282 1 0.0684679 -0.0243206 0.0057441 0.000291 0.827191 0.117819 -9.86029 2650 
131 1 0.0674189 -0.0481982 0.00850439 0.001058 1.33159 -0.00316023 -10.546 2650 
229 1 0.0670205 -0.0583641 0.011176 0.001058 1.60449 -0.146975 -9.5965 2650 
99 1 0.067099 -0.0447789 0.0107625 0.001058 1.55282 0.416386 -9.67517 2650 
259 1 0.0669934 -0.0306285 0.0113737 0.001058 1.70975 0.029691 -10.1002 2650 
222 1 0.0068277 -0.000396495 0.0122119 0.001058 -0.0154393 0.00359566 0.0347287 2650 
14 1 0.0672439 -0.0247011 0.0141117 0.000291 1.95305 -0.389601 -9.30042 2650 
95 1 0.00656141 -2.92414e-05 0.0152744 0.000291 -0.00125124 -0.00455303 -0.000545416 2650 
239 1 0.0654378 -0.0497147 0.0183691 0.001058 2.88557 -0.0158004 -10.2796 2650 
126 1 0.066097 -0.0252463 0.0187647 0.000291 2.55619 -0.0610663 -8.98182 2650 
230 1 0.0642349 -0.0491331 0.0222222 0.001058 3.50047 0.0260377 -10.1214 2650 
108 1 0.0641308 -0.0405966 0.0224884 0.001058 3.52311 0.0331517 -9.96315 2650 
289 1 0.0639551 -0.0202532 0.0251583 0.000291 3.50166 0.653334 -8.87401 2650 
288 1 0.0630373 -0.0470274 0.0274003 0.000291 4.29924 -0.0302038 -9.89297 2650 
175 1 0.0635596 -0.00929438 0.0261281 0.000291 3.39138 -0.239627 -8.24337 2650 
117 1 0.063724 -0.00890561 0.0257241 0.000291 3.31519 -0.191113 -8.22522 2650 
243 1 0.0620462 -0.047997 0.0277587 0.001058 4.35749 -0.0115808 -9.74042 2650 
191 1 0.0621818 -0.0487141 0.0292852 0.000291 4.60155 0.152946 -9.77022 2650 
36 1 0.061883 -0.0453976 0.028119 0.001058 4.42207 -0.0242088 -9.73197 2650 
2 1 0.0615103 -0.0434286 0.0289174 0.001058 4.53475 0.0181044 -9.64521 2650 
231 1 0.0610583 -0.0345829 0.0298044 0.001058 4.23406 0.176936 -8.66556 2650 
121 1 0.0603487 -0.0465626 0.0300078 0.00164 4.7138 0.000235809 -9.47992 2650 
196 1 0.0605336 -0.0427247 0.0309045 0.001058 4.85967 0.00764585 -9.51831 2650 
8 1 0.00445687 -0.0624752 0.0687495 0.000105 10.2272 0.0582834 -0.663608 2650 
281 1 0.0594928 -0.0621869 0.0344096 0.000291 5.45694 0.0128396 -9.43577 2650 
276 1 0.0581575 -0.0397227 0.0366011 0.000291 5.47076 0.761227 -8.68699 2650 
73 1 0.0545545 -0.058066 0.0395302 0.00164 6.20561 0.0170785 -8.5639 2650 
119 1 0.0545892 -0.0528992 0.0417049 0.000291 6.29006 -0.130931 -8.21665 2650 
251 1 0.0506831 -0.0325626 0.0452503 0.001058 7.19165 -0.153501 -8.05604 2650 
208 1 0.0474507 -0.0373614 0.0486326 0.001058 6.53899 0.201644 -6.42042 2650 
280 1 0.0480682 -0.0308793 0.0482186 0.001058 7.57416 9.59481e-06 -7.55054 2650 
47 1 0.0430123 -0.00591468 0.0535666 0.000291 5.85544 -0.445033 -4.67893 2650 
89 1 0.0384373 -0.0609977 0.0553237 0.00164 8.7356 0.000327688 -6.07073 2650 
83 1 0.030408 -0.0496258 0.0607873 0.001058 9.53757 -0.199763 -4.77061 2650 
287 1 0.0285562 -0.0487423 0.0616821 0.001058 9.66628 -0.132921 -4.47541 2650 
76 1 0.0247129 -0.0434269 0.0633175 0.001058 9.05908 0.279311 -3.55163 2650 
164 1 0.0259836 -0.0364722 0.0627793 0.001058 9.19769 0.100935 -3.79178 2650 
84 1 0.0176425 -0.0510073 0.0656337 0.001058 10.3027 0.00897055 -2.76952 2650 
264 1 0.0194106 -0.0478261 0.0651395 0.001058 10.1814 0.00382224 -3.03381 2650 
181 1 0.0196644 -0.0491698 0.0658567 0.000291 10.1967 0.067193 -3.04509 2650 
215 1 0.0227268 -0.0477782 0.0640594 0.001058 10.0751 -0.0346542 -3.57378 2650 
30 1 0.023418 -0.0308062 0.0646031 0.000291 9.70106 0.00224537 -3.49451 2650 
109 1 0.0160711 -0.0513404 0.0668154 0.000291 10.429 -0.112058 -2.50899 2650 
290 1 0.0185785 -0.0481229 0.0661715 0.000291 10.3169 0.0713898 -2.89655 2650 
241 1 0.0150528 -0.0400244 0.067049 0.000291 10.4382 -0.616626 -2.34005 2650 
184 1 0.0135646 -0.0242868 0.0675478 0.000105 7.79236 -0.175672 -1.57858 2650 
232 1 0.00258492 0.0283671 -0.014666 0.001058 -0.0291023 0.0299794 -0.00774462 2650 
33 1 0.00106043 0.0249119 -0.0127999 0.00164 0.00603998 0.0215627 0.00352792 2650 
301 1 0.00549356 0.038278 -0.0138739 0.001058 -0.0176549 0.0163122 0.00371725 2650 
75 1 0.00494516 0.0660343 -0.0134295 0.001058 0.0240155 0.0510522 0.00788599 2650 
260 1 0.00768954 0.00568866 -0.0100593 0.000291 0.00264513 0.00634623 -0.0220501 2650 
286 1 0.0103593 0.0292936 -0.011977 0.001058 -0.0184193 0.0490737 -0.0156693 2650 
153 1 0.0072724 0.00502548 -0.00817876 0.00164 0.00901504 -0.00371715 -0.0192614 2650 
77 1 0.0124097 0.0116358 -0.00977612 0.000291 -0.0117356 0.000913058 0.0103562 2650 
19 1 0.0135593 0.0100921 -0.00696494 0.001058 -0.00189711 0.0050805 -0.00113271 2650 
284 1 0.0128129 0.0120065 -0.00775939 0.000291 -0.00371053 0.00586111 -0.00129449 2650 
54 1 0.0146277 0.0330063 -0.00763007 0.000291 -0.0134846 -0.000758408 -0.0470633 2650 
292 1 0.00635388 0.0439186 -0.00602223 0.001058 -0.0104367 0.0376087 -0.0291473 2650 
195 1 0.015023 0.000484848 -0.00496116 0.001058 -0.00594761 0.00111743 -0.0304826 2650 
161 1 0.0137208 0.00673975 -0.00403219 0.00164 -0.000454856 0.00568005 -0.00417258 2650 
123 1 0.0139834 0.0300677 -0.00522363 0.001058 -0.0069266 0.0381635 -0.00768552 2650 
176 1 0.0118356 0.000200556 -0.00377362 0.000105 0.0200199 0.000256501 -0.0124767 2650 
101 1 0.0101889 0.000654278 -0.00222132 0.000291 0.0107852 -0.0015929 -0.0095042 2650 
113 1 0.0036912 0.00529531 -0.00212242 0.00164 -0.0251958 0.00978061 -0.000134024 2650 
199 1 0.0153228 0.00510345 -0.00356206 0.000291 -0.0066469 0.00203541 -0.00705897 2650 
203 1 0.00928587 0.0194119 -0.00336259 0.001058 0.0105265 0.0334803 0.00411967 2650 
1 1 0.01478 0.00542233 -0.00100417 0.00164 -0.00396175 0.00352346 -0.00443708 2650 
279 1 0.00998921 0.00621993 -0.00182106 0.001058 0.00690887 -0.00122776 0.0071413 2650 
92 1 0.0120552 0.0073205 -0.00108108 0.001058 0.00298746 0.00292354 0.00546929 2650 
38 1 0.00636869 0.0168283 -0.0014478 0.000291 0.0290333 0.00993382 0.0254358 2650 
57 1 0.00582004 0.0258454 -0.000605402 0.00164 -0.000919831 0.00616449 -0.024056 2650 
194 1 0.0133673 0.0274629 -0.000685801 0.001058 -0.00717738 0.0355954 0.00284246 2650 
258 1 0.0137138 0.0301547 -0.000367609 0.001058 -0.00702738 0.0458888 -0.00817646 2650 
249 1 0.00401055 0.0316179 -0.000429636 0.000291 0.00987628 0.0185258 -0.0129358 2650 
51 1 0.00929582 0.00572574 0.00330255 0.001058 -0.0414136 0.0415048 -0.0353246 2650 
9 1 0.0136359 0.0281166 0.0034336 0.00164 -0.00067168 0.0470366 0.00650688 2650 
52 1 0.0106509 0.0437805 0.0039107 0.001058 0.0258261 0.0380708 0.00407144 2650 
70 1 0.00397591 0.0420243 0.00425053 0.000291 0.000986621 0.0559838 -0.0454673 2650 
263 1 0.0149145 0.0449172 0.00670308 0.000291 -0.0456471 0.0643068 -0.00143193 2650 
298 1 0.0122593 0.00359037 0.00871766 0.000105 0.00377194 -0.00442838 -0.00799766 2650 
156 1 0.0112684 0.00888735 0.00856546 0.001058 0.0107441 -0.0117541 0.0077951 2650 
139 1 0.0120264 0.0234149 0.00805041 0.001058 -0.0138539 0.00679752 0.0124887 2650 
238 1 0.0104032 0.0432814 0.00871027 0.001058 0.0185997 0.0286204 -0.0105297 2650 
17 1 0.0117629 0.0455714 0.00957678 0.00164 0.0262036 0.0387213 -0.0293135 2650 
66 1 0.0105789 0.00810702 0.0112249 0.001058 0.00274751 -0.000835425 -0.00507484 2650 
265 1 0.0100488 0.0111749 0.0115409 0.001058 0.011667 0.00657701 -0.00499144 2650 
105 1 0.00864162 0.0167219 0.0102931 0.00164 0.000597876 0.0137471 0.023702 2650 
41 1 0.00121728 0.0190548 0.0129698 0.00164 0.0102042 0.00860529 0.0210319 2650 
127 1 0.0121881 0.0754244 -0.00865435 0.000291 0.0147798 0.0618117 0.0201086 2650 
245 1 0.00688967 0.0861042 -0.00830567 0.001058 0.013355 0.0538623 -0.0223836 2650 
