LIGGGHTS (Version LIGGGHTS-PUBLIC 3.8.0, compiled 2022-11-07-16:55:38 by serperd1, git commit 86544c3f1215bc9744d7929e3eacf53ba086af9e)
units si #
dimension 3 #
newton off #
boundary f f f #
atom_style sphere #
pair_style gran model hertz tangential history #
communicate single vel yes #
region outer_basket cylinder y 0 0 0.15 -0.15 0.15 #
create_box 3 outer_basket #
Created orthogonal box = (-0.15 -0.15 -0.15) to (0.15 0.15 0.15)
  2 by 4 by 5 MPI processor grid
variable my_omega equal 157.0796 #
fix cone_mesh all mesh/surface file cone.stl type 3 scale 1 #
fix rotating_wall_1 all move/mesh mesh cone_mesh rotate/variable origin 0 0 0 axis 0 1 0 omega v_my_omega #
fix filter_mesh_walls all mesh/surface file dem_walls_75X_14micronpore_mod_mesh.stl type 2 scale 1e-3 curvature 1e-5 #
fix rotating_wall_2 all move/mesh mesh filter_mesh_walls rotate/variable origin 0 0 0 axis 0 1 0 omega v_my_omega #
fix inlet_cyl_wall_mesh all mesh/surface file in_cyl.stl type 3 scale 1 #
fix top_cyl_wall_mesh all mesh/surface file top_cyl.stl type 3 scale 1 #
fix rotating_wall_4 all move/mesh mesh top_cyl_wall_mesh rotate/variable origin 0 0 0 axis 0 1 0 omega v_my_omega #
fix bot_cyl_wall_mesh all mesh/surface file bot_cyl.stl type 3 scale 1 #
fix rotating_wall_5 all move/mesh mesh bot_cyl_wall_mesh rotate/variable origin 0 0 0 axis 0 1 0 omega v_my_omega #
fix bot_disk_wall_mesh all mesh/surface file bottom_disk.stl type 3 scale 1 #
fix rotating_wall_6 all move/mesh mesh bot_disk_wall_mesh rotate/variable origin 0 0 0 axis 0 1 0 omega v_my_omega #
fix top_disk_wall_mesh all mesh/surface file top_disk.stl type 3 scale 1 #
fix rotating_wall_7 all move/mesh mesh top_disk_wall_mesh rotate/variable origin 0 0 0 axis 0 1 0 omega v_my_omega #
fix GMSH_mesh_walls all wall/gran model hertz tangential history mesh n_meshes 7 meshes cone_mesh filter_mesh_walls top_cyl_wall_mesh bot_cyl_wall_mesh bot_disk_wall_mesh inlet_cyl_wall_mesh top_disk_wall_mesh #
fix Young_mod all property/global youngsModulus peratomtype 375000000 46000000 1000000000 #
fix Poisson_rat all property/global poissonsRatio peratomtype 0.32 0.42 0.29 #
fix Coeff_rest all property/global coefficientRestitution peratomtypepair 3 0.15 0.32 0.475 0.32 0.49 0.645 0.475 0.645 0.8 #
fix Coeff_fric all property/global coefficientFriction peratomtypepair 3 0.04 0.145 0.12 0.145 0.25 0.225 0.12 0.225 0.2 #

neighbor 0.0006561 bin #
neigh_modify delay 0 one 100000 page 5000000 #
fix r_0to10p all particletemplate/sphere 12345787 atom_type 1 density constant 2650 radius constant 0.000105 #
fix r_10to50p all particletemplate/sphere 15485863 atom_type 1 density constant 2650 radius constant 0.000291 #
fix r_50to90p all particletemplate/sphere 15485867 atom_type 1 density constant 2650 radius constant 0.0010582 #
fix r_90to100p all particletemplate/sphere 32452843 atom_type 1 density constant 2650 radius constant 0.0016402 #
fix prob_par all particledistribution/discrete 32452867 4 r_0to10p 0.1 r_10to50p 0.4 r_50to90p 0.4 r_90to100p 0.1 #
pair_coeff * * #
timestep 8.0985e-08 #

fix nve_group all nve/sphere #
fix grav_fix all gravity 6.1081 vector 0.017 -0.0033 0 -1 0 #
fix cent_fix all centrifugal 157.0796 0.017 -0.0033 0.069 #

variable step equal step #
variable mycount equal count(all) #
fix print_amount_of_atoms all print 25 "${step} ${mycount}" file numatoms.txt screen no #
run 0 #
Setting up run at Wed Nov 23 15:26:46 2022

Memory usage per processor = 1078.21 Mbytes
    Step    Atoms         KinEng            CPU 
       0        0              0              0 
Loop time of 6.34152e-05 on 40 procs for 0 steps with 0 atoms, finish time Wed Nov 23 15:26:47 2022


Pair  time (%) = 0 (0)
Neigh time (%) = 0 (0)
Comm  time (%) = 0 (0)
Outpt time (%) = 0 (0)
Other time (%) = 6.34152e-05 (100)

Nlocal:    0 ave 0 max 0 min
Histogram: 40 0 0 0 0 0 0 0 0 0
Nghost:    0 ave 0 max 0 min
Histogram: 40 0 0 0 0 0 0 0 0 0
Neighs:    0 ave 0 max 0 min
Histogram: 40 0 0 0 0 0 0 0 0 0

Total # of neighbors = 0
Neighbor list builds = 0
Dangerous builds = 0
run 1 #
Setting up run at Wed Nov 23 15:26:47 2022

Memory usage per processor = 1078.21 Mbytes
    Step    Atoms         KinEng            CPU 
       0        0              0              0 
       1        0              0    0.012919942 
Loop time of 0.0129463 on 40 procs for 1 steps with 0 atoms, finish time Wed Nov 23 15:26:47 2022


Pair  time (%) = 2.73455e-06 (0.0211223)
Neigh time (%) = 0 (0)
Comm  time (%) = 0.00017416 (1.34525)
Outpt time (%) = 0.000225021 (1.73811)
Other time (%) = 0.0125444 (96.8955)

Nlocal:    0 ave 0 max 0 min
Histogram: 40 0 0 0 0 0 0 0 0 0
Nghost:    0 ave 0 max 0 min
Histogram: 40 0 0 0 0 0 0 0 0 0
Neighs:    0 ave 0 max 0 min
Histogram: 40 0 0 0 0 0 0 0 0 0

Total # of neighbors = 0
Neighbor list builds = 0
Dangerous builds = 0
read_dump dump.atom_info_1 1 x y z radius vx vy vz box no add yes replace no #
  orthogonal box = (-0.15 -0.15 -0.15) to (0.15 0.15 0.15)
  0 atoms before read
  305 atoms in snapshot
  0 atoms purged
  0 atoms replaced
  0 atoms trimmed
  305 atoms added
  305 atoms after read
set atom * type 1 density 2650 vy -0.011755 #
  305 settings made for type
  305 settings made for density
  305 settings made for vy
write_dump all mesh/stl filter_mesh_scaled*.stl filter_mesh_walls #
run 1 #
Setting up run at Wed Nov 23 15:26:47 2022

Memory usage per processor = 1082.6 Mbytes
    Step    Atoms         KinEng            CPU 
       1      305  2.0479885e-07              0 
       2      305  2.4141415e-07    0.012395111 
Loop time of 0.0124119 on 40 procs for 1 steps with 305 atoms, finish time Wed Nov 23 15:26:47 2022


Pair  time (%) = 2.54153e-06 (0.0204766)
Neigh time (%) = 0 (0)
Comm  time (%) = 4.6999e-06 (0.0378662)
Outpt time (%) = 0.000237503 (1.91351)
Other time (%) = 0.0121671 (98.0281)

Nlocal:    7.625 ave 134 max 0 min
Histogram: 36 2 0 0 0 0 0 0 0 2
Nghost:    5.125 ave 59 max 0 min
Histogram: 36 0 0 0 0 0 0 2 0 2
Neighs:    2.375 ave 54 max 0 min
Histogram: 37 1 0 0 0 1 0 0 0 1

Total # of neighbors = 95
Ave neighs/atom = 0.311475
Neighbor list builds = 0
Dangerous builds = 0
write_dump all custom dump.atom_info_ac_* id type x y z radius vx vy vz density #
run 123478
Setting up run at Wed Nov 23 15:26:47 2022

Memory usage per processor = 1082.6 Mbytes
    Step    Atoms         KinEng            CPU 
       2      305  2.4141415e-07              0 
  123480      305  6.0833846e-05      1756.6001 
Loop time of 1756.6 on 40 procs for 123478 steps with 305 atoms, finish time Wed Nov 23 15:56:04 2022


Pair  time (%) = 0.289399 (0.0164749)
Neigh time (%) = 0.0571053 (0.0032509)
Comm  time (%) = 0.606468 (0.0345251)
Outpt time (%) = 0.000306228 (1.7433e-05)
Other time (%) = 1755.65 (99.9457)

Nlocal:    7.625 ave 136 max 0 min
Histogram: 36 2 0 0 0 0 0 0 1 1
Nghost:    5.15 ave 59 max 0 min
Histogram: 36 0 0 0 0 0 0 2 0 2
Neighs:    2.5 ave 57 max 0 min
Histogram: 36 2 0 0 1 0 0 0 0 1

Total # of neighbors = 100
Ave neighs/atom = 0.327869
Neighbor list builds = 330
Dangerous builds = 0
write_dump all custom dump.atom_info_ac_* id type x y z radius vx vy vz density #
run 123478
Setting up run at Wed Nov 23 15:56:04 2022

Memory usage per processor = 1082.6 Mbytes
    Step    Atoms         KinEng            CPU 
  123480      305  6.0833846e-05              0 
  246958      305  4.3791858e-05      1765.5446 
Loop time of 1765.54 on 40 procs for 123478 steps with 305 atoms, finish time Wed Nov 23 16:25:29 2022


Pair  time (%) = 0.289109 (0.0163751)
Neigh time (%) = 0.0575428 (0.00325921)
Comm  time (%) = 0.607661 (0.0344178)
Outpt time (%) = 0.000307211 (1.74004e-05)
Other time (%) = 1764.59 (99.9459)

Nlocal:    7.625 ave 138 max 0 min
Histogram: 36 2 0 0 0 0 0 0 1 1
Nghost:    5.125 ave 56 max 0 min
Histogram: 36 0 0 0 0 0 0 0 2 2
Neighs:    2.475 ave 57 max 0 min
Histogram: 36 2 0 0 1 0 0 0 0 1

Total # of neighbors = 99
Ave neighs/atom = 0.32459
Neighbor list builds = 330
Dangerous builds = 0
write_dump all custom dump.atom_info_ac_* id type x y z radius vx vy vz density #
run 123478
Setting up run at Wed Nov 23 16:25:29 2022

Memory usage per processor = 1082.6 Mbytes
    Step    Atoms         KinEng            CPU 
  246958      305  4.3791858e-05              0 
  370436      305  0.00038094199      1750.7156 
Loop time of 1750.72 on 40 procs for 123478 steps with 305 atoms, finish time Wed Nov 23 16:54:40 2022


Pair  time (%) = 0.289696 (0.0165473)
Neigh time (%) = 0.057181 (0.00326615)
Comm  time (%) = 0.624663 (0.0356804)
Outpt time (%) = 0.00074657 (4.26437e-05)
Other time (%) = 1749.74 (99.9445)

Nlocal:    7.625 ave 134 max 0 min
Histogram: 36 0 2 0 0 0 0 0 1 1
Nghost:    5.025 ave 61 max 0 min
Histogram: 36 0 0 0 0 0 0 2 1 1
Neighs:    2.475 ave 57 max 0 min
Histogram: 36 2 0 0 1 0 0 0 0 1

Total # of neighbors = 99
Ave neighs/atom = 0.32459
Neighbor list builds = 330
Dangerous builds = 0
write_dump all custom dump.atom_info_ac_* id type x y z radius vx vy vz density #
run 123478
Setting up run at Wed Nov 23 16:54:40 2022

Memory usage per processor = 1082.6 Mbytes
    Step    Atoms         KinEng            CPU 
  370436      305  0.00038094199              0 
  493914      305  0.00028933811      1690.1679 
Loop time of 1690.17 on 40 procs for 123478 steps with 305 atoms, finish time Wed Nov 23 17:22:50 2022


Pair  time (%) = 0.29307 (0.0173397)
Neigh time (%) = 0.0575916 (0.00340745)
Comm  time (%) = 0.628168 (0.037166)
Outpt time (%) = 0.000665048 (3.93481e-05)
Other time (%) = 1689.19 (99.942)

Nlocal:    7.625 ave 134 max 0 min
Histogram: 36 0 2 0 0 0 0 0 1 1
Nghost:    5.025 ave 59 max 0 min
Histogram: 36 0 0 0 0 0 0 2 0 2
Neighs:    2.425 ave 54 max 0 min
Histogram: 36 1 1 0 1 0 0 0 0 1

Total # of neighbors = 97
Ave neighs/atom = 0.318033
Neighbor list builds = 330
Dangerous builds = 0
write_dump all custom dump.atom_info_ac_* id type x y z radius vx vy vz density #
run 123478
Setting up run at Wed Nov 23 17:22:50 2022

Memory usage per processor = 1082.6 Mbytes
    Step    Atoms         KinEng            CPU 
  493914      305  0.00028933811              0 
  617392      305   0.0020121835      1869.0148 
Loop time of 1869.02 on 40 procs for 123478 steps with 305 atoms, finish time Wed Nov 23 17:53:59 2022


Pair  time (%) = 0.295341 (0.015802)
Neigh time (%) = 0.0579062 (0.00309822)
Comm  time (%) = 0.660224 (0.0353247)
Outpt time (%) = 0.000421774 (2.25667e-05)
Other time (%) = 1868 (99.9458)

Nlocal:    7.625 ave 134 max 0 min
Histogram: 36 0 2 0 0 0 0 1 0 1
Nghost:    5 ave 59 max 0 min
Histogram: 36 0 0 0 0 0 1 1 0 2
Neighs:    2.5 ave 55 max 0 min
Histogram: 36 1 1 0 1 0 0 0 0 1

Total # of neighbors = 100
Ave neighs/atom = 0.327869
Neighbor list builds = 330
Dangerous builds = 0
write_dump all custom dump.atom_info_ac_* id type x y z radius vx vy vz density #
run 123478
Setting up run at Wed Nov 23 17:54:00 2022

Memory usage per processor = 1082.6 Mbytes
    Step    Atoms         KinEng            CPU 
  617392      305   0.0020121835              0 
  740870      305   0.0010940179      1694.4651 
Loop time of 1694.47 on 40 procs for 123478 steps with 305 atoms, finish time Wed Nov 23 18:22:14 2022


Pair  time (%) = 0.297012 (0.0175284)
Neigh time (%) = 0.0571849 (0.0033748)
Comm  time (%) = 0.697856 (0.0411845)
Outpt time (%) = 0.000695883 (4.1068e-05)
Other time (%) = 1693.41 (99.9379)

Nlocal:    7.625 ave 133 max 0 min
Histogram: 36 0 2 0 0 0 0 1 0 1
Nghost:    5 ave 58 max 0 min
Histogram: 36 0 0 0 0 0 1 1 0 2
Neighs:    2.375 ave 54 max 0 min
Histogram: 36 1 1 1 0 0 0 0 0 1

Total # of neighbors = 95
Ave neighs/atom = 0.311475
Neighbor list builds = 330
Dangerous builds = 0
write_dump all custom dump.atom_info_ac_* id type x y z radius vx vy vz density #
run 123478
Setting up run at Wed Nov 23 18:22:14 2022

Memory usage per processor = 1082.6 Mbytes
    Step    Atoms         KinEng            CPU 
  740870      305   0.0010940179              0 
  864348      304   0.0016630154      1704.8599 
Loop time of 1704.86 on 40 procs for 123478 steps with 304 atoms, finish time Wed Nov 23 18:50:39 2022


Pair  time (%) = 0.296164 (0.0173718)
Neigh time (%) = 0.0575978 (0.00337845)
Comm  time (%) = 0.665157 (0.0390154)
Outpt time (%) = 0.000370855 (2.17528e-05)
Other time (%) = 1703.84 (99.9402)

Nlocal:    7.6 ave 132 max 0 min
Histogram: 36 1 1 0 0 0 0 1 0 1
Nghost:    5.225 ave 60 max 0 min
Histogram: 36 0 0 0 0 0 1 0 1 2
Neighs:    2.4 ave 54 max 0 min
Histogram: 36 1 1 1 0 0 0 0 0 1

Total # of neighbors = 96
Ave neighs/atom = 0.315789
Neighbor list builds = 330
Dangerous builds = 0
write_dump all custom dump.atom_info_ac_* id type x y z radius vx vy vz density #
run 123478
Setting up run at Wed Nov 23 18:50:39 2022

Memory usage per processor = 1082.6 Mbytes
    Step    Atoms         KinEng            CPU 
  864348      304   0.0016630154              0 
  987826      304   0.0014661475      1707.6234 
Loop time of 1707.62 on 40 procs for 123478 steps with 304 atoms, finish time Wed Nov 23 19:19:07 2022


Pair  time (%) = 0.295012 (0.0172762)
Neigh time (%) = 0.0574165 (0.00336236)
Comm  time (%) = 0.650571 (0.0380981)
Outpt time (%) = 0.000668706 (3.916e-05)
Other time (%) = 1706.62 (99.9412)

Nlocal:    7.6 ave 132 max 0 min
Histogram: 36 1 1 0 0 0 0 1 0 1
Nghost:    5.325 ave 62 max 0 min
Histogram: 36 0 0 0 0 0 1 0 1 2
Neighs:    2.4 ave 57 max 0 min
Histogram: 36 2 0 1 0 0 0 0 0 1

Total # of neighbors = 96
Ave neighs/atom = 0.315789
Neighbor list builds = 330
Dangerous builds = 0
write_dump all custom dump.atom_info_ac_* id type x y z radius vx vy vz density #
run 123478
Setting up run at Wed Nov 23 19:19:07 2022

Memory usage per processor = 1082.6 Mbytes
    Step    Atoms         KinEng            CPU 
  987826      304   0.0014661475              0 
 1111304      304   0.0016762741      1714.9793 
Loop time of 1714.98 on 40 procs for 123478 steps with 304 atoms, finish time Wed Nov 23 19:47:42 2022


Pair  time (%) = 0.29582 (0.0172492)
Neigh time (%) = 0.0575699 (0.00335688)
Comm  time (%) = 0.662932 (0.0386554)
Outpt time (%) = 0.000419719 (2.44737e-05)
Other time (%) = 1713.96 (99.9407)

Nlocal:    7.6 ave 129 max 0 min
Histogram: 36 0 2 0 0 0 0 1 0 1
Nghost:    5.3 ave 59 max 0 min
Histogram: 36 0 0 0 0 0 0 1 1 2
Neighs:    2.375 ave 57 max 0 min
Histogram: 36 2 0 1 0 0 0 0 0 1

Total # of neighbors = 95
Ave neighs/atom = 0.3125
Neighbor list builds = 330
Dangerous builds = 0
write_dump all custom dump.atom_info_ac_* id type x y z radius vx vy vz density #
run 123478
Setting up run at Wed Nov 23 19:47:42 2022

Memory usage per processor = 1082.6 Mbytes
    Step    Atoms         KinEng            CPU 
 1111304      304   0.0016762741              0 
 1234782      304   0.0022455948      1706.1336 
Loop time of 1706.13 on 40 procs for 123478 steps with 304 atoms, finish time Wed Nov 23 20:16:08 2022


Pair  time (%) = 0.295705 (0.0173319)
Neigh time (%) = 0.0572025 (0.00335276)
Comm  time (%) = 0.807797 (0.0473466)
Outpt time (%) = 0.000402195 (2.35735e-05)
Other time (%) = 1704.97 (99.9319)

Nlocal:    7.6 ave 128 max 0 min
Histogram: 36 1 1 0 0 0 0 0 1 1
Nghost:    5.3 ave 55 max 0 min
Histogram: 36 0 0 0 0 0 0 0 1 3
Neighs:    2.425 ave 59 max 0 min
Histogram: 36 2 0 1 0 0 0 0 0 1

Total # of neighbors = 97
Ave neighs/atom = 0.319079
Neighbor list builds = 330
Dangerous builds = 0
write_dump all custom dump.atom_info_ac_* id type x y z radius vx vy vz density #
run 123478
Setting up run at Wed Nov 23 20:16:08 2022

Memory usage per processor = 1082.6 Mbytes
    Step    Atoms         KinEng            CPU 
 1234782      304   0.0022455948              0 
 1358260      304   0.0022692441      1697.4219 
Loop time of 1697.42 on 40 procs for 123478 steps with 304 atoms, finish time Wed Nov 23 20:44:26 2022


Pair  time (%) = 0.295919 (0.0174334)
Neigh time (%) = 0.0575202 (0.00338868)
Comm  time (%) = 0.653532 (0.0385014)
Outpt time (%) = 0.000746154 (4.39581e-05)
Other time (%) = 1696.41 (99.9406)

Nlocal:    7.6 ave 123 max 0 min
Histogram: 36 0 2 0 0 0 0 0 1 1
Nghost:    5.225 ave 60 max 0 min
Histogram: 36 0 0 0 0 0 0 1 2 1
Neighs:    2.475 ave 60 max 0 min
Histogram: 36 2 0 1 0 0 0 0 0 1

Total # of neighbors = 99
Ave neighs/atom = 0.325658
Neighbor list builds = 330
Dangerous builds = 0
write_dump all custom dump.atom_info_ac_* id type x y z radius vx vy vz density #
run 123478
Setting up run at Wed Nov 23 20:44:26 2022

Memory usage per processor = 1082.6 Mbytes
    Step    Atoms         KinEng            CPU 
 1358260      304   0.0022692441              0 
 1481738      304   0.0032236714      1705.7167 
Loop time of 1705.72 on 40 procs for 123478 steps with 304 atoms, finish time Wed Nov 23 21:12:52 2022


Pair  time (%) = 0.296992 (0.0174116)
Neigh time (%) = 0.0569441 (0.00333842)
Comm  time (%) = 0.933017 (0.0546994)
Outpt time (%) = 0.000362843 (2.12722e-05)
Other time (%) = 1704.43 (99.9245)

Nlocal:    7.6 ave 120 max 0 min
Histogram: 36 0 2 0 0 0 0 0 1 1
Nghost:    5.35 ave 62 max 0 min
Histogram: 36 0 0 0 0 0 1 0 1 2
Neighs:    2.575 ave 59 max 0 min
Histogram: 36 1 1 1 0 0 0 0 0 1

Total # of neighbors = 103
Ave neighs/atom = 0.338816
Neighbor list builds = 330
Dangerous builds = 0
write_dump all custom dump.atom_info_ac_* id type x y z radius vx vy vz density #
run 123478
Setting up run at Wed Nov 23 21:12:52 2022

Memory usage per processor = 1082.6 Mbytes
    Step    Atoms         KinEng            CPU 
 1481738      304   0.0032236714              0 
 1605216      303   0.0027218172      1704.9896 
Loop time of 1704.99 on 40 procs for 123478 steps with 303 atoms, finish time Wed Nov 23 21:41:17 2022


Pair  time (%) = 0.298453 (0.0175047)
Neigh time (%) = 0.0576008 (0.00337837)
Comm  time (%) = 0.849046 (0.0497977)
Outpt time (%) = 0.000722634 (4.23835e-05)
Other time (%) = 1703.78 (99.9293)

Nlocal:    7.575 ave 119 max 0 min
Histogram: 36 0 2 0 0 0 0 0 1 1
Nghost:    5.35 ave 62 max 0 min
Histogram: 36 0 0 0 0 0 1 1 0 2
Neighs:    2.625 ave 59 max 0 min
Histogram: 36 1 1 1 0 0 0 0 0 1

Total # of neighbors = 105
Ave neighs/atom = 0.346535
Neighbor list builds = 330
Dangerous builds = 0
write_dump all custom dump.atom_info_ac_* id type x y z radius vx vy vz density #
run 123478
Setting up run at Wed Nov 23 21:41:17 2022

Memory usage per processor = 1082.6 Mbytes
    Step    Atoms         KinEng            CPU 
 1605216      303   0.0027218172              0 
 1728694      303   0.0029629887      1694.8355 
Loop time of 1694.84 on 40 procs for 123478 steps with 303 atoms, finish time Wed Nov 23 22:09:32 2022


Pair  time (%) = 0.297029 (0.0175255)
Neigh time (%) = 0.0580602 (0.00342571)
Comm  time (%) = 0.73004 (0.0430744)
Outpt time (%) = 0.000361963 (2.13568e-05)
Other time (%) = 1693.75 (99.936)

Nlocal:    7.575 ave 116 max 0 min
Histogram: 36 0 1 1 0 0 0 0 1 1
Nghost:    5.275 ave 64 max 0 min
Histogram: 36 0 0 0 0 0 1 1 1 1
Neighs:    2.625 ave 54 max 0 min
Histogram: 36 1 0 1 1 0 0 0 0 1

Total # of neighbors = 105
Ave neighs/atom = 0.346535
Neighbor list builds = 330
Dangerous builds = 0
write_dump all custom dump.atom_info_ac_* id type x y z radius vx vy vz density #
run 123478
Setting up run at Wed Nov 23 22:09:32 2022

Memory usage per processor = 1082.6 Mbytes
    Step    Atoms         KinEng            CPU 
 1728694      303   0.0029629887              0 
 1852172      302   0.0032349941      1708.0706 
Loop time of 1708.07 on 40 procs for 123478 steps with 302 atoms, finish time Wed Nov 23 22:38:00 2022


Pair  time (%) = 0.295868 (0.0173218)
Neigh time (%) = 0.057953 (0.00339289)
Comm  time (%) = 0.718496 (0.0420648)
Outpt time (%) = 0.00075498 (4.42008e-05)
Other time (%) = 1707 (99.9372)

Nlocal:    7.55 ave 113 max 0 min
Histogram: 36 0 1 1 0 0 0 0 1 1
Nghost:    5.275 ave 66 max 0 min
Histogram: 36 0 0 0 0 0 2 0 1 1
Neighs:    2.6 ave 51 max 0 min
Histogram: 36 1 0 0 2 0 0 0 0 1

Total # of neighbors = 104
Ave neighs/atom = 0.344371
Neighbor list builds = 330
Dangerous builds = 0
write_dump all custom dump.atom_info_ac_* id type x y z radius vx vy vz density #
run 123478
Setting up run at Wed Nov 23 22:38:00 2022

Memory usage per processor = 1082.6 Mbytes
    Step    Atoms         KinEng            CPU 
 1852172      302   0.0032349941              0 
 1975650      302   0.0042327486      1709.1418 
Loop time of 1709.14 on 40 procs for 123478 steps with 302 atoms, finish time Wed Nov 23 23:06:29 2022


Pair  time (%) = 0.295771 (0.0173052)
Neigh time (%) = 0.0581717 (0.00340356)
Comm  time (%) = 0.819636 (0.047956)
Outpt time (%) = 0.00010296 (6.0241e-06)
Other time (%) = 1707.97 (99.9313)

Nlocal:    7.55 ave 110 max 0 min
Histogram: 36 0 0 2 0 0 0 0 1 1
Nghost:    5.175 ave 65 max 0 min
Histogram: 36 0 0 0 0 0 2 0 1 1
Neighs:    2.575 ave 51 max 0 min
Histogram: 36 1 0 0 2 0 0 0 0 1

Total # of neighbors = 103
Ave neighs/atom = 0.34106
Neighbor list builds = 330
Dangerous builds = 0
write_dump all custom dump.atom_info_ac_* id type x y z radius vx vy vz density #
run 123478
Setting up run at Wed Nov 23 23:06:29 2022

Memory usage per processor = 1082.6 Mbytes
    Step    Atoms         KinEng            CPU 
 1975650      302   0.0042327486              0 
 2099128      301   0.0041075267      1708.8098 
Loop time of 1708.81 on 40 procs for 123478 steps with 301 atoms, finish time Wed Nov 23 23:34:58 2022


Pair  time (%) = 0.294825 (0.0172532)
Neigh time (%) = 0.0585131 (0.0034242)
Comm  time (%) = 0.872086 (0.0510347)
Outpt time (%) = 0.000733183 (4.29061e-05)
Other time (%) = 1707.58 (99.9282)

Nlocal:    7.525 ave 107 max 0 min
Histogram: 36 0 0 2 0 0 0 0 0 2
Nghost:    5.025 ave 66 max 0 min
Histogram: 36 0 0 0 0 1 1 1 0 1
Neighs:    2.775 ave 53 max 0 min
Histogram: 36 1 0 0 1 1 0 0 0 1

Total # of neighbors = 111
Ave neighs/atom = 0.368771
Neighbor list builds = 330
Dangerous builds = 0
write_dump all custom dump.atom_info_ac_* id type x y z radius vx vy vz density #
run 123478
Setting up run at Wed Nov 23 23:34:58 2022

Memory usage per processor = 1082.6 Mbytes
    Step    Atoms         KinEng            CPU 
 2099128      301   0.0041075267              0 
 2222606      301   0.0048891352      1695.9391 
Loop time of 1695.94 on 40 procs for 123478 steps with 301 atoms, finish time Thu Nov 24 00:03:14 2022


Pair  time (%) = 0.29086 (0.0171504)
Neigh time (%) = 0.0582073 (0.00343215)
Comm  time (%) = 0.793512 (0.0467889)
Outpt time (%) = 0.000437629 (2.58045e-05)
Other time (%) = 1694.8 (99.9326)

Nlocal:    7.525 ave 106 max 0 min
Histogram: 36 0 0 2 0 0 0 0 0 2
Nghost:    5.05 ave 67 max 0 min
Histogram: 36 0 0 0 0 1 1 1 0 1
Neighs:    2.675 ave 50 max 0 min
Histogram: 36 1 0 0 1 1 0 0 0 1

Total # of neighbors = 107
Ave neighs/atom = 0.355482
Neighbor list builds = 330
Dangerous builds = 0
write_dump all custom dump.atom_info_ac_* id type x y z radius vx vy vz density #
run 123478
Setting up run at Thu Nov 24 00:03:14 2022

Memory usage per processor = 1082.6 Mbytes
    Step    Atoms         KinEng            CPU 
 2222606      301   0.0048891352              0 
 2346084      301   0.0052031567      1713.3791 
Loop time of 1713.38 on 40 procs for 123478 steps with 301 atoms, finish time Thu Nov 24 00:31:48 2022


Pair  time (%) = 0.289662 (0.0169059)
Neigh time (%) = 0.0580215 (0.00338638)
Comm  time (%) = 0.725462 (0.042341)
Outpt time (%) = 0.000820529 (4.78895e-05)
Other time (%) = 1712.31 (99.9373)

Nlocal:    7.525 ave 104 max 0 min
Histogram: 36 0 0 2 0 0 0 0 0 2
Nghost:    5.1 ave 66 max 0 min
Histogram: 36 0 0 0 0 0 2 1 0 1
Neighs:    2.4 ave 41 max 0 min
Histogram: 36 1 0 0 0 1 1 0 0 1

Total # of neighbors = 96
Ave neighs/atom = 0.318937
Neighbor list builds = 330
Dangerous builds = 0
write_dump all custom dump.atom_info_ac_* id type x y z radius vx vy vz density #
run 123478
Setting up run at Thu Nov 24 00:31:48 2022

Memory usage per processor = 1082.6 Mbytes
    Step    Atoms         KinEng            CPU 
 2346084      301   0.0052031567              0 
 2469562      301   0.0063381852      1700.3608 
Loop time of 1700.36 on 40 procs for 123478 steps with 301 atoms, finish time Thu Nov 24 01:00:08 2022


Pair  time (%) = 0.29202 (0.017174)
Neigh time (%) = 0.0583377 (0.0034309)
Comm  time (%) = 0.878351 (0.0516567)
Outpt time (%) = 0.000813431 (4.78387e-05)
Other time (%) = 1699.13 (99.9277)

Nlocal:    7.525 ave 102 max 0 min
Histogram: 36 0 0 1 1 0 0 0 0 2
Nghost:    4.975 ave 65 max 0 min
Histogram: 36 0 0 0 0 0 2 1 0 1
Neighs:    2.4 ave 42 max 0 min
Histogram: 36 1 0 0 0 2 0 0 0 1

Total # of neighbors = 96
Ave neighs/atom = 0.318937
Neighbor list builds = 330
Dangerous builds = 0
write_dump all custom dump.atom_info_ac_* id type x y z radius vx vy vz density #
run 123478
Setting up run at Thu Nov 24 01:00:08 2022

Memory usage per processor = 1082.6 Mbytes
    Step    Atoms         KinEng            CPU 
 2469562      301   0.0063381852              0 
 2593040      301   0.0067979857      1703.1135 
Loop time of 1703.11 on 40 procs for 123478 steps with 301 atoms, finish time Thu Nov 24 01:28:32 2022


Pair  time (%) = 0.291024 (0.0170878)
Neigh time (%) = 0.0584655 (0.00343286)
Comm  time (%) = 0.888506 (0.0521695)
Outpt time (%) = 0.000398832 (2.34178e-05)
Other time (%) = 1701.88 (99.9273)

Nlocal:    7.525 ave 101 max 0 min
Histogram: 35 1 0 1 1 0 0 0 0 2
Nghost:    5 ave 66 max 0 min
Histogram: 36 0 0 0 0 1 1 1 0 1
Neighs:    2.125 ave 33 max 0 min
Histogram: 36 1 0 0 0 0 1 1 0 1

Total # of neighbors = 85
Ave neighs/atom = 0.282392
Neighbor list builds = 330
Dangerous builds = 0
write_dump all custom dump.atom_info_ac_* id type x y z radius vx vy vz density #
run 123478
Setting up run at Thu Nov 24 01:28:32 2022

Memory usage per processor = 1082.6 Mbytes
    Step    Atoms         KinEng            CPU 
 2593040      301   0.0067979857              0 
 2716518      301   0.0072391243      1704.4486 
Loop time of 1704.45 on 40 procs for 123478 steps with 301 atoms, finish time Thu Nov 24 01:56:56 2022


Pair  time (%) = 0.29195 (0.0171287)
Neigh time (%) = 0.0585735 (0.0034365)
Comm  time (%) = 0.849315 (0.0498293)
Outpt time (%) = 0.000825733 (4.84458e-05)
Other time (%) = 1703.25 (99.9296)

Nlocal:    7.525 ave 101 max 0 min
Histogram: 36 0 0 1 1 0 0 0 0 2
Nghost:    4.8 ave 62 max 0 min
Histogram: 36 0 0 0 0 0 2 1 0 1
Neighs:    2.125 ave 36 max 0 min
Histogram: 36 0 1 0 1 0 1 0 0 1

Total # of neighbors = 85
Ave neighs/atom = 0.282392
Neighbor list builds = 330
Dangerous builds = 0
write_dump all custom dump.atom_info_ac_* id type x y z radius vx vy vz density #
run 123478
Setting up run at Thu Nov 24 01:56:56 2022

Memory usage per processor = 1082.6 Mbytes
    Step    Atoms         KinEng            CPU 
 2716518      301   0.0072391243              0 
 2839996      301   0.0080912444      1712.2309 
Loop time of 1712.23 on 40 procs for 123478 steps with 301 atoms, finish time Thu Nov 24 02:25:28 2022


Pair  time (%) = 0.289153 (0.0168875)
Neigh time (%) = 0.0584944 (0.00341627)
Comm  time (%) = 0.720805 (0.0420974)
Outpt time (%) = 0.000513549 (2.9993e-05)
Other time (%) = 1711.16 (99.9376)

Nlocal:    7.525 ave 100 max 0 min
Histogram: 35 1 0 1 1 0 0 0 0 2
Nghost:    4.875 ave 61 max 0 min
Histogram: 36 0 0 0 0 0 2 0 1 1
Neighs:    2.1 ave 36 max 0 min
Histogram: 36 1 0 0 1 0 1 0 0 1

Total # of neighbors = 84
Ave neighs/atom = 0.27907
Neighbor list builds = 330
Dangerous builds = 0
write_dump all custom dump.atom_info_ac_* id type x y z radius vx vy vz density #
run 123478
Setting up run at Thu Nov 24 02:25:28 2022

Memory usage per processor = 1082.6 Mbytes
    Step    Atoms         KinEng            CPU 
 2839996      301   0.0080912444              0 
 2963474      301   0.0096488742      1716.3357 
Loop time of 1716.34 on 40 procs for 123478 steps with 301 atoms, finish time Thu Nov 24 02:54:05 2022


Pair  time (%) = 0.290513 (0.0169263)
Neigh time (%) = 0.0584443 (0.00340518)
Comm  time (%) = 1.00745 (0.058698)
Outpt time (%) = 0.000842694 (4.90984e-05)
Other time (%) = 1714.98 (99.9209)

Nlocal:    7.525 ave 98 max 0 min
Histogram: 35 1 0 1 1 0 0 0 0 2
Nghost:    4.875 ave 62 max 0 min
Histogram: 36 0 0 0 0 1 1 1 0 1
Neighs:    2.125 ave 36 max 0 min
Histogram: 36 0 0 2 0 0 1 0 0 1

Total # of neighbors = 85
Ave neighs/atom = 0.282392
Neighbor list builds = 330
Dangerous builds = 0
write_dump all custom dump.atom_info_ac_* id type x y z radius vx vy vz density #
run 123478
Setting up run at Thu Nov 24 02:54:05 2022

Memory usage per processor = 1082.6 Mbytes
    Step    Atoms         KinEng            CPU 
 2963474      301   0.0096488742              0 
 3086952      300   0.0092599893      1712.4138 
Loop time of 1712.41 on 40 procs for 123478 steps with 300 atoms, finish time Thu Nov 24 03:22:37 2022


Pair  time (%) = 0.290318 (0.0169538)
Neigh time (%) = 0.0584891 (0.00341559)
Comm  time (%) = 0.995396 (0.0581282)
Outpt time (%) = 0.000495117 (2.89134e-05)
Other time (%) = 1711.07 (99.9215)

Nlocal:    7.5 ave 98 max 0 min
Histogram: 35 1 0 2 0 0 0 0 0 2
Nghost:    4.85 ave 61 max 0 min
Histogram: 36 0 0 0 0 0 1 2 0 1
Neighs:    2.1 ave 32 max 0 min
Histogram: 36 0 1 1 0 0 0 0 0 2

Total # of neighbors = 84
Ave neighs/atom = 0.28
Neighbor list builds = 330
Dangerous builds = 0
write_dump all custom dump.atom_info_ac_* id type x y z radius vx vy vz density #
run 123478
Setting up run at Thu Nov 24 03:22:37 2022

Memory usage per processor = 1082.6 Mbytes
    Step    Atoms         KinEng            CPU 
 3086952      300   0.0092599893              0 
 3210430      300   0.0098263471      1703.8912 
Loop time of 1703.89 on 40 procs for 123478 steps with 300 atoms, finish time Thu Nov 24 03:51:01 2022


Pair  time (%) = 0.290724 (0.0170624)
Neigh time (%) = 0.0586459 (0.00344188)
Comm  time (%) = 0.933218 (0.0547698)
Outpt time (%) = 0.000850064 (4.98895e-05)
Other time (%) = 1702.61 (99.9247)

Nlocal:    7.5 ave 97 max 0 min
Histogram: 34 2 0 2 0 0 0 0 0 2
Nghost:    4.775 ave 62 max 0 min
Histogram: 36 0 0 0 0 0 2 1 0 1
Neighs:    1.975 ave 31 max 0 min
Histogram: 36 0 1 1 0 0 0 0 0 2

Total # of neighbors = 79
Ave neighs/atom = 0.263333
Neighbor list builds = 330
Dangerous builds = 0
write_dump all custom dump.atom_info_ac_* id type x y z radius vx vy vz density #
run 123478
Setting up run at Thu Nov 24 03:51:01 2022

Memory usage per processor = 1082.6 Mbytes
    Step    Atoms         KinEng            CPU 
 3210430      300   0.0098263471              0 
 3333908      300    0.010849935       1726.834 
Loop time of 1726.83 on 40 procs for 123478 steps with 300 atoms, finish time Thu Nov 24 04:19:48 2022


Pair  time (%) = 0.288281 (0.0166942)
Neigh time (%) = 0.0588291 (0.00340676)
Comm  time (%) = 0.828417 (0.0479731)
Outpt time (%) = 0.000560145 (3.24377e-05)
Other time (%) = 1725.66 (99.9319)

Nlocal:    7.5 ave 95 max 0 min
Histogram: 34 2 0 1 1 0 0 0 0 2
Nghost:    4.675 ave 62 max 0 min
Histogram: 36 0 0 0 0 0 3 0 0 1
Neighs:    1.975 ave 29 max 0 min
Histogram: 36 0 1 0 1 0 0 0 0 2

Total # of neighbors = 79
Ave neighs/atom = 0.263333
Neighbor list builds = 330
Dangerous builds = 0
write_dump all custom dump.atom_info_ac_* id type x y z radius vx vy vz density #
run 123478
Setting up run at Thu Nov 24 04:19:48 2022

Memory usage per processor = 1082.6 Mbytes
    Step    Atoms         KinEng            CPU 
 3333908      300    0.010849935              0 
 3457386      300    0.011165682       1714.507 
Loop time of 1714.51 on 40 procs for 123478 steps with 300 atoms, finish time Thu Nov 24 04:48:23 2022


Pair  time (%) = 0.28776 (0.0167838)
Neigh time (%) = 0.058818 (0.00343061)
Comm  time (%) = 0.990415 (0.0577667)
Outpt time (%) = 0.000487065 (2.84084e-05)
Other time (%) = 1713.17 (99.922)

Nlocal:    7.5 ave 95 max 0 min
Histogram: 35 1 0 0 2 0 0 0 0 2
Nghost:    4.725 ave 59 max 0 min
Histogram: 36 0 0 0 0 0 2 1 0 1
Neighs:    1.925 ave 29 max 0 min
Histogram: 36 0 0 1 1 0 0 0 1 1

Total # of neighbors = 77
Ave neighs/atom = 0.256667
Neighbor list builds = 330
Dangerous builds = 0
write_dump all custom dump.atom_info_ac_* id type x y z radius vx vy vz density #
run 123478
Setting up run at Thu Nov 24 04:48:23 2022

Memory usage per processor = 1082.6 Mbytes
    Step    Atoms         KinEng            CPU 
 3457386      300    0.011165682              0 
 3580864      300    0.012033035      1712.7666 
Loop time of 1712.77 on 40 procs for 123478 steps with 300 atoms, finish time Thu Nov 24 05:16:56 2022


Pair  time (%) = 0.28697 (0.0167548)
Neigh time (%) = 0.0586411 (0.00342377)
Comm  time (%) = 1.01249 (0.0591144)
Outpt time (%) = 0.000934916 (5.45851e-05)
Other time (%) = 1711.41 (99.9207)

Nlocal:    7.5 ave 94 max 0 min
Histogram: 34 2 0 1 1 0 0 0 0 2
Nghost:    4.725 ave 60 max 0 min
Histogram: 36 0 0 0 0 0 2 1 0 1
Neighs:    1.85 ave 27 max 0 min
Histogram: 36 0 0 1 1 0 0 0 0 2

Total # of neighbors = 74
Ave neighs/atom = 0.246667
Neighbor list builds = 330
Dangerous builds = 0
write_dump all custom dump.atom_info_ac_* id type x y z radius vx vy vz density #
run 123478
Setting up run at Thu Nov 24 05:16:56 2022

Memory usage per processor = 1082.6 Mbytes
    Step    Atoms         KinEng            CPU 
 3580864      300    0.012033035              0 
 3704342      300    0.013133949      1710.3981 
Loop time of 1710.4 on 40 procs for 123478 steps with 300 atoms, finish time Thu Nov 24 05:45:26 2022


Pair  time (%) = 0.289622 (0.016933)
Neigh time (%) = 0.0587046 (0.00343222)
Comm  time (%) = 1.02152 (0.0597244)
Outpt time (%) = 0.000538761 (3.14992e-05)
Other time (%) = 1709.03 (99.9199)

Nlocal:    7.5 ave 94 max 0 min
Histogram: 35 0 1 1 1 0 0 0 0 2
Nghost:    4.7 ave 60 max 0 min
Histogram: 36 0 0 0 0 0 2 1 0 1
Neighs:    1.95 ave 28 max 0 min
Histogram: 36 0 0 2 0 0 0 0 0 2

Total # of neighbors = 78
Ave neighs/atom = 0.26
Neighbor list builds = 330
Dangerous builds = 0
write_dump all custom dump.atom_info_ac_* id type x y z radius vx vy vz density #
run 123478
Setting up run at Thu Nov 24 05:45:26 2022

Memory usage per processor = 1082.6 Mbytes
    Step    Atoms         KinEng            CPU 
 3704342      300    0.013133949              0 
 3827820      300    0.014452237       1709.188 
Loop time of 1709.19 on 40 procs for 123478 steps with 300 atoms, finish time Thu Nov 24 06:13:55 2022


Pair  time (%) = 0.286735 (0.0167761)
Neigh time (%) = 0.0583948 (0.00341652)
Comm  time (%) = 0.921866 (0.0539359)
Outpt time (%) = 0.000885628 (5.18157e-05)
Other time (%) = 1707.92 (99.9258)

Nlocal:    7.5 ave 94 max 0 min
Histogram: 34 2 0 0 1 1 0 0 0 2
Nghost:    4.7 ave 59 max 0 min
Histogram: 35 1 0 0 0 0 2 1 0 1
Neighs:    1.875 ave 28 max 0 min
Histogram: 36 0 0 1 0 1 0 0 1 1

Total # of neighbors = 75
Ave neighs/atom = 0.25
Neighbor list builds = 330
Dangerous builds = 0
write_dump all custom dump.atom_info_ac_* id type x y z radius vx vy vz density #
run 123478
Setting up run at Thu Nov 24 06:13:56 2022

Memory usage per processor = 1082.6 Mbytes
    Step    Atoms         KinEng            CPU 
 3827820      300    0.014452237              0 
 3951298      300    0.015211396      1728.1082 
Loop time of 1728.11 on 40 procs for 123478 steps with 300 atoms, finish time Thu Nov 24 06:42:44 2022


Pair  time (%) = 0.285922 (0.0165454)
Neigh time (%) = 0.0587635 (0.00340045)
Comm  time (%) = 0.96766 (0.0559953)
Outpt time (%) = 0.00053541 (3.09824e-05)
Other time (%) = 1726.8 (99.924)

Nlocal:    7.5 ave 93 max 0 min
Histogram: 33 3 0 0 2 0 0 0 0 2
Nghost:    4.6 ave 57 max 0 min
Histogram: 36 0 0 0 0 0 1 2 0 1
Neighs:    2 ave 28 max 0 min
Histogram: 36 0 0 1 0 1 0 0 0 2

Total # of neighbors = 80
Ave neighs/atom = 0.266667
Neighbor list builds = 330
Dangerous builds = 0
write_dump all custom dump.atom_info_ac_* id type x y z radius vx vy vz density #
run 123478
Setting up run at Thu Nov 24 06:42:44 2022

Memory usage per processor = 1082.6 Mbytes
    Step    Atoms         KinEng            CPU 
 3951298      300    0.015211396              0 
 4074776      300     0.01576884      1714.2709 
Loop time of 1714.27 on 40 procs for 123478 steps with 300 atoms, finish time Thu Nov 24 07:11:18 2022


Pair  time (%) = 0.285547 (0.0166571)
Neigh time (%) = 0.0594496 (0.00346792)
Comm  time (%) = 1.08474 (0.0632771)
Outpt time (%) = 0.000864239 (5.04144e-05)
Other time (%) = 1712.84 (99.9165)

Nlocal:    7.5 ave 94 max 0 min
Histogram: 33 3 0 1 1 0 0 0 1 1
Nghost:    4.625 ave 53 max 0 min
Histogram: 36 0 0 0 0 0 0 2 1 1
Neighs:    2.05 ave 30 max 0 min
Histogram: 36 0 1 0 0 1 0 0 0 2

Total # of neighbors = 82
Ave neighs/atom = 0.273333
Neighbor list builds = 330
Dangerous builds = 0
write_dump all custom dump.atom_info_ac_* id type x y z radius vx vy vz density #
run 123478
Setting up run at Thu Nov 24 07:11:18 2022

Memory usage per processor = 1082.6 Mbytes
    Step    Atoms         KinEng            CPU 
 4074776      300     0.01576884              0 
 4198254      300    0.016652534      1703.8852 
Loop time of 1703.89 on 40 procs for 123478 steps with 300 atoms, finish time Thu Nov 24 07:39:42 2022


Pair  time (%) = 0.288368 (0.0169241)
Neigh time (%) = 0.0589083 (0.00345729)
Comm  time (%) = 1.0727 (0.062956)
Outpt time (%) = 0.000489431 (2.87244e-05)
Other time (%) = 1702.46 (99.9166)

Nlocal:    7.5 ave 93 max 0 min
Histogram: 33 3 0 0 2 0 0 0 1 1
Nghost:    4.675 ave 55 max 0 min
Histogram: 36 0 0 0 0 0 0 2 1 1
Neighs:    1.95 ave 29 max 0 min
Histogram: 36 0 1 1 0 0 0 0 0 2

Total # of neighbors = 78
Ave neighs/atom = 0.26
Neighbor list builds = 330
Dangerous builds = 0
write_dump all custom dump.atom_info_ac_* id type x y z radius vx vy vz density #
run 123478
Setting up run at Thu Nov 24 07:39:42 2022

Memory usage per processor = 1082.6 Mbytes
    Step    Atoms         KinEng            CPU 
 4198254      300    0.016652534              0 
 4321732      300    0.018230287       1716.596 
Loop time of 1716.6 on 40 procs for 123478 steps with 300 atoms, finish time Thu Nov 24 08:08:19 2022


Pair  time (%) = 0.287338 (0.0167388)
Neigh time (%) = 0.0588453 (0.00342802)
Comm  time (%) = 0.993351 (0.0578675)
Outpt time (%) = 0.000836888 (4.87528e-05)
Other time (%) = 1715.26 (99.9219)

Nlocal:    7.5 ave 94 max 0 min
Histogram: 33 3 0 0 2 0 0 0 1 1
Nghost:    4.6 ave 51 max 0 min
Histogram: 36 0 0 0 0 0 0 1 1 2
Neighs:    2.05 ave 31 max 0 min
Histogram: 36 0 1 0 1 0 0 0 0 2

Total # of neighbors = 82
Ave neighs/atom = 0.273333
Neighbor list builds = 330
Dangerous builds = 0
write_dump all custom dump.atom_info_ac_* id type x y z radius vx vy vz density #
run 123478
Setting up run at Thu Nov 24 08:08:19 2022

Memory usage per processor = 1082.6 Mbytes
    Step    Atoms         KinEng            CPU 
 4321732      300    0.018230287              0 
 4445210      300    0.018457567       1728.093 
Loop time of 1728.09 on 40 procs for 123478 steps with 300 atoms, finish time Thu Nov 24 08:37:07 2022


Pair  time (%) = 0.287092 (0.0166132)
Neigh time (%) = 0.0589633 (0.00341204)
Comm  time (%) = 1.04694 (0.0605838)
Outpt time (%) = 0.000533628 (3.08796e-05)
Other time (%) = 1726.7 (99.9194)

Nlocal:    7.5 ave 94 max 0 min
Histogram: 34 2 0 1 1 0 0 0 1 1
Nghost:    4.55 ave 50 max 0 min
Histogram: 36 0 0 0 0 0 0 1 1 2
Neighs:    2.25 ave 37 max 0 min
Histogram: 36 0 2 0 0 0 0 0 1 1

Total # of neighbors = 90
Ave neighs/atom = 0.3
Neighbor list builds = 330
Dangerous builds = 0
write_dump all custom dump.atom_info_ac_* id type x y z radius vx vy vz density #
run 123478
Setting up run at Thu Nov 24 08:37:07 2022

Memory usage per processor = 1082.6 Mbytes
    Step    Atoms         KinEng            CPU 
 4445210      300    0.018457567              0 
 4568688      300     0.01925143      1723.2805 
Loop time of 1723.28 on 40 procs for 123478 steps with 300 atoms, finish time Thu Nov 24 09:05:50 2022


Pair  time (%) = 0.288519 (0.0167424)
Neigh time (%) = 0.059158 (0.00343287)
Comm  time (%) = 0.978608 (0.0567875)
Outpt time (%) = 0.000551236 (3.19876e-05)
Other time (%) = 1721.95 (99.923)

Nlocal:    7.5 ave 93 max 0 min
Histogram: 32 4 0 2 0 0 0 0 1 1
Nghost:    4.425 ave 49 max 0 min
Histogram: 36 0 0 0 0 0 0 1 2 1
Neighs:    1.95 ave 33 max 0 min
Histogram: 36 0 1 1 0 0 0 0 1 1

Total # of neighbors = 78
Ave neighs/atom = 0.26
Neighbor list builds = 330
Dangerous builds = 0
write_dump all custom dump.atom_info_ac_* id type x y z radius vx vy vz density #
run 123478
Setting up run at Thu Nov 24 09:05:50 2022

Memory usage per processor = 1082.6 Mbytes
    Step    Atoms         KinEng            CPU 
 4568688      300     0.01925143              0 
 4692166      300    0.020446257       1719.932 
Loop time of 1719.93 on 40 procs for 123478 steps with 300 atoms, finish time Thu Nov 24 09:34:30 2022


Pair  time (%) = 0.288861 (0.0167949)
Neigh time (%) = 0.0590566 (0.00343366)
Comm  time (%) = 1.0274 (0.0597352)
Outpt time (%) = 0.000857596 (4.98622e-05)
Other time (%) = 1718.56 (99.92)

Nlocal:    7.5 ave 93 max 0 min
Histogram: 33 2 1 1 1 0 0 0 1 1
Nghost:    4.375 ave 47 max 0 min
Histogram: 36 0 0 0 0 0 0 1 0 3
Neighs:    1.75 ave 31 max 0 min
Histogram: 36 0 2 0 0 0 0 1 0 1

Total # of neighbors = 70
Ave neighs/atom = 0.233333
Neighbor list builds = 330
Dangerous builds = 0
write_dump all custom dump.atom_info_ac_* id type x y z radius vx vy vz density #
run 123478
Setting up run at Thu Nov 24 09:34:30 2022

Memory usage per processor = 1082.6 Mbytes
    Step    Atoms         KinEng            CPU 
 4692166      300    0.020446257              0 
 4815644      300    0.021076633      1719.0989 
Loop time of 1719.1 on 40 procs for 123478 steps with 300 atoms, finish time Thu Nov 24 10:03:10 2022


Pair  time (%) = 0.285396 (0.0166015)
Neigh time (%) = 0.0603752 (0.00351203)
Comm  time (%) = 1.133 (0.0659064)
Outpt time (%) = 0.000524831 (3.05294e-05)
Other time (%) = 1717.62 (99.9139)

Nlocal:    7.5 ave 92 max 0 min
Histogram: 33 3 0 1 1 0 0 0 1 1
Nghost:    4.175 ave 44 max 0 min
Histogram: 36 0 0 0 0 0 0 1 0 3
Neighs:    1.6 ave 27 max 0 min
Histogram: 36 1 1 0 0 0 0 0 1 1

Total # of neighbors = 64
Ave neighs/atom = 0.213333
Neighbor list builds = 336
Dangerous builds = 0
write_dump all custom dump.atom_info_ac_* id type x y z radius vx vy vz density #
run 123478
Setting up run at Thu Nov 24 10:03:10 2022

Memory usage per processor = 1082.6 Mbytes
    Step    Atoms         KinEng            CPU 
 4815644      300    0.021076633              0 
 4939122      300    0.021836866      1713.7229 
Loop time of 1713.72 on 40 procs for 123478 steps with 300 atoms, finish time Thu Nov 24 10:31:43 2022


Pair  time (%) = 0.286608 (0.0167243)
Neigh time (%) = 0.0592365 (0.00345659)
Comm  time (%) = 1.09468 (0.0638772)
Outpt time (%) = 0.000848572 (4.95163e-05)
Other time (%) = 1712.28 (99.9159)

Nlocal:    7.5 ave 90 max 0 min
Histogram: 32 3 1 1 1 0 0 0 0 2
Nghost:    4.075 ave 46 max 0 min
Histogram: 36 0 0 0 0 0 1 0 1 2
Neighs:    1.6 ave 25 max 0 min
Histogram: 36 1 0 1 0 0 0 0 0 2

Total # of neighbors = 64
Ave neighs/atom = 0.213333
Neighbor list builds = 330
Dangerous builds = 0
write_dump all custom dump.atom_info_ac_* id type x y z radius vx vy vz density #
run 123478
Setting up run at Thu Nov 24 10:31:43 2022

Memory usage per processor = 1082.6 Mbytes
    Step    Atoms         KinEng            CPU 
 4939122      300    0.021836866              0 
 5062600      300    0.022674826      1720.2058 
Loop time of 1720.21 on 40 procs for 123478 steps with 300 atoms, finish time Thu Nov 24 11:00:24 2022


Pair  time (%) = 0.287303 (0.0167017)
Neigh time (%) = 0.0594009 (0.00345313)
Comm  time (%) = 0.974794 (0.0566673)
Outpt time (%) = 0.000100393 (5.83608e-06)
Other time (%) = 1718.88 (99.9232)

Nlocal:    7.5 ave 89 max 0 min
Histogram: 32 3 1 0 2 0 0 0 0 2
Nghost:    4.2 ave 46 max 0 min
Histogram: 36 0 0 0 0 0 1 0 1 2
Neighs:    1.775 ave 28 max 0 min
Histogram: 36 0 1 1 0 0 0 0 1 1

Total # of neighbors = 71
Ave neighs/atom = 0.236667
Neighbor list builds = 330
Dangerous builds = 0
write_dump all custom dump.atom_info_ac_* id type x y z radius vx vy vz density #
run 123478
Setting up run at Thu Nov 24 11:00:24 2022

Memory usage per processor = 1082.6 Mbytes
    Step    Atoms         KinEng            CPU 
 5062600      300    0.022674826              0 
 5186078      300    0.023336105      1710.2757 
Loop time of 1710.28 on 40 procs for 123478 steps with 300 atoms, finish time Thu Nov 24 11:28:54 2022


Pair  time (%) = 0.287157 (0.0167901)
Neigh time (%) = 0.0594877 (0.00347825)
Comm  time (%) = 1.13518 (0.0663744)
Outpt time (%) = 0.0008728 (5.10327e-05)
Other time (%) = 1708.79 (99.9133)

Nlocal:    7.5 ave 88 max 0 min
Histogram: 32 3 1 1 1 0 0 0 0 2
Nghost:    3.975 ave 41 max 0 min
Histogram: 36 0 0 0 0 0 1 0 0 3
Neighs:    1.725 ave 28 max 0 min
Histogram: 36 0 2 0 0 0 0 0 1 1

Total # of neighbors = 69
Ave neighs/atom = 0.23
Neighbor list builds = 330
Dangerous builds = 0
write_dump all custom dump.atom_info_ac_* id type x y z radius vx vy vz density #
run 123478
Setting up run at Thu Nov 24 11:28:54 2022

Memory usage per processor = 1082.6 Mbytes
    Step    Atoms         KinEng            CPU 
 5186078      300    0.023336105              0 
 5309556      300     0.02424989      1733.0601 
Loop time of 1733.06 on 40 procs for 123478 steps with 300 atoms, finish time Thu Nov 24 11:57:47 2022


Pair  time (%) = 0.287945 (0.0166148)
Neigh time (%) = 0.0597967 (0.00345036)
Comm  time (%) = 0.99761 (0.0575635)
Outpt time (%) = 0.000555921 (3.20774e-05)
Other time (%) = 1731.71 (99.9223)

Nlocal:    7.5 ave 87 max 0 min
Histogram: 32 3 1 1 1 0 0 0 1 1
Nghost:    3.925 ave 40 max 0 min
Histogram: 34 2 0 0 0 0 1 0 0 3
Neighs:    1.7 ave 26 max 0 min
Histogram: 36 1 1 0 0 0 0 0 0 2

Total # of neighbors = 68
Ave neighs/atom = 0.226667
Neighbor list builds = 330
Dangerous builds = 0
write_dump all custom dump.atom_info_ac_* id type x y z radius vx vy vz density #
run 123478
Setting up run at Thu Nov 24 11:57:47 2022

Memory usage per processor = 1082.6 Mbytes
    Step    Atoms         KinEng            CPU 
 5309556      300     0.02424989              0 
 5433034      300    0.025803269      1768.8703 
Loop time of 1768.87 on 40 procs for 123478 steps with 300 atoms, finish time Thu Nov 24 12:27:16 2022


Pair  time (%) = 0.285625 (0.0161473)
Neigh time (%) = 0.0596502 (0.00337222)
Comm  time (%) = 0.961991 (0.0543845)
Outpt time (%) = 0.000900465 (5.09062e-05)
Other time (%) = 1767.56 (99.926)

Nlocal:    7.5 ave 84 max 0 min
Histogram: 32 2 2 0 2 0 0 0 0 2
Nghost:    3.7 ave 40 max 0 min
Histogram: 35 1 0 0 0 0 1 0 0 3
Neighs:    1.55 ave 25 max 0 min
Histogram: 36 1 1 0 0 0 0 0 0 2

Total # of neighbors = 62
Ave neighs/atom = 0.206667
Neighbor list builds = 330
Dangerous builds = 0
write_dump all custom dump.atom_info_ac_* id type x y z radius vx vy vz density #
run 123478
Setting up run at Thu Nov 24 12:27:16 2022

Memory usage per processor = 1082.6 Mbytes
    Step    Atoms         KinEng            CPU 
 5433034      300    0.025803269              0 
 5556512      299       0.027219       1714.942 
Loop time of 1714.94 on 40 procs for 123478 steps with 299 atoms, finish time Thu Nov 24 12:55:51 2022


Pair  time (%) = 0.285086 (0.0166236)
Neigh time (%) = 0.0594905 (0.00346895)
Comm  time (%) = 0.889888 (0.0518903)
Outpt time (%) = 0.012731 (0.00074236)
Other time (%) = 1713.69 (99.9273)

Nlocal:    7.475 ave 85 max 0 min
Histogram: 32 1 3 1 1 0 0 0 0 2
Nghost:    3.65 ave 40 max 0 min
Histogram: 36 0 0 0 0 0 0 1 0 3
Neighs:    1.625 ave 28 max 0 min
Histogram: 36 1 1 0 0 0 0 0 0 2

Total # of neighbors = 65
Ave neighs/atom = 0.217391
Neighbor list builds = 330
Dangerous builds = 0
write_dump all custom dump.atom_info_ac_* id type x y z radius vx vy vz density #
run 123478
Setting up run at Thu Nov 24 12:55:51 2022

Memory usage per processor = 1082.6 Mbytes
    Step    Atoms         KinEng            CPU 
 5556512      299       0.027219              0 
 5679990      299    0.027014045      1717.6499 
Loop time of 1717.65 on 40 procs for 123478 steps with 299 atoms, finish time Thu Nov 24 13:24:29 2022


Pair  time (%) = 0.287393 (0.0167317)
Neigh time (%) = 0.0599902 (0.00349257)
Comm  time (%) = 0.986303 (0.0574216)
Outpt time (%) = 0.00058924 (3.4305e-05)
Other time (%) = 1716.32 (99.9223)

Nlocal:    7.475 ave 86 max 0 min
Histogram: 32 2 2 1 0 1 0 0 1 1
Nghost:    3.7 ave 38 max 0 min
Histogram: 36 0 0 0 0 0 0 1 0 3
Neighs:    1.7 ave 32 max 0 min
Histogram: 37 1 0 0 0 0 0 1 0 1

Total # of neighbors = 68
Ave neighs/atom = 0.227425
Neighbor list builds = 330
Dangerous builds = 0
write_dump all custom dump.atom_info_ac_* id type x y z radius vx vy vz density #
run 123478
Setting up run at Thu Nov 24 13:24:29 2022

Memory usage per processor = 1082.6 Mbytes
    Step    Atoms         KinEng            CPU 
 5679990      299    0.027014045              0 
 5803468      299    0.027783288      1721.2061 
Loop time of 1721.21 on 40 procs for 123478 steps with 299 atoms, finish time Thu Nov 24 13:53:10 2022


Pair  time (%) = 0.283116 (0.0164487)
Neigh time (%) = 0.059853 (0.00347738)
Comm  time (%) = 0.98825 (0.0574161)
Outpt time (%) = 0.000847979 (4.92665e-05)
Other time (%) = 1719.88 (99.9226)

Nlocal:    7.475 ave 85 max 0 min
Histogram: 32 2 2 1 1 0 0 0 0 2
Nghost:    3.45 ave 34 max 0 min
Histogram: 36 0 0 0 0 0 0 0 1 3
Neighs:    1.75 ave 35 max 0 min
Histogram: 37 1 0 0 0 0 0 1 0 1

Total # of neighbors = 70
Ave neighs/atom = 0.234114
Neighbor list builds = 330
Dangerous builds = 0
write_dump all custom dump.atom_info_ac_* id type x y z radius vx vy vz density #
run 123478
Setting up run at Thu Nov 24 13:53:10 2022

Memory usage per processor = 1082.6 Mbytes
    Step    Atoms         KinEng            CPU 
 5803468      299    0.027783288              0 
 5926946      299    0.028706726      1721.7635 
Loop time of 1721.76 on 40 procs for 123478 steps with 299 atoms, finish time Thu Nov 24 14:21:52 2022


Pair  time (%) = 0.284385 (0.016517)
Neigh time (%) = 0.0599261 (0.00348051)
Comm  time (%) = 1.1238 (0.0652705)
Outpt time (%) = 0.000548448 (3.18538e-05)
Other time (%) = 1720.3 (99.9147)

Nlocal:    7.475 ave 84 max 0 min
Histogram: 32 2 2 0 2 0 0 0 0 2
Nghost:    3.575 ave 39 max 0 min
Histogram: 36 0 0 0 0 0 0 1 2 1
Neighs:    1.725 ave 35 max 0 min
Histogram: 37 1 0 0 0 0 0 1 0 1

Total # of neighbors = 69
Ave neighs/atom = 0.230769
Neighbor list builds = 330
Dangerous builds = 0
write_dump all custom dump.atom_info_ac_* id type x y z radius vx vy vz density #
run 123478
Setting up run at Thu Nov 24 14:21:52 2022

Memory usage per processor = 1082.6 Mbytes
    Step    Atoms         KinEng            CPU 
 5926946      299    0.028706726              0 
 6050424      299    0.029673557      1754.6183 
Loop time of 1754.62 on 40 procs for 123478 steps with 299 atoms, finish time Thu Nov 24 14:51:07 2022


Pair  time (%) = 0.283981 (0.0161847)
Neigh time (%) = 0.0602682 (0.00343483)
Comm  time (%) = 1.1704 (0.0667041)
Outpt time (%) = 0.000911383 (5.19419e-05)
Other time (%) = 1753.1 (99.9136)

Nlocal:    7.475 ave 84 max 0 min
Histogram: 32 2 1 2 1 0 0 0 0 2
Nghost:    3.45 ave 38 max 0 min
Histogram: 36 0 0 0 0 0 0 2 1 1
Neighs:    1.7 ave 35 max 0 min
Histogram: 37 1 0 0 0 0 1 0 0 1

Total # of neighbors = 68
Ave neighs/atom = 0.227425
Neighbor list builds = 330
Dangerous builds = 0
write_dump all custom dump.atom_info_ac_* id type x y z radius vx vy vz density #
run 123478
Setting up run at Thu Nov 24 14:51:07 2022

Memory usage per processor = 1082.6 Mbytes
    Step    Atoms         KinEng            CPU 
 6050424      299    0.029673557              0 
 6173902      299    0.030767538      1750.4689 
Loop time of 1750.47 on 40 procs for 123478 steps with 299 atoms, finish time Thu Nov 24 15:20:18 2022


Pair  time (%) = 0.285048 (0.0162841)
Neigh time (%) = 0.0601425 (0.00343579)
Comm  time (%) = 1.14178 (0.0652272)
Outpt time (%) = 0.000706267 (4.03473e-05)
Other time (%) = 1748.98 (99.915)

Nlocal:    7.475 ave 83 max 0 min
Histogram: 32 1 3 2 0 0 0 0 0 2
Nghost:    3.7 ave 37 max 0 min
Histogram: 36 0 0 0 0 0 0 0 0 4
Neighs:    1.675 ave 33 max 0 min
Histogram: 36 1 1 0 0 0 1 0 0 1

Total # of neighbors = 67
Ave neighs/atom = 0.22408
Neighbor list builds = 330
Dangerous builds = 0
write_dump all custom dump.atom_info_ac_* id type x y z radius vx vy vz density #
run 123478
Setting up run at Thu Nov 24 15:20:18 2022

Memory usage per processor = 1082.6 Mbytes
    Step    Atoms         KinEng            CPU 
 6173902      299    0.030767538              0 
 6297380      299     0.03129418       1809.361 
Loop time of 1809.55 on 40 procs for 123478 steps with 299 atoms, finish time Thu Nov 24 15:50:27 2022


Pair  time (%) = 0.2823 (0.0156005)
Neigh time (%) = 0.0596365 (0.00329565)
Comm  time (%) = 0.995901 (0.0550358)
Outpt time (%) = 0.00094512 (5.22295e-05)
Other time (%) = 1808.21 (99.926)

Nlocal:    7.475 ave 80 max 0 min
Histogram: 32 2 2 1 0 0 1 0 0 2
Nghost:    3.55 ave 36 max 0 min
Histogram: 36 0 0 0 0 0 0 0 2 2
Neighs:    1.625 ave 33 max 0 min
Histogram: 37 0 1 0 0 0 1 0 0 1

Total # of neighbors = 65
Ave neighs/atom = 0.217391
Neighbor list builds = 330
Dangerous builds = 0
write_dump all custom dump.atom_info_ac_* id type x y z radius vx vy vz density #
run 123478
Setting up run at Thu Nov 24 15:50:27 2022

Memory usage per processor = 1082.6 Mbytes
    Step    Atoms         KinEng            CPU 
 6297380      299     0.03129418              0 
 6420858      299    0.032154084      1742.7823 
Loop time of 1742.78 on 40 procs for 123478 steps with 299 atoms, finish time Thu Nov 24 16:19:30 2022


Pair  time (%) = 0.284498 (0.0163243)
Neigh time (%) = 0.0596659 (0.0034236)
Comm  time (%) = 0.980567 (0.0562645)
Outpt time (%) = 0.000593211 (3.40382e-05)
Other time (%) = 1741.46 (99.924)

Nlocal:    7.475 ave 81 max 0 min
Histogram: 32 1 4 0 1 0 0 0 0 2
Nghost:    3.725 ave 37 max 0 min
Histogram: 35 1 0 0 0 0 0 1 0 3
Neighs:    1.575 ave 32 max 0 min
Histogram: 37 1 0 0 0 0 1 0 0 1

Total # of neighbors = 63
Ave neighs/atom = 0.210702
Neighbor list builds = 330
Dangerous builds = 0
write_dump all custom dump.atom_info_ac_* id type x y z radius vx vy vz density #
run 123478
Setting up run at Thu Nov 24 16:19:30 2022

Memory usage per processor = 1082.6 Mbytes
    Step    Atoms         KinEng            CPU 
 6420858      299    0.032154084              0 
 6544336      299    0.033000805       1848.266 
Loop time of 1848.32 on 40 procs for 123478 steps with 299 atoms, finish time Thu Nov 24 16:50:19 2022


Pair  time (%) = 0.284237 (0.0153781)
Neigh time (%) = 0.0595316 (0.00322085)
Comm  time (%) = 1.14102 (0.0617327)
Outpt time (%) = 0.000878296 (4.75186e-05)
Other time (%) = 1846.83 (99.9196)

Nlocal:    7.475 ave 79 max 0 min
Histogram: 32 2 1 1 1 1 0 0 0 2
Nghost:    3.525 ave 40 max 0 min
Histogram: 36 0 0 0 0 0 0 2 1 1
Neighs:    1.475 ave 27 max 0 min
Histogram: 37 0 0 1 0 0 0 1 0 1

Total # of neighbors = 59
Ave neighs/atom = 0.197324
Neighbor list builds = 330
Dangerous builds = 0
write_dump all custom dump.atom_info_ac_* id type x y z radius vx vy vz density #
run 123478
Setting up run at Thu Nov 24 16:50:19 2022

Memory usage per processor = 1082.6 Mbytes
    Step    Atoms         KinEng            CPU 
 6544336      299    0.033000805              0 
 6667814      299    0.033908605      1724.0506 
Loop time of 1724.05 on 40 procs for 123478 steps with 299 atoms, finish time Thu Nov 24 17:19:03 2022


Pair  time (%) = 0.28495 (0.0165279)
Neigh time (%) = 0.0596095 (0.00345753)
Comm  time (%) = 1.19955 (0.0695777)
Outpt time (%) = 0.000553946 (3.21305e-05)
Other time (%) = 1722.51 (99.9104)

Nlocal:    7.475 ave 78 max 0 min
Histogram: 32 1 3 1 0 0 1 0 0 2
Nghost:    3.575 ave 37 max 0 min
Histogram: 36 0 0 0 0 0 0 1 1 2
Neighs:    1.325 ave 21 max 0 min
Histogram: 37 0 0 0 1 0 0 0 0 2

Total # of neighbors = 53
Ave neighs/atom = 0.177258
Neighbor list builds = 330
Dangerous builds = 0
write_dump all custom dump.atom_info_ac_* id type x y z radius vx vy vz density #
run 123478
Setting up run at Thu Nov 24 17:19:03 2022

Memory usage per processor = 1082.6 Mbytes
    Step    Atoms         KinEng            CPU 
 6667814      299    0.033908605              0 
 6791292      299    0.034837706      1727.0334 
Loop time of 1727.03 on 40 procs for 123478 steps with 299 atoms, finish time Thu Nov 24 17:47:50 2022


Pair  time (%) = 0.282914 (0.0163815)
Neigh time (%) = 0.0594904 (0.00344466)
Comm  time (%) = 1.01957 (0.0590361)
Outpt time (%) = 0.000878022 (5.08399e-05)
Other time (%) = 1725.67 (99.9211)

Nlocal:    7.475 ave 75 max 0 min
Histogram: 32 0 3 2 0 1 0 0 0 2
Nghost:    3.45 ave 39 max 0 min
Histogram: 36 0 0 0 0 0 0 2 0 2
Neighs:    1.35 ave 21 max 0 min
Histogram: 36 1 0 1 0 0 0 0 0 2

Total # of neighbors = 54
Ave neighs/atom = 0.180602
Neighbor list builds = 330
Dangerous builds = 0
write_dump all custom dump.atom_info_ac_* id type x y z radius vx vy vz density #
run 123478
Setting up run at Thu Nov 24 17:47:50 2022

Memory usage per processor = 1082.6 Mbytes
    Step    Atoms         KinEng            CPU 
 6791292      299    0.034837706              0 
 6914770      299    0.035776074      1725.0593 
Loop time of 1725.06 on 40 procs for 123478 steps with 299 atoms, finish time Thu Nov 24 18:16:35 2022


Pair  time (%) = 0.284778 (0.0165083)
Neigh time (%) = 0.0597446 (0.00346333)
Comm  time (%) = 1.22853 (0.0712167)
Outpt time (%) = 0.000532812 (3.08866e-05)
Other time (%) = 1723.49 (99.9088)

Nlocal:    7.475 ave 75 max 0 min
Histogram: 32 0 3 2 0 1 0 0 0 2
Nghost:    3.425 ave 38 max 0 min
Histogram: 36 0 0 0 0 0 0 2 0 2
Neighs:    1.3 ave 20 max 0 min
Histogram: 35 2 0 0 1 0 0 0 0 2

Total # of neighbors = 52
Ave neighs/atom = 0.173913
Neighbor list builds = 330
Dangerous builds = 0
write_dump all custom dump.atom_info_ac_* id type x y z radius vx vy vz density #
run 123478
Setting up run at Thu Nov 24 18:16:35 2022

Memory usage per processor = 1082.6 Mbytes
    Step    Atoms         KinEng            CPU 
 6914770      299    0.035776074              0 
 7038248      299    0.037033595      1717.6669 
Loop time of 1717.67 on 40 procs for 123478 steps with 299 atoms, finish time Thu Nov 24 18:45:13 2022


Pair  time (%) = 0.283048 (0.0164786)
Neigh time (%) = 0.0601206 (0.00350013)
Comm  time (%) = 1.10071 (0.0640815)
Outpt time (%) = 0.000541136 (3.15041e-05)
Other time (%) = 1716.22 (99.9159)

Nlocal:    7.475 ave 75 max 0 min
Histogram: 32 1 2 1 1 0 1 0 0 2
Nghost:    3.5 ave 40 max 0 min
Histogram: 36 0 0 0 0 0 1 1 1 1
Neighs:    1.25 ave 19 max 0 min
Histogram: 35 2 0 0 1 0 0 0 0 2

Total # of neighbors = 50
Ave neighs/atom = 0.167224
Neighbor list builds = 330
Dangerous builds = 0
write_dump all custom dump.atom_info_ac_* id type x y z radius vx vy vz density #
run 123478
Setting up run at Thu Nov 24 18:45:13 2022

Memory usage per processor = 1082.6 Mbytes
    Step    Atoms         KinEng            CPU 
 7038248      299    0.037033595              0 
 7161726      299    0.037536146      1716.5808 
Loop time of 1716.58 on 40 procs for 123478 steps with 299 atoms, finish time Thu Nov 24 19:13:50 2022


Pair  time (%) = 0.284237 (0.0165583)
Neigh time (%) = 0.0598696 (0.00348772)
Comm  time (%) = 1.11101 (0.0647221)
Outpt time (%) = 0.000932803 (5.43407e-05)
Other time (%) = 1715.12 (99.9152)

Nlocal:    7.475 ave 75 max 0 min
Histogram: 32 0 3 2 0 1 0 0 0 2
Nghost:    3.7 ave 44 max 0 min
Histogram: 36 0 0 0 0 0 1 2 0 1
Neighs:    1.275 ave 20 max 0 min
Histogram: 36 1 0 0 1 0 0 0 0 2

Total # of neighbors = 51
Ave neighs/atom = 0.170569
Neighbor list builds = 330
Dangerous builds = 0
write_dump all custom dump.atom_info_ac_* id type x y z radius vx vy vz density #
run 123478
Setting up run at Thu Nov 24 19:13:50 2022

Memory usage per processor = 1082.6 Mbytes
    Step    Atoms         KinEng            CPU 
 7161726      299    0.037536146              0 
 7285204      299    0.038579833      1711.7801 
Loop time of 1711.78 on 40 procs for 123478 steps with 299 atoms, finish time Thu Nov 24 19:42:21 2022


Pair  time (%) = 0.284069 (0.016595)
Neigh time (%) = 0.0600232 (0.00350648)
Comm  time (%) = 1.06289 (0.0620929)
Outpt time (%) = 0.000533026 (3.11387e-05)
Other time (%) = 1710.37 (99.9178)

Nlocal:    7.475 ave 72 max 0 min
Histogram: 32 0 3 0 2 1 0 0 0 2
Nghost:    3.65 ave 40 max 0 min
Histogram: 36 0 0 0 0 0 0 1 1 2
Neighs:    1.275 ave 20 max 0 min
Histogram: 35 1 1 1 0 0 0 0 1 1

Total # of neighbors = 51
Ave neighs/atom = 0.170569
Neighbor list builds = 330
Dangerous builds = 0
write_dump all custom dump.atom_info_ac_* id type x y z radius vx vy vz density #
run 123478
Setting up run at Thu Nov 24 19:42:21 2022

Memory usage per processor = 1082.6 Mbytes
    Step    Atoms         KinEng            CPU 
 7285204      299    0.038579833              0 
 7408682      299    0.039435804      1719.9933 
Loop time of 1719.99 on 40 procs for 123478 steps with 299 atoms, finish time Thu Nov 24 20:11:02 2022


Pair  time (%) = 0.28592 (0.0166233)
Neigh time (%) = 0.0604145 (0.00351248)
Comm  time (%) = 1.08415 (0.063032)
Outpt time (%) = 0.000939953 (5.46486e-05)
Other time (%) = 1718.56 (99.9168)

Nlocal:    7.475 ave 71 max 0 min
Histogram: 32 0 3 2 0 0 0 1 0 2
Nghost:    3.55 ave 40 max 0 min
Histogram: 36 0 0 0 0 0 1 1 0 2
Neighs:    1.275 ave 17 max 0 min
Histogram: 36 0 1 0 0 1 0 0 0 2

Total # of neighbors = 51
Ave neighs/atom = 0.170569
Neighbor list builds = 332
Dangerous builds = 0
write_dump all custom dump.atom_info_ac_* id type x y z radius vx vy vz density #
run 123478
Setting up run at Thu Nov 24 20:11:02 2022

Memory usage per processor = 1082.6 Mbytes
    Step    Atoms         KinEng            CPU 
 7408682      299    0.039435804              0 
 7532160      298    0.040036082      1756.8053 
Loop time of 1756.81 on 40 procs for 123478 steps with 298 atoms, finish time Thu Nov 24 20:40:18 2022


Pair  time (%) = 0.279588 (0.0159146)
Neigh time (%) = 0.0604827 (0.00344277)
Comm  time (%) = 0.86772 (0.0493919)
Outpt time (%) = 0.000623278 (3.54779e-05)
Other time (%) = 1755.6 (99.9312)

Nlocal:    7.45 ave 71 max 0 min
Histogram: 32 0 1 4 0 1 0 0 0 2
Nghost:    3.55 ave 40 max 0 min
Histogram: 36 0 0 0 0 0 1 1 0 2
Neighs:    1.225 ave 18 max 0 min
Histogram: 34 2 1 1 0 0 0 0 1 1

Total # of neighbors = 49
Ave neighs/atom = 0.16443
Neighbor list builds = 332
Dangerous builds = 0
write_dump all custom dump.atom_info_ac_* id type x y z radius vx vy vz density #
run 123478
Setting up run at Thu Nov 24 20:40:18 2022

Memory usage per processor = 1082.6 Mbytes
    Step    Atoms         KinEng            CPU 
 7532160      298    0.040036082              0 
 7655638      298      0.0406359      1776.7109 
Loop time of 1776.71 on 40 procs for 123478 steps with 298 atoms, finish time Thu Nov 24 21:09:55 2022


Pair  time (%) = 0.27867 (0.0156846)
Neigh time (%) = 0.0598194 (0.00336686)
Comm  time (%) = 1.0329 (0.0581358)
Outpt time (%) = 0.000881926 (4.96381e-05)
Other time (%) = 1775.34 (99.9228)

Nlocal:    7.45 ave 71 max 0 min
Histogram: 32 2 1 1 1 0 0 1 0 2
Nghost:    3.675 ave 39 max 0 min
Histogram: 36 0 0 0 0 0 0 1 1 2
Neighs:    1.3 ave 21 max 0 min
Histogram: 36 1 0 0 1 0 0 1 0 1

Total # of neighbors = 52
Ave neighs/atom = 0.174497
Neighbor list builds = 330
Dangerous builds = 0
write_dump all custom dump.atom_info_ac_* id type x y z radius vx vy vz density #
run 123478
Setting up run at Thu Nov 24 21:09:55 2022

Memory usage per processor = 1082.6 Mbytes
    Step    Atoms         KinEng            CPU 
 7655638      298      0.0406359              0 
 7779116      298    0.041314859      1725.3585 
Loop time of 1725.36 on 40 procs for 123478 steps with 298 atoms, finish time Thu Nov 24 21:38:41 2022


Pair  time (%) = 0.279008 (0.016171)
Neigh time (%) = 0.0594403 (0.0034451)
Comm  time (%) = 1.40093 (0.0811964)
Outpt time (%) = 0.000923649 (5.35337e-05)
Other time (%) = 1723.62 (99.8991)

Nlocal:    7.45 ave 69 max 0 min
Histogram: 32 0 2 2 1 1 0 0 0 2
Nghost:    3.65 ave 38 max 0 min
Histogram: 35 1 0 0 0 0 1 0 1 2
Neighs:    1.225 ave 22 max 0 min
Histogram: 36 1 0 0 1 1 0 0 0 1

Total # of neighbors = 49
Ave neighs/atom = 0.16443
Neighbor list builds = 330
Dangerous builds = 0
write_dump all custom dump.atom_info_ac_* id type x y z radius vx vy vz density #
run 123478
Setting up run at Thu Nov 24 21:38:41 2022

Memory usage per processor = 1082.6 Mbytes
    Step    Atoms         KinEng            CPU 
 7779116      298    0.041314859              0 
 7902594      298    0.042610605      1746.4322 
Loop time of 1746.43 on 40 procs for 123478 steps with 298 atoms, finish time Thu Nov 24 22:07:47 2022


Pair  time (%) = 0.279546 (0.0160067)
Neigh time (%) = 0.0618278 (0.00354023)
Comm  time (%) = 1.62495 (0.0930439)
Outpt time (%) = 0.000953651 (5.46057e-05)
Other time (%) = 1744.47 (99.8874)

Nlocal:    7.45 ave 70 max 0 min
Histogram: 32 0 3 1 1 0 0 1 0 2
Nghost:    3.675 ave 39 max 0 min
Histogram: 35 1 0 0 0 0 1 1 0 2
Neighs:    1.325 ave 20 max 0 min
Histogram: 35 2 0 0 0 0 1 1 0 1

Total # of neighbors = 53
Ave neighs/atom = 0.177852
Neighbor list builds = 341
Dangerous builds = 0
write_dump all custom dump.atom_info_ac_* id type x y z radius vx vy vz density #
run 123478
Setting up run at Thu Nov 24 22:07:47 2022

Memory usage per processor = 1082.6 Mbytes
    Step    Atoms         KinEng            CPU 
 7902594      298    0.042610605              0 
 8026072      297    0.043356878      1720.9432 
Loop time of 1720.94 on 40 procs for 123478 steps with 297 atoms, finish time Thu Nov 24 22:36:28 2022


Pair  time (%) = 0.279732 (0.0162546)
Neigh time (%) = 0.0606151 (0.0035222)
Comm  time (%) = 1.18028 (0.0685832)
Outpt time (%) = 0.000620183 (3.60374e-05)
Other time (%) = 1719.42 (99.9116)

Nlocal:    7.425 ave 68 max 0 min
Histogram: 32 0 2 1 2 0 1 0 0 2
Nghost:    3.6 ave 38 max 0 min
Histogram: 36 0 0 0 0 0 1 0 1 2
Neighs:    1.425 ave 21 max 0 min
Histogram: 35 2 0 0 0 1 0 1 0 1

Total # of neighbors = 57
Ave neighs/atom = 0.191919
Neighbor list builds = 334
Dangerous builds = 0
write_dump all custom dump.atom_info_ac_* id type x y z radius vx vy vz density #
run 123478
Setting up run at Thu Nov 24 22:36:28 2022

Memory usage per processor = 1082.6 Mbytes
    Step    Atoms         KinEng            CPU 
 8026072      297    0.043356878              0 
 8149550      296    0.043516472      1716.6382 
Loop time of 1716.64 on 40 procs for 123478 steps with 296 atoms, finish time Thu Nov 24 23:05:05 2022


Pair  time (%) = 0.280083 (0.0163158)
Neigh time (%) = 0.059962 (0.00349299)
Comm  time (%) = 1.07947 (0.062883)
Outpt time (%) = 5.49622e-05 (3.20174e-06)
Other time (%) = 1715.22 (99.9173)

Nlocal:    7.4 ave 68 max 0 min
Histogram: 32 1 2 0 1 1 1 0 0 2
Nghost:    3.8 ave 41 max 0 min
Histogram: 36 0 0 0 0 0 1 1 0 2
Neighs:    1.5 ave 22 max 0 min
Histogram: 35 1 1 0 0 1 1 0 0 1

Total # of neighbors = 60
Ave neighs/atom = 0.202703
Neighbor list builds = 330
Dangerous builds = 0
write_dump all custom dump.atom_info_ac_* id type x y z radius vx vy vz density #
run 123478
Setting up run at Thu Nov 24 23:05:05 2022

Memory usage per processor = 1082.6 Mbytes
    Step    Atoms         KinEng            CPU 
 8149550      296    0.043516472              0 
 8273028      296    0.044095704      1718.0948 
Loop time of 1718.09 on 40 procs for 123478 steps with 296 atoms, finish time Thu Nov 24 23:33:43 2022


Pair  time (%) = 0.279074 (0.0162432)
Neigh time (%) = 0.0594732 (0.00346158)
Comm  time (%) = 0.938816 (0.0546428)
Outpt time (%) = 0.000867972 (5.05195e-05)
Other time (%) = 1716.82 (99.9256)

Nlocal:    7.4 ave 68 max 0 min
Histogram: 32 1 0 2 2 0 1 0 0 2
Nghost:    3.45 ave 39 max 0 min
Histogram: 36 0 0 0 0 0 1 1 0 2
Neighs:    1.4 ave 20 max 0 min
Histogram: 34 1 1 1 1 0 0 1 0 1

Total # of neighbors = 56
Ave neighs/atom = 0.189189
Neighbor list builds = 330
Dangerous builds = 0
write_dump all custom dump.atom_info_ac_* id type x y z radius vx vy vz density #
run 123478
Setting up run at Thu Nov 24 23:33:43 2022

Memory usage per processor = 1082.6 Mbytes
    Step    Atoms         KinEng            CPU 
 8273028      296    0.044095704              0 
 8396506      296    0.044826796      1714.3239 
Loop time of 1714.32 on 40 procs for 123478 steps with 296 atoms, finish time Fri Nov 25 00:02:18 2022


Pair  time (%) = 0.281045 (0.0163939)
Neigh time (%) = 0.0614456 (0.00358425)
Comm  time (%) = 1.0981 (0.0640546)
Outpt time (%) = 0.000687605 (4.01094e-05)
Other time (%) = 1712.88 (99.9159)

Nlocal:    7.4 ave 68 max 0 min
Histogram: 32 1 0 3 1 0 1 0 0 2
Nghost:    3.6 ave 42 max 0 min
Histogram: 36 0 0 0 0 0 2 0 1 1
Neighs:    1.35 ave 18 max 0 min
Histogram: 33 3 1 0 0 0 1 0 1 1

Total # of neighbors = 54
Ave neighs/atom = 0.182432
Neighbor list builds = 335
Dangerous builds = 0
write_dump all custom dump.atom_info_ac_* id type x y z radius vx vy vz density #
run 123478
Setting up run at Fri Nov 25 00:02:18 2022

Memory usage per processor = 1082.6 Mbytes
    Step    Atoms         KinEng            CPU 
 8396506      296    0.044826796              0 
 8519984      296    0.045277035       1729.846 
Loop time of 1729.85 on 40 procs for 123478 steps with 296 atoms, finish time Fri Nov 25 00:31:08 2022


Pair  time (%) = 0.28187 (0.0162945)
Neigh time (%) = 0.0614777 (0.00355394)
Comm  time (%) = 1.21354 (0.0701533)
Outpt time (%) = 0.00109722 (6.3429e-05)
Other time (%) = 1728.29 (99.9099)

Nlocal:    7.4 ave 68 max 0 min
Histogram: 32 2 1 1 0 1 0 0 1 2
Nghost:    3.45 ave 42 max 0 min
Histogram: 36 0 0 0 0 1 1 0 1 1
Neighs:    1.325 ave 17 max 0 min
Histogram: 35 1 1 0 0 0 0 1 0 2

Total # of neighbors = 53
Ave neighs/atom = 0.179054
Neighbor list builds = 335
Dangerous builds = 0
write_dump all custom dump.atom_info_ac_* id type x y z radius vx vy vz density #
run 123478
Setting up run at Fri Nov 25 00:31:08 2022

Memory usage per processor = 1082.6 Mbytes
    Step    Atoms         KinEng            CPU 
 8519984      296    0.045277035              0 
 8643462      295    0.045936389      1730.8733 
Loop time of 1730.87 on 40 procs for 123478 steps with 295 atoms, finish time Fri Nov 25 00:59:59 2022


Pair  time (%) = 0.286913 (0.0165762)
Neigh time (%) = 0.0614205 (0.00354852)
Comm  time (%) = 1.13667 (0.0656702)
Outpt time (%) = 0.000692185 (3.99905e-05)
Other time (%) = 1729.39 (99.9142)

Nlocal:    7.375 ave 68 max 0 min
Histogram: 32 0 2 2 0 1 1 0 0 2
Nghost:    3.575 ave 40 max 0 min
Histogram: 34 2 0 0 0 0 2 0 1 1
Neighs:    1.35 ave 18 max 0 min
Histogram: 32 5 0 0 0 1 0 0 1 1

Total # of neighbors = 54
Ave neighs/atom = 0.183051
Neighbor list builds = 335
Dangerous builds = 0
write_dump all custom dump.atom_info_ac_* id type x y z radius vx vy vz density #
run 123478
Setting up run at Fri Nov 25 00:59:59 2022

Memory usage per processor = 1082.6 Mbytes
    Step    Atoms         KinEng            CPU 
 8643462      295    0.045936389              0 
 8766940      295    0.046717048      1733.4692 
Loop time of 1733.47 on 40 procs for 123478 steps with 295 atoms, finish time Fri Nov 25 01:28:52 2022


Pair  time (%) = 0.280453 (0.0161787)
Neigh time (%) = 0.0617901 (0.00356453)
Comm  time (%) = 1.06269 (0.0613043)
Outpt time (%) = 0.000940612 (5.42618e-05)
Other time (%) = 1732.06 (99.9189)

Nlocal:    7.375 ave 67 max 0 min
Histogram: 32 1 0 3 0 2 0 0 0 2
Nghost:    3.55 ave 42 max 0 min
Histogram: 36 0 0 0 0 0 1 1 1 1
Neighs:    1.3 ave 17 max 0 min
Histogram: 34 2 1 0 0 1 0 0 1 1

Total # of neighbors = 52
Ave neighs/atom = 0.176271
Neighbor list builds = 336
Dangerous builds = 0
write_dump all custom dump.atom_info_ac_* id type x y z radius vx vy vz density #
run 123478
Setting up run at Fri Nov 25 01:28:52 2022

Memory usage per processor = 1082.6 Mbytes
    Step    Atoms         KinEng            CPU 
 8766940      295    0.046717048              0 
 8890418      295    0.047027604       1731.251 
Loop time of 1731.25 on 40 procs for 123478 steps with 295 atoms, finish time Fri Nov 25 01:57:43 2022


Pair  time (%) = 0.279562 (0.016148)
Neigh time (%) = 0.0614688 (0.00355054)
Comm  time (%) = 1.1725 (0.0677257)
Outpt time (%) = 0.000647412 (3.73956e-05)
Other time (%) = 1729.74 (99.9125)

Nlocal:    7.375 ave 68 max 0 min
Histogram: 32 1 2 0 1 1 0 1 0 2
Nghost:    3.7 ave 44 max 0 min
Histogram: 36 0 0 0 0 0 1 2 0 1
Neighs:    1.075 ave 17 max 0 min
Histogram: 37 0 0 0 0 1 0 0 1 1

Total # of neighbors = 43
Ave neighs/atom = 0.145763
Neighbor list builds = 337
Dangerous builds = 0
write_dump all custom dump.atom_info_ac_* id type x y z radius vx vy vz density #
run 123478
Setting up run at Fri Nov 25 01:57:44 2022

Memory usage per processor = 1082.6 Mbytes
    Step    Atoms         KinEng            CPU 
 8890418      295    0.047027604              0 
 9013896      295     0.04762227      1720.3541 
Loop time of 1720.35 on 40 procs for 123478 steps with 295 atoms, finish time Fri Nov 25 02:26:24 2022


Pair  time (%) = 0.279083 (0.0162224)
Neigh time (%) = 0.061877 (0.00359676)
Comm  time (%) = 1.13704 (0.0660936)
Outpt time (%) = 0.000581986 (3.38294e-05)
Other time (%) = 1718.88 (99.9141)

Nlocal:    7.375 ave 66 max 0 min
Histogram: 32 0 1 1 3 0 1 0 0 2
Nghost:    3.7 ave 42 max 0 min
Histogram: 36 0 0 0 0 0 0 2 1 1
Neighs:    1.05 ave 16 max 0 min
Histogram: 36 1 0 0 0 0 1 1 0 1

Total # of neighbors = 42
Ave neighs/atom = 0.142373
Neighbor list builds = 339
Dangerous builds = 0
write_dump all custom dump.atom_info_ac_* id type x y z radius vx vy vz density #
run 123478
Setting up run at Fri Nov 25 02:26:24 2022

Memory usage per processor = 1082.6 Mbytes
    Step    Atoms         KinEng            CPU 
 9013896      295     0.04762227              0 
 9137374      295    0.048118401      1722.2224 
Loop time of 1722.22 on 40 procs for 123478 steps with 295 atoms, finish time Fri Nov 25 02:55:06 2022


Pair  time (%) = 0.281977 (0.0163729)
Neigh time (%) = 0.0625151 (0.00362991)
Comm  time (%) = 1.3061 (0.0758381)
Outpt time (%) = 0.000938859 (5.45144e-05)
Other time (%) = 1720.57 (99.9041)

Nlocal:    7.375 ave 65 max 0 min
Histogram: 32 0 2 0 3 0 1 0 0 2
Nghost:    3.675 ave 41 max 0 min
Histogram: 36 0 0 0 0 0 0 2 1 1
Neighs:    1.175 ave 16 max 0 min
Histogram: 34 3 0 0 0 0 1 1 0 1

Total # of neighbors = 47
Ave neighs/atom = 0.159322
Neighbor list builds = 342
Dangerous builds = 0
write_dump all custom dump.atom_info_ac_* id type x y z radius vx vy vz density #
run 123478
Setting up run at Fri Nov 25 02:55:06 2022

Memory usage per processor = 1082.6 Mbytes
    Step    Atoms         KinEng            CPU 
 9137374      295    0.048118401              0 
 9260852      295    0.048639373      1719.6529 
Loop time of 1719.65 on 40 procs for 123478 steps with 295 atoms, finish time Fri Nov 25 03:23:46 2022


Pair  time (%) = 0.27923 (0.0162375)
Neigh time (%) = 0.0627904 (0.00365134)
Comm  time (%) = 1.05883 (0.061572)
Outpt time (%) = 0.000645118 (3.75144e-05)
Other time (%) = 1718.25 (99.9185)

Nlocal:    7.375 ave 66 max 0 min
Histogram: 32 0 1 2 2 0 1 0 0 2
Nghost:    3.7 ave 40 max 0 min
Histogram: 34 2 0 0 0 0 0 2 1 1
Neighs:    1.075 ave 16 max 0 min
Histogram: 35 1 0 0 1 1 1 0 0 1

Total # of neighbors = 43
Ave neighs/atom = 0.145763
Neighbor list builds = 345
Dangerous builds = 0
write_dump all custom dump.atom_info_ac_* id type x y z radius vx vy vz density #
run 123478
Setting up run at Fri Nov 25 03:23:46 2022

Memory usage per processor = 1082.6 Mbytes
    Step    Atoms         KinEng            CPU 
 9260852      295    0.048639373              0 
 9384330      295    0.049418001      1722.6866 
Loop time of 1722.69 on 40 procs for 123478 steps with 295 atoms, finish time Fri Nov 25 03:52:29 2022


Pair  time (%) = 0.278938 (0.016192)
Neigh time (%) = 0.0627735 (0.00364393)
Comm  time (%) = 1.2025 (0.069804)
Outpt time (%) = 0.000885256 (5.13881e-05)
Other time (%) = 1721.14 (99.9103)

Nlocal:    7.375 ave 66 max 0 min
Histogram: 32 0 2 1 1 1 1 0 0 2
Nghost:    3.45 ave 39 max 0 min
Histogram: 36 0 0 0 0 0 0 2 1 1
Neighs:    1 ave 16 max 0 min
Histogram: 35 2 0 0 0 2 0 0 0 1

Total # of neighbors = 40
Ave neighs/atom = 0.135593
Neighbor list builds = 344
Dangerous builds = 0
write_dump all custom dump.atom_info_ac_* id type x y z radius vx vy vz density #
run 123478
Setting up run at Fri Nov 25 03:52:29 2022

Memory usage per processor = 1082.6 Mbytes
    Step    Atoms         KinEng            CPU 
 9384330      295    0.049418001              0 
 9507808      295    0.050151657      1722.0718 
Loop time of 1722.07 on 40 procs for 123478 steps with 295 atoms, finish time Fri Nov 25 04:21:11 2022


Pair  time (%) = 0.280475 (0.0162871)
Neigh time (%) = 0.0627068 (0.00364136)
Comm  time (%) = 1.32111 (0.0767164)
Outpt time (%) = 0.000561511 (3.26067e-05)
Other time (%) = 1720.41 (99.9033)

Nlocal:    7.375 ave 65 max 0 min
Histogram: 32 0 0 3 1 2 0 0 0 2
Nghost:    3.25 ave 36 max 0 min
Histogram: 36 0 0 0 0 0 0 1 1 2
Neighs:    1.025 ave 15 max 0 min
Histogram: 35 0 1 0 2 0 1 0 0 1

Total # of neighbors = 41
Ave neighs/atom = 0.138983
Neighbor list builds = 343
Dangerous builds = 0
write_dump all custom dump.atom_info_ac_* id type x y z radius vx vy vz density #
run 123478
Setting up run at Fri Nov 25 04:21:11 2022

Memory usage per processor = 1082.6 Mbytes
    Step    Atoms         KinEng            CPU 
 9507808      295    0.050151657              0 
 9631286      295    0.050896144      1716.6862 
Loop time of 1716.69 on 40 procs for 123478 steps with 295 atoms, finish time Fri Nov 25 04:49:48 2022


Pair  time (%) = 0.280431 (0.0163356)
Neigh time (%) = 0.0628787 (0.0036628)
Comm  time (%) = 1.3022 (0.0758555)
Outpt time (%) = 0.000844486 (4.91928e-05)
Other time (%) = 1715.04 (99.9041)

Nlocal:    7.375 ave 65 max 0 min
Histogram: 32 0 1 1 2 2 0 0 0 2
Nghost:    3.225 ave 35 max 0 min
Histogram: 36 0 0 0 0 0 0 1 2 1
Neighs:    1 ave 15 max 0 min
Histogram: 35 0 2 0 1 0 1 0 0 1

Total # of neighbors = 40
Ave neighs/atom = 0.135593
Neighbor list builds = 344
Dangerous builds = 0
write_dump all custom dump.atom_info_ac_* id type x y z radius vx vy vz density #
run 123478
Setting up run at Fri Nov 25 04:49:48 2022

Memory usage per processor = 1082.6 Mbytes
    Step    Atoms         KinEng            CPU 
 9631286      295    0.050896144              0 
 9754764      295    0.051639281       1718.124 
Loop time of 1718.12 on 40 procs for 123478 steps with 295 atoms, finish time Fri Nov 25 05:18:26 2022


Pair  time (%) = 0.278738 (0.0162234)
Neigh time (%) = 0.0630867 (0.00367184)
Comm  time (%) = 1.24523 (0.0724763)
Outpt time (%) = 0.000531739 (3.09488e-05)
Other time (%) = 1716.54 (99.9076)

Nlocal:    7.375 ave 64 max 0 min
Histogram: 32 0 2 0 1 2 1 0 0 2
Nghost:    3.15 ave 38 max 0 min
Histogram: 36 0 0 0 0 0 1 2 0 1
Neighs:    0.85 ave 13 max 0 min
Histogram: 35 1 1 0 0 1 1 0 0 1

Total # of neighbors = 34
Ave neighs/atom = 0.115254
Neighbor list builds = 344
Dangerous builds = 0
write_dump all custom dump.atom_info_ac_* id type x y z radius vx vy vz density #
run 123478
Setting up run at Fri Nov 25 05:18:26 2022

Memory usage per processor = 1082.6 Mbytes
    Step    Atoms         KinEng            CPU 
 9754764      295    0.051639281              0 
 9878242      295    0.052127065      1721.6038 
Loop time of 1721.6 on 40 procs for 123478 steps with 295 atoms, finish time Fri Nov 25 05:47:08 2022


Pair  time (%) = 0.279818 (0.0162534)
Neigh time (%) = 0.0621151 (0.00360798)
Comm  time (%) = 1.16878 (0.067889)
Outpt time (%) = 0.000904043 (5.25117e-05)
Other time (%) = 1720.09 (99.9122)

Nlocal:    7.375 ave 63 max 0 min
Histogram: 32 0 2 0 2 1 1 0 0 2
Nghost:    3.35 ave 36 max 0 min
Histogram: 34 2 0 0 0 0 0 2 1 1
Neighs:    1.05 ave 14 max 0 min
Histogram: 35 1 0 1 0 1 0 0 1 1

Total # of neighbors = 42
Ave neighs/atom = 0.142373
Neighbor list builds = 341
Dangerous builds = 0
[...]


Pair  time (%) = 0.312631 (0.0181186)
Neigh time (%) = 0.0631775 (0.00366146)
Comm  time (%) = 1.24848 (0.0723557)
Outpt time (%) = 0.000747964 (4.33483e-05)
Other time (%) = 1723.85 (99.9058)

Nlocal:    6.5 ave 52 max 0 min
Histogram: 32 0 0 0 3 2 0 2 0 1
Nghost:    1.575 ave 14 max 0 min
Histogram: 31 3 1 1 0 1 0 1 0 2
Neighs:    1.225 ave 18 max 0 min
Histogram: 34 1 0 3 1 0 0 0 0 1

Total # of neighbors = 49
Ave neighs/atom = 0.188462
Neighbor list builds = 342
Dangerous builds = 0
write_dump all custom dump.atom_info_ac_* id type x y z radius vx vy vz density #
run 123478
Setting up run at Sun Nov 27 06:04:11 2022

Memory usage per processor = 1082.6 Mbytes
    Step    Atoms         KinEng            CPU 
22226141      260     0.08781664              0 
22349619      259    0.087877074      1738.6328 
Loop time of 1738.63 on 40 procs for 123478 steps with 259 atoms, finish time Sun Nov 27 06:33:10 2022


Pair  time (%) = 0.314356 (0.0180806)
Neigh time (%) = 0.0632758 (0.0036394)
Comm  time (%) = 1.18223 (0.0679976)
Outpt time (%) = 0.0010941 (6.29287e-05)
Other time (%) = 1737.07 (99.9102)

Nlocal:    6.475 ave 39 max 0 min
Histogram: 32 0 0 0 0 2 0 1 2 3
Nghost:    1.575 ave 15 max 0 min
Histogram: 31 2 2 1 0 0 1 2 0 1
Neighs:    1.225 ave 13 max 0 min
Histogram: 33 1 0 1 2 0 2 0 0 1

Total # of neighbors = 49
Ave neighs/atom = 0.189189
Neighbor list builds = 341
Dangerous builds = 0
write_dump all custom dump.atom_info_ac_* id type x y z radius vx vy vz density #
run 123478
Setting up run at Sun Nov 27 06:33:10 2022

Memory usage per processor = 1082.6 Mbytes
    Step    Atoms         KinEng            CPU 
22349619      259    0.087877074              0 
22473097      259    0.087831249      1741.9184 
Loop time of 1741.92 on 40 procs for 123478 steps with 259 atoms, finish time Sun Nov 27 07:02:12 2022


Pair  time (%) = 0.317412 (0.018222)
Neigh time (%) = 0.0632416 (0.00363057)
Comm  time (%) = 1.13735 (0.0652932)
Outpt time (%) = 0.00076763 (4.40681e-05)
Other time (%) = 1740.4 (99.9128)

Nlocal:    6.475 ave 48 max 0 min
Histogram: 32 0 0 0 2 1 2 1 1 1
Nghost:    1.425 ave 17 max 0 min
Histogram: 33 1 2 1 0 2 0 0 0 1
Neighs:    1.275 ave 16 max 0 min
Histogram: 33 2 0 1 2 0 1 0 0 1

Total # of neighbors = 51
Ave neighs/atom = 0.196911
Neighbor list builds = 341
Dangerous builds = 0
write_dump all custom dump.atom_info_ac_* id type x y z radius vx vy vz density #
run 123478
Setting up run at Sun Nov 27 07:02:12 2022

Memory usage per processor = 1082.6 Mbytes
    Step    Atoms         KinEng            CPU 
22473097      259    0.087831249              0 
22596575      259    0.087832933      1733.3522 
Loop time of 1733.35 on 40 procs for 123478 steps with 259 atoms, finish time Sun Nov 27 07:31:05 2022


Pair  time (%) = 0.312148 (0.0180083)
Neigh time (%) = 0.0631512 (0.0036433)
Comm  time (%) = 1.10719 (0.0638755)
Outpt time (%) = 0.000764458 (4.41028e-05)
Other time (%) = 1731.87 (99.9144)

Nlocal:    6.475 ave 41 max 0 min
Histogram: 32 0 0 0 0 2 0 2 1 3
Nghost:    1.525 ave 15 max 0 min
Histogram: 31 2 3 0 0 0 2 0 1 1
Neighs:    1.325 ave 13 max 0 min
Histogram: 33 1 0 1 2 0 1 0 0 2

Total # of neighbors = 53
Ave neighs/atom = 0.204633
Neighbor list builds = 341
Dangerous builds = 0
write_dump all custom dump.atom_info_ac_* id type x y z radius vx vy vz density #
run 123478
Setting up run at Sun Nov 27 07:31:05 2022

Memory usage per processor = 1082.6 Mbytes
    Step    Atoms         KinEng            CPU 
22596575      259    0.087832933              0 
22720053      259    0.087874853      1733.7112 
Loop time of 1733.71 on 40 procs for 123478 steps with 259 atoms, finish time Sun Nov 27 07:59:59 2022


Pair  time (%) = 0.313888 (0.018105)
Neigh time (%) = 0.0632806 (0.00365001)
Comm  time (%) = 1.17981 (0.0680514)
Outpt time (%) = 0.000742712 (4.28394e-05)
Other time (%) = 1732.15 (99.9102)

Nlocal:    6.475 ave 53 max 0 min
Histogram: 32 0 0 1 2 2 1 1 0 1
Nghost:    1.475 ave 14 max 0 min
Histogram: 33 1 1 1 1 0 0 1 0 2
Neighs:    1.325 ave 19 max 0 min
Histogram: 33 2 0 2 2 0 0 0 0 1

Total # of neighbors = 53
Ave neighs/atom = 0.204633
Neighbor list builds = 342
Dangerous builds = 0
write_dump all custom dump.atom_info_ac_* id type x y z radius vx vy vz density #
run 123478
Setting up run at Sun Nov 27 07:59:59 2022

Memory usage per processor = 1082.6 Mbytes
    Step    Atoms         KinEng            CPU 
22720053      259    0.087874853              0 
22843531      258    0.087800907      1742.2448 
Loop time of 1742.24 on 40 procs for 123478 steps with 258 atoms, finish time Sun Nov 27 08:29:01 2022


Pair  time (%) = 0.313052 (0.0179683)
Neigh time (%) = 0.0639832 (0.00367246)
Comm  time (%) = 1.08802 (0.0624493)
Outpt time (%) = 0.000721245 (4.13975e-05)
Other time (%) = 1740.78 (99.9159)

Nlocal:    6.45 ave 40 max 0 min
Histogram: 32 0 0 0 0 1 1 2 1 3
Nghost:    1.475 ave 13 max 0 min
Histogram: 34 1 0 1 0 0 0 0 1 3
Neighs:    1.4 ave 16 max 0 min
Histogram: 33 1 0 3 0 1 1 0 0 1

Total # of neighbors = 56
Ave neighs/atom = 0.217054
Neighbor list builds = 344
Dangerous builds = 0
write_dump all custom dump.atom_info_ac_* id type x y z radius vx vy vz density #
run 123478
Setting up run at Sun Nov 27 08:29:01 2022

Memory usage per processor = 1082.6 Mbytes
    Step    Atoms         KinEng            CPU 
22843531      258    0.087800907              0 
22967009      258    0.087696913      1728.2784 
Loop time of 1728.28 on 40 procs for 123478 steps with 258 atoms, finish time Sun Nov 27 08:57:50 2022


Pair  time (%) = 0.317864 (0.0183919)
Neigh time (%) = 0.0636907 (0.00368521)
Comm  time (%) = 1.16639 (0.0674886)
Outpt time (%) = 0.00113491 (6.56669e-05)
Other time (%) = 1726.73 (99.9104)

Nlocal:    6.45 ave 51 max 0 min
Histogram: 32 0 0 1 1 2 1 2 0 1
Nghost:    1.45 ave 14 max 0 min
Histogram: 33 0 2 0 2 0 0 1 1 1
Neighs:    1.325 ave 17 max 0 min
Histogram: 33 2 0 0 3 1 0 0 0 1

Total # of neighbors = 53
Ave neighs/atom = 0.205426
Neighbor list builds = 345
Dangerous builds = 0
write_dump all custom dump.atom_info_ac_* id type x y z radius vx vy vz density #
run 123478
Setting up run at Sun Nov 27 08:57:50 2022

Memory usage per processor = 1082.6 Mbytes
    Step    Atoms         KinEng            CPU 
22967009      258    0.087696913              0 
23090487      258    0.087826947      1734.6417 
Loop time of 1734.64 on 40 procs for 123478 steps with 258 atoms, finish time Sun Nov 27 09:26:44 2022


Pair  time (%) = 0.31237 (0.0180078)
Neigh time (%) = 0.063747 (0.00367494)
Comm  time (%) = 1.09634 (0.063203)
Outpt time (%) = 0.000708852 (4.08645e-05)
Other time (%) = 1733.17 (99.9151)

Nlocal:    6.45 ave 42 max 0 min
Histogram: 32 0 0 0 0 2 1 2 0 3
Nghost:    1.35 ave 14 max 0 min
Histogram: 34 1 0 0 0 3 0 1 0 1
Neighs:    1.3 ave 14 max 0 min
Histogram: 33 1 0 2 1 1 0 0 0 2

Total # of neighbors = 52
Ave neighs/atom = 0.20155
Neighbor list builds = 344
Dangerous builds = 0
write_dump all custom dump.atom_info_ac_* id type x y z radius vx vy vz density #
run 123478
Setting up run at Sun Nov 27 09:26:44 2022

Memory usage per processor = 1082.6 Mbytes
    Step    Atoms         KinEng            CPU 
23090487      258    0.087826947              0 
23213965      258       0.087762      1739.0618 
Loop time of 1739.06 on 40 procs for 123478 steps with 258 atoms, finish time Sun Nov 27 09:55:43 2022


Pair  time (%) = 0.314352 (0.0180759)
Neigh time (%) = 0.063735 (0.00366491)
Comm  time (%) = 1.13862 (0.0654731)
Outpt time (%) = 0.00105834 (6.08567e-05)
Other time (%) = 1737.54 (99.9127)

Nlocal:    6.45 ave 48 max 0 min
Histogram: 32 0 0 1 1 1 2 0 2 1
Nghost:    1.55 ave 14 max 0 min
Histogram: 33 1 0 1 1 0 0 3 0 1
Neighs:    1.325 ave 16 max 0 min
Histogram: 33 2 0 0 2 2 0 0 0 1

Total # of neighbors = 53
Ave neighs/atom = 0.205426
Neighbor list builds = 345
Dangerous builds = 0
write_dump all custom dump.atom_info_ac_* id type x y z radius vx vy vz density #
run 123478
Setting up run at Sun Nov 27 09:55:43 2022

Memory usage per processor = 1082.6 Mbytes
    Step    Atoms         KinEng            CPU 
23213965      258       0.087762              0 
23337443      258    0.087945339      1733.2559 
Loop time of 1733.26 on 40 procs for 123478 steps with 258 atoms, finish time Sun Nov 27 10:24:37 2022


Pair  time (%) = 0.313086 (0.0180635)
Neigh time (%) = 0.0640098 (0.00369304)
Comm  time (%) = 1.09199 (0.0630025)
Outpt time (%) = 0.000707501 (4.08192e-05)
Other time (%) = 1731.79 (99.9152)

Nlocal:    6.45 ave 41 max 0 min
Histogram: 32 0 0 0 0 0 2 3 1 2
Nghost:    1.325 ave 12 max 0 min
Histogram: 34 0 1 0 0 1 1 1 0 2
Neighs:    1.325 ave 13 max 0 min
Histogram: 33 1 0 0 3 0 1 0 1 1

Total # of neighbors = 53
Ave neighs/atom = 0.205426
Neighbor list builds = 346
Dangerous builds = 0
write_dump all custom dump.atom_info_ac_* id type x y z radius vx vy vz density #
run 123478
Setting up run at Sun Nov 27 10:24:37 2022

Memory usage per processor = 1082.6 Mbytes
    Step    Atoms         KinEng            CPU 
23337443      258    0.087945339              0 
23460921      258    0.087885611      1732.0247 
Loop time of 1732.02 on 40 procs for 123478 steps with 258 atoms, finish time Sun Nov 27 10:53:29 2022


Pair  time (%) = 0.316851 (0.0182937)
Neigh time (%) = 0.0637067 (0.00367816)
Comm  time (%) = 1.09229 (0.0630644)
Outpt time (%) = 0.00109456 (6.31952e-05)
Other time (%) = 1730.55 (99.9149)

Nlocal:    6.45 ave 43 max 0 min
Histogram: 32 0 0 0 1 1 1 2 0 3
Nghost:    1.4 ave 11 max 0 min
Histogram: 32 1 1 0 1 1 0 1 1 2
Neighs:    1.275 ave 17 max 0 min
Histogram: 34 1 0 1 2 1 0 0 0 1

Total # of neighbors = 51
Ave neighs/atom = 0.197674
Neighbor list builds = 345
Dangerous builds = 0
write_dump all custom dump.atom_info_ac_* id type x y z radius vx vy vz density #
run 123478
Setting up run at Sun Nov 27 10:53:29 2022

Memory usage per processor = 1082.6 Mbytes
    Step    Atoms         KinEng            CPU 
23460921      258    0.087885611              0 
23584399      258    0.087964467      1730.0052 
Loop time of 1730.01 on 40 procs for 123478 steps with 258 atoms, finish time Sun Nov 27 11:22:19 2022


Pair  time (%) = 0.312502 (0.0180636)
Neigh time (%) = 0.0639167 (0.0036946)
Comm  time (%) = 1.10713 (0.0639958)
Outpt time (%) = 0.000715036 (4.13314e-05)
Other time (%) = 1728.52 (99.9142)

Nlocal:    6.45 ave 44 max 0 min
Histogram: 32 0 0 0 0 1 3 2 0 2
Nghost:    1.375 ave 13 max 0 min
Histogram: 33 1 1 0 0 2 0 2 0 1
Neighs:    1.3 ave 13 max 0 min
Histogram: 34 0 0 0 2 1 1 0 1 1

Total # of neighbors = 52
Ave neighs/atom = 0.20155
Neighbor list builds = 345
Dangerous builds = 0
write_dump all custom dump.atom_info_ac_* id type x y z radius vx vy vz density #
run 123478
Setting up run at Sun Nov 27 11:22:19 2022

Memory usage per processor = 1082.6 Mbytes
    Step    Atoms         KinEng            CPU 
23584399      258    0.087964467              0 
23707877      258    0.087869984      1738.0488 
Loop time of 1738.05 on 40 procs for 123478 steps with 258 atoms, finish time Sun Nov 27 11:51:17 2022


Pair  time (%) = 0.309556 (0.0178106)
Neigh time (%) = 0.0633706 (0.00364608)
Comm  time (%) = 1.12885 (0.0649494)
Outpt time (%) = 0.00107657 (6.19413e-05)
Other time (%) = 1736.55 (99.9135)

Nlocal:    6.45 ave 42 max 0 min
Histogram: 32 0 0 0 0 3 0 2 0 3
Nghost:    1.45 ave 11 max 0 min
Histogram: 32 1 1 0 1 0 2 0 0 3
Neighs:    1.3 ave 15 max 0 min
Histogram: 33 1 1 1 1 0 2 0 0 1

Total # of neighbors = 52
Ave neighs/atom = 0.20155
Neighbor list builds = 343
Dangerous builds = 0
write_dump all custom dump.atom_info_ac_* id type x y z radius vx vy vz density #
run 123478
Setting up run at Sun Nov 27 11:51:17 2022

Memory usage per processor = 1082.6 Mbytes
    Step    Atoms         KinEng            CPU 
23707877      258    0.087869984              0 
23831355      258     0.08796973      1731.0549 
Loop time of 1731.06 on 40 procs for 123478 steps with 258 atoms, finish time Sun Nov 27 12:20:08 2022


Pair  time (%) = 0.313705 (0.0181222)
Neigh time (%) = 0.0636973 (0.00367968)
Comm  time (%) = 1.08924 (0.0629237)
Outpt time (%) = 0.000670141 (3.87129e-05)
Other time (%) = 1729.59 (99.9152)

Nlocal:    6.45 ave 44 max 0 min
Histogram: 32 0 0 0 0 2 3 1 0 2
Nghost:    1.5 ave 12 max 0 min
Histogram: 32 2 1 0 0 0 1 1 1 2
Neighs:    1.275 ave 13 max 0 min
Histogram: 33 0 1 1 2 1 0 0 0 2

Total # of neighbors = 51
Ave neighs/atom = 0.197674
Neighbor list builds = 344
Dangerous builds = 0
write_dump all custom dump.atom_info_ac_* id type x y z radius vx vy vz density #
run 123478
Setting up run at Sun Nov 27 12:20:08 2022

Memory usage per processor = 1082.6 Mbytes
    Step    Atoms         KinEng            CPU 
23831355      258     0.08796973              0 
23954833      258     0.08857902      1723.6746 
Loop time of 1723.68 on 40 procs for 123478 steps with 258 atoms, finish time Sun Nov 27 12:48:52 2022


Pair  time (%) = 0.317435 (0.0184162)
Neigh time (%) = 0.0638674 (0.0037053)
Comm  time (%) = 1.16034 (0.0673175)
Outpt time (%) = 0.000763787 (4.43115e-05)
Other time (%) = 1722.13 (99.9105)

Nlocal:    6.45 ave 47 max 0 min
Histogram: 32 0 0 0 1 3 1 0 1 2
Nghost:    1.325 ave 11 max 0 min
Histogram: 33 1 0 0 1 0 2 1 0 2
Neighs:    1.45 ave 15 max 0 min
Histogram: 33 0 2 0 2 0 1 0 1 1

Total # of neighbors = 58
Ave neighs/atom = 0.224806
Neighbor list builds = 345
Dangerous builds = 0
write_dump all custom dump.atom_info_ac_* id type x y z radius vx vy vz density #
run 123478
Setting up run at Sun Nov 27 12:48:52 2022

Memory usage per processor = 1082.6 Mbytes
    Step    Atoms         KinEng            CPU 
23954833      258     0.08857902              0 
24078311      258    0.087996864      1740.1646 
Loop time of 1740.17 on 40 procs for 123478 steps with 258 atoms, finish time Sun Nov 27 13:17:52 2022


Pair  time (%) = 0.312668 (0.0179677)
Neigh time (%) = 0.0638141 (0.00366713)
Comm  time (%) = 1.09739 (0.0630625)
Outpt time (%) = 0.00103126 (5.92622e-05)
Other time (%) = 1738.69 (99.9152)

Nlocal:    6.45 ave 45 max 0 min
Histogram: 32 0 0 0 0 3 2 0 1 2
Nghost:    1.325 ave 13 max 0 min
Histogram: 32 3 0 0 0 1 2 1 0 1
Neighs:    1.45 ave 14 max 0 min
Histogram: 33 0 1 0 3 1 0 0 0 2

Total # of neighbors = 58
Ave neighs/atom = 0.224806
Neighbor list builds = 345
Dangerous builds = 0
write_dump all custom dump.atom_info_ac_* id type x y z radius vx vy vz density #
run 123478
Setting up run at Sun Nov 27 13:17:52 2022

Memory usage per processor = 1082.6 Mbytes
    Step    Atoms         KinEng            CPU 
24078311      258    0.087996864              0 
24201789      258    0.088064407      1731.3665 
Loop time of 1731.37 on 40 procs for 123478 steps with 258 atoms, finish time Sun Nov 27 13:46:44 2022


Pair  time (%) = 0.314164 (0.0181454)
Neigh time (%) = 0.0637394 (0.00368145)
Comm  time (%) = 1.21341 (0.0700837)
Outpt time (%) = 0.000784561 (4.53146e-05)
Other time (%) = 1729.77 (99.908)

Nlocal:    6.45 ave 45 max 0 min
Histogram: 32 0 0 0 1 2 2 0 0 3
Nghost:    1.35 ave 13 max 0 min
Histogram: 33 1 0 1 1 1 1 1 0 1
Neighs:    1.4 ave 15 max 0 min
Histogram: 32 1 2 0 1 2 1 0 0 1

Total # of neighbors = 56
Ave neighs/atom = 0.217054
Neighbor list builds = 345
Dangerous builds = 0
write_dump all custom dump.atom_info_ac_* id type x y z radius vx vy vz density #
run 123478
Setting up run at Sun Nov 27 13:46:44 2022

Memory usage per processor = 1082.6 Mbytes
    Step    Atoms         KinEng            CPU 
24201789      258    0.088064407              0 
24325267      258    0.088088956      1734.7935 
Loop time of 1734.79 on 40 procs for 123478 steps with 258 atoms, finish time Sun Nov 27 14:15:39 2022


Pair  time (%) = 0.314327 (0.018119)
Neigh time (%) = 0.0636624 (0.00366974)
Comm  time (%) = 1.53167 (0.0882913)
Outpt time (%) = 0.000995321 (5.7374e-05)
Other time (%) = 1732.88 (99.8899)

Nlocal:    6.45 ave 43 max 0 min
Histogram: 32 0 0 0 0 2 2 1 1 2
Nghost:    1.475 ave 13 max 0 min
Histogram: 33 1 1 0 0 1 2 0 1 1
Neighs:    1.375 ave 14 max 0 min
Histogram: 33 0 1 0 3 1 0 1 0 1

Total # of neighbors = 55
Ave neighs/atom = 0.213178
Neighbor list builds = 345
Dangerous builds = 0
write_dump all custom dump.atom_info_ac_* id type x y z radius vx vy vz density #
run 123478
Setting up run at Sun Nov 27 14:15:39 2022

Memory usage per processor = 1082.6 Mbytes
    Step    Atoms         KinEng            CPU 
24325267      258    0.088088956              0 
24448745      258    0.088187583      1733.1777 
Loop time of 1733.18 on 40 procs for 123478 steps with 258 atoms, finish time Sun Nov 27 14:44:32 2022


Pair  time (%) = 0.318707 (0.0183886)
Neigh time (%) = 0.0633657 (0.00365604)
Comm  time (%) = 1.47484 (0.0850944)
Outpt time (%) = 0.000812497 (4.6879e-05)
Other time (%) = 1731.32 (99.8928)

Nlocal:    6.45 ave 50 max 0 min
Histogram: 32 0 0 2 0 3 0 0 1 2
Nghost:    1.45 ave 13 max 0 min
Histogram: 33 1 0 2 0 1 1 0 0 2
Neighs:    1.4 ave 14 max 0 min
Histogram: 33 0 2 1 0 2 0 0 0 2

Total # of neighbors = 56
Ave neighs/atom = 0.217054
Neighbor list builds = 343
Dangerous builds = 0
write_dump all custom dump.atom_info_ac_* id type x y z radius vx vy vz density #
run 123478
Setting up run at Sun Nov 27 14:44:32 2022

Memory usage per processor = 1082.6 Mbytes
    Step    Atoms         KinEng            CPU 
24448745      258    0.088187583              0 
24572223      258    0.088465356      1740.7746 
Loop time of 1740.77 on 40 procs for 123478 steps with 258 atoms, finish time Sun Nov 27 15:13:33 2022


Pair  time (%) = 0.31328 (0.0179966)
Neigh time (%) = 0.0633493 (0.00363914)
Comm  time (%) = 1.50313 (0.0863486)
Outpt time (%) = 0.000999651 (5.74256e-05)
Other time (%) = 1738.89 (99.892)

Nlocal:    6.45 ave 43 max 0 min
Histogram: 32 0 0 0 0 2 3 0 1 2
Nghost:    1.425 ave 12 max 0 min
Histogram: 31 4 0 0 1 0 1 0 0 3
Neighs:    1.45 ave 17 max 0 min
Histogram: 33 1 1 1 2 0 0 1 0 1

Total # of neighbors = 58
Ave neighs/atom = 0.224806
Neighbor list builds = 343
Dangerous builds = 0
write_dump all custom dump.atom_info_ac_* id type x y z radius vx vy vz density #
run 123478
Setting up run at Sun Nov 27 15:13:33 2022

Memory usage per processor = 1082.6 Mbytes
    Step    Atoms         KinEng            CPU 
24572223      258    0.088465356              0 
24695701      258     0.08832749      1731.8442 
Loop time of 1731.84 on 40 procs for 123478 steps with 258 atoms, finish time Sun Nov 27 15:42:25 2022


Pair  time (%) = 0.31589 (0.0182401)
Neigh time (%) = 0.0631054 (0.00364382)
Comm  time (%) = 1.48112 (0.0855226)
Outpt time (%) = 0.000763988 (4.41141e-05)
Other time (%) = 1729.98 (99.8925)

Nlocal:    6.45 ave 49 max 0 min
Histogram: 32 0 0 1 2 2 0 0 2 1
Nghost:    1.45 ave 14 max 0 min
Histogram: 32 1 2 0 1 2 0 1 0 1
Neighs:    1.25 ave 14 max 0 min
Histogram: 33 0 2 1 0 2 1 0 0 1

Total # of neighbors = 50
Ave neighs/atom = 0.193798
Neighbor list builds = 342
Dangerous builds = 0
write_dump all custom dump.atom_info_ac_* id type x y z radius vx vy vz density #
run 99
Setting up run at Sun Nov 27 15:42:25 2022

Memory usage per processor = 1082.6 Mbytes
    Step    Atoms         KinEng            CPU 
24695701      258     0.08832749              0 
24695800      258    0.088218852      1.3320943 
Loop time of 1.33211 on 40 procs for 99 steps with 258 atoms, finish time Sun Nov 27 15:42:26 2022


Pair  time (%) = 0.000261266 (0.019613)
Neigh time (%) = 0 (0)
Comm  time (%) = 0.000382336 (0.0287016)
Outpt time (%) = 3.31484e-05 (0.00248842)
Other time (%) = 1.33143 (99.9492)

Nlocal:    6.45 ave 49 max 0 min
Histogram: 32 0 0 1 2 2 0 0 2 1
Nghost:    1.45 ave 13 max 0 min
Histogram: 32 1 1 1 1 1 1 0 1 1
Neighs:    1.275 ave 14 max 0 min
Histogram: 33 0 2 1 0 2 1 0 0 1

Total # of neighbors = 51
Ave neighs/atom = 0.197674
Neighbor list builds = 0
Dangerous builds = 0
write_dump all custom dump.atom_info_ac_* id type x y z radius vx vy vz density #
