ITEM: TIMESTEP
56790042
ITEM: NUMBER OF ATOMS
186
ITEM: BOX BOUNDS ff ff ff
-0.15 0.15
-0.15 0.15
-0.15 0.15
ITEM: ATOMS id type x y z radius vx vy vz density 
128 1 -0.0679453 -0.109647 0.00960389 0.000423 23.0622 -0.00373848 163.963 2650 
1233 1 -0.00138229 -0.0619425 -0.0295375 0.000423 -5.19797 0.0237642 0.230736 2650 
2439 1 -0.00480649 -0.0620248 -0.0291822 0.000423 -5.16607 0.132926 0.850005 2650 
3425 1 -0.0239654 -0.0603483 -0.017513 0.000423 -3.2642 -0.135391 4.5113 2650 
407 1 -0.0130358 -0.000904761 -0.0104082 0.000116 -0.0673625 0.000334622 0.0777757 2650 
2466 1 -0.0290637 -0.0597527 -0.0056794 0.000423 -1.01322 -0.14948 5.36183 2650 
3373 1 -0.015199 -0.000826866 -0.00485006 0.000116 -0.0173229 -0.00214691 0.0103305 2650 
1375 1 -0.02949 -0.0607925 0.00201551 0.000423 0.355797 -0.120014 5.18859 2650 
2955 1 -0.0134351 -0.00225621 0.00293251 4.2e-05 -0.00350847 -0.00274947 -0.027022 2650 
2170 1 -0.00896505 -0.0008585 0.00297811 0.000116 -0.0178885 -0.00197673 -0.00946212 2650 
2121 1 -0.00294842 -0.0580852 0.029427 0.000423 5.15807 0.186614 0.522248 2650 
2029 1 -0.00332159 0.00369492 -0.0160291 0.000423 -0.0507409 0.00025757 0.00958501 2650 
2200 1 -0.00553298 0.0165381 -0.0159226 4.2e-05 -0.202438 0.00465179 0.0846914 2650 
958 1 -0.00482917 0.0508571 -0.0159664 0.000116 -0.00111287 0.0325876 0.00413864 2650 
1401 1 -0.00224129 0.0638078 -0.0160226 0.000116 -0.0482401 0.0707499 -0.0144224 2650 
3595 1 -0.0057557 0.0184189 -0.0157552 0.000116 -0.192369 -0.00643867 0.0799002 2650 
3363 1 -0.00595989 0.0330208 -0.0156765 0.000116 -0.126873 -0.00315821 0.0526614 2650 
3457 1 -0.00863443 0.0228407 -0.0144733 0.000116 -0.171303 0.0102178 0.127267 2650 
2085 1 -0.00887015 0.0206425 -0.0132574 4.2e-05 -0.0181011 0.00257263 0.0192358 2650 
3235 1 -0.00996791 0.0363045 -0.0130533 0.000423 -0.0394979 0.0110233 0.029644 2650 
1977 1 -0.00407854 0.0570138 -0.0133926 4.2e-05 0.00936363 0.0231065 0.0111301 2650 
2621 1 -0.0113999 0.0243642 -0.0124229 0.000116 -0.248777 -0.0528017 0.18497 2650 
979 1 -0.0120276 0.0180241 -0.0117529 0.000116 -0.0974398 0.0172094 0.111757 2650 
1688 1 -0.012134 0.0288943 -0.0112227 0.000423 -0.17235 0.0216863 0.198393 2650 
782 1 -0.0117296 0.0383949 -0.0112559 0.000656 -0.114049 -0.0126298 0.130332 2650 
374 1 -0.0122661 0.0428858 -0.0109078 0.000423 -0.139325 0.000126074 0.159889 2650 
3286 1 -0.000202244 0.00949073 -0.00936461 4.2e-05 -0.0140612 -0.000406769 0.00829676 2650 
896 1 -0.0139265 0.0313031 -0.00887727 0.000423 -0.116982 -0.00900082 0.22325 2650 
1199 1 -0.0140949 0.0422817 -0.00911685 0.000116 -0.113958 0.0531526 0.212644 2650 
4269 1 -0.0127383 0.0158127 -0.00846364 4.2e-05 0.0045722 0.00106755 0.00450289 2650 
1061 1 -0.0143876 0.0239098 -0.00866506 0.000116 -0.146495 0.0736621 0.27836 2650 
3562 1 -0.0142738 0.0317128 -0.00821424 0.000423 -0.127944 -0.0377056 0.241689 2650 
1649 1 -0.0124109 0.0337156 -0.00830354 4.2e-05 0.0153533 0.0160557 -0.00759749 2650 
1366 1 -0.0141954 0.0434467 -0.00821567 0.000423 -0.118818 -0.0382672 0.220475 2650 
1527 1 -0.0149471 0.0154104 -0.00752282 0.000116 -0.0651086 -0.0164675 0.122643 2650 
1715 1 -0.0149805 0.0179965 -0.0074746 0.000116 -0.108493 -0.0329886 0.206072 2650 
4364 1 -0.0149813 0.0418726 -0.00726098 0.000116 -0.0488512 0.0264139 0.0929041 2650 
3167 1 -0.0154936 0.0123999 -0.00644671 0.000116 -0.0763727 -0.0327487 0.143411 2650 
2502 1 -0.0015659 0.0504691 -0.0069842 0.000116 0.0150784 0.0191854 -0.001372 2650 
3498 1 -0.0156611 0.0263259 -0.00624989 0.000116 -0.0932747 -0.0368548 0.17752 2650 
3278 1 -0.0159203 0.0364001 -0.00518305 0.000116 -0.0767559 -0.0543306 0.154373 2650 
3696 1 -0.0161602 0.0428251 -0.00417196 0.000116 -0.0656906 -0.0137195 0.248955 2650 
1308 1 -0.0160931 0.0555674 -0.00438957 0.000116 -0.0600264 -0.000660186 0.221884 2650 
1926 1 -0.005886 0.0725833 -0.00465783 0.000116 -0.0098772 0.042257 0.00489702 2650 
3374 1 -0.00841015 0.0177306 -0.00246064 0.000116 0.0128784 0.00328081 0.0135596 2650 
4261 1 -0.0151347 0.0426966 -0.00176494 0.000116 -0.00760984 0.0121487 -0.0257156 2650 
3843 1 -0.0161333 0.0391648 -0.00110272 0.000656 -0.0100459 -0.0130241 0.240687 2650 
409 1 -0.0132324 0.00263613 -0.000398316 0.000116 0.012862 -6.2486e-05 0.0110649 2650 
3738 1 -0.0160678 0.0266406 -0.000250254 0.000656 -0.0141039 -0.0254819 0.108803 2650 
1390 1 -0.0138688 0.028502 -3.69573e-05 0.000116 0.00668184 0.00761406 0.004387 2650 
881 1 -0.0161892 0.0152272 0.00012465 0.000656 -0.00641128 0.025312 0.155938 2650 
1386 1 -0.00422405 0.02347 0.000591084 0.000116 0.0246686 0.00383146 0.00652037 2650 
3184 1 -0.0159169 0.031961 7.65508e-05 0.000656 0.00279297 0.0855638 0.0897531 2650 
1867 1 -0.0167539 0.00130932 0.00154486 4.2e-05 0.0495793 0.00720515 0.262127 2650 
1726 1 -0.0119283 0.00123376 0.00107725 0.000116 0.0067969 -0.0044196 0.00453897 2650 
2805 1 -0.0167365 0.0345129 0.0012854 0.000116 0.038306 -0.0555171 0.216937 2650 
3159 1 -0.00594502 0.00846074 0.00190009 0.000116 0.00880628 0.00212481 -0.0109947 2650 
2403 1 -0.0160266 0.043965 0.00214095 0.000116 -0.00347761 0.0132456 -0.0205163 2650 
268 1 -0.0162069 0.026018 0.00257684 0.000423 0.0381602 -0.011087 0.220388 2650 
1290 1 -0.00474552 0.0432209 0.00315538 0.000116 -0.000139434 0.0231722 -0.013174 2650 
704 1 -0.0161947 0.0445858 0.00246007 0.000423 0.0488284 0.0175354 0.260361 2650 
3580 1 -0.00480968 0.0185473 0.00328372 0.000116 -0.0205447 0.00220226 -0.013372 2650 
878 1 -0.0159983 0.00227975 0.00521107 4.2e-05 0.047328 -0.0130293 0.108715 2650 
444 1 -0.0101771 0.0269775 0.0052451 0.000656 0.00276329 0.0169294 0.0180429 2650 
2301 1 -0.014495 0.0427576 0.00793473 4.2e-05 0.0123454 0.0255774 0.00457436 2650 
613 1 -0.0118475 0.0320986 0.00938191 0.000116 0.000957262 0.0124438 -0.0128394 2650 
1404 1 -0.0140869 0.034132 0.00912408 0.000116 0.123514 -0.000351377 0.165896 2650 
3181 1 -0.0113892 0.0462841 0.00869621 4.2e-05 0.0123085 0.0204503 0.0172726 2650 
1643 1 -0.000845306 0.048041 0.00908065 4.2e-05 -0.00583507 0.0218137 0.017945 2650 
2592 1 -0.013206 0.0382031 0.0102493 0.000116 0.182326 -0.0529768 0.24512 2650 
3931 1 -0.00894907 0.0132046 0.0104714 0.000116 0.014942 0.0037674 -0.00898674 2650 
2262 1 -0.0121097 0.0284867 0.0116174 0.000116 0.13752 -0.0137208 0.116195 2650 
1113 1 -0.0114215 0.0513242 0.0117517 0.000423 0.166713 0.00186783 0.144836 2650 
1566 1 -0.00137876 0.0178971 0.0124158 0.000423 0.00765391 -0.00358638 0.0302802 2650 
2409 1 -0.0012595 0.0249355 0.0119323 4.2e-05 0.0164201 0.00833024 -0.00540779 2650 
3137 1 -0.0118378 0.0252873 0.0119354 0.000116 0.0843737 -0.0582696 0.0513116 2650 
4054 1 -0.0113304 0.0390271 0.0124301 4.2e-05 -0.00302514 0.021236 0.0124005 2650 
2413 1 -0.00610235 0.0470352 0.0128057 4.2e-05 -0.00725618 0.0232257 -0.0144961 2650 
2175 1 -0.00977597 0.0428723 0.0134872 0.000116 0.0247226 0.00476621 0.0209644 2650 
375 1 -0.0069336 0.0274519 0.0149574 0.000423 0.145243 0.00297 0.0762961 2650 
1951 1 -0.00583637 0.043834 0.0157144 0.000116 0.231783 -0.0149478 0.0610713 2650 
751 1 -0.00288986 0.00330979 0.0164968 0.000116 0.0478607 0.00323706 0.0130154 2650 
2109 1 -0.001255 0.0132312 0.0162224 0.000423 0.159761 0.00124344 0.0297638 2650 
2299 1 -0.00356005 0.0146806 0.0164033 4.2e-05 0.115933 0.0279093 0.0301349 2650 
1277 1 -0.00105725 0.0465371 0.0165382 0.000116 0.0777571 0.00334075 0.0148151 2650 
124 1 -0.0639303 0.0358568 0.0248326 0.000423 -0.440489 -0.0992493 -1.13356 2650 
1301 1 -0.0304759 0.111492 -0.0617756 0.000116 -0.137777 -0.251124 0.0682159 2650 
1775 1 -0.0558679 0.141289 -0.0398487 0.000423 -106.133 5.40318 148.767 2650 
3185 1 -0.00297776 0.0804059 0.00463898 0.000656 -0.0229658 0.0401673 0.00208177 2650 
2180 1 -0.0444362 0.0755428 0.0526449 0.000116 189.579 27.2848 160.008 2650 
1450 1 0.0604209 -0.0279821 -0.0324499 0.000423 -8.04243 3.27801 -14.9689 2650 
1827 1 0.0606588 -0.0202471 -0.0326649 0.000116 123.938 0.00621668 231 2650 
1338 1 0.0109195 -0.0576309 -0.0276131 0.000423 -5.09174 -0.120799 -2.00294 2650 
1372 1 0.023259 -0.0543772 -0.0176456 0.000423 -2.90159 -1.11714e-06 -3.86035 2650 
4115 1 0.0134641 -0.00287403 -0.00950806 0.000116 -0.0563727 -0.00582093 -0.0658446 2650 
768 1 0.068834 -0.00922431 0.00414672 4.2e-05 0.00159597 -0.216551 -0.0264914 2650 
2730 1 0.0105649 -3.34206e-05 0.00708537 0.000116 -0.00424124 -0.00520915 -0.0044844 2650 
537 1 0.00246193 -3.66969e-05 0.01651 0.000116 0.0862007 0.000365439 -0.0162514 2650 
1332 1 0.0221117 -0.0541444 0.0184481 0.000656 2.89827 5.09118e-06 -3.47375 2650 
3762 1 0.013394 -0.0543772 0.0259266 0.000423 3.85504 2.13589e-07 -1.96805 2650 
2775 1 0.00381389 -0.0595198 0.0293321 0.000423 5.30432 -0.28174 -0.675308 2650 
4266 1 0.0543673 -0.0143509 0.0424198 4.2e-05 0.129288 -0.319634 -0.165694 2650 
4341 1 0.00187098 0.0484674 -0.0166236 0.000116 -0.230198 -0.0358251 -0.00958507 2650 
1617 1 0.00444128 0.0169828 -0.0161613 0.000116 0.0132342 0.00900538 0.00420128 2650 
566 1 0.00403708 0.0286839 -0.0159298 0.000423 -0.166309 -0.0195561 -0.0419011 2650 
3512 1 0.00245882 0.0302563 -0.0160555 0.000656 -0.171281 0.00540903 -0.0424954 2650 
975 1 0.0046152 0.0304765 -0.0161582 0.000116 -0.131766 0.0372815 -0.0489551 2650 
887 1 0.00253408 0.0315713 -0.0160402 0.000656 -0.1665 0.00557468 -0.0413752 2650 
532 1 0.00342689 0.0351969 -0.0163637 0.000116 -0.19248 0.00457545 -0.0483007 2650 
395 1 0.00418284 0.0117003 -0.015568 0.000116 -0.00710234 0.00665662 -0.0276173 2650 
1969 1 0.00723239 0.0228092 -0.0154154 4.2e-05 -0.070071 -0.212345 -0.0227174 2650 
522 1 0.00658415 0.0259706 -0.0154851 0.000116 -0.212912 -0.0723662 -0.0501572 2650 
2252 1 0.00622763 0.0291078 -0.0153516 0.000423 -0.211721 -0.0246032 -0.111995 2650 
3100 1 0.00805976 0.0135624 -0.0142943 0.000423 -0.137712 -0.0127293 -0.0730366 2650 
3811 1 0.00734067 0.0475662 -0.0149869 0.000116 -0.230161 -0.028073 -0.124045 2650 
171 1 0.00911776 0.0328547 -0.0141391 0.000116 -0.217733 0.0492051 -0.11485 2650 
391 1 0.0100624 0.00546555 -0.0133558 0.000116 -0.123481 -0.0560557 -0.107115 2650 
1859 1 0.0102841 0.00726756 -0.0132042 4.2e-05 0.0141217 0.00164701 0.0104671 2650 
1695 1 0.000403686 0.0377124 -0.013007 0.000423 0.0133272 0.0173293 -0.00289347 2650 
3488 1 0.0116616 0.0218747 -0.0121422 0.000116 -0.170974 -0.0225905 -0.148391 2650 
985 1 0.00498583 0.015802 -0.0111793 4.2e-05 -0.00205729 0.00336942 0.00401153 2650 
940 1 0.0131011 0.00397878 -0.0102658 0.000116 -0.0587185 -0.0617829 -0.0780003 2650 
4109 1 0.0119105 0.0228905 -0.0109022 0.000423 0.0166916 0.0120214 0.015095 2650 
1153 1 0.0129515 0.0368288 -0.0103329 0.000423 -0.00580988 0.014114 2.09413e-05 2650 
2937 1 1.3594e-05 0.00348584 -0.00998534 0.000116 -0.03095 -0.00788887 0.0124086 2650 
978 1 0.0137772 0.02103 -0.00955668 0.000116 -0.15093 0.00469148 -0.203082 2650 
2288 1 0.0133835 0.0511185 -0.0100987 0.000116 0.0685921 -0.00865711 0.059013 2650 
1152 1 0.0134138 0.0144091 -0.0094601 0.000423 -0.0766436 -0.00412428 -0.102704 2650 
3023 1 0.0141952 0.0232895 -0.00901025 0.000116 -0.139562 0.00437257 -0.187986 2650 
4340 1 0.014244 0.0347167 -0.00889616 0.000116 -0.141333 -0.0355742 -0.19003 2650 
1586 1 0.0136763 0.0393592 -0.00910032 0.000423 -0.0964732 0.00346246 -0.1291 2650 
829 1 0.0148328 0.0235274 -0.00803946 0.000116 -0.0809213 0.0263092 -0.197054 2650 
3289 1 0.0153988 0.028078 -0.00729941 4.2e-05 0.0344449 -0.114001 0.103888 2650 
4294 1 0.0122648 0.0487542 -0.00641652 0.000423 -0.0171648 0.0185745 0.00401268 2650 
964 1 0.0115052 0.0481549 -0.00560434 0.000116 -0.0187698 0.0068611 -0.0297385 2650 
3388 1 0.00448841 0.0737715 -0.0048026 0.000116 0.00328284 0.0425722 -0.0272589 2650 
962 1 0.000396003 0.0168634 -0.00405594 0.000116 0.00474377 0.0040355 -0.00292126 2650 
2303 1 0.0162082 0.0207921 -0.00434124 4.2e-05 -0.0333394 0.0454456 -0.186636 2650 
1097 1 0.0162651 0.04435 -0.0042609 4.2e-05 -0.00704676 0.002623 -0.0381389 2650 
517 1 0.00561937 0.034252 -0.00388322 0.000116 -0.0116062 0.0122752 0.0140196 2650 
2478 1 0.015658 0.0100528 -0.00260437 0.000116 -0.0142448 0.00471341 -0.00507749 2650 
1167 1 0.0165158 0.0193279 -0.00263813 0.000116 -0.0215905 0.00343585 -0.125306 2650 
1834 1 0.0113074 0.0403202 -0.00114118 0.000116 0.0139886 0.0209733 0.00916377 2650 
1222 1 0.00906279 0.00243174 -0.000563908 0.000656 0.0104443 -0.0020847 -0.0233148 2650 
3658 1 0.0161474 0.0246453 0.00305568 0.000423 0.0615524 0.0210456 -0.248969 2650 
4158 1 0.0165854 0.034709 0.00281778 4.2e-05 0.0467802 -0.0399147 -0.187059 2650 
1057 1 0.0162688 0.0140574 0.00373313 0.000116 0.0583912 0.00629954 -0.229487 2650 
3223 1 0.0160391 0.0441944 0.00341841 0.000423 0.019106 0.000594743 -0.0724794 2650 
1427 1 0.0112356 0.0679145 0.00428499 4.2e-05 -0.0109477 0.032193 0.00536725 2650 
2153 1 0.0144175 0.0172743 0.00503732 0.000116 0.00656298 0.00568341 -0.0128949 2650 
3315 1 0.0103005 0.000650181 0.00558244 0.000423 -0.0207296 0.00267915 0.00840019 2650 
1276 1 0.0152759 0.0227533 0.00629019 0.000116 -0.0100146 0.00112239 0.0283384 2650 
3713 1 0.00303474 0.0691144 0.00572746 0.000116 0.019386 0.0235719 0.0208219 2650 
3130 1 0.00778469 0.0221935 0.00665015 0.000116 0.0110127 0.0053862 -0.0184765 2650 
2044 1 0.0152744 0.0226144 0.00697376 0.000116 0.0963714 0.0221096 -0.182926 2650 
308 1 0.0148634 0.0048448 0.00755225 0.000116 0.064763 -0.0261369 -0.12063 2650 
1129 1 0.00871071 0.0130101 0.00755988 0.000423 -0.0167054 -0.000619331 -0.00613072 2650 
2091 1 0.0144483 0.0279688 0.00740566 0.000656 0.0988989 -0.00646805 -0.188281 2650 
103 1 0.00167792 0.0134638 0.00789881 4.2e-05 0.00843836 0.00223835 -0.0205048 2650 
3297 1 0.0137025 0.0412557 0.00866503 0.000656 0.115202 0.0237658 -0.216022 2650 
1317 1 0.00945756 0.0174927 0.00869667 4.2e-05 0.0232171 0.0048696 -0.00194067 2650 
3435 1 0.0140179 0.0275574 0.00872232 0.000423 0.0998069 0.0177376 -0.190005 2650 
2161 1 0.014139 0.0572628 0.00904 0.000116 0.0259242 0.0272669 0.0222447 2650 
2587 1 0.0135733 0.0315152 0.010019 0.000116 0.148372 -0.00229952 -0.170599 2650 
931 1 0.0129473 0.0344902 0.0102458 0.000423 0.167635 0.00398229 -0.192666 2650 
217 1 0.000576581 0.0416366 0.0101818 4.2e-05 0.00118055 0.0132006 -0.0176373 2650 
2068 1 0.0120544 0.0273335 0.0117822 0.000116 0.154187 0.00210479 -0.177395 2650 
1830 1 0.0112092 0.0185627 0.0125273 0.000116 0.149141 -0.0200237 -0.111231 2650 
3153 1 0.00614775 0.0316 0.0120579 0.000116 -0.0100839 0.0141293 0.000228711 2650 
1093 1 0.0108236 0.017417 0.0128697 4.2e-05 0.0231837 0.00819928 0.00623872 2650 
1949 1 0.0102765 0.0325851 0.0132407 0.000116 0.199605 -0.00422522 -0.148558 2650 
2026 1 0.00780136 0.00067614 0.0138008 0.000423 0.036717 0.000166555 -0.0221384 2650 
3071 1 0.00910528 0.00133695 0.0140717 4.2e-05 0.125512 0.00632899 -0.0930487 2650 
313 1 0.0094498 0.01206 0.0137341 0.000116 0.16392 -0.0250067 -0.0833093 2650 
3240 1 0.00585943 0.0128375 0.014167 0.000116 0.0122325 0.00657003 0.00489617 2650 
4012 1 0.00805484 0.0106479 0.014733 0.000116 0.0913714 0.0181594 -0.0389166 2650 
3688 1 0.00778839 0.0241255 0.0149328 0.000116 0.142555 -0.000125104 -0.0586582 2650 
2668 1 0.00495219 0.0557771 0.0148373 0.000423 0.0392959 0.0215543 -0.00470976 2650 
2776 1 0.00582699 0.0448311 0.0153471 0.000423 0.275173 -0.0216236 -0.11712 2650 
3411 1 0.00279967 0.056307 0.0156223 0.000656 0.0329004 0.0237327 -0.00916788 2650 
2495 1 0.000764145 0.0236382 0.0167596 0.000116 0.189842 -0.0322424 0.00742865 2650 
1506 1 0.0681397 0.0902472 -0.0101143 0.000116 0.00992923 -0.130712 0.0668855 2650 
1622 1 0.00927533 0.0869158 -0.00867163 0.000116 0.0252356 0.0472165 -0.00030571 2650 
2985 1 0.0134483 0.0787567 0.00420957 0.000423 -0.00470864 0.0381792 0.00720644 2650 
277 1 0.00486788 0.11357 0.0105322 0.000116 0.00273855 0.0626858 0.00700488 2650 
2344 1 0.0123101 0.0921911 0.0114148 0.000423 -0.005308 0.0590222 0.0190466 2650 
