ITEM: TIMESTEP
35185172
ITEM: NUMBER OF ATOMS
276
ITEM: BOX BOUNDS ff ff ff
-0.15 0.15
-0.15 0.15
-0.15 0.15
ITEM: ATOMS id type x y z radius vx vy vz density 
189 1 -0.00268297 -0.014264 -0.068832 0.000116 -77.4269 -14.1318 3.01785 2650 
2596 1 -0.00693768 -0.00441781 -0.0641165 0.000116 -0.0064465 -0.0887932 0.405022 2650 
1059 1 -0.0347289 -0.000137913 -0.0595216 0.000116 -2.46808 0.919805 1.03946 2650 
57 1 -0.000580841 -0.0614559 -0.0688833 0.000116 -126.896 3.49076 1.52346 2650 
2775 1 -0.00022682 -0.0620334 -0.0295697 0.000423 -5.72358 0.183049 0.0693929 2650 
1974 1 -0.00252824 -0.00339585 -0.0164336 4.2e-05 -0.221142 -0.0361796 -1.43742 2650 
4002 1 -0.000443 -0.00272399 -0.01223 0.000116 0 -0.01175 0 2650 
2260 1 -0.008542 -0.000971995 -0.010892 0.000116 0 -0.01175 0 2650 
4115 1 -0.015616 -0.000171156 -0.00562622 0.000116 -0.0210623 0.00199409 0.107178 2650 
2088 1 -0.005764 -0.000636995 -0.003809 4.2e-05 0 -0.01175 0 2650 
2786 1 -0.00671314 -0.00294902 -0.00237812 0.000423 0.0197018 -0.00401588 0.0160231 2650 
4130 1 -0.003058 -0.00303099 0.001127 0.000116 0 -0.01175 0 2650 
3489 1 -0.00306 -0.00122299 0.001129 0.000116 0 -0.01175 0 2650 
2046 1 -0.001426 -0.00285099 0.004025 0.000116 0 -0.01175 0 2650 
4378 1 -0.011039 -0.000473995 0.0043 4.2e-05 0 -0.01175 0 2650 
2079 1 -0.000281 -0.00143099 0.005134 4.2e-05 0 -0.01175 0 2650 
2739 1 -0.005531 -0.00287599 0.009169 4.2e-05 0 -0.01175 0 2650 
407 1 -0.00862774 -0.00273893 0.014305 0.000116 0.103205 0.00216074 0.0548465 2650 
1415 1 -0.000822055 -0.00137169 0.016677 0.000116 0.208861 -0.069908 0.00795164 2650 
2439 1 -0.0231318 -0.0573679 0.0186119 0.000423 3.89823 0.523059 4.79394 2650 
598 1 -0.0178892 -0.00704055 0.0224151 0.000423 -11.1774 8.7285 23.915 2650 
1233 1 -0.0107877 -0.0611387 0.0275868 0.000423 6.00634 0.114048 2.34442 2650 
3132 1 -0.0631352 -0.0107095 0.0275592 0.000116 48.8027 19.3007 111.793 2650 
1375 1 -0.00671246 -0.0563059 0.0288224 0.000423 5.60867 0.533094 1.28137 2650 
2121 1 -0.00284 -0.0600677 0.0294343 0.000423 5.88916 0.46259 0.537498 2650 
3739 1 -0.0539 -0.0122544 0.0420652 0.000656 42.1788 4.9455 54.0229 2650 
2689 1 -0.0340845 -0.0100375 0.0595054 0.000423 -0.158263 -0.334479 -0.040139 2650 
2725 1 -0.0346859 -0.00722438 0.0595138 0.000116 -0.203615 -0.186731 -0.118671 2650 
3729 1 -0.000833207 -0.0497315 0.0683807 0.000656 -110.029 -16.2633 -1.34005 2650 
3023 1 -0.000833218 0.023415 -0.0167609 0.000116 -0.447179 0.00284605 -0.0174441 2650 
4266 1 -0.00571934 0.0161373 -0.0158368 4.2e-05 -0.187196 -0.0315864 0.0789758 2650 
3488 1 -0.00413244 0.0187611 -0.0162173 0.000116 -0.334164 -0.0282688 0.0598238 2650 
2252 1 -0.00165663 0.030201 -0.016358 0.000423 -0.334885 -0.0389719 0.0589127 2650 
896 1 -0.00256143 0.0342276 -0.0161909 0.000423 -0.402647 -0.0449555 0.0718505 2650 
1859 1 -0.00190789 0.00626826 -0.0157635 4.2e-05 0.0192774 0.00105788 -0.0136974 2650 
979 1 -0.00616961 0.0234529 -0.0156605 0.000116 -0.0468697 0.00524659 0.0109527 2650 
3363 1 -0.00636042 0.0374207 -0.0154908 0.000116 -0.151774 0.00679921 0.0635631 2650 
881 1 -0.00724319 0.0243476 -0.0145792 0.000656 -0.166424 0.0234962 0.0684076 2650 
1617 1 -0.00606682 0.010372 -0.0138912 0.000116 0.0152632 0.00950611 -0.00429697 2650 
2109 1 -0.00857096 0.013035 -0.0139041 0.000423 -0.203792 0.00071556 0.176186 2650 
4109 1 -0.00392992 0.0138524 -0.0137855 0.000423 0.0262577 0.0137974 -0.00380425 2650 
1969 1 -0.00965758 0.039301 -0.0137336 4.2e-05 -0.348063 0.00186802 0.259869 2650 
374 1 -0.0098978 0.0309042 -0.0131564 0.000423 -0.359404 0.102323 0.267415 2650 
704 1 -0.0103494 0.0423374 -0.0127061 0.000423 -0.312819 0.0362789 0.234838 2650 
3989 1 -0.0102791 0.045075 -0.0129238 0.000423 -0.127114 0.115559 0.0880976 2650 
2396 1 -0.00495204 0.0461329 -0.0126368 0.000116 -0.0246375 0.0355593 0.023977 2650 
3373 1 -0.00307299 0.000675969 -0.0120814 0.000116 -0.0173229 -0.00214691 0.0103305 2650 
3758 1 -0.0111061 0.0068049 -0.0121255 0.000423 -0.140124 -0.00750334 0.104363 2650 
958 1 -0.000862451 0.027421 -0.0122396 0.000116 -0.00586431 0.033519 -0.00573458 2650 
1867 1 -0.0123216 0.000966606 -0.011349 4.2e-05 -0.257172 -0.0136584 0.295959 2650 
751 1 -0.0124048 0.0022036 -0.0111886 0.000116 -0.045016 -0.00159948 0.028934 2650 
3278 1 -0.0123702 0.0190733 -0.0112104 0.000116 -0.103669 0.0495897 0.120488 2650 
1152 1 -0.0121089 0.0224333 -0.010325 0.000423 -0.0219027 0.0149498 0.0442214 2650 
1695 1 -0.00892534 0.0255819 -0.0109816 0.000423 0.0133272 0.0173293 -0.00289347 2650 
3223 1 -0.0125287 0.0392545 -0.0106727 0.000423 -0.0731479 0.0176469 0.084447 2650 
1366 1 -0.012629 0.0458957 -0.0104502 0.000423 -0.23753 -0.0756002 0.272001 2650 
3741 1 -0.00429387 0.0120704 -0.00903671 0.000423 0.0405447 -0.0486065 0.0160906 2650 
1566 1 -0.00673648 0.0204076 -0.00878029 0.000423 0.00765391 -0.00358638 0.0302802 2650 
3696 1 -0.0142274 0.0439209 -0.00879034 0.000116 -0.176015 -0.0440424 0.326824 2650 
3713 1 -0.0105354 0.0526142 -0.00884783 0.000116 0.019386 0.0235719 0.0208219 2650 
3719 1 -0.0144304 0.00384989 -0.00862388 4.2e-05 0.243919 -0.0151131 -0.328655 2650 
1622 1 -0.00838952 0.0538643 -0.00845763 0.000116 0.0252356 0.0472165 -0.00030571 2650 
4354 1 -0.0683923 0.0579932 -0.00823467 0.000116 -0.0160832 -0.154581 0.133563 2650 
4269 1 -0.00829872 0.0145407 -0.00756423 4.2e-05 -0.0127414 0.0022567 -0.00467821 2650 
444 1 -0.0121114 0.015127 -0.00738491 0.000656 0.00276329 0.0169294 0.0180429 2650 
2175 1 -0.0144603 0.037379 -0.00724266 0.000116 -0.0159695 0.0112744 0.0316932 2650 
3289 1 -0.0100607 0.0405079 -0.00728716 4.2e-05 -0.0230588 0.0278502 0.0350353 2650 
2161 1 -0.00400791 0.0381761 -0.00653123 0.000116 0.0259242 0.0272669 0.0222447 2650 
124 1 -0.0148175 0.0358463 -0.00591727 0.000423 0.0185137 0.0369475 -0.0450323 2650 
2502 1 -0.0121208 0.0370394 -0.0060238 0.000116 0.0150784 0.0191854 -0.001372 2650 
409 1 -0.00304668 0.00314561 -0.00529882 0.000116 -0.0302843 -0.00110969 0.00466816 2650 
3374 1 -0.00615856 0.0145203 -0.00490373 0.000116 -0.0349143 0.00715666 -0.0163407 2650 
829 1 -0.0159966 0.024768 -0.00493884 0.000116 -0.068016 -0.0195882 0.275471 2650 
566 1 -0.0156812 0.0313302 -0.00493338 0.000423 -0.0804241 -0.0292838 0.323579 2650 
375 1 -0.0157584 0.0265907 -0.00456614 0.000423 -0.0779902 -0.0372311 0.175983 2650 
3181 1 -0.0118391 0.0307942 -0.00454499 4.2e-05 -0.0195086 0.0250272 0.021755 2650 
2995 1 -0.00159518 0.0447186 -0.00400221 0.000423 0.0363573 0.0459431 0.00902559 2650 
3315 1 -0.000318555 0.000405695 -0.0033261 0.000423 0.0398515 -0.00125266 0.0157009 2650 
2301 1 -0.00988773 0.0225557 -0.0038648 4.2e-05 -0.00799594 0.0291052 0.0177741 2650 
3931 1 -0.00028679 0.00779795 -0.00274568 0.000116 -0.0219574 0.00911183 0.0286579 2650 
1390 1 -0.0123998 0.0228568 -0.00280559 0.000116 -0.0153914 0.00874678 0.00330151 2650 
532 1 -0.00782699 0.0227019 -0.00311442 0.000116 -0.0223881 0.0170804 0.0130382 2650 
3411 1 -0.0142239 0.0393499 -0.00272213 0.000656 0.0165867 0.0259936 0.042313 2650 
1726 1 -0.0165534 0.00433767 -0.00210037 0.000116 -0.015933 -0.00616495 0.00459885 2650 
962 1 -0.00292462 0.0140385 -0.00201106 0.000116 0.00474377 0.0040355 -0.00292126 2650 
2526 1 -0.0166714 0.0145767 -0.00200806 4.2e-05 0.575562 0.316248 -3.13381 2650 
1386 1 -0.0060824 0.0193649 -0.0019189 0.000116 -0.0530338 0.0110074 -0.00383818 2650 
1977 1 -0.00319685 0.0379777 -0.00180707 4.2e-05 -0.00580185 0.0289425 -0.0283867 2650 
1506 1 -0.00552878 0.0619679 -0.00141626 0.000116 0.0336775 0.0455991 -0.00236406 2650 
461 1 -0.00744328 0.0436731 -0.000234159 0.000423 -0.0166778 0.0419868 -0.0151366 2650 
1325 1 -0.0123352 0.0517115 -0.000512102 0.000656 0.0293551 0.0548053 0.032583 2650 
2695 1 -0.0124803 0.0746594 -0.000245201 0.000116 -0.0263821 0.0783745 -8.18607e-05 2650 
2026 1 -0.0145715 0.000734821 0.000303737 0.000423 -0.020203 -0.000568634 0.0555342 2650 
1300 1 -0.00918 0.000237005 0.000458 0.000116 0 -0.01175 0 2650 
1422 1 -0.016785 0.0360425 7.65365e-05 4.2e-05 0.00945807 -0.197493 0.178762 2650 
4294 1 -0.00319983 0.0314339 0.000907919 0.000423 0.0335852 0.0265495 -0.0147015 2650 
1649 1 -0.00537497 0.0198172 0.00256002 4.2e-05 -0.0206843 0.021445 -0.0188351 2650 
3843 1 -0.0159688 0.0395695 0.00243313 0.000656 0.0618564 -0.0238168 0.339877 2650 
2368 1 -0.0149155 0.0718357 0.00303684 0.000116 -0.0339034 0.0560219 -0.00471386 2650 
1827 1 -0.00993211 0.000789117 0.00384578 0.000116 0.0103409 -0.00799916 0.0195353 2650 
2478 1 -0.000916154 0.00616402 0.00379764 0.000116 0.0277766 0.00564647 -0.0095855 2650 
4054 1 -0.00921277 0.024162 0.00374972 4.2e-05 -0.00302514 0.021236 0.0124005 2650 
103 1 -0.0026223 0.0110271 0.00451708 4.2e-05 0.00246061 0.00547487 0.0454821 2650 
2668 1 -0.0130016 0.037044 0.00400977 0.000423 0.0210052 0.028517 0.0263336 2650 
217 1 -0.00237865 0.0303849 0.0055291 4.2e-05 0.00790517 0.0195538 0.0360586 2650 
1301 1 -0.00159316 0.0501463 0.00607856 0.000116 -0.00647945 0.108282 -0.0353601 2650 
2409 1 -0.00768695 0.0177899 0.0073166 4.2e-05 -0.00502615 0.0138941 0.0301536 2650 
613 1 -0.00152966 0.021181 0.00771885 0.000116 -0.0207041 0.0167945 0.00815702 2650 
940 1 -0.0101509 0.0239951 0.00787517 0.000116 0.0293703 0.0142824 0.0271522 2650 
173 1 -0.0143685 0.00250932 0.00817909 0.000116 0.0460056 -0.0525218 0.094453 2650 
3685 1 -0.0133262 0.0113752 0.0080044 0.000116 -0.00267194 0.0114911 0.0372331 2650 
1093 1 -0.00540488 0.0116775 0.00850265 4.2e-05 0.0231837 0.00819928 0.00623872 2650 
3512 1 -0.0141028 0.0372396 0.00817533 0.000656 0.184203 0.0312611 0.246714 2650 
3159 1 -0.0121094 0.00697339 0.00959636 0.000116 0.00880628 0.00212481 -0.0109947 2650 
1317 1 -0.00679433 0.014084 0.0100551 4.2e-05 0.0232171 0.0048696 -0.00194067 2650 
4341 1 -0.0133152 0.0378883 0.0101027 0.000116 0.132067 -0.0532151 0.177697 2650 
3240 1 -0.00270332 0.00823849 0.0107397 0.000116 0.0122325 0.00657003 0.00489617 2650 
2200 1 -0.0123361 0.0166931 0.0115635 4.2e-05 0.178448 0.00100445 0.239227 2650 
1715 1 -0.0121975 0.0168677 0.0116121 0.000116 0.193914 -0.047505 0.258616 2650 
3130 1 -0.00079853 0.0172466 0.0112573 0.000116 0.0165992 0.0129037 0.0347226 2650 
964 1 -0.0043999 0.0391599 0.0115501 0.000116 0.0490331 0.0166479 -0.0211884 2650 
4364 1 -0.00396573 0.0122767 0.012454 0.000116 -0.0374241 0.00896947 0.0374386 2650 
1290 1 -0.00464791 0.0270004 0.0123771 0.000116 -0.000139434 0.0231722 -0.013174 2650 
3738 1 -0.0105373 0.0295304 0.0124191 0.000656 0.252501 0.0522798 0.219217 2650 
2403 1 -0.00377825 0.0342461 0.0120666 0.000116 -0.0260271 0.0142728 -0.0103244 2650 
4261 1 -0.00652766 0.0336419 0.0127255 0.000116 -0.0345366 0.0166687 0.00310104 2650 
4224 1 -0.0104582 0.0388306 0.0131168 0.000116 0.0766659 -0.023269 0.0671253 2650 
1308 1 -0.00802593 0.0553714 0.0146257 0.000116 0.279201 -0.00356178 0.149457 2650 
3071 1 -0.00578981 0.00153106 0.0157884 4.2e-05 0.185081 -0.00892457 0.0506655 2650 
1773 1 -0.00517738 0.0399839 0.0152234 0.000423 0.110193 0.0847325 0.041828 2650 
878 1 -0.00507259 0.00296131 0.0159725 4.2e-05 0.133511 0.0154797 0.0362044 2650 
3595 1 -0.00332044 0.0178119 0.0163871 0.000116 0.269412 0.00579765 0.0673608 2650 
3457 1 -0.00534793 0.0237462 0.015894 0.000116 0.278103 0.00749488 0.0690845 2650 
2075 1 -0.00283756 0.0524006 0.0159734 0.000116 0.0619775 0.127695 0.0651104 2650 
1753 1 -0.0113123 0.0615018 0.0670777 4.2e-05 0.506731 -0.0178166 -3.25903 2650 
948 1 -0.0075286 0.0568613 0.0684713 0.000116 0.140112 -0.0989711 0.015743 2650 
191 1 -0.0376005 0.104796 -0.0577256 0.000116 210.627 1.18736 -137.185 2650 
3796 1 -0.0070134 0.124417 -0.0122921 0.000116 -0.00314921 0.122414 -0.0287317 2650 
867 1 -0.00871426 0.0994207 -0.00741522 0.000116 -0.0215344 0.108752 0.00686425 2650 
278 1 -0.00896622 0.0754625 -0.00587964 0.000116 0.00833688 0.0608785 -0.0403859 2650 
224 1 -0.0596336 0.0903799 0.0335469 0.000656 75.573 11.6494 134.298 2650 
2359 1 -0.0128681 0.0762753 0.0673589 0.000423 0.219191 -0.0434253 0.0422884 2650 
128 1 0.060491 -0.109854 0.0323904 0.000423 75.99 -0.497178 -142.589 2650 
889 1 0.0133118 -0.0577181 -0.0670451 0.000656 49.0817 0.871001 9.74088 2650 
3425 1 0.0116655 -0.0583819 -0.0273442 0.000423 -6.14546 -0.188788 -2.63484 2650 
537 1 0.00929206 -0.000831534 -0.0139385 0.000116 -0.0862369 0.00109227 -0.0461433 2650 
1338 1 0.0272043 -0.0599436 -0.0119222 0.000423 -2.31833 0.645441 -5.42291 2650 
1372 1 0.0270869 -0.0543772 -0.0106178 0.000423 -1.78694 -5.38224e-07 -4.5953 2650 
2466 1 0.0280453 -0.0592853 -0.00976629 0.000423 -2.09338 -0.000514399 -6.19268 2650 
1850 1 0.00459173 -0.00282942 -0.00604059 0.000116 0.000223581 -0.0111736 -0.000504864 2650 
2156 1 0.003663 -0.00320499 -0.005046 0.000116 0 -0.01175 0 2650 
2984 1 0.00224787 -0.000988251 -0.00522183 0.000423 -0.0196306 -0.00775232 -0.0271217 2650 
324 1 0.005994 -0.000434995 -0.00159 4.2e-05 0 -0.01175 0 2650 
768 1 0.00776402 -0.000598073 -6.87164e-06 4.2e-05 -0.00612284 -0.0041527 0.000417042 2650 
3914 1 0.004203 -0.000488995 0.000929 0.000116 0 -0.01175 0 2650 
3907 1 0.0164137 -0.00233927 0.00321819 0.000116 0.127346 0.0125503 -0.470741 2650 
3825 1 0.00124689 -0.000565649 0.005377 0.000116 -0.0335956 -0.00790126 0.0174373 2650 
2955 1 0.00297545 -0.000918674 0.00776042 4.2e-05 -0.0398967 -0.00121856 0.00971244 2650 
1399 1 0.00772298 -0.00187534 0.0116991 0.000116 0.0120787 -0.00855077 -0.00240679 2650 
2856 1 0.003345 -0.00285699 0.013491 4.2e-05 0 -0.01175 0 2650 
1450 1 0.0014953 -0.000587703 0.0148911 0.000423 0.0390996 -0.00834336 0.00964805 2650 
3698 1 0.000104288 -0.00229785 0.0167487 0.000116 0.197291 -0.0800867 0.00824914 2650 
1332 1 0.0227836 -0.0541444 0.0176417 0.000656 3.03646 3.35382e-06 -4.00297 2650 
3762 1 0.0208831 -0.0543772 0.0202437 0.000423 3.41635 -2.4327e-07 -3.51673 2650 
865 1 0.0209999 -0.011691 0.045701 0.000116 -9.16061 14.4798 12.5968 2650 
2050 1 0.0433772 -0.0183787 0.053511 0.000116 0.193883 -0.369792 -0.157166 2650 
2710 1 0.0281331 -0.0072959 0.062881 0.000116 146.988 -12.5404 -65.758 2650 
3167 1 0.00125587 0.000817124 -0.0166502 0.000116 -0.107234 -0.0148233 -0.00447598 2650 
391 1 0.00138031 0.0153148 -0.0166648 0.000116 -0.443271 0.0637084 -0.0182142 2650 
4340 1 0.00116584 0.0349827 -0.0166714 0.000116 -0.330131 -0.055186 -0.0126112 2650 
313 1 0.000472027 0.00634904 -0.0163769 0.000116 -0.32247 -0.0622842 0.012449 2650 
2303 1 0.00382194 0.0190781 -0.0163411 4.2e-05 -0.321699 0.013275 -0.0807577 2650 
1688 1 0.00299227 0.0266646 -0.0161637 0.000423 -0.383416 0.0125828 -0.0947208 2650 
2495 1 0.00495334 0.0282023 -0.0159925 0.000116 -0.275924 -0.0685701 -0.0680572 2650 
2091 1 0.00133557 0.0291746 -0.0161351 0.000656 -0.299491 -0.0284244 -0.0114517 2650 
171 1 0.00278705 0.031053 -0.0165315 0.000116 -0.339632 0.0913118 -0.0843441 2650 
887 1 0.00126815 0.0392879 -0.0161287 0.000656 -0.161976 0.00460694 -0.00678549 2650 
2776 1 0.000543672 0.0497752 -0.016371 0.000423 -0.482806 0.0505562 -0.0200699 2650 
1145 1 0.0026192 0.0499756 -0.016252 0.000423 -0.372471 -0.0383867 -0.101295 2650 
3435 1 0.00533472 0.028846 -0.0155851 0.000423 -0.294476 0.0242408 -0.0727583 2650 
1795 1 0.00463677 0.0520308 -0.0155203 0.000423 0.0337956 0.0385107 0.0279952 2650 
985 1 0.00642593 0.0134434 -0.0139873 4.2e-05 -0.00205729 0.00336942 0.00401153 2650 
1277 1 0.00907637 0.0302077 -0.013854 0.000116 -0.0812883 0.0490925 -0.0594951 2650 
2044 1 0.009257 0.0312905 -0.0140711 0.000116 -0.31105 -0.00273415 -0.163781 2650 
2587 1 0.00904981 0.031592 -0.014178 0.000116 -0.269902 -0.0222935 -0.142173 2650 
1199 1 0.00956911 0.0351649 -0.013882 0.000116 -0.3769 0.0246642 -0.199072 2650 
1276 1 0.00871107 0.0200072 -0.0132417 0.000116 0.0397749 0.00950359 8.15717e-06 2650 
3286 1 0.00781434 0.00981209 -0.0122345 4.2e-05 0.0097844 -0.000884912 -0.0300629 2650 
4012 1 0.0114579 0.0114361 -0.0122157 0.000116 -0.0849438 -0.0344958 -0.0738 2650 
1830 1 0.0125854 0.0201939 -0.0111525 0.000116 -0.200126 -0.035115 -0.268929 2650 
1057 1 0.0126393 0.0144236 -0.0110076 0.000116 -0.197559 0.00705237 -0.265043 2650 
3862 1 0.0115129 0.0389442 -0.0104236 0.000423 0.0185537 0.0709427 0.015724 2650 
978 1 0.0137159 0.02063 -0.00975829 0.000116 -0.160241 0.0140559 -0.32796 2650 
3811 1 0.0135495 0.0498005 -0.00968869 0.000116 -0.225867 -0.0146993 -0.304631 2650 
1167 1 0.00933134 0.0203465 -0.00922444 0.000116 -0.0283063 0.00990797 -0.0571563 2650 
4158 1 0.0144596 0.021353 -0.00880407 4.2e-05 -0.0298172 0.0126051 -0.040437 2650 
517 1 0.00803052 0.024843 -0.00840138 0.000116 0.0296922 0.0181772 -0.02426 2650 
1926 1 0.00102802 0.0430035 -0.00808574 0.000116 -0.0098772 0.042257 0.00489702 2650 
2592 1 0.0146912 0.0456687 -0.00807912 0.000116 -0.191962 0.0421851 -0.443329 2650 
1834 1 0.0015154 0.0256389 -0.0075558 0.000116 0.0139886 0.0209733 0.00916377 2650 
975 1 0.00672575 0.02143 -0.00643196 0.000116 0.00283901 0.0118884 -0.0124969 2650 
2262 1 0.015205 0.0305926 -0.00686377 0.000116 -0.105079 -0.0156986 -0.249439 2650 
2072 1 0.00733354 0.0601649 -0.0069209 0.000116 0.0315809 0.0544487 0.00471093 2650 
2085 1 0.013688 0.0186201 -0.00630742 4.2e-05 -0.0351935 0.00295564 -0.0160554 2650 
2498 1 0.00992585 0.0491621 -0.00608688 0.000116 0.00922053 0.0535007 -0.0255674 2650 
1153 1 0.00828526 0.0254044 -0.00502915 0.000423 0.0069428 0.0163695 -0.00774527 2650 
2068 1 0.0161119 0.0276692 -0.00484587 0.000116 -0.056534 0.00457142 -0.323662 2650 
782 1 0.015583 0.0296968 -0.00469183 0.000656 -0.0383049 -0.0409358 -0.217139 2650 
1643 1 0.00323923 0.0327714 -0.00348083 4.2e-05 -0.00583507 0.0218137 0.017945 2650 
3137 1 0.00965609 0.0347448 -0.00239697 0.000116 -0.0229907 0.0217221 -0.0389989 2650 
2608 1 0.002348 0.000299005 -0.002047 0.000116 0 -0.01175 0 2650 
3100 1 0.0163068 0.0120677 -0.00189927 0.000423 -0.0338329 -0.0260783 -0.183644 2650 
1404 1 0.0166511 0.0332558 -0.00173099 0.000116 -0.0481521 -0.0253134 -0.270244 2650 
2344 1 0.0155446 0.050979 -0.00209984 0.000423 0.00193415 0.0574675 0.0217867 2650 
168 1 0.0143277 0.0615987 -0.00198566 0.000116 0.016941 0.0400184 0.0363869 2650 
2840 1 0.0112445 0.00157131 -0.00141083 0.000116 -0.0127244 -0.0524629 0.0434078 2650 
3235 1 0.0162961 0.0245075 -0.00152781 0.000423 -0.00933116 0.0222695 -0.0500742 2650 
1527 1 0.0167205 0.0216395 -0.000359632 0.000116 0.0104551 0.0195639 -0.270881 2650 
1427 1 0.0127725 0.0445496 -0.000339781 4.2e-05 0.0206857 0.036478 0.00984756 2650 
2985 1 0.0150044 0.0516079 -0.000401055 0.000423 0.026238 0.0452391 0.000136213 2650 
1129 1 0.00167926 0.0127626 0.000381308 0.000423 0.0293724 0.00105661 0.0220941 2650 
3789 1 0.0165478 0.0310688 0.00144421 0.000116 0.00268646 0.0851954 -0.0918557 2650 
749 1 0.0090171 0.0446095 0.00140043 0.000116 0.0317978 0.0216277 -0.0265749 2650 
174 1 0.008677 0.000597005 0.00361 0.000116 0 -0.01175 0 2650 
3688 1 0.0164692 0.00130129 0.00334503 0.000116 0.00357143 0.0508733 -0.124304 2650 
395 1 0.00915446 0.00704071 0.00376401 0.000116 -0.00710234 0.00665662 -0.0276173 2650 
3185 1 0.0130983 0.0522889 0.00318175 0.000656 -0.0229658 0.0401673 0.00208177 2650 
2029 1 0.012364 0.00173705 0.00446033 0.000423 0.0119791 0.00497158 -0.046294 2650 
2369 1 0.000216 0.000488005 0.005092 0.000116 0 -0.01175 0 2650 
308 1 0.0152756 0.0160562 0.0051091 0.000116 0.0144235 -0.0551918 -0.154373 2650 
3895 1 0.00898251 0.0102278 0.00568906 0.000116 -0.00972677 -0.064791 0.0806001 2650 
2180 1 0.0119922 0.0459748 0.00573948 0.000116 0.00291779 0.041578 0.00902864 2650 
277 1 0.0029509 0.0696906 0.00562884 0.000116 0.00273855 0.0626858 0.00700488 2650 
3498 1 0.0149721 0.0210992 0.00753601 0.000116 0.12249 -0.0175128 -0.232833 2650 
2413 1 0.00586038 0.029413 0.00855779 4.2e-05 -0.0223669 0.0262205 0.0171047 2650 
2805 1 0.0145297 0.0332214 0.00843977 0.000116 0.0649793 0.00815434 -0.122438 2650 
1113 1 0.0140254 0.0471843 0.0084746 0.000423 0.138774 0.0131192 -0.258309 2650 
2414 1 0.00113197 0.0577265 0.00793947 4.2e-05 -0.0314882 0.0579851 -0.0239762 2650 
4154 1 0.00296307 0.0291042 0.0093136 4.2e-05 0.0408663 0.0148137 0.0228353 2650 
2170 1 0.00355688 0.000525204 0.00960157 0.000116 -0.0178885 -0.00197673 -0.00946212 2650 
2730 1 0.0131373 0.00367835 0.00999171 0.000116 0.0117475 -0.00784608 0.00490235 2650 
3153 1 0.0113871 0.0213569 0.00990816 0.000116 0.00465087 0.016985 0.0163421 2650 
3658 1 0.0132513 0.0222374 0.0099283 0.000423 0.245698 0.0375009 -0.282145 2650 
1949 1 0.0137242 0.0330106 0.00983242 0.000116 0.271581 0.0076093 -0.312193 2650 
3562 1 0.0134787 0.033526 0.00964035 0.000423 0.322655 0.026792 -0.371201 2650 
3297 1 0.0131982 0.0398902 0.00953248 0.000656 0.23171 0.0141466 -0.266082 2650 
3273 1 0.00815861 0.0127095 0.0105883 0.000116 0.086992 -0.0468866 -0.0689778 2650 
4153 1 0.0115925 0.0168525 0.0102736 0.000116 0.000201898 0.0161091 0.0384215 2650 
1586 1 0.000441726 0.0409396 0.0109667 0.000423 0.319435 0.000761608 0.504266 2650 
2321 1 0.0109947 0.00399219 0.0118393 0.000656 -0.0350752 -0.0279066 0.0502709 2650 
2937 1 0.00794306 0.00931882 0.0116417 0.000116 0.00406306 -0.00868111 -0.0648623 2650 
1401 1 0.00794853 0.0135677 0.0119434 0.000116 0.0099189 0.0725142 -0.0585024 2650 
3928 1 0.0137815 0.0575541 0.012258 0.000116 0.927777 0.040829 0.650452 2650 
2153 1 0.00939876 0.0132328 0.0131648 0.000116 0.0165243 0.00716216 0.00819063 2650 
2299 1 0.0108114 0.0162747 0.0128926 4.2e-05 0.111891 -0.0351029 -0.0836876 2650 
3580 1 0.00957154 0.0170057 0.0126441 0.000116 -0.0205447 0.00220226 -0.013372 2650 
931 1 0.00807899 0.0344291 0.0144626 0.000423 0.343393 -0.000916845 -0.14256 2650 
1097 1 0.00193078 0.0392493 0.0148635 4.2e-05 0.043395 0.0124362 -0.00356089 2650 
522 1 0.0080268 0.0407989 0.0147685 0.000116 0.234301 -0.00623122 -0.202902 2650 
3388 1 0.00219042 0.043971 0.0142786 0.000116 0.00328284 0.0425722 -0.0272589 2650 
1222 1 0.00175181 0.00389102 0.0157564 0.000656 0.0104443 -0.0020847 -0.0233148 2650 
3184 1 0.0056603 0.00833349 0.0150537 0.000656 -0.0907591 0.0119873 0.0418208 2650 
1951 1 0.00684614 0.0448163 0.0152445 0.000116 0.310258 -0.0161902 -0.132131 2650 
268 1 0.00271624 0.0180584 0.0161662 0.000423 0.304682 -0.0182316 -0.054307 2650 
2621 1 0.00397416 0.0337452 0.0162532 0.000116 0.490006 0.0395775 -0.0871246 2650 
2288 1 0.00254066 0.0559251 0.016224 0.000116 -0.111774 0.00258292 0.0219602 2650 
1061 1 0.000500749 0.0221881 0.0167469 0.000116 0.532907 -0.0989586 0.0209359 2650 
3468 1 0.0578304 0.0557235 0.0374273 0.000116 0.181649 -0.108956 -0.280637 2650 
419 1 0.0569959 0.0559217 0.0386862 0.000116 0.138971 -0.110317 -0.204717 2650 
1775 1 0.0617626 0.136661 -0.0299169 0.000423 -82.8234 8.66835 -170.952 2650 
839 1 0.00178525 0.103441 -0.00181346 0.000116 -0.00669255 0.0948313 0.0106808 2650 
2415 1 0.0127829 0.0929146 -0.000493986 4.2e-05 0.0331768 0.0748442 -0.0245968 2650 
4351 1 0.0136376 0.094229 0.000510282 0.000116 0.0418698 0.135569 -0.051035 2650 
2149 1 0.00517314 0.113614 0.00047594 0.000116 -0.0157243 0.0908037 -0.00522656 2650 
1576 1 0.000706813 0.100313 0.00133735 0.000423 0.0324542 0.0941641 0.00528668 2650 
1629 1 0.00162488 0.114948 0.00935044 0.000116 0.0142641 0.0890487 0.0265382 2650 
