ITEM: TIMESTEP
3703694
ITEM: NUMBER OF ATOMS
4105
ITEM: BOX BOUNDS ff ff ff
-0.15 0.15
-0.15 0.15
-0.15 0.15
ITEM: ATOMS id type x y z radius vx vy vz density 
1716 1 -0.00520276 -0.0207308 -0.0686869 0.000116 -2.6365 -1.88733 0.203798 2650 
399 1 -0.00707279 -0.0505902 -0.0685199 0.000116 -17.8763 -2.8706 1.84523 2650 
38 1 -0.008308 -0.047219 -0.068072 0.000423 -28.7602 0.161303 3.50997 2650 
3339 1 -0.000937817 -0.0277509 -0.0685706 0.000423 -24.4002 -3.06668 0.33245 2650 
8 1 -0.00780031 -0.0254895 -0.0679089 0.000656 -53.6444 -3.17762 6.15918 2650 
2998 1 -0.00533877 -0.00743908 -0.0683695 0.000423 -35.8444 -4.40677 2.79886 2650 
3265 1 -0.0101356 -0.00659154 -0.0681342 0.000116 -16.4672 -0.18396 2.44966 2650 
4075 1 -0.0118207 -0.0589377 -0.0675506 0.000423 -21.2558 -3.48275 3.71955 2650 
1380 1 -0.014275 -0.0542703 -0.0671892 0.000116 -29.7772 -3.00168 8.5773 2650 
2634 1 -0.0145035 -0.0406103 -0.0674151 4.2e-05 -21.0049 -13.3653 4.46614 2650 
4019 1 -0.00704138 -0.0207299 -0.0677532 0.000116 31.7628 -1.0719 -7.93494 2650 
4331 1 -0.0145038 -0.00492495 -0.0673363 0.000116 -2.75627 0.141115 0.589666 2650 
991 1 -0.0141277 -0.0327386 -0.0668731 0.000656 -38.5129 -6.38041 8.13283 2650 
327 1 -0.018412 -0.0091781 -0.0664545 4.2e-05 -0.101886 -0.220922 0.0258884 2650 
1022 1 -0.0128693 -0.00618462 -0.0670491 0.000423 -0.765886 -0.157506 -3.56318 2650 
2716 1 -0.00970785 -0.00922679 -0.0657477 0.000116 -0.574101 -0.302752 -2.45209 2650 
200 1 -0.0231795 -0.0623636 -0.0647618 0.000116 -25.4579 5.37652 8.9293 2650 
4320 1 -0.0213865 -0.0285921 -0.0651577 0.000423 -32.0977 -5.75444 10.5336 2650 
1136 1 -0.0227591 -0.0227485 -0.0646908 0.000423 -28.928 5.59173 10.176 2650 
3001 1 -0.0213167 -0.0119211 -0.06518 0.000423 -0.117154 -0.380195 -0.177125 2650 
1312 1 -0.0198341 -0.00526715 -0.0647876 4.2e-05 8.64288 11.2926 -1.65037 2650 
4308 1 -0.0235712 -0.00170738 -0.0643984 0.000423 -9.22893 1.15615 3.37559 2650 
4342 1 -0.0267723 -0.0576564 -0.0634685 0.000116 -8.72534 -4.80428 3.68052 2650 
633 1 -0.00222658 -0.0371607 -0.0644617 0.000116 -85.3088 5.77994 -46.721 2650 
2920 1 -0.0283465 -0.0252622 -0.0627817 0.000116 -64.7125 2.15424 29.2161 2650 
2314 1 -0.0255627 -0.00998353 -0.063203 0.000656 -14.5345 0.193804 6.51329 2650 
3266 1 -0.0264243 -0.000196768 -0.0636142 0.000116 -31.8893 4.41911 13.2463 2650 
3441 1 -0.0266266 -0.0107697 -0.0629394 0.000423 -14.6722 -3.43571 7.78399 2650 
2779 1 -0.0270679 -0.00106652 -0.0630093 0.000423 -7.8466 -0.637827 3.42099 2650 
161 1 -0.0292957 -0.0357108 -0.0620057 0.000423 -28.8211 -3.90018 13.6144 2650 
2527 1 -0.0308627 -0.016106 -0.0616661 4.2e-05 -26.4408 -1.09718 13.2334 2650 
3660 1 -0.0290509 -0.0128316 -0.0621195 0.000423 -0.287585 -0.337221 0.139082 2650 
3303 1 -0.0158912 -0.0081193 -0.0622197 0.000656 0.0104643 -0.289223 0.360195 2650 
2257 1 -0.0337658 -0.0426 -0.0600401 0.000116 -91.3317 -14.6592 51.0818 2650 
1619 1 -0.0301026 -0.0112357 -0.0613985 0.000116 -7.59178 -4.59821 3.18045 2650 
4319 1 -0.0333126 -0.0283785 -0.0599472 0.000423 -39.675 -11.4517 22.0404 2650 
3391 1 -0.0342699 -0.0152819 -0.0598396 4.2e-05 8.67849 0.978201 -4.97057 2650 
2811 1 -0.00777601 -0.00610804 -0.0595495 0.000116 -1.2159 -0.208292 -9.30541 2650 
1591 1 -0.0018885 -0.000968882 -0.0582365 0.000423 94.1219 -1.19676 65.582 2650 
4150 1 -0.00543819 -0.00530232 -0.0579099 0.000116 -0.830614 -0.184259 -8.89147 2650 
2201 1 -0.00386673 -0.00881018 -0.0574723 0.000656 -5.56981 -0.248403 -2.38046 2650 
3622 1 -0.0379268 -0.00364659 -0.0568538 0.000656 -11.0672 3.23687 7.37886 2650 
335 1 -0.0392437 -0.00826366 -0.055956 0.000656 -15.2643 -3.93246 10.7181 2650 
1071 1 -0.0304091 -0.0548266 -0.0554409 0.000116 -16.5751 3.16024 3.56195 2650 
868 1 -0.0407696 -0.0507116 -0.0555227 0.000116 -20.3096 -19.8705 14.9048 2650 
2827 1 -0.000661711 -0.00602263 -0.0560976 0.000116 -0.0932444 -0.221148 -8.6778 2650 
406 1 -0.0375975 -0.00266512 -0.0544348 0.000116 18.8413 -5.36343 2.48738 2650 
2179 1 -0.0428106 -0.0614359 -0.0539655 0.000116 -27.397 -16.3225 21.7321 2650 
1903 1 -0.0180027 -0.0471986 -0.0539258 0.000423 7.66331 -7.89742 -9.39663 2650 
3840 1 -0.0426925 -0.0206824 -0.0532629 0.000656 -36.4172 -8.81824 29.023 2650 
977 1 -0.0445133 -0.0347869 -0.0525646 0.000116 2.38231 -4.88561 -1.27439 2650 
1060 1 -0.0450656 -0.0298461 -0.0520975 0.000116 -29.0331 -1.31312 25.1116 2650 
4325 1 -0.0449308 -0.0273872 -0.0518192 0.000423 -42.3827 -9.92752 36.7374 2650 
3701 1 -0.0440187 -0.0350162 -0.0518078 0.000116 -7.0062 -3.96501 6.32719 2650 
187 1 -0.0395665 -0.0158975 -0.0503119 0.000116 -19.8587 -4.75274 9.25564 2650 
2293 1 -0.0477251 -0.0501621 -0.0488479 0.000116 -3.38046 5.93376 6.13319 2650 
816 1 -0.0452032 -0.0206368 -0.0466325 0.000423 -17.0598 -2.54063 8.10645 2650 
676 1 -0.0395042 -0.00203319 -0.0471688 0.000423 -8.70677 -0.931191 0.469748 2650 
1242 1 -0.0438025 -0.0359562 -0.0456071 0.000423 -8.59896 -7.89454 14.2421 2650 
2796 1 -0.0513757 -0.0541962 -0.0454279 0.000423 -6.77186 0.712102 7.65486 2650 
2806 1 -0.0493079 -0.0377932 -0.0451456 0.000116 -10.0931 5.32368 1.75717 2650 
3556 1 -0.0514909 -0.0263653 -0.0453001 0.000423 -17.0821 -1.53941 19.4172 2650 
1544 1 -0.0518536 -0.0239676 -0.0445441 0.000656 -27.8284 1.00055 32.3946 2650 
3601 1 -0.0531783 -0.0611226 -0.0437873 0.000116 -45.4866 -3.88733 55.2366 2650 
476 1 -0.052388 -0.0268517 -0.0442609 0.000423 -18.6606 -6.27457 22.0713 2650 
4262 1 -0.0525737 -0.024049 -0.0442834 0.000116 -30.6185 15.7224 33.0665 2650 
758 1 -0.0485893 -0.0179723 -0.0446527 0.000116 -4.76723 4.18799 6.11039 2650 
250 1 -0.0537292 -0.0116018 -0.0426192 0.000423 -0.328754 -0.21378 0.414255 2650 
3875 1 -0.0554064 -0.0505197 -0.0404234 0.000423 -24.0202 1.92718 32.9121 2650 
4084 1 -0.0559735 -0.0494891 -0.0396493 0.000423 -46.401 6.40837 65.4868 2650 
2891 1 -0.0253286 -0.0245197 -0.0396181 0.000423 -4.50055 -2.6968 -4.20409 2650 
838 1 -0.0558096 -0.0167977 -0.0401552 0.000116 -19.5158 -4.09354 4.44188 2650 
1587 1 -0.0576202 -0.0450971 -0.0372036 0.000423 -26.2472 5.6767 40.6379 2650 
3093 1 -0.0138086 -0.00542994 -0.0382575 0.000423 -2.10522 -0.208383 -5.77847 2650 
1314 1 -0.0576541 -0.0517601 -0.0378321 4.2e-05 1.59537 0.666956 -2.43115 2650 
1020 1 -0.0497185 -0.0368855 -0.0363131 0.000423 -83.4997 5.81363 47.1398 2650 
2954 1 -0.053373 -0.0287956 -0.0376286 0.000116 -2.22253 -8.06218 10.8148 2650 
454 1 -0.0580283 -0.0166308 -0.0365565 0.000423 -12.6858 -10.0927 20.1294 2650 
817 1 -0.0586631 -0.00285565 -0.0355302 0.000423 -14.0938 3.4028 23.2608 2650 
859 1 -0.0593863 -0.0192171 -0.0339081 0.000116 -24.1002 5.25726 41.0894 2650 
2048 1 -0.060569 -0.00647424 -0.0328132 0.000116 -29.5667 -4.08604 54.571 2650 
1877 1 -0.0598918 -0.054472 -0.0329649 0.000656 -23.2129 -17.4336 42.1527 2650 
1275 1 -0.0618135 -0.0366768 -0.0303856 0.000116 0.732713 -4.98663 -0.569826 2650 
1193 1 -0.00540846 -0.00759788 -0.0274176 0.000116 -0.985166 -0.573341 -3.90027 2650 
3043 1 -0.0635745 -0.0441073 -0.0262941 0.000116 -9.23048 -12.2033 23.2889 2650 
1451 1 -0.000953994 -0.00963948 -0.0265058 0.000423 -0.247469 -0.807561 -3.77573 2650 
3425 1 -0.0354415 -0.0250176 -0.0260975 0.000423 -21.0996 -4.85226 -19.3432 2650 
3131 1 -0.00819132 -0.013073 -0.0239594 0.000116 -1.43773 -1.02464 -3.48593 2650 
3947 1 -0.0611969 -0.00561057 -0.0241066 0.000656 0.692432 -0.131168 0.434386 2650 
4023 1 -0.064688 -0.0471057 -0.0232074 0.000116 -1.30041 5.14529 2.17207 2650 
509 1 -0.06501 -0.0474683 -0.0226212 0.000116 -13.176 -12.1116 13.7728 2650 
637 1 -0.0188847 -0.0141273 -0.0194307 0.000116 67.9761 -106.318 149.67 2650 
708 1 -0.00169557 -0.00402584 -0.0215844 0.000423 -0.196204 -0.122792 -2.76934 2650 
1379 1 -0.035095 -0.0224401 -0.02077 0.000116 1.89173 -2.72071 4.16589 2650 
4332 1 -0.0578474 -0.01169 -0.0207605 0.000116 -8.74137 -0.68408 -3.13873 2650 
1600 1 -0.0138335 -0.00896595 -0.0211519 0.000116 -2.1506 -0.362515 -3.2946 2650 
2246 1 -0.0301332 -0.00619544 -0.0208818 0.000423 -4.34217 -0.324202 -3.05329 2650 
3724 1 -0.0637913 -0.0456492 -0.0191902 4.2e-05 -11.5331 -4.90071 30.2042 2650 
3863 1 -0.0578523 -0.0615011 -0.0171894 0.000423 -46.8498 1.55913 90.7366 2650 
3649 1 -0.0658542 -0.0466247 -0.0191606 0.000423 -3.56323 7.75914 12.242 2650 
1383 1 -0.0621293 -0.0554608 -0.0172158 0.000116 -1.38463 11.7666 18.7947 2650 
2245 1 -0.0481244 -0.053807 -0.0174785 0.000423 36.1431 -31.4478 18.5326 2650 
93 1 -0.000272313 -0.00343687 -0.0168926 0.000116 0.116122 -0.105748 -0.554322 2650 
2833 1 -0.0668557 -0.0142743 -0.0160255 0.000116 -2.2552 -4.15832 9.44953 2650 
4116 1 -0.004072 -0.001683 -0.016193 0.000116 0 -0.01175 0 2650 
1374 1 -0.00254866 -0.00145198 -0.0158843 0.000423 -0.0149316 -0.0605925 -0.0170681 2650 
856 1 -0.00052842 -0.00153494 -0.016236 0.000116 0.0196724 -0.0332999 0.0274892 2650 
4038 1 -0.001501 -0.00199 -0.015239 0.000116 0 -0.01175 0 2650 
2965 1 -2.2e-05 -0.001702 -0.015341 4.2e-05 0 -0.01175 0 2650 
4056 1 -0.00509544 -0.00150499 -0.0152831 0.000656 -0.0401386 0.0141788 -0.0155676 2650 
3191 1 -0.00337168 -0.000439086 -0.0155975 0.000656 0.00841088 0.00507895 0.0123814 2650 
3156 1 -0.000805 -0.000143996 -0.015242 0.000116 0 -0.01175 0 2650 
2813 1 -0.00238655 -0.00385654 -0.0147522 0.000116 -0.271888 -0.478978 -0.619208 2650 
450 1 -0.00610515 -0.0029878 -0.0143381 0.000656 0.0124326 -0.0044032 0.0306684 2650 
2072 1 -0.00767629 -0.000984652 -0.0146204 0.000116 0.454781 0.310827 -0.0589872 2650 
2313 1 -0.00632402 -0.001149 -0.0148697 0.000656 -0.0481588 -0.0116345 0.0246274 2650 
3733 1 -0.00144785 -0.00117852 -0.0144598 0.000656 0.0319646 0.00113633 0.0177532 2650 
1640 1 -0.000807941 -0.00157581 -0.0142333 4.2e-05 0.0296823 -0.0120638 0.0141238 2650 
2413 1 -0.0031604 -0.000204162 -0.0149333 4.2e-05 0.0162992 0.0246331 0.011247 2650 
1452 1 -0.00377731 -0.00354022 -0.0137646 0.000423 -0.31874 -0.0769615 -1.16896 2650 
2939 1 -0.008405 -0.002857 -0.013483 0.000116 0 -0.01175 0 2650 
1799 1 -0.00528439 -0.0016643 -0.0140668 0.000423 -0.0236212 -0.046732 0.0249885 2650 
2291 1 -0.00399512 -0.00209833 -0.0137167 0.000116 -0.121731 0.0407687 0.103229 2650 
1393 1 -0.00873592 -0.00119675 -0.0141752 0.000116 0.0254575 0.0238361 -0.00859988 2650 
4126 1 -0.001667 -0.001445 -0.013741 0.000116 0 -0.01175 0 2650 
3778 1 -0.00287507 -0.000249833 -0.014119 0.000423 0.0263938 0.0383004 0.0233964 2650 
674 1 -0.00194171 -0.000160685 -0.0139186 0.000423 0.0322583 0.0212566 0.0498811 2650 
4371 1 -0.00118391 -0.000515966 -0.0139977 0.000116 0.0740559 -0.184736 -0.0833194 2650 
2256 1 -0.0512075 -0.00964302 -0.0132518 0.000116 8.43244 -11.8074 -5.68965 2650 
3261 1 -0.00233552 -0.00245819 -0.0127988 0.000116 0.0535204 -0.0713561 0.0235245 2650 
3551 1 -0.00729651 -0.000554495 -0.0133348 0.000423 -0.0463965 -0.0338689 -0.00510582 2650 
4139 1 -0.00344362 -0.000556657 -0.0133697 0.000116 -0.0460364 -0.0223448 0.0553675 2650 
2783 1 -0.00137319 -0.000429236 -0.0133484 0.000423 0.0469874 0.0096446 0.0379904 2650 
2327 1 -0.0676194 -0.0508946 -0.0114813 0.000423 -4.89926 5.13995 28.8455 2650 
1012 1 -0.00583839 -0.00367818 -0.0122851 0.000423 -0.715583 -0.0793147 -1.46843 2650 
545 1 -0.002328 -0.001831 -0.012432 4.2e-05 0 -0.01175 0 2650 
2468 1 -0.003167 -0.001458 -0.012131 0.000423 0 -0.01175 0 2650 
1763 1 -0.001143 -0.00117 -0.012442 0.000656 0 -0.01175 0 2650 
3643 1 -0.00431707 -0.000127369 -0.0121909 0.000423 -4.65212e-05 -0.0118482 2.36567e-05 2650 
1774 1 -0.00165264 -0.000239218 -0.0118952 0.000423 -0.0594491 -0.000689304 -0.0549281 2650 
3679 1 -0.012092 -0.00312 -0.011604 0.000116 0 -0.01175 0 2650 
2166 1 -0.009005 -0.001752 -0.011549 0.000116 0 -0.01175 0 2650 
3505 1 -0.006952 -0.002162 -0.011235 4.2e-05 0 -0.01175 0 2650 
4336 1 -0.00638232 -0.00203591 -0.0113433 0.000116 -0.0570255 -0.157659 -0.0881321 2650 
440 1 -0.00061 -0.000859996 -0.011485 4.2e-05 0 -0.01175 0 2650 
3633 1 -0.0105129 -0.000531923 -0.0112048 0.000423 -0.02568 0.0551034 0.060384 2650 
2798 1 -0.000192799 -0.00492498 -0.0107527 0.000423 0.513171 -0.578307 -0.695127 2650 
27 1 -0.0677858 -0.00407401 -0.0104433 0.000423 -1.65912 -1.2476 10.7651 2650 
3426 1 -0.00109591 -0.0031943 -0.0105752 0.000423 0.00503504 -0.064109 0.00172688 2650 
3603 1 -0.004768 -0.002558 -0.010424 0.000116 0 -0.01175 0 2650 
4373 1 -0.004239 -0.002896 -0.010869 4.2e-05 0 -0.01175 0 2650 
15 1 -0.00169503 -0.00261988 -0.0107798 0.000423 0.0218265 -0.0519245 -0.0799923 2650 
2130 1 -0.000451568 -0.00262152 -0.0104979 0.000423 0.00707236 -0.0574791 0.00326238 2650 
2848 1 -0.010456 -0.001861 -0.010698 4.2e-05 0 -0.01175 0 2650 
950 1 -0.0069897 -0.00128011 -0.0106897 0.000116 0.0244257 -0.0244832 0.0109092 2650 
3530 1 -0.00242805 -0.00150291 -0.010828 0.000423 -0.222165 0.0185891 -0.0403922 2650 
388 1 -0.008271 -0.000356996 -0.010879 0.000116 0 -0.01175 0 2650 
3456 1 -0.00148168 -0.000505385 -0.0102952 0.000423 -0.0445749 -0.0412112 -0.0112648 2650 
4217 1 -0.0679871 -0.0100616 -0.00905825 0.000423 -4.41936 -0.815251 33.1608 2650 
3933 1 -0.006596 -0.003195 -0.009623 0.000116 0 -0.01175 0 2650 
417 1 -0.004944 -0.001829 -0.009884 0.000116 0 -0.01175 0 2650 
939 1 -0.001916 -0.002139 -0.009682 0.000116 0 -0.01175 0 2650 
1630 1 -0.00227 -0.002074 -0.00958 0.000116 0 -0.01175 0 2650 
4220 1 -0.00169426 -0.00218514 -0.00962688 0.000116 -0.0951954 -0.0788597 -0.0423572 2650 
430 1 -0.0137225 -0.000380612 -0.00950548 4.2e-05 -0.0267324 -0.0382527 -0.0520892 2650 
1750 1 -0.0110846 -0.000214374 -0.0100535 4.2e-05 0.00587206 -0.0138433 0.00173817 2650 
3252 1 -0.0685403 -0.0170969 -0.00671114 0.000116 -10.7268 23.6193 99.6532 2650 
121 1 -0.0131974 -0.00245975 -0.00880199 0.000656 0.0914776 0.0314592 0.0188683 2650 
394 1 -0.00834661 -0.00261646 -0.00913347 0.000116 0.128134 -0.117103 0.269095 2650 
756 1 -0.007322 -0.00293 -0.009147 0.000116 0 -0.01175 0 2650 
2932 1 -0.00997903 -0.00209384 -0.00899631 0.000116 -0.215383 -0.173586 0.301865 2650 
3393 1 -0.006109 -0.00167 -0.008736 4.2e-05 0 -0.01175 0 2650 
159 1 -0.005821 -0.001058 -0.009096 0.000423 0 -0.01175 0 2650 
1185 1 -0.0138498 -0.000558857 -0.00920652 0.000116 0.0383683 0.0261014 -0.0213157 2650 
387 1 -0.0186291 -0.00753169 -0.00817965 0.000116 -1.81896 -0.924902 -1.56481 2650 
3673 1 -0.00307137 -0.003876 -0.00833508 0.000423 -0.0771548 -0.29228 -0.223197 2650 
1169 1 -0.007648 -0.002619 -0.008568 0.000116 0 -0.01175 0 2650 
1009 1 -0.00410025 -0.00256226 -0.00797511 0.000423 -0.0720563 -0.0714588 0.0420492 2650 
3347 1 -0.0106264 -0.00162606 -0.00811332 0.000423 0.102888 -0.135781 -0.0333323 2650 
932 1 -0.0118894 -0.000877139 -0.00824315 0.000423 0.117966 -0.253794 0.131594 2650 
3450 1 -0.0113776 -0.00148541 -0.00854388 0.000423 0.0396753 -0.26701 -0.0359944 2650 
3283 1 -0.006893 -0.001214 -0.007981 4.2e-05 0 -0.01175 0 2650 
3482 1 -0.002928 -0.000737996 -0.008025 0.000116 0 -0.01175 0 2650 
786 1 -0.00181698 -0.000249915 -0.00823986 0.000423 -0.0230941 -0.0174095 0.0105478 2650 
235 1 -0.0682304 -0.0622081 -0.00699829 0.000423 -3.67416 -2.86087 35.806 2650 
1230 1 -0.068284 -0.0600032 -0.00644954 0.000423 -3.11939 -9.76281 33.0178 2650 
3189 1 -0.0679831 -0.0286884 -0.00718488 0.000656 -3.04206 2.41484 28.7687 2650 
312 1 -0.0684936 -0.0143696 -0.00734486 0.000116 0.00456197 -0.424102 -0.0425375 2650 
3694 1 -0.0191919 -0.00428113 -0.0077021 0.000116 -2.29317 -0.175068 -0.919539 2650 
3174 1 -0.00741918 -0.00343737 -0.00750752 4.2e-05 -0.481663 -0.0573338 -0.579002 2650 
115 1 -0.014199 -0.0025246 -0.00737709 0.000656 0.0549463 0.0297641 0.0125662 2650 
1690 1 -0.00523237 -0.00274689 -0.00741684 0.000423 -0.0990521 -0.198448 0.266543 2650 
3256 1 -0.001226 -0.002712 -0.007466 0.000116 0 -0.01175 0 2650 
4124 1 -0.014939 -0.000625344 -0.00751807 0.000116 -0.00189487 -0.0517193 -0.191512 2650 
2908 1 -0.0020682 -0.000422321 -0.0071873 0.000423 0.0431801 -0.0281711 -0.0374076 2650 
2282 1 -0.0065693 -0.00977119 -0.00672377 0.000116 -0.937368 -0.645021 -0.783714 2650 
1748 1 -0.0154024 -0.00612322 -0.00648627 0.000116 -1.7862 -0.563785 -0.416581 2650 
2714 1 -0.0139232 -0.00358067 -0.00697843 0.000116 -0.786275 -0.124877 -0.462013 2650 
3815 1 -0.004619 -0.00291 -0.007068 0.000116 0 -0.01175 0 2650 
2545 1 -0.0147981 -0.000998545 -0.00670517 0.000423 0.0262547 -0.1079 -0.00659911 2650 
848 1 -0.004556 -0.000826996 -0.006748 0.000116 0 -0.01175 0 2650 
1180 1 -0.00125185 -0.000933258 -0.00686905 0.000116 -0.119416 -0.207157 -0.0119118 2650 
4192 1 -0.0149814 -0.000141879 -0.00666893 0.000423 0.0197203 -0.0676235 -0.0636427 2650 
3376 1 -0.008969 -0.000663996 -0.006983 0.000116 0 -0.01175 0 2650 
3422 1 -0.0683046 -0.0558145 -0.00496228 0.000423 -7.4108 -10.127 39.1487 2650 
3097 1 -0.0192762 -0.00483833 -0.00577432 0.000423 -1.7386 -0.373689 -0.488175 2650 
4229 1 -0.012102 -0.003223 -0.005607 0.000116 0 -0.01175 0 2650 
1805 1 -0.014222 -0.00313941 -0.00598816 0.000423 -0.108475 -0.109808 -0.0568722 2650 
1738 1 -0.0057635 -0.00195782 -0.0062087 0.000116 0.323716 -0.375837 -1.23059 2650 
3783 1 -0.00434 -0.002168 -0.005911 0.000423 0 -0.01175 0 2650 
4182 1 -0.0128428 -0.000689745 -0.00592214 0.000423 0.000107307 -0.0117653 -0.000514271 2650 
2102 1 -0.0682321 -0.0482058 -0.00425973 0.000656 -2.41369 7.74332 38.3404 2650 
646 1 -0.0686944 -0.0098824 -0.00492035 0.000116 -1.62027 11.2764 18.6915 2650 
3626 1 -0.0157777 -0.00411186 -0.00538898 0.000656 -2.12042 -0.125864 -0.74522 2650 
1596 1 -0.00969595 -0.00297305 -0.00477808 0.000116 0.0660078 -0.0584884 0.0119712 2650 
4306 1 -0.0154158 -0.00162697 -0.00496052 0.000423 0.0433878 0.00485347 -0.0918543 2650 
4031 1 -0.00596436 -0.00164172 -0.00510304 0.000116 -0.606808 -0.232897 0.128438 2650 
711 1 -0.00437867 -0.00233869 -0.0050367 0.000423 0.000661899 -0.0122712 -0.000258495 2650 
2001 1 -0.00247676 -0.00109385 -0.00523771 0.000423 -0.0499902 -0.0264098 0.0437481 2650 
2112 1 -0.00108814 -0.00114512 -0.00519834 0.000423 -0.0280311 -0.00590654 -0.0294829 2650 
3747 1 -0.000160451 -0.000108618 -0.00481813 0.000423 0.00298996 -0.0193621 0.0113666 2650 
3337 1 -0.0127648 -0.00393698 -0.00463109 0.000423 -1.5929 -0.368955 -0.525088 2650 
80 1 -0.0154379 -0.00274645 -0.00411023 0.000116 -0.0377961 0.0281585 0.0317473 2650 
465 1 -0.0120445 -0.00279772 -0.00467959 0.000423 -0.108176 0.140526 -0.18739 2650 
2361 1 -0.0126841 -0.00229709 -0.00436108 0.000423 -0.155264 0.0697585 -0.0038327 2650 
71 1 -0.00907881 -0.00180323 -0.00431242 0.000116 -0.0236879 -0.0459075 -0.0807603 2650 
4178 1 -0.003324 -0.002128 -0.004376 0.000423 0 -0.01175 0 2650 
203 1 -0.002373 -0.001727 -0.004593 0.000116 0 -0.01175 0 2650 
123 1 -0.0152624 -0.000294391 -0.00456052 0.000423 -0.0851191 0.0259138 0.0589368 2650 
2879 1 -0.0144644 -0.000596411 -0.00441526 0.000423 0.0127227 -0.0656544 -0.320359 2650 
889 1 -0.0117421 -0.000232153 -0.00403659 0.000656 0.200316 0.0913023 -0.0977737 2650 
2694 1 -0.0105562 -4.31048e-05 -0.00473358 0.000116 -0.0363702 -0.0703375 -0.0905791 2650 
1735 1 -0.0125358 -0.00163875 -0.0032843 0.000116 -0.0300294 -0.0195102 0.146301 2650 
2588 1 -0.0648644 -0.000956747 -0.00290743 0.000116 -9.5034 0.0323033 41.3644 2650 
3309 1 -0.0143375 -0.00111176 -0.00351044 0.000423 0.0310416 -0.150006 -0.318643 2650 
2414 1 -0.008032 -0.000926996 -0.003754 4.2e-05 0 -0.01175 0 2650 
1787 1 -0.0157547 -0.000716142 -0.00359394 0.000423 0.0152029 -0.0102868 -0.000510385 2650 
1739 1 -0.0153692 -0.000329583 -0.00315905 0.000116 0.0186186 -0.0658298 -0.0331857 2650 
2173 1 -0.0135474 -0.000230432 -0.00331998 0.000116 -0.040762 -0.0335819 -0.0325108 2650 
471 1 -0.0685337 -0.0297653 -0.00267463 0.000423 -0.41431 1.07677 10.6121 2650 
2254 1 -0.0121171 -0.00332423 -0.0024317 0.000423 -0.108933 -0.075113 0.0173946 2650 
980 1 -0.006322 -0.00286 -0.002426 4.2e-05 0 -0.01175 0 2650 
3055 1 -0.00683059 -0.00264403 -0.00267593 0.000116 -0.00887469 -0.00281412 -0.0121358 2650 
1944 1 -0.004594 -0.002472 -0.002792 0.000116 0 -0.01175 0 2650 
2105 1 -0.00166158 -0.00292238 -0.00254071 0.000423 -0.281967 -0.395891 -0.100174 2650 
1558 1 -0.00420344 -0.00138799 -0.00249425 0.000423 0.0288976 -0.021419 -0.024913 2650 
122 1 -0.0683408 -0.0538879 -0.00164713 0.000656 -0.575572 4.36211 23.8674 2650 
3974 1 -0.0685789 -0.00538612 -0.00106353 0.000423 -0.403216 -0.881174 25.9905 2650 
3759 1 -0.0685573 -0.00357585 -0.00194456 0.000423 -0.0828037 -1.79394 3.54373 2650 
1336 1 -0.00475978 -0.00321212 -0.00159633 0.000423 -0.00750558 -0.0225118 -0.00055634 2650 
1218 1 -0.00219455 -0.00329111 -0.00167425 0.000656 -0.0317494 -0.0491856 0.0342273 2650 
3358 1 -0.0152755 -0.00271528 -0.00228615 0.000116 0.047245 -0.0662688 -0.161354 2650 
3882 1 -0.005144 -0.0029081 -0.00233118 0.000423 9.71191e-06 -0.0120305 -0.000505734 2650 
431 1 -0.00517793 -0.00303582 -0.00173551 4.2e-05 -0.0393329 -0.901292 0.480474 2650 
1072 1 -0.003652 -0.002672 -0.001792 0.000116 0 -0.01175 0 2650 
2874 1 -0.0125482 -0.00184343 -0.00222893 0.000423 -0.0630338 -0.0255104 0.0629352 2650 
2380 1 -0.0117965 -0.00170789 -0.00206043 0.000116 0.00986606 -0.0103137 0.0180803 2650 
3349 1 -0.00917247 -0.00182451 -0.00159745 0.000116 0.00224869 -0.0220272 -0.030741 2650 
518 1 -0.005505 -0.001998 -0.002272 0.000116 0 -0.01175 0 2650 
3034 1 -0.00382183 -0.00180226 -0.00192261 0.000116 -0.0149284 -0.0695914 -0.0126953 2650 
1746 1 -0.0124301 -0.00112558 -0.00230144 0.000116 -0.00133976 0.00421565 0.0225599 2650 
1649 1 -0.00447833 -0.00113435 -0.00194918 4.2e-05 0.0329946 0.048039 0.0165839 2650 
2330 1 -0.0158181 -0.00359166 -0.00133396 0.000423 -0.539281 -0.193024 -0.151068 2650 
1123 1 -0.0119423 -0.00314086 -0.00093669 0.000423 -0.00187357 -0.040543 -0.00872358 2650 
3292 1 -0.00555807 -0.00305741 -0.000884906 4.2e-05 0.0254253 -0.0730008 -0.0158642 2650 
3287 1 -0.0166436 -0.00179739 -0.00121829 4.2e-05 -0.00978173 -0.37223 0.142128 2650 
2666 1 -0.0129958 -0.00220768 -0.00127968 0.000423 -0.0672225 -0.0335369 -0.016287 2650 
4041 1 -0.0100444 -0.00233334 -0.00130342 0.000116 -0.112024 0.00566711 -0.100538 2650 
1609 1 -0.00457 -0.002109 -0.000974 0.000116 0 -0.01175 0 2650 
803 1 -0.0134115 -0.00114354 -0.00141955 0.000423 -0.0447823 -0.0518985 -0.00641543 2650 
2933 1 -0.00232561 -0.000541036 -0.001411 0.000116 0.0362333 0.00920352 0.0498824 2650 
42 1 -0.060381 -0.00562747 -0.000175197 0.000423 -9.25523 -0.211562 -0.0276543 2650 
1273 1 -0.00791903 -0.00531724 -0.00030746 0.000116 0.548318 -0.815422 -0.413367 2650 
4201 1 -0.0097788 -0.00332659 -0.000408877 0.000423 -0.138727 -0.0496848 -0.0262805 2650 
1402 1 -0.0126297 -0.00238144 -0.000288096 0.000116 -0.0332191 -0.0599024 0.0173114 2650 
542 1 -0.0110874 -0.00284977 -0.000446023 4.2e-05 0.0664644 -0.0350046 0.0889419 2650 
1683 1 -0.00465016 -0.00251791 -0.000281945 0.000423 -0.0455929 0.028032 -0.178407 2650 
1267 1 -0.003657 -0.001774 -0.000707 0.000116 0 -0.01175 0 2650 
2275 1 -0.0160916 -0.000442196 -0.000776809 0.000116 0.00268597 -0.00370364 0.0265696 2650 
3134 1 -0.0154301 -0.000409752 -6.14534e-05 0.000116 0.0390975 0.0123369 0.0146986 2650 
1122 1 -0.068322 -0.0208231 0.000756951 0.000423 172.652 -183.977 10.2277 2650 
1570 1 -0.0354478 -0.00547041 0.000729006 0.000423 -5.25555 -0.226573 0.108235 2650 
892 1 -0.0151225 -0.00299138 0.00049305 0.000656 -0.0237441 -0.209848 -0.0293287 2650 
3993 1 -0.00768271 -0.00264199 4.67153e-06 0.000423 0.00278175 -0.0128882 -0.00324342 2650 
1768 1 -0.000355259 -0.00281342 0.000635709 0.000656 0.0362618 -0.0609398 0.0151162 2650 
3561 1 -0.0115247 -0.000988544 0.000434321 0.000423 -0.0777349 0.000757707 0.010074 2650 
1529 1 -0.007601 -0.00134 0.000457 4.2e-05 0 -0.01175 0 2650 
1826 1 -0.0664878 -0.00641439 0.000817606 0.000116 -0.578442 -0.206869 0.0445218 2650 
1825 1 -0.010078 -0.002175 0.000971 0.000116 0 -0.01175 0 2650 
283 1 -0.010842 -0.001125 0.00093 0.000116 0 -0.01175 0 2650 
3782 1 -0.000431441 -1.12423e-05 0.00137355 0.000423 -0.0317586 -0.0644783 0.0724966 2650 
4164 1 -0.00139938 -0.00463489 0.00217217 4.2e-05 -0.242408 -0.230279 0.11051 2650 
2709 1 -0.011471 -0.003217 0.001928 0.000116 0 -0.01175 0 2650 
2118 1 -0.000890328 -0.00327172 0.00197255 0.000423 0.0104401 -0.0412271 0.0303016 2650 
2905 1 -0.0154874 -0.00309409 0.00175875 0.000423 -0.0332489 -0.081456 0.0823006 2650 
2308 1 -0.011723 -0.003093 0.00182 4.2e-05 0 -0.01175 0 2650 
2336 1 -0.00711176 -0.00303645 0.00216644 0.000423 -0.0645906 -0.0485564 0.0423883 2650 
3275 1 -0.00470162 -0.0030493 0.00203148 0.000116 -0.000965655 -0.0581582 0.00845109 2650 
1613 1 -0.008946 -0.002289 0.001748 0.000116 0 -0.01175 0 2650 
99 1 -0.00196953 -0.00178494 0.00165617 0.000116 -0.0261328 -0.126672 -0.0397309 2650 
647 1 -0.0105736 -0.000835371 0.00167568 0.000116 -0.0435164 -0.00271053 0.0345083 2650 
2667 1 -0.0154433 -0.000123164 0.00236313 0.000423 0.0398145 0.00816347 0.0310927 2650 
390 1 -0.009836 -0.000456996 0.002228 0.000116 0 -0.01175 0 2650 
631 1 -0.006928 -0.000535996 0.001793 0.000116 0 -0.01175 0 2650 
578 1 -0.0685223 -0.0589295 0.00296211 0.000423 0.757667 3.70644 17.5199 2650 
3543 1 -0.011796 -0.00316315 0.00294386 0.000423 -0.0338057 -0.164717 -0.0801167 2650 
1490 1 -0.00272493 -0.00277163 0.0029315 0.000116 0.144145 -0.0239696 0.392287 2650 
1734 1 -0.016002 -0.002067 0.002665 0.000116 0 -0.01175 0 2650 
3566 1 -0.0111901 -0.00183083 0.00293804 0.000116 0.109604 0.0470877 -0.102101 2650 
2349 1 -0.00133663 -0.00160463 0.00303101 0.000423 0.0184092 -0.0157644 0.0174298 2650 
3232 1 -0.0158864 -0.00127046 0.00287747 0.000423 0.00977382 -0.0157743 -0.00338986 2650 
199 1 -0.0121983 -0.00103638 0.00311049 0.000116 -0.0771818 0.00544547 0.0535701 2650 
4265 1 -0.0025438 -0.0010738 0.00315085 4.2e-05 -0.00771367 -0.0756719 0.0330038 2650 
1857 1 -0.000503019 -0.000800438 0.00248738 0.000116 0.0267959 -0.0507522 -0.0021134 2650 
3350 1 -0.0162618 -0.000169553 0.00277036 0.000116 -0.0153093 0.000533641 -0.00339193 2650 
2711 1 -0.0084027 -0.00075905 0.00289476 0.000116 -0.0299632 0.00107739 0.0323023 2650 
1454 1 -0.00117517 -0.000763766 0.00278 0.000423 -0.00138431 -0.0317066 0.0753042 2650 
3040 1 -0.0654912 -0.0313485 0.00383375 0.000116 1.44222 9.72183 13.8441 2650 
1257 1 -0.0165588 -0.00374498 0.00320644 0.000423 -0.460415 -0.228625 0.147927 2650 
4196 1 -0.0148102 -0.00335118 0.00348891 0.000423 -0.325366 -0.0676631 0.085755 2650 
3242 1 -0.001269 -0.003177 0.003631 0.000116 0 -0.01175 0 2650 
2355 1 -0.0158116 -0.00269349 0.00382808 0.000423 -0.00641029 -0.0203421 0.0158851 2650 
4251 1 -0.015077 -0.00302 0.00391 0.000116 0 -0.01175 0 2650 
1474 1 -0.015085 -0.00240401 0.00347875 0.000423 -0.00847453 -0.0220925 0.0062799 2650 
1881 1 -0.0139684 -0.00250378 0.00374254 0.000656 -0.0448903 -0.0494267 0.0451425 2650 
1323 1 -0.00692805 -0.00238513 0.00375412 0.000656 -0.272634 0.0530341 0.070031 2650 
2765 1 -0.00193518 -0.0026114 0.00376121 0.000423 0.0165352 -0.0740252 0.0199192 2650 
2038 1 -0.0013691 -0.00261684 0.00382915 0.000116 0.0295675 -0.0408397 0.0157179 2650 
1791 1 -0.0159604 -0.0018425 0.00394605 0.000423 0.00071117 -0.0192139 0.0100433 2650 
1377 1 -0.007523 -0.00197 0.003255 0.000116 0 -0.01175 0 2650 
1104 1 -0.00303678 -0.00190935 0.00339567 0.000656 0.000288503 -0.0280424 0.032588 2650 
802 1 -0.00200487 -0.00161564 0.00386136 0.000423 0.0329517 -0.0537683 0.0197501 2650 
7 1 -0.0153478 -0.000848153 0.00372211 0.000656 -0.0039197 -0.0251577 0.0142868 2650 
799 1 -0.0161819 -9.79492e-05 0.00340677 0.000423 0.00126645 -0.0101911 0.0112883 2650 
1047 1 -0.008296 -0.000730996 0.003622 0.000116 0 -0.01175 0 2650 
3169 1 -0.00209992 -0.0006146 0.00341678 0.000116 -0.00399722 -0.020649 0.00922926 2650 
1003 1 -0.0116871 -0.00296243 0.00442159 0.000423 0.0536772 -0.275601 0.171639 2650 
914 1 -0.0030437 -0.00269504 0.00450938 0.000423 0.00802731 -0.0362301 0.0451485 2650 
2203 1 -0.0149958 -0.00204285 0.00450904 0.000656 0.00198323 -0.0283529 0.00940521 2650 
2462 1 -0.0107036 -0.00184989 0.0040348 0.000423 0.094251 -0.0259824 0.0261253 2650 
1050 1 -0.00755456 -0.00188308 0.00404791 0.000116 -0.270992 0.131334 0.0879398 2650 
956 1 -0.007659 -0.002305 0.004073 0.000116 0 -0.01175 0 2650 
381 1 -0.00328407 -0.00162655 0.00458091 0.000423 -0.0123887 -0.0216984 0.0443771 2650 
2298 1 -0.016045 -0.00131023 0.00395624 0.000116 -0.00601055 -0.0349901 0.0128237 2650 
293 1 -0.007685 -0.001153 0.00423 0.000116 0 -0.01175 0 2650 
3697 1 -0.011498 -0.000318996 0.004561 0.000116 0 -0.01175 0 2650 
680 1 -0.010644 -0.000423996 0.004039 0.000423 0 -0.01175 0 2650 
2423 1 -0.0075985 -5.78204e-05 0.00433915 0.000656 0.00137964 -0.14877 0.0645002 2650 
2996 1 -0.0041103 -0.000774804 0.00409309 0.000423 0.00721082 0.00796767 -0.169242 2650 
4309 1 -0.065104 -0.0577901 0.00626357 0.000423 6.63703 -26.4893 53.4768 2650 
3073 1 -0.0642485 -0.0347842 0.00481285 4.2e-05 -0.481689 0.505543 -3.00474 2650 
2708 1 -0.0687193 -0.0133754 0.00479346 0.000116 -0.00272747 -0.419124 -0.0390971 2650 
2225 1 -0.0676116 -0.00828738 0.00515068 0.000423 2.09044 6.08109 7.49877 2650 
2515 1 -0.01605 -0.00288974 0.00484506 0.000116 0.0104244 -0.0278789 0.0106013 2650 
2768 1 -0.0154894 -0.00284286 0.00506286 0.000423 -0.00409892 -0.0229416 0.0157905 2650 
3000 1 -0.0129272 -0.00270898 0.00475764 0.000423 -0.108121 -0.127992 0.124112 2650 
1792 1 -0.0140054 -0.00166573 0.00476939 0.000423 -0.0116161 0.00260496 0.0500584 2650 
209 1 -0.01062 -0.002276 0.004959 0.000116 0 -0.01175 0 2650 
2405 1 -0.015589 -0.0012072 0.00537527 0.000116 0.0183406 0.0176991 0.00300337 2650 
2751 1 -0.0135095 -0.000507097 0.00541517 0.000656 0.0359612 -0.0306058 0.0199313 2650 
607 1 -0.0127352 -5.89187e-05 0.00530504 0.000116 0.0460456 -0.00796763 0.0375566 2650 
3581 1 -0.0124124 -0.000490504 0.00529754 0.000116 0.0480521 -0.0222941 0.00684134 2650 
4243 1 -0.00560437 -0.000712828 0.00512436 0.000116 -0.0119464 -0.0254951 0.00746731 2650 
3893 1 -0.00519231 -0.000612303 0.00530901 0.000116 0.0163453 -0.0315814 0.0360657 2650 
2367 1 -0.0495004 -0.0154159 0.00611905 0.000116 8.86693 -10.3245 2.93601 2650 