ITEM: TIMESTEP
32407403
ITEM: NUMBER OF ATOMS
298
ITEM: BOX BOUNDS ff ff ff
-0.15 0.15
-0.15 0.15
-0.15 0.15
ITEM: ATOMS id type x y z radius vx vy vz density 
58 1 -0.00385564 -0.00999059 -0.068776 0.000116 -0.110335 -0.259975 0.00590223 2650 
4369 1 -0.0134957 -0.0510901 -0.0675519 0.000116 -147.613 30.4844 29.4882 2650 
898 1 -0.0266698 -0.0598368 -0.0631934 0.000423 -80.3397 -20.1176 33.8971 2650 
2373 1 -0.0606109 -0.0598317 -0.032741 0.000116 -71.1099 14.0274 131.63 2650 
2775 1 -0.0200171 -0.0608901 -0.0218384 0.000423 -4.56428 0.43487 4.17498 2650 
3762 1 -0.0252775 -0.0543772 -0.0144259 0.000423 -2.49906 5.01554e-06 4.34143 2650 
1974 1 -0.0021 -0.0022895 -0.01365 4.2e-05 0 -0.01175 0 2650 
4115 1 -0.00965668 -0.000536027 -0.0134523 0.000116 -0.101549 0.00608419 0.0536253 2650 
4002 1 -0.000443 -0.0016665 -0.01223 0.000116 0 -0.01175 0 2650 
1332 1 -0.026437 -0.0541444 -0.0112511 0.000656 -1.91909 3.86934e-06 4.59064 2650 
2596 1 -0.001219 -0.0024525 -0.011432 0.000116 0 -0.01175 0 2650 
2786 1 -0.0084863 -0.00258759 -0.0038202 0.000423 0.0197018 -0.00401588 0.0160231 2650 
2439 1 -0.0295677 -0.0588165 0.000288573 0.000423 0.103818 0.000385446 6.7316 2650 
4130 1 -0.003058 -0.0019735 0.001127 0.000116 0 -0.01175 0 2650 
3489 1 -0.00306 -0.000165498 0.001129 0.000116 0 -0.01175 0 2650 
1233 1 -0.0293578 -0.0587981 0.00357745 0.000423 0.759567 0.31363 6.41087 2650 
3907 1 -0.0162586 -0.00119391 0.00381622 0.000116 0.0974282 -0.0379836 0.517587 2650 
3141 1 -0.0139208 -0.0178223 0.00422947 0.000116 -0.0961384 -5.69171 0.840859 2650 
2046 1 -0.001426 -0.0017935 0.004025 0.000116 0 -0.01175 0 2650 
2079 1 -0.000281 -0.000373498 0.005134 4.2e-05 0 -0.01175 0 2650 
407 1 -0.01541 -0.0028808 0.00639906 0.000116 0.0473878 0.00103392 0.109317 2650 
2739 1 -0.005531 -0.0018185 0.009169 4.2e-05 0 -0.01175 0 2650 
2689 1 -0.010322 -0.00222578 0.0128038 0.000423 0.0340344 -0.0164833 0.0138678 2650 
2725 1 -0.00369237 -0.0029043 0.0153985 0.000116 -0.0590892 -0.0090066 0.0109262 2650 
1372 1 -0.0240476 -0.0543772 0.0163885 0.000423 2.81291 -8.05164e-07 4.15717 2650 
1375 1 -0.00590124 -0.0559326 0.0289932 0.000423 6.39814 0.390262 1.32019 2650 
1059 1 -0.0551018 -0.0360142 0.0413506 0.000116 143.27 32.4699 190.902 2650 
474 1 -0.0565712 -0.0487257 0.03881 0.000423 -67.3479 8.84442 -98.1456 2650 
3729 1 -0.0501607 -0.0618709 0.0464827 0.000656 78.0414 13.0604 85.0563 2650 
344 1 -0.0290174 -0.0113644 0.0621353 0.000423 -0.0310923 -0.301886 -0.0145202 2650 
2710 1 -0.00980595 -0.0336517 0.0681826 0.000116 69.5071 7.69898 9.99611 2650 
224 1 -0.0245543 0.0623283 -0.0638838 0.000656 -159.436 -0.600125 59.4297 2650 
3237 1 -0.00855613 0.0743404 -0.0299366 0.000423 -0.842216 0.636939 -4.35903 2650 
979 1 -0.00195135 0.0229807 -0.0166462 0.000116 -0.0468697 0.00524659 0.0109527 2650 
1061 1 -0.00335325 0.0300376 -0.0163688 0.000116 -0.571432 -0.0328443 0.100512 2650 
3223 1 -0.0035642 0.0375634 -0.0159549 0.000423 -0.124059 0.0198397 0.0226216 2650 
1586 1 -0.0037973 0.0391387 -0.0160756 0.000423 -0.109214 0.0621164 0.0114265 2650 
375 1 -0.00393894 0.0306142 -0.0157226 0.000423 -0.183611 -0.0535596 0.0438787 2650 
3512 1 -0.00549779 0.0337293 -0.015288 0.000656 -0.299357 0.0398643 0.124317 2650 
1859 1 -0.00364285 0.00617305 -0.0145307 4.2e-05 0.0192774 0.00105788 -0.0136974 2650 
1715 1 -0.00898622 0.0219323 -0.0142113 0.000116 -0.270998 -0.0597505 0.201541 2650 
2396 1 -0.00273467 0.0429325 -0.0147947 0.000116 -0.0246375 0.0355593 0.023977 2650 
751 1 -0.00835337 0.00234755 -0.0137927 0.000116 -0.045016 -0.00159948 0.028934 2650 
1617 1 -0.0074405 0.00951649 -0.0135045 0.000116 0.0152632 0.00950611 -0.00429697 2650 
4109 1 -0.0062931 0.0126106 -0.0134431 0.000423 0.0262577 0.0137974 -0.00380425 2650 
2621 1 -0.00971917 0.0258459 -0.0136762 0.000116 -0.431053 0.108716 0.320124 2650 
3738 1 -0.00840189 0.0260968 -0.0139875 0.000656 -0.28264 0.0184168 0.20987 2650 
3373 1 -0.00151393 0.000869191 -0.0130111 0.000116 -0.0173229 -0.00214691 0.0103305 2650 
2200 1 -0.0108329 0.016142 -0.0128768 4.2e-05 -0.250353 0.0119092 0.186566 2650 
1152 1 -0.00861854 0.0207909 -0.0127029 0.000423 -0.0558749 0.0215878 0.00839582 2650 
1566 1 -0.00742534 0.0207303 -0.0115055 0.000423 0.00765391 -0.00358638 0.0302802 2650 
958 1 -0.000334665 0.0244043 -0.0117235 0.000116 -0.00586431 0.033519 -0.00573458 2650 
4354 1 -0.0122461 0.0546097 -0.0112486 0.000116 -0.164261 0.154121 0.190608 2650 
2260 1 -0.008542 8.55021e-05 -0.010892 0.000116 0 -0.01175 0 2650 
3741 1 -0.00794289 0.016445 -0.0104849 0.000423 0.0405447 -0.0486065 0.0160906 2650 
1695 1 -0.0101248 0.0240223 -0.0107212 0.000423 0.0133272 0.0173293 -0.00289347 2650 
3289 1 -0.00798545 0.0380014 -0.0104403 4.2e-05 -0.0230588 0.0278502 0.0350353 2650 
3713 1 -0.0122801 0.0504927 -0.0107218 0.000116 0.019386 0.0235719 0.0208219 2650 
2175 1 -0.013023 0.0363643 -0.010095 0.000116 -0.0159695 0.0112744 0.0316932 2650 
1308 1 -0.0131808 0.0526015 -0.0102462 0.000116 -0.216028 0.0723053 0.248497 2650 
444 1 -0.0123601 0.0136033 -0.00900876 0.000656 0.00276329 0.0169294 0.0180429 2650 
4341 1 -0.0141933 0.0431444 -0.00889338 0.000116 -0.151857 -0.0651428 0.179003 2650 
2161 1 -0.00634108 0.0357221 -0.00853324 0.000116 0.0259242 0.0272669 0.0222447 2650 
1622 1 -0.0106607 0.0496149 -0.00843012 0.000116 0.0252356 0.0472165 -0.00030571 2650 
4269 1 -0.007152 0.0143376 -0.00714319 4.2e-05 -0.0127414 0.0022567 -0.00467821 2650 
3181 1 -0.0100833 0.0285418 -0.00650294 4.2e-05 -0.0195086 0.0250272 0.021755 2650 
409 1 -0.000321095 0.00324548 -0.00571895 0.000116 -0.0302843 -0.00110969 0.00466816 2650 
2502 1 -0.0134778 0.0353127 -0.00590032 0.000116 0.0150784 0.0191854 -0.001372 2650 
3411 1 -0.013661 0.0366865 -0.00581222 0.000656 -0.0687243 0.0394374 0.0125128 2650 
3315 1 -0.00390518 0.000518434 -0.00473918 0.000423 0.0398515 -0.00125266 0.0157009 2650 
2301 1 -0.0091681 0.0199363 -0.00546447 4.2e-05 -0.00799594 0.0291052 0.0177741 2650 
3457 1 -0.0158856 0.0225151 -0.00536901 0.000116 -0.0722751 0.0178589 0.290936 2650 
2995 1 -0.00486733 0.0405837 -0.00481451 0.000423 0.0363573 0.0459431 0.00902559 2650 
2026 1 -0.0127533 0.000785998 -0.00469432 0.000423 -0.020203 -0.000568634 0.0555342 2650 
532 1 -0.00581207 0.0211646 -0.00428785 0.000116 -0.0223881 0.0170804 0.0130382 2650 
3562 1 -0.0158661 0.0269584 -0.0041971 0.000423 -0.127075 0.0982189 0.51448 2650 
2088 1 -0.005764 0.000420502 -0.003809 4.2e-05 0 -0.01175 0 2650 
3374 1 -0.00301628 0.0138762 -0.00343306 0.000116 -0.0349143 0.00715666 -0.0163407 2650 
1325 1 -0.0149771 0.046779 -0.00344457 0.000656 0.0293551 0.0548053 0.032583 2650 
1726 1 -0.0151195 0.00489251 -0.00251427 0.000116 -0.015933 -0.00616495 0.00459885 2650 
3595 1 -0.0165994 0.0179018 -0.0024702 0.000116 -0.0706609 -0.00924737 0.281803 2650 
1390 1 -0.0110146 0.0220696 -0.00310273 0.000116 -0.0153914 0.00874678 0.00330151 2650 
1129 1 -0.000964246 0.0126675 -0.00160715 0.000423 0.0293724 0.00105661 0.0220941 2650 
962 1 -0.00335156 0.0136753 -0.00174815 0.000116 0.00474377 0.0040355 -0.00292126 2650 
124 1 -0.0161618 0.0325184 -0.00183007 0.000423 -0.0233794 0.0372849 -0.0494945 2650 
278 1 -0.00971654 0.0699834 -0.00224492 0.000116 0.00833688 0.0608785 -0.0403859 2650 
173 1 -0.0167168 0.00750465 -0.000913218 0.000116 -0.0599388 -0.0677631 0.0990771 2650 
1386 1 -0.00130938 0.0183743 -0.00157346 0.000116 -0.0530338 0.0110074 -0.00383818 2650 
1506 1 -0.00855975 0.057864 -0.0012035 0.000116 0.0336775 0.0455991 -0.00236406 2650 
931 1 -0.0164164 0.0350045 -2.17758e-05 0.000423 -0.0157227 -0.011498 0.393281 2650 
1422 1 -0.0150286 0.0367387 -0.000535856 4.2e-05 -0.0400093 0.0397869 -0.0368818 2650 
948 1 -0.016658 0.0524764 -0.000617059 0.000116 -0.0169902 0.106863 0.421295 2650 
2695 1 -0.0101059 0.0676058 -0.000237834 0.000116 -0.0263821 0.0783745 -8.18607e-05 2650 
1300 1 -0.00918 0.0012945 0.000458 0.000116 0 -0.01175 0 2650 
103 1 -0.00284375 0.0105343 0.000423705 4.2e-05 0.00246061 0.00547487 0.0454821 2650 
268 1 -0.0164315 0.0218606 0.000121294 0.000423 -0.0130746 -0.0619797 0.325121 2650 
1977 1 -0.00267469 0.0353728 0.000747731 4.2e-05 -0.00580185 0.0289425 -0.0283867 2650 
461 1 -0.00594228 0.0398943 0.00112813 0.000423 -0.0166778 0.0419868 -0.0151366 2650 
1827 1 -0.0108628 0.00150904 0.00208761 0.000116 0.0103409 -0.00799916 0.0195353 2650 
4294 1 -0.00622249 0.0290444 0.00223105 0.000423 0.0335852 0.0265495 -0.0147015 2650 
217 1 -0.00309011 0.0286251 0.00228384 4.2e-05 0.00790517 0.0195538 0.0360586 2650 
2668 1 -0.014892 0.0344774 0.00163975 0.000423 0.0210052 0.028517 0.0263336 2650 
1951 1 -0.0165461 0.0431589 0.00224231 0.000116 0.0646633 0.0516762 0.34857 2650 
3071 1 -0.0165014 0.00223393 0.00290115 4.2e-05 0.0369098 -0.00637896 0.194624 2650 
4054 1 -0.00894051 0.0222507 0.00263367 4.2e-05 -0.00302514 0.021236 0.0124005 2650 
2368 1 -0.0118642 0.0667937 0.00346109 0.000116 -0.0339034 0.0560219 -0.00471386 2650 
4378 1 -0.011039 0.000583502 0.0043 4.2e-05 0 -0.01175 0 2650 
2478 1 -0.00341604 0.00565584 0.00466033 0.000116 0.0277766 0.00564647 -0.0095855 2650 
3685 1 -0.0130857 0.010341 0.00465344 0.000116 -0.00267194 0.0114911 0.0372331 2650 
2409 1 -0.0072346 0.0165394 0.00460278 4.2e-05 -0.00502615 0.0138941 0.0301536 2650 
1649 1 -0.00351339 0.0178872 0.00425517 4.2e-05 -0.0206843 0.021445 -0.0188351 2650 
1949 1 -0.0162599 0.0319293 0.0039751 0.000116 0.0764312 0.0140751 0.43466 2650 
1415 1 -0.0158686 0.00675022 0.00541495 0.000116 0.140197 -0.18891 0.323928 2650 
940 1 -0.0127942 0.0227097 0.00543148 0.000116 0.0293703 0.0142824 0.0271522 2650 
522 1 -0.0160698 0.0421199 0.00481155 0.000116 0.155787 -0.018953 0.306799 2650 
4224 1 -0.0157403 0.0406555 0.00572647 0.000116 0.0399245 -0.0170299 0.0948368 2650 
3658 1 -0.0151555 0.0199164 0.0064468 0.000423 0.151927 0.00688661 0.366648 2650 
4154 1 -0.000714886 0.027771 0.00725843 4.2e-05 0.0408663 0.0148137 0.0228353 2650 
878 1 -0.0146554 0.00148948 0.00827651 4.2e-05 0.0568317 0.0166336 0.130006 2650 
3698 1 -0.0144553 0.00445711 0.00848611 0.000116 0.0452557 0.00269105 0.0610797 2650 
1093 1 -0.0074914 0.0109396 0.00794117 4.2e-05 0.0231837 0.00819928 0.00623872 2650 
3130 1 -0.00229245 0.0160853 0.00813224 0.000116 0.0165992 0.0129037 0.0347226 2650 
1773 1 -0.0129952 0.0326744 0.00853486 0.000423 0.0694437 0.0785906 0.0985797 2650 
3297 1 -0.014221 0.0411708 0.00793856 0.000656 0.14558 -0.0472029 0.344835 2650 
4364 1 -0.000597567 0.0114695 0.0090845 0.000116 -0.0374241 0.00896947 0.0374386 2650 
1301 1 -0.00101001 0.040401 0.00926095 0.000116 -0.00647945 0.108282 -0.0353601 2650 
1317 1 -0.00888386 0.0136457 0.0102298 4.2e-05 0.0232171 0.0048696 -0.00194067 2650 
2075 1 -0.00841552 0.0409081 0.0101134 0.000116 0.0619775 0.127695 0.0651104 2650 
3159 1 -0.012902 0.00678215 0.0105859 0.000116 0.00880628 0.00212481 -0.0109947 2650 
3240 1 -0.00380425 0.00764718 0.010299 0.000116 0.0122325 0.00657003 0.00489617 2650 
4261 1 -0.00341937 0.0321417 0.0124464 0.000116 -0.0345366 0.0166687 0.00310104 2650 
2403 1 -0.00143582 0.0329615 0.0129958 0.000116 -0.0260271 0.0142728 -0.0103244 2650 
1113 1 -0.00952988 0.0469985 0.0134167 0.000423 0.232688 -0.0111963 0.202648 2650 
2359 1 -0.00534738 0.0725291 0.0132162 0.000423 0.0191969 0.0592642 0.0525679 2650 
1450 1 -0.00202366 0.000163197 0.0140228 0.000423 0.0390996 -0.00834336 0.00964805 2650 
1290 1 -0.00463536 0.0249149 0.0135628 0.000116 -0.000139434 0.0231722 -0.013174 2650 
964 1 -0.00881287 0.0376616 0.013457 0.000116 0.0490331 0.0166479 -0.0211884 2650 
2592 1 -0.00966743 0.037943 0.0138061 0.000116 0.457291 0.107801 0.241982 2650 
1097 1 -0.00197476 0.0381301 0.015184 4.2e-05 0.043395 0.0124362 -0.00356089 2650 
1753 1 -0.00638877 0.0575765 0.0155312 4.2e-05 0.0430103 0.0497349 0.0154749 2650 
1401 1 -0.00385638 0.00792504 0.0162422 0.000116 0.299556 0.0383801 0.0804923 2650 
3498 1 -0.00545467 0.0242106 0.0158692 0.000116 0.264941 -0.0480083 0.0654898 2650 
3468 1 -0.00422896 0.0543279 0.0161441 0.000116 0.284006 0.0644954 0.07821 2650 
2299 1 -0.000916741 0.0194051 0.0167589 4.2e-05 0.142298 -0.0337164 0.00563045 2650 
1413 1 -0.0659573 0.0599663 0.0198726 0.000116 -0.0262285 -0.109044 -0.0870429 2650 
1844 1 -0.0518844 0.0421988 0.0453165 0.000116 98.0927 -23.7142 112.301 2650 
1775 1 -0.0337662 0.132366 -0.0597406 0.000423 -166.123 7.58411 93.8761 2650 
3796 1 -0.00672998 0.1134 -0.00970624 0.000116 -0.00314921 0.122414 -0.0287317 2650 
867 1 -0.00677617 0.089633 -0.008033 0.000116 -0.0215344 0.108752 0.00686425 2650 
1576 1 -0.00221405 0.0918384 0.000861549 0.000423 0.0324542 0.0941641 0.00528668 2650 
128 1 0.0187839 -0.110095 0.0659913 0.000423 156.507 0.387892 -44.4321 2650 
189 1 0.00437513 -0.00643082 -0.0687449 0.000116 0.0275298 -0.156313 0.0011601 2650 
1165 1 0.0083465 -0.00551443 -0.0677023 0.000116 -1.44662 -2.13175 -0.755431 2650 
858 1 0.0513727 -0.0354671 -0.0458973 0.000116 -118.557 -4.31651 -132.691 2650 
1338 1 0.0255666 -0.0598868 -0.0151744 0.000423 -3.22756 0.428169 -5.56823 2650 
865 1 0.0668718 -0.0482728 -0.0165463 0.000116 -30.0021 -2.06108 -121.244 2650 
3132 1 0.0672648 -0.0111271 -0.0148575 0.000116 0.0114038 -0.311124 0.0516231 2650 
1070 1 0.011905 -0.0024999 -0.0105382 0.000116 -0.0431411 -0.0413265 -0.0384077 2650 
1209 1 0.005723 -0.0031185 -0.009061 4.2e-05 0 -0.01175 0 2650 
537 1 0.0150123 -0.000917612 -0.00728193 0.000116 -0.0399279 0.000792833 -0.0913265 2650 
1850 1 0.00457161 -0.0018238 -0.00599515 0.000116 0.000223581 -0.0111736 -0.000504864 2650 
2156 1 0.003663 -0.0021475 -0.005046 0.000116 0 -0.01175 0 2650 
2984 1 0.00401461 -0.000290544 -0.00278088 0.000423 -0.0196306 -0.00775232 -0.0271217 2650 
768 1 0.00831508 -0.000224331 -4.44053e-05 4.2e-05 -0.00612284 -0.0041527 0.000417042 2650 
2955 1 0.00656614 -0.000809004 0.0068863 4.2e-05 -0.0398967 -0.00121856 0.00971244 2650 
3739 1 0.0115005 -0.00304644 0.00731598 0.000656 0.0253492 -0.0384689 -0.0590453 2650 
2176 1 0.0686098 -0.0579622 0.00626298 0.000116 27.2002 -7.81282 -297.956 2650 
1399 1 0.0066359 -0.00110578 0.0119157 0.000116 0.0120787 -0.00855077 -0.00240679 2650 
3688 1 0.0106197 -0.00218696 0.0128978 0.000116 0.0647799 -0.0155328 -0.0476078 2650 
2856 1 0.003345 -0.0017995 0.013491 4.2e-05 0 -0.01175 0 2650 
1289 1 0.00728737 -0.00174716 0.0149524 0.000116 0.337716 -0.0646 -0.149797 2650 
3425 1 0.0246199 -0.0587083 0.0167159 0.000423 3.96128 0.234237 -5.75438 2650 
2121 1 0.0227832 -0.0586701 0.0191344 0.000423 3.79377 0.637953 -4.48899 2650 
2466 1 0.0180079 -0.0593072 0.0236863 0.000423 5.3875 -0.0219899 -4.13494 2650 
598 1 0.032307 -0.0219469 0.0509489 0.000423 127.505 -48.7714 17.365 2650 
3247 1 0.0203728 -0.0400003 0.0576147 0.000116 -17.7435 -8.38903 10.745 2650 
3278 1 8.91282e-06 0.0153274 -0.0166836 0.000116 -0.153114 0.0364721 0.0119286 2650 
3758 1 0.00365139 0.00837795 -0.0159702 0.000423 -0.173358 -0.0304291 -0.0455079 2650 
829 1 0.00466878 0.0237376 -0.0160005 0.000116 -0.28837 0.0395327 -0.0701912 2650 
3989 1 0.00412781 0.0342175 -0.0155202 0.000423 -0.172748 0.122716 0.00392206 2650 
3843 1 0.00515524 0.0411202 -0.015353 0.000656 -0.411549 -0.0112058 -0.106513 2650 
1795 1 2.18888e-05 0.0485998 -0.0150173 0.000423 0.0558068 0.0380215 -0.0142922 2650 
985 1 0.00661108 0.0131402 -0.0143484 4.2e-05 -0.00205729 0.00336942 0.00401153 2650 
3363 1 0.00808526 0.0365863 -0.0146548 0.000116 -0.14905 0.0114271 -0.0790377 2650 
881 1 0.00845719 0.0217475 -0.0138858 0.000656 -0.163027 0.0336348 -0.0860834 2650 
566 1 0.00941647 0.0329423 -0.0136339 0.000423 -0.310799 -0.00523432 -0.164327 2650 
3167 1 0.0102153 0.00259182 -0.0132136 0.000116 -0.0828204 -0.0250472 -0.0720257 2650 
1276 1 0.00513135 0.0191519 -0.0132424 0.000116 0.0397749 0.00950359 8.15717e-06 2650 
4266 1 0.0115926 0.0205493 -0.0122443 4.2e-05 -0.159308 -0.0642383 -0.13752 2650 
3862 1 0.00984302 0.0325594 -0.0118387 0.000423 0.0185537 0.0709427 0.015724 2650 
3286 1 0.00693375 0.00989173 -0.00952887 4.2e-05 0.0097844 -0.000884912 -0.0300629 2650 
2109 1 0.0137665 0.0128417 -0.00877488 0.000423 -0.134717 0.00320203 -0.266888 2650 
887 1 0.0135415 0.0382865 -0.00890668 0.000656 -0.0995503 0.0163947 -0.133203 2650 
1834 1 0.000256429 0.0237513 -0.00838054 0.000116 0.0139886 0.0209733 0.00916377 2650 
1926 1 0.00191696 0.0392004 -0.00852647 0.000116 -0.0098772 0.042257 0.00489702 2650 
3696 1 0.014461 0.0489947 -0.0084659 0.000116 -0.234214 -0.057963 -0.316262 2650 
2072 1 0.00449127 0.0552645 -0.00734488 0.000116 0.0315809 0.0544487 0.00471093 2650 
1277 1 0.0149289 0.0255008 -0.00686767 0.000116 -0.0492735 0.0554059 -0.0951928 2650 
1366 1 0.0149746 0.0520692 -0.00659968 0.000423 -0.153356 -0.0478268 -0.35066 2650 
517 1 0.00535823 0.023207 -0.00621799 0.000116 0.0296922 0.0181772 -0.02426 2650 
2840 1 0.0123897 0.00629296 -0.00531752 0.000116 -0.0127244 -0.0524629 0.0434078 2650 
3931 1 0.00168937 0.00697789 -0.00532488 0.000116 -0.0219574 0.00911183 0.0286579 2650 
975 1 0.00647024 0.02036 -0.00530724 0.000116 0.00283901 0.0118884 -0.0124969 2650 
1643 1 0.00376438 0.0308082 -0.00509588 4.2e-05 -0.00583507 0.0218137 0.017945 2650 
168 1 0.012803 0.057997 -0.00526047 0.000116 0.016941 0.0400184 0.0363869 2650 
2085 1 0.0150878 0.0183163 -0.00399368 4.2e-05 0.0443695 0.00465676 -0.055159 2650 
1167 1 0.0118789 0.0194548 -0.00408038 0.000116 -0.0283063 0.00990797 -0.0571563 2650 
4158 1 0.0162735 0.0203268 -0.00463767 4.2e-05 -0.0194995 0.0113216 -0.0466906 2650 
1153 1 0.00766041 0.0239312 -0.00433208 0.000423 0.0069428 0.0163695 -0.00774527 2650 
2344 1 0.0153705 0.0458069 -0.00406063 0.000423 0.00193415 0.0574675 0.0217867 2650 
1867 1 0.0163104 0.00349928 -0.0038424 4.2e-05 -0.0782607 -0.037019 -0.410537 2650 
4012 1 0.0163471 0.0150503 -0.00346477 0.000116 -0.0203848 -0.0450052 -0.11267 2650 
2498 1 0.00909601 0.044347 -0.00378582 0.000116 0.00922053 0.0535007 -0.0255674 2650 
1822 1 0.0508994 0.0626264 -0.00287439 0.000116 -1.64051 0.0352341 -26.6512 2650 
324 1 0.005994 0.000622502 -0.00159 4.2e-05 0 -0.01175 0 2650 
2608 1 0.002348 0.0013565 -0.002047 0.000116 0 -0.01175 0 2650 
3895 1 0.00985791 0.016059 -0.00156492 0.000116 -0.00972677 -0.064791 0.0806001 2650 
704 1 0.0164489 0.0402533 -0.000850967 0.000423 0.0174541 0.000554424 -0.416745 2650 
1427 1 0.0109108 0.0412665 -0.00122606 4.2e-05 0.0206857 0.036478 0.00984756 2650 
2985 1 0.012643 0.0475364 -0.000413314 0.000423 0.026238 0.0452391 0.000136213 2650 
3488 1 0.0167021 0.0238239 0.000697562 0.000116 0.0139689 -0.0792349 -0.356584 2650 
3914 1 0.004203 0.000568502 0.000929 0.000116 0 -0.01175 0 2650 
3137 1 0.0117252 0.0327898 0.00111292 0.000116 -0.0229907 0.0217221 -0.0389989 2650 
3235 1 0.0160024 0.0223408 0.00301671 0.000423 0.0100355 0.0250449 -0.0506133 2650 
3185 1 0.0151652 0.0486739 0.00299439 0.000656 -0.0229658 0.0401673 0.00208177 2650 
3825 1 0.00427048 0.000145462 0.00380765 0.000116 -0.0335956 -0.00790126 0.0174373 2650 
174 1 0.008677 0.0016545 0.00361 0.000116 0 -0.01175 0 2650 
2091 1 0.0158263 0.0302694 0.00339644 0.000656 0.0759712 0.00687829 -0.305891 2650 
2252 1 0.0159422 0.032437 0.00385811 0.000423 0.0866327 -0.00545558 -0.34928 2650 
1969 1 0.0163967 0.0354749 0.00359304 4.2e-05 0.113281 0.0733067 -0.451368 2650 
749 1 0.0061553 0.042663 0.00379216 0.000116 0.0317978 0.0216277 -0.0265749 2650 
2369 1 0.000216 0.0015455 0.005092 0.000116 0 -0.01175 0 2650 
313 1 0.0158791 0.0126556 0.0048137 0.000116 0.0658547 -0.067486 -0.35082 2650 
374 1 0.0156412 0.0245002 0.00510335 0.000423 0.115267 0.0173662 -0.466462 2650 
2495 1 0.0160336 0.0341423 0.0047537 0.000116 0.0726851 -0.0561642 -0.288665 2650 
4340 1 0.0158934 0.0387999 0.00525164 0.000116 0.0873546 -0.0240011 -0.337041 2650 
2180 1 0.0117296 0.0422328 0.0049269 0.000116 0.00291779 0.041578 0.00902864 2650 
277 1 0.00270443 0.0640489 0.00499841 0.000116 0.00273855 0.0626858 0.00700488 2650 
2050 1 0.0104881 0.00263865 0.0058501 0.000116 -0.167941 -0.173215 0.00291537 2650 
57 1 0.0145449 0.00350483 0.00591522 0.000116 -0.000341407 -0.16247 -0.132881 2650 
395 1 0.00979367 0.00644162 0.00624956 0.000116 -0.00710234 0.00665662 -0.0276173 2650 
4153 1 0.0115743 0.0154027 0.00681563 0.000116 0.000201898 0.0161091 0.0384215 2650 
613 1 0.000333711 0.0196695 0.00698473 0.000116 -0.0207041 0.0167945 0.00815702 2650 
2413 1 0.0078734 0.0270532 0.00701837 4.2e-05 -0.0223669 0.0262205 0.0171047 2650 
2321 1 0.0141515 0.00650378 0.00731492 0.000656 -0.0350752 -0.0279066 0.0502709 2650 
2303 1 0.0149757 0.0192283 0.00767264 4.2e-05 0.163401 -0.0176611 -0.309014 2650 
3435 1 0.014786 0.026397 0.00725964 0.000423 0.148623 0.0255275 -0.282943 2650 
2029 1 0.0112859 0.00128961 0.00862677 0.000423 0.0119791 0.00497158 -0.046294 2650 
3153 1 0.0109685 0.0198283 0.00843737 0.000116 0.00465087 0.016985 0.0163421 2650 
3789 1 0.0112247 0.0227326 0.00836574 0.000116 0.0817281 0.0955967 -0.0709264 2650 
171 1 0.0145831 0.0231378 0.00828684 0.000116 0.171732 0.0702805 -0.326434 2650 
3184 1 0.012915 0.00727033 0.0092675 0.000656 -0.0734818 0.0116906 0.0800657 2650 
896 1 0.01379 0.0379254 0.00904834 0.000423 0.2049 -0.0273722 -0.38528 2650 
2730 1 0.0120801 0.0043845 0.0095505 0.000116 0.0117475 -0.00784608 0.00490235 2650 
2937 1 0.0133244 0.0096314 0.00986023 0.000116 -0.109247 0.00335959 0.18764 2650 
2414 1 0.0039659 0.0525078 0.0100973 4.2e-05 -0.0314882 0.0579851 -0.0239762 2650 
2170 1 0.00516685 0.000703108 0.0104532 0.000116 -0.0178885 -0.00197673 -0.00946212 2650 
2587 1 0.0131607 0.0326061 0.0104901 0.000116 0.211089 0.00171706 -0.242355 2650 
3580 1 0.00982084 0.016408 0.0113429 0.000116 0.0167526 0.011516 0.0450257 2650 
1145 1 0.0118376 0.0529828 0.0113139 0.000423 0.267616 -0.0215618 -0.309072 2650 
2288 1 0.0116613 0.0555331 0.0117727 0.000116 -0.0935715 0.00567688 0.0699323 2650 
2153 1 0.00791158 0.0125882 0.0124276 0.000116 0.0165243 0.00716216 0.00819063 2650 
1688 1 0.0111872 0.0273951 0.012207 0.000423 0.338448 -0.0317386 -0.2513 2650 
1222 1 0.000319768 0.00419906 0.0129234 0.000656 0.0172214 -0.00374374 0.0446078 2650 
3023 1 0.0110686 0.0250314 0.0126737 0.000116 0.385553 -0.0376195 -0.286291 2650 
782 1 0.00950635 0.0337848 0.0131398 0.000656 0.182781 -0.0482646 -0.135771 2650 
419 1 0.0079253 0.0551916 0.0133916 0.000116 0.0871181 0.0352372 -0.0425931 2650 
391 1 0.0092192 0.00490122 0.0138731 0.000116 0.382939 0.135005 -0.284806 2650 
3100 1 0.00928769 0.0154593 0.013557 0.000423 0.17163 -0.0469289 -0.128881 2650 
2044 1 0.00976118 0.0314056 0.0136279 0.000116 0.298932 0.000341106 -0.222196 2650 
1057 1 0.0076153 0.0122919 0.0149395 0.000116 0.321103 0.0399449 -0.135574 2650 
2262 1 0.00829901 0.0303477 0.0147178 0.000116 0.263054 0.0241051 -0.108629 2650 
1830 1 0.00745651 0.0217471 0.0150656 0.000116 0.326622 0.00781896 -0.134746 2650 
2776 1 0.00579317 0.044145 0.0153603 0.000423 0.479295 0.053404 -0.205141 2650 
3064 1 0.00602351 0.0657668 0.0153839 4.2e-05 0.0459264 0.0480067 0.00300504 2650 
978 1 0.00258797 0.0193232 0.016331 0.000116 0.368043 0.00742533 -0.0884897 2650 
308 1 0.00448796 0.0259121 0.0161865 0.000116 0.185305 -0.109218 -0.0321558 2650 
2526 1 0.00503967 0.03165 0.0160429 4.2e-05 -11.8813 1.01165 2.95043 2650 
2805 1 0.00485892 0.0328061 0.0160373 0.000116 0.129761 0.00224451 -0.0561062 2650 
1404 1 0.00282273 0.0346116 0.0164566 0.000116 0.28279 -0.00334474 -0.0503861 2650 
1199 1 0.00281344 0.0371336 0.0164531 0.000116 0.450648 -0.06198 -0.0816553 2650 
3388 1 0.00185195 0.0401299 0.016557 0.000116 0.0232902 0.0470671 0.0540787 2650 
3719 1 0.00264684 0.00726114 0.0166403 4.2e-05 -0.424052 -0.0502187 0.113419 2650 
3273 1 0.000329352 0.0169293 0.0167963 0.000116 0.086992 -0.0468866 -0.0689778 2650 
1527 1 0.00156486 0.0200488 0.0167129 0.000116 0.289208 0.0143402 -0.0710136 2650 
2068 1 0.00110658 0.0258451 0.0167654 0.000116 0.338543 0.0348134 -0.0591205 2650 
3811 1 0.00151576 0.0480894 0.0166825 0.000116 0.394577 0.0484194 -0.074758 2650 
3928 1 0.00127353 0.0527796 0.016724 0.000116 0.139714 0.0495221 -0.026274 2650 
191 1 0.0647891 0.1059 -0.0234094 0.000116 85.9837 0.0313857 233.761 2650 
3836 1 0.00366129 0.141671 -0.00866778 4.2e-05 0.0229507 0.131537 0.000720158 2650 
839 1 0.00238758 0.0949063 -0.00277473 0.000116 -0.00669255 0.0948313 0.0106808 2650 
2149 1 0.00658832 0.105441 0.000946329 0.000116 -0.0157243 0.0908037 -0.00522656 2650 
2415 1 0.00979702 0.0861787 0.00171972 4.2e-05 0.0331768 0.0748442 -0.0245968 2650 
4351 1 0.00986934 0.0820279 0.00510342 0.000116 0.0418698 0.135569 -0.051035 2650 
1629 1 0.000341114 0.106934 0.00696201 0.000116 0.0142641 0.0890487 0.0265382 2650 
2147 1 0.0684069 0.0751664 0.00811279 0.000116 0.0245847 -0.107819 -0.207276 2650 
3896 1 0.050638 0.119307 0.0466995 0.000116 0.154668 -0.084022 -0.167685 2650 
889 1 0.0276777 0.112746 0.0624888 0.000656 0.0742653 -0.0578992 -0.0328938 2650 
