LIGGGHTS (Version LIGGGHTS-PUBLIC 3.8.0, compiled 2022-11-07-16:55:38 by serperd1, git commit 86544c3f1215bc9744d7929e3eacf53ba086af9e)
units si #
dimension 3 #
newton off #
boundary f f f #
atom_style sphere #
pair_style gran model hertz tangential history #
communicate single vel yes #
region outer_basket cylinder y 0 0 0.15 -0.15 0.15 #
create_box 3 outer_basket #
Created orthogonal box = (-0.15 -0.15 -0.15) to (0.15 0.15 0.15)
  2 by 4 by 5 MPI processor grid
variable my_omega equal 157.0796 #
fix cone_mesh all mesh/surface file cone.stl type 3 scale 1 #
fix rotating_wall_1 all move/mesh mesh cone_mesh rotate/variable origin 0 0 0 axis 0 1 0 omega v_my_omega #
fix filter_mesh_walls all wall/gran model hertz tangential history primitive type 2 ycylinder_filtermesh 0.069 0 0 3 18 -0.0628 0 0.018057 0.015694 0.068057 0.065694 shear x 10.8385 #

fix inlet_cyl_wall_mesh all mesh/surface file in_cyl.stl type 3 scale 1 #
fix top_cyl_wall_mesh all mesh/surface file top_cyl.stl type 3 scale 1 #
fix rotating_wall_4 all move/mesh mesh top_cyl_wall_mesh rotate/variable origin 0 0 0 axis 0 1 0 omega v_my_omega #
fix bot_cyl_wall_mesh all mesh/surface file bot_cyl.stl type 3 scale 1 #
fix rotating_wall_5 all move/mesh mesh bot_cyl_wall_mesh rotate/variable origin 0 0 0 axis 0 1 0 omega v_my_omega #
fix bot_disk_wall_mesh all mesh/surface file bottom_disk.stl type 3 scale 1 #
fix rotating_wall_6 all move/mesh mesh bot_disk_wall_mesh rotate/variable origin 0 0 0 axis 0 1 0 omega v_my_omega #
fix top_disk_wall_mesh all mesh/surface file top_disk.stl type 3 scale 1 #
fix rotating_wall_7 all move/mesh mesh top_disk_wall_mesh rotate/variable origin 0 0 0 axis 0 1 0 omega v_my_omega #
fix GMSH_mesh_walls all wall/gran model hertz tangential history mesh n_meshes 6 meshes cone_mesh top_cyl_wall_mesh bot_cyl_wall_mesh bot_disk_wall_mesh inlet_cyl_wall_mesh top_disk_wall_mesh #
fix Young_mod all property/global youngsModulus peratomtype 375000000 46000000 1000000000 #
fix Poisson_rat all property/global poissonsRatio peratomtype 0.32 0.42 0.29 #
fix Coeff_rest all property/global coefficientRestitution peratomtypepair 3 0.15 0.32 0.475 0.32 0.49 0.645 0.475 0.645 0.8 #
fix Coeff_fric all property/global coefficientFriction peratomtypepair 3 0.04 0.145 0.12 0.145 0.25 0.225 0.12 0.225 0.2 #

neighbor 0.00026244 bin #
neigh_modify delay 0 one 100000 page 5000000 #
fix r_0to10p all particletemplate/sphere 12345787 atom_type 1 density constant 2650 radius constant 4.2e-05 #
fix r_10to50p all particletemplate/sphere 15485863 atom_type 1 density constant 2650 radius constant 0.0001164 #
fix r_50to90p all particletemplate/sphere 15485867 atom_type 1 density constant 2650 radius constant 0.0004233 #
fix r_90to100p all particletemplate/sphere 32452843 atom_type 1 density constant 2650 radius constant 0.0006561 #
fix prob_par all particledistribution/discrete 32452867 4 r_0to10p 0.1 r_10to50p 0.4 r_50to90p 0.4 r_90to100p 0.1 #
pair_coeff * * #
timestep 3.24e-08 #

fix nve_group all nve/sphere #
fix grav_fix all gravity 6.1081 vector 0.017 -0.0033 0 -1 0 #
fix cent_fix all centrifugal 157.0796 0.017 -0.0033 0.069 #

variable step equal step #
variable mycount equal count(all) #
fix print_amount_of_atoms all print 25 "${step} ${mycount}" file numatoms.txt screen no #
run 0 #
Setting up run at Sun Nov 27 02:48:16 2022

Memory usage per processor = 960.256 Mbytes
    Step    Atoms         KinEng            CPU 
       0        0              0              0 
Loop time of 5.66947e-05 on 40 procs for 0 steps with 0 atoms, finish time Sun Nov 27 02:48:16 2022


Pair  time (%) = 0 (0)
Neigh time (%) = 0 (0)
Comm  time (%) = 0 (0)
Outpt time (%) = 0 (0)
Other time (%) = 5.66947e-05 (100)

Nlocal:    0 ave 0 max 0 min
Histogram: 40 0 0 0 0 0 0 0 0 0
Nghost:    0 ave 0 max 0 min
Histogram: 40 0 0 0 0 0 0 0 0 0
Neighs:    0 ave 0 max 0 min
Histogram: 40 0 0 0 0 0 0 0 0 0

Total # of neighbors = 0
Neighbor list builds = 0
Dangerous builds = 0
run 1 #
Setting up run at Sun Nov 27 02:48:16 2022

Memory usage per processor = 960.256 Mbytes
    Step    Atoms         KinEng            CPU 
       0        0              0              0 
       1        0              0    0.009839444 
Loop time of 0.00985049 on 40 procs for 1 steps with 0 atoms, finish time Sun Nov 27 02:48:16 2022


Pair  time (%) = 2.0424e-06 (0.020734)
Neigh time (%) = 0 (0)
Comm  time (%) = 0.000204005 (2.07101)
Outpt time (%) = 9.1794e-05 (0.931873)
Other time (%) = 0.00955265 (96.9764)

Nlocal:    0 ave 0 max 0 min
Histogram: 40 0 0 0 0 0 0 0 0 0
Nghost:    0 ave 0 max 0 min
Histogram: 40 0 0 0 0 0 0 0 0 0
Neighs:    0 ave 0 max 0 min
Histogram: 40 0 0 0 0 0 0 0 0 0

Total # of neighbors = 0
Neighbor list builds = 0
Dangerous builds = 0
read_dump dump.atom_info_1 1 x y z radius vx vy vz box no add yes replace no #
  orthogonal box = (-0.15 -0.15 -0.15) to (0.15 0.15 0.15)
  0 atoms before read
  4382 atoms in snapshot
  0 atoms purged
  0 atoms replaced
  0 atoms trimmed
  4382 atoms added
  4382 atoms after read
set atom * type 1 density 2650 vy -0.01175 #
  4382 settings made for type
  4382 settings made for density
  4382 settings made for vy
run 1 #
Setting up run at Sun Nov 27 02:48:16 2022

Memory usage per processor = 964.609 Mbytes
    Step    Atoms         KinEng            CPU 
       1     4382  2.0405663e-07              0 
       2     4382  2.5286639e-06    0.009423774 
Loop time of 0.00943177 on 40 procs for 1 steps with 4382 atoms, finish time Sun Nov 27 02:48:16 2022


Pair  time (%) = 4.24453e-06 (0.0450024)
Neigh time (%) = 0 (0)
Comm  time (%) = 8.66782e-06 (0.0919003)
Outpt time (%) = 0.000226083 (2.39704)
Other time (%) = 0.00919277 (97.4661)

Nlocal:    109.55 ave 1816 max 0 min
Histogram: 36 0 2 0 0 0 0 0 0 2
Nghost:    27.3 ave 345 max 0 min
Histogram: 36 0 0 0 0 1 1 0 0 2
Neighs:    35.525 ave 600 max 0 min
Histogram: 36 0 2 0 0 0 0 0 0 2

Total # of neighbors = 1421
Ave neighs/atom = 0.324281
Neighbor list builds = 0
Dangerous builds = 0
write_dump all custom dump.atom_info_ac_* id type x y z radius vx vy vz density #
run 308641
Setting up run at Sun Nov 27 02:48:16 2022

Memory usage per processor = 964.609 Mbytes
    Step    Atoms         KinEng            CPU 
       2     4382  2.5286639e-06              0 
  308643     4382  0.00030849076      3057.5853 
Loop time of 3057.62 on 40 procs for 308641 steps with 4382 atoms, finish time Sun Nov 27 03:39:14 2022


Pair  time (%) = 1.27964 (0.041851)
Neigh time (%) = 4.17191 (0.136443)
Comm  time (%) = 4.05158 (0.132508)
Outpt time (%) = 0.000310353 (1.01501e-05)
Other time (%) = 3048.11 (99.6892)

Nlocal:    109.55 ave 1780 max 0 min
Histogram: 36 0 2 0 0 0 0 0 0 2
Nghost:    28.15 ave 360 max 0 min
Histogram: 36 0 0 0 0 1 1 0 0 2
Neighs:    39.35 ave 668 max 0 min
Histogram: 36 0 2 0 0 0 0 0 0 2

Total # of neighbors = 1574
Ave neighs/atom = 0.359197
Neighbor list builds = 1630
Dangerous builds = 0
write_dump all custom dump.atom_info_ac_* id type x y z radius vx vy vz density #
run 308641
Setting up run at Sun Nov 27 03:39:14 2022

Memory usage per processor = 964.609 Mbytes
    Step    Atoms         KinEng            CPU 
  308643     4382  0.00030849076              0 
  617284     4380   0.0068749417       3063.175 
Loop time of 3063.18 on 40 procs for 308641 steps with 4380 atoms, finish time Sun Nov 27 04:30:18 2022


Pair  time (%) = 1.29681 (0.0423354)
Neigh time (%) = 4.52987 (0.147881)
Comm  time (%) = 4.71008 (0.153764)
Outpt time (%) = 0.000596974 (1.94887e-05)
Other time (%) = 3052.64 (99.656)

Nlocal:    109.5 ave 1746 max 0 min
Histogram: 36 0 2 0 0 0 0 0 0 2
Nghost:    26.65 ave 328 max 0 min
Histogram: 36 0 0 0 0 0 2 0 0 2
Neighs:    41.075 ave 671 max 0 min
Histogram: 36 0 2 0 0 0 0 0 0 2

Total # of neighbors = 1643
Ave neighs/atom = 0.375114
Neighbor list builds = 1753
Dangerous builds = 0
write_dump all custom dump.atom_info_ac_* id type x y z radius vx vy vz density #
run 308641
Setting up run at Sun Nov 27 04:30:18 2022

Memory usage per processor = 964.609 Mbytes
    Step    Atoms         KinEng            CPU 
  617284     4380   0.0068749417              0 
  925925     4373   0.0083758556      3199.8901 
Loop time of 3199.91 on 40 procs for 308641 steps with 4373 atoms, finish time Sun Nov 27 05:23:38 2022


Pair  time (%) = 1.31035 (0.0409498)
Neigh time (%) = 34.3585 (1.07374)
Comm  time (%) = 16.0148 (0.500478)
Outpt time (%) = 0.000758599 (2.37069e-05)
Other time (%) = 3148.22 (98.3848)

Nlocal:    109.325 ave 1729 max 0 min
Histogram: 36 0 2 0 0 0 0 0 0 2
Nghost:    24.5 ave 304 max 0 min
Histogram: 36 0 0 0 0 1 1 0 0 2
Neighs:    40.525 ave 658 max 0 min
Histogram: 36 0 2 0 0 0 0 0 0 2

Total # of neighbors = 1621
Ave neighs/atom = 0.370684
Neighbor list builds = 12891
Dangerous builds = 262
write_dump all custom dump.atom_info_ac_* id type x y z radius vx vy vz density #
run 308641
Setting up run at Sun Nov 27 05:23:38 2022

Memory usage per processor = 964.609 Mbytes
    Step    Atoms         KinEng            CPU 
  925925     4373   0.0083758556              0 
 1234566     4366    0.038032234      3259.2355 
Loop time of 3259.24 on 40 procs for 308641 steps with 4366 atoms, finish time Sun Nov 27 06:17:57 2022


Pair  time (%) = 1.31353 (0.0403017)
Neigh time (%) = 46.8531 (1.43755)
Comm  time (%) = 21.2488 (0.651957)
Outpt time (%) = 0.000596974 (1.83164e-05)
Other time (%) = 3189.82 (97.8702)

Nlocal:    109.15 ave 1704 max 0 min
Histogram: 36 0 2 0 0 0 0 0 0 2
Nghost:    23.7 ave 294 max 0 min
Histogram: 36 0 0 0 0 1 1 0 0 2
Neighs:    37.9 ave 630 max 0 min
Histogram: 36 1 1 0 0 0 0 0 0 2

Total # of neighbors = 1516
Ave neighs/atom = 0.347229
Neighbor list builds = 17544
Dangerous builds = 803
write_dump all custom dump.atom_info_ac_* id type x y z radius vx vy vz density #
run 308641
Setting up run at Sun Nov 27 06:17:57 2022

Memory usage per processor = 964.609 Mbytes
    Step    Atoms         KinEng            CPU 
 1234566     4366    0.038032234              0 
 1543207     4352     0.27764268      3323.5254 
Loop time of 3323.53 on 40 procs for 308641 steps with 4352 atoms, finish time Sun Nov 27 07:13:21 2022


Pair  time (%) = 1.29844 (0.039068)
Neigh time (%) = 59.9034 (1.80241)
Comm  time (%) = 30.1774 (0.907994)
Outpt time (%) = 0.000327481 (9.85341e-06)
Other time (%) = 3232.15 (97.2505)

Nlocal:    108.8 ave 1666 max 0 min
Histogram: 36 0 2 0 0 0 0 0 0 2
Nghost:    23.1 ave 299 max 0 min
Histogram: 36 0 0 0 0 2 0 0 0 2
Neighs:    38.7 ave 638 max 0 min
Histogram: 36 0 2 0 0 0 0 0 0 2

Total # of neighbors = 1548
Ave neighs/atom = 0.355699
Neighbor list builds = 22427
Dangerous builds = 1397
write_dump all custom dump.atom_info_ac_* id type x y z radius vx vy vz density #
run 308641
Setting up run at Sun Nov 27 07:13:21 2022

Memory usage per processor = 964.609 Mbytes
    Step    Atoms         KinEng            CPU 
 1543207     4352     0.27764268              0 
 1851848     4332    0.062278235      3422.9427 
Loop time of 3422.94 on 40 procs for 308641 steps with 4332 atoms, finish time Sun Nov 27 08:10:24 2022


Pair  time (%) = 1.30562 (0.0381432)
Neigh time (%) = 78.4068 (2.29062)
Comm  time (%) = 48.0213 (1.40292)
Outpt time (%) = 0.000625899 (1.82854e-05)
Other time (%) = 3295.21 (96.2683)

Nlocal:    108.3 ave 1668 max 0 min
Histogram: 36 0 2 0 0 0 0 0 0 2
Nghost:    23.125 ave 302 max 0 min
Histogram: 36 0 0 0 0 2 0 0 0 2
Neighs:    38.3 ave 637 max 0 min
Histogram: 36 1 1 0 0 0 0 0 0 2

Total # of neighbors = 1532
Ave neighs/atom = 0.353647
Neighbor list builds = 29337
Dangerous builds = 2604
write_dump all custom dump.atom_info_ac_* id type x y z radius vx vy vz density #
run 308641
Setting up run at Sun Nov 27 08:10:24 2022

Memory usage per processor = 964.609 Mbytes
    Step    Atoms         KinEng            CPU 
 1851848     4332    0.062278235              0 
 2160489     4313    0.055787652      3498.1791 
Loop time of 3498.18 on 40 procs for 308641 steps with 4313 atoms, finish time Sun Nov 27 09:08:42 2022


Pair  time (%) = 1.29632 (0.037057)
Neigh time (%) = 92.2577 (2.63731)
Comm  time (%) = 57.5958 (1.64645)
Outpt time (%) = 0.000619042 (1.76961e-05)
Other time (%) = 3347.03 (95.6792)

Nlocal:    107.825 ave 1699 max 0 min
Histogram: 36 0 2 0 0 0 0 0 0 2
Nghost:    22.725 ave 283 max 0 min
Histogram: 36 0 0 0 0 1 1 0 0 2
Neighs:    36.225 ave 650 max 0 min
Histogram: 36 0 2 0 0 0 0 0 1 1

Total # of neighbors = 1449
Ave neighs/atom = 0.335961
Neighbor list builds = 34478
Dangerous builds = 1910
write_dump all custom dump.atom_info_ac_* id type x y z radius vx vy vz density #
run 308641
Setting up run at Sun Nov 27 09:08:42 2022

Memory usage per processor = 964.609 Mbytes
    Step    Atoms         KinEng            CPU 
 2160489     4313    0.055787652              0 
 2469130     4288    0.096921704      3540.5827 
Loop time of 3540.58 on 40 procs for 308641 steps with 4288 atoms, finish time Sun Nov 27 10:07:43 2022


Pair  time (%) = 1.30911 (0.0369744)
Neigh time (%) = 101.422 (2.86456)
Comm  time (%) = 73.2666 (2.06934)
Outpt time (%) = 0.000599217 (1.69243e-05)
Other time (%) = 3364.58 (95.0291)

Nlocal:    107.2 ave 1715 max 0 min
Histogram: 36 0 2 0 0 0 0 0 1 1
Nghost:    22.7 ave 282 max 0 min
Histogram: 36 0 0 0 0 1 1 0 0 2
Neighs:    36.05 ave 647 max 0 min
Histogram: 36 1 1 0 0 0 0 0 1 1

Total # of neighbors = 1442
Ave neighs/atom = 0.336287
Neighbor list builds = 37872
Dangerous builds = 2642
write_dump all custom dump.atom_info_ac_* id type x y z radius vx vy vz density #
run 308641
Setting up run at Sun Nov 27 10:07:43 2022

Memory usage per processor = 964.609 Mbytes
    Step    Atoms         KinEng            CPU 
 2469130     4288    0.096921704              0 
 2777771     4253     0.26249838      3543.0414 
Loop time of 3543.04 on 40 procs for 308641 steps with 4253 atoms, finish time Sun Nov 27 11:06:46 2022


Pair  time (%) = 1.2976 (0.0366238)
Neigh time (%) = 101.633 (2.86851)
Comm  time (%) = 77.1914 (2.17868)
Outpt time (%) = 0.000641049 (1.80932e-05)
Other time (%) = 3362.92 (94.9162)

Nlocal:    106.325 ave 1699 max 0 min
Histogram: 36 0 2 0 0 0 0 0 1 1
Nghost:    21.975 ave 271 max 0 min
Histogram: 36 0 0 0 0 0 2 0 0 2
Neighs:    35 ave 667 max 0 min
Histogram: 36 0 2 0 0 0 1 0 0 1

Total # of neighbors = 1400
Ave neighs/atom = 0.329179
Neighbor list builds = 37918
Dangerous builds = 5461
write_dump all custom dump.atom_info_ac_* id type x y z radius vx vy vz density #
run 308641
Setting up run at Sun Nov 27 11:06:46 2022

Memory usage per processor = 964.609 Mbytes
    Step    Atoms         KinEng            CPU 
 2777771     4253     0.26249838              0 
 3086412     4208      0.2311246      3539.4718 
Loop time of 3539.47 on 40 procs for 308641 steps with 4208 atoms, finish time Sun Nov 27 12:05:46 2022


Pair  time (%) = 1.27107 (0.0359113)
Neigh time (%) = 101.878 (2.87835)
Comm  time (%) = 84.0325 (2.37415)
Outpt time (%) = 0.000622247 (1.75802e-05)
Other time (%) = 3352.29 (94.7116)

Nlocal:    105.2 ave 1688 max 0 min
Histogram: 36 0 2 0 0 0 0 0 1 1
Nghost:    21.15 ave 257 max 0 min
Histogram: 36 0 0 0 0 0 2 0 1 1
Neighs:    33.45 ave 622 max 0 min
Histogram: 36 0 2 0 0 0 0 1 0 1

Total # of neighbors = 1338
Ave neighs/atom = 0.317966
Neighbor list builds = 38007
Dangerous builds = 5118
write_dump all custom dump.atom_info_ac_* id type x y z radius vx vy vz density #
run 308641
Setting up run at Sun Nov 27 12:05:46 2022

Memory usage per processor = 964.609 Mbytes
    Step    Atoms         KinEng            CPU 
 3086412     4208      0.2311246              0 
 3395053     4154     0.21877553      3770.5109 
Loop time of 3770.51 on 40 procs for 308641 steps with 4154 atoms, finish time Sun Nov 27 13:08:36 2022


Pair  time (%) = 1.28981 (0.0342079)
Neigh time (%) = 148.869 (3.94825)
Comm  time (%) = 137.095 (3.63598)
Outpt time (%) = 0.00064917 (1.7217e-05)
Other time (%) = 3483.26 (92.3815)

Nlocal:    103.85 ave 1638 max 0 min
Histogram: 36 0 2 0 0 0 0 0 1 1
Nghost:    21.125 ave 267 max 0 min
Histogram: 36 0 0 0 0 1 1 0 1 1
Neighs:    28.825 ave 504 max 0 min
Histogram: 36 0 2 0 0 0 0 1 0 1

Total # of neighbors = 1153
Ave neighs/atom = 0.277564
Neighbor list builds = 55562
Dangerous builds = 5521
write_dump all custom dump.atom_info_ac_* id type x y z radius vx vy vz density #
run 308641
Setting up run at Sun Nov 27 13:08:36 2022

Memory usage per processor = 964.609 Mbytes
    Step    Atoms         KinEng            CPU 
 3395053     4154     0.21877553              0 
 3703694     4105      1.3114656      3622.8155 
Loop time of 3622.82 on 40 procs for 308641 steps with 4105 atoms, finish time Sun Nov 27 14:08:59 2022


Pair  time (%) = 1.22881 (0.0339185)
Neigh time (%) = 119.149 (3.28886)
Comm  time (%) = 113.851 (3.1426)
Outpt time (%) = 0.000592532 (1.63556e-05)
Other time (%) = 3388.59 (93.5346)

Nlocal:    102.625 ave 1574 max 0 min
Histogram: 36 0 2 0 0 0 0 0 1 1
Nghost:    20.55 ave 243 max 0 min
Histogram: 36 0 0 0 0 0 2 0 0 2
Neighs:    27.275 ave 473 max 0 min
Histogram: 36 1 1 0 0 0 0 0 1 1

Total # of neighbors = 1091
Ave neighs/atom = 0.265773
Neighbor list builds = 44467
Dangerous builds = 4016
write_dump all custom dump.atom_info_ac_* id type x y z radius vx vy vz density #
run 308641
Setting up run at Sun Nov 27 14:08:59 2022

Memory usage per processor = 964.609 Mbytes
    Step    Atoms         KinEng            CPU 
 3703694     4105      1.3114656              0 
 4012335     4042     0.36794162      3640.0248 
Loop time of 3640.03 on 40 procs for 308641 steps with 4042 atoms, finish time Sun Nov 27 15:09:39 2022


Pair  time (%) = 1.21419 (0.0333565)
Neigh time (%) = 124.284 (3.41437)
Comm  time (%) = 115.692 (3.17832)
Outpt time (%) = 0.000631789 (1.73567e-05)
Other time (%) = 3398.83 (93.3739)

Nlocal:    101.05 ave 1504 max 0 min
Histogram: 36 0 2 0 0 0 0 0 1 1
Nghost:    20.025 ave 234 max 0 min
Histogram: 36 0 0 0 0 0 1 1 0 2
Neighs:    24.6 ave 395 max 0 min
Histogram: 36 0 1 1 0 0 0 0 0 2

Total # of neighbors = 984
Ave neighs/atom = 0.243444
Neighbor list builds = 46333
Dangerous builds = 7632
write_dump all custom dump.atom_info_ac_* id type x y z radius vx vy vz density #
run 308641
Setting up run at Sun Nov 27 15:09:39 2022

Memory usage per processor = 964.609 Mbytes
    Step    Atoms         KinEng            CPU 
 4012335     4042     0.36794162              0 
 4320976     3969     0.56068233      3612.6182 
Loop time of 3612.62 on 40 procs for 308641 steps with 3969 atoms, finish time Sun Nov 27 16:09:52 2022


Pair  time (%) = 1.17283 (0.0324648)
Neigh time (%) = 121.059 (3.35102)
Comm  time (%) = 113.896 (3.15272)
Outpt time (%) = 0.00053282 (1.47489e-05)
Other time (%) = 3376.49 (93.4638)

Nlocal:    99.225 ave 1425 max 0 min
Histogram: 36 0 1 1 0 0 0 0 1 1
Nghost:    19.5 ave 237 max 0 min
Histogram: 36 0 0 0 0 1 1 0 0 2
Neighs:    22.55 ave 345 max 0 min
Histogram: 36 0 1 0 1 0 0 0 1 1

Total # of neighbors = 902
Ave neighs/atom = 0.227261
Neighbor list builds = 45093
Dangerous builds = 3521
write_dump all custom dump.atom_info_ac_* id type x y z radius vx vy vz density #
run 308641
Setting up run at Sun Nov 27 16:09:52 2022

Memory usage per processor = 964.609 Mbytes
    Step    Atoms         KinEng            CPU 
 4320976     3969     0.56068233              0 
 4629617     3896     0.57158783      3790.9281 
Loop time of 3790.93 on 40 procs for 308641 steps with 3896 atoms, finish time Sun Nov 27 17:13:03 2022


Pair  time (%) = 1.1734 (0.0309527)
Neigh time (%) = 159.638 (4.21105)
Comm  time (%) = 157.615 (4.15768)
Outpt time (%) = 0.000576009 (1.51944e-05)
Other time (%) = 3472.5 (91.6003)

Nlocal:    97.4 ave 1352 max 0 min
Histogram: 36 0 1 1 0 0 0 0 1 1
Nghost:    17.775 ave 209 max 0 min
Histogram: 36 0 0 0 0 1 0 1 0 2
Neighs:    19.725 ave 303 max 0 min
Histogram: 36 0 1 0 1 0 0 0 1 1

Total # of neighbors = 789
Ave neighs/atom = 0.202515
Neighbor list builds = 59458
Dangerous builds = 5389
write_dump all custom dump.atom_info_ac_* id type x y z radius vx vy vz density #
run 308641
Setting up run at Sun Nov 27 17:13:03 2022

Memory usage per processor = 964.609 Mbytes
    Step    Atoms         KinEng            CPU 
 4629617     3896     0.57158783              0 
 4938258     3817     0.85259717      3858.3042 
Loop time of 3858.3 on 40 procs for 308641 steps with 3817 atoms, finish time Sun Nov 27 18:17:22 2022


Pair  time (%) = 1.14041 (0.0295574)
Neigh time (%) = 176.94 (4.58595)
Comm  time (%) = 179.667 (4.65662)
Outpt time (%) = 0.00607514 (0.000157456)
Other time (%) = 3500.55 (90.7277)

Nlocal:    95.425 ave 1312 max 0 min
Histogram: 35 1 1 1 0 0 0 0 1 1
Nghost:    16.15 ave 181 max 0 min
Histogram: 36 0 0 0 0 0 1 1 0 2
Neighs:    16.575 ave 267 max 0 min
Histogram: 36 0 1 1 0 0 0 0 1 1

Total # of neighbors = 663
Ave neighs/atom = 0.173697
Neighbor list builds = 65754
Dangerous builds = 11007
write_dump all custom dump.atom_info_ac_* id type x y z radius vx vy vz density #
run 308641
Setting up run at Sun Nov 27 18:17:22 2022

Memory usage per processor = 964.609 Mbytes
    Step    Atoms         KinEng            CPU 
 4938258     3817     0.85259717              0 
 5246899     3710      19.643075      3938.9078 
Loop time of 3938.91 on 40 procs for 308641 steps with 3710 atoms, finish time Sun Nov 27 19:23:01 2022


Pair  time (%) = 1.11877 (0.0284031)
Neigh time (%) = 194.99 (4.95035)
Comm  time (%) = 211.627 (5.37273)
Outpt time (%) = 0.00604569 (0.000153487)
Other time (%) = 3531.17 (89.6484)

Nlocal:    92.75 ave 1262 max 0 min
Histogram: 34 2 1 1 0 0 0 0 1 1
Nghost:    15.95 ave 202 max 0 min
Histogram: 36 0 0 0 0 1 1 0 1 1
Neighs:    14.225 ave 225 max 0 min
Histogram: 36 1 0 0 0 1 0 1 0 1

Total # of neighbors = 569
Ave neighs/atom = 0.153369
Neighbor list builds = 72438
Dangerous builds = 14886
write_dump all custom dump.atom_info_ac_* id type x y z radius vx vy vz density #
run 308641
Setting up run at Sun Nov 27 19:23:01 2022

Memory usage per processor = 964.609 Mbytes
    Step    Atoms         KinEng            CPU 
 5246899     3710      19.643075              0 
 5555540     3600     0.94496101      3844.9911 
Loop time of 3844.99 on 40 procs for 308641 steps with 3600 atoms, finish time Sun Nov 27 20:27:06 2022


Pair  time (%) = 1.05929 (0.0275499)
Neigh time (%) = 170.247 (4.42777)
Comm  time (%) = 198.04 (5.1506)
Outpt time (%) = 0.000516827 (1.34416e-05)
Other time (%) = 3475.64 (90.3941)

Nlocal:    90 ave 1180 max 0 min
Histogram: 34 2 1 1 0 0 0 0 1 1
Nghost:    14.875 ave 184 max 0 min
Histogram: 36 0 0 0 1 0 1 0 1 1
Neighs:    12.25 ave 189 max 0 min
Histogram: 36 1 0 0 1 0 0 0 1 1

Total # of neighbors = 490
Ave neighs/atom = 0.136111
Neighbor list builds = 63257
Dangerous builds = 6730
write_dump all custom dump.atom_info_ac_* id type x y z radius vx vy vz density #
run 308641
Setting up run at Sun Nov 27 20:27:06 2022

Memory usage per processor = 964.609 Mbytes
    Step    Atoms         KinEng            CPU 
 5555540     3600     0.94496101              0 
 5864181     3500     0.90542429      3766.5907 
Loop time of 3766.59 on 40 procs for 308641 steps with 3500 atoms, finish time Sun Nov 27 21:29:53 2022


Pair  time (%) = 1.01785 (0.0270231)
Neigh time (%) = 160.704 (4.26657)
Comm  time (%) = 188.963 (5.01682)
Outpt time (%) = 0.000500057 (1.32761e-05)
Other time (%) = 3415.91 (90.6896)

Nlocal:    87.5 ave 1120 max 0 min
Histogram: 32 4 1 1 0 0 0 0 0 2
Nghost:    14.35 ave 180 max 0 min
Histogram: 36 0 0 0 0 2 0 0 1 1
Neighs:    11.4 ave 172 max 0 min
Histogram: 36 0 1 0 1 0 0 0 0 2

Total # of neighbors = 456
Ave neighs/atom = 0.130286
Neighbor list builds = 59706
Dangerous builds = 7520
write_dump all custom dump.atom_info_ac_* id type x y z radius vx vy vz density #
run 308641
Setting up run at Sun Nov 27 21:29:53 2022

Memory usage per processor = 964.609 Mbytes
    Step    Atoms         KinEng            CPU 
 5864181     3500     0.90542429              0 
 6172822     3397       1.103665      3867.1694 
Loop time of 3867.17 on 40 procs for 308641 steps with 3397 atoms, finish time Sun Nov 27 22:34:20 2022


Pair  time (%) = 1.00963 (0.0261078)
Neigh time (%) = 184.741 (4.77716)
Comm  time (%) = 206.987 (5.35242)
Outpt time (%) = 0.000582533 (1.50636e-05)
Other time (%) = 3474.43 (89.8443)

Nlocal:    84.925 ave 1062 max 0 min
Histogram: 32 4 1 1 0 0 0 0 0 2
Nghost:    14.35 ave 171 max 0 min
Histogram: 36 0 0 0 0 2 0 0 1 1
Neighs:    9.25 ave 140 max 0 min
Histogram: 36 0 1 0 0 1 0 1 0 1

Total # of neighbors = 370
Ave neighs/atom = 0.10892
Neighbor list builds = 68646
Dangerous builds = 11624
write_dump all custom dump.atom_info_ac_* id type x y z radius vx vy vz density #
run 308641
Setting up run at Sun Nov 27 22:34:20 2022

Memory usage per processor = 964.609 Mbytes
    Step    Atoms         KinEng            CPU 
 6172822     3397       1.103665              0 
 6481463     3304      1.4056713      3758.5359 
Loop time of 3758.54 on 40 procs for 308641 steps with 3304 atoms, finish time Sun Nov 27 23:36:59 2022


Pair  time (%) = 0.973797 (0.0259089)
Neigh time (%) = 162.839 (4.33251)
Comm  time (%) = 182.75 (4.86227)
Outpt time (%) = 0.000564616 (1.50222e-05)
Other time (%) = 3411.97 (90.7793)

Nlocal:    82.6 ave 1027 max 0 min
Histogram: 32 4 1 1 0 0 0 0 0 2
Nghost:    12.875 ave 140 max 0 min
Histogram: 36 0 0 0 0 0 1 1 0 2
Neighs:    7.95 ave 120 max 0 min
Histogram: 36 0 1 0 1 0 0 0 1 1

Total # of neighbors = 318
Ave neighs/atom = 0.096247
Neighbor list builds = 60423
Dangerous builds = 10340
write_dump all custom dump.atom_info_ac_* id type x y z radius vx vy vz density #
run 308641
Setting up run at Sun Nov 27 23:36:59 2022

Memory usage per processor = 964.609 Mbytes
    Step    Atoms         KinEng            CPU 
 6481463     3304      1.4056713              0 
 6790104     3191      1.1510812      3884.3323 
Loop time of 3884.33 on 40 procs for 308641 steps with 3191 atoms, finish time Mon Nov 28 00:41:43 2022


Pair  time (%) = 0.968721 (0.0249392)
Neigh time (%) = 188.228 (4.84583)
Comm  time (%) = 219.428 (5.64905)
Outpt time (%) = 0.000491281 (1.26478e-05)
Other time (%) = 3475.71 (89.4802)

Nlocal:    79.775 ave 977 max 0 min
Histogram: 32 4 0 2 0 0 0 0 0 2
Nghost:    11.875 ave 137 max 0 min
Histogram: 36 0 0 0 1 1 0 0 0 2
Neighs:    6.275 ave 89 max 0 min
Histogram: 36 0 0 0 2 0 0 0 1 1

Total # of neighbors = 251
Ave neighs/atom = 0.0786587
Neighbor list builds = 69852
Dangerous builds = 8867
write_dump all custom dump.atom_info_ac_* id type x y z radius vx vy vz density #
run 308641
Setting up run at Mon Nov 28 00:41:43 2022

Memory usage per processor = 964.609 Mbytes
    Step    Atoms         KinEng            CPU 
 6790104     3191      1.1510812              0 
 7098745     3064     0.92762622      3782.7911 
Loop time of 3782.79 on 40 procs for 308641 steps with 3064 atoms, finish time Mon Nov 28 01:44:46 2022


Pair  time (%) = 0.934201 (0.0246961)
Neigh time (%) = 170.798 (4.51514)
Comm  time (%) = 197.872 (5.23084)
Outpt time (%) = 0.000508091 (1.34316e-05)
Other time (%) = 3413.19 (90.2293)

Nlocal:    76.6 ave 895 max 0 min
Histogram: 32 4 0 2 0 0 0 0 0 2
Nghost:    11.15 ave 139 max 0 min
Histogram: 36 0 0 0 2 0 0 0 1 1
Neighs:    5.85 ave 89 max 0 min
Histogram: 36 0 0 1 1 0 0 1 0 1

Total # of neighbors = 234
Ave neighs/atom = 0.0763708
Neighbor list builds = 63345
Dangerous builds = 11116
write_dump all custom dump.atom_info_ac_* id type x y z radius vx vy vz density #
run 308641
Setting up run at Mon Nov 28 01:44:46 2022

Memory usage per processor = 964.609 Mbytes
    Step    Atoms         KinEng            CPU 
 7098745     3064     0.92762622              0 
 7407386     2931      1.0947995      3974.3093 
Loop time of 3974.31 on 40 procs for 308641 steps with 2931 atoms, finish time Mon Nov 28 02:51:00 2022


Pair  time (%) = 0.924913 (0.0232723)
Neigh time (%) = 212.718 (5.35233)
Comm  time (%) = 252.419 (6.35128)
Outpt time (%) = 0.000548456 (1.38e-05)
Other time (%) = 3508.25 (88.2731)

Nlocal:    73.275 ave 812 max 0 min
Histogram: 32 3 1 2 0 0 0 0 0 2
Nghost:    10.25 ave 118 max 0 min
Histogram: 36 0 0 0 0 2 0 0 0 2
Neighs:    4 ave 57 max 0 min
Histogram: 35 1 0 1 1 0 0 0 1 1

Total # of neighbors = 160
Ave neighs/atom = 0.0545889
Neighbor list builds = 78866
Dangerous builds = 7372
write_dump all custom dump.atom_info_ac_* id type x y z radius vx vy vz density #
run 308641
Setting up run at Mon Nov 28 02:51:00 2022

Memory usage per processor = 964.609 Mbytes
    Step    Atoms         KinEng            CPU 
 7407386     2931      1.0947995              0 
 7716027     2785       1.056658      4140.6747 
Loop time of 4140.68 on 40 procs for 308641 steps with 2785 atoms, finish time Mon Nov 28 04:00:01 2022


Pair  time (%) = 0.93552 (0.0225934)
Neigh time (%) = 250.283 (6.04449)
Comm  time (%) = 287.139 (6.93459)
Outpt time (%) = 0.000466667 (1.12703e-05)
Other time (%) = 3602.32 (86.9983)

Nlocal:    69.625 ave 787 max 0 min
Histogram: 32 4 0 2 0 0 0 0 0 2
Nghost:    8.75 ave 110 max 0 min
Histogram: 35 1 0 0 2 0 0 0 1 1
Neighs:    2.925 ave 44 max 0 min
Histogram: 36 0 2 0 0 0 0 0 1 1

Total # of neighbors = 117
Ave neighs/atom = 0.0420108
Neighbor list builds = 92784
Dangerous builds = 15812
write_dump all custom dump.atom_info_ac_* id type x y z radius vx vy vz density #
run 308641
Setting up run at Mon Nov 28 04:00:01 2022

Memory usage per processor = 964.609 Mbytes
    Step    Atoms         KinEng            CPU 
 7716027     2785       1.056658              0 
 8024668     2655     0.98602444      4135.7712 
Loop time of 4135.77 on 40 procs for 308641 steps with 2655 atoms, finish time Mon Nov 28 05:08:57 2022


Pair  time (%) = 0.913639 (0.0220911)
Neigh time (%) = 249.502 (6.03277)
Comm  time (%) = 290.433 (7.02245)
Outpt time (%) = 0.000571342 (1.38146e-05)
Other time (%) = 3594.92 (86.9227)

Nlocal:    66.375 ave 733 max 0 min
Histogram: 32 2 2 2 0 0 0 0 0 2
Nghost:    8.725 ave 99 max 0 min
Histogram: 35 1 0 1 0 1 0 0 0 2
Neighs:    2.9 ave 38 max 0 min
Histogram: 34 0 4 0 0 0 0 0 1 1

Total # of neighbors = 116
Ave neighs/atom = 0.0436911
Neighbor list builds = 92496
Dangerous builds = 12650
write_dump all custom dump.atom_info_ac_* id type x y z radius vx vy vz density #
run 308641
Setting up run at Mon Nov 28 05:08:57 2022

Memory usage per processor = 964.609 Mbytes
    Step    Atoms         KinEng            CPU 
 8024668     2655     0.98602444              0 
 8333309     2522      1.3863504      3802.8944 
Loop time of 3802.89 on 40 procs for 308641 steps with 2522 atoms, finish time Mon Nov 28 06:12:20 2022


Pair  time (%) = 0.842129 (0.0221444)
Neigh time (%) = 177.297 (4.66216)
Comm  time (%) = 211.47 (5.56075)
Outpt time (%) = 0.000450108 (1.18359e-05)
Other time (%) = 3413.29 (89.7549)

Nlocal:    63.05 ave 679 max 0 min
Histogram: 32 3 1 2 0 0 0 0 0 2
Nghost:    7.775 ave 88 max 0 min
Histogram: 36 0 0 0 2 0 0 0 0 2
Neighs:    2.25 ave 32 max 0 min
Histogram: 35 1 2 0 0 0 0 0 0 2

Total # of neighbors = 90
Ave neighs/atom = 0.035686
Neighbor list builds = 65767
Dangerous builds = 11395
write_dump all custom dump.atom_info_ac_* id type x y z radius vx vy vz density #
run 308641
Setting up run at Mon Nov 28 06:16:18 2022

Memory usage per processor = 964.609 Mbytes
    Step    Atoms         KinEng            CPU 
 8333309     2522      1.3863504              0 
 8641950     2392      1.0719619       3800.717 
Loop time of 3800.72 on 40 procs for 308641 steps with 2392 atoms, finish time Mon Nov 28 07:19:39 2022


Pair  time (%) = 0.826266 (0.0217397)
Neigh time (%) = 176.227 (4.63667)
Comm  time (%) = 209.947 (5.52389)
Outpt time (%) = 0.000677225 (1.78183e-05)
Other time (%) = 3413.72 (89.8177)

Nlocal:    59.8 ave 657 max 0 min
Histogram: 32 3 2 1 0 0 0 0 0 2
Nghost:    7.175 ave 93 max 0 min
Histogram: 36 0 0 0 2 0 0 0 1 1
Neighs:    2.025 ave 28 max 0 min
Histogram: 33 3 1 1 0 0 0 0 1 1

Total # of neighbors = 81
Ave neighs/atom = 0.0338629
Neighbor list builds = 65448
Dangerous builds = 8202
write_dump all custom dump.atom_info_ac_* id type x y z radius vx vy vz density #
run 308641
Setting up run at Mon Nov 28 07:19:39 2022

Memory usage per processor = 964.609 Mbytes
    Step    Atoms         KinEng            CPU 
 8641950     2392      1.0719619              0 
 8950591     2260      1.0938768      3908.8986 
Loop time of 3908.9 on 40 procs for 308641 steps with 2260 atoms, finish time Mon Nov 28 08:24:48 2022


Pair  time (%) = 0.830263 (0.0212403)
Neigh time (%) = 203.999 (5.21883)
Comm  time (%) = 226.812 (5.80245)
Outpt time (%) = 0.000506607 (1.29604e-05)
Other time (%) = 3477.26 (88.9575)

Nlocal:    56.5 ave 620 max 0 min
Histogram: 32 3 1 2 0 0 0 0 0 2
Nghost:    7 ave 98 max 0 min
Histogram: 36 0 1 1 0 0 1 0 0 1
Neighs:    2.1 ave 35 max 0 min
Histogram: 35 1 1 1 1 0 0 0 0 1

Total # of neighbors = 84
Ave neighs/atom = 0.0371681
Neighbor list builds = 75808
Dangerous builds = 11585
write_dump all custom dump.atom_info_ac_* id type x y z radius vx vy vz density #
run 308641
Setting up run at Mon Nov 28 08:24:48 2022

Memory usage per processor = 964.609 Mbytes
    Step    Atoms         KinEng            CPU 
 8950591     2260      1.0938768              0 
 9259232     2144     0.92284252      3834.0188 
Loop time of 3834.02 on 40 procs for 308641 steps with 2144 atoms, finish time Mon Nov 28 09:28:42 2022


Pair  time (%) = 0.791408 (0.0206417)
Neigh time (%) = 185.649 (4.84215)
Comm  time (%) = 207.755 (5.41872)
Outpt time (%) = 0.000548312 (1.43012e-05)
Other time (%) = 3439.82 (89.7185)

Nlocal:    53.6 ave 573 max 0 min
Histogram: 32 2 2 2 0 0 0 0 0 2
Nghost:    6.125 ave 79 max 0 min
Histogram: 35 1 1 1 0 0 0 0 1 1
Neighs:    1.55 ave 17 max 0 min
Histogram: 33 3 0 0 1 0 0 1 0 2

Total # of neighbors = 62
Ave neighs/atom = 0.0289179
Neighbor list builds = 69021
Dangerous builds = 5765
write_dump all custom dump.atom_info_ac_* id type x y z radius vx vy vz density #
run 308641
Setting up run at Mon Nov 28 09:28:42 2022

Memory usage per processor = 964.609 Mbytes
    Step    Atoms         KinEng            CPU 
 9259232     2144     0.92284252              0 
 9567873     2026     0.98524831      3864.2427 
Loop time of 3864.24 on 40 procs for 308641 steps with 2026 atoms, finish time Mon Nov 28 10:33:07 2022


Pair  time (%) = 0.792932 (0.0205197)
Neigh time (%) = 194.788 (5.04079)
Comm  time (%) = 219.584 (5.68245)
Outpt time (%) = 0.000523247 (1.35407e-05)
Other time (%) = 3449.08 (89.2562)

Nlocal:    50.65 ave 543 max 0 min
Histogram: 32 0 4 2 0 0 0 0 0 2
Nghost:    6.25 ave 82 max 0 min
Histogram: 36 0 0 2 0 0 0 1 0 1
Neighs:    1 ave 12 max 0 min
Histogram: 32 2 2 1 1 0 1 0 0 1

Total # of neighbors = 40
Ave neighs/atom = 0.0197433
Neighbor list builds = 72427
Dangerous builds = 8670
write_dump all custom dump.atom_info_ac_* id type x y z radius vx vy vz density #
run 308641
Setting up run at Mon Nov 28 10:33:07 2022

Memory usage per processor = 964.609 Mbytes
    Step    Atoms         KinEng            CPU 
 9567873     2026     0.98524831              0 
 9876514     1911      1.1416459      3793.9136 
Loop time of 3793.91 on 40 procs for 308641 steps with 1911 atoms, finish time Mon Nov 28 11:36:21 2022


Pair  time (%) = 0.768431 (0.0202543)
Neigh time (%) = 180.626 (4.76094)
Comm  time (%) = 208.369 (5.49218)
Outpt time (%) = 0.000562278 (1.48205e-05)
Other time (%) = 3404.15 (89.7266)

Nlocal:    47.775 ave 507 max 0 min
Histogram: 32 1 4 1 0 0 0 0 0 2
Nghost:    6.4 ave 76 max 0 min
Histogram: 33 3 1 1 0 0 0 0 1 1
Neighs:    1.175 ave 16 max 0 min
Histogram: 32 4 0 1 0 2 0 0 0 1

Total # of neighbors = 47
Ave neighs/atom = 0.0245945
Neighbor list builds = 67193
Dangerous builds = 12384
write_dump all custom dump.atom_info_ac_* id type x y z radius vx vy vz density #
run 308641
Setting up run at Mon Nov 28 11:36:21 2022

Memory usage per processor = 964.609 Mbytes
    Step    Atoms         KinEng            CPU 
 9876514     1911      1.1416459              0 
10185155     1795      1.0990833      3861.9765 
Loop time of 3861.98 on 40 procs for 308641 steps with 1795 atoms, finish time Mon Nov 28 12:40:43 2022


Pair  time (%) = 0.761169 (0.0197093)
Neigh time (%) = 179.086 (4.63716)
Comm  time (%) = 189.927 (4.91787)
Outpt time (%) = 0.0199535 (0.000516665)
Other time (%) = 3492.18 (90.4247)

Nlocal:    44.875 ave 492 max 0 min
Histogram: 32 3 1 2 0 0 0 0 1 1
Nghost:    5.3 ave 66 max 0 min
Histogram: 34 2 0 2 0 0 0 0 1 1
Neighs:    0.925 ave 13 max 0 min
Histogram: 34 2 0 1 1 0 1 0 0 1

Total # of neighbors = 37
Ave neighs/atom = 0.0206128
Neighbor list builds = 66689
Dangerous builds = 9163
write_dump all custom dump.atom_info_ac_* id type x y z radius vx vy vz density #
run 308641
Setting up run at Mon Nov 28 12:40:43 2022

Memory usage per processor = 964.609 Mbytes
    Step    Atoms         KinEng            CPU 
10185155     1795      1.0990833              0 
10493796     1706      2.1453605      3901.0912 
Loop time of 3901.09 on 40 procs for 308641 steps with 1706 atoms, finish time Mon Nov 28 13:45:44 2022


Pair  time (%) = 0.744921 (0.0190952)
Neigh time (%) = 164.804 (4.22456)
Comm  time (%) = 174.023 (4.46088)
Outpt time (%) = 0.00580002 (0.000148677)
Other time (%) = 3561.51 (91.2953)

Nlocal:    42.65 ave 478 max 0 min
Histogram: 32 1 5 0 0 0 0 0 1 1
Nghost:    4.6 ave 51 max 0 min
Histogram: 35 1 0 1 0 1 0 0 0 2
Neighs:    1.15 ave 15 max 0 min
Histogram: 34 1 2 1 0 0 0 0 0 2

Total # of neighbors = 46
Ave neighs/atom = 0.0269637
Neighbor list builds = 61373
Dangerous builds = 9915
write_dump all custom dump.atom_info_ac_* id type x y z radius vx vy vz density #
run 308641
Setting up run at Mon Nov 28 13:45:44 2022

Memory usage per processor = 964.609 Mbytes
    Step    Atoms         KinEng            CPU 
10493796     1706      2.1453605              0 
10802437     1615      1.0291819      3746.2532 
Loop time of 3746.25 on 40 procs for 308641 steps with 1615 atoms, finish time Mon Nov 28 14:48:10 2022


Pair  time (%) = 0.736086 (0.0196486)
Neigh time (%) = 168.15 (4.48849)
Comm  time (%) = 179.386 (4.78841)
Outpt time (%) = 0.00582727 (0.000155549)
Other time (%) = 3397.98 (90.7033)

Nlocal:    40.375 ave 460 max 0 min
Histogram: 32 2 4 0 0 0 0 0 1 1
Nghost:    4.65 ave 54 max 0 min
Histogram: 35 1 0 1 0 1 0 0 0 2
Neighs:    0.65 ave 9 max 0 min
Histogram: 33 2 2 0 1 0 0 1 0 1

Total # of neighbors = 26
Ave neighs/atom = 0.0160991
Neighbor list builds = 62656
Dangerous builds = 8375
write_dump all custom dump.atom_info_ac_* id type x y z radius vx vy vz density #
run 308641
Setting up run at Mon Nov 28 14:48:10 2022

Memory usage per processor = 964.609 Mbytes
    Step    Atoms         KinEng            CPU 
10802437     1615      1.0291819              0 
11111078     1508      1.0057411      3882.4177 
Loop time of 3882.42 on 40 procs for 308641 steps with 1508 atoms, finish time Mon Nov 28 15:52:53 2022


Pair  time (%) = 0.744299 (0.019171)
Neigh time (%) = 182.995 (4.71344)
Comm  time (%) = 182.05 (4.68908)
Outpt time (%) = 0.000547415 (1.40998e-05)
Other time (%) = 3516.63 (90.5783)

Nlocal:    37.7 ave 436 max 0 min
Histogram: 32 3 2 1 0 0 0 0 1 1
Nghost:    4.525 ave 54 max 0 min
Histogram: 35 1 0 2 0 0 0 0 0 2
Neighs:    0.825 ave 8 max 0 min
Histogram: 33 1 2 0 0 0 0 1 2 1

Total # of neighbors = 33
Ave neighs/atom = 0.0218833
Neighbor list builds = 68253
Dangerous builds = 12578
write_dump all custom dump.atom_info_ac_* id type x y z radius vx vy vz density #
run 308641
Setting up run at Mon Nov 28 15:52:53 2022

Memory usage per processor = 964.609 Mbytes
    Step    Atoms         KinEng            CPU 
11111078     1508      1.0057411              0 
11419719     1448     0.88723741      3566.4506 
Loop time of 3566.45 on 40 procs for 308641 steps with 1448 atoms, finish time Mon Nov 28 16:52:19 2022


Pair  time (%) = 0.709869 (0.0199041)
Neigh time (%) = 130.615 (3.66234)
Comm  time (%) = 124.568 (3.49277)
Outpt time (%) = 0.00054635 (1.53191e-05)
Other time (%) = 3310.56 (92.825)

Nlocal:    36.2 ave 410 max 0 min
Histogram: 31 3 3 1 0 0 0 0 1 1
Nghost:    3.75 ave 47 max 0 min
Histogram: 34 2 1 0 1 0 0 0 1 1
Neighs:    0.8 ave 11 max 0 min
Histogram: 34 2 1 0 1 0 0 1 0 1

Total # of neighbors = 32
Ave neighs/atom = 0.0220994
Neighbor list builds = 48764
Dangerous builds = 3441
write_dump all custom dump.atom_info_ac_* id type x y z radius vx vy vz density #
run 308641
Setting up run at Mon Nov 28 16:52:19 2022

Memory usage per processor = 964.609 Mbytes
    Step    Atoms         KinEng            CPU 
11419719     1448     0.88723741              0 
11728360     1381     0.86589142      3555.6588 
Loop time of 3555.66 on 40 procs for 308641 steps with 1381 atoms, finish time Mon Nov 28 17:51:35 2022


Pair  time (%) = 0.70297 (0.0197704)
Neigh time (%) = 123.924 (3.48526)
Comm  time (%) = 111.329 (3.13105)
Outpt time (%) = 0.000566116 (1.59216e-05)
Other time (%) = 3319.7 (93.3639)

Nlocal:    34.525 ave 391 max 0 min
Histogram: 31 4 2 1 0 0 0 0 1 1
Nghost:    3.625 ave 48 max 0 min
Histogram: 35 1 1 1 0 0 0 0 0 2
Neighs:    0.7 ave 14 max 0 min
Histogram: 36 1 1 1 0 0 0 0 0 1

Total # of neighbors = 28
Ave neighs/atom = 0.0202752
Neighbor list builds = 46270
Dangerous builds = 4256
write_dump all custom dump.atom_info_ac_* id type x y z radius vx vy vz density #
run 308641
Setting up run at Mon Nov 28 17:51:35 2022

Memory usage per processor = 964.609 Mbytes
    Step    Atoms         KinEng            CPU 
11728360     1381     0.86589142              0 
12037001     1333     0.76591982      3526.9581 
Loop time of 3526.96 on 40 procs for 308641 steps with 1333 atoms, finish time Mon Nov 28 18:50:22 2022


Pair  time (%) = 0.691986 (0.0196199)
Neigh time (%) = 118.762 (3.36725)
Comm  time (%) = 113.732 (3.22466)
Outpt time (%) = 0.00052106 (1.47736e-05)
Other time (%) = 3293.77 (93.3884)

Nlocal:    33.325 ave 367 max 0 min
Histogram: 31 4 2 1 0 0 0 0 0 2
Nghost:    3.6 ave 47 max 0 min
Histogram: 36 0 1 1 0 0 0 0 1 1
Neighs:    0.425 ave 5 max 0 min
Histogram: 34 0 1 0 3 0 0 0 0 2

Total # of neighbors = 17
Ave neighs/atom = 0.0127532
Neighbor list builds = 44375
Dangerous builds = 4233
write_dump all custom dump.atom_info_ac_* id type x y z radius vx vy vz density #
run 308641
Setting up run at Mon Nov 28 18:50:23 2022

Memory usage per processor = 964.609 Mbytes
    Step    Atoms         KinEng            CPU 
12037001     1333     0.76591982              0 
12345642     1282     0.76307483      3450.2677 
Loop time of 3450.27 on 40 procs for 308641 steps with 1282 atoms, finish time Mon Nov 28 19:47:54 2022


Pair  time (%) = 0.68648 (0.0198964)
Neigh time (%) = 105.491 (3.05749)
Comm  time (%) = 86.9578 (2.52032)
Outpt time (%) = 0.00054739 (1.58651e-05)
Other time (%) = 3257.13 (94.4023)

Nlocal:    32.05 ave 359 max 0 min
Histogram: 32 2 4 0 0 0 0 0 0 2
Nghost:    3.65 ave 40 max 0 min
Histogram: 33 3 0 1 0 0 0 1 0 2
Neighs:    0.45 ave 7 max 0 min
Histogram: 34 3 1 0 0 0 0 0 1 1

Total # of neighbors = 18
Ave neighs/atom = 0.0140406
Neighbor list builds = 39404
Dangerous builds = 8053
write_dump all custom dump.atom_info_ac_* id type x y z radius vx vy vz density #
run 308641
Setting up run at Mon Nov 28 19:47:54 2022

Memory usage per processor = 964.609 Mbytes
    Step    Atoms         KinEng            CPU 
12345642     1282     0.76307483              0 
12654283     1230      1.3054743      3585.2709 
Loop time of 3585.27 on 40 procs for 308641 steps with 1230 atoms, finish time Mon Nov 28 20:47:39 2022


Pair  time (%) = 0.690944 (0.0192717)
Neigh time (%) = 137.688 (3.84037)
Comm  time (%) = 116.476 (3.24873)
Outpt time (%) = 0.00613072 (0.000170997)
Other time (%) = 3330.41 (92.8915)

Nlocal:    30.75 ave 346 max 0 min
Histogram: 32 1 5 0 0 0 0 0 0 2
Nghost:    3.85 ave 46 max 0 min
Histogram: 33 3 0 0 1 1 0 0 0 2
Neighs:    0.65 ave 10 max 0 min
Histogram: 34 1 2 1 0 0 0 0 1 1

Total # of neighbors = 26
Ave neighs/atom = 0.0211382
Neighbor list builds = 51485
Dangerous builds = 2664
write_dump all custom dump.atom_info_ac_* id type x y z radius vx vy vz density #
run 308641
Setting up run at Mon Nov 28 20:47:39 2022

Memory usage per processor = 964.609 Mbytes
    Step    Atoms         KinEng            CPU 
12654283     1230      1.3054743              0 
12962924     1181     0.67018274      3475.9319 
Loop time of 3475.93 on 40 procs for 308641 steps with 1181 atoms, finish time Mon Nov 28 21:45:35 2022


Pair  time (%) = 0.677111 (0.01948)
Neigh time (%) = 113.853 (3.27548)
Comm  time (%) = 97.9463 (2.81784)
Outpt time (%) = 0.000540736 (1.55566e-05)
Other time (%) = 3263.45 (93.8872)

Nlocal:    29.525 ave 333 max 0 min
Histogram: 32 3 3 0 0 0 0 0 0 2
Nghost:    3.4 ave 40 max 0 min
Histogram: 34 2 0 0 2 0 0 0 0 2
Neighs:    0.4 ave 8 max 0 min
Histogram: 35 2 0 2 0 0 0 0 0 1

Total # of neighbors = 16
Ave neighs/atom = 0.0135478
Neighbor list builds = 42581
Dangerous builds = 4644
write_dump all custom dump.atom_info_ac_* id type x y z radius vx vy vz density #
run 308641
Setting up run at Mon Nov 28 21:45:35 2022

Memory usage per processor = 964.609 Mbytes
    Step    Atoms         KinEng            CPU 
12962924     1181     0.67018274              0 
13271565     1139     0.60374294      3468.3852 
Loop time of 3468.39 on 40 procs for 308641 steps with 1139 atoms, finish time Mon Nov 28 22:43:24 2022


Pair  time (%) = 0.669233 (0.0192952)
Neigh time (%) = 111.988 (3.22882)
Comm  time (%) = 97.0487 (2.7981)
Outpt time (%) = 0.00597001 (0.000172126)
Other time (%) = 3258.67 (93.9536)

Nlocal:    28.475 ave 315 max 0 min
Histogram: 31 4 3 0 0 0 0 0 0 2
Nghost:    3.3 ave 40 max 0 min
Histogram: 33 3 0 0 2 0 0 0 0 2
Neighs:    0.375 ave 5 max 0 min
Histogram: 33 0 3 0 2 0 1 0 0 1

Total # of neighbors = 15
Ave neighs/atom = 0.0131694
Neighbor list builds = 41877
Dangerous builds = 3006
write_dump all custom dump.atom_info_ac_* id type x y z radius vx vy vz density #
run 308641
Setting up run at Mon Nov 28 22:43:24 2022

Memory usage per processor = 964.609 Mbytes
    Step    Atoms         KinEng            CPU 
13271565     1139     0.60374294              0 
13580206     1096     0.59937555      3444.2159 
Loop time of 3444.22 on 40 procs for 308641 steps with 1096 atoms, finish time Mon Nov 28 23:40:48 2022


Pair  time (%) = 0.665207 (0.0193137)
Neigh time (%) = 105.705 (3.06905)
Comm  time (%) = 83.9284 (2.43679)
Outpt time (%) = 0.00595713 (0.000172961)
Other time (%) = 3253.91 (94.4747)

Nlocal:    27.4 ave 308 max 0 min
Histogram: 32 4 1 1 0 0 0 0 0 2
Nghost:    2.975 ave 36 max 0 min
Histogram: 35 1 0 0 1 1 0 0 1 1
Neighs:    0.325 ave 6 max 0 min
Histogram: 35 3 0 0 0 0 1 0 0 1

Total # of neighbors = 13
Ave neighs/atom = 0.0118613
Neighbor list builds = 39553
Dangerous builds = 3196
write_dump all custom dump.atom_info_ac_* id type x y z radius vx vy vz density #
run 308641
Setting up run at Mon Nov 28 23:40:48 2022

Memory usage per processor = 964.609 Mbytes
    Step    Atoms         KinEng            CPU 
13580206     1096     0.59937555              0 
13888847     1050     0.74131674      3468.4186 
Loop time of 3468.42 on 40 procs for 308641 steps with 1050 atoms, finish time Tue Nov 29 00:38:36 2022


Pair  time (%) = 0.664278 (0.0191522)
Neigh time (%) = 113.404 (3.26961)
Comm  time (%) = 87.3344 (2.51799)
Outpt time (%) = 0.000501661 (1.44637e-05)
Other time (%) = 3267.02 (94.1932)

Nlocal:    26.25 ave 303 max 0 min
Histogram: 30 5 3 0 0 0 0 0 0 2
Nghost:    3.05 ave 37 max 0 min
Histogram: 35 1 0 0 1 1 0 0 1 1
Neighs:    0.2 ave 4 max 0 min
Histogram: 36 0 2 0 0 1 0 0 0 1

Total # of neighbors = 8
Ave neighs/atom = 0.00761905
Neighbor list builds = 42425
Dangerous builds = 3520
write_dump all custom dump.atom_info_ac_* id type x y z radius vx vy vz density #
run 308641
Setting up run at Tue Nov 29 00:38:36 2022

Memory usage per processor = 964.609 Mbytes
    Step    Atoms         KinEng            CPU 
13888847     1050     0.74131674              0 
14197488     1002      26.927389      3514.5589 
Loop time of 3514.56 on 40 procs for 308641 steps with 1002 atoms, finish time Tue Nov 29 01:37:11 2022


Pair  time (%) = 0.659397 (0.0187619)
Neigh time (%) = 122.87 (3.49602)
Comm  time (%) = 95.3859 (2.71402)
Outpt time (%) = 0.00587757 (0.000167235)
Other time (%) = 3295.64 (93.771)

Nlocal:    25.05 ave 296 max 0 min
Histogram: 31 4 3 0 0 0 0 0 1 1
Nghost:    3.1 ave 32 max 0 min
Histogram: 35 1 0 1 0 0 0 0 0 3
Neighs:    0.35 ave 6 max 0 min
Histogram: 36 1 0 1 0 0 0 0 1 1

Total # of neighbors = 14
Ave neighs/atom = 0.0139721
Neighbor list builds = 46002
Dangerous builds = 6687
write_dump all custom dump.atom_info_ac_* id type x y z radius vx vy vz density #
run 308641
Setting up run at Tue Nov 29 01:37:11 2022

Memory usage per processor = 964.609 Mbytes
    Step    Atoms         KinEng            CPU 
14197488     1002      26.927389              0 
14506129      962      1.2149622      3626.9139 
Loop time of 3626.91 on 40 procs for 308641 steps with 962 atoms, finish time Tue Nov 29 02:37:38 2022


Pair  time (%) = 0.669782 (0.018467)
Neigh time (%) = 149.387 (4.11886)
Comm  time (%) = 124.251 (3.42579)
Outpt time (%) = 0.00610105 (0.000168216)
Other time (%) = 3352.6 (92.4367)

Nlocal:    24.05 ave 290 max 0 min
Histogram: 32 4 2 0 0 0 0 0 1 1
Nghost:    2.8 ave 32 max 0 min
Histogram: 35 1 0 1 0 0 1 0 0 2
Neighs:    0.225 ave 2 max 0 min
Histogram: 34 0 0 0 0 3 0 0 0 3

Total # of neighbors = 9
Ave neighs/atom = 0.00935551
Neighbor list builds = 55994
Dangerous builds = 7190
write_dump all custom dump.atom_info_ac_* id type x y z radius vx vy vz density #
run 308641
Setting up run at Tue Nov 29 02:37:38 2022

Memory usage per processor = 964.609 Mbytes
    Step    Atoms         KinEng            CPU 
14506129      962      1.2149622              0 
14814770      908     0.46724246      3522.6597 
Loop time of 3522.66 on 40 procs for 308641 steps with 908 atoms, finish time Tue Nov 29 03:36:21 2022


Pair  time (%) = 0.660522 (0.0187506)
Neigh time (%) = 125.993 (3.57665)
Comm  time (%) = 87.1828 (2.47491)
Outpt time (%) = 0.00604873 (0.000171709)
Other time (%) = 3308.82 (93.9295)

Nlocal:    22.7 ave 280 max 0 min
Histogram: 32 4 2 0 0 0 0 0 1 1
Nghost:    2.625 ave 35 max 0 min
Histogram: 35 1 1 0 1 0 0 0 1 1
Neighs:    0.25 ave 4 max 0 min
Histogram: 35 0 2 0 0 2 0 0 0 1

Total # of neighbors = 10
Ave neighs/atom = 0.0110132
Neighbor list builds = 47224
Dangerous builds = 3757
write_dump all custom dump.atom_info_ac_* id type x y z radius vx vy vz density #
run 308641
Setting up run at Tue Nov 29 03:36:21 2022

Memory usage per processor = 964.609 Mbytes
    Step    Atoms         KinEng            CPU 
14814770      908     0.46724246              0 
15123411      877     0.50718763      3406.7269 
Loop time of 3406.73 on 40 procs for 308641 steps with 877 atoms, finish time Tue Nov 29 04:33:08 2022


Pair  time (%) = 0.642729 (0.0188665)
Neigh time (%) = 100.19 (2.94096)
Comm  time (%) = 69.4646 (2.03904)
Outpt time (%) = 0.000492931 (1.44693e-05)
Other time (%) = 3236.43 (95.0011)

Nlocal:    21.925 ave 268 max 0 min
Histogram: 33 3 2 0 0 0 0 0 0 2
Nghost:    2.575 ave 31 max 0 min
Histogram: 34 2 1 0 0 1 0 0 1 1
Neighs:    0.15 ave 2 max 0 min
Histogram: 36 0 0 0 0 2 0 0 0 2

Total # of neighbors = 6
Ave neighs/atom = 0.00684151
Neighbor list builds = 37565
Dangerous builds = 3710
write_dump all custom dump.atom_info_ac_* id type x y z radius vx vy vz density #
run 308641
Setting up run at Tue Nov 29 04:33:08 2022

Memory usage per processor = 964.609 Mbytes
    Step    Atoms         KinEng            CPU 
15123411      877     0.50718763              0 
15432052      842     0.48494328      3746.0373 
Loop time of 3746.04 on 40 procs for 308641 steps with 842 atoms, finish time Tue Nov 29 05:35:34 2022


Pair  time (%) = 0.670078 (0.0178877)
Neigh time (%) = 174.246 (4.65147)
Comm  time (%) = 116.628 (3.11338)
Outpt time (%) = 0.00059153 (1.57908e-05)
Other time (%) = 3454.49 (92.2172)

Nlocal:    21.05 ave 273 max 0 min
Histogram: 32 5 1 0 0 0 0 0 1 1
Nghost:    2.575 ave 30 max 0 min
Histogram: 34 2 0 0 1 1 0 0 0 2
Neighs:    0.275 ave 4 max 0 min
Histogram: 34 0 4 0 0 0 0 1 0 1

Total # of neighbors = 11
Ave neighs/atom = 0.0130641
Neighbor list builds = 65421
Dangerous builds = 2805
write_dump all custom dump.atom_info_ac_* id type x y z radius vx vy vz density #
run 308641
Setting up run at Tue Nov 29 05:35:34 2022

Memory usage per processor = 964.609 Mbytes
    Step    Atoms         KinEng            CPU 
15432052      842     0.48494328              0 
15740693      805      1.4614787      3661.6192 
Loop time of 3661.62 on 40 procs for 308641 steps with 805 atoms, finish time Tue Nov 29 06:36:36 2022


Pair  time (%) = 0.658975 (0.0179968)
Neigh time (%) = 155.422 (4.24463)
Comm  time (%) = 101.419 (2.76977)
Outpt time (%) = 0.000485675 (1.32639e-05)
Other time (%) = 3404.12 (92.9676)

Nlocal:    20.125 ave 261 max 0 min
Histogram: 33 4 1 0 0 0 0 0 1 1
Nghost:    2.025 ave 27 max 0 min
Histogram: 36 0 1 0 1 0 0 0 0 2
Neighs:    0.25 ave 5 max 0 min
Histogram: 35 0 3 0 1 0 0 0 0 1

Total # of neighbors = 10
Ave neighs/atom = 0.0124224
Neighbor list builds = 58350
Dangerous builds = 3620
write_dump all custom dump.atom_info_ac_* id type x y z radius vx vy vz density #
run 308641
Setting up run at Tue Nov 29 06:36:36 2022

Memory usage per processor = 964.609 Mbytes
    Step    Atoms         KinEng            CPU 
15740693      805      1.4614787              0 
16049334      773     0.44158253      3401.7579 
Loop time of 3401.76 on 40 procs for 308641 steps with 773 atoms, finish time Tue Nov 29 07:33:18 2022


Pair  time (%) = 0.62924 (0.0184975)
Neigh time (%) = 98.2225 (2.8874)
Comm  time (%) = 68.5948 (2.01645)
Outpt time (%) = 0.000516797 (1.5192e-05)
Other time (%) = 3234.31 (95.0776)

Nlocal:    19.325 ave 258 max 0 min
Histogram: 34 2 2 0 0 0 0 0 1 1
Nghost:    2.35 ave 32 max 0 min
Histogram: 35 2 0 0 0 1 0 1 0 1
Neighs:    0.15 ave 4 max 0 min
Histogram: 37 0 2 0 0 0 0 0 0 1

Total # of neighbors = 6
Ave neighs/atom = 0.00776197
Neighbor list builds = 36875
Dangerous builds = 2777
write_dump all custom dump.atom_info_ac_* id type x y z radius vx vy vz density #
run 308641
Setting up run at Tue Nov 29 07:33:18 2022

Memory usage per processor = 964.609 Mbytes
    Step    Atoms         KinEng            CPU 
16049334      773     0.44158253              0 
16357975      747     0.37956782      3521.8349 
Loop time of 3521.84 on 40 procs for 308641 steps with 747 atoms, finish time Tue Nov 29 08:32:00 2022


Pair  time (%) = 0.635098 (0.0180331)
Neigh time (%) = 125.309 (3.55807)
Comm  time (%) = 88.8152 (2.52184)
Outpt time (%) = 0.000633508 (1.7988e-05)
Other time (%) = 3307.07 (93.902)

Nlocal:    18.675 ave 246 max 0 min
Histogram: 33 5 0 0 0 0 0 0 1 1
Nghost:    2.225 ave 31 max 0 min
Histogram: 36 0 1 0 0 1 0 1 0 1
Neighs:    0.1 ave 2 max 0 min
Histogram: 37 0 0 0 0 2 0 0 0 1

Total # of neighbors = 4
Ave neighs/atom = 0.00535475
Neighbor list builds = 47061
Dangerous builds = 6064
write_dump all custom dump.atom_info_ac_* id type x y z radius vx vy vz density #
run 308641
Setting up run at Tue Nov 29 08:32:00 2022

Memory usage per processor = 964.609 Mbytes
    Step    Atoms         KinEng            CPU 
16357975      747     0.37956782              0 
16666616      720     0.39331559      3391.2857 
Loop time of 3391.29 on 40 procs for 308641 steps with 720 atoms, finish time Tue Nov 29 09:28:31 2022


Pair  time (%) = 0.624092 (0.0184028)
Neigh time (%) = 94.9224 (2.79901)
Comm  time (%) = 69.0525 (2.03617)
Outpt time (%) = 0.00601958 (0.000177501)
Other time (%) = 3226.68 (95.1462)

Nlocal:    18 ave 233 max 0 min
Histogram: 34 3 1 0 0 0 0 0 0 2
Nghost:    2.3 ave 34 max 0 min
Histogram: 35 1 1 1 0 0 1 0 0 1
Neighs:    0.1 ave 2 max 0 min
Histogram: 37 0 0 0 0 2 0 0 0 1

Total # of neighbors = 4
Ave neighs/atom = 0.00555556
Neighbor list builds = 35678
Dangerous builds = 3377
write_dump all custom dump.atom_info_ac_* id type x y z radius vx vy vz density #
run 308641
Setting up run at Tue Nov 29 09:28:31 2022

Memory usage per processor = 964.609 Mbytes
    Step    Atoms         KinEng            CPU 
16666616      720     0.39331559              0 
16975257      693     0.34525214      3361.3705 
Loop time of 3361.37 on 40 procs for 308641 steps with 693 atoms, finish time Tue Nov 29 10:24:32 2022


Pair  time (%) = 0.616096 (0.0183287)
Neigh time (%) = 85.0236 (2.52943)
Comm  time (%) = 56.4498 (1.67937)
Outpt time (%) = 0.000483189 (1.43747e-05)
Other time (%) = 3219.28 (95.7729)

Nlocal:    17.325 ave 221 max 0 min
Histogram: 33 4 1 0 0 0 0 0 0 2
Nghost:    2.05 ave 29 max 0 min
Histogram: 35 1 1 1 0 0 0 0 1 1
Neighs:    0.175 ave 3 max 0 min
Histogram: 36 0 0 2 0 0 1 0 0 1

Total # of neighbors = 7
Ave neighs/atom = 0.010101
Neighbor list builds = 31971
Dangerous builds = 882
write_dump all custom dump.atom_info_ac_* id type x y z radius vx vy vz density #
run 308641
Setting up run at Tue Nov 29 10:24:32 2022

Memory usage per processor = 964.609 Mbytes
    Step    Atoms         KinEng            CPU 
16975257      693     0.34525214              0 
17283898      673     0.30659826      3259.7027 
Loop time of 3259.7 on 40 procs for 308641 steps with 673 atoms, finish time Tue Nov 29 11:18:52 2022


Pair  time (%) = 0.612261 (0.0187827)
Neigh time (%) = 58.0702 (1.78146)
Comm  time (%) = 28.2068 (0.865317)
Outpt time (%) = 0.000214939 (6.59382e-06)
Other time (%) = 3172.81 (97.3344)

Nlocal:    16.825 ave 217 max 0 min
Histogram: 35 2 1 0 0 0 0 0 0 2
Nghost:    2.05 ave 36 max 0 min
Histogram: 36 0 2 0 0 1 0 0 0 1
Neighs:    0.125 ave 3 max 0 min
Histogram: 38 0 0 0 0 0 1 0 0 1

Total # of neighbors = 5
Ave neighs/atom = 0.00742942
Neighbor list builds = 21838
Dangerous builds = 840
write_dump all custom dump.atom_info_ac_* id type x y z radius vx vy vz density #
run 308641
Setting up run at Tue Nov 29 11:18:52 2022

Memory usage per processor = 964.609 Mbytes
    Step    Atoms         KinEng            CPU 
17283898      673     0.30659826              0 
17592539      649     0.33402085      3297.2499 
Loop time of 3297.25 on 40 procs for 308641 steps with 649 atoms, finish time Tue Nov 29 12:13:49 2022


Pair  time (%) = 0.619051 (0.0187748)
Neigh time (%) = 73.0354 (2.21504)
Comm  time (%) = 40.7868 (1.237)
Outpt time (%) = 0.000493833 (1.49771e-05)
Other time (%) = 3182.81 (96.5292)

Nlocal:    16.225 ave 213 max 0 min
Histogram: 35 2 1 0 0 0 0 0 0 2
Nghost:    1.95 ave 28 max 0 min
Histogram: 35 1 0 1 1 0 0 1 0 1
Neighs:    0.25 ave 4 max 0 min
Histogram: 36 0 1 0 0 1 0 1 0 1

Total # of neighbors = 10
Ave neighs/atom = 0.0154083
Neighbor list builds = 27448
Dangerous builds = 1798
write_dump all custom dump.atom_info_ac_* id type x y z radius vx vy vz density #
run 308641
Setting up run at Tue Nov 29 12:13:50 2022

Memory usage per processor = 964.609 Mbytes
    Step    Atoms         KinEng            CPU 
17592539      649     0.33402085              0 
17901180      631     0.22330493      3532.1759 
Loop time of 3532.18 on 40 procs for 308641 steps with 631 atoms, finish time Tue Nov 29 13:12:42 2022


Pair  time (%) = 0.627627 (0.0177688)
Neigh time (%) = 116.573 (3.30031)
Comm  time (%) = 80.1079 (2.26795)
Outpt time (%) = 0.000467312 (1.32301e-05)
Other time (%) = 3334.87 (94.414)

Nlocal:    15.775 ave 205 max 0 min
Histogram: 35 1 2 0 0 0 0 0 0 2
Nghost:    2.075 ave 35 max 0 min
Histogram: 35 1 2 0 1 0 0 0 0 1
Neighs:    0.1 ave 2 max 0 min
Histogram: 38 0 0 0 0 0 0 0 0 2

Total # of neighbors = 4
Ave neighs/atom = 0.00633914
Neighbor list builds = 43855
Dangerous builds = 3477
write_dump all custom dump.atom_info_ac_* id type x y z radius vx vy vz density #
run 308641
Setting up run at Tue Nov 29 13:12:42 2022

Memory usage per processor = 964.609 Mbytes
    Step    Atoms         KinEng            CPU 
17901180      631     0.22330493              0 
18209821      614     0.62110578      3404.8562 
Loop time of 3404.86 on 40 procs for 308641 steps with 614 atoms, finish time Tue Nov 29 14:09:27 2022


Pair  time (%) = 0.616238 (0.0180988)
Neigh time (%) = 98.5919 (2.89563)
Comm  time (%) = 52.2004 (1.53312)
Outpt time (%) = 0.000504321 (1.48118e-05)
Other time (%) = 3253.45 (95.5531)

Nlocal:    15.35 ave 209 max 0 min
Histogram: 34 2 2 0 0 0 0 0 1 1
Nghost:    1.675 ave 24 max 0 min
Histogram: 36 0 1 0 0 1 1 0 0 1
Neighs:    0.05 ave 2 max 0 min
Histogram: 39 0 0 0 0 0 0 0 0 1

Total # of neighbors = 2
Ave neighs/atom = 0.00325733
Neighbor list builds = 37071
Dangerous builds = 1031
write_dump all custom dump.atom_info_ac_* id type x y z radius vx vy vz density #
run 308641
Setting up run at Tue Nov 29 14:09:27 2022

Memory usage per processor = 964.609 Mbytes
    Step    Atoms         KinEng            CPU 
18209821      614     0.62110578              0 
18518462      599     0.28292046      3314.4065 
Loop time of 3314.41 on 40 procs for 308641 steps with 599 atoms, finish time Tue Nov 29 15:04:41 2022


Pair  time (%) = 0.613597 (0.018513)
Neigh time (%) = 78.7857 (2.37707)
Comm  time (%) = 40.535 (1.22299)
Outpt time (%) = 0.000505153 (1.52411e-05)
Other time (%) = 3194.47 (96.3814)

Nlocal:    14.975 ave 206 max 0 min
Histogram: 33 4 1 0 0 0 0 0 1 1
Nghost:    1.675 ave 19 max 0 min
Histogram: 35 1 0 0 0 1 1 0 0 2
Neighs:    0.1 ave 2 max 0 min
Histogram: 37 0 0 0 0 2 0 0 0 1

Total # of neighbors = 4
Ave neighs/atom = 0.0066778
Neighbor list builds = 29646
Dangerous builds = 696
write_dump all custom dump.atom_info_ac_* id type x y z radius vx vy vz density #
run 308641
Setting up run at Tue Nov 29 15:04:41 2022

Memory usage per processor = 964.609 Mbytes
    Step    Atoms         KinEng            CPU 
18518462      599     0.28292046              0 
18827103      584     0.26062502      3382.8248 
Loop time of 3382.82 on 40 procs for 308641 steps with 584 atoms, finish time Tue Nov 29 16:01:04 2022


Pair  time (%) = 0.610676 (0.0180523)
Neigh time (%) = 93.5715 (2.76608)
Comm  time (%) = 60.2514 (1.7811)
Outpt time (%) = 0.00054599 (1.61401e-05)
Other time (%) = 3228.39 (95.4348)

Nlocal:    14.6 ave 197 max 0 min
Histogram: 34 3 1 0 0 0 0 0 0 2
Nghost:    1.775 ave 24 max 0 min
Histogram: 36 0 0 1 0 1 1 0 0 1
Neighs:    0.125 ave 2 max 0 min
Histogram: 36 0 0 0 0 3 0 0 0 1

Total # of neighbors = 5
Ave neighs/atom = 0.00856164
Neighbor list builds = 35230
Dangerous builds = 1222
write_dump all custom dump.atom_info_ac_* id type x y z radius vx vy vz density #
run 308641
Setting up run at Tue Nov 29 16:01:04 2022

Memory usage per processor = 964.609 Mbytes
    Step    Atoms         KinEng            CPU 
18827103      584     0.26062502              0 
19135744      574     0.21771604      3299.9677 
Loop time of 3299.97 on 40 procs for 308641 steps with 574 atoms, finish time Tue Nov 29 16:56:04 2022


Pair  time (%) = 0.604854 (0.0183291)
Neigh time (%) = 75.3845 (2.2844)
Comm  time (%) = 39.5552 (1.19865)
Outpt time (%) = 0.000496681 (1.50511e-05)
Other time (%) = 3184.42 (96.4986)

Nlocal:    14.35 ave 192 max 0 min
Histogram: 35 2 1 0 0 0 0 0 0 2
Nghost:    1.55 ave 23 max 0 min
Histogram: 36 0 0 1 1 0 0 1 0 1
Neighs:    0.1 ave 1 max 0 min
Histogram: 36 0 0 0 0 0 0 0 0 4

Total # of neighbors = 4
Ave neighs/atom = 0.00696864
Neighbor list builds = 28373
Dangerous builds = 466
write_dump all custom dump.atom_info_ac_* id type x y z radius vx vy vz density #
run 308641
Setting up run at Tue Nov 29 16:56:04 2022

Memory usage per processor = 964.609 Mbytes
    Step    Atoms         KinEng            CPU 
19135744      574     0.21771604              0 
19444385      558     0.19937434      3434.0119 
Loop time of 3434.01 on 40 procs for 308641 steps with 558 atoms, finish time Tue Nov 29 17:53:18 2022


Pair  time (%) = 0.620398 (0.0180663)
Neigh time (%) = 104.206 (3.03454)
Comm  time (%) = 48.0263 (1.39855)
Outpt time (%) = 0.000278584 (8.1125e-06)
Other time (%) = 3281.16 (95.5488)

Nlocal:    13.95 ave 193 max 0 min
Histogram: 35 2 1 0 0 0 0 0 0 2
Nghost:    1.975 ave 25 max 0 min
Histogram: 35 1 0 1 1 0 0 0 1 1
Neighs:    0.15 ave 3 max 0 min
Histogram: 37 0 0 1 0 0 1 0 0 1

Total # of neighbors = 6
Ave neighs/atom = 0.0107527
Neighbor list builds = 39220
Dangerous builds = 745
write_dump all custom dump.atom_info_ac_* id type x y z radius vx vy vz density #
run 308641
Setting up run at Tue Nov 29 17:53:19 2022

Memory usage per processor = 964.609 Mbytes
    Step    Atoms         KinEng            CPU 
19444385      558     0.19937434              0 
19753026      539      0.2099906      3263.4964 
Loop time of 3263.5 on 40 procs for 308641 steps with 539 atoms, finish time Tue Nov 29 18:47:42 2022


Pair  time (%) = 0.603179 (0.0184826)
Neigh time (%) = 67.2097 (2.05944)
Comm  time (%) = 36.3148 (1.11276)
Outpt time (%) = 0.000457228 (1.40104e-05)
Other time (%) = 3159.37 (96.8093)

Nlocal:    13.475 ave 191 max 0 min
Histogram: 36 1 1 0 0 0 0 0 1 1
Nghost:    1.55 ave 22 max 0 min
Histogram: 36 0 1 1 0 0 0 0 0 2
Neighs:    0.175 ave 3 max 0 min
Histogram: 36 0 0 2 0 0 1 0 0 1

Total # of neighbors = 7
Ave neighs/atom = 0.012987
Neighbor list builds = 25299
Dangerous builds = 1688
write_dump all custom dump.atom_info_ac_* id type x y z radius vx vy vz density #
run 308641
Setting up run at Tue Nov 29 18:47:42 2022

Memory usage per processor = 964.609 Mbytes
    Step    Atoms         KinEng            CPU 
19753026      539      0.2099906              0 
20061667      527     0.18836258      3283.0447 
Loop time of 3283.05 on 40 procs for 308641 steps with 527 atoms, finish time Tue Nov 29 19:42:25 2022


Pair  time (%) = 0.602654 (0.0183566)
Neigh time (%) = 71.5153 (2.17832)
Comm  time (%) = 36.7559 (1.11957)
Outpt time (%) = 0.0060488 (0.000184244)
Other time (%) = 3174.17 (96.6836)

Nlocal:    13.175 ave 183 max 0 min
Histogram: 36 0 2 0 0 0 0 0 0 2
Nghost:    1.4 ave 25 max 0 min
Histogram: 36 0 2 0 0 0 1 0 0 1
Neighs:    0.35 ave 8 max 0 min
Histogram: 36 2 0 0 0 1 0 0 0 1

Total # of neighbors = 14
Ave neighs/atom = 0.0265655
Neighbor list builds = 26949
Dangerous builds = 1220
write_dump all custom dump.atom_info_ac_* id type x y z radius vx vy vz density #
run 308641
Setting up run at Tue Nov 29 19:42:25 2022

Memory usage per processor = 964.609 Mbytes
    Step    Atoms         KinEng            CPU 
20061667      527     0.18836258              0 
20370308      511     0.16513064      3319.7914 
Loop time of 3319.8 on 40 procs for 308641 steps with 511 atoms, finish time Tue Nov 29 20:37:45 2022


Pair  time (%) = 0.603689 (0.0181845)
Neigh time (%) = 80.5555 (2.42651)
Comm  time (%) = 37.5421 (1.13085)
Outpt time (%) = 0.0235466 (0.000709278)
Other time (%) = 3201.08 (96.4237)

Nlocal:    12.775 ave 181 max 0 min
Histogram: 36 0 2 0 0 0 0 0 0 2
Nghost:    1.4 ave 24 max 0 min
Histogram: 36 1 1 0 0 0 0 1 0 1
Neighs:    0.25 ave 5 max 0 min
Histogram: 35 0 3 0 1 0 0 0 0 1

Total # of neighbors = 10
Ave neighs/atom = 0.0195695
Neighbor list builds = 30349
Dangerous builds = 1929
write_dump all custom dump.atom_info_ac_* id type x y z radius vx vy vz density #
run 308641
Setting up run at Tue Nov 29 20:37:45 2022

Memory usage per processor = 964.609 Mbytes
    Step    Atoms         KinEng            CPU 
20370308      511     0.16513064              0 
20678949      501     0.16930713      3394.4025 
Loop time of 3394.4 on 40 procs for 308641 steps with 501 atoms, finish time Tue Nov 29 21:34:20 2022


Pair  time (%) = 0.603206 (0.0177706)
Neigh time (%) = 96.5248 (2.84364)
Comm  time (%) = 56.9263 (1.67706)
Outpt time (%) = 0.000526288 (1.55046e-05)
Other time (%) = 3240.35 (95.4615)

Nlocal:    12.525 ave 171 max 0 min
Histogram: 36 1 1 0 0 0 0 0 0 2
Nghost:    1.625 ave 28 max 0 min
Histogram: 35 1 1 1 1 0 0 0 0 1
Neighs:    0.125 ave 3 max 0 min
Histogram: 38 0 0 0 0 0 1 0 0 1

Total # of neighbors = 5
Ave neighs/atom = 0.00998004
Neighbor list builds = 36361
Dangerous builds = 454
write_dump all custom dump.atom_info_ac_* id type x y z radius vx vy vz density #
run 308641
Setting up run at Tue Nov 29 21:34:20 2022

Memory usage per processor = 964.609 Mbytes
    Step    Atoms         KinEng            CPU 
20678949      501     0.16930713              0 
20987590      488       0.267592      3441.1883 
Loop time of 3441.19 on 40 procs for 308641 steps with 488 atoms, finish time Tue Nov 29 22:31:41 2022


Pair  time (%) = 0.60969 (0.0177174)
Neigh time (%) = 107.101 (3.11233)
Comm  time (%) = 47.5601 (1.38208)
Outpt time (%) = 0.000547762 (1.59178e-05)
Other time (%) = 3285.92 (95.4878)

Nlocal:    12.2 ave 175 max 0 min
Histogram: 36 0 2 0 0 0 0 0 1 1
Nghost:    1.5 ave 21 max 0 min
Histogram: 36 0 2 0 0 0 0 0 1 1
Neighs:    0.05 ave 2 max 0 min
Histogram: 39 0 0 0 0 0 0 0 0 1

Total # of neighbors = 2
Ave neighs/atom = 0.00409836
Neighbor list builds = 40363
Dangerous builds = 634
write_dump all custom dump.atom_info_ac_* id type x y z radius vx vy vz density #
run 308641
Setting up run at Tue Nov 29 22:31:41 2022

Memory usage per processor = 964.609 Mbytes
    Step    Atoms         KinEng            CPU 
20987590      488       0.267592              0 
21296231      478     0.26088619      3415.2365 
Loop time of 3415.24 on 40 procs for 308641 steps with 478 atoms, finish time Tue Nov 29 23:28:36 2022


Pair  time (%) = 0.597347 (0.0174906)
Neigh time (%) = 102.392 (2.99809)
Comm  time (%) = 59.0131 (1.72794)
Outpt time (%) = 0.000503072 (1.47302e-05)
Other time (%) = 3253.23 (95.2565)

Nlocal:    11.95 ave 167 max 0 min
Histogram: 36 0 2 0 0 0 0 0 0 2
Nghost:    1.4 ave 23 max 0 min
Histogram: 36 0 2 0 0 0 1 0 0 1
Neighs:    0.1 ave 2 max 0 min
Histogram: 37 0 0 0 0 2 0 0 0 1

Total # of neighbors = 4
Ave neighs/atom = 0.0083682
Neighbor list builds = 38591
Dangerous builds = 1150
write_dump all custom dump.atom_info_ac_* id type x y z radius vx vy vz density #
run 308641
Setting up run at Tue Nov 29 23:28:36 2022

Memory usage per processor = 964.609 Mbytes
    Step    Atoms         KinEng            CPU 
21296231      478     0.26088619              0 
21604872      471     0.36292842      3545.0667 
Loop time of 3545.07 on 40 procs for 308641 steps with 471 atoms, finish time Wed Nov 30 00:27:41 2022


Pair  time (%) = 0.605178 (0.017071)
Neigh time (%) = 130.213 (3.67308)
Comm  time (%) = 75.7139 (2.13575)
Outpt time (%) = 0.000591054 (1.66726e-05)
Other time (%) = 3338.53 (94.1741)

Nlocal:    11.775 ave 170 max 0 min
Histogram: 36 0 2 0 0 0 0 0 0 2
Nghost:    1.375 ave 19 max 0 min
Histogram: 34 2 0 2 0 0 0 0 1 1
Neighs:    0.025 ave 1 max 0 min
Histogram: 39 0 0 0 0 0 0 0 0 1

Total # of neighbors = 1
Ave neighs/atom = 0.00212314
Neighbor list builds = 49051
Dangerous builds = 2010
write_dump all custom dump.atom_info_ac_* id type x y z radius vx vy vz density #
run 308641
Setting up run at Wed Nov 30 00:27:42 2022

Memory usage per processor = 964.609 Mbytes
    Step    Atoms         KinEng            CPU 
21604872      471     0.36292842              0 
21913513      461     0.25721625      3314.5567 
Loop time of 3314.56 on 40 procs for 308641 steps with 461 atoms, finish time Wed Nov 30 01:22:56 2022


Pair  time (%) = 0.589036 (0.0177712)
Neigh time (%) = 78.9131 (2.3808)
Comm  time (%) = 45.4854 (1.37229)
Outpt time (%) = 0.00571145 (0.000172314)
Other time (%) = 3189.56 (96.229)

Nlocal:    11.525 ave 166 max 0 min
Histogram: 36 1 1 0 0 0 0 0 0 2
Nghost:    1.175 ave 18 max 0 min
Histogram: 36 0 1 1 0 0 0 1 0 1
Neighs:    0.075 ave 2 max 0 min
Histogram: 38 0 0 0 0 1 0 0 0 1

Total # of neighbors = 3
Ave neighs/atom = 0.00650759
Neighbor list builds = 29737
Dangerous builds = 961
write_dump all custom dump.atom_info_ac_* id type x y z radius vx vy vz density #
run 308641
Setting up run at Wed Nov 30 01:22:56 2022

Memory usage per processor = 964.609 Mbytes
    Step    Atoms         KinEng            CPU 
21913513      461     0.25721625              0 
22222154      451     0.24165503      3298.2275 
Loop time of 3298.23 on 40 procs for 308641 steps with 451 atoms, finish time Wed Nov 30 02:17:54 2022


Pair  time (%) = 0.592379 (0.0179605)
Neigh time (%) = 75.454 (2.28771)
Comm  time (%) = 36.8357 (1.11683)
Outpt time (%) = 0.000560115 (1.69823e-05)
Other time (%) = 3185.35 (96.5775)

Nlocal:    11.275 ave 170 max 0 min
Histogram: 36 0 2 0 0 0 0 0 1 1
Nghost:    1.35 ave 20 max 0 min
Histogram: 35 1 1 1 0 0 0 0 0 2
Neighs:    0.05 ave 2 max 0 min
Histogram: 39 0 0 0 0 0 0 0 0 1

Total # of neighbors = 2
Ave neighs/atom = 0.00443459
Neighbor list builds = 28449
Dangerous builds = 647
write_dump all custom dump.atom_info_ac_* id type x y z radius vx vy vz density #
run 308641
Setting up run at Wed Nov 30 02:17:54 2022

Memory usage per processor = 964.609 Mbytes
    Step    Atoms         KinEng            CPU 
22222154      451     0.24165503              0 
22530795      443     0.24032362      3254.1823 
Loop time of 3254.18 on 40 procs for 308641 steps with 443 atoms, finish time Wed Nov 30 03:12:09 2022


Pair  time (%) = 0.588377 (0.0180806)
Neigh time (%) = 64.7858 (1.99085)
Comm  time (%) = 29.3074 (0.900607)
Outpt time (%) = 0.000575874 (1.76964e-05)
Other time (%) = 3159.5 (97.0904)

Nlocal:    11.075 ave 168 max 0 min
Histogram: 36 1 1 0 0 0 0 0 1 1
Nghost:    1.05 ave 16 max 0 min
Histogram: 35 1 1 0 1 0 0 1 0 1
Neighs:    0.025 ave 1 max 0 min
Histogram: 39 0 0 0 0 0 0 0 0 1

Total # of neighbors = 1
Ave neighs/atom = 0.00225734
Neighbor list builds = 24433
Dangerous builds = 7
write_dump all custom dump.atom_info_ac_* id type x y z radius vx vy vz density #
run 308641
Setting up run at Wed Nov 30 03:12:09 2022

Memory usage per processor = 964.609 Mbytes
    Step    Atoms         KinEng            CPU 
22530795      443     0.24032362              0 
22839436      435     0.20963602      3291.8772 
Loop time of 3291.88 on 40 procs for 308641 steps with 435 atoms, finish time Wed Nov 30 04:07:01 2022


Pair  time (%) = 0.59237 (0.0179949)
Neigh time (%) = 73.8038 (2.242)
Comm  time (%) = 31.0431 (0.943022)
Outpt time (%) = 0.000535876 (1.62787e-05)
Other time (%) = 3186.44 (96.797)

Nlocal:    10.875 ave 163 max 0 min
Histogram: 36 1 1 0 0 0 0 0 1 1
Nghost:    1.25 ave 17 max 0 min
Histogram: 36 0 1 0 1 0 0 0 0 2
Neighs:    0.05 ave 1 max 0 min
Histogram: 38 0 0 0 0 0 0 0 0 2

Total # of neighbors = 2
Ave neighs/atom = 0.0045977
Neighbor list builds = 27839
Dangerous builds = 87
write_dump all custom dump.atom_info_ac_* id type x y z radius vx vy vz density #
run 308641
Setting up run at Wed Nov 30 04:07:01 2022

Memory usage per processor = 964.609 Mbytes
    Step    Atoms         KinEng            CPU 
22839436      435     0.20963602              0 
23148077      430     0.20324503      3342.3453 
Loop time of 3342.35 on 40 procs for 308641 steps with 430 atoms, finish time Wed Nov 30 05:02:43 2022


Pair  time (%) = 0.589645 (0.0176417)
Neigh time (%) = 84.8826 (2.53961)
Comm  time (%) = 38.1768 (1.14222)
Outpt time (%) = 0.000568292 (1.70028e-05)
Other time (%) = 3218.7 (96.3005)

Nlocal:    10.75 ave 160 max 0 min
Histogram: 36 0 2 0 0 0 0 0 1 1
Nghost:    1.225 ave 18 max 0 min
Histogram: 34 3 0 0 1 0 0 1 0 1
Neighs:    0.075 ave 2 max 0 min
Histogram: 38 0 0 0 0 1 0 0 0 1

Total # of neighbors = 3
Ave neighs/atom = 0.00697674
Neighbor list builds = 31980
Dangerous builds = 1
write_dump all custom dump.atom_info_ac_* id type x y z radius vx vy vz density #
run 308641
Setting up run at Wed Nov 30 05:02:43 2022

Memory usage per processor = 964.609 Mbytes
    Step    Atoms         KinEng            CPU 
23148077      430     0.20324503              0 
23456718      423     0.20572299      3289.5862 
Loop time of 3289.59 on 40 procs for 308641 steps with 423 atoms, finish time Wed Nov 30 05:57:33 2022


Pair  time (%) = 0.589775 (0.0179285)
Neigh time (%) = 74.0415 (2.25078)
Comm  time (%) = 32.9054 (1.00029)
Outpt time (%) = 0.000469677 (1.42777e-05)
Other time (%) = 3182.05 (96.731)

Nlocal:    10.575 ave 158 max 0 min
Histogram: 36 1 1 0 0 0 0 0 1 1
Nghost:    1.2 ave 20 max 0 min
Histogram: 36 0 1 1 0 0 1 0 0 1
Neighs:    0.1 ave 4 max 0 min
Histogram: 39 0 0 0 0 0 0 0 0 1

Total # of neighbors = 4
Ave neighs/atom = 0.00945626
Neighbor list builds = 27924
Dangerous builds = 434
write_dump all custom dump.atom_info_ac_* id type x y z radius vx vy vz density #
run 308641
Setting up run at Wed Nov 30 05:57:33 2022

Memory usage per processor = 964.609 Mbytes
    Step    Atoms         KinEng            CPU 
23456718      423     0.20572299              0 
23765359      419     0.18575948      3209.0364 
Loop time of 3209.04 on 40 procs for 308641 steps with 419 atoms, finish time Wed Nov 30 06:51:02 2022


Pair  time (%) = 0.580799 (0.0180989)
Neigh time (%) = 55.7921 (1.73859)
Comm  time (%) = 25.3379 (0.789581)
Outpt time (%) = 0.000193677 (6.03537e-06)
Other time (%) = 3127.33 (97.4537)

Nlocal:    10.475 ave 159 max 0 min
Histogram: 36 2 0 0 0 0 0 0 1 1
Nghost:    1.15 ave 22 max 0 min
Histogram: 36 0 2 0 1 0 0 0 0 1
Neighs:    0.025 ave 1 max 0 min
Histogram: 39 0 0 0 0 0 0 0 0 1

Total # of neighbors = 1
Ave neighs/atom = 0.00238663
Neighbor list builds = 21042
Dangerous builds = 0
write_dump all custom dump.atom_info_ac_* id type x y z radius vx vy vz density #
run 308641
Setting up run at Wed Nov 30 06:51:02 2022

Memory usage per processor = 964.609 Mbytes
    Step    Atoms         KinEng            CPU 
23765359      419     0.18575948              0 
24074000      411     0.16243219      3209.4626 
Loop time of 3209.46 on 40 procs for 308641 steps with 411 atoms, finish time Wed Nov 30 07:44:31 2022


Pair  time (%) = 0.582748 (0.0181572)
Neigh time (%) = 56.4158 (1.7578)
Comm  time (%) = 25.2076 (0.785415)
Outpt time (%) = 0.000841441 (2.62175e-05)
Other time (%) = 3127.26 (97.4386)

Nlocal:    10.275 ave 155 max 0 min
Histogram: 36 1 1 0 0 0 0 0 1 1
Nghost:    1.125 ave 17 max 0 min
Histogram: 36 0 0 0 3 0 0 0 0 1
Neighs:    0.05 ave 1 max 0 min
Histogram: 38 0 0 0 0 0 0 0 0 2

Total # of neighbors = 2
Ave neighs/atom = 0.00486618
Neighbor list builds = 21278
Dangerous builds = 295
write_dump all custom dump.atom_info_ac_* id type x y z radius vx vy vz density #
run 308641
Setting up run at Wed Nov 30 07:44:31 2022

Memory usage per processor = 964.609 Mbytes
    Step    Atoms         KinEng            CPU 
24074000      411     0.16243219              0 
24382641      406     0.16047377       3215.291 
Loop time of 3215.29 on 40 procs for 308641 steps with 406 atoms, finish time Wed Nov 30 08:38:07 2022


Pair  time (%) = 0.584585 (0.0181814)
Neigh time (%) = 57.2137 (1.77943)
Comm  time (%) = 21.7822 (0.677458)
Outpt time (%) = 0.000510286 (1.58706e-05)
Other time (%) = 3135.71 (97.5249)

Nlocal:    10.15 ave 152 max 0 min
Histogram: 36 1 1 0 0 0 0 0 1 1
Nghost:    1.125 ave 20 max 0 min
Histogram: 34 2 1 1 1 0 0 0 0 1
Neighs:    0 ave 0 max 0 min
Histogram: 40 0 0 0 0 0 0 0 0 0

Total # of neighbors = 0
Ave neighs/atom = 0
Neighbor list builds = 21580
Dangerous builds = 2
write_dump all custom dump.atom_info_ac_* id type x y z radius vx vy vz density #
run 308641
Setting up run at Wed Nov 30 08:38:07 2022

Memory usage per processor = 964.609 Mbytes
    Step    Atoms         KinEng            CPU 
24382641      406     0.16047377              0 
24691282      398     0.19350062      3204.0749 
Loop time of 3204.08 on 40 procs for 308641 steps with 398 atoms, finish time Wed Nov 30 09:31:31 2022


Pair  time (%) = 0.580379 (0.0181138)
Neigh time (%) = 53.4611 (1.66853)
Comm  time (%) = 22.0956 (0.689609)
Outpt time (%) = 0.000515818 (1.60988e-05)
Other time (%) = 3127.94 (97.6237)

Nlocal:    9.95 ave 152 max 0 min
Histogram: 36 1 1 0 0 0 0 0 1 1
Nghost:    1.2 ave 17 max 0 min
Histogram: 35 1 0 0 2 1 0 0 0 1
Neighs:    0.05 ave 1 max 0 min
Histogram: 38 0 0 0 0 0 0 0 0 2

Total # of neighbors = 2
Ave neighs/atom = 0.00502513
[...]
55555478      189    0.026919971      3194.4305 
Loop time of 3194.43 on 40 procs for 308641 steps with 189 atoms, finish time Sun Dec  4 04:12:50 2022


Pair  time (%) = 0.560454 (0.0175447)
Neigh time (%) = 52.658 (1.64843)
Comm  time (%) = 17.015 (0.532645)
Outpt time (%) = 0.000217205 (6.79947e-06)
Other time (%) = 3124.2 (97.8014)

Nlocal:    4.725 ave 81 max 0 min
Histogram: 36 2 0 0 0 0 0 0 0 2
Nghost:    0.525 ave 9 max 0 min
Histogram: 34 3 0 1 0 0 1 0 0 1
Neighs:    0.05 ave 1 max 0 min
Histogram: 38 0 0 0 0 0 0 0 0 2

Total # of neighbors = 2
Ave neighs/atom = 0.010582
Neighbor list builds = 19934
Dangerous builds = 0
write_dump all custom dump.atom_info_ac_* id type x y z radius vx vy vz density #
run 308641
Setting up run at Sun Dec  4 04:12:50 2022

Memory usage per processor = 964.609 Mbytes
    Step    Atoms         KinEng            CPU 
55555478      189    0.026919971              0 
55864119      189    0.026634515      3186.6615 
Loop time of 3186.66 on 40 procs for 308641 steps with 189 atoms, finish time Sun Dec  4 05:05:57 2022


Pair  time (%) = 0.558662 (0.0175313)
Neigh time (%) = 52.2517 (1.6397)
Comm  time (%) = 18.1771 (0.570413)
Outpt time (%) = 0.000557952 (1.7509e-05)
Other time (%) = 3115.67 (97.7723)

Nlocal:    4.725 ave 81 max 0 min
Histogram: 37 1 0 0 0 0 0 0 0 2
Nghost:    0.425 ave 10 max 0 min
Histogram: 37 0 0 1 1 0 0 0 0 1
Neighs:    0.1 ave 3 max 0 min
Histogram: 38 0 0 1 0 0 0 0 0 1

Total # of neighbors = 4
Ave neighs/atom = 0.021164
Neighbor list builds = 19774
Dangerous builds = 0
write_dump all custom dump.atom_info_ac_* id type x y z radius vx vy vz density #
run 308641
Setting up run at Sun Dec  4 05:05:57 2022

Memory usage per processor = 964.609 Mbytes
    Step    Atoms         KinEng            CPU 
55864119      189    0.026634515              0 
56172760      188    0.026509389      3185.0044 
Loop time of 3185 on 40 procs for 308641 steps with 188 atoms, finish time Sun Dec  4 05:59:02 2022


Pair  time (%) = 0.561646 (0.0176341)
Neigh time (%) = 51.4338 (1.61487)
Comm  time (%) = 17.3785 (0.545634)
Outpt time (%) = 0.000542572 (1.70352e-05)
Other time (%) = 3115.63 (97.8218)

Nlocal:    4.7 ave 79 max 0 min
Histogram: 36 2 0 0 0 0 0 0 0 2
Nghost:    0.45 ave 9 max 0 min
Histogram: 34 3 0 2 0 0 0 0 0 1
Neighs:    0.075 ave 2 max 0 min
Histogram: 38 0 0 0 0 1 0 0 0 1

Total # of neighbors = 3
Ave neighs/atom = 0.0159574
Neighbor list builds = 19460
Dangerous builds = 0
write_dump all custom dump.atom_info_ac_* id type x y z radius vx vy vz density #
run 308641
Setting up run at Sun Dec  4 05:59:02 2022

Memory usage per processor = 964.609 Mbytes
    Step    Atoms         KinEng            CPU 
56172760      188    0.026509389              0 
56481401      186    0.026629235      3178.3943 
Loop time of 3178.39 on 40 procs for 308641 steps with 186 atoms, finish time Sun Dec  4 06:52:00 2022


Pair  time (%) = 0.562701 (0.0177039)
Neigh time (%) = 51.0881 (1.60735)
Comm  time (%) = 16.5293 (0.520052)
Outpt time (%) = 0.000506744 (1.59434e-05)
Other time (%) = 3110.21 (97.8549)

Nlocal:    4.65 ave 80 max 0 min
Histogram: 36 2 0 0 0 0 0 0 0 2
Nghost:    0.35 ave 7 max 0 min
Histogram: 36 1 0 0 2 0 0 0 0 1
Neighs:    0.05 ave 1 max 0 min
Histogram: 38 0 0 0 0 0 0 0 0 2

Total # of neighbors = 2
Ave neighs/atom = 0.0107527
Neighbor list builds = 19333
Dangerous builds = 0
write_dump all custom dump.atom_info_ac_* id type x y z radius vx vy vz density #
run 308641
Setting up run at Sun Dec  4 06:52:00 2022

Memory usage per processor = 964.609 Mbytes
    Step    Atoms         KinEng            CPU 
56481401      186    0.026629235              0 
56790042      186    0.026965393      3174.0971 
Loop time of 3174.1 on 40 procs for 308641 steps with 186 atoms, finish time Sun Dec  4 07:44:55 2022


Pair  time (%) = 0.556046 (0.0175182)
Neigh time (%) = 51.0153 (1.60724)
Comm  time (%) = 19.7196 (0.621267)
Outpt time (%) = 0.000482298 (1.51948e-05)
Other time (%) = 3102.81 (97.754)

Nlocal:    4.65 ave 79 max 0 min
Histogram: 36 2 0 0 0 0 0 0 0 2
Nghost:    0.5 ave 8 max 0 min
Histogram: 33 3 2 0 0 0 1 0 0 1
Neighs:    0.075 ave 2 max 0 min
Histogram: 38 0 0 0 0 1 0 0 0 1

Total # of neighbors = 3
Ave neighs/atom = 0.016129
Neighbor list builds = 19304
Dangerous builds = 0
write_dump all custom dump.atom_info_ac_* id type x y z radius vx vy vz density #
run 308641
Setting up run at Sun Dec  4 07:44:55 2022

Memory usage per processor = 964.609 Mbytes
    Step    Atoms         KinEng            CPU 
56790042      186    0.026965393              0 
57098683      186    0.032538282      3178.1776 
Loop time of 3178.18 on 40 procs for 308641 steps with 186 atoms, finish time Sun Dec  4 08:37:53 2022


Pair  time (%) = 0.557214 (0.0175325)
Neigh time (%) = 50.9141 (1.60199)
Comm  time (%) = 18.3603 (0.577698)
Outpt time (%) = 0.000167773 (5.2789e-06)
Other time (%) = 3108.35 (97.8028)

Nlocal:    4.65 ave 78 max 0 min
Histogram: 36 2 0 0 0 0 0 0 0 2
Nghost:    0.55 ave 9 max 0 min
Histogram: 34 3 1 0 0 0 0 0 1 1
Neighs:    0.05 ave 1 max 0 min
Histogram: 38 0 0 0 0 0 0 0 0 2

Total # of neighbors = 2
Ave neighs/atom = 0.0107527
Neighbor list builds = 19270
Dangerous builds = 0
write_dump all custom dump.atom_info_ac_* id type x y z radius vx vy vz density #
run 308641
Setting up run at Sun Dec  4 08:37:53 2022

Memory usage per processor = 964.609 Mbytes
    Step    Atoms         KinEng            CPU 
57098683      186    0.032538282              0 
57407324      184    0.025563349      3141.9861 
Loop time of 3141.99 on 40 procs for 308641 steps with 184 atoms, finish time Sun Dec  4 09:30:15 2022


Pair  time (%) = 0.549359 (0.0174844)
Neigh time (%) = 41.7638 (1.32922)
Comm  time (%) = 19.5992 (0.623785)
Outpt time (%) = 0.000590867 (1.88055e-05)
Other time (%) = 3080.07 (98.0295)

Nlocal:    4.6 ave 78 max 0 min
Histogram: 36 2 0 0 0 0 0 0 0 2
Nghost:    0.525 ave 9 max 0 min
Histogram: 35 2 1 0 0 0 0 0 1 1
Neighs:    0.05 ave 1 max 0 min
Histogram: 38 0 0 0 0 0 0 0 0 2

Total # of neighbors = 2
Ave neighs/atom = 0.0108696
Neighbor list builds = 15803
Dangerous builds = 393
write_dump all custom dump.atom_info_ac_* id type x y z radius vx vy vz density #
run 308641
Setting up run at Sun Dec  4 09:30:15 2022

Memory usage per processor = 964.609 Mbytes
    Step    Atoms         KinEng            CPU 
57407324      184    0.025563349              0 
57715965      183    0.025422129      3165.0811 
Loop time of 3165.08 on 40 procs for 308641 steps with 183 atoms, finish time Sun Dec  4 10:23:00 2022


Pair  time (%) = 0.550037 (0.0173783)
Neigh time (%) = 35.8522 (1.13274)
Comm  time (%) = 14.0678 (0.44447)
Outpt time (%) = 0.000480212 (1.51722e-05)
Other time (%) = 3114.61 (98.4054)

Nlocal:    4.575 ave 80 max 0 min
Histogram: 36 2 0 0 0 0 0 0 0 2
Nghost:    0.55 ave 11 max 0 min
Histogram: 37 1 0 0 0 0 0 1 0 1
Neighs:    0.05 ave 2 max 0 min
Histogram: 39 0 0 0 0 0 0 0 0 1

Total # of neighbors = 2
Ave neighs/atom = 0.010929
Neighbor list builds = 13568
Dangerous builds = 1
write_dump all custom dump.atom_info_ac_* id type x y z radius vx vy vz density #
run 308641
Setting up run at Sun Dec  4 10:23:00 2022

Memory usage per processor = 964.609 Mbytes
    Step    Atoms         KinEng            CPU 
57715965      183    0.025422129              0 
58024606      182    0.025923848      3122.1471 
Loop time of 3122.15 on 40 procs for 308641 steps with 182 atoms, finish time Sun Dec  4 11:15:02 2022


Pair  time (%) = 0.547568 (0.0175382)
Neigh time (%) = 35.454 (1.13557)
Comm  time (%) = 15.5275 (0.497335)
Outpt time (%) = 0.00043964 (1.40813e-05)
Other time (%) = 3070.62 (98.3495)

Nlocal:    4.55 ave 82 max 0 min
Histogram: 36 2 0 0 0 0 0 0 1 1
Nghost:    0.5 ave 11 max 0 min
Histogram: 37 1 0 0 0 1 0 0 0 1
Neighs:    0.075 ave 3 max 0 min
Histogram: 39 0 0 0 0 0 0 0 0 1

Total # of neighbors = 3
Ave neighs/atom = 0.0164835
Neighbor list builds = 13421
Dangerous builds = 2
write_dump all custom dump.atom_info_ac_* id type x y z radius vx vy vz density #
run 308641
Setting up run at Sun Dec  4 11:15:02 2022

Memory usage per processor = 964.609 Mbytes
    Step    Atoms         KinEng            CPU 
58024606      182    0.025923848              0 
58333247      180    0.026011361      3135.0858 
Loop time of 3135.09 on 40 procs for 308641 steps with 180 atoms, finish time Sun Dec  4 12:07:18 2022


Pair  time (%) = 0.548924 (0.0175091)
Neigh time (%) = 35.5167 (1.13288)
Comm  time (%) = 14.4019 (0.459377)
Outpt time (%) = 0.00051017 (1.62729e-05)
Other time (%) = 3084.62 (98.3902)

Nlocal:    4.5 ave 80 max 0 min
Histogram: 36 2 0 0 0 0 0 0 1 1
Nghost:    0.625 ave 9 max 0 min
Histogram: 32 5 0 1 0 0 0 0 1 1
Neighs:    0.1 ave 3 max 0 min
Histogram: 38 0 0 1 0 0 0 0 0 1

Total # of neighbors = 4
Ave neighs/atom = 0.0222222
Neighbor list builds = 13447
Dangerous builds = 13
write_dump all custom dump.atom_info_ac_* id type x y z radius vx vy vz density #
run 308641
Setting up run at Sun Dec  4 12:07:18 2022

Memory usage per processor = 964.609 Mbytes
    Step    Atoms         KinEng            CPU 
58333247      180    0.026011361              0 
58641888      180    0.025987947       3141.313 
Loop time of 3141.31 on 40 procs for 308641 steps with 180 atoms, finish time Sun Dec  4 12:59:39 2022


Pair  time (%) = 0.550023 (0.0175093)
Neigh time (%) = 36.0589 (1.14789)
Comm  time (%) = 17.1439 (0.545757)
Outpt time (%) = 0.000516684 (1.6448e-05)
Other time (%) = 3087.56 (98.2888)

Nlocal:    4.5 ave 77 max 0 min
Histogram: 36 2 0 0 0 0 0 0 0 2
Nghost:    0.575 ave 9 max 0 min
Histogram: 35 1 1 1 0 0 0 0 1 1
Neighs:    0.05 ave 2 max 0 min
Histogram: 39 0 0 0 0 0 0 0 0 1

Total # of neighbors = 2
Ave neighs/atom = 0.0111111
Neighbor list builds = 13657
Dangerous builds = 0
write_dump all custom dump.atom_info_ac_* id type x y z radius vx vy vz density #
run 308641
Setting up run at Sun Dec  4 12:59:39 2022

Memory usage per processor = 964.609 Mbytes
    Step    Atoms         KinEng            CPU 
58641888      180    0.025987947              0 
58950529      180     0.02543604      3137.2304 
Loop time of 3137.23 on 40 procs for 308641 steps with 180 atoms, finish time Sun Dec  4 13:51:56 2022


Pair  time (%) = 0.551713 (0.017586)
Neigh time (%) = 38.6223 (1.23109)
Comm  time (%) = 16.4952 (0.525789)
Outpt time (%) = 0.000237659 (7.57544e-06)
Other time (%) = 3081.56 (98.2255)

Nlocal:    4.5 ave 79 max 0 min
Histogram: 37 1 0 0 0 0 0 0 1 1
Nghost:    0.675 ave 10 max 0 min
Histogram: 31 5 1 1 0 0 0 1 0 1
Neighs:    0.125 ave 4 max 0 min
Histogram: 38 0 1 0 0 0 0 0 0 1

Total # of neighbors = 5
Ave neighs/atom = 0.0277778
Neighbor list builds = 14624
Dangerous builds = 0
write_dump all custom dump.atom_info_ac_* id type x y z radius vx vy vz density #
run 308641
Setting up run at Sun Dec  4 13:51:56 2022

Memory usage per processor = 964.609 Mbytes
    Step    Atoms         KinEng            CPU 
58950529      180     0.02543604              0 
59259170      179     0.03338811      3153.3681 
Loop time of 3153.37 on 40 procs for 308641 steps with 179 atoms, finish time Sun Dec  4 14:44:30 2022


Pair  time (%) = 0.552691 (0.017527)
Neigh time (%) = 38.8128 (1.23084)
Comm  time (%) = 14.8152 (0.469822)
Outpt time (%) = 0.000487454 (1.54582e-05)
Other time (%) = 3099.19 (98.2818)

Nlocal:    4.475 ave 79 max 0 min
Histogram: 36 2 0 0 0 0 0 0 1 1
Nghost:    0.45 ave 7 max 0 min
Histogram: 34 3 1 0 0 0 0 0 1 1
Neighs:    0.025 ave 1 max 0 min
Histogram: 39 0 0 0 0 0 0 0 0 1

Total # of neighbors = 1
Ave neighs/atom = 0.00558659
Neighbor list builds = 14692
Dangerous builds = 0
write_dump all custom dump.atom_info_ac_* id type x y z radius vx vy vz density #
run 308641
Setting up run at Sun Dec  4 14:44:30 2022

Memory usage per processor = 964.609 Mbytes
    Step    Atoms         KinEng            CPU 
59259170      179     0.03338811              0 
59567811      179    0.025866744      3139.5956 
Loop time of 3139.6 on 40 procs for 308641 steps with 179 atoms, finish time Sun Dec  4 15:36:50 2022


Pair  time (%) = 0.548742 (0.0174781)
Neigh time (%) = 38.8468 (1.23732)
Comm  time (%) = 14.1594 (0.450995)
Outpt time (%) = 0.000481995 (1.53521e-05)
Other time (%) = 3086.04 (98.2942)

Nlocal:    4.475 ave 78 max 0 min
Histogram: 36 2 0 0 0 0 0 0 1 1
Nghost:    0.45 ave 5 max 0 min
Histogram: 33 0 3 0 1 0 1 0 0 2
Neighs:    0.025 ave 1 max 0 min
Histogram: 39 0 0 0 0 0 0 0 0 1

Total # of neighbors = 1
Ave neighs/atom = 0.00558659
Neighbor list builds = 14697
Dangerous builds = 0
write_dump all custom dump.atom_info_ac_* id type x y z radius vx vy vz density #
run 308641
Setting up run at Sun Dec  4 15:36:50 2022

Memory usage per processor = 964.609 Mbytes
    Step    Atoms         KinEng            CPU 
59567811      179    0.025866744              0 
59876452      177    0.039308637      3241.5967 
Loop time of 3241.6 on 40 procs for 308641 steps with 177 atoms, finish time Sun Dec  4 16:30:51 2022


Pair  time (%) = 0.55714 (0.0171872)
Neigh time (%) = 40.228 (1.24099)
Comm  time (%) = 12.8245 (0.395624)
Outpt time (%) = 0.000554664 (1.71108e-05)
Other time (%) = 3187.99 (98.3462)

Nlocal:    4.425 ave 77 max 0 min
Histogram: 36 2 0 0 0 0 0 0 0 2
Nghost:    0.325 ave 5 max 0 min
Histogram: 36 0 0 0 2 0 0 0 1 1
Neighs:    0.05 ave 2 max 0 min
Histogram: 39 0 0 0 0 0 0 0 0 1

Total # of neighbors = 2
Ave neighs/atom = 0.0112994
Neighbor list builds = 15221
Dangerous builds = 1
write_dump all custom dump.atom_info_ac_* id type x y z radius vx vy vz density #
run 308641
Setting up run at Sun Dec  4 16:30:51 2022

Memory usage per processor = 964.609 Mbytes
    Step    Atoms         KinEng            CPU 
59876452      177    0.039308637              0 
60185093      177    0.038356047      3131.0563 
Loop time of 3131.06 on 40 procs for 308641 steps with 177 atoms, finish time Sun Dec  4 17:23:02 2022


Pair  time (%) = 0.557356 (0.0178009)
Neigh time (%) = 38.811 (1.23955)
Comm  time (%) = 14.2851 (0.456239)
Outpt time (%) = 0.00054642 (1.74516e-05)
Other time (%) = 3077.4 (98.2864)

Nlocal:    4.425 ave 76 max 0 min
Histogram: 37 1 0 0 0 0 0 0 0 2
Nghost:    0.425 ave 6 max 0 min
Histogram: 36 0 0 0 0 2 0 0 1 1
Neighs:    0.075 ave 2 max 0 min
Histogram: 38 0 0 0 0 1 0 0 0 1

Total # of neighbors = 3
Ave neighs/atom = 0.0169492
Neighbor list builds = 14697
Dangerous builds = 0
write_dump all custom dump.atom_info_ac_* id type x y z radius vx vy vz density #
run 308641
Setting up run at Sun Dec  4 17:23:03 2022

Memory usage per processor = 964.609 Mbytes
    Step    Atoms         KinEng            CPU 
60185093      177    0.038356047              0 
60493734      177    0.037306792      3123.6851 
Loop time of 3123.69 on 40 procs for 308641 steps with 177 atoms, finish time Sun Dec  4 18:15:06 2022


Pair  time (%) = 0.558022 (0.0178642)
Neigh time (%) = 38.8151 (1.24261)
Comm  time (%) = 12.9354 (0.414106)
Outpt time (%) = 0.000172179 (5.51204e-06)
Other time (%) = 3071.38 (98.3254)

Nlocal:    4.425 ave 75 max 0 min
Histogram: 36 2 0 0 0 0 0 0 0 2
Nghost:    0.55 ave 9 max 0 min
Histogram: 33 3 2 0 0 0 1 0 0 1
Neighs:    0.075 ave 3 max 0 min
Histogram: 39 0 0 0 0 0 0 0 0 1

Total # of neighbors = 3
Ave neighs/atom = 0.0169492
Neighbor list builds = 14697
Dangerous builds = 0
write_dump all custom dump.atom_info_ac_* id type x y z radius vx vy vz density #
run 308641
Setting up run at Sun Dec  4 18:15:06 2022

Memory usage per processor = 964.609 Mbytes
    Step    Atoms         KinEng            CPU 
60493734      177    0.037306792              0 
60802375      177     0.03692466      3234.3789 
Loop time of 3234.38 on 40 procs for 308641 steps with 177 atoms, finish time Sun Dec  4 19:09:01 2022


Pair  time (%) = 0.554639 (0.0171482)
Neigh time (%) = 38.8246 (1.20037)
Comm  time (%) = 14.3372 (0.443275)
Outpt time (%) = 0.000782216 (2.41844e-05)
Other time (%) = 3180.66 (98.3392)

Nlocal:    4.425 ave 75 max 0 min
Histogram: 36 2 0 0 0 0 0 0 0 2
Nghost:    0.575 ave 7 max 0 min
Histogram: 34 1 1 0 2 0 0 0 0 2
Neighs:    0.075 ave 3 max 0 min
Histogram: 39 0 0 0 0 0 0 0 0 1

Total # of neighbors = 3
Ave neighs/atom = 0.0169492
Neighbor list builds = 14697
Dangerous builds = 0
write_dump all custom dump.atom_info_ac_* id type x y z radius vx vy vz density #
run 308641
Setting up run at Sun Dec  4 19:09:01 2022

Memory usage per processor = 964.609 Mbytes
    Step    Atoms         KinEng            CPU 
60802375      177     0.03692466              0 
61111016      177    0.037026026      3138.0448 
Loop time of 3138.05 on 40 procs for 308641 steps with 177 atoms, finish time Sun Dec  4 20:01:19 2022


Pair  time (%) = 0.556073 (0.0177204)
Neigh time (%) = 38.8072 (1.23667)
Comm  time (%) = 14.858 (0.47348)
Outpt time (%) = 0.000494864 (1.57698e-05)
Other time (%) = 3083.82 (98.2721)

Nlocal:    4.425 ave 74 max 0 min
Histogram: 37 1 0 0 0 0 0 0 0 2
Nghost:    0.575 ave 9 max 0 min
Histogram: 34 1 2 1 0 0 1 0 0 1
Neighs:    0.1 ave 2 max 0 min
Histogram: 37 0 0 0 0 2 0 0 0 1

Total # of neighbors = 4
Ave neighs/atom = 0.0225989
Neighbor list builds = 14697
Dangerous builds = 0
write_dump all custom dump.atom_info_ac_* id type x y z radius vx vy vz density #
run 308641
Setting up run at Sun Dec  4 20:01:19 2022

Memory usage per processor = 964.609 Mbytes
    Step    Atoms         KinEng            CPU 
61111016      177    0.037026026              0 
61419657      176    0.036918076      3154.0948 
Loop time of 3154.1 on 40 procs for 308641 steps with 176 atoms, finish time Sun Dec  4 20:53:53 2022


Pair  time (%) = 0.558897 (0.0177197)
Neigh time (%) = 38.8167 (1.23068)
Comm  time (%) = 14.2701 (0.452432)
Outpt time (%) = 0.000250832 (7.95258e-06)
Other time (%) = 3100.45 (98.2992)

Nlocal:    4.4 ave 74 max 0 min
Histogram: 37 1 0 0 0 0 0 0 0 2
Nghost:    0.525 ave 9 max 0 min
Histogram: 34 1 2 1 1 0 0 0 0 1
Neighs:    0.075 ave 2 max 0 min
Histogram: 38 0 0 0 0 1 0 0 0 1

Total # of neighbors = 3
Ave neighs/atom = 0.0170455
Neighbor list builds = 14699
Dangerous builds = 2
write_dump all custom dump.atom_info_ac_* id type x y z radius vx vy vz density #
run 308641
Setting up run at Sun Dec  4 20:53:53 2022

Memory usage per processor = 964.609 Mbytes
    Step    Atoms         KinEng            CPU 
61419657      176    0.036918076              0 
61728298      176    0.040224162      3378.2485 
Loop time of 3378.25 on 40 procs for 308641 steps with 176 atoms, finish time Sun Dec  4 21:50:11 2022


Pair  time (%) = 0.570223 (0.0168792)
Neigh time (%) = 77.7046 (2.30014)
Comm  time (%) = 29.5783 (0.875553)
Outpt time (%) = 0.00053919 (1.59606e-05)
Other time (%) = 3270.4 (96.8074)

Nlocal:    4.4 ave 75 max 0 min
Histogram: 37 1 0 0 0 0 0 0 0 2
Nghost:    0.575 ave 8 max 0 min
Histogram: 32 4 0 1 0 2 0 0 0 1
Neighs:    0.1 ave 2 max 0 min
Histogram: 38 0 0 0 0 0 0 0 0 2

Total # of neighbors = 4
Ave neighs/atom = 0.0227273
Neighbor list builds = 29416
Dangerous builds = 690
write_dump all custom dump.atom_info_ac_* id type x y z radius vx vy vz density #
run 96
Setting up run at Sun Dec  4 21:50:11 2022

Memory usage per processor = 964.609 Mbytes
    Step    Atoms         KinEng            CPU 
61728298      176    0.040224162              0 
61728394      176    0.039894081      1.1252653 
Loop time of 1.12528 on 40 procs for 96 steps with 176 atoms, finish time Sun Dec  4 21:50:13 2022


Pair  time (%) = 0.000168649 (0.0149873)
Neigh time (%) = 0.034372 (3.05453)
Comm  time (%) = 0.0172599 (1.53383)
Outpt time (%) = 0.00957462 (0.850867)
Other time (%) = 1.0639 (94.5458)

Nlocal:    4.4 ave 75 max 0 min
Histogram: 37 1 0 0 0 0 0 0 0 2
Nghost:    0.575 ave 8 max 0 min
Histogram: 32 4 0 1 0 2 0 0 0 1
Neighs:    0.1 ave 2 max 0 min
Histogram: 38 0 0 0 0 0 0 0 0 2

Total # of neighbors = 4
Ave neighs/atom = 0.0227273
Neighbor list builds = 13
Dangerous builds = 0
write_dump all custom dump.atom_info_ac_* id type x y z radius vx vy vz density #
