LIGGGHTS (Version LIGGGHTS-PUBLIC 3.8.0, compiled 2022-11-07-16:55:38 by serperd1, git commit 86544c3f1215bc9744d7929e3eacf53ba086af9e)
units si #
dimension 3 #
newton off #
boundary f f f #
atom_style sphere #
pair_style gran model hertz tangential history #
communicate single vel yes #
region outer_basket cylinder y 0 0 0.15 -0.15 0.15 #
create_box 3 outer_basket #
Created orthogonal box = (-0.15 -0.15 -0.15) to (0.15 0.15 0.15)
  2 by 4 by 5 MPI processor grid
variable my_omega equal 157.0796 #
fix cone_mesh all mesh/surface file cone.stl type 3 scale 1 #
fix rotating_wall_1 all move/mesh mesh cone_mesh rotate/variable origin 0 0 0 axis 0 1 0 omega v_my_omega #
fix filter_mesh_walls all wall/gran model hertz tangential history primitive type 2 ycylinder_filtermesh 0.069 0 0 2 9 -0.0628 0 0.025414 0.016566 0.050414 0.041566 shear x 10.8385 #

fix inlet_cyl_wall_mesh all mesh/surface file in_cyl.stl type 3 scale 1 #
fix top_cyl_wall_mesh all mesh/surface file top_cyl.stl type 3 scale 1 #
fix rotating_wall_4 all move/mesh mesh top_cyl_wall_mesh rotate/variable origin 0 0 0 axis 0 1 0 omega v_my_omega #
fix bot_cyl_wall_mesh all mesh/surface file bot_cyl.stl type 3 scale 1 #
fix rotating_wall_5 all move/mesh mesh bot_cyl_wall_mesh rotate/variable origin 0 0 0 axis 0 1 0 omega v_my_omega #
fix bot_disk_wall_mesh all mesh/surface file bottom_disk.stl type 3 scale 1 #
fix rotating_wall_6 all move/mesh mesh bot_disk_wall_mesh rotate/variable origin 0 0 0 axis 0 1 0 omega v_my_omega #
fix top_disk_wall_mesh all mesh/surface file top_disk.stl type 3 scale 1 #
fix rotating_wall_7 all move/mesh mesh top_disk_wall_mesh rotate/variable origin 0 0 0 axis 0 1 0 omega v_my_omega #
fix GMSH_mesh_walls all wall/gran model hertz tangential history mesh n_meshes 6 meshes cone_mesh top_cyl_wall_mesh bot_cyl_wall_mesh bot_disk_wall_mesh inlet_cyl_wall_mesh top_disk_wall_mesh #
fix Young_mod all property/global youngsModulus peratomtype 375000000 46000000 1000000000 #
fix Poisson_rat all property/global poissonsRatio peratomtype 0.32 0.42 0.29 #
fix Coeff_rest all property/global coefficientRestitution peratomtypepair 3 0.15 0.32 0.475 0.32 0.49 0.645 0.475 0.645 0.8 #
fix Coeff_fric all property/global coefficientFriction peratomtypepair 3 0.04 0.145 0.12 0.145 0.25 0.225 0.12 0.225 0.2 #

neighbor 0.00052488 bin #
neigh_modify delay 0 one 100000 page 5000000 #
fix r_0to10p all particletemplate/sphere 12345787 atom_type 1 density constant 2650 radius constant 8.4e-05 #
fix r_10to50p all particletemplate/sphere 15485863 atom_type 1 density constant 2650 radius constant 0.0002328 #
fix r_50to90p all particletemplate/sphere 15485867 atom_type 1 density constant 2650 radius constant 0.0008466 #
fix r_90to100p all particletemplate/sphere 32452843 atom_type 1 density constant 2650 radius constant 0.0013122 #
fix prob_par all particledistribution/discrete 32452867 4 r_0to10p 0.1 r_10to50p 0.4 r_50to90p 0.4 r_90to100p 0.1 #
pair_coeff * * #
timestep 6.48e-08 #

fix nve_group all nve/sphere #
fix grav_fix all gravity 6.1081 vector 0.017 -0.0033 0 -1 0 #
fix cent_fix all centrifugal 157.0796 0.017 -0.0033 0.069 #

variable step equal step #
variable mycount equal count(all) #
fix print_amount_of_atoms all print 25 "${step} ${mycount}" file numatoms.txt screen no #
run 0 #
Setting up run at Mon Jan  2 15:34:44 2023

Memory usage per processor = 954.637 Mbytes
    Step    Atoms         KinEng            CPU 
       0        0              0              0 
Loop time of 8.3492e-05 on 40 procs for 0 steps with 0 atoms, finish time Mon Jan  2 15:34:44 2023


Pair  time (%) = 0 (0)
Neigh time (%) = 0 (0)
Comm  time (%) = 0 (0)
Outpt time (%) = 0 (0)
Other time (%) = 8.3492e-05 (100)

Nlocal:    0 ave 0 max 0 min
Histogram: 40 0 0 0 0 0 0 0 0 0
Nghost:    0 ave 0 max 0 min
Histogram: 40 0 0 0 0 0 0 0 0 0
Neighs:    0 ave 0 max 0 min
Histogram: 40 0 0 0 0 0 0 0 0 0

Total # of neighbors = 0
Neighbor list builds = 0
Dangerous builds = 0
run 1 #
Setting up run at Mon Jan  2 15:34:44 2023

Memory usage per processor = 954.637 Mbytes
    Step    Atoms         KinEng            CPU 
       0        0              0              0 
       1        0              0    0.009732287 
Loop time of 0.0097581 on 40 procs for 1 steps with 0 atoms, finish time Mon Jan  2 15:34:44 2023


Pair  time (%) = 2.47372e-06 (0.0253505)
Neigh time (%) = 0 (0)
Comm  time (%) = 0.000216113 (2.2147)
Outpt time (%) = 8.96918e-05 (0.919152)
Other time (%) = 0.00944982 (96.8408)

Nlocal:    0 ave 0 max 0 min
Histogram: 40 0 0 0 0 0 0 0 0 0
Nghost:    0 ave 0 max 0 min
Histogram: 40 0 0 0 0 0 0 0 0 0
Neighs:    0 ave 0 max 0 min
Histogram: 40 0 0 0 0 0 0 0 0 0

Total # of neighbors = 0
Neighbor list builds = 0
Dangerous builds = 0
read_dump dump.atom_info_1 1 x y z radius vx vy vz box no add yes replace no #
  orthogonal box = (-0.15 -0.15 -0.15) to (0.15 0.15 0.15)
  0 atoms before read
  522 atoms in snapshot
  0 atoms purged
  0 atoms replaced
  0 atoms trimmed
  522 atoms added
  522 atoms after read
set atom * type 1 density 2650 vy -0.01175 #
  522 settings made for type
  522 settings made for density
  522 settings made for vy
run 1 #
Setting up run at Mon Jan  2 15:34:44 2023

Memory usage per processor = 958.989 Mbytes
    Step    Atoms         KinEng            CPU 
       1      522  2.0467238e-07              0 
       2      522  2.2321206e-07    0.009215011 
Loop time of 0.00922637 on 40 procs for 1 steps with 522 atoms, finish time Mon Jan  2 15:34:44 2023


Pair  time (%) = 2.16865e-06 (0.0235049)
Neigh time (%) = 0 (0)
Comm  time (%) = 6.36755e-06 (0.0690147)
Outpt time (%) = 0.000110889 (1.20187)
Other time (%) = 0.00910695 (98.7056)

Nlocal:    13.05 ave 230 max 0 min
Histogram: 36 2 0 0 0 0 0 0 1 1
Nghost:    6.9 ave 88 max 0 min
Histogram: 36 0 0 0 0 1 1 0 0 2
Neighs:    4.05 ave 71 max 0 min
Histogram: 36 2 0 0 0 0 0 0 0 2

Total # of neighbors = 162
Ave neighs/atom = 0.310345
Neighbor list builds = 0
Dangerous builds = 0
write_dump all custom dump.atom_info_ac_* id type x y z radius vx vy vz density #
run 154320
Setting up run at Mon Jan  2 15:34:44 2023

Memory usage per processor = 958.989 Mbytes
    Step    Atoms         KinEng            CPU 
       2      522  2.2321206e-07              0 
  154322      522  2.5096779e-05      1531.7712 
Loop time of 1531.77 on 40 procs for 154320 steps with 522 atoms, finish time Mon Jan  2 16:00:16 2023


Pair  time (%) = 0.311001 (0.0203033)
Neigh time (%) = 0.137912 (0.00900346)
Comm  time (%) = 0.598627 (0.0390807)
Outpt time (%) = 0.000381919 (2.49332e-05)
Other time (%) = 1530.72 (99.9316)

Nlocal:    13.05 ave 225 max 0 min
Histogram: 36 0 2 0 0 0 0 0 0 2
Nghost:    6.975 ave 93 max 0 min
Histogram: 36 0 0 0 1 1 0 0 0 2
Neighs:    4.4 ave 82 max 0 min
Histogram: 36 2 0 0 0 0 0 0 1 1

Total # of neighbors = 176
Ave neighs/atom = 0.337165
Neighbor list builds = 412
Dangerous builds = 0
write_dump all custom dump.atom_info_ac_* id type x y z radius vx vy vz density #
run 154320
Setting up run at Mon Jan  2 16:00:16 2023

Memory usage per processor = 958.989 Mbytes
    Step    Atoms         KinEng            CPU 
  154322      522  2.5096779e-05              0 
  308642      522  0.00014274771      1528.2168 
Loop time of 1528.22 on 40 procs for 154320 steps with 522 atoms, finish time Mon Jan  2 16:25:44 2023


Pair  time (%) = 0.314052 (0.0205502)
Neigh time (%) = 0.128737 (0.00842402)
Comm  time (%) = 0.740999 (0.0484878)
Outpt time (%) = 0.000742461 (4.85835e-05)
Other time (%) = 1527.03 (99.9225)

Nlocal:    13.05 ave 215 max 0 min
Histogram: 36 0 2 0 0 0 0 0 0 2
Nghost:    7.05 ave 94 max 0 min
Histogram: 36 0 0 0 0 2 0 0 0 2
Neighs:    4.375 ave 75 max 0 min
Histogram: 36 1 1 0 0 0 0 0 0 2

Total # of neighbors = 175
Ave neighs/atom = 0.335249
Neighbor list builds = 412
Dangerous builds = 0
write_dump all custom dump.atom_info_ac_* id type x y z radius vx vy vz density #
run 154320
Setting up run at Mon Jan  2 16:25:44 2023

Memory usage per processor = 958.989 Mbytes
    Step    Atoms         KinEng            CPU 
  308642      522  0.00014274771              0 
  462962      522  0.00014423352       1535.191 
Loop time of 1535.19 on 40 procs for 154320 steps with 522 atoms, finish time Mon Jan  2 16:51:19 2023


Pair  time (%) = 0.319645 (0.0208212)
Neigh time (%) = 0.119895 (0.00780977)
Comm  time (%) = 0.88679 (0.0577642)
Outpt time (%) = 0.000595439 (3.8786e-05)
Other time (%) = 1533.86 (99.9136)

Nlocal:    13.05 ave 210 max 0 min
Histogram: 36 0 2 0 0 0 0 0 0 2
Nghost:    6.9 ave 92 max 0 min
Histogram: 36 0 0 0 1 1 0 0 0 2
Neighs:    4.275 ave 72 max 0 min
Histogram: 36 0 2 0 0 0 0 0 0 2

Total # of neighbors = 171
Ave neighs/atom = 0.327586
Neighbor list builds = 412
Dangerous builds = 0
write_dump all custom dump.atom_info_ac_* id type x y z radius vx vy vz density #
run 154320
Setting up run at Mon Jan  2 16:51:19 2023

Memory usage per processor = 958.989 Mbytes
    Step    Atoms         KinEng            CPU 
  462962      522  0.00014423352              0 
  617282      522  7.6652719e-05      1538.9262 
Loop time of 1538.93 on 40 procs for 154320 steps with 522 atoms, finish time Mon Jan  2 17:16:58 2023


Pair  time (%) = 0.316873 (0.0205906)
Neigh time (%) = 0.123542 (0.00802779)
Comm  time (%) = 0.842126 (0.0547217)
Outpt time (%) = 0.000594552 (3.86342e-05)
Other time (%) = 1537.64 (99.9166)

Nlocal:    13.05 ave 207 max 0 min
Histogram: 36 0 2 0 0 0 0 0 0 2
Nghost:    6.925 ave 90 max 0 min
Histogram: 36 0 0 0 0 1 1 0 0 2
Neighs:    4.1 ave 74 max 0 min
Histogram: 36 1 1 0 0 0 0 1 0 1

Total # of neighbors = 164
Ave neighs/atom = 0.314176
Neighbor list builds = 412
Dangerous builds = 0
write_dump all custom dump.atom_info_ac_* id type x y z radius vx vy vz density #
run 154320
Setting up run at Mon Jan  2 17:16:58 2023

Memory usage per processor = 958.989 Mbytes
    Step    Atoms         KinEng            CPU 
  617282      522  7.6652719e-05              0 
  771602      522   0.0003105504      1643.4706 
Loop time of 1643.47 on 40 procs for 154320 steps with 522 atoms, finish time Mon Jan  2 17:44:22 2023


Pair  time (%) = 0.319004 (0.0194104)
Neigh time (%) = 0.121363 (0.00738455)
Comm  time (%) = 0.839968 (0.0511094)
Outpt time (%) = 0.000634873 (3.863e-05)
Other time (%) = 1642.19 (99.9221)

Nlocal:    13.05 ave 208 max 0 min
Histogram: 36 0 2 0 0 0 0 0 0 2
Nghost:    6.9 ave 91 max 0 min
Histogram: 36 0 0 0 0 1 1 0 1 1
Neighs:    4 ave 70 max 0 min
Histogram: 36 1 1 0 0 0 0 0 1 1

Total # of neighbors = 160
Ave neighs/atom = 0.306513
Neighbor list builds = 412
Dangerous builds = 0
write_dump all custom dump.atom_info_ac_* id type x y z radius vx vy vz density #
run 154320
Setting up run at Mon Jan  2 17:44:22 2023

Memory usage per processor = 958.989 Mbytes
    Step    Atoms         KinEng            CPU 
  771602      522   0.0003105504              0 
  925922      522   0.0034253377      1564.3872 
Loop time of 1564.39 on 40 procs for 154320 steps with 522 atoms, finish time Mon Jan  2 18:10:26 2023


Pair  time (%) = 0.319285 (0.0204096)
Neigh time (%) = 0.211785 (0.0135379)
Comm  time (%) = 0.945661 (0.0604492)
Outpt time (%) = 0.000740074 (4.73076e-05)
Other time (%) = 1562.91 (99.9056)

Nlocal:    13.05 ave 206 max 0 min
Histogram: 36 0 2 0 0 0 0 0 0 2
Nghost:    6.775 ave 86 max 0 min
Histogram: 36 0 0 0 0 1 1 0 1 1
Neighs:    3.975 ave 74 max 0 min
Histogram: 36 2 0 0 0 0 0 1 0 1

Total # of neighbors = 159
Ave neighs/atom = 0.304598
Neighbor list builds = 685
Dangerous builds = 0
write_dump all custom dump.atom_info_ac_* id type x y z radius vx vy vz density #
run 154320
Setting up run at Mon Jan  2 18:10:27 2023

Memory usage per processor = 958.989 Mbytes
    Step    Atoms         KinEng            CPU 
  925922      522   0.0034253377              0 
 1080242      522   0.0028300666       1622.481 
Loop time of 1622.48 on 40 procs for 154320 steps with 522 atoms, finish time Mon Jan  2 18:37:29 2023


Pair  time (%) = 0.317423 (0.019564)
Neigh time (%) = 0.419672 (0.0258661)
Comm  time (%) = 1.23225 (0.0759484)
Outpt time (%) = 0.000735392 (4.53252e-05)
Other time (%) = 1620.51 (99.8786)

Nlocal:    13.05 ave 204 max 0 min
Histogram: 36 0 2 0 0 0 0 0 0 2
Nghost:    6.825 ave 84 max 0 min
Histogram: 36 0 0 0 0 0 2 0 0 2
Neighs:    4.05 ave 72 max 0 min
Histogram: 36 0 2 0 0 0 0 1 0 1

Total # of neighbors = 162
Ave neighs/atom = 0.310345
Neighbor list builds = 1308
Dangerous builds = 0
write_dump all custom dump.atom_info_ac_* id type x y z radius vx vy vz density #
run 154320
Setting up run at Mon Jan  2 18:37:29 2023

Memory usage per processor = 958.989 Mbytes
    Step    Atoms         KinEng            CPU 
 1080242      522   0.0028300666              0 
 1234562      522    0.016969765      1603.2651 
Loop time of 1603.27 on 40 procs for 154320 steps with 522 atoms, finish time Mon Jan  2 19:04:12 2023


Pair  time (%) = 0.320261 (0.0199755)
Neigh time (%) = 1.21341 (0.0756837)
Comm  time (%) = 1.86132 (0.116096)
Outpt time (%) = 0.000668278 (4.16823e-05)
Other time (%) = 1599.87 (99.7882)

Nlocal:    13.05 ave 203 max 0 min
Histogram: 36 0 2 0 0 0 0 0 0 2
Nghost:    6.575 ave 85 max 0 min
Histogram: 36 0 0 0 0 2 0 0 0 2
Neighs:    4.35 ave 76 max 0 min
Histogram: 36 0 2 0 0 0 0 1 0 1

Total # of neighbors = 174
Ave neighs/atom = 0.333333
Neighbor list builds = 3669
Dangerous builds = 0
write_dump all custom dump.atom_info_ac_* id type x y z radius vx vy vz density #
run 154320
Setting up run at Mon Jan  2 19:04:13 2023

Memory usage per processor = 958.989 Mbytes
    Step    Atoms         KinEng            CPU 
 1234562      522    0.016969765              0 
 1388882      520    0.015466802      1668.2155 
Loop time of 1668.23 on 40 procs for 154320 steps with 520 atoms, finish time Mon Jan  2 19:32:01 2023


Pair  time (%) = 0.326871 (0.0195939)
Neigh time (%) = 2.54374 (0.152482)
Comm  time (%) = 4.03458 (0.241848)
Outpt time (%) = 0.000721208 (4.3232e-05)
Other time (%) = 1661.32 (99.586)

Nlocal:    13 ave 200 max 0 min
Histogram: 36 0 2 0 0 0 0 0 0 2
Nghost:    6.425 ave 84 max 0 min
Histogram: 36 0 0 0 0 2 0 0 1 1
Neighs:    4.275 ave 78 max 0 min
Histogram: 36 0 2 0 0 0 1 0 0 1

Total # of neighbors = 171
Ave neighs/atom = 0.328846
Neighbor list builds = 7836
Dangerous builds = 336
write_dump all custom dump.atom_info_ac_* id type x y z radius vx vy vz density #
run 154320
Setting up run at Mon Jan  2 19:32:01 2023

Memory usage per processor = 958.989 Mbytes
    Step    Atoms         KinEng            CPU 
 1388882      520    0.015466802              0 
 1543202      518     0.14895532       1593.125 
Loop time of 1593.13 on 40 procs for 154320 steps with 518 atoms, finish time Mon Jan  2 19:58:34 2023


Pair  time (%) = 0.331883 (0.0208322)
Neigh time (%) = 3.18006 (0.199611)
Comm  time (%) = 4.15461 (0.260783)
Outpt time (%) = 0.000659698 (4.14091e-05)
Other time (%) = 1585.46 (99.5187)

Nlocal:    12.95 ave 196 max 0 min
Histogram: 36 0 1 1 0 0 0 0 0 2
Nghost:    6.25 ave 85 max 0 min
Histogram: 36 0 0 0 0 2 0 0 1 1
Neighs:    4.2 ave 74 max 0 min
Histogram: 36 0 2 0 0 0 0 1 0 1

Total # of neighbors = 168
Ave neighs/atom = 0.324324
Neighbor list builds = 9603
Dangerous builds = 0
write_dump all custom dump.atom_info_ac_* id type x y z radius vx vy vz density #
run 154320
Setting up run at Mon Jan  2 19:58:34 2023

Memory usage per processor = 958.989 Mbytes
    Step    Atoms         KinEng            CPU 
 1543202      518     0.14895532              0 
 1697522      517    0.067880799      1575.5775 
Loop time of 1575.58 on 40 procs for 154320 steps with 517 atoms, finish time Mon Jan  2 20:24:50 2023


Pair  time (%) = 0.326933 (0.02075)
Neigh time (%) = 2.60744 (0.165491)
Comm  time (%) = 3.30369 (0.209681)
Outpt time (%) = 0.000626375 (3.97553e-05)
Other time (%) = 1569.34 (99.604)

Nlocal:    12.925 ave 196 max 0 min
Histogram: 36 0 1 1 0 0 0 0 0 2
Nghost:    6.35 ave 85 max 0 min
Histogram: 36 0 0 0 0 2 0 0 1 1
Neighs:    4.175 ave 71 max 0 min
Histogram: 36 0 1 1 0 0 0 1 0 1

Total # of neighbors = 167
Ave neighs/atom = 0.323017
Neighbor list builds = 7849
Dangerous builds = 0
write_dump all custom dump.atom_info_ac_* id type x y z radius vx vy vz density #
run 154320
Setting up run at Mon Jan  2 20:24:50 2023

Memory usage per processor = 958.989 Mbytes
    Step    Atoms         KinEng            CPU 
 1697522      517    0.067880799              0 
 1851842      517    0.096211645      1581.4202 
Loop time of 1581.42 on 40 procs for 154320 steps with 517 atoms, finish time Mon Jan  2 20:51:11 2023


Pair  time (%) = 0.327893 (0.0207341)
Neigh time (%) = 2.66797 (0.168708)
Comm  time (%) = 4.64481 (0.293711)
Outpt time (%) = 0.000676615 (4.27853e-05)
Other time (%) = 1573.78 (99.5168)

Nlocal:    12.925 ave 195 max 0 min
Histogram: 36 0 1 1 0 0 0 0 0 2
Nghost:    6.4 ave 87 max 0 min
Histogram: 36 0 0 0 0 2 0 0 1 1
Neighs:    4.05 ave 68 max 0 min
Histogram: 36 0 1 1 0 0 0 1 0 1

Total # of neighbors = 162
Ave neighs/atom = 0.313346
Neighbor list builds = 8011
Dangerous builds = 0
write_dump all custom dump.atom_info_ac_* id type x y z radius vx vy vz density #
run 154320
Setting up run at Mon Jan  2 20:51:11 2023

Memory usage per processor = 958.989 Mbytes
    Step    Atoms         KinEng            CPU 
 1851842      517    0.096211645              0 
 2006162      517     0.16606563      1574.3076 
Loop time of 1574.31 on 40 procs for 154320 steps with 517 atoms, finish time Mon Jan  2 21:17:26 2023


Pair  time (%) = 0.324281 (0.0205983)
Neigh time (%) = 2.2615 (0.143651)
Comm  time (%) = 3.66901 (0.233055)
Outpt time (%) = 0.000631306 (4.01006e-05)
Other time (%) = 1568.05 (99.6027)

Nlocal:    12.925 ave 197 max 0 min
Histogram: 36 0 1 1 0 0 0 0 0 2
Nghost:    6.4 ave 84 max 0 min
Histogram: 36 0 0 0 0 2 0 0 1 1
Neighs:    4.2 ave 68 max 0 min
Histogram: 36 0 1 0 1 0 0 1 0 1

Total # of neighbors = 168
Ave neighs/atom = 0.324952
Neighbor list builds = 6781
Dangerous builds = 0
write_dump all custom dump.atom_info_ac_* id type x y z radius vx vy vz density #
run 154320
Setting up run at Mon Jan  2 21:17:26 2023

Memory usage per processor = 958.989 Mbytes
    Step    Atoms         KinEng            CPU 
 2006162      517     0.16606563              0 
 2160482      515     0.13680723      1563.1005 
Loop time of 1563.1 on 40 procs for 154320 steps with 515 atoms, finish time Mon Jan  2 21:43:29 2023


Pair  time (%) = 0.324294 (0.0207468)
Neigh time (%) = 2.02271 (0.129403)
Comm  time (%) = 4.02225 (0.257325)
Outpt time (%) = 0.000736058 (4.70896e-05)
Other time (%) = 1556.73 (99.5925)

Nlocal:    12.875 ave 194 max 0 min
Histogram: 36 0 1 1 0 0 0 0 0 2
Nghost:    6.525 ave 91 max 0 min
Histogram: 36 0 0 0 1 1 0 0 1 1
Neighs:    4.375 ave 75 max 0 min
Histogram: 36 0 1 1 0 0 0 1 0 1

Total # of neighbors = 175
Ave neighs/atom = 0.339806
Neighbor list builds = 6106
Dangerous builds = 3
write_dump all custom dump.atom_info_ac_* id type x y z radius vx vy vz density #
run 154320
Setting up run at Mon Jan  2 21:43:29 2023

Memory usage per processor = 958.989 Mbytes
    Step    Atoms         KinEng            CPU 
 2160482      515     0.13680723              0 
 2314802      515       0.150643      1564.9784 
Loop time of 1564.98 on 40 procs for 154320 steps with 515 atoms, finish time Mon Jan  2 22:09:34 2023


Pair  time (%) = 0.325743 (0.0208146)
Neigh time (%) = 1.67513 (0.107039)
Comm  time (%) = 2.721 (0.173868)
Outpt time (%) = 0.000659667 (4.21518e-05)
Other time (%) = 1560.26 (99.6982)

Nlocal:    12.875 ave 195 max 0 min
Histogram: 36 0 2 0 0 0 0 0 0 2
Nghost:    6.5 ave 83 max 0 min
Histogram: 36 0 0 0 0 1 1 0 1 1
Neighs:    4.1 ave 74 max 0 min
Histogram: 36 0 2 0 0 0 1 0 0 1

Total # of neighbors = 164
Ave neighs/atom = 0.318447
Neighbor list builds = 5063
Dangerous builds = 0
write_dump all custom dump.atom_info_ac_* id type x y z radius vx vy vz density #
run 154320
Setting up run at Mon Jan  2 22:09:34 2023

Memory usage per processor = 958.989 Mbytes
    Step    Atoms         KinEng            CPU 
 2314802      515       0.150643              0 
 2469122      513     0.63874099      1561.8435 
Loop time of 1561.84 on 40 procs for 154320 steps with 513 atoms, finish time Mon Jan  2 22:35:36 2023


Pair  time (%) = 0.325079 (0.0208138)
Neigh time (%) = 1.43303 (0.0917525)
Comm  time (%) = 2.67317 (0.171155)
Outpt time (%) = 0.0200461 (0.00128349)
Other time (%) = 1557.39 (99.715)

Nlocal:    12.825 ave 196 max 0 min
Histogram: 36 0 2 0 0 0 0 0 0 2
Nghost:    6.625 ave 81 max 0 min
Histogram: 36 0 0 0 1 0 0 1 0 2
Neighs:    4.275 ave 73 max 0 min
Histogram: 36 0 1 1 0 0 0 1 0 1

Total # of neighbors = 171
Ave neighs/atom = 0.333333
Neighbor list builds = 4455
Dangerous builds = 1
write_dump all custom dump.atom_info_ac_* id type x y z radius vx vy vz density #
run 154320
Setting up run at Mon Jan  2 22:35:36 2023

Memory usage per processor = 958.989 Mbytes
    Step    Atoms         KinEng            CPU 
 2469122      513     0.63874099              0 
 2623442      511      0.1318855      1615.1089 
Loop time of 1615.11 on 40 procs for 154320 steps with 511 atoms, finish time Mon Jan  2 23:02:31 2023


Pair  time (%) = 0.342684 (0.0212174)
Neigh time (%) = 4.72369 (0.292469)
Comm  time (%) = 6.20675 (0.384293)
Outpt time (%) = 0.000703523 (4.35588e-05)
Other time (%) = 1603.84 (99.302)

Nlocal:    12.775 ave 194 max 0 min
Histogram: 36 0 2 0 0 0 0 0 0 2
Nghost:    6.75 ave 82 max 0 min
Histogram: 36 0 0 0 0 1 0 1 0 2
Neighs:    4.25 ave 71 max 0 min
Histogram: 36 0 1 1 0 0 0 1 0 1

Total # of neighbors = 170
Ave neighs/atom = 0.332681
Neighbor list builds = 14511
Dangerous builds = 0
write_dump all custom dump.atom_info_ac_* id type x y z radius vx vy vz density #
run 154320
Setting up run at Mon Jan  2 23:02:31 2023

Memory usage per processor = 958.989 Mbytes
    Step    Atoms         KinEng            CPU 
 2623442      511      0.1318855              0 
 2777762      510     0.13216114      1596.7362 
Loop time of 1596.74 on 40 procs for 154320 steps with 510 atoms, finish time Mon Jan  2 23:29:08 2023


Pair  time (%) = 0.335852 (0.0210336)
Neigh time (%) = 3.84226 (0.240632)
Comm  time (%) = 5.64529 (0.353552)
Outpt time (%) = 0.000696818 (4.36401e-05)
Other time (%) = 1586.91 (99.3847)

Nlocal:    12.75 ave 195 max 0 min
Histogram: 36 0 2 0 0 0 0 0 1 1
Nghost:    6.725 ave 82 max 0 min
Histogram: 36 0 0 0 0 1 0 1 0 2
Neighs:    4.225 ave 70 max 0 min
Histogram: 36 0 1 1 0 0 0 0 1 1

Total # of neighbors = 169
Ave neighs/atom = 0.331373
Neighbor list builds = 11618
Dangerous builds = 2
write_dump all custom dump.atom_info_ac_* id type x y z radius vx vy vz density #
run 154320
Setting up run at Mon Jan  2 23:29:08 2023

Memory usage per processor = 958.989 Mbytes
    Step    Atoms         KinEng            CPU 
 2777762      510     0.13216114              0 
 2932082      509     0.21204228      1577.2957 
Loop time of 1577.3 on 40 procs for 154320 steps with 509 atoms, finish time Mon Jan  2 23:55:25 2023


Pair  time (%) = 0.325061 (0.0206088)
Neigh time (%) = 2.76923 (0.175568)
Comm  time (%) = 4.90554 (0.311009)
Outpt time (%) = 0.000878745 (5.57121e-05)
Other time (%) = 1569.3 (99.4928)

Nlocal:    12.725 ave 194 max 0 min
Histogram: 36 0 2 0 0 0 0 0 1 1
Nghost:    6.675 ave 83 max 0 min
Histogram: 36 0 0 0 1 0 0 1 0 2
Neighs:    3.825 ave 68 max 0 min
Histogram: 36 1 0 1 0 0 0 1 0 1

Total # of neighbors = 153
Ave neighs/atom = 0.300589
Neighbor list builds = 8370
Dangerous builds = 0
write_dump all custom dump.atom_info_ac_* id type x y z radius vx vy vz density #
run 154320
Setting up run at Mon Jan  2 23:55:25 2023

Memory usage per processor = 958.989 Mbytes
    Step    Atoms         KinEng            CPU 
 2932082      509     0.21204228              0 
 3086402      508     0.22500202      1577.0504 
Loop time of 1577.06 on 40 procs for 154320 steps with 508 atoms, finish time Tue Jan  3 00:21:43 2023


Pair  time (%) = 0.322909 (0.0204754)
Neigh time (%) = 2.12712 (0.134879)
Comm  time (%) = 3.6997 (0.234595)
Outpt time (%) = 0.00323976 (0.000205431)
Other time (%) = 1570.91 (99.6098)

Nlocal:    12.7 ave 192 max 0 min
Histogram: 36 0 2 0 0 0 0 0 0 2
Nghost:    6.75 ave 80 max 0 min
Histogram: 36 0 0 0 1 0 0 0 1 2
Neighs:    4.35 ave 83 max 0 min
Histogram: 36 1 1 0 0 0 1 0 0 1

Total # of neighbors = 174
Ave neighs/atom = 0.34252
Neighbor list builds = 6415
Dangerous builds = 0
write_dump all custom dump.atom_info_ac_* id type x y z radius vx vy vz density #
run 154320
Setting up run at Tue Jan  3 00:21:43 2023

Memory usage per processor = 958.989 Mbytes
    Step    Atoms         KinEng            CPU 
 3086402      508     0.22500202              0 
 3240722      506     0.15428817      1566.1075 
Loop time of 1566.11 on 40 procs for 154320 steps with 506 atoms, finish time Tue Jan  3 00:47:49 2023


Pair  time (%) = 0.320502 (0.0204649)
Neigh time (%) = 1.49947 (0.0957453)
Comm  time (%) = 3.20924 (0.204918)
Outpt time (%) = 0.000684929 (4.37345e-05)
Other time (%) = 1561.08 (99.6788)

Nlocal:    12.65 ave 190 max 0 min
Histogram: 36 0 1 1 0 0 0 0 0 2
Nghost:    6.55 ave 77 max 0 min
Histogram: 36 0 0 0 0 1 0 0 1 2
Neighs:    4.275 ave 85 max 0 min
Histogram: 36 1 1 0 0 0 1 0 0 1

Total # of neighbors = 171
Ave neighs/atom = 0.337945
Neighbor list builds = 4553
Dangerous builds = 78
write_dump all custom dump.atom_info_ac_* id type x y z radius vx vy vz density #
run 154320
Setting up run at Tue Jan  3 00:47:49 2023

Memory usage per processor = 958.989 Mbytes
    Step    Atoms         KinEng            CPU 
 3240722      506     0.15428817              0 
 3395042      502     0.78272573      1572.0792 
Loop time of 1572.08 on 40 procs for 154320 steps with 502 atoms, finish time Tue Jan  3 01:14:01 2023


Pair  time (%) = 0.322821 (0.0205346)
Neigh time (%) = 2.11719 (0.134675)
Comm  time (%) = 4.04905 (0.25756)
Outpt time (%) = 0.000622823 (3.96178e-05)
Other time (%) = 1565.59 (99.5872)

Nlocal:    12.55 ave 191 max 0 min
Histogram: 36 0 2 0 0 0 0 0 0 2
Nghost:    6.575 ave 79 max 0 min
Histogram: 36 0 0 0 0 1 0 0 1 2
Neighs:    4.35 ave 87 max 0 min
Histogram: 36 1 1 0 0 0 1 0 0 1

Total # of neighbors = 174
Ave neighs/atom = 0.346614
Neighbor list builds = 6617
Dangerous builds = 143
write_dump all custom dump.atom_info_ac_* id type x y z radius vx vy vz density #
run 154320
Setting up run at Tue Jan  3 01:14:01 2023

Memory usage per processor = 958.989 Mbytes
    Step    Atoms         KinEng            CPU 
 3395042      502     0.78272573              0 
 3549362      498     0.32728709      1580.8003 
Loop time of 1580.8 on 40 procs for 154320 steps with 498 atoms, finish time Tue Jan  3 01:40:22 2023


Pair  time (%) = 0.327018 (0.0206868)
Neigh time (%) = 2.74954 (0.173934)
Comm  time (%) = 4.71359 (0.298177)
Outpt time (%) = 0.000675244 (4.27153e-05)
Other time (%) = 1573.01 (99.5072)

Nlocal:    12.45 ave 190 max 0 min
Histogram: 36 0 2 0 0 0 0 0 0 2
Nghost:    6.45 ave 77 max 0 min
Histogram: 36 0 0 0 1 0 0 0 1 2
Neighs:    4.35 ave 84 max 0 min
Histogram: 36 1 0 1 0 0 1 0 0 1

Total # of neighbors = 174
Ave neighs/atom = 0.349398
Neighbor list builds = 8421
Dangerous builds = 49
write_dump all custom dump.atom_info_ac_* id type x y z radius vx vy vz density #
run 154320
Setting up run at Tue Jan  3 01:40:22 2023

Memory usage per processor = 958.989 Mbytes
    Step    Atoms         KinEng            CPU 
 3549362      498     0.32728709              0 
 3703682      495     0.35828227      1573.3754 
Loop time of 1573.38 on 40 procs for 154320 steps with 495 atoms, finish time Tue Jan  3 02:06:35 2023


Pair  time (%) = 0.324798 (0.0206434)
Neigh time (%) = 2.32453 (0.147742)
Comm  time (%) = 4.34241 (0.275993)
Outpt time (%) = 0.000559433 (3.55562e-05)
Other time (%) = 1566.38 (99.5556)

Nlocal:    12.375 ave 189 max 0 min
Histogram: 36 0 2 0 0 0 0 0 0 2
Nghost:    6.15 ave 74 max 0 min
Histogram: 36 0 0 0 0 1 0 1 0 2
Neighs:    4.2 ave 74 max 0 min
Histogram: 36 1 0 1 0 0 0 1 0 1

Total # of neighbors = 168
Ave neighs/atom = 0.339394
Neighbor list builds = 7163
Dangerous builds = 500
write_dump all custom dump.atom_info_ac_* id type x y z radius vx vy vz density #
run 154320
Setting up run at Tue Jan  3 02:06:35 2023

Memory usage per processor = 958.989 Mbytes
    Step    Atoms         KinEng            CPU 
 3703682      495     0.35828227              0 
 3858002      492      0.1875111      1568.4704 
Loop time of 1568.48 on 40 procs for 154320 steps with 492 atoms, finish time Tue Jan  3 02:32:44 2023


Pair  time (%) = 0.31888 (0.0203306)
Neigh time (%) = 1.71017 (0.109034)
Comm  time (%) = 3.61968 (0.230777)
Outpt time (%) = 0.000656167 (4.18347e-05)
Other time (%) = 1562.83 (99.6398)

Nlocal:    12.3 ave 185 max 0 min
Histogram: 36 0 2 0 0 0 0 0 0 2
Nghost:    6.275 ave 78 max 0 min
Histogram: 36 0 0 0 1 0 0 1 0 2
Neighs:    4.225 ave 82 max 0 min
Histogram: 36 1 1 0 0 0 1 0 0 1

Total # of neighbors = 169
Ave neighs/atom = 0.343496
Neighbor list builds = 5311
Dangerous builds = 410
write_dump all custom dump.atom_info_ac_* id type x y z radius vx vy vz density #
run 154320
Setting up run at Tue Jan  3 02:32:44 2023

Memory usage per processor = 958.989 Mbytes
    Step    Atoms         KinEng            CPU 
 3858002      492      0.1875111              0 
 4012322      488     0.14516103      1591.1987 
Loop time of 1591.2 on 40 procs for 154320 steps with 488 atoms, finish time Tue Jan  3 02:59:15 2023


Pair  time (%) = 0.327503 (0.0205822)
Neigh time (%) = 2.90684 (0.182682)
Comm  time (%) = 5.19161 (0.32627)
Outpt time (%) = 0.000941901 (5.91944e-05)
Other time (%) = 1582.77 (99.4704)

Nlocal:    12.2 ave 184 max 0 min
Histogram: 36 0 2 0 0 0 0 0 0 2
Nghost:    6.375 ave 77 max 0 min
Histogram: 36 0 0 0 0 1 0 1 0 2
Neighs:    4.775 ave 88 max 0 min
Histogram: 36 1 1 0 0 0 0 1 0 1

Total # of neighbors = 191
Ave neighs/atom = 0.391393
Neighbor list builds = 8938
Dangerous builds = 233
write_dump all custom dump.atom_info_ac_* id type x y z radius vx vy vz density #
run 154320
Setting up run at Tue Jan  3 02:59:15 2023

Memory usage per processor = 958.989 Mbytes
    Step    Atoms         KinEng            CPU 
 4012322      488     0.14516103              0 
 4166642      486     0.11108429      1559.6322 
Loop time of 1559.63 on 40 procs for 154320 steps with 486 atoms, finish time Tue Jan  3 03:25:15 2023


Pair  time (%) = 0.316897 (0.0203187)
Neigh time (%) = 1.51767 (0.0973094)
Comm  time (%) = 3.38534 (0.21706)
Outpt time (%) = 0.000730984 (4.6869e-05)
Other time (%) = 1554.41 (99.6653)

Nlocal:    12.15 ave 183 max 0 min
Histogram: 36 0 2 0 0 0 0 0 0 2
Nghost:    6.125 ave 73 max 0 min
Histogram: 36 0 0 0 0 1 0 0 1 2
Neighs:    4.325 ave 78 max 0 min
Histogram: 36 1 1 0 0 0 0 1 0 1

Total # of neighbors = 173
Ave neighs/atom = 0.355967
Neighbor list builds = 4664
Dangerous builds = 1
write_dump all custom dump.atom_info_ac_* id type x y z radius vx vy vz density #
run 154320
Setting up run at Tue Jan  3 03:25:15 2023

Memory usage per processor = 958.989 Mbytes
    Step    Atoms         KinEng            CPU 
 4166642      486     0.11108429              0 
 4320962      486     0.13783942      1560.9693 
Loop time of 1560.97 on 40 procs for 154320 steps with 486 atoms, finish time Tue Jan  3 03:51:16 2023


Pair  time (%) = 0.314239 (0.020131)
Neigh time (%) = 1.2629 (0.0809051)
Comm  time (%) = 2.94439 (0.188626)
Outpt time (%) = 0.000683169 (4.37657e-05)
Other time (%) = 1556.45 (99.7103)

Nlocal:    12.15 ave 187 max 0 min
Histogram: 36 0 2 0 0 0 0 0 1 1
Nghost:    6.425 ave 76 max 0 min
Histogram: 36 0 0 0 0 1 0 1 0 2
Neighs:    4.45 ave 78 max 0 min
Histogram: 36 1 1 0 0 0 0 0 1 1

Total # of neighbors = 178
Ave neighs/atom = 0.366255
Neighbor list builds = 3841
Dangerous builds = 0
write_dump all custom dump.atom_info_ac_* id type x y z radius vx vy vz density #
run 154320
Setting up run at Tue Jan  3 03:51:16 2023

Memory usage per processor = 958.989 Mbytes
    Step    Atoms         KinEng            CPU 
 4320962      486     0.13783942              0 
 4475282      485     0.21796484      1568.9945 
Loop time of 1568.99 on 40 procs for 154320 steps with 485 atoms, finish time Tue Jan  3 04:17:25 2023


Pair  time (%) = 0.319103 (0.020338)
Neigh time (%) = 2.1108 (0.134532)
Comm  time (%) = 3.67838 (0.234442)
Outpt time (%) = 0.00303582 (0.000193488)
Other time (%) = 1562.88 (99.6105)

Nlocal:    12.125 ave 184 max 0 min
Histogram: 36 0 2 0 0 0 0 0 0 2
Nghost:    6.35 ave 79 max 0 min
Histogram: 36 0 0 0 0 1 0 1 1 1
Neighs:    4.5 ave 78 max 0 min
Histogram: 36 1 1 0 0 0 0 0 1 1

Total # of neighbors = 180
Ave neighs/atom = 0.371134
Neighbor list builds = 6380
Dangerous builds = 1
write_dump all custom dump.atom_info_ac_* id type x y z radius vx vy vz density #
run 154320
Setting up run at Tue Jan  3 04:17:25 2023

Memory usage per processor = 958.989 Mbytes
    Step    Atoms         KinEng            CPU 
 4475282      485     0.21796484              0 
 4629602      485     0.10322863      1560.2825 
Loop time of 1560.29 on 40 procs for 154320 steps with 485 atoms, finish time Tue Jan  3 04:43:25 2023


Pair  time (%) = 0.314965 (0.0201863)
Neigh time (%) = 1.26519 (0.0810867)
Comm  time (%) = 2.65303 (0.170034)
Outpt time (%) = 0.0218722 (0.0014018)
Other time (%) = 1556.04 (99.7273)

Nlocal:    12.125 ave 184 max 0 min
Histogram: 36 0 2 0 0 0 0 0 1 1
Nghost:    6.075 ave 73 max 0 min
Histogram: 36 0 0 0 0 0 2 0 0 2
Neighs:    4.625 ave 81 max 0 min
Histogram: 36 1 1 0 0 0 0 0 1 1

Total # of neighbors = 185
Ave neighs/atom = 0.381443
Neighbor list builds = 3846
Dangerous builds = 0
write_dump all custom dump.atom_info_ac_* id type x y z radius vx vy vz density #
run 154320
Setting up run at Tue Jan  3 04:43:26 2023

Memory usage per processor = 958.989 Mbytes
    Step    Atoms         KinEng            CPU 
 4629602      485     0.10322863              0 
 4783922      485    0.086740484      1559.1875 
Loop time of 1559.19 on 40 procs for 154320 steps with 485 atoms, finish time Tue Jan  3 05:09:25 2023


Pair  time (%) = 0.31562 (0.0202426)
Neigh time (%) = 1.59495 (0.102293)
Comm  time (%) = 4.28247 (0.274661)
Outpt time (%) = 0.000701514 (4.49923e-05)
Other time (%) = 1552.99 (99.6028)

Nlocal:    12.125 ave 186 max 0 min
Histogram: 36 0 2 0 0 0 0 0 1 1
Nghost:    6 ave 71 max 0 min
Histogram: 36 0 0 0 0 0 2 0 0 2
Neighs:    4.425 ave 79 max 0 min
Histogram: 36 1 1 0 0 0 0 0 1 1

Total # of neighbors = 177
Ave neighs/atom = 0.364948
Neighbor list builds = 4816
Dangerous builds = 0
write_dump all custom dump.atom_info_ac_* id type x y z radius vx vy vz density #
run 154320
Setting up run at Tue Jan  3 05:09:25 2023

Memory usage per processor = 958.989 Mbytes
    Step    Atoms         KinEng            CPU 
 4783922      485    0.086740484              0 
 4938242      485     0.18038365      1564.7281 
Loop time of 1564.73 on 40 procs for 154320 steps with 485 atoms, finish time Tue Jan  3 05:35:30 2023


Pair  time (%) = 0.315918 (0.02019)
Neigh time (%) = 1.87339 (0.119726)
Comm  time (%) = 4.28699 (0.273977)
Outpt time (%) = 0.00068495 (4.37744e-05)
Other time (%) = 1558.25 (99.5861)

Nlocal:    12.125 ave 185 max 0 min
Histogram: 36 0 1 1 0 0 0 0 1 1
Nghost:    5.7 ave 67 max 0 min
Histogram: 36 0 0 0 0 0 0 2 0 2
Neighs:    4.125 ave 80 max 0 min
Histogram: 37 1 0 0 0 0 0 1 0 1

Total # of neighbors = 165
Ave neighs/atom = 0.340206
Neighbor list builds = 5642
Dangerous builds = 0
write_dump all custom dump.atom_info_ac_* id type x y z radius vx vy vz density #
run 154320
Setting up run at Tue Jan  3 05:35:30 2023

Memory usage per processor = 958.989 Mbytes
    Step    Atoms         KinEng            CPU 
 4938242      485     0.18038365              0 
 5092562      481     0.16618506      1571.7238 
Loop time of 1571.72 on 40 procs for 154320 steps with 481 atoms, finish time Tue Jan  3 06:01:41 2023


Pair  time (%) = 0.313399 (0.0199398)
Neigh time (%) = 1.8234 (0.116013)
Comm  time (%) = 4.72028 (0.300325)
Outpt time (%) = 0.000688006 (4.3774e-05)
Other time (%) = 1564.87 (99.5637)

Nlocal:    12.025 ave 184 max 0 min
Histogram: 36 0 2 0 0 0 0 0 1 1
Nghost:    5.825 ave 71 max 0 min
Histogram: 36 0 0 0 0 0 2 0 1 1
Neighs:    3.925 ave 81 max 0 min
Histogram: 37 1 0 0 0 0 0 1 0 1

Total # of neighbors = 157
Ave neighs/atom = 0.326403
Neighbor list builds = 5723
Dangerous builds = 444
write_dump all custom dump.atom_info_ac_* id type x y z radius vx vy vz density #
run 154320
Setting up run at Tue Jan  3 06:01:42 2023

Memory usage per processor = 958.989 Mbytes
    Step    Atoms         KinEng            CPU 
 5092562      481     0.16618506              0 
 5246882      477     0.17582267      1596.4348 
Loop time of 1596.43 on 40 procs for 154320 steps with 477 atoms, finish time Tue Jan  3 06:28:18 2023


Pair  time (%) = 0.328712 (0.0205904)
Neigh time (%) = 3.79947 (0.237997)
Comm  time (%) = 8.54563 (0.535294)
Outpt time (%) = 0.000668833 (4.18954e-05)
Other time (%) = 1583.76 (99.2061)

Nlocal:    11.925 ave 180 max 0 min
Histogram: 36 0 2 0 0 0 0 0 1 1
Nghost:    5.7 ave 74 max 0 min
Histogram: 36 0 0 0 0 0 2 1 0 1
Neighs:    4.2 ave 86 max 0 min
Histogram: 36 2 0 0 0 0 1 0 0 1

Total # of neighbors = 168
Ave neighs/atom = 0.352201
Neighbor list builds = 11885
Dangerous builds = 1055
write_dump all custom dump.atom_info_ac_* id type x y z radius vx vy vz density #
run 154320
Setting up run at Tue Jan  3 06:28:18 2023

Memory usage per processor = 958.989 Mbytes
    Step    Atoms         KinEng            CPU 
 5246882      477     0.17582267              0 
 5401202      475     0.33202758      1553.9168 
Loop time of 1553.92 on 40 procs for 154320 steps with 475 atoms, finish time Tue Jan  3 06:54:12 2023


Pair  time (%) = 0.312859 (0.0201336)
Neigh time (%) = 1.71012 (0.110052)
Comm  time (%) = 4.19627 (0.270045)
Outpt time (%) = 0.000615423 (3.96046e-05)
Other time (%) = 1547.7 (99.5997)

Nlocal:    11.875 ave 185 max 0 min
Histogram: 35 1 2 0 0 0 0 0 1 1
Nghost:    5.4 ave 62 max 0 min
Histogram: 36 0 0 0 0 0 0 2 1 1
Neighs:    4.075 ave 86 max 0 min
Histogram: 37 1 0 0 0 0 1 0 0 1

Total # of neighbors = 163
Ave neighs/atom = 0.343158
Neighbor list builds = 5152
Dangerous builds = 19
write_dump all custom dump.atom_info_ac_* id type x y z radius vx vy vz density #
run 154320
Setting up run at Tue Jan  3 06:54:12 2023

Memory usage per processor = 958.989 Mbytes
    Step    Atoms         KinEng            CPU 
 5401202      475     0.33202758              0 
 5555522      473     0.26406242      1576.1738 
Loop time of 1576.17 on 40 procs for 154320 steps with 473 atoms, finish time Tue Jan  3 07:20:28 2023


Pair  time (%) = 0.316991 (0.0201114)
Neigh time (%) = 2.72865 (0.173118)
Comm  time (%) = 6.82172 (0.432803)
Outpt time (%) = 0.000713058 (4.52398e-05)
Other time (%) = 1566.31 (99.3739)

Nlocal:    11.825 ave 187 max 0 min
Histogram: 36 0 2 0 0 0 0 1 0 1
Nghost:    5.425 ave 60 max 0 min
Histogram: 36 0 0 0 0 0 0 2 0 2
Neighs:    3.7 ave 79 max 0 min
Histogram: 37 0 1 0 0 0 1 0 0 1

Total # of neighbors = 148
Ave neighs/atom = 0.312896
Neighbor list builds = 8348
Dangerous builds = 501
write_dump all custom dump.atom_info_ac_* id type x y z radius vx vy vz density #
run 154320
Setting up run at Tue Jan  3 07:20:28 2023

Memory usage per processor = 958.989 Mbytes
    Step    Atoms         KinEng            CPU 
 5555522      473     0.26406242              0 
 5709842      468     0.31487257      1577.2601 
Loop time of 1577.26 on 40 procs for 154320 steps with 468 atoms, finish time Tue Jan  3 07:46:46 2023


Pair  time (%) = 0.314339 (0.0199294)
Neigh time (%) = 3.19331 (0.20246)
Comm  time (%) = 7.99504 (0.506894)
Outpt time (%) = 0.000674628 (4.27722e-05)
Other time (%) = 1565.76 (99.2707)

Nlocal:    11.7 ave 181 max 0 min
Histogram: 36 0 2 0 0 0 0 1 0 1
Nghost:    5.325 ave 64 max 0 min
Histogram: 36 0 0 0 0 0 1 1 1 1
Neighs:    3.25 ave 66 max 0 min
Histogram: 37 0 1 0 0 0 1 0 0 1

Total # of neighbors = 130
Ave neighs/atom = 0.277778
Neighbor list builds = 9703
Dangerous builds = 411
write_dump all custom dump.atom_info_ac_* id type x y z radius vx vy vz density #
run 154320
Setting up run at Tue Jan  3 07:46:46 2023

Memory usage per processor = 958.989 Mbytes
    Step    Atoms         KinEng            CPU 
 5709842      468     0.31487257              0 
 5864162      465     0.49626779      1583.0261 
Loop time of 1583.03 on 40 procs for 154320 steps with 465 atoms, finish time Tue Jan  3 08:13:09 2023


Pair  time (%) = 0.315488 (0.0199294)
Neigh time (%) = 2.93095 (0.185149)
Comm  time (%) = 6.26489 (0.395754)
Outpt time (%) = 0.000733094 (4.63097e-05)
Other time (%) = 1573.51 (99.3991)

Nlocal:    11.625 ave 180 max 0 min
Histogram: 36 1 0 1 0 0 0 1 0 1
Nghost:    5.325 ave 66 max 0 min
Histogram: 36 0 0 0 0 1 0 1 1 1
Neighs:    3.4 ave 69 max 0 min
Histogram: 37 0 0 1 0 0 1 0 0 1

Total # of neighbors = 136
Ave neighs/atom = 0.292473
Neighbor list builds = 8877
Dangerous builds = 326
write_dump all custom dump.atom_info_ac_* id type x y z radius vx vy vz density #
run 154320
Setting up run at Tue Jan  3 08:13:09 2023

Memory usage per processor = 958.989 Mbytes
    Step    Atoms         KinEng            CPU 
 5864162      465     0.49626779              0 
 6018482      462     0.26718068      1581.3644 
Loop time of 1581.37 on 40 procs for 154320 steps with 462 atoms, finish time Tue Jan  3 08:39:30 2023


Pair  time (%) = 0.312702 (0.0197741)
Neigh time (%) = 2.9018 (0.183499)
Comm  time (%) = 5.84699 (0.369743)
Outpt time (%) = 0.000668535 (4.22757e-05)
Other time (%) = 1572.31 (99.4269)

Nlocal:    11.55 ave 183 max 0 min
Histogram: 36 1 1 0 0 0 0 1 0 1
Nghost:    5.125 ave 62 max 0 min
Histogram: 36 0 0 0 0 0 1 1 1 1
Neighs:    3.425 ave 65 max 0 min
Histogram: 37 0 1 0 0 0 0 1 0 1

Total # of neighbors = 137
Ave neighs/atom = 0.296537
Neighbor list builds = 8827
Dangerous builds = 176
write_dump all custom dump.atom_info_ac_* id type x y z radius vx vy vz density #
run 154320
Setting up run at Tue Jan  3 08:39:30 2023

Memory usage per processor = 958.989 Mbytes
    Step    Atoms         KinEng            CPU 
 6018482      462     0.26718068              0 
 6172802      459     0.20760915      1571.1724 
Loop time of 1571.17 on 40 procs for 154320 steps with 459 atoms, finish time Tue Jan  3 09:05:41 2023


Pair  time (%) = 0.310516 (0.0197633)
Neigh time (%) = 2.60379 (0.165722)
Comm  time (%) = 5.19198 (0.330452)
Outpt time (%) = 0.000538933 (3.43013e-05)
Other time (%) = 1563.07 (99.484)

Nlocal:    11.475 ave 187 max 0 min
Histogram: 36 1 1 0 0 0 0 1 0 1
Nghost:    5.025 ave 58 max 0 min
Histogram: 36 0 0 0 0 0 1 1 0 2
Neighs:    3.375 ave 66 max 0 min
Histogram: 37 0 0 1 0 0 1 0 0 1

Total # of neighbors = 135
Ave neighs/atom = 0.294118
Neighbor list builds = 7784
Dangerous builds = 1
write_dump all custom dump.atom_info_ac_* id type x y z radius vx vy vz density #
run 154320
Setting up run at Tue Jan  3 09:05:41 2023

Memory usage per processor = 958.989 Mbytes
    Step    Atoms         KinEng            CPU 
 6172802      459     0.20760915              0 
 6327122      456      0.2646941       1695.056 
Loop time of 1695.06 on 40 procs for 154320 steps with 456 atoms, finish time Tue Jan  3 09:33:56 2023


Pair  time (%) = 0.314529 (0.0185556)
Neigh time (%) = 3.29518 (0.194399)
Comm  time (%) = 6.38089 (0.376441)
Outpt time (%) = 0.000614832 (3.62721e-05)
Other time (%) = 1685.06 (99.4106)

Nlocal:    11.4 ave 188 max 0 min
Histogram: 36 1 1 0 0 0 0 1 0 1
Nghost:    4.9 ave 57 max 0 min
Histogram: 36 0 0 0 0 0 1 1 1 1
Neighs:    3.325 ave 75 max 0 min
Histogram: 37 0 1 0 0 1 0 0 0 1

Total # of neighbors = 133
Ave neighs/atom = 0.291667
Neighbor list builds = 9895
Dangerous builds = 76
write_dump all custom dump.atom_info_ac_* id type x y z radius vx vy vz density #
run 154320
Setting up run at Tue Jan  3 09:33:57 2023

Memory usage per processor = 958.989 Mbytes
    Step    Atoms         KinEng            CPU 
 6327122      456      0.2646941              0 
 6481442      452     0.26223065      1581.6158 
Loop time of 1581.62 on 40 procs for 154320 steps with 452 atoms, finish time Tue Jan  3 10:00:18 2023


Pair  time (%) = 0.311706 (0.0197081)
Neigh time (%) = 2.87297 (0.181648)
Comm  time (%) = 6.11173 (0.386423)
Outpt time (%) = 0.00313392 (0.000198147)
Other time (%) = 1572.32 (99.412)

Nlocal:    11.3 ave 186 max 0 min
Histogram: 35 2 1 0 0 0 1 0 0 1
Nghost:    4.75 ave 58 max 0 min
Histogram: 36 0 0 0 0 1 1 0 0 2
Neighs:    3.35 ave 75 max 0 min
Histogram: 37 0 1 0 1 0 0 0 0 1

Total # of neighbors = 134
Ave neighs/atom = 0.29646
Neighbor list builds = 8665
Dangerous builds = 122
write_dump all custom dump.atom_info_ac_* id type x y z radius vx vy vz density #
run 154320
Setting up run at Tue Jan  3 10:00:18 2023

Memory usage per processor = 958.989 Mbytes
    Step    Atoms         KinEng            CPU 
 6481442      452     0.26223065              0 
 6635762      450     0.31065028      1570.1081 
Loop time of 1570.11 on 40 procs for 154320 steps with 450 atoms, finish time Tue Jan  3 10:26:28 2023


Pair  time (%) = 0.307302 (0.019572)
Neigh time (%) = 2.5646 (0.163339)
Comm  time (%) = 5.45494 (0.347424)
Outpt time (%) = 0.000678221 (4.31958e-05)
Other time (%) = 1561.78 (99.4696)

Nlocal:    11.25 ave 188 max 0 min
Histogram: 36 0 2 0 0 0 1 0 0 1
Nghost:    4.725 ave 59 max 0 min
Histogram: 36 0 0 0 0 1 1 0 0 2
Neighs:    3.05 ave 70 max 0 min
Histogram: 37 0 1 0 1 0 0 0 0 1

Total # of neighbors = 122
Ave neighs/atom = 0.271111
Neighbor list builds = 7679
Dangerous builds = 0
write_dump all custom dump.atom_info_ac_* id type x y z radius vx vy vz density #
run 154320
Setting up run at Tue Jan  3 10:26:28 2023

Memory usage per processor = 958.989 Mbytes
    Step    Atoms         KinEng            CPU 
 6635762      450     0.31065028              0 
 6790082      449      0.2866875      1571.4783 
Loop time of 1571.48 on 40 procs for 154320 steps with 449 atoms, finish time Tue Jan  3 10:52:40 2023


Pair  time (%) = 0.300389 (0.0191151)
Neigh time (%) = 2.29918 (0.146307)
Comm  time (%) = 4.87648 (0.310312)
Outpt time (%) = 0.000704881 (4.48546e-05)
Other time (%) = 1564 (99.5242)

Nlocal:    11.225 ave 183 max 0 min
Histogram: 36 0 2 0 0 0 0 1 0 1
Nghost:    4.9 ave 60 max 0 min
Histogram: 36 0 0 0 0 1 1 0 0 2
Neighs:    2.95 ave 66 max 0 min
Histogram: 37 0 1 0 0 1 0 0 0 1

Total # of neighbors = 118
Ave neighs/atom = 0.262806
Neighbor list builds = 6850
Dangerous builds = 0
write_dump all custom dump.atom_info_ac_* id type x y z radius vx vy vz density #
run 154320
Setting up run at Tue Jan  3 10:52:40 2023

Memory usage per processor = 958.989 Mbytes
    Step    Atoms         KinEng            CPU 
 6790082      449      0.2866875              0 
 6944402      446     0.37652608      1615.6633 
Loop time of 1615.66 on 40 procs for 154320 steps with 446 atoms, finish time Tue Jan  3 11:19:36 2023


Pair  time (%) = 0.299033 (0.0185083)
Neigh time (%) = 2.21025 (0.136801)
Comm  time (%) = 4.96996 (0.307611)
Outpt time (%) = 0.000643485 (3.98279e-05)
Other time (%) = 1608.18 (99.537)

Nlocal:    11.15 ave 180 max 0 min
Histogram: 36 0 2 0 0 0 0 1 0 1
Nghost:    4.9 ave 60 max 0 min
Histogram: 36 0 0 0 0 1 1 0 0 2
Neighs:    2.825 ave 67 max 0 min
Histogram: 37 0 1 1 0 0 0 0 0 1

Total # of neighbors = 113
Ave neighs/atom = 0.253363
Neighbor list builds = 6717
Dangerous builds = 31
write_dump all custom dump.atom_info_ac_* id type x y z radius vx vy vz density #
run 154320
Setting up run at Tue Jan  3 11:19:36 2023

Memory usage per processor = 958.989 Mbytes
    Step    Atoms         KinEng            CPU 
 6944402      446     0.37652608              0 
 7098722      442     0.28258336      1579.0625 
Loop time of 1579.06 on 40 procs for 154320 steps with 442 atoms, finish time Tue Jan  3 11:45:55 2023


Pair  time (%) = 0.303111 (0.0191956)
Neigh time (%) = 2.78243 (0.176208)
Comm  time (%) = 6.28527 (0.398038)
Outpt time (%) = 0.000644969 (4.0845e-05)
Other time (%) = 1569.69 (99.4065)

Nlocal:    11.05 ave 175 max 0 min
Histogram: 35 1 2 0 0 0 0 1 0 1
Nghost:    4.5 ave 57 max 0 min
Histogram: 36 0 0 0 0 2 0 0 0 2
Neighs:    2.675 ave 68 max 0 min
Histogram: 37 1 0 1 0 0 0 0 0 1

Total # of neighbors = 107
Ave neighs/atom = 0.242081
Neighbor list builds = 8408
Dangerous builds = 163
write_dump all custom dump.atom_info_ac_* id type x y z radius vx vy vz density #
run 154320
Setting up run at Tue Jan  3 11:45:55 2023

Memory usage per processor = 958.989 Mbytes
    Step    Atoms         KinEng            CPU 
 7098722      442     0.28258336              0 
 7253042      441     0.43416763      1579.4428 
Loop time of 1579.44 on 40 procs for 154320 steps with 441 atoms, finish time Tue Jan  3 12:12:14 2023


Pair  time (%) = 0.306941 (0.0194335)
Neigh time (%) = 2.98133 (0.188758)
Comm  time (%) = 5.76835 (0.365214)
Outpt time (%) = 0.0256767 (0.00162568)
Other time (%) = 1570.36 (99.425)

Nlocal:    11.025 ave 177 max 0 min
Histogram: 36 0 2 0 0 0 0 1 0 1
Nghost:    4.425 ave 53 max 0 min
Histogram: 36 0 0 0 0 1 1 0 0 2
Neighs:    2.55 ave 69 max 0 min
Histogram: 37 1 1 0 0 0 0 0 0 1

Total # of neighbors = 102
Ave neighs/atom = 0.231293
Neighbor list builds = 9008
Dangerous builds = 130
write_dump all custom dump.atom_info_ac_* id type x y z radius vx vy vz density #
run 154320
Setting up run at Tue Jan  3 12:12:15 2023

Memory usage per processor = 958.989 Mbytes
    Step    Atoms         KinEng            CPU 
 7253042      441     0.43416763              0 
 7407362      440     0.35006102      1570.8965 
Loop time of 1570.9 on 40 procs for 154320 steps with 440 atoms, finish time Tue Jan  3 12:38:26 2023


Pair  time (%) = 0.305404 (0.0194414)
Neigh time (%) = 3.03529 (0.19322)
Comm  time (%) = 5.98877 (0.381233)
Outpt time (%) = 0.000655276 (4.17135e-05)
Other time (%) = 1561.57 (99.4061)

Nlocal:    11 ave 175 max 0 min
Histogram: 35 1 2 0 0 0 0 1 0 1
Nghost:    4.425 ave 51 max 0 min
Histogram: 36 0 0 0 0 0 2 0 0 2
Neighs:    2.425 ave 65 max 0 min
Histogram: 37 1 1 0 0 0 0 0 0 1

Total # of neighbors = 97
Ave neighs/atom = 0.220455
Neighbor list builds = 9216
Dangerous builds = 327
write_dump all custom dump.atom_info_ac_* id type x y z radius vx vy vz density #
run 154320
Setting up run at Tue Jan  3 12:38:26 2023

Memory usage per processor = 958.989 Mbytes
    Step    Atoms         KinEng            CPU 
 7407362      440     0.35006102              0 
 7561682      438     0.37699902      1580.2401 
Loop time of 1580.25 on 40 procs for 154320 steps with 438 atoms, finish time Tue Jan  3 13:04:46 2023


Pair  time (%) = 0.303433 (0.0192016)
Neigh time (%) = 2.85903 (0.180923)
Comm  time (%) = 5.96822 (0.377676)
Outpt time (%) = 0.000776596 (4.91439e-05)
Other time (%) = 1571.12 (99.4222)

Nlocal:    10.95 ave 170 max 0 min
Histogram: 35 1 2 0 0 0 0 1 0 1
Nghost:    4.325 ave 55 max 0 min
Histogram: 36 0 0 0 0 1 1 0 1 1
Neighs:    2.4 ave 63 max 0 min
Histogram: 37 1 0 1 0 0 0 0 0 1

Total # of neighbors = 96
Ave neighs/atom = 0.219178
Neighbor list builds = 8623
Dangerous builds = 134
write_dump all custom dump.atom_info_ac_* id type x y z radius vx vy vz density #
run 154320
Setting up run at Tue Jan  3 13:04:46 2023

Memory usage per processor = 958.989 Mbytes
    Step    Atoms         KinEng            CPU 
 7561682      438     0.37699902              0 
 7716002      437     0.36808047      1560.3643 
Loop time of 1560.36 on 40 procs for 154320 steps with 437 atoms, finish time Tue Jan  3 13:30:46 2023


Pair  time (%) = 0.300016 (0.0192273)
Neigh time (%) = 2.22527 (0.142612)
Comm  time (%) = 5.36828 (0.34404)
Outpt time (%) = 0.000680704 (4.36247e-05)
Other time (%) = 1552.47 (99.4941)

Nlocal:    10.925 ave 166 max 0 min
Histogram: 34 3 1 0 0 0 0 1 0 1
Nghost:    4.425 ave 57 max 0 min
Histogram: 36 0 0 0 0 2 0 1 0 1
Neighs:    2.35 ave 57 max 0 min
Histogram: 36 2 0 1 0 0 0 0 0 1

Total # of neighbors = 94
Ave neighs/atom = 0.215103
Neighbor list builds = 6688
Dangerous builds = 1
write_dump all custom dump.atom_info_ac_* id type x y z radius vx vy vz density #
run 154320
Setting up run at Tue Jan  3 13:30:46 2023

Memory usage per processor = 958.989 Mbytes
    Step    Atoms         KinEng            CPU 
 7716002      437     0.36808047              0 
 7870322      436     0.46330767       1579.424 
Loop time of 1579.42 on 40 procs for 154320 steps with 436 atoms, finish time Tue Jan  3 13:57:06 2023


Pair  time (%) = 0.303389 (0.0192088)
Neigh time (%) = 3.03802 (0.19235)
Comm  time (%) = 7.10169 (0.449638)
Outpt time (%) = 0.00064287 (4.07028e-05)
Other time (%) = 1568.98 (99.3388)

Nlocal:    10.9 ave 168 max 0 min
Histogram: 34 2 2 0 0 0 0 1 0 1
Nghost:    4.2 ave 53 max 0 min
Histogram: 36 0 0 0 0 1 1 0 1 1
Neighs:    2.425 ave 60 max 0 min
Histogram: 37 1 0 1 0 0 0 0 0 1

Total # of neighbors = 97
Ave neighs/atom = 0.222477
Neighbor list builds = 9158
Dangerous builds = 0
write_dump all custom dump.atom_info_ac_* id type x y z radius vx vy vz density #
run 154320
Setting up run at Tue Jan  3 13:57:06 2023

Memory usage per processor = 958.989 Mbytes
    Step    Atoms         KinEng            CPU 
 7870322      436     0.46330767              0 
 8024642      433      0.4634915      1602.0274 
Loop time of 1602.03 on 40 procs for 154320 steps with 433 atoms, finish time Tue Jan  3 14:23:48 2023


Pair  time (%) = 0.312734 (0.0195211)
Neigh time (%) = 4.36019 (0.272167)
Comm  time (%) = 9.63271 (0.601283)
Outpt time (%) = 0.000690633 (4.31099e-05)
Other time (%) = 1587.72 (99.107)

Nlocal:    10.825 ave 166 max 0 min
Histogram: 34 2 2 0 0 0 0 1 0 1
Nghost:    4.125 ave 52 max 0 min
Histogram: 36 0 0 0 0 2 0 0 0 2
Neighs:    2.375 ave 57 max 0 min
Histogram: 37 1 0 1 0 0 0 0 0 1

Total # of neighbors = 95
Ave neighs/atom = 0.2194
Neighbor list builds = 13169
Dangerous builds = 130
write_dump all custom dump.atom_info_ac_* id type x y z radius vx vy vz density #
run 154320
Setting up run at Tue Jan  3 14:23:48 2023

Memory usage per processor = 958.989 Mbytes
    Step    Atoms         KinEng            CPU 
 8024642      433      0.4634915              0 
 8178962      430     0.53590981      1571.3573 
Loop time of 1571.36 on 40 procs for 154320 steps with 430 atoms, finish time Tue Jan  3 14:49:59 2023


Pair  time (%) = 0.302974 (0.019281)
Neigh time (%) = 2.93303 (0.186656)
Comm  time (%) = 5.87444 (0.373845)
Outpt time (%) = 0.000611423 (3.89105e-05)
Other time (%) = 1562.25 (99.4202)

Nlocal:    10.75 ave 167 max 0 min
Histogram: 36 0 1 1 0 0 0 1 0 1
Nghost:    4.175 ave 54 max 0 min
Histogram: 36 0 0 0 0 2 0 0 1 1
Neighs:    2.325 ave 55 max 0 min
Histogram: 37 1 0 0 1 0 0 0 0 1

Total # of neighbors = 93
Ave neighs/atom = 0.216279
Neighbor list builds = 8758
Dangerous builds = 0
write_dump all custom dump.atom_info_ac_* id type x y z radius vx vy vz density #
run 154320
Setting up run at Tue Jan  3 14:50:00 2023

Memory usage per processor = 958.989 Mbytes
    Step    Atoms         KinEng            CPU 
 8178962      430     0.53590981              0 
 8333282      429     0.46057608      1559.4144 
Loop time of 1559.42 on 40 procs for 154320 steps with 429 atoms, finish time Tue Jan  3 15:15:59 2023


Pair  time (%) = 0.296194 (0.0189939)
Neigh time (%) = 1.82609 (0.117101)
Comm  time (%) = 4.68449 (0.3004)
Outpt time (%) = 0.00304389 (0.000195194)
Other time (%) = 1552.61 (99.5633)

Nlocal:    10.725 ave 162 max 0 min
Histogram: 36 0 2 0 0 0 0 1 0 1
Nghost:    4.125 ave 50 max 0 min
Histogram: 36 0 0 0 0 1 1 0 0 2
Neighs:    2.425 ave 52 max 0 min
Histogram: 36 1 1 0 1 0 0 0 0 1

Total # of neighbors = 97
Ave neighs/atom = 0.226107
Neighbor list builds = 5472
Dangerous builds = 0
write_dump all custom dump.atom_info_ac_* id type x y z radius vx vy vz density #
run 154320
Setting up run at Tue Jan  3 15:15:59 2023

Memory usage per processor = 958.989 Mbytes
    Step    Atoms         KinEng            CPU 
 8333282      429     0.46057608              0 
 8487602      425     0.69805942      1574.9549 
Loop time of 1574.96 on 40 procs for 154320 steps with 425 atoms, finish time Tue Jan  3 15:42:14 2023


Pair  time (%) = 0.305478 (0.019396)
Neigh time (%) = 3.29752 (0.209372)
Comm  time (%) = 7.91797 (0.502742)
Outpt time (%) = 0.000660966 (4.19673e-05)
Other time (%) = 1563.43 (99.2684)

Nlocal:    10.625 ave 162 max 0 min
Histogram: 36 0 2 0 0 0 0 1 0 1
Nghost:    3.95 ave 48 max 0 min
Histogram: 36 0 0 0 0 1 1 0 0 2
Neighs:    2.1 ave 49 max 0 min
Histogram: 36 2 0 0 1 0 0 0 0 1

Total # of neighbors = 84
Ave neighs/atom = 0.197647
Neighbor list builds = 10209
Dangerous builds = 302
write_dump all custom dump.atom_info_ac_* id type x y z radius vx vy vz density #
run 154320
Setting up run at Tue Jan  3 15:42:14 2023

Memory usage per processor = 958.989 Mbytes
    Step    Atoms         KinEng            CPU 
 8487602      425     0.69805942              0 
 8641922      424     0.67764057      1563.4267 
Loop time of 1563.43 on 40 procs for 154320 steps with 424 atoms, finish time Tue Jan  3 16:08:18 2023


Pair  time (%) = 0.29231 (0.0186967)
Neigh time (%) = 2.17644 (0.13921)
Comm  time (%) = 5.54015 (0.354359)
Outpt time (%) = 0.000734542 (4.69828e-05)
Other time (%) = 1555.42 (99.4877)

Nlocal:    10.6 ave 164 max 0 min
Histogram: 35 1 2 0 0 0 0 1 0 1
Nghost:    3.75 ave 47 max 0 min
Histogram: 36 0 0 0 0 1 1 0 0 2
Neighs:    2.125 ave 46 max 0 min
Histogram: 36 2 0 0 0 1 0 0 0 1

Total # of neighbors = 85
Ave neighs/atom = 0.200472
Neighbor list builds = 6438
Dangerous builds = 1
write_dump all custom dump.atom_info_ac_* id type x y z radius vx vy vz density #
run 154320
Setting up run at Tue Jan  3 16:08:18 2023

Memory usage per processor = 958.989 Mbytes
    Step    Atoms         KinEng            CPU 
 8641922      424     0.67764057              0 
 8796242      421      0.8703461      1561.3036 
Loop time of 1561.3 on 40 procs for 154320 steps with 421 atoms, finish time Tue Jan  3 16:34:19 2023


Pair  time (%) = 0.29473 (0.0188771)
Neigh time (%) = 2.25576 (0.144479)
Comm  time (%) = 5.19737 (0.332886)
Outpt time (%) = 0.000692953 (4.43829e-05)
Other time (%) = 1553.56 (99.5037)

Nlocal:    10.525 ave 159 max 0 min
Histogram: 35 1 1 1 0 0 0 1 0 1
Nghost:    3.9 ave 50 max 0 min
Histogram: 36 0 0 0 0 2 0 0 0 2
Neighs:    2.025 ave 40 max 0 min
Histogram: 36 2 0 0 0 0 1 0 0 1

Total # of neighbors = 81
Ave neighs/atom = 0.192399
Neighbor list builds = 6925
Dangerous builds = 743
write_dump all custom dump.atom_info_ac_* id type x y z radius vx vy vz density #
run 154320
Setting up run at Tue Jan  3 16:34:19 2023

Memory usage per processor = 958.989 Mbytes
    Step    Atoms         KinEng            CPU 
 8796242      421      0.8703461              0 
 8950562      418     0.47337489       1568.338 
Loop time of 1568.34 on 40 procs for 154320 steps with 418 atoms, finish time Tue Jan  3 17:00:27 2023


Pair  time (%) = 0.295238 (0.0188249)
Neigh time (%) = 2.30877 (0.147211)
Comm  time (%) = 4.75836 (0.303401)
Outpt time (%) = 0.000659276 (4.20366e-05)
Other time (%) = 1560.97 (99.5305)

Nlocal:    10.45 ave 156 max 0 min
Histogram: 34 2 2 0 0 0 0 1 0 1
Nghost:    3.8 ave 53 max 0 min
Histogram: 36 0 0 0 1 1 0 1 0 1
Neighs:    2.175 ave 46 max 0 min
Histogram: 36 2 0 0 0 1 0 0 0 1

Total # of neighbors = 87
Ave neighs/atom = 0.208134
Neighbor list builds = 7052
Dangerous builds = 549
write_dump all custom dump.atom_info_ac_* id type x y z radius vx vy vz density #
run 154320
Setting up run at Tue Jan  3 17:00:27 2023

Memory usage per processor = 958.989 Mbytes
    Step    Atoms         KinEng            CPU 
 8950562      418     0.47337489              0 
 9104882      416     0.41002947      1563.4013 
Loop time of 1563.4 on 40 procs for 154320 steps with 416 atoms, finish time Tue Jan  3 17:26:31 2023


Pair  time (%) = 0.296516 (0.0189661)
Neigh time (%) = 2.12805 (0.136117)
Comm  time (%) = 4.54826 (0.290921)
Outpt time (%) = 0.000657631 (4.20642e-05)
Other time (%) = 1556.43 (99.554)

Nlocal:    10.4 ave 154 max 0 min
Histogram: 34 2 2 0 0 0 0 1 0 1
Nghost:    3.9 ave 52 max 0 min
Histogram: 36 0 0 0 0 2 0 1 0 1
Neighs:    2.225 ave 50 max 0 min
Histogram: 36 2 0 0 1 0 0 0 0 1

Total # of neighbors = 89
Ave neighs/atom = 0.213942
Neighbor list builds = 6377
Dangerous builds = 0
write_dump all custom dump.atom_info_ac_* id type x y z radius vx vy vz density #
run 154320
Setting up run at Tue Jan  3 17:26:31 2023

Memory usage per processor = 958.989 Mbytes
    Step    Atoms         KinEng            CPU 
 9104882      416     0.41002947              0 
 9259202      413     0.68611183      1588.7173 
Loop time of 1588.72 on 40 procs for 154320 steps with 413 atoms, finish time Tue Jan  3 17:53:00 2023


Pair  time (%) = 0.302975 (0.0190704)
Neigh time (%) = 3.42738 (0.215732)
Comm  time (%) = 7.40934 (0.466372)
Outpt time (%) = 0.00319345 (0.000201008)
Other time (%) = 1577.57 (99.2986)

Nlocal:    10.325 ave 155 max 0 min
Histogram: 34 2 2 0 0 0 0 1 0 1
Nghost:    3.7 ave 48 max 0 min
Histogram: 36 0 0 0 0 2 0 0 1 1
Neighs:    2.075 ave 51 max 0 min
Histogram: 36 2 0 1 0 0 0 0 0 1

Total # of neighbors = 83
Ave neighs/atom = 0.200969
Neighbor list builds = 10474
Dangerous builds = 345
write_dump all custom dump.atom_info_ac_* id type x y z radius vx vy vz density #
run 154320
Setting up run at Tue Jan  3 17:53:00 2023

Memory usage per processor = 958.989 Mbytes
    Step    Atoms         KinEng            CPU 
 9259202      413     0.68611183              0 
 9413522      412     0.21796906      1585.7781 
Loop time of 1585.78 on 40 procs for 154320 steps with 412 atoms, finish time Tue Jan  3 18:19:26 2023


Pair  time (%) = 0.306575 (0.0193328)
Neigh time (%) = 3.7127 (0.234125)
Comm  time (%) = 9.51537 (0.600044)
Outpt time (%) = 0.00067568 (4.26088e-05)
Other time (%) = 1572.24 (99.1465)

Nlocal:    10.3 ave 153 max 0 min
Histogram: 35 1 2 0 0 0 0 1 0 1
Nghost:    3.725 ave 48 max 0 min
Histogram: 36 0 0 0 0 2 0 1 0 1
Neighs:    2 ave 48 max 0 min
Histogram: 36 2 0 0 1 0 0 0 0 1

Total # of neighbors = 80
Ave neighs/atom = 0.194175
Neighbor list builds = 11138
Dangerous builds = 0
write_dump all custom dump.atom_info_ac_* id type x y z radius vx vy vz density #
run 154320
Setting up run at Tue Jan  3 18:19:26 2023

Memory usage per processor = 958.989 Mbytes
    Step    Atoms         KinEng            CPU 
 9413522      412     0.21796906              0 
 9567842      410       1.794145      1560.5349 
Loop time of 1560.54 on 40 procs for 154320 steps with 410 atoms, finish time Tue Jan  3 18:45:26 2023


Pair  time (%) = 0.296218 (0.0189818)
Neigh time (%) = 2.26055 (0.144858)
Comm  time (%) = 4.78751 (0.306787)
Outpt time (%) = 0.00333847 (0.000213931)
Other time (%) = 1553.19 (99.5292)

Nlocal:    10.25 ave 152 max 0 min
Histogram: 34 3 1 0 0 0 0 1 0 1
Nghost:    3.775 ave 48 max 0 min
Histogram: 36 0 0 0 0 1 1 1 0 1
Neighs:    2.1 ave 53 max 0 min
Histogram: 37 1 0 1 0 0 0 0 0 1

Total # of neighbors = 84
Ave neighs/atom = 0.204878
Neighbor list builds = 6751
Dangerous builds = 143
write_dump all custom dump.atom_info_ac_* id type x y z radius vx vy vz density #
run 154320
Setting up run at Tue Jan  3 18:45:26 2023

Memory usage per processor = 958.989 Mbytes
    Step    Atoms         KinEng            CPU 
 9567842      410       1.794145              0 
 9722162      404     0.23794849      1568.5171 
Loop time of 1568.52 on 40 procs for 154320 steps with 404 atoms, finish time Tue Jan  3 19:11:35 2023


Pair  time (%) = 0.295484 (0.0188384)
Neigh time (%) = 2.52884 (0.161225)
Comm  time (%) = 5.08106 (0.32394)
Outpt time (%) = 0.000621479 (3.96221e-05)
Other time (%) = 1560.61 (99.496)

Nlocal:    10.1 ave 149 max 0 min
Histogram: 36 0 2 0 0 0 0 1 0 1
Nghost:    3.6 ave 45 max 0 min
Histogram: 36 0 0 0 0 1 1 0 1 1
Neighs:    2.075 ave 48 max 0 min
Histogram: 36 2 0 0 1 0 0 0 0 1

Total # of neighbors = 83
Ave neighs/atom = 0.205446
Neighbor list builds = 7814
Dangerous builds = 854
write_dump all custom dump.atom_info_ac_* id type x y z radius vx vy vz density #
run 154320
Setting up run at Tue Jan  3 19:11:35 2023

Memory usage per processor = 958.989 Mbytes
    Step    Atoms         KinEng            CPU 
 9722162      404     0.23794849              0 
 9876482      401     0.28839583      1580.9474 
Loop time of 1580.97 on 40 procs for 154320 steps with 401 atoms, finish time Tue Jan  3 19:37:56 2023


Pair  time (%) = 0.295527 (0.0186928)
Neigh time (%) = 2.99664 (0.189544)
Comm  time (%) = 5.66155 (0.358106)
Outpt time (%) = 0.000677126 (4.28298e-05)
Other time (%) = 1572.01 (99.4336)

Nlocal:    10.025 ave 151 max 0 min
Histogram: 35 1 2 0 0 0 0 1 0 1
Nghost:    3.575 ave 42 max 0 min
Histogram: 35 1 0 0 0 0 1 1 1 1
Neighs:    2.025 ave 49 max 0 min
Histogram: 36 2 0 0 1 0 0 0 0 1

Total # of neighbors = 81
Ave neighs/atom = 0.201995
Neighbor list builds = 8857
Dangerous builds = 100
write_dump all custom dump.atom_info_ac_* id type x y z radius vx vy vz density #
run 154320
Setting up run at Tue Jan  3 19:37:56 2023

Memory usage per processor = 958.989 Mbytes
    Step    Atoms         KinEng            CPU 
 9876482      401     0.28839583              0 
10030802      399     0.45847965      1571.8974 
Loop time of 1571.9 on 40 procs for 154320 steps with 399 atoms, finish time Tue Jan  3 20:04:08 2023


Pair  time (%) = 0.289403 (0.018411)
Neigh time (%) = 2.3096 (0.146931)
Comm  time (%) = 5.40484 (0.343842)
Outpt time (%) = 0.000648977 (4.12862e-05)
Other time (%) = 1563.89 (99.4908)

Nlocal:    9.975 ave 150 max 0 min
Histogram: 36 0 2 0 0 0 0 1 0 1
Nghost:    3.525 ave 43 max 0 min
Histogram: 36 0 0 0 0 1 1 0 1 1
Neighs:    2.05 ave 50 max 0 min
Histogram: 36 2 0 0 1 0 0 0 0 1

Total # of neighbors = 82
Ave neighs/atom = 0.205514
Neighbor list builds = 6857
Dangerous builds = 153
write_dump all custom dump.atom_info_ac_* id type x y z radius vx vy vz density #
run 154320
Setting up run at Tue Jan  3 20:04:08 2023

Memory usage per processor = 958.989 Mbytes
    Step    Atoms         KinEng            CPU 
10030802      399     0.45847965              0 
10185122      394     0.41899214      1580.4285 
Loop time of 1580.43 on 40 procs for 154320 steps with 394 atoms, finish time Tue Jan  3 20:30:28 2023


Pair  time (%) = 0.296169 (0.0187398)
Neigh time (%) = 2.79488 (0.176843)
Comm  time (%) = 5.93146 (0.375307)
Outpt time (%) = 0.000595373 (3.76716e-05)
Other time (%) = 1571.41 (99.4291)

Nlocal:    9.85 ave 147 max 0 min
Histogram: 36 0 1 1 0 0 0 1 0 1
Nghost:    3.8 ave 45 max 0 min
Histogram: 36 0 0 0 0 0 2 0 1 1
Neighs:    1.975 ave 49 max 0 min
Histogram: 36 2 0 1 0 0 0 0 0 1

Total # of neighbors = 79
Ave neighs/atom = 0.200508
Neighbor list builds = 8478
Dangerous builds = 546
write_dump all custom dump.atom_info_ac_* id type x y z radius vx vy vz density #
run 154320
Setting up run at Tue Jan  3 20:30:28 2023

Memory usage per processor = 958.989 Mbytes
    Step    Atoms         KinEng            CPU 
10185122      394     0.41899214              0 
10339442      390     0.31307185      1564.1627 
Loop time of 1564.16 on 40 procs for 154320 steps with 390 atoms, finish time Tue Jan  3 20:56:33 2023


Pair  time (%) = 0.291316 (0.0186244)
Neigh time (%) = 1.91332 (0.122322)
Comm  time (%) = 4.77404 (0.305213)
Outpt time (%) = 0.000645663 (4.12785e-05)
Other time (%) = 1557.18 (99.5538)

Nlocal:    9.75 ave 146 max 0 min
Histogram: 34 3 1 0 0 0 0 0 1 1
Nghost:    3.625 ave 44 max 0 min
Histogram: 36 0 0 0 0 0 1 1 1 1
Neighs:    1.85 ave 45 max 0 min
Histogram: 37 1 0 0 1 0 0 0 0 1

Total # of neighbors = 74
Ave neighs/atom = 0.189744
Neighbor list builds = 5900
Dangerous builds = 556
write_dump all custom dump.atom_info_ac_* id type x y z radius vx vy vz density #
run 154320
Setting up run at Tue Jan  3 20:56:33 2023

Memory usage per processor = 958.989 Mbytes
    Step    Atoms         KinEng            CPU 
10339442      390     0.31307185              0 
10493762      387     0.34886386      1562.7837 
Loop time of 1562.78 on 40 procs for 154320 steps with 387 atoms, finish time Tue Jan  3 21:22:35 2023


Pair  time (%) = 0.290496 (0.0185884)
Neigh time (%) = 2.33281 (0.149273)
Comm  time (%) = 4.90865 (0.314096)
Outpt time (%) = 0.000685478 (4.38627e-05)
Other time (%) = 1555.25 (99.518)

Nlocal:    9.675 ave 145 max 0 min
Histogram: 34 2 2 0 0 0 0 1 0 1
Nghost:    3.6 ave 43 max 0 min
Histogram: 36 0 0 0 0 0 2 0 0 2
Neighs:    1.775 ave 43 max 0 min
Histogram: 37 1 0 0 1 0 0 0 0 1

Total # of neighbors = 71
Ave neighs/atom = 0.183463
Neighbor list builds = 6924
Dangerous builds = 1
write_dump all custom dump.atom_info_ac_* id type x y z radius vx vy vz density #
run 154320
Setting up run at Tue Jan  3 21:22:35 2023

Memory usage per processor = 958.989 Mbytes
    Step    Atoms         KinEng            CPU 
10493762      387     0.34886386              0 
10648082      386     0.38168724      1573.6735 
Loop time of 1573.68 on 40 procs for 154320 steps with 386 atoms, finish time Tue Jan  3 21:48:49 2023


Pair  time (%) = 0.293318 (0.018639)
Neigh time (%) = 2.66872 (0.169585)
Comm  time (%) = 5.25409 (0.333873)
Outpt time (%) = 0.0208414 (0.00132437)
Other time (%) = 1565.44 (99.4766)

Nlocal:    9.65 ave 143 max 0 min
Histogram: 34 2 1 1 0 0 0 0 1 1
Nghost:    3.6 ave 42 max 0 min
Histogram: 36 0 0 0 0 0 2 0 0 2
Neighs:    1.7 ave 41 max 0 min
Histogram: 37 1 0 0 1 0 0 0 0 1

Total # of neighbors = 68
Ave neighs/atom = 0.176166
Neighbor list builds = 8003
Dangerous builds = 0
write_dump all custom dump.atom_info_ac_* id type x y z radius vx vy vz density #
run 154320
Setting up run at Tue Jan  3 21:48:49 2023

Memory usage per processor = 958.989 Mbytes
    Step    Atoms         KinEng            CPU 
10648082      386     0.38168724              0 
10802402      383     0.30152706       1564.872 
Loop time of 1564.87 on 40 procs for 154320 steps with 383 atoms, finish time Tue Jan  3 22:14:54 2023


Pair  time (%) = 0.296336 (0.0189368)
Neigh time (%) = 2.73103 (0.174521)
Comm  time (%) = 5.57104 (0.356006)
Outpt time (%) = 0.000675819 (4.31868e-05)
Other time (%) = 1556.27 (99.4505)

Nlocal:    9.575 ave 146 max 0 min
Histogram: 34 3 1 0 0 0 0 1 0 1
Nghost:    3.6 ave 44 max 0 min
Histogram: 36 0 0 0 0 1 1 0 1 1
Neighs:    1.6 ave 41 max 0 min
Histogram: 37 1 0 1 0 0 0 0 0 1

Total # of neighbors = 64
Ave neighs/atom = 0.167102
Neighbor list builds = 8117
Dangerous builds = 0
write_dump all custom dump.atom_info_ac_* id type x y z radius vx vy vz density #
run 154320
Setting up run at Tue Jan  3 22:14:54 2023

Memory usage per processor = 958.989 Mbytes
    Step    Atoms         KinEng            CPU 
10802402      383     0.30152706              0 
10956722      381     0.29612503      1567.3085 
Loop time of 1567.31 on 40 procs for 154320 steps with 381 atoms, finish time Tue Jan  3 22:41:02 2023


Pair  time (%) = 0.292107 (0.0186375)
Neigh time (%) = 2.01524 (0.12858)
Comm  time (%) = 4.3263 (0.276034)
Outpt time (%) = 0.00060389 (3.85304e-05)
Other time (%) = 1560.67 (99.5767)

Nlocal:    9.525 ave 141 max 0 min
Histogram: 35 1 2 0 0 0 0 0 1 1
Nghost:    3.6 ave 48 max 0 min
Histogram: 36 0 0 0 0 2 0 1 0 1
Neighs:    1.75 ave 42 max 0 min
Histogram: 37 1 0 1 0 0 0 0 0 1

Total # of neighbors = 70
Ave neighs/atom = 0.183727
Neighbor list builds = 6114
Dangerous builds = 308
write_dump all custom dump.atom_info_ac_* id type x y z radius vx vy vz density #
run 154320
Setting up run at Tue Jan  3 22:41:02 2023

Memory usage per processor = 958.989 Mbytes
    Step    Atoms         KinEng            CPU 
10956722      381     0.29612503              0 
11111042      379     0.68287736      1563.6399 
Loop time of 1563.64 on 40 procs for 154320 steps with 379 atoms, finish time Tue Jan  3 23:07:05 2023


Pair  time (%) = 0.294346 (0.0188244)
Neigh time (%) = 2.26756 (0.145018)
Comm  time (%) = 4.54871 (0.290905)
Outpt time (%) = 0.000609038 (3.895e-05)
Other time (%) = 1556.53 (99.5452)

Nlocal:    9.475 ave 139 max 0 min
Histogram: 35 1 2 0 0 0 0 0 1 1
Nghost:    3.6 ave 47 max 0 min
Histogram: 36 0 0 0 1 0 1 1 0 1
Neighs:    1.55 ave 38 max 0 min
Histogram: 36 2 0 1 0 0 0 0 0 1

Total # of neighbors = 62
Ave neighs/atom = 0.163588
Neighbor list builds = 6838
Dangerous builds = 273
write_dump all custom dump.atom_info_ac_* id type x y z radius vx vy vz density #
run 154320
Setting up run at Tue Jan  3 23:07:05 2023

Memory usage per processor = 958.989 Mbytes
    Step    Atoms         KinEng            CPU 
11111042      379     0.68287736              0 
11265362      378     0.79070347      1566.4479 
Loop time of 1566.45 on 40 procs for 154320 steps with 378 atoms, finish time Tue Jan  3 23:33:12 2023


Pair  time (%) = 0.289807 (0.0185009)
Neigh time (%) = 2.05232 (0.131017)
Comm  time (%) = 4.73916 (0.302542)
Outpt time (%) = 0.000689752 (4.40329e-05)
Other time (%) = 1559.37 (99.5479)

Nlocal:    9.45 ave 139 max 0 min
Histogram: 34 2 2 0 0 0 0 1 0 1
Nghost:    3.5 ave 44 max 0 min
Histogram: 36 0 0 0 1 0 1 0 1 1
Neighs:    1.8 ave 40 max 0 min
Histogram: 36 1 1 0 1 0 0 0 0 1

Total # of neighbors = 72
Ave neighs/atom = 0.190476
Neighbor list builds = 6109
Dangerous builds = 0
write_dump all custom dump.atom_info_ac_* id type x y z radius vx vy vz density #
run 154320
Setting up run at Tue Jan  3 23:33:12 2023

Memory usage per processor = 958.989 Mbytes
    Step    Atoms         KinEng            CPU 
11265362      378     0.79070347              0 
11419682      374     0.68448601      1566.9281 
Loop time of 1566.93 on 40 procs for 154320 steps with 374 atoms, finish time Tue Jan  3 23:59:19 2023


Pair  time (%) = 0.287723 (0.0183622)
Neigh time (%) = 2.31326 (0.14763)
Comm  time (%) = 5.22297 (0.333325)
Outpt time (%) = 0.0031579 (0.000201534)
Other time (%) = 1559.11 (99.5005)

Nlocal:    9.35 ave 145 max 0 min
Histogram: 36 0 1 1 0 0 1 0 0 1
Nghost:    3.275 ave 40 max 0 min
Histogram: 36 0 0 0 1 0 1 0 0 2
Neighs:    1.525 ave 38 max 0 min
Histogram: 36 1 2 0 0 0 0 0 0 1

Total # of neighbors = 61
Ave neighs/atom = 0.163102
Neighbor list builds = 6818
Dangerous builds = 0
write_dump all custom dump.atom_info_ac_* id type x y z radius vx vy vz density #
run 154320
Setting up run at Tue Jan  3 23:59:19 2023

Memory usage per processor = 958.989 Mbytes
    Step    Atoms         KinEng            CPU 
11419682      374     0.68448601              0 
11574002      369      0.7235746      1559.3895 
Loop time of 1559.39 on 40 procs for 154320 steps with 369 atoms, finish time Wed Jan  4 00:25:18 2023


Pair  time (%) = 0.285809 (0.0183283)
Neigh time (%) = 2.4563 (0.157517)
Comm  time (%) = 7.04363 (0.451692)
Outpt time (%) = 0.000647938 (4.15507e-05)
Other time (%) = 1549.6 (99.3724)

Nlocal:    9.225 ave 132 max 0 min
Histogram: 35 1 1 1 0 0 0 1 0 1
Nghost:    3.225 ave 44 max 0 min
Histogram: 36 0 0 0 1 1 0 1 0 1
Neighs:    1.35 ave 38 max 0 min
Histogram: 37 1 1 0 0 0 0 0 0 1

Total # of neighbors = 54
Ave neighs/atom = 0.146341
Neighbor list builds = 7310
Dangerous builds = 0
write_dump all custom dump.atom_info_ac_* id type x y z radius vx vy vz density #
run 154320
Setting up run at Wed Jan  4 00:25:18 2023

Memory usage per processor = 958.989 Mbytes
    Step    Atoms         KinEng            CPU 
11574002      369      0.7235746              0 
11728322      364     0.59069884      1563.5189 
Loop time of 1563.52 on 40 procs for 154320 steps with 364 atoms, finish time Wed Jan  4 00:51:22 2023


Pair  time (%) = 0.283986 (0.0181632)
Neigh time (%) = 2.273 (0.145377)
Comm  time (%) = 5.66672 (0.362433)
Outpt time (%) = 0.00061255 (3.91777e-05)
Other time (%) = 1555.29 (99.474)

Nlocal:    9.1 ave 127 max 0 min
Histogram: 32 4 2 0 0 0 0 1 0 1
Nghost:    2.925 ave 40 max 0 min
Histogram: 36 0 0 0 1 1 0 0 1 1
Neighs:    1.275 ave 31 max 0 min
Histogram: 37 1 0 1 0 0 0 0 0 1

Total # of neighbors = 51
Ave neighs/atom = 0.14011
Neighbor list builds = 6704
Dangerous builds = 88
write_dump all custom dump.atom_info_ac_* id type x y z radius vx vy vz density #
run 154320
Setting up run at Wed Jan  4 00:51:22 2023

Memory usage per processor = 958.989 Mbytes
    Step    Atoms         KinEng            CPU 
11728322      364     0.59069884              0 
11882642      361     0.82326748      1586.5891 
Loop time of 1586.59 on 40 procs for 154320 steps with 361 atoms, finish time Wed Jan  4 01:17:49 2023


Pair  time (%) = 0.29064 (0.0183185)
Neigh time (%) = 3.32054 (0.209288)
Comm  time (%) = 7.57042 (0.47715)
Outpt time (%) = 0.000632117 (3.98412e-05)
Other time (%) = 1575.41 (99.2952)

Nlocal:    9.025 ave 124 max 0 min
Histogram: 33 3 1 1 0 0 0 1 0 1
Nghost:    2.8 ave 37 max 0 min
Histogram: 36 0 0 0 1 1 0 0 1 1
Neighs:    1.175 ave 25 max 0 min
Histogram: 37 1 0 0 0 1 0 0 0 1

Total # of neighbors = 47
Ave neighs/atom = 0.130194
Neighbor list builds = 9785
Dangerous builds = 0
write_dump all custom dump.atom_info_ac_* id type x y z radius vx vy vz density #
run 154320
Setting up run at Wed Jan  4 01:17:49 2023

Memory usage per processor = 958.989 Mbytes
    Step    Atoms         KinEng            CPU 
11882642      361     0.82326748              0 
12036962      360     0.69653271      1564.9683 
Loop time of 1564.97 on 40 procs for 154320 steps with 360 atoms, finish time Wed Jan  4 01:43:54 2023


Pair  time (%) = 0.285593 (0.0182491)
Neigh time (%) = 2.05876 (0.131553)
Comm  time (%) = 4.85066 (0.309953)
Outpt time (%) = 0.000676109 (4.32027e-05)
Other time (%) = 1557.77 (99.5402)

Nlocal:    9 ave 121 max 0 min
Histogram: 34 2 1 1 0 0 0 1 0 1
Nghost:    3.2 ave 38 max 0 min
Histogram: 36 0 0 0 0 1 1 0 1 1
Neighs:    1.225 ave 29 max 0 min
Histogram: 37 1 0 0 1 0 0 0 0 1

Total # of neighbors = 49
Ave neighs/atom = 0.136111
Neighbor list builds = 6059
Dangerous builds = 115
write_dump all custom dump.atom_info_ac_* id type x y z radius vx vy vz density #
run 154320
Setting up run at Wed Jan  4 01:43:54 2023

Memory usage per processor = 958.989 Mbytes
    Step    Atoms         KinEng            CPU 
12036962      360     0.69653271              0 
12191282      354      0.7058142      1567.9203 
Loop time of 1567.92 on 40 procs for 154320 steps with 354 atoms, finish time Wed Jan  4 02:10:02 2023


Pair  time (%) = 0.29024 (0.0185111)
Neigh time (%) = 2.76357 (0.176257)
Comm  time (%) = 6.14576 (0.391968)
Outpt time (%) = 0.00304057 (0.000193923)
Other time (%) = 1558.72 (99.4131)

Nlocal:    8.85 ave 115 max 0 min
Histogram: 33 3 1 1 0 0 0 0 1 1
Nghost:    3.025 ave 39 max 0 min
Histogram: 36 0 0 0 0 1 1 0 1 1
Neighs:    1.1 ave 29 max 0 min
Histogram: 37 1 0 1 0 0 0 0 0 1

Total # of neighbors = 44
Ave neighs/atom = 0.124294
Neighbor list builds = 8233
Dangerous builds = 290
write_dump all custom dump.atom_info_ac_* id type x y z radius vx vy vz density #
run 154320
Setting up run at Wed Jan  4 02:10:02 2023

Memory usage per processor = 958.989 Mbytes
    Step    Atoms         KinEng            CPU 
12191282      354      0.7058142              0 
12345602      348     0.95744546      1569.0441 
Loop time of 1569.04 on 40 procs for 154320 steps with 348 atoms, finish time Wed Jan  4 02:36:11 2023


Pair  time (%) = 0.284907 (0.018158)
Neigh time (%) = 2.40668 (0.153385)
Comm  time (%) = 5.23747 (0.3338)
Outpt time (%) = 0.000636258 (4.05507e-05)
Other time (%) = 1561.11 (99.4946)

Nlocal:    8.7 ave 119 max 0 min
Histogram: 34 2 0 2 0 0 0 1 0 1
Nghost:    3.25 ave 39 max 0 min
Histogram: 36 0 0 0 0 1 1 0 1 1
Neighs:    0.975 ave 22 max 0 min
Histogram: 38 0 0 0 0 1 0 0 0 1

Total # of neighbors = 39
Ave neighs/atom = 0.112069
Neighbor list builds = 7144
Dangerous builds = 22
write_dump all custom dump.atom_info_ac_* id type x y z radius vx vy vz density #
run 154320
Setting up run at Wed Jan  4 02:36:11 2023

Memory usage per processor = 958.989 Mbytes
[...]
Loop time of 1559.63 on 40 procs for 154320 steps with 113 atoms, finish time Thu Jan  5 23:07:30 2023


Pair  time (%) = 0.266766 (0.0171044)
Neigh time (%) = 2.1647 (0.138796)
Comm  time (%) = 2.84866 (0.18265)
Outpt time (%) = 0.00031702 (2.03266e-05)
Other time (%) = 1554.35 (99.6614)

Nlocal:    2.825 ave 38 max 0 min
Histogram: 33 4 0 0 1 0 0 0 1 1
Nghost:    0.625 ave 12 max 0 min
Histogram: 36 1 0 1 1 0 0 0 0 1
Neighs:    0.025 ave 1 max 0 min
Histogram: 39 0 0 0 0 0 0 0 0 1

Total # of neighbors = 1
Ave neighs/atom = 0.00884956
Neighbor list builds = 6290
Dangerous builds = 2
write_dump all custom dump.atom_info_ac_* id type x y z radius vx vy vz density #
run 154320
Setting up run at Thu Jan  5 23:07:30 2023

Memory usage per processor = 958.989 Mbytes
    Step    Atoms         KinEng            CPU 
27777699      113     0.64696351              0 
27932019      112     0.43995621      1562.5061 
Loop time of 1562.51 on 40 procs for 154320 steps with 112 atoms, finish time Thu Jan  5 23:33:32 2023


Pair  time (%) = 0.267358 (0.0171109)
Neigh time (%) = 2.1948 (0.140466)
Comm  time (%) = 3.39715 (0.217417)
Outpt time (%) = 0.000625591 (4.00377e-05)
Other time (%) = 1556.65 (99.625)

Nlocal:    2.8 ave 38 max 0 min
Histogram: 33 2 3 0 0 0 0 0 1 1
Nghost:    0.575 ave 11 max 0 min
Histogram: 37 0 0 1 1 0 0 0 0 1
Neighs:    0.025 ave 1 max 0 min
Histogram: 39 0 0 0 0 0 0 0 0 1

Total # of neighbors = 1
Ave neighs/atom = 0.00892857
Neighbor list builds = 6379
Dangerous builds = 0
write_dump all custom dump.atom_info_ac_* id type x y z radius vx vy vz density #
run 154320
Setting up run at Thu Jan  5 23:33:32 2023

Memory usage per processor = 958.989 Mbytes
    Step    Atoms         KinEng            CPU 
27932019      112     0.43995621              0 
28086339      112     0.41079919      1554.9426 
Loop time of 1554.95 on 40 procs for 154320 steps with 112 atoms, finish time Thu Jan  5 23:59:27 2023


Pair  time (%) = 0.268148 (0.0172448)
Neigh time (%) = 2.07867 (0.133681)
Comm  time (%) = 2.67236 (0.171861)
Outpt time (%) = 0.000399252 (2.56761e-05)
Other time (%) = 1549.93 (99.6772)

Nlocal:    2.8 ave 38 max 0 min
Histogram: 33 3 2 0 0 0 0 0 1 1
Nghost:    0.675 ave 11 max 0 min
Histogram: 36 1 0 1 1 0 0 0 0 1
Neighs:    0.1 ave 2 max 0 min
Histogram: 37 0 0 0 0 2 0 0 0 1

Total # of neighbors = 4
Ave neighs/atom = 0.0357143
Neighbor list builds = 6050
Dangerous builds = 0
write_dump all custom dump.atom_info_ac_* id type x y z radius vx vy vz density #
run 154320
Setting up run at Thu Jan  5 23:59:28 2023

Memory usage per processor = 958.989 Mbytes
    Step    Atoms         KinEng            CPU 
28086339      112     0.41079919              0 
28240659      111     0.47518383      1556.0396 
Loop time of 1556.04 on 40 procs for 154320 steps with 111 atoms, finish time Fri Jan  6 00:25:24 2023


Pair  time (%) = 0.265192 (0.0170427)
Neigh time (%) = 2.15486 (0.138484)
Comm  time (%) = 3.89765 (0.250485)
Outpt time (%) = 0.000391475 (2.51584e-05)
Other time (%) = 1549.72 (99.594)

Nlocal:    2.775 ave 38 max 0 min
Histogram: 33 4 1 0 0 0 0 0 1 1
Nghost:    0.7 ave 11 max 0 min
Histogram: 37 0 0 0 2 0 0 0 0 1
Neighs:    0.2 ave 5 max 0 min
Histogram: 38 0 0 0 0 0 1 0 0 1

Total # of neighbors = 8
Ave neighs/atom = 0.0720721
Neighbor list builds = 6351
Dangerous builds = 0
write_dump all custom dump.atom_info_ac_* id type x y z radius vx vy vz density #
run 154320
Setting up run at Fri Jan  6 00:25:24 2023

Memory usage per processor = 958.989 Mbytes
    Step    Atoms         KinEng            CPU 
28240659      111     0.47518383              0 
28394979      111     0.39957848      1560.1084 
Loop time of 1560.11 on 40 procs for 154320 steps with 111 atoms, finish time Fri Jan  6 00:51:24 2023


Pair  time (%) = 0.266097 (0.0170563)
Neigh time (%) = 2.28116 (0.146218)
Comm  time (%) = 4.26341 (0.273277)
Outpt time (%) = 0.000699774 (4.48541e-05)
Other time (%) = 1553.3 (99.5634)

Nlocal:    2.775 ave 39 max 0 min
Histogram: 33 4 0 1 0 0 0 0 1 1
Nghost:    0.675 ave 12 max 0 min
Histogram: 37 0 0 1 1 0 0 0 0 1
Neighs:    0.175 ave 4 max 0 min
Histogram: 37 0 1 0 0 1 0 0 0 1

Total # of neighbors = 7
Ave neighs/atom = 0.0630631
Neighbor list builds = 6636
Dangerous builds = 0
write_dump all custom dump.atom_info_ac_* id type x y z radius vx vy vz density #
run 154320
Setting up run at Fri Jan  6 00:51:24 2023

Memory usage per processor = 958.989 Mbytes
    Step    Atoms         KinEng            CPU 
28394979      111     0.39957848              0 
28549299      110      0.7865159      1582.1329 
Loop time of 1582.13 on 40 procs for 154320 steps with 110 atoms, finish time Fri Jan  6 01:17:46 2023


Pair  time (%) = 0.272764 (0.0172403)
Neigh time (%) = 3.38904 (0.214207)
Comm  time (%) = 5.48821 (0.346887)
Outpt time (%) = 0.000318461 (2.01286e-05)
Other time (%) = 1572.98 (99.4216)

Nlocal:    2.75 ave 39 max 0 min
Histogram: 32 5 1 0 0 0 0 0 1 1
Nghost:    0.625 ave 12 max 0 min
Histogram: 36 1 0 1 1 0 0 0 0 1
Neighs:    0.075 ave 3 max 0 min
Histogram: 39 0 0 0 0 0 0 0 0 1

Total # of neighbors = 3
Ave neighs/atom = 0.0272727
Neighbor list builds = 9874
Dangerous builds = 28
write_dump all custom dump.atom_info_ac_* id type x y z radius vx vy vz density #
run 154320
Setting up run at Fri Jan  6 01:17:46 2023

Memory usage per processor = 958.989 Mbytes
    Step    Atoms         KinEng            CPU 
28549299      110      0.7865159              0 
28703619      110      0.7324051      1570.1301 
Loop time of 1570.15 on 40 procs for 154320 steps with 110 atoms, finish time Fri Jan  6 01:43:56 2023


Pair  time (%) = 0.2666 (0.0169793)
Neigh time (%) = 2.55959 (0.163016)
Comm  time (%) = 4.48495 (0.285638)
Outpt time (%) = 0.000659108 (4.19774e-05)
Other time (%) = 1562.84 (99.5343)

Nlocal:    2.75 ave 39 max 0 min
Histogram: 33 4 0 1 0 0 0 1 0 1
Nghost:    0.6 ave 9 max 0 min
Histogram: 33 2 2 0 1 1 0 0 0 1
Neighs:    0.1 ave 4 max 0 min
Histogram: 39 0 0 0 0 0 0 0 0 1

Total # of neighbors = 4
Ave neighs/atom = 0.0363636
Neighbor list builds = 7452
Dangerous builds = 0
write_dump all custom dump.atom_info_ac_* id type x y z radius vx vy vz density #
run 154320
Setting up run at Fri Jan  6 01:43:56 2023

Memory usage per processor = 958.989 Mbytes
    Step    Atoms         KinEng            CPU 
28703619      110      0.7324051              0 
28857939      109     0.63469235      1564.1534 
Loop time of 1564.17 on 40 procs for 154320 steps with 109 atoms, finish time Fri Jan  6 02:10:00 2023


Pair  time (%) = 0.266704 (0.0170509)
Neigh time (%) = 2.43836 (0.155889)
Comm  time (%) = 4.51932 (0.288929)
Outpt time (%) = 0.000338506 (2.16413e-05)
Other time (%) = 1556.94 (99.5381)

Nlocal:    2.725 ave 39 max 0 min
Histogram: 33 3 2 0 0 0 0 1 0 1
Nghost:    0.55 ave 9 max 0 min
Histogram: 33 3 0 2 1 0 0 0 0 1
Neighs:    0.05 ave 2 max 0 min
Histogram: 39 0 0 0 0 0 0 0 0 1

Total # of neighbors = 2
Ave neighs/atom = 0.0183486
Neighbor list builds = 7200
Dangerous builds = 312
write_dump all custom dump.atom_info_ac_* id type x y z radius vx vy vz density #
run 154320
Setting up run at Fri Jan  6 02:10:01 2023

Memory usage per processor = 958.989 Mbytes
    Step    Atoms         KinEng            CPU 
28857939      109     0.63469235              0 
29012259      108      0.5892089      1563.3719 
Loop time of 1563.37 on 40 procs for 154320 steps with 108 atoms, finish time Fri Jan  6 02:36:04 2023


Pair  time (%) = 0.264617 (0.016926)
Neigh time (%) = 2.05581 (0.131499)
Comm  time (%) = 4.18788 (0.267875)
Outpt time (%) = 0.00033022 (2.11223e-05)
Other time (%) = 1556.86 (99.5837)

Nlocal:    2.7 ave 40 max 0 min
Histogram: 32 6 0 0 0 0 0 1 0 1
Nghost:    0.6 ave 7 max 0 min
Histogram: 33 1 2 0 1 1 0 1 0 1
Neighs:    0.05 ave 2 max 0 min
Histogram: 39 0 0 0 0 0 0 0 0 1

Total # of neighbors = 2
Ave neighs/atom = 0.0185185
Neighbor list builds = 6071
Dangerous builds = 284
write_dump all custom dump.atom_info_ac_* id type x y z radius vx vy vz density #
run 154320
Setting up run at Fri Jan  6 02:36:04 2023

Memory usage per processor = 958.989 Mbytes
    Step    Atoms         KinEng            CPU 
29012259      108      0.5892089              0 
29166579      108     0.59831567      1553.7445 
Loop time of 1553.74 on 40 procs for 154320 steps with 108 atoms, finish time Fri Jan  6 03:01:58 2023


Pair  time (%) = 0.263726 (0.0169736)
Neigh time (%) = 1.98624 (0.127836)
Comm  time (%) = 3.84946 (0.247754)
Outpt time (%) = 0.000655156 (4.21662e-05)
Other time (%) = 1547.64 (99.6074)

Nlocal:    2.7 ave 41 max 0 min
Histogram: 34 4 0 0 0 0 0 1 0 1
Nghost:    0.675 ave 8 max 0 min
Histogram: 31 4 1 1 0 0 2 0 0 1
Neighs:    0.05 ave 2 max 0 min
Histogram: 39 0 0 0 0 0 0 0 0 1

Total # of neighbors = 2
Ave neighs/atom = 0.0185185
Neighbor list builds = 5768
Dangerous builds = 0
write_dump all custom dump.atom_info_ac_* id type x y z radius vx vy vz density #
run 154320
Setting up run at Fri Jan  6 03:01:58 2023

Memory usage per processor = 958.989 Mbytes
    Step    Atoms         KinEng            CPU 
29166579      108     0.59831567              0 
29320899      106     0.57788078      1566.3681 
Loop time of 1566.37 on 40 procs for 154320 steps with 106 atoms, finish time Fri Jan  6 03:28:04 2023


Pair  time (%) = 0.266833 (0.0170351)
Neigh time (%) = 2.24627 (0.143406)
Comm  time (%) = 3.88967 (0.248324)
Outpt time (%) = 0.000411166 (2.62497e-05)
Other time (%) = 1559.96 (99.5912)

Nlocal:    2.65 ave 38 max 0 min
Histogram: 34 3 1 0 0 0 0 1 0 1
Nghost:    0.55 ave 9 max 0 min
Histogram: 35 2 0 0 0 1 1 0 0 1
Neighs:    0.05 ave 2 max 0 min
Histogram: 39 0 0 0 0 0 0 0 0 1

Total # of neighbors = 2
Ave neighs/atom = 0.0188679
Neighbor list builds = 6673
Dangerous builds = 334
write_dump all custom dump.atom_info_ac_* id type x y z radius vx vy vz density #
run 154320
Setting up run at Fri Jan  6 03:28:04 2023

Memory usage per processor = 958.989 Mbytes
    Step    Atoms         KinEng            CPU 
29320899      106     0.57788078              0 
29475219      106      0.5373328      1560.9624 
Loop time of 1560.96 on 40 procs for 154320 steps with 106 atoms, finish time Fri Jan  6 03:54:05 2023


Pair  time (%) = 0.268195 (0.0171814)
Neigh time (%) = 1.98614 (0.127238)
Comm  time (%) = 2.53961 (0.162695)
Outpt time (%) = 0.000625951 (4.01003e-05)
Other time (%) = 1556.17 (99.6928)

Nlocal:    2.65 ave 38 max 0 min
Histogram: 33 4 1 0 0 0 0 1 0 1
Nghost:    0.575 ave 9 max 0 min
Histogram: 35 1 1 0 0 1 1 0 0 1
Neighs:    0.05 ave 2 max 0 min
Histogram: 39 0 0 0 0 0 0 0 0 1

Total # of neighbors = 2
Ave neighs/atom = 0.0188679
Neighbor list builds = 5764
Dangerous builds = 0
write_dump all custom dump.atom_info_ac_* id type x y z radius vx vy vz density #
run 154320
Setting up run at Fri Jan  6 03:54:05 2023

Memory usage per processor = 958.989 Mbytes
    Step    Atoms         KinEng            CPU 
29475219      106      0.5373328              0 
29629539      106     0.52195956      1547.3504 
Loop time of 1547.35 on 40 procs for 154320 steps with 106 atoms, finish time Fri Jan  6 04:19:53 2023


Pair  time (%) = 0.266933 (0.0172509)
Neigh time (%) = 1.9782 (0.127844)
Comm  time (%) = 2.20208 (0.142313)
Outpt time (%) = 0.000321859 (2.08007e-05)
Other time (%) = 1542.9 (99.7126)

Nlocal:    2.65 ave 39 max 0 min
Histogram: 33 4 1 0 0 0 0 1 0 1
Nghost:    0.675 ave 10 max 0 min
Histogram: 35 2 0 0 0 0 0 1 1 1
Neighs:    0.05 ave 2 max 0 min
Histogram: 39 0 0 0 0 0 0 0 0 1

Total # of neighbors = 2
Ave neighs/atom = 0.0188679
Neighbor list builds = 5749
Dangerous builds = 0
write_dump all custom dump.atom_info_ac_* id type x y z radius vx vy vz density #
run 154320
Setting up run at Fri Jan  6 04:19:53 2023

Memory usage per processor = 958.989 Mbytes
    Step    Atoms         KinEng            CPU 
29629539      106     0.52195956              0 
29783859      106     0.50836737      1586.6291 
Loop time of 1586.63 on 40 procs for 154320 steps with 106 atoms, finish time Fri Jan  6 04:46:19 2023


Pair  time (%) = 0.274088 (0.0172749)
Neigh time (%) = 3.64745 (0.229887)
Comm  time (%) = 4.84224 (0.305191)
Outpt time (%) = 0.00260362 (0.000164098)
Other time (%) = 1577.86 (99.4475)

Nlocal:    2.65 ave 38 max 0 min
Histogram: 33 3 2 0 0 0 0 1 0 1
Nghost:    0.575 ave 9 max 0 min
Histogram: 35 2 0 0 0 1 0 1 0 1
Neighs:    0.075 ave 2 max 0 min
Histogram: 38 0 0 0 0 1 0 0 0 1

Total # of neighbors = 3
Ave neighs/atom = 0.0283019
Neighbor list builds = 10646
Dangerous builds = 0
write_dump all custom dump.atom_info_ac_* id type x y z radius vx vy vz density #
run 154320
Setting up run at Fri Jan  6 04:46:19 2023

Memory usage per processor = 958.989 Mbytes
    Step    Atoms         KinEng            CPU 
29783859      106     0.50836737              0 
29938179      106     0.47468712      1569.8192 
Loop time of 1569.82 on 40 procs for 154320 steps with 106 atoms, finish time Fri Jan  6 05:12:29 2023


Pair  time (%) = 0.268239 (0.0170873)
Neigh time (%) = 2.84275 (0.181088)
Comm  time (%) = 4.48026 (0.2854)
Outpt time (%) = 0.000603059 (3.84158e-05)
Other time (%) = 1562.23 (99.5164)

Nlocal:    2.65 ave 37 max 0 min
Histogram: 34 3 1 0 0 0 0 0 1 1
Nghost:    0.775 ave 9 max 0 min
Histogram: 31 3 3 0 0 0 1 1 0 1
Neighs:    0.075 ave 2 max 0 min
Histogram: 38 0 0 0 0 1 0 0 0 1

Total # of neighbors = 3
Ave neighs/atom = 0.0283019
Neighbor list builds = 8275
Dangerous builds = 0
write_dump all custom dump.atom_info_ac_* id type x y z radius vx vy vz density #
run 154320
Setting up run at Fri Jan  6 05:12:29 2023

Memory usage per processor = 958.989 Mbytes
    Step    Atoms         KinEng            CPU 
29938179      106     0.47468712              0 
30092499      105      0.4819729      1574.1465 
Loop time of 1574.15 on 40 procs for 154320 steps with 105 atoms, finish time Fri Jan  6 05:38:43 2023


Pair  time (%) = 0.272877 (0.0173349)
Neigh time (%) = 2.9416 (0.186869)
Comm  time (%) = 4.6657 (0.296395)
Outpt time (%) = 0.000334167 (2.12284e-05)
Other time (%) = 1566.27 (99.4994)

Nlocal:    2.625 ave 37 max 0 min
Histogram: 33 4 1 0 0 0 0 1 0 1
Nghost:    0.6 ave 10 max 0 min
Histogram: 35 1 1 0 0 1 1 0 0 1
Neighs:    0.05 ave 2 max 0 min
Histogram: 39 0 0 0 0 0 0 0 0 1

Total # of neighbors = 2
Ave neighs/atom = 0.0190476
Neighbor list builds = 8537
Dangerous builds = 0
write_dump all custom dump.atom_info_ac_* id type x y z radius vx vy vz density #
run 154320
Setting up run at Fri Jan  6 05:38:43 2023

Memory usage per processor = 958.989 Mbytes
    Step    Atoms         KinEng            CPU 
30092499      105      0.4819729              0 
30246819      102     0.33826017      1573.1317 
Loop time of 1573.13 on 40 procs for 154320 steps with 102 atoms, finish time Fri Jan  6 06:04:57 2023


Pair  time (%) = 0.273146 (0.0173632)
Neigh time (%) = 3.20448 (0.203701)
Comm  time (%) = 6.04175 (0.384059)
Outpt time (%) = 0.000714596 (4.54251e-05)
Other time (%) = 1563.61 (99.3948)

Nlocal:    2.55 ave 37 max 0 min
Histogram: 34 3 1 0 0 0 0 1 0 1
Nghost:    0.675 ave 11 max 0 min
Histogram: 37 0 0 0 0 2 0 0 0 1
Neighs:    0.075 ave 3 max 0 min
Histogram: 39 0 0 0 0 0 0 0 0 1

Total # of neighbors = 3
Ave neighs/atom = 0.0294118
Neighbor list builds = 9342
Dangerous builds = 7
write_dump all custom dump.atom_info_ac_* id type x y z radius vx vy vz density #
run 154320
Setting up run at Fri Jan  6 06:04:57 2023

Memory usage per processor = 958.989 Mbytes
    Step    Atoms         KinEng            CPU 
30246819      102     0.33826017              0 
30401139      102     0.32880491      1573.6263 
Loop time of 1573.63 on 40 procs for 154320 steps with 102 atoms, finish time Fri Jan  6 06:31:10 2023


Pair  time (%) = 0.270331 (0.0171788)
Neigh time (%) = 2.77152 (0.176123)
Comm  time (%) = 4.96973 (0.315814)
Outpt time (%) = 0.000372652 (2.36811e-05)
Other time (%) = 1565.61 (99.4909)

Nlocal:    2.55 ave 37 max 0 min
Histogram: 34 3 1 0 0 0 0 1 0 1
Nghost:    0.6 ave 9 max 0 min
Histogram: 35 2 0 0 0 0 1 1 0 1
Neighs:    0.15 ave 3 max 0 min
Histogram: 36 0 0 3 0 0 0 0 0 1

Total # of neighbors = 6
Ave neighs/atom = 0.0588235
Neighbor list builds = 8046
Dangerous builds = 0
write_dump all custom dump.atom_info_ac_* id type x y z radius vx vy vz density #
run 154320
Setting up run at Fri Jan  6 06:31:10 2023

Memory usage per processor = 958.989 Mbytes
    Step    Atoms         KinEng            CPU 
30401139      102     0.32880491              0 
30555459      101     0.31066648      1567.6775 
Loop time of 1567.68 on 40 procs for 154320 steps with 101 atoms, finish time Fri Jan  6 06:57:18 2023


Pair  time (%) = 0.269893 (0.0172161)
Neigh time (%) = 2.3122 (0.147492)
Comm  time (%) = 3.70608 (0.236406)
Outpt time (%) = 0.000369687 (2.35818e-05)
Other time (%) = 1561.39 (99.5989)

Nlocal:    2.525 ave 36 max 0 min
Histogram: 33 5 0 0 0 0 0 0 1 1
Nghost:    0.65 ave 10 max 0 min
Histogram: 34 2 0 1 1 0 0 1 0 1
Neighs:    0.1 ave 3 max 0 min
Histogram: 38 0 0 1 0 0 0 0 0 1

Total # of neighbors = 4
Ave neighs/atom = 0.039604
Neighbor list builds = 6708
Dangerous builds = 0
write_dump all custom dump.atom_info_ac_* id type x y z radius vx vy vz density #
run 154320
Setting up run at Fri Jan  6 06:57:18 2023

Memory usage per processor = 958.989 Mbytes
    Step    Atoms         KinEng            CPU 
30555459      101     0.31066648              0 
30709779       98     0.26792097      1567.7715 
Loop time of 1567.77 on 40 procs for 154320 steps with 98 atoms, finish time Fri Jan  6 07:23:26 2023


Pair  time (%) = 0.269744 (0.0172055)
Neigh time (%) = 2.87863 (0.183613)
Comm  time (%) = 4.57833 (0.292028)
Outpt time (%) = 0.000560326 (3.57403e-05)
Other time (%) = 1560.04 (99.5071)

Nlocal:    2.45 ave 38 max 0 min
Histogram: 34 4 0 0 0 0 0 1 0 1
Nghost:    0.7 ave 11 max 0 min
Histogram: 36 1 0 0 0 2 0 0 0 1
Neighs:    0.075 ave 3 max 0 min
Histogram: 39 0 0 0 0 0 0 0 0 1

Total # of neighbors = 3
Ave neighs/atom = 0.0306122
Neighbor list builds = 8379
Dangerous builds = 1
write_dump all custom dump.atom_info_ac_* id type x y z radius vx vy vz density #
run 154320
Setting up run at Fri Jan  6 07:23:26 2023

Memory usage per processor = 958.989 Mbytes
    Step    Atoms         KinEng            CPU 
30709779       98     0.26792097              0 
30864099       98     0.44957557      1597.8383 
Loop time of 1597.84 on 40 procs for 154320 steps with 98 atoms, finish time Fri Jan  6 07:50:04 2023


Pair  time (%) = 0.276866 (0.0173275)
Neigh time (%) = 4.26806 (0.267115)
Comm  time (%) = 5.94636 (0.37215)
Outpt time (%) = 0.000396907 (2.48402e-05)
Other time (%) = 1587.35 (99.3434)

Nlocal:    2.45 ave 36 max 0 min
Histogram: 33 5 0 0 0 0 0 1 0 1
Nghost:    0.7 ave 12 max 0 min
Histogram: 37 0 0 1 0 1 0 0 0 1
Neighs:    0.075 ave 2 max 0 min
Histogram: 38 0 0 0 0 1 0 0 0 1

Total # of neighbors = 3
Ave neighs/atom = 0.0306122
Neighbor list builds = 12489
Dangerous builds = 0
write_dump all custom dump.atom_info_ac_* id type x y z radius vx vy vz density #
run 97
Setting up run at Fri Jan  6 07:50:04 2023

Memory usage per processor = 958.989 Mbytes
    Step    Atoms         KinEng            CPU 
30864099       98     0.44957557              0 
30864196       98     0.44957675     0.92873501 
Loop time of 0.928749 on 40 procs for 97 steps with 98 atoms, finish time Fri Jan  6 07:50:05 2023


Pair  time (%) = 0.000158661 (0.0170833)
Neigh time (%) = 0.00205301 (0.221051)
Comm  time (%) = 0.00200168 (0.215525)
Outpt time (%) = 0.000326947 (0.0352029)
Other time (%) = 0.924208 (99.5111)

Nlocal:    2.45 ave 36 max 0 min
Histogram: 33 5 0 0 0 0 0 1 0 1
Nghost:    0.7 ave 12 max 0 min
Histogram: 37 0 0 1 0 1 0 0 0 1
Neighs:    0.075 ave 2 max 0 min
Histogram: 38 0 0 0 0 1 0 0 0 1

Total # of neighbors = 3
Ave neighs/atom = 0.0306122
Neighbor list builds = 6
Dangerous builds = 0
write_dump all custom dump.atom_info_ac_* id type x y z radius vx vy vz density #
