ITEM: TIMESTEP
17695448
ITEM: NUMBER OF ATOMS
550
ITEM: BOX BOUNDS ff ff ff
-0.15 0.15
-0.15 0.15
-0.15 0.15
ITEM: ATOMS id type x y z radius vx vy vz density 
923 1 -0.00057052 -0.0259522 -0.0688226 0.000175 -16.1841 -0.465345 0.134161 2650 
83 1 -0.0124079 -0.0382959 -0.0672743 0.000635 -115.431 -7.47331 21.2827 2650 
1074 1 -0.0109928 -0.0247799 -0.0674755 0.000635 -19.4385 -0.284346 3.16676 2650 
10 1 -0.013891 -0.0525893 -0.0669398 0.000635 -26.7135 -1.12081 5.54245 2650 
751 1 -0.00989882 -0.0480893 -0.0667369 0.000635 -85.6442 -33.5509 5.52363 2650 
222 1 -0.0151944 -0.0148814 -0.0671261 0.000175 -0.308594 -0.480931 0.158695 2650 
623 1 -0.0221292 -0.056102 -0.0651704 0.000175 -24.0075 -1.637 8.15195 2650 
1090 1 -0.0215684 -0.0390225 -0.0653603 0.000175 -82.3987 -12.4429 27.1876 2650 
921 1 -0.0215569 -0.00807829 -0.0653619 0.000175 -20.39 1.13699 6.72479 2650 
110 1 -0.0225192 -0.00720335 -0.0645577 0.000635 -41.644 -3.86919 14.52 2650 
1117 1 -0.0293585 -0.0286746 -0.0622519 0.000175 -79.43 -0.160429 37.4552 2650 
73 1 -0.0267517 -0.0310416 -0.0565682 0.000635 4.75902 2.9984 -3.03696 2650 
1304 1 -0.0415049 -0.00778128 -0.0543346 0.000635 -23.7351 -8.1776 18.0751 2650 
1315 1 -0.0465468 -0.0256688 -0.0507019 0.000175 -54.7108 1.51213 50.2203 2650 
269 1 -0.0490119 -0.0511127 -0.0484785 6.3e-05 -18.9764 6.69186 19.1837 2650 
977 1 -0.0529219 -0.0615934 -0.043269 0.000635 -9.78637 -6.31246 13.0647 2650 
806 1 -0.0536196 -0.0117824 -0.0418758 0.000984 -15.7962 -0.758618 20.21 2650 
1136 1 -0.0599825 -0.0486867 -0.0321295 0.000984 -17.3446 -0.573426 32.3575 2650 
915 1 -0.00916845 -0.00614509 -0.0309011 0.000635 -1.48396 -0.345207 -4.1335 2650 
971 1 -0.0112687 -0.0608552 -0.0268173 0.000984 -7.26755 0.347712 3.10166 2650 
918 1 -0.0634282 -0.0426137 -0.0255602 0.000635 -16.5968 1.68177 41.1662 2650 
288 1 -0.0656807 -0.0177364 -0.0190403 0.000635 -11.6989 -1.63495 40.3369 2650 
71 1 -0.0665354 -0.0386416 -0.0143049 0.000984 -9.39965 -2.10076 43.6903 2650 
469 1 -0.00785504 -0.00249328 -0.0147636 0.000175 -0.0578939 -0.0624564 0.049411 2650 
14 1 -0.0673794 -0.00842472 -0.0117104 0.000635 -9.01891 3.86166 51.8703 2650 
486 1 -0.0668965 -0.0335115 -0.0095227 0.000635 -13.356 -1.07349 55.3216 2650 
890 1 -0.008469 -0.000751985 -0.008886 0.000175 0 -0.01175 0 2650 
1268 1 -0.00912846 -0.00284009 -0.00836599 0.000984 -0.00703231 -0.00659354 0.025873 2650 
209 1 -0.0680991 -0.0200217 -0.00620161 0.000635 -2.19992 2.20466 24.1443 2650 
816 1 -0.0682502 -0.0449468 -0.0042123 0.000635 -1.21147 4.80112 19.6184 2650 
853 1 -0.0687601 -0.0289044 -0.00307908 0.000175 -1.68173 -5.30495 37.5497 2650 
1022 1 -0.002244 -0.000955985 -0.00401 0.000175 0 -0.01175 0 2650 
884 1 -0.0683268 -0.0242713 -0.00280777 0.000635 -1.51153 2.34901 36.7411 2650 
185 1 -0.0683614 -0.0211199 -0.00174038 0.000635 -0.859735 4.28777 33.7794 2650 
406 1 -0.003114 -0.000943985 -0.002553 6.3e-05 0 -0.01175 0 2650 
1295 1 -0.002608 -0.00182199 -0.002004 0.000175 0 -0.01175 0 2650 
260 1 -0.0688277 -0.0148825 0.000416231 0.000175 0.214469 -5.46011 35.4598 2650 
886 1 -0.0241718 -0.00668203 0.000514925 0.000175 -2.76358 -0.508839 0.00914412 2650 
317 1 -0.000988956 -0.00322212 0.000723071 0.000635 0.00392449 -0.0107225 0.0012966 2650 
1060 1 -0.00233246 -0.00161676 0.00157826 0.000175 0.00183529 -0.0168612 -0.00225616 2650 
1168 1 -0.000115648 -0.000566428 0.0052951 0.000984 -0.00277268 -0.00829874 -0.00594089 2650 
359 1 -0.068313 -0.0173161 0.00841985 0.000175 7.74779 6.54931 62.8518 2650 
778 1 -0.0144732 -0.0018476 0.00746891 0.000635 0.0136349 -0.0118971 -0.00127472 2650 
612 1 -0.0675179 -0.0274151 0.0108653 0.000635 7.03555 0.01285 43.6999 2650 
637 1 -0.00271054 -0.000812879 0.0101807 6.3e-05 -0.0011785 -0.011356 -0.000649709 2650 
270 1 -0.006581 -0.000472985 0.011683 6.3e-05 0 -0.01175 0 2650 
303 1 -0.00215277 -0.0011006 0.0108545 6.3e-05 -0.00918984 -0.0139375 0.0177768 2650 
785 1 -0.0021371 -0.000236093 0.0109554 0.000635 -0.00123639 -0.00820286 0.00120478 2650 
541 1 -0.00876916 -0.00182033 0.0129349 0.000984 0.0263337 -0.0110049 0.00740205 2650 
704 1 -0.00792534 -0.000175739 0.0147221 6.3e-05 0.427434 -0.0945137 0.229517 2650 
1146 1 -0.00716009 -0.00102406 0.0144727 0.000635 0.0878532 -0.0639067 0.0447677 2650 
1111 1 -0.00608598 -0.000512738 0.0150786 0.000635 0.0906548 -0.0569458 0.0453292 2650 
179 1 -0.0659169 -0.0258945 0.0181864 0.000635 6.28235 -1.63907 22.7585 2650 
409 1 -0.065029 -0.0333151 0.0200816 0.000984 14.7468 3.26593 47.7231 2650 
279 1 -0.065773 -0.0286064 0.0187069 0.000635 8.43169 -1.3144 29.6308 2650 
44 1 -0.0655259 -0.0464023 0.0195413 0.000635 4.01087 3.65873 13.4418 2650 
219 1 -0.00687838 -0.00661983 0.0225476 0.000635 -0.944353 -1.0283 3.12412 2650 
363 1 -0.064325 -0.0444202 0.0244884 0.000175 16.1765 -6.3591 42.4854 2650 
1319 1 -0.0603484 -0.0461562 0.0330951 0.000175 11.8498 6.10122 21.6043 2650 
592 1 -0.0599046 -0.00752111 0.0338921 0.000175 15.0906 0.405752 26.6685 2650 
341 1 -0.058509 -0.00489257 0.0347166 0.000984 9.05416 -2.96112 15.2463 2650 
394 1 -0.0590694 -0.00649445 0.0353271 0.000175 13.0845 20.2325 21.8744 2650 
1140 1 -0.0575176 -0.0420846 0.0369773 0.000635 17.597 3.51558 27.3578 2650 
1255 1 -0.0491307 -0.0459424 0.0482049 0.000175 70.8296 -8.07741 72.1811 2650 
1141 1 -0.049327 -0.0047669 0.0473612 0.000635 36.8621 11.4521 38.3751 2650 
544 1 -0.0490782 -0.0325899 0.0476142 0.000635 31.562 5.11779 32.5172 2650 
784 1 -0.0458362 -0.0269709 0.0507417 0.000635 34.0419 -14.4586 30.7365 2650 
454 1 -0.0446016 -0.0128885 0.0518298 0.000635 34.986 -3.82033 30.0929 2650 
36 1 -0.041469 -0.00617422 0.0539285 0.000984 21.8684 -2.83453 16.8029 2650 
894 1 -0.0390242 -0.0042034 0.0567015 0.000175 128.744 -9.15614 88.597 2650 
1017 1 -0.0359996 -0.0459865 0.0581337 0.000635 41.9647 -0.981455 25.9751 2650 
877 1 -0.022964 -0.0202304 0.0643946 0.000635 26.7403 1.28159 9.5329 2650 
200 1 -0.0204455 -0.0361501 0.0657183 0.000175 48.1028 0.560866 14.9645 2650 
379 1 -0.0159363 -0.038411 0.0664454 0.000635 32.2296 3.40469 8.50757 2650 
343 1 -0.014067 -0.0384194 0.0665582 0.000984 34.145 2.64518 6.96189 2650 
682 1 -0.00388627 -0.047175 0.0682741 0.000635 72.7603 -2.75275 4.13996 2650 
376 1 -0.00923446 -0.038083 0.0673968 0.000984 35.1753 -0.951848 4.81645 2650 
1158 1 -0.000155385 -0.0222438 0.0681 0.000175 37.9261 6.91664 -0.377325 2650 
1080 1 -0.00887811 -0.0197752 0.067797 0.000635 53.6642 -2.59323 7.02442 2650 
1262 1 -0.00371534 -0.00749547 0.0687248 0.000175 53.1145 5.58042 2.87135 2650 
439 1 -0.0608473 0.0745875 -0.0324041 6.3e-05 -0.0803027 -0.262113 0.15078 2650 
227 1 -0.0659191 0.0627539 -0.0198477 0.000175 -73.6511 0.0369757 244.57 2650 
169 1 -0.000426991 0.00220671 -0.0166256 6.3e-05 -0.114782 -0.0620221 -0.00291489 2650 
596 1 -0.00129159 0.00981565 -0.0156314 0.000175 -0.316807 0.0822772 -0.0985735 2650 
463 1 -0.00388891 0.0119969 -0.016023 0.000175 -0.439589 0.0495257 0.0162185 2650 
1076 1 -0.00411233 0.0136702 -0.0156433 0.000635 -0.0634917 0.00724036 0.0146037 2650 
694 1 -0.00246223 0.0320152 -0.0164512 0.000175 -0.173805 0.0548354 0.0308373 2650 
670 1 -0.00457701 0.00051979 -0.0150022 6.3e-05 -0.00264984 -0.0110686 -0.0403451 2650 
235 1 -0.00844472 0.0324184 -0.0145974 6.3e-05 -0.244718 0.234643 0.186547 2650 
1198 1 -0.00696046 0.0538672 -0.0152107 6.3e-05 -0.277621 -0.027489 0.12153 2650 
153 1 -0.0666512 0.0687363 -0.0152662 0.000635 -0.0253272 0.0257413 0.110513 2650 
1155 1 -0.00912634 0.00582815 -0.0138862 0.000175 -0.0889755 -0.0693523 0.0670717 2650 
577 1 -0.00740551 0.00580746 -0.0132717 0.000635 -0.0659211 0.00787116 0.0243676 2650 
945 1 -0.00555428 0.0183602 -0.0140473 0.000635 -0.0239203 0.00777492 -0.0288266 2650 
133 1 -0.00863242 0.019556 -0.0140397 6.3e-05 -0.0742618 0.0126298 0.0415943 2650 
1094 1 -0.00933877 0.0311832 -0.0135859 0.000175 -0.490422 0.0816047 0.425375 2650 
1071 1 -0.00287927 0.0578986 -0.0143848 0.000635 -0.116268 0.0528601 0.0863388 2650 
442 1 -0.00504202 0.070949 -0.0135204 0.000984 -0.178191 0.627366 0.0549812 2650 
1132 1 -0.000713709 0.0110246 -0.0124229 6.3e-05 -0.0144492 0.00554189 -0.0155795 2650 
263 1 -0.010272 0.0203156 -0.0131596 0.000175 -0.103272 0.0256685 0.0558619 2650 
1229 1 -0.00232367 0.0206964 -0.0122378 0.000175 0.000339219 0.0139459 0.0272843 2650 
505 1 -0.00959963 0.0253789 -0.0127929 6.3e-05 -0.0742178 -0.0782979 0.0235474 2650 
662 1 -0.067603 0.0599503 -0.0129295 0.000175 -0.0292905 0.0164508 0.153124 2650 
61 1 -0.067685 0.0720963 -0.0124932 0.000175 -0.0162981 -0.0271658 0.0882846 2650 
471 1 -0.00725478 0.00296836 -0.0119988 6.3e-05 -0.0607736 -0.00140347 -0.0219081 2650 
746 1 -0.0109916 0.0373691 -0.0118513 0.000635 -0.150032 0.336375 0.247879 2650 
225 1 -0.00698004 0.0261336 -0.00974469 0.000175 0.00890433 0.0329427 0.0292969 2650 
1306 1 -0.0129881 0.0316769 -0.00982505 0.000635 -0.0989726 0.105446 0.115418 2650 
655 1 -0.0135776 0.00117071 -0.00887129 0.000635 -0.0518684 0.000206931 0.0605744 2650 
868 1 -0.005513 0.000893015 -0.008425 6.3e-05 0 -0.01175 0 2650 
251 1 -0.00530661 0.00537998 -0.00908523 0.000635 -0.0751306 -0.094744 0.0543698 2650 
54 1 -0.0141087 0.00984115 -0.00874177 0.000175 -0.0672015 -0.0512157 0.128361 2650 
517 1 -0.0141588 0.00521382 -0.00777114 0.000635 -0.101611 -0.0449714 0.189068 2650 
93 1 -0.0149133 0.0141253 -0.00742751 0.000175 -0.144166 -0.0110805 0.271596 2650 
1010 1 -0.0104489 0.0339183 -0.00778887 0.000635 -0.00342677 0.0447998 -0.0135992 2650 
1181 1 -0.0139292 0.0520724 -0.00769062 0.000635 -0.203591 0.00527699 0.228639 2650 
1310 1 -0.00754194 0.00463503 -0.00691714 0.000635 -0.0111948 -0.0014158 -0.00620165 2650 
768 1 -0.00304087 0.0062317 -0.0071507 6.3e-05 0.0144946 0.00483294 -0.00101861 2650 
640 1 -0.0103072 0.0192647 -0.00648091 0.000984 -0.0338435 0.0426694 0.0995473 2650 
824 1 -0.0121193 0.0224834 -0.00685132 0.000175 -0.012077 0.019492 0.0173156 2650 
567 1 -0.0151197 0.0327385 -0.00714178 0.000175 -0.15782 -0.0507067 0.302168 2650 
259 1 -0.0151221 0.0323513 -0.00714686 0.000175 -0.137968 -0.076193 0.255211 2650 
1150 1 -0.0140141 0.00450446 -0.00598868 0.000175 0.0153705 -0.00075382 0.0130652 2650 
587 1 -0.0153983 0.0120615 -0.00489149 0.000635 -0.0567729 -0.0450126 0.222726 2650 
332 1 -0.0157744 0.0136757 -0.00544134 0.000175 -0.116225 -0.00591273 0.456767 2650 
1061 1 -0.0129268 0.0227704 -0.00525836 0.000175 -0.000755913 0.0287146 -0.007194 2650 
683 1 -0.0152756 0.0268477 -0.00571398 0.000635 -0.0760663 0.0296035 0.307887 2650 
204 1 -0.015921 0.0304008 -0.00545007 6.3e-05 -0.112327 0.053246 0.452548 2650 
616 1 -0.0150096 0.0566831 -0.00584047 0.000635 -0.059133 0.192629 0.328842 2650 
182 1 -0.000385065 0.0610375 -0.00552051 0.000635 0.0238102 0.0922836 -0.0101213 2650 
1326 1 -0.0118 0.0116043 -0.00372307 0.000175 -0.025058 0.00752524 -0.0256761 2650 
1235 1 -0.0151699 0.0161719 -0.00460901 0.000984 -0.0532803 0.0091944 0.20877 2650 
35 1 -0.0121576 0.0186308 -0.00431878 0.000984 -0.0189709 0.019337 -0.00749561 2650 
835 1 -0.0163048 0.0528054 -0.00403144 6.3e-05 -0.0609883 0.0149052 0.216888 2650 
102 1 -0.014214 0.00285001 -0.002419 6.3e-05 0 -0.01175 0 2650 
1078 1 -0.00891226 0.00864629 -0.00318949 0.000635 -0.0160195 0.0106303 -0.00925336 2650 
615 1 -0.0159691 0.0113369 -0.00348707 0.000635 -0.00623525 -0.0559546 0.222591 2650 
530 1 -0.0142089 0.0132661 -0.00245699 0.000175 0.0721633 -0.0954592 0.158291 2650 
1244 1 -0.000304196 0.0153055 -0.00276552 0.000635 -0.0298037 0.017619 -0.00770937 2650 
217 1 -0.015281 0.0176604 -0.00302186 0.000635 0.00278641 0.00785537 0.0160378 2650 
313 1 -0.0158369 0.0345551 -0.00340777 0.000635 -0.0864799 0.0487775 0.345531 2650 
515 1 -0.000210733 0.04957 -0.00277724 0.000635 -0.0144496 0.0810055 0.0177715 2650 
1129 1 -0.0112117 0.00497281 -0.00182107 0.000175 -0.0117335 -0.00389042 -0.00243884 2650 
1297 1 -0.00795354 0.0203598 -0.0020698 6.3e-05 0.0336474 0.0231606 -0.00794973 2650 
811 1 -0.014342 0.0240797 -0.00131105 0.000635 -0.0170959 0.00948332 0.0519416 2650 
847 1 -0.00986783 0.0276246 -0.001764 0.000635 0.00283835 0.0200034 0.0498431 2650 
356 1 -0.0160383 0.0542422 -0.00231839 0.000635 -0.116407 0.172475 0.440211 2650 
268 1 -0.00561673 0.0642693 -0.00198139 0.000175 0.0277996 0.0486986 0.0135912 2650 
159 1 -0.00476025 0.00532989 -0.00108978 0.000175 -0.0675624 0.0206912 0.0301813 2650 
536 1 -0.00160849 0.0156691 -0.001066 0.000175 -0.0195649 0.0184229 0.0151832 2650 
94 1 -0.00344514 0.0179551 -2.69411e-05 0.000175 0.00799389 0.0182284 0.0110317 2650 
58 1 -0.0164831 0.0211416 -0.00102739 0.000175 -0.00362939 0.0935026 0.219149 2650 
553 1 -0.0126071 0.0351751 -0.000194481 0.000635 -0.0170802 0.0329624 0.00259101 2650 
1277 1 -0.0131974 0.0396424 -0.000833646 0.000635 -0.039688 0.0703586 -0.00023939 2650 
67 1 -0.00799305 0.0521165 -0.000679778 6.3e-05 0.0217509 0.0655697 -0.0300853 2650 
925 1 -0.009738 0.00290301 0.000245 0.000175 0 -0.01175 0 2650 
1271 1 -0.00914502 0.00503478 0.000522595 0.000635 -0.0681015 -0.000753274 0.00939677 2650 
261 1 -0.007091 0.0122225 0.000842183 0.000175 -0.0149495 0.00852408 0.0160268 2650 
1131 1 -0.00973625 0.038751 0.00113216 6.3e-05 0.0166539 0.0441067 -0.0287634 2650 
852 1 -0.00765426 0.00105778 0.00179372 0.000635 -0.0259105 -0.00430234 0.00673572 2650 
777 1 -0.0158368 0.00896156 0.0012251 0.000635 0.00855102 -0.284258 0.309882 2650 
1296 1 -0.00314981 0.0166658 0.00125156 6.3e-05 0.0153929 0.0132515 0.026338 2650 
1316 1 -0.0152578 0.0197149 0.00238426 0.000175 -0.0461166 0.0329035 -0.000706448 2650 
43 1 -0.0160419 0.020773 0.00211638 0.000635 0.068846 0.099824 0.37658 2650 
521 1 -0.0154736 0.0279413 0.00226801 0.000635 0.0095718 0.0249979 0.0708658 2650 
769 1 -0.003816 0.00151901 0.003188 6.3e-05 0 -0.01175 0 2650 
840 1 -0.0151655 0.00264971 0.00338253 0.000635 -0.0401742 0.00750369 0.0250609 2650 
386 1 -0.0012358 0.0297267 0.00351972 0.000635 -0.0246131 2.04447 2.78503 2650 
1284 1 -0.0144059 0.042125 0.00311119 0.000175 -0.0562664 0.0650706 -0.0426021 2650 
987 1 -0.00383389 0.0581568 0.0025497 0.000175 -0.0264761 0.0565284 -0.00520713 2650 
1286 1 -0.007072 0.000129815 0.00450548 0.000175 -0.00798869 -0.000859597 0.0212745 2650 
66 1 -0.006818 0.000120015 0.004587 6.3e-05 0 -0.01175 0 2650 
475 1 -0.00499977 0.00677927 0.004593 0.000984 -0.0117239 -0.00197514 0.0257375 2650 
516 1 -0.0151493 0.00940265 0.00424929 0.000635 -0.0053027 -0.00194459 0.0533257 2650 
735 1 -0.010003 0.00117501 0.004837 6.3e-05 0 -0.01175 0 2650 
629 1 -0.00782832 0.00098632 0.00580874 0.000175 -0.0112281 -0.0112354 0.00689516 2650 
325 1 -0.00509396 0.000254103 0.00572112 0.000175 0.0338939 -0.00223844 0.0323318 2650 
1072 1 -0.0154084 0.0141344 0.00522173 0.000635 0.116453 -0.0752932 0.506324 2650 
876 1 -0.00963673 0.0346912 0.00522609 0.000635 0.0278486 0.0507684 0.0223025 2650 
109 1 -0.0154341 0.0361055 0.00500325 0.000635 0.0813704 -0.10733 0.192713 2650 
1137 1 -0.00794913 0.0363088 0.00597029 0.000635 -0.00616636 0.0349277 0.0225036 2650 
848 1 -0.0151572 0.0401951 0.0058222 0.000635 0.114078 0.00371425 0.270981 2650 
648 1 -0.0145247 0.0431977 0.00488695 0.000635 0.0222707 0.0317417 -0.000691943 2650 
143 1 -0.00446184 0.0635961 0.00558638 0.000635 0.0198463 0.0842189 0.0449735 2650 
162 1 -0.0108862 0.00235853 0.00675886 0.000175 0.0171122 -0.0245787 0.00702236 2650 
1021 1 -0.004268 0.00244301 0.006589 0.000175 0 -0.01175 0 2650 
89 1 -0.0152251 0.0075273 0.00670645 0.000175 0.0547788 -0.0171247 0.126728 2650 
372 1 -0.00899937 0.00850884 0.00614634 6.3e-05 -0.0106514 0.00351897 0.00342164 2650 
51 1 -0.0148374 0.0307029 0.00665402 0.000635 0.158913 0.0287768 0.384302 2650 
466 1 -0.0152538 0.035324 0.00711541 0.000175 0.0653184 0.151264 0.161711 2650 
424 1 -0.00197537 0.0583237 0.00686069 0.000635 0.00793162 0.056283 0.0290702 2650 
1327 1 -0.0076057 0.000181505 0.00819087 0.000175 0.00522404 -0.00917889 -0.00999179 2650 
994 1 -0.003908 0.000416015 0.007631 0.000175 0 -0.01175 0 2650 
492 1 -0.0150829 0.0104456 0.0073358 0.000175 0.0349255 0.0103705 -0.00961825 2650 
557 1 -0.0146515 0.0167184 0.00820723 0.000175 0.101714 0.00456353 0.242899 2650 
380 1 -0.010811 0.0231382 0.00751078 0.000635 -0.0280127 0.0340757 -0.000293059 2650 
1258 1 -0.0136648 0.00638564 0.0094262 0.000175 0.0401839 0.000576747 0.0538906 2650 
830 1 -0.00302658 0.0117036 0.00947004 0.000175 0.0110801 -0.00145444 -0.0104996 2650 
1264 1 -0.0121365 0.0465772 0.0094964 6.3e-05 0.0628124 0.0540357 0.0820083 2650 
649 1 -0.0129896 0.049566 0.00957691 0.000635 0.152469 0.00600966 0.205514 2650 
497 1 -0.0131208 0.00284928 0.0103489 0.000175 0.0324347 0.00545247 0.0454335 2650 
494 1 -0.0109339 0.00433209 0.0104195 0.000175 0.0133477 -0.00149011 0.0570216 2650 
12 1 -0.0129963 0.0121775 0.0097426 0.000635 0.372031 -0.315261 0.5179 2650 
433 1 -0.0122202 0.015673 0.0107959 0.000175 0.339418 -0.345168 0.50489 2650 
120 1 -0.0134217 0.0321111 0.00993854 0.000175 0.292166 -0.0271613 0.393282 2650 
760 1 -0.000724969 0.0369506 0.00980923 0.000175 0.0242505 0.0580212 0.00469443 2650 
172 1 -0.0120185 0.052206 0.0103007 0.000984 0.129254 0.0116152 0.174275 2650 
1193 1 -0.000135 0.00350801 0.010956 0.000175 0 -0.01175 0 2650 
1091 1 -0.00655783 0.0125919 0.0108997 0.000175 0.049669 0.0238687 0.0408834 2650 
1107 1 -0.0110589 0.0249395 0.0117683 0.000635 0.559601 0.157976 0.405295 2650 
1120 1 -0.0125004 0.0293119 0.0112006 0.000175 0.225073 0.00972905 0.303127 2650 
1245 1 -0.0111213 0.0362791 0.0119673 0.000635 0.261321 -0.0347564 0.230647 2650 
5 1 -0.0113248 0.0398927 0.0115572 0.000635 0.209159 0.0365566 0.178752 2650 
1217 1 -0.000855169 0.00398203 0.0121678 0.000175 0.00897486 -0.00429675 0.0177703 2650 
308 1 -0.0080772 0.00957924 0.0124987 0.000984 -0.721049 0.150635 -0.280359 2650 
1242 1 -0.010607 0.0132614 0.012422 0.000635 -0.568206 0.558655 -0.593786 2650 
543 1 -0.00525258 0.0136721 0.0130592 0.000635 0.0239081 0.0397194 0.0645396 2650 
378 1 -0.00997712 0.0186865 0.0125205 0.000984 0.688592 -0.135162 0.603443 2650 
310 1 -0.00885018 0.038307 0.0130763 0.000984 0.151376 0.0795464 0.113057 2650 
488 1 -0.00603433 0.00129363 0.0137669 0.000635 0.0355717 0.000257925 -0.00297877 2650 
1279 1 -0.00420694 0.0141229 0.0136602 0.000635 0.0581405 0.0162453 0.0463146 2650 
113 1 -0.00863764 0.0186127 0.0137675 0.000635 0.0385968 0.0745409 0.0318817 2650 
449 1 -0.00712944 0.0202585 0.0135364 0.000635 0.0599233 0.0800646 0.0331593 2650 
258 1 -0.0100389 0.0341462 0.0134595 0.000175 0.221285 -0.05342 0.193222 2650 
75 1 -0.0060586 0.00105869 0.0150805 0.000635 0.00935824 -0.0111549 0.00368013 2650 
787 1 -0.00425935 0.00225872 0.0153563 0.000175 0.0200536 0.0103534 -0.014875 2650 
705 1 -0.00378705 0.00453654 0.0153531 0.000984 0.0991926 -0.082257 0.0305913 2650 
1266 1 -0.00180144 0.0045406 0.0155637 0.000984 0.118678 0.00806879 0.00385107 2650 
1002 1 -0.00523408 0.00597029 0.0147329 0.000984 -0.0912081 -0.18478 -0.0829125 2650 
1202 1 -0.00498946 0.0115475 0.0150993 0.000984 0.0931738 0.0123657 0.0242897 2650 
846 1 -0.00255002 0.01256 0.0148512 0.000635 -0.0492938 0.438139 -0.158677 2650 
250 1 -0.00541426 0.0133716 0.0153561 0.000635 0.118628 0.0243634 0.0313772 2650 
373 1 -0.0067522 0.0148753 0.0153995 6.3e-05 0.148855 -0.000855553 0.0789493 2650 
697 1 -0.00744242 0.0433434 0.0148596 0.000175 0.0966122 0.0646571 0.0507726 2650 
128 1 -0.00657701 0.0472275 0.0153717 0.000175 0.116925 0.0614647 0.0301682 2650 
164 1 -0.00299824 0.00237488 0.0164765 0.000175 0.114298 -0.0501833 0.00236682 2650 
1308 1 -0.000876843 0.00569104 0.0162572 0.000635 0.083478 0.0122921 0.00889797 2650 
447 1 -0.000920054 0.0115995 0.0160984 0.000635 0.148641 -0.0981959 -0.0139614 2650 
1190 1 -0.0038959 0.0161151 0.0160517 0.000175 0.145693 0.0191373 0.0342277 2650 
707 1 -0.00134047 0.0164402 0.0157818 0.000984 0.17119 -0.0342608 0.00608202 2650 
1290 1 -0.00588076 0.0205712 0.0156962 0.000175 0.381233 -0.0686997 0.0957001 2650 
495 1 -0.00347609 0.0324122 0.0163313 0.000175 -0.0139073 0.0296764 0.0352825 2650 
1093 1 -0.00170995 0.0469966 0.0165862 0.000175 0.1441 0.0563224 0.00652163 2650 
548 1 -0.0626668 0.0722769 0.0273495 0.000635 -0.256975 0.173901 -0.588458 2650 
480 1 -0.0421446 0.0247207 0.0539625 0.000635 164.018 -1.43211 128.037 2650 
960 1 -0.0363885 0.0565425 0.0584188 0.000175 -0.17017 -0.130672 -0.105997 2650 
1036 1 -0.0216965 0.0702902 0.0644627 0.000984 -0.111166 -0.114858 -0.0374156 2650 
1298 1 -0.0304991 0.0764441 -0.0618232 6.3e-05 -0.15746 -0.0933808 0.0780956 2650 
1212 1 -0.0588907 0.0857701 -0.034738 0.000635 -0.103719 -0.0841912 0.17572 2650 
15 1 -0.00861457 0.0764395 -0.0053526 0.000635 -0.0143052 0.0611418 -0.00817867 2650 
572 1 -0.00200919 0.0758533 -0.00474563 6.3e-05 0.00506827 0.0682336 0.0295527 2650 
1085 1 -0.00298801 0.0822268 -0.00253531 0.000175 -0.00118547 0.127164 -0.0553371 2650 
728 1 -0.0121716 0.105062 -0.00336607 0.000175 -0.0401008 0.108387 0.00907622 2650 
598 1 -0.00748912 0.111213 0.000526417 0.000175 0.0115316 0.158943 -0.0302672 2650 
556 1 -0.0176184 0.0823796 0.00556892 0.000635 -2.42673 6.53233 0.0942216 2650 
458 1 -0.0078538 0.0870092 0.0107171 0.000175 -0.0273517 0.0853488 0.0354585 2650 
413 1 -0.0672442 0.0847105 0.0124124 0.000635 -4.1413 -6.88289 -22.4236 2650 
300 1 -0.00744314 0.138504 0.0131637 0.000175 0.00170115 0.148187 0.035275 2650 
1154 1 0.011176 -0.0325726 -0.0679115 0.000175 -4.49553 -3.5419 -0.739691 2650 
284 1 0.0283027 -0.0125184 -0.0622317 0.000635 0.0935849 -0.355529 0.10716 2650 
1269 1 0.0261152 -0.0612724 -0.0610074 0.000635 -295.485 2.772 -43.733 2650 
885 1 0.0225607 -0.0108536 -0.0604517 0.000635 -0.195387 -0.411858 0.787821 2650 
1263 1 0.0322772 -0.00844634 -0.0609138 6.3e-05 -29.0447 5.80093 -15.3903 2650 
1145 1 0.0347683 -0.0217876 -0.0588702 0.000635 -28.4344 1.1056 -16.785 2650 
747 1 0.0363459 -0.00765266 -0.0571052 0.000635 5.53207 -0.345986 -8.70913 2650 
651 1 0.040138 -0.0450746 -0.0553555 0.000635 -35.0018 5.12085 -25.3676 2650 
243 1 0.0409808 -0.016119 -0.0547347 0.000635 -34.4203 8.91306 -25.7588 2650 
1219 1 0.0461079 -0.0162473 -0.051098 0.000175 -17.4248 -5.16118 -15.7202 2650 
1056 1 0.0470215 -0.0434087 -0.0502595 0.000175 -28.6028 1.96244 -26.7556 2650 
547 1 0.0489493 -0.0143379 -0.0477329 0.000635 -11.9348 -5.04548 -12.2311 2650 
11 1 0.0498629 -0.0523352 -0.0467886 0.000635 -26.5092 2.26768 -28.2371 2650 
673 1 0.0519063 -0.00898971 -0.0439752 0.000984 -12.9282 -1.63391 -15.2469 2650 
839 1 0.0546462 -0.0540012 -0.0405442 0.000984 -23.1618 1.8883 -31.196 2650 
1205 1 0.0280459 -0.0066137 -0.0337435 0.000635 4.05959 -0.322299 -4.93979 2650 
916 1 0.0595214 -0.0460741 -0.0336756 0.000635 -27.1987 3.0695 -48.0527 2650 
1025 1 0.0598149 -0.0281376 -0.03405 0.000175 -12.8331 -5.16728 -22.5398 2650 
357 1 0.0600563 -0.0294042 -0.0327123 0.000635 -26.3152 4.93986 -48.2906 2650 
974 1 0.0600534 -0.00824081 -0.0327027 0.000635 -16.9153 0.0787677 -31.0422 2650 
507 1 0.060918 -0.0267617 -0.0303256 0.000984 -17.7942 -0.514387 -35.7203 2650 
1222 1 0.0624421 -0.018859 0.0289534 0.000175 15.6723 -3.02486 -33.7943 2650 
483 1 0.0621698 -0.00628278 -0.0284627 0.000635 -5.21199 3.06621 -11.3765 2650 
913 1 0.0626895 -0.0238637 -0.0273216 0.000635 -17.7807 -9.96301 -40.779 2650 
828 1 0.0648999 -0.0464047 -0.0229203 0.000175 -10.4167 -14.3411 -29.4907 2650 
1201 1 0.00154745 -0.00516484 -0.0195661 0.000984 -0.132923 -0.362841 -1.79697 2650 
1233 1 0.0653903 -0.00450283 -0.0188134 0.000984 -7.28065 0.741355 -25.2864 2650 
411 1 0.0655877 -0.0288327 -0.0181421 0.000984 -10.1873 -0.222694 -36.8038 2650 
1016 1 0.0662765 -0.0100146 -0.0168296 0.000635 -5.83951 -0.308913 -22.9845 2650 
794 1 0.0671562 -0.0425593 -0.0150807 0.000175 -7.09846 -2.11883 -31.6055 2650 
1086 1 0.0678646 -0.00289786 -0.0114786 0.000175 -3.34518 -1.51742 -19.7744 2650 
1176 1 0.0636596 -0.0356188 -0.00965126 0.000635 8.53255 13.7814 -28.78 2650 
1165 1 0.000462377 -0.00304154 -0.00863046 6.3e-05 0.0077224 -0.018109 0.00484478 2650 
249 1 0.0680424 -0.00679468 -0.00681408 0.000635 -3.1259 -3.72054 -31.1987 2650 
352 1 0.0681185 -0.0196996 -0.00602189 0.000635 -3.17333 -0.231742 -35.8792 2650 
539 1 0.010281 -0.000522985 -0.005152 6.3e-05 0 -0.01175 0 2650 
252 1 0.0682047 -0.00296646 -0.0049304 0.000635 -2.21666 -2.03794 -30.6493 2650 
349 1 0.0683023 -0.0302238 -0.00338366 0.000635 -1.81334 -4.27012 -35.5938 2650 
476 1 0.00376894 -0.000696939 -0.00256851 0.000984 -0.0125315 -0.0050449 -0.00746568 2650 
1214 1 0.0683425 -0.0294332 -0.0023692 0.000635 -1.32406 2.82162 -39.0142 2650 
453 1 0.0683068 -0.0191005 -0.00329829 0.000635 -2.06635 9.01788 -42.7811 2650 
508 1 0.0158023 -0.00179393 -0.00122083 0.000984 -0.00170059 -0.0504275 -0.121505 2650 
887 1 0.00384521 -0.000145855 -0.000569931 0.000175 0.0164198 -0.000118868 -0.0295672 2650 
812 1 0.0683797 -0.0054041 0.00029457 0.000635 0.0901526 2.24966 -20.8406 2650 
927 1 0.0114998 -0.0024491 0.00116623 0.000175 -0.0136151 -0.0118633 0.0350291 2650 
558 1 0.0687918 -0.0152477 0.00226047 0.000175 1.13642 4.7178 -34.5791 2650 
943 1 0.0682828 -0.0192074 0.00371941 0.000635 1.93585 -1.50463 -35.5215 2650 
968 1 0.0162959 -0.00799802 0.00361639 6.3e-05 1.70756 -1.22172 -0.469509 2650 
184 1 0.0679861 -0.0178516 0.00735055 0.000635 3.21404 6.62858 -29.7103 2650 
265 1 0.0682994 -0.0201727 0.00851871 0.000175 2.8672 10.0749 -22.9844 2650 
358 1 0.00228748 -0.0030797 0.00877288 0.000175 0.014252 -0.0166909 0.0147668 2650 
304 1 0.002986 -0.00289999 0.008788 6.3e-05 0 -0.01175 0 2650 
725 1 0.005744 -0.00265299 0.00955 0.000175 0 -0.01175 0 2650 
322 1 0.00143634 -0.00181757 0.00926957 0.000635 0.00172092 -0.009436 0.000622015 2650 
1054 1 0.005655 -0.00176099 0.008743 0.000175 0 -0.01175 0 2650 
390 1 0.0677361 -0.0457549 0.00937803 0.000635 4.15336 3.0149 -29.9839 2650 
808 1 0.0677231 -0.0415777 0.00947959 0.000635 4.72386 7.41886 -33.731 2650 
715 1 0.00963661 -0.000601743 0.0119455 0.000635 0.0196813 -0.0178688 -0.0284786 2650 
248 1 0.00951785 -0.00212463 0.0131152 0.000635 0.0854525 -0.0603143 -0.04387 2650 
914 1 0.00842775 -0.000368179 0.0128826 0.000635 0.0780348 -0.0483867 -0.0537024 2650 
37 1 0.0668609 -0.0477115 0.0126727 0.000984 7.12869 0.723306 -37.5844 2650 
861 1 0.00733404 -0.0027531 0.0150955 0.000175 -0.0209675 -0.00243486 -0.0114074 2650 
549 1 0.00410422 -0.000865978 0.0156359 0.000635 0.0510772 -0.0155275 -0.00988852 2650 
307 1 0.0659766 -0.0397145 0.0166737 0.000984 9.4725 -3.02654 -37.4557 2650 
481 1 0.058793 -0.0179974 0.034918 0.000635 19.3611 5.50225 -32.5823 2650 
776 1 0.0581657 -0.0553025 0.0359556 0.000635 22.1911 2.52678 -35.8817 2650 
981 1 0.0563035 -0.0347528 0.0387975 0.000635 16.2236 -2.51183 -23.5315 2650 
881 1 0.0563787 -0.0237583 0.0386837 0.000635 10.9248 -10.8744 -15.91 2650 
767 1 0.0545091 -0.0491422 0.0420251 0.000175 41.4692 1.95018 -53.7805 2650 
716 1 0.0517917 -0.0603142 0.0446431 0.000635 23.2461 -19.4518 -26.9549 2650 
150 1 0.0523102 -0.031935 0.0440354 0.000635 23.6324 -4.99801 -28.0588 2650 
672 1 0.0504895 -0.0249729 0.0456098 0.000984 24.6463 3.12395 -27.2636 2650 
31 1 0.0507767 -0.0271076 0.0464633 0.000175 26.361 1.3498 -28.8032 2650 
1313 1 0.0489867 -0.0151631 0.0476897 0.000635 21.8072 -0.912535 -22.6189 2650 
430 1 0.0488117 -0.0149004 0.0484553 0.000175 14.5485 2.06585 -22.5932 2650 
70 1 0.0451651 -0.00790759 0.0508739 0.000984 19.7405 -1.89017 -17.5115 2650 
654 1 0.0446434 -0.0497528 0.0517875 0.000635 25.9538 3.03794 -22.3621 2650 
645 1 0.0443341 -0.00894166 0.0520604 0.000635 37.9401 -3.51277 -32.2948 2650 
1007 1 0.0434743 -0.0343036 0.052781 0.000635 39.6248 -6.7479 -32.6233 2650 
928 1 0.0398665 -0.0404702 0.0561035 0.000175 31.5864 0.15867 -22.442 2650 
1069 1 0.0348288 -0.00940985 0.0584331 0.000984 23.2426 0.0809137 -13.8436 2650 
104 1 0.0334339 -0.0400926 0.0592579 0.000984 38.8269 5.5063 -21.892 2650 
579 1 0.0328016 -0.0421723 0.0600013 0.000635 53.6063 -7.08389 -29.2933 2650 
618 1 0.0314356 -0.0349702 0.0607137 0.000635 28.1335 -1.43356 -14.5599 2650 
106 1 0.0316586 -0.0246029 0.0602048 0.000984 19.9705 -3.48611 -10.495 2650 
391 1 0.0134815 -0.0483254 0.0618299 0.000635 0.159384 -0.552879 -1.65487 2650 
1228 1 0.0297026 -0.0558187 0.0620858 0.000175 32.3806 5.56123 -15.491 2650 
375 1 0.0242553 -0.00587464 0.0635463 0.000984 18.8422 -1.78877 -7.26694 2650 
151 1 0.0206141 -0.0250757 0.0651895 0.000635 39.2513 6.36921 -12.4066 2650 
582 1 0.0204599 -0.0188149 0.0652455 0.000635 54.5961 3.35511 -17.1132 2650 
1053 1 0.0219508 -0.0114394 0.0652307 0.000175 26.4806 -1.28801 -8.911 2650 
1088 1 0.0211099 -0.000680775 0.0655079 0.000175 49.8067 0.928559 -16.0493 2650 
232 1 0.021181 -0.0496916 0.0654867 0.000175 79.7368 -0.922147 -25.7869 2650 
1194 1 0.0193398 -0.0303864 0.0660519 0.000175 26.6117 5.09466 -7.79181 2650 
583 1 0.0139678 -0.0135255 0.0669287 0.000635 41.008 4.87368 -8.55465 2650 
213 1 0.018527 -0.0106305 0.065812 0.000635 37.993 0.984162 -10.6911 2650 
895 1 0.0114703 -0.0610349 0.0673253 0.000175 26.3284 2.6168 -4.6856 2650 
487 1 0.0109476 -0.0427806 0.0674866 0.000635 37.1268 -2.17688 -6.02036 2650 
607 1 0.00737112 -0.0176133 0.0675907 0.000984 12.3398 0.529058 -1.78112 2650 
762 1 0.0561858 0.0647815 -0.0397523 0.000175 -1.06401 -0.600109 -1.50357 2650 
882 1 0.0655555 0.0534525 -0.0195432 0.000635 -26.4358 1.51487 -88.6438 2650 
985 1 0.00167345 0.0094516 -0.0165822 0.000175 -0.123582 0.00563937 -0.00522473 2650 
900 1 0.000869225 0.0225428 -0.0167465 6.3e-05 -0.296703 -0.0115452 -0.0116705 2650 
445 1 0.00360909 0.0414207 -0.015763 0.000635 -0.267656 0.0197535 -0.0691078 2650 
1167 1 0.00237304 0.00523255 -0.0153463 0.000984 -0.0837512 -0.00462261 -0.0165052 2650 
797 1 0.00636813 0.00621249 -0.0154345 0.000175 -0.145117 -0.0331783 -0.0776364 2650 
1059 1 0.0077298 0.010043 -0.014729 0.000175 -0.114326 0.0195087 -0.0614965 2650 
820 1 0.0076232 0.0127349 -0.0146691 0.000175 -0.0895642 -0.0661115 -0.0398301 2650 