LIGGGHTS (Version LIGGGHTS-PUBLIC 3.8.0, compiled 2022-11-07-16:55:38 by serperd1, git commit 86544c3f1215bc9744d7929e3eacf53ba086af9e)
units si #
dimension 3 #
newton off #
boundary f f f #
atom_style sphere #
pair_style gran model hertz tangential history #
communicate single vel yes #
region outer_basket cylinder y 0 0 0.15 -0.15 0.15 #
create_box 3 outer_basket #
Created orthogonal box = (-0.15 -0.15 -0.15) to (0.15 0.15 0.15)
  2 by 4 by 5 MPI processor grid
variable my_omega equal 157.0796 #
fix cone_mesh all mesh/surface file cone.stl type 3 scale 1 #
fix rotating_wall_1 all move/mesh mesh cone_mesh rotate/variable origin 0 0 0 axis 0 1 0 omega v_my_omega #
fix filter_mesh_walls all wall/gran model hertz tangential history primitive type 2 ycylinder_filtermesh 0.069 0 0 2 12 -0.0628 0 0.019061 0.016566 0.044061 0.041566 shear x 10.8385 #

fix inlet_cyl_wall_mesh all mesh/surface file in_cyl.stl type 3 scale 1 #
fix top_cyl_wall_mesh all mesh/surface file top_cyl.stl type 3 scale 1 #
fix rotating_wall_4 all move/mesh mesh top_cyl_wall_mesh rotate/variable origin 0 0 0 axis 0 1 0 omega v_my_omega #
fix bot_cyl_wall_mesh all mesh/surface file bot_cyl.stl type 3 scale 1 #
fix rotating_wall_5 all move/mesh mesh bot_cyl_wall_mesh rotate/variable origin 0 0 0 axis 0 1 0 omega v_my_omega #
fix bot_disk_wall_mesh all mesh/surface file bottom_disk.stl type 3 scale 1 #
fix rotating_wall_6 all move/mesh mesh bot_disk_wall_mesh rotate/variable origin 0 0 0 axis 0 1 0 omega v_my_omega #
fix top_disk_wall_mesh all mesh/surface file top_disk.stl type 3 scale 1 #
fix rotating_wall_7 all move/mesh mesh top_disk_wall_mesh rotate/variable origin 0 0 0 axis 0 1 0 omega v_my_omega #
fix GMSH_mesh_walls all wall/gran model hertz tangential history mesh n_meshes 6 meshes cone_mesh top_cyl_wall_mesh bot_cyl_wall_mesh bot_disk_wall_mesh inlet_cyl_wall_mesh top_disk_wall_mesh #
fix Young_mod all property/global youngsModulus peratomtype 375000000 46000000 1000000000 #
fix Poisson_rat all property/global poissonsRatio peratomtype 0.32 0.42 0.29 #
fix Coeff_rest all property/global coefficientRestitution peratomtypepair 3 0.15 0.32 0.475 0.32 0.49 0.645 0.475 0.645 0.8 #
fix Coeff_fric all property/global coefficientFriction peratomtypepair 3 0.04 0.145 0.12 0.145 0.25 0.225 0.12 0.225 0.2 #

neighbor 0.00039366 bin #
neigh_modify delay 0 one 100000 page 5000000 #
fix r_0to10p all particletemplate/sphere 12345787 atom_type 1 density constant 2650 radius constant 6.3e-05 #
fix r_10to50p all particletemplate/sphere 15485863 atom_type 1 density constant 2650 radius constant 0.0001746 #
fix r_50to90p all particletemplate/sphere 15485867 atom_type 1 density constant 2650 radius constant 0.00063495 #
fix r_90to100p all particletemplate/sphere 32452843 atom_type 1 density constant 2650 radius constant 0.00098415 #
fix prob_par all particledistribution/discrete 32452867 4 r_0to10p 0.1 r_10to50p 0.4 r_50to90p 0.4 r_90to100p 0.1 #
pair_coeff * * #
timestep 4.86e-08 #

fix nve_group all nve/sphere #
fix grav_fix all gravity 6.1081 vector 0.017 -0.0033 0 -1 0 #
fix cent_fix all centrifugal 157.0796 0.017 -0.0033 0.069 #

variable step equal step #
variable mycount equal count(all) #
fix print_amount_of_atoms all print 25 "${step} ${mycount}" file numatoms.txt screen no #
run 0 #
Setting up run at Sat Dec 24 20:33:29 2022

Memory usage per processor = 955.842 Mbytes
    Step    Atoms         KinEng            CPU 
       0        0              0              0 
Loop time of 5.66697e-05 on 40 procs for 0 steps with 0 atoms, finish time Sat Dec 24 20:33:29 2022


Pair  time (%) = 0 (0)
Neigh time (%) = 0 (0)
Comm  time (%) = 0 (0)
Outpt time (%) = 0 (0)
Other time (%) = 5.66697e-05 (100)

Nlocal:    0 ave 0 max 0 min
Histogram: 40 0 0 0 0 0 0 0 0 0
Nghost:    0 ave 0 max 0 min
Histogram: 40 0 0 0 0 0 0 0 0 0
Neighs:    0 ave 0 max 0 min
Histogram: 40 0 0 0 0 0 0 0 0 0

Total # of neighbors = 0
Neighbor list builds = 0
Dangerous builds = 0
run 1 #
Setting up run at Sat Dec 24 20:33:29 2022

Memory usage per processor = 955.842 Mbytes
    Step    Atoms         KinEng            CPU 
       0        0              0              0 
       1        0              0    0.009669374 
Loop time of 0.00969566 on 40 procs for 1 steps with 0 atoms, finish time Sat Dec 24 20:33:29 2022


Pair  time (%) = 2.15233e-06 (0.0221989)
Neigh time (%) = 0 (0)
Comm  time (%) = 0.000192275 (1.9831)
Outpt time (%) = 7.89406e-05 (0.814185)
Other time (%) = 0.00942229 (97.1805)

Nlocal:    0 ave 0 max 0 min
Histogram: 40 0 0 0 0 0 0 0 0 0
Nghost:    0 ave 0 max 0 min
Histogram: 40 0 0 0 0 0 0 0 0 0
Neighs:    0 ave 0 max 0 min
Histogram: 40 0 0 0 0 0 0 0 0 0

Total # of neighbors = 0
Neighbor list builds = 0
Dangerous builds = 0
read_dump dump.atom_info_1 1 x y z radius vx vy vz box no add yes replace no #
  orthogonal box = (-0.15 -0.15 -0.15) to (0.15 0.15 0.15)
  0 atoms before read
  1331 atoms in snapshot
  0 atoms purged
  0 atoms replaced
  0 atoms trimmed
  1331 atoms added
  1331 atoms after read
set atom * type 1 density 2650 vy -0.01175 #
  1331 settings made for type
  1331 settings made for density
  1331 settings made for vy
run 1 #
Setting up run at Sat Dec 24 20:33:29 2022

Memory usage per processor = 960.195 Mbytes
    Step    Atoms         KinEng            CPU 
       1     1331    2.04396e-07              0 
       2     1331  2.5455856e-07    0.009265488 
Loop time of 0.00927739 on 40 procs for 1 steps with 1331 atoms, finish time Sat Dec 24 20:33:29 2022


Pair  time (%) = 2.57405e-06 (0.0277454)
Neigh time (%) = 0 (0)
Comm  time (%) = 6.21155e-06 (0.0669536)
Outpt time (%) = 0.000174762 (1.88375)
Other time (%) = 0.00909384 (98.0216)

Nlocal:    33.275 ave 555 max 0 min
Histogram: 36 0 2 0 0 0 0 0 0 2
Nghost:    13.575 ave 173 max 0 min
Histogram: 36 0 0 0 0 1 1 0 0 2
Neighs:    10.175 ave 168 max 0 min
Histogram: 36 0 2 0 0 0 0 0 0 2

Total # of neighbors = 407
Ave neighs/atom = 0.305785
Neighbor list builds = 0
Dangerous builds = 0
write_dump all custom dump.atom_info_ac_* id type x y z radius vx vy vz density #
run 205761
Setting up run at Sat Dec 24 20:33:29 2022

Memory usage per processor = 960.195 Mbytes
    Step    Atoms         KinEng            CPU 
       2     1331  2.5455856e-07              0 
  205763     1331  6.9273694e-05      2109.4102 
Loop time of 2109.41 on 40 procs for 205761 steps with 1331 atoms, finish time Sat Dec 24 21:08:39 2022


Pair  time (%) = 0.48604 (0.0230415)
Neigh time (%) = 0.41965 (0.0198942)
Comm  time (%) = 1.14677 (0.0543646)
Outpt time (%) = 0.00020962 (9.93736e-06)
Other time (%) = 2107.36 (99.9027)

Nlocal:    33.275 ave 551 max 0 min
Histogram: 36 0 2 0 0 0 0 0 0 2
Nghost:    13.8 ave 171 max 0 min
Histogram: 36 0 0 0 0 1 1 0 0 2
Neighs:    11.175 ave 191 max 0 min
Histogram: 36 1 1 0 0 0 0 0 1 1

Total # of neighbors = 447
Ave neighs/atom = 0.335838
Neighbor list builds = 550
Dangerous builds = 0
write_dump all custom dump.atom_info_ac_* id type x y z radius vx vy vz density #
run 205761
Setting up run at Sat Dec 24 21:08:39 2022

Memory usage per processor = 960.195 Mbytes
    Step    Atoms         KinEng            CPU 
  205763     1331  6.9273694e-05              0 
  411524     1331  0.00040217614      2108.7608 
Loop time of 2108.76 on 40 procs for 205761 steps with 1331 atoms, finish time Sat Dec 24 21:43:48 2022


Pair  time (%) = 0.492451 (0.0233526)
Neigh time (%) = 0.418934 (0.0198664)
Comm  time (%) = 1.21446 (0.0575913)
Outpt time (%) = 0.000515859 (2.44627e-05)
Other time (%) = 2106.63 (99.8992)

Nlocal:    33.275 ave 538 max 0 min
Histogram: 36 0 2 0 0 0 0 0 0 2
Nghost:    13.625 ave 169 max 0 min
Histogram: 36 0 0 0 0 1 1 0 0 2
Neighs:    11.725 ave 197 max 0 min
Histogram: 36 1 1 0 0 0 0 0 0 2

Total # of neighbors = 469
Ave neighs/atom = 0.352367
Neighbor list builds = 550
Dangerous builds = 0
write_dump all custom dump.atom_info_ac_* id type x y z radius vx vy vz density #
run 205761
Setting up run at Sat Dec 24 21:43:48 2022

Memory usage per processor = 960.195 Mbytes
    Step    Atoms         KinEng            CPU 
  411524     1331  0.00040217614              0 
  617285     1331  0.00067128357      2086.1648 
Loop time of 2086.16 on 40 procs for 205761 steps with 1331 atoms, finish time Sat Dec 24 22:18:34 2022


Pair  time (%) = 0.491999 (0.0235839)
Neigh time (%) = 0.421386 (0.0201991)
Comm  time (%) = 1.22142 (0.0585487)
Outpt time (%) = 0.000194035 (9.30103e-06)
Other time (%) = 2084.03 (99.8977)

Nlocal:    33.275 ave 522 max 0 min
Histogram: 36 0 2 0 0 0 0 0 0 2
Nghost:    13.05 ave 158 max 0 min
Histogram: 36 0 0 0 0 0 1 1 0 2
Neighs:    11.9 ave 190 max 0 min
Histogram: 36 0 2 0 0 0 0 0 0 2

Total # of neighbors = 476
Ave neighs/atom = 0.357626
Neighbor list builds = 550
Dangerous builds = 0
write_dump all custom dump.atom_info_ac_* id type x y z radius vx vy vz density #
run 205761
Setting up run at Sat Dec 24 22:18:34 2022

Memory usage per processor = 960.195 Mbytes
    Step    Atoms         KinEng            CPU 
  617285     1331  0.00067128357              0 
  823046     1331     0.12207246      2083.2281 
Loop time of 2083.23 on 40 procs for 205761 steps with 1331 atoms, finish time Sat Dec 24 22:53:17 2022


Pair  time (%) = 0.501312 (0.0240642)
Neigh time (%) = 2.89292 (0.138867)
Comm  time (%) = 3.1693 (0.152134)
Outpt time (%) = 0.000537814 (2.58164e-05)
Other time (%) = 2076.66 (99.6849)

Nlocal:    33.275 ave 512 max 0 min
Histogram: 36 0 1 1 0 0 0 0 0 2
Nghost:    12.95 ave 161 max 0 min
Histogram: 36 0 0 0 0 1 1 0 0 2
Neighs:    12.575 ave 203 max 0 min
Histogram: 36 0 2 0 0 0 0 0 0 2

Total # of neighbors = 503
Ave neighs/atom = 0.377911
Neighbor list builds = 3561
Dangerous builds = 0
write_dump all custom dump.atom_info_ac_* id type x y z radius vx vy vz density #
run 205761
Setting up run at Sat Dec 24 22:53:17 2022

Memory usage per processor = 960.195 Mbytes
    Step    Atoms         KinEng            CPU 
  823046     1331     0.12207246              0 
 1028807     1331    0.037846525      2098.9679 
Loop time of 2098.97 on 40 procs for 205761 steps with 1331 atoms, finish time Sat Dec 24 23:28:16 2022


Pair  time (%) = 0.51304 (0.0244425)
Neigh time (%) = 5.39675 (0.257114)
Comm  time (%) = 4.98277 (0.237391)
Outpt time (%) = 0.000255027 (1.21501e-05)
Other time (%) = 2088.08 (99.481)

Nlocal:    33.275 ave 498 max 0 min
Histogram: 36 0 1 1 0 0 0 0 0 2
Nghost:    12.275 ave 159 max 0 min
Histogram: 36 0 0 0 0 1 1 0 0 2
Neighs:    12.65 ave 194 max 0 min
Histogram: 36 0 1 1 0 0 0 0 0 2

Total # of neighbors = 506
Ave neighs/atom = 0.380165
Neighbor list builds = 6608
Dangerous builds = 0
write_dump all custom dump.atom_info_ac_* id type x y z radius vx vy vz density #
run 205761
Setting up run at Sat Dec 24 23:28:16 2022

Memory usage per processor = 960.195 Mbytes
    Step    Atoms         KinEng            CPU 
 1028807     1331    0.037846525              0 
 1234568     1331    0.040422925      2088.3681 
Loop time of 2088.37 on 40 procs for 205761 steps with 1331 atoms, finish time Sun Dec 25 00:03:05 2022


Pair  time (%) = 0.506672 (0.0242616)
Neigh time (%) = 3.55869 (0.170405)
Comm  time (%) = 4.18807 (0.200543)
Outpt time (%) = 0.000631461 (3.02371e-05)
Other time (%) = 2080.11 (99.6048)

Nlocal:    33.275 ave 496 max 0 min
Histogram: 36 0 1 1 0 0 0 0 0 2
Nghost:    11.725 ave 156 max 0 min
Histogram: 36 0 0 0 0 2 0 0 1 1
Neighs:    11.875 ave 183 max 0 min
Histogram: 36 0 1 1 0 0 0 0 0 2

Total # of neighbors = 475
Ave neighs/atom = 0.356875
Neighbor list builds = 4345
Dangerous builds = 0
write_dump all custom dump.atom_info_ac_* id type x y z radius vx vy vz density #
run 205761
Setting up run at Sun Dec 25 00:03:05 2022

Memory usage per processor = 960.195 Mbytes
    Step    Atoms         KinEng            CPU 
 1234568     1331    0.040422925              0 
 1440329     1329      0.2688221      2104.8752 
Loop time of 2104.88 on 40 procs for 205761 steps with 1329 atoms, finish time Sun Dec 25 00:38:10 2022


Pair  time (%) = 0.511747 (0.0243125)
Neigh time (%) = 6.11662 (0.290593)
Comm  time (%) = 6.62603 (0.314794)
Outpt time (%) = 0.000218716 (1.03909e-05)
Other time (%) = 2091.62 (99.3703)

Nlocal:    33.225 ave 490 max 0 min
Histogram: 36 0 1 1 0 0 0 0 0 2
Nghost:    11.05 ave 140 max 0 min
Histogram: 36 0 0 0 0 1 1 0 0 2
Neighs:    11.925 ave 180 max 0 min
Histogram: 36 0 0 1 1 0 0 0 0 2

Total # of neighbors = 477
Ave neighs/atom = 0.358916
Neighbor list builds = 7439
Dangerous builds = 3
write_dump all custom dump.atom_info_ac_* id type x y z radius vx vy vz density #
run 205761
Setting up run at Sun Dec 25 00:38:10 2022

Memory usage per processor = 960.195 Mbytes
    Step    Atoms         KinEng            CPU 
 1440329     1329      0.2688221              0 
 1646090     1328     0.25014218      2140.6722 
Loop time of 2140.67 on 40 procs for 205761 steps with 1328 atoms, finish time Sun Dec 25 01:13:50 2022


Pair  time (%) = 0.517837 (0.0241904)
Neigh time (%) = 8.46626 (0.395495)
Comm  time (%) = 6.71162 (0.313528)
Outpt time (%) = 0.000572833 (2.67595e-05)
Other time (%) = 2124.98 (99.2668)

Nlocal:    33.2 ave 487 max 0 min
Histogram: 36 0 1 1 0 0 0 0 0 2
Nghost:    10.675 ave 135 max 0 min
Histogram: 36 0 0 0 0 2 0 0 0 2
Neighs:    11.7 ave 178 max 0 min
Histogram: 36 0 0 2 0 0 0 0 0 2

Total # of neighbors = 468
Ave neighs/atom = 0.35241
Neighbor list builds = 10254
Dangerous builds = 1
write_dump all custom dump.atom_info_ac_* id type x y z radius vx vy vz density #
run 205761
Setting up run at Sun Dec 25 01:13:50 2022

Memory usage per processor = 960.195 Mbytes
    Step    Atoms         KinEng            CPU 
 1646090     1328     0.25014218              0 
 1851851     1324     0.16264444      2122.3114 
Loop time of 2122.31 on 40 procs for 205761 steps with 1324 atoms, finish time Sun Dec 25 01:49:13 2022


Pair  time (%) = 0.518072 (0.0244107)
Neigh time (%) = 8.31356 (0.391722)
Comm  time (%) = 7.36519 (0.347036)
Outpt time (%) = 0.000295384 (1.3918e-05)
Other time (%) = 2106.11 (99.2368)

Nlocal:    33.1 ave 485 max 0 min
Histogram: 36 0 1 1 0 0 0 0 0 2
Nghost:    10.5 ave 139 max 0 min
Histogram: 36 0 0 0 0 2 0 0 1 1
Neighs:    11.675 ave 178 max 0 min
Histogram: 36 0 0 2 0 0 0 0 0 2

Total # of neighbors = 467
Ave neighs/atom = 0.352719
Neighbor list builds = 10052
Dangerous builds = 13
write_dump all custom dump.atom_info_ac_* id type x y z radius vx vy vz density #
run 205761
Setting up run at Sun Dec 25 01:49:13 2022

Memory usage per processor = 960.195 Mbytes
    Step    Atoms         KinEng            CPU 
 1851851     1324     0.16264444              0 
 2057612     1321       0.124433      2101.6515 
Loop time of 2101.65 on 40 procs for 205761 steps with 1321 atoms, finish time Sun Dec 25 02:24:14 2022


Pair  time (%) = 0.51089 (0.024309)
Neigh time (%) = 6.12542 (0.291458)
Comm  time (%) = 7.60202 (0.361716)
Outpt time (%) = 0.000452298 (2.15211e-05)
Other time (%) = 2087.41 (99.3225)

Nlocal:    33.025 ave 480 max 0 min
Histogram: 36 0 2 0 0 0 0 0 0 2
Nghost:    10.35 ave 137 max 0 min
Histogram: 36 0 0 0 0 1 1 0 1 1
Neighs:    11.225 ave 176 max 0 min
Histogram: 36 0 0 2 0 0 0 0 0 2

Total # of neighbors = 449
Ave neighs/atom = 0.339894
Neighbor list builds = 7414
Dangerous builds = 278
write_dump all custom dump.atom_info_ac_* id type x y z radius vx vy vz density #
run 205761
Setting up run at Sun Dec 25 02:24:15 2022

Memory usage per processor = 960.195 Mbytes
    Step    Atoms         KinEng            CPU 
 2057612     1321       0.124433              0 
 2263373     1313    0.095672817      2124.4914 
Loop time of 2124.49 on 40 procs for 205761 steps with 1313 atoms, finish time Sun Dec 25 02:59:39 2022


Pair  time (%) = 0.516552 (0.0243142)
Neigh time (%) = 6.88996 (0.324311)
Comm  time (%) = 9.01013 (0.424108)
Outpt time (%) = 0.000233162 (1.0975e-05)
Other time (%) = 2108.07 (99.2273)

Nlocal:    32.825 ave 477 max 0 min
Histogram: 36 0 2 0 0 0 0 0 0 2
Nghost:    10.025 ave 125 max 0 min
Histogram: 36 0 0 0 0 0 2 0 0 2
Neighs:    10.7 ave 170 max 0 min
Histogram: 36 0 1 1 0 0 0 0 0 2

Total # of neighbors = 428
Ave neighs/atom = 0.325971
Neighbor list builds = 8357
Dangerous builds = 479
write_dump all custom dump.atom_info_ac_* id type x y z radius vx vy vz density #
run 205761
Setting up run at Sun Dec 25 02:59:39 2022

Memory usage per processor = 960.195 Mbytes
    Step    Atoms         KinEng            CPU 
 2263373     1313    0.095672817              0 
 2469134     1308     0.13509254      2129.9634 
Loop time of 2129.96 on 40 procs for 205761 steps with 1308 atoms, finish time Sun Dec 25 03:35:09 2022


Pair  time (%) = 0.516858 (0.0242661)
Neigh time (%) = 9.14583 (0.429389)
Comm  time (%) = 12.578 (0.590527)
Outpt time (%) = 0.000539903 (2.5348e-05)
Other time (%) = 2107.72 (98.9558)

Nlocal:    32.7 ave 480 max 0 min
Histogram: 36 0 2 0 0 0 0 0 0 2
Nghost:    9.6 ave 123 max 0 min
Histogram: 36 0 0 0 0 1 1 0 1 1
Neighs:    10.85 ave 176 max 0 min
Histogram: 36 0 2 0 0 0 0 0 0 2

Total # of neighbors = 434
Ave neighs/atom = 0.331804
Neighbor list builds = 11091
Dangerous builds = 117
write_dump all custom dump.atom_info_ac_* id type x y z radius vx vy vz density #
run 205761
Setting up run at Sun Dec 25 03:35:09 2022

Memory usage per processor = 960.195 Mbytes
    Step    Atoms         KinEng            CPU 
 2469134     1308     0.13509254              0 
 2674895     1296     0.18063106      2133.2564 
Loop time of 2133.26 on 40 procs for 205761 steps with 1296 atoms, finish time Sun Dec 25 04:10:42 2022


Pair  time (%) = 0.523274 (0.0245293)
Neigh time (%) = 9.28805 (0.435393)
Comm  time (%) = 11.0949 (0.520092)
Outpt time (%) = 0.000607389 (2.84724e-05)
Other time (%) = 2112.35 (99.02)

Nlocal:    32.4 ave 481 max 0 min
Histogram: 36 0 2 0 0 0 0 0 0 2
Nghost:    9.4 ave 115 max 0 min
Histogram: 36 0 0 0 0 0 2 0 1 1
Neighs:    10.7 ave 179 max 0 min
Histogram: 36 1 1 0 0 0 0 0 1 1

Total # of neighbors = 428
Ave neighs/atom = 0.330247
Neighbor list builds = 11278
Dangerous builds = 1003
write_dump all custom dump.atom_info_ac_* id type x y z radius vx vy vz density #
run 205761
Setting up run at Sun Dec 25 04:10:42 2022

Memory usage per processor = 960.195 Mbytes
    Step    Atoms         KinEng            CPU 
 2674895     1296     0.18063106              0 
 2880656     1290     0.18641219      2122.0144 
Loop time of 2122.01 on 40 procs for 205761 steps with 1290 atoms, finish time Sun Dec 25 04:46:05 2022


Pair  time (%) = 0.50318 (0.0237124)
Neigh time (%) = 6.39297 (0.301269)
Comm  time (%) = 8.16248 (0.384657)
Outpt time (%) = 0.000277466 (1.30756e-05)
Other time (%) = 2106.96 (99.2903)

Nlocal:    32.25 ave 481 max 0 min
Histogram: 36 0 2 0 0 0 0 0 0 2
Nghost:    9.325 ave 118 max 0 min
Histogram: 36 0 0 0 0 0 2 0 1 1
Neighs:    10.125 ave 169 max 0 min
Histogram: 36 1 1 0 0 0 0 0 0 2

Total # of neighbors = 405
Ave neighs/atom = 0.313953
Neighbor list builds = 7695
Dangerous builds = 420
write_dump all custom dump.atom_info_ac_* id type x y z radius vx vy vz density #
run 205761
Setting up run at Sun Dec 25 04:46:05 2022

Memory usage per processor = 960.195 Mbytes
    Step    Atoms         KinEng            CPU 
 2880656     1290     0.18641219              0 
 3086417     1287     0.14022248      2137.7618 
Loop time of 2137.76 on 40 procs for 205761 steps with 1287 atoms, finish time Sun Dec 25 05:21:42 2022


Pair  time (%) = 0.506927 (0.023713)
Neigh time (%) = 9.0875 (0.425094)
Comm  time (%) = 13.217 (0.618264)
Outpt time (%) = 0.000608032 (2.84424e-05)
Other time (%) = 2114.95 (98.9329)

Nlocal:    32.175 ave 483 max 0 min
Histogram: 36 0 2 0 0 0 0 0 0 2
Nghost:    9.475 ave 122 max 0 min
Histogram: 36 0 0 0 0 1 1 1 0 1
Neighs:    9.45 ave 164 max 0 min
Histogram: 36 1 1 0 0 0 0 0 0 2

Total # of neighbors = 378
Ave neighs/atom = 0.293706
Neighbor list builds = 11086
Dangerous builds = 3479
write_dump all custom dump.atom_info_ac_* id type x y z radius vx vy vz density #
run 205761
Setting up run at Sun Dec 25 05:21:42 2022

Memory usage per processor = 960.195 Mbytes
    Step    Atoms         KinEng            CPU 
 3086417     1287     0.14022248              0 
 3292178     1280     0.23763409      2138.8412 
Loop time of 2138.84 on 40 procs for 205761 steps with 1280 atoms, finish time Sun Dec 25 05:57:21 2022


Pair  time (%) = 0.513696 (0.0240175)
Neigh time (%) = 10.1511 (0.474607)
Comm  time (%) = 12.1902 (0.569944)
Outpt time (%) = 0.000267917 (1.25263e-05)
Other time (%) = 2115.99 (98.9314)

Nlocal:    32 ave 484 max 0 min
Histogram: 36 0 2 0 0 0 0 0 0 2
Nghost:    9.025 ave 118 max 0 min
Histogram: 36 0 0 0 0 0 2 1 0 1
Neighs:    9.75 ave 166 max 0 min
Histogram: 37 0 1 0 0 0 0 0 0 2

Total # of neighbors = 390
Ave neighs/atom = 0.304688
Neighbor list builds = 12229
Dangerous builds = 1448
write_dump all custom dump.atom_info_ac_* id type x y z radius vx vy vz density #
run 205761
Setting up run at Sun Dec 25 05:57:21 2022

Memory usage per processor = 960.195 Mbytes
    Step    Atoms         KinEng            CPU 
 3292178     1280     0.23763409              0 
 3497939     1268     0.40269411      2139.7718 
Loop time of 2139.77 on 40 procs for 205761 steps with 1268 atoms, finish time Sun Dec 25 06:33:01 2022


Pair  time (%) = 0.50156 (0.0234399)
Neigh time (%) = 9.33111 (0.43608)
Comm  time (%) = 12.8635 (0.601161)
Outpt time (%) = 0.000547397 (2.5582e-05)
Other time (%) = 2117.08 (98.9393)

Nlocal:    31.7 ave 473 max 0 min
Histogram: 36 0 2 0 0 0 0 0 0 2
Nghost:    8.875 ave 111 max 0 min
Histogram: 36 0 0 0 0 0 2 0 1 1
Neighs:    9.125 ave 162 max 0 min
Histogram: 37 1 0 0 0 0 0 0 0 2

Total # of neighbors = 365
Ave neighs/atom = 0.287855
Neighbor list builds = 11177
Dangerous builds = 247
write_dump all custom dump.atom_info_ac_* id type x y z radius vx vy vz density #
run 205761
Setting up run at Sun Dec 25 06:33:01 2022

Memory usage per processor = 960.195 Mbytes
    Step    Atoms         KinEng            CPU 
 3497939     1268     0.40269411              0 
 3703700     1264     0.33739704      2146.6589 
Loop time of 2146.66 on 40 procs for 205761 steps with 1264 atoms, finish time Sun Dec 25 07:08:48 2022


Pair  time (%) = 0.498124 (0.0232046)
Neigh time (%) = 8.0877 (0.376758)
Comm  time (%) = 10.838 (0.504878)
Outpt time (%) = 0.000127835 (5.95508e-06)
Other time (%) = 2127.23 (99.0952)

Nlocal:    31.6 ave 465 max 0 min
Histogram: 36 0 2 0 0 0 0 0 0 2
Nghost:    8.45 ave 109 max 0 min
Histogram: 36 0 0 0 0 1 1 0 1 1
Neighs:    9.05 ave 157 max 0 min
Histogram: 36 2 0 0 0 0 0 0 0 2

Total # of neighbors = 362
Ave neighs/atom = 0.286392
Neighbor list builds = 9704
Dangerous builds = 438
write_dump all custom dump.atom_info_ac_* id type x y z radius vx vy vz density #
run 205761
Setting up run at Sun Dec 25 07:08:48 2022

Memory usage per processor = 960.195 Mbytes
    Step    Atoms         KinEng            CPU 
 3703700     1264     0.33739704              0 
 3909461     1259     0.28851809      2138.4362 
Loop time of 2138.44 on 40 procs for 205761 steps with 1259 atoms, finish time Sun Dec 25 07:44:26 2022


Pair  time (%) = 0.49885 (0.0233278)
Neigh time (%) = 9.29441 (0.434636)
Comm  time (%) = 13.6657 (0.639053)
Outpt time (%) = 0.000514256 (2.40482e-05)
Other time (%) = 2114.98 (98.903)

Nlocal:    31.475 ave 463 max 0 min
Histogram: 36 0 2 0 0 0 0 0 0 2
Nghost:    8.275 ave 105 max 0 min
Histogram: 36 0 0 0 0 0 2 1 0 1
Neighs:    9.025 ave 155 max 0 min
Histogram: 36 2 0 0 0 0 0 0 0 2

Total # of neighbors = 361
Ave neighs/atom = 0.286736
Neighbor list builds = 11186
Dangerous builds = 725
write_dump all custom dump.atom_info_ac_* id type x y z radius vx vy vz density #
run 205761
Setting up run at Sun Dec 25 07:44:26 2022

Memory usage per processor = 960.195 Mbytes
    Step    Atoms         KinEng            CPU 
 3909461     1259     0.28851809              0 
 4115222     1250     0.38415377      2139.6022 
Loop time of 2139.6 on 40 procs for 205761 steps with 1250 atoms, finish time Sun Dec 25 08:20:06 2022


Pair  time (%) = 0.503734 (0.0235434)
Neigh time (%) = 9.39564 (0.43913)
Comm  time (%) = 12.9011 (0.602966)
Outpt time (%) = 0.000291303 (1.36148e-05)
Other time (%) = 2116.8 (98.9343)

Nlocal:    31.25 ave 463 max 0 min
Histogram: 36 1 1 0 0 0 0 0 0 2
Nghost:    8.275 ave 108 max 0 min
Histogram: 36 0 0 0 0 0 3 0 0 1
Neighs:    8.375 ave 149 max 0 min
Histogram: 36 2 0 0 0 0 0 0 0 2

Total # of neighbors = 335
Ave neighs/atom = 0.268
Neighbor list builds = 11275
Dangerous builds = 282
write_dump all custom dump.atom_info_ac_* id type x y z radius vx vy vz density #
run 205761
Setting up run at Sun Dec 25 08:20:06 2022

Memory usage per processor = 960.195 Mbytes
    Step    Atoms         KinEng            CPU 
 4115222     1250     0.38415377              0 
 4320983     1242     0.43566352       2139.359 
Loop time of 2139.36 on 40 procs for 205761 steps with 1242 atoms, finish time Sun Dec 25 08:55:46 2022


Pair  time (%) = 0.496885 (0.0232259)
Neigh time (%) = 9.50763 (0.444415)
Comm  time (%) = 12.3492 (0.57724)
Outpt time (%) = 0.000555356 (2.5959e-05)
Other time (%) = 2117.01 (98.9551)

Nlocal:    31.05 ave 463 max 0 min
Histogram: 36 0 2 0 0 0 0 0 0 2
Nghost:    8.1 ave 99 max 0 min
Histogram: 36 0 0 0 0 0 2 0 1 1
Neighs:    8.225 ave 157 max 0 min
Histogram: 36 2 0 0 0 0 0 0 1 1

Total # of neighbors = 329
Ave neighs/atom = 0.264895
Neighbor list builds = 11394
Dangerous builds = 341
write_dump all custom dump.atom_info_ac_* id type x y z radius vx vy vz density #
run 205761
Setting up run at Sun Dec 25 08:55:46 2022

Memory usage per processor = 960.195 Mbytes
    Step    Atoms         KinEng            CPU 
 4320983     1242     0.43566352              0 
 4526744     1235      0.2900922      2139.9942 
Loop time of 2140.02 on 40 procs for 205761 steps with 1235 atoms, finish time Sun Dec 25 09:31:26 2022


Pair  time (%) = 0.488817 (0.0228417)
Neigh time (%) = 9.6061 (0.448878)
Comm  time (%) = 16.004 (0.747841)
Outpt time (%) = 0.000315994 (1.47659e-05)
Other time (%) = 2113.92 (98.7804)

Nlocal:    30.875 ave 463 max 0 min
Histogram: 36 0 2 0 0 0 0 0 0 2
Nghost:    7.85 ave 95 max 0 min
Histogram: 36 0 0 0 0 0 2 0 0 2
Neighs:    8.025 ave 154 max 0 min
Histogram: 37 1 0 0 0 0 0 0 1 1

Total # of neighbors = 321
Ave neighs/atom = 0.259919
Neighbor list builds = 11555
Dangerous builds = 878
write_dump all custom dump.atom_info_ac_* id type x y z radius vx vy vz density #
run 205761
Setting up run at Sun Dec 25 09:31:26 2022

Memory usage per processor = 960.195 Mbytes
    Step    Atoms         KinEng            CPU 
 4526744     1235      0.2900922              0 
 4732505     1225     0.41084692      2140.1974 
Loop time of 2140.2 on 40 procs for 205761 steps with 1225 atoms, finish time Sun Dec 25 10:07:06 2022


Pair  time (%) = 0.491461 (0.0229633)
Neigh time (%) = 9.4222 (0.440249)
Comm  time (%) = 14.9813 (0.699997)
Outpt time (%) = 0.000725197 (3.38846e-05)
Other time (%) = 2115.3 (98.8368)

Nlocal:    30.625 ave 485 max 0 min
Histogram: 36 0 2 0 0 0 0 0 1 1
Nghost:    7.975 ave 94 max 0 min
Histogram: 36 0 0 0 0 0 2 0 0 2
Neighs:    8.275 ave 185 max 0 min
Histogram: 37 1 0 0 0 0 1 0 0 1

Total # of neighbors = 331
Ave neighs/atom = 0.270204
Neighbor list builds = 11334
Dangerous builds = 94
write_dump all custom dump.atom_info_ac_* id type x y z radius vx vy vz density #
run 205761
Setting up run at Sun Dec 25 10:07:06 2022

Memory usage per processor = 960.195 Mbytes
    Step    Atoms         KinEng            CPU 
 4732505     1225     0.41084692              0 
 4938266     1216     0.43966036      2130.2425 
Loop time of 2130.24 on 40 procs for 205761 steps with 1216 atoms, finish time Sun Dec 25 10:42:36 2022


Pair  time (%) = 0.493932 (0.0231867)
Neigh time (%) = 9.06818 (0.425688)
Comm  time (%) = 13.989 (0.656685)
Outpt time (%) = 0.000594517 (2.79084e-05)
Other time (%) = 2106.69 (98.8944)

Nlocal:    30.4 ave 440 max 0 min
Histogram: 36 0 2 0 0 0 0 0 0 2
Nghost:    8.4 ave 103 max 0 min
Histogram: 36 0 0 0 0 1 1 0 1 1
Neighs:    7.85 ave 173 max 0 min
Histogram: 37 1 0 0 0 1 0 0 0 1

Total # of neighbors = 314
Ave neighs/atom = 0.258224
Neighbor list builds = 10931
Dangerous builds = 790
write_dump all custom dump.atom_info_ac_* id type x y z radius vx vy vz density #
run 205761
Setting up run at Sun Dec 25 10:42:36 2022

Memory usage per processor = 960.195 Mbytes
    Step    Atoms         KinEng            CPU 
 4938266     1216     0.43966036              0 
 5144027     1205     0.53797623      2169.7561 
Loop time of 2169.76 on 40 procs for 205761 steps with 1205 atoms, finish time Sun Dec 25 11:18:46 2022


Pair  time (%) = 0.503844 (0.0232212)
Neigh time (%) = 13.1775 (0.607326)
Comm  time (%) = 16.5828 (0.76427)
Outpt time (%) = 0.000280072 (1.2908e-05)
Other time (%) = 2139.49 (98.6052)

Nlocal:    30.125 ave 420 max 0 min
Histogram: 36 0 1 1 0 0 0 0 0 2
Nghost:    7.7 ave 92 max 0 min
Histogram: 36 0 0 0 0 1 0 1 0 2
Neighs:    7.475 ave 123 max 0 min
Histogram: 36 0 2 0 0 0 0 0 0 2

Total # of neighbors = 299
Ave neighs/atom = 0.248133
Neighbor list builds = 15807
Dangerous builds = 61
write_dump all custom dump.atom_info_ac_* id type x y z radius vx vy vz density #
run 205761
Setting up run at Sun Dec 25 11:18:46 2022

Memory usage per processor = 960.195 Mbytes
    Step    Atoms         KinEng            CPU 
 5144027     1205     0.53797623              0 
 5349788     1193     0.60496473      2183.3971 
Loop time of 2183.4 on 40 procs for 205761 steps with 1193 atoms, finish time Sun Dec 25 11:55:10 2022


Pair  time (%) = 0.489431 (0.022416)
Neigh time (%) = 12.9117 (0.591357)
Comm  time (%) = 21.8312 (0.999873)
Outpt time (%) = 0.00446619 (0.000204552)
Other time (%) = 2148.16 (98.3861)

Nlocal:    29.825 ave 410 max 0 min
Histogram: 36 0 1 1 0 0 0 0 0 2
Nghost:    8.05 ave 94 max 0 min
Histogram: 36 0 0 0 0 0 2 0 0 2
Neighs:    6.175 ave 112 max 0 min
Histogram: 37 1 0 0 0 0 0 0 0 2

Total # of neighbors = 247
Ave neighs/atom = 0.207041
Neighbor list builds = 15540
Dangerous builds = 796
write_dump all custom dump.atom_info_ac_* id type x y z radius vx vy vz density #
run 205761
Setting up run at Sun Dec 25 11:55:10 2022

Memory usage per processor = 960.195 Mbytes
    Step    Atoms         KinEng            CPU 
 5349788     1193     0.60496473              0 
 5555549     1182     0.65379711      2156.7541 
Loop time of 2156.75 on 40 procs for 205761 steps with 1182 atoms, finish time Sun Dec 25 12:31:06 2022


Pair  time (%) = 0.491418 (0.0227851)
Neigh time (%) = 11.9191 (0.552642)
Comm  time (%) = 18.3866 (0.85251)
Outpt time (%) = 0.000226865 (1.05188e-05)
Other time (%) = 2125.96 (98.5721)

Nlocal:    29.55 ave 402 max 0 min
Histogram: 35 1 1 1 0 0 0 0 0 2
Nghost:    7.5 ave 93 max 0 min
Histogram: 36 0 0 0 0 1 1 0 0 2
Neighs:    6.1 ave 97 max 0 min
Histogram: 36 1 1 0 0 0 0 0 0 2

Total # of neighbors = 244
Ave neighs/atom = 0.20643
Neighbor list builds = 14355
Dangerous builds = 631
write_dump all custom dump.atom_info_ac_* id type x y z radius vx vy vz density #
run 205761
Setting up run at Sun Dec 25 12:31:06 2022

Memory usage per processor = 960.195 Mbytes
    Step    Atoms         KinEng            CPU 
 5555549     1182     0.65379711              0 
 5761310     1173     0.27293271      2156.9132 
Loop time of 2156.92 on 40 procs for 205761 steps with 1173 atoms, finish time Sun Dec 25 13:07:03 2022


Pair  time (%) = 0.484359 (0.022456)
Neigh time (%) = 11.9583 (0.554415)
Comm  time (%) = 20.2122 (0.937086)
Outpt time (%) = 0.0238011 (0.00110347)
Other time (%) = 2124.25 (98.4849)

Nlocal:    29.325 ave 395 max 0 min
Histogram: 34 2 1 1 0 0 0 0 0 2
Nghost:    7.2 ave 98 max 0 min
Histogram: 36 0 0 0 2 0 0 0 1 1
Neighs:    6.05 ave 98 max 0 min
Histogram: 36 0 2 0 0 0 0 0 0 2

Total # of neighbors = 242
Ave neighs/atom = 0.206309
Neighbor list builds = 14384
Dangerous builds = 964
write_dump all custom dump.atom_info_ac_* id type x y z radius vx vy vz density #
run 205761
Setting up run at Sun Dec 25 13:07:04 2022

Memory usage per processor = 960.195 Mbytes
    Step    Atoms         KinEng            CPU 
 5761310     1173     0.27293271              0 
 5967071     1160     0.32543736      2136.0684 
Loop time of 2136.07 on 40 procs for 205761 steps with 1160 atoms, finish time Sun Dec 25 13:42:40 2022


Pair  time (%) = 0.478707 (0.0224107)
Neigh time (%) = 10.2053 (0.477762)
Comm  time (%) = 19.1359 (0.895849)
Outpt time (%) = 0.00414983 (0.000194274)
Other time (%) = 2106.24 (98.6038)

Nlocal:    29 ave 383 max 0 min
Histogram: 34 2 1 1 0 0 0 0 0 2
Nghost:    7.65 ave 101 max 0 min
Histogram: 36 0 0 1 0 1 0 0 0 2
Neighs:    5.575 ave 102 max 0 min
Histogram: 36 1 1 0 0 0 0 1 0 1

Total # of neighbors = 223
Ave neighs/atom = 0.192241
Neighbor list builds = 12288
Dangerous builds = 1101
write_dump all custom dump.atom_info_ac_* id type x y z radius vx vy vz density #
run 205761
Setting up run at Sun Dec 25 13:42:40 2022

Memory usage per processor = 960.195 Mbytes
    Step    Atoms         KinEng            CPU 
 5967071     1160     0.32543736              0 
 6172832     1142     0.49141868      2163.3025 
Loop time of 2163.3 on 40 procs for 205761 steps with 1142 atoms, finish time Sun Dec 25 14:18:43 2022


Pair  time (%) = 0.48346 (0.0223482)
Neigh time (%) = 12.4793 (0.576863)
Comm  time (%) = 20.771 (0.960152)
Outpt time (%) = 0.000559718 (2.58733e-05)
Other time (%) = 2129.57 (98.4406)

Nlocal:    28.55 ave 382 max 0 min
Histogram: 34 2 2 0 0 0 0 0 0 2
Nghost:    7.45 ave 93 max 0 min
Histogram: 36 0 0 0 0 2 0 0 0 2
Neighs:    5.1 ave 85 max 0 min
Histogram: 36 0 2 0 0 0 0 0 1 1

Total # of neighbors = 204
Ave neighs/atom = 0.178634
Neighbor list builds = 15073
Dangerous builds = 1365
write_dump all custom dump.atom_info_ac_* id type x y z radius vx vy vz density #
run 205761
Setting up run at Sun Dec 25 14:18:43 2022

Memory usage per processor = 960.195 Mbytes
    Step    Atoms         KinEng            CPU 
 6172832     1142     0.49141868              0 
 6378593     1133     0.42165329      2165.8766 
Loop time of 2165.88 on 40 procs for 205761 steps with 1133 atoms, finish time Sun Dec 25 14:54:49 2022


Pair  time (%) = 0.475915 (0.0219733)
Neigh time (%) = 9.62825 (0.444542)
Comm  time (%) = 15.912 (0.734665)
Outpt time (%) = 0.00981282 (0.000453064)
Other time (%) = 2139.86 (98.7984)

Nlocal:    28.325 ave 382 max 0 min
Histogram: 34 2 1 1 0 0 0 0 0 2
Nghost:    7.575 ave 91 max 0 min
Histogram: 36 0 0 0 0 1 1 0 0 2
Neighs:    4.475 ave 75 max 0 min
Histogram: 36 1 1 0 0 0 0 0 0 2

Total # of neighbors = 179
Ave neighs/atom = 0.157988
Neighbor list builds = 11583
Dangerous builds = 255
write_dump all custom dump.atom_info_ac_* id type x y z radius vx vy vz density #
run 205761
Setting up run at Sun Dec 25 14:54:49 2022

Memory usage per processor = 960.195 Mbytes
    Step    Atoms         KinEng            CPU 
 6378593     1133     0.42165329              0 
 6584354     1117     0.45963231      2149.6078 
Loop time of 2149.61 on 40 procs for 205761 steps with 1117 atoms, finish time Sun Dec 25 15:30:39 2022


Pair  time (%) = 0.467253 (0.0217367)
Neigh time (%) = 10.8415 (0.504348)
Comm  time (%) = 20.9726 (0.975649)
Outpt time (%) = 0.000533603 (2.48233e-05)
Other time (%) = 2117.33 (98.4982)

Nlocal:    27.925 ave 376 max 0 min
Histogram: 33 3 2 0 0 0 0 0 0 2
Nghost:    6.925 ave 82 max 0 min
Histogram: 36 0 0 0 0 0 2 0 0 2
Neighs:    4.225 ave 68 max 0 min
Histogram: 36 1 0 1 0 0 0 0 0 2

Total # of neighbors = 169
Ave neighs/atom = 0.151298
Neighbor list builds = 13063
Dangerous builds = 1182
write_dump all custom dump.atom_info_ac_* id type x y z radius vx vy vz density #
run 205761
Setting up run at Sun Dec 25 15:30:39 2022

Memory usage per processor = 960.195 Mbytes
    Step    Atoms         KinEng            CPU 
 6584354     1117     0.45963231              0 
 6790115     1103      0.4078239      2140.5099 
Loop time of 2140.51 on 40 procs for 205761 steps with 1103 atoms, finish time Sun Dec 25 16:06:19 2022


Pair  time (%) = 0.466301 (0.0217846)
Neigh time (%) = 9.83614 (0.459523)
Comm  time (%) = 16.0819 (0.751311)
Outpt time (%) = 0.000561798 (2.6246e-05)
Other time (%) = 2114.13 (98.7674)

Nlocal:    27.575 ave 378 max 0 min
Histogram: 33 3 1 1 0 0 0 0 1 1
Nghost:    6.775 ave 89 max 0 min
Histogram: 36 0 0 0 0 2 0 0 1 1
Neighs:    3.8 ave 60 max 0 min
Histogram: 36 0 1 1 0 0 0 0 0 2

Total # of neighbors = 152
Ave neighs/atom = 0.137806
Neighbor list builds = 11784
Dangerous builds = 919
write_dump all custom dump.atom_info_ac_* id type x y z radius vx vy vz density #
run 205761
Setting up run at Sun Dec 25 16:06:19 2022

Memory usage per processor = 960.195 Mbytes
    Step    Atoms         KinEng            CPU 
 6790115     1103      0.4078239              0 
 6995876     1087     0.43276938      2171.9708 
Loop time of 2171.97 on 40 procs for 205761 steps with 1087 atoms, finish time Sun Dec 25 16:42:31 2022


Pair  time (%) = 0.460968 (0.0212235)
Neigh time (%) = 12.0999 (0.557094)
Comm  time (%) = 23.6 (1.08657)
Outpt time (%) = 0.000260071 (1.1974e-05)
Other time (%) = 2135.81 (98.3351)

Nlocal:    27.175 ave 368 max 0 min
Histogram: 33 3 2 0 0 0 0 0 1 1
Nghost:    6.5 ave 83 max 0 min
Histogram: 36 0 0 0 0 2 0 1 0 1
Neighs:    3.35 ave 58 max 0 min
Histogram: 36 1 1 0 0 0 0 0 0 2

Total # of neighbors = 134
Ave neighs/atom = 0.123275
Neighbor list builds = 14483
Dangerous builds = 1462
write_dump all custom dump.atom_info_ac_* id type x y z radius vx vy vz density #
run 205761
Setting up run at Sun Dec 25 16:42:31 2022

Memory usage per processor = 960.195 Mbytes
    Step    Atoms         KinEng            CPU 
 6995876     1087     0.43276938              0 
 7201637     1073      0.5991997       2361.929 
Loop time of 2361.93 on 40 procs for 205761 steps with 1073 atoms, finish time Sun Dec 25 17:21:53 2022


Pair  time (%) = 0.464284 (0.019657)
Neigh time (%) = 11.9603 (0.50638)
Comm  time (%) = 20.9248 (0.885919)
Outpt time (%) = 0.000522808 (2.21348e-05)
Other time (%) = 2328.58 (98.588)

Nlocal:    26.825 ave 360 max 0 min
Histogram: 32 3 3 0 0 0 0 0 0 2
Nghost:    5.925 ave 77 max 0 min
Histogram: 36 0 0 0 0 2 0 0 1 1
Neighs:    3.5 ave 60 max 0 min
Histogram: 36 2 0 0 0 0 0 0 0 2

Total # of neighbors = 140
Ave neighs/atom = 0.130475
Neighbor list builds = 14269
Dangerous builds = 554
write_dump all custom dump.atom_info_ac_* id type x y z radius vx vy vz density #
run 205761
Setting up run at Sun Dec 25 17:21:53 2022

Memory usage per processor = 960.195 Mbytes
    Step    Atoms         KinEng            CPU 
 7201637     1073      0.5991997              0 
 7407398     1062      2.9778125      2329.1607 
Loop time of 2329.16 on 40 procs for 205761 steps with 1062 atoms, finish time Sun Dec 25 18:00:43 2022


Pair  time (%) = 0.46384 (0.0199145)
Neigh time (%) = 15.6952 (0.673858)
Comm  time (%) = 28.5148 (1.22425)
Outpt time (%) = 0.000224242 (9.6276e-06)
Other time (%) = 2284.49 (98.082)

Nlocal:    26.55 ave 358 max 0 min
Histogram: 33 3 2 0 0 0 0 0 1 1
Nghost:    6.1 ave 82 max 0 min
Histogram: 36 0 0 0 2 0 0 0 1 1
Neighs:    3.5 ave 60 max 0 min
Histogram: 36 1 1 0 0 0 0 0 0 2

Total # of neighbors = 140
Ave neighs/atom = 0.131827
Neighbor list builds = 18698
Dangerous builds = 833
write_dump all custom dump.atom_info_ac_* id type x y z radius vx vy vz density #
run 205761
Setting up run at Sun Dec 25 18:00:43 2022

Memory usage per processor = 960.195 Mbytes
    Step    Atoms         KinEng            CPU 
 7407398     1062      2.9778125              0 
 7613159     1051     0.64339087      2341.1266 
Loop time of 2341.13 on 40 procs for 205761 steps with 1051 atoms, finish time Sun Dec 25 18:39:44 2022


Pair  time (%) = 0.464746 (0.0198514)
Neigh time (%) = 15.681 (0.669806)
Comm  time (%) = 28.5297 (1.21863)
Outpt time (%) = 0.00055973 (2.39086e-05)
Other time (%) = 2296.45 (98.0917)

Nlocal:    26.275 ave 358 max 0 min
Histogram: 32 4 2 0 0 0 0 0 1 1
Nghost:    5.75 ave 72 max 0 min
Histogram: 36 0 0 0 1 1 0 0 0 2
Neighs:    3.675 ave 66 max 0 min
Histogram: 36 2 0 0 0 0 0 0 1 1

Total # of neighbors = 147
Ave neighs/atom = 0.139867
Neighbor list builds = 18652
Dangerous builds = 1114
write_dump all custom dump.atom_info_ac_* id type x y z radius vx vy vz density #
run 205761
Setting up run at Sun Dec 25 18:39:44 2022

Memory usage per processor = 960.195 Mbytes
    Step    Atoms         KinEng            CPU 
 7613159     1051     0.64339087              0 
 7818920     1040     0.72103649      2229.2261 
Loop time of 2229.23 on 40 procs for 205761 steps with 1040 atoms, finish time Sun Dec 25 19:16:53 2022


Pair  time (%) = 0.46357 (0.0207951)
Neigh time (%) = 14.5246 (0.651556)
Comm  time (%) = 25.0892 (1.12547)
Outpt time (%) = 0.000241501 (1.08334e-05)
Other time (%) = 2189.15 (98.2022)

Nlocal:    26 ave 351 max 0 min
Histogram: 32 4 2 0 0 0 0 0 1 1
Nghost:    5.8 ave 74 max 0 min
Histogram: 36 0 0 0 2 0 0 0 0 2
Neighs:    3.4 ave 60 max 0 min
Histogram: 36 2 0 0 0 0 0 0 0 2

Total # of neighbors = 136
Ave neighs/atom = 0.130769
Neighbor list builds = 17281
Dangerous builds = 741
write_dump all custom dump.atom_info_ac_* id type x y z radius vx vy vz density #
run 205761
Setting up run at Sun Dec 25 19:16:53 2022

Memory usage per processor = 960.195 Mbytes
    Step    Atoms         KinEng            CPU 
 7818920     1040     0.72103649              0 
 8024681     1023     0.76946791      2254.5298 
Loop time of 2254.53 on 40 procs for 205761 steps with 1023 atoms, finish time Sun Dec 25 19:54:28 2022


Pair  time (%) = 0.457574 (0.0202958)
Neigh time (%) = 17.2024 (0.763014)
Comm  time (%) = 34.2414 (1.51878)
Outpt time (%) = 0.000489599 (2.17162e-05)
Other time (%) = 2202.63 (97.6979)

Nlocal:    25.575 ave 343 max 0 min
Histogram: 32 4 2 0 0 0 0 0 1 1
Nghost:    6.025 ave 71 max 0 min
Histogram: 36 0 0 0 1 1 0 0 0 2
Neighs:    3.275 ave 60 max 0 min
Histogram: 37 0 1 0 0 0 0 1 0 1

Total # of neighbors = 131
Ave neighs/atom = 0.128055
Neighbor list builds = 20415
Dangerous builds = 1230
write_dump all custom dump.atom_info_ac_* id type x y z radius vx vy vz density #
run 205761
Setting up run at Sun Dec 25 19:54:28 2022

Memory usage per processor = 960.195 Mbytes
    Step    Atoms         KinEng            CPU 
 8024681     1023     0.76946791              0 
 8230442     1009      1.0450575      2284.0637 
Loop time of 2284.06 on 40 procs for 205761 steps with 1009 atoms, finish time Sun Dec 25 20:32:32 2022


Pair  time (%) = 0.458483 (0.0200731)
Neigh time (%) = 16.3226 (0.714629)
Comm  time (%) = 30.8907 (1.35244)
Outpt time (%) = 0.0201049 (0.000880227)
Other time (%) = 2236.37 (97.912)

Nlocal:    25.225 ave 341 max 0 min
Histogram: 32 4 2 0 0 0 0 0 1 1
Nghost:    5.475 ave 69 max 0 min
Histogram: 36 0 0 0 1 1 0 0 0 2
Neighs:    3.275 ave 60 max 0 min
Histogram: 36 1 1 0 0 0 0 1 0 1

Total # of neighbors = 131
Ave neighs/atom = 0.129832
Neighbor list builds = 19298
Dangerous builds = 773
write_dump all custom dump.atom_info_ac_* id type x y z radius vx vy vz density #
run 205761
Setting up run at Sun Dec 25 20:32:32 2022

Memory usage per processor = 960.195 Mbytes
    Step    Atoms         KinEng            CPU 
 8230442     1009      1.0450575              0 
 8436203      994     0.84392079      2201.5348 
Loop time of 2201.53 on 40 procs for 205761 steps with 994 atoms, finish time Sun Dec 25 21:09:14 2022


Pair  time (%) = 0.451698 (0.0205174)
Neigh time (%) = 12.5205 (0.568715)
Comm  time (%) = 22.3379 (1.01465)
Outpt time (%) = 0.000218763 (9.93683e-06)
Other time (%) = 2166.22 (98.3961)

Nlocal:    24.85 ave 337 max 0 min
Histogram: 32 4 2 0 0 0 0 0 1 1
Nghost:    5.2 ave 63 max 0 min
Histogram: 36 0 0 0 1 1 0 0 1 1
Neighs:    2.625 ave 44 max 0 min
Histogram: 37 0 1 0 0 0 0 0 0 2

Total # of neighbors = 105
Ave neighs/atom = 0.105634
Neighbor list builds = 14770
Dangerous builds = 1243
write_dump all custom dump.atom_info_ac_* id type x y z radius vx vy vz density #
run 205761
Setting up run at Sun Dec 25 21:09:14 2022

Memory usage per processor = 960.195 Mbytes
    Step    Atoms         KinEng            CPU 
 8436203      994     0.84392079              0 
 8641964      986     0.80313333      2145.1957 
Loop time of 2145.2 on 40 procs for 205761 steps with 986 atoms, finish time Sun Dec 25 21:44:59 2022


Pair  time (%) = 0.447329 (0.0208526)
Neigh time (%) = 12.3442 (0.575434)
Comm  time (%) = 21.1978 (0.988152)
Outpt time (%) = 0.000494206 (2.30378e-05)
Other time (%) = 2111.21 (98.4155)

Nlocal:    24.65 ave 326 max 0 min
Histogram: 32 4 2 0 0 0 0 0 0 2
Nghost:    4.975 ave 70 max 0 min
Histogram: 36 0 0 1 0 1 0 1 0 1
Neighs:    2.575 ave 50 max 0 min
Histogram: 37 1 0 0 0 0 0 1 0 1

Total # of neighbors = 103
Ave neighs/atom = 0.104462
Neighbor list builds = 14542
Dangerous builds = 711
write_dump all custom dump.atom_info_ac_* id type x y z radius vx vy vz density #
run 205761
Setting up run at Sun Dec 25 21:44:59 2022

Memory usage per processor = 960.195 Mbytes
    Step    Atoms         KinEng            CPU 
 8641964      986     0.80313333              0 
 8847725      977     0.86212903      2130.0294 
Loop time of 2130.04 on 40 procs for 205761 steps with 977 atoms, finish time Sun Dec 25 22:20:29 2022


Pair  time (%) = 0.442708 (0.020784)
Neigh time (%) = 9.90237 (0.464891)
Comm  time (%) = 17.7401 (0.83285)
Outpt time (%) = 0.000111307 (5.22559e-06)
Other time (%) = 2101.96 (98.6815)

Nlocal:    24.425 ave 327 max 0 min
Histogram: 33 2 3 0 0 0 0 0 1 1
Nghost:    4.6 ave 55 max 0 min
Histogram: 35 1 0 1 0 0 0 1 0 2
Neighs:    2.325 ave 44 max 0 min
Histogram: 36 1 1 0 0 0 1 0 0 1

Total # of neighbors = 93
Ave neighs/atom = 0.0951894
Neighbor list builds = 11623
Dangerous builds = 237
write_dump all custom dump.atom_info_ac_* id type x y z radius vx vy vz density #
run 205761
Setting up run at Sun Dec 25 22:20:29 2022

Memory usage per processor = 960.195 Mbytes
    Step    Atoms         KinEng            CPU 
 8847725      977     0.86212903              0 
 9053486      961      1.0208774      2206.8785 
Loop time of 2206.88 on 40 procs for 205761 steps with 961 atoms, finish time Sun Dec 25 22:57:16 2022


Pair  time (%) = 0.455178 (0.0206254)
Neigh time (%) = 18.2554 (0.827202)
Comm  time (%) = 31.9687 (1.4486)
Outpt time (%) = 0.000538611 (2.4406e-05)
Other time (%) = 2156.2 (97.7036)

Nlocal:    24.025 ave 330 max 0 min
Histogram: 32 4 2 0 0 0 0 0 1 1
Nghost:    4.875 ave 59 max 0 min
Histogram: 36 0 0 1 0 0 0 1 1 1
Neighs:    2.45 ave 44 max 0 min
Histogram: 35 3 0 0 0 0 0 1 0 1

Total # of neighbors = 98
Ave neighs/atom = 0.101977
Neighbor list builds = 21534
Dangerous builds = 1168
write_dump all custom dump.atom_info_ac_* id type x y z radius vx vy vz density #
run 205761
Setting up run at Sun Dec 25 22:57:16 2022

Memory usage per processor = 960.195 Mbytes
    Step    Atoms         KinEng            CPU 
 9053486      961      1.0208774              0 
 9259247      946     0.95496411      2170.1978 
Loop time of 2170.2 on 40 procs for 205761 steps with 946 atoms, finish time Sun Dec 25 23:33:26 2022


Pair  time (%) = 0.448304 (0.0206573)
Neigh time (%) = 14.8661 (0.685011)
Comm  time (%) = 28.0119 (1.29075)
Outpt time (%) = 0.000229434 (1.05721e-05)
Other time (%) = 2126.87 (98.0036)

Nlocal:    23.65 ave 333 max 0 min
Histogram: 32 4 2 0 0 0 0 0 1 1
Nghost:    4.85 ave 54 max 0 min
Histogram: 36 0 0 0 1 0 0 0 1 2
Neighs:    2.225 ave 46 max 0 min
Histogram: 37 1 0 0 0 0 1 0 0 1

Total # of neighbors = 89
Ave neighs/atom = 0.0940803
Neighbor list builds = 17558
Dangerous builds = 1054
write_dump all custom dump.atom_info_ac_* id type x y z radius vx vy vz density #
run 205761
Setting up run at Sun Dec 25 23:33:26 2022

Memory usage per processor = 960.195 Mbytes
    Step    Atoms         KinEng            CPU 
 9259247      946     0.95496411              0 
 9465008      931      1.0810106      2136.8698 
Loop time of 2136.87 on 40 procs for 205761 steps with 931 atoms, finish time Mon Dec 26 00:09:03 2022


Pair  time (%) = 0.437823 (0.020489)
Neigh time (%) = 11.5693 (0.541411)
Comm  time (%) = 19.3165 (0.903961)
Outpt time (%) = 0.000620232 (2.90253e-05)
Other time (%) = 2105.55 (98.5341)

Nlocal:    23.275 ave 325 max 0 min
Histogram: 33 3 2 0 0 0 0 0 1 1
Nghost:    4.775 ave 57 max 0 min
Histogram: 36 0 0 0 1 0 0 2 0 1
Neighs:    2.4 ave 52 max 0 min
Histogram: 38 0 0 0 0 0 1 0 0 1

Total # of neighbors = 96
Ave neighs/atom = 0.103115
Neighbor list builds = 13638
Dangerous builds = 578
write_dump all custom dump.atom_info_ac_* id type x y z radius vx vy vz density #
run 205761
Setting up run at Mon Dec 26 00:09:03 2022

Memory usage per processor = 960.195 Mbytes
    Step    Atoms         KinEng            CPU 
 9465008      931      1.0810106              0 
 9670769      918     0.94987794      2143.9661 
Loop time of 2143.97 on 40 procs for 205761 steps with 918 atoms, finish time Mon Dec 26 00:44:47 2022


Pair  time (%) = 0.441535 (0.0205943)
Neigh time (%) = 11.4775 (0.53534)
Comm  time (%) = 18.1599 (0.847023)
Outpt time (%) = 0.000226293 (1.05549e-05)
Other time (%) = 2113.89 (98.597)

Nlocal:    22.95 ave 315 max 0 min
Histogram: 33 3 2 0 0 0 0 0 1 1
Nghost:    4.65 ave 55 max 0 min
Histogram: 36 0 0 0 1 0 1 0 0 2
Neighs:    2.375 ave 50 max 0 min
Histogram: 37 1 0 0 0 0 1 0 0 1

Total # of neighbors = 95
Ave neighs/atom = 0.103486
Neighbor list builds = 13535
Dangerous builds = 1039
write_dump all custom dump.atom_info_ac_* id type x y z radius vx vy vz density #
run 205761
Setting up run at Mon Dec 26 00:44:47 2022

Memory usage per processor = 960.195 Mbytes
    Step    Atoms         KinEng            CPU 
 9670769      918     0.94987794              0 
 9876530      899     0.87217332      2155.6454 
Loop time of 2155.65 on 40 procs for 205761 steps with 899 atoms, finish time Mon Dec 26 01:20:43 2022


Pair  time (%) = 0.440635 (0.020441)
Neigh time (%) = 12.9262 (0.599645)
Comm  time (%) = 21.6129 (1.00262)
Outpt time (%) = 0.000539567 (2.50304e-05)
Other time (%) = 2120.67 (98.3773)

Nlocal:    22.475 ave 304 max 0 min
Histogram: 33 3 2 0 0 0 0 0 1 1
Nghost:    4.575 ave 57 max 0 min
Histogram: 36 0 0 1 0 0 1 0 1 1
Neighs:    2.15 ave 44 max 0 min
Histogram: 37 1 0 0 0 0 1 0 0 1

Total # of neighbors = 86
Ave neighs/atom = 0.0956618
Neighbor list builds = 15262
Dangerous builds = 1413
write_dump all custom dump.atom_info_ac_* id type x y z radius vx vy vz density #
run 205761
Setting up run at Mon Dec 26 01:20:43 2022

Memory usage per processor = 960.195 Mbytes
    Step    Atoms         KinEng            CPU 
 9876530      899     0.87217332              0 
10082291      884     0.91143689        2135.07 
Loop time of 2135.07 on 40 procs for 205761 steps with 884 atoms, finish time Mon Dec 26 01:56:18 2022


Pair  time (%) = 0.439117 (0.0205669)
Neigh time (%) = 11.603 (0.543446)
Comm  time (%) = 19.0333 (0.891459)
Outpt time (%) = 0.00132315 (6.19722e-05)
Other time (%) = 2103.99 (98.5445)

Nlocal:    22.1 ave 290 max 0 min
Histogram: 32 5 1 0 0 0 0 0 0 2
Nghost:    4.425 ave 67 max 0 min
Histogram: 36 0 0 1 0 1 1 0 0 1
Neighs:    2.05 ave 34 max 0 min
Histogram: 37 0 0 0 1 0 0 1 0 1

Total # of neighbors = 82
Ave neighs/atom = 0.0927602
Neighbor list builds = 13665
Dangerous builds = 589
write_dump all custom dump.atom_info_ac_* id type x y z radius vx vy vz density #
run 205761
Setting up run at Mon Dec 26 01:56:18 2022

Memory usage per processor = 960.195 Mbytes
    Step    Atoms         KinEng            CPU 
10082291      884     0.91143689              0 
10288052      874     0.83031693      2153.0831 
Loop time of 2153.08 on 40 procs for 205761 steps with 874 atoms, finish time Mon Dec 26 02:32:11 2022


Pair  time (%) = 0.435013 (0.0202042)
Neigh time (%) = 11.8111 (0.548567)
Comm  time (%) = 20.7613 (0.964259)
Outpt time (%) = 0.00024991 (1.16071e-05)
Other time (%) = 2120.08 (98.467)

Nlocal:    21.85 ave 283 max 0 min
Histogram: 32 4 2 0 0 0 0 0 0 2
Nghost:    4.775 ave 63 max 0 min
Histogram: 35 1 0 1 1 0 0 1 0 1
Neighs:    2.2 ave 36 max 0 min
Histogram: 36 1 0 1 0 0 0 0 1 1

Total # of neighbors = 88
Ave neighs/atom = 0.100686
Neighbor list builds = 13886
Dangerous builds = 1
write_dump all custom dump.atom_info_ac_* id type x y z radius vx vy vz density #
run 205761
Setting up run at Mon Dec 26 02:32:11 2022

Memory usage per processor = 960.195 Mbytes
    Step    Atoms         KinEng            CPU 
10288052      874     0.83031693              0 
10493813      859      1.0163792      2158.6221 
Loop time of 2158.62 on 40 procs for 205761 steps with 859 atoms, finish time Mon Dec 26 03:08:10 2022


Pair  time (%) = 0.438641 (0.0203204)
Neigh time (%) = 13.6657 (0.633075)
Comm  time (%) = 26.2221 (1.21476)
Outpt time (%) = 0.000533448 (2.47124e-05)
Other time (%) = 2118.3 (98.1318)

Nlocal:    21.475 ave 272 max 0 min
Histogram: 32 4 2 0 0 0 0 0 0 2
Nghost:    4.325 ave 60 max 0 min
Histogram: 36 0 0 1 0 1 1 0 0 1
Neighs:    2.05 ave 36 max 0 min
Histogram: 37 0 0 1 0 0 1 0 0 1

Total # of neighbors = 82
Ave neighs/atom = 0.0954598
Neighbor list builds = 16286
Dangerous builds = 3366
write_dump all custom dump.atom_info_ac_* id type x y z radius vx vy vz density #
run 205761
Setting up run at Mon Dec 26 03:08:10 2022

Memory usage per processor = 960.195 Mbytes
    Step    Atoms         KinEng            CPU 
10493813      859      1.0163792              0 
10699574      849      0.7342083      2156.0661 
Loop time of 2156.07 on 40 procs for 205761 steps with 849 atoms, finish time Mon Dec 26 03:44:06 2022


Pair  time (%) = 0.438662 (0.0203455)
Neigh time (%) = 11.8809 (0.551044)
Comm  time (%) = 17.9858 (0.834195)
Outpt time (%) = 0.000186339 (8.64252e-06)
Other time (%) = 2125.76 (98.5944)

Nlocal:    21.225 ave 267 max 0 min
Histogram: 32 4 1 1 0 0 0 0 0 2
Nghost:    4.3 ave 61 max 0 min
Histogram: 36 0 0 1 1 0 0 1 0 1
Neighs:    1.875 ave 37 max 0 min
Histogram: 37 0 1 0 0 0 1 0 0 1

Total # of neighbors = 75
Ave neighs/atom = 0.0883392
Neighbor list builds = 14066
Dangerous builds = 1290
write_dump all custom dump.atom_info_ac_* id type x y z radius vx vy vz density #
run 205761
Setting up run at Mon Dec 26 03:44:06 2022

Memory usage per processor = 960.195 Mbytes
    Step    Atoms         KinEng            CPU 
10699574      849      0.7342083              0 
10905335      843     0.67010035      2139.8714 
Loop time of 2139.87 on 40 procs for 205761 steps with 843 atoms, finish time Mon Dec 26 04:19:46 2022


Pair  time (%) = 0.429841 (0.0200872)
Neigh time (%) = 11.74 (0.548632)
Comm  time (%) = 21.988 (1.02754)
Outpt time (%) = 0.000575477 (2.68931e-05)
Other time (%) = 2105.71 (98.4037)

Nlocal:    21.075 ave 263 max 0 min
Histogram: 33 3 2 0 0 0 0 0 0 2
Nghost:    4 ave 52 max 0 min
Histogram: 36 0 0 0 1 1 1 0 0 1
Neighs:    2 ave 30 max 0 min
Histogram: 34 3 0 1 0 0 0 0 0 2

Total # of neighbors = 80
Ave neighs/atom = 0.0948992
Neighbor list builds = 13842
Dangerous builds = 477
write_dump all custom dump.atom_info_ac_* id type x y z radius vx vy vz density #
run 205761
Setting up run at Mon Dec 26 04:19:46 2022

Memory usage per processor = 960.195 Mbytes
    Step    Atoms         KinEng            CPU 
10905335      843     0.67010035              0 
11111096      829     0.63104498      2149.9255 
Loop time of 2149.93 on 40 procs for 205761 steps with 829 atoms, finish time Mon Dec 26 04:55:36 2022


Pair  time (%) = 0.43251 (0.0201174)
Neigh time (%) = 12.8219 (0.59639)
Comm  time (%) = 24.0261 (1.11753)
Outpt time (%) = 0.000293793 (1.36653e-05)
Other time (%) = 2112.64 (98.2659)

Nlocal:    20.725 ave 255 max 0 min
Histogram: 32 4 2 0 0 0 0 0 0 2
Nghost:    4.4 ave 59 max 0 min
Histogram: 36 0 0 0 2 0 1 0 0 1
Neighs:    2.175 ave 37 max 0 min
Histogram: 37 0 0 1 0 0 0 0 1 1

Total # of neighbors = 87
Ave neighs/atom = 0.104946
Neighbor list builds = 15109
Dangerous builds = 365
write_dump all custom dump.atom_info_ac_* id type x y z radius vx vy vz density #
run 205761
Setting up run at Mon Dec 26 04:55:36 2022

Memory usage per processor = 960.195 Mbytes
    Step    Atoms         KinEng            CPU 
11111096      829     0.63104498              0 
11316857      819     0.63472643      2138.5929 
Loop time of 2138.61 on 40 procs for 205761 steps with 819 atoms, finish time Mon Dec 26 05:31:15 2022


Pair  time (%) = 0.429336 (0.0200755)
Neigh time (%) = 10.5377 (0.492737)
Comm  time (%) = 19.9551 (0.933087)
Outpt time (%) = 0.000558717 (2.61253e-05)
Other time (%) = 2107.68 (98.5541)

Nlocal:    20.475 ave 258 max 0 min
Histogram: 32 4 2 0 0 0 0 0 0 2
Nghost:    4.125 ave 58 max 0 min
Histogram: 36 0 0 1 0 1 1 0 0 1
Neighs:    1.725 ave 38 max 0 min
Histogram: 37 0 1 0 1 0 0 0 0 1

Total # of neighbors = 69
Ave neighs/atom = 0.0842491
Neighbor list builds = 12466
Dangerous builds = 1226
write_dump all custom dump.atom_info_ac_* id type x y z radius vx vy vz density #
run 205761
Setting up run at Mon Dec 26 05:31:15 2022

Memory usage per processor = 960.195 Mbytes
    Step    Atoms         KinEng            CPU 
11316857      819     0.63472643              0 
11522618      807     0.66395514      2147.9505 
Loop time of 2147.95 on 40 procs for 205761 steps with 807 atoms, finish time Mon Dec 26 06:07:03 2022


Pair  time (%) = 0.427092 (0.0198837)
Neigh time (%) = 12.4186 (0.57816)
Comm  time (%) = 25.3264 (1.1791)
Outpt time (%) = 0.000203816 (9.48886e-06)
Other time (%) = 2109.78 (98.2228)

Nlocal:    20.175 ave 267 max 0 min
Histogram: 32 4 2 0 0 0 0 0 1 1
Nghost:    4.1 ave 59 max 0 min
Histogram: 36 0 0 1 0 1 0 1 0 1
Neighs:    2.25 ave 46 max 0 min
Histogram: 37 0 1 0 1 0 0 0 0 1

Total # of neighbors = 90
Ave neighs/atom = 0.111524
Neighbor list builds = 14618
Dangerous builds = 148
write_dump all custom dump.atom_info_ac_* id type x y z radius vx vy vz density #
run 205761
Setting up run at Mon Dec 26 06:07:03 2022

Memory usage per processor = 960.195 Mbytes
    Step    Atoms         KinEng            CPU 
11522618      807     0.66395514              0 
11728379      801     0.89730872       2137.302 
Loop time of 2137.3 on 40 procs for 205761 steps with 801 atoms, finish time Mon Dec 26 06:42:40 2022


Pair  time (%) = 0.433415 (0.0202786)
Neigh time (%) = 10.5219 (0.492298)
Comm  time (%) = 15.7682 (0.737762)
Outpt time (%) = 0.00051842 (2.42558e-05)
Other time (%) = 2110.58 (98.7496)

Nlocal:    20.025 ave 273 max 0 min
Histogram: 33 3 2 0 0 0 0 0 1 1
Nghost:    3.925 ave 52 max 0 min
Histogram: 36 0 0 1 0 1 0 0 1 1
Neighs:    2.05 ave 45 max 0 min
Histogram: 36 1 1 1 0 0 0 0 0 1

Total # of neighbors = 82
Ave neighs/atom = 0.102372
Neighbor list builds = 12413
Dangerous builds = 915
write_dump all custom dump.atom_info_ac_* id type x y z radius vx vy vz density #
run 205761
Setting up run at Mon Dec 26 06:42:40 2022

Memory usage per processor = 960.195 Mbytes
    Step    Atoms         KinEng            CPU 
11728379      801     0.89730872              0 
11934140      785     0.65940062      2167.0269 
Loop time of 2167.03 on 40 procs for 205761 steps with 785 atoms, finish time Mon Dec 26 07:18:47 2022


Pair  time (%) = 0.433379 (0.0199988)
Neigh time (%) = 13.7244 (0.633331)
Comm  time (%) = 24.8687 (1.14759)
Outpt time (%) = 0.000508176 (2.34504e-05)
Other time (%) = 2128 (98.1991)

Nlocal:    19.625 ave 266 max 0 min
Histogram: 33 4 1 0 0 0 0 0 1 1
Nghost:    4.05 ave 47 max 0 min
Histogram: 35 1 0 0 1 1 0 0 0 2
Neighs:    2.075 ave 47 max 0 min
Histogram: 37 0 1 1 0 0 0 0 0 1

Total # of neighbors = 83
Ave neighs/atom = 0.105732
Neighbor list builds = 16225
Dangerous builds = 573
write_dump all custom dump.atom_info_ac_* id type x y z radius vx vy vz density #
run 205761
Setting up run at Mon Dec 26 07:18:47 2022

Memory usage per processor = 960.195 Mbytes
    Step    Atoms         KinEng            CPU 
11934140      785     0.65940062              0 
12139901      776      1.5618463      2118.8811 
Loop time of 2118.88 on 40 procs for 205761 steps with 776 atoms, finish time Mon Dec 26 07:54:06 2022


Pair  time (%) = 0.424589 (0.0200384)
Neigh time (%) = 8.99426 (0.424482)
Comm  time (%) = 15.7313 (0.742435)
Outpt time (%) = 0.000176073 (8.30972e-06)
Other time (%) = 2093.73 (98.813)

Nlocal:    19.4 ave 266 max 0 min
Histogram: 32 4 2 0 0 0 0 0 1 1
Nghost:    4.05 ave 44 max 0 min
Histogram: 35 1 0 0 1 0 1 0 0 2
Neighs:    1.9 ave 37 max 0 min
Histogram: 36 1 0 1 1 0 0 0 0 1

Total # of neighbors = 76
Ave neighs/atom = 0.0979381
Neighbor list builds = 10578
Dangerous builds = 3
write_dump all custom dump.atom_info_ac_* id type x y z radius vx vy vz density #
run 205761
Setting up run at Mon Dec 26 07:54:06 2022

Memory usage per processor = 960.195 Mbytes
    Step    Atoms         KinEng            CPU 
12139901      776      1.5618463              0 
12345662      761     0.58341872      2262.1787 
Loop time of 2262.18 on 40 procs for 205761 steps with 761 atoms, finish time Mon Dec 26 08:31:49 2022


Pair  time (%) = 0.458763 (0.0202797)
Neigh time (%) = 24.6611 (1.09015)
Comm  time (%) = 40.8763 (1.80694)
Outpt time (%) = 0.000546099 (2.41404e-05)
Other time (%) = 2196.18 (97.0826)

Nlocal:    19.025 ave 263 max 0 min
Histogram: 33 4 1 0 0 0 0 1 0 1
Nghost:    3.725 ave 48 max 0 min
Histogram: 35 1 0 0 1 1 0 0 1 1
Neighs:    1.925 ave 37 max 0 min
Histogram: 37 0 0 0 2 0 0 0 0 1

Total # of neighbors = 77
Ave neighs/atom = 0.101183
Neighbor list builds = 30137
Dangerous builds = 17599
write_dump all custom dump.atom_info_ac_* id type x y z radius vx vy vz density #
run 205761
Setting up run at Mon Dec 26 08:31:49 2022

Memory usage per processor = 960.195 Mbytes
    Step    Atoms         KinEng            CPU 
12345662      761     0.58341872              0 
12551423      755      1.1267284      2124.4312 
Loop time of 2124.43 on 40 procs for 205761 steps with 755 atoms, finish time Mon Dec 26 09:07:13 2022


Pair  time (%) = 0.426103 (0.0200573)
Neigh time (%) = 9.81956 (0.462221)
Comm  time (%) = 13.1796 (0.620382)
Outpt time (%) = 0.000164946 (7.76425e-06)
Other time (%) = 2101.01 (98.8973)

Nlocal:    18.875 ave 262 max 0 min
Histogram: 33 4 0 1 0 0 0 1 0 1
Nghost:    3.85 ave 45 max 0 min
Histogram: 36 0 0 0 0 1 1 0 0 2
Neighs:    2.125 ave 44 max 0 min
Histogram: 37 0 0 1 1 0 0 0 0 1

Total # of neighbors = 85
Ave neighs/atom = 0.112583
Neighbor list builds = 11563
Dangerous builds = 518
write_dump all custom dump.atom_info_ac_* id type x y z radius vx vy vz density #
run 205761
Setting up run at Mon Dec 26 09:07:13 2022

Memory usage per processor = 960.195 Mbytes
    Step    Atoms         KinEng            CPU 
12551423      755      1.1267284              0 
12757184      750      1.1274608      2159.8322 
Loop time of 2159.83 on 40 procs for 205761 steps with 750 atoms, finish time Mon Dec 26 09:43:13 2022


Pair  time (%) = 0.435112 (0.0201456)
Neigh time (%) = 12.9128 (0.597861)
Comm  time (%) = 18.7102 (0.86628)
Outpt time (%) = 0.000497772 (2.30468e-05)
Other time (%) = 2127.77 (98.5157)

Nlocal:    18.75 ave 260 max 0 min
Histogram: 33 4 0 1 0 0 0 1 0 1
Nghost:    3.825 ave 47 max 0 min
Histogram: 35 1 0 0 0 2 0 0 1 1
Neighs:    2.2 ave 47 max 0 min
Histogram: 37 0 1 1 0 0 0 0 0 1

Total # of neighbors = 88
Ave neighs/atom = 0.117333
Neighbor list builds = 15162
Dangerous builds = 294
write_dump all custom dump.atom_info_ac_* id type x y z radius vx vy vz density #
run 205761
Setting up run at Mon Dec 26 09:43:13 2022

Memory usage per processor = 960.195 Mbytes
    Step    Atoms         KinEng            CPU 
12757184      750      1.1274608              0 
12962945      740     0.63862151      2164.1834 
Loop time of 2164.18 on 40 procs for 205761 steps with 740 atoms, finish time Mon Dec 26 10:19:17 2022


Pair  time (%) = 0.433582 (0.0200344)
Neigh time (%) = 12.907 (0.59639)
Comm  time (%) = 18.9264 (0.874527)
Outpt time (%) = 0.000254397 (1.17549e-05)
Other time (%) = 2131.92 (98.509)

Nlocal:    18.5 ave 259 max 0 min
Histogram: 33 4 1 0 0 0 0 1 0 1
Nghost:    3.9 ave 42 max 0 min
Histogram: 35 1 0 0 0 1 0 1 1 1
Neighs:    2.175 ave 54 max 0 min
Histogram: 37 0 2 0 0 0 0 0 0 1

Total # of neighbors = 87
Ave neighs/atom = 0.117568
Neighbor list builds = 15171
Dangerous builds = 321
write_dump all custom dump.atom_info_ac_* id type x y z radius vx vy vz density #
run 205761
Setting up run at Mon Dec 26 10:19:17 2022

Memory usage per processor = 960.195 Mbytes
    Step    Atoms         KinEng            CPU 
12962945      740     0.63862151              0 
13168706      730     0.65683946      2148.9939 
Loop time of 2148.99 on 40 procs for 205761 steps with 730 atoms, finish time Mon Dec 26 10:55:06 2022


Pair  time (%) = 0.42991 (0.0200052)
Neigh time (%) = 12.7056 (0.591237)
Comm  time (%) = 22.5886 (1.05113)
Outpt time (%) = 0.00067024 (3.11885e-05)
Other time (%) = 2113.27 (98.3376)

Nlocal:    18.25 ave 252 max 0 min
Histogram: 33 3 2 0 0 0 0 0 1 1
Nghost:    3.675 ave 43 max 0 min
Histogram: 36 0 0 0 0 1 1 1 0 1
Neighs:    2.15 ave 47 max 0 min
Histogram: 37 0 1 0 0 1 0 0 0 1

Total # of neighbors = 86
Ave neighs/atom = 0.117808
Neighbor list builds = 14968
Dangerous builds = 1220
write_dump all custom dump.atom_info_ac_* id type x y z radius vx vy vz density #
run 205761
Setting up run at Mon Dec 26 10:55:06 2022

Memory usage per processor = 960.195 Mbytes
    Step    Atoms         KinEng            CPU 
13168706      730     0.65683946              0 
13374467      724     0.56325021      2141.7438 
Loop time of 2141.74 on 40 procs for 205761 steps with 724 atoms, finish time Mon Dec 26 11:30:48 2022


Pair  time (%) = 0.427397 (0.0199556)
Neigh time (%) = 11.2142 (0.523601)
Comm  time (%) = 18.8907 (0.882026)
Outpt time (%) = 0.00024075 (1.12408e-05)
Other time (%) = 2111.21 (98.5744)

Nlocal:    18.1 ave 244 max 0 min
Histogram: 32 4 2 0 0 0 0 0 1 1
Nghost:    3.725 ave 39 max 0 min
Histogram: 35 1 0 0 0 0 1 0 2 1
Neighs:    2.1 ave 43 max 0 min
Histogram: 37 0 1 0 0 1 0 0 0 1

Total # of neighbors = 84
Ave neighs/atom = 0.116022
Neighbor list builds = 13178
Dangerous builds = 279
write_dump all custom dump.atom_info_ac_* id type x y z radius vx vy vz density #
run 205761
Setting up run at Mon Dec 26 11:30:48 2022

Memory usage per processor = 960.195 Mbytes
    Step    Atoms         KinEng            CPU 
13374467      724     0.56325021              0 
13580228      717     0.55791365      2156.5384 
Loop time of 2156.54 on 40 procs for 205761 steps with 717 atoms, finish time Mon Dec 26 12:06:45 2022


Pair  time (%) = 0.428138 (0.019853)
Neigh time (%) = 12.8372 (0.59527)
Comm  time (%) = 22.0132 (1.02077)
Outpt time (%) = 0.000555319 (2.57505e-05)
Other time (%) = 2121.26 (98.3641)

Nlocal:    17.925 ave 241 max 0 min
Histogram: 33 4 1 0 0 0 0 0 1 1
Nghost:    3.6 ave 34 max 0 min
Histogram: 35 1 0 0 0 0 0 1 0 3
Neighs:    1.9 ave 35 max 0 min
Histogram: 36 1 0 1 0 0 1 0 0 1

Total # of neighbors = 76
Ave neighs/atom = 0.105997
Neighbor list builds = 15077
Dangerous builds = 822
write_dump all custom dump.atom_info_ac_* id type x y z radius vx vy vz density #
run 205761
Setting up run at Mon Dec 26 12:06:45 2022

Memory usage per processor = 960.195 Mbytes
    Step    Atoms         KinEng            CPU 
13580228      717     0.55791365              0 
13785989      712     0.71377835      2144.6158 
Loop time of 2144.62 on 40 procs for 205761 steps with 712 atoms, finish time Mon Dec 26 12:42:29 2022


Pair  time (%) = 0.424931 (0.0198139)
Neigh time (%) = 11.5906 (0.540451)
Comm  time (%) = 20.8604 (0.972688)
Outpt time (%) = 0.00421499 (0.000196538)
Other time (%) = 2111.74 (98.4669)

Nlocal:    17.8 ave 235 max 0 min
Histogram: 32 4 2 0 0 0 0 0 1 1
Nghost:    3.55 ave 38 max 0 min
Histogram: 35 1 0 0 0 0 1 1 1 1
Neighs:    1.8 ave 32 max 0 min
Histogram: 37 0 0 0 1 0 0 1 0 1

Total # of neighbors = 72
Ave neighs/atom = 0.101124
Neighbor list builds = 13626
Dangerous builds = 1025
write_dump all custom dump.atom_info_ac_* id type x y z radius vx vy vz density #
run 205761
Setting up run at Mon Dec 26 12:42:29 2022

Memory usage per processor = 960.195 Mbytes
    Step    Atoms         KinEng            CPU 
13785989      712     0.71377835              0 
13991750      709       0.553095      2152.7516 
Loop time of 2152.75 on 40 procs for 205761 steps with 709 atoms, finish time Mon Dec 26 13:18:22 2022


Pair  time (%) = 0.426064 (0.0197916)
Neigh time (%) = 12.1625 (0.564974)
Comm  time (%) = 20.2761 (0.941869)
Outpt time (%) = 4.42769e-05 (2.05676e-06)
Other time (%) = 2119.89 (98.4734)

Nlocal:    17.725 ave 227 max 0 min
Histogram: 32 5 1 0 0 0 0 0 0 2
Nghost:    3.275 ave 37 max 0 min
Histogram: 35 1 0 0 0 1 0 0 2 1
Neighs:    1.8 ave 32 max 0 min
Histogram: 37 0 0 0 1 0 1 0 0 1

Total # of neighbors = 72
Ave neighs/atom = 0.101551
Neighbor list builds = 14220
Dangerous builds = 0
write_dump all custom dump.atom_info_ac_* id type x y z radius vx vy vz density #
run 205761
Setting up run at Mon Dec 26 13:18:22 2022

Memory usage per processor = 960.195 Mbytes
    Step    Atoms         KinEng            CPU 
13991750      709       0.553095              0 
14197511      700     0.62665642      2155.5004 
Loop time of 2155.5 on 40 procs for 205761 steps with 700 atoms, finish time Mon Dec 26 13:54:18 2022


Pair  time (%) = 0.425568 (0.0197434)
Neigh time (%) = 13.1284 (0.609063)
Comm  time (%) = 21.5919 (1.00171)
Outpt time (%) = 0.000516235 (2.39496e-05)
Other time (%) = 2120.35 (98.3695)

Nlocal:    17.5 ave 219 max 0 min
Histogram: 33 2 3 0 0 0 0 0 0 2
Nghost:    3.725 ave 39 max 0 min
Histogram: 35 1 0 0 0 0 1 0 2 1
Neighs:    1.55 ave 29 max 0 min
Histogram: 36 1 0 0 1 1 0 0 0 1

Total # of neighbors = 62
Ave neighs/atom = 0.0885714
Neighbor list builds = 15399
Dangerous builds = 255
write_dump all custom dump.atom_info_ac_* id type x y z radius vx vy vz density #
run 205761
Setting up run at Mon Dec 26 13:54:18 2022

Memory usage per processor = 960.195 Mbytes
    Step    Atoms         KinEng            CPU 
14197511      700     0.62665642              0 
14403272      688     0.64710724      2150.6851 
Loop time of 2150.69 on 40 procs for 205761 steps with 688 atoms, finish time Mon Dec 26 14:30:09 2022


Pair  time (%) = 0.421109 (0.0195802)
Neigh time (%) = 13.2719 (0.617099)
Comm  time (%) = 22.8648 (1.06314)
Outpt time (%) = 0.000256855 (1.19429e-05)
Other time (%) = 2114.13 (98.3002)

Nlocal:    17.2 ave 218 max 0 min
Histogram: 33 2 3 0 0 0 0 0 0 2
Nghost:    3.475 ave 42 max 0 min
Histogram: 36 0 0 0 1 0 0 1 1 1
Neighs:    1.4 ave 22 max 0 min
Histogram: 37 0 0 0 1 0 0 0 1 1

Total # of neighbors = 56
Ave neighs/atom = 0.0813953
Neighbor list builds = 15616
Dangerous builds = 703
write_dump all custom dump.atom_info_ac_* id type x y z radius vx vy vz density #
run 205761
Setting up run at Mon Dec 26 14:30:09 2022

Memory usage per processor = 960.195 Mbytes
    Step    Atoms         KinEng            CPU 
14403272      688     0.64710724              0 
14609033      679      0.4962238      2159.8803 
Loop time of 2159.88 on 40 procs for 205761 steps with 679 atoms, finish time Mon Dec 26 15:06:09 2022


Pair  time (%) = 0.424152 (0.0196377)
Neigh time (%) = 13.3656 (0.618814)
Comm  time (%) = 22.2878 (1.0319)
Outpt time (%) = 0.000529833 (2.45306e-05)
Other time (%) = 2123.8 (98.3296)

Nlocal:    16.975 ave 216 max 0 min
Histogram: 32 4 1 1 0 0 0 0 0 2
Nghost:    3.325 ave 41 max 0 min
Histogram: 36 0 0 0 0 1 1 0 1 1
Neighs:    1.475 ave 26 max 0 min
Histogram: 37 0 1 0 0 0 0 0 1 1

Total # of neighbors = 59
Ave neighs/atom = 0.0868925
Neighbor list builds = 15752
Dangerous builds = 1123
write_dump all custom dump.atom_info_ac_* id type x y z radius vx vy vz density #
run 205761
Setting up run at Mon Dec 26 15:06:09 2022

Memory usage per processor = 960.195 Mbytes
    Step    Atoms         KinEng            CPU 
14609033      679      0.4962238              0 
14814794      661     0.41704732      2149.7533 
Loop time of 2149.75 on 40 procs for 205761 steps with 661 atoms, finish time Mon Dec 26 15:41:58 2022


Pair  time (%) = 0.420235 (0.019548)
Neigh time (%) = 12.1739 (0.566294)
Comm  time (%) = 20.8046 (0.967766)
Outpt time (%) = 0.000198414 (9.22961e-06)
Other time (%) = 2116.35 (98.4464)

Nlocal:    16.525 ave 212 max 0 min
Histogram: 33 3 2 0 0 0 0 0 0 2
Nghost:    3.55 ave 41 max 0 min
Histogram: 36 0 0 0 1 0 0 1 1 1
Neighs:    1.15 ave 21 max 0 min
Histogram: 37 1 0 0 0 0 0 0 0 2

Total # of neighbors = 46
Ave neighs/atom = 0.0695915
Neighbor list builds = 14347
Dangerous builds = 534
write_dump all custom dump.atom_info_ac_* id type x y z radius vx vy vz density #
run 205761
Setting up run at Mon Dec 26 15:41:59 2022

Memory usage per processor = 960.195 Mbytes
    Step    Atoms         KinEng            CPU 
14814794      661     0.41704732              0 
15020555      649     0.36794422      2168.7783 
Loop time of 2168.78 on 40 procs for 205761 steps with 649 atoms, finish time Mon Dec 26 16:18:07 2022


Pair  time (%) = 0.428509 (0.0197581)
Neigh time (%) = 14.3685 (0.662516)
Comm  time (%) = 19.1614 (0.883509)
Outpt time (%) = 0.000616835 (2.84416e-05)
Other time (%) = 2134.82 (98.4342)

Nlocal:    16.225 ave 211 max 0 min
Histogram: 32 4 2 0 0 0 0 0 0 2
Nghost:    3.525 ave 40 max 0 min
Histogram: 35 1 0 0 0 1 1 0 0 2
Neighs:    1 ave 18 max 0 min
Histogram: 36 2 0 0 0 0 0 0 1 1

Total # of neighbors = 40
Ave neighs/atom = 0.0616333
Neighbor list builds = 17012
Dangerous builds = 775
write_dump all custom dump.atom_info_ac_* id type x y z radius vx vy vz density #
run 205761
Setting up run at Mon Dec 26 16:18:07 2022

Memory usage per processor = 960.195 Mbytes
    Step    Atoms         KinEng            CPU 
15020555      649     0.36794422              0 
15226316      645     0.59686852      2136.4477 
Loop time of 2136.45 on 40 procs for 205761 steps with 645 atoms, finish time Mon Dec 26 16:53:44 2022


Pair  time (%) = 0.414847 (0.0194176)
Neigh time (%) = 10.6566 (0.4988)
Comm  time (%) = 18.3957 (0.861044)
Outpt time (%) = 0.000275186 (1.28805e-05)
Other time (%) = 2106.98 (98.6207)

Nlocal:    16.125 ave 213 max 0 min
Histogram: 32 5 1 0 0 0 0 0 0 2
Nghost:    3.45 ave 38 max 0 min
Histogram: 36 0 0 0 0 0 0 2 0 2
Neighs:    0.8 ave 16 max 0 min
Histogram: 37 1 0 0 0 0 1 0 0 1

Total # of neighbors = 32
Ave neighs/atom = 0.0496124
Neighbor list builds = 12537
Dangerous builds = 2
write_dump all custom dump.atom_info_ac_* id type x y z radius vx vy vz density #
run 205761
Setting up run at Mon Dec 26 16:53:44 2022

Memory usage per processor = 960.195 Mbytes
    Step    Atoms         KinEng            CPU 
15226316      645     0.59686852              0 
15432077      639     0.51549896      2134.7302 
Loop time of 2134.73 on 40 procs for 205761 steps with 639 atoms, finish time Mon Dec 26 17:29:19 2022


Pair  time (%) = 0.411675 (0.0192846)
Neigh time (%) = 10.6807 (0.500329)
Comm  time (%) = 18.6287 (0.872648)
Outpt time (%) = 0.000496175 (2.3243e-05)
Other time (%) = 2105.01 (98.6077)

Nlocal:    15.975 ave 215 max 0 min
Histogram: 32 6 0 0 0 0 0 0 1 1
Nghost:    3.45 ave 38 max 0 min
Histogram: 36 0 0 0 0 0 0 2 1 1
Neighs:    0.95 ave 17 max 0 min
Histogram: 36 2 0 0 0 0 0 0 1 1

Total # of neighbors = 38
Ave neighs/atom = 0.0594679
Neighbor list builds = 12559
Dangerous builds = 242
write_dump all custom dump.atom_info_ac_* id type x y z radius vx vy vz density #
run 205761
Setting up run at Mon Dec 26 17:29:19 2022

Memory usage per processor = 960.195 Mbytes
    Step    Atoms         KinEng            CPU 
15432077      639     0.51549896              0 
15637838      629     0.42444892      2161.1278 
Loop time of 2161.13 on 40 procs for 205761 steps with 629 atoms, finish time Mon Dec 26 18:05:20 2022


Pair  time (%) = 0.425054 (0.0196682)
Neigh time (%) = 14.0035 (0.647974)
Comm  time (%) = 21.3326 (0.987103)
Outpt time (%) = 0.00948359 (0.000438826)
Other time (%) = 2125.36 (98.3448)

Nlocal:    15.725 ave 212 max 0 min
Histogram: 33 3 2 0 0 0 0 0 1 1
Nghost:    3.45 ave 38 max 0 min
Histogram: 35 1 0 0 0 0 1 1 0 2
Neighs:    0.875 ave 18 max 0 min
Histogram: 36 2 0 0 0 1 0 0 0 1

Total # of neighbors = 35
Ave neighs/atom = 0.0556439
Neighbor list builds = 16615
Dangerous builds = 2846
write_dump all custom dump.atom_info_ac_* id type x y z radius vx vy vz density #
run 205761
Setting up run at Mon Dec 26 18:05:20 2022

Memory usage per processor = 960.195 Mbytes
    Step    Atoms         KinEng            CPU 
15637838      629     0.42444892              0 
15843599      618     0.45622847       2152.015 
Loop time of 2152.02 on 40 procs for 205761 steps with 618 atoms, finish time Mon Dec 26 18:41:12 2022


Pair  time (%) = 0.422888 (0.0196508)
Neigh time (%) = 12.5341 (0.582434)
Comm  time (%) = 14.8955 (0.692165)
Outpt time (%) = 0.000561381 (2.60863e-05)
Other time (%) = 2124.16 (98.7057)

Nlocal:    15.45 ave 210 max 0 min
Histogram: 32 4 2 0 0 0 0 0 1 1
Nghost:    3.425 ave 40 max 0 min
Histogram: 36 0 0 0 0 0 1 1 0 2
Neighs:    1.225 ave 21 max 0 min
Histogram: 36 2 0 0 0 0 0 0 0 2

Total # of neighbors = 49
Ave neighs/atom = 0.079288
Neighbor list builds = 14748
Dangerous builds = 159
write_dump all custom dump.atom_info_ac_* id type x y z radius vx vy vz density #
run 205761
Setting up run at Mon Dec 26 18:41:12 2022

Memory usage per processor = 960.195 Mbytes
    Step    Atoms         KinEng            CPU 
15843599      618     0.45622847              0 
16049360      612     0.37968959      2145.6649 
Loop time of 2145.67 on 40 procs for 205761 steps with 612 atoms, finish time Mon Dec 26 19:16:58 2022


Pair  time (%) = 0.418917 (0.0195239)
Neigh time (%) = 11.8222 (0.550982)
Comm  time (%) = 15.8935 (0.740725)
Outpt time (%) = 0.000537358 (2.50439e-05)
Other time (%) = 2117.53 (98.6887)

Nlocal:    15.3 ave 209 max 0 min
Histogram: 32 5 1 0 0 0 0 0 1 1
Nghost:    3.05 ave 34 max 0 min
Histogram: 35 1 0 0 0 0 0 3 0 1
Neighs:    1.1 ave 19 max 0 min
Histogram: 35 3 0 0 0 0 0 0 1 1

Total # of neighbors = 44
Ave neighs/atom = 0.0718954
Neighbor list builds = 13931
Dangerous builds = 169
write_dump all custom dump.atom_info_ac_* id type x y z radius vx vy vz density #
run 205761
Setting up run at Mon Dec 26 19:16:58 2022

Memory usage per processor = 960.195 Mbytes
    Step    Atoms         KinEng            CPU 
16049360      612     0.37968959              0 
16255121      605     0.41549962      2134.2328 
Loop time of 2134.23 on 40 procs for 205761 steps with 605 atoms, finish time Mon Dec 26 19:52:32 2022


Pair  time (%) = 0.415089 (0.0194491)
Neigh time (%) = 10.1684 (0.476442)
Comm  time (%) = 14.5052 (0.679645)
Outpt time (%) = 0.000200972 (9.41658e-06)
Other time (%) = 2109.14 (98.8245)

Nlocal:    15.125 ave 203 max 0 min
Histogram: 33 3 2 0 0 0 0 0 1 1
Nghost:    3.075 ave 30 max 0 min
Histogram: 34 2 0 0 0 0 0 0 2 2
Neighs:    0.95 ave 17 max 0 min
Histogram: 35 3 0 0 0 0 0 0 1 1

Total # of neighbors = 38
Ave neighs/atom = 0.0628099
Neighbor list builds = 11946
Dangerous builds = 114
write_dump all custom dump.atom_info_ac_* id type x y z radius vx vy vz density #
run 205761
Setting up run at Mon Dec 26 19:52:32 2022

Memory usage per processor = 960.195 Mbytes
    Step    Atoms         KinEng            CPU 
16255121      605     0.41549962              0 
16460882      598     0.38814479      2139.9402 
Loop time of 2139.94 on 40 procs for 205761 steps with 598 atoms, finish time Mon Dec 26 20:28:12 2022


Pair  time (%) = 0.413612 (0.0193282)
Neigh time (%) = 10.9433 (0.511385)
Comm  time (%) = 17.3333 (0.809991)
Outpt time (%) = 0.000549301 (2.5669e-05)
Other time (%) = 2111.25 (98.6593)

Nlocal:    14.95 ave 204 max 0 min
Histogram: 32 4 2 0 0 0 0 0 1 1
Nghost:    3.075 ave 37 max 0 min
Histogram: 36 0 0 0 0 0 2 1 0 1
Neighs:    1.175 ave 24 max 0 min
Histogram: 37 1 0 0 0 0 1 0 0 1

[...]
28806572      222     0.41987444      2143.6596 
Loop time of 2143.66 on 40 procs for 205761 steps with 222 atoms, finish time Wed Dec 28 08:22:56 2022


Pair  time (%) = 0.389016 (0.0181473)
Neigh time (%) = 11.1519 (0.520225)
Comm  time (%) = 12.23 (0.570521)
Outpt time (%) = 0.000194772 (9.08598e-06)
Other time (%) = 2119.89 (98.8911)

Nlocal:    5.55 ave 73 max 0 min
Histogram: 33 2 3 0 0 0 1 0 0 1
Nghost:    0.825 ave 9 max 0 min
Histogram: 30 2 4 1 0 1 1 0 0 1
Neighs:    0.225 ave 6 max 0 min
Histogram: 36 3 0 0 0 0 0 0 0 1

Total # of neighbors = 9
Ave neighs/atom = 0.0405405
Neighbor list builds = 13055
Dangerous builds = 0
write_dump all custom dump.atom_info_ac_* id type x y z radius vx vy vz density #
run 205761
Setting up run at Wed Dec 28 08:22:56 2022

Memory usage per processor = 960.195 Mbytes
    Step    Atoms         KinEng            CPU 
28806572      222     0.41987444              0 
29012333      220     0.30036045      2117.7419 
Loop time of 2117.74 on 40 procs for 205761 steps with 220 atoms, finish time Wed Dec 28 08:58:14 2022


Pair  time (%) = 0.387012 (0.0182748)
Neigh time (%) = 9.77961 (0.461794)
Comm  time (%) = 11.1615 (0.527048)
Outpt time (%) = 0.000553139 (2.61193e-05)
Other time (%) = 2096.41 (98.9929)

Nlocal:    5.5 ave 70 max 0 min
Histogram: 32 4 1 1 0 0 1 0 0 1
Nghost:    0.75 ave 9 max 0 min
Histogram: 31 5 1 0 0 0 1 0 1 1
Neighs:    0.125 ave 4 max 0 min
Histogram: 38 0 1 0 0 0 0 0 0 1

Total # of neighbors = 5
Ave neighs/atom = 0.0227273
Neighbor list builds = 11445
Dangerous builds = 0
write_dump all custom dump.atom_info_ac_* id type x y z radius vx vy vz density #
run 205761
Setting up run at Wed Dec 28 08:58:14 2022

Memory usage per processor = 960.195 Mbytes
    Step    Atoms         KinEng            CPU 
29012333      220     0.30036045              0 
29218094      220      0.5227594      2125.5718 
Loop time of 2125.57 on 40 procs for 205761 steps with 220 atoms, finish time Wed Dec 28 09:33:39 2022


Pair  time (%) = 0.389836 (0.0183403)
Neigh time (%) = 10.2249 (0.481042)
Comm  time (%) = 8.96773 (0.421897)
Outpt time (%) = 0.000195202 (9.1835e-06)
Other time (%) = 2105.99 (99.0787)

Nlocal:    5.5 ave 68 max 0 min
Histogram: 32 3 3 0 0 0 0 1 0 1
Nghost:    0.875 ave 11 max 0 min
Histogram: 36 0 1 0 0 0 1 0 0 2
Neighs:    0.075 ave 3 max 0 min
Histogram: 39 0 0 0 0 0 0 0 0 1

Total # of neighbors = 3
Ave neighs/atom = 0.0136364
Neighbor list builds = 11969
Dangerous builds = 0
write_dump all custom dump.atom_info_ac_* id type x y z radius vx vy vz density #
run 205761
Setting up run at Wed Dec 28 09:33:39 2022

Memory usage per processor = 960.195 Mbytes
    Step    Atoms         KinEng            CPU 
29218094      220      0.5227594              0 
29423855      217     0.43028151      2138.7741 
Loop time of 2138.77 on 40 procs for 205761 steps with 217 atoms, finish time Wed Dec 28 10:09:18 2022


Pair  time (%) = 0.392952 (0.0183728)
Neigh time (%) = 11.5025 (0.537809)
Comm  time (%) = 10.378 (0.485233)
Outpt time (%) = 0.000576343 (2.69474e-05)
Other time (%) = 2116.5 (98.9586)

Nlocal:    5.425 ave 67 max 0 min
Histogram: 33 2 3 0 0 0 0 1 0 1
Nghost:    0.95 ave 14 max 0 min
Histogram: 34 3 0 0 0 1 1 0 0 1
Neighs:    0.1 ave 2 max 0 min
Histogram: 37 0 0 0 0 2 0 0 0 1

Total # of neighbors = 4
Ave neighs/atom = 0.0184332
Neighbor list builds = 13481
Dangerous builds = 1
write_dump all custom dump.atom_info_ac_* id type x y z radius vx vy vz density #
run 205761
Setting up run at Wed Dec 28 10:09:18 2022

Memory usage per processor = 960.195 Mbytes
    Step    Atoms         KinEng            CPU 
29423855      217     0.43028151              0 
29629616      213     0.30768319      2133.4617 
Loop time of 2133.46 on 40 procs for 205761 steps with 213 atoms, finish time Wed Dec 28 10:44:52 2022


Pair  time (%) = 0.389837 (0.0182725)
Neigh time (%) = 11.2152 (0.525681)
Comm  time (%) = 10.7812 (0.505337)
Outpt time (%) = 0.000516393 (2.42045e-05)
Other time (%) = 2111.08 (98.9507)

Nlocal:    5.325 ave 65 max 0 min
Histogram: 32 2 4 0 0 0 0 0 1 1
Nghost:    0.775 ave 9 max 0 min
Histogram: 31 4 1 1 0 0 1 1 0 1
Neighs:    0.075 ave 3 max 0 min
Histogram: 39 0 0 0 0 0 0 0 0 1

Total # of neighbors = 3
Ave neighs/atom = 0.0140845
Neighbor list builds = 13139
Dangerous builds = 0
write_dump all custom dump.atom_info_ac_* id type x y z radius vx vy vz density #
run 205761
Setting up run at Wed Dec 28 10:44:52 2022

Memory usage per processor = 960.195 Mbytes
    Step    Atoms         KinEng            CPU 
29629616      213     0.30768319              0 
29835377      211     0.27301193      2139.2501 
Loop time of 2139.25 on 40 procs for 205761 steps with 211 atoms, finish time Wed Dec 28 11:20:31 2022


Pair  time (%) = 0.389156 (0.0181912)
Neigh time (%) = 10.8195 (0.505763)
Comm  time (%) = 10.5377 (0.492586)
Outpt time (%) = 0.000215267 (1.00627e-05)
Other time (%) = 2117.5 (98.9834)

Nlocal:    5.275 ave 67 max 0 min
Histogram: 33 2 3 0 0 0 0 1 0 1
Nghost:    0.825 ave 9 max 0 min
Histogram: 30 4 2 0 0 2 1 0 0 1
Neighs:    0.175 ave 4 max 0 min
Histogram: 36 0 3 0 0 0 0 0 0 1

Total # of neighbors = 7
Ave neighs/atom = 0.0331754
Neighbor list builds = 12670
Dangerous builds = 0
write_dump all custom dump.atom_info_ac_* id type x y z radius vx vy vz density #
run 205761
Setting up run at Wed Dec 28 11:20:31 2022

Memory usage per processor = 960.195 Mbytes
    Step    Atoms         KinEng            CPU 
29835377      211     0.27301193              0 
30041138      208     0.32240507      2137.0989 
Loop time of 2137.1 on 40 procs for 205761 steps with 208 atoms, finish time Wed Dec 28 11:56:08 2022


Pair  time (%) = 0.389258 (0.0182143)
Neigh time (%) = 11.7083 (0.547858)
Comm  time (%) = 12.2653 (0.573923)
Outpt time (%) = 0.000548263 (2.56545e-05)
Other time (%) = 2112.74 (98.86)

Nlocal:    5.2 ave 65 max 0 min
Histogram: 33 2 3 0 0 0 0 1 0 1
Nghost:    0.675 ave 9 max 0 min
Histogram: 33 2 2 0 1 0 0 0 1 1
Neighs:    0.125 ave 3 max 0 min
Histogram: 37 0 0 2 0 0 0 0 0 1

Total # of neighbors = 5
Ave neighs/atom = 0.0240385
Neighbor list builds = 13734
Dangerous builds = 24
write_dump all custom dump.atom_info_ac_* id type x y z radius vx vy vz density #
run 205761
Setting up run at Wed Dec 28 11:56:08 2022

Memory usage per processor = 960.195 Mbytes
    Step    Atoms         KinEng            CPU 
30041138      208     0.32240507              0 
30246899      205     0.33986487      2172.8732 
Loop time of 2172.87 on 40 procs for 205761 steps with 205 atoms, finish time Wed Dec 28 12:32:21 2022


Pair  time (%) = 0.390042 (0.0179505)
Neigh time (%) = 11.2065 (0.515747)
Comm  time (%) = 11.468 (0.52778)
Outpt time (%) = 0.000217164 (9.9943e-06)
Other time (%) = 2149.81 (98.9385)

Nlocal:    5.125 ave 63 max 0 min
Histogram: 33 2 2 1 0 0 0 0 1 1
Nghost:    0.95 ave 10 max 0 min
Histogram: 29 3 3 2 0 0 1 1 0 1
Neighs:    0.175 ave 3 max 0 min
Histogram: 36 0 0 2 0 0 1 0 0 1

Total # of neighbors = 7
Ave neighs/atom = 0.0341463
Neighbor list builds = 13154
Dangerous builds = 329
write_dump all custom dump.atom_info_ac_* id type x y z radius vx vy vz density #
run 205761
Setting up run at Wed Dec 28 12:32:21 2022

Memory usage per processor = 960.195 Mbytes
    Step    Atoms         KinEng            CPU 
30246899      205     0.33986487              0 
30452660      201     0.27404547      2119.3652 
Loop time of 2119.39 on 40 procs for 205761 steps with 201 atoms, finish time Wed Dec 28 13:07:41 2022


Pair  time (%) = 0.382915 (0.0180672)
Neigh time (%) = 9.46442 (0.446563)
Comm  time (%) = 10.3522 (0.48845)
Outpt time (%) = 0.00424797 (0.000200433)
Other time (%) = 2099.19 (99.0467)

Nlocal:    5.025 ave 66 max 0 min
Histogram: 34 2 2 0 0 0 0 1 0 1
Nghost:    0.825 ave 12 max 0 min
Histogram: 34 2 1 1 0 0 1 0 0 1
Neighs:    0.1 ave 2 max 0 min
Histogram: 38 0 0 0 0 0 0 0 0 2

Total # of neighbors = 4
Ave neighs/atom = 0.0199005
Neighbor list builds = 11109
Dangerous builds = 384
write_dump all custom dump.atom_info_ac_* id type x y z radius vx vy vz density #
run 205761
Setting up run at Wed Dec 28 13:07:41 2022

Memory usage per processor = 960.195 Mbytes
    Step    Atoms         KinEng            CPU 
30452660      201     0.27404547              0 
30658421      200     0.67853526        2161.41 
Loop time of 2161.41 on 40 procs for 205761 steps with 200 atoms, finish time Wed Dec 28 13:43:42 2022


Pair  time (%) = 0.38242 (0.0176931)
Neigh time (%) = 8.93845 (0.413547)
Comm  time (%) = 9.09153 (0.420629)
Outpt time (%) = 0.00022676 (1.04913e-05)
Other time (%) = 2143 (99.1481)

Nlocal:    5 ave 65 max 0 min
Histogram: 33 2 3 0 0 0 1 0 0 1
Nghost:    0.775 ave 9 max 0 min
Histogram: 29 6 1 1 0 1 1 0 0 1
Neighs:    0.075 ave 2 max 0 min
Histogram: 38 0 0 0 0 1 0 0 0 1

Total # of neighbors = 3
Ave neighs/atom = 0.015
Neighbor list builds = 10464
Dangerous builds = 1
write_dump all custom dump.atom_info_ac_* id type x y z radius vx vy vz density #
run 205761
Setting up run at Wed Dec 28 13:43:44 2022

Memory usage per processor = 960.195 Mbytes
    Step    Atoms         KinEng            CPU 
30658421      200     0.67853526              0 
30864182      196     0.25045825      2196.3399 
Loop time of 2196.34 on 40 procs for 205761 steps with 196 atoms, finish time Wed Dec 28 14:20:20 2022


Pair  time (%) = 0.389051 (0.0177136)
Neigh time (%) = 10.103 (0.459991)
Comm  time (%) = 7.82435 (0.356245)
Outpt time (%) = 0.000524797 (2.38942e-05)
Other time (%) = 2178.02 (99.166)

Nlocal:    4.9 ave 63 max 0 min
Histogram: 33 2 3 0 0 0 0 1 0 1
Nghost:    0.825 ave 8 max 0 min
Histogram: 30 4 2 0 0 1 1 0 0 2
Neighs:    0.125 ave 3 max 0 min
Histogram: 37 0 0 2 0 0 0 0 0 1

Total # of neighbors = 5
Ave neighs/atom = 0.0255102
Neighbor list builds = 11843
Dangerous builds = 64
write_dump all custom dump.atom_info_ac_* id type x y z radius vx vy vz density #
run 205761
Setting up run at Wed Dec 28 14:20:20 2022

Memory usage per processor = 960.195 Mbytes
    Step    Atoms         KinEng            CPU 
30864182      196     0.25045825              0 
31069943      191     0.22301157      2129.4407 
Loop time of 2129.44 on 40 procs for 205761 steps with 191 atoms, finish time Wed Dec 28 14:55:50 2022


Pair  time (%) = 0.382623 (0.0179682)
Neigh time (%) = 10.7192 (0.50338)
Comm  time (%) = 13.389 (0.628758)
Outpt time (%) = 0.000265535 (1.24697e-05)
Other time (%) = 2104.95 (98.8499)

Nlocal:    4.775 ave 60 max 0 min
Histogram: 32 3 3 0 0 0 0 1 0 1
Nghost:    1.075 ave 11 max 0 min
Histogram: 31 4 1 1 1 0 0 0 1 1
Neighs:    0.15 ave 3 max 0 min
Histogram: 37 0 0 1 0 0 1 0 0 1

Total # of neighbors = 6
Ave neighs/atom = 0.0314136
Neighbor list builds = 12598
Dangerous builds = 2
write_dump all custom dump.atom_info_ac_* id type x y z radius vx vy vz density #
run 205761
Setting up run at Wed Dec 28 14:55:50 2022

Memory usage per processor = 960.195 Mbytes
    Step    Atoms         KinEng            CPU 
31069943      191     0.22301157              0 
31275704      188     0.19788498      2148.1877 
Loop time of 2148.19 on 40 procs for 205761 steps with 188 atoms, finish time Wed Dec 28 15:31:38 2022


Pair  time (%) = 0.390212 (0.0181647)
Neigh time (%) = 12.0132 (0.559223)
Comm  time (%) = 9.27094 (0.43157)
Outpt time (%) = 0.000480572 (2.2371e-05)
Other time (%) = 2126.51 (98.991)

Nlocal:    4.7 ave 62 max 0 min
Histogram: 32 5 1 0 0 0 0 1 0 1
Nghost:    0.8 ave 10 max 0 min
Histogram: 32 4 0 1 0 0 0 1 1 1
Neighs:    0.05 ave 1 max 0 min
Histogram: 38 0 0 0 0 0 0 0 0 2

Total # of neighbors = 2
Ave neighs/atom = 0.0106383
Neighbor list builds = 14103
Dangerous builds = 0
write_dump all custom dump.atom_info_ac_* id type x y z radius vx vy vz density #
run 205761
Setting up run at Wed Dec 28 15:31:38 2022

Memory usage per processor = 960.195 Mbytes
    Step    Atoms         KinEng            CPU 
31275704      188     0.19788498              0 
31481465      181     0.25765013      2122.1796 
Loop time of 2122.18 on 40 procs for 205761 steps with 181 atoms, finish time Wed Dec 28 16:07:00 2022


Pair  time (%) = 0.384444 (0.0181155)
Neigh time (%) = 9.51015 (0.448131)
Comm  time (%) = 10.2151 (0.481351)
Outpt time (%) = 0.000254577 (1.1996e-05)
Other time (%) = 2102.07 (99.0524)

Nlocal:    4.525 ave 62 max 0 min
Histogram: 33 4 1 0 0 0 1 0 0 1
Nghost:    0.85 ave 9 max 0 min
Histogram: 28 7 1 0 1 1 0 1 0 1
Neighs:    0.05 ave 1 max 0 min
Histogram: 38 0 0 0 0 0 0 0 0 2

Total # of neighbors = 2
Ave neighs/atom = 0.0110497
Neighbor list builds = 11172
Dangerous builds = 97
write_dump all custom dump.atom_info_ac_* id type x y z radius vx vy vz density #
run 205761
Setting up run at Wed Dec 28 16:07:01 2022

Memory usage per processor = 960.195 Mbytes
    Step    Atoms         KinEng            CPU 
31481465      181     0.25765013              0 
31687226      178     0.29033734      2127.8653 
Loop time of 2127.87 on 40 procs for 205761 steps with 178 atoms, finish time Wed Dec 28 16:42:28 2022


Pair  time (%) = 0.385778 (0.0181298)
Neigh time (%) = 11.0398 (0.518821)
Comm  time (%) = 11.2697 (0.529627)
Outpt time (%) = 0.000473897 (2.2271e-05)
Other time (%) = 2105.17 (98.9334)

Nlocal:    4.45 ave 56 max 0 min
Histogram: 31 4 3 0 0 0 0 1 0 1
Nghost:    0.675 ave 7 max 0 min
Histogram: 32 4 0 0 0 1 0 1 0 2
Neighs:    0.05 ave 1 max 0 min
Histogram: 38 0 0 0 0 0 0 0 0 2

Total # of neighbors = 2
Ave neighs/atom = 0.011236
Neighbor list builds = 12955
Dangerous builds = 5
write_dump all custom dump.atom_info_ac_* id type x y z radius vx vy vz density #
run 205761
Setting up run at Wed Dec 28 16:42:28 2022

Memory usage per processor = 960.195 Mbytes
    Step    Atoms         KinEng            CPU 
31687226      178     0.29033734              0 
31892987      175     0.34437247      2140.5214 
Loop time of 2140.52 on 40 procs for 205761 steps with 175 atoms, finish time Wed Dec 28 17:18:09 2022


Pair  time (%) = 0.391911 (0.0183091)
Neigh time (%) = 11.7716 (0.54994)
Comm  time (%) = 8.89891 (0.415736)
Outpt time (%) = 0.00043446 (2.02969e-05)
Other time (%) = 2119.46 (99.016)

Nlocal:    4.375 ave 54 max 0 min
Histogram: 31 4 3 0 0 0 0 1 0 1
Nghost:    0.675 ave 7 max 0 min
Histogram: 32 4 0 0 0 1 0 0 2 1
Neighs:    0.05 ave 1 max 0 min
Histogram: 38 0 0 0 0 0 0 0 0 2

Total # of neighbors = 2
Ave neighs/atom = 0.0114286
Neighbor list builds = 13807
Dangerous builds = 13
write_dump all custom dump.atom_info_ac_* id type x y z radius vx vy vz density #
run 205761
Setting up run at Wed Dec 28 17:18:09 2022

Memory usage per processor = 960.195 Mbytes
    Step    Atoms         KinEng            CPU 
31892987      175     0.34437247              0 
32098748      164     0.29236623      2201.2393 
Loop time of 2201.24 on 40 procs for 205761 steps with 164 atoms, finish time Wed Dec 28 17:54:51 2022


Pair  time (%) = 0.387685 (0.0176121)
Neigh time (%) = 10.3139 (0.468548)
Comm  time (%) = 7.74437 (0.351819)
Outpt time (%) = 0.000189146 (8.5927e-06)
Other time (%) = 2182.79 (99.162)

Nlocal:    4.1 ave 49 max 0 min
Histogram: 32 2 4 0 0 0 0 0 1 1
Nghost:    0.575 ave 7 max 0 min
Histogram: 31 5 0 0 1 2 0 0 0 1
Neighs:    0.05 ave 2 max 0 min
Histogram: 39 0 0 0 0 0 0 0 0 1

Total # of neighbors = 2
Ave neighs/atom = 0.0121951
Neighbor list builds = 12144
Dangerous builds = 606
write_dump all custom dump.atom_info_ac_* id type x y z radius vx vy vz density #
run 205761
Setting up run at Wed Dec 28 17:54:51 2022

Memory usage per processor = 960.195 Mbytes
    Step    Atoms         KinEng            CPU 
32098748      164     0.29236623              0 
32304509      160     0.19695598      2126.6455 
Loop time of 2126.66 on 40 procs for 205761 steps with 160 atoms, finish time Wed Dec 28 18:30:17 2022


Pair  time (%) = 0.380192 (0.0178774)
Neigh time (%) = 7.56608 (0.355773)
Comm  time (%) = 5.85486 (0.275308)
Outpt time (%) = 0.0128641 (0.000604898)
Other time (%) = 2112.84 (99.3504)

Nlocal:    4 ave 46 max 0 min
Histogram: 31 3 3 1 0 0 0 0 0 2
Nghost:    0.6 ave 8 max 0 min
Histogram: 35 1 0 0 0 1 1 1 0 1
Neighs:    0.025 ave 1 max 0 min
Histogram: 39 0 0 0 0 0 0 0 0 1

Total # of neighbors = 1
Ave neighs/atom = 0.00625
Neighbor list builds = 8905
Dangerous builds = 500
write_dump all custom dump.atom_info_ac_* id type x y z radius vx vy vz density #
run 205761
Setting up run at Wed Dec 28 18:30:18 2022

Memory usage per processor = 960.195 Mbytes
    Step    Atoms         KinEng            CPU 
32304509      160     0.19695598              0 
32510270      160      0.2734857      2112.1142 
Loop time of 2112.11 on 40 procs for 205761 steps with 160 atoms, finish time Wed Dec 28 19:05:30 2022


Pair  time (%) = 0.381893 (0.0180811)
Neigh time (%) = 8.6376 (0.408955)
Comm  time (%) = 7.07375 (0.334913)
Outpt time (%) = 0.000217486 (1.0297e-05)
Other time (%) = 2096.02 (99.238)

Nlocal:    4 ave 46 max 0 min
Histogram: 33 1 3 0 1 0 0 0 1 1
Nghost:    0.575 ave 6 max 0 min
Histogram: 32 3 0 1 0 0 3 0 0 1
Neighs:    0.025 ave 1 max 0 min
Histogram: 39 0 0 0 0 0 0 0 0 1

Total # of neighbors = 1
Ave neighs/atom = 0.00625
Neighbor list builds = 10153
Dangerous builds = 0
write_dump all custom dump.atom_info_ac_* id type x y z radius vx vy vz density #
run 205761
Setting up run at Wed Dec 28 19:05:30 2022

Memory usage per processor = 960.195 Mbytes
    Step    Atoms         KinEng            CPU 
32510270      160      0.2734857              0 
32716031      157     0.53106746      2121.7825 
Loop time of 2121.78 on 40 procs for 205761 steps with 157 atoms, finish time Wed Dec 28 19:40:52 2022


Pair  time (%) = 0.38039 (0.0179278)
Neigh time (%) = 9.72315 (0.458254)
Comm  time (%) = 9.22933 (0.43498)
Outpt time (%) = 0.000585494 (2.75944e-05)
Other time (%) = 2102.45 (99.0888)

Nlocal:    3.925 ave 43 max 0 min
Histogram: 33 1 3 1 0 0 0 0 0 2
Nghost:    0.625 ave 7 max 0 min
Histogram: 31 5 0 0 0 2 0 1 0 1
Neighs:    0.075 ave 3 max 0 min
Histogram: 39 0 0 0 0 0 0 0 0 1

Total # of neighbors = 3
Ave neighs/atom = 0.0191083
Neighbor list builds = 11405
Dangerous builds = 195
write_dump all custom dump.atom_info_ac_* id type x y z radius vx vy vz density #
run 205761
Setting up run at Wed Dec 28 19:40:52 2022

Memory usage per processor = 960.195 Mbytes
    Step    Atoms         KinEng            CPU 
32716031      157     0.53106746              0 
32921792      151     0.23733283      2129.6481 
Loop time of 2129.65 on 40 procs for 205761 steps with 151 atoms, finish time Wed Dec 28 20:16:22 2022


Pair  time (%) = 0.384219 (0.0180414)
Neigh time (%) = 10.1379 (0.476035)
Comm  time (%) = 8.679 (0.407532)
Outpt time (%) = 0.00378029 (0.000177508)
Other time (%) = 2110.44 (99.0982)

Nlocal:    3.775 ave 48 max 0 min
Histogram: 32 4 2 0 0 0 0 1 0 1
Nghost:    0.55 ave 6 max 0 min
Histogram: 32 4 0 0 0 1 1 0 1 1
Neighs:    0.075 ave 3 max 0 min
Histogram: 39 0 0 0 0 0 0 0 0 1

Total # of neighbors = 3
Ave neighs/atom = 0.0198675
Neighbor list builds = 11894
Dangerous builds = 0
write_dump all custom dump.atom_info_ac_* id type x y z radius vx vy vz density #
run 205761
Setting up run at Wed Dec 28 20:16:22 2022

Memory usage per processor = 960.195 Mbytes
    Step    Atoms         KinEng            CPU 
32921792      151     0.23733283              0 
WARNING: Forced restart written (../output.cpp:427)
33023382      151      0.2318534      1044.3164 
Loop time of 1044.32 on 40 procs for 205761 steps with 151 atoms, finish time Wed Dec 28 20:33:46 2022


Pair  time (%) = 0.187437 (0.0179483)
Neigh time (%) = 4.33429 (0.415036)
Comm  time (%) = 3.59281 (0.344035)
Outpt time (%) = 0.0899222 (0.00861062)
Other time (%) = 1036.11 (99.2144)

Nlocal:    3.775 ave 48 max 0 min
Histogram: 32 3 3 0 0 0 0 1 0 1
Nghost:    0.7 ave 7 max 0 min
Histogram: 31 5 0 0 0 1 0 0 2 1
Neighs:    0.075 ave 3 max 0 min
Histogram: 39 0 0 0 0 0 0 0 0 1

Total # of neighbors = 3
Ave neighs/atom = 0.0198675
Neighbor list builds = 5080
Dangerous builds = 0
